FOO
141312
    1MOL0     O    1   3.680   6.477   6.270 -0.4983 -0.3206 -0.3746
    1MOL0     C    2   3.678   6.437   6.385 -0.1823 -0.3041 -0.5365
    1MOL0     O    3   3.780   6.370   6.436  0.0349  0.0006 -0.6061
    1MOL0     C    4   3.869   6.312   6.346  0.4364  0.1578 -0.0539
    1MOL0     C    5   3.987   6.374   6.311 -0.6061  0.4718  0.3407
    1MOL0     C    6   4.085   6.315   6.236 -0.2142 -0.1496 -0.0972
    1MOL0     C    7   4.061   6.174   6.208 -0.1710 -0.0134  0.1237
    1MOL0     O    8   4.159   6.097   6.144  0.1016 -0.1804 -0.1144
    1MOL0     C    9   4.265   6.161   6.062 -0.3592  0.0966 -0.2256
    1MOL0     C   10   4.398   6.095   6.094 -0.8922 -0.1008 -0.8868
    1MOL0     C   11   4.497   6.138   5.988 -0.4399 -0.4152 -0.4205
    1MOL0     C   12   4.625   6.050   6.000 -0.2381  0.7673 -0.5317
    1MOL0     C   13   4.686   6.007   5.874  0.4540  0.1577 -0.2531
    1MOL0     C   14   4.837   5.992   5.887 -0.0014  0.0482 -0.0316
    1MOL0     C   15   4.884   5.945   5.750 -0.0246 -0.2324  0.6164
    1MOL0     C   16   5.042   5.954   5.748 -0.2335  0.3476 -0.3865
    1MOL0     N   17   5.088   5.905   5.616 -0.5643  0.0850  0.4335
    1MOL0     C   18   5.137   5.989   5.518 -0.3207  0.6891 -0.5781
    1MOL0     C   19   5.197   5.905   5.432  0.7181 -0.3403 -0.4324
    1MOL0     C   20   5.260   5.936   5.299 -0.4822  0.0992 -0.5255
    1MOL0     C   21   5.390   5.860   5.291  0.1089 -0.1389  0.6650
    1MOL0     C   22   5.481   5.923   5.188  0.6195  0.1785 -0.5949
    1MOL0     C   23   5.589   5.831   5.147 -0.9240 -0.2212 -0.8681
    1MOL0     O   24   5.681   5.811   5.262  0.2025 -0.4209  0.0425
    1MOL0     C   25   5.807   5.768   5.237 -0.5003  0.8860 -0.0855
    1MOL0     C   26   5.866   5.723   5.116  0.2143  0.0301  0.4363
    1MOL0     C   27   5.998   5.698   5.101  1.3236  0.0868  0.0707
    1MOL0     C   28   6.057   5.658   4.965 -0.1109  0.5950  0.1456
    1MOL0     C   29   6.087   5.707   5.211  0.0442 -1.1340 -0.3324
    1MOL0     C   30   6.233   5.684   5.210 -0.3951 -0.3140  0.7259
    1MOL0     O   31   6.301   5.723   5.323  0.0493 -0.0222  0.5106
    1MOL0     C   32   6.436   5.724   5.314  0.0651 -0.0249 -0.4369
    1MOL0     C   33   6.510   5.760   5.200 -0.6588 -0.0724  0.4247
    1MOL0     C   34   6.650   5.763   5.205  0.8549  0.5263  0.1191
    1MOL0     C   35   6.725   5.731   5.316  0.0146 -0.1295  0.8134
    1MOL0     O   36   6.868   5.725   5.299  1.1236  0.4429 -0.6057
    1MOL0     C   37   6.947   5.658   5.401 -0.1693  0.3928 -0.0174
    1MOL0     C   38   7.031   5.765   5.482 -1.3019 -0.3276  1.0178
    1MOL0     C   39   7.127   5.854   5.397 -0.4648  0.0136 -0.2604
    1MOL0     C   40   7.276   5.839   5.449 -0.6497 -0.3561 -0.2278
    1MOL0     C   41   7.375   5.951   5.394  0.4037 -0.7576  0.2671
    1MOL0     C   42   7.520   5.933   5.448 -0.0395  0.1010 -0.5989
    1MOL0     C   43   7.604   6.051   5.396 -0.6247  0.1300 -0.1655
    1MOL0     C   44   7.751   6.004   5.403 -0.7169  0.4011  0.8074
    1MOL0    Cl   45   7.800   5.969   5.567 -0.1531  0.2222  0.1066
    1MOL0     C   46   6.643   5.713   5.432  0.4330  0.3080 -0.3065
    1MOL0     C   47   6.502   5.706   5.438  0.4758 -0.2531  1.3353
    1MOL0     O   48   6.283   5.608   5.126  0.0015  0.0279  0.9455
    1MOL0     C   49   6.034   5.759   5.329  0.2788  0.7058 -0.2963
    1MOL0     C   50   5.892   5.784   5.342 -0.5898  0.6749 -0.1553
    1MOL0     N   51   5.171   5.771   5.467 -0.1300  0.3374  0.8218
    1MOL0     N   52   5.107   5.770   5.575  0.2254  0.4155 -1.1207
    1MOL0     C   53   3.941   6.113   6.233 -0.4746  0.3861 -0.1878
    1MOL0     C   54   3.840   6.180   6.309  0.2052  0.4106  0.4673
    1MOL0     C   55   3.555   6.466   6.459  0.4133 -0.7702  0.7045
    1MOL0     C   56   3.558   6.416   6.593 -1.0687 -0.2456 -0.2911
    1MOL0     C   57   3.457   6.441   6.679 -0.4345  0.2772  0.1897
    1MOL0     C   58   3.348   6.517   6.639  0.2013 -0.0914 -0.5040
    1MOL0     O   59   3.243   6.524   6.733  0.1900 -0.9007 -0.6240
    1MOL0     C   60   3.111   6.577   6.701 -0.2759  0.0134  0.2164
    1MOL0     C   61   3.033   6.530   6.816  0.6173 -0.1242  0.1459
    1MOL0     C   62   2.890   6.592   6.800  0.1124 -0.2373  0.1518
    1MOL0     C   63   2.808   6.587   6.924 -0.0458 -0.0700  1.0216
    1MOL0     C   64   2.673   6.631   6.877 -0.4316 -0.3521 -0.4554
    1MOL0     C   65   2.586   6.686   6.816  0.5351 -0.5152  0.7262
    1MOL0     C   66   3.344   6.575   6.512 -0.0011 -0.0852  0.6876
    1MOL0     C   67   3.441   6.544   6.416  0.2436  0.5609  0.2154
    1MOL0     C   68   3.417   6.595   6.284 -0.5576 -0.9282  0.4002
    1MOL0     H   69   4.002   6.476   6.343 -1.7249  0.3832  1.2078
    1MOL0     H   70   4.174   6.377   6.223  1.3953 -2.0915  1.1271
    1MOL0     H   71   4.289   6.267   6.079 -1.1901  0.0361  1.6411
    1MOL0     H   72   4.244   6.133   5.959  0.5696  2.9426 -1.2859
    1MOL0     H   73   4.442   6.129   6.188 -1.3923  1.1074 -1.0792
    1MOL0     H   74   4.380   5.987   6.103 -2.0356  0.2467  2.2369
    1MOL0     H   75   4.453   6.118   5.890  1.1961  2.5865 -1.8867
    1MOL0     H   76   4.509   6.247   5.988  1.3629 -0.5655  0.5687
    1MOL0     H   77   4.696   6.110   6.058  1.4359 -2.4575  1.0386
    1MOL0     H   78   4.620   5.969   6.074  0.9461  2.4517  1.5251
    1MOL0     H   79   4.654   6.078   5.798 -2.2597  0.5571  1.1408
    1MOL0     H   80   4.647   5.908   5.847 -0.4738  0.1857  0.9071
    1MOL0     H   81   4.882   6.089   5.911  0.8543 -0.5982  1.0606
    1MOL0     H   82   4.848   5.934   5.979  1.0638 -1.1873 -0.8948
    1MOL0     H   83   4.834   6.005   5.673  3.2358 -1.8120 -3.0800
    1MOL0     H   84   4.860   5.840   5.731  3.0194 -0.6277 -1.8671
    1MOL0     H   85   5.077   6.057   5.760  2.9464 -0.7245  0.6349
    1MOL0     H   86   5.090   5.893   5.825 -0.4329  1.3358  0.5305
    1MOL0     H   87   5.135   6.097   5.512  0.2077  0.6465 -2.1013
    1MOL0     H   88   5.277   6.044   5.295  0.8111  0.0011  1.1078
    1MOL0     H   89   5.208   5.919   5.205 -1.2296  3.0268 -0.7338
    1MOL0     H   90   5.455   5.854   5.379  2.2772 -2.4088 -0.9370
    1MOL0     H   91   5.359   5.761   5.258  2.3943 -0.2925 -1.3190
    1MOL0     H   92   5.410   5.937   5.106 -0.6532 -0.0233  0.4366
    1MOL0     H   93   5.514   6.019   5.230  1.5129 -2.0352  4.5102
    1MOL0     H   94   5.547   5.734   5.120 -0.0374 -1.5425  2.0416
    1MOL0     H   95   5.640   5.867   5.058 -0.6247 -1.3116 -1.1597
    1MOL0     H   96   5.798   5.705   5.033 -0.0400 -0.5149  0.7562
    1MOL0     H   97   5.979   5.675   4.891 -0.0942  2.1609  0.4695
    1MOL0     H   98   6.090   5.553   4.966  0.5474  0.7735  2.3494
    1MOL0     H   99   6.147   5.718   4.947 -0.5153  1.1591 -0.0089
    1MOL0     H  100   6.465   5.773   5.102  1.7057 -1.5907 -0.9740
    1MOL0     H  101   6.717   5.783   5.122  1.9409 -3.1199 -0.0431
    1MOL0     H  102   6.889   5.601   5.473  0.9588  0.1974  0.7594
    1MOL0     H  103   7.015   5.586   5.355 -0.9404 -2.1116  2.5078
    1MOL0     H  104   6.964   5.837   5.530 -2.7860 -0.7311 -0.3394
    1MOL0     H  105   7.093   5.709   5.553 -0.9045 -1.3753 -0.1191
    1MOL0     H  106   7.091   5.957   5.401  1.9142  0.9253 -0.6596
    1MOL0     H  107   7.116   5.831   5.290 -0.9705  0.5338 -0.3249
    1MOL0     H  108   7.314   5.739   5.429  2.8514  0.8691 -0.2633
    1MOL0     H  109   7.285   5.847   5.558  3.8409 -0.9023 -0.3896
    1MOL0     H  110   7.372   5.956   5.285 -0.1701 -1.6350  0.2318
    1MOL0     H  111   7.337   6.050   5.423  1.1846 -0.6678  1.0237
    1MOL0     H  112   7.560   5.840   5.405  2.6804  2.8848 -4.9501
    1MOL0     H  113   7.514   5.922   5.557  0.0113 -0.5936 -0.6579
    1MOL0     H  114   7.583   6.140   5.456  0.3166  0.8887 -0.9325
    1MOL0     H  115   7.580   6.078   5.293  2.7163  1.5936 -0.7038
    1MOL0     H  116   7.812   6.084   5.360 -0.4825 -0.9009 -1.4905
    1MOL0     H  117   7.767   5.921   5.333  0.9128  2.6422 -1.6671
    1MOL0     H  118   6.685   5.692   5.530  0.0309 -0.3190 -0.2642
    1MOL0     H  119   6.443   5.686   5.526 -0.8617  0.0019  0.5332
    1MOL0     H  120   6.098   5.786   5.412 -1.2632  1.2304  0.7774
    1MOL0     H  121   5.856   5.808   5.442  0.9178 -2.8678  1.4295
    1MOL0     H  122   3.916   6.015   6.195 -1.6166 -0.0281  1.4935
    1MOL0     H  123   3.740   6.141   6.319  0.8433 -1.8798 -1.1495
    1MOL0     H  124   3.644   6.362   6.631  1.3330  3.9585  0.8603
    1MOL0     H  125   3.454   6.403   6.781  2.1392  1.8128  0.9169
    1MOL0     H  126   3.116   6.686   6.698  1.6265 -0.0253  0.6146
    1MOL0     H  127   3.078   6.527   6.610  0.5864  2.7551 -1.7174
    1MOL0     H  128   3.082   6.568   6.906  0.0162 -1.1658  0.9382
    1MOL0     H  129   3.028   6.421   6.821 -0.1416 -0.1344 -0.6395
    1MOL0     H  130   2.896   6.696   6.765  0.1756 -0.4953 -0.6007
    1MOL0     H  131   2.848   6.543   6.712  1.4107  3.0399 -2.5241
    1MOL0     H  132   2.849   6.653   7.002  3.4890  0.4207 -1.0237
    1MOL0     H  133   2.790   6.488   6.967 -0.6845 -0.8959 -1.0326
    1MOL0     H  134   2.526   6.751   6.756  2.2173 -0.6745 -1.2281
    1MOL0     H  135   3.259   6.635   6.478  1.0237  0.5845 -0.8080
    1MOL0     H  136   3.414   6.522   6.202 -1.1736 -0.5333  0.0690
    1MOL0     H  137   3.326   6.655   6.282  1.5552  2.6245  0.7186
    1MOL0     H  138   3.504   6.655   6.255  2.3799 -4.2694  1.5287
    2MOL0     O  139   0.856   5.417   1.828 -0.5472 -0.0200  0.3295
    2MOL0     C  140   0.941   5.329   1.854 -0.2623  0.3206  0.9259
    2MOL0     O  141   1.062   5.350   1.909 -1.1038  0.6034 -0.2884
    2MOL0     C  142   1.076   5.473   1.964  0.2984  0.0219 -0.0280
    2MOL0     C  143   1.148   5.578   1.901 -0.1375 -0.0172  0.1213
    2MOL0     C  144   1.157   5.702   1.966 -0.5599 -0.2787  0.2756
    2MOL0     C  145   1.094   5.729   2.086  0.4400  0.2512  0.1513
    2MOL0     O  146   1.115   5.855   2.127 -0.1172 -0.2421  0.3051
    2MOL0     C  147   1.035   5.902   2.237  0.1042  0.4549 -0.9576
    2MOL0     C  148   1.085   6.045   2.248 -0.0865  0.1934 -0.4433
    2MOL0     C  149   1.225   6.079   2.314  0.1381 -0.5005 -0.3744
    2MOL0     C  150   1.236   6.235   2.316  0.1447  0.0315 -0.5304
    2MOL0     C  151   1.315   6.300   2.439  0.1284  0.6208 -0.7173
    2MOL0     C  152   1.464   6.261   2.424  0.3626  0.8330 -1.0402
    2MOL0     C  153   1.549   6.329   2.547 -0.4140  0.2439  0.3762
    2MOL0     C  154   1.683   6.252   2.576 -0.3371 -0.0870 -0.4508
    2MOL0     N  155   1.774   6.354   2.604 -0.8953 -0.5617  0.6393
    2MOL0     C  156   1.818   6.385   2.726 -0.6242 -0.3184  0.2821
    2MOL0     C  157   1.918   6.475   2.710 -0.1457  0.0080  0.7866
    2MOL0     C  158   1.999   6.553   2.810  0.4137  0.3318 -0.2670
    2MOL0     C  159   1.964   6.699   2.802  0.2430 -0.0960  0.6414
    2MOL0     C  160   2.055   6.790   2.892 -0.5178  0.0708 -0.5334
    2MOL0     C  161   2.205   6.776   2.859 -0.1166  1.5438 -0.1149
    2MOL0     O  162   2.289   6.840   2.960  0.4630 -0.1309 -0.1079
    2MOL0     C  163   2.412   6.787   2.994  0.4210 -0.1628 -0.4360
    2MOL0     C  164   2.500   6.872   3.059  0.3845  1.0127 -0.4296
    2MOL0     C  165   2.630   6.838   3.100 -0.1359  0.4264  0.6706
    2MOL0     C  166   2.709   6.962   3.153  0.9111  1.0411 -0.4248
    2MOL0     C  167   2.675   6.699   3.079 -0.5272  0.6038  0.1155
    2MOL0     C  168   2.820   6.656   3.097 -0.0591 -0.2384 -1.1451
    2MOL0     O  169   2.856   6.529   3.075  0.0609  0.0082 -0.4277
    2MOL0     C  170   2.990   6.494   3.069 -0.6248 -1.2923 -0.7119
    2MOL0     C  171   3.037   6.371   3.112 -0.1778  0.5962 -0.2025
    2MOL0     C  172   3.173   6.340   3.089  0.3944 -0.2585  0.2248
    2MOL0     C  173   3.254   6.427   3.011 -0.3430  0.4572  0.1007
    2MOL0     O  174   3.376   6.374   2.979  0.0883  0.2273 -0.4690
    2MOL0     C  175   3.457   6.447   2.889  0.0212  0.0023  0.2844
    2MOL0     C  176   3.589   6.373   2.865 -0.0538  0.1060  0.6759
    2MOL0     C  177   3.666   6.340   2.998  0.5367 -0.6203  0.2012
    2MOL0     C  178   3.711   6.454   3.087 -0.1265  0.8873 -0.2049
    2MOL0     C  179   3.833   6.522   3.016  0.1395 -0.1668  0.3248
    2MOL0     C  180   3.869   6.646   3.086 -0.5601 -0.3365 -0.4462
    2MOL0     C  181   3.962   6.608   3.210  0.2206  0.2994 -0.2982
    2MOL0     C  182   3.978   6.722   3.310  0.2554  0.0941 -0.2341
    2MOL0    Cl  183   4.109   6.707   3.436  0.1744 -0.0278 -0.1708
    2MOL0     C  184   3.206   6.549   2.963 -0.1833  0.1035  0.3294
    2MOL0     C  185   3.077   6.586   3.005  0.2857  0.6433  0.0522
    2MOL0     O  186   2.894   6.747   3.138 -0.1893  0.1056  0.2197
    2MOL0     C  187   2.583   6.608   3.013  0.0773 -0.8402 -0.2576
    2MOL0     C  188   2.463   6.659   2.965  0.2342  0.1783  0.1806
    2MOL0     N  189   1.932   6.497   2.572 -0.0999  0.1948  0.3558
    2MOL0     N  190   1.846   6.422   2.511  0.5083  1.0414 -0.3933
    2MOL0     C  191   1.028   5.634   2.152  0.2288  0.4574  0.4602
    2MOL0     C  192   1.014   5.507   2.090 -0.3557 -0.1579 -0.0078
    2MOL0     C  193   0.903   5.185   1.838 -0.5957 -0.3882  0.3658
    2MOL0     C  194   0.974   5.092   1.918  0.2415  0.3397 -0.2512
    2MOL0     C  195   0.959   4.955   1.908  0.2331 -1.1810 -0.5788
    2MOL0     C  196   0.858   4.908   1.821 -0.4801 -0.8620  0.0165
    2MOL0     O  197   0.831   4.779   1.822  0.0599  0.4230  0.8136
    2MOL0     C  198   0.697   4.729   1.840  0.8909  0.2784  0.1043
    2MOL0     C  199   0.710   4.616   1.945  0.4884 -0.6651 -0.0399
    2MOL0     C  200   0.587   4.526   1.951  0.5967  0.0683  0.1920
    2MOL0     C  201   0.466   4.570   2.034  0.5821  0.7211 -0.3512
    2MOL0     C  202   0.386   4.464   2.094 -0.6095  0.0870 -0.6447
    2MOL0     C  203   0.314   4.373   2.131  0.3621  0.3104  0.8549
    2MOL0     C  204   0.783   5.002   1.739 -0.1665 -0.3924  0.1561
    2MOL0     C  205   0.808   5.136   1.747  0.4882 -0.7906 -0.5866
    2MOL0     C  206   0.729   5.221   1.639  0.3877 -0.5585 -0.2831
    2MOL0     H  207   1.193   5.551   1.806  1.4431 -3.3316  1.6335
    2MOL0     H  208   1.211   5.779   1.912 -3.0124  1.4913  0.1791
    2MOL0     H  209   1.056   5.842   2.326  0.4819  0.6360 -0.9221
    2MOL0     H  210   0.927   5.903   2.216 -0.1212 -1.1500 -0.0780
    2MOL0     H  211   1.078   6.086   2.146  1.0480 -0.4648 -0.8030
    2MOL0     H  212   1.007   6.098   2.304  0.2168  1.9824 -1.6096
    2MOL0     H  213   1.226   6.037   2.415 -0.6068 -2.8757 -1.2779
    2MOL0     H  214   1.307   6.028   2.262 -0.7217 -1.2038 -1.0785
    2MOL0     H  215   1.280   6.266   2.221 -1.0821  1.5174 -0.6595
    2MOL0     H  216   1.133   6.274   2.318  0.0345 -0.2768  1.8022
    2MOL0     H  217   1.270   6.256   2.529  0.3305 -0.4728 -1.1287
    2MOL0     H  218   1.307   6.409   2.440  0.5513  0.7261  2.6578
    2MOL0     H  219   1.466   6.153   2.443 -0.2515  1.3550  2.8793
    2MOL0     H  220   1.513   6.285   2.329 -0.1523 -0.6279 -1.6921
    2MOL0     H  221   1.489   6.336   2.638 -0.7435  3.3477  0.0385
    2MOL0     H  222   1.565   6.433   2.516 -2.3293  0.0312 -1.6274
    2MOL0     H  223   1.675   6.191   2.667 -0.2291  0.5541 -0.0011
    2MOL0     H  224   1.720   6.184   2.499 -1.0370 -3.4696  1.9548
    2MOL0     H  225   1.787   6.343   2.822 -0.0701 -3.0337 -0.6479
    2MOL0     H  226   2.099   6.527   2.773 -0.3333 -0.4838 -1.7944
    2MOL0     H  227   1.965   6.510   2.904 -1.6197 -1.3249 -1.6690
    2MOL0     H  228   1.974   6.730   2.698 -0.5841 -1.5648  0.0904
    2MOL0     H  229   1.856   6.713   2.819  0.1380  3.9255 -1.9832
    2MOL0     H  230   2.028   6.895   2.881  0.8599  0.5485  0.3448
    2MOL0     H  231   2.036   6.771   2.998  0.9588  2.5001  0.2378
    2MOL0     H  232   2.244   6.674   2.853 -1.9784  0.7583  0.5482
    2MOL0     H  233   2.231   6.827   2.765  4.0668 -0.4946 -0.2903
    2MOL0     H  234   2.470   6.976   3.066 -2.4393  0.3629 -1.7776
    2MOL0     H  235   2.733   6.935   3.257 -2.9965  0.6180  0.5110
    2MOL0     H  236   2.636   7.040   3.175 -1.6859 -2.0456  3.4891
    2MOL0     H  237   2.798   6.984   3.093  1.7217  0.2468  0.4394
    2MOL0     H  238   2.975   6.298   3.162  2.0777 -0.6526  0.9354
    2MOL0     H  239   3.211   6.244   3.124  1.0754 -0.6196 -1.4260
    2MOL0     H  240   3.391   6.459   2.803  2.3862  2.0098 -1.3965
    2MOL0     H  241   3.489   6.547   2.920 -0.6711 -0.4769  2.8387
    2MOL0     H  242   3.574   6.273   2.824  1.9315 -0.1057  0.3729
    2MOL0     H  243   3.656   6.425   2.797 -0.0028 -0.5009  0.2517
    2MOL0     H  244   3.752   6.284   2.962  2.6013  2.7845 -0.5968
    2MOL0     H  245   3.606   6.263   3.049  2.9031 -2.9418 -0.3167
    2MOL0     H  246   3.738   6.402   3.179 -0.2408 -1.8867 -1.6197
    2MOL0     H  247   3.629   6.516   3.122 -2.1686 -1.4239 -0.6147
    2MOL0     H  248   3.909   6.443   3.022 -1.4916 -1.8025  0.5471
    2MOL0     H  249   3.814   6.551   2.912 -2.1475  2.6808  1.4143
    2MOL0     H  250   3.786   6.712   3.111 -2.3950 -3.2973  1.9219
    2MOL0     H  251   3.941   6.692   3.018  3.2605 -3.5188  0.9926
    2MOL0     H  252   4.055   6.566   3.170 -0.8146 -2.9023  0.3638
    2MOL0     H  253   3.915   6.530   3.271  0.0842  2.4936  2.5630
    2MOL0     H  254   3.882   6.732   3.362 -1.8361 -3.9904 -2.8259
    2MOL0     H  255   4.001   6.807   3.245  2.9125  0.3287  0.8741
    2MOL0     H  256   3.269   6.609   2.898  0.4798 -0.7998  0.1077
    2MOL0     H  257   3.049   6.684   2.966 -0.2056  0.1693 -0.8014
    2MOL0     H  258   2.632   6.515   2.986  0.7622 -0.1437 -1.5431
    2MOL0     H  259   2.405   6.589   2.907 -1.4449  0.8663  0.9796
    2MOL0     H  260   0.983   5.648   2.250 -1.4366 -0.8075 -0.0794
    2MOL0     H  261   0.963   5.432   2.149 -0.5486  0.0773  0.1247
    2MOL0     H  262   1.054   5.130   1.981  0.3443 -2.1102  1.2464
    2MOL0     H  263   1.026   4.886   1.958  1.8871 -2.6064 -4.3200
    2MOL0     H  264   0.628   4.806   1.876  0.7099 -0.5986  1.7384
    2MOL0     H  265   0.656   4.691   1.747  2.8245  0.3155 -0.8190
    2MOL0     H  266   0.720   4.658   2.046 -0.4937  1.6625 -0.8430
    2MOL0     H  267   0.794   4.556   1.909  1.2129 -0.3276  1.0283
    2MOL0     H  268   0.554   4.505   1.849  0.6684  3.4561 -0.6454
    2MOL0     H  269   0.616   4.435   2.005  3.5393  1.4564  1.1349
    2MOL0     H  270   0.397   4.634   1.978 -2.9577 -0.1828  2.5597
    2MOL0     H  271   0.506   4.635   2.112 -0.6335  1.4879 -0.3323
    2MOL0     H  272   0.243   4.307   2.175 -1.6926  0.0566 -2.5196
    2MOL0     H  273   0.700   4.969   1.677 -0.2464 -0.4854  0.3124
    2MOL0     H  274   0.797   5.274   1.572  0.1769  0.1815  0.0854
    2MOL0     H  275   0.666   5.166   1.568 -2.3940  0.0838  1.5261
    2MOL0     H  276   0.669   5.298   1.689 -1.1290 -1.3340 -0.8475
    3MOL0     O  277  11.144   4.232   5.186  0.6702  0.3541  1.0804
    3MOL0     C  278  11.144   4.310   5.279  0.0918 -0.1206  0.2409
    3MOL0     O  279  11.257   4.362   5.342  0.4910  0.8753  0.2817
    3MOL0     C  280  11.381   4.329   5.287  0.7985 -0.4847 -0.9202
    3MOL0     C  281  11.424   4.204   5.242  0.3698 -0.0345 -0.2147
    3MOL0     C  282  11.562   4.183   5.221 -0.4286 -0.4802 -0.3160
    3MOL0     C  283  11.656   4.282   5.228 -0.5205  0.4771 -0.0114
    3MOL0     O  284  11.788   4.264   5.192 -0.6725 -0.0167  0.1452
    3MOL0     C  285  11.885   4.363   5.202 -0.0997 -0.2151 -0.1870
    3MOL0     C  286  12.029   4.313   5.167  0.4286 -0.2714 -0.6983
    3MOL0     C  287  12.139   4.424   5.184  0.3519 -0.1872  0.3192
    3MOL0     C  288  12.278   4.370   5.131  0.3335  0.4254 -0.5008
    3MOL0     C  289  12.385   4.479   5.140  0.2194 -0.5729  0.4341
    3MOL0     C  290  12.513   4.428   5.064 -0.0713 -0.5995  0.1833
    3MOL0     C  291  12.627   4.522   5.071 -0.1627 -0.7771 -0.2082
    3MOL0     C  292  12.741   4.472   4.978  0.1701 -0.2670 -0.1117
    3MOL0     N  293  12.861   4.562   4.989 -0.6224  0.1838  0.6305
    3MOL0     C  294  12.959   4.567   4.891  0.3582 -0.1358 -1.1241
    3MOL0     C  295  13.054   4.645   4.956 -0.2088  0.8252 -0.4587
    3MOL0     C  296  13.186   4.683   4.889 -0.2579  0.0857  0.4145
    3MOL0     C  297  13.301   4.599   4.924 -0.1062  0.6849  0.6872
    3MOL0     C  298  13.336   4.600   5.078  0.7256  0.1478 -0.0363
    3MOL0     C  299  13.469   4.539   5.117 -0.4412  1.4875  0.0657
    3MOL0     O  300  13.448   4.401   5.097  0.3987 -0.0338 -0.3603
    3MOL0     C  301  13.515   4.312   5.175 -0.4521 -0.1245  0.4345
    3MOL0     C  302  13.491   4.181   5.144  0.2657  0.5489 -0.0960
    3MOL0     C  303  13.557   4.080   5.206 -0.5690 -0.1599 -0.0653
    3MOL0     C  304  13.525   3.939   5.161 -0.1460  0.8402  0.3404
    3MOL0     C  305  13.658   4.102   5.304 -0.2890  0.2163  0.6797
    3MOL0     C  306  13.740   3.999   5.379  0.7479 -0.5375 -0.6113
    3MOL0     O  307  13.842   4.046   5.457 -0.0626 -0.3548 -0.2124
    3MOL0     C  308  13.923   3.974   5.536  0.5538  0.0770 -0.0259
    3MOL0     C  309  14.039   4.044   5.563 -0.2403 -0.4526  0.0543
    3MOL0     C  310  14.141   3.982   5.637  0.5299 -0.3116  0.8893
    3MOL0     C  311  14.119   3.857   5.685  0.1066  0.0535 -0.2393
    3MOL0     O  312  14.210   3.778   5.756  0.0499 -0.5802  0.0510
    3MOL0     C  313  14.349   3.788   5.721  0.5702 -0.9226 -0.0674
    3MOL0     C  314  14.429   3.662   5.766  0.6931  0.0195  0.7593
    3MOL0     C  315  14.411   3.654   5.913 -0.1322 -0.2510 -0.8122
    3MOL0     C  316  14.541   3.601   5.972 -0.0063  0.2251  0.5189
    3MOL0     C  317  14.558   3.619   6.129 -0.4692 -0.4735 -0.0347
    3MOL0     C  318  14.575   3.761   6.170  0.1814 -0.2971  0.1987
    3MOL0     C  319  14.553   3.783   6.326 -0.2590  0.4744 -0.3784
    3MOL0     C  320  14.592   3.919   6.363 -0.2591 -0.6506  0.4994
    3MOL0    Cl  321  14.768   3.951   6.349 -0.0772 -0.0226 -0.5357
    3MOL0     C  322  13.993   3.792   5.679  0.5318 -0.5608 -0.0010
    3MOL0     C  323  13.894   3.857   5.600  0.0482  0.1960  1.0577
    3MOL0     O  324  13.725   3.877   5.361 -0.5009  0.4771  0.2347
    3MOL0     C  325  13.685   4.239   5.324 -0.0146 -0.1942  0.0527
    3MOL0     C  326  13.622   4.341   5.257 -0.2136 -0.3652 -0.5046
    3MOL0     N  327  13.013   4.696   5.076 -0.8534  0.6247  1.0311
    3MOL0     N  328  12.901   4.636   5.101 -0.6149 -0.5792 -0.2410
    3MOL0     C  329  11.617   4.410   5.275  0.6327  0.1486 -0.2701
    3MOL0     C  330  11.478   4.427   5.311 -0.6066  0.4424  0.7315
    3MOL0     C  331  11.015   4.352   5.347  0.6107  0.2891  0.0073
    3MOL0     C  332  11.022   4.466   5.433 -0.8338  0.0943  0.9569
    3MOL0     C  333  10.914   4.516   5.501 -0.1764  0.1132 -0.5093
    3MOL0     C  334  10.792   4.458   5.485 -0.0086  0.8267  0.2209
    3MOL0     O  335  10.694   4.486   5.574 -0.0810  0.1430 -0.3313
    3MOL0     C  336  10.593   4.567   5.511 -0.5585 -0.0744 -0.7555
    3MOL0     C  337  10.469   4.494   5.456  0.1067 -0.4765 -0.2206
    3MOL0     C  338  10.419   4.369   5.534  0.2002 -0.2246 -0.2111
    3MOL0     C  339  10.344   4.266   5.447 -0.5146  0.8244 -0.1592
    3MOL0     C  340  10.298   4.150   5.519 -0.2174  0.6066  0.2710
    3MOL0     C  341  10.263   4.051   5.584  0.7676  0.3308  0.0996
    3MOL0     C  342  10.781   4.343   5.398  0.3051 -0.5321 -1.3685
    3MOL0     C  343  10.890   4.293   5.330 -0.0949 -0.1168 -0.1106
    3MOL0     C  344  10.874   4.177   5.237  0.2001 -0.3816 -0.0520
    3MOL0     H  345  11.354   4.120   5.243 -0.7013  0.8333 -0.0654
    3MOL0     H  346  11.590   4.084   5.186  3.4540  0.0060  1.0299
    3MOL0     H  347  11.895   4.403   5.303 -0.4570  1.0964 -0.6514
    3MOL0     H  348  11.850   4.443   5.137 -2.0011 -1.3347 -0.6196
    3MOL0     H  349  12.057   4.230   5.232 -2.1159 -0.7933 -0.1550
    3MOL0     H  350  12.025   4.271   5.067 -2.2846 -2.1125  0.0705
    3MOL0     H  351  12.105   4.513   5.128  2.2832  2.0319  2.4551
    3MOL0     H  352  12.141   4.455   5.289 -0.4256  0.9042  0.0407
    3MOL0     H  353  12.299   4.294   5.207 -2.8780 -0.3126 -0.2155
    3MOL0     H  354  12.266   4.326   5.032  0.5258  0.0354 -0.3511
    3MOL0     H  355  12.405   4.506   5.244 -2.2188  2.4671  0.2881
    3MOL0     H  356  12.360   4.571   5.086  2.5827  0.4337  0.9441
    3MOL0     H  357  12.539   4.329   5.103  0.4333  0.6008  3.1153
    3MOL0     H  358  12.484   4.422   4.959  1.1233  0.6938 -0.2537
    3MOL0     H  359  12.665   4.514   5.173 -0.3493  1.5942  0.1194
    3MOL0     H  360  12.601   4.624   5.039  0.8865 -0.0562  1.1062
    3MOL0     H  361  12.774   4.371   5.005  3.2398  0.4147 -0.9494
    3MOL0     H  362  12.698   4.468   4.878  0.4249 -2.7108 -0.1797
    3MOL0     H  363  12.955   4.516   4.795 -1.7527 -1.1879 -0.5439
    3MOL0     H  364  13.204   4.788   4.916 -2.5408  0.3893  0.9198
    3MOL0     H  365  13.169   4.681   4.781  1.8614  2.8089 -0.1117
    3MOL0     H  366  13.275   4.498   4.894 -0.0464  1.0333 -0.5736
    3MOL0     H  367  13.389   4.632   4.867  0.1655 -1.7750 -0.4361
    3MOL0     H  368  13.336   4.706   5.104 -0.9121 -0.4870  2.9813
    3MOL0     H  369  13.260   4.547   5.136 -0.4197  0.3877 -1.2814
    3MOL0     H  370  13.556   4.575   5.061  1.4804 -1.8357  0.6120
    3MOL0     H  371  13.490   4.551   5.223  2.2519  2.8509 -0.5182
    3MOL0     H  372  13.409   4.166   5.074  2.1858 -0.2316 -2.3235
    3MOL0     H  373  13.461   3.947   5.072  0.8161  0.6430 -0.3906
    3MOL0     H  374  13.470   3.891   5.243 -1.6129  1.5123 -0.2206
    3MOL0     H  375  13.613   3.883   5.127  1.1783  1.9250  1.8620
    3MOL0     H  376  14.059   4.140   5.516 -1.1545  0.6666  1.8319
    3MOL0     H  377  14.232   4.034   5.664  0.2359  0.7680 -0.1551
    3MOL0     H  378  14.363   3.803   5.614  2.5016  1.4436  0.4376
    3MOL0     H  379  14.387   3.879   5.768  0.4047 -1.4403  1.1261
    3MOL0     H  380  14.379   3.580   5.714  0.6002  1.3078 -1.2990
    3MOL0     H  381  14.530   3.675   5.726 -0.1816  2.0131 -0.9797
    3MOL0     H  382  14.324   3.596   5.942 -0.0025 -0.9236 -1.7136
    3MOL0     H  383  14.394   3.754   5.954 -4.4635 -1.0746 -0.1124
    3MOL0     H  384  14.629   3.655   5.935  2.5244 -2.4892  2.0526
    3MOL0     H  385  14.555   3.496   5.946 -2.0025 -0.5479  2.2566
    3MOL0     H  386  14.464   3.581   6.170 -1.9329  0.7131 -2.0988
    3MOL0     H  387  14.643   3.569   6.177 -1.5585 -0.2960  2.1962
    3MOL0     H  388  14.501   3.824   6.119 -0.7859 -1.4776  0.0795
    3MOL0     H  389  14.669   3.804   6.135  1.0517 -2.0030  0.3631
    3MOL0     H  390  14.611   3.709   6.381 -0.6635  0.8802  0.6148
    3MOL0     H  391  14.448   3.764   6.352 -0.6565  1.2390 -1.3502
    3MOL0     H  392  14.568   3.938   6.469  0.6790  5.2337 -0.0050
    3MOL0     H  393  14.543   3.998   6.305  1.6855 -0.2654 -0.6769
    3MOL0     H  394  13.973   3.696   5.726 -0.9073 -1.1405 -1.6836
    3MOL0     H  395  13.809   3.802   5.562  0.0983  1.6768 -1.3360
    3MOL0     H  396  13.755   4.262   5.404 -0.6217 -0.3249  0.6356
    3MOL0     H  397  13.645   4.445   5.277 -1.7286 -0.0679 -0.1332
    3MOL0     H  398  11.686   4.493   5.285  0.9655 -0.2452  0.7550
    3MOL0     H  399  11.443   4.517   5.360 -0.6333  1.3711 -0.9113
    3MOL0     H  400  11.121   4.509   5.444  0.6150 -1.9304 -2.4697
    3MOL0     H  401  10.921   4.588   5.582  1.1397 -1.2343  0.6293
    3MOL0     H  402  10.575   4.642   5.589  1.8868 -0.5103  0.3206
    3MOL0     H  403  10.642   4.624   5.431  2.1345 -1.0168  0.1218
    3MOL0     H  404  10.484   4.476   5.349  2.0147  1.1261 -0.2866
    3MOL0     H  405  10.385   4.563   5.446  1.3848  1.0094 -1.3150
    3MOL0     H  406  10.512   4.335   5.579  0.5977  2.8482  1.6043
    3MOL0     H  407  10.349   4.412   5.607  0.8954  2.4797 -1.0242
    3MOL0     H  408  10.415   4.229   5.372  0.1636 -1.1104  1.3725
    3MOL0     H  409  10.257   4.319   5.405 -0.8931 -1.1552 -2.0652
    3MOL0     H  410  10.222   3.968   5.638  0.2332  0.4638 -0.1034
    3MOL0     H  411  10.684   4.294   5.407 -0.1553  0.6933  1.7266
    3MOL0     H  412  10.788   4.117   5.269  0.0218  0.6937  1.6444
    3MOL0     H  413  10.860   4.215   5.136  1.6666 -0.2953 -0.2563
    3MOL0     H  414  10.957   4.109   5.259 -0.3318 -0.0402  3.6670
    4MOL0     O  415   7.648   4.644   1.910  0.5839  0.5075  0.9432
    4MOL0     C  416   7.605   4.589   1.806  0.0722  0.5019 -0.0871
    4MOL0     O  417   7.673   4.502   1.726 -0.1730  0.7260 -0.2265
    4MOL0     C  418   7.810   4.503   1.727 -0.7933 -0.4168  0.3047
    4MOL0     C  419   7.891   4.594   1.660  0.0141 -0.0374  0.1555
    4MOL0     C  420   8.029   4.568   1.654 -0.1892  0.2018 -0.2313
    4MOL0     C  421   8.091   4.475   1.732 -0.0701  0.0419  1.4329
    4MOL0     O  422   8.230   4.460   1.736  0.9979  0.3890 -0.3710
    4MOL0     C  423   8.290   4.332   1.717 -0.1196  0.3241 -0.0643
    4MOL0     C  424   8.372   4.295   1.837 -0.0544 -0.2323  0.2069
    4MOL0     C  425   8.473   4.402   1.867  1.0026  0.2931  0.1026
    4MOL0     C  426   8.580   4.357   1.962  0.0480 -0.0085 -0.4724
    4MOL0     C  427   8.683   4.262   1.906  0.0559  0.0590 -0.0628
    4MOL0     C  428   8.746   4.196   2.031  0.0157 -0.2089  0.1697
    4MOL0     C  429   8.859   4.110   1.985 -0.2971  0.3647 -0.8956
    4MOL0     C  430   8.807   3.976   1.919 -0.4071  0.1314  0.4542
    4MOL0     N  431   8.902   3.877   1.861 -0.8960  0.9116 -0.7207
    4MOL0     C  432   8.936   3.763   1.927  0.0561  0.3244 -0.1978
    4MOL0     C  433   9.014   3.691   1.846  0.4746  0.1954 -0.0180
    4MOL0     C  434   9.065   3.555   1.865 -0.1347  0.3494 -1.1241
    4MOL0     C  435   8.973   3.443   1.832  0.2532  0.0229  0.2366
    4MOL0     C  436   9.024   3.301   1.872  0.2878 -0.0714 -0.1543
    4MOL0     C  437   8.934   3.195   1.800  0.3835  0.1634  0.0070
    4MOL0     O  438   8.974   3.179   1.666 -0.2957 -0.1036  0.5629
    4MOL0     C  439   9.088   3.114   1.631 -0.4759 -0.7824  1.0471
    4MOL0     C  440   9.145   3.157   1.502  1.1809 -0.2305  0.0361
    4MOL0     C  441   9.262   3.108   1.451 -0.3526  0.3562  0.5783
    4MOL0     C  442   9.317   3.177   1.328  0.4118  0.2803 -0.1147
    4MOL0     C  443   9.334   3.012   1.525 -0.5481  0.3838  0.6866
    4MOL0     C  444   9.470   2.957   1.487  0.0603  0.3434 -0.7143
    4MOL0     O  445   9.519   2.864   1.578 -0.1546 -0.0458 -0.7451
    4MOL0     C  446   9.657   2.858   1.599 -0.2930  0.3741  0.1620
    4MOL0     C  447   9.694   2.751   1.678  0.4227  0.1682  0.5766
    4MOL0     C  448   9.827   2.727   1.709  0.7784  0.1680 -0.5617
    4MOL0     C  449   9.928   2.799   1.647  0.3278  1.3058  0.0230
    4MOL0     O  450  10.054   2.767   1.686  0.6104 -0.7946  0.6374
    4MOL0     C  451  10.100   2.636   1.670 -0.2237  0.4586 -0.5888
    4MOL0     C  452  10.252   2.634   1.718  0.8144  0.3613  0.4677
    4MOL0     C  453  10.301   2.489   1.715  0.1141  0.5647  0.7974
    4MOL0     C  454  10.435   2.493   1.791  0.5712 -0.0808 -0.6971
    4MOL0     C  455  10.556   2.538   1.711 -0.6905  0.4375 -0.1892
    4MOL0     C  456  10.686   2.553   1.795  0.2765 -0.5892  0.2512
    4MOL0     C  457  10.813   2.575   1.701  0.0465  0.8528 -0.0549
    4MOL0     C  458  10.954   2.541   1.764 -0.0517 -0.5149 -0.3821
    4MOL0    Cl  459  10.996   2.659   1.888  0.1786 -0.0975  0.1890
    4MOL0     C  460   9.893   2.902   1.571 -0.2736 -0.2692 -0.2774
    4MOL0     C  461   9.764   2.934   1.544 -0.3283 -0.0041 -0.1331
    4MOL0     O  462   9.527   2.995   1.382 -0.5612  0.1951  0.2141
    4MOL0     C  463   9.273   2.958   1.639  0.6640  0.4389  0.3246
    4MOL0     C  464   9.157   3.013   1.692 -0.3205 -0.6034  0.4558
    4MOL0     N  465   9.017   3.761   1.722  0.3801 -0.4417 -0.1150
    4MOL0     N  466   8.940   3.866   1.735 -0.7747 -0.0878  0.1566
    4MOL0     C  467   8.010   4.397   1.817 -0.2397  0.1134  0.2628
    4MOL0     C  468   7.873   4.407   1.807  0.8415 -0.0475 -0.0671
    4MOL0     C  469   7.462   4.613   1.768  0.0554 -0.3425 -0.7179
    4MOL0     C  470   7.427   4.585   1.640 -0.0780  0.0779  0.4131
    4MOL0     C  471   7.299   4.610   1.593 -0.5000 -0.1494  0.8010
    4MOL0     C  472   7.190   4.657   1.671 -0.0292 -0.1025 -0.4191
    4MOL0     O  473   7.063   4.680   1.628 -0.3840 -0.3174  0.2937
    4MOL0     C  474   7.025   4.659   1.490 -0.0923 -0.2577 -0.4026
    4MOL0     C  475   6.879   4.687   1.464  0.1900  0.0059 -0.4253
    4MOL0     C  476   6.848   4.714   1.321  0.0105  0.8024 -0.7852
    4MOL0     C  477   6.701   4.731   1.296  0.4402  0.1666  0.2644
    4MOL0     C  478   6.664   4.757   1.156  0.9280  0.1157  0.4460
    4MOL0     C  479   6.624   4.769   1.045 -0.3144  0.3805 -1.0538
    4MOL0     C  480   7.225   4.690   1.800  0.6413 -0.0466  1.0094
    4MOL0     C  481   7.356   4.667   1.849  0.6029 -0.5125 -0.3009
    4MOL0     C  482   7.369   4.712   1.987  0.2009  0.4048  0.3005
    4MOL0     H  483   7.836   4.667   1.602 -0.7339 -0.1378  0.7247
    4MOL0     H  484   8.086   4.636   1.591  0.4519 -0.3407 -0.2495
    4MOL0     H  485   8.353   4.313   1.630  0.3925  0.8376  0.1899
    4MOL0     H  486   8.215   4.255   1.695 -0.7300  0.5022  1.2489
    4MOL0     H  487   8.318   4.282   1.931 -0.2219  0.1016  0.1573
    4MOL0     H  488   8.420   4.201   1.807 -2.0743 -0.0780 -4.2046
    4MOL0     H  489   8.515   4.444   1.775 -0.0087 -2.1408 -1.5935
    4MOL0     H  490   8.417   4.485   1.912  0.1378 -0.8680  1.2443
    4MOL0     H  491   8.633   4.451   1.982 -1.3430  0.5809  0.6312
    4MOL0     H  492   8.543   4.318   2.057  5.3546  0.5009  2.1943
    4MOL0     H  493   8.752   4.310   1.837  1.9912 -1.5376  0.6853
    4MOL0     H  494   8.639   4.186   1.841 -0.3550 -1.7278  2.1433
    4MOL0     H  495   8.785   4.274   2.097  1.1897 -0.8423  0.2575
    4MOL0     H  496   8.665   4.152   2.090 -1.9679  1.6087 -1.0472
    4MOL0     H  497   8.913   4.089   2.078 -1.5452 -0.1812 -0.2675
    4MOL0     H  498   8.928   4.167   1.922  1.4166 -2.1812 -1.5150
    4MOL0     H  499   8.732   3.932   1.987 -2.1327  1.4192 -0.5339
    4MOL0     H  500   8.747   3.999   1.830  0.5505  1.4774  0.1298
    4MOL0     H  501   8.918   3.736   2.030  1.3472  1.3035  0.3100
    4MOL0     H  502   9.092   3.548   1.971  1.8717  0.4363 -1.5869
    4MOL0     H  503   9.165   3.545   1.823  1.1825 -0.2104  1.8776
    4MOL0     H  504   8.873   3.463   1.870  0.0230 -1.5021  0.4833
    4MOL0     H  505   8.963   3.447   1.723  0.0643  0.3783  0.2653
    4MOL0     H  506   9.125   3.288   1.834 -0.8543 -2.5827 -2.7330
    4MOL0     H  507   9.017   3.295   1.981  0.4577  1.7583 -0.0135
    4MOL0     H  508   8.952   3.099   1.851 -0.7567 -0.5593 -0.8953
    4MOL0     H  509   8.831   3.229   1.816 -0.7615 -2.8276 -0.2082
    4MOL0     H  510   9.095   3.247   1.468 -0.6607 -1.5436 -0.8851
    4MOL0     H  511   9.247   3.243   1.277 -1.0217 -1.4001 -0.4249
    4MOL0     H  512   9.356   3.111   1.250 -0.1360 -1.8081  1.2830
    4MOL0     H  513   9.387   3.257   1.355 -1.3039  2.0141 -0.5759
    4MOL0     H  514   9.614   2.684   1.709  0.4827 -0.7109 -1.0908
    4MOL0     H  515   9.851   2.661   1.791 -1.2941 -0.9570 -0.7878
    4MOL0     H  516  10.040   2.566   1.730 -0.5903  0.4910 -0.9090
    4MOL0     H  517  10.093   2.604   1.565  1.5715 -3.0642  0.2224
    4MOL0     H  518  10.306   2.697   1.647  0.9861  1.2132  1.3427
    4MOL0     H  519  10.256   2.669   1.821 -1.5836  0.6647  0.5278
    4MOL0     H  520  10.318   2.442   1.618  0.3047  4.2087 -1.0898
    4MOL0     H  521  10.226   2.432   1.771  0.0111  0.1353  0.2182
    4MOL0     H  522  10.449   2.387   1.812 -1.4955  0.1646  2.5865
    4MOL0     H  523  10.436   2.553   1.883 -0.5669  3.0135 -2.5357
    4MOL0     H  524  10.557   2.469   1.625 -0.3119  0.0492  0.1205
    4MOL0     H  525  10.538   2.635   1.664  0.1539  1.1049  0.8242
    4MOL0     H  526  10.702   2.455   1.841 -0.4518 -0.3538  1.0336
    4MOL0     H  527  10.678   2.642   1.858  2.9909  0.8457 -1.2376
    4MOL0     H  528  10.812   2.682   1.677 -1.4782  0.7629 -0.4837
    4MOL0     H  529  10.805   2.520   1.607  4.1789 -0.3255  0.0883
    4MOL0     H  530  11.030   2.533   1.685  2.1152  0.6439  1.4676
    4MOL0     H  531  10.944   2.445   1.815  2.1921 -0.1713  0.8387
    4MOL0     H  532   9.968   2.974   1.540  1.3698 -2.4963 -1.7401
    4MOL0     H  533   9.753   3.021   1.479  1.0321 -0.2392 -0.7194
    4MOL0     H  534   9.317   2.881   1.703  0.0621  2.2999  3.1656
    4MOL0     H  535   9.108   2.980   1.783  0.8802  0.5454  1.5783
    4MOL0     H  536   8.063   4.337   1.891 -0.2644 -1.8473 -1.2295
    4MOL0     H  537   7.810   4.337   1.861  1.4261 -2.3467 -2.1256
    4MOL0     H  538   7.508   4.556   1.574 -2.5803 -1.0825 -2.4067
    4MOL0     H  539   7.282   4.597   1.487  0.4683  0.4012  0.5675
    4MOL0     H  540   7.089   4.717   1.423  0.9757 -1.1908 -0.2269
    4MOL0     H  541   7.029   4.555   1.454 -2.1125 -0.1684 -0.9916
    4MOL0     H  542   6.860   4.786   1.507 -1.7055 -0.2020 -0.7002
    4MOL0     H  543   6.801   4.617   1.496 -0.2189  0.0390 -1.3270
    4MOL0     H  544   6.901   4.798   1.276 -0.3623  0.0209 -2.8277
    4MOL0     H  545   6.877   4.622   1.269 -3.4145 -0.7534 -0.2579
    4MOL0     H  546   6.675   4.814   1.362  1.3708  1.4550 -0.9542
    4MOL0     H  547   6.640   4.646   1.331 -2.9990  2.4195  0.2652
    4MOL0     H  548   6.594   4.776   0.943 -2.1960 -2.1391 -0.7536
    4MOL0     H  549   7.141   4.727   1.860  2.4337 -0.2854  3.8818
    4MOL0     H  550   7.399   4.626   2.047 -1.9723 -1.6380 -1.3539
    4MOL0     H  551   7.441   4.795   1.984  1.0149 -0.3012 -2.3744
    4MOL0     H  552   7.278   4.770   2.007 -0.5081 -0.4575 -0.3410
    5MOL0     O  553   1.894   9.218   0.368 -0.1209 -0.9055 -0.6885
    5MOL0     C  554   1.800   9.158   0.320 -0.4993 -1.2516  0.1871
    5MOL0     O  555   1.822   9.040   0.249  0.3108  0.5895  0.5182
    5MOL0     C  556   1.944   8.990   0.228  0.1975  0.4516 -0.4385
    5MOL0     C  557   2.048   9.071   0.173  0.2536  0.0675 -0.2018
    5MOL0     C  558   2.177   9.013   0.134  0.9507 -0.1684 -0.0760
    5MOL0     C  559   2.198   8.880   0.154  0.4859 -0.4032 -0.7675
    5MOL0     O  560   2.320   8.846   0.112  0.2754  0.3854  0.1446
    5MOL0     C  561   2.346   8.706   0.095 -0.4989  0.2745  0.6804
    5MOL0     C  562   2.486   8.688   0.034 -0.7589 -0.1808  0.2241
    5MOL0     C  563   2.477   8.719  -0.108  0.5985  0.2858  0.7429
    5MOL0     C  564   2.616   8.724  -0.188  0.1236  0.5934  0.0459
    5MOL0     C  565   2.576   8.735  -0.331  0.5517  0.2010 -0.2985
    5MOL0     C  566   2.686   8.784  -0.434  0.3153  0.5295  0.2030
    5MOL0     C  567   2.818   8.695  -0.413 -0.0992 -0.3329  0.1739
    5MOL0     C  568   2.789   8.549  -0.430 -0.2304  0.8288  0.8245
    5MOL0     N  569   2.917   8.481  -0.465  0.2789  0.2657  0.8019
    5MOL0     C  570   3.012   8.451  -0.376  0.4558  0.5668 -0.5676
    5MOL0     C  571   3.105   8.382  -0.451 -0.4010  0.1076 -0.2891
    5MOL0     C  572   3.237   8.352  -0.389 -0.6737  0.3423 -0.2514
    5MOL0     C  573   3.229   8.215  -0.312 -0.5952 -0.0143 -0.0951
    5MOL0     C  574   3.257   8.093  -0.396  0.1898 -0.0566 -0.2043
    5MOL0     C  575   3.405   8.073  -0.439 -0.0084 -0.0767 -0.5293
    5MOL0     O  576   3.483   8.052  -0.323 -0.1334  0.1494  0.0091
    5MOL0     C  577   3.620   8.037  -0.352  0.1065 -0.3619 -0.5887
    5MOL0     C  578   3.713   8.035  -0.243  0.3080  0.7030  0.3094
    5MOL0     C  579   3.849   8.024  -0.268  0.1999  0.2923  0.1179
    5MOL0     C  580   3.935   8.005  -0.144  0.0904 -0.6644 -0.4566
    5MOL0     C  581   3.893   8.018  -0.405  1.3330  0.1886 -0.1958
    5MOL0     C  582   4.034   8.002  -0.446 -0.1139 -0.3972  0.2315
    5MOL0     O  583   4.076   8.052  -0.579  0.3689  0.3570 -0.0107
    5MOL0     C  584   4.204   8.031  -0.620 -0.1546 -0.5553  0.0079
    5MOL0     C  585   4.289   8.133  -0.593 -0.6680  0.5712 -0.3089
    5MOL0     C  586   4.427   8.123  -0.620  0.0378  0.3783 -0.6304
    5MOL0     C  587   4.482   8.007  -0.676  0.4367 -0.0517  0.5944
    5MOL0     O  588   4.618   8.000  -0.700 -0.3426  0.6640  0.1444
    5MOL0     C  589   4.653   7.960  -0.837  0.2039 -0.6093  0.0283
    5MOL0     C  590   4.770   7.856  -0.817  0.3729 -0.4643  0.2409
    5MOL0     C  591   4.826   7.798  -0.948  0.0065  0.3074 -0.3560
    5MOL0     C  592   4.980   7.782  -0.940 -1.0760  0.8422 -0.7324
    5MOL0     C  593   5.059   7.741  -1.066  0.0587  0.1695 -0.6472
    5MOL0     C  594   5.209   7.746  -1.032 -0.3401  0.4056  0.5825
    5MOL0     C  595   5.291   7.688  -1.152 -1.0027  0.2566 -0.3184
    5MOL0     C  596   5.434   7.667  -1.097  0.5408 -0.6445 -0.3057
    5MOL0    Cl  597   5.519   7.549  -1.198  0.2456  0.4532 -0.0598
    5MOL0     C  598   4.392   7.899  -0.713  0.5905 -0.2606 -0.0082
    5MOL0     C  599   4.257   7.915  -0.680  0.0068 -0.2711  0.0501
    5MOL0     O  600   4.112   7.954  -0.366  0.0447  0.1672 -0.1103
    5MOL0     C  601   3.807   8.015  -0.505 -0.0790  0.0158 -1.4161
    5MOL0     C  602   3.669   8.025  -0.483 -0.1337  0.2185 -0.2722
    5MOL0     N  603   3.077   8.395  -0.583  0.3935  0.2034 -0.6943
    5MOL0     N  604   2.964   8.466  -0.594  0.3728  0.4931  0.1605
    5MOL0     C  605   2.098   8.795   0.212  0.1839  0.2880  1.0863
    5MOL0     C  606   1.968   8.852   0.239 -0.2515  0.0515  0.9829
    5MOL0     C  607   1.667   9.225   0.316  0.1095 -0.1076 -0.3156
    5MOL0     C  608   1.588   9.184   0.204 -1.0381 -0.4966  0.0807
    5MOL0     C  609   1.465   9.244   0.179 -0.4683  1.2788  0.1796
    5MOL0     C  610   1.409   9.342   0.258 -0.0150  0.3504  0.3570
    5MOL0     O  611   1.295   9.404   0.212 -0.0574  1.1865 -0.2350
    5MOL0     C  612   1.214   9.481   0.302  0.1066 -0.4143  1.0308
    5MOL0     C  613   1.152   9.401   0.403 -0.3257  0.4808  0.9711
    5MOL0     C  614   1.042   9.473   0.469 -0.1707  0.3265 -0.3052
    5MOL0     C  615   1.069   9.583   0.574 -0.2413  0.3980 -0.4119
    5MOL0     C  616   1.098   9.521   0.704 -0.6304  0.5474  0.1401
    5MOL0     C  617   1.119   9.458   0.804 -0.2011  0.7954  0.3285
    5MOL0     C  618   1.481   9.380   0.368 -0.9965 -0.2679  0.0569
    5MOL0     C  619   1.605   9.333   0.401 -1.1648 -0.4536 -0.1147
    5MOL0     C  620   1.676   9.375   0.532 -1.0681 -0.0017 -0.1667
    5MOL0     H  621   2.030   9.169   0.131 -0.8237  0.3007  0.7750
    5MOL0     H  622   2.242   9.080   0.080  0.6181 -0.2462 -0.5803
    5MOL0     H  623   2.278   8.655   0.026 -0.2521 -1.4308  1.6372
    5MOL0     H  624   2.350   8.650   0.189  2.4244  0.4349  0.7549
    5MOL0     H  625   2.550   8.755   0.094 -0.8935 -1.4038  1.7962
    5MOL0     H  626   2.525   8.586   0.043  1.1252  0.5141  0.5287
    5MOL0     H  627   2.415   8.647  -0.162 -0.1020  1.6809 -0.3824
    5MOL0     H  628   2.424   8.814  -0.122  0.4008  0.2731  1.3781
    5MOL0     H  629   2.674   8.810  -0.155  1.6763  0.5075 -2.2398
    5MOL0     H  630   2.678   8.637  -0.164  0.8201  0.5897 -1.6836
    5MOL0     H  631   2.493   8.806  -0.340  0.5755  0.4838  1.4108
    5MOL0     H  632   2.540   8.637  -0.365 -1.7449  0.8215  0.1582
    5MOL0     H  633   2.641   8.776  -0.533 -1.3843 -0.7483  1.0319
    5MOL0     H  634   2.699   8.892  -0.426 -0.9886  0.8889 -1.9766
    5MOL0     H  635   2.859   8.736  -0.320  0.1731  0.6818 -0.3774
    5MOL0     H  636   2.885   8.725  -0.495 -0.8698  0.0686 -0.3143
    5MOL0     H  637   2.750   8.508  -0.337  0.3768  0.2547  0.8349
    5MOL0     H  638   2.711   8.538  -0.505  1.8175 -0.2175 -1.2625
    5MOL0     H  639   3.007   8.461  -0.268  1.1569  1.3660 -0.5989
    5MOL0     H  640   3.263   8.427  -0.313 -0.2408  0.3798 -0.4288
    5MOL0     H  641   3.316   8.353  -0.465 -2.0789 -1.0117 -1.7865
    5MOL0     H  642   3.286   8.216  -0.219 -1.9016  2.0807  0.7485
    5MOL0     H  643   3.126   8.198  -0.280 -0.7575 -1.8339 -1.4096
    5MOL0     H  644   3.223   8.006  -0.340  1.1076 -0.5067 -0.3255
    5MOL0     H  645   3.203   8.096  -0.490  2.1736  0.5130 -1.3916
    5MOL0     H  646   3.412   7.995  -0.515  0.8914 -0.0305 -0.5065
    5MOL0     H  647   3.439   8.161  -0.494  2.0586  0.4868  1.5034
    5MOL0     H  648   3.676   8.044  -0.141 -1.4298  0.5764 -0.2789
    5MOL0     H  649   3.890   8.061  -0.062 -3.8737 -0.6528 -2.3937
    5MOL0     H  650   4.038   8.041  -0.150  0.1541 -0.7477  0.1417
    5MOL0     H  651   3.934   7.900  -0.116  1.8903 -0.8647 -1.0059
    5MOL0     H  652   4.250   8.223  -0.546 -1.2791  0.7477 -1.1268
    5MOL0     H  653   4.493   8.205  -0.593  1.5441 -1.1335  0.4758
    5MOL0     H  654   4.567   7.927  -0.895 -2.4360  1.1135  2.6996
    5MOL0     H  655   4.695   8.045  -0.892 -0.6196  0.1071  0.4784
    5MOL0     H  656   4.848   7.914  -0.766 -0.9856  2.5982 -0.9300
    5MOL0     H  657   4.741   7.767  -0.760  1.6151 -3.0476 -2.8103
    5MOL0     H  658   4.808   7.874  -1.025 -0.2719  0.7814  0.1590
    5MOL0     H  659   4.772   7.705  -0.968 -0.8962  0.7528 -0.0575
    5MOL0     H  660   5.003   7.709  -0.862 -1.1433  1.6989  0.1132
    5MOL0     H  661   5.014   7.883  -0.912  1.1693 -0.0605  0.0462
    5MOL0     H  662   5.042   7.637  -1.097  0.6756  0.3417 -1.5973
    5MOL0     H  663   5.041   7.802  -1.155  2.1116 -0.2687 -1.4198
    5MOL0     H  664   5.215   7.680  -0.945 -1.4119 -0.6993 -0.1385
    5MOL0     H  665   5.234   7.851  -1.021 -3.3310  1.5137 -1.7441
    5MOL0     H  666   5.294   7.755  -1.238  1.5833  0.2770 -0.2876
    5MOL0     H  667   5.257   7.590  -1.187 -3.5053  0.1913  1.9408
    5MOL0     H  668   5.435   7.638  -0.991 -4.8257  2.7333  1.0584
    5MOL0     H  669   5.465   7.772  -1.093 -0.2945 -0.3827  3.2592
    5MOL0     H  670   4.427   7.805  -0.753 -0.8469 -1.2539  0.9365
    5MOL0     H  671   4.195   7.827  -0.686 -0.6847  0.2127 -0.0514
    5MOL0     H  672   3.840   8.011  -0.608  2.8971  0.0084 -0.5549
    5MOL0     H  673   3.608   8.031  -0.573 -0.4635  2.0500  0.0380
    5MOL0     H  674   2.124   8.690   0.226  0.4590 -0.3194 -2.8259
    5MOL0     H  675   1.887   8.787   0.270  0.1183  0.0845  2.0519
    5MOL0     H  676   1.614   9.115   0.124 -1.7461  0.3370 -0.9123
    5MOL0     H  677   1.420   9.213   0.085  0.1545  1.9160 -0.3391
    5MOL0     H  678   1.269   9.569   0.338  1.6400 -0.4642 -0.9684
    5MOL0     H  679   1.137   9.522   0.235  1.4603  0.0203 -0.3281
    5MOL0     H  680   1.231   9.374   0.474 -0.2371 -1.5701  0.1701
    5MOL0     H  681   1.106   9.305   0.376  0.3473 -0.1325  1.9354
    5MOL0     H  682   0.974   9.510   0.392  0.2600  3.0283  0.5222
    5MOL0     H  683   0.986   9.397   0.524  0.5179 -0.6990 -0.9795
    5MOL0     H  684   0.976   9.641   0.571 -0.5114 -0.0382 -0.5399
    5MOL0     H  685   1.152   9.646   0.542 -0.0986  0.1601 -0.5142
    5MOL0     H  686   1.141   9.395   0.888  1.3625  0.0377 -0.5968
    5MOL0     H  687   1.435   9.451   0.435 -0.2642 -0.7791  1.1439
    5MOL0     H  688   1.755   9.444   0.503 -0.2012 -2.2177 -3.7065
    5MOL0     H  689   1.605   9.424   0.599 -0.2864 -0.8209  1.3001
    5MOL0     H  690   1.733   9.297   0.582 -1.5100 -0.4402 -0.3346
    6MOL0     O  691   7.035   9.893   4.329  0.0828  0.6755 -0.0555
    6MOL0     C  692   6.914   9.889   4.329 -0.0073 -0.9034 -0.4367
    6MOL0     O  693   6.836   9.883   4.218 -0.9635  0.5390  0.0904
    6MOL0     C  694   6.904   9.876   4.097  0.1026 -0.4242 -0.1991
    6MOL0     C  695   6.914   9.760   4.023 -0.2581  0.0068  0.2724
    6MOL0     C  696   6.983   9.750   3.901 -0.4938 -0.6023  0.0977
    6MOL0     C  697   7.055   9.858   3.852  0.0040 -0.0650  0.7538
    6MOL0     O  698   7.142   9.830   3.746 -0.3015  0.5984  0.2948
    6MOL0     C  699   7.273   9.898   3.740  0.1484  0.5779  1.1555
    6MOL0     C  700   7.373   9.865   3.852 -0.5137 -0.1506  0.1144
    6MOL0     C  701   7.459   9.744   3.816 -0.1797 -0.0063  0.0023
    6MOL0     C  702   7.562   9.699   3.926  0.4297 -0.5609  0.4968
    6MOL0     C  703   7.640   9.565   3.882  0.4320 -0.6559 -0.8706
    6MOL0     C  704   7.740   9.526   3.990 -0.3533 -0.4188  0.0014
    6MOL0     C  705   7.837   9.416   3.952  0.1140  0.9776  0.9008
    6MOL0     C  706   7.965   9.421   4.031  0.7620 -0.3554  0.2260
    6MOL0     N  707   8.042   9.297   4.019  0.4662  0.4856 -0.1873
    6MOL0     C  708   8.111   9.239   3.918  0.3583 -0.5972  0.5142
    6MOL0     C  709   8.168   9.127   3.969  0.1287  0.6493  0.3457
    6MOL0     C  710   8.246   9.020   3.896  0.1969 -0.7914  0.1000
    6MOL0     C  711   8.399   9.049   3.914  1.1425 -0.0311 -0.5961
    6MOL0     C  712   8.450   9.011   4.051 -0.1935 -0.0963 -0.1105
    6MOL0     C  713   8.595   9.055   4.082 -0.6706 -0.8818  0.2051
    6MOL0     O  714   8.677   8.992   3.984 -0.4593 -0.2233 -0.3717
    6MOL0     C  715   8.812   8.961   4.004 -0.4946  0.1948  0.8405
    6MOL0     C  716   8.877   8.910   3.895 -0.7451 -0.0946  0.4887
    6MOL0     C  717   9.009   8.869   3.890  0.7679  0.3484 -0.6553
    6MOL0     C  718   9.043   8.807   3.754  0.1327  0.3469  0.1358
    6MOL0     C  719   9.089   8.884   3.999 -0.0174 -0.1749 -0.1288
    6MOL0     C  720   9.234   8.831   4.008  0.8026 -0.7632  1.1942
    6MOL0     O  721   9.304   8.867   4.117  0.1114 -0.3991 -0.7509
    6MOL0     C  722   9.443   8.876   4.110  0.9709  0.8941  0.0187
    6MOL0     C  723   9.512   8.992   4.117 -0.3091 -0.0067  0.1377
    6MOL0     C  724   9.652   8.990   4.126 -0.4537  0.3015  0.4783
    6MOL0     C  725   9.726   8.874   4.137 -0.3378  0.8270 -0.4550
    6MOL0     O  726   9.866   8.869   4.146  0.1556  0.1243  0.6113
    6MOL0     C  727   9.954   8.980   4.169  0.8691 -0.6266  0.2229
    6MOL0     C  728  10.096   8.922   4.217  0.0368 -0.2089  0.2412
    6MOL0     C  729  10.167   8.853   4.102 -0.1080 -0.0816  0.7285
    6MOL0     C  730  10.304   8.785   4.128 -0.4539  0.2966 -0.8084
    6MOL0     C  731  10.410   8.896   4.169  0.1010 -0.0169 -0.1674
    6MOL0     C  732  10.554   8.851   4.187  0.2371  0.2459  0.0710
    6MOL0     C  733  10.612   8.815   4.046 -0.0009  0.4328 -0.3653
    6MOL0     C  734  10.759   8.771   4.062  0.4101 -0.5065 -0.1727
    6MOL0    Cl  735  10.858   8.906   4.108  0.1834  0.4663  0.0694
    6MOL0     C  736   9.653   8.755   4.134  0.5697 -0.1729  0.4680
    6MOL0     C  737   9.512   8.755   4.115 -0.3071 -0.9416  0.1216
    6MOL0     O  738   9.282   8.778   3.904 -0.1986  0.3362  0.0607
    6MOL0     C  739   9.030   8.941   4.111 -0.6027  0.2683 -0.1164
    6MOL0     C  740   8.895   8.981   4.114  1.0385  0.2143 -0.5139
    6MOL0     N  741   8.128   9.125   4.107  0.3107 -0.0529 -0.6991
    6MOL0     N  742   8.059   9.227   4.140  0.2328  0.0716  0.1499
    6MOL0     C  743   7.061   9.972   3.930  0.3814 -0.2201  0.2988
    6MOL0     C  744   6.990   9.986   4.051  0.6198 -0.1218  0.5550
    6MOL0     C  745   6.849   9.888   4.465  0.3245 -0.2458  0.4488
    6MOL0     C  746   6.711   9.854   4.456  0.2087  0.5457  0.5412
    6MOL0     C  747   6.623   9.850   4.568  1.0352 -0.2709 -0.1177
    6MOL0     C  748   6.679   9.875   4.698 -0.1582  0.1322  1.0687
    6MOL0     O  749   6.601   9.871   4.805 -0.3120  0.0092 -0.0094
    6MOL0     C  750   6.462   9.833   4.797 -0.0828 -0.1899  0.1182
    6MOL0     C  751   6.417   9.800   4.941  0.1043  0.9210 -0.3606
    6MOL0     C  752   6.260   9.786   4.939 -0.6324  0.5584  0.8334
    6MOL0     C  753   6.214   9.762   5.081  0.0502 -0.1519 -0.1162
    6MOL0     C  754   6.071   9.737   5.083 -1.2541 -0.3381 -0.1793
    6MOL0     C  755   5.953   9.720   5.074  0.8630 -1.1310 -0.2873
    6MOL0     C  756   6.814   9.893   4.708  0.1865  0.2758 -0.3267
    6MOL0     C  757   6.896   9.907   4.593 -0.2076 -0.0591 -0.3298
    6MOL0     C  758   7.043   9.920   4.619 -0.1321  0.4711  0.5910
    6MOL0     H  759   6.863   9.672   4.062 -0.3830  0.0274  0.1586
    6MOL0     H  760   6.996   9.655   3.848 -2.6682 -0.7701 -0.2067
    6MOL0     H  761   7.258  10.004   3.718  0.3056  0.2119 -0.9184
    6MOL0     H  762   7.326   9.861   3.652 -0.6114  0.2355  0.8355
    6MOL0     H  763   7.433   9.952   3.882 -3.4785  0.9395  3.6964
    6MOL0     H  764   7.326   9.842   3.948 -1.0865  4.6762  1.2598
    6MOL0     H  765   7.383   9.668   3.799 -0.2981  0.3390 -1.0765
    6MOL0     H  766   7.506   9.758   3.719 -0.3157 -3.3791 -0.6527
    6MOL0     H  767   7.631   9.783   3.934 -3.0793  2.7928 -1.2201
    6MOL0     H  768   7.518   9.687   4.025  2.4458 -0.2824  1.4866
    6MOL0     H  769   7.694   9.589   3.790  0.8485 -1.1971 -0.7679
    6MOL0     H  770   7.573   9.480   3.868  2.4247 -2.2032 -1.3620
    6MOL0     H  771   7.793   9.618   4.018  0.2002 -1.3512  2.1921
    6MOL0     H  772   7.696   9.492   4.084  0.9464  1.4834  1.3709
    6MOL0     H  773   7.864   9.423   3.846 -2.1703  0.4485  0.2150
    6MOL0     H  774   7.779   9.325   3.969  1.8066 -0.7952 -1.8610
    6MOL0     H  775   8.021   9.505   3.988 -0.3713 -0.1272 -0.8431
    6MOL0     H  776   7.937   9.440   4.135  2.3307  1.4151  0.3817
    6MOL0     H  777   8.121   9.268   3.814 -0.5494 -1.2841  0.2264
    6MOL0     H  778   8.232   9.036   3.789 -0.6177  0.1235  0.3276
    6MOL0     H  779   8.215   8.918   3.922  0.3831 -0.4797  1.6647
    6MOL0     H  780   8.450   8.981   3.845 -1.3726 -3.4153  0.6392
    6MOL0     H  781   8.420   9.149   3.876  0.9997 -1.4606 -5.0271
    6MOL0     H  782   8.394   9.056   4.134 -2.7008 -1.0233 -1.2000
    6MOL0     H  783   8.429   8.904   4.063 -1.4992  0.4293  3.9386
    6MOL0     H  784   8.608   9.164   4.077 -2.2178 -0.6630  0.3895
    6MOL0     H  785   8.628   9.017   4.179  0.3153  0.4122  0.4094
    6MOL0     H  786   8.827   8.907   3.799  0.9525  4.3725 -0.7895
    6MOL0     H  787   9.107   8.875   3.697  0.3888  1.8149  2.0591
    6MOL0     H  788   8.956   8.787   3.690  0.0207 -3.5585  1.2215
    6MOL0     H  789   9.100   8.714   3.760 -0.9636 -0.2645  1.8032
    6MOL0     H  790   9.449   9.077   4.139 -0.1459  0.0522  0.3767
    6MOL0     H  791   9.704   9.081   4.154  0.5474 -0.0299 -0.2716
    6MOL0     H  792   9.967   9.038   4.077  2.0584 -0.9060  0.1977
    6MOL0     H  793   9.903   9.037   4.246 -0.7756 -1.4099 -0.2479
    6MOL0     H  794  10.155   9.011   4.239 -0.4628  0.8827 -2.3712
    6MOL0     H  795  10.094   8.856   4.304  0.0709 -1.8423 -0.9475
    6MOL0     H  796  10.179   8.923   4.019 -1.0599 -2.2833 -1.3662
    6MOL0     H  797  10.097   8.784   4.055  0.2846  0.1360 -0.1890
    6MOL0     H  798  10.334   8.743   4.031 -0.8238 -2.1345  0.0489
    6MOL0     H  799  10.301   8.695   4.190  0.5193 -0.2749 -1.5437
    6MOL0     H  800  10.413   8.983   4.104 -2.2589  0.5026  0.3282
    6MOL0     H  801  10.372   8.928   4.267  0.9689 -1.5712  0.7119
    6MOL0     H  802  10.569   8.762   4.249  2.4337  0.2065 -0.4546
    6MOL0     H  803  10.606   8.934   4.235 -2.4107  1.6630  0.6799
    6MOL0     H  804  10.604   8.904   3.982  0.0428  0.3714 -0.4560
    6MOL0     H  805  10.551   8.735   4.003 -0.6657 -0.8460  2.7022
    6MOL0     H  806  10.790   8.729   3.966 -0.7347  1.0811 -1.2966
    6MOL0     H  807  10.762   8.698   4.143 -0.1128 -0.0515  0.2669
    6MOL0     H  808   9.706   8.660   4.136 -0.9351 -1.0688 -0.2744
    6MOL0     H  809   9.464   8.659   4.101 -0.6188 -0.6647 -0.8413
    6MOL0     H  810   9.078   8.966   4.205 -0.4532  2.2204 -0.6665
    6MOL0     H  811   8.850   9.022   4.204 -0.3180  2.6165 -2.1509
    6MOL0     H  812   7.119  10.061   3.905  0.2127  0.1863  1.2757
    6MOL0     H  813   6.997  10.079   4.107 -0.3815 -1.2335  2.6618
    6MOL0     H  814   6.668   9.829   4.360  0.2641 -1.1319  0.9153
    6MOL0     H  815   6.518   9.834   4.550  0.6521  2.0135 -0.1963
    6MOL0     H  816   6.396   9.912   4.759  1.7634  2.0304  1.2380
    6MOL0     H  817   6.444   9.742   4.740 -1.2167 -0.2327  0.5198
    6MOL0     H  818   6.438   9.883   5.008  2.2464 -0.0407  0.2493
    6MOL0     H  819   6.469   9.711   4.978 -0.7151  0.4066 -0.4076
    6MOL0     H  820   6.216   9.876   4.895 -0.6124 -1.5269 -3.9707
    6MOL0     H  821   6.223   9.704   4.877  1.8252 -3.2998  3.9134
    6MOL0     H  822   6.244   9.849   5.140  4.4358 -2.0623  0.9238
    6MOL0     H  823   6.270   9.677   5.123  2.6083  0.2938 -2.3440
    6MOL0     H  824   5.848   9.697   5.075  0.3236  1.1106 -0.4200
    6MOL0     H  825   6.854   9.903   4.808  0.9437  0.5779 -0.6492
    6MOL0     H  826   7.065   9.946   4.723  0.0078  1.4052  0.3355
    6MOL0     H  827   7.103   9.831   4.596 -0.1524  0.5134  0.3710
    6MOL0     H  828   7.079  10.008   4.566 -1.6604  0.2817 -0.8325
    7MOL0     O  829   2.422   1.523   9.158  0.2550 -0.9342 -0.4658
    7MOL0     C  830   2.394   1.419   9.106 -0.5447 -0.3716 -0.7464
    7MOL0     O  831   2.461   1.366   9.000 -0.0791  0.0808  0.3121
    7MOL0     C  832   2.583   1.417   8.958 -0.6215  1.5518 -0.3861
    7MOL0     C  833   2.586   1.525   8.871  0.2362 -0.0225 -0.4747
    7MOL0     C  834   2.697   1.582   8.812 -0.1646  0.4562  0.0741
    7MOL0     C  835   2.819   1.522   8.836  0.1964  0.9273 -0.2942
    7MOL0     O  836   2.922   1.592   8.795 -0.2680 -0.3054 -0.5049
    7MOL0     C  837   3.057   1.546   8.824 -0.1786 -0.7384  0.4624
    7MOL0     C  838   3.149   1.605   8.711  0.7159  0.9419 -0.4237
    7MOL0     C  839   3.293   1.552   8.732 -0.8929  0.4105  0.3087
    7MOL0     C  840   3.382   1.605   8.625  0.7992  0.2865 -0.3970
    7MOL0     C  841   3.515   1.534   8.638 -0.2276  0.6732  0.2980
    7MOL0     C  842   3.615   1.604   8.539 -0.0862  0.0424 -0.3641
    7MOL0     C  843   3.668   1.740   8.597  1.2886 -0.0018  0.7088
    7MOL0     C  844   3.778   1.718   8.706 -0.4404  1.1297 -0.6122
    7MOL0     N  845   3.908   1.707   8.646 -0.6185  0.0424 -0.7666
    7MOL0     C  846   3.983   1.813   8.595  0.2354 -0.1446 -0.0169
    7MOL0     C  847   4.081   1.750   8.527 -0.8232 -0.5040 -0.2207
    7MOL0     C  848   4.194   1.829   8.459 -0.2549  0.4379 -0.6883
    7MOL0     C  849   4.314   1.840   8.560 -0.0919 -0.1121 -0.4330
    7MOL0     C  850   4.409   1.960   8.525  0.3879  0.6501  0.1014
    7MOL0     C  851   4.526   1.907   8.440 -0.1621  0.4815  0.3240
    7MOL0     O  852   4.588   2.030   8.402  0.0259  0.2467  0.0834
    7MOL0     C  853   4.722   2.029   8.374 -0.9503  0.0920 -0.6634
    7MOL0     C  854   4.804   1.916   8.354 -0.4756  0.3773 -0.6148
    7MOL0     C  855   4.937   1.928   8.313 -0.2074 -0.5651 -0.5971
    7MOL0     C  856   5.022   1.801   8.301  0.1899 -0.4799  0.0066
    7MOL0     C  857   5.002   2.054   8.298  0.0248  0.1467 -0.4132
    7MOL0     C  858   5.150   2.083   8.280  0.4517  0.6875  0.3244
    7MOL0     O  859   5.231   1.983   8.313  0.2097 -0.2268  0.3187
    7MOL0     C  860   5.367   1.996   8.329  0.1286  0.2267  0.3622
    7MOL0     C  861   5.415   1.863   8.349  0.2724 -0.1735 -1.0263
    7MOL0     C  862   5.550   1.846   8.371 -0.6059  0.0133 -0.1655
    7MOL0     C  863   5.645   1.953   8.368 -0.2700  0.8239  0.9533
    7MOL0     O  864   5.783   1.951   8.384 -0.4823  0.1286 -0.5381
    7MOL0     C  865   5.845   1.824   8.403 -0.3058 -0.2582  0.0122
    7MOL0     C  866   6.000   1.836   8.420  0.3646  0.1516  0.1136
    7MOL0     C  867   6.065   1.699   8.451  0.2194 -0.7592 -0.1573
    7MOL0     C  868   6.216   1.721   8.456  0.3332  0.1211  0.0787
    7MOL0     C  869   6.292   1.589   8.461 -0.0658 -0.7104  0.4770
    7MOL0     C  870   6.443   1.607   8.479  0.0774  0.5372 -0.6187
    7MOL0     C  871   6.511   1.471   8.496 -0.2076  0.7704 -0.8673
    7MOL0     C  872   6.655   1.460   8.469  0.1540 -0.1244 -0.5017
    7MOL0    Cl  873   6.759   1.548   8.586  0.2836  0.0363  0.2955
    7MOL0     C  874   5.593   2.080   8.354 -0.1037 -0.4502  0.0200
    7MOL0     C  875   5.458   2.101   8.332 -0.6979 -0.1451  1.5408
    7MOL0     O  876   5.181   2.197   8.251  0.0587 -0.4170  0.1218
    7MOL0     C  877   4.923   2.165   8.312  0.0802  0.6716  0.3956
    7MOL0     C  878   4.784   2.153   8.346  0.2118 -0.7189 -0.4523
    7MOL0     N  879   4.069   1.620   8.542 -0.2539  0.2055  0.5206
    7MOL0     N  880   3.970   1.586   8.615  0.6789  0.2921  0.2514
    7MOL0     C  881   2.823   1.409   8.925 -0.0710  0.1880 -0.6151
    7MOL0     C  882   2.707   1.363   8.991 -0.1175  1.1135 -0.1681
    7MOL0     C  883   2.270   1.360   9.155 -0.1882 -0.7080  0.2814
    7MOL0     C  884   2.206   1.417   9.271 -0.0101 -0.1770  0.3923
    7MOL0     C  885   2.084   1.376   9.313 -0.2754 -0.0196 -1.3733
    7MOL0     C  886   2.021   1.264   9.265  0.1864  0.4801 -0.0310
    7MOL0     O  887   1.906   1.199   9.324 -0.2056 -0.0015 -0.1412
    7MOL0     C  888   1.835   1.261   9.425  0.5018 -0.3658 -0.6701
    7MOL0     C  889   1.721   1.194   9.485  1.2099  0.2879 -0.2540
    7MOL0     C  890   1.754   1.063   9.550  0.7977  0.7074 -1.0415
    7MOL0     C  891   1.649   1.011   9.652  0.5027 -0.2512 -0.8488
    7MOL0     C  892   1.502   0.997   9.609 -1.4186  0.7380 -0.2830
    7MOL0     C  893   1.388   0.986   9.586  0.2948 -0.0732  0.1232
    7MOL0     C  894   2.076   1.204   9.155 -0.5761  0.5713  0.2029
    7MOL0     C  895   2.202   1.247   9.101 -0.2412 -0.4667  0.0158
    7MOL0     C  896   2.252   1.165   8.980  0.4282  0.7006 -0.3770
    7MOL0     H  897   2.491   1.577   8.862 -0.1144 -0.8522 -1.8939
    7MOL0     H  898   2.688   1.674   8.756  0.7770  0.1355 -0.6415
    7MOL0     H  899   3.057   1.436   8.823 -1.0562 -0.7750  1.4281
    7MOL0     H  900   3.102   1.581   8.917 -3.6687 -0.0696  2.0985
    7MOL0     H  901   3.100   1.570   8.620 -1.3326 -0.9867  1.3274
    7MOL0     H  902   3.149   1.715   8.717  0.6866  1.0971 -2.4165
    7MOL0     H  903   3.338   1.585   8.826 -3.6487  2.0921  1.1471
    7MOL0     H  904   3.283   1.443   8.723  0.4994  0.3774 -1.0933
    7MOL0     H  905   3.347   1.589   8.522  2.2466  2.0852 -1.2380
    7MOL0     H  906   3.393   1.711   8.653 -0.2153  0.9734 -2.3848
    7MOL0     H  907   3.512   1.426   8.621  1.0785  0.3702  1.7482
    7MOL0     H  908   3.546   1.524   8.742 -3.8866  1.4480  1.6152
    7MOL0     H  909   3.698   1.535   8.516  0.1558  0.0709  0.3916
    7MOL0     H  910   3.561   1.622   8.446 -2.7664 -2.3882  0.5708
    7MOL0     H  911   3.597   1.789   8.664 -1.2940 -1.0780 -1.0935
    7MOL0     H  912   3.704   1.803   8.515 -0.1028 -0.5785 -0.3909
    7MOL0     H  913   3.783   1.799   8.780 -1.2326 -0.6126  1.4719
    7MOL0     H  914   3.771   1.624   8.762 -1.2553 -0.0545 -2.6078
    7MOL0     H  915   3.963   1.920   8.605  1.5891  0.5659 -3.3515
    7MOL0     H  916   4.165   1.925   8.415  1.1593  3.0588  3.4729
    7MOL0     H  917   4.230   1.767   8.377  0.0753  3.6237 -3.1787
    7MOL0     H  918   4.285   1.842   8.665 -0.1738  0.6658 -0.4631
    7MOL0     H  919   4.375   1.749   8.553 -1.6230 -1.4992  2.5896
    7MOL0     H  920   4.354   2.034   8.467 -0.9432  0.0129  0.5147
    7MOL0     H  921   4.453   1.989   8.621 -1.6348  1.4820  0.8226
    7MOL0     H  922   4.592   1.850   8.506  0.3336  1.5418  0.7691
    7MOL0     H  923   4.484   1.841   8.363 -1.1622 -1.2585  2.2608
    7MOL0     H  924   4.773   1.813   8.368 -1.4315  0.7662  0.2664
    7MOL0     H  925   4.965   1.709   8.284 -1.8274  0.4223  1.4933
    7MOL0     H  926   5.099   1.791   8.378  0.7292 -0.9908 -0.5850
    7MOL0     H  927   5.066   1.822   8.204 -4.2347  2.4880 -1.6700
    7MOL0     H  928   5.353   1.774   8.360 -0.9281  0.8523  1.0262
    7MOL0     H  929   5.589   1.747   8.389 -0.6031 -0.0433 -0.4841
    7MOL0     H  930   5.807   1.778   8.495  0.6384 -3.5546 -1.0999
    7MOL0     H  931   5.811   1.752   8.328 -0.3613 -1.1552  0.8671
    7MOL0     H  932   6.047   1.873   8.328 -1.4519  0.4567 -0.7171
    7MOL0     H  933   6.025   1.907   8.499 -0.7737 -0.0313  0.6491
    7MOL0     H  934   6.034   1.637   8.367 -0.7683 -0.8937  0.2930
    7MOL0     H  935   6.035   1.653   8.546  2.5601 -0.3151  0.8765
    7MOL0     H  936   6.242   1.780   8.544  0.1841  0.4951 -0.1277
    7MOL0     H  937   6.250   1.779   8.370  0.1550  1.4435  0.8767
    7MOL0     H  938   6.249   1.532   8.544 -0.9134  0.2168  0.7013
    7MOL0     H  939   6.276   1.530   8.370  0.9607 -1.0565  0.5116
    7MOL0     H  940   6.453   1.654   8.577 -0.2771 -4.0961  1.9475
    7MOL0     H  941   6.484   1.657   8.391  1.5487 -1.6871 -1.3015
    7MOL0     H  942   6.456   1.407   8.426 -0.8413  0.8092 -0.4148
    7MOL0     H  943   6.491   1.440   8.599 -0.5671  1.1076 -0.8322
    7MOL0     H  944   6.674   1.492   8.366  1.1228 -2.0311 -0.9618
    7MOL0     H  945   6.675   1.352   8.466  1.7856 -0.0151  2.5075
    7MOL0     H  946   5.666   2.160   8.348  1.7083 -1.7462  2.7512
    7MOL0     H  947   5.434   2.204   8.305  2.8106  0.0305 -1.6035
    7MOL0     H  948   4.976   2.259   8.303  0.2227  0.6049  0.5358
    7MOL0     H  949   4.718   2.239   8.356 -1.0300 -1.3078 -2.7634
    7MOL0     H  950   2.920   1.370   8.955 -1.3231 -1.8716  0.9785
    7MOL0     H  951   2.700   1.285   9.066 -2.5653  0.4019 -1.0114
    7MOL0     H  952   2.261   1.495   9.323  3.1750  0.4403 -3.3731
    7MOL0     H  953   2.028   1.430   9.388 -0.5057 -2.8347  0.6101
    7MOL0     H  954   1.903   1.281   9.509  0.3263 -1.2873 -0.3009
    7MOL0     H  955   1.796   1.359   9.395  0.3592 -1.1208 -3.1535
    7MOL0     H  956   1.636   1.180   9.417 -1.8277  0.6036  3.1502
    7MOL0     H  957   1.677   1.258   9.562  0.1399  0.5575 -1.0663
    7MOL0     H  958   1.769   0.987   9.474 -2.8789 -0.0713 -1.1744
    7MOL0     H  959   1.841   1.077   9.615  0.2237 -0.8237  0.1159
    7MOL0     H  960   1.642   1.072   9.743 -0.4940  0.0407 -1.1016
    7MOL0     H  961   1.681   0.911   9.682  3.2567  0.3177 -1.6686
    7MOL0     H  962   1.285   0.991   9.558 -0.1673  0.0067  1.6956
    7MOL0     H  963   2.012   1.123   9.121 -1.6227  0.1883  2.8672
    7MOL0     H  964   2.256   1.222   8.887 -0.2098  0.5256 -0.5137
    7MOL0     H  965   2.351   1.118   8.980 -0.3487 -1.0590  1.3353
    7MOL0     H  966   2.182   1.083   8.962 -0.8703  1.6225  0.3592
    8MOL0     O  967   3.155   6.778   1.899 -0.1454  0.9608 -0.5850
    8MOL0     C  968   3.089   6.703   1.830 -0.3666 -0.8086 -0.6597
    8MOL0     O  969   3.138   6.642   1.713  0.6446  0.1857 -0.1683
    8MOL0     C  970   3.224   6.722   1.637 -0.2494  0.5785 -0.0342
    8MOL0     C  971   3.363   6.696   1.624  0.2575  0.7984  0.3869
    8MOL0     C  972   3.447   6.771   1.550 -0.3884  0.4074  0.0624
    8MOL0     C  973   3.398   6.885   1.485 -0.6583  0.1640  0.6781
    8MOL0     O  974   3.474   6.958   1.401 -0.2401  0.1841 -0.6007
    8MOL0     C  975   3.615   6.978   1.447  1.2549  0.1921  0.3838
    8MOL0     C  976   3.688   7.053   1.335 -0.5294 -0.5824 -0.0617
    8MOL0     C  977   3.630   7.194   1.307  0.2610  0.2488  1.3624
    8MOL0     C  978   3.662   7.299   1.418  0.3889 -0.0473 -0.8491
    8MOL0     C  979   3.588   7.429   1.399  0.3976 -0.1872 -0.2147
    8MOL0     C  980   3.594   7.519   1.516 -0.0214  0.6879  0.0037
    8MOL0     C  981   3.739   7.559   1.550  0.2858 -0.0781 -0.3082
    8MOL0     C  982   3.804   7.651   1.444 -0.0106  0.7371  0.3421
    8MOL0     N  983   3.945   7.671   1.485  0.4070 -0.3841 -0.8465
    8MOL0     C  984   3.993   7.701   1.613  0.6522 -0.2490 -0.0884
    8MOL0     C  985   4.124   7.723   1.599  0.0967 -0.1919 -0.7473
    8MOL0     C  986   4.218   7.749   1.703 -0.5723 -0.3553 -0.3167
    8MOL0     C  987   4.356   7.681   1.670 -0.7357 -0.3355  0.5664
    8MOL0     C  988   4.464   7.714   1.767  0.4319 -0.2199  0.3514
    8MOL0     C  989   4.602   7.652   1.721 -0.1495  0.1842  0.6704
    8MOL0     O  990   4.714   7.686   1.806  0.1808 -0.0079  0.5013
    8MOL0     C  991   4.811   7.759   1.749  0.1668 -0.3698 -0.1332
    8MOL0     C  992   4.804   7.854   1.653 -0.6360 -0.6501 -0.7190
    8MOL0     C  993   4.922   7.923   1.612 -0.2800  0.0738  0.5221
    8MOL0     C  994   4.895   8.021   1.498 -0.1358 -0.5400  0.7013
    8MOL0     C  995   5.044   7.897   1.674  0.1579  0.5641  0.3696
    8MOL0     C  996   5.169   7.969   1.640 -0.4609 -0.3414 -0.2508
    8MOL0     O  997   5.278   7.926   1.711 -0.1074 -0.0013 -0.0285
    8MOL0     C  998   5.394   7.984   1.680  0.1371 -0.6992 -0.7127
    8MOL0     C  999   5.486   7.916   1.607 -1.0593 -0.2051 -0.4117
    8MOL0     C 1000   5.609   7.971   1.571  0.6403  0.1324  0.6325
    8MOL0     C 1001   5.646   8.089   1.634  0.3748  0.3086  0.0766
    8MOL0     O 1002   5.773   8.143   1.641 -0.3032 -0.3783  0.1326
    8MOL0     C 1003   5.882   8.060   1.605 -0.9239 -0.4552 -0.0967
    8MOL0     C 1004   6.023   8.121   1.643  0.3835  0.3729  0.5370
    8MOL0     C 1005   6.039   8.265   1.580 -0.1015 -0.4769 -0.6536
    8MOL0     C 1006   6.160   8.340   1.640  0.4971 -0.2573  0.1936
    8MOL0     C 1007   6.140   8.377   1.786 -0.4295 -0.8617  0.9574
    8MOL0     C 1008   6.275   8.439   1.846  0.4694 -0.0141  0.3788
    8MOL0     C 1009   6.325   8.564   1.765  0.9523 -0.1775 -0.5713
    8MOL0     C 1010   6.224   8.672   1.774 -0.2437  0.4385  0.7800
    8MOL0    Cl 1011   6.277   8.820   1.682 -0.1803 -0.1936  0.4529
    8MOL0     C 1012   5.554   8.157   1.712  0.3897 -0.8287 -0.6334
    8MOL0     C 1013   5.431   8.110   1.732 -0.2698 -0.3902  0.4409
    8MOL0     O 1014   5.180   8.055   1.549 -0.0936  1.0825  0.0447
    8MOL0     C 1015   5.054   7.791   1.766 -0.5184 -0.7752  0.5745
    8MOL0     C 1016   4.936   7.721   1.801 -0.6156 -0.3131 -0.3143
    8MOL0     N 1017   4.164   7.687   1.469  0.8144 -0.4798 -0.1846
    8MOL0     N 1018   4.055   7.657   1.405 -0.1973 -0.0754  0.1669
    8MOL0     C 1019   3.262   6.913   1.504  0.1578 -0.1359  0.1814
    8MOL0     C 1020   3.176   6.842   1.588 -0.3240  0.2968 -0.2943
    8MOL0     C 1021   2.937   6.692   1.872  0.6874  0.3454 -0.5732
    8MOL0     C 1022   2.912   6.725   2.006  0.3224  0.1818 -0.1365
    8MOL0     C 1023   2.785   6.744   2.053 -0.3008  0.3696  0.4534
    8MOL0     C 1024   2.679   6.698   1.976  0.1161 -0.6698  0.1651
    8MOL0     O 1025   2.550   6.709   2.029  0.0183 -0.2711  0.1731
    8MOL0     C 1026   2.437   6.710   1.937  0.3641 -0.3484 -0.3559
    8MOL0     C 1027   2.319   6.774   2.001 -0.5867 -0.2924 -0.3639
    8MOL0     C 1028   2.186   6.754   1.928  0.3328  0.3869 -0.2942
    8MOL0     C 1029   2.076   6.845   2.005 -0.2531  0.6151  1.0511
    8MOL0     C 1030   1.945   6.799   1.951 -0.1070  0.4003  0.4433
    8MOL0     C 1031   1.835   6.758   1.905  0.4089 -0.9544 -0.7291
    8MOL0     C 1032   2.700   6.654   1.845 -0.0375  0.8149 -0.2032
    8MOL0     C 1033   2.826   6.640   1.793 -0.2594  0.2479 -0.1585
    8MOL0     C 1034   2.846   6.602   1.650  0.0424  0.2092 -1.1391
    8MOL0     H 1035   3.402   6.601   1.660 -1.4441 -0.7798 -1.6364
    8MOL0     H 1036   3.551   6.745   1.531 -0.2189  2.2473 -2.0044
    8MOL0     H 1037   3.667   6.882   1.457  0.5038 -0.6579 -2.6560
    8MOL0     H 1038   3.620   7.028   1.544  2.8975 -1.4486  1.2168
    8MOL0     H 1039   3.794   7.061   1.359 -0.5019 -0.3257 -0.2700
    8MOL0     H 1040   3.680   6.989   1.247 -2.8105 -3.3652  1.9607
    8MOL0     H 1041   3.662   7.232   1.210 -2.5719 -3.3904 -1.2921
    8MOL0     H 1042   3.521   7.189   1.298  0.4608 -0.3002 -1.8285
    8MOL0     H 1043   3.631   7.259   1.515  1.5350  0.3609 -0.2974
    8MOL0     H 1044   3.768   7.320   1.429  0.3343 -0.6311  1.2823
    8MOL0     H 1045   3.482   7.408   1.379  0.2535 -0.5051  0.8585
    8MOL0     H 1046   3.615   7.485   1.308  2.9712  1.3708  1.3972
    8MOL0     H 1047   3.543   7.613   1.497 -0.9867  0.6321  2.1005
    8MOL0     H 1048   3.553   7.485   1.611 -1.6294  3.2995  0.3370
    8MOL0     H 1049   3.797   7.468   1.566 -0.5500 -0.7545 -0.9941
    8MOL0     H 1050   3.735   7.614   1.644  0.9791 -1.5564  0.6241
    8MOL0     H 1051   3.793   7.614   1.342  0.5156  1.2384  0.0921
    8MOL0     H 1052   3.752   7.747   1.439 -1.8814 -0.2116  0.7803
    8MOL0     H 1053   3.930   7.732   1.695  0.8602  1.2372 -0.4437
    8MOL0     H 1054   4.176   7.706   1.795 -1.2428  0.5279 -0.1970
    8MOL0     H 1055   4.237   7.854   1.723  3.3347 -0.8760 -0.5882
    8MOL0     H 1056   4.345   7.572   1.675  0.5230 -0.4683  0.7319
    8MOL0     H 1057   4.393   7.722   1.575 -1.7432 -0.7359 -0.0141
    8MOL0     H 1058   4.479   7.823   1.769 -0.0834  0.0040 -2.9965
    8MOL0     H 1059   4.443   7.678   1.868 -4.3291 -1.1445 -0.7273
    8MOL0     H 1060   4.603   7.543   1.735  0.3514  0.4901  3.7486
    8MOL0     H 1061   4.615   7.669   1.614  2.1001 -1.3476  0.6175
    8MOL0     H 1062   4.711   7.881   1.604 -0.8614  1.8036  0.8545
    8MOL0     H 1063   4.789   8.025   1.474 -0.0608  1.5412  0.5950
    8MOL0     H 1064   4.949   7.981   1.412  0.3842 -2.0727  1.6885
    8MOL0     H 1065   4.932   8.122   1.517  1.9677 -0.9852 -0.7277
    8MOL0     H 1066   5.465   7.814   1.577  1.2006 -1.9584  3.1604
    8MOL0     H 1067   5.687   7.914   1.521 -0.4145 -0.0958 -0.8240
    8MOL0     H 1068   5.880   7.964   1.657  1.7674  1.3208  3.7646
    8MOL0     H 1069   5.880   8.032   1.499  0.5420  1.0750 -0.5891
    8MOL0     H 1070   6.026   8.137   1.752 -0.6399 -1.4516  0.8736
    8MOL0     H 1071   6.105   8.060   1.603  2.1417  3.5993 -1.1308
    8MOL0     H 1072   5.947   8.324   1.591  0.3933  0.2788 -0.5090
    8MOL0     H 1073   6.051   8.257   1.472  0.3695  0.3776 -0.6750
    8MOL0     H 1074   6.164   8.436   1.587 -0.6602 -0.4687 -0.3203
    8MOL0     H 1075   6.255   8.288   1.628  2.3508  2.5000  1.6414
    8MOL0     H 1076   6.064   8.453   1.806  0.2784 -0.2413  1.3390
    8MOL0     H 1077   6.115   8.293   1.852 -3.4668  0.6963  1.9575
    8MOL0     H 1078   6.353   8.364   1.831  1.3708  0.9399  0.2403
    8MOL0     H 1079   6.270   8.466   1.952 -1.7623 -0.0602  0.3368
    8MOL0     H 1080   6.346   8.540   1.661 -2.5412 -0.5320 -1.3031
    8MOL0     H 1081   6.422   8.598   1.804 -0.5373  0.3660  3.1290
    8MOL0     H 1082   6.213   8.704   1.878  0.8396  1.4710  0.6115
    8MOL0     H 1083   6.127   8.645   1.731  0.7003  0.4337 -1.4791
    8MOL0     H 1084   5.578   8.256   1.751  0.2420 -0.9479 -0.2309
    8MOL0     H 1085   5.357   8.162   1.791  0.4939  1.8043 -0.4227
    8MOL0     H 1086   5.151   7.751   1.793 -0.2015  0.1363  0.8380
    8MOL0     H 1087   4.950   7.635   1.866  1.6449 -0.3511 -0.7781
    8MOL0     H 1088   3.227   7.004   1.457  1.6380  0.5175  0.2741
    8MOL0     H 1089   3.070   6.866   1.594 -0.3578 -0.2270  2.7220
    8MOL0     H 1090   2.997   6.748   2.070 -0.1384 -0.0489  0.5564
    8MOL0     H 1091   2.766   6.780   2.154  1.4995  2.2668  0.1863
    8MOL0     H 1092   2.457   6.766   1.846  3.6904 -0.5057  0.1475
    8MOL0     H 1093   2.414   6.606   1.909  1.7859 -0.9742  0.7041
    8MOL0     H 1094   2.340   6.882   2.000 -0.5364 -0.3032 -0.8336
    8MOL0     H 1095   2.314   6.736   2.103 -1.4316 -0.4153 -0.4378
    8MOL0     H 1096   2.194   6.781   1.822  1.2665 -0.9054 -0.5843
    8MOL0     H 1097   2.156   6.649   1.941  0.2979  0.5843  1.3146
    8MOL0     H 1098   2.097   6.951   1.987  1.1025 -0.1485 -2.9816
    8MOL0     H 1099   2.071   6.815   2.110 -0.8306  0.1174  0.8834
    8MOL0     H 1100   1.732   6.756   1.875  0.9742 -0.7786 -2.8914
    8MOL0     H 1101   2.617   6.633   1.778 -0.6141  3.3596 -0.3727
    8MOL0     H 1102   2.895   6.688   1.603 -0.6903  0.3680 -1.6279
    8MOL0     H 1103   2.903   6.509   1.642 -0.6876 -0.6711  2.1546
    8MOL0     H 1104   2.746   6.594   1.606 -0.5777  1.8604 -0.1391
    9MOL0     O 1105   9.168   4.027   5.740  0.4583 -0.7608  0.0779
    9MOL0     C 1106   9.100   4.059   5.645 -0.7365 -0.2658  0.6020
    9MOL0     O 1107   9.129   4.160   5.554  0.2231 -0.8527  0.3063
    9MOL0     C 1108   9.251   4.231   5.542  0.9179 -0.0212  0.8523
    9MOL0     C 1109   9.362   4.221   5.624  0.0804  0.4356 -0.5408
    9MOL0     C 1110   9.466   4.304   5.607  0.0200  0.1476  0.2446
    9MOL0     C 1111   9.464   4.414   5.523 -0.2255  0.6402 -1.0179
    9MOL0     O 1112   9.569   4.500   5.542  0.1926 -0.0845 -0.3401
    9MOL0     C 1113   9.556   4.627   5.480  0.7041  1.1403  0.0443
    9MOL0     C 1114   9.663   4.721   5.538  1.2731 -1.0951  0.6356
    9MOL0     C 1115   9.800   4.656   5.524 -0.6795 -0.7121  0.1024
    9MOL0     C 1116   9.900   4.767   5.573  0.3088  0.5372 -0.0540
    9MOL0     C 1117  10.049   4.732   5.576 -0.3098 -0.0988  0.6838
    9MOL0     C 1118  10.151   4.854   5.576 -0.1629  0.0605  0.4810
    9MOL0     C 1119  10.165   4.903   5.717 -0.2880  0.6026  0.4312
    9MOL0     C 1120  10.247   5.026   5.730 -0.2733  0.2775 -0.5157
    9MOL0     N 1121  10.391   4.990   5.708  0.1983 -0.2060 -0.3176
    9MOL0     C 1122  10.471   4.923   5.798 -0.4776 -0.0355 -0.0781
    9MOL0     C 1123  10.592   4.921   5.734  0.9119 -0.3554 -0.4477
    9MOL0     C 1124  10.720   4.859   5.787  0.9221  0.3328 -0.4752
    9MOL0     C 1125  10.856   4.906   5.723  0.6426  0.3271 -0.2606
    9MOL0     C 1126  10.976   4.836   5.791 -0.0411  0.5095 -0.5463
    9MOL0     C 1127  11.104   4.883   5.727 -0.0611  0.4772  0.3118
    9MOL0     O 1128  11.135   4.836   5.595 -0.1109  0.4183  0.0605
    9MOL0     C 1129  11.265   4.848   5.561 -0.2923 -0.3579 -0.0971
    9MOL0     C 1130  11.364   4.903   5.643 -0.3719  0.1824 -0.5582
    9MOL0     C 1131  11.498   4.922   5.607  0.2107 -0.2007  0.1869
    9MOL0     C 1132  11.589   4.966   5.720  0.1762  0.4221  0.4984
    9MOL0     C 1133  11.543   4.872   5.485 -0.4935 -0.5651 -0.4047
    9MOL0     C 1134  11.693   4.873   5.442 -0.7240 -1.0378 -0.1276
    9MOL0     O 1135  11.727   4.789   5.342 -0.2155 -0.5226 -0.0743
    9MOL0     C 1136  11.857   4.800   5.288 -0.8736  0.2747 -0.1952
    9MOL0     C 1137  11.871   4.861   5.160  0.0969 -0.0900  0.1269
    9MOL0     C 1138  11.995   4.883   5.102 -0.0365 -0.3041  0.4071
    9MOL0     C 1139  12.116   4.852   5.172  0.5181  0.1345 -0.2988
    9MOL0     O 1140  12.237   4.888   5.123 -0.6122  0.1278  0.3273
    9MOL0     C 1141  12.329   4.967   5.204  0.3259 -0.1072 -0.3818
    9MOL0     C 1142  12.430   4.875   5.270 -0.6897  0.4051 -1.1189
    9MOL0     C 1143  12.575   4.924   5.273  0.7697  0.4208 -0.1827
    9MOL0     C 1144  12.569   5.050   5.356 -0.1198  0.0564  0.7929
    9MOL0     C 1145  12.698   5.124   5.391  1.0520 -0.9433  0.4481
    9MOL0     C 1146  12.795   5.162   5.267 -0.6562 -0.6060 -0.5703
    9MOL0     C 1147  12.858   5.305   5.295  0.4082  0.1667  0.0308
    9MOL0     C 1148  12.977   5.286   5.387  0.7561  0.2184 -0.0388
    9MOL0    Cl 1149  13.107   5.213   5.283 -0.2413  0.2486  0.1358
    9MOL0     C 1150  12.110   4.781   5.294 -0.0928 -0.0307  0.6371
    9MOL0     C 1151  11.979   4.752   5.346  0.2045 -0.4844 -0.1058
    9MOL0     O 1152  11.779   4.934   5.507  0.5228 -0.6723 -0.6118
    9MOL0     C 1153  11.440   4.811   5.395 -0.0832  0.2151 -1.0304
    9MOL0     C 1154  11.307   4.809   5.436 -0.2799 -0.8303  0.8171
    9MOL0     N 1155  10.584   4.974   5.607  0.3247 -0.0049  0.0575
    9MOL0     N 1156  10.460   5.011   5.596 -0.4335  0.5112  0.2621
    9MOL0     C 1157   9.351   4.430   5.444  0.8089 -0.0681 -0.2020
    9MOL0     C 1158   9.247   4.334   5.448  0.0270  0.3834  0.2680
    9MOL0     C 1159   8.969   3.991   5.631  0.4697  0.1992  0.2098
    9MOL0     C 1160   8.916   4.015   5.507  0.6796  0.3350 -0.2626
    9MOL0     C 1161   8.792   3.943   5.467 -0.4572  0.5264 -0.3873
    9MOL0     C 1162   8.716   3.873   5.561  0.6054  0.5116  0.1999
    9MOL0     O 1163   8.602   3.803   5.539 -0.7569  0.1170 -0.8609
    9MOL0     C 1164   8.529   3.827   5.423  0.4347 -0.4379  0.2642
    9MOL0     C 1165   8.412   3.741   5.397 -0.4954  0.2012  1.1176
    9MOL0     C 1166   8.455   3.604   5.332  0.2405  0.0902  0.4863
    9MOL0     C 1167   8.349   3.514   5.368  0.2374  0.7232  0.3498
    9MOL0     C 1168   8.341   3.399   5.275 -0.5006  0.6261 -1.2345
    9MOL0     C 1169   8.339   3.310   5.193 -0.5584 -0.3625  0.0594
    9MOL0     C 1170   8.767   3.862   5.691 -0.2236  1.1383  0.0268
    9MOL0     C 1171   8.891   3.915   5.724 -0.7792  0.3040 -0.1507
    9MOL0     C 1172   8.945   3.875   5.859 -0.8779  0.2590 -0.6003
    9MOL0     H 1173   9.363   4.143   5.699 -0.4142  1.7758  0.9213
    9MOL0     H 1174   9.561   4.289   5.658 -0.2121  2.1895  1.3438
    9MOL0     H 1175   9.461   4.670   5.512 -0.5049 -0.8083 -0.7922
    9MOL0     H 1176   9.562   4.620   5.372  0.4005  3.1066 -0.1495
    9MOL0     H 1177   9.657   4.811   5.476  0.2682 -2.0419 -0.7024
    9MOL0     H 1178   9.626   4.736   5.640  0.6653  0.9265  0.1507
    9MOL0     H 1179   9.809   4.567   5.587 -0.8664  0.1261  1.3611
    9MOL0     H 1180   9.823   4.628   5.421 -0.1185 -3.6041  0.9417
    9MOL0     H 1181   9.884   4.844   5.497 -0.8506  1.8024  1.4235
    9MOL0     H 1182   9.870   4.813   5.667 -0.6106  1.9021 -0.9808
    9MOL0     H 1183  10.064   4.667   5.489 -0.0197 -0.0511  0.6956
    9MOL0     H 1184  10.057   4.665   5.662 -2.5036  1.5575  2.3003
    9MOL0     H 1185  10.251   4.817   5.550 -0.1195 -0.0609  0.8152
    9MOL0     H 1186  10.118   4.929   5.504 -1.3383  0.9501  1.8778
    9MOL0     H 1187  10.201   4.826   5.785  1.3528  2.0763  1.3173
    9MOL0     H 1188  10.067   4.929   5.757 -0.9242 -2.5610  1.1654
    9MOL0     H 1189  10.224   5.106   5.660  1.3678  0.7556 -0.5412
    9MOL0     H 1190  10.238   5.079   5.825  1.6713  1.4270 -0.9246
    9MOL0     H 1191  10.444   4.886   5.896  0.5785 -0.7242 -0.0317
    9MOL0     H 1192  10.709   4.752   5.769 -0.7028  0.4477 -0.3600
    9MOL0     H 1193  10.722   4.872   5.896 -1.5434 -2.8155  0.1051
    9MOL0     H 1194  10.855   4.881   5.616 -0.3412 -1.2494  0.0940
    9MOL0     H 1195  10.866   5.014   5.735 -0.2810  0.2728  1.2143
    9MOL0     H 1196  10.984   4.875   5.893  2.1949  0.7884 -0.7730
    9MOL0     H 1197  10.979   4.726   5.791 -1.0963  0.4593  0.4784
    9MOL0     H 1198  11.099   4.992   5.737  0.7166  0.6711 -1.1192
    9MOL0     H 1199  11.178   4.839   5.795  0.6255 -2.4652 -2.1306
    9MOL0     H 1200  11.344   4.927   5.747  0.6480  1.0019 -0.5319
    9MOL0     H 1201  11.666   4.895   5.753  0.1251 -0.6962 -1.6347
    9MOL0     H 1202  11.529   4.986   5.810 -1.1665 -1.1840  0.0146
    9MOL0     H 1203  11.646   5.052   5.685  1.3209 -0.6310 -0.3495
    9MOL0     H 1204  11.785   4.908   5.115  0.1705 -0.6490 -0.6104
    9MOL0     H 1205  12.010   4.940   5.010 -0.5314  2.2997  1.8269
    9MOL0     H 1206  12.386   5.039   5.145  2.1524 -0.0896  1.2976
    9MOL0     H 1207  12.276   5.014   5.287 -0.9250 -1.2489 -0.4976
    9MOL0     H 1208  12.397   4.862   5.373 -0.9584 -0.0191 -1.2517
    9MOL0     H 1209  12.440   4.779   5.219  1.4207  0.1724 -0.3274
    9MOL0     H 1210  12.616   4.940   5.173 -0.8202  0.4070 -0.8594
    9MOL0     H 1211  12.640   4.853   5.324 -1.0947 -1.8210 -0.7754
    9MOL0     H 1212  12.520   5.021   5.450 -1.8231 -4.8008 -1.2327
    9MOL0     H 1213  12.507   5.120   5.300  1.4485  0.8043 -0.0823
    9MOL0     H 1214  12.669   5.215   5.444 -2.2072 -0.8111 -1.3052
    9MOL0     H 1215  12.755   5.062   5.460  0.8899 -2.4252 -0.6951
    9MOL0     H 1216  12.730   5.173   5.179 -0.7721  1.0653 -0.3096
    9MOL0     H 1217  12.870   5.084   5.255  2.2212  1.3752  2.7805
    9MOL0     H 1218  12.783   5.374   5.334  0.8362  0.8872 -0.4116
    9MOL0     H 1219  12.887   5.342   5.197  1.5567  0.5371  0.4962
    9MOL0     H 1220  12.946   5.214   5.463 -3.1637  1.3064 -0.3937
    9MOL0     H 1221  13.014   5.375   5.440  3.0722 -1.1482  0.7983
    9MOL0     H 1222  12.193   4.747   5.355  0.8439 -1.2575 -1.2318
    9MOL0     H 1223  11.959   4.704   5.441  1.6239  2.8466  2.0488
    9MOL0     H 1224  11.470   4.759   5.304  0.8414 -3.3612  1.1257
    9MOL0     H 1225  11.220   4.771   5.383  0.0478  1.5690 -1.6721
    9MOL0     H 1226   9.342   4.519   5.383  0.1414 -0.0586 -0.0890
    9MOL0     H 1227   9.159   4.333   5.385  0.7029 -0.2417 -0.7137
    9MOL0     H 1228   8.961   4.076   5.430  0.2148  1.8249  0.6179
    9MOL0     H 1229   8.761   3.968   5.366 -0.8761  0.9094 -0.1714
    9MOL0     H 1230   8.481   3.925   5.435  0.3121 -0.0545 -2.7540
    9MOL0     H 1231   8.595   3.832   5.337 -0.8488  3.2745 -0.6704
    9MOL0     H 1232   8.345   3.777   5.318  0.7805  0.8782  0.3178
    9MOL0     H 1233   8.359   3.723   5.491 -2.3608 -1.6055 -0.1978
    9MOL0     H 1234   8.455   3.627   5.225 -3.2996  3.8128  1.0153
    9MOL0     H 1235   8.555   3.577   5.368 -0.5194  0.0873  2.7397
    9MOL0     H 1236   8.260   3.577   5.358 -0.0288  0.3139  0.0835
    9MOL0     H 1237   8.353   3.475   5.470  0.0350 -2.2668 -0.6720
    9MOL0     H 1238   8.314   3.232   5.123  0.7047 -1.6435  0.9768
    9MOL0     H 1239   8.703   3.800   5.752 -0.2504 -1.2212 -2.2157
    9MOL0     H 1240   8.866   3.826   5.917 -0.8115  0.5285 -0.2772
    9MOL0     H 1241   9.032   3.809   5.854 -2.1069 -1.4589 -0.5128
    9MOL0     H 1242   8.976   3.965   5.913  0.7318 -1.7558  2.0849
   10MOL0     O 1243   6.080   6.612   3.997  0.4276 -0.2990  0.2942
   10MOL0     C 1244   6.019   6.706   4.051 -0.1524 -0.3181 -0.6599
   10MOL0     O 1245   6.080   6.816   4.105  0.6223  0.9431  0.0661
   10MOL0     C 1246   6.222   6.806   4.137  0.8523  0.0160  0.2256
   10MOL0     C 1247   6.283   6.687   4.188  0.0466 -0.0267  0.1743
   10MOL0     C 1248   6.417   6.672   4.207  0.1972 -0.9043 -1.1020
   10MOL0     C 1249   6.500   6.781   4.173  0.7970  0.1069 -0.0955
   10MOL0     O 1250   6.636   6.771   4.203 -0.0842 -0.1189  0.2039
   10MOL0     C 1251   6.722   6.843   4.116 -0.5969 -0.4292 -0.3129
   10MOL0     C 1252   6.768   6.752   4.000 -0.0468  0.1980  0.0456
   10MOL0     C 1253   6.870   6.649   4.041 -1.1316 -0.1758  0.0189
   10MOL0     C 1254   7.014   6.713   4.032 -0.8997  0.5720 -0.1267
   10MOL0     C 1255   7.126   6.602   4.048 -0.6844  0.5447  0.1708
   10MOL0     C 1256   7.103   6.519   4.173  0.5954 -0.1329  0.0816
   10MOL0     C 1257   7.236   6.454   4.221  0.1987 -0.5812 -0.2984
   10MOL0     C 1258   7.297   6.344   4.133 -0.1191  0.2262 -0.0665
   10MOL0     N 1259   7.262   6.204   4.180  0.5045  0.0522 -0.0240
   10MOL0     C 1260   7.132   6.163   4.210 -0.0073 -0.5765  0.0840
   10MOL0     C 1261   7.135   6.031   4.214  0.2324  0.7489 -0.5274
   10MOL0     C 1262   7.027   5.940   4.262 -0.3614 -0.0963  0.1210
   10MOL0     C 1263   6.988   5.938   4.407 -0.1986  0.1386 -0.3749
   10MOL0     C 1264   7.053   5.824   4.489 -0.9821 -0.6777 -0.2280
   10MOL0     C 1265   7.204   5.833   4.508 -0.5940  0.7695 -0.3948
   10MOL0     O 1266   7.241   5.950   4.579  0.7419 -0.2555 -0.4570
   10MOL0     C 1267   7.371   5.983   4.568  0.5745  0.3133  0.3551
   10MOL0     C 1268   7.406   6.090   4.490 -0.5891 -0.1673 -0.1247
   10MOL0     C 1269   7.540   6.121   4.480  0.7761 -0.7032  0.3266
   10MOL0     C 1270   7.566   6.237   4.392  0.0213 -0.8465 -0.2742
   10MOL0     C 1271   7.636   6.036   4.541  0.9014 -0.4572  0.0811
   10MOL0     C 1272   7.784   6.047   4.514 -0.1112 -0.2085 -0.0004
   10MOL0     O 1273   7.828   6.131   4.417  0.2290 -0.1687 -0.0405
   10MOL0     C 1274   7.951   6.110   4.364  0.0844 -0.1198  0.1042
   10MOL0     C 1275   8.055   6.206   4.374  0.4679  0.0114 -0.2497
   10MOL0     C 1276   8.177   6.181   4.312  0.2534  0.6697 -0.2883
   10MOL0     C 1277   8.194   6.079   4.222  0.1271  0.2676  0.9043
   10MOL0     O 1278   8.311   6.068   4.147  0.1128  0.0954  0.2765
   10MOL0     C 1279   8.306   6.003   4.018 -0.4959  0.3602 -0.4786
   10MOL0     C 1280   8.437   6.033   3.938  0.4744 -0.5344 -0.5279
   10MOL0     C 1281   8.447   5.947   3.813 -0.2570  1.1291 -0.5693
   10MOL0     C 1282   8.571   5.997   3.736 -0.5320  0.6186 -0.9960
   10MOL0     C 1283   8.599   5.901   3.613  0.1112 -0.2295 -0.4092
   10MOL0     C 1284   8.702   5.966   3.510 -0.0966 -0.1617 -0.9454
   10MOL0     C 1285   8.830   6.049   3.565 -0.4625 -0.9042  0.5906
   10MOL0     C 1286   8.905   6.098   3.445 -0.9974  0.0994  0.7575
   10MOL0    Cl 1287   8.811   6.228   3.362 -0.2827  0.4465 -0.3732
   10MOL0     C 1288   8.083   6.001   4.196 -0.5141  0.4296 -0.9288
   10MOL0     C 1289   7.962   6.009   4.268 -0.4473 -0.0903  0.2014
   10MOL0     O 1290   7.855   5.969   4.574 -0.6002 -0.0405 -0.4694
   10MOL0     C 1291   7.594   5.939   4.628 -0.2329 -0.5278 -0.2832
   10MOL0     C 1292   7.461   5.911   4.646  0.2671  0.4718 -0.0434
   10MOL0     N 1293   7.260   5.989   4.167 -0.0071  0.9313 -0.0457
   10MOL0     N 1294   7.333   6.087   4.136 -0.3245 -0.5392  0.0046
   10MOL0     C 1295   6.441   6.907   4.137 -0.3595  0.4105 -0.2196
   10MOL0     C 1296   6.301   6.920   4.122  0.0018  0.0990 -0.1216
   10MOL0     C 1297   5.878   6.726   4.030 -0.0374  0.4878  0.5765
   10MOL0     C 1298   5.814   6.858   4.038 -0.2216 -0.0491 -0.4551
   10MOL0     C 1299   5.678   6.873   4.028 -0.4819  0.3986  0.3511
   10MOL0     C 1300   5.595   6.760   4.007 -0.2362 -0.0857 -1.0560
   10MOL0     O 1301   5.459   6.786   3.991 -0.5899 -0.3763  0.4497
   10MOL0     C 1302   5.371   6.675   3.979  0.1947  0.3458  0.2019
   10MOL0     C 1303   5.361   6.614   3.848  1.0658  0.5568 -0.1077
   10MOL0     C 1304   5.242   6.660   3.760  0.2310  0.2837  0.1376
   10MOL0     C 1305   5.250   6.582   3.624  0.1457  0.2961 -0.3408
   10MOL0     C 1306   5.110   6.558   3.581  0.3576 -0.2165 -0.8676
   10MOL0     C 1307   4.991   6.551   3.565  0.0862  0.2750 -0.6726
   10MOL0     C 1308   5.655   6.634   3.995 -0.0327  0.4124 -0.1215
   10MOL0     C 1309   5.789   6.611   4.005 -0.0699 -0.0227  0.3842
   10MOL0     C 1310   5.843   6.467   4.001 -0.0723  0.2097  0.5680
   10MOL0     H 1311   6.219   6.602   4.205 -1.1296  0.6245 -0.7769
   10MOL0     H 1312   6.451   6.579   4.253 -2.3157 -1.4075 -0.0985
   10MOL0     H 1313   6.813   6.878   4.168 -1.3629  2.4586 -0.7171
   10MOL0     H 1314   6.681   6.935   4.072  1.8036  0.4317 -0.8979
   10MOL0     H 1315   6.686   6.694   3.956  1.6793 -1.2518 -1.4168
   10MOL0     H 1316   6.821   6.806   3.921 -0.8490  1.0105  0.0374
   10MOL0     H 1317   6.850   6.616   4.143 -1.3507 -0.7703 -0.2158
   10MOL0     H 1318   6.861   6.570   3.966  1.1139 -2.2734  1.7902
   10MOL0     H 1319   7.037   6.758   3.936  0.3760  0.0692 -0.0719
   10MOL0     H 1320   7.020   6.792   4.107 -1.1045  0.4291  0.0452
   10MOL0     H 1321   7.219   6.658   4.065 -0.7668  0.3710  1.2049
   10MOL0     H 1322   7.133   6.539   3.958 -0.7593 -0.6614  0.9908
   10MOL0     H 1323   7.064   6.586   4.250 -0.9180  0.3852 -1.0714
   10MOL0     H 1324   7.035   6.440   4.140 -2.1140  2.6255 -1.4481
   10MOL0     H 1325   7.228   6.414   4.322  1.3945 -0.7318 -0.2422
   10MOL0     H 1326   7.304   6.539   4.229  0.4277 -0.8405  0.6617
   10MOL0     H 1327   7.275   6.362   4.028  0.6345  0.6836 -0.1554
   10MOL0     H 1328   7.406   6.347   4.145 -0.2957  0.1455  2.0796
   10MOL0     H 1329   7.046   6.219   4.245 -1.9543 -3.0712 -0.3665
   10MOL0     H 1330   7.048   5.836   4.239 -1.1834 -0.1409 -0.4792
   10MOL0     H 1331   6.940   5.961   4.199  0.3094 -1.2924 -1.2608
   10MOL0     H 1332   7.017   6.028   4.462 -2.6962  0.5430  0.4341
   10MOL0     H 1333   6.881   5.928   4.428 -0.2099  1.5935  0.3673
   10MOL0     H 1334   7.005   5.840   4.586  0.6841  2.1165  0.2293
   10MOL0     H 1335   7.027   5.723   4.454 -0.5454 -0.7844 -0.2470
   10MOL0     H 1336   7.240   5.745   4.561  0.8696  1.8702  0.5040
   10MOL0     H 1337   7.253   5.835   4.410 -0.7479 -0.2989 -0.5030
   10MOL0     H 1338   7.330   6.151   4.440  2.9896  0.6850 -5.4260
   10MOL0     H 1339   7.629   6.298   4.458 -2.6642  0.8386  0.9101
   10MOL0     H 1340   7.473   6.293   4.381  0.0022 -0.3564  1.9677
   10MOL0     H 1341   7.611   6.215   4.294 -2.0542  1.5895 -1.9225
   10MOL0     H 1342   8.049   6.303   4.423 -0.2915  0.2781 -0.8431
   10MOL0     H 1343   8.259   6.253   4.318 -0.8047  2.1443 -2.2628
   10MOL0     H 1344   8.293   5.894   4.022 -3.1588  0.5135 -2.6433
   10MOL0     H 1345   8.220   6.049   3.969 -2.1858  2.5512  3.9635
   10MOL0     H 1346   8.429   6.139   3.912 -1.1899 -0.1443  1.3213
   10MOL0     H 1347   8.522   6.026   4.006  0.0646  1.3366  0.2313
   10MOL0     H 1348   8.360   5.946   3.747  0.4702  0.5856 -1.5593
   10MOL0     H 1349   8.460   5.843   3.845 -1.5538  0.3893 -2.3186
   10MOL0     H 1350   8.657   6.004   3.803 -0.9634  3.4848 -0.6071
   10MOL0     H 1351   8.561   6.101   3.702 -0.1379  1.1959  0.5755
   10MOL0     H 1352   8.638   5.806   3.649  2.4209  1.3666  1.6259
   10MOL0     H 1353   8.502   5.888   3.564 -1.1708 -1.6806  2.2591
   10MOL0     H 1354   8.643   6.033   3.447 -1.3873 -0.8131 -0.4527
   10MOL0     H 1355   8.737   5.891   3.439  1.3630  1.0919 -1.6325
   10MOL0     H 1356   8.899   5.993   3.628  1.1135  3.5094  3.2440
   10MOL0     H 1357   8.792   6.135   3.621 -1.9904  1.1946 -3.2919
   10MOL0     H 1358   8.923   6.016   3.375  1.8667  1.0081  0.3256
   10MOL0     H 1359   9.005   6.132   3.475  0.1653 -1.1602 -1.4939
   10MOL0     H 1360   8.091   5.927   4.117 -0.2019  1.1473 -1.5809
   10MOL0     H 1361   7.880   5.940   4.252 -1.2844  0.9414  0.0387
   10MOL0     H 1362   7.668   5.879   4.681 -0.0674  0.0078  0.0974
   10MOL0     H 1363   7.435   5.832   4.716  1.0055  1.2417  1.1338
   10MOL0     H 1364   6.502   6.996   4.125  1.8578 -0.9540  0.3596
   10MOL0     H 1365   6.269   7.020   4.096  0.1881  0.8973  2.4222
   10MOL0     H 1366   5.870   6.938   4.084 -0.8799  0.7682 -1.0551
   10MOL0     H 1367   5.641   6.967   4.067  0.7413  0.9014  0.3428
   10MOL0     H 1368   5.390   6.596   4.052 -1.4491  0.6129  0.9737
   10MOL0     H 1369   5.277   6.723   4.009  0.2385  1.2370 -1.0348
   10MOL0     H 1370   5.341   6.508   3.868 -0.2659  0.9943  1.1164
   10MOL0     H 1371   5.453   6.617   3.790  0.7065  2.0653 -0.6217
   10MOL0     H 1372   5.141   6.655   3.800  0.1111  0.2836 -0.1620
   10MOL0     H 1373   5.245   6.767   3.736  0.0922  0.3555  0.4394
   10MOL0     H 1374   5.304   6.488   3.636 -1.1261 -0.2575  1.4099
   10MOL0     H 1375   5.297   6.646   3.548  0.5815  0.9622  0.4810
   10MOL0     H 1376   4.884   6.540   3.561  0.0963 -0.2286  0.2076
   10MOL0     H 1377   5.588   6.554   3.967  0.3890  0.1738 -0.4560
   10MOL0     H 1378   5.758   6.399   3.985 -0.5231  1.0920 -1.1244
   10MOL0     H 1379   5.908   6.462   3.913  4.0973  0.3182  3.3867
   10MOL0     H 1380   5.906   6.435   4.084  0.7460 -1.0642 -0.5029
   11MOL0     O 1381   6.137   1.262   0.546 -0.5295  0.3913 -0.7263
   11MOL0     C 1382   6.146   1.220   0.429  0.0664 -0.5181 -0.4947
   11MOL0     O 1383   6.259   1.164   0.368  0.1523  0.2335 -0.9406
   11MOL0     C 1384   6.346   1.076   0.432  0.4320 -0.6480  0.3482
   11MOL0     C 1385   6.470   1.052   0.376 -0.3350  1.3561 -0.6692
   11MOL0     C 1386   6.557   0.959   0.444 -0.0869  0.3385  0.3102
   11MOL0     C 1387   6.530   0.904   0.568  0.2500  0.6114 -0.1184
   11MOL0     O 1388   6.610   0.820   0.635 -0.1925 -0.6241  0.7041
   11MOL0     C 1389   6.572   0.690   0.626 -0.1886  0.8336 -0.0627
   11MOL0     C 1390   6.694   0.592   0.655 -0.3371 -0.2030 -0.1657
   11MOL0     C 1391   6.736   0.601   0.801  0.1100  0.2073 -0.5131
   11MOL0     C 1392   6.860   0.701   0.822 -0.3679  0.3648 -0.9333
   11MOL0     C 1393   6.899   0.703   0.969  0.5250  0.0811  0.4389
   11MOL0     C 1394   7.022   0.785   0.995  0.1497  0.0855  0.7155
   11MOL0     C 1395   7.041   0.789   1.145  0.2124 -0.0924  1.1926
   11MOL0     C 1396   7.163   0.866   1.185 -0.3184 -0.1496 -0.1221
   11MOL0     N 1397   7.284   0.794   1.148 -0.2255  0.0741  0.3598
   11MOL0     C 1398   7.320   0.668   1.194 -0.2240  0.2351 -0.0232
   11MOL0     C 1399   7.416   0.621   1.108 -0.2955  0.2505 -0.2370
   11MOL0     C 1400   7.479   0.485   1.115 -0.1025 -0.0083  0.6186
   11MOL0     C 1401   7.541   0.455   1.259 -1.1963  0.0850 -0.6920
   11MOL0     C 1402   7.675   0.527   1.280  0.9141  0.0300  0.0266
   11MOL0     C 1403   7.657   0.673   1.316  0.3646  0.4859 -0.0367
   11MOL0     O 1404   7.769   0.725   1.386  0.3322 -0.5628  0.3780
   11MOL0     C 1405   7.876   0.751   1.310 -1.4786 -0.0775  0.4404
   11MOL0     C 1406   7.886   0.865   1.229 -0.0424  0.6024 -0.5338
   11MOL0     C 1407   8.006   0.899   1.162 -0.2598 -0.7528 -0.0884
   11MOL0     C 1408   8.004   1.028   1.075 -0.5543  0.8213 -0.8220
   11MOL0     C 1409   8.119   0.808   1.179 -0.3638 -0.3792  0.2090
   11MOL0     C 1410   8.251   0.837   1.121 -0.1687 -0.3773  0.5895
   11MOL0     O 1411   8.359   0.774   1.174  0.0912  0.5177 -0.0257
   11MOL0     C 1412   8.486   0.822   1.186 -0.1773 -0.0264 -0.5436
   11MOL0     C 1413   8.522   0.957   1.192 -0.3753  0.1846  0.5717
   11MOL0     C 1414   8.657   0.996   1.210 -1.0053  0.1281  1.5905
   11MOL0     C 1415   8.763   0.899   1.236  0.3850 -0.6141  0.2109
   11MOL0     O 1416   8.894   0.941   1.254  0.3590  0.0016 -0.1045
   11MOL0     C 1417   8.951   0.883   1.378  0.1802 -0.0331  0.3397
   11MOL0     C 1418   9.090   0.943   1.386  0.3623  0.4878  0.5521
   11MOL0     C 1419   9.131   0.929   1.537 -0.0389 -0.3172  0.4459
   11MOL0     C 1420   9.275   0.970   1.564 -0.6767  0.6456  0.2608
   11MOL0     C 1421   9.292   1.009   1.708 -0.6966  0.3368 -0.1361
   11MOL0     C 1422   9.430   1.046   1.751 -0.7542  0.6561 -0.1922
   11MOL0     C 1423   9.469   1.014   1.899 -0.0158 -0.4519 -0.4005
   11MOL0     C 1424   9.556   0.886   1.923 -0.1560 -0.0571 -0.2861
   11MOL0    Cl 1425   9.478   0.744   1.835 -0.1920 -0.0003 -0.0632
   11MOL0     C 1426   8.726   0.764   1.230 -0.4354  0.2382  0.2262
   11MOL0     C 1427   8.592   0.731   1.214 -0.4126 -0.0440 -0.3779
   11MOL0     O 1428   8.256   0.906   1.018 -0.1687 -0.2794  0.0666
   11MOL0     C 1429   8.113   0.696   1.260  0.0185  0.1498 -0.5785
   11MOL0     C 1430   7.998   0.674   1.331 -0.1452 -0.4592  0.7813
   11MOL0     N 1431   7.438   0.723   1.025 -0.6316  0.6796 -0.1020
   11MOL0     N 1432   7.365   0.824   1.035 -0.0804 -0.1147 -0.0863
   11MOL0     C 1433   6.401   0.928   0.621  0.3704 -0.2511  0.5264
   11MOL0     C 1434   6.313   1.012   0.556 -0.5317 -0.0654  0.5052
   11MOL0     C 1435   6.037   1.244   0.340 -0.5136  0.8733  0.8701
   11MOL0     C 1436   6.065   1.239   0.200  0.5315  0.0580  0.8279
   11MOL0     C 1437   5.967   1.279   0.107 -0.8879  0.1147 -0.7292
   11MOL0     C 1438   5.842   1.314   0.149  0.7594 -0.2689 -0.6024
   11MOL0     O 1439   5.753   1.330   0.044 -0.0904 -0.5691  0.1755
   11MOL0     C 1440   5.614   1.372   0.069 -0.0355  1.2234  0.7154
   11MOL0     C 1441   5.590   1.525   0.061  0.5699 -0.1053 -0.4842
   11MOL0     C 1442   5.439   1.540   0.059  1.5793  0.7798 -0.4304
   11MOL0     C 1443   5.412   1.691   0.066 -0.0609  0.8450 -0.4446
   11MOL0     C 1444   5.272   1.733   0.052 -0.3303 -0.6370  0.3252
   11MOL0     C 1445   5.152   1.764   0.043  1.0904  0.1318  0.7860
   11MOL0     C 1446   5.814   1.330   0.285 -0.7785  0.1164  0.3579
   11MOL0     C 1447   5.912   1.282   0.383 -0.0366  0.3385  1.5950
   11MOL0     C 1448   5.859   1.304   0.533 -0.0087  0.0295  0.4572
   11MOL0     H 1449   6.502   1.095   0.282  0.6984 -0.3584 -1.1463
   11MOL0     H 1450   6.655   0.943   0.399 -0.2277 -1.5907  0.5683
   11MOL0     H 1451   6.543   0.670   0.522  1.1844 -1.0122 -0.1293
   11MOL0     H 1452   6.487   0.659   0.688 -0.4188 -1.3706 -1.3849
   11MOL0     H 1453   6.660   0.490   0.634  0.3880 -0.9388  2.0039
   11MOL0     H 1454   6.781   0.602   0.589 -0.5904 -0.8221 -0.6038
   11MOL0     H 1455   6.654   0.634   0.866  1.6208  0.1573  1.5071
   11MOL0     H 1456   6.771   0.499   0.822 -1.5586 -0.4633 -0.8445
   11MOL0     H 1457   6.932   0.667   0.746 -3.3039 -4.3210 -1.9679
   11MOL0     H 1458   6.835   0.805   0.797  3.3987  1.5776 -0.3776
   11MOL0     H 1459   6.912   0.601   1.006  1.3192  1.0126  2.9229
   11MOL0     H 1460   6.814   0.746   1.024  1.5810 -0.4805  2.6294
   11MOL0     H 1461   7.113   0.748   0.946  0.0758  1.1528 -0.2559
   11MOL0     H 1462   7.019   0.891   0.968 -0.0856  0.0794  0.7223
   11MOL0     H 1463   7.033   0.691   1.194  0.4162 -1.1613 -0.7986
   11MOL0     H 1464   6.951   0.842   1.176 -0.4671 -0.4028 -0.1659
   11MOL0     H 1465   7.152   0.967   1.145 -3.4302  0.1546  1.2097
   11MOL0     H 1466   7.155   0.876   1.293 -1.5527 -1.1589 -0.0961
   11MOL0     H 1467   7.267   0.609   1.269  2.3938 -4.1403 -1.2620
   11MOL0     H 1468   7.559   0.472   1.042  0.5140 -0.0162  1.2796
   11MOL0     H 1469   7.397   0.415   1.095  0.5254  0.1070 -2.9211
   11MOL0     H 1470   7.482   0.499   1.340 -1.9626  1.1746 -1.7852
   11MOL0     H 1471   7.553   0.346   1.262  0.5602  0.2620  0.2803
   11MOL0     H 1472   7.726   0.474   1.361  0.1128 -0.8337 -0.0125
   11MOL0     H 1473   7.737   0.508   1.192  1.8031  2.2375  0.1216
   11MOL0     H 1474   7.653   0.730   1.223  0.1159 -1.1817 -1.0966
   11MOL0     H 1475   7.569   0.685   1.380 -1.1225  1.5971 -2.1686
   11MOL0     H 1476   7.792   0.915   1.209 -0.3362 -0.5897 -2.2977
   11MOL0     H 1477   7.920   1.095   1.096  0.9148  1.8237  2.3903
   11MOL0     H 1478   8.013   1.006   0.968 -0.0943  0.5361 -0.7292
   11MOL0     H 1479   8.099   1.076   1.099 -0.0703 -0.9841  1.2033
   11MOL0     H 1480   8.446   1.029   1.164 -1.0480 -0.1374  1.4911
   11MOL0     H 1481   8.678   1.102   1.201  3.5828 -0.5954  1.4068
   11MOL0     H 1482   8.887   0.911   1.462 -0.1076  2.8543 -0.7358
   11MOL0     H 1483   8.952   0.773   1.383 -0.0361 -0.0386  0.2768
   11MOL0     H 1484   9.164   0.890   1.324  0.2712  0.3494  0.5625
   11MOL0     H 1485   9.096   1.047   1.353  1.9501  0.4283  0.5439
   11MOL0     H 1486   9.127   0.824   1.566 -0.5722 -0.3472  0.2770
   11MOL0     H 1487   9.063   0.984   1.603  0.3529 -1.3909  1.7920
   11MOL0     H 1488   9.306   1.057   1.504 -1.4841  1.8367  1.5058
   11MOL0     H 1489   9.334   0.881   1.539 -2.1923 -1.0870  2.4308
   11MOL0     H 1490   9.221   1.090   1.732  0.7897  2.1482 -1.5251
   11MOL0     H 1491   9.257   0.917   1.755  0.1057  0.0451 -0.0930
   11MOL0     H 1492   9.442   1.153   1.733  1.6396  0.5142  0.2863
   11MOL0     H 1493   9.508   0.994   1.696 -1.4966 -2.2097  1.2443
   11MOL0     H 1494   9.374   1.007   1.952 -0.3167 -1.3632 -1.0332
   11MOL0     H 1495   9.529   1.099   1.934  0.5654 -0.1473 -2.0061
   11MOL0     H 1496   9.587   0.873   2.027  1.8706  1.9391 -0.5697
   11MOL0     H 1497   9.647   0.903   1.865 -0.6640  1.6497 -0.6532
   11MOL0     H 1498   8.807   0.692   1.229 -0.0258  0.6987 -0.7546
   11MOL0     H 1499   8.559   0.628   1.219 -0.5480 -0.0724  5.7482
   11MOL0     H 1500   8.201   0.633   1.271 -0.6196 -1.0986 -2.1709
   11MOL0     H 1501   7.988   0.597   1.407  0.9924  1.1418  2.6822
   11MOL0     H 1502   6.368   0.876   0.711 -1.1501 -0.6717 -0.2243
   11MOL0     H 1503   6.222   1.044   0.607 -0.1312  1.3171  0.4011
   11MOL0     H 1504   6.165   1.208   0.169  0.8383  1.3575  0.4378
   11MOL0     H 1505   5.979   1.268   0.000 -3.1033 -2.5439 -0.8300
   11MOL0     H 1506   5.554   1.318  -0.006  0.6500 -1.6704  2.1221
   11MOL0     H 1507   5.575   1.336   0.165  2.4855 -1.5303  0.8612
   11MOL0     H 1508   5.635   1.583  -0.021  2.0672  1.1926  1.1768
   11MOL0     H 1509   5.615   1.574   0.155 -1.0388 -0.6550  0.2718
   11MOL0     H 1510   5.393   1.494  -0.028 -0.7750  2.7894 -0.3689
   11MOL0     H 1511   5.400   1.493   0.150 -0.4967  1.4133 -0.9348
   11MOL0     H 1512   5.456   1.731  -0.026  0.7962  1.3436  0.1682
   11MOL0     H 1513   5.452   1.736   0.157  0.5445  1.2518 -0.8970
   11MOL0     H 1514   5.048   1.786   0.032  1.2114 -0.5256 -2.3887
   11MOL0     H 1515   5.718   1.366   0.320  0.4384  3.0395  0.9316
   11MOL0     H 1516   5.903   1.228   0.597  2.5129 -0.7959 -2.0669
   11MOL0     H 1517   5.894   1.403   0.565 -0.0282  0.9528 -2.0950
   11MOL0     H 1518   5.750   1.300   0.523  0.2307 -1.0375 -3.1434
   12MOL0     O 1519   0.934   9.890   9.864 -0.2203  0.6701 -0.3694
   12MOL0     C 1520   0.851   9.865   9.778  1.5301  0.2903 -0.5566
   12MOL0     O 1521   0.874   9.874   9.639  0.3772  0.9018  0.5214
   12MOL0     C 1522   0.991   9.931   9.598 -0.3510  0.7688 -0.0522
   12MOL0     C 1523   1.101   9.867   9.546  0.2177  0.8074  0.1100
   12MOL0     C 1524   1.213   9.933   9.506 -0.0773 -0.4447 -0.0797
   12MOL0     C 1525   1.218  10.076   9.528  0.3140 -0.5024  0.1554
   12MOL0     O 1526   1.318  10.149   9.483  0.7731 -0.8226  0.4689
   12MOL0     C 1527   1.389  10.219   9.576  0.0380  0.4128 -0.3250
   12MOL0     C 1528   1.477  10.321   9.511 -1.5687  0.2842  0.0930
   12MOL0     C 1529   1.577  10.251   9.420  0.4023  1.1107 -0.0556
   12MOL0     C 1530   1.687  10.349   9.364  0.2532  0.2402 -0.5748
   12MOL0     C 1531   1.798  10.273   9.287  0.3082 -0.3492 -0.2708
   12MOL0     C 1532   1.914  10.350   9.241  0.3723  0.0517  0.2426
   12MOL0     C 1533   2.008  10.279   9.143  0.3815  0.0719  0.5195
   12MOL0     C 1534   2.130  10.372   9.097  0.5260  0.5702 -0.6004
   12MOL0     N 1535   2.209  10.319   8.995 -0.3628 -0.1771  0.7268
   12MOL0     C 1536   2.182  10.327   8.864  0.6104  1.0144  0.5877
   12MOL0     C 1537   2.272  10.256   8.801  0.7251  0.5108  0.4276
   12MOL0     C 1538   2.298  10.244   8.652 -0.4144  0.1926  0.3079
   12MOL0     C 1539   2.216  10.140   8.576  0.0843 -0.0616 -0.1136
   12MOL0     C 1540   2.253   9.990   8.610  0.3047  0.1672 -0.6911
   12MOL0     C 1541   2.177   9.898   8.521  0.3453 -0.3200  0.2788
   12MOL0     O 1542   2.227   9.901   8.390  0.0690  0.2258 -0.5168
   12MOL0     C 1543   2.337   9.819   8.354  0.6793 -0.2766 -0.1643
   12MOL0     C 1544   2.365   9.811   8.229  0.3498  0.1900  1.0751
   12MOL0     C 1545   2.462   9.714   8.182  0.8654  0.3564 -0.2175
   12MOL0     C 1546   2.470   9.702   8.034  0.0142 -0.5960  1.1794
   12MOL0     C 1547   2.531   9.625   8.271  0.0792 -1.0233  0.9666
   12MOL0     C 1548   2.647   9.541   8.239  0.0784 -0.0321 -0.0950
   12MOL0     O 1549   2.701   9.479   8.352  0.2191 -0.7923  0.3644
   12MOL0     C 1550   2.763   9.358   8.334  0.0490 -0.5005  0.6388
   12MOL0     C 1551   2.699   9.247   8.272 -0.2490  1.0160  0.6109
   12MOL0     C 1552   2.771   9.123   8.251 -0.1158  0.0360 -0.3477
   12MOL0     C 1553   2.901   9.117   8.308 -0.2364 -1.0574  1.0354
   12MOL0     O 1554   2.996   9.020   8.282  0.4874  0.1306 -0.1901
   12MOL0     C 1555   2.981   8.951   8.154 -0.3173 -0.2672  0.5139
   12MOL0     C 1556   3.089   8.843   8.165  0.4045  0.2353  0.0094
   12MOL0     C 1557   3.093   8.767   8.033 -0.5750  0.5404  0.0476
   12MOL0     C 1558   3.178   8.641   8.057 -0.3722 -0.4565  0.1046
   12MOL0     C 1559   3.179   8.564   7.924 -0.4958  0.3882  0.9688
   12MOL0     C 1560   3.275   8.445   7.928 -0.1707 -0.3462 -0.4870
   12MOL0     C 1561   3.417   8.499   7.978 -0.0591  0.7291 -0.0834
   12MOL0     C 1562   3.526   8.386   7.968  0.9490  0.0131 -0.7025
   12MOL0    Cl 1563   3.459   8.240   8.058 -0.1774  0.3630  0.0809
   12MOL0     C 1564   2.958   9.226   8.377  0.6871  0.4000  0.5554
   12MOL0     C 1565   2.894   9.349   8.386  0.7518 -0.1057  0.5776
   12MOL0     O 1566   2.687   9.529   8.124  0.1053  0.0332  0.0797
   12MOL0     C 1567   2.495   9.640   8.409 -0.0725  0.0312 -0.6048
   12MOL0     C 1568   2.402   9.734   8.450  1.1128 -0.5841  0.5536
   12MOL0     N 1569   2.359  10.197   8.895 -0.0359 -0.0541 -0.6121
   12MOL0     N 1570   2.324  10.240   9.013  0.1258  0.4911  0.3088
   12MOL0     C 1571   1.110  10.141   9.578  0.1083 -0.4698  0.2437
   12MOL0     C 1572   0.998  10.067   9.614 -0.1881  0.0156 -0.2309
   12MOL0     C 1573   0.726   9.785   9.815  0.0429  0.0291 -0.5187
   12MOL0     C 1574   0.687   9.677   9.741  0.3718  0.2428  0.4414
   12MOL0     C 1575   0.582   9.588   9.777  0.1346  0.8345 -0.2046
   12MOL0     C 1576   0.521   9.612   9.894  0.1520  0.2150 -0.6616
   12MOL0     O 1577   0.436   9.514   9.937 -0.1565  0.2943  0.1808
   12MOL0     C 1578   0.325   9.548  10.026 -0.2876  0.0635  0.2882
   12MOL0     C 1579   0.243   9.421  10.028  0.5957 -0.5308  0.2713
   12MOL0     C 1580   0.100   9.446  10.075  0.6765  0.1620  0.3388
   12MOL0     C 1581   0.023   9.319  10.076  1.0824  0.5446 -0.2764
   12MOL0     C 1582  -0.098   9.335  10.159 -0.3102  0.7764  0.2270
   12MOL0     C 1583  -0.192   9.333  10.232  0.3593 -0.4410 -0.2052
   12MOL0     C 1584   0.564   9.714   9.981 -0.0179  0.1382 -0.8050
   12MOL0     C 1585   0.657   9.805   9.938 -0.6006 -0.1627 -0.7745
   12MOL0     C 1586   0.681   9.917  10.033  0.4966  1.1367  0.2941
   12MOL0     H 1587   1.100   9.759   9.529  0.6534 -0.2144  5.0274
   12MOL0     H 1588   1.298   9.887   9.457  1.5720  0.9254  1.3879
   12MOL0     H 1589   1.456  10.148   9.624  1.3152  0.4494 -1.9489
   12MOL0     H 1590   1.330  10.261   9.658  2.1908  1.0541  0.9961
   12MOL0     H 1591   1.416  10.398   9.462  0.1602  0.1274 -2.4989
   12MOL0     H 1592   1.519  10.378   9.595  0.6358 -0.9842 -0.0620
   12MOL0     H 1593   1.635  10.179   9.479  2.4715  1.3814 -1.6492
   12MOL0     H 1594   1.525  10.190   9.344  2.6593 -0.3528 -0.5192
   12MOL0     H 1595   1.641  10.424   9.298 -0.7257 -0.4900 -0.7549
   12MOL0     H 1596   1.727  10.391   9.456 -1.4342  1.4255 -0.3429
   12MOL0     H 1597   1.750  10.227   9.200  1.8673  0.3690 -1.5799
   12MOL0     H 1598   1.827  10.194   9.356 -2.6335 -0.7218  0.7047
   12MOL0     H 1599   1.873  10.438   9.191 -0.1899  0.1968  0.9590
   12MOL0     H 1600   1.973  10.379   9.328  0.8193 -2.1741  0.7443
   12MOL0     H 1601   1.959  10.246   9.051  1.0329 -0.5844  0.3999
   12MOL0     H 1602   2.044  10.189   9.193 -0.2356 -0.7184 -0.4240
   12MOL0     H 1603   2.104  10.477   9.083  0.5121  1.0411  2.2517
   12MOL0     H 1604   2.193  10.362   9.186  0.6140 -2.1344 -0.8824
   12MOL0     H 1605   2.103  10.379   8.811 -0.0518 -0.0960  0.4553
   12MOL0     H 1606   2.403  10.218   8.636 -0.5987 -1.5290  1.5487
   12MOL0     H 1607   2.277  10.338   8.600  0.7315 -0.3952 -1.2907
   12MOL0     H 1608   2.110  10.163   8.594  0.4898  1.6570  0.2134
   12MOL0     H 1609   2.233  10.147   8.468 -0.2592 -1.3886 -0.2806
   12MOL0     H 1610   2.361   9.985   8.593  0.1825  0.7721 -1.7619
   12MOL0     H 1611   2.220   9.980   8.714 -3.1020  0.5142 -1.6206
   12MOL0     H 1612   2.168   9.797   8.563 -0.4114 -0.5522 -0.3934
   12MOL0     H 1613   2.074   9.933   8.525  0.7178  0.8618 -0.1229
   12MOL0     H 1614   2.315   9.872   8.154  1.5770 -2.9164 -2.6193
   12MOL0     H 1615   2.397   9.633   7.991  2.2947 -2.4586  0.0454
   12MOL0     H 1616   2.570   9.676   7.998  0.4300 -1.2500  2.6940
   12MOL0     H 1617   2.453   9.797   7.984  0.5656 -0.4050  1.3399
   12MOL0     H 1618   2.596   9.243   8.239 -0.4023 -1.4582  1.1877
   12MOL0     H 1619   2.731   9.042   8.191 -0.7192 -0.1036  0.2357
   12MOL0     H 1620   2.881   8.911   8.135  0.8752 -2.9661 -0.5793
   12MOL0     H 1621   3.010   9.027   8.082  0.7219  2.7617  3.8080
   12MOL0     H 1622   3.192   8.877   8.181  0.6993 -0.3526 -0.5657
   12MOL0     H 1623   3.055   8.774   8.242  0.3263 -1.0236 -1.1095
   12MOL0     H 1624   3.145   8.824   7.956  1.6980  0.9753  1.8030
   12MOL0     H 1625   2.991   8.749   7.998 -1.5080  3.5801  0.8613
   12MOL0     H 1626   3.126   8.577   8.130 -0.5590 -0.2435  0.1588
   12MOL0     H 1627   3.275   8.674   8.095 -1.0937  1.2722  0.5199
   12MOL0     H 1628   3.080   8.524   7.901 -0.3214 -1.7341  3.3336
   12MOL0     H 1629   3.218   8.633   7.849 -0.8378 -0.9339 -0.4807
   12MOL0     H 1630   3.289   8.419   7.823 -1.4832  1.5099 -1.1823
   12MOL0     H 1631   3.238   8.359   7.984  0.2592 -0.9241 -1.0744
   12MOL0     H 1632   3.410   8.523   8.085 -4.0228 -0.4832  0.1062
   12MOL0     H 1633   3.462   8.588   7.934  0.2546  2.2419  2.9922
   12MOL0     H 1634   3.619   8.416   8.018 -1.1875  0.7724  3.2612
   12MOL0     H 1635   3.543   8.356   7.864  0.1557 -2.3256 -0.2109
   12MOL0     H 1636   3.060   9.214   8.410  0.5266 -0.7958  0.6631
   12MOL0     H 1637   2.931   9.445   8.420 -0.5717  0.4848  0.4339
   12MOL0     H 1638   2.542   9.572   8.481  0.2090  0.0229 -0.7945
   12MOL0     H 1639   2.378   9.734   8.556 -0.4863 -1.3485  0.2199
   12MOL0     H 1640   1.120  10.249   9.573  0.6416 -0.5355 -0.2171
   12MOL0     H 1641   0.917  10.114   9.669  0.1533 -0.4424  0.6800
   12MOL0     H 1642   0.738   9.649   9.649 -0.4109 -0.5113  0.2171
   12MOL0     H 1643   0.545   9.501   9.723 -0.9348  0.5708  0.9240
   12MOL0     H 1644   0.356   9.568  10.129  1.9915  1.0333 -0.5016
   12MOL0     H 1645   0.276   9.637   9.985  2.4601  1.4237 -0.2908
   12MOL0     H 1646   0.284   9.353  10.103 -1.0719 -0.7934  0.9839
   12MOL0     H 1647   0.233   9.378   9.928  0.3281  0.2550 -0.0517
   12MOL0     H 1648   0.110   9.480  10.178  1.7551  0.8356  0.0333
   12MOL0     H 1649   0.049   9.523  10.017  2.2037  0.4329 -0.7058
   12MOL0     H 1650   0.079   9.236  10.121 -2.2565 -1.7037  0.0539
   12MOL0     H 1651  -0.007   9.275   9.981 -3.4369 -1.0136  1.6103
   12MOL0     H 1652  -0.287   9.344  10.281  0.7152  2.3594  0.0278
   12MOL0     H 1653   0.522   9.724  10.080 -0.8710  0.2448 -1.1660
   12MOL0     H 1654   0.584   9.946  10.074  0.6775  0.4440  1.2525
   12MOL0     H 1655   0.743   9.887  10.118  0.2639 -1.3012 -0.3085
   12MOL0     H 1656   0.734   9.995   9.979 -0.2106 -0.6992 -3.4066
   13MOL0     O 1657   0.399   4.631   5.626 -0.0397 -0.0762 -0.2657
   13MOL0     C 1658   0.377   4.514   5.646 -0.6698  0.1290  0.4232
   13MOL0     O 1659   0.467   4.413   5.642 -1.0390 -0.4985  0.0056
   13MOL0     C 1660   0.607   4.443   5.626  0.5688 -1.1572 -0.0251
   13MOL0     C 1661   0.680   4.342   5.568 -0.7618  0.5034  0.0610
   13MOL0     C 1662   0.816   4.355   5.556 -0.7563  0.9714 -0.2589
   13MOL0     C 1663   0.882   4.470   5.583 -0.1587  0.1635  0.0805
   13MOL0     O 1664   1.014   4.480   5.545 -0.3265  0.1266  0.0347
   13MOL0     C 1665   1.089   4.595   5.578  0.2312 -0.5824  0.7224
   13MOL0     C 1666   1.225   4.567   5.512 -0.3031 -0.1310 -0.4003
   13MOL0     C 1667   1.314   4.683   5.557 -0.4412  0.3351 -0.0366
   13MOL0     C 1668   1.442   4.661   5.481  0.2132  0.2858  0.2277
   13MOL0     C 1669   1.539   4.764   5.518  0.6024  0.4845  0.2099
   13MOL0     C 1670   1.679   4.739   5.451  1.0093  0.2652  0.4056
   13MOL0     C 1671   1.772   4.853   5.482 -0.5854 -0.6143 -0.6904
   13MOL0     C 1672   1.906   4.834   5.419 -0.5961  0.0461  0.8315
   13MOL0     N 1673   2.017   4.897   5.480  0.0121  0.8330 -0.0710
   13MOL0     C 1674   2.059   5.030   5.453 -0.5032  0.2546  0.3263
   13MOL0     C 1675   2.164   5.029   5.538  0.3678  0.3708  0.1158
   13MOL0     C 1676   2.259   5.145   5.548 -0.1901 -0.1473  0.5388
   13MOL0     C 1677   2.405   5.094   5.526  0.4030  0.6894 -0.6821
   13MOL0     C 1678   2.440   5.110   5.378 -0.5833  0.1426 -0.5354
   13MOL0     C 1679   2.566   5.034   5.350  0.3504 -0.6389 -0.3800
   13MOL0     O 1680   2.682   5.073   5.420  0.6507  0.3696  0.3341
   13MOL0     C 1681   2.778   4.984   5.409 -0.3496 -0.1201  0.3046
   13MOL0     C 1682   2.800   4.899   5.287  0.5686 -0.1893 -0.6092
   13MOL0     C 1683   2.921   4.822   5.279  0.5584  0.0318 -0.4292
   13MOL0     C 1684   2.933   4.730   5.158  1.0426 -0.9696  0.3403
   13MOL0     C 1685   3.014   4.821   5.389 -0.3265 -0.7741 -0.4790
   13MOL0     C 1686   3.136   4.738   5.385  0.0339 -1.3494  0.3788
   13MOL0     O 1687   3.185   4.721   5.268 -0.1319 -0.6028 -0.5293
   13MOL0     C 1688   3.279   4.622   5.254  0.6234 -0.3278  0.3434
   13MOL0     C 1689   3.247   4.476   5.262  0.3495 -0.5859  0.2809
   13MOL0     C 1690   3.353   4.387   5.245  0.2301  0.6597  0.9207
   13MOL0     C 1691   3.485   4.429   5.230  0.2595  0.0355 -0.3786
   13MOL0     O 1692   3.590   4.346   5.239 -0.5696 -0.1839  0.3450
   13MOL0     C 1693   3.570   4.203   5.233 -0.1021  0.2728 -0.4123
   13MOL0     C 1694   3.713   4.148   5.247  0.9239  0.0404  0.0655
   13MOL0     C 1695   3.717   4.003   5.281 -0.3682  0.0744 -0.2472
   13MOL0     C 1696   3.862   3.947   5.274  0.1441 -0.3258  0.8652
   13MOL0     C 1697   3.859   3.809   5.330  0.1536 -0.4803  0.0026
   13MOL0     C 1698   3.992   3.751   5.332 -0.2278 -0.3147 -1.4955
   13MOL0     C 1699   4.002   3.603   5.386  0.3003 -0.0534  0.1192
   13MOL0     C 1700   4.148   3.559   5.436 -0.2686  0.2422  0.0217
   13MOL0    Cl 1701   4.266   3.548   5.312 -0.3238  0.1396  0.3100
   13MOL0     C 1702   3.510   4.571   5.214  0.4993 -0.0751 -0.0698
   13MOL0     C 1703   3.409   4.666   5.226  0.1050  0.5149  0.0427
   13MOL0     O 1704   3.190   4.698   5.493 -0.4163 -0.7171 -0.6790
   13MOL0     C 1705   2.990   4.892   5.503 -0.1047  0.0816 -0.0709
   13MOL0     C 1706   2.873   4.979   5.512 -0.3418 -0.0820  0.1749
   13MOL0     N 1707   2.174   4.921   5.617  0.6250  0.8498  0.4044
   13MOL0     N 1708   2.075   4.844   5.587 -0.4684  0.3162  0.4370
   13MOL0     C 1709   0.810   4.566   5.654 -0.9157 -0.1911  0.2174
   13MOL0     C 1710   0.673   4.555   5.676 -0.0824 -0.2327 -0.2983
   13MOL0     C 1711   0.229   4.472   5.668 -0.4267 -0.2531  0.5488
   13MOL0     C 1712   0.135   4.568   5.692 -0.0983 -0.0942  0.4832
   13MOL0     C 1713   0.010   4.543   5.732  0.8833  0.2077  0.8796
   13MOL0     C 1714  -0.051   4.417   5.712 -0.9361 -0.4510 -0.3499
   13MOL0     O 1715  -0.186   4.406   5.748 -0.5486 -0.2574  0.0313
   13MOL0     C 1716  -0.258   4.287   5.717 -0.0854 -0.3872  0.0951
   13MOL0     C 1717  -0.397   4.290   5.786  0.5125 -0.5498  0.4689
   13MOL0     C 1718  -0.490   4.175   5.736  0.8287  0.5109 -0.2394
   13MOL0     C 1719  -0.631   4.186   5.799 -0.0417  0.1942  0.8476
   13MOL0     C 1720  -0.722   4.077   5.760  0.1903 -0.3717  0.5121
   13MOL0     C 1721  -0.806   4.001   5.712  0.8575  0.6924  0.4481
   13MOL0     C 1722   0.038   4.317   5.677  0.7490 -0.3094  0.6746
   13MOL0     C 1723   0.175   4.343   5.655  0.2221  0.4554 -0.4775
   13MOL0     C 1724   0.251   4.228   5.599 -0.7670  0.5358  0.9531
   13MOL0     H 1725   0.635   4.251   5.530 -1.5323  1.0023 -0.2422
   13MOL0     H 1726   0.875   4.275   5.512  0.3721  0.6828  1.6567
   13MOL0     H 1727   1.095   4.605   5.686  0.1407 -1.9875  0.8717
   13MOL0     H 1728   1.050   4.687   5.532  4.7591  1.1548 -0.2054
   13MOL0     H 1729   1.268   4.472   5.543 -0.5204 -0.6470 -1.6400
   13MOL0     H 1730   1.203   4.577   5.406 -1.7094  2.4549  0.0205
   13MOL0     H 1731   1.272   4.782   5.537 -1.1744 -0.2141 -1.3296
   13MOL0     H 1732   1.329   4.677   5.666  1.4446  0.8800 -0.2425
   13MOL0     H 1733   1.481   4.562   5.506  0.1265  0.5144  1.3246
   13MOL0     H 1734   1.421   4.662   5.373 -0.8832  0.3664  0.4320
   13MOL0     H 1735   1.561   4.748   5.624 -1.5013  1.4042  0.8390
   13MOL0     H 1736   1.506   4.865   5.491 -0.0052  0.1574 -0.2752
   13MOL0     H 1737   1.733   4.653   5.490  1.0791  0.4399  0.6930
   13MOL0     H 1738   1.674   4.726   5.342 -2.2091 -0.7786  0.5798
   13MOL0     H 1739   1.783   4.872   5.589 -0.6825 -0.3230 -0.7295
   13MOL0     H 1740   1.731   4.948   5.444  0.3485  0.2604  0.4169
   13MOL0     H 1741   1.926   4.729   5.442  1.6209  0.0310 -0.8653
   13MOL0     H 1742   1.907   4.858   5.313  2.0976 -2.8842  0.0720
   13MOL0     H 1743   2.030   5.094   5.371  0.5412 -1.6783 -1.6328
   13MOL0     H 1744   2.254   5.194   5.646  1.2038  0.1870  0.4694
   13MOL0     H 1745   2.241   5.220   5.471 -1.5485 -0.9634  0.0442
   13MOL0     H 1746   2.472   5.149   5.593 -1.2121 -1.2447  2.8082
   13MOL0     H 1747   2.413   4.988   5.551  2.9658  0.3117 -2.6947
   13MOL0     H 1748   2.373   5.074   5.299  1.3544  1.5118 -2.9539
   13MOL0     H 1749   2.467   5.214   5.356 -1.5760  0.4615 -0.2886
   13MOL0     H 1750   2.550   4.926   5.366  0.6533 -0.6846 -0.3932
   13MOL0     H 1751   2.592   5.042   5.245 -0.1637 -0.5034 -0.5017
   13MOL0     H 1752   2.733   4.905   5.203  1.7678  1.9498 -1.5043
   13MOL0     H 1753   2.994   4.768   5.076 -0.1236 -1.5868 -0.8481
   13MOL0     H 1754   2.836   4.727   5.108  0.9831  2.5421 -0.0208
   13MOL0     H 1755   2.965   4.628   5.181 -0.0781 -1.2344  0.8072
   13MOL0     H 1756   3.144   4.443   5.276  0.1406  0.0645  0.3241
   13MOL0     H 1757   3.327   4.281   5.248 -3.1443  1.3754  1.4366
   13MOL0     H 1758   3.491   4.180   5.306 -2.7703  0.5359 -3.0011
   13MOL0     H 1759   3.535   4.179   5.132 -0.3822 -0.0675 -0.2357
   13MOL0     H 1760   3.758   4.161   5.148 -1.0534 -2.1532 -1.2527
   13MOL0     H 1761   3.769   4.200   5.325  0.2347  1.0446 -0.0930
   13MOL0     H 1762   3.649   3.950   5.213 -1.5421 -2.2928  2.5647
   13MOL0     H 1763   3.679   3.991   5.383  2.2338 -1.4639  0.6247
   13MOL0     H 1764   3.932   4.009   5.331 -0.4296  2.0533 -0.8833
   13MOL0     H 1765   3.901   3.951   5.172 -0.7971  1.3516  0.5377
   13MOL0     H 1766   3.807   3.815   5.427 -1.0572  0.2073 -0.6541
   13MOL0     H 1767   3.795   3.745   5.269  1.6893 -0.1272 -2.0927
   13MOL0     H 1768   4.058   3.811   5.396 -2.0695 -0.5259  0.7592
   13MOL0     H 1769   4.038   3.757   5.233 -0.6117 -0.9188 -1.7123
   13MOL0     H 1770   3.950   3.531   5.323  0.0387 -1.2476  1.6506
   13MOL0     H 1771   3.944   3.604   5.479  0.2066  2.0143  0.0870
   13MOL0     H 1772   4.145   3.471   5.501  0.0831  1.3196  1.5592
   13MOL0     H 1773   4.180   3.633   5.510  3.4681 -2.1934  1.1633
   13MOL0     H 1774   3.616   4.594   5.202  0.6981  0.0746  1.6872
   13MOL0     H 1775   3.443   4.769   5.220  0.3699  0.4009 -0.4154
   13MOL0     H 1776   3.058   4.887   5.587 -2.7837 -0.3660  2.2186
   13MOL0     H 1777   2.848   5.036   5.601 -2.0880 -0.6551  0.0898
   13MOL0     H 1778   0.859   4.653   5.697 -0.9859 -1.0177  2.0612
   13MOL0     H 1779   0.613   4.625   5.733 -1.3234 -1.4390 -0.0611
   13MOL0     H 1780   0.172   4.670   5.698 -1.1582  0.3002  0.4377
   13MOL0     H 1781  -0.057   4.618   5.773 -1.6323 -2.8356  2.6891
   13MOL0     H 1782  -0.279   4.272   5.610  1.6737  0.1613 -0.3548
   13MOL0     H 1783  -0.210   4.196   5.755  0.6183  0.6517  1.7708
   13MOL0     H 1784  -0.448   4.384   5.763  0.9854 -0.1948  0.8381
   13MOL0     H 1785  -0.383   4.283   5.895  2.5737  1.9759  0.4614
   13MOL0     H 1786  -0.502   4.183   5.628  0.6804  1.8324 -0.1390
   13MOL0     H 1787  -0.440   4.080   5.758  0.4689 -0.2902 -2.6721
   13MOL0     H 1788  -0.670   4.286   5.781 -2.3590 -0.7316  0.4773
   13MOL0     H 1789  -0.623   4.175   5.908 -3.0029  2.6174  1.4437
   13MOL0     H 1790  -0.879   3.929   5.679 -0.5117  2.0675  0.3677
   13MOL0     H 1791   0.002   4.217   5.658 -3.6791  0.9116  1.4551
   13MOL0     H 1792   0.332   4.196   5.664  0.0433 -0.2276 -0.3778
   13MOL0     H 1793   0.191   4.138   5.581 -1.2458  1.0828 -0.3324
   13MOL0     H 1794   0.297   4.255   5.504  4.1391 -3.0976  1.9152
   14MOL0     O 1795   2.154   5.409   8.186 -0.3915 -0.4928  0.5708
   14MOL0     C 1796   2.076   5.455   8.098  0.1413 -0.0862  0.4764
   14MOL0     O 1797   2.104   5.476   7.966 -1.0636  0.0242  0.1502
   14MOL0     C 1798   2.235   5.490   7.931 -0.8582  0.6318 -0.1416
   14MOL0     C 1799   2.310   5.378   7.887 -0.8602 -0.6609 -0.3086
   14MOL0     C 1800   2.450   5.393   7.852 -0.2122  0.9419  1.0896
   14MOL0     C 1801   2.521   5.514   7.869  0.3060  0.1505  0.1395
   14MOL0     O 1802   2.652   5.523   7.830  0.2295  0.5032  0.3401
   14MOL0     C 1803   2.726   5.608   7.902 -0.2201 -0.3411 -0.1237
   14MOL0     C 1804   2.871   5.567   7.885 -0.4732  0.2556  0.7275
   14MOL0     C 1805   2.947   5.629   7.765  0.3389  0.0405 -0.0666
   14MOL0     C 1806   3.087   5.569   7.740  0.4726 -0.9336  0.2807
   14MOL0     C 1807   3.170   5.650   7.640 -0.3747  0.2214  0.0245
   14MOL0     C 1808   3.318   5.588   7.629  0.6771  0.1668  0.5022
   14MOL0     C 1809   3.404   5.674   7.537 -0.3833  0.4105  0.0228
   14MOL0     C 1810   3.445   5.811   7.581  0.9694 -0.1929 -0.4805
   14MOL0     N 1811   3.548   5.852   7.490  0.7109 -0.4879 -0.1552
   14MOL0     C 1812   3.681   5.873   7.520 -0.4238  0.5841 -0.3837
   14MOL0     C 1813   3.719   5.959   7.419 -0.6879 -0.4185  0.3154
   14MOL0     C 1814   3.854   6.023   7.398  0.0843 -0.8010 -0.7486
   14MOL0     C 1815   3.887   6.024   7.248  0.4489 -0.9179  0.1219
   14MOL0     C 1816   4.027   6.077   7.219 -0.0139  0.0966  0.0831
   14MOL0     C 1817   4.054   6.221   7.266  0.3194 -0.1604 -0.3945
   14MOL0     O 1818   4.164   6.220   7.361 -0.5211 -0.5871 -0.6188
   14MOL0     C 1819   4.290   6.176   7.320  1.0293  0.3217 -0.6978
   14MOL0     C 1820   4.380   6.151   7.421 -0.3349  0.3625  0.5023
   14MOL0     C 1821   4.515   6.114   7.382  0.8125 -0.5365 -0.0130
   14MOL0     C 1822   4.608   6.104   7.505 -0.3964  0.2616 -0.8483
   14MOL0     C 1823   4.552   6.116   7.241  0.4102  0.4856 -1.1017
   14MOL0     C 1824   4.690   6.084   7.199 -0.5589  0.8548  0.4535
   14MOL0     O 1825   4.776   6.027   7.288 -0.4059  0.0018  0.6264
   14MOL0     C 1826   4.899   5.984   7.249  0.1206 -0.1418  0.0254
   14MOL0     C 1827   4.902   5.873   7.157  0.5054 -0.4771  0.4915
   14MOL0     C 1828   5.026   5.819   7.124 -0.1377 -0.9460 -0.6257
   14MOL0     C 1829   5.151   5.877   7.162 -0.4000  0.2459 -0.4912
   14MOL0     O 1830   5.274   5.836   7.122  0.5642 -0.8037 -0.2411
   14MOL0     C 1831   5.279   5.744   7.006  0.7227  0.0016 -0.7700
   14MOL0     C 1832   5.280   5.605   7.067 -0.1665 -0.7427  0.3170
   14MOL0     C 1833   5.248   5.500   6.964 -0.1325  0.8186 -1.1550
   14MOL0     C 1834   5.232   5.347   7.001 -0.3149  0.7323 -0.0693
   14MOL0     C 1835   5.134   5.276   6.904  0.4282  0.1115 -0.0464
   14MOL0     C 1836   5.101   5.133   6.919 -0.1189  0.8592 -0.6395
   14MOL0     C 1837   5.213   5.052   6.856 -0.4839 -0.3296  0.0833
   14MOL0     C 1838   5.207   4.903   6.873 -0.0538 -1.0684 -0.3269
   14MOL0    Cl 1839   5.269   4.882   7.043 -0.3462  0.4077 -0.0530
   14MOL0     C 1840   5.142   5.990   7.244  0.1977  0.6473 -0.3312
   14MOL0     C 1841   5.021   6.044   7.289  0.2483  0.0838 -0.0165
   14MOL0     O 1842   4.722   6.112   7.082 -0.0353 -0.3426 -0.4708
   14MOL0     C 1843   4.451   6.134   7.141  0.6923 -0.8585 -0.8218
   14MOL0     C 1844   4.321   6.168   7.178  0.3367 -0.5784  0.7702
   14MOL0     N 1845   3.611   5.974   7.331  0.1842 -0.0926  0.1553
   14MOL0     N 1846   3.512   5.909   7.376 -0.3524  0.1212  0.5734
   14MOL0     C 1847   2.445   5.628   7.920 -0.0589  0.8276  0.4670
   14MOL0     C 1848   2.304   5.613   7.955 -0.0261  0.3026  0.3303
   14MOL0     C 1849   1.931   5.474   8.142  0.5573  0.4963 -0.5945
   14MOL0     C 1850   1.886   5.376   8.240  0.8242  0.4303  0.9006
   14MOL0     C 1851   1.750   5.383   8.279  1.0350  1.5686  0.0262
   14MOL0     C 1852   1.662   5.478   8.242  0.0316  0.0195 -0.1403
   14MOL0     O 1853   1.528   5.486   8.286 -0.6440 -0.3763 -0.2157
   14MOL0     C 1854   1.466   5.365   8.318 -1.0875  0.9636 -0.2074
   14MOL0     C 1855   1.315   5.398   8.358  0.0007  0.7095  0.1295
   14MOL0     C 1856   1.308   5.471   8.488  0.1181  0.8562  0.3566
   14MOL0     C 1857   1.169   5.435   8.557 -0.6470 -0.3687 -0.4099
   14MOL0     C 1858   1.176   5.345   8.672  0.6382  1.0275  0.0194
   14MOL0     C 1859   1.176   5.212   8.815  0.0725 -0.2772  0.2637
   14MOL0     C 1860   1.709   5.575   8.151  0.1526 -0.6765  0.4106
   14MOL0     C 1861   1.842   5.574   8.099  0.0124 -0.5341  0.0956
   14MOL0     C 1862   1.889   5.677   7.999 -0.2714  0.6437 -0.6266
   14MOL0     H 1863   2.263   5.281   7.887 -2.6430  0.1656  0.0437
   14MOL0     H 1864   2.501   5.300   7.827 -0.4368  1.2868 -0.7984
   14MOL0     H 1865   2.694   5.605   8.007  1.9806  1.1956  0.6788
   14MOL0     H 1866   2.721   5.710   7.862  0.1786 -0.1768  0.2287
   14MOL0     H 1867   2.926   5.582   7.978 -1.9424 -3.8068  2.4621
   14MOL0     H 1868   2.874   5.459   7.869  2.0858  0.5275 -1.2829
   14MOL0     H 1869   2.886   5.623   7.674 -1.7192 -1.2356  1.3013
   14MOL0     H 1870   2.960   5.735   7.788  1.6840 -0.4329  1.4952
   14MOL0     H 1871   3.148   5.556   7.829 -3.5735  0.8371  3.6978
   14MOL0     H 1872   3.079   5.464   7.707  2.9976 -0.6023 -1.6795
   14MOL0     H 1873   3.184   5.753   7.674  0.1317  0.0070  0.4800
   14MOL0     H 1874   3.124   5.652   7.541  4.2990 -1.0108 -2.4395
   14MOL0     H 1875   3.369   5.569   7.724 -2.0357 -4.0004  1.4093
   14MOL0     H 1876   3.305   5.491   7.580 -1.4542  0.9946 -0.6923
   14MOL0     H 1877   3.357   5.679   7.438  0.2883  1.0162 -0.2757
   14MOL0     H 1878   3.501   5.623   7.522 -0.6489 -0.3618  0.8447
   14MOL0     H 1879   3.355   5.874   7.582  1.1056  0.0913 -2.3068
   14MOL0     H 1880   3.487   5.795   7.680  1.5261 -0.4686 -0.7591
   14MOL0     H 1881   3.742   5.825   7.595 -0.8709  2.2966  1.1487
   14MOL0     H 1882   3.936   5.982   7.457  1.1922  2.3125  0.0438
   14MOL0     H 1883   3.847   6.124   7.440 -1.2368 -0.6114 -1.3699
   14MOL0     H 1884   3.875   5.919   7.220 -3.6249 -0.7909  0.8721
   14MOL0     H 1885   3.810   6.084   7.198 -1.4970 -0.4976  3.3495
   14MOL0     H 1886   4.090   6.004   7.272 -2.2409 -1.6115  0.5689
   14MOL0     H 1887   4.045   6.067   7.112  0.8434 -0.0128  0.2273
   14MOL0     H 1888   4.068   6.289   7.181 -0.5670 -0.6869 -0.9831
   14MOL0     H 1889   3.968   6.268   7.314  0.5403  3.4582 -3.0367
   14MOL0     H 1890   4.358   6.156   7.527  3.7729  3.5403  1.4769
   14MOL0     H 1891   4.662   6.009   7.508 -1.3070 -0.2489  0.6474
   14MOL0     H 1892   4.557   6.107   7.602  0.0473  0.2626 -0.6086
   14MOL0     H 1893   4.681   6.186   7.509  0.9370 -0.9296  0.2828
   14MOL0     H 1894   4.809   5.827   7.124 -0.5877  0.1520  2.5398
   14MOL0     H 1895   5.019   5.731   7.061  0.0322 -1.6396  0.3099
   14MOL0     H 1896   5.196   5.764   6.937  1.9081  0.2218 -2.1977
   14MOL0     H 1897   5.371   5.771   6.952  0.2554 -0.7904 -2.0097
   14MOL0     H 1898   5.375   5.573   7.111 -0.4496 -0.8078  0.8909
   14MOL0     H 1899   5.206   5.610   7.148  1.3483  2.1821  1.6689
   14MOL0     H 1900   5.321   5.512   6.883 -2.1190  0.9011 -3.0358
   14MOL0     H 1901   5.152   5.534   6.922 -0.3953 -0.1803 -1.3948
   14MOL0     H 1902   5.185   5.340   7.100 -1.9566 -0.7900 -0.9082
   14MOL0     H 1903   5.334   5.307   7.002 -0.3837  0.1769 -3.7069
   14MOL0     H 1904   5.044   5.337   6.890  0.0364 -0.4939 -0.2059
   14MOL0     H 1905   5.174   5.289   6.803  2.0111  1.7251  0.7471
   14MOL0     H 1906   5.006   5.110   6.869 -0.6453 -0.0996  0.7505
   14MOL0     H 1907   5.097   5.104   7.025 -1.0020  1.3865 -0.5129
   14MOL0     H 1908   5.316   5.076   6.884 -0.9971  2.5446 -0.1765
   14MOL0     H 1909   5.198   5.078   6.751  0.6987  0.6025  0.1308
   14MOL0     H 1910   5.271   4.862   6.795  1.8674  1.1775 -0.0532
   14MOL0     H 1911   5.105   4.868   6.854 -0.1104 -0.2715 -1.5644
   14MOL0     H 1912   5.231   6.043   7.276  0.6624 -0.6455  0.5824
   14MOL0     H 1913   5.021   6.125   7.361  0.3711 -1.4125  1.7098
   14MOL0     H 1914   4.488   6.143   7.039  2.0771  0.5791 -0.2396
   14MOL0     H 1915   4.250   6.194   7.100  2.1944 -0.7024 -1.0527
   14MOL0     H 1916   2.495   5.723   7.938 -3.6368  2.6155  1.9600
   14MOL0     H 1917   2.246   5.702   7.977  1.4854  1.9001 -1.6646
   14MOL0     H 1918   1.944   5.290   8.272 -2.6830 -2.3246  0.5092
   14MOL0     H 1919   1.714   5.304   8.345 -1.9620  1.5704 -1.4597
   14MOL0     H 1920   1.464   5.300   8.231 -2.0321 -0.9519  1.1783
   14MOL0     H 1921   1.525   5.317   8.397  1.9004  1.5695 -1.9304
   14MOL0     H 1922   1.265   5.300   8.359  1.8713 -0.2931  0.1354
   14MOL0     H 1923   1.267   5.459   8.281  0.2176  0.3440 -0.3091
   14MOL0     H 1924   1.389   5.447   8.558  0.4363  0.9025  0.0120
   14MOL0     H 1925   1.309   5.580   8.474  1.6306  0.6298 -1.8059
   14MOL0     H 1926   1.099   5.386   8.488 -0.7977  0.1901 -0.6579
   14MOL0     H 1927   1.121   5.527   8.592 -1.0643 -0.7072 -0.0627
   14MOL0     H 1928   1.167   5.130   8.883  3.8814 -1.4103 -0.3723
   14MOL0     H 1929   1.635   5.646   8.115  2.4030  0.4751 -2.2983
   14MOL0     H 1930   1.916   5.635   7.902  1.2252 -1.0537  0.4554
   14MOL0     H 1931   1.817   5.759   8.001 -1.4686 -0.3809  1.1539
   14MOL0     H 1932   1.980   5.714   8.048 -0.5789 -0.1547  0.6107
   15MOL0     O 1933   7.459   7.503   7.045 -0.3446 -0.7166 -0.2522
   15MOL0     C 1934   7.426   7.594   6.969 -0.3188 -0.0225 -0.6437
   15MOL0     O 1935   7.494   7.710   6.950  0.3776 -0.8855 -0.7910
   15MOL0     C 1936   7.594   7.748   7.033  0.2701  0.6248 -0.4659
   15MOL0     C 1937   7.581   7.759   7.172  0.3740 -0.5648  0.5371
   15MOL0     C 1938   7.694   7.799   7.253  0.0523  0.2478  0.0603
   15MOL0     C 1939   7.813   7.829   7.198 -0.3245  0.0360  0.4546
   15MOL0     O 1940   7.916   7.880   7.274 -0.0481  0.2363 -0.0885
   15MOL0     C 1941   8.060   7.857   7.240  0.5180 -0.6252 -0.2451
   15MOL0     C 1942   8.145   7.917   7.353 -0.2035 -0.4209 -0.0213
   15MOL0     C 1943   8.295   7.916   7.317 -0.6203 -0.6361 -0.8175
   15MOL0     C 1944   8.390   8.005   7.398 -0.8253 -0.5720 -0.3433
   15MOL0     C 1945   8.420   7.943   7.532 -0.4889 -1.0526 -0.1794
   15MOL0     C 1946   8.505   8.030   7.624 -0.4477  0.6383  0.7879
   15MOL0     C 1947   8.557   7.953   7.739  0.7727  0.8979  0.1800
   15MOL0     C 1948   8.703   7.911   7.743 -0.9155  0.6442  0.0904
   15MOL0     N 1949   8.771   7.903   7.870  0.3374  0.0237  0.7992
   15MOL0     C 1950   8.768   8.011   7.963  0.0229 -0.6764  0.2711
   15MOL0     C 1951   8.811   7.958   8.078 -0.4020  0.0973  0.0741
   15MOL0     C 1952   8.837   8.025   8.216 -0.0286  0.3398  0.6732
   15MOL0     C 1953   8.984   8.073   8.237  0.2766 -0.2161 -0.4943
   15MOL0     C 1954   9.082   7.965   8.223  0.4339  0.2109 -0.0240
   15MOL0     C 1955   9.224   8.009   8.239 -0.2286 -0.2018 -1.0280
   15MOL0     O 1956   9.272   8.094   8.129  0.5135  0.0385 -0.0993
   15MOL0     C 1957   9.403   8.130   8.131  0.8265 -0.4711  0.2074
   15MOL0     C 1958   9.432   8.217   8.036  0.7965 -0.0816 -0.2162
   15MOL0     C 1959   9.562   8.265   8.030 -0.7855  0.5852  0.6164
   15MOL0     C 1960   9.588   8.384   7.948 -0.9469 -0.4055  1.5007
   15MOL0     C 1961   9.666   8.215   8.127 -0.3364  0.0554 -0.1154
   15MOL0     C 1962   9.811   8.235   8.124 -0.9376 -0.2343  0.3706
   15MOL0     O 1963   9.875   8.236   8.243 -0.1073  0.6947 -0.7540
   15MOL0     C 1964  10.008   8.265   8.264 -0.7714  0.2482 -0.4453
   15MOL0     C 1965  10.063   8.390   8.256  0.5999 -0.8118 -0.6695
   15MOL0     C 1966  10.203   8.417   8.277  0.1608  0.7450  0.2167
   15MOL0     C 1967  10.287   8.310   8.307 -0.8597  0.5586 -0.3996
   15MOL0     O 1968  10.416   8.342   8.336 -0.7381  0.1985 -0.2560
   15MOL0     C 1969  10.521   8.246   8.369 -0.6766 -0.3715 -0.4012
   15MOL0     C 1970  10.662   8.312   8.402  0.2693  0.2769 -0.7596
   15MOL0     C 1971  10.653   8.380   8.540  0.6586  0.0682  0.0781
   15MOL0     C 1972  10.776   8.463   8.564 -0.5679 -0.2882 -0.2707
   15MOL0     C 1973  10.789   8.491   8.718  1.0079 -0.5348 -0.2820
   15MOL0     C 1974  10.901   8.592   8.740 -0.8474 -0.1423 -0.2290
   15MOL0     C 1975  10.949   8.620   8.889 -0.2545 -0.0409 -0.3955
   15MOL0     C 1976  11.090   8.679   8.902  0.1647  0.0030  0.0415
   15MOL0    Cl 1977  11.216   8.565   8.845  0.2040  0.2151 -0.1612
   15MOL0     C 1978  10.233   8.184   8.311  0.1965  0.7065 -0.4780
   15MOL0     C 1979  10.098   8.162   8.292  0.0906  0.7532 -0.7618
   15MOL0     O 1980   9.858   8.268   8.014 -0.0676 -0.1177 -0.2355
   15MOL0     C 1981   9.625   8.123   8.220 -0.1240 -0.1260 -0.4276
   15MOL0     C 1982   9.497   8.077   8.223 -0.1444  0.1117 -0.1199
   15MOL0     N 1983   8.829   7.822   8.052  0.2805  0.5781  0.6105
   15MOL0     N 1984   8.804   7.784   7.928  0.6783 -0.0079 -0.5881
   15MOL0     C 1985   7.829   7.800   7.067  0.3771  0.3272  0.1952
   15MOL0     C 1986   7.722   7.771   6.984 -0.5232  0.1618 -0.9634
   15MOL0     C 1987   7.305   7.567   6.881 -0.3648 -0.3560 -0.5828
   15MOL0     C 1988   7.250   7.435   6.886 -0.7503 -0.9943 -0.6377
   15MOL0     C 1989   7.139   7.394   6.812  0.3207 -0.6675 -0.1199
   15MOL0     C 1990   7.074   7.486   6.734  0.3055 -0.0151  0.5297
   15MOL0     O 1991   6.955   7.460   6.669  0.2452 -0.1421  0.3846
   15MOL0     C 1992   6.866   7.362   6.732  0.4005  0.5890 -0.1351
   15MOL0     C 1993   6.734   7.355   6.670  0.9072 -0.0073  0.4362
   15MOL0     C 1994   6.631   7.270   6.741 -0.2841 -0.3260  0.0051
   15MOL0     C 1995   6.496   7.289   6.675  0.5188 -0.4692  0.2049
   15MOL0     C 1996   6.391   7.204   6.729  0.3512  0.6469 -0.0413
   15MOL0     C 1997   6.306   7.121   6.752  0.1511 -0.1263 -0.4023
   15MOL0     C 1998   7.121   7.618   6.733  0.1444  0.0902 -0.6337
   15MOL0     C 1999   7.239   7.661   6.797 -0.3400 -0.6361 -0.1108
   15MOL0     C 2000   7.272   7.808   6.792  0.6866  0.4296 -0.8961
   15MOL0     H 2001   7.488   7.734   7.220 -1.5008 -0.1295 -2.5706
   15MOL0     H 2002   7.676   7.801   7.360 -1.0761 -2.5777  0.0205
   15MOL0     H 2003   8.087   7.905   7.146 -1.9053 -0.5849 -0.9873
   15MOL0     H 2004   8.075   7.750   7.220  1.8992 -0.1159 -2.1904
   15MOL0     H 2005   8.112   8.021   7.361  0.9747 -0.1928  3.3432
   15MOL0     H 2006   8.120   7.866   7.447 -0.7660 -0.9122 -0.4264
   15MOL0     H 2007   8.327   7.812   7.317  0.3198 -0.3718 -2.1534
   15MOL0     H 2008   8.297   7.944   7.212 -1.3743 -1.4112 -1.0495
   15MOL0     H 2009   8.484   8.015   7.342 -0.2933  0.5643  0.6966
   15MOL0     H 2010   8.344   8.104   7.412  0.4193 -0.0386  0.1438
   15MOL0     H 2011   8.475   7.852   7.506  0.7857  0.1572 -1.9792
   15MOL0     H 2012   8.321   7.919   7.572 -0.1593  0.1062  1.4667
   15MOL0     H 2013   8.591   8.067   7.567 -0.2853 -1.5946 -0.5205
   15MOL0     H 2014   8.436   8.107   7.661 -0.0545  2.4650 -1.9458
   15MOL0     H 2015   8.491   7.868   7.760  0.2026  1.2409 -0.2204
   15MOL0     H 2016   8.550   8.022   7.824  0.8402 -0.2782  1.1814
   15MOL0     H 2017   8.718   7.813   7.698 -0.1169 -1.0394  3.6721
   15MOL0     H 2018   8.764   7.983   7.688 -0.9008  1.4547  1.1071
   15MOL0     H 2019   8.733   8.114   7.957  1.7362 -0.0925 -0.5880
   15MOL0     H 2020   8.811   7.954   8.294  0.4927 -0.4958  0.1029
   15MOL0     H 2021   8.771   8.112   8.221 -0.6088  0.0110 -0.6879
   15MOL0     H 2022   9.012   8.138   8.154  2.1702 -1.0426 -0.5379
   15MOL0     H 2023   8.995   8.136   8.326  2.3902 -0.7772 -0.3226
   15MOL0     H 2024   9.053   7.891   8.298 -3.0211  2.1654  0.7791
   15MOL0     H 2025   9.077   7.919   8.124  1.6063 -0.1860  0.0756
   15MOL0     H 2026   9.235   8.071   8.328 -1.9672  1.8047 -2.1209
   15MOL0     H 2027   9.282   7.917   8.252 -4.1606 -2.7229  0.7467
   15MOL0     H 2028   9.350   8.256   7.977  0.2047  1.3192  1.4516
   15MOL0     H 2029   9.679   8.431   7.987 -0.5583 -0.0175  0.1875
   15MOL0     H 2030   9.507   8.453   7.974  1.7435  3.7168 -0.0753
   15MOL0     H 2031   9.587   8.369   7.840 -0.5240  0.4179  1.3709
   15MOL0     H 2032   9.990   8.469   8.240  1.3730  0.9460  3.3035
   15MOL0     H 2033  10.234   8.521   8.274 -1.4034  1.2247 -0.6746
   15MOL0     H 2034  10.492   8.181   8.452 -1.9702  0.1293 -0.4371
   15MOL0     H 2035  10.537   8.179   8.284 -1.2387  1.5512 -2.1061
   15MOL0     H 2036  10.736   8.231   8.400 -3.0569 -3.0220 -2.0502
   15MOL0     H 2037  10.697   8.391   8.336  1.7462  1.7729  1.6653
   15MOL0     H 2038  10.630   8.304   8.615  0.6200  0.4981  0.5083
   15MOL0     H 2039  10.567   8.447   8.552 -1.9441 -3.1207  0.5262
   15MOL0     H 2040  10.761   8.562   8.520  0.5514  0.0954  0.1909
   15MOL0     H 2041  10.863   8.414   8.519 -1.1598  1.0779 -3.1567
   15MOL0     H 2042  10.702   8.538   8.764  1.4105 -2.7616  3.1788
   15MOL0     H 2043  10.809   8.404   8.782 -0.0081 -0.0864  0.6686
   15MOL0     H 2044  10.878   8.692   8.702 -1.5404 -0.4378 -0.5984
   15MOL0     H 2045  10.982   8.543   8.686  0.5441  1.7630  0.0429
   15MOL0     H 2046  10.960   8.530   8.951  1.4726  0.5071  0.1226
   15MOL0     H 2047  10.879   8.692   8.932  1.0239 -0.8146  3.4377
   15MOL0     H 2048  11.101   8.707   9.007 -0.7173 -1.5680  0.5816
   15MOL0     H 2049  11.096   8.775   8.849  0.3968  0.5935  1.1190
   15MOL0     H 2050  10.297   8.101   8.339 -1.1547 -0.2857 -0.2503
   15MOL0     H 2051  10.049   8.066   8.298  2.0981 -0.2826  0.0328
   15MOL0     H 2052   9.694   8.084   8.294 -1.9351  1.7234  2.4696
   15MOL0     H 2053   9.473   8.009   8.304  0.8189  1.3205  1.2395
   15MOL0     H 2054   7.928   7.814   7.025  1.0304 -3.3891  0.2034
   15MOL0     H 2055   7.746   7.759   6.879  0.8385  2.1655 -0.9258
   15MOL0     H 2056   7.307   7.355   6.931 -0.3131 -0.4865 -0.2774
   15MOL0     H 2057   7.102   7.292   6.809  1.7593 -1.2031 -1.9149
   15MOL0     H 2058   6.909   7.262   6.724  1.0652  0.6253  2.2562
   15MOL0     H 2059   6.846   7.397   6.833 -3.0231 -2.7690  0.5527
   15MOL0     H 2060   6.732   7.331   6.564  1.9346  0.1853  0.3687
   15MOL0     H 2061   6.695   7.458   6.670  2.7673  0.7289  0.7246
   15MOL0     H 2062   6.658   7.164   6.744  0.6498 -0.1155 -0.5618
   15MOL0     H 2063   6.624   7.296   6.847  2.3966 -1.4059  0.5256
   15MOL0     H 2064   6.510   7.270   6.568 -3.6314 -2.4487 -0.1979
   15MOL0     H 2065   6.468   7.393   6.693  0.0451 -0.6265  0.4066
   15MOL0     H 2066   6.226   7.054   6.779  0.2185  0.8102  2.3530
   15MOL0     H 2067   7.057   7.685   6.678  1.2261 -0.0124 -2.0705
   15MOL0     H 2068   7.190   7.869   6.754  1.1065  0.3839 -1.9356
   15MOL0     H 2069   7.290   7.838   6.895  1.7193  0.2225 -0.9995
   15MOL0     H 2070   7.370   7.832   6.748 -0.5731 -0.0068 -4.2902
   16MOL0     O 2071   6.462   8.801   7.430  0.3390 -0.2099  0.3245
   16MOL0     C 2072   6.410   8.718   7.348  1.2835 -0.0959  0.0942
   16MOL0     O 2073   6.446   8.588   7.327 -0.6571 -0.1269  0.4214
   16MOL0     C 2074   6.570   8.554   7.370  0.1408 -0.3327  0.5520
   16MOL0     C 2075   6.613   8.557   7.504 -0.4683 -0.6000  0.0634
   16MOL0     C 2076   6.741   8.525   7.538 -0.7987 -0.0104  0.4182
   16MOL0     C 2077   6.830   8.480   7.446  0.5001  0.3066  0.0562
   16MOL0     O 2078   6.954   8.444   7.489 -0.4819  0.3070  0.1031
   16MOL0     C 2079   7.065   8.475   7.407 -0.5495 -0.6386 -0.1084
   16MOL0     C 2080   7.190   8.470   7.498 -0.6687  0.3932 -0.1948
   16MOL0     C 2081   7.315   8.477   7.413  0.2421  1.2063  0.1188
   16MOL0     C 2082   7.446   8.470   7.496 -0.0817  0.5224 -0.7704
   16MOL0     C 2083   7.560   8.503   7.389  0.4974  0.4432 -0.1053
   16MOL0     C 2084   7.694   8.443   7.437 -0.3071 -0.0145 -0.6293
   16MOL0     C 2085   7.799   8.461   7.331 -1.1515  1.2328 -0.0657
   16MOL0     C 2086   7.933   8.426   7.387 -0.2955  0.6980 -0.6174
   16MOL0     N 2087   8.053   8.440   7.298  1.0818 -0.7805  0.0485
   16MOL0     C 2088   8.143   8.347   7.268  0.9379 -0.6585  0.0156
   16MOL0     C 2089   8.251   8.416   7.234 -0.0306 -0.0231  0.6091
   16MOL0     C 2090   8.385   8.363   7.197 -0.5430 -0.7590  0.2978
   16MOL0     C 2091   8.494   8.440   7.281  0.6845 -0.2107 -0.7729
   16MOL0     C 2092   8.530   8.364   7.410 -0.2267 -0.5128 -0.2313
   16MOL0     C 2093   8.625   8.445   7.501  0.0302 -0.2586  0.2242
   16MOL0     O 2094   8.681   8.356   7.602  0.4911 -0.1667 -0.0345
   16MOL0     C 2095   8.812   8.362   7.613 -0.0462 -0.5681  0.9026
   16MOL0     C 2096   8.873   8.351   7.736 -1.1717 -0.1320  0.6314
   16MOL0     C 2097   9.019   8.351   7.750 -0.7006  0.0095 -0.3732
   16MOL0     C 2098   9.074   8.331   7.891 -0.4097  0.5462 -0.0910
   16MOL0     C 2099   9.096   8.356   7.633 -0.1981  0.4139 -0.3245
   16MOL0     C 2100   9.243   8.358   7.620  0.2908  0.3996 -0.0030
   16MOL0     O 2101   9.295   8.394   7.495 -0.9484  0.1688  0.6802
   16MOL0     C 2102   9.432   8.396   7.475 -0.8433 -0.3832 -0.6857
   16MOL0     C 2103   9.508   8.276   7.498  0.4431  0.7477  0.3227
   16MOL0     C 2104   9.643   8.281   7.472 -0.0182 -0.1430 -0.3479
   16MOL0     C 2105   9.710   8.393   7.422  0.3441  0.1688  0.3743
   16MOL0     O 2106   9.843   8.410   7.395 -0.0682  0.1374  0.0531
   16MOL0     C 2107   9.943   8.352   7.482 -0.2686  1.0157 -0.5526
   16MOL0     C 2108  10.063   8.447   7.510 -0.4730 -0.5882 -0.1178
   16MOL0     C 2109  10.157   8.462   7.389  0.0785 -0.7009  0.0000
   16MOL0     C 2110  10.230   8.592   7.388 -0.5856 -0.3548  0.7000
   16MOL0     C 2111  10.352   8.589   7.476 -0.6830  0.3244  0.2203
   16MOL0     C 2112  10.439   8.714   7.456  0.1499  0.6391  0.3032
   16MOL0     C 2113  10.513   8.753   7.581  0.4079  0.2155 -0.5692
   16MOL0     C 2114  10.587   8.638   7.656 -0.2510 -0.4987 -0.0294
   16MOL0    Cl 2115  10.742   8.597   7.558 -0.0902  0.3209  0.4658
   16MOL0     C 2116   9.632   8.506   7.392 -0.8614 -0.8136 -0.4480
   16MOL0     C 2117   9.498   8.512   7.432 -0.0974 -0.3815 -0.8217
   16MOL0     O 2118   9.304   8.347   7.721 -0.2552  0.3815  0.0903
   16MOL0     C 2119   9.030   8.347   7.513  0.0614  0.0348  0.2220
   16MOL0     C 2120   8.893   8.349   7.503  1.2707  0.7729 -0.0663
   16MOL0     N 2121   8.223   8.552   7.232  0.4727  0.3138 -0.1289
   16MOL0     N 2122   8.097   8.566   7.260  0.1033  0.1401 -0.6103
   16MOL0     C 2123   6.793   8.471   7.309 -0.1732 -0.1615  0.2199
   16MOL0     C 2124   6.659   8.510   7.273 -0.0848  0.1709 -0.0915
   16MOL0     C 2125   6.282   8.757   7.286 -0.1603 -0.3964  0.0927
   16MOL0     C 2126   6.261   8.896   7.279 -0.0140 -0.0480 -0.3336
   16MOL0     C 2127   6.141   8.954   7.246 -0.5470 -0.3070  0.2029
   16MOL0     C 2128   6.035   8.877   7.197  0.0803  0.3160 -0.4675
   16MOL0     O 2129   5.921   8.940   7.150 -0.0542  0.3927  0.2129
   16MOL0     C 2130   5.809   8.854   7.106 -0.2776 -0.3250 -0.2193
   16MOL0     C 2131   5.693   8.945   7.078  0.4665 -0.0771  0.5353
   16MOL0     C 2132   5.725   9.056   6.974  0.5352 -0.9589 -0.7000
   16MOL0     C 2133   5.608   9.158   6.973 -0.5781 -0.9082  0.3415
   16MOL0     C 2134   5.628   9.278   7.062 -0.2994 -0.0547  0.2184
   16MOL0     C 2135   5.630   9.374   7.138  0.1321  0.0294 -0.0237
   16MOL0     C 2136   6.052   8.741   7.188  0.2360  0.1364  0.3014
   16MOL0     C 2137   6.174   8.679   7.232 -0.5206 -0.7550  0.9330
   16MOL0     C 2138   6.190   8.529   7.220  0.8702 -0.0981 -0.4286
   16MOL0     H 2139   6.545   8.598   7.578  0.7993 -0.1101  0.9819
   16MOL0     H 2140   6.769   8.537   7.642 -0.0405  0.7353  0.1402
   16MOL0     H 2141   7.073   8.577   7.368 -2.5754 -0.0165  0.9507
   16MOL0     H 2142   7.084   8.401   7.329 -2.3776 -2.5160  1.1043
   16MOL0     H 2143   7.184   8.549   7.574  0.5497  0.7646 -0.4672
   16MOL0     H 2144   7.189   8.372   7.548  0.6848  0.9244  0.9277
   16MOL0     H 2145   7.321   8.400   7.336  2.9845  2.3497 -0.9488
   16MOL0     H 2146   7.315   8.570   7.356 -0.6189 -0.0922 -2.1218
   16MOL0     H 2147   7.453   8.539   7.580  0.7789  1.0268 -1.2413
   16MOL0     H 2148   7.460   8.372   7.543 -0.3227  1.0359  0.4018
   16MOL0     H 2149   7.574   8.610   7.374 -0.6332  0.9801  2.3225
   16MOL0     H 2150   7.540   8.465   7.288  1.4811 -2.3161  0.6432
   16MOL0     H 2151   7.733   8.496   7.524  2.4484 -0.9067 -1.2320
   16MOL0     H 2152   7.701   8.337   7.464  3.9596  0.0184 -0.8672
   16MOL0     H 2153   7.789   8.560   7.285  1.6771  0.8666 -1.6897
   16MOL0     H 2154   7.786   8.382   7.256 -0.0933 -1.6998  2.6378
   16MOL0     H 2155   7.947   8.493   7.473  0.5298 -0.0300 -0.1661
   16MOL0     H 2156   7.941   8.326   7.431 -2.4239  0.7146 -0.0503
   16MOL0     H 2157   8.122   8.242   7.283 -0.6756 -0.8702 -2.9296
   16MOL0     H 2158   8.395   8.368   7.088 -2.6390 -1.1288  0.0350
   16MOL0     H 2159   8.389   8.255   7.209  0.6843 -1.3585 -3.7379
   16MOL0     H 2160   8.583   8.465   7.223  2.1644 -0.9605  1.0506
   16MOL0     H 2161   8.458   8.537   7.315  1.3315  0.0686 -0.8664
   16MOL0     H 2162   8.441   8.328   7.462  0.1339 -1.5828 -0.3447
   16MOL0     H 2163   8.580   8.271   7.382 -0.8396 -1.4609  1.7198
   16MOL0     H 2164   8.700   8.485   7.432 -2.4242  0.0406 -2.5113
   16MOL0     H 2165   8.577   8.532   7.547  1.9904  0.5100  0.8996
   16MOL0     H 2166   8.815   8.356   7.828 -0.0948 -0.6728  1.3602
   16MOL0     H 2167   9.100   8.227   7.913 -0.9231  0.0995 -1.4878
   16MOL0     H 2168   8.998   8.360   7.965  0.6795  2.0402  0.4786
   16MOL0     H 2169   9.161   8.393   7.915  2.1648 -3.3833  1.7169
   16MOL0     H 2170   9.456   8.186   7.528 -0.0706  0.4367 -1.3583
   16MOL0     H 2171   9.702   8.192   7.492 -1.6885 -1.0235  0.9528
   16MOL0     H 2172   9.890   8.325   7.574 -1.1622  5.1297  0.3089
   16MOL0     H 2173   9.990   8.262   7.441 -2.4149 -0.2808 -0.3173
   16MOL0     H 2174  10.019   8.546   7.527  2.1688  0.9913 -1.7114
   16MOL0     H 2175  10.126   8.408   7.590  0.6260 -1.3049 -1.2849
   16MOL0     H 2176  10.093   8.461   7.301 -2.6167  3.0162  1.6501
   16MOL0     H 2177  10.233   8.383   7.386 -0.1926 -0.9571 -0.2134
   16MOL0     H 2178  10.165   8.675   7.416  0.2518 -0.3169  2.7638
   16MOL0     H 2179  10.265   8.614   7.287  0.2727  0.6087  1.1857
   16MOL0     H 2180  10.309   8.593   7.576  1.1211  3.1089  1.0106
   16MOL0     H 2181  10.412   8.499   7.461 -2.4317 -0.9671  0.7322
   16MOL0     H 2182  10.376   8.796   7.421 -2.3447 -1.7229 -1.1482
   16MOL0     H 2183  10.513   8.696   7.378  0.4874 -2.0031  1.1045
   16MOL0     H 2184  10.451   8.805   7.655  2.5974 -0.3535  1.8232
   16MOL0     H 2185  10.593   8.822   7.553  1.2231 -1.1660 -1.7305
   16MOL0     H 2186  10.522   8.550   7.654 -0.8633 -0.0500 -1.9752
   16MOL0     H 2187  10.611   8.661   7.760  0.0169 -2.4101  0.3696
   16MOL0     H 2188   9.666   8.599   7.348  0.1406 -1.1842 -0.4758
   16MOL0     H 2189   9.437   8.602   7.429 -0.5707 -0.7017 -0.7713
   16MOL0     H 2190   9.080   8.327   7.419 -1.4354 -2.6058 -0.0972
   16MOL0     H 2191   8.856   8.336   7.402 -2.6036  1.4457  1.1087
   16MOL0     H 2192   6.861   8.436   7.233 -1.3664 -0.2424 -0.8533
   16MOL0     H 2193   6.638   8.518   7.167 -0.1789  4.4719  0.0877
   16MOL0     H 2194   6.334   8.966   7.319  0.4706 -0.4003 -0.5934
   16MOL0     H 2195   6.129   9.062   7.239  0.8302 -0.2759 -3.0759
   16MOL0     H 2196   5.836   8.786   7.025  1.6172 -0.5726  0.5669
   16MOL0     H 2197   5.774   8.794   7.191  0.9452  0.8949  1.2223
   16MOL0     H 2198   5.652   8.991   7.168  0.5981 -1.5553  1.3714
   16MOL0     H 2199   5.615   8.880   7.038  2.6801 -2.5548 -0.0703
   16MOL0     H 2200   5.824   9.101   6.989  1.9638 -2.7892 -3.5267
   16MOL0     H 2201   5.732   9.018   6.871  0.5541  3.1048 -2.3912
   16MOL0     H 2202   5.510   9.115   6.996 -1.7882  0.6915 -1.4805
   16MOL0     H 2203   5.600   9.204   6.874 -0.0410 -2.7724 -0.6298
   16MOL0     H 2204   5.627   9.469   7.189  2.9147  1.3714 -2.0848
   16MOL0     H 2205   5.976   8.676   7.145 -0.9551  1.9073 -0.3956
   16MOL0     H 2206   6.268   8.513   7.145 -0.7571  0.2013 -2.2511
   16MOL0     H 2207   6.212   8.489   7.320 -0.8975  2.6689  1.1810
   16MOL0     H 2208   6.098   8.485   7.181  0.5234  0.7861 -0.6129
   17MOL0     O 2209   5.348   4.691   9.270  0.7119 -0.3164 -0.8096
   17MOL0     C 2210   5.309   4.736   9.161 -0.5765  0.3545  0.8440
   17MOL0     O 2211   5.379   4.729   9.045  0.0861 -0.0506  0.2103
   17MOL0     C 2212   5.507   4.671   9.037  0.4607 -0.1838 -0.0377
   17MOL0     C 2213   5.543   4.600   8.921  0.7008  0.3959 -0.3512
   17MOL0     C 2214   5.678   4.551   8.898 -1.0988 -0.5661  0.1492
   17MOL0     C 2215   5.776   4.590   8.989  0.2554  1.2249  0.3908
   17MOL0     O 2216   5.903   4.543   8.973  0.1034 -0.4070 -0.3244
   17MOL0     C 2217   5.934   4.464   8.862 -0.5803 -0.3193  0.3895
   17MOL0     C 2218   6.082   4.423   8.850 -0.3148  0.3174 -0.3955
   17MOL0     C 2219   6.131   4.334   8.965 -0.3847  0.1715  0.0327
   17MOL0     C 2220   6.279   4.320   8.941  0.2600  0.7162 -0.9194
   17MOL0     C 2221   6.334   4.221   9.052 -1.1457 -0.0287 -0.2524
   17MOL0     C 2222   6.479   4.175   9.018 -0.4245  1.4085  0.2620
   17MOL0     C 2223   6.499   4.035   9.073 -0.0294  0.1834  0.5708
   17MOL0     C 2224   6.496   4.028   9.225  1.0707 -0.5196  0.2430
   17MOL0     N 2225   6.610   4.086   9.286 -0.2486 -0.1076 -0.5960
   17MOL0     C 2226   6.723   4.014   9.311  0.2661 -0.3146  0.3057
   17MOL0     C 2227   6.807   4.107   9.367  0.0502  0.1618  0.5597
   17MOL0     C 2228   6.951   4.087   9.400 -0.1662 -0.5496  1.0212
   17MOL0     C 2229   6.972   4.044   9.543  0.8771 -0.7044 -0.0938
   17MOL0     C 2230   7.105   3.973   9.561  0.1225 -0.7396 -0.5470
   17MOL0     C 2231   7.169   3.992   9.700 -0.1080  0.9676 -0.0350
   17MOL0     O 2232   7.120   3.894   9.806 -0.0887 -0.5616  0.9303
   17MOL0     C 2233   7.153   3.935   9.932 -0.3559 -0.6479  0.0674
   17MOL0     C 2234   7.267   3.889   9.987  0.0966  0.4221  0.3002
   17MOL0     C 2235   7.313   3.925  10.115  0.6050  0.4321  0.7642
   17MOL0     C 2236   7.439   3.853  10.157  0.4842 -0.3816 -0.8831
   17MOL0     C 2237   7.233   4.018  10.189 -0.2808 -0.6126 -0.0955
   17MOL0     C 2238   7.267   4.073  10.326 -0.3308  0.4638  0.1115
   17MOL0     O 2239   7.163   4.150  10.389 -0.6968 -0.3216  0.1740
   17MOL0     C 2240   7.178   4.208  10.515 -0.1259 -0.2601 -0.0475
   17MOL0     C 2241   7.300   4.261  10.573  0.2534  0.0198  0.0261
   17MOL0     C 2242   7.301   4.297  10.707  0.0196 -0.8781  0.3450
   17MOL0     C 2243   7.191   4.287  10.793 -0.2444 -0.1038 -0.1379
   17MOL0     O 2244   7.190   4.324  10.927 -0.3742  0.2993 -0.1760
   17MOL0     C 2245   7.310   4.379  10.994  0.7632  0.2200  0.4761
   17MOL0     C 2246   7.276   4.379  11.147  1.3048 -0.0641  0.7641
   17MOL0     C 2247   7.409   4.417  11.218  0.6022  0.5855  1.0337
   17MOL0     C 2248   7.385   4.463  11.362  0.1798 -0.3850  0.8512
   17MOL0     C 2249   7.345   4.356  11.462 -0.5464  1.4020 -0.9539
   17MOL0     C 2250   7.314   4.427  11.592 -0.2246 -0.6555  0.4914
   17MOL0     C 2251   7.271   4.330  11.706 -0.5810  0.2871 -0.9566
   17MOL0     C 2252   7.396   4.257  11.758  0.4835 -0.0848 -0.4342
   17MOL0    Cl 2253   7.520   4.367  11.841  0.2256  0.0410  0.2293
   17MOL0     C 2254   7.068   4.249  10.731 -0.9624  0.8385 -0.0814
   17MOL0     C 2255   7.060   4.206  10.597  0.4763  0.4811  0.1887
   17MOL0     O 2256   7.375   4.044  10.377  0.2146 -0.1217 -0.7122
   17MOL0     C 2257   7.123   4.073  10.121  1.1728 -0.8418 -0.0544
   17MOL0     C 2258   7.079   4.032   9.999 -0.5250  0.1794  0.4060
   17MOL0     N 2259   6.746   4.228   9.367  0.1211 -0.7582 -0.1884
   17MOL0     N 2260   6.635   4.218   9.313  0.2172 -0.0108 -0.3898
   17MOL0     C 2261   5.747   4.676   9.092 -0.1017  0.0782  0.0211
   17MOL0     C 2262   5.612   4.703   9.122  0.4676  0.4320  0.1694
   17MOL0     C 2263   5.170   4.790   9.157 -0.4089  0.9997  0.6076
   17MOL0     C 2264   5.123   4.823   9.278 -0.4048 -0.2285  0.2195
   17MOL0     C 2265   5.001   4.883   9.296  0.2325  0.2266  0.5062
   17MOL0     C 2266   4.922   4.921   9.187 -0.5498  0.4560  0.2387
   17MOL0     O 2267   4.810   4.986   9.225  0.7915 -0.1295 -0.6352
   17MOL0     C 2268   4.707   5.027   9.133 -0.0781 -0.3644  0.1860
   17MOL0     C 2269   4.743   5.156   9.057  0.6016 -0.7014  0.0633
   17MOL0     C 2270   4.811   5.261   9.148  0.2453  0.1609 -0.2839
   17MOL0     C 2271   4.826   5.396   9.076 -0.9386 -0.2372  0.3779
   17MOL0     C 2272   4.932   5.472   9.147  0.5257  0.0034  1.3989
   17MOL0     C 2273   5.024   5.534   9.191 -0.0970 -0.0764 -0.3106
   17MOL0     C 2274   4.961   4.886   9.050  0.6266  0.2001 -0.3555
   17MOL0     C 2275   5.083   4.810   9.045 -0.4042 -0.2950  0.7688
   17MOL0     C 2276   5.114   4.738   8.925 -0.4828 -0.6030  0.1382
   17MOL0     H 2277   5.475   4.562   8.845  0.0439 -1.1146  0.9318
   17MOL0     H 2278   5.693   4.486   8.813 -0.4906  2.3302 -2.0836
   17MOL0     H 2279   5.917   4.528   8.775 -0.6776  0.1895  0.7757
   17MOL0     H 2280   5.874   4.373   8.866 -0.6113 -0.2732  1.0277
   17MOL0     H 2281   6.113   4.372   8.759 -0.7369  1.9189 -1.4765
   17MOL0     H 2282   6.145   4.512   8.842 -0.8005  0.9360  1.9733
   17MOL0     H 2283   6.110   4.360   9.070 -2.5369 -1.5827  0.0918
   17MOL0     H 2284   6.083   4.240   8.939  0.8923 -0.5974  0.4078
   17MOL0     H 2285   6.297   4.270   8.845  1.0912 -1.0845  0.1072
   17MOL0     H 2286   6.333   4.415   8.948 -1.2162  1.5790 -0.9297
   17MOL0     H 2287   6.265   4.136   9.057  1.5509 -2.3384  0.1337
   17MOL0     H 2288   6.333   4.270   9.149 -0.4299  1.6841 -1.0649
   17MOL0     H 2289   6.486   4.167   8.909  1.6203  0.1899  0.4275
   17MOL0     H 2290   6.559   4.249   9.032 -0.9687  3.0440 -3.8136
   17MOL0     H 2291   6.593   4.001   9.028  0.1149 -1.7986  2.2383
   17MOL0     H 2292   6.428   3.960   9.036 -1.5546  0.9231  1.8685
   17MOL0     H 2293   6.410   4.088   9.255  1.9799  1.3860 -0.8168
   17MOL0     H 2294   6.490   3.923   9.256  1.4117 -0.9268 -1.0108
   17MOL0     H 2295   6.748   3.910   9.290  1.3112  0.2191 -1.3178
   17MOL0     H 2296   7.016   4.171   9.372  0.9629 -1.1477  1.7616
   17MOL0     H 2297   6.979   4.000   9.339 -0.8161  0.4891 -0.8365
   17MOL0     H 2298   6.961   4.139   9.597  0.6648 -0.8183  0.0644
   17MOL0     H 2299   6.894   3.986   9.594 -0.5991 -1.4548 -3.0012
   17MOL0     H 2300   7.094   3.866   9.542 -0.5981 -1.2208  2.1729
   17MOL0     H 2301   7.173   4.023   9.491 -0.3989  0.0276 -0.5223
   17MOL0     H 2302   7.276   3.973   9.682 -0.0531  0.4936  0.7162
   17MOL0     H 2303   7.151   4.094   9.735  0.7215  1.4634 -0.9885
   17MOL0     H 2304   7.318   3.813   9.928 -0.7266 -0.6872  0.9889
   17MOL0     H 2305   7.428   3.833  10.264 -1.3116  2.2589 -0.5060
   17MOL0     H 2306   7.534   3.909  10.158 -0.3806  1.1299 -0.6284
   17MOL0     H 2307   7.443   3.756  10.107 -0.5374 -1.5222  1.1394
   17MOL0     H 2308   7.395   4.243  10.523  0.0766 -0.8434 -0.0182
   17MOL0     H 2309   7.400   4.316  10.744  0.9882 -0.2553 -2.3184
   17MOL0     H 2310   7.392   4.310  10.973 -0.0810 -0.9295  0.8603
   17MOL0     H 2311   7.327   4.479  10.954 -1.9759  0.3642 -0.5526
   17MOL0     H 2312   7.189   4.442  11.171  0.6793 -0.5294 -0.2244
   17MOL0     H 2313   7.251   4.278  11.179  0.3940 -0.0330  0.2015
   17MOL0     H 2314   7.456   4.503  11.171 -1.2675  2.7521  2.8714
   17MOL0     H 2315   7.471   4.327  11.224 -0.3305  0.0195  2.9651
   17MOL0     H 2316   7.317   4.548  11.367  1.7260  0.9676  0.0551
   17MOL0     H 2317   7.485   4.500  11.389  0.2710 -0.4635  0.6218
   17MOL0     H 2318   7.255   4.297  11.440  1.4443 -2.5894  0.5579
   17MOL0     H 2319   7.429   4.286  11.466 -0.8643  1.0038 -1.0798
   17MOL0     H 2320   7.230   4.494  11.571 -1.4859 -1.9956  1.0611
   17MOL0     H 2321   7.406   4.483  11.613 -0.8336  0.8684 -0.7048
   17MOL0     H 2322   7.192   4.261  11.676 -0.9979 -0.1455  0.9798
   17MOL0     H 2323   7.227   4.395  11.782  1.5066  1.6448 -0.8179
   17MOL0     H 2324   7.443   4.192  11.685  1.8575  0.3381  0.0479
   17MOL0     H 2325   7.353   4.187  11.830 -1.3546  1.2271 -0.1668
   17MOL0     H 2326   6.979   4.230  10.790 -0.8837 -1.6023 -0.6088
   17MOL0     H 2327   6.969   4.158  10.561 -0.7237  2.0890  0.9436
   17MOL0     H 2328   7.072   4.161  10.160  1.8508 -0.2772 -0.4212
   17MOL0     H 2329   6.992   4.078   9.953  0.0830 -0.1679 -1.1520
   17MOL0     H 2330   5.829   4.705   9.157 -0.6654 -0.5505  1.0446
   17MOL0     H 2331   5.594   4.770   9.206  1.5145  0.1044  0.6698
   17MOL0     H 2332   5.193   4.821   9.361  1.6481  2.3024 -1.2830
   17MOL0     H 2333   4.962   4.901   9.396  1.0447  0.5996  0.7661
   17MOL0     H 2334   4.681   4.944   9.067  1.5266 -0.4695 -0.3566
   17MOL0     H 2335   4.617   5.035   9.195 -0.4232  0.1498 -0.3717
   17MOL0     H 2336   4.657   5.200   9.007  1.2750 -1.2069 -1.6428
   17MOL0     H 2337   4.818   5.141   8.978 -0.4949  1.7467 -1.5436
   17MOL0     H 2338   4.743   5.274   9.232 -0.2541 -1.5822 -0.3717
   17MOL0     H 2339   4.908   5.230   9.188  1.2001  3.6537  0.3788
   17MOL0     H 2340   4.738   5.460   9.066  0.2806  1.2665 -1.4809
   17MOL0     H 2341   4.859   5.381   8.973 -0.6192  0.6842  0.3356
   17MOL0     H 2342   5.112   5.579   9.233 -1.8507  1.4870  1.8717
   17MOL0     H 2343   4.890   4.896   8.969  0.7929  4.3572 -0.1809
   17MOL0     H 2344   5.175   4.649   8.943 -0.9195 -1.1121 -0.8186
   17MOL0     H 2345   5.026   4.693   8.878 -0.6574 -0.7051  0.5586
   17MOL0     H 2346   5.164   4.802   8.852 -1.5087 -1.2439 -1.1574
   18MOL0     O 2347   3.304   2.630   8.977  0.1023 -0.2541  0.7059
   18MOL0     C 2348   3.223   2.568   8.901 -0.7085 -0.4403 -0.5920
   18MOL0     O 2349   3.221   2.429   8.877 -0.2407 -1.2137 -0.4123
   18MOL0     C 2350   3.330   2.369   8.912 -0.1406 -0.3188  0.5138
   18MOL0     C 2351   3.429   2.395   8.824  0.1031  1.3247 -0.2957
   18MOL0     C 2352   3.554   2.337   8.845  0.0105  0.0451  0.3181
   18MOL0     C 2353   3.585   2.264   8.956  0.0770  0.1573 -0.4177
   18MOL0     O 2354   3.713   2.216   8.972  0.1997  0.1208 -0.0629
   18MOL0     C 2355   3.753   2.123   9.076  0.1362  0.0016  0.1444
   18MOL0     C 2356   3.893   2.071   9.060 -0.2243 -0.5162  0.5099
   18MOL0     C 2357   3.901   1.946   8.969  0.4001 -0.6913  0.1693
   18MOL0     C 2358   4.026   1.856   8.982 -0.2326  0.5235  0.0632
   18MOL0     C 2359   4.159   1.936   8.951 -0.8599 -0.2846  0.4221
   18MOL0     C 2360   4.278   1.846   8.975  0.1647 -0.5812  0.2391
   18MOL0     C 2361   4.417   1.912   8.946  0.6920 -0.3256 -0.2393
   18MOL0     C 2362   4.519   1.795   8.961  0.6889 -0.2137 -0.2630
   18MOL0     N 2363   4.653   1.847   8.924  0.1685  0.4233  0.0272
   18MOL0     C 2364   4.708   1.841   8.799  0.0162 -0.0679  0.7032
   18MOL0     C 2365   4.819   1.918   8.809 -0.2024 -0.3686 -0.4667
   18MOL0     C 2366   4.921   1.957   8.705  0.6152 -0.0877  0.8350
   18MOL0     C 2367   5.048   2.008   8.767  0.2211 -0.1882  1.1502
   18MOL0     C 2368   5.129   2.087   8.656  0.1395 -0.2683  0.6243
   18MOL0     C 2369   5.276   2.113   8.681 -0.6622  0.5167 -0.3054
   18MOL0     O 2370   5.333   1.982   8.703  0.7266 -0.0160  0.2587
   18MOL0     C 2371   5.460   1.961   8.738  0.1651 -0.5992 -0.4201
   18MOL0     C 2372   5.532   2.055   8.807 -0.6193 -0.5741  0.3753
   18MOL0     C 2373   5.662   2.036   8.849 -0.8727  0.1933 -0.2836
   18MOL0     C 2374   5.734   2.149   8.924 -0.9053 -0.2476 -0.1161
   18MOL0     C 2375   5.718   1.909   8.832 -0.5308 -0.8451  0.3178
   18MOL0     C 2376   5.858   1.869   8.877 -0.7393 -0.0616  0.1505
   18MOL0     O 2377   5.899   1.739   8.847 -0.2061 -0.5580 -0.0281
   18MOL0     C 2378   6.022   1.697   8.864  0.0109  0.0664 -0.4309
   18MOL0     C 2379   6.053   1.575   8.922  0.1327 -0.4378 -0.7576
   18MOL0     C 2380   6.187   1.517   8.931 -0.1882  0.2694 -0.0336
   18MOL0     C 2381   6.284   1.604   8.880 -0.3237  0.5235 -0.4347
   18MOL0     O 2382   6.417   1.553   8.881  0.6133  0.4025 -0.3386
   18MOL0     C 2383   6.484   1.552   9.013  0.3394 -0.7102  0.4265
   18MOL0     C 2384   6.635   1.534   8.992 -0.0920 -0.2240  0.3151
   18MOL0     C 2385   6.713   1.530   9.128 -0.7558 -0.1388 -0.0835
   18MOL0     C 2386   6.864   1.563   9.107 -0.6133  0.0714  0.2946
   18MOL0     C 2387   6.937   1.594   9.238  0.5571 -0.1212 -0.6249
   18MOL0     C 2388   7.083   1.598   9.217 -0.6141  0.6464 -0.0657
   18MOL0     C 2389   7.151   1.647   9.346  0.0416  0.5753 -0.2060
   18MOL0     C 2390   7.304   1.637   9.347 -0.3948 -0.0783 -0.5341
   18MOL0    Cl 2391   7.354   1.766   9.463  0.4232 -0.3952 -0.0785
   18MOL0     C 2392   6.261   1.726   8.818  0.5441  0.0509 -0.0411
   18MOL0     C 2393   6.129   1.772   8.803  0.3976 -0.5631 -0.0813
   18MOL0     O 2394   5.922   1.943   8.946 -0.3658 -0.9424 -0.2510
   18MOL0     C 2395   5.642   1.811   8.764 -0.5175  0.5451 -0.1705
   18MOL0     C 2396   5.515   1.840   8.713 -0.4493 -0.2349  1.2855
   18MOL0     N 2397   4.829   1.950   8.947 -0.6470 -0.7543  0.0824
   18MOL0     N 2398   4.732   1.915   9.014 -0.1382  0.5967  0.5839
   18MOL0     C 2399   3.483   2.244   9.055  0.0600 -0.1613  0.4167
   18MOL0     C 2400   3.356   2.301   9.027  0.3064  0.4541 -0.6113
   18MOL0     C 2401   3.104   2.649   8.848 -0.6689  0.2148 -0.0573
   18MOL0     C 2402   3.002   2.571   8.792  0.1405  0.1615 -1.0280
   18MOL0     C 2403   2.885   2.620   8.733  0.1668  0.4302 -0.3001
   18MOL0     C 2404   2.867   2.760   8.722  0.0002  0.7878  1.2028
   18MOL0     O 2405   2.762   2.811   8.652  0.1069  0.1740  0.1631
   18MOL0     C 2406   2.682   2.898   8.732 -0.1052 -0.7652  0.0558
   18MOL0     C 2407   2.537   2.880   8.706  0.5078 -0.0041 -0.9685
   18MOL0     C 2408   2.500   2.895   8.560  0.2685  0.4071 -0.0732
   18MOL0     C 2409   2.350   2.931   8.539  0.2212  0.3037  0.6196
   18MOL0     C 2410   2.328   2.962   8.399  0.8257 -0.3136  0.0707
   18MOL0     C 2411   2.319   2.986   8.277  0.0654 -0.5025 -0.2628
   18MOL0     C 2412   2.972   2.839   8.775 -0.2903 -0.4080 -0.2773
   18MOL0     C 2413   3.088   2.786   8.846  0.6897 -1.8425 -0.8381
   18MOL0     C 2414   3.187   2.880   8.919 -0.9571 -0.3198  0.4816
   18MOL0     H 2415   3.405   2.459   8.740 -2.2850  0.3979 -0.3860
   18MOL0     H 2416   3.633   2.338   8.771  0.7305 -0.7264  1.0483
   18MOL0     H 2417   3.689   2.034   9.073  1.4042 -0.9159 -1.1279
   18MOL0     H 2418   3.732   2.171   9.171  0.3908  0.5180 -0.0570
   18MOL0     H 2419   3.968   2.144   9.028 -1.6943  0.1632 -1.6271
   18MOL0     H 2420   3.915   2.042   9.163  1.0073 -0.2612  0.3311
   18MOL0     H 2421   3.815   1.884   8.995 -0.1825 -0.1228 -0.3686
   18MOL0     H 2422   3.892   1.978   8.865  1.7295  0.1210  0.2868
   18MOL0     H 2423   4.036   1.824   9.086  0.8328  1.2141  0.1833
   18MOL0     H 2424   4.029   1.763   8.925  2.1434 -0.7070  2.0293
   18MOL0     H 2425   4.168   2.029   9.009 -2.8031 -0.0163  0.3665
   18MOL0     H 2426   4.156   1.978   8.850  2.8021  0.8450  0.6408
   18MOL0     H 2427   4.265   1.817   9.080 -1.3677 -1.0408 -0.0495
   18MOL0     H 2428   4.264   1.763   8.905 -1.8660 -2.9004  3.1212
   18MOL0     H 2429   4.438   1.986   9.023  0.2957 -0.4575  0.0008
   18MOL0     H 2430   4.408   1.947   8.842  0.1087 -1.4825 -0.6033
   18MOL0     H 2431   4.515   1.756   9.063 -0.7224  1.6755  0.4620
   18MOL0     H 2432   4.500   1.710   8.895  1.6581  0.8966 -2.0677
   18MOL0     H 2433   4.689   1.779   8.713  2.4913 -0.6497  0.4845
   18MOL0     H 2434   4.875   2.037   8.647  2.5291  0.1496 -0.4242
   18MOL0     H 2435   4.927   1.879   8.629 -3.0758  0.0198  0.2388
   18MOL0     H 2436   5.025   2.080   8.846 -1.3070 -0.6304  1.1417
   18MOL0     H 2437   5.110   1.928   8.808  1.0668  1.2578  2.8202
   18MOL0     H 2438   5.124   2.029   8.563  2.1728  0.8742 -0.2506
   18MOL0     H 2439   5.081   2.183   8.636  0.3912 -0.2349  0.1597
   18MOL0     H 2440   5.324   2.165   8.597  0.5836  1.1840  0.7817
   18MOL0     H 2441   5.283   2.177   8.770  0.3738  0.5664 -0.4039
   18MOL0     H 2442   5.489   2.153   8.826 -2.0174 -0.8261 -1.3056
   18MOL0     H 2443   5.729   2.136   9.033 -0.2442 -0.5031 -0.1128
   18MOL0     H 2444   5.686   2.244   8.899 -2.6997 -1.0744  0.0034
   18MOL0     H 2445   5.839   2.153   8.895 -1.2045  0.9633 -1.0948
   18MOL0     H 2446   5.967   1.528   8.968 -0.9125  0.6937 -1.4729
   18MOL0     H 2447   6.211   1.423   8.978 -2.1516  0.2517  1.0411
   18MOL0     H 2448   6.473   1.652   9.056  1.5895  0.2734 -1.4458
   18MOL0     H 2449   6.449   1.473   9.081  2.5822 -0.1787  2.3145
   18MOL0     H 2450   6.658   1.440   8.941 -1.2687 -2.2634  3.2446
   18MOL0     H 2451   6.659   1.617   8.925  1.5811  0.1482  1.3301
   18MOL0     H 2452   6.695   1.428   9.164 -1.8937 -0.7598 -2.2162
   18MOL0     H 2453   6.663   1.613   9.180  4.3729  3.8901 -0.8093
   18MOL0     H 2454   6.876   1.649   9.041  0.0978  1.8453  2.6118
   18MOL0     H 2455   6.909   1.475   9.060 -1.4965 -0.8513  1.1344
   18MOL0     H 2456   6.895   1.689   9.271 -0.0920  0.4850 -2.9838
   18MOL0     H 2457   6.917   1.515   9.311 -2.7088  1.2001  0.0791
   18MOL0     H 2458   7.113   1.668   9.138  0.7514  0.2597  0.0823
   18MOL0     H 2459   7.122   1.498   9.195  1.4406  1.4407 -0.2383
   18MOL0     H 2460   7.107   1.589   9.427 -2.6897 -0.7393 -2.4689
   18MOL0     H 2461   7.123   1.752   9.363  0.5845  0.7097 -0.1138
   18MOL0     H 2462   7.351   1.652   9.250  2.1669  0.5195  0.7135
   18MOL0     H 2463   7.342   1.541   9.385  0.4349  0.0942 -0.9172
   18MOL0     H 2464   6.342   1.783   8.775 -0.0222  0.0326 -1.1582
   18MOL0     H 2465   6.103   1.869   8.762 -0.2386 -0.9554 -0.6127
   18MOL0     H 2466   5.673   1.707   8.766  0.4989  0.7514 -2.3582
   18MOL0     H 2467   5.448   1.760   8.682 -0.0409 -0.6890  1.5599
   18MOL0     H 2468   3.509   2.180   9.138  1.0270 -3.1182 -2.0003
   18MOL0     H 2469   3.271   2.293   9.094  2.4974  1.9728  2.5722
   18MOL0     H 2470   3.007   2.463   8.792  1.3020  0.1502  1.0784
   18MOL0     H 2471   2.811   2.549   8.698 -2.2228  1.6962  1.8225
   18MOL0     H 2472   2.702   2.894   8.840  0.7987  1.8224  0.0625
   18MOL0     H 2473   2.714   3.000   8.711  1.1936 -1.4392 -1.4918
   18MOL0     H 2474   2.472   2.948   8.761 -3.9960 -5.1985  0.9931
   18MOL0     H 2475   2.501   2.783   8.741 -0.4838  1.2109  1.6477
   18MOL0     H 2476   2.568   2.971   8.519 -2.3516  1.3539 -3.0575
   18MOL0     H 2477   2.527   2.799   8.517 -1.7172 -0.4568  0.4968
   18MOL0     H 2478   2.314   3.017   8.595  1.0230 -0.1574  1.8962
   18MOL0     H 2479   2.293   2.840   8.564 -0.7872  0.3284 -1.3767
   18MOL0     H 2480   2.321   3.002   8.171 -1.1427 -1.0452 -0.3780
   18MOL0     H 2481   2.941   2.943   8.770  2.2911  0.3813 -1.6932
   18MOL0     H 2482   3.193   2.837   9.020  1.7439  0.5389  0.7648
   18MOL0     H 2483   3.282   2.877   8.866 -1.2249 -0.1003 -0.0159
   18MOL0     H 2484   3.155   2.985   8.922 -1.5173 -0.5069  2.0529
   19MOL0     O 2485   8.402   0.925   6.170  0.1308 -0.1320  0.5410
   19MOL0     C 2486   8.404   1.037   6.111  0.0370 -0.1735 -0.5386
   19MOL0     O 2487   8.495   1.073   6.016 -0.0954  0.0863  0.5469
   19MOL0     C 2488   8.606   0.997   5.991  0.4302  0.1046 -0.0795
   19MOL0     C 2489   8.728   1.014   6.056  0.2047  0.0352  0.5279
   19MOL0     C 2490   8.832   0.922   6.032 -0.4121  0.3143 -1.0337
   19MOL0     C 2491   8.817   0.815   5.952 -0.1885  0.7920 -0.5106
   19MOL0     O 2492   8.932   0.736   5.941  0.6923 -0.6530  0.0381
   19MOL0     C 2493   8.979   0.698   5.821  0.2790  0.6006 -0.1794
   19MOL0     C 2494   9.129   0.702   5.831 -0.4687  0.5017  0.4576
   19MOL0     C 2495   9.175   0.842   5.776  0.9960 -0.2268 -0.4512
   19MOL0     C 2496   9.317   0.876   5.782 -0.0239  0.6518  0.1004
   19MOL0     C 2497   9.348   1.022   5.789  0.0091  0.2737 -0.3560
   19MOL0     C 2498   9.483   1.057   5.729  0.1665 -0.3297  0.4922
   19MOL0     C 2499   9.529   1.202   5.739  0.2119 -0.3166  1.0579
   19MOL0     C 2500   9.427   1.309   5.689  0.1252  0.4178  0.0718
   19MOL0     N 2501   9.487   1.447   5.692  0.6783  0.8086  0.1178
   19MOL0     C 2502   9.487   1.539   5.790 -0.6328  0.5359 -0.2946
   19MOL0     C 2503   9.567   1.641   5.751 -0.1912 -0.2655  0.0138
   19MOL0     C 2504   9.607   1.773   5.814  0.7270  0.0620 -0.5183
   19MOL0     C 2505   9.733   1.765   5.902 -0.1456 -0.8385  0.0195
   19MOL0     C 2506   9.806   1.896   5.911  0.7054 -0.0500  0.0585
   19MOL0     C 2507   9.900   1.899   6.035 -0.7384 -0.0135  0.7184
   19MOL0     O 2508  10.008   1.805   6.033  0.0853  0.1335 -0.2445
   19MOL0     C 2509  10.131   1.850   5.984  0.5495 -0.2699  0.0814
   19MOL0     C 2510  10.160   1.943   5.884 -0.1993 -0.4314  0.2449
   19MOL0     C 2511  10.292   1.962   5.831  0.3714  0.4347  0.5088
   19MOL0     C 2512  10.295   2.057   5.717  0.0145  0.7095 -1.1670
   19MOL0     C 2513  10.398   1.893   5.896  0.0741  0.2955  0.4624
   19MOL0     C 2514  10.547   1.890   5.852  0.8094 -0.0142 -0.9470
   19MOL0     O 2515  10.637   1.794   5.894  0.3683  0.3790 -0.7162
   19MOL0     C 2516  10.769   1.817   5.891  0.8180 -0.5929 -0.3875
   19MOL0     C 2517  10.818   1.842   5.759 -0.0253  0.0734 -0.4753
   19MOL0     C 2518  10.949   1.865   5.735 -0.0277 -0.0993 -0.4662
   19MOL0     C 2519  11.035   1.860   5.839 -0.4064  0.1059 -0.4610
   19MOL0     O 2520  11.168   1.873   5.798  0.8705  0.6244  0.1507
   19MOL0     C 2521  11.266   1.880   5.899  0.2937 -0.1469  0.4050
   19MOL0     C 2522  11.403   1.932   5.844 -0.6115 -0.0005  0.5927
   19MOL0     C 2523  11.513   1.901   5.949 -0.1146  0.0420  0.4784
   19MOL0     C 2524  11.654   1.916   5.893  0.3735 -0.0724 -0.3072
   19MOL0     C 2525  11.753   1.887   6.005 -0.6724 -0.5048 -0.3119
   19MOL0     C 2526  11.898   1.925   5.959 -0.5129  0.4463  0.3696
   19MOL0     C 2527  12.000   1.863   6.050 -1.1816  0.5690 -0.0258
   19MOL0     C 2528  12.140   1.900   6.006 -0.0441 -0.2967 -0.3912
   19MOL0    Cl 2529  12.215   1.800   5.876  0.3928  0.4378 -0.2720
   19MOL0     C 2530  10.987   1.840   5.971 -0.2411 -0.3782 -0.1867
   19MOL0     C 2531  10.851   1.813   5.997 -0.5234 -0.2156 -0.2496
   19MOL0     O 2532  10.577   2.002   5.817 -0.2506  0.0073 -0.4653
   19MOL0     C 2533  10.366   1.800   6.000 -0.2917  0.6007  0.4638
   19MOL0     C 2534  10.238   1.780   6.040  0.7283 -0.2358 -0.0010
   19MOL0     N 2535   9.614   1.613   5.632 -0.6946 -0.1377 -0.0645
   19MOL0     N 2536   9.561   1.504   5.594  0.4975  0.4772 -0.2307
   19MOL0     C 2537   8.693   0.796   5.886 -0.0421  0.0360 -0.0376
   19MOL0     C 2538   8.591   0.885   5.913 -0.8487  0.3345  1.2603
   19MOL0     C 2539   8.298   1.129   6.148 -0.5341 -1.2647  1.2729
   19MOL0     C 2540   8.270   1.159   6.282 -0.5978 -0.0422  0.0574
   19MOL0     C 2541   8.163   1.245   6.319 -0.6757 -1.0206  0.4040
   19MOL0     C 2542   8.085   1.303   6.219 -0.7233  0.4525  0.2193
   19MOL0     O 2543   7.972   1.372   6.264 -0.2353 -0.1983  0.5401
   19MOL0     C 2544   7.897   1.450   6.170  0.5046 -0.1803 -0.3808
   19MOL0     C 2545   7.774   1.509   6.237 -0.0584 -0.4564 -0.6109
   19MOL0     C 2546   7.801   1.581   6.368 -0.5613 -0.2709 -0.3745
   19MOL0     C 2547   7.670   1.632   6.439 -0.3770 -0.0277  0.5522
   19MOL0     C 2548   7.575   1.525   6.464  0.3151 -0.5278  1.4798
   19MOL0     C 2549   7.485   1.442   6.460  0.0122  0.5281 -0.5443
   19MOL0     C 2550   8.103   1.272   6.080 -0.6935  0.3189  0.4408
   19MOL0     C 2551   8.204   1.182   6.051 -0.4563 -0.7280  0.2134
   19MOL0     C 2552   8.216   1.129   5.912 -0.0137 -0.1702  0.2380
   19MOL0     H 2553   8.744   1.107   6.110 -1.2928  2.5122 -2.9166
   19MOL0     H 2554   8.929   0.947   6.072 -1.5299  3.0969  0.2684
   19MOL0     H 2555   8.943   0.756   5.735 -0.6168 -0.4882 -0.5623
   19MOL0     H 2556   8.946   0.594   5.811 -1.3083  1.0334  0.1471
   19MOL0     H 2557   9.161   0.691   5.935 -1.9520  1.2883  1.0285
   19MOL0     H 2558   9.165   0.620   5.769 -2.0429  1.1165 -1.3500
   19MOL0     H 2559   9.141   0.855   5.673  1.7856 -0.1893 -0.7129
   19MOL0     H 2560   9.127   0.910   5.847 -0.0630 -1.9740  0.5835
   19MOL0     H 2561   9.352   0.828   5.874 -0.8451 -1.4804 -0.6340
   19MOL0     H 2562   9.361   0.826   5.695 -1.0396 -0.6046  0.2825
   19MOL0     H 2563   9.346   1.054   5.894  2.4898 -1.6306  0.3484
   19MOL0     H 2564   9.265   1.071   5.736  1.2608  0.9341 -1.7830
   19MOL0     H 2565   9.560   1.000   5.782 -0.4127  0.2764  2.0449
   19MOL0     H 2566   9.483   1.030   5.623 -1.0891 -0.2996  0.4787
   19MOL0     H 2567   9.624   1.189   5.686  0.0199 -2.6522  1.1986
   19MOL0     H 2568   9.552   1.232   5.842  1.2521  1.9862  0.2237
   19MOL0     H 2569   9.395   1.282   5.588 -0.6796 -0.6529  0.5960
   19MOL0     H 2570   9.337   1.312   5.751 -0.4865 -0.2890 -0.7526
   19MOL0     H 2571   9.430   1.524   5.881 -1.3021  2.6970 -0.3226
   19MOL0     H 2572   9.523   1.825   5.862  0.7167  0.3689 -0.8681
   19MOL0     H 2573   9.636   1.842   5.735  1.5333  1.4586  0.9477
   19MOL0     H 2574   9.698   1.722   5.996 -1.0638 -2.2933 -0.9380
   19MOL0     H 2575   9.801   1.687   5.865  0.1870 -1.9951  2.8292
   19MOL0     H 2576   9.859   1.928   5.820  0.9298  1.2829  0.6225
   19MOL0     H 2577   9.727   1.971   5.922 -0.9752 -1.6725 -0.5289
   19MOL0     H 2578   9.943   1.998   6.051 -1.4772  0.4678 -0.2179
   19MOL0     H 2579   9.844   1.872   6.125 -0.4540  2.1797  1.6179
   19MOL0     H 2580  10.074   1.984   5.831  2.2103 -0.6067 -4.2209
   19MOL0     H 2581  10.392   2.041   5.668  0.3401 -0.8781 -0.0846
   19MOL0     H 2582  10.283   2.151   5.772 -1.6544 -1.1304  1.8905
   19MOL0     H 2583  10.210   2.049   5.649 -1.0601  1.2894  0.0516
   19MOL0     H 2584  10.754   1.833   5.672 -1.3769 -0.0044  0.5068
   19MOL0     H 2585  10.998   1.885   5.641  0.3839 -0.5441 -0.3566
   19MOL0     H 2586  11.239   1.962   5.966  0.4889  0.3551 -0.1213
   19MOL0     H 2587  11.268   1.784   5.952  0.6620  0.3019  1.2194
   19MOL0     H 2588  11.416   1.873   5.753  0.7349 -1.8302  1.9059
   19MOL0     H 2589  11.399   2.034   5.805 -0.1751  0.9283  2.7783
   19MOL0     H 2590  11.490   1.801   5.987 -1.0315  0.8227  2.0880
   19MOL0     H 2591  11.509   1.965   6.037 -0.7347  0.2760  0.2877
   19MOL0     H 2592  11.672   2.017   5.856 -1.1829  0.4407  0.2683
   19MOL0     H 2593  11.675   1.847   5.811  0.5703  0.9195 -1.1003
   19MOL0     H 2594  11.727   1.945   6.094 -0.2627 -0.2810 -0.3377
   19MOL0     H 2595  11.753   1.781   6.032  1.3573 -0.9049 -1.6940
   19MOL0     H 2596  11.904   2.034   5.961  0.0335  0.4171  0.5699
   19MOL0     H 2597  11.914   1.887   5.858 -1.1393 -0.0690  0.4603
   19MOL0     H 2598  11.993   1.753   6.050  0.6026  0.3918  1.8888
   19MOL0     H 2599  11.989   1.892   6.155  2.7747  0.5883  0.5038
   19MOL0     H 2600  12.202   1.888   6.095 -2.4805  2.0629  1.8187
   19MOL0     H 2601  12.141   2.003   5.971 -2.2181 -0.1912 -0.2727
   19MOL0     H 2602  11.058   1.835   6.054 -2.6616 -1.4461  1.9357
   19MOL0     H 2603  10.811   1.806   6.098 -1.9256 -1.4945 -0.8531
   19MOL0     H 2604  10.439   1.735   6.046 -0.5699 -0.0473 -0.0050
   19MOL0     H 2605  10.220   1.713   6.124 -0.6499 -0.6212 -0.5733
   19MOL0     H 2606   8.675   0.700   5.838 -1.0399  1.8245 -3.5211
   19MOL0     H 2607   8.489   0.857   5.889 -1.0926  3.1524 -1.6993
   19MOL0     H 2608   8.330   1.122   6.365 -0.9771 -0.5026  0.1336
   19MOL0     H 2609   8.144   1.267   6.424 -2.6967 -0.8595  0.0517
   19MOL0     H 2610   7.966   1.531   6.143  1.3372 -0.0889  1.8308
   19MOL0     H 2611   7.856   1.388   6.090 -1.9510  0.1749  0.5147
   19MOL0     H 2612   7.710   1.425   6.265 -0.3658  0.2692  0.9379
   19MOL0     H 2613   7.720   1.579   6.172  0.4641 -0.0954 -0.6579
   19MOL0     H 2614   7.865   1.517   6.429  0.7407 -0.3400 -1.7705
   19MOL0     H 2615   7.855   1.672   6.340 -1.5725  0.8158  1.0454
   19MOL0     H 2616   7.636   1.713   6.374 -0.2011  1.5580  2.3291
   19MOL0     H 2617   7.688   1.676   6.538 -2.8267 -0.0060  1.0450
   19MOL0     H 2618   7.409   1.367   6.451 -1.0306  0.7440  4.1710
   19MOL0     H 2619   8.040   1.298   5.995  1.2899  1.4452 -0.7636
   19MOL0     H 2620   8.320   1.130   5.877  0.9356 -0.5367  2.8613
   19MOL0     H 2621   8.187   1.024   5.901 -1.5056  0.2837 -0.5230
   19MOL0     H 2622   8.163   1.185   5.835 -0.3758 -1.6943 -0.6721
   20MOL0     O 2623   5.296   5.162   5.263  0.4086  0.2332  0.6016
   20MOL0     C 2624   5.275   5.279   5.300  1.3094 -0.5641 -0.2237
   20MOL0     O 2625   5.371   5.372   5.314  0.6186  0.6840 -0.2185
   20MOL0     C 2626   5.507   5.341   5.304 -0.6608  0.5603  0.2590
   20MOL0     C 2627   5.585   5.399   5.211 -1.0446 -0.6194 -0.2345
   20MOL0     C 2628   5.724   5.371   5.200 -0.0765  0.4448 -0.4673
   20MOL0     C 2629   5.786   5.284   5.288 -0.3222  0.4617  0.4604
   20MOL0     O 2630   5.920   5.230   5.273  0.6006  0.1339 -0.1701
   20MOL0     C 2631   6.016   5.271   5.169  0.4861 -0.4382 -0.2331
   20MOL0     C 2632   6.098   5.143   5.154 -0.8095  0.5235  0.2081
   20MOL0     C 2633   6.237   5.166   5.096  0.4823  0.6974  0.3757
   20MOL0     C 2634   6.221   5.245   4.965 -0.5872  0.0142  0.1675
   20MOL0     C 2635   6.357   5.257   4.896 -0.6541 -0.4261  0.4017
   20MOL0     C 2636   6.343   5.335   4.765  0.5669  0.8988 -0.4301
   20MOL0     C 2637   6.476   5.402   4.721 -0.9352 -0.6776  0.3054
   20MOL0     C 2638   6.487   5.546   4.786 -0.2806 -0.1618 -0.1062
   20MOL0     N 2639   6.627   5.596   4.775 -0.3467  0.6509 -0.6971
   20MOL0     C 2640   6.719   5.628   4.874 -0.0118 -0.5740 -0.0870
   20MOL0     C 2641   6.823   5.669   4.796  0.2031  0.0232 -0.0277
   20MOL0     C 2642   6.944   5.737   4.867 -0.1880  0.7987  0.0273
   20MOL0     C 2643   6.930   5.888   4.875 -0.5243 -0.2497 -0.0493
   20MOL0     C 2644   6.978   5.926   5.017  0.3695 -0.4413  0.5423
   20MOL0     C 2645   6.940   6.076   5.051 -0.1036 -0.0008  0.8008
   20MOL0     O 2646   7.014   6.125   5.159  1.0772  0.3334 -0.1013
   20MOL0     C 2647   7.140   6.174   5.144  0.1650 -0.5801 -0.6714
   20MOL0     C 2648   7.211   6.183   5.021  0.7533  0.6157 -0.6864
   20MOL0     C 2649   7.343   6.236   5.017  0.6706 -0.2967 -0.5642
   20MOL0     C 2650   7.425   6.225   4.883  0.1074 -0.9272  0.0362
   20MOL0     C 2651   7.395   6.289   5.142 -0.4410 -0.8369  0.2191
   20MOL0     C 2652   7.532   6.342   5.147 -0.4426 -0.2379  0.0455
   20MOL0     O 2653   7.548   6.441   5.244 -0.2024 -0.5181 -0.4845
   20MOL0     C 2654   7.665   6.511   5.273 -0.2948 -0.2499 -0.5047
   20MOL0     C 2655   7.796   6.458   5.243  1.3425 -0.2384  0.6639
   20MOL0     C 2656   7.906   6.543   5.253  1.6866  0.5637  0.3441
   20MOL0     C 2657   7.896   6.673   5.296  0.1570 -0.2543 -0.6367
   20MOL0     O 2658   8.018   6.743   5.288 -0.0350 -0.4066  0.4174
   20MOL0     C 2659   8.039   6.863   5.359  0.1153 -0.0268 -0.0861
   20MOL0     C 2660   8.182   6.872   5.412  0.5599  1.0615 -0.5976
   20MOL0     C 2661   8.281   6.919   5.304 -0.0336  0.4940  0.4172
   20MOL0     C 2662   8.428   6.916   5.357  0.3947 -0.6508  1.4357
   20MOL0     C 2663   8.517   6.960   5.243  0.9091 -0.2246  0.0155
   20MOL0     C 2664   8.667   6.950   5.276  0.3241  1.0308 -0.3029
   20MOL0     C 2665   8.749   6.974   5.153  0.9582 -0.8111  0.2263
   20MOL0     C 2666   8.901   6.993   5.171 -0.9780  0.2803  0.1138
   20MOL0    Cl 2667   8.943   7.148   5.263  0.2058 -0.1280 -0.0267
   20MOL0     C 2668   7.767   6.729   5.324 -0.3719 -0.8474  0.5872
   20MOL0     C 2669   7.657   6.646   5.313 -0.8371  0.1806  0.0521
   20MOL0     O 2670   7.618   6.295   5.073 -0.0279  0.1664 -0.3394
   20MOL0     C 2671   7.318   6.279   5.261 -0.2308  0.0812 -0.3542
   20MOL0     C 2672   7.195   6.229   5.260  0.4508  0.5649  0.9757
   20MOL0     N 2673   6.798   5.660   4.661 -0.0248  0.0390  0.0797
   20MOL0     N 2674   6.678   5.611   4.650  0.8092 -0.2208  0.3286
   20MOL0     C 2675   5.707   5.215   5.380 -0.8130 -0.5314 -0.0750
   20MOL0     C 2676   5.570   5.252   5.395  0.1301 -0.5940  0.3958
   20MOL0     C 2677   5.133   5.317   5.330  0.9307 -1.0012 -0.0814
   20MOL0     C 2678   5.093   5.429   5.279  0.6127 -0.0322  0.3189
   20MOL0     C 2679   4.964   5.473   5.293  0.1238  0.8530 -0.5261
   20MOL0     C 2680   4.870   5.396   5.357  0.8093  0.5503 -0.0509
   20MOL0     O 2681   4.734   5.438   5.375  0.3358  0.5763 -0.5050
   20MOL0     C 2682   4.695   5.565   5.322 -0.5971  0.0400 -0.3361
   20MOL0     C 2683   4.548   5.588   5.359 -0.1534 -0.1099 -0.2462
   20MOL0     C 2684   4.527   5.639   5.503 -0.9727 -1.0177 -0.6722
   20MOL0     C 2685   4.528   5.791   5.502 -0.2816  1.0920 -0.5595
   20MOL0     C 2686   4.659   5.857   5.461  0.6290 -0.4665  0.1757
   20MOL0     C 2687   4.764   5.905   5.415  0.4511 -0.0849  0.1553
   20MOL0     C 2688   4.905   5.270   5.406 -0.2577 -0.2235 -0.1458
   20MOL0     C 2689   5.042   5.233   5.392 -0.4474  0.4980  0.1823
   20MOL0     C 2690   5.072   5.103   5.454  0.3599 -0.1554  1.1045
   20MOL0     H 2691   5.534   5.462   5.140 -0.1831 -0.1389 -0.4402
   20MOL0     H 2692   5.775   5.415   5.114  0.6172  0.5822  0.0030
   20MOL0     H 2693   6.072   5.357   5.207 -2.7271  0.7841  2.3044
   20MOL0     H 2694   5.973   5.300   5.073  1.9325  3.2379  0.0573
   20MOL0     H 2695   6.120   5.111   5.256 -0.8904 -1.4179 -0.3353
   20MOL0     H 2696   6.059   5.056   5.099  0.9972 -0.2782  0.1005
   20MOL0     H 2697   6.294   5.218   5.174  2.9063 -0.6866 -0.3714
   20MOL0     H 2698   6.295   5.074   5.086 -0.0665  0.5467 -1.7564
   20MOL0     H 2699   6.141   5.197   4.908 -1.8005  0.8574  1.1063
   20MOL0     H 2700   6.184   5.348   4.974  0.4738  0.5683 -1.3800
   20MOL0     H 2701   6.406   5.162   4.874 -0.5600 -0.5783  1.2052
   20MOL0     H 2702   6.423   5.309   4.967 -1.0842 -0.7388  1.0362
   20MOL0     H 2703   6.298   5.264   4.696  1.6930  0.3445 -0.6158
   20MOL0     H 2704   6.270   5.416   4.772  0.8441  1.0529  0.8463
   20MOL0     H 2705   6.476   5.414   4.612  0.8813  0.4441  0.4009
   20MOL0     H 2706   6.558   5.334   4.743 -0.7823 -0.8986 -0.8635
   20MOL0     H 2707   6.427   5.615   4.727 -0.1633 -0.9321 -1.1615
   20MOL0     H 2708   6.446   5.557   4.887  0.2456  0.2062  0.0731
   20MOL0     H 2709   6.706   5.633   4.982  0.3116 -3.0478  0.1323
   20MOL0     H 2710   7.026   5.715   4.797 -0.8397  0.7411 -0.7286
   20MOL0     H 2711   6.960   5.680   4.959 -1.5248 -2.6117 -1.6714
   20MOL0     H 2712   6.999   5.927   4.800 -0.6475 -0.1811 -0.1282
   20MOL0     H 2713   6.828   5.924   4.859 -0.8757 -1.1012  0.2044
   20MOL0     H 2714   6.922   5.866   5.090 -2.1529 -0.2092 -1.0880
   20MOL0     H 2715   7.087   5.911   5.017  0.1713 -2.0091  1.1845
   20MOL0     H 2716   6.967   6.130   4.960 -1.0849 -3.4157 -1.7182
   20MOL0     H 2717   6.832   6.094   5.058 -0.2047  0.7255 -1.8286
   20MOL0     H 2718   7.166   6.155   4.926 -1.0483  1.1176 -0.0233
   20MOL0     H 2719   7.350   6.218   4.804 -0.5612  2.1972  0.2581
   20MOL0     H 2720   7.494   6.141   4.885  1.3667 -0.0726 -2.3657
   20MOL0     H 2721   7.490   6.313   4.869  1.9871 -2.2243  0.2358
   20MOL0     H 2722   7.797   6.357   5.202 -1.5012 -0.5012  1.0316
   20MOL0     H 2723   8.002   6.504   5.218  1.9824  0.9917  0.6732
   20MOL0     H 2724   8.033   6.947   5.289  2.3030  1.8384  1.8214
   20MOL0     H 2725   7.967   6.872   5.441 -0.6639  1.0337 -0.8443
   20MOL0     H 2726   8.189   6.945   5.493 -4.5211 -0.3772  1.5587
   20MOL0     H 2727   8.213   6.774   5.449  2.4324  1.8453  0.0149
   20MOL0     H 2728   8.246   7.012   5.259 -2.9990 -0.5513  0.2776
   20MOL0     H 2729   8.275   6.847   5.221 -0.0547 -0.2879  1.0853
   20MOL0     H 2730   8.443   6.810   5.382  0.3145 -1.1856 -0.6128
   20MOL0     H 2731   8.434   6.986   5.441 -0.3264  0.4518  0.5930
   20MOL0     H 2732   8.499   6.888   5.163  1.2880 -1.1325  0.7153
   20MOL0     H 2733   8.498   7.065   5.220  0.5245 -0.4011 -0.4669
   20MOL0     H 2734   8.676   6.850   5.319 -3.4257  0.0639 -1.4175
   20MOL0     H 2735   8.697   7.021   5.354 -1.8027  0.0912  1.4740
   20MOL0     H 2736   8.705   7.064   5.109  0.3946 -1.3370 -0.3072
   20MOL0     H 2737   8.743   6.889   5.084  3.2581 -0.2465 -0.7372
   20MOL0     H 2738   8.949   7.003   5.073 -1.9242 -0.1220 -0.4039
   20MOL0     H 2739   8.954   6.907   5.215 -1.8579  0.1339  0.9217
   20MOL0     H 2740   7.748   6.832   5.354  2.3563  0.1055 -0.6307
   20MOL0     H 2741   7.565   6.695   5.340 -0.7244  0.1158  0.5627
   20MOL0     H 2742   7.372   6.313   5.349 -1.3395  1.2791 -0.1119
   20MOL0     H 2743   7.137   6.217   5.351  0.4432 -0.9077  0.7855
   20MOL0     H 2744   5.748   5.146   5.453 -1.5062  0.6433  1.5062
   20MOL0     H 2745   5.505   5.211   5.472  0.8545  0.2094  1.4710
   20MOL0     H 2746   5.166   5.489   5.227 -2.1072  1.9352 -1.5231
   20MOL0     H 2747   4.943   5.565   5.239  0.0095  1.3854  0.4064
   20MOL0     H 2748   4.758   5.632   5.380 -0.3075 -0.9642  0.5438
   20MOL0     H 2749   4.704   5.565   5.213  0.8510 -1.9089 -0.2795
   20MOL0     H 2750   4.493   5.495   5.344 -1.3053  0.5494 -0.2345
   20MOL0     H 2751   4.499   5.664   5.297 -2.2645 -0.5290  0.8016
   20MOL0     H 2752   4.436   5.600   5.548  0.1265  0.2286  2.9810
   20MOL0     H 2753   4.614   5.611   5.563 -1.1425  1.3319  0.7841
   20MOL0     H 2754   4.502   5.821   5.604 -0.9402 -1.5380  0.1140
   20MOL0     H 2755   4.446   5.830   5.441 -2.5743 -3.0858 -0.4445
   20MOL0     H 2756   4.851   5.950   5.371 -0.0923 -1.1849 -2.1798
   20MOL0     H 2757   4.838   5.205   5.461  1.6880 -0.3550  2.2738
   20MOL0     H 2758   4.995   5.038   5.410 -0.0052  0.3115  1.0448
   20MOL0     H 2759   5.174   5.071   5.431 -0.5914 -1.4888 -1.7241
   20MOL0     H 2760   5.057   5.105   5.562  0.2742 -0.1747  1.0936
   21MOL0     O 2761   0.369  10.503   0.324 -0.1109 -0.1005  0.0871
   21MOL0     C 2762   0.402  10.432   0.417 -0.2314 -0.1046  0.5251
   21MOL0     O 2763   0.489  10.332   0.418 -0.6697 -0.1209  0.2606
   21MOL0     C 2764   0.571  10.296   0.313 -0.0616 -0.6299 -0.1795
   21MOL0     C 2765   0.686  10.231   0.354 -0.1435 -0.2866 -0.6608
   21MOL0     C 2766   0.776  10.190   0.248 -0.1368 -0.3348 -0.1346
   21MOL0     C 2767   0.748  10.220   0.112  0.1011  0.4381 -0.0333
   21MOL0     O 2768   0.844  10.184   0.017  0.8155  0.0136  0.8074
   21MOL0     C 2769   0.912  10.284  -0.055  0.3285  1.0397 -0.2808
   21MOL0     C 2770   1.027  10.337   0.030 -0.9931 -0.3117 -1.2968
   21MOL0     C 2771   1.127  10.233   0.093  0.3415  0.8584  0.0357
   21MOL0     C 2772   1.270  10.272   0.082 -0.7104  0.3260 -0.7131
   21MOL0     C 2773   1.327  10.290  -0.062 -0.4788  0.4105  0.5026
   21MOL0     C 2774   1.474  10.288  -0.059 -0.2421  0.1044  0.2651
   21MOL0     C 2775   1.540  10.344  -0.192  0.1324  1.1035 -0.0686
   21MOL0     C 2776   1.686  10.305  -0.215 -0.0853  0.4399  0.7011
   21MOL0     N 2777   1.784  10.386  -0.138 -0.1399  0.2540 -0.2959
   21MOL0     C 2778   1.919  10.361  -0.145 -0.0652 -0.4375  0.3012
   21MOL0     C 2779   1.970  10.453  -0.064 -0.0486  0.5772 -0.1248
   21MOL0     C 2780   2.117  10.483  -0.041  0.3539  0.6406 -0.2316
   21MOL0     C 2781   2.178  10.364   0.027 -0.2675  0.5557  0.3802
   21MOL0     C 2782   2.328  10.378   0.036 -0.2587  0.4319 -0.1306
   21MOL0     C 2783   2.392  10.277   0.127 -0.9673  0.4621 -0.3455
   21MOL0     O 2784   2.533  10.311   0.168 -0.0043 -0.0778  0.0301
   21MOL0     C 2785   2.620  10.208   0.172  0.5506  0.2505 -0.7420
   21MOL0     C 2786   2.609  10.101   0.259  0.7106  0.9716 -0.3080
   21MOL0     C 2787   2.708  10.004   0.270  0.8136 -0.3076  0.3217
   21MOL0     C 2788   2.670   9.897   0.364  0.1910 -0.3154  0.1844
   21MOL0     C 2789   2.822  10.014   0.185 -0.8214 -0.1390  0.4182
   21MOL0     C 2790   2.934   9.919   0.194 -0.1212  0.0323  0.1915
   21MOL0     O 2791   2.996   9.887   0.083 -0.4489 -0.2791 -0.0604
   21MOL0     C 2792   3.129   9.868   0.083  0.5141 -0.1657  0.5825
   21MOL0     C 2793   3.224   9.915   0.172  0.1975  0.3345 -0.4293
   21MOL0     C 2794   3.359   9.887   0.151 -1.2599  0.3801 -0.5707
   21MOL0     C 2795   3.395   9.792   0.058 -0.8372 -0.3425  0.6274
   21MOL0     O 2796   3.525   9.758   0.021  0.1411  0.0810 -1.0789
   21MOL0     C 2797   3.638   9.842   0.058 -0.1291 -0.1234  0.2523
   21MOL0     C 2798   3.749   9.801  -0.037 -0.4512 -0.2192 -0.4039
   21MOL0     C 2799   3.863   9.895  -0.025 -0.9071 -0.5177 -0.2320
   21MOL0     C 2800   3.990   9.847  -0.099  0.1900 -0.0025 -0.1504
   21MOL0     C 2801   4.079   9.766  -0.007  0.7286  0.5409 -0.0402
   21MOL0     C 2802   4.208   9.733  -0.072 -0.5395  0.0323  0.3030
   21MOL0     C 2803   4.296   9.664   0.028 -0.5204  0.4065 -0.2444
   21MOL0     C 2804   4.425   9.623  -0.039  0.6242 -0.4261 -0.1999
   21MOL0    Cl 2805   4.391   9.507  -0.178  0.1398 -0.2414 -0.5152
   21MOL0     C 2806   3.302   9.739  -0.026  0.1721  0.2661 -0.6821
   21MOL0     C 2807   3.165   9.776  -0.014 -0.1783  0.3303  0.2417
   21MOL0     O 2808   2.959   9.872   0.305  0.0393 -0.0359 -0.9087
   21MOL0     C 2809   2.829  10.120   0.094 -0.2070 -0.2651 -0.7165
   21MOL0     C 2810   2.729  10.214   0.088  0.2819 -0.6629  0.2593
   21MOL0     N 2811   1.874  10.524   0.012  0.0892  0.6257  0.8917
   21MOL0     N 2812   1.765  10.476  -0.036  0.4275  0.1813 -0.3658
   21MOL0     C 2813   0.631  10.277   0.072  0.6360  0.4571 -0.9244
   21MOL0     C 2814   0.538  10.315   0.172 -0.0526  0.0925 -0.3284
   21MOL0     C 2815   0.332  10.444   0.548  0.4291  1.1393  0.8900
   21MOL0     C 2816   0.371  10.355   0.648 -0.4162 -0.0423 -0.3845
   21MOL0     C 2817   0.347  10.379   0.782  0.8567  0.2019  0.1315
   21MOL0     C 2818   0.247  10.468   0.817  0.2735  0.4401 -1.6096
   21MOL0     O 2819   0.215  10.470   0.956 -0.2739  0.2417  0.3358
   21MOL0     C 2820   0.088  10.520   0.988 -0.0591 -0.3200 -0.5498
   21MOL0     C 2821   0.050  10.471   1.123  0.2312 -0.9433 -0.1349
   21MOL0     C 2822   0.163  10.510   1.230 -0.3359 -0.2869  0.1443
   21MOL0     C 2823   0.109  10.480   1.359  0.7026  0.7598 -0.0015
   21MOL0     C 2824   0.183  10.518   1.477 -0.1706 -0.2436 -0.2785
   21MOL0     C 2825   0.243  10.550   1.579 -0.3454 -0.5731  0.6367
   21MOL0     C 2826   0.188  10.549   0.715 -0.3074 -0.0351  0.3163
   21MOL0     C 2827   0.232  10.543   0.580 -1.2783 -0.5790  0.1504
   21MOL0     C 2828   0.186  10.661   0.494 -0.1291  0.7342 -0.7716
   21MOL0     H 2829   0.722  10.217   0.455 -0.3214 -3.2853 -0.9273
   21MOL0     H 2830   0.863  10.131   0.274 -0.9414 -1.5159 -0.0070
   21MOL0     H 2831   0.841  10.360  -0.089  0.4260  0.0831 -2.8724
   21MOL0     H 2832   0.946  10.241  -0.150 -0.5277 -0.5909  0.1097
   21MOL0     H 2833   1.083  10.402  -0.038 -0.1885  0.5818  0.1689
   21MOL0     H 2834   0.983  10.396   0.111 -1.6795 -2.0143 -0.3732
   21MOL0     H 2835   1.101  10.222   0.199  0.8789 -2.0009 -0.0343
   21MOL0     H 2836   1.107  10.140   0.039 -0.6356  1.1928 -0.1876
   21MOL0     H 2837   1.290  10.358   0.146 -1.3096  0.4278 -0.6545
   21MOL0     H 2838   1.320  10.181   0.119 -2.5785 -0.7784 -0.7754
   21MOL0     H 2839   1.286  10.383  -0.102  0.6343  0.9716  0.6074
   21MOL0     H 2840   1.298  10.213  -0.133 -0.7525 -1.6257  2.6922
   21MOL0     H 2841   1.508  10.358   0.018  2.6001  1.6033 -2.0937
   21MOL0     H 2842   1.515  10.187  -0.054  1.7602  0.7426 -1.6398
   21MOL0     H 2843   1.537  10.453  -0.197  0.6073  1.1329  0.1921
   21MOL0     H 2844   1.478  10.299  -0.270  0.0256  0.5304  0.3381
   21MOL0     H 2845   1.697  10.199  -0.191  1.2384 -0.0578 -1.7627
   21MOL0     H 2846   1.704  10.318  -0.322 -1.2403  0.9245  0.5494
   21MOL0     H 2847   1.984  10.296  -0.203  1.8602  1.9690 -0.3680
   21MOL0     H 2848   2.133  10.578   0.011  1.3136  1.6878 -2.3204
   21MOL0     H 2849   2.164  10.485  -0.140 -0.1726  0.2189 -0.5016
   21MOL0     H 2850   2.143  10.341   0.128  1.6818 -0.7936  0.8108
   21MOL0     H 2851   2.161  10.271  -0.028  0.3066 -0.1961  1.4297
   21MOL0     H 2852   2.371  10.359  -0.063  0.0399  0.0680  0.0675
   21MOL0     H 2853   2.352  10.478   0.074 -1.2711  0.6823 -0.1248
   21MOL0     H 2854   2.334  10.269   0.219  1.2634 -1.1175  1.0237
   21MOL0     H 2855   2.396  10.179   0.079  1.4962  1.1786 -1.7649
   21MOL0     H 2856   2.526  10.100   0.329 -0.3134  0.6695 -1.4800
   21MOL0     H 2857   2.650   9.943   0.462 -2.7151  2.0102 -1.3354
   21MOL0     H 2858   2.754   9.827   0.366  1.6335  1.3471  0.3349
   21MOL0     H 2859   2.584   9.838   0.332 -1.2604  0.6197  2.1102
   21MOL0     H 2860   3.196   9.963   0.266 -0.0107 -0.5817 -0.0060
   21MOL0     H 2861   3.432   9.929   0.219  0.2810  2.4343 -3.2727
   21MOL0     H 2862   3.611   9.948   0.058 -0.5170 -0.2194  0.3433
   21MOL0     H 2863   3.669   9.814   0.159  0.3465 -2.9465 -0.6086
   21MOL0     H 2864   3.785   9.701  -0.014  2.5345  1.1554  1.5023
   21MOL0     H 2865   3.725   9.804  -0.144  2.2162 -0.9039 -1.0879
   21MOL0     H 2866   3.888   9.898   0.081 -2.8129 -0.8780  0.2582
   21MOL0     H 2867   3.835   9.998  -0.051 -1.0852  0.1246  2.2616
   21MOL0     H 2868   4.057   9.931  -0.121  1.2602 -0.0271  2.6000
   21MOL0     H 2869   3.972   9.784  -0.186  2.1033 -0.7144 -0.0916
   21MOL0     H 2870   4.099   9.821   0.086  1.6602 -1.7210  1.1798
   21MOL0     H 2871   4.037   9.670   0.025  1.1307 -1.1588 -4.0524
   21MOL0     H 2872   4.252   9.830  -0.094 -0.1001 -0.7342 -2.6718
   21MOL0     H 2873   4.199   9.679  -0.167  1.6560 -1.4937  0.8936
   21MOL0     H 2874   4.261   9.571   0.073  4.4964 -0.4578  2.6106
   21MOL0     H 2875   4.320   9.739   0.104  2.1887 -0.2888 -0.3375
   21MOL0     H 2876   4.480   9.560   0.032 -1.1420 -0.1558  1.5186
   21MOL0     H 2877   4.486   9.703  -0.080  0.9453 -1.5445 -2.0050
   21MOL0     H 2878   3.332   9.682  -0.113 -0.7388  1.0476 -1.5319
   21MOL0     H 2879   3.092   9.734  -0.082  0.7822 -2.2856  0.7045
   21MOL0     H 2880   2.919  10.144   0.038 -0.7971  0.5434 -1.3360
   21MOL0     H 2881   2.729  10.295   0.015 -0.4260 -3.0175 -2.5524
   21MOL0     H 2882   0.609  10.297  -0.032 -1.9189 -2.6039 -1.1274
   21MOL0     H 2883   0.442  10.361   0.151 -0.5558  0.0174  1.5579
   21MOL0     H 2884   0.430  10.265   0.636  2.2540  1.4153  0.8620
   21MOL0     H 2885   0.396  10.311   0.851  1.3882  0.5069  0.0611
   21MOL0     H 2886   0.084  10.629   0.978 -2.5232 -0.4448 -1.6919
   21MOL0     H 2887   0.018  10.479   0.915 -1.4521  0.3770  0.3502
   21MOL0     H 2888   0.036  10.363   1.119 -4.9382 -0.4972 -0.3117
   21MOL0     H 2889  -0.048  10.510   1.151 -0.9814 -2.4104 -2.0906
   21MOL0     H 2890   0.255  10.453   1.213 -0.9954 -0.7602 -2.2207
   21MOL0     H 2891   0.189  10.617   1.226  2.1271 -0.6861  2.5399
   21MOL0     H 2892   0.087  10.373   1.362  1.3221  0.6479  1.9334
   21MOL0     H 2893   0.014  10.532   1.370 -0.2069 -0.9120  0.4674
   21MOL0     H 2894   0.280  10.559   1.679  2.1279  2.4998 -0.3757
   21MOL0     H 2895   0.119  10.626   0.747 -0.4280 -1.2241  3.2324
   21MOL0     H 2896   0.126  10.731   0.554  1.0723  1.6023 -0.5459
   21MOL0     H 2897   0.273  10.714   0.453  0.0596 -0.5123 -2.0402
   21MOL0     H 2898   0.134  10.621   0.406 -1.1102  0.1790  0.0348
   22MOL0     O 2899   8.702   5.550  11.346  0.5042  0.0543  0.0447
   22MOL0     C 2900   8.733   5.433  11.366  0.0662 -0.3874  0.0922
   22MOL0     O 2901   8.760   5.370  11.487 -0.4404  0.4465 -0.2125
   22MOL0     C 2902   8.772   5.454  11.591  0.1129  0.7911  0.0370
   22MOL0     C 2903   8.701   5.428  11.705 -0.6728  0.7421  0.3650
   22MOL0     C 2904   8.709   5.517  11.817  0.4118  0.5258 -0.0509
   22MOL0     C 2905   8.785   5.634  11.817 -0.4824  0.4403 -0.0877
   22MOL0     O 2906   8.788   5.704  11.932 -0.4732 -0.3615 -0.3100
   22MOL0     C 2907   8.879   5.822  11.948 -0.0507  0.1799 -0.3813
   22MOL0     C 2908   8.833   5.898  12.073 -0.3037  0.3341 -0.5132
   22MOL0     C 2909   8.864   5.826  12.199  0.0228  0.8240  0.1304
   22MOL0     C 2910   8.796   5.880  12.323  0.2244 -0.0793 -0.5803
   22MOL0     C 2911   8.836   6.034  12.358 -0.6550  0.2237 -0.3440
   22MOL0     C 2912   8.979   6.043  12.415 -0.2496 -0.4504  0.1890
   22MOL0     C 2913   8.988   5.962  12.549  0.2187 -0.2972  0.2515
   22MOL0     C 2914   9.120   5.969  12.626  0.4794 -0.3256  0.2853
   22MOL0     N 2915   9.250   5.934  12.552  0.0944  0.2727 -0.3889
   22MOL0     C 2916   9.376   5.960  12.599 -0.5393  0.3418  0.4372
   22MOL0     C 2917   9.457   5.917  12.499 -0.0038 -0.6462  0.3437
   22MOL0     C 2918   9.606   5.928  12.504 -0.9343  0.4692 -0.2041
   22MOL0     C 2919   9.691   5.792  12.523  0.4547  0.0448 -0.3484
   22MOL0     C 2920   9.732   5.729  12.388 -0.2364  0.5227 -0.1384
   22MOL0     C 2921   9.778   5.580  12.413 -0.0467 -0.2017 -0.6197
   22MOL0     O 2922   9.893   5.596  12.496  0.0013  0.1433 -0.8252
   22MOL0     C 2923  10.014   5.633  12.438 -0.7242 -0.3241 -0.1208
   22MOL0     C 2924  10.040   5.659  12.304  0.4451  1.1784  0.9562
   22MOL0     C 2925  10.169   5.689  12.249 -0.8855  0.6295  0.2336
   22MOL0     C 2926  10.167   5.739  12.107 -0.0359  0.1037 -0.8061
   22MOL0     C 2927  10.287   5.684  12.331  0.8934  0.2013  0.4396
   22MOL0     C 2928  10.423   5.726  12.293  0.4789  0.5919 -0.6639
   22MOL0     O 2929  10.522   5.707  12.398  0.2094 -0.2589 -0.0915
   22MOL0     C 2930  10.661   5.742  12.382  0.3931 -0.3979 -0.2377
   22MOL0     C 2931  10.740   5.684  12.476 -0.5745  0.1277  0.4324
   22MOL0     C 2932  10.882   5.700  12.460  0.0411 -0.5893 -0.7133
   22MOL0     C 2933  10.943   5.775  12.363  0.1363 -0.6256  0.7584
   22MOL0     O 2934  11.077   5.794  12.358 -0.4872  0.4221 -0.7908
   22MOL0     C 2935  11.131   5.861  12.239  0.1957 -0.5136 -0.2013
   22MOL0     C 2936  11.281   5.841  12.215 -0.3743 -0.0384 -0.1907
   22MOL0     C 2937  11.312   5.688  12.205 -0.5235 -0.4638 -0.3024
   22MOL0     C 2938  11.452   5.659  12.150 -0.4863 -0.3024 -0.2645
   22MOL0     C 2939  11.503   5.513  12.184 -0.2869 -0.4066 -0.3035
   22MOL0     C 2940  11.651   5.491  12.167  0.2391  0.5515 -0.5297
   22MOL0     C 2941  11.726   5.582  12.271 -0.5014  0.1785  0.3568
   22MOL0     C 2942  11.866   5.520  12.276  0.9076 -0.1316  0.6944
   22MOL0    Cl 2943  11.948   5.615  12.410  0.2171 -0.2158 -0.1556
   22MOL0     C 2944  10.854   5.841  12.281 -0.0399  0.2490  0.1324
   22MOL0     C 2945  10.713   5.825  12.287 -0.2345 -0.7203 -0.1854
   22MOL0     O 2946  10.447   5.757  12.178  0.3961 -0.1474 -0.4557
   22MOL0     C 2947  10.253   5.651  12.466  0.5567  0.0034  0.1404
   22MOL0     C 2948  10.126   5.628  12.518  0.3395  0.7130  0.0437
   22MOL0     N 2949   9.386   5.841  12.407  0.0351  0.5748 -0.5715
   22MOL0     N 2950   9.260   5.853  12.437 -0.1310  0.1012 -0.5628
   22MOL0     C 2951   8.872   5.654  11.704  0.2802 -0.2853  0.4533
   22MOL0     C 2952   8.855   5.570  11.596  0.0184  0.3257 -0.0470
   22MOL0     C 2953   8.727   5.339  11.242  0.0825 -0.1958 -0.5053
   22MOL0     C 2954   8.672   5.210  11.260  0.0120  0.0032 -0.4126
   22MOL0     C 2955   8.651   5.123  11.156 -0.4307 -1.3372  0.0781
   22MOL0     C 2956   8.698   5.149  11.030  0.4325 -0.5220  0.3245
   22MOL0     O 2957   8.680   5.066  10.922  0.0701 -0.5327  0.2812
   22MOL0     C 2958   8.613   4.936  10.936  0.5994 -0.2131  0.1445
   22MOL0     C 2959   8.471   4.960  10.918 -0.2188  1.1537  0.8395
   22MOL0     C 2960   8.406   4.818  10.944 -0.5286 -0.3159  0.7356
   22MOL0     C 2961   8.251   4.824  10.906 -0.8533  0.1911  0.3897
   22MOL0     C 2962   8.215   4.684  10.874  0.1265 -0.2394  0.3812
   22MOL0     C 2963   8.184   4.567  10.857  0.4941  0.0981 -0.5392
   22MOL0     C 2964   8.764   5.270  11.010  0.7743  0.0247  0.0250
   22MOL0     C 2965   8.782   5.370  11.112  0.5694  0.2141  0.4758
   22MOL0     C 2966   8.842   5.509  11.084 -0.3411  0.2677 -0.0752
   22MOL0     H 2967   8.634   5.342  11.699 -1.0874  1.1673 -3.2107
   22MOL0     H 2968   8.650   5.485  11.903 -0.1283  1.2735 -0.1397
   22MOL0     H 2969   8.877   5.894  11.865 -1.6403  1.0818  0.3801
   22MOL0     H 2970   8.981   5.784  11.957  0.0270  0.5705  0.5723
   22MOL0     H 2971   8.898   5.986  12.068 -0.2735  0.4549  1.2793
   22MOL0     H 2972   8.731   5.937  12.072  0.4501  2.5543  0.6934
   22MOL0     H 2973   8.835   5.721  12.185  0.0007  1.2019 -3.7367
   22MOL0     H 2974   8.972   5.826  12.214 -0.1468  1.3444  1.4958
   22MOL0     H 2975   8.692   5.880  12.291  0.1450 -0.6656 -0.3454
   22MOL0     H 2976   8.804   5.814  12.410 -1.8741  0.0595 -0.2261
   22MOL0     H 2977   8.764   6.080  12.427 -2.8100 -0.4055 -2.0652
   22MOL0     H 2978   8.832   6.091  12.265 -1.5861 -0.7262 -0.9083
   22MOL0     H 2979   9.050   6.003  12.342  3.5112  2.3389  1.9525
   22MOL0     H 2980   9.005   6.147  12.434  0.3893 -0.1836 -1.8755
   22MOL0     H 2981   8.981   5.857  12.522  1.4504 -0.7588  1.6107
   22MOL0     H 2982   8.910   5.993  12.620  1.6963 -0.1020  1.8521
   22MOL0     H 2983   9.148   6.066  12.668 -4.4733  0.9896  1.1852
   22MOL0     H 2984   9.115   5.897  12.709 -0.2407  0.2578  0.7659
   22MOL0     H 2985   9.409   6.023  12.682  2.2395 -1.4184  0.7930
   22MOL0     H 2986   9.636   6.000  12.581  0.0053  0.3310 -0.4278
   22MOL0     H 2987   9.634   5.965  12.404  3.3344  0.6989  0.8611
   22MOL0     H 2988   9.778   5.813  12.586  0.8761 -0.0658 -0.8840
   22MOL0     H 2989   9.626   5.723  12.578  1.7527 -1.2826 -0.3857
   22MOL0     H 2990   9.649   5.728  12.317 -0.2653  0.3076 -0.1015
   22MOL0     H 2991   9.809   5.797  12.351 -0.8359  0.7058 -1.1008
   22MOL0     H 2992   9.700   5.516  12.455 -1.5718  1.2201 -1.1734
   22MOL0     H 2993   9.789   5.535  12.314 -1.3742 -1.4931 -0.2339
   22MOL0     H 2994   9.953   5.650  12.240  0.2577 -2.0880  1.5099
   22MOL0     H 2995  10.079   5.702  12.054 -0.3159 -1.2384  0.5195
   22MOL0     H 2996  10.257   5.717  12.050 -1.0243 -3.2430 -1.3007
   22MOL0     H 2997  10.158   5.848  12.107  1.8031  0.2960 -2.2187
   22MOL0     H 2998  10.695   5.619  12.550 -0.4175  0.4136  0.7846
   22MOL0     H 2999  10.948   5.652  12.532  1.8658  1.4254 -0.9344
   22MOL0     H 3000  11.081   5.822  12.150 -1.9088  0.4934  0.4721
   22MOL0     H 3001  11.112   5.968  12.250  0.3127 -0.4271 -0.7827
   22MOL0     H 3002  11.313   5.893  12.124 -2.7871  1.5229 -0.2227
   22MOL0     H 3003  11.342   5.884  12.295  1.8796 -3.2355  0.0161
   22MOL0     H 3004  11.236   5.647  12.138 -1.9233 -0.1844  1.0525
   22MOL0     H 3005  11.306   5.645  12.306  0.8918  3.1560  1.4958
   22MOL0     H 3006  11.524   5.731  12.192  0.6524 -1.2352 -0.5686
   22MOL0     H 3007  11.467   5.686  12.045  1.2809 -1.9373 -0.4736
   22MOL0     H 3008  11.478   5.481  12.286 -2.7030  0.1916 -0.6458
   22MOL0     H 3009  11.455   5.452  12.107 -1.3850  2.1089 -1.7561
   22MOL0     H 3010  11.684   5.502  12.063 -2.1715  0.3830 -1.3873
   22MOL0     H 3011  11.670   5.387  12.194  1.3683  1.4055  2.3657
   22MOL0     H 3012  11.683   5.593  12.371 -0.4798 -1.4125  0.5735
   22MOL0     H 3013  11.741   5.679  12.223  1.1361 -0.8524 -1.3550
   22MOL0     H 3014  11.916   5.531  12.180  2.6384 -0.9888  1.4442
   22MOL0     H 3015  11.860   5.414  12.301  0.1811 -0.8340 -2.1161
   22MOL0     H 3016  10.899   5.918  12.219  3.4748 -0.4959  1.5165
   22MOL0     H 3017  10.654   5.874  12.210 -0.4501 -4.8186 -2.9346
   22MOL0     H 3018  10.339   5.643  12.532  0.3440  0.0871  0.4259
   22MOL0     H 3019  10.120   5.595  12.622 -2.6995 -0.5335 -0.4151
   22MOL0     H 3020   8.949   5.730  11.700  1.0917 -1.0914  0.2432
   22MOL0     H 3021   8.923   5.597  11.515  1.1751  1.0524  1.1223
   22MOL0     H 3022   8.640   5.180  11.359 -1.3760  0.4395 -0.7116
   22MOL0     H 3023   8.604   5.030  11.186  0.4182 -1.1006  2.3773
   22MOL0     H 3024   8.634   4.853  10.868 -2.8326 -3.6058  2.7997
   22MOL0     H 3025   8.640   4.884  11.028  1.6836  1.0968  0.6026
   22MOL0     H 3026   8.450   4.989  10.815  2.1055  0.2706  0.0609
   22MOL0     H 3027   8.433   5.040  10.983 -2.8223  0.7905 -0.1267
   22MOL0     H 3028   8.457   4.754  10.872 -2.3020  0.9662 -1.8277
   22MOL0     H 3029   8.433   4.789  11.046  0.1320 -3.1147 -0.1505
   22MOL0     H 3030   8.248   4.877  10.810  0.6116 -1.3419 -0.5670
   22MOL0     H 3031   8.195   4.861  10.992 -3.0197 -0.6751 -0.5929
   22MOL0     H 3032   8.171   4.461  10.855 -0.3772  0.1070  1.7034
   22MOL0     H 3033   8.784   5.285  10.904 -1.0201 -3.8794 -1.0417
   22MOL0     H 3034   8.929   5.511  11.151 -0.4396  1.8401  0.0409
   22MOL0     H 3035   8.872   5.515  10.979  3.3713 -1.2966  0.7160
   22MOL0     H 3036   8.769   5.587  11.104 -0.0265  0.5471 -0.0080
   23MOL0     O 3037   5.846   0.534  10.817  0.0542  1.1653  0.4748
   23MOL0     C 3038   5.818   0.434  10.755 -0.2629  0.0135  0.0677
   23MOL0     O 3039   5.697   0.406  10.717  0.1620 -0.2429  0.1699
   23MOL0     C 3040   5.601   0.492  10.746  0.0628 -0.2692 -0.2374
   23MOL0     C 3041   5.551   0.497  10.878 -0.0426  0.3451 -0.3040
   23MOL0     C 3042   5.435   0.580  10.904 -0.5384 -0.6960  0.0368
   23MOL0     C 3043   5.386   0.660  10.803  0.4582  0.9946 -0.7232
   23MOL0     O 3044   5.273   0.733  10.825  0.8406 -0.4160 -0.3008
   23MOL0     C 3045   5.166   0.679  10.905 -0.4762  0.4577 -0.9768
   23MOL0     C 3046   5.040   0.744  10.855 -0.2571  0.3793 -0.3795
   23MOL0     C 3047   5.007   0.696  10.717 -0.1788  0.9055 -0.5078
   23MOL0     C 3048   4.868   0.740  10.667 -0.9113  0.1919 -0.0674
   23MOL0     C 3049   4.754   0.671  10.738  0.2704  0.2705 -0.6497
   23MOL0     C 3050   4.616   0.724  10.699 -0.0481  1.0338  0.3203
   23MOL0     C 3051   4.506   0.644  10.771  0.6628  0.5990 -0.0246
   23MOL0     C 3052   4.364   0.686  10.747 -0.3753 -0.0497 -0.0154
   23MOL0     N 3053   4.356   0.826  10.771 -0.5627  0.0904 -0.0507
   23MOL0     C 3054   4.324   0.888  10.888 -0.3140 -0.1105  0.2342
   23MOL0     C 3055   4.287   1.014  10.860  0.3514  0.3455  0.0409
   23MOL0     C 3056   4.229   1.106  10.963 -0.3117  0.0674 -0.4805
   23MOL0     C 3057   4.327   1.125  11.087  0.2668  0.1609  0.7870
   23MOL0     C 3058   4.469   1.155  11.058 -0.4140 -0.4907 -0.7161
   23MOL0     C 3059   4.506   1.261  10.952 -0.3271  0.3869  1.0527
   23MOL0     O 3060   4.652   1.246  10.930  0.2078 -0.4481 -0.3712
   23MOL0     C 3061   4.702   1.211  10.802 -0.1035  0.4795 -0.8322
   23MOL0     C 3062   4.634   1.176  10.685 -0.2207  0.2982 -0.0757
   23MOL0     C 3063   4.703   1.118  10.583  0.3480 -0.3277 -0.5789
   23MOL0     C 3064   4.629   1.043  10.478 -0.2572  0.5430  0.4815
   23MOL0     C 3065   4.838   1.146  10.570 -0.1312  0.6568  0.3930
   23MOL0     C 3066   4.908   1.111  10.448 -0.0425 -0.2936 -0.8677
   23MOL0     O 3067   4.874   1.161  10.329  0.8480  0.1997 -0.5123
   23MOL0     C 3068   4.975   1.144  10.234  0.0161 -0.8459 -0.1761
   23MOL0     C 3069   4.983   1.028  10.150 -0.4079 -0.5547 -0.0581
   23MOL0     C 3070   5.088   1.018  10.058 -0.5958 -0.3047  1.1785
   23MOL0     C 3071   5.182   1.128  10.039  0.3655  0.0622  0.4419
   23MOL0     O 3072   5.279   1.110   9.945 -0.2427  0.5248  0.6248
   23MOL0     C 3073   5.379   1.206   9.932 -0.1504  0.0557 -0.6109
   23MOL0     C 3074   5.494   1.154   9.843  0.0667  0.3733 -0.3837
   23MOL0     C 3075   5.585   1.047   9.912  0.8527 -0.9102  1.0108
   23MOL0     C 3076   5.703   1.010   9.829 -0.5499  0.1440 -0.7165
   23MOL0     C 3077   5.768   0.886   9.893  0.0970 -0.3014  0.0192
   23MOL0     C 3078   5.902   0.865   9.817 -0.0633 -0.1539  0.0539
   23MOL0     C 3079   5.982   0.763   9.899  0.5359  0.8020 -1.0360
   23MOL0     C 3080   6.115   0.734   9.837 -0.5415  0.1856  0.0614
   23MOL0    Cl 3081   6.202   0.899   9.848  0.0772  0.2012 -0.2659
   23MOL0     C 3082   5.164   1.244  10.116  0.5014 -0.9676 -0.4610
   23MOL0     C 3083   5.067   1.251  10.221 -1.1575 -0.1328  0.5319
   23MOL0     O 3084   5.014   1.055  10.474  0.2665 -0.3418 -0.2342
   23MOL0     C 3085   4.901   1.204  10.680  0.0046  0.0585  0.8800
   23MOL0     C 3086   4.839   1.233  10.801 -0.0147  0.2709 -0.8061
   23MOL0     N 3087   4.293   1.034  10.718  0.1656  0.4446  0.3146
   23MOL0     N 3088   4.332   0.917  10.665  0.1298 -0.3525 -0.4401
   23MOL0     C 3089   5.447   0.651  10.677  0.0412  0.0916 -0.0733
   23MOL0     C 3090   5.546   0.563  10.643  0.1516  0.4357  0.1504
   23MOL0     C 3091   5.932   0.351  10.720  0.7490 -0.5505 -0.1640
   23MOL0     C 3092   6.057   0.370  10.786  0.4343 -0.1854  0.4179
   23MOL0     C 3093   6.159   0.281  10.768  0.6788  0.2832  0.2073
   23MOL0     C 3094   6.149   0.164  10.691 -0.4507  1.1681 -0.2470
   23MOL0     O 3095   6.248   0.070  10.660  0.7224  0.0885  0.6068
   23MOL0     C 3096   6.359   0.071  10.749 -0.2126  0.1379 -0.1897
   23MOL0     C 3097   6.459  -0.040  10.702  0.5679  0.4384 -0.7774
   23MOL0     C 3098   6.584  -0.031  10.790 -0.0570 -0.0754  0.2704
   23MOL0     C 3099   6.714  -0.093  10.723 -0.2647 -1.0395 -0.7363
   23MOL0     C 3100   6.842  -0.060  10.797 -0.6706 -0.1464 -0.1972
   23MOL0     C 3101   6.948  -0.015  10.840  0.5698 -1.0183  1.0344
   23MOL0     C 3102   6.030   0.148  10.626  0.1834 -0.3501 -0.5408
   23MOL0     C 3103   5.913   0.234  10.641  0.0237  0.6332 -0.4104
   23MOL0     C 3104   5.775   0.191  10.574  0.0352 -0.0025  0.1502
   23MOL0     H 3105   5.599   0.449  10.963  0.8335 -0.1129 -1.0386
   23MOL0     H 3106   5.387   0.576  11.002 -0.6330 -1.5623 -0.0385
   23MOL0     H 3107   5.184   0.685  11.013  0.2086  0.1315 -1.0634
   23MOL0     H 3108   5.159   0.572  10.887  2.9521 -0.7418  3.0849
   23MOL0     H 3109   4.971   0.698  10.926 -0.8577 -0.6249 -1.5754
   23MOL0     H 3110   5.034   0.853  10.861 -1.0331  0.2707  1.5596
   23MOL0     H 3111   5.077   0.751  10.653  0.8752 -0.0966 -0.2646
   23MOL0     H 3112   5.031   0.589  10.710 -2.4248  0.2745  0.4789
   23MOL0     H 3113   4.860   0.848  10.681  0.1595  0.2878 -0.0910
   23MOL0     H 3114   4.866   0.729  10.558  1.3581  1.7142 -0.3409
   23MOL0     H 3115   4.762   0.692  10.845 -1.6537  2.4323 -0.8508
   23MOL0     H 3116   4.763   0.564  10.719  1.2172  0.2941 -0.4002
   23MOL0     H 3117   4.602   0.827  10.732  0.4354  0.4631  2.4445
   23MOL0     H 3118   4.606   0.721  10.590  0.0431  0.0070  0.3294
   23MOL0     H 3119   4.513   0.651  10.880 -1.7159  2.3715  0.0923
   23MOL0     H 3120   4.517   0.537  10.750  1.0284  0.2518  1.7511
   23MOL0     H 3121   4.334   0.666  10.644 -2.2553 -1.8291  0.8029
   23MOL0     H 3122   4.307   0.620  10.812 -2.0896  0.6560 -0.7617
   23MOL0     H 3123   4.341   0.827  10.976  1.1418  0.5630  0.4458
   23MOL0     H 3124   4.126   1.075  10.982 -0.3394 -0.2663 -1.1500
   23MOL0     H 3125   4.220   1.203  10.914  0.9148 -0.5076 -1.9140
   23MOL0     H 3126   4.286   1.192  11.164 -1.2665 -0.7914  0.8425
   23MOL0     H 3127   4.311   1.026  11.131  0.2809 -0.2043 -0.0117
   23MOL0     H 3128   4.517   1.176  11.154 -0.3845 -2.4755 -0.2522
   23MOL0     H 3129   4.510   1.059  11.025 -0.2231 -1.2221  1.5091
   23MOL0     H 3130   4.448   1.255  10.859 -0.0119  0.5655  0.8427
   23MOL0     H 3131   4.469   1.357  10.990 -0.5265  1.0320 -0.6663
   23MOL0     H 3132   4.527   1.159  10.692 -0.3714  0.4481 -1.5672
   23MOL0     H 3133   4.532   0.999  10.504  0.9543 -2.0777  0.8952
   23MOL0     H 3134   4.687   0.961  10.436  0.5534  2.0856 -1.6204
   23MOL0     H 3135   4.628   1.118  10.397  1.9898  2.0001  1.7202
   23MOL0     H 3136   4.912   0.946  10.152  1.2100 -2.0423 -1.1203
   23MOL0     H 3137   5.109   0.930   9.998  0.4441  1.8579 -1.8849
   23MOL0     H 3138   5.333   1.298   9.895 -2.3412  0.0313  1.8128
   23MOL0     H 3139   5.419   1.227  10.031 -2.7401 -2.1121  1.0285
   23MOL0     H 3140   5.463   1.112   9.747  2.0908 -1.6236 -0.2460
   23MOL0     H 3141   5.562   1.237   9.825  0.5980  0.5868  2.2545
   23MOL0     H 3142   5.525   0.957   9.923  1.2257 -1.4561 -1.1228
   23MOL0     H 3143   5.613   1.080  10.013 -1.0606  1.2859  0.9219
   23MOL0     H 3144   5.778   1.089   9.820 -1.1850  0.7505 -0.7831
   23MOL0     H 3145   5.674   0.989   9.726  2.8101 -0.3294 -1.6641
   23MOL0     H 3146   5.778   0.907  10.000 -2.0423 -1.8276  0.5749
   23MOL0     H 3147   5.712   0.794   9.875  0.0378 -0.0413 -1.1474
   23MOL0     H 3148   5.954   0.961   9.805 -0.4662  0.0406 -0.1274
   23MOL0     H 3149   5.881   0.824   9.718  1.1843 -2.0517  0.5168
   23MOL0     H 3150   5.938   0.664   9.913 -0.0071  1.2441  0.6179
   23MOL0     H 3151   5.993   0.802  10.001 -1.7231 -2.1719  0.5162
   23MOL0     H 3152   6.095   0.706   9.733  1.1177  3.7402 -1.3894
   23MOL0     H 3153   6.176   0.654   9.881  0.8077  0.5558 -1.0688
   23MOL0     H 3154   5.239   1.322  10.118 -1.1168  0.9129 -3.7596
   23MOL0     H 3155   5.041   1.345  10.267 -1.4462 -0.4800  1.0888
   23MOL0     H 3156   5.001   1.239  10.659 -0.6117  1.3093 -0.1018
   23MOL0     H 3157   4.893   1.264  10.890 -0.0066 -0.4335 -0.5628
   23MOL0     H 3158   5.394   0.700  10.596  2.0439 -0.6178 -1.9112
   23MOL0     H 3159   5.578   0.546  10.540 -0.7427  0.4341 -0.1403
   23MOL0     H 3160   6.072   0.456  10.851 -1.1809 -0.5316  1.3012
   23MOL0     H 3161   6.243   0.303  10.833 -0.7359  2.5378  1.4145
   23MOL0     H 3162   6.412   0.166  10.735  0.2876 -0.3415 -1.8363
   23MOL0     H 3163   6.333   0.069  10.855 -1.8620  4.4481 -0.3199
   23MOL0     H 3164   6.476  -0.054  10.595  2.1362 -2.7204 -0.2520
   23MOL0     H 3165   6.412  -0.132  10.738 -0.9977  1.8941  1.1117
   23MOL0     H 3166   6.610   0.073  10.811 -0.2401  0.1131 -0.4225
   23MOL0     H 3167   6.554  -0.083  10.882  1.0203 -1.2537 -0.0129
   23MOL0     H 3168   6.725  -0.045  10.625  2.0203  1.2990  0.5129
   23MOL0     H 3169   6.706  -0.200  10.702  0.9091 -1.1465 -0.7461
   23MOL0     H 3170   7.044   0.021  10.870  1.4458  1.1940 -3.5763
   23MOL0     H 3171   6.033   0.064  10.557 -1.8739 -2.0967  1.3290
   23MOL0     H 3172   5.723   0.154  10.663 -0.6388 -2.0192 -1.0241
   23MOL0     H 3173   5.721   0.268  10.519  0.9774  0.1999 -0.5152
   23MOL0     H 3174   5.799   0.108  10.507 -1.9349 -1.0492  0.6572
   24MOL0     O 3175   5.170   0.249   9.146 -0.0249 -0.1360  0.3682
   24MOL0     C 3176   5.093   0.322   9.203  0.1420 -0.1252 -0.5661
   24MOL0     O 3177   5.133   0.438   9.273  0.1957  0.3587 -0.3811
   24MOL0     C 3178   5.263   0.486   9.267 -0.1805 -0.8155 -0.1272
   24MOL0     C 3179   5.283   0.620   9.219  0.1219  0.3088 -0.0396
   24MOL0     C 3180   5.412   0.670   9.209 -0.1652  0.3169 -0.2048
   24MOL0     C 3181   5.529   0.595   9.250  0.4299 -0.6771  0.7395
   24MOL0     O 3182   5.643   0.656   9.212 -0.4182  0.2960  0.1449
   24MOL0     C 3183   5.762   0.604   9.278 -0.0607  0.1114 -0.0244
   24MOL0     C 3184   5.795   0.671   9.413 -0.0742 -0.6655  0.1989
   24MOL0     C 3185   5.923   0.629   9.484 -0.2234 -0.5766  0.8640
   24MOL0     C 3186   5.904   0.509   9.570  0.2303  0.3230  0.1895
   24MOL0     C 3187   6.042   0.447   9.619  0.3556  0.4496  0.6359
   24MOL0     C 3188   6.030   0.293   9.602 -0.3556 -0.5971  0.0345
   24MOL0     C 3189   6.125   0.226   9.691  0.4451  0.1794  0.5152
   24MOL0     C 3190   6.270   0.231   9.640  0.6529 -0.4980  1.4027
   24MOL0     N 3191   6.327   0.358   9.674  0.2217 -0.1141 -0.2540
   24MOL0     C 3192   6.394   0.436   9.581 -0.7482 -0.2137  0.3152
   24MOL0     C 3193   6.477   0.516   9.654 -0.3279 -0.3075 -0.0237
   24MOL0     C 3194   6.585   0.607   9.613 -0.1681 -0.2457 -0.7285
   24MOL0     C 3195   6.537   0.751   9.616 -0.8933 -0.6363  0.3663
   24MOL0     C 3196   6.508   0.809   9.754 -0.2220 -0.3594 -0.5790
   24MOL0     C 3197   6.637   0.826   9.836  0.4883  0.3500  0.4417
   24MOL0     O 3198   6.739   0.903   9.768 -0.0442 -0.2654  0.0471
   24MOL0     C 3199   6.871   0.891   9.806  0.1812  0.5013 -0.2138
   24MOL0     C 3200   6.939   1.004   9.802 -0.0571  0.1143 -0.2941
   24MOL0     C 3201   7.073   1.005   9.821  0.2292 -1.8168  0.1617
   24MOL0     C 3202   7.147   1.129   9.799 -0.7451 -0.0615 -0.1147
   24MOL0     C 3203   7.138   0.889   9.851 -1.0960 -0.0030 -0.4227
   24MOL0     C 3204   7.287   0.879   9.874  0.1256  0.4133 -0.3299
   24MOL0     O 3205   7.333   0.800   9.980  0.0018 -0.0682 -0.0352
   24MOL0     C 3206   7.468   0.774  10.002 -0.9521  1.0799 -0.0221
   24MOL0     C 3207   7.551   0.729   9.898  1.0760 -0.2120 -0.1743
   24MOL0     C 3208   7.679   0.682   9.923 -1.2036  0.5168 -0.0316
   24MOL0     C 3209   7.729   0.680  10.060 -0.3097 -0.5649 -0.2978
   24MOL0     O 3210   7.851   0.631  10.076 -0.5573  0.6299 -0.5514
   24MOL0     C 3211   7.896   0.606  10.210 -0.6200  0.2775  0.0795
   24MOL0     C 3212   8.029   0.522  10.214 -0.1646  0.6437 -0.2038
   24MOL0     C 3213   8.135   0.596  10.128  0.7041  0.0004 -0.4362
   24MOL0     C 3214   8.251   0.488  10.125 -0.5144  0.4111  0.2132
   24MOL0     C 3215   8.385   0.562  10.098 -0.0023  0.3301 -0.2357
   24MOL0     C 3216   8.391   0.659   9.981  0.2812 -0.4290  0.4386
   24MOL0     C 3217   8.525   0.666   9.922  0.5583 -1.8519  0.0132
   24MOL0     C 3218   8.542   0.766   9.809  0.1161 -0.7105  0.3652
   24MOL0    Cl 3219   8.509   0.931   9.850 -0.1656 -0.9224  0.0533
   24MOL0     C 3220   7.647   0.729  10.165  0.4313 -0.0063  0.3351
   24MOL0     C 3221   7.516   0.777  10.133 -0.2280 -0.3824  0.7925
   24MOL0     O 3222   7.353   0.935   9.790 -0.1238 -0.3206  0.1016
   24MOL0     C 3223   7.066   0.768   9.867  0.4413  0.2185  0.1867
   24MOL0     C 3224   6.924   0.772   9.846  0.3658 -0.1737 -0.5594
   24MOL0     N 3225   6.461   0.490   9.790 -0.1706  0.1318 -0.5205
   24MOL0     N 3226   6.364   0.399   9.805  0.4433  0.9396  0.4636
   24MOL0     C 3227   5.514   0.466   9.296  0.5685 -0.0422  0.9511
   24MOL0     C 3228   5.382   0.423   9.318  0.0277 -0.0025  0.4988
   24MOL0     C 3229   4.958   0.265   9.234  0.1164 -0.3501  0.5843
   24MOL0     C 3230   4.898   0.306   9.357  0.6715 -0.0488  0.5789
   24MOL0     C 3231   4.768   0.278   9.399 -0.1273  0.6776 -0.6874
   24MOL0     C 3232   4.699   0.190   9.317  1.4603  0.3090 -0.2496
   24MOL0     O 3233   4.568   0.181   9.364 -0.6765 -0.0887  0.0320
   24MOL0     C 3234   4.475   0.103   9.294  0.1670 -0.8036  0.5217
   24MOL0     C 3235   4.330   0.142   9.337 -0.0023 -0.7415  0.3138
   24MOL0     C 3236   4.225   0.077   9.235  0.1097 -0.4763 -0.0702
   24MOL0     C 3237   4.084   0.089   9.288 -0.6673 -0.3424  0.0369
   24MOL0     C 3238   4.021   0.215   9.265 -1.2292 -0.3789 -0.0641
   24MOL0     C 3239   3.966   0.325   9.235 -0.3214 -0.6052  0.0769
   24MOL0     C 3240   4.757   0.128   9.209 -0.7965  0.0679  0.0510
   24MOL0     C 3241   4.884   0.176   9.161  0.2085  0.2321  0.5463
   24MOL0     C 3242   4.937   0.125   9.028  0.4130 -0.2565 -0.0686
   24MOL0     H 3243   5.204   0.687   9.186 -0.9632 -1.0992 -0.4188
   24MOL0     H 3244   5.425   0.769   9.167 -2.5330  0.1669 -1.4619
   24MOL0     H 3245   5.853   0.622   9.220  2.1028 -0.5183  2.9353
   24MOL0     H 3246   5.770   0.496   9.294  2.2981  0.2646  0.2781
   24MOL0     H 3247   5.801   0.777   9.390  0.9777 -1.1087 -1.7571
   24MOL0     H 3248   5.711   0.656   9.481 -0.9872 -1.2266 -1.0160
   24MOL0     H 3249   5.992   0.624   9.399  0.8440  1.4325  1.5416
   24MOL0     H 3250   5.966   0.715   9.537  1.9495 -1.8428  1.2489
   24MOL0     H 3251   5.843   0.534   9.657  1.7555  0.5710  1.2358
   24MOL0     H 3252   5.850   0.441   9.503 -1.7336 -0.2982  2.2766
   24MOL0     H 3253   6.078   0.482   9.716  2.3784 -0.1613  0.1495
   24MOL0     H 3254   6.127   0.479   9.559 -0.0695  3.1250  1.3291
   24MOL0     H 3255   5.926   0.265   9.623 -1.4995  1.0682 -2.7768
   24MOL0     H 3256   6.047   0.256   9.500 -2.5052 -0.3622 -0.4580
   24MOL0     H 3257   6.095   0.121   9.690  1.6276 -0.1755  0.5353
   24MOL0     H 3258   6.130   0.261   9.794  0.5500 -0.0260  0.5793
   24MOL0     H 3259   6.333   0.153   9.682 -0.1687 -0.7484  2.1869
   24MOL0     H 3260   6.275   0.224   9.531  1.2743  0.3619  1.3616
   24MOL0     H 3261   6.396   0.430   9.473 -3.0471 -0.7558  0.2582
   24MOL0     H 3262   6.623   0.581   9.514  0.7759  0.0059 -0.4509
   24MOL0     H 3263   6.670   0.596   9.682 -1.0084  1.8483  0.7599
   24MOL0     H 3264   6.620   0.806   9.571  0.8306 -3.2262  0.1001
   24MOL0     H 3265   6.448   0.772   9.556  0.2725 -2.7231 -2.2928
   24MOL0     H 3266   6.466   0.909   9.740  2.5787  0.8653 -0.8481
   24MOL0     H 3267   6.427   0.749   9.795 -0.6621 -0.0796 -1.0186
   24MOL0     H 3268   6.606   0.874   9.929 -1.3965  1.8219 -0.8646
   24MOL0     H 3269   6.683   0.733   9.871  1.8405  0.6148 -0.5543
   24MOL0     H 3270   6.881   1.096   9.803  0.3273  0.4029  2.1330
   24MOL0     H 3271   7.080   1.215   9.795 -0.2475  0.2928 -4.1264
   24MOL0     H 3272   7.205   1.128   9.707 -0.0412  0.4990  0.3081
   24MOL0     H 3273   7.215   1.140   9.885 -0.1888 -1.6040 -0.3137
   24MOL0     H 3274   7.502   0.714   9.802  0.1337 -0.0483  0.2696
   24MOL0     H 3275   7.734   0.628   9.846 -3.3614 -3.1347  0.7436
   24MOL0     H 3276   7.913   0.706  10.251  1.1804 -0.0514  0.2124
   24MOL0     H 3277   7.821   0.564  10.277 -0.2369  2.2378  1.8731
   24MOL0     H 3278   8.054   0.516  10.320  0.4838  1.4361 -0.3056
   24MOL0     H 3279   8.004   0.425  10.172  1.3487  0.1191  0.0615
   24MOL0     H 3280   8.163   0.691  10.174 -2.7425  2.0552 -2.1257
   24MOL0     H 3281   8.103   0.631  10.030  0.5837 -0.5680 -0.6059
   24MOL0     H 3282   8.239   0.416  10.044  2.5861  1.3859 -1.2686
   24MOL0     H 3283   8.261   0.431  10.218 -2.1518  0.3729  0.4056
   24MOL0     H 3284   8.399   0.613  10.194  1.4717 -0.9965  0.2991
   24MOL0     H 3285   8.461   0.484  10.087 -0.4910  0.1444 -3.1349
   24MOL0     H 3286   8.364   0.760  10.014 -0.2570 -0.4743  0.1306
   24MOL0     H 3287   8.317   0.634   9.906  1.3402  0.0117 -0.7927
   24MOL0     H 3288   8.543   0.568   9.876 -1.0548 -2.3475  0.3753
   24MOL0     H 3289   8.607   0.668   9.994  1.2902 -0.7936 -0.8101
   24MOL0     H 3290   8.489   0.738   9.717  1.6730 -0.9973 -0.4821
   24MOL0     H 3291   8.645   0.765   9.771  0.0096  0.8087 -0.0578
   24MOL0     H 3292   7.682   0.745  10.266  0.2844  2.8967  0.0024
   24MOL0     H 3293   7.447   0.805  10.211  0.1054  0.2296  0.8734
   24MOL0     H 3294   7.114   0.675   9.897 -0.9467 -0.3930  0.6069
   24MOL0     H 3295   6.864   0.685   9.868  1.9519 -1.2151 -0.1722
   24MOL0     H 3296   5.594   0.394   9.307  0.0768 -0.6118  0.8082
   24MOL0     H 3297   5.373   0.322   9.357 -2.0293  0.0199  0.1775
   24MOL0     H 3298   4.955   0.364   9.428  0.6707  1.9912 -0.9803
   24MOL0     H 3299   4.724   0.317   9.490  0.7504 -1.8710  0.9336
   24MOL0     H 3300   4.485   0.120   9.186  0.6389 -1.8284  0.4010
   24MOL0     H 3301   4.480  -0.005   9.308 -2.4050 -1.1208 -0.4138
   24MOL0     H 3302   4.323   0.251   9.338 -0.4539 -0.7683  0.2298
   24MOL0     H 3303   4.314   0.101   9.437  0.3415  1.1596  1.1870
   24MOL0     H 3304   4.241   0.128   9.140  1.2273  1.2717  1.0016
   24MOL0     H 3305   4.259  -0.025   9.213  1.8053  0.0813 -0.2065
   24MOL0     H 3306   4.072   0.055   9.392  1.3755 -0.5752  0.2389
   24MOL0     H 3307   4.016   0.016   9.241 -1.2780 -0.1280  0.5640
   24MOL0     H 3308   3.914   0.413   9.204 -0.0395 -0.8183 -1.0555
   24MOL0     H 3309   4.706   0.056   9.146 -1.0058 -0.2488  0.5831
   24MOL0     H 3310   4.863   0.083   8.959  1.0577  0.8061 -1.4644
   24MOL0     H 3311   4.983   0.210   8.976 -1.5281  1.1024  0.3271
   24MOL0     H 3312   5.013   0.050   9.051 -0.4290 -2.2725 -3.2065
   25MOL0     O 3313  10.205   8.391   3.680  0.0293  0.0098 -0.6694
   25MOL0     C 3314  10.219   8.502   3.723 -0.4522 -0.8699  0.1981
   25MOL0     O 3315  10.331   8.555   3.772 -0.2625  0.0398  0.0625
   25MOL0     C 3316  10.450   8.491   3.756  0.1291  0.2170  0.0691
   25MOL0     C 3317  10.518   8.419   3.857 -0.3429  0.3298 -0.7150
   25MOL0     C 3318  10.636   8.357   3.835  0.7024  0.6689 -0.1149
   25MOL0     C 3319  10.692   8.348   3.706 -0.5263  0.2490 -0.0508
   25MOL0     O 3320  10.801   8.262   3.703 -0.2730 -0.0886 -0.3374
   25MOL0     C 3321  10.865   8.246   3.573 -0.1787 -0.0293  0.5261
   25MOL0     C 3322  10.996   8.175   3.586  0.3092 -0.1295 -0.6769
   25MOL0     C 3323  11.103   8.273   3.631  0.8820  0.7200  0.6981
   25MOL0     C 3324  11.244   8.204   3.629 -0.0823  0.4906 -0.5879
   25MOL0     C 3325  11.355   8.298   3.669 -0.2530 -0.0517  0.2863
   25MOL0     C 3326  11.403   8.401   3.561 -1.2961 -0.2096 -0.3900
   25MOL0     C 3327  11.505   8.496   3.628  0.1517  0.1938 -0.1732
   25MOL0     C 3328  11.571   8.603   3.536 -0.4341 -0.5734 -0.3776
   25MOL0     N 3329  11.676   8.555   3.436  0.6138 -1.0623  0.4108
   25MOL0     C 3330  11.802   8.510   3.460 -0.3318 -0.1143 -1.0835
   25MOL0     C 3331  11.868   8.499   3.342  0.1596  0.0302 -1.0408
   25MOL0     C 3332  12.006   8.459   3.330 -0.0398  0.6487  0.0746
   25MOL0     C 3333  12.100   8.585   3.334 -0.4110 -0.1801 -0.0999
   25MOL0     C 3334  12.121   8.656   3.202  0.2533  0.4780  0.7324
   25MOL0     C 3335  12.195   8.787   3.214 -0.8297 -1.3470 -0.0587
   25MOL0     O 3336  12.332   8.776   3.233  0.3766 -0.7639  0.2075
   25MOL0     C 3337  12.405   8.748   3.123 -0.4172 -0.2937 -0.1634
   25MOL0     C 3338  12.352   8.731   2.994  0.5531  0.9006  0.0349
   25MOL0     C 3339  12.430   8.701   2.883  0.6048 -0.3003 -0.5452
   25MOL0     C 3340  12.357   8.679   2.753  1.1782 -0.5422  0.2606
   25MOL0     C 3341  12.567   8.687   2.895  0.6980  0.6996  0.5623
   25MOL0     C 3342  12.671   8.644   2.790 -0.2696  0.2384 -0.4574
   25MOL0     O 3343  12.790   8.595   2.835  1.6135  0.1713  0.3033
   25MOL0     C 3344  12.889   8.551   2.749  0.3396  0.0311  0.2928
   25MOL0     C 3345  13.006   8.528   2.817 -0.9030 -0.1763  0.4436
   25MOL0     C 3346  13.120   8.484   2.751 -0.0542 -0.3301  0.1729
   25MOL0     C 3347  13.121   8.455   2.610  0.3449 -0.4169 -0.1865
   25MOL0     O 3348  13.235   8.400   2.553 -0.2121  0.0124 -0.1684
   25MOL0     C 3349  13.227   8.375   2.414 -0.0224  0.2001  0.1230
   25MOL0     C 3350  13.363   8.333   2.362  0.5034  0.0558 -0.0310
   25MOL0     C 3351  13.458   8.454   2.359  0.1974  0.0068  0.3341
   25MOL0     C 3352  13.598   8.410   2.322  0.4359 -0.0266 -0.0423
   25MOL0     C 3353  13.694   8.507   2.386  0.6854  0.3405 -0.0487
   25MOL0     C 3354  13.842   8.491   2.348  0.6396  0.7357 -0.0826
   25MOL0     C 3355  13.923   8.584   2.430 -0.2520 -0.5387 -0.5152
   25MOL0     C 3356  13.985   8.526   2.555 -0.4161 -0.2611  0.0387
   25MOL0    Cl 3357  14.084   8.389   2.524 -0.1721 -0.3167 -0.1539
   25MOL0     C 3358  13.001   8.489   2.541 -0.2093  0.9592 -0.0903
   25MOL0     C 3359  12.885   8.528   2.607  0.1189  0.0245 -0.2193
   25MOL0     O 3360  12.630   8.645   2.676  0.6499 -0.1845 -0.2824
   25MOL0     C 3361  12.622   8.724   3.021  0.3141  0.2488 -0.0675
   25MOL0     C 3362  12.543   8.759   3.128  0.4383  0.1549 -0.2785
   25MOL0     N 3363  11.774   8.525   3.243  0.6467  1.0315 -0.5138
   25MOL0     N 3364  11.663   8.565   3.295  0.1241  0.0805  1.0509
   25MOL0     C 3365  10.628   8.413   3.602 -0.1446 -0.4514  0.1730
   25MOL0     C 3366  10.515   8.494   3.629 -0.9873  0.1324  0.4461
   25MOL0     C 3367  10.104   8.596   3.714  0.0056  0.1158  0.1964
   25MOL0     C 3368  10.030   8.626   3.824 -0.7942  0.5989 -0.3662
   25MOL0     C 3369   9.924   8.715   3.823 -0.2193  0.4875  0.0135
   25MOL0     C 3370   9.883   8.760   3.699  1.2494 -1.4051  0.1703
   25MOL0     O 3371   9.784   8.852   3.693  0.1839 -0.3159 -0.0074
   25MOL0     C 3372   9.660   8.800   3.738  0.1604  0.3292 -0.4422
   25MOL0     C 3373   9.544   8.841   3.647 -0.7552  0.1534  0.1616
   25MOL0     C 3374   9.556   8.793   3.502  0.6600  0.2964 -0.1593
   25MOL0     C 3375   9.445   8.857   3.416  0.4591 -0.4685 -0.6565
   25MOL0     C 3376   9.309   8.818   3.447 -0.5640  0.6111 -0.0967
   25MOL0     C 3377   9.199   8.776   3.465  0.1066 -0.8409 -0.0489
   25MOL0     C 3378   9.956   8.737   3.583  0.2282  0.2983 -0.1414
   25MOL0     C 3379  10.065   8.646   3.592  0.0601  0.2110  0.2433
   25MOL0     C 3380  10.144   8.624   3.466 -0.9753  0.2450  0.4676
   25MOL0     H 3381  10.467   8.405   3.952 -0.2117 -1.6511 -0.8989
   25MOL0     H 3382  10.674   8.291   3.912 -0.3439 -0.0191 -0.1788
   25MOL0     H 3383  10.877   8.344   3.526 -0.3808  0.3754  1.3151
   25MOL0     H 3384  10.800   8.183   3.512 -0.8836 -0.3324  1.5607
   25MOL0     H 3385  10.970   8.097   3.657 -0.4599  1.1577  0.5103
   25MOL0     H 3386  11.036   8.132   3.494 -0.1823  3.7101 -2.9208
   25MOL0     H 3387  11.102   8.356   3.560 -2.6541 -0.6899 -1.0937
   25MOL0     H 3388  11.087   8.308   3.733 -0.0992  3.3263 -0.2754
   25MOL0     H 3389  11.232   8.119   3.697 -2.9418 -0.1211 -1.6908
   25MOL0     H 3390  11.276   8.165   3.532  3.6176  0.2629  0.5760
   25MOL0     H 3391  11.444   8.241   3.700  0.8094  1.0692 -0.5973
   25MOL0     H 3392  11.324   8.352   3.759  0.4963 -2.5674  2.1974
   25MOL0     H 3393  11.454   8.364   3.471 -0.7465  0.0964 -0.2108
   25MOL0     H 3394  11.316   8.461   3.533 -1.2740  1.9320  3.4475
   25MOL0     H 3395  11.591   8.441   3.669  0.9106  0.4768 -1.3188
   25MOL0     H 3396  11.463   8.547   3.714  0.2951 -4.7734  3.2474
   25MOL0     H 3397  11.485   8.658   3.497 -0.1521  0.3141  0.2209
   25MOL0     H 3398  11.622   8.668   3.607 -0.1323 -0.5619 -0.6004
   25MOL0     H 3399  11.847   8.514   3.558 -1.7694  1.6796 -0.4492
   25MOL0     H 3400  12.016   8.411   3.232 -0.0985  0.1517  0.3056
   25MOL0     H 3401  12.035   8.390   3.411 -2.0774  1.6316  1.7627
   25MOL0     H 3402  12.055   8.658   3.401 -0.0677 -1.0322  1.0894
   25MOL0     H 3403  12.204   8.567   3.365 -0.2673  2.9052  1.6025
   25MOL0     H 3404  12.167   8.585   3.133 -0.6871  0.8668 -0.3389
   25MOL0     H 3405  12.021   8.676   3.163 -0.5583 -0.4437  2.2164
   25MOL0     H 3406  12.170   8.852   3.130  2.6315  0.0153 -0.2083
   25MOL0     H 3407  12.146   8.837   3.299  0.0110 -0.7238  0.0803
   25MOL0     H 3408  12.248   8.713   2.971  1.7009 -2.9137 -3.4371
   25MOL0     H 3409  12.409   8.729   2.671  2.1903 -0.2133  1.0899
   25MOL0     H 3410  12.256   8.719   2.769  1.5143  0.6290 -0.4218
   25MOL0     H 3411  12.360   8.571   2.736  2.4540 -1.1316  3.5151
   25MOL0     H 3412  13.005   8.542   2.925 -4.4384 -1.9467  0.7875
   25MOL0     H 3413  13.211   8.468   2.809  0.9212  0.6813 -1.0298
   25MOL0     H 3414  13.147   8.305   2.390 -2.3602  2.2859  1.3016
   25MOL0     H 3415  13.210   8.475   2.372  0.2065  0.1735 -0.0320
   25MOL0     H 3416  13.404   8.254   2.426  2.6197  0.3873 -0.8792
   25MOL0     H 3417  13.359   8.281   2.266 -1.7280  0.6325 -0.3079
   25MOL0     H 3418  13.461   8.489   2.463  2.7689 -0.7799  0.5832
   25MOL0     H 3419  13.430   8.531   2.287 -0.7284  0.7387  1.4434
   25MOL0     H 3420  13.624   8.414   2.216  2.8015  0.3966  0.5142
   25MOL0     H 3421  13.606   8.310   2.367 -1.8473  0.0392  0.6860
   25MOL0     H 3422  13.665   8.610   2.363 -0.6224  0.6250  2.4759
   25MOL0     H 3423  13.688   8.498   2.495  2.4946  2.1573  0.2693
   25MOL0     H 3424  13.836   8.524   2.244 -0.7039  1.3803  0.1754
   25MOL0     H 3425  13.878   8.388   2.354  2.4211  1.2451 -1.3292
   25MOL0     H 3426  13.867   8.673   2.461 -1.0263 -1.3491  0.4583
   25MOL0     H 3427  14.008   8.617   2.369 -1.1464 -0.2799 -1.6629
   25MOL0     H 3428  13.921   8.494   2.637  0.5061 -1.1282  0.4396
   25MOL0     H 3429  14.054   8.598   2.599  1.4420 -2.1862  0.4410
   25MOL0     H 3430  12.995   8.465   2.435  5.2759 -0.3371 -0.3830
   25MOL0     H 3431  12.802   8.555   2.541  0.5325  1.6443 -0.1279
   25MOL0     H 3432  12.729   8.733   3.038 -0.2263  1.9613  3.3146
   25MOL0     H 3433  12.583   8.789   3.224 -1.5190  0.0801  0.6016
   25MOL0     H 3434  10.657   8.405   3.498 -0.2953 -2.7556  0.2681
   25MOL0     H 3435  10.470   8.544   3.543  0.0180  0.6513  0.2090
   25MOL0     H 3436  10.054   8.575   3.917  0.0878 -0.0410 -0.9299
   25MOL0     H 3437   9.868   8.735   3.915 -1.8881 -1.0577 -0.6030
   25MOL0     H 3438   9.653   8.691   3.742 -1.0306  0.4278  0.9935
   25MOL0     H 3439   9.637   8.831   3.841 -1.7770 -3.2722  0.3763
   25MOL0     H 3440   9.529   8.949   3.644 -0.5401  0.1646 -0.7470
   25MOL0     H 3441   9.447   8.806   3.685 -0.8945  0.9007  0.5117
   25MOL0     H 3442   9.647   8.823   3.449  1.1547  2.0485  1.5482
   25MOL0     H 3443   9.550   8.684   3.495 -3.6877  0.3683 -0.1485
   25MOL0     H 3444   9.454   8.840   3.308 -1.5258  1.1433 -1.1399
   25MOL0     H 3445   9.448   8.966   3.423 -1.5545 -0.3099 -1.6034
   25MOL0     H 3446   9.092   8.769   3.466 -0.0455  0.7682 -1.1282
   25MOL0     H 3447   9.925   8.788   3.492 -5.3407 -1.0959  0.5808
   25MOL0     H 3448  10.100   8.536   3.418 -0.5300  0.9807 -1.3791
   25MOL0     H 3449  10.140   8.716   3.407  0.7063 -1.2848 -2.2512
   25MOL0     H 3450  10.250   8.601   3.485 -0.6687 -0.4843 -1.7753
   26MOL0     O 3451   7.121   5.290   1.009 -0.4481 -0.7693 -0.4542
   26MOL0     C 3452   7.221   5.331   0.954  0.5467  0.0127  0.4033
   26MOL0     O 3453   7.218   5.426   0.856 -0.1894 -0.1621  0.2904
   26MOL0     C 3454   7.087   5.454   0.817  0.0772  0.5365  0.4768
   26MOL0     C 3455   7.005   5.371   0.739 -0.0914  0.3519  0.8660
   26MOL0     C 3456   6.876   5.414   0.697 -0.4097 -0.5514  0.0332
   26MOL0     C 3457   6.822   5.545   0.724 -0.5617  0.7857 -0.0754
   26MOL0     O 3458   6.702   5.575   0.678 -0.4150  0.2219  0.5213
   26MOL0     C 3459   6.642   5.700   0.721  0.9576  0.2525 -0.9450
   26MOL0     C 3460   6.523   5.728   0.633 -0.0271  0.4379  0.6214
   26MOL0     C 3461   6.411   5.637   0.682  0.3688 -0.2477  0.3267
   26MOL0     C 3462   6.273   5.696   0.637  0.3067  0.4677 -1.1099
   26MOL0     C 3463   6.155   5.609   0.687  0.1979 -0.8268  0.9702
   26MOL0     C 3464   6.026   5.697   0.693  0.7474 -0.2134  0.8246
   26MOL0     C 3465   5.910   5.604   0.728  0.2900  0.0075  0.4007
   26MOL0     C 3466   5.807   5.660   0.833  0.0101 -0.2729 -0.2467
   26MOL0     N 3467   5.749   5.792   0.790  0.0412 -0.2722  0.5146
   26MOL0     C 3468   5.700   5.807   0.660 -0.5533 -0.1542  1.0264
   26MOL0     C 3469   5.694   5.936   0.646  0.4500  0.6082 -1.1986
   26MOL0     C 3470   5.663   6.004   0.507  0.6865  0.3419 -0.0901
   26MOL0     C 3471   5.744   5.962   0.379 -0.0822 -0.6379 -0.5341
   26MOL0     C 3472   5.893   5.984   0.408 -0.5769 -0.3187  0.1639
   26MOL0     C 3473   5.939   6.125   0.403  0.2914  0.5186  0.0518
   26MOL0     O 3474   6.083   6.135   0.414 -0.5577 -1.1420  0.1982
   26MOL0     C 3475   6.153   6.130   0.531  0.3517  0.5222 -0.4670
   26MOL0     C 3476   6.100   6.104   0.659  0.3895  0.2600 -0.2496
   26MOL0     C 3477   6.180   6.084   0.771  0.3045  0.3140  1.2888
   26MOL0     C 3478   6.111   6.059   0.898 -0.4537 -0.2165 -0.0515
   26MOL0     C 3479   6.320   6.097   0.754  0.2964 -0.1706 -0.3686
   26MOL0     C 3480   6.412   6.078   0.867 -0.3993 -0.3701  0.1598
   26MOL0     O 3481   6.543   6.032   0.839  0.2789 -0.4596  0.4675
   26MOL0     C 3482   6.624   6.014   0.950  0.5301  0.5001  0.5222
   26MOL0     C 3483   6.581   5.940   1.070  0.1727  0.0366  0.6425
   26MOL0     C 3484   6.673   5.923   1.170  0.5811  0.2722  0.5394
   26MOL0     C 3485   6.805   5.968   1.163  0.1898 -0.8968  0.2210
   26MOL0     O 3486   6.891   5.974   1.265  0.0511  0.0642  0.0099
   26MOL0     C 3487   6.859   5.901   1.382 -0.4156 -1.5376 -0.6822
   26MOL0     C 3488   6.980   5.920   1.479 -0.2189  0.1757  0.2327
   26MOL0     C 3489   7.120   5.937   1.422 -0.8548 -0.6667  0.2942
   26MOL0     C 3490   7.170   5.814   1.359 -0.0098  0.0941 -0.4013
   26MOL0     C 3491   7.294   5.841   1.266 -0.8370  0.0630 -0.6541
   26MOL0     C 3492   7.333   5.718   1.186  0.0006 -0.1260  1.5226
   26MOL0     C 3493   7.421   5.746   1.066  0.3455 -0.1357  0.0687
   26MOL0     C 3494   7.565   5.787   1.090 -0.7309 -0.1027  0.2534
   26MOL0    Cl 3495   7.664   5.636   1.122  0.0248 -0.2198  0.2419
   26MOL0     C 3496   6.847   6.035   1.044  0.2139 -0.4258  0.3713
   26MOL0     C 3497   6.762   6.054   0.935  0.5629 -0.2341 -0.1990
   26MOL0     O 3498   6.374   6.097   0.978 -0.1319  0.2895 -0.2947
   26MOL0     C 3499   6.371   6.124   0.623  0.5824 -0.4071  0.6451
   26MOL0     C 3500   6.287   6.138   0.517 -0.4328  0.2946  0.1028
   26MOL0     N 3501   5.732   6.010   0.760  0.4503 -0.4845 -0.3836
   26MOL0     N 3502   5.773   5.919   0.845  0.4983 -0.2414  0.1847
   26MOL0     C 3503   6.915   5.630   0.797  0.7907  0.5221 -0.2122
   26MOL0     C 3504   7.040   5.580   0.847 -0.6079  0.3673  0.3137
   26MOL0     C 3505   7.359   5.283   0.988  0.2563  0.7468  0.5971
   26MOL0     C 3506   7.473   5.355   0.945 -0.3409  0.1186  0.8386
   26MOL0     C 3507   7.603   5.308   0.962 -0.3679  0.2728 -0.0443
   26MOL0     C 3508   7.627   5.198   1.053 -0.1592  0.0429 -0.1549
   26MOL0     O 3509   7.748   5.143   1.084 -0.0101 -0.2340  0.1481
   26MOL0     C 3510   7.861   5.221   1.052  0.0713 -0.2983  0.3631
   26MOL0     C 3511   7.982   5.177   1.133 -0.0124  0.2208  0.6645
   26MOL0     C 3512   8.115   5.235   1.087 -0.1871 -0.2195  0.1885
   26MOL0     C 3513   8.236   5.186   1.172  0.4189  0.2715  0.4501
   26MOL0     C 3514   8.262   5.263   1.292  0.1138 -0.2569 -0.1562
   26MOL0     C 3515   8.279   5.319   1.400 -0.1363 -0.0830  0.0306
   26MOL0     C 3516   7.518   5.137   1.107  1.3087  0.2662  0.4664
   26MOL0     C 3517   7.383   5.180   1.082  0.5607  0.3289 -0.1437
   26MOL0     C 3518   7.278   5.103   1.164 -1.2412 -0.1636  0.5157
   26MOL0     H 3519   7.054   5.276   0.720  0.5639  0.8966 -0.2600
   26MOL0     H 3520   6.811   5.346   0.643  1.5611 -2.4172 -0.1276
   26MOL0     H 3521   6.720   5.777   0.714  0.0717  1.6204  2.3814
   26MOL0     H 3522   6.615   5.698   0.827  0.4206 -1.8729 -1.0830
   26MOL0     H 3523   6.494   5.832   0.650 -1.4921  0.3903 -1.2901
   26MOL0     H 3524   6.549   5.717   0.527  0.7907  1.6346  0.6762
   26MOL0     H 3525   6.431   5.539   0.638  0.4492  1.2809 -3.3996
   26MOL0     H 3526   6.417   5.630   0.791  2.2173 -0.2869  0.2587
   26MOL0     H 3527   6.270   5.795   0.684  0.6059 -0.9603  2.2195
   26MOL0     H 3528   6.265   5.696   0.528 -0.4549 -0.6409 -1.0662
   26MOL0     H 3529   6.157   5.561   0.785 -3.9713 -0.2320  1.5251
   26MOL0     H 3530   6.145   5.533   0.609 -0.7920  1.1435 -0.9412
   26MOL0     H 3531   6.034   5.780   0.763  0.3949  2.4085 -2.0096
   26MOL0     H 3532   5.988   5.735   0.597  0.3441 -0.9241  0.6988
   26MOL0     H 3533   5.936   5.510   0.779  1.3556 -0.0852 -0.2868
   26MOL0     H 3534   5.866   5.572   0.634 -1.1369  0.3235  0.9326
   26MOL0     H 3535   5.730   5.587   0.858  1.7691 -1.1439  3.2746
   26MOL0     H 3536   5.859   5.673   0.929  1.5134 -1.5980 -0.8404
   26MOL0     H 3537   5.679   5.730   0.585 -1.7368  0.9576  0.1701
   26MOL0     H 3538   5.661   6.110   0.534  0.8797  0.0366  1.2437
   26MOL0     H 3539   5.560   5.982   0.480  0.0632  0.8634  1.7196
   26MOL0     H 3540   5.720   5.858   0.357  0.1706 -0.6635 -0.6887
   26MOL0     H 3541   5.713   6.011   0.286  0.7608 -0.8091 -0.9150
   26MOL0     H 3542   5.913   5.935   0.504 -0.1156  0.3919  0.4344
   26MOL0     H 3543   5.957   5.929   0.338  2.7496  1.3211  1.6699
   26MOL0     H 3544   5.904   6.173   0.310 -0.2804  1.7466  0.8802
   26MOL0     H 3545   5.887   6.183   0.480  1.2277 -0.2890  1.3269
   26MOL0     H 3546   5.993   6.095   0.678 -0.1861  0.9743 -2.7125
   26MOL0     H 3547   6.005   6.041   0.881 -0.5274 -1.4121  1.5293
   26MOL0     H 3548   6.132   6.147   0.959  0.5012  0.9084 -1.9052
   26MOL0     H 3549   6.142   5.970   0.953  1.3409 -1.5873 -3.0419
   26MOL0     H 3550   6.482   5.897   1.063 -0.5407  1.5753  0.7478
   26MOL0     H 3551   6.643   5.876   1.264 -2.8935  2.5905  0.7590
   26MOL0     H 3552   6.767   5.941   1.424 -0.8708 -2.4007 -0.8378
   26MOL0     H 3553   6.841   5.793   1.374 -0.2814 -1.7865  1.7483
   26MOL0     H 3554   6.971   6.011   1.539 -0.8545 -0.3665  0.9822
   26MOL0     H 3555   6.990   5.839   1.552  0.3399  2.6855  3.1606
   26MOL0     H 3556   7.185   5.965   1.506 -2.1426  1.7181  0.5650
   26MOL0     H 3557   7.125   6.017   1.348  0.0697 -0.0682  0.9775
   26MOL0     H 3558   7.083   5.769   1.310 -1.6194  1.2086  1.2319
   26MOL0     H 3559   7.204   5.729   1.418  2.1003 -1.5688 -3.7592
   26MOL0     H 3560   7.281   5.924   1.196 -1.8327 -1.0483 -1.8406
   26MOL0     H 3561   7.372   5.865   1.339 -1.8495  1.5775 -0.0158
   26MOL0     H 3562   7.241   5.670   1.150  0.3763 -1.3068  2.0905
   26MOL0     H 3563   7.383   5.656   1.261 -0.7328  1.0524  3.0214
   26MOL0     H 3564   7.367   5.818   1.004 -0.7964 -1.3969 -0.4526
   26MOL0     H 3565   7.421   5.655   1.006  1.3605 -1.6297  2.2165
   26MOL0     H 3566   7.578   5.853   1.176  0.6735  0.7870 -0.6026
   26MOL0     H 3567   7.603   5.834   0.999 -2.7260  1.2333  0.0519
   26MOL0     H 3568   6.946   6.078   1.046 -0.2861  0.9641 -1.5709
   26MOL0     H 3569   6.800   6.111   0.850  0.1350 -0.0578 -0.2759
   26MOL0     H 3570   6.477   6.140   0.612  0.4919  0.4778  0.9799
   26MOL0     H 3571   6.333   6.154   0.420  3.1590  1.6702  1.8567
   26MOL0     H 3572   6.891   5.734   0.818  0.6013  0.5390 -0.5023
   26MOL0     H 3573   7.090   5.648   0.915 -1.0818  1.1996 -0.1651
   26MOL0     H 3574   7.447   5.437   0.879 -1.6458  1.6600  3.1435
   26MOL0     H 3575   7.684   5.353   0.906  1.0249 -1.6943  0.2839
   26MOL0     H 3576   7.885   5.219   0.946  2.2871  2.6457  0.6748
   26MOL0     H 3577   7.844   5.324   1.085 -0.3240 -0.6348  1.2455
   26MOL0     H 3578   7.988   5.068   1.124 -0.6960  0.0648  1.7814
   26MOL0     H 3579   7.957   5.192   1.239 -0.2792  1.6914  0.4158
   26MOL0     H 3580   8.129   5.186   0.990 -0.5173 -0.7252  0.3926
   26MOL0     H 3581   8.108   5.344   1.073 -3.4068 -0.4989 -1.4597
   26MOL0     H 3582   8.328   5.176   1.113  0.3282 -1.3984  0.5559
   26MOL0     H 3583   8.214   5.081   1.190  0.5384  0.0566 -0.5920
   26MOL0     H 3584   8.286   5.345   1.503  2.4865 -0.6780  0.0835
   26MOL0     H 3585   7.539   5.051   1.171  2.1491  0.7397  0.8545
   26MOL0     H 3586   7.211   5.174   1.214 -0.6532 -0.7335  2.1679
   26MOL0     H 3587   7.222   5.035   1.098 -2.8353  1.7003 -0.1590
   26MOL0     H 3588   7.324   5.050   1.248 -1.5046  2.3981  2.3876
   27MOL0     O 3589   8.381   4.001  10.146  0.7248  0.1413 -0.3084
   27MOL0     C 3590   8.328   4.072  10.057 -1.1177 -0.1535 -0.7460
   27MOL0     O 3591   8.368   4.200  10.029 -0.3635  0.9425  0.3763
   27MOL0     C 3592   8.464   4.269  10.101  0.6639 -0.2312 -0.4061
   27MOL0     C 3593   8.451   4.404  10.080 -0.3723 -0.2171  0.1386
   27MOL0     C 3594   8.541   4.494  10.145  0.3285 -0.4244  0.6660
   27MOL0     C 3595   8.645   4.444  10.226  0.4605 -0.1500  0.5953
   27MOL0     O 3596   8.727   4.546  10.268  0.3960  0.5323  0.5100
   27MOL0     C 3597   8.864   4.507  10.288 -1.1346  0.0611  0.7825
   27MOL0     C 3598   8.954   4.618  10.325  0.3327 -0.4210  0.0716
   27MOL0     C 3599   9.096   4.626  10.253  0.5170 -0.9279  0.6668
   27MOL0     C 3600   9.191   4.742  10.307  0.4700  0.0217 -0.0451
   27MOL0     C 3601   9.337   4.717  10.249 -0.4026 -0.9139  0.2623
   27MOL0     C 3602   9.441   4.831  10.260 -0.3229  0.0988  0.4820
   27MOL0     C 3603   9.587   4.790  10.238  0.2764  0.5912 -0.5638
   27MOL0     C 3604   9.665   4.909  10.280 -1.1946  0.9345  0.0693
   27MOL0     N 3605   9.806   4.885  10.261 -1.3206 -0.0231 -0.6321
   27MOL0     C 3606   9.888   4.804  10.331 -0.2314  0.5449 -0.1246
   27MOL0     C 3607  10.012   4.833  10.279 -0.0535  0.5280 -0.6332
   27MOL0     C 3608  10.143   4.774  10.325 -0.1685 -0.2088 -0.4330
   27MOL0     C 3609  10.217   4.849  10.434  0.3657 -0.0385  0.2324
   27MOL0     C 3610  10.360   4.785  10.430 -0.3040 -0.7252  0.5877
   27MOL0     C 3611  10.454   4.852  10.529  0.2433 -0.3078  0.4724
   27MOL0     O 3612  10.584   4.812  10.485 -0.4869  0.0804 -0.4210
   27MOL0     C 3613  10.703   4.858  10.543  0.5090 -0.4190 -0.8310
   27MOL0     C 3614  10.707   4.964  10.632  0.7356 -0.9975  0.9062
   27MOL0     C 3615  10.827   4.998  10.695 -0.5194 -0.0200  0.4632
   27MOL0     C 3616  10.834   5.109  10.802  0.1248 -0.4012  0.6998
   27MOL0     C 3617  10.943   4.923  10.660  0.4146 -0.6708  0.5329
   27MOL0     C 3618  11.082   4.940  10.717  0.1851  0.4017  0.0600
   27MOL0     O 3619  11.102   5.062  10.768 -0.5400 -0.1024  0.9288
   27MOL0     C 3620  11.200   5.099  10.847  0.2053 -0.5457 -0.1435
   27MOL0     C 3621  11.191   5.231  10.892  0.5268  0.3644 -0.0241
   27MOL0     C 3622  11.282   5.295  10.985  0.3637 -0.7511 -0.4048
   27MOL0     C 3623  11.386   5.219  11.026  0.0526 -0.2892 -1.0286
   27MOL0     O 3624  11.478   5.271  11.110  0.3050 -0.8319 -0.2336
   27MOL0     C 3625  11.511   5.197  11.230 -0.0142  0.0610 -0.2508
   27MOL0     C 3626  11.570   5.299  11.333 -0.1682 -0.0737  1.0632
   27MOL0     C 3627  11.683   5.375  11.270 -0.4358  0.1989  0.8171
   27MOL0     C 3628  11.747   5.462  11.371 -0.3741 -0.0597 -1.9722
   27MOL0     C 3629  11.854   5.567  11.320  0.4290 -0.3954  0.2064
   27MOL0     C 3630  11.911   5.645  11.434  0.0782  0.1693 -0.0994
   27MOL0     C 3631  11.818   5.742  11.498  0.1606  0.9875  0.5928
   27MOL0     C 3632  11.893   5.865  11.535 -0.2647  0.6109 -0.1218
   27MOL0    Cl 3633  12.036   5.818  11.626 -0.0788 -0.2993  0.1619
   27MOL0     C 3634  11.400   5.086  10.984  0.1832 -0.2057  0.3333
   27MOL0     C 3635  11.306   5.023  10.897 -0.6168  0.6338 -0.3415
   27MOL0     O 3636  11.167   4.843  10.717  0.0001  0.7318 -0.0367
   27MOL0     C 3637  10.932   4.828  10.557 -0.0422  0.1466 -1.0689
   27MOL0     C 3638  10.812   4.798  10.497  0.2270  0.3478  0.5563
   27MOL0     N 3639   9.999   4.926  10.176 -0.2053  0.4659  0.1592
   27MOL0     N 3640   9.876   4.968  10.178 -0.7135  0.1879  0.6130
   27MOL0     C 3641   8.658   4.313  10.252  0.6857  0.5304 -0.1540
   27MOL0     C 3642   8.569   4.223  10.185  0.3347  0.1988  0.0866
   27MOL0     C 3643   8.204   4.018   9.989 -0.1206 -0.2027  0.4531
   27MOL0     C 3644   8.143   4.099   9.893 -0.1075 -0.0255 -0.0566
   27MOL0     C 3645   8.024   4.068   9.831 -0.4259 -0.7047 -0.8638
   27MOL0     C 3646   7.957   3.950   9.861  0.2995 -0.1219  0.8118
   27MOL0     O 3647   7.835   3.922   9.808  0.2241 -0.0368  0.1060
   27MOL0     C 3648   7.851   3.836   9.689  0.4329 -1.3827  0.1034
   27MOL0     C 3649   7.715   3.797   9.631  0.0008  0.2888  0.5906
   27MOL0     C 3650   7.740   3.723   9.510 -0.7147  0.1368  0.2379
   27MOL0     C 3651   7.760   3.571   9.533 -0.0392 -0.7240 -0.9187
   27MOL0     C 3652   7.773   3.496   9.407  0.2322 -0.1133 -0.3203
   27MOL0     C 3653   7.783   3.416   9.318  0.2427 -0.4388 -0.9532
   27MOL0     C 3654   8.022   3.868   9.946 -0.6375 -0.5563 -0.0156
   27MOL0     C 3655   8.135   3.896  10.022 -0.9634 -0.3248 -0.0592
   27MOL0     C 3656   8.176   3.794  10.120 -0.1861  0.2592 -0.2711
   27MOL0     H 3657   8.372   4.445  10.019  0.3571 -0.1777 -0.8022
   27MOL0     H 3658   8.531   4.600  10.126 -3.2837 -0.9158 -1.0268
   27MOL0     H 3659   8.906   4.469  10.194 -0.1205  1.2505  0.7348
   27MOL0     H 3660   8.863   4.423  10.358 -2.9685 -0.5989  0.0433
   27MOL0     H 3661   8.904   4.714  10.308  0.0796 -0.6880 -0.7215
   27MOL0     H 3662   8.973   4.602  10.431  0.8902 -1.2155 -0.1421
   27MOL0     H 3663   9.145   4.535  10.289 -0.7292 -1.7245  0.4179
   27MOL0     H 3664   9.088   4.643  10.145  0.7401 -0.2056  0.7630
   27MOL0     H 3665   9.145   4.834  10.270 -2.1599 -1.5444 -0.9441
   27MOL0     H 3666   9.193   4.740  10.416 -0.3142 -0.8568 -0.0376
   27MOL0     H 3667   9.326   4.697  10.142 -2.1983 -2.8780  0.7287
   27MOL0     H 3668   9.377   4.622  10.286  0.9055  0.1285  1.6563
   27MOL0     H 3669   9.418   4.916  10.195 -2.1848 -1.2946 -0.8207
   27MOL0     H 3670   9.432   4.864  10.364  0.7490 -2.7182  1.5624
   27MOL0     H 3671   9.605   4.762  10.133 -0.9852 -1.8833 -0.2126
   27MOL0     H 3672   9.606   4.696  10.290 -1.7303 -0.1155 -1.0105
   27MOL0     H 3673   9.640   4.984  10.205  0.2560 -0.1460 -1.5687
   27MOL0     H 3674   9.637   4.948  10.379 -3.0433  1.1713 -0.5027
   27MOL0     H 3675   9.870   4.736  10.413 -0.4899  0.9442  0.1550
   27MOL0     H 3676  10.205   4.739  10.242  1.6009  0.7266  0.4386
   27MOL0     H 3677  10.120   4.679  10.374  2.7393  0.8515  3.5557
   27MOL0     H 3678  10.214   4.955  10.406  2.9569  0.1775  0.5439
   27MOL0     H 3679  10.175   4.834  10.534 -1.7848  1.8882 -0.2778
   27MOL0     H 3680  10.354   4.680  10.457  1.9630 -1.3335 -0.9326
   27MOL0     H 3681  10.407   4.791  10.331 -2.7693  1.5393 -0.5870
   27MOL0     H 3682  10.437   4.958  10.507 -1.1094 -0.3604  1.1507
   27MOL0     H 3683  10.435   4.833  10.635 -0.0279 -0.4101  0.4079
   27MOL0     H 3684  10.620   5.024  10.658 -0.0667 -1.9305  0.4475
   27MOL0     H 3685  10.736   5.138  10.840 -0.1958 -0.4433 -0.0587
   27MOL0     H 3686  10.890   5.195  10.763  0.0896  0.9044  3.3507
   27MOL0     H 3687  10.889   5.082  10.892  1.4331 -0.8488 -0.1945
   27MOL0     H 3688  11.095   5.271  10.863  0.5406  1.7253  1.6714
   27MOL0     H 3689  11.268   5.397  11.019 -0.8243 -1.7731  2.4903
   27MOL0     H 3690  11.418   5.150  11.262  0.0039 -1.4336 -2.1854
   27MOL0     H 3691  11.585   5.120  11.203  1.0926  1.2217 -0.6528
   27MOL0     H 3692  11.490   5.363  11.371 -0.3026  0.5693 -0.2390
   27MOL0     H 3693  11.618   5.247  11.416  0.1266 -0.0608  0.9046
   27MOL0     H 3694  11.658   5.455  11.200  1.2198  1.7398  1.8684
   27MOL0     H 3695  11.753   5.305  11.223 -0.2185 -1.7493  3.7663
   27MOL0     H 3696  11.798   5.400  11.445 -0.6148  0.1622 -1.6216
   27MOL0     H 3697  11.673   5.522  11.424  1.2402 -0.3135  0.7385
   27MOL0     H 3698  11.929   5.508  11.265  1.3863  1.1286 -0.1855
   27MOL0     H 3699  11.806   5.633  11.247  0.8137  1.2423  1.3823
   27MOL0     H 3700  12.002   5.691  11.392  2.5227 -3.8072  0.3558
   27MOL0     H 3701  11.940   5.563  11.500 -0.7702 -1.3092 -1.5287
   27MOL0     H 3702  11.751   5.704  11.576  2.7611  0.5650  2.7960
   27MOL0     H 3703  11.754   5.778  11.418  1.4346 -2.9182 -2.5428
   27MOL0     H 3704  11.824   5.919  11.601 -1.6228  2.5652 -2.9459
   27MOL0     H 3705  11.916   5.928  11.449  0.3242 -1.1274 -1.2846
   27MOL0     H 3706  11.488   5.034  11.021  0.3425  1.0104  1.7321
   27MOL0     H 3707  11.336   4.927  10.857 -2.5344  0.7425 -2.2148
   27MOL0     H 3708  11.021   4.780  10.517  0.1912 -0.4306  0.1169
   27MOL0     H 3709  10.804   4.717  10.425  3.6649 -0.3163  0.7477
   27MOL0     H 3710   8.731   4.267  10.317 -0.6001 -1.7505 -0.2175
   27MOL0     H 3711   8.588   4.120  10.214  1.6958  0.7355  1.2175
   27MOL0     H 3712   8.177   4.200   9.872 -6.4238  2.6008  0.1030
   27MOL0     H 3713   7.985   4.131   9.751  2.5913  2.6048  0.0158
   27MOL0     H 3714   7.903   3.902   9.620 -2.8378  0.0389 -1.2212
   27MOL0     H 3715   7.908   3.743   9.703 -0.3956 -1.9531 -0.2179
   27MOL0     H 3716   7.657   3.886   9.604 -0.7003 -0.3824 -0.1655
   27MOL0     H 3717   7.652   3.754   9.709  1.6314 -1.0190  1.2432
   27MOL0     H 3718   7.658   3.735   9.439  0.4429 -0.4928 -1.2758
   27MOL0     H 3719   7.831   3.753   9.458 -0.1274  0.2701  1.3067
   27MOL0     H 3720   7.672   3.529   9.581  0.3507 -4.4461 -3.0810
   27MOL0     H 3721   7.851   3.554   9.592 -0.9260  1.6256  1.3020
   27MOL0     H 3722   7.791   3.337   9.246  0.2104 -0.9331 -0.4220
   27MOL0     H 3723   7.979   3.769   9.959 -1.1016 -0.3418  0.1121
   27MOL0     H 3724   8.112   3.707  10.104 -1.7726  0.2456  4.5694
   27MOL0     H 3725   8.280   3.762  10.107 -0.7754 -0.6378 -4.1879
   27MOL0     H 3726   8.162   3.821  10.225  1.1855 -3.1340  0.9174
   28MOL0     O 3727   9.991   7.548   2.440  0.3220  0.4738 -0.0736
   28MOL0     C 3728   9.922   7.453   2.449  0.4553  0.5364  0.2529
   28MOL0     O 3729   9.953   7.329   2.410  0.0074 -0.5832  0.2905
   28MOL0     C 3730  10.074   7.310   2.341 -0.6885 -0.4152  0.2169
   28MOL0     C 3731  10.122   7.180   2.368  0.4936  0.3990  0.4429
   28MOL0     C 3732  10.241   7.133   2.296 -0.0161 -0.4626  0.5878
   28MOL0     C 3733  10.302   7.212   2.203 -0.4168 -0.7580 -0.0600
   28MOL0     O 3734  10.407   7.155   2.135  0.4502  0.4022  0.0134
   28MOL0     C 3735  10.513   7.245   2.096  0.1117  1.2445  0.3308
   28MOL0     C 3736  10.637   7.176   2.052  0.4641 -0.8806 -0.0227
   28MOL0     C 3737  10.602   7.083   1.937  0.4934 -0.6166 -0.8830
   28MOL0     C 3738  10.743   7.031   1.899  0.4251  0.4995 -0.3071
   28MOL0     C 3739  10.715   6.912   1.803  0.1704 -0.2691 -0.0127
   28MOL0     C 3740  10.642   6.950   1.673 -0.3324 -0.1097 -0.3427
   28MOL0     C 3741  10.653   6.843   1.559  0.7047 -0.4981 -0.8568
   28MOL0     C 3742  10.567   6.723   1.599 -0.5837  0.7083 -0.6628
   28MOL0     N 3743  10.646   6.618   1.668 -0.2554  0.3275 -0.4408
   28MOL0     C 3744  10.721   6.522   1.602  0.7508  0.3642 -0.2791
   28MOL0     C 3745  10.765   6.446   1.707 -0.0473 -1.0150 -0.1253
   28MOL0     C 3746  10.843   6.315   1.703  0.0069 -1.4017  0.1971
   28MOL0     C 3747  10.967   6.335   1.783  0.1799 -0.2443 -0.0524
   28MOL0     C 3748  11.062   6.209   1.786  0.9261  0.1969  0.2506
   28MOL0     C 3749  10.997   6.087   1.857  0.2023  0.3407 -0.0668
   28MOL0     O 3750  11.083   5.989   1.915  0.8385 -0.0244 -0.5801
   28MOL0     C 3751  11.015   5.888   1.979 -0.7690 -1.2281  0.2563
   28MOL0     C 3752  11.089   5.777   2.007  0.2515 -0.9463 -0.0848
   28MOL0     C 3753  11.035   5.670   2.075  0.1779  0.7020  0.0982
   28MOL0     C 3754  11.123   5.553   2.106 -0.3705  0.1605  1.0368
   28MOL0     C 3755  10.903   5.676   2.121 -0.0775 -0.1203 -0.3360
   28MOL0     C 3756  10.835   5.562   2.184 -0.2809 -0.1442 -1.0080
   28MOL0     O 3757  10.863   5.435   2.137  0.1450  0.7150 -0.5388
   28MOL0     C 3758  10.827   5.335   2.222 -0.5209 -0.4348  0.6331
   28MOL0     C 3759  10.914   5.269   2.311  0.2048  0.0403 -0.4111
   28MOL0     C 3760  10.868   5.152   2.383 -0.2877  0.3824  0.2600
   28MOL0     C 3761  10.733   5.114   2.375 -0.4377 -1.4615 -0.1573
   28MOL0     O 3762  10.661   5.020   2.436 -0.0902 -0.6198  0.8141
   28MOL0     C 3763  10.732   4.943   2.532 -0.0511  1.0967  0.2346
   28MOL0     C 3764  10.623   4.849   2.587  0.2023  0.6481  0.8893
   28MOL0     C 3765  10.686   4.744   2.677 -0.0173 -0.0372  0.4441
   28MOL0     C 3766  10.570   4.670   2.753  0.3085 -0.8144 -0.8364
   28MOL0     C 3767  10.618   4.566   2.858 -0.4147 -0.4687 -0.4129
   28MOL0     C 3768  10.509   4.474   2.921 -0.3505  0.2863 -0.5545
   28MOL0     C 3769  10.399   4.550   2.996  0.5468 -0.4216 -0.0202
   28MOL0     C 3770  10.305   4.447   3.061 -0.1478  0.0958 -0.0127
   28MOL0    Cl 3771  10.190   4.401   2.937  0.4608  0.3556 -0.0757
   28MOL0     C 3772  10.657   5.184   2.280  0.5126  0.1819 -0.7390
   28MOL0     C 3773  10.702   5.285   2.205 -0.6623  0.3001 -0.2670
   28MOL0     O 3774  10.760   5.581   2.286  0.7134  0.1411 -0.6589
   28MOL0     C 3775  10.826   5.793   2.099  0.5876  0.1020 -1.0688
   28MOL0     C 3776  10.881   5.901   2.024  0.2299  0.6366  0.6884
   28MOL0     N 3777  10.717   6.498   1.829 -0.4638  0.3760  0.6662
   28MOL0     N 3778  10.638   6.590   1.802 -0.6684  0.4073  0.0490
   28MOL0     C 3779  10.246   7.337   2.166  0.4014 -0.2725  0.6384
   28MOL0     C 3780  10.129   7.388   2.237  1.0652 -0.0797  0.1018
   28MOL0     C 3781   9.779   7.475   2.484  0.2054  0.1106 -0.2735
   28MOL0     C 3782   9.734   7.455   2.618  0.0835 -0.0752  0.3586
   28MOL0     C 3783   9.608   7.483   2.661 -0.4409 -0.4894 -0.2051
   28MOL0     C 3784   9.514   7.536   2.570  0.0906  0.4584  0.4825
   28MOL0     O 3785   9.381   7.540   2.604  0.9096 -0.0562  0.2087
   28MOL0     C 3786   9.297   7.640   2.553 -0.6648  0.3273 -1.0135
   28MOL0     C 3787   9.183   7.685   2.640  0.6445  0.0500  0.0197
   28MOL0     C 3788   9.059   7.592   2.638  0.5028  0.3638  0.0420
   28MOL0     C 3789   8.936   7.675   2.698 -0.1347 -0.0237  0.5171
   28MOL0     C 3790   8.815   7.600   2.668 -0.1081  0.0230 -0.3190
   28MOL0     C 3791   8.720   7.517   2.650 -0.2295 -0.5148 -0.1735
   28MOL0     C 3792   9.553   7.555   2.436 -0.5023 -0.5110 -0.2941
   28MOL0     C 3793   9.687   7.529   2.392  0.1946 -0.6281  0.2766
   28MOL0     C 3794   9.714   7.561   2.247  0.7882 -0.4364 -0.0331
   28MOL0     H 3795  10.071   7.115   2.438  0.0444 -1.0217 -1.1323
   28MOL0     H 3796  10.268   7.029   2.309  1.4228 -0.4389 -1.6455
   28MOL0     H 3797  10.539   7.309   2.182  5.0921  0.8256 -0.5685
   28MOL0     H 3798  10.488   7.311   2.013  1.1794 -0.3722 -1.3283
   28MOL0     H 3799  10.705   7.256   2.022 -1.4580  0.8771  0.0107
   28MOL0     H 3800  10.678   7.114   2.132 -0.9709 -1.7008  0.1048
   28MOL0     H 3801  10.530   7.007   1.969 -1.2272  0.9085 -0.9618
   28MOL0     H 3802  10.557   7.139   1.855 -0.9118 -2.5792 -1.5085
   28MOL0     H 3803  10.810   7.103   1.853 -0.6729  0.3424 -2.2894
   28MOL0     H 3804  10.809   6.998   1.980  1.6439  2.0090 -0.6406
   28MOL0     H 3805  10.647   6.851   1.862  0.6316  1.6069  2.6550
   28MOL0     H 3806  10.807   6.858   1.777 -0.7123 -1.2294 -1.1913
   28MOL0     H 3807  10.534   6.969   1.681 -0.4615 -0.2271 -1.6875
   28MOL0     H 3808  10.690   7.036   1.625  0.3980 -0.8483 -0.9474
   28MOL0     H 3809  10.757   6.815   1.540  1.3854 -0.2400  2.0787
   28MOL0     H 3810  10.610   6.891   1.471  0.4752  1.7645  0.4163
   28MOL0     H 3811  10.486   6.757   1.664  1.6716  3.5038  0.9329
   28MOL0     H 3812  10.524   6.679   1.509  0.3261  0.4178 -0.9619
   28MOL0     H 3813  10.727   6.512   1.494  0.5734 -0.8339 -0.1862
   28MOL0     H 3814  10.881   6.299   1.601  0.8978  1.3778  0.0098
   28MOL0     H 3815  10.788   6.227   1.737  0.3117 -1.8988 -0.5675
   28MOL0     H 3816  11.020   6.418   1.735 -0.8656  0.9267  0.7624
   28MOL0     H 3817  10.938   6.376   1.880  0.7077  0.2286 -0.0847
   28MOL0     H 3818  11.098   6.182   1.686 -0.6790 -0.3756 -0.1993
   28MOL0     H 3819  11.150   6.231   1.847  1.0644 -0.4931  0.3132
   28MOL0     H 3820  10.956   6.139   1.944 -2.3816  0.6123 -1.3463
   28MOL0     H 3821  10.920   6.046   1.790  0.6602 -0.4507 -0.1220
   28MOL0     H 3822  11.190   5.778   1.968 -0.1389  1.0901 -1.2046
   28MOL0     H 3823  11.096   5.522   2.207 -0.8664  1.8576  1.4514
   28MOL0     H 3824  11.227   5.583   2.087 -0.7490  0.4808 -0.7898
   28MOL0     H 3825  11.101   5.480   2.027 -0.8483 -1.1020  2.3052
   28MOL0     H 3826  11.016   5.306   2.311  0.1745  0.1235 -0.1924
   28MOL0     H 3827  10.941   5.103   2.448  1.0147 -0.0598 -1.4597
   28MOL0     H 3828  10.816   4.887   2.490 -1.0705 -0.5835  0.3586
   28MOL0     H 3829  10.771   5.010   2.609 -2.4166  1.3576  1.2735
   28MOL0     H 3830  10.543   4.906   2.636 -1.9751 -1.1005 -0.3943
   28MOL0     H 3831  10.578   4.799   2.500  2.9039 -3.0602  1.3478
   28MOL0     H 3832  10.748   4.792   2.754 -2.0821  1.2984  1.3510
   28MOL0     H 3833  10.751   4.681   2.615 -1.1378 -1.1291  0.3405
   28MOL0     H 3834  10.503   4.621   2.682  1.4461 -1.4860 -1.4764
   28MOL0     H 3835  10.506   4.733   2.816 -0.7851 -1.6815 -1.0514
   28MOL0     H 3836  10.703   4.507   2.821 -0.3995 -0.4098 -0.4713
   28MOL0     H 3837  10.658   4.622   2.943  0.5342  0.0243 -1.1568
   28MOL0     H 3838  10.552   4.401   2.990 -4.1899 -0.9406  0.8371
   28MOL0     H 3839  10.469   4.417   2.838 -0.2328 -0.0359 -0.3902
   28MOL0     H 3840  10.344   4.618   2.930 -1.6189 -0.9338  1.1479
   28MOL0     H 3841  10.433   4.607   3.083  3.1236  0.9990 -1.8291
   28MOL0     H 3842  10.245   4.480   3.147 -2.0174 -3.3335  0.2336
   28MOL0     H 3843  10.363   4.365   3.105  0.0985  0.8834  1.1797
   28MOL0     H 3844  10.553   5.157   2.264  0.4951 -0.2523  0.0519
   28MOL0     H 3845  10.641   5.337   2.131 -1.8682 -0.7764 -0.0562
   28MOL0     H 3846  10.720   5.804   2.121 -0.1225 -4.3980 -1.1885
   28MOL0     H 3847  10.810   5.981   2.005 -0.2305  0.2992  0.9693
   28MOL0     H 3848  10.288   7.389   2.080 -2.4439  0.3245 -0.5266
   28MOL0     H 3849  10.082   7.483   2.212  3.4806  0.4004 -3.2865
   28MOL0     H 3850   9.805   7.410   2.687  1.0996  0.4759 -0.2995
   28MOL0     H 3851   9.568   7.472   2.761  0.6097 -0.8503  0.1930
   28MOL0     H 3852   9.366   7.723   2.540  2.8360 -2.4077 -1.4366
   28MOL0     H 3853   9.269   7.601   2.455  1.3215 -0.6520 -1.2480
   28MOL0     H 3854   9.146   7.783   2.610 -2.2714 -0.9175  0.1408
   28MOL0     H 3855   9.202   7.696   2.748 -0.7079  0.0203  0.2855
   28MOL0     H 3856   9.031   7.569   2.535 -0.2546  2.7684 -0.3458
   28MOL0     H 3857   9.072   7.500   2.696 -0.4652  0.9414  1.2257
   28MOL0     H 3858   8.944   7.761   2.631  0.5039 -1.5330 -1.4925
   28MOL0     H 3859   8.946   7.691   2.805  1.8700  4.4777 -0.0997
   28MOL0     H 3860   8.635   7.452   2.643 -1.0378  0.4527  0.4069
   28MOL0     H 3861   9.484   7.601   2.366 -0.8471  0.8679  0.9175
   28MOL0     H 3862   9.728   7.670   2.240  0.0117 -0.2364  1.2584
   28MOL0     H 3863   9.804   7.512   2.209  1.1880  0.3347 -0.0985
   28MOL0     H 3864   9.635   7.540   2.174  1.1090 -0.0374 -0.5051
   29MOL0     O 3865   0.469   3.111   2.153  0.1168  0.4113  0.4963
   29MOL0     C 3866   0.517   3.025   2.218 -0.7384  0.4158  0.6335
   29MOL0     O 3867   0.649   2.998   2.225 -0.2291  0.2712  0.3451
   29MOL0     C 3868   0.738   3.062   2.137  0.6050 -0.2515 -0.7072
   29MOL0     C 3869   0.831   2.992   2.070 -0.5391 -0.6617  0.6520
   29MOL0     C 3870   0.934   3.060   1.991 -0.2089 -0.3540 -0.8307
   29MOL0     C 3871   0.929   3.198   1.982 -0.2809  0.0815 -0.0854
   29MOL0     O 3872   1.029   3.263   1.905  0.7980  0.0198  0.8698
   29MOL0     C 3873   1.116   3.187   1.825 -0.1618  0.4415  0.2273
   29MOL0     C 3874   1.210   3.285   1.758  0.0564  0.7994 -0.2369
   29MOL0     C 3875   1.310   3.341   1.855  0.0457 -0.0881 -1.1745
   29MOL0     C 3876   1.402   3.442   1.788 -0.3034  0.3190 -0.9849
   29MOL0     C 3877   1.503   3.523   1.870  1.0049  0.2921 -0.9674
   29MOL0     C 3878   1.628   3.438   1.926 -0.2591  0.3399  0.2667
   29MOL0     C 3879   1.750   3.516   1.910 -0.2465  0.3896 -0.0385
   29MOL0     C 3880   1.877   3.431   1.939 -0.0362  0.4813 -0.4372
   29MOL0     N 3881   2.006   3.500   1.895  0.3492  0.8155  0.0163
   29MOL0     C 3882   2.075   3.589   1.970 -1.1029  0.1073 -0.0756
   29MOL0     C 3883   2.206   3.589   1.925  0.5889  0.2875 -0.4207
   29MOL0     C 3884   2.321   3.642   1.990 -1.3245  0.8628  0.0414
   29MOL0     C 3885   2.459   3.639   1.918 -0.0916 -0.2755  0.0533
   29MOL0     C 3886   2.563   3.722   1.990  0.1383 -0.0644 -0.0761
   29MOL0     C 3887   2.629   3.647   2.111 -0.6265  0.0198  0.3068
   29MOL0     O 3888   2.687   3.730   2.214 -0.0229  0.4634  0.4532
   29MOL0     C 3889   2.810   3.784   2.204  0.3198  0.5052 -0.1132
   29MOL0     C 3890   2.832   3.890   2.291  0.6694 -0.2476 -0.3844
   29MOL0     C 3891   2.961   3.948   2.301 -0.8494  0.1906  0.6300
   29MOL0     C 3892   2.988   4.058   2.401  0.5123 -0.3401  0.3209
   29MOL0     C 3893   3.063   3.905   2.209  0.1218 -0.0569  0.5628
   29MOL0     C 3894   3.204   3.941   2.218 -0.0444  0.5088  0.3363
   29MOL0     O 3895   3.293   3.848   2.205 -0.6386 -0.0375 -0.2858
   29MOL0     C 3896   3.426   3.857   2.228 -0.4106 -0.3920 -0.2878
   29MOL0     C 3897   3.506   3.961   2.274  0.3119  0.5048  0.5663
   29MOL0     C 3898   3.643   3.940   2.309  0.2341 -0.3197  0.2508
   29MOL0     C 3899   3.701   3.814   2.281  0.1185 -0.5691 -0.2400
   29MOL0     O 3900   3.834   3.807   2.317  0.9050 -0.8656  0.3722
   29MOL0     C 3901   3.910   3.705   2.245 -0.5685 -0.3727 -0.2262
   29MOL0     C 3902   4.047   3.718   2.310  0.6955  0.7765  1.0754
   29MOL0     C 3903   4.145   3.639   2.228  0.7335 -0.0845 -0.5215
   29MOL0     C 3904   4.266   3.606   2.323 -0.7369 -1.1680  0.1324
   29MOL0     C 3905   4.391   3.599   2.234 -0.9053 -0.8755 -0.7068
   29MOL0     C 3906   4.508   3.538   2.313 -0.3415  0.9207  0.1693
   29MOL0     C 3907   4.633   3.533   2.233 -0.4185  0.1890  0.6341
   29MOL0     C 3908   4.759   3.490   2.302 -0.2202 -0.3488  1.1419
   29MOL0    Cl 3909   4.891   3.498   2.179  0.2213 -0.0512 -0.4191
   29MOL0     C 3910   3.623   3.712   2.215 -0.4056  0.3624 -0.6984
   29MOL0     C 3911   3.491   3.736   2.191 -0.0119  0.1858 -0.2773
   29MOL0     O 3912   3.227   4.054   2.244  0.5224  0.6053  0.5841
   29MOL0     C 3913   3.033   3.804   2.115 -0.4902 -0.2778 -0.9534
   29MOL0     C 3914   2.904   3.737   2.118  0.0236  0.3401  0.0366
   29MOL0     N 3915   2.208   3.513   1.807  0.2029  0.3921 -1.1864
   29MOL0     N 3916   2.089   3.459   1.793  0.3336 -0.0612  0.5031
   29MOL0     C 3917   0.838   3.273   2.056 -0.6015 -0.8069  0.2901
   29MOL0     C 3918   0.744   3.205   2.139 -0.1612  0.4181  0.5513
   29MOL0     C 3919   0.417   2.958   2.304  0.0830  0.6605 -0.8581
   29MOL0     C 3920   0.278   2.982   2.281 -0.6788 -0.3412  0.3559
   29MOL0     C 3921   0.175   2.911   2.348  0.2966  0.7940 -0.3246
   29MOL0     C 3922   0.206   2.816   2.451 -0.0634  0.1701  0.8122
   29MOL0     O 3923   0.108   2.743   2.510 -0.2879  0.4827  0.1436
   29MOL0     C 3924   0.138   2.640   2.610 -0.3157 -0.2479  0.4061
   29MOL0     C 3925   0.008   2.556   2.651 -0.4311 -0.2758  0.7045
   29MOL0     C 3926   0.042   2.421   2.699 -0.3091 -0.0714  0.3816
   29MOL0     C 3927  -0.086   2.354   2.756 -0.4422  0.1159  1.2304
   29MOL0     C 3928  -0.190   2.338   2.652  0.0579 -0.6909 -0.0286
   29MOL0     C 3929  -0.277   2.332   2.566  0.0064 -0.7695  0.0103
   29MOL0     C 3930   0.338   2.805   2.490 -0.0049  0.2463  0.4873
   29MOL0     C 3931   0.447   2.866   2.416 -0.7951  0.1441 -0.0382
   29MOL0     C 3932   0.585   2.835   2.471 -0.5527  0.0270  0.9012
   29MOL0     H 3933   0.820   2.885   2.077 -0.5137 -0.7117  0.0209
   29MOL0     H 3934   1.009   2.998   1.943  1.0618  0.2595  0.2817
   29MOL0     H 3935   1.054   3.141   1.748  0.8785 -2.4113  0.9521
   29MOL0     H 3936   1.164   3.116   1.894  1.4458  0.8845 -0.3878
   29MOL0     H 3937   1.268   3.248   1.673 -1.8004 -0.0766 -1.2001
   29MOL0     H 3938   1.150   3.370   1.722 -1.2993  0.9101  2.1063
   29MOL0     H 3939   1.262   3.381   1.944  4.0458 -1.5004  1.8866
   29MOL0     H 3940   1.366   3.254   1.890  0.1042  0.6716  0.7061
   29MOL0     H 3941   1.460   3.402   1.704  1.0208 -1.6118  0.7507
   29MOL0     H 3942   1.341   3.527   1.757 -0.3480  0.6900  0.0889
   29MOL0     H 3943   1.449   3.572   1.952 -0.5223 -3.0565  0.2054
   29MOL0     H 3944   1.542   3.596   1.799 -0.9533  0.2535 -2.1700
   29MOL0     H 3945   1.604   3.404   2.027 -0.0081  1.2219  0.6368
   29MOL0     H 3946   1.637   3.352   1.859  1.4588  1.0366 -0.4449
   29MOL0     H 3947   1.750   3.608   1.970 -1.1281 -0.0217  0.6165
   29MOL0     H 3948   1.749   3.535   1.803  0.0993 -0.6741 -0.2441
   29MOL0     H 3949   1.882   3.401   2.044 -0.7990 -1.0709 -0.8067
   29MOL0     H 3950   1.872   3.338   1.880  0.9332  0.9017 -1.1989
   29MOL0     H 3951   2.032   3.635   2.058 -4.6141 -4.5929  1.1186
   29MOL0     H 3952   2.323   3.587   2.084 -1.1602 -0.7042 -0.8527
   29MOL0     H 3953   2.296   3.746   2.015 -1.0564  0.3845  2.4988
   29MOL0     H 3954   2.491   3.538   1.890  1.0715 -1.1519  4.0102
   29MOL0     H 3955   2.448   3.688   1.821 -0.5353 -2.1911 -0.9162
   29MOL0     H 3956   2.644   3.755   1.924  2.3148 -0.8109  2.1002
   29MOL0     H 3957   2.523   3.815   2.032 -0.0739 -1.3201  2.6792
   29MOL0     H 3958   2.560   3.581   2.163  0.8898  0.3998  3.0220
   29MOL0     H 3959   2.699   3.571   2.074 -0.8283 -0.6816  1.3339
   29MOL0     H 3960   2.754   3.928   2.356  1.7605  0.4432  0.5491
   29MOL0     H 3961   2.980   4.151   2.344  0.9706  0.6224  1.7598
   29MOL0     H 3962   3.093   4.050   2.432  0.7779 -1.5474 -0.8262
   29MOL0     H 3963   2.920   4.064   2.487  0.3601  0.8515  0.1410
   29MOL0     H 3964   3.468   4.059   2.300 -0.1433 -0.0291  1.9961
   29MOL0     H 3965   3.698   4.025   2.349 -1.9931 -0.1771  3.3598
   29MOL0     H 3966   3.874   3.605   2.271  1.6244 -0.5815  2.3903
   29MOL0     H 3967   3.911   3.718   2.136  1.0943  0.5762 -0.1240
   29MOL0     H 3968   4.082   3.821   2.311  1.2495  0.7167 -1.9736
   29MOL0     H 3969   4.039   3.688   2.415 -4.1298  2.6492  1.4519
   29MOL0     H 3970   4.179   3.708   2.150  0.7262  0.6105  0.0779
   29MOL0     H 3971   4.100   3.546   2.192 -1.7503  1.8703 -2.8280
   29MOL0     H 3972   4.262   3.506   2.366  0.9492 -1.5570 -0.5298
   29MOL0     H 3973   4.271   3.679   2.404 -0.8311 -0.7513 -0.2301
   29MOL0     H 3974   4.380   3.532   2.149 -0.8784 -1.1607 -0.4881
   29MOL0     H 3975   4.415   3.698   2.195  0.9511 -1.4697 -1.1682
   29MOL0     H 3976   4.484   3.434   2.336  0.9886 -0.2358 -3.0474
   29MOL0     H 3977   4.517   3.591   2.408 -0.7459  0.2333  0.6008
   29MOL0     H 3978   4.657   3.629   2.186  0.1586 -1.1095 -1.9232
   29MOL0     H 3979   4.610   3.458   2.157 -0.2088 -0.0362  0.7889
   29MOL0     H 3980   4.757   3.385   2.331 -0.7464 -0.4091  0.8960
   29MOL0     H 3981   4.783   3.547   2.392  0.5165  2.3263 -0.5922
   29MOL0     H 3982   3.656   3.612   2.188  2.0812  0.5399  1.2958
   29MOL0     H 3983   3.443   3.652   2.142 -1.2296  1.6774 -1.7547
   29MOL0     H 3984   3.103   3.770   2.039 -0.1784  1.2469 -1.3908
   29MOL0     H 3985   2.884   3.667   2.037 -0.4451  0.7528 -0.2056
   29MOL0     H 3986   0.860   3.379   2.045 -0.0754 -0.8560  0.8416
   29MOL0     H 3987   0.668   3.251   2.200 -3.0819 -2.5656 -0.5169
   29MOL0     H 3988   0.250   3.045   2.198 -2.2201  0.1682  1.2196
   29MOL0     H 3989   0.073   2.929   2.318  0.5962 -0.1082 -1.9826
   29MOL0     H 3990   0.216   2.574   2.569  0.8466 -0.1478  2.3416
   29MOL0     H 3991   0.178   2.701   2.691 -0.4360 -1.7672  1.6439
   29MOL0     H 3992  -0.052   2.535   2.562 -1.2869  1.2234  0.9057
   29MOL0     H 3993  -0.047   2.618   2.722  2.1766  0.0842  2.5421
   29MOL0     H 3994   0.084   2.370   2.612  1.6177  0.6578  0.8466
   29MOL0     H 3995   0.121   2.415   2.775  1.7357 -0.2747 -1.6486
   29MOL0     H 3996  -0.124   2.413   2.839 -0.1874  0.5422  1.0476
   29MOL0     H 3997  -0.055   2.252   2.781  0.5910  0.2297  0.4817
   29MOL0     H 3998  -0.359   2.354   2.501  1.5074 -0.2106 -1.7728
   29MOL0     H 3999   0.368   2.747   2.576 -0.5216 -1.8796 -0.7031
   29MOL0     H 4000   0.631   2.935   2.476 -0.4168  0.0669 -0.8395
   29MOL0     H 4001   0.576   2.790   2.571 -4.3526  1.1423  1.2075
   29MOL0     H 4002   0.639   2.773   2.400 -1.7623 -0.3138  0.2720
   30MOL0     O 4003   2.348  10.380   1.237  0.5106  0.4294 -0.0902
   30MOL0     C 4004   2.320  10.381   1.116 -0.4145  0.4824 -0.7656
   30MOL0     O 4005   2.407  10.342   1.020  0.3420 -0.2082  0.3073
   30MOL0     C 4006   2.545  10.326   1.046 -0.0308  0.4218  0.7914
   30MOL0     C 4007   2.613  10.273   0.937 -0.0931  0.2883  0.1096
   30MOL0     C 4008   2.753  10.268   0.932 -0.6796 -0.5079 -0.5409
   30MOL0     C 4009   2.834  10.323   1.035  0.5551 -0.1235 -0.5004
   30MOL0     O 4010   2.968  10.315   1.010  0.3190 -0.1412  0.2927
   30MOL0     C 4011   3.051  10.416   1.065 -0.0589 -0.1342 -0.4349
   30MOL0     C 4012   3.200  10.397   1.030  0.0757  0.6398  0.1462
   30MOL0     C 4013   3.225  10.398   0.882 -0.0120 -0.1340  0.3090
   30MOL0     C 4014   3.375  10.369   0.855  0.5451  0.1155 -0.2716
   30MOL0     C 4015   3.431  10.408   0.716  0.2951 -0.1361 -0.2113
   30MOL0     C 4016   3.448  10.554   0.678 -0.5891 -0.1305 -0.6103
   30MOL0     C 4017   3.545  10.605   0.784  0.6272 -0.1914  0.1149
   30MOL0     C 4018   3.614  10.730   0.730  0.1120 -0.1643  0.4985
   30MOL0     N 4019   3.705  10.695   0.615 -0.2411 -0.3603  1.1485
   30MOL0     C 4020   3.761  10.565   0.586  0.2373  0.8519  0.5595
   30MOL0     C 4021   3.815  10.577   0.460  0.9684 -0.0665 -0.8880
   30MOL0     C 4022   3.871  10.466   0.379  0.0325  0.2510 -0.2720
   30MOL0     C 4023   4.001  10.497   0.308 -0.0747  0.4261 -0.1343
   30MOL0     C 4024   4.122  10.510   0.399 -0.4374  0.0933 -0.2761
   30MOL0     C 4025   4.247  10.499   0.304 -0.0332 -0.3903 -0.3239
   30MOL0     O 4026   4.355  10.559   0.370 -0.1143 -0.2961 -0.0599
   30MOL0     C 4027   4.486  10.536   0.339 -0.0631  0.0281 -0.4743
   30MOL0     C 4028   4.534  10.428   0.270  0.5840 -0.1529 -0.5346
   30MOL0     C 4029   4.667  10.399   0.238  0.6389 -1.0222  0.0250
   30MOL0     C 4030   4.693  10.263   0.164  0.1313  0.6016  0.8087
   30MOL0     C 4031   4.770  10.486   0.282 -0.2408  0.1303  0.4156
   30MOL0     C 4032   4.914  10.474   0.248  0.2733 -0.4891  0.4380
   30MOL0     O 4033   4.985  10.587   0.232  0.0507  0.1136  0.5885
   30MOL0     C 4034   5.106  10.584   0.175 -0.1213 -0.8561  1.4090
   30MOL0     C 4035   5.177  10.698   0.207  0.3114 -0.1311  0.5451
   30MOL0     C 4036   5.312  10.713   0.164  0.4625  0.2252  0.2954
   30MOL0     C 4037   5.357  10.624   0.066 -0.4569 -0.2308  0.5151
   30MOL0     O 4038   5.483  10.659   0.011  0.3545 -0.7082  0.4836
   30MOL0     C 4039   5.545  10.553  -0.066  0.2184 -0.5044 -0.6256
   30MOL0     C 4040   5.683  10.612  -0.099 -0.7723  0.3006  0.7193
   30MOL0     C 4041   5.769  10.509  -0.182  0.8315  0.3551 -0.7382
   30MOL0     C 4042   5.877  10.579  -0.263 -0.6835 -0.3438  1.1255
   30MOL0     C 4043   5.983  10.652  -0.178  0.8085 -0.2378  0.4591
   30MOL0     C 4044   6.085  10.720  -0.265  0.6599 -0.0842 -0.2500
   30MOL0     C 4045   6.193  10.791  -0.182 -0.3998 -0.0251  0.3595
   30MOL0     C 4046   6.298  10.835  -0.283  0.4951  0.9012  0.1280
   30MOL0    Cl 4047   6.393  10.961  -0.187 -0.2508  0.2795 -0.2089
   30MOL0     C 4048   5.289  10.507   0.029 -1.1269 -0.7943  0.2080
   30MOL0     C 4049   5.164  10.483   0.091  0.0906  0.9287 -0.4893
   30MOL0     O 4050   4.951  10.355   0.227 -0.4944 -0.3580 -0.1746
   30MOL0     C 4051   4.718  10.610   0.336 -0.4591  0.0043 -0.1639
   30MOL0     C 4052   4.584  10.635   0.379  0.4136  0.9594 -0.6306
   30MOL0     N 4053   3.802  10.705   0.413  0.3695  0.2308  0.4566
   30MOL0     N 4054   3.735  10.770   0.503  0.3350 -0.0691 -0.1766
   30MOL0     C 4055   2.761  10.376   1.141  0.0285 -0.4253 -0.4627
   30MOL0     C 4056   2.623  10.375   1.152 -0.0396 -0.5835 -0.4250
   30MOL0     C 4057   2.188  10.440   1.083 -0.0701 -1.0145 -0.6397
   30MOL0     C 4058   2.171  10.504   0.960  0.2982 -0.1825 -0.0232
   30MOL0     C 4059   2.048  10.564   0.926  0.1034  0.6379  0.7502
   30MOL0     C 4060   1.938  10.564   1.013  0.4875  0.1656  0.0459
   30MOL0     O 4061   1.832  10.627   0.955  0.1901 -0.5985 -0.0781
   30MOL0     C 4062   1.718  10.653   1.029  0.4779  0.1672  0.3605
   30MOL0     C 4063   1.595  10.649   0.949 -0.7104 -0.7428  0.0051
   30MOL0     C 4064   1.574  10.757   0.839 -0.1913 -0.4490  0.2757
   30MOL0     C 4065   1.480  10.714   0.728 -0.0965  0.8005  0.3830
   30MOL0     C 4066   1.347  10.685   0.786  0.3956  1.4057  0.3906
   30MOL0     C 4067   1.244  10.691   0.852 -0.1333  0.0409 -0.3270
   30MOL0     C 4068   1.951  10.506   1.131  0.4438  0.9013 -0.5024
   30MOL0     C 4069   2.075  10.445   1.168  0.0372  0.4705 -0.8459
   30MOL0     C 4070   2.082  10.389   1.306 -0.2005  0.4647 -0.3135
   30MOL0     H 4071   2.551  10.231   0.858 -0.7739 -2.5317  1.9799
   30MOL0     H 4072   2.805  10.246   0.839 -0.6673  2.7185 -1.4220
   30MOL0     H 4073   3.041  10.413   1.174  0.3145 -0.2379 -0.4039
   30MOL0     H 4074   3.030  10.511   1.014  1.3785 -0.5604 -1.9224
   30MOL0     H 4075   3.260  10.477   1.075  1.8259 -0.0415 -0.8462
   30MOL0     H 4076   3.246  10.304   1.063  2.9193  1.1103 -2.0628
   30MOL0     H 4077   3.169  10.316   0.836  1.1542 -1.7454  1.6425
   30MOL0     H 4078   3.190  10.494   0.844 -0.3467  1.0017  3.2417
   30MOL0     H 4079   3.435  10.417   0.933 -0.8037  3.1976 -0.9734
   30MOL0     H 4080   3.391  10.262   0.869 -1.6235 -0.1611  0.5047
   30MOL0     H 4081   3.369  10.357   0.643 -1.4156 -0.6308  1.5116
   30MOL0     H 4082   3.533  10.368   0.714  0.2353 -0.2426 -1.2427
   30MOL0     H 4083   3.483  10.559   0.575  1.6707  4.0187  0.1634
   30MOL0     H 4084   3.364  10.623   0.692 -1.4265 -1.2152 -0.0129
   30MOL0     H 4085   3.619  10.528   0.806 -0.2161 -1.9845 -2.7152
   30MOL0     H 4086   3.512  10.638   0.883  0.3104  0.2111 -0.1174
   30MOL0     H 4087   3.531  10.793   0.695 -0.9557 -1.0977  1.2813
   30MOL0     H 4088   3.667  10.788   0.806  1.6741 -2.5297  1.3280
   30MOL0     H 4089   3.748  10.474   0.643 -0.2014 -0.0820 -0.9728
   30MOL0     H 4090   3.795  10.451   0.301  0.6168 -0.9150 -0.6408
   30MOL0     H 4091   3.880  10.371   0.433 -2.6025  1.2177  2.0759
   30MOL0     H 4092   4.026  10.425   0.230  1.5050  1.8842 -1.0542
   30MOL0     H 4093   3.987  10.598   0.267 -0.1652  0.7278  0.6283
   30MOL0     H 4094   4.129  10.610   0.442  3.0694 -0.3134  0.3879
   30MOL0     H 4095   4.123  10.436   0.481 -1.7539  0.7858  0.4056
   30MOL0     H 4096   4.271  10.395   0.281 -4.4476 -1.9167  0.8708
   30MOL0     H 4097   4.239  10.557   0.212 -0.8742 -0.2157 -0.1532
   30MOL0     H 4098   4.462  10.353   0.238 -0.4712  0.0650  1.1513
   30MOL0     H 4099   4.597  10.213   0.146 -0.7520  2.7874 -1.0051
   30MOL0     H 4100   4.765  10.194   0.210  0.8775 -0.1222 -1.3130
   30MOL0     H 4101   4.721  10.283   0.060  1.2623  1.0013  1.1713
   30MOL0     H 4102   5.135  10.768   0.278  0.0811 -1.3064  1.5999
   30MOL0     H 4103   5.366  10.800   0.201 -0.6687  1.2247 -0.3404
   30MOL0     H 4104   5.544  10.464  -0.002 -2.0835 -1.7983 -2.3003
   30MOL0     H 4105   5.489  10.523  -0.154 -2.2295  1.7500  0.0141
   30MOL0     H 4106   5.674  10.709  -0.149 -1.9493  0.6541  1.5817
   30MOL0     H 4107   5.735  10.624  -0.003  0.3722 -2.3487  0.5323
   30MOL0     H 4108   5.706  10.452  -0.250  0.8301 -0.7580  0.1659
   30MOL0     H 4109   5.816  10.441  -0.110  0.1170  0.6617  0.0392
   30MOL0     H 4110   5.838  10.652  -0.335  3.4183  1.3849  0.3880
   30MOL0     H 4111   5.929  10.506  -0.326  1.0288  1.9029 -0.2150
   30MOL0     H 4112   5.925  10.732  -0.131 -0.6683 -1.4609  0.8137
   30MOL0     H 4113   6.029  10.586  -0.103  3.4469  0.3306 -0.5714
   30MOL0     H 4114   6.036  10.796  -0.327  0.6806  1.0952  1.1512
   30MOL0     H 4115   6.132  10.635  -0.316  0.7064  0.4424 -1.1128
   30MOL0     H 4116   6.237  10.736  -0.098 -1.2910  1.3642  1.7920
   30MOL0     H 4117   6.143  10.881  -0.147 -0.2571  0.0071  0.4809
   30MOL0     H 4118   6.244  10.879  -0.367 -1.4242 -1.6147 -0.0707
   30MOL0     H 4119   6.359  10.748  -0.309 -0.2503  0.3061  0.3228
   30MOL0     H 4120   5.335  10.427  -0.029  1.3383  0.0357  0.8922
   30MOL0     H 4121   5.115  10.391   0.060  0.2081  1.0197 -0.9672
   30MOL0     H 4122   4.788  10.692   0.349 -2.1094  1.0247  3.7553
   30MOL0     H 4123   4.560  10.731   0.423 -2.8322 -1.1898  2.9405
   30MOL0     H 4124   2.810  10.429   1.222 -1.2898 -2.0823  1.5174
   30MOL0     H 4125   2.581  10.427   1.237  0.4823  0.7698 -0.9622
   30MOL0     H 4126   2.244  10.512   0.880 -1.3763 -1.9957 -1.8564
   30MOL0     H 4127   2.027  10.619   0.835 -2.1571  0.4637  1.1030
   30MOL0     H 4128   1.699  10.586   1.114  1.8600 -1.6371 -0.6672
   30MOL0     H 4129   1.732  10.753   1.072  1.7252 -0.5517  1.7370
   30MOL0     H 4130   1.503  10.655   1.009 -2.5498 -5.3663 -1.8865
   30MOL0     H 4131   1.588  10.551   0.901 -0.0028 -1.2349  0.8738
   30MOL0     H 4132   1.529  10.840   0.894  1.1694 -0.4476  1.4493
   30MOL0     H 4133   1.669  10.798   0.803 -0.3636  0.8390  1.2475
   30MOL0     H 4134   1.521  10.627   0.676 -1.1696 -0.9075  2.2202
   30MOL0     H 4135   1.473  10.781   0.642  0.4924 -0.1549 -0.4304
   30MOL0     H 4136   1.159  10.687   0.917  1.8397 -0.2526  2.4491
   30MOL0     H 4137   1.874  10.513   1.207 -0.4622  1.3906 -1.4375
   30MOL0     H 4138   1.983  10.389   1.353 -1.8019  1.1174 -3.4317
   30MOL0     H 4139   2.102  10.283   1.286  0.2773  0.0791  1.8982
   30MOL0     H 4140   2.151  10.443   1.372 -0.7769 -1.4500  2.0428
   31MOL0     O 4141   0.779   5.840   3.578  0.3994 -0.0335  0.7034
   31MOL0     C 4142   0.674   5.848   3.514 -0.3880  0.5554 -0.0909
   31MOL0     O 4143   0.667   5.900   3.390  0.0599 -0.3855 -0.3217
   31MOL0     C 4144   0.777   5.942   3.320  1.0375  0.4941 -0.2660
   31MOL0     C 4145   0.834   5.861   3.218 -0.3441 -0.2407  0.0240
   31MOL0     C 4146   0.952   5.907   3.167  0.4301  0.4976 -0.0921
   31MOL0     C 4147   1.013   6.035   3.203  0.1380  0.3005  0.6558
   31MOL0     O 4148   1.135   6.068   3.146  0.6998  0.4434 -0.4435
   31MOL0     C 4149   1.222   6.166   3.209  0.5303  0.3763 -1.0759
   31MOL0     C 4150   1.230   6.305   3.146  0.6229  0.5846  0.2357
   31MOL0     C 4151   1.295   6.412   3.229  0.7319 -0.0139 -0.3737
   31MOL0     C 4152   1.439   6.376   3.278 -0.4497 -0.1973 -0.0771
   31MOL0     C 4153   1.472   6.507   3.356 -0.2693 -0.7993 -0.4115
   31MOL0     C 4154   1.623   6.489   3.397  0.5986 -0.7573 -0.1385
   31MOL0     C 4155   1.680   6.624   3.436 -0.5169 -0.4104 -0.4881
   31MOL0     C 4156   1.800   6.675   3.337  0.0384  0.3696 -1.5301
   31MOL0     N 4157   1.917   6.577   3.345  0.4598  0.4359 -0.7585
   31MOL0     C 4158   2.017   6.582   3.252 -0.9825 -0.4642  0.8731
   31MOL0     C 4159   2.134   6.553   3.312 -0.7815  0.0677 -0.0784
   31MOL0     C 4160   2.262   6.548   3.251 -0.9843 -0.5625 -0.1522
   31MOL0     C 4161   2.303   6.392   3.249  0.6155 -0.2121  0.8036
   31MOL0     C 4162   2.452   6.370   3.207  0.1794  1.0442  0.6975
   31MOL0     C 4163   2.499   6.220   3.229  0.5298 -0.3998  0.5347
   31MOL0     O 4164   2.628   6.197   3.177  0.1675  0.3829 -0.0309
   31MOL0     C 4165   2.695   6.080   3.206  0.5810  0.6670  0.0233
   31MOL0     C 4166   2.650   5.970   3.291  0.2498 -0.4404  0.6339
   31MOL0     C 4167   2.725   5.855   3.306  0.9577  0.3291 -0.0603
   31MOL0     C 4168   2.682   5.751   3.406  0.9346 -0.6103  0.0569
   31MOL0     C 4169   2.847   5.846   3.245  0.1864 -0.7041 -0.7570
   31MOL0     C 4170   2.946   5.750   3.295 -0.3121  1.1754  0.2024
   31MOL0     O 4171   2.966   5.742   3.431 -0.1413  0.0711  0.0627
   31MOL0     C 4172   3.063   5.671   3.498  0.6918 -0.4495  0.4859
   31MOL0     C 4173   3.112   5.552   3.435 -0.0859  0.2315  0.8284
   31MOL0     C 4174   3.212   5.491   3.503 -0.7352  0.2833  0.1482
   31MOL0     C 4175   3.248   5.536   3.633  0.1499  0.1215  0.0198
   31MOL0     O 4176   3.345   5.455   3.698  0.1270 -0.4439 -0.6214
   31MOL0     C 4177   3.411   5.514   3.811 -1.1917 -0.2266 -0.0733
   31MOL0     C 4178   3.549   5.447   3.840 -0.5038  0.0147 -0.1608
   31MOL0     C 4179   3.650   5.464   3.727 -0.3755  0.5211  0.1065
   31MOL0     C 4180   3.783   5.391   3.737 -0.4879  0.2506 -1.0077
   31MOL0     C 4181   3.877   5.462   3.831 -0.3378 -0.4291  0.2264
   31MOL0     C 4182   4.020   5.420   3.788 -0.5079  0.1902  0.2689
   31MOL0     C 4183   4.122   5.467   3.889  0.3923  0.3402  0.0266
   31MOL0     C 4184   4.263   5.483   3.833  0.0836 -0.5328 -0.6103
   31MOL0    Cl 4185   4.276   5.601   3.695  0.1777 -0.0456 -0.1939
   31MOL0     C 4186   3.177   5.632   3.695 -0.0244  0.1520 -0.2646
   31MOL0     C 4187   3.091   5.700   3.631  0.5878 -0.4490  0.6383
   31MOL0     O 4188   2.992   5.680   3.205 -0.5675 -0.7974 -1.1804
   31MOL0     C 4189   2.890   5.953   3.161  0.1441 -0.9757  0.2250
   31MOL0     C 4190   2.816   6.065   3.140  0.1468 -0.7235  0.7663
   31MOL0     N 4191   2.101   6.511   3.440 -0.7512 -0.3661 -0.4360
   31MOL0     N 4192   1.975   6.537   3.462  0.5892  0.5571  0.3188
   31MOL0     C 4193   0.945   6.113   3.299 -0.2389 -0.4678  0.7784
   31MOL0     C 4194   0.832   6.065   3.356 -0.1111 -0.2475  0.0859
   31MOL0     C 4195   0.567   5.757   3.547  0.3477  0.6723 -0.3370
   31MOL0     C 4196   0.456   5.757   3.460  0.0196  0.5053  0.1075
   31MOL0     C 4197   0.343   5.685   3.497 -0.9468 -0.1159  0.7785
   31MOL0     C 4198   0.347   5.601   3.611  0.0112 -0.1598  0.1715
   31MOL0     O 4199   0.242   5.514   3.635  0.0833 -1.1288 -0.4015
   31MOL0     C 4200   0.106   5.557   3.598 -0.1618 -0.0112 -0.0092
   31MOL0     C 4201   0.030   5.471   3.493 -0.6498 -0.1784  0.5315
   31MOL0     C 4202   0.014   5.317   3.532  0.2442  0.0336  0.0065
   31MOL0     C 4203  -0.090   5.244   3.432  0.5961 -0.1421 -0.2131
   31MOL0     C 4204  -0.225   5.300   3.444 -0.3239  0.1465  0.0090
   31MOL0     C 4205  -0.338   5.352   3.447  0.3464  0.2850 -0.2447
   31MOL0     C 4206   0.449   5.589   3.693  0.3701 -0.8400  0.0973
   31MOL0     C 4207   0.564   5.670   3.661  0.7037  0.0122  0.6491
   31MOL0     C 4208   0.678   5.636   3.752 -0.5635 -0.5008  0.3528
   31MOL0     H 4209   0.788   5.766   3.192 -2.7588  0.3959  1.5494
   31MOL0     H 4210   0.998   5.848   3.088 -0.9833 -0.4932 -0.2084
   31MOL0     H 4211   1.322   6.122   3.210  0.8576  1.0837 -1.8273
   31MOL0     H 4212   1.197   6.173   3.316 -0.5378 -1.2176 -1.1810
   31MOL0     H 4213   1.271   6.293   3.045  0.8442  2.4962  0.0506
   31MOL0     H 4214   1.124   6.331   3.134  1.0291  2.9909  1.3512
   31MOL0     H 4215   1.302   6.499   3.163  2.3674 -0.8127 -1.3084
   31MOL0     H 4216   1.226   6.440   3.310  0.7826  1.3400 -0.7766
   31MOL0     H 4217   1.455   6.285   3.337  1.1515  0.3769  0.4256
   31MOL0     H 4218   1.507   6.378   3.192 -1.3468  2.0437 -0.8195
   31MOL0     H 4219   1.415   6.530   3.447 -0.2524 -2.8673  0.1771
   31MOL0     H 4220   1.453   6.599   3.302 -5.1148 -1.9152 -1.1109
   31MOL0     H 4221   1.635   6.420   3.481  2.0965 -4.0344 -2.8039
   31MOL0     H 4222   1.678   6.441   3.315 -1.7318  0.5361 -2.6529
   31MOL0     H 4223   1.732   6.614   3.533  0.9375  2.7742 -0.7943
   31MOL0     H 4224   1.603   6.700   3.451 -0.0523 -0.4325  3.0910
   31MOL0     H 4225   1.745   6.671   3.242 -1.9861 -2.9183 -0.3613
   31MOL0     H 4226   1.829   6.776   3.368 -1.2011  0.7181 -1.4594
   31MOL0     H 4227   2.014   6.599   3.145  1.2015 -0.1811  0.7976
   31MOL0     H 4228   2.331   6.617   3.301 -0.6815 -0.2467 -0.9763
   31MOL0     H 4229   2.263   6.586   3.148  1.8307  2.3565  0.7855
   31MOL0     H 4230   2.285   6.345   3.346  0.8693 -1.5560  0.2260
   31MOL0     H 4231   2.238   6.335   3.183  1.6324  0.8961 -1.2417
   31MOL0     H 4232   2.451   6.383   3.098  1.0938  0.3875  0.5964
   31MOL0     H 4233   2.527   6.437   3.250  0.8861  1.7108 -1.4628
   31MOL0     H 4234   2.492   6.202   3.337  0.7760 -1.8904  0.3206
   31MOL0     H 4235   2.428   6.155   3.176 -1.7355  2.2698  0.0801
   31MOL0     H 4236   2.564   5.981   3.357  2.0098  2.4936  2.7115
   31MOL0     H 4237   2.703   5.650   3.367 -0.1463 -0.3056 -1.4151
   31MOL0     H 4238   2.574   5.758   3.421  1.3100  2.7908  2.1290
   31MOL0     H 4239   2.733   5.762   3.502 -1.4125  0.0769  1.2816
   31MOL0     H 4240   3.096   5.508   3.337 -0.1555  1.9187  0.0475
   31MOL0     H 4241   3.269   5.408   3.464  0.1348 -0.3584  2.5922
   31MOL0     H 4242   3.430   5.621   3.801 -2.2280  0.1683  1.7068
   31MOL0     H 4243   3.345   5.514   3.898  0.9767  2.4842  1.7396
   31MOL0     H 4244   3.598   5.497   3.924 -1.1980  0.5237 -0.0462
   31MOL0     H 4245   3.544   5.340   3.863 -1.8224 -0.7155 -3.3121
   31MOL0     H 4246   3.663   5.568   3.695  1.0691  1.2315  2.7218
   31MOL0     H 4247   3.604   5.405   3.648 -1.0842  2.0166 -0.6502
   31MOL0     H 4248   3.822   5.378   3.636 -0.2065 -0.3974 -0.8261
   31MOL0     H 4249   3.772   5.292   3.784  0.9019  0.7994  0.5445
   31MOL0     H 4250   3.861   5.568   3.809 -0.6128 -1.0210 -2.7466
   31MOL0     H 4251   3.858   5.433   3.935 -0.5685  0.0918  0.3322
   31MOL0     H 4252   4.047   5.468   3.694  2.8133  1.1765  1.5794
   31MOL0     H 4253   4.015   5.311   3.781 -2.4989  0.3313 -1.4527
   31MOL0     H 4254   4.127   5.391   3.967  0.3359  0.4738  0.1604
   31MOL0     H 4255   4.088   5.555   3.944 -1.8952 -0.1960 -0.3879
   31MOL0     H 4256   4.299   5.388   3.795 -0.7010 -1.2958  0.4933
   31MOL0     H 4257   4.333   5.514   3.911 -0.2059 -1.0588 -0.1340
   31MOL0     H 4258   3.196   5.667   3.796 -1.2738 -1.5345  0.5994
   31MOL0     H 4259   3.056   5.797   3.667  2.6949  0.8901 -0.7436
   31MOL0     H 4260   2.988   5.942   3.117  1.1742 -1.8947  2.5579
   31MOL0     H 4261   2.848   6.148   3.077 -0.9851 -0.1161  0.9606
   31MOL0     H 4262   0.984   6.211   3.326  1.6350 -1.2549  1.1579
   31MOL0     H 4263   0.787   6.118   3.440  3.0363  0.4627  1.4535
   31MOL0     H 4264   0.448   5.818   3.371 -2.9434 -1.2736 -1.0257
   31MOL0     H 4265   0.256   5.688   3.432 -2.1407  1.6448  2.3633
   31MOL0     H 4266   0.048   5.557   3.690  2.0641 -0.4717  1.4928
   31MOL0     H 4267   0.106   5.660   3.561  0.9786  0.1018  0.2700
   31MOL0     H 4268   0.089   5.479   3.402 -2.4592  2.3416 -0.5287
   31MOL0     H 4269  -0.071   5.508   3.477 -0.0341  1.0097 -0.7912
   31MOL0     H 4270   0.112   5.269   3.520  0.0911 -0.0263 -1.1894
   31MOL0     H 4271  -0.031   5.309   3.631 -1.4758  2.5958 -0.4801
   31MOL0     H 4272  -0.088   5.135   3.434  2.7502 -0.2973 -3.3303
   31MOL0     H 4273  -0.066   5.278   3.331  0.1538  2.2118  0.4130
   31MOL0     H 4274  -0.431   5.403   3.458 -0.7445 -1.5024 -0.6879
   31MOL0     H 4275   0.440   5.523   3.778 -2.9537 -0.2861  0.3166
   31MOL0     H 4276   0.759   5.592   3.694 -1.4440 -1.5548 -0.1193
   31MOL0     H 4277   0.709   5.726   3.806  0.5892 -0.2920 -0.6215
   31MOL0     H 4278   0.640   5.560   3.821 -1.3950  0.7495  1.3206
   32MOL0     O 4279   3.064   0.833   0.570 -0.2853 -0.0552 -0.4266
   32MOL0     C 4280   3.104   0.788   0.675  0.0733  0.0611 -0.1348
   32MOL0     O 4281   3.027   0.728   0.759 -0.2441  0.6758  0.3218
   32MOL0     C 4282   2.891   0.756   0.763 -0.3365 -0.3127  0.3340
   32MOL0     C 4283   2.839   0.888   0.761  0.0920  0.0052 -0.2838
   32MOL0     C 4284   2.698   0.900   0.773 -0.0868  0.5290  0.3802
   32MOL0     C 4285   2.613   0.793   0.779 -0.8946  0.9101 -0.1476
   32MOL0     O 4286   2.473   0.819   0.765 -0.1858 -0.1854 -0.4383
   32MOL0     C 4287   2.384   0.725   0.831  0.0273 -0.2266 -0.3416
   32MOL0     C 4288   2.256   0.805   0.882  0.1958 -0.5164 -0.6096
   32MOL0     C 4289   2.262   0.847   1.028  0.2174  0.0660  0.0638
   32MOL0     C 4290   2.132   0.897   1.088  0.3514 -0.0978  0.2248
   32MOL0     C 4291   2.162   0.988   1.204  0.4654 -0.1261 -0.3883
   32MOL0     C 4292   2.023   1.033   1.263  0.2002  0.3537 -0.4507
   32MOL0     C 4293   2.022   1.016   1.415  0.2007 -0.1127 -0.0427
   32MOL0     C 4294   1.888   1.068   1.478 -0.5040  0.0326  0.6815
   32MOL0     N 4295   1.825   0.995   1.591  0.0615  0.2832  0.1834
   32MOL0     C 4296   1.771   0.868   1.582 -0.0670  0.3748 -0.2189
   32MOL0     C 4297   1.716   0.854   1.706  0.1537 -0.0886 -0.0570
   32MOL0     C 4298   1.609   0.753   1.731 -0.6618 -0.5293  0.3160
   32MOL0     C 4299   1.629   0.670   1.854  0.4204  0.0844 -0.4463
   32MOL0     C 4300   1.760   0.592   1.878 -0.5863  0.4866  0.5719
   32MOL0     C 4301   1.758   0.462   1.793  0.2855  0.3462 -1.4349
   32MOL0     O 4302   1.794   0.493   1.657  0.2713  0.0442  0.3068
   32MOL0     C 4303   1.928   0.497   1.622  0.0516 -0.6907  0.2413
   32MOL0     C 4304   1.948   0.530   1.486 -0.8744 -0.4690 -0.7234
   32MOL0     C 4305   2.073   0.517   1.428 -0.6349 -0.4917  0.8246
   32MOL0     C 4306   2.084   0.575   1.288  0.1712 -0.3194  0.5753
   32MOL0     C 4307   2.183   0.457   1.501  0.0419 -0.4700 -0.7355
   32MOL0     C 4308   2.319   0.435   1.441  0.3455  1.0524  0.3372
   32MOL0     O 4309   2.331   0.440   1.303 -0.4966 -0.0458 -0.0079
   32MOL0     C 4310   2.464   0.429   1.248 -0.5496  0.2319 -0.2057
   32MOL0     C 4311   2.531   0.305   1.259 -0.6246  0.5207 -0.6634
   32MOL0     C 4312   2.666   0.292   1.211  0.2485 -0.5170 -0.5036
   32MOL0     C 4313   2.726   0.402   1.143  0.2172  0.4231 -0.4522
   32MOL0     O 4314   2.860   0.411   1.102 -0.1236 -0.0573 -0.7122
   32MOL0     C 4315   2.952   0.301   1.129 -0.2692  0.3866  0.1003
   32MOL0     C 4316   3.089   0.341   1.058  0.1776 -1.4597 -0.0490
   32MOL0     C 4317   3.214   0.292   1.124  0.1584 -0.1709  0.2086
   32MOL0     C 4318   3.331   0.367   1.058 -1.7284 -0.3280  0.5123
   32MOL0     C 4319   3.454   0.379   1.149  0.0880 -0.5679 -0.1191
   32MOL0     C 4320   3.533   0.248   1.129 -0.3810  0.6277 -1.0487
   32MOL0     C 4321   3.614   0.206   1.255 -0.2533 -0.1821  0.4004
   32MOL0     C 4322   3.515   0.163   1.368 -0.8681  0.7205  0.4254
   32MOL0    Cl 4323   3.589   0.152   1.537 -0.1503 -0.1473  0.2844
   32MOL0     C 4324   2.663   0.524   1.139 -0.6670  0.6790 -0.2262
   32MOL0     C 4325   2.534   0.538   1.192  0.9094 -0.0756 -0.4250
   32MOL0     O 4326   2.406   0.396   1.520  0.2574  0.0724  0.3439
   32MOL0     C 4327   2.162   0.438   1.645 -0.0907  1.1524  0.4169
   32MOL0     C 4328   2.034   0.448   1.701  0.2807  0.0237 -0.8629
   32MOL0     N 4329   1.749   0.950   1.788 -0.3596 -0.3225 -0.4531
   32MOL0     N 4330   1.821   1.030   1.713  0.6032  0.6025  0.0242
   32MOL0     C 4331   2.667   0.661   0.784  0.8955 -0.5467 -0.2772
   32MOL0     C 4332   2.802   0.646   0.767  0.0295  0.4617 -1.0760
   32MOL0     C 4333   3.261   0.763   0.690 -0.0633  0.6431  0.3413
   32MOL0     C 4334   3.308   0.657   0.769  0.3892 -0.3866  0.4819
   32MOL0     C 4335   3.445   0.636   0.785  0.1749  0.1439 -0.7158
   32MOL0     C 4336   3.531   0.718   0.719  0.2215  0.2652 -0.0190
   32MOL0     O 4337   3.655   0.669   0.731  0.7422 -0.6219 -0.5207
   32MOL0     C 4338   3.747   0.720   0.638  0.7524  0.2621  0.9173
   32MOL0     C 4339   3.884   0.654   0.669 -0.5342 -0.0489 -0.1972
   32MOL0     C 4340   3.995   0.673   0.564  0.3436 -0.6141 -0.1648
   32MOL0     C 4341   4.000   0.818   0.502  0.6666 -0.3970 -0.2604
   32MOL0     C 4342   3.901   0.832   0.392 -0.1856 -0.9942 -1.6623
   32MOL0     C 4343   3.825   0.852   0.299 -0.3205 -0.2227 -0.0071
   32MOL0     C 4344   3.483   0.821   0.638 -0.0844  0.4480 -0.8433
   32MOL0     C 4345   3.350   0.841   0.618  0.0151 -0.7746  0.5738
   32MOL0     C 4346   3.310   0.954   0.525 -0.2739 -0.6507  0.1136
   32MOL0     H 4347   2.916   0.963   0.769  0.6219 -0.6806  1.4170
   32MOL0     H 4348   2.653   0.998   0.764 -0.7234  0.2196  0.0825
   32MOL0     H 4349   2.437   0.671   0.910 -0.2235  0.1683  0.1021
   32MOL0     H 4350   2.338   0.666   0.751 -1.3084 -0.2938  0.4572
   32MOL0     H 4351   2.244   0.896   0.822  1.0396  1.7901  2.4457
   32MOL0     H 4352   2.165   0.746   0.866 -1.1254  0.3995  2.6404
   32MOL0     H 4353   2.294   0.770   1.099 -0.1249  1.1395  1.4463
   32MOL0     H 4354   2.327   0.935   1.036 -0.0182  0.1105  2.1688
   32MOL0     H 4355   2.067   0.949   1.017 -1.7501 -1.3449  1.1509
   32MOL0     H 4356   2.074   0.810   1.122  0.2204  1.1580  3.5433
   32MOL0     H 4357   2.222   1.073   1.170 -0.0032  1.5948  2.7027
   32MOL0     H 4358   2.220   0.932   1.278 -0.7172 -1.5705 -0.5040
   32MOL0     H 4359   1.991   1.133   1.231  0.1413  0.4204 -0.1804
   32MOL0     H 4360   1.944   0.970   1.221 -1.5029  3.1876 -1.8503
   32MOL0     H 4361   2.107   1.069   1.460  0.1085 -0.2671  0.3213
   32MOL0     H 4362   2.014   0.911   1.442  1.4590 -0.4032 -0.7786
   32MOL0     H 4363   1.885   1.176   1.489 -2.3294  0.3917 -2.3794
   32MOL0     H 4364   1.812   1.047   1.402  1.3066 -3.5181 -0.3696
   32MOL0     H 4365   1.745   0.807   1.496 -0.1449 -1.1430  0.8307
   32MOL0     H 4366   1.599   0.689   1.642 -3.1206  1.6434 -1.1492
   32MOL0     H 4367   1.511   0.802   1.731 -0.3670  0.1024 -0.6296
   32MOL0     H 4368   1.620   0.739   1.938  2.4859 -1.6066  1.2973
   32MOL0     H 4369   1.545   0.601   1.844  0.6950 -0.3606  0.2225
   32MOL0     H 4370   1.843   0.660   1.856  0.7924 -2.2907 -4.0980
   32MOL0     H 4371   1.768   0.568   1.984  1.0326  1.3128  0.6689
   32MOL0     H 4372   1.814   0.385   1.847  0.7438  1.3543 -0.4225
   32MOL0     H 4373   1.658   0.417   1.797  1.4874 -2.6009  3.4546
   32MOL0     H 4374   1.855   0.567   1.442 -2.0821 -1.4090  0.9071
   32MOL0     H 4375   2.013   0.655   1.264  2.1743  1.9339  1.7014
   32MOL0     H 4376   2.067   0.504   1.207 -2.4457  0.4491  0.3698
   32MOL0     H 4377   2.181   0.619   1.264 -0.1734 -0.8803 -2.0908
   32MOL0     H 4378   2.483   0.224   1.312  2.9373 -1.9318 -0.7959
   32MOL0     H 4379   2.724   0.203   1.227  1.2838  0.5881  2.5973
   32MOL0     H 4380   2.958   0.285   1.237  0.7319  0.2608  0.0368
   32MOL0     H 4381   2.929   0.204   1.084 -3.4464 -0.1723  2.6156
   32MOL0     H 4382   3.082   0.306   0.955 -0.4924 -2.3593  0.2929
   32MOL0     H 4383   3.104   0.449   1.056  1.5506 -1.5027  2.7177
   32MOL0     H 4384   3.210   0.183   1.124 -0.2015 -0.3107 -3.9357
   32MOL0     H 4385   3.206   0.312   1.232 -1.4031 -4.4043  1.0434
   32MOL0     H 4386   3.307   0.473   1.045 -2.3727 -0.3175  1.6106
   32MOL0     H 4387   3.357   0.339   0.956 -2.7964  0.3013  0.0475
   32MOL0     H 4388   3.518   0.465   1.124 -2.3953  1.3135 -0.4121
   32MOL0     H 4389   3.418   0.399   1.250 -1.0761  2.5946 -1.0213
   32MOL0     H 4390   3.606   0.264   1.049  0.9907 -1.1756 -0.2132
   32MOL0     H 4391   3.464   0.166   1.110 -1.2409  1.0500  0.1864
   32MOL0     H 4392   3.661   0.294   1.300 -1.7174  0.4770  0.6805
   32MOL0     H 4393   3.692   0.129   1.249  0.6516  0.6159  1.4004
   32MOL0     H 4394   3.477   0.062   1.350 -0.2676  0.8196 -1.7315
   32MOL0     H 4395   3.432   0.233   1.379 -2.6444 -1.5043  2.0387
   32MOL0     H 4396   2.717   0.611   1.105 -0.5141  0.8948  0.5583
   32MOL0     H 4397   2.493   0.638   1.204  0.7497 -0.0311 -1.3022
   32MOL0     H 4398   2.251   0.407   1.700  0.8002  0.3294 -1.3984
   32MOL0     H 4399   2.028   0.420   1.806 -0.5666 -0.0549 -0.9241
   32MOL0     H 4400   2.615   0.569   0.804 -1.4570  0.4335 -1.4771
   32MOL0     H 4401   2.842   0.545   0.775 -1.7071 -0.2453 -0.6446
   32MOL0     H 4402   3.238   0.589   0.816  0.3804 -1.0123 -0.4060
   32MOL0     H 4403   3.481   0.560   0.853  0.9881 -0.3419 -1.6587
   32MOL0     H 4404   3.712   0.683   0.541  2.4084  2.9161 -0.8245
   32MOL0     H 4405   3.752   0.829   0.635  1.8750  0.2661  1.9011
   32MOL0     H 4406   3.876   0.546   0.685 -3.7167  0.1036 -0.2935
   32MOL0     H 4407   3.919   0.697   0.763  0.8650  0.3058 -0.8543
   32MOL0     H 4408   4.093   0.656   0.609 -0.3525 -1.4089  1.1318
   32MOL0     H 4409   3.980   0.605   0.479  2.7627 -0.0189 -1.1466
   32MOL0     H 4410   4.093   0.833   0.446 -0.3424  2.0179 -1.4520
   32MOL0     H 4411   3.978   0.899   0.571  1.1879  2.6302 -3.3668
   32MOL0     H 4412   3.752   0.878   0.224 -0.5393  1.0564  0.6243
   32MOL0     H 4413   3.552   0.886   0.585  1.1046  0.1213  0.2625
   32MOL0     H 4414   3.401   1.006   0.493 -0.1334 -1.1986 -0.4009
   32MOL0     H 4415   3.261   0.922   0.432  0.1749  0.4937 -0.5445
   32MOL0     H 4416   3.262   1.035   0.579 -0.1245  0.5499 -1.4661
   33MOL0     O 4417   5.575  11.327   0.281 -0.1748  0.7033 -0.1292
   33MOL0     C 4418   5.482  11.261   0.326  0.7913  1.0782 -0.1225
   33MOL0     O 4419   5.491  11.126   0.365 -0.0226 -0.2110 -0.2668
   33MOL0     C 4420   5.609  11.062   0.357 -0.1028  0.3993  0.3920
   33MOL0     C 4421   5.630  10.987   0.242 -0.3295  1.0746 -0.0150
   33MOL0     C 4422   5.755  10.925   0.208 -0.2301  0.2611 -0.0524
   33MOL0     C 4423   5.855  10.942   0.313  0.3583 -0.2735  0.9569
   33MOL0     O 4424   5.977  10.884   0.300  0.4659 -0.4634  0.6781
   33MOL0     C 4425   6.049  10.930   0.184 -0.4790 -0.1536  0.3606
   33MOL0     C 4426   6.161  11.022   0.235  1.4432 -0.1096  0.7386
   33MOL0     C 4427   6.282  10.955   0.297  0.2630  0.4613 -0.0565
   33MOL0     C 4428   6.355  10.869   0.200 -0.1748  0.8767 -0.0384
   33MOL0     C 4429   6.495  10.850   0.252 -0.1025 -0.4122  0.1876
   33MOL0     C 4430   6.590  10.790   0.146 -0.5341  0.1782 -0.3491
   33MOL0     C 4431   6.736  10.780   0.201 -0.2479  0.7030  0.5765
   33MOL0     C 4432   6.814  10.696   0.107 -0.6456 -0.1148  0.1381
   33MOL0     N 4433   6.952  10.686   0.155 -0.0239 -0.0090 -0.2521
   33MOL0     C 4434   6.986  10.621   0.271  0.1084  0.5573 -0.4089
   33MOL0     C 4435   7.123  10.633   0.282 -0.5841  1.2748 -0.4372
   33MOL0     C 4436   7.210  10.561   0.394 -0.3854 -0.2552 -0.4419
   33MOL0     C 4437   7.341  10.524   0.334  0.1262  0.2510  0.3610
   33MOL0     C 4438   7.453  10.483   0.432 -0.9125 -0.4948  0.1441
   33MOL0     C 4439   7.523  10.600   0.513  0.2316  0.8865  0.5113
   33MOL0     O 4440   7.632  10.656   0.435 -0.4961  0.2381 -0.5960
   33MOL0     C 4441   7.766  10.615   0.449 -0.1576  0.4005 -0.2435
   33MOL0     C 4442   7.820  10.512   0.369  0.3697 -0.2616  0.7903
   33MOL0     C 4443   7.953  10.472   0.391 -0.8000 -0.2395  0.8946
   33MOL0     C 4444   8.003  10.355   0.312  0.1061  0.3215  0.1441
   33MOL0     C 4445   8.037  10.546   0.476  0.2265 -0.0566  0.7036
   33MOL0     C 4446   8.180  10.536   0.478  0.7790 -0.1958  0.5444
   33MOL0     O 4447   8.251  10.525   0.362 -0.3208  0.2636 -0.6301
   33MOL0     C 4448   8.389  10.519   0.363 -0.2596 -0.4902 -0.1259
   33MOL0     C 4449   8.442  10.445   0.256 -0.2618  0.7388  0.1877
   33MOL0     C 4450   8.584  10.428   0.239  0.1599 -0.1445 -0.3963
   33MOL0     C 4451   8.671  10.489   0.330  0.2685  0.8287 -0.6688
   33MOL0     O 4452   8.803  10.475   0.322 -0.0571  0.0838  0.0053
   33MOL0     C 4453   8.871  10.463   0.197  0.8737 -1.2678 -0.8466
   33MOL0     C 4454   9.024  10.481   0.213 -0.3004  0.0152  0.0049
   33MOL0     C 4455   9.070  10.596   0.311 -0.0620 -0.4768 -0.2917
   33MOL0     C 4456   9.223  10.594   0.317 -0.0459 -0.2252  0.0604
   33MOL0     C 4457   9.282  10.692   0.413 -0.4856 -0.7542 -0.9273
   33MOL0     C 4458   9.432  10.723   0.379  0.5519  0.8330  0.1369
   33MOL0     C 4459   9.494  10.823   0.470  0.5319 -0.0124  0.2555
   33MOL0     C 4460   9.652  10.821   0.454  0.3024 -0.2060  0.0158
   33MOL0    Cl 4461   9.718  10.677   0.534  0.1070 -0.5839  0.1481
   33MOL0     C 4462   8.620  10.570   0.427  0.4290  0.8787 -0.0354
   33MOL0     C 4463   8.480  10.580   0.453 -0.5329 -0.2910 -0.3268
   33MOL0     O 4464   8.221  10.532   0.590  0.1741  0.2673 -0.1214
   33MOL0     C 4465   7.983  10.647   0.558 -0.4253  0.2455  0.6991
   33MOL0     C 4466   7.850  10.684   0.540  0.0999 -0.1636 -0.0499
   33MOL0     N 4467   7.162  10.700   0.174 -0.0678 -0.3388 -0.2593
   33MOL0     N 4468   7.060  10.736   0.098  0.6656 -0.2578  0.3061
   33MOL0     C 4469   5.835  11.013   0.423  0.2214 -1.0128 -0.4737
   33MOL0     C 4470   5.711  11.088   0.440 -1.6123  1.2247 -0.2423
   33MOL0     C 4471   5.351  11.336   0.337 -0.3776  0.4365  0.0010
   33MOL0     C 4472   5.252  11.261   0.395 -0.7015  0.9442 -0.8818
   33MOL0     C 4473   5.127  11.311   0.425 -0.0143 -0.1347 -0.8174
   33MOL0     C 4474   5.095  11.443   0.386 -0.5755  0.6866 -0.1243
   33MOL0     O 4475   4.970  11.486   0.426 -0.3271 -0.5872 -0.1161
   33MOL0     C 4476   4.909  11.602   0.362  0.0773  0.3451  0.1363
   33MOL0     C 4477   4.846  11.567   0.224 -0.2214 -0.5486  0.4389
   33MOL0     C 4478   4.863  11.673   0.116  0.2361  0.1590  0.3429
   33MOL0     C 4479   4.807  11.803   0.165 -0.9209 -0.7604 -0.6952
   33MOL0     C 4480   4.665  11.810   0.188  0.3186  0.1272  0.1673
   33MOL0     C 4481   4.552  11.791   0.221  0.1247 -0.0245  0.4397
   33MOL0     C 4482   5.188  11.513   0.314 -0.6492 -0.6106 -0.3923
   33MOL0     C 4483   5.322  11.464   0.286 -0.2154  0.1721 -0.8225
   33MOL0     C 4484   5.419  11.558   0.215  0.3987  0.2226  0.0518
   33MOL0     H 4485   5.539  10.980   0.184  0.8782 -0.7627 -1.8119
   33MOL0     H 4486   5.769  10.872   0.114 -1.3186 -3.2528  1.5663
   33MOL0     H 4487   5.981  10.986   0.119 -0.4213 -1.7335 -1.1225
   33MOL0     H 4488   6.096  10.854   0.122 -0.2926  1.6635 -1.8380
   33MOL0     H 4489   6.193  11.077   0.146  2.2823 -1.1118  0.3983
   33MOL0     H 4490   6.127  11.095   0.309  2.3457  0.8871  0.1989
   33MOL0     H 4491   6.350  11.036   0.324  2.3158 -1.4326  0.8134
   33MOL0     H 4492   6.259  10.893   0.384  2.8852 -0.5870  0.0033
   33MOL0     H 4493   6.301  10.775   0.191  0.6794  0.4362 -0.7155
   33MOL0     H 4494   6.360  10.912   0.099 -0.4581  0.1012 -0.3889
   33MOL0     H 4495   6.488  10.786   0.341  0.3559  0.5908  0.9715
   33MOL0     H 4496   6.528  10.951   0.279 -1.7915 -0.0461  1.0558
   33MOL0     H 4497   6.551  10.693   0.114 -2.5145  1.4776 -2.1753
   33MOL0     H 4498   6.602  10.855   0.060  2.0704 -0.5748 -0.6567
   33MOL0     H 4499   6.735  10.736   0.301  1.6208  0.2510  0.4323
   33MOL0     H 4500   6.778  10.881   0.211 -1.7456  1.5597 -1.1384
   33MOL0     H 4501   6.775  10.594   0.102  1.3483 -0.9302  0.0569
   33MOL0     H 4502   6.816  10.751   0.013  1.3561  2.3279  1.4857
   33MOL0     H 4503   6.924  10.569   0.344  0.7246  0.6232  0.1685
   33MOL0     H 4504   7.161  10.473   0.435  0.8085 -1.7304 -2.0263
   33MOL0     H 4505   7.234  10.635   0.471  3.3589 -0.4924 -1.1693
   33MOL0     H 4506   7.323  10.449   0.256 -0.8723  1.4757 -0.6519
   33MOL0     H 4507   7.389  10.613   0.292 -1.8023  1.5546  0.7790
   33MOL0     H 4508   7.402  10.415   0.501 -0.2234 -0.4356  0.7243
   33MOL0     H 4509   7.529  10.415   0.391 -0.6307 -1.0373  1.5013
   33MOL0     H 4510   7.446  10.677   0.523 -0.5834  0.4054 -1.6719
   33MOL0     H 4511   7.553  10.574   0.615 -3.1900  2.0889  1.9599
   33MOL0     H 4512   7.768  10.467   0.285 -0.1869  0.5982  0.6522
   33MOL0     H 4513   7.928  10.286   0.275  0.1471  0.2998  0.0994
   33MOL0     H 4514   8.063  10.285   0.370 -3.1285 -3.0685 -0.2356
   33MOL0     H 4515   8.056  10.395   0.225  0.3951  1.1825  0.7026
   33MOL0     H 4516   8.368  10.417   0.182 -1.7134  0.9718  1.5021
   33MOL0     H 4517   8.619  10.358   0.164 -0.6940 -0.2099 -0.7437
   33MOL0     H 4518   8.852  10.364   0.155  1.9564 -2.5690  1.5708
   33MOL0     H 4519   8.831  10.539   0.129  0.3349  0.8591  1.6936
   33MOL0     H 4520   9.063  10.385   0.248 -0.7368 -0.2499 -0.2368
   33MOL0     H 4521   9.064  10.505   0.114 -1.4965  2.6113  0.0693
   33MOL0     H 4522   9.030  10.566   0.408 -0.0773 -3.7363 -1.2016
   33MOL0     H 4523   9.033  10.696   0.285 -2.2303 -1.0932  0.1505
   33MOL0     H 4524   9.245  10.637   0.218 -2.6414  1.0842 -0.0573
   33MOL0     H 4525   9.256  10.491   0.327  1.4980  0.4972  4.1720
   33MOL0     H 4526   9.236  10.790   0.395 -1.8686 -1.0704  0.7122
   33MOL0     H 4527   9.268  10.669   0.519  1.0307  0.5577 -0.3935
   33MOL0     H 4528   9.440  10.755   0.275  1.6383 -0.2195 -0.1205
   33MOL0     H 4529   9.480  10.626   0.391 -1.1647  0.0189  0.8008
   33MOL0     H 4530   9.462  10.792   0.570 -0.7244 -0.4835 -0.2761
   33MOL0     H 4531   9.463  10.926   0.449  1.2248  0.0481 -0.5375
   33MOL0     H 4532   9.696  10.909   0.502 -1.1064  0.6647 -0.2269
   33MOL0     H 4533   9.685  10.825   0.349 -0.8612  1.0256 -0.3376
   33MOL0     H 4534   8.690  10.626   0.488 -0.3777  0.3538  1.4232
   33MOL0     H 4535   8.450  10.642   0.536  0.4854 -2.4635  1.7686
   33MOL0     H 4536   8.051  10.710   0.616  1.9307 -1.2452 -0.3065
   33MOL0     H 4537   7.813  10.765   0.602  0.3709 -0.8899  1.1112
   33MOL0     H 4538   5.909  11.014   0.503 -0.1713  0.2112 -0.1011
   33MOL0     H 4539   5.703  11.155   0.526  0.0991  2.4980 -1.0088
   33MOL0     H 4540   5.275  11.162   0.434  0.4698  0.3147 -2.9955
   33MOL0     H 4541   5.057  11.250   0.482  1.1236 -0.2775  0.4924
   33MOL0     H 4542   4.826  11.626   0.428  0.9737  3.1891  0.3841
   33MOL0     H 4543   4.971  11.692   0.352  0.6180  0.0203  0.4909
   33MOL0     H 4544   4.741  11.542   0.245  0.7283 -3.3249  2.6088
   33MOL0     H 4545   4.901  11.485   0.178  2.6958  0.5831  1.6394
   33MOL0     H 4546   4.969  11.688   0.091  0.1320 -1.5305 -1.4009
   33MOL0     H 4547   4.811  11.623   0.034 -2.6482  1.6229  1.1674
   33MOL0     H 4548   4.830  11.882   0.094  2.6999 -0.1355  0.9293
   33MOL0     H 4549   4.861  11.850   0.248 -0.8004  0.1115 -1.2606
   33MOL0     H 4550   4.445  11.790   0.225  0.0093  1.7205 -1.1231
   33MOL0     H 4551   5.169  11.617   0.289  1.9049 -0.2575 -1.1332
   33MOL0     H 4552   5.517  11.578   0.259  1.2879  0.0046 -1.7313
   33MOL0     H 4553   5.439  11.505   0.121 -1.3664 -0.3298 -0.0637
   33MOL0     H 4554   5.371  11.654   0.192 -2.0277 -1.4140 -2.3317
   34MOL0     O 4555  10.950   3.369   8.320 -0.1941  0.2313 -0.1850
   34MOL0     C 4556  10.941   3.349   8.439  0.1919 -0.3115  0.2564
   34MOL0     O 4557  11.042   3.365   8.531  0.4444  0.3356  0.3724
   34MOL0     C 4558  11.166   3.401   8.492  0.1883  0.4398 -0.2038
   34MOL0     C 4559  11.257   3.295   8.476 -0.3609 -0.6690  0.2543
   34MOL0     C 4560  11.392   3.321   8.442  0.0669 -0.0319 -0.4197
   34MOL0     C 4561  11.431   3.456   8.431  0.2601 -0.5842 -0.2416
   34MOL0     O 4562  11.558   3.495   8.403 -0.0552  0.3817  0.2040
   34MOL0     C 4563  11.653   3.397   8.364  0.1687  0.2351 -0.5937
   34MOL0     C 4564  11.717   3.337   8.498 -0.0956 -0.0902 -0.1347
   34MOL0     C 4565  11.825   3.428   8.558  0.7422 -0.2842  0.2244
   34MOL0     C 4566  11.915   3.364   8.661 -0.0656 -0.2362  0.4786
   34MOL0     C 4567  11.996   3.472   8.727  0.2590 -0.4658  0.2322
   34MOL0     C 4568  12.131   3.435   8.780 -0.3892  0.2891  0.2581
   34MOL0     C 4569  12.119   3.325   8.892  0.1294 -1.1735 -0.2065
   34MOL0     C 4570  12.249   3.269   8.943 -0.3572  0.3880 -0.0653
   34MOL0     N 4571  12.311   3.371   9.031 -0.0821 -0.0671 -0.0225
   34MOL0     C 4572  12.402   3.464   8.987 -0.4689  0.0850  0.0479
   34MOL0     C 4573  12.439   3.535   9.098 -0.5433  0.0475 -0.3920
   34MOL0     C 4574  12.519   3.654   9.096 -0.1433 -0.4687 -0.5603
   34MOL0     C 4575  12.656   3.635   9.027  0.7351  0.6848 -0.0191
   34MOL0     C 4576  12.742   3.768   9.026  0.1545  0.2522 -0.9713
   34MOL0     C 4577  12.880   3.735   8.986  0.7016 -0.3505  0.4342
   34MOL0     O 4578  12.946   3.861   8.971  0.3903  0.8876 -0.3907
   34MOL0     C 4579  13.086   3.855   8.959  0.2114  0.1373 -0.1617
   34MOL0     C 4580  13.156   3.975   8.956 -0.4430  0.3417 -0.5777
   34MOL0     C 4581  13.298   3.992   8.953  0.9175 -0.2301 -0.2634
   34MOL0     C 4582  13.345   4.138   8.955  0.3883 -1.3211 -0.7619
   34MOL0     C 4583  13.378   3.874   8.958 -0.2807 -0.5413 -0.0826
   34MOL0     C 4584  13.527   3.879   8.962 -0.3413 -0.3843  0.5434
   34MOL0     O 4585  13.589   3.763   8.982 -0.5033 -0.6825 -0.1940
   34MOL0     C 4586  13.723   3.744   8.951 -0.2679  0.1875 -0.2037
   34MOL0     C 4587  13.782   3.632   9.003 -0.3772  0.7226  0.5765
   34MOL0     C 4588  13.920   3.609   8.970 -1.0410  0.0860 -0.3045
   34MOL0     C 4589  13.989   3.697   8.882 -0.3696 -0.1230 -0.2031
   34MOL0     O 4590  14.128   3.673   8.857 -0.5517  0.4702  0.2306
   34MOL0     C 4591  14.210   3.773   8.795 -0.1731 -0.1384 -0.4367
   34MOL0     C 4592  14.218   3.906   8.867  0.2868 -0.2393 -0.2173
   34MOL0     C 4593  14.227   4.029   8.780  0.3480  0.1342  0.2119
   34MOL0     C 4594  14.198   4.165   8.857 -0.0724  0.1845  0.1935
   34MOL0     C 4595  14.142   4.273   8.772  0.4118 -0.0066 -0.0697
   34MOL0     C 4596  14.002   4.242   8.720 -0.9044 -0.4910 -0.6493
   34MOL0     C 4597  13.902   4.227   8.835 -0.5295  0.4457  0.8580
   34MOL0     C 4598  13.767   4.207   8.771  0.0174 -0.3864  0.0765
   34MOL0    Cl 4599  13.718   4.353   8.680 -0.2087 -0.0129  0.3841
   34MOL0     C 4600  13.925   3.802   8.828 -0.0536  0.2596 -0.1483
   34MOL0     C 4601  13.788   3.822   8.857  0.1067  0.2788 -0.0583
   34MOL0     O 4602  13.587   3.986   8.962  0.1223  0.1888 -0.6300
   34MOL0     C 4603  13.314   3.751   8.935 -0.8656  0.3018  0.0601
   34MOL0     C 4604  13.168   3.741   8.935  0.1185  0.3009  0.5324
   34MOL0     N 4605  12.381   3.482   9.211 -0.2797 -0.6452 -0.3509
   34MOL0     N 4606  12.305   3.383   9.173  0.1884 -0.4255 -0.6409
   34MOL0     C 4607  11.329   3.557   8.437  0.0116  0.2408 -0.0134
   34MOL0     C 4608  11.202   3.532   8.477  0.2426  0.7091  0.7922
   34MOL0     C 4609  10.802   3.331   8.500  0.2361  0.8322  0.5638
   34MOL0     C 4610  10.781   3.293   8.638 -0.1069  0.2491 -0.2515
   34MOL0     C 4611  10.655   3.276   8.700 -0.3799 -0.0089 -0.1846
   34MOL0     C 4612  10.541   3.268   8.621  0.5870 -0.3662  0.3730
   34MOL0     O 4613  10.419   3.227   8.678 -0.7144 -0.0774  0.2335
   34MOL0     C 4614  10.423   3.114   8.759 -0.1196 -0.3322  0.0838
   34MOL0     C 4615  10.285   3.086   8.810  0.4342 -0.5210  0.2919
   34MOL0     C 4616  10.289   2.974   8.918 -0.3405 -0.2121 -0.2507
   34MOL0     C 4617  10.141   2.953   8.984  0.1697  0.3274  0.3215
   34MOL0     C 4618  10.037   2.909   8.882  0.2835 -0.2190  0.0110
   34MOL0     C 4619   9.958   2.860   8.805 -0.5793  0.1838  0.4030
   34MOL0     C 4620  10.557   3.289   8.480  0.6579 -1.0068 -0.4068
   34MOL0     C 4621  10.680   3.323   8.419  0.6371 -0.2250  0.7522
   34MOL0     C 4622  10.664   3.350   8.272  0.1762 -0.7531  0.2645
   34MOL0     H 4623  11.218   3.194   8.488  0.4702 -1.1682 -1.0141
   34MOL0     H 4624  11.459   3.236   8.434  1.6660  0.9324  1.5612
   34MOL0     H 4625  11.726   3.453   8.304 -0.5010 -0.8797 -2.5302
   34MOL0     H 4626  11.613   3.317   8.302 -0.2009  1.3068 -1.7984
   34MOL0     H 4627  11.638   3.321   8.572  0.2488  1.3381  0.5773
   34MOL0     H 4628  11.758   3.238   8.479  0.1128 -0.7487  3.1351
   34MOL0     H 4629  11.885   3.473   8.478  0.2798 -0.0683 -0.0058
   34MOL0     H 4630  11.787   3.521   8.602 -0.0498  0.3580 -1.6844
   34MOL0     H 4631  11.860   3.304   8.734  1.1942 -1.1303  0.7177
   34MOL0     H 4632  11.989   3.303   8.608 -0.2424 -1.5604  1.7044
   34MOL0     H 4633  11.933   3.516   8.805  1.0030  1.3024 -0.1164
   34MOL0     H 4634  12.012   3.554   8.656  2.4907 -0.4275  0.7069
   34MOL0     H 4635  12.186   3.393   8.695 -2.0688 -0.9180 -0.3056
   34MOL0     H 4636  12.183   3.521   8.822  2.5618 -1.9019  1.4678
   34MOL0     H 4637  12.055   3.247   8.851  1.1629 -1.7626 -0.7364
   34MOL0     H 4638  12.067   3.361   8.982  1.2453 -1.3141  0.5141
   34MOL0     H 4639  12.222   3.185   9.007  0.6225  0.9044  1.0466
   34MOL0     H 4640  12.309   3.240   8.856 -1.7486  2.8590 -2.0081
   34MOL0     H 4641  12.440   3.493   8.889  1.9264  1.1700  1.2055
   34MOL0     H 4642  12.531   3.684   9.200  0.5164  4.7661 -1.8399
   34MOL0     H 4643  12.462   3.735   9.049 -2.8395 -1.7280  0.2914
   34MOL0     H 4644  12.711   3.565   9.090  1.7118  2.7328  1.5386
   34MOL0     H 4645  12.642   3.600   8.925  1.5648 -0.8512  0.3603
   34MOL0     H 4646  12.689   3.847   8.973  0.2010  1.1886  0.3312
   34MOL0     H 4647  12.747   3.819   9.123  0.9512 -0.3215 -0.6988
   34MOL0     H 4648  12.931   3.659   9.046  1.6272  1.3724  1.9231
   34MOL0     H 4649  12.878   3.699   8.882  2.3857  0.8410 -0.0504
   34MOL0     H 4650  13.090   4.059   8.969 -0.0884  0.4535  0.6293
   34MOL0     H 4651  13.388   4.149   9.055 -1.0547  1.8599 -0.3454
   34MOL0     H 4652  13.262   4.210   8.959  1.3425 -0.2348  0.3299
   34MOL0     H 4653  13.411   4.161   8.871  1.8237 -1.4843  0.2931
   34MOL0     H 4654  13.709   3.572   9.057 -2.0448  1.7844 -0.3946
   34MOL0     H 4655  13.975   3.528   9.018  2.4469  2.3700 -0.0593
   34MOL0     H 4656  14.308   3.729   8.775  0.4413  1.4881 -1.1649
   34MOL0     H 4657  14.165   3.789   8.697 -0.1033 -1.4979 -0.7120
   34MOL0     H 4658  14.128   3.920   8.928 -0.2163 -0.9604 -0.7663
   34MOL0     H 4659  14.295   3.915   8.944  0.1265 -0.0456 -0.0784
   34MOL0     H 4660  14.148   4.020   8.704 -1.5426  0.8356  1.9969
   34MOL0     H 4661  14.324   4.033   8.730 -0.5718 -0.9833 -1.7644
   34MOL0     H 4662  14.288   4.209   8.900 -0.3082  0.7103  0.1657
   34MOL0     H 4663  14.130   4.140   8.939  0.6651  1.4414  1.2227
   34MOL0     H 4664  14.142   4.364   8.833 -2.5083  1.1016 -1.5245
   34MOL0     H 4665  14.219   4.289   8.696  0.6366 -0.2358  0.1086
   34MOL0     H 4666  14.012   4.153   8.657  3.7091  0.1364 -1.1599
   34MOL0     H 4667  13.976   4.329   8.659  1.5916  0.1609 -0.8926
   34MOL0     H 4668  13.904   4.318   8.896  0.0936  0.9610  0.0808
   34MOL0     H 4669  13.926   4.138   8.896  2.0775 -0.4701 -1.3079
   34MOL0     H 4670  13.693   4.198   8.851  1.8094  0.1489  1.8803
   34MOL0     H 4671  13.762   4.126   8.697 -0.3783 -0.9360  0.6885
   34MOL0     H 4672  13.965   3.863   8.747 -1.9626 -0.0341 -1.3816
   34MOL0     H 4673  13.743   3.896   8.792 -1.4581 -1.4413 -1.0296
   34MOL0     H 4674  13.370   3.659   8.920 -1.7193 -0.2683  0.3044
   34MOL0     H 4675  13.127   3.641   8.928  1.2057 -0.1510  0.5178
   34MOL0     H 4676  11.361   3.659   8.417 -0.4084  0.6722  1.3681
   34MOL0     H 4677  11.133   3.615   8.491  0.3574  1.3730 -2.1133
   34MOL0     H 4678  10.870   3.287   8.700  1.4888 -3.2375 -2.5267
   34MOL0     H 4679  10.643   3.258   8.807  0.4391  1.4176  0.1773
   34MOL0     H 4680  10.464   3.030   8.703 -1.8696 -0.4187 -1.1404
   34MOL0     H 4681  10.478   3.145   8.849  0.3687  0.6345 -0.5312
   34MOL0     H 4682  10.229   3.052   8.723  0.1180  0.3539  0.1453
   34MOL0     H 4683  10.238   3.177   8.848 -0.8932 -2.1061  2.7654
   34MOL0     H 4684  10.329   2.881   8.876  0.0660 -0.5509  0.8467
   34MOL0     H 4685  10.358   3.007   8.995 -1.5060 -0.3406  0.8755
   34MOL0     H 4686  10.118   3.047   9.033 -0.2711  1.3552 -1.7595
   34MOL0     H 4687  10.150   2.878   9.064  1.8221  1.5702  1.3722
   34MOL0     H 4688   9.884   2.811   8.745  0.3611 -1.2203  0.3382
   34MOL0     H 4689  10.478   3.272   8.408  0.6732  0.8442 -0.9317
   34MOL0     H 4690  10.743   3.421   8.245  1.7054 -1.7311  1.9471
   34MOL0     H 4691  10.663   3.262   8.208 -1.2980 -0.9764  0.5565
   34MOL0     H 4692  10.573   3.406   8.247  1.3838  2.4977  2.4358
   35MOL0     O 4693   1.358   5.973   3.946 -0.0764  0.3537 -0.0306
   35MOL0     C 4694   1.372   6.002   4.068  0.7727  0.7371  0.0754
   35MOL0     O 4695   1.477   5.975   4.141 -0.5475 -0.2493 -0.4187
   35MOL0     C 4696   1.586   5.914   4.087 -0.3915 -0.4376 -0.3961
   35MOL0     C 4697   1.577   5.777   4.091 -0.7474 -1.2775 -0.2111
   35MOL0     C 4698   1.694   5.713   4.050 -0.6767  0.1108  0.4741
   35MOL0     C 4699   1.809   5.781   3.994  0.6320  0.8825  0.5762
   35MOL0     O 4700   1.917   5.720   3.931 -0.2469  0.4362  0.4408
   35MOL0     C 4701   1.892   5.611   3.846 -0.2636 -0.5650 -0.2717
   35MOL0     C 4702   2.011   5.595   3.749  0.0266 -0.2632 -0.0660
   35MOL0     C 4703   2.146   5.579   3.825 -0.9136  0.6405 -0.3672
   35MOL0     C 4704   2.263   5.536   3.733 -0.5493  0.5695  0.5006
   35MOL0     C 4705   2.398   5.558   3.791 -0.5442  0.0505 -0.3716
   35MOL0     C 4706   2.508   5.507   3.703 -0.3270  0.1238  0.1225
   35MOL0     C 4707   2.647   5.536   3.766 -1.0571 -0.1698 -0.3921
   35MOL0     C 4708   2.768   5.506   3.677 -0.8758  0.5459 -0.2650
   35MOL0     N 4709   2.777   5.362   3.648  0.4199  0.0091 -0.2131
   35MOL0     C 4710   2.856   5.275   3.710 -0.2178  0.6187  0.7140
   35MOL0     C 4711   2.833   5.163   3.647  0.0863  0.6775  0.8665
   35MOL0     C 4712   2.906   5.031   3.657 -0.3936 -0.1320 -0.2311
   35MOL0     C 4713   2.824   4.929   3.739 -0.0851 -0.1952  0.2984
   35MOL0     C 4714   2.897   4.797   3.730  0.1134  0.7266  0.3185
   35MOL0     C 4715   3.028   4.783   3.806  0.7267 -0.2678  0.1583
   35MOL0     O 4716   3.102   4.671   3.763 -0.7679 -0.3272 -0.2031
   35MOL0     C 4717   3.224   4.639   3.816  1.0919  0.2140  0.2059
   35MOL0     C 4718   3.301   4.534   3.762  0.0139  0.4745  0.1981
   35MOL0     C 4719   3.420   4.482   3.820  0.5880 -0.1041 -0.1015
   35MOL0     C 4720   3.484   4.366   3.751 -0.2360 -0.4705  0.1228
   35MOL0     C 4721   3.477   4.545   3.935  0.9223 -0.1275  0.8506
   35MOL0     C 4722   3.609   4.512   4.002  0.8638 -0.8280  0.1489
   35MOL0     O 4723   3.699   4.432   3.945  0.0803  0.1918 -0.4481
   35MOL0     C 4724   3.820   4.472   3.980 -0.2971  0.3083  0.6865
   35MOL0     C 4725   3.886   4.401   4.077  0.1250 -0.4806 -0.1408
   35MOL0     C 4726   4.011   4.435   4.111 -0.3010  0.1901 -0.2247
   35MOL0     C 4727   4.081   4.544   4.056 -0.1729  0.1453  0.7716
   35MOL0     O 4728   4.203   4.575   4.106 -0.2198  0.3093  0.1704
   35MOL0     C 4729   4.278   4.680   4.053  0.2917 -0.2168  0.3478
   35MOL0     C 4730   4.398   4.699   4.148 -0.0724 -0.2415  0.3727
   35MOL0     C 4731   4.353   4.800   4.261 -1.0204  0.2752  0.5748
   35MOL0     C 4732   4.471   4.851   4.344  0.3021 -0.3417  0.5185
   35MOL0     C 4733   4.433   4.964   4.441 -0.8887 -0.1581 -1.0827
   35MOL0     C 4734   4.555   4.993   4.553  1.0484  0.7144  0.1951
   35MOL0     C 4735   4.683   5.034   4.484 -0.7534  0.1246  0.2557
   35MOL0     C 4736   4.785   5.065   4.595 -0.3168 -0.1682 -0.3618
   35MOL0    Cl 4737   4.952   5.055   4.533 -0.2389  0.1375  0.5346
   35MOL0     C 4738   4.016   4.610   3.956 -0.1832  0.0018  0.3313
   35MOL0     C 4739   3.887   4.583   3.917 -0.2121 -0.2249  0.2881
   35MOL0     O 4740   3.607   4.553   4.120  0.5915  1.3028  0.2587
   35MOL0     C 4741   3.399   4.649   3.990  0.4115  0.1210  0.8060
   35MOL0     C 4742   3.277   4.693   3.933 -0.4291 -0.7030 -0.1815
   35MOL0     N 4743   2.743   5.180   3.545 -0.5678  0.5817  0.4516
   35MOL0     N 4744   2.707   5.300   3.547  0.2677 -0.1163 -0.1740
   35MOL0     C 4745   1.807   5.921   4.004 -0.7618  0.8156 -0.6300
   35MOL0     C 4746   1.701   5.987   4.054  0.5244  0.5547 -0.2950
   35MOL0     C 4747   1.246   6.050   4.124  0.0896 -0.4319 -0.2425
   35MOL0     C 4748   1.161   6.135   4.045  0.0243 -0.3922 -0.0653
   35MOL0     C 4749   1.038   6.180   4.092  0.5326  0.7536  0.1566
   35MOL0     C 4750   0.986   6.148   4.219  0.2106 -0.4921 -0.3701
   35MOL0     O 4751   0.868   6.203   4.270 -0.0596  0.1157 -0.8618
   35MOL0     C 4752   0.765   6.241   4.173  0.1655 -0.6217  0.3508
   35MOL0     C 4753   0.635   6.232   4.255 -0.2409  0.4038  0.7499
   35MOL0     C 4754   0.523   6.209   4.151  0.7319 -0.1937 -0.5762
   35MOL0     C 4755   0.378   6.201   4.206  0.7949 -0.4290  0.2409
   35MOL0     C 4756   0.374   6.089   4.305  0.8086  0.5819 -0.4064
   35MOL0     C 4757   0.358   6.003   4.382  0.1233  0.0154  0.3897
   35MOL0     C 4758   1.072   6.065   4.293  0.2463  0.1201  0.2650
   35MOL0     C 4759   1.196   6.013   4.252 -0.2094 -0.0724  0.7867
   35MOL0     C 4760   1.277   5.937   4.355  0.9823  0.2062 -0.4638
   35MOL0     H 4761   1.484   5.727   4.115 -1.5841 -0.0325 -0.7804
   35MOL0     H 4762   1.710   5.608   4.029 -2.5941  0.1260 -1.4428
   35MOL0     H 4763   1.806   5.630   3.779 -0.2788  1.2813  0.2121
   35MOL0     H 4764   1.872   5.517   3.897 -2.9518  1.1625  2.1774
   35MOL0     H 4765   1.991   5.502   3.693 -0.6602 -0.8601  1.1271
   35MOL0     H 4766   2.018   5.683   3.684  2.9525  0.2600  0.8393
   35MOL0     H 4767   2.164   5.677   3.870 -2.6204 -0.0799  2.0780
   35MOL0     H 4768   2.132   5.514   3.911 -0.5078 -0.7154 -1.2966
   35MOL0     H 4769   2.242   5.430   3.714  1.0344 -0.0012  1.6747
   35MOL0     H 4770   2.265   5.582   3.633  1.6790  1.0563  0.7144
   35MOL0     H 4771   2.400   5.502   3.884  3.6140  1.9045  0.8853
   35MOL0     H 4772   2.413   5.662   3.823  0.1576 -1.0966  3.5444
   35MOL0     H 4773   2.498   5.400   3.680 -3.6192  0.3058  0.2544
   35MOL0     H 4774   2.498   5.558   3.607  0.1530 -0.2816 -0.1464
   35MOL0     H 4775   2.661   5.477   3.857  1.6353 -0.6681 -1.0417
   35MOL0     H 4776   2.647   5.638   3.805 -0.1697 -0.2206 -0.2566
   35MOL0     H 4777   2.756   5.558   3.582  1.3551 -1.5558 -1.8433
   35MOL0     H 4778   2.860   5.544   3.723 -1.7103  3.8548 -1.1095
   35MOL0     H 4779   2.929   5.311   3.782  0.9708  1.0335 -0.6751
   35MOL0     H 4780   3.000   5.047   3.710 -0.3022  1.7995 -0.8980
   35MOL0     H 4781   2.933   4.989   3.559  1.7694 -1.2020  0.7518
   35MOL0     H 4782   2.812   4.967   3.841 -2.0235 -0.4810  0.2219
   35MOL0     H 4783   2.724   4.920   3.697 -0.8613  0.4864  1.8952
   35MOL0     H 4784   2.836   4.724   3.784  0.0073  0.9989  0.5675
   35MOL0     H 4785   2.904   4.768   3.624  1.1663 -0.6761  0.7507
   35MOL0     H 4786   3.075   4.881   3.797  1.0965 -0.5895 -1.8797
   35MOL0     H 4787   2.999   4.767   3.911  0.2607  0.2714  0.1136
   35MOL0     H 4788   3.274   4.485   3.669  2.5660 -2.5963  0.9114
   35MOL0     H 4789   3.548   4.304   3.814 -2.2077 -2.9684 -0.1779
   35MOL0     H 4790   3.546   4.407   3.671  0.2628  0.3061  0.8874
   35MOL0     H 4791   3.407   4.307   3.700 -1.8034  3.4479 -2.5417
   35MOL0     H 4792   3.826   4.324   4.125 -3.0350  1.9797  0.2322
   35MOL0     H 4793   4.058   4.383   4.194  0.0453  2.2340  0.9284
   35MOL0     H 4794   4.315   4.664   3.952 -0.5826  3.0340 -0.6313
   35MOL0     H 4795   4.221   4.773   4.039  0.9231  0.2979  1.0557
   35MOL0     H 4796   4.448   4.610   4.188  0.5819  0.3942  0.9977
   35MOL0     H 4797   4.465   4.754   4.080  1.4403 -1.0074  1.2027
   35MOL0     H 4798   4.273   4.753   4.319 -3.9226  1.6282 -1.9691
   35MOL0     H 4799   4.302   4.891   4.227 -4.3681 -0.9122  1.9453
   35MOL0     H 4800   4.550   4.883   4.275  0.2465 -2.0870 -0.3961
   35MOL0     H 4801   4.511   4.773   4.409  0.6973  0.0609  0.7695
   35MOL0     H 4802   4.400   5.055   4.390  1.5702  0.0817 -2.4094
   35MOL0     H 4803   4.348   4.918   4.492  0.7013  0.1878  2.1527
   35MOL0     H 4804   4.580   4.894   4.592  1.4216  0.6989 -0.0743
   35MOL0     H 4805   4.515   5.060   4.630 -0.9384  2.3180 -2.0640
   35MOL0     H 4806   4.671   5.114   4.409  2.0865 -0.3205 -0.7930
   35MOL0     H 4807   4.715   4.941   4.436 -0.7839 -0.1749  0.8141
   35MOL0     H 4808   4.786   5.001   4.683  1.5001  0.0008 -0.2332
   35MOL0     H 4809   4.745   5.160   4.631  0.5177 -0.2562  0.8459
   35MOL0     H 4810   4.064   4.702   3.923 -0.7383  0.3239  0.4226
   35MOL0     H 4811   3.841   4.654   3.849  0.0872 -1.0443 -0.8044
   35MOL0     H 4812   3.428   4.694   4.084  3.7082  3.2092 -1.4295
   35MOL0     H 4813   3.223   4.774   3.982 -0.6001 -1.0564  0.2163
   35MOL0     H 4814   1.891   5.974   3.962 -2.1417  1.7041 -2.4163
   35MOL0     H 4815   1.697   6.096   4.055 -1.4535  0.5154 -0.7178
   35MOL0     H 4816   1.193   6.164   3.946 -0.0221  2.6552  0.7181
   35MOL0     H 4817   0.980   6.258   4.044 -3.3904 -0.3623  2.6509
   35MOL0     H 4818   0.774   6.347   4.146 -0.8926  0.1269  2.6387
   35MOL0     H 4819   0.762   6.184   4.080  1.4747 -0.6368  0.3012
   35MOL0     H 4820   0.617   6.327   4.305 -0.2960  1.0973 -0.5379
   35MOL0     H 4821   0.639   6.146   4.323  2.0518 -0.7155 -0.6459
   35MOL0     H 4822   0.541   6.289   4.079  0.8936  0.6951  0.4222
   35MOL0     H 4823   0.538   6.116   4.097  1.3820  0.9234 -2.4245
   35MOL0     H 4824   0.311   6.173   4.123  0.3133 -0.6473  0.6998
   35MOL0     H 4825   0.346   6.296   4.249 -0.2806 -0.1921 -1.0207
   35MOL0     H 4826   0.350   5.935   4.464  3.3109  1.4511  2.1140
   35MOL0     H 4827   1.045   6.038   4.395  0.2966  2.6213  1.0146
   35MOL0     H 4828   1.294   5.831   4.329 -2.1599 -1.2162  2.6163
   35MOL0     H 4829   1.373   5.979   4.387  0.8800  1.2905 -1.5229
   35MOL0     H 4830   1.214   5.935   4.444  1.2564  1.8313 -0.2101
   36MOL0     O 4831   1.237   3.984   4.733 -0.0550 -0.0809  0.1930
   36MOL0     C 4832   1.212   4.052   4.830  1.7367  0.4930 -0.6490
   36MOL0     O 4833   1.299   4.126   4.906  0.5384  0.1372  0.2174
   36MOL0     C 4834   1.419   4.157   4.851 -0.2323 -0.3014  0.2095
   36MOL0     C 4835   1.432   4.229   4.732 -0.7795 -0.5153 -0.0005
   36MOL0     C 4836   1.560   4.263   4.688  0.2807  0.4396 -0.0422
   36MOL0     C 4837   1.675   4.228   4.752 -0.7947  0.1745 -0.7235
   36MOL0     O 4838   1.802   4.257   4.708 -0.3279  0.1742 -0.0447
   36MOL0     C 4839   1.828   4.235   4.566 -0.6210 -0.1752  0.4586
   36MOL0     C 4840   1.879   4.375   4.520  0.6254  0.7756  0.1824
   36MOL0     C 4841   2.018   4.396   4.579  0.3806 -0.0263  0.4092
   36MOL0     C 4842   2.139   4.410   4.480  0.0656 -0.9600  0.5408
   36MOL0     C 4843   2.180   4.270   4.429 -0.7302 -0.1444 -0.7945
   36MOL0     C 4844   2.276   4.298   4.317 -0.6292  0.4039  0.1636
   36MOL0     C 4845   2.333   4.171   4.257 -0.1824  0.4830 -0.7797
   36MOL0     C 4846   2.398   4.083   4.362  0.1816  1.1618  0.4061
   36MOL0     N 4847   2.504   4.002   4.293  1.0004 -0.2997 -0.8419
   36MOL0     C 4848   2.628   3.981   4.336 -0.6074 -0.5976  0.3000
   36MOL0     C 4849   2.691   3.918   4.234  0.5237  0.1002 -0.8741
   36MOL0     C 4850   2.845   3.898   4.226 -0.3219 -0.2225  0.2060
   36MOL0     C 4851   2.941   3.986   4.315  0.0696 -0.3312  0.2810
   36MOL0     C 4852   3.076   4.017   4.257 -0.8119 -0.6370 -0.1717
   36MOL0     C 4853   3.169   3.899   4.255 -0.4490 -0.4540  0.1485
   36MOL0     O 4854   3.301   3.936   4.210  0.3578 -0.2298  0.5354
   36MOL0     C 4855   3.404   3.849   4.250  0.6287  0.2369  0.2535
   36MOL0     C 4856   3.533   3.898   4.261  0.1813 -0.7806  0.2854
   36MOL0     C 4857   3.644   3.823   4.297  0.2543  0.2333  0.0713
   36MOL0     C 4858   3.779   3.892   4.286 -0.0681  0.4839  0.2471
   36MOL0     C 4859   3.626   3.686   4.346  0.4303  0.0672  0.6911
   36MOL0     C 4860   3.727   3.585   4.375 -0.6341  0.2251 -0.6548
   36MOL0     O 4861   3.851   3.604   4.319  0.5710  0.5987  0.8664
   36MOL0     C 4862   3.956   3.517   4.347 -0.2847 -0.6504 -0.1942
   36MOL0     C 4863   3.994   3.420   4.256 -0.0285  1.0935 -0.1158
   36MOL0     C 4864   4.101   3.320   4.285  0.5050  0.2319  0.4407
   36MOL0     C 4865   4.164   3.329   4.413  0.6308  0.3236  0.7658
   36MOL0     O 4866   4.247   3.224   4.455  0.2722 -0.8269  0.0089
   36MOL0     C 4867   4.371   3.272   4.504  0.0268 -0.3138 -0.3937
   36MOL0     C 4868   4.459   3.159   4.557  0.1676 -0.9604  0.9368
   36MOL0     C 4869   4.543   3.092   4.447 -0.2821 -0.8002 -0.1677
   36MOL0     C 4870   4.669   3.180   4.421 -0.8734 -0.0133 -0.1236
   36MOL0     C 4871   4.756   3.105   4.313 -0.1432 -0.1924  0.0314
   36MOL0     C 4872   4.874   3.187   4.261 -0.4355 -0.3599 -0.0760
   36MOL0     C 4873   4.836   3.324   4.193 -0.6275  0.8625  0.0994
   36MOL0     C 4874   4.955   3.384   4.121 -0.0255  0.9684 -0.1191
   36MOL0    Cl 4875   4.895   3.517   4.011  0.0247  0.7750  0.1193
   36MOL0     C 4876   4.126   3.429   4.504  0.1635 -0.0571  0.3994
   36MOL0     C 4877   4.028   3.523   4.466 -0.4386  0.1494 -0.0244
   36MOL0     O 4878   3.697   3.488   4.448 -0.1609 -0.0532  0.1638
   36MOL0     C 4879   3.493   3.641   4.332  0.2724  0.1348  0.3258
   36MOL0     C 4880   3.381   3.721   4.286  0.0256 -0.0530 -0.3631
   36MOL0     N 4881   2.605   3.905   4.129  0.0605  0.2856  0.7540
   36MOL0     N 4882   2.495   3.964   4.160 -0.0499  0.0603  0.2724
   36MOL0     C 4883   1.662   4.163   4.876 -0.1577  0.3785 -0.7017
   36MOL0     C 4884   1.534   4.131   4.920  0.2448  0.5529 -0.5543
   36MOL0     C 4885   1.068   4.059   4.857  1.2615 -0.1253 -0.4507
   36MOL0     C 4886   0.984   4.079   4.746  0.8408  0.0129  0.2027
   36MOL0     C 4887   0.843   4.076   4.755  0.1716  0.0070  0.0267
   36MOL0     C 4888   0.790   4.047   4.880  1.3393  0.1645 -0.0551
   36MOL0     O 4889   0.659   4.016   4.866 -0.0817 -0.6564  1.1310
   36MOL0     C 4890   0.568   4.001   4.968  0.0788  0.2513  0.7952
   36MOL0     C 4891   0.440   4.077   4.936 -1.0186  0.0243 -0.6006
   36MOL0     C 4892   0.357   4.034   4.815 -0.4751 -0.5723 -0.0410
   36MOL0     C 4893   0.409   4.096   4.689 -0.0762 -0.2536 -0.2209
   36MOL0     C 4894   0.327   4.092   4.577  0.7816  0.6857 -0.0537
   36MOL0     C 4895   0.265   4.077   4.471 -0.0641  0.5518  0.1937
   36MOL0     C 4896   0.871   4.041   4.997 -0.0139 -0.0252  0.6620
   36MOL0     C 4897   1.010   4.057   4.988  0.4762 -0.0277 -1.0836
   36MOL0     C 4898   1.093   4.043   5.109  0.2513  0.8002  0.2347
   36MOL0     H 4899   1.350   4.262   4.667  0.6717  2.0460 -0.7007
   36MOL0     H 4900   1.564   4.323   4.597 -0.1142  2.6286  1.3121
   36MOL0     H 4901   1.737   4.208   4.510  0.6083  0.3866 -1.9256
   36MOL0     H 4902   1.908   4.164   4.542  0.2518  0.5104  1.2587
   36MOL0     H 4903   1.893   4.382   4.412 -0.1123 -1.2696 -0.1002
   36MOL0     H 4904   1.817   4.457   4.556 -1.4089 -0.5168 -0.2241
   36MOL0     H 4905   2.004   4.491   4.633  0.0323 -1.2024  2.4913
   36MOL0     H 4906   2.037   4.311   4.645 -0.4870 -1.7417 -1.4524
   36MOL0     H 4907   2.111   4.476   4.398  2.0353  0.9631  1.3237
   36MOL0     H 4908   2.214   4.458   4.543  1.4802 -2.3767 -0.0070
   36MOL0     H 4909   2.090   4.218   4.396 -1.7930  0.6737  0.6931
   36MOL0     H 4910   2.232   4.221   4.512  1.3545 -0.3719 -2.1549
   36MOL0     H 4911   2.238   4.356   4.231  1.2015 -0.4382 -1.2756
   36MOL0     H 4912   2.355   4.365   4.352  1.1226  0.4477 -3.4597
   36MOL0     H 4913   2.402   4.213   4.183 -1.4375  2.5602 -0.8420
   36MOL0     H 4914   2.257   4.115   4.203 -1.0799 -1.8736  2.5619
   36MOL0     H 4915   2.449   4.136   4.442  1.0047  0.0947  0.6135
   36MOL0     H 4916   2.321   4.023   4.411  0.3265  0.0419 -0.6758
   36MOL0     H 4917   2.663   4.008   4.435 -2.0083 -1.0337  0.9497
   36MOL0     H 4918   2.867   3.926   4.122 -3.7896  1.7825 -0.1293
   36MOL0     H 4919   2.867   3.792   4.241 -3.3296 -1.1151 -0.9851
   36MOL0     H 4920   2.897   4.086   4.326  2.3333  0.5640  1.7830
   36MOL0     H 4921   2.954   3.939   4.413 -1.0334 -2.7906 -0.6530
   36MOL0     H 4922   3.047   4.040   4.154 -1.2263 -1.5505 -0.2639
   36MOL0     H 4923   3.130   4.103   4.299 -1.3895  0.2565 -1.2047
   36MOL0     H 4924   3.169   3.854   4.354  0.6112  0.2776  0.4946
   36MOL0     H 4925   3.131   3.816   4.194 -1.5248 -1.3529  1.9735
   36MOL0     H 4926   3.545   4.005   4.246  0.6852 -0.4034  2.9202
   36MOL0     H 4927   3.815   3.898   4.389 -0.8513  0.5671  0.5235
   36MOL0     H 4928   3.772   3.992   4.242 -1.8362 -0.4229 -1.7097
   36MOL0     H 4929   3.836   3.830   4.216 -1.2145  0.0857 -0.3642
   36MOL0     H 4930   3.941   3.419   4.162 -0.6869  0.7619  0.2557
   36MOL0     H 4931   4.127   3.250   4.207 -1.7287 -0.4083  0.1904
   36MOL0     H 4932   4.429   3.328   4.431  2.1988  0.9322  2.1291
   36MOL0     H 4933   4.350   3.331   4.594  0.9566  2.9260 -2.1399
   36MOL0     H 4934   4.522   3.209   4.631  0.7607 -0.6735  0.2568
   36MOL0     H 4935   4.388   3.085   4.594 -0.2597 -2.1283 -1.9300
   36MOL0     H 4936   4.482   3.077   4.357 -2.4357  1.7925  0.6991
   36MOL0     H 4937   4.577   2.991   4.472  2.7364  0.4568  1.2914
   36MOL0     H 4938   4.736   3.199   4.506 -0.4463 -1.6257 -0.0678
   36MOL0     H 4939   4.645   3.282   4.389 -0.0493 -0.0144 -0.7624
   36MOL0     H 4940   4.798   3.010   4.348  0.5996 -0.5502 -1.7643
   36MOL0     H 4941   4.691   3.078   4.230 -1.1768  0.1812  0.6890
   36MOL0     H 4942   4.938   3.127   4.196  0.4243 -1.1204  1.4113
   36MOL0     H 4943   4.945   3.211   4.341 -1.7141 -1.4380  1.4689
   36MOL0     H 4944   4.797   3.395   4.267 -1.4981 -0.7352  1.2205
   36MOL0     H 4945   4.759   3.319   4.116  1.2127  0.5681 -1.8227
   36MOL0     H 4946   4.987   3.313   4.045 -1.2877 -1.1900  1.2651
   36MOL0     H 4947   5.036   3.408   4.191 -0.4627  0.4029  0.5994
   36MOL0     H 4948   4.160   3.438   4.606  1.5481  1.1607 -0.1260
   36MOL0     H 4949   3.992   3.598   4.536 -0.5483  1.7178 -1.6712
   36MOL0     H 4950   3.462   3.539   4.355 -1.5696  0.7497  0.7515
   36MOL0     H 4951   3.280   3.683   4.271  0.5622 -2.3498  1.2767
   36MOL0     H 4952   1.749   4.146   4.939  0.1021 -1.8551 -1.5573
   36MOL0     H 4953   1.525   4.088   5.020  0.3742 -2.5361 -1.7681
   36MOL0     H 4954   1.034   4.084   4.650  2.7240  0.0136  1.1407
   36MOL0     H 4955   0.790   4.071   4.660 -1.4114 -0.0089  0.8709
   36MOL0     H 4956   0.556   3.896   4.994  3.0971 -0.2650  0.4830
   36MOL0     H 4957   0.594   4.043   5.066  0.4241 -0.8649  1.2016
   36MOL0     H 4958   0.455   4.186   4.940 -0.1751 -0.1024 -0.0236
   36MOL0     H 4959   0.370   4.050   5.016 -3.0929  2.5020 -1.4385
   36MOL0     H 4960   0.355   3.925   4.823  2.1636 -0.5655  2.9836
   36MOL0     H 4961   0.255   4.072   4.827 -0.8994  0.2653 -4.7046
   36MOL0     H 4962   0.504   4.046   4.667 -0.3187 -1.4013  1.2418
   36MOL0     H 4963   0.435   4.200   4.709 -0.0138 -0.8789  3.4844
   36MOL0     H 4964   0.203   4.067   4.384  1.2158  0.7696 -0.7726
   36MOL0     H 4965   0.827   4.019   5.094  1.7748 -1.8069  1.1520
   36MOL0     H 4966   1.094   3.936   5.135 -0.3735  0.7370  0.0175
   36MOL0     H 4967   1.198   4.070   5.101 -0.2305  2.3985 -1.1953
   36MOL0     H 4968   1.052   4.107   5.188 -0.9280  1.0153 -0.5305
   37MOL0     O 4969  10.409   0.804   7.655 -0.1356  0.1724 -0.5525
   37MOL0     C 4970  10.371   0.734   7.746 -0.6179  0.5935  0.3150
   37MOL0     O 4971  10.448   0.657   7.825 -0.6858  0.6507 -0.2193
   37MOL0     C 4972  10.580   0.651   7.795  0.1171  0.3144 -0.0932
   37MOL0     C 4973  10.668   0.713   7.881 -0.7663  0.2156  0.5380
   37MOL0     C 4974  10.806   0.716   7.849 -0.4356  0.2170 -1.1012
   37MOL0     C 4975  10.853   0.649   7.727  0.5115 -0.3074 -0.2525
   37MOL0     O 4976  10.980   0.647   7.674  1.0069  0.6577 -0.0289
   37MOL0     C 4977  11.079   0.704   7.761 -0.2692 -0.2090  0.0559
   37MOL0     C 4978  11.219   0.679   7.690  0.2459 -0.4652  0.1216
   37MOL0     C 4979  11.337   0.663   7.791 -0.3582  0.5596 -0.1929
   37MOL0     C 4980  11.333   0.771   7.894  0.3646 -0.5749 -0.0787
   37MOL0     C 4981  11.472   0.792   7.948 -0.3015  0.9112 -0.0049
   37MOL0     C 4982  11.489   0.897   8.058  0.8842  0.3219  0.2739
   37MOL0     C 4983  11.636   0.937   8.085 -0.7722 -0.1092 -0.3663
   37MOL0     C 4984  11.735   0.965   7.965  0.6414  0.0003 -0.4056
   37MOL0     N 4985  11.874   1.004   8.001 -0.0709 -0.2807  0.6239
   37MOL0     C 4986  11.964   0.909   8.052  0.3480  0.0771 -0.3591
   37MOL0     C 4987  12.071   0.984   8.092 -0.6229  0.6061 -0.2695
   37MOL0     C 4988  12.210   0.943   8.143  1.0689 -0.0808 -0.0520
   37MOL0     C 4989  12.300   0.924   8.017  0.8453 -0.4038 -0.0395
   37MOL0     C 4990  12.393   0.806   8.052  0.0448 -0.4109  0.0001
   37MOL0     C 4991  12.450   0.724   7.945  0.4584 -0.0626  0.3818
   37MOL0     O 4992  12.542   0.806   7.865  0.4710  0.4026  0.1424
   37MOL0     C 4993  12.670   0.832   7.917  0.6140  0.3501 -0.1424
   37MOL0     C 4994  12.756   0.902   7.829 -0.4505  0.1516 -0.6331
   37MOL0     C 4995  12.890   0.921   7.858 -0.0382  0.5697  0.3353
   37MOL0     C 4996  12.976   0.993   7.758 -0.1960 -0.5376  0.1447
   37MOL0     C 4997  12.944   0.878   7.981 -0.1860  0.3594 -0.0525
   37MOL0     C 4998  13.087   0.878   8.017  0.2042 -0.1931 -1.3407
   37MOL0     O 4999  13.182   0.874   7.914 -0.0169 -0.1528  0.3718
   37MOL0     C 5000  13.318   0.893   7.948  0.6559  0.0126 -0.1594
   37MOL0     C 5001  13.386   0.975   7.862 -0.2203 -0.4279  0.2803
   37MOL0     C 5002  13.520   1.015   7.888 -0.5952 -0.0549 -0.5004
   37MOL0     C 5003  13.583   0.976   8.009 -0.5792 -1.2807  0.6923
   37MOL0     O 5004  13.709   1.004   8.040  0.3988 -0.4996 -0.6448
   37MOL0     C 5005  13.801   1.054   7.943  0.4057  0.2156  0.6034
   37MOL0     C 5006  13.938   1.033   7.984 -0.9814 -0.8356 -0.2826
   37MOL0     C 5007  14.040   1.006   7.870 -0.1987  0.8776 -0.0701
   37MOL0     C 5008  14.160   0.929   7.925  0.5765 -1.3595  0.2507
   37MOL0     C 5009  14.261   0.901   7.810  0.5416  0.2440 -0.2819
   37MOL0     C 5010  14.402   0.872   7.858 -0.5732 -0.0394 -0.1589
   37MOL0     C 5011  14.483   0.839   7.740  0.0630  0.8609  0.8960
   37MOL0     C 5012  14.635   0.819   7.790  0.5614 -0.6012  0.0084
   37MOL0    Cl 5013  14.753   0.826   7.647 -0.6724  0.1390  0.5720
   37MOL0     C 5014  13.512   0.903   8.103 -0.2362 -0.2593 -0.1397
   37MOL0     C 5015  13.382   0.865   8.072  0.2335  0.7336  0.9720
   37MOL0     O 5016  13.101   0.895   8.136 -0.1367  0.8475  0.3195
   37MOL0     C 5017  12.850   0.827   8.080  1.0773  0.3836 -0.4051
   37MOL0     C 5018  12.720   0.805   8.046 -0.2878 -0.1719  0.1509
   37MOL0     N 5019  12.047   1.114   8.055  0.1315  0.4356 -0.3375
   37MOL0     N 5020  11.929   1.128   7.997 -0.6753 -0.2121 -0.8114
   37MOL0     C 5021  10.764   0.575   7.655 -1.5078  0.8585 -0.3534
   37MOL0     C 5022  10.627   0.576   7.686 -0.6746  1.0116  0.4063
   37MOL0     C 5023  10.228   0.734   7.789 -0.6461 -0.5785 -0.4199
   37MOL0     C 5024  10.196   0.675   7.913 -0.6740  0.2567 -0.3535
   37MOL0     C 5025  10.063   0.661   7.955  1.1970 -0.7798 -0.3019
   37MOL0     C 5026   9.956   0.719   7.879  0.4112  0.4918  0.2044
   37MOL0     O 5027   9.817   0.719   7.904  0.3266  0.7244  0.4602
   37MOL0     C 5028   9.758   0.607   7.964  0.2304  0.5733  0.3414
   37MOL0     C 5029   9.614   0.648   7.986 -0.8143 -0.0166  0.6046
   37MOL0     C 5030   9.550   0.565   8.100  0.0844 -0.0440  0.1324
   37MOL0     C 5031   9.400   0.557   8.075 -0.2407  0.3844 -0.7375
   37MOL0     C 5032   9.324   0.524   8.197 -0.1126  0.0793 -0.4582
   37MOL0     C 5033   9.273   0.501   8.311  1.0665 -0.3138  0.3581
   37MOL0     C 5034   9.991   0.793   7.766  0.2842  0.5750 -0.4242
   37MOL0     C 5035  10.123   0.792   7.719  0.2613 -0.8866  0.1806
   37MOL0     C 5036  10.146   0.862   7.585 -0.1943  0.4094 -0.3394
   37MOL0     H 5037  10.638   0.771   7.967  1.2613  0.3355  1.2177
   37MOL0     H 5038  10.870   0.777   7.912 -2.5244  2.1997 -0.7697
   37MOL0     H 5039  11.080   0.662   7.862 -0.0468  1.5252  0.8164
   37MOL0     H 5040  11.057   0.810   7.777  0.3855 -0.1668  0.7245
   37MOL0     H 5041  11.215   0.591   7.625 -1.8539  0.8118 -1.6246
   37MOL0     H 5042  11.252   0.757   7.621  0.6741  0.1224  0.9662
   37MOL0     H 5043  11.328   0.567   7.842 -1.4614  1.3629  1.1951
   37MOL0     H 5044  11.427   0.665   7.729 -0.9038 -0.7455 -1.0706
   37MOL0     H 5045  11.304   0.865   7.848 -0.4747 -1.3602 -1.2237
   37MOL0     H 5046  11.268   0.745   7.979 -1.1310  1.1938 -0.6247
   37MOL0     H 5047  11.528   0.826   7.861  0.8111 -0.3238  0.1954
   37MOL0     H 5048  11.523   0.701   7.982 -0.3759  1.8469  2.9440
   37MOL0     H 5049  11.433   0.989   8.037 -0.0945  0.1614  2.0619
   37MOL0     H 5050  11.447   0.853   8.148  0.0728 -4.0553 -2.0031
   37MOL0     H 5051  11.674   0.854   8.146  2.8412  0.8230 -1.1523
   37MOL0     H 5052  11.647   1.018   8.158  1.0106 -0.1720 -0.5153
   37MOL0     H 5053  11.734   0.868   7.915 -1.6846 -0.4421  0.3563
   37MOL0     H 5054  11.688   1.049   7.913  0.4819  0.8200  1.0129
   37MOL0     H 5055  11.947   0.802   8.057 -0.6106  0.1271 -1.9937
   37MOL0     H 5056  12.206   0.854   8.206  3.3196 -1.1170 -1.2633
   37MOL0     H 5057  12.249   1.025   8.203  1.2978  1.1705 -1.8082
   37MOL0     H 5058  12.242   0.890   7.930  0.1611  1.1199 -0.2086
   37MOL0     H 5059  12.358   1.013   7.993  0.1016  0.4061  1.0593
   37MOL0     H 5060  12.476   0.856   8.102 -0.3344  0.7637 -0.5072
   37MOL0     H 5061  12.344   0.737   8.122 -2.9408  0.9667 -0.5667
   37MOL0     H 5062  12.511   0.648   7.994 -3.0248 -1.5738  2.7707
   37MOL0     H 5063  12.369   0.680   7.887  1.2631  1.0778 -1.6916
   37MOL0     H 5064  12.730   0.936   7.729  2.3078  0.8301 -1.2083
   37MOL0     H 5065  12.916   1.026   7.673 -1.7898 -0.1861  1.3619
   37MOL0     H 5066  13.050   0.924   7.718  0.7442  0.9756 -0.8325
   37MOL0     H 5067  13.020   1.081   7.806 -2.3361 -0.4385  2.1029
   37MOL0     H 5068  13.340   1.007   7.769 -1.4892  0.2933  1.1087
   37MOL0     H 5069  13.565   1.083   7.817 -0.6834  1.0930  0.5249
   37MOL0     H 5070  13.785   1.007   7.846  1.3510  1.9717 -0.4592
   37MOL0     H 5071  13.797   1.163   7.929  1.5475  0.0684 -1.1179
   37MOL0     H 5072  13.981   1.123   8.029 -2.1149 -0.9239  1.0292
   37MOL0     H 5073  13.939   0.948   8.053  1.8393 -1.7409 -1.2749
   37MOL0     H 5074  14.063   1.100   7.819  1.2951 -0.3328 -1.7409
   37MOL0     H 5075  13.990   0.951   7.790  1.6367  0.7604 -1.2201
   37MOL0     H 5076  14.122   0.840   7.975 -1.3828 -2.2976 -2.6362
   37MOL0     H 5077  14.209   0.999   7.993  0.3346  0.4641 -1.3404
   37MOL0     H 5078  14.228   0.812   7.756  0.8644  0.0091 -0.0962
   37MOL0     H 5079  14.267   0.988   7.744  0.8816  1.3787  1.1875
   37MOL0     H 5080  14.406   0.794   7.934  2.0631 -0.4276 -0.6003
   37MOL0     H 5081  14.449   0.959   7.905  1.5595 -0.0609 -2.0788
   37MOL0     H 5082  14.468   0.911   7.658 -0.9153  0.5031  0.7481
   37MOL0     H 5083  14.447   0.747   7.693 -0.4658  0.8221  1.3689
   37MOL0     H 5084  14.658   0.728   7.848  1.1383  0.4531  1.4993
   37MOL0     H 5085  14.667   0.895   7.862  2.1547  0.5436 -1.8302
   37MOL0     H 5086  13.569   0.863   8.187  1.1222 -1.2367 -1.4862
   37MOL0     H 5087  13.325   0.806   8.143  2.3132 -0.5500  1.6397
   37MOL0     H 5088  12.883   0.800   8.180  1.2078 -1.0151 -0.8001
   37MOL0     H 5089  12.652   0.774   8.125 -1.2083  2.0856  0.3173
   37MOL0     H 5090  10.802   0.518   7.571 -0.1186  1.2655 -0.0192
   37MOL0     H 5091  10.561   0.526   7.615  1.8391 -0.2936 -1.1743
   37MOL0     H 5092  10.271   0.626   7.974 -0.6417 -2.8557 -2.6235
   37MOL0     H 5093  10.048   0.623   8.055  0.8920  1.6550  0.6524
   37MOL0     H 5094   9.779   0.526   7.894 -2.9531 -1.8515  1.9452
   37MOL0     H 5095   9.815   0.582   8.054  1.5789 -1.8761 -1.0801
   37MOL0     H 5096   9.559   0.640   7.892 -1.6271 -1.9361  1.1831
   37MOL0     H 5097   9.601   0.753   8.011 -0.3738  0.1559  0.1405
   37MOL0     H 5098   9.597   0.466   8.104 -0.5244 -0.3725 -0.5821
   37MOL0     H 5099   9.574   0.617   8.194  1.6498  1.9152 -1.2736
   37MOL0     H 5100   9.377   0.488   7.994  2.1391  0.2831 -1.3947
   37MOL0     H 5101   9.365   0.659   8.058 -1.3468  0.4309  1.3705
   37MOL0     H 5102   9.230   0.469   8.403  0.5134 -2.3116 -0.5318
   37MOL0     H 5103   9.914   0.846   7.712 -0.5924 -0.0022  0.2287
   37MOL0     H 5104  10.183   0.789   7.511  2.2893  1.1073  0.1150
   37MOL0     H 5105  10.055   0.908   7.547 -1.9279 -3.3379 -1.1435
   37MOL0     H 5106  10.212   0.949   7.599 -2.2891  2.3040 -1.5841
   38MOL0     O 5107  10.142   5.932   3.502  0.2020 -0.2117 -0.5056
   38MOL0     C 5108  10.104   5.813   3.492 -0.7938 -0.5987  0.1074
   38MOL0     O 5109  10.189   5.707   3.478 -0.1834  0.5566 -0.1599
   38MOL0     C 5110  10.323   5.713   3.468 -0.3062  0.1164  0.2075
   38MOL0     C 5111  10.387   5.750   3.348  0.1499 -0.8871  0.3682
   38MOL0     C 5112  10.523   5.762   3.339  0.4042  0.0400  0.5188
   38MOL0     C 5113  10.608   5.745   3.447 -0.0537 -0.0696  0.1459
   38MOL0     O 5114  10.737   5.780   3.433 -0.7838  0.1720  0.4599
   38MOL0     C 5115  10.840   5.691   3.488  0.0285  0.2953  0.8335
   38MOL0     C 5116  10.882   5.731   3.629  0.3497  0.6784 -0.3738
   38MOL0     C 5117  10.890   5.612   3.716 -0.7799  0.9009 -0.1624
   38MOL0     C 5118  11.032   5.622   3.796  1.2149 -0.9268  0.5507
   38MOL0     C 5119  11.057   5.521   3.904 -0.0719 -0.0781 -0.3086
   38MOL0     C 5120  11.176   5.576   3.993  0.2504 -0.7830 -0.5142
   38MOL0     C 5121  11.240   5.471   4.080  0.4939  0.0073  0.8445
   38MOL0     C 5122  11.133   5.410   4.180  0.1061 -0.4362 -0.3920
   38MOL0     N 5123  11.204   5.310   4.255 -0.6344  0.5870 -0.3351
   38MOL0     C 5124  11.297   5.327   4.359 -0.3847  0.8843 -0.2868
   38MOL0     C 5125  11.360   5.205   4.368  0.4651  0.5002  0.4726
   38MOL0     C 5126  11.476   5.164   4.452  0.0997  0.6864 -0.0090
   38MOL0     C 5127  11.603   5.217   4.393 -0.3886 -0.3149 -0.1867
   38MOL0     C 5128  11.737   5.163   4.445 -0.1551 -0.6997 -0.0179
   38MOL0     C 5129  11.868   5.213   4.380  0.6763 -0.5478  1.1721
   38MOL0     O 5130  11.979   5.124   4.404 -0.3124  0.2378 -0.7106
   38MOL0     C 5131  12.109   5.152   4.366  0.2389  0.1735 -0.7327
   38MOL0     C 5132  12.221   5.066   4.395  0.7478  0.2321 -0.0334
   38MOL0     C 5133  12.348   5.094   4.349 -0.2460 -0.0276 -1.1983
   38MOL0     C 5134  12.467   5.029   4.423  0.2573  0.8660 -0.4700
   38MOL0     C 5135  12.370   5.204   4.262  0.8075 -0.4699  0.1942
   38MOL0     C 5136  12.497   5.246   4.196  0.3438 -0.1688 -0.5688
   38MOL0     O 5137  12.495   5.356   4.118 -0.4405 -0.3633  0.4703
   38MOL0     C 5138  12.595   5.391   4.034 -0.3052  0.7965  0.6019
   38MOL0     C 5139  12.719   5.426   4.084 -0.0752 -0.3221  0.1058
   38MOL0     C 5140  12.828   5.444   3.997  0.6426 -0.2233  0.6239
   38MOL0     C 5141  12.816   5.442   3.854  0.5123  0.3493  0.2741
   38MOL0     O 5142  12.931   5.446   3.785  0.2255 -0.1622 -0.0632
   38MOL0     C 5143  12.931   5.515   3.661  0.2356  0.2163 -0.0309
   38MOL0     C 5144  12.906   5.665   3.689  0.0756 -0.7093  0.1517
   38MOL0     C 5145  12.936   5.754   3.563 -0.5942  0.4213 -0.8242
   38MOL0     C 5146  12.920   5.907   3.589  0.2275 -0.2469  1.1546
   38MOL0     C 5147  12.945   5.989   3.466 -0.1112  0.0415  0.3607
   38MOL0     C 5148  13.091   5.992   3.419 -0.1105  1.0110  1.1345
   38MOL0     C 5149  13.100   5.891   3.298  0.2966  0.2735 -0.2794
   38MOL0     C 5150  13.247   5.870   3.252  1.2192 -0.3930 -0.7735
   38MOL0    Cl 5151  13.317   5.753   3.372 -0.3146  0.0322 -0.1985
   38MOL0     C 5152  12.681   5.427   3.803  0.1959 -0.2773  0.0085
   38MOL0     C 5153  12.573   5.393   3.891 -0.0054  0.1334 -0.3908
   38MOL0     O 5154  12.592   5.177   4.216 -0.0010 -0.3388 -0.2280
   38MOL0     C 5155  12.262   5.289   4.226  0.1839  0.2869 -0.3662
   38MOL0     C 5156  12.135   5.254   4.271  0.0638 -0.9095  0.3218
   38MOL0     N 5157  11.298   5.124   4.269  0.0619 -0.8998 -0.1494
   38MOL0     N 5158  11.199   5.181   4.210  0.0954  0.4385 -1.0822
   38MOL0     C 5159  10.552   5.718   3.570  0.6887  0.8626 -0.6223
   38MOL0     C 5160  10.405   5.686   3.578 -0.2222 -0.7524  0.4350
   38MOL0     C 5161   9.960   5.779   3.507 -0.4675 -0.0055 -0.1569
   38MOL0     C 5162   9.919   5.648   3.510 -0.5470  0.8718  0.9121
   38MOL0     C 5163   9.780   5.602   3.514 -1.0975 -0.1130  0.1578
   38MOL0     C 5164   9.683   5.700   3.536 -0.9304  0.0019  0.5951
   38MOL0     O 5165   9.551   5.679   3.548 -0.7134  0.2240  0.3437
   38MOL0     C 5166   9.498   5.547   3.544  0.5196  0.4020  0.2415
   38MOL0     C 5167   9.474   5.511   3.397  0.0577  0.6253 -0.2341
   38MOL0     C 5168   9.359   5.589   3.326  0.0693  0.0079  0.1165
   38MOL0     C 5169   9.234   5.627   3.409 -0.9236  0.5675  0.0218
   38MOL0     C 5170   9.126   5.667   3.319 -0.0418 -0.0366  1.0151
   38MOL0     C 5171   9.050   5.683   3.235  0.5583  0.3780  0.2924
   38MOL0     C 5172   9.720   5.832   3.530 -0.4472 -0.1773  0.1961
   38MOL0     C 5173   9.850   5.876   3.511  0.1788  0.2695  0.2149
   38MOL0     C 5174   9.876   6.023   3.506 -0.0191 -0.3604  0.0917
   38MOL0     H 5175  10.326   5.764   3.259  2.3507 -2.6900 -1.5644
   38MOL0     H 5176  10.568   5.798   3.248 -1.8903 -0.6996 -0.9997
   38MOL0     H 5177  10.924   5.698   3.418 -1.4630 -1.4090 -1.2426
   38MOL0     H 5178  10.797   5.591   3.478  0.6550  0.2584 -3.3578
   38MOL0     H 5179  10.981   5.776   3.619  1.2870 -0.8620  1.2601
   38MOL0     H 5180  10.814   5.805   3.671  1.3288  1.7719 -0.6734
   38MOL0     H 5181  10.806   5.619   3.786 -0.1017  1.5777  0.5986
   38MOL0     H 5182  10.883   5.511   3.674  0.4682  0.1714  1.2857
   38MOL0     H 5183  11.096   5.618   3.708 -0.1260  2.4033 -0.7497
   38MOL0     H 5184  11.045   5.725   3.832 -0.4286 -0.9764  1.3508
   38MOL0     H 5185  11.081   5.421   3.867 -0.4627  0.1470 -1.1929
   38MOL0     H 5186  10.967   5.514   3.966 -0.0659 -0.4269 -0.3371
   38MOL0     H 5187  11.256   5.610   3.926  0.4850 -0.3146 -0.0028
   38MOL0     H 5188  11.145   5.660   4.056  0.6014  1.0991 -2.6830
   38MOL0     H 5189  11.329   5.511   4.130  2.8589  0.7450 -3.5246
   38MOL0     H 5190  11.285   5.395   4.016 -0.8726  0.2235 -0.4030
   38MOL0     H 5191  11.101   5.481   4.257  0.7679  1.1053 -1.4733
   38MOL0     H 5192  11.049   5.369   4.124 -0.9963 -2.5250  2.5472
   38MOL0     H 5193  11.317   5.418   4.416  0.7728  0.3416  0.2150
   38MOL0     H 5194  11.480   5.055   4.458  0.0868  0.6456 -0.6726
   38MOL0     H 5195  11.454   5.190   4.556 -0.9953 -1.1732  0.2576
   38MOL0     H 5196  11.603   5.186   4.288  1.9988  0.0890 -0.3645
   38MOL0     H 5197  11.603   5.326   4.408 -0.7141 -0.4711  1.0605
   38MOL0     H 5198  11.746   5.205   4.546  2.4239 -3.4246  1.0623
   38MOL0     H 5199  11.739   5.054   4.459  0.1102 -0.6319  0.5283
   38MOL0     H 5200  11.849   5.220   4.273 -0.0795 -2.0387  1.1778
   38MOL0     H 5201  11.887   5.311   4.424 -0.2746  0.8326 -1.3054
   38MOL0     H 5202  12.198   4.988   4.467  0.8843  0.5651  0.3805
   38MOL0     H 5203  12.427   4.977   4.511  2.7453 -1.3901 -0.5312
   38MOL0     H 5204  12.541   5.102   4.458 -0.6158  1.3845  0.3492
   38MOL0     H 5205  12.510   4.946   4.365  2.4115  1.1021  0.6512
   38MOL0     H 5206  12.735   5.426   4.191 -0.7696  1.1166  0.2294
   38MOL0     H 5207  12.918   5.447   4.057  1.2162  0.1290 -0.2321
   38MOL0     H 5208  13.026   5.507   3.607 -0.4249  1.3498 -1.4156
   38MOL0     H 5209  12.853   5.467   3.601  0.2256  0.0920  0.0813
   38MOL0     H 5210  12.800   5.677   3.711 -0.0728 -0.0435 -0.8521
   38MOL0     H 5211  12.965   5.708   3.770  0.2191 -0.0586 -0.2884
   38MOL0     H 5212  12.865   5.736   3.482 -1.9990  0.3440  0.3990
   38MOL0     H 5213  13.038   5.732   3.531 -0.6708 -0.8472 -0.2112
   38MOL0     H 5214  12.996   5.940   3.660  1.9100  1.4824 -1.2770
   38MOL0     H 5215  12.818   5.924   3.625 -1.4985 -2.1155 -2.3416
   38MOL0     H 5216  12.884   5.958   3.380 -0.2760 -0.1934  0.5627
   38MOL0     H 5217  12.921   6.093   3.488 -1.8925 -0.7535  2.5638
   38MOL0     H 5218  13.165   5.966   3.496  2.6863  1.9911 -1.0793
   38MOL0     H 5219  13.120   6.086   3.372 -0.5239  0.8412  0.5304
   38MOL0     H 5220  13.061   5.941   3.209 -0.3801  0.6957  0.2525
   38MOL0     H 5221  13.049   5.799   3.326  2.2739 -0.2877  1.8145
   38MOL0     H 5222  13.301   5.965   3.263 -1.3659  1.1844 -0.8094
   38MOL0     H 5223  13.260   5.840   3.148 -2.0493  0.3150 -1.5143
   38MOL0     H 5224  12.661   5.429   3.697  2.7670  0.8915 -0.5299
   38MOL0     H 5225  12.472   5.364   3.866  0.0105 -2.9030  2.3419
   38MOL0     H 5226  12.266   5.372   4.156 -3.9943  1.2485  0.2877
   38MOL0     H 5227  12.063   5.316   4.221  3.4808  0.2975 -3.6681
   38MOL0     H 5228  10.592   5.723   3.671  2.1540 -0.5433 -1.0953
   38MOL0     H 5229  10.358   5.666   3.674 -2.0790 -1.1678 -0.5040
   38MOL0     H 5230   9.995   5.571   3.497 -0.9346  0.6275 -0.0165
   38MOL0     H 5231   9.762   5.495   3.512  0.2618 -0.3411 -0.7757
   38MOL0     H 5232   9.557   5.470   3.594  1.6591  1.3896  0.4452
   38MOL0     H 5233   9.404   5.555   3.600 -0.3767  0.3842 -1.2139
   38MOL0     H 5234   9.462   5.402   3.397  2.4610  0.3042  0.5687
   38MOL0     H 5235   9.573   5.526   3.352  1.4323  0.1419  2.4114
   38MOL0     H 5236   9.397   5.685   3.291 -1.4779  1.0311  1.1183
   38MOL0     H 5237   9.327   5.531   3.239  1.7275 -0.7292 -0.0375
   38MOL0     H 5238   9.265   5.707   3.477  0.6180 -0.1675  0.2322
   38MOL0     H 5239   9.197   5.535   3.455  3.0406 -2.0516 -1.4970
   38MOL0     H 5240   8.991   5.695   3.146  1.6709  0.8797 -0.4165
   38MOL0     H 5241   9.645   5.909   3.544  0.9979  1.4501 -0.6253
   38MOL0     H 5242   9.901   6.064   3.407  2.6918 -2.5756 -0.2845
   38MOL0     H 5243   9.793   6.078   3.549 -0.0638  1.1352 -1.7662
   38MOL0     H 5244   9.955   6.056   3.574 -1.4837  0.2436  1.5459
   39MOL0     O 5245   6.279   1.403  10.767  0.5566 -0.0931 -0.0285
   39MOL0     C 5246   6.240   1.330  10.668 -0.1747 -0.4185 -0.2445
   39MOL0     O 5247   6.300   1.206  10.646 -0.0845  0.3469  0.2048
   39MOL0     C 5248   6.410   1.175  10.712 -0.5656 -0.0043 -0.5415
   39MOL0     C 5249   6.523   1.165  10.638  0.0520  0.1782 -0.0956
   39MOL0     C 5250   6.645   1.127  10.700 -0.6029  0.0390  0.3550
   39MOL0     C 5251   6.650   1.070  10.829  0.3450  0.0428 -0.1572
   39MOL0     O 5252   6.773   1.026  10.882 -0.1958 -0.6969 -0.2811
   39MOL0     C 5253   6.771   0.979  11.017  0.6174  0.2334  0.0724
   39MOL0     C 5254   6.910   0.957  11.072  0.4112  0.2063  0.6923
   39MOL0     C 5255   6.981   1.086  11.098 -0.4971 -0.3208 -0.0872
   39MOL0     C 5256   7.112   1.066  11.183 -0.2316 -0.1763 -0.3131
   39MOL0     C 5257   7.230   1.076  11.098 -0.2684 -0.1781 -0.9493
   39MOL0     C 5258   7.363   1.062  11.168  0.5603 -0.4708  0.1327
   39MOL0     C 5259   7.482   1.098  11.084 -1.2386 -0.4918  0.1488
   39MOL0     C 5260   7.607   1.077  11.167  0.0816 -0.2841  0.4949
   39MOL0     N 5261   7.713   1.144  11.088  0.3187  0.0248  0.1591
   39MOL0     C 5262   7.791   1.081  10.986  0.3230 -0.1005  0.2233
   39MOL0     C 5263   7.857   1.188  10.928 -0.0818  0.7398  0.0837
   39MOL0     C 5264   7.933   1.185  10.794  0.1581 -0.3602 -0.5324
   39MOL0     C 5265   8.034   1.295  10.775  0.3940  0.1710 -0.2348
   39MOL0     C 5266   8.105   1.303  10.642  0.6465  0.4128  0.2217
   39MOL0     C 5267   8.200   1.419  10.641 -0.6084 -0.4091  0.0828
   39MOL0     O 5268   8.280   1.414  10.523 -0.0513  0.3188  0.1332
   39MOL0     C 5269   8.354   1.526  10.491  0.2046 -0.1065 -0.1164
   39MOL0     C 5270   8.424   1.523  10.373  0.2169  0.3370  0.4307
   39MOL0     C 5271   8.504   1.627  10.333 -0.3929 -0.0982 -0.6943
   39MOL0     C 5272   8.583   1.605  10.204  0.8228 -0.0700 -0.8978
   39MOL0     C 5273   8.524   1.730  10.424 -1.3356  0.2722 -0.7312
   39MOL0     C 5274   8.622   1.841  10.399  0.6827 -0.1067  0.8613
   39MOL0     O 5275   8.678   1.897  10.510 -0.0712  0.6160 -0.2947
   39MOL0     C 5276   8.775   1.994  10.498 -0.2486  0.5070  0.3104
   39MOL0     C 5277   8.865   2.018  10.388  0.2860  0.0328  0.4669
   39MOL0     C 5278   8.953   2.128  10.385  0.2196 -0.1191 -0.0809
   39MOL0     C 5279   8.960   2.208  10.501  0.4695  0.3930 -0.4252
   39MOL0     O 5280   9.040   2.322  10.494 -0.0314  0.0120  0.6329
   39MOL0     C 5281   9.172   2.303  10.461  0.1905 -0.0074 -0.9169
   39MOL0     C 5282   9.250   2.434  10.455  0.1995 -0.7129  0.1515
   39MOL0     C 5283   9.249   2.510  10.588 -0.4987 -0.2939 -0.4693
   39MOL0     C 5284   9.371   2.611  10.606  0.2275 -0.6035  0.1453
   39MOL0     C 5285   9.506   2.556  10.582 -0.3252 -0.7376  0.2920
   39MOL0     C 5286   9.628   2.628  10.659 -0.9016 -0.1842 -0.4168
   39MOL0     C 5287   9.768   2.556  10.639  0.0533  0.4836 -0.2721
   39MOL0     C 5288   9.876   2.626  10.718 -0.2444 -0.3132  0.6120
   39MOL0    Cl 5289   9.891   2.815  10.689 -0.2615 -0.0772  0.7082
   39MOL0     C 5290   8.871   2.183  10.609 -0.0438 -1.1139  0.2346
   39MOL0     C 5291   8.775   2.085  10.605 -0.2987  0.1961 -0.1494
   39MOL0     O 5292   8.646   1.883  10.283 -0.0581 -0.2779 -0.2048
   39MOL0     C 5293   8.459   1.731  10.545  0.5904 -0.5384 -0.4116
   39MOL0     C 5294   8.371   1.636  10.581  0.5167  0.3948  0.9602
   39MOL0     N 5295   7.829   1.297  11.007 -1.0372  0.1058  0.7977
   39MOL0     N 5296   7.746   1.274  11.102  0.0811 -0.0908  0.8056
   39MOL0     C 5297   6.531   1.079  10.904 -0.0374  0.8504  0.4618
   39MOL0     C 5298   6.415   1.133  10.844  0.3266  0.0112 -0.6828
   39MOL0     C 5299   6.099   1.357  10.611  0.1374 -0.2768 -0.0935
   39MOL0     C 5300   6.030   1.255  10.542 -0.1325 -1.3521  0.3506
   39MOL0     C 5301   5.898   1.267  10.508  0.2361  0.5089 -0.2076
   39MOL0     C 5302   5.829   1.375  10.536  1.0204 -0.0480 -0.1154
   39MOL0     O 5303   5.707   1.408  10.479  0.6594  0.7612  0.1061
   39MOL0     C 5304   5.618   1.298  10.445  0.4325  0.0924 -0.1750
   39MOL0     C 5305   5.493   1.356  10.393  0.8110 -0.6587 -0.4869
   39MOL0     C 5306   5.427   1.434  10.508 -0.1165  0.7535 -0.4472
   39MOL0     C 5307   5.280   1.450  10.479  0.2431 -0.4050  0.5423
   39MOL0     C 5308   5.261   1.519  10.349 -0.7251 -0.4336  0.9028
   39MOL0     C 5309   5.214   1.563  10.248 -0.1279  0.9208  0.2709
   39MOL0     C 5310   5.889   1.474  10.623 -0.0569  0.2392 -0.0258
   39MOL0     C 5311   6.026   1.470  10.662  0.0578  0.5482  0.5546
   39MOL0     C 5312   6.076   1.590  10.745 -0.6600 -0.1935 -0.6348
   39MOL0     H 5313   6.517   1.186  10.532  1.3557  1.0078 -0.0283
   39MOL0     H 5314   6.735   1.115  10.640 -0.1137  1.4917  0.7644
   39MOL0     H 5315   6.711   0.888  11.024  2.1117 -0.6920  1.9210
   39MOL0     H 5316   6.731   1.054  11.086 -1.7042 -0.3168 -0.5829
   39MOL0     H 5317   6.904   0.909  11.170  0.5244  0.9022  1.0494
   39MOL0     H 5318   6.962   0.888  11.005  1.9366  1.3380  0.6626
   39MOL0     H 5319   7.010   1.144  11.009  2.4966 -0.0247  0.9678
   39MOL0     H 5320   6.913   1.147  11.159 -2.2056 -1.1078 -1.1336
   39MOL0     H 5321   7.117   1.158  11.243  1.0263  0.8133 -1.8538
   39MOL0     H 5322   7.103   0.975  11.243 -1.6859  0.8539  1.1332
   39MOL0     H 5323   7.228   1.183  11.073  0.5842  0.3740  1.1354
   39MOL0     H 5324   7.219   1.031  10.999  0.0103  0.3127 -1.2142
   39MOL0     H 5325   7.367   1.131  11.252  0.3433 -0.2561 -0.0334
   39MOL0     H 5326   7.362   0.958  11.203 -2.2366 -0.0916  1.4449
   39MOL0     H 5327   7.474   1.203  11.056  1.2970  0.4501  2.4762
   39MOL0     H 5328   7.488   1.038  10.993 -1.6125  1.3516 -1.1293
   39MOL0     H 5329   7.603   1.105  11.272  1.7211 -2.0837  1.0931
   39MOL0     H 5330   7.623   0.970  11.182  3.6081  0.1411  0.6312
   39MOL0     H 5331   7.780   0.978  10.952 -0.0289 -0.7446  2.2058
   39MOL0     H 5332   7.864   1.203  10.711  0.2861  1.9694 -0.2010
   39MOL0     H 5333   7.976   1.086  10.779 -0.2674 -0.6666  0.2087
   39MOL0     H 5334   7.983   1.390  10.791  1.7493  0.5804  2.0999
   39MOL0     H 5335   8.112   1.277  10.850  1.7162  1.5561 -1.2341
   39MOL0     H 5336   8.165   1.212  10.634 -0.2004 -0.1441  0.1306
   39MOL0     H 5337   8.052   1.310  10.547 -0.4711 -1.1991  0.6898
   39MOL0     H 5338   8.133   1.505  10.652 -2.3573 -2.0025  3.4439
   39MOL0     H 5339   8.257   1.415  10.735 -1.5702  0.5595  0.7239
   39MOL0     H 5340   8.409   1.443  10.300  0.7702  1.3390 -0.8227
   39MOL0     H 5341   8.539   1.521  10.149  1.4561 -2.6206  2.1537
   39MOL0     H 5342   8.684   1.584  10.240  1.2667 -0.6081 -2.3708
   39MOL0     H 5343   8.583   1.691  10.137  2.4957 -0.3033 -1.2486
   39MOL0     H 5344   8.854   1.952  10.304 -1.3415  1.4806 -0.5379
   39MOL0     H 5345   9.019   2.145  10.301  1.2746  4.1158  1.3567
   39MOL0     H 5346   9.209   2.241  10.543  1.3890  0.9587 -0.7099
   39MOL0     H 5347   9.192   2.256  10.364  2.5971  0.5931 -0.7687
   39MOL0     H 5348   9.354   2.413  10.426 -0.3417 -2.5898 -0.6242
   39MOL0     H 5349   9.205   2.496  10.377  0.0495  0.8719  1.4462
   39MOL0     H 5350   9.252   2.439  10.671 -1.5593 -1.8964 -1.7133
   39MOL0     H 5351   9.161   2.575  10.588  0.1813  0.6781 -1.9261
   39MOL0     H 5352   9.368   2.670  10.698 -0.7005 -0.4529  0.0264
   39MOL0     H 5353   9.343   2.684  10.530 -0.9220 -0.3949  0.7365
   39MOL0     H 5354   9.502   2.450  10.607 -0.6130 -1.1690 -1.4367
   39MOL0     H 5355   9.534   2.561  10.476  0.8107 -1.8479  0.5224
   39MOL0     H 5356   9.599   2.630  10.765 -0.3097 -1.3897 -0.2149
   39MOL0     H 5357   9.640   2.734  10.634 -0.0683  0.3543  1.9491
   39MOL0     H 5358   9.784   2.555  10.531 -2.4993  1.3909 -0.7229
   39MOL0     H 5359   9.768   2.453  10.676  0.9153  1.1363  1.6991
   39MOL0     H 5360   9.972   2.580  10.697 -0.5534 -0.3433 -0.8296
   39MOL0     H 5361   9.846   2.625  10.823 -0.6851  0.6655  0.5104
   39MOL0     H 5362   8.896   2.240  10.698  4.1983 -1.8662 -0.2879
   39MOL0     H 5363   8.717   2.062  10.694  1.0332 -1.8467  0.2755
   39MOL0     H 5364   8.473   1.819  10.607 -1.2162 -1.3841  1.3282
   39MOL0     H 5365   8.333   1.650  10.681  1.1905  2.0896  1.0174
   39MOL0     H 5366   6.520   1.049  11.008 -0.3593 -1.1450 -0.1106
   39MOL0     H 5367   6.326   1.135  10.906  1.3285 -0.2815  0.8326
   39MOL0     H 5368   6.079   1.168  10.498  0.1461 -0.7466 -0.5571
   39MOL0     H 5369   5.856   1.192  10.441 -2.8180  0.3225  1.7164
   39MOL0     H 5370   5.659   1.230  10.370 -2.1790  0.2413 -1.8910
   39MOL0     H 5371   5.606   1.238  10.536 -0.2350  0.1869 -0.1963
   39MOL0     H 5372   5.421   1.280  10.363 -0.0598  0.2280 -0.6602
   39MOL0     H 5373   5.513   1.422  10.309  0.6539  0.3252  0.2255
   39MOL0     H 5374   5.430   1.374  10.600 -2.5039 -1.0231 -1.4064
   39MOL0     H 5375   5.469   1.532  10.533  0.6178 -0.2053  2.4956
   39MOL0     H 5376   5.223   1.508  10.553 -1.9385  0.1154 -1.4505
   39MOL0     H 5377   5.237   1.350  10.474 -1.0547  0.1153  0.9262
   39MOL0     H 5378   5.152   1.615  10.178 -1.7697 -0.5764  0.5644
   39MOL0     H 5379   5.829   1.563  10.641  1.5897  1.8047 -1.8774
   39MOL0     H 5380   6.001   1.669  10.742 -1.0514 -0.4448  1.2268
   39MOL0     H 5381   6.083   1.554  10.848  2.2013 -1.3250 -1.1222
   39MOL0     H 5382   6.175   1.620  10.709  1.1429 -2.0327  2.3870
   40MOL0     O 5383   1.236   2.781   4.802  1.0453 -0.3156 -0.4255
   40MOL0     C 5384   1.243   2.775   4.681  0.1519  0.2507  0.3711
   40MOL0     O 5385   1.361   2.771   4.607  0.2650  0.5912  0.2496
   40MOL0     C 5386   1.477   2.734   4.676 -0.5025 -0.2935 -0.4967
   40MOL0     C 5387   1.578   2.823   4.698 -0.2445 -0.5218  0.0509
   40MOL0     C 5388   1.691   2.785   4.774  0.2867  0.8726  0.0543
   40MOL0     C 5389   1.695   2.664   4.844 -0.2183  0.1370  0.2463
   40MOL0     O 5390   1.796   2.626   4.932  0.3978  0.8730  0.1351
   40MOL0     C 5391   1.910   2.711   4.946 -0.6682  0.5095  0.2151
   40MOL0     C 5392   2.013   2.644   5.048  0.7432  0.5465 -0.5673
   40MOL0     C 5393   2.146   2.711   5.056 -1.0681  0.4930 -0.2260
   40MOL0     C 5394   2.221   2.650   5.177 -0.6691 -0.8817 -0.2421
   40MOL0     C 5395   2.373   2.679   5.170 -0.3352  1.3098  0.0405
   40MOL0     C 5396   2.450   2.620   5.295 -0.2917  0.6360  0.4201
   40MOL0     C 5397   2.597   2.673   5.319 -0.7024  0.5775  0.7460
   40MOL0     C 5398   2.695   2.647   5.202 -0.1883  0.6754 -0.1700
   40MOL0     N 5399   2.833   2.634   5.241 -0.6695  0.1721 -0.1840
   40MOL0     C 5400   2.896   2.547   5.326 -0.2136 -0.3792 -0.6602
   40MOL0     C 5401   3.028   2.566   5.293  0.2081 -0.0383 -0.0671
   40MOL0     C 5402   3.145   2.508   5.379 -0.4191  1.3552 -0.1749
   40MOL0     C 5403   3.200   2.625   5.457 -0.2794 -0.1363 -1.0870
   40MOL0     C 5404   3.305   2.595   5.554 -0.0037  0.7449 -0.1039
   40MOL0     C 5405   3.289   2.665   5.683 -0.6852  1.0429  0.0224
   40MOL0     O 5406   3.394   2.603   5.762 -0.9966  0.8393  0.0875
   40MOL0     C 5407   3.528   2.648   5.752  0.2320 -0.3633  0.1711
   40MOL0     C 5408   3.613   2.575   5.833  0.0481  0.4454 -0.9026
   40MOL0     C 5409   3.752   2.598   5.823 -0.2461  0.0817  0.7005
   40MOL0     C 5410   3.839   2.514   5.903  0.3276  1.2131 -0.7295
   40MOL0     C 5411   3.802   2.698   5.732  0.5520  0.0504 -0.2168
   40MOL0     C 5412   3.951   2.723   5.705 -0.2848  0.1287  0.4760
   40MOL0     O 5413   3.987   2.815   5.606 -0.6814 -0.6364  0.6701
   40MOL0     C 5414   4.123   2.812   5.571 -0.0763 -0.9893 -0.2422
   40MOL0     C 5415   4.163   2.709   5.482  0.4510 -0.3670  0.1183
   40MOL0     C 5416   4.301   2.695   5.440 -0.2365  0.5056 -0.2730
   40MOL0     C 5417   4.389   2.794   5.477 -0.3930  1.2576  0.1187
   40MOL0     O 5418   4.515   2.790   5.422  0.5040  0.7032  0.1969
   40MOL0     C 5419   4.623   2.860   5.487 -0.4319 -1.0195  0.7969
   40MOL0     C 5420   4.746   2.769   5.479  0.3352 -0.3959  0.4010
   40MOL0     C 5421   4.789   2.737   5.338  0.1004 -0.0997  1.0478
   40MOL0     C 5422   4.876   2.619   5.325 -0.7045 -0.3041 -0.2900
   40MOL0     C 5423   4.900   2.577   5.186 -0.3145  0.4496  0.9575
   40MOL0     C 5424   4.981   2.455   5.197  0.4096 -1.1111  0.9290
   40MOL0     C 5425   5.011   2.397   5.055 -0.1072 -0.7704  0.9938
   40MOL0     C 5426   5.080   2.260   5.042 -0.6130  0.7429 -1.2911
   40MOL0    Cl 5427   5.139   2.244   4.872  0.1577 -0.6782 -0.2820
   40MOL0     C 5428   4.344   2.898   5.560 -0.0154  0.0265  0.5405
   40MOL0     C 5429   4.218   2.907   5.612  1.6331 -0.2165 -0.0922
   40MOL0     O 5430   4.028   2.660   5.763 -0.1488 -0.3124  0.1190
   40MOL0     C 5431   3.708   2.783   5.669 -0.1701  0.7340  0.0010
   40MOL0     C 5432   3.574   2.756   5.679 -0.6086  0.0489 -0.3326
   40MOL0     N 5433   3.041   2.658   5.201 -0.6166  0.2557 -0.2656
   40MOL0     N 5434   2.927   2.694   5.156 -0.1957 -0.1129 -0.1365
   40MOL0     C 5435   1.594   2.577   4.826  0.2728  0.2297 -0.3303
   40MOL0     C 5436   1.479   2.612   4.744 -0.2059  0.1580 -0.4492
   40MOL0     C 5437   1.120   2.801   4.604 -0.9683  0.1131  0.3606
   40MOL0     C 5438   1.129   2.835   4.468  0.0725 -0.6392  0.1127
   40MOL0     C 5439   1.029   2.894   4.395 -0.3338  0.1837 -0.3480
   40MOL0     C 5440   0.907   2.922   4.459 -0.2957 -0.1839 -0.1739
   40MOL0     O 5441   0.809   3.000   4.402 -0.0317 -0.2605  0.1067
   40MOL0     C 5442   0.732   2.965   4.289 -0.6436  0.8735  1.2882
   40MOL0     C 5443   0.627   2.861   4.313 -0.4196  0.5513 -0.0577
   40MOL0     C 5444   0.508   2.909   4.395  0.4754 -0.2537  0.6004
   40MOL0     C 5445   0.398   2.815   4.435 -0.0135 -0.6798  0.2421
   40MOL0     C 5446   0.368   2.743   4.314 -0.1777  0.3810 -0.0792
   40MOL0     C 5447   0.336   2.670   4.220 -0.4537 -0.2046  0.7051
   40MOL0     C 5448   0.887   2.875   4.591 -0.5015 -0.0351  0.3489
   40MOL0     C 5449   0.988   2.803   4.662 -0.2855 -0.4722 -0.7327
   40MOL0     C 5450   0.948   2.734   4.791 -0.2739  0.1330  0.4300
   40MOL0     H 5451   1.573   2.923   4.656  0.9297 -0.0671  0.9251
   40MOL0     H 5452   1.776   2.850   4.792  0.3224  1.2673 -1.4391
   40MOL0     H 5453   1.877   2.809   4.980  0.9720  1.6638 -1.3764
   40MOL0     H 5454   1.959   2.726   4.850  2.1324  2.3924  1.7834
   40MOL0     H 5455   1.972   2.645   5.149  2.7552  0.2280  0.3006
   40MOL0     H 5456   2.030   2.541   5.015  2.3387  0.7598 -0.5180
   40MOL0     H 5457   2.190   2.676   4.962  2.3469 -2.3656  2.1661
   40MOL0     H 5458   2.151   2.820   5.048  3.6062  0.3511 -2.7682
   40MOL0     H 5459   2.178   2.698   5.266 -3.0609 -0.9042 -1.3057
   40MOL0     H 5460   2.216   2.542   5.189  0.4577 -0.8824  0.4245
   40MOL0     H 5461   2.395   2.784   5.152 -0.7830  1.4835  0.4953
   40MOL0     H 5462   2.419   2.625   5.086  2.4057  1.1002  1.5596
   40MOL0     H 5463   2.392   2.642   5.385 -3.3627  1.0707 -1.5046
   40MOL0     H 5464   2.452   2.512   5.285 -1.7183  0.6285  0.0226
   40MOL0     H 5465   2.625   2.629   5.415 -1.0865 -0.4534  0.3969
   40MOL0     H 5466   2.578   2.781   5.322 -3.6272  0.1899 -0.4371
   40MOL0     H 5467   2.670   2.544   5.176  0.6500  0.3109  0.4075
   40MOL0     H 5468   2.662   2.716   5.124 -0.9525  2.2873  1.5119
   40MOL0     H 5469   2.854   2.476   5.397  2.6474 -1.1786  0.3633
   40MOL0     H 5470   3.222   2.457   5.321  1.2787  1.6576  1.7133
   40MOL0     H 5471   3.105   2.434   5.450  1.8307 -1.0347 -1.2253
   40MOL0     H 5472   3.237   2.704   5.392  1.2690 -0.7070 -0.9606
   40MOL0     H 5473   3.116   2.670   5.508 -0.0456 -0.5503 -0.3171
   40MOL0     H 5474   3.304   2.487   5.571  0.0270  0.7878  0.1818
   40MOL0     H 5475   3.402   2.624   5.512  2.2187 -0.2880  3.7820
   40MOL0     H 5476   3.308   2.773   5.678  0.8050  0.8496  0.7812
   40MOL0     H 5477   3.193   2.645   5.730 -0.8717  0.6462 -0.5165
   40MOL0     H 5478   3.567   2.492   5.885 -1.9424  0.2203 -2.8587
   40MOL0     H 5479   3.916   2.470   5.839 -0.3640 -1.6611  0.2543
   40MOL0     H 5480   3.787   2.429   5.949  0.6159 -0.2251 -2.8743
   40MOL0     H 5481   3.882   2.578   5.980  0.6277 -0.5384  0.6048
   40MOL0     H 5482   4.087   2.645   5.439  1.0159  0.7518 -2.7736
   40MOL0     H 5483   4.335   2.614   5.376 -0.9753  0.2185 -0.3155
   40MOL0     H 5484   4.631   2.961   5.446 -4.1792 -1.2231 -0.7909
   40MOL0     H 5485   4.596   2.849   5.593 -1.3531 -2.6026  0.4392
   40MOL0     H 5486   4.830   2.821   5.526 -0.2399  1.4378 -0.5207
   40MOL0     H 5487   4.728   2.676   5.534  2.7508 -1.5654 -0.6038
   40MOL0     H 5488   4.834   2.832   5.306 -1.3122  1.1450  2.5751
   40MOL0     H 5489   4.704   2.714   5.273  2.0909 -2.9103 -0.8051
   40MOL0     H 5490   4.826   2.538   5.379  1.1095 -1.4649 -0.2820
   40MOL0     H 5491   4.969   2.638   5.378 -1.6071  1.4013  0.7647
   40MOL0     H 5492   4.805   2.554   5.135 -1.1721  0.1704  2.5944
   40MOL0     H 5493   4.938   2.663   5.131  1.0904  0.8780  2.5504
   40MOL0     H 5494   4.928   2.376   5.252 -0.7520 -1.0520 -0.0740
   40MOL0     H 5495   5.080   2.486   5.233 -0.6597  0.9165  2.2912
   40MOL0     H 5496   5.065   2.470   4.995 -2.6871  1.0359  0.6907
   40MOL0     H 5497   4.909   2.393   5.015 -0.5877 -2.6829  2.2371
   40MOL0     H 5498   5.003   2.184   5.058 -0.9358  1.0103 -1.5609
   40MOL0     H 5499   5.163   2.253   5.113 -1.8749  1.1258  0.2974
   40MOL0     H 5500   4.420   2.970   5.591 -1.4828  2.7836 -1.7627
   40MOL0     H 5501   4.199   2.995   5.673 -1.7385 -1.1201  0.3509
   40MOL0     H 5502   3.734   2.865   5.604 -2.4472  2.1892  0.7781
   40MOL0     H 5503   3.507   2.815   5.619  0.3299 -0.1861 -1.6449
   40MOL0     H 5504   1.605   2.482   4.879  1.9251  0.4466 -0.2366
   40MOL0     H 5505   1.391   2.548   4.735  0.6850 -1.0933 -0.6226
   40MOL0     H 5506   1.224   2.824   4.415 -1.7347 -0.1130 -3.4967
   40MOL0     H 5507   1.040   2.931   4.293  1.2050 -2.2724 -1.1608
   40MOL0     H 5508   0.688   3.058   4.253  2.4003  1.6919 -0.7313
   40MOL0     H 5509   0.798   2.931   4.208 -3.2580 -2.0164  0.1209
   40MOL0     H 5510   0.672   2.769   4.350 -1.9564 -0.3438 -0.3199
   40MOL0     H 5511   0.587   2.826   4.217 -1.1355  2.5714 -0.5446
   40MOL0     H 5512   0.547   2.956   4.486  1.7012 -0.1187  0.0335
   40MOL0     H 5513   0.463   2.983   4.328  0.9133 -1.0097 -0.5576
   40MOL0     H 5514   0.312   2.868   4.477  0.6390  0.2943  0.3712
   40MOL0     H 5515   0.438   2.749   4.513  1.5735 -1.6602 -1.3263
   40MOL0     H 5516   0.314   2.610   4.134 -2.2638 -0.8267  1.5434
   40MOL0     H 5517   0.792   2.896   4.637  0.2309 -0.1999  2.0004
   40MOL0     H 5518   0.944   2.813   4.867 -1.5756  0.2102  0.2977
   40MOL0     H 5519   0.853   2.682   4.777  1.8563 -3.6675 -1.4953
   40MOL0     H 5520   1.021   2.660   4.823 -1.9655 -1.0540  1.7282
   41MOL0     O 5521   7.100   7.550   0.387  0.2166  1.1111  0.2650
   41MOL0     C 5522   7.037   7.487   0.476 -0.5063 -0.9102 -0.1049
   41MOL0     O 5523   7.088   7.393   0.551 -0.5963 -0.6608  0.5180
   41MOL0     C 5524   7.224   7.364   0.565  0.1567 -0.6830  0.0075
   41MOL0     C 5525   7.330   7.465   0.571  0.1482  0.0002  0.2107
   41MOL0     C 5526   7.461   7.423   0.599  0.4054  0.3890  0.0783
   41MOL0     C 5527   7.496   7.289   0.618 -0.2454 -0.4240 -0.5611
   41MOL0     O 5528   7.633   7.264   0.639  0.0770  0.4122 -0.0030
   41MOL0     C 5529   7.683   7.161   0.560 -0.1552  0.2919 -0.7436
   41MOL0     C 5530   7.832   7.190   0.567 -0.1251 -0.4054  0.0981
   41MOL0     C 5531   7.919   7.093   0.481 -0.4670 -0.6531  0.3177
   41MOL0     C 5532   8.060   7.145   0.477 -0.3041 -0.0118 -0.3725
   41MOL0     C 5533   8.144   7.035   0.412  0.0112  0.2575  0.3364
   41MOL0     C 5534   8.274   7.088   0.367 -0.2714  0.1263 -0.0034
   41MOL0     C 5535   8.388   7.064   0.472  0.1002 -0.0163  0.8660
   41MOL0     C 5536   8.514   7.149   0.451 -0.8371  0.0738  0.9114
   41MOL0     N 5537   8.603   7.134   0.563  0.0251  0.7365  0.2560
   41MOL0     C 5538   8.692   7.019   0.572 -0.0837 -1.0280  0.5228
   41MOL0     C 5539   8.752   7.043   0.687  0.4692 -0.2068 -0.5747
   41MOL0     C 5540   8.847   6.942   0.761  0.5173 -0.2932 -0.4106
   41MOL0     C 5541   8.981   6.999   0.807  0.4409 -0.1985 -0.7266
   41MOL0     C 5542   9.081   6.885   0.840 -0.3521 -0.5170 -0.2691
   41MOL0     C 5543   9.133   6.811   0.714 -0.0981 -0.8963 -0.1800
   41MOL0     O 5544   9.240   6.728   0.753  0.1030 -0.0387  0.2295
   41MOL0     C 5545   9.200   6.594   0.724 -0.3279 -0.5058  0.4404
   41MOL0     C 5546   9.099   6.530   0.794  0.1271 -0.3227 -0.4178
   41MOL0     C 5547   9.064   6.402   0.766 -0.1959 -0.4826 -0.1997
   41MOL0     C 5548   8.945   6.340   0.832  0.0874 -0.0778 -0.6176
   41MOL0     C 5549   9.146   6.326   0.674 -0.3058  0.5983 -0.7951
   41MOL0     C 5550   9.138   6.182   0.651 -0.3702 -0.0336  0.2902
   41MOL0     O 5551   9.168   6.137   0.528  0.3372 -0.2339  0.0557
   41MOL0     C 5552   9.194   6.005   0.498 -0.2135  0.2336  0.4096
   41MOL0     C 5553   9.240   5.905   0.592 -0.7256 -0.2578  0.2503
   41MOL0     C 5554   9.275   5.777   0.529  0.0310  0.0756 -0.9580
   41MOL0     C 5555   9.267   5.754   0.392  0.1884 -0.5893 -0.0020
   41MOL0     O 5556   9.311   5.631   0.347 -0.3795 -0.2663 -0.3388
   41MOL0     C 5557   9.295   5.578   0.213 -0.6356  0.6046  0.8720
   41MOL0     C 5558   9.316   5.423   0.205 -0.0459 -0.9779 -0.4168
   41MOL0     C 5559   9.182   5.360   0.193 -0.4572  1.6758  0.4776
   41MOL0     C 5560   9.105   5.355   0.065  0.5112 -0.2484 -0.1070
   41MOL0     C 5561   9.190   5.270  -0.033  0.6296 -0.2298  0.8235
   41MOL0     C 5562   9.122   5.235  -0.165  0.3403 -0.3443  0.2326
   41MOL0     C 5563   9.219   5.172  -0.270 -0.3740  0.8186 -0.6417
   41MOL0     C 5564   9.154   5.140  -0.401  0.4890  0.5011  0.3531
   41MOL0    Cl 5565   9.139   5.306  -0.473  0.0738 -0.1431 -0.3690
   41MOL0     C 5566   9.223   5.851   0.305 -0.1950  0.4001  0.3492
   41MOL0     C 5567   9.183   5.969   0.361  0.2455  0.1332  0.6471
   41MOL0     O 5568   9.103   6.117   0.751 -0.0766 -0.7283  0.8750
   41MOL0     C 5569   9.250   6.396   0.608 -1.0608 -0.6924 -1.0464
   41MOL0     C 5570   9.279   6.529   0.633 -0.2204 -0.3788 -0.8780
   41MOL0     N 5571   8.712   7.168   0.744 -0.2034 -0.7898  0.0864
   41MOL0     N 5572   8.622   7.226   0.663 -0.2906  0.6434 -0.7078
   41MOL0     C 5573   7.393   7.193   0.617  0.1032  0.1841  0.4072
   41MOL0     C 5574   7.261   7.233   0.596  0.0282  0.8933  0.2580
   41MOL0     C 5575   6.894   7.523   0.494  0.2711  0.9330 -0.3817
   41MOL0     C 5576   6.863   7.616   0.581 -0.0397  0.0977  0.2404
   41MOL0     C 5577   6.727   7.648   0.603  0.1353 -0.3541 -0.1862
   41MOL0     C 5578   6.624   7.591   0.520  0.1708 -0.0229 -0.0399
   41MOL0     O 5579   6.497   7.639   0.515  0.3906  0.5621  0.0985
   41MOL0     C 5580   6.457   7.732   0.628 -0.1093  0.1564 -0.2105
   41MOL0     C 5581   6.309   7.760   0.639 -0.2856 -0.1429 -0.0344
   41MOL0     C 5582   6.288   7.842   0.769 -0.0019 -0.8022  0.3610
   41MOL0     C 5583   6.157   7.907   0.786 -0.0461 -0.5114 -0.3250
   41MOL0     C 5584   6.054   7.810   0.819  0.0416  0.1458 -0.0658
   41MOL0     C 5585   5.963   7.732   0.835 -0.2400 -0.8008 -0.3672
   41MOL0     C 5586   6.659   7.489   0.429  0.0349 -0.5854 -0.8818
   41MOL0     C 5587   6.796   7.455   0.422  0.2431 -0.0220 -0.3562
   41MOL0     C 5588   6.835   7.351   0.332  0.3345  0.3640 -0.4483
   41MOL0     H 5589   7.312   7.570   0.550  2.7673  0.1232 -1.8290
   41MOL0     H 5590   7.531   7.506   0.598  0.8199  0.0447 -0.4732
   41MOL0     H 5591   7.641   7.164   0.459 -0.9048  1.6780 -0.4260
   41MOL0     H 5592   7.662   7.064   0.607  0.9207  0.3792 -0.0293
   41MOL0     H 5593   7.851   7.293   0.537 -2.8578  0.7470  1.8776
   41MOL0     H 5594   7.858   7.191   0.673 -1.2152  2.7224  0.4555
   41MOL0     H 5595   7.917   6.993   0.525  1.7951 -0.2791  1.4057
   41MOL0     H 5596   7.887   7.096   0.376 -1.4038  1.0670  0.6061
   41MOL0     H 5597   8.064   7.234   0.413 -0.4387  0.9056  0.8717
   41MOL0     H 5598   8.090   7.169   0.579 -2.3652 -2.1697  0.8480
   41MOL0     H 5599   8.088   6.996   0.327  1.8374 -2.1374  0.1169
   41MOL0     H 5600   8.170   6.956   0.483  1.1118  2.3748  2.4578
   41MOL0     H 5601   8.315   7.035   0.279  2.0674  0.3690  0.8557
   41MOL0     H 5602   8.268   7.194   0.341 -1.2215 -0.1483 -0.9732
   41MOL0     H 5603   8.429   6.963   0.480  2.6898  0.7810 -0.9988
   41MOL0     H 5604   8.339   7.078   0.569  1.5650  1.2923  1.4566
   41MOL0     H 5605   8.565   7.114   0.361 -0.6745 -1.0097  1.4080
   41MOL0     H 5606   8.488   7.252   0.424  0.0099  0.0312 -0.1393
   41MOL0     H 5607   8.701   6.927   0.514 -0.9091 -1.3977  0.9637
   41MOL0     H 5608   8.860   6.866   0.684 -0.6405 -0.1406 -0.7742
   41MOL0     H 5609   8.795   6.890   0.842  0.6744  1.1177  0.6544
   41MOL0     H 5610   9.025   7.048   0.720  0.4779 -1.4106 -1.4197
   41MOL0     H 5611   8.974   7.071   0.888  0.0955  0.3013 -1.1964
   41MOL0     H 5612   9.166   6.922   0.898 -1.0881  1.5597 -0.4365
   41MOL0     H 5613   9.032   6.818   0.911  0.4172 -0.1900  0.5865
   41MOL0     H 5614   9.040   6.762   0.684 -0.7018 -0.3437  0.7534
   41MOL0     H 5615   9.175   6.875   0.636 -1.6466  0.6377  0.1711
   41MOL0     H 5616   9.040   6.580   0.870  1.7206 -1.3192  1.5684
   41MOL0     H 5617   8.958   6.284   0.925 -1.7047 -3.3928 -2.1896
   41MOL0     H 5618   8.897   6.264   0.769  0.1993 -0.2461 -0.4981
   41MOL0     H 5619   8.866   6.414   0.847 -0.6667 -0.7878 -1.0013
   41MOL0     H 5620   9.256   5.918   0.699 -0.9305  0.8440  0.1646
   41MOL0     H 5621   9.328   5.704   0.591  1.6164  0.6950 -1.5217
   41MOL0     H 5622   9.194   5.603   0.180 -1.3456  0.0819  2.5442
   41MOL0     H 5623   9.373   5.626   0.153 -0.7270  0.2015  0.4187
   41MOL0     H 5624   9.381   5.399   0.121  0.7302  1.0853 -0.4711
   41MOL0     H 5625   9.371   5.396   0.296 -0.4134 -1.0458 -0.2109
   41MOL0     H 5626   9.125   5.412   0.270 -1.0300 -1.0348  2.0140
   41MOL0     H 5627   9.185   5.255   0.223 -1.8668  1.6912  0.7448
   41MOL0     H 5628   9.103   5.459   0.030 -2.7106 -0.3399 -0.5217
   41MOL0     H 5629   9.006   5.314   0.086  1.1910 -2.4721 -0.9726
   41MOL0     H 5630   9.276   5.333  -0.059  1.0177 -0.4759  1.5019
   41MOL0     H 5631   9.224   5.182   0.022  4.0913  0.8552  0.6587
   41MOL0     H 5632   9.070   5.321  -0.208 -1.3535 -1.0052  0.8770
   41MOL0     H 5633   9.051   5.151  -0.160  0.2823 -0.2850  0.4234
   41MOL0     H 5634   9.255   5.079  -0.225  0.5182  2.6883  2.8735
   41MOL0     H 5635   9.304   5.240  -0.284  0.9121  0.8423  4.8744
   41MOL0     H 5636   9.062   5.081  -0.394 -0.6215  2.1265 -0.0105
   41MOL0     H 5637   9.220   5.079  -0.463 -0.6664  0.2014 -0.6143
   41MOL0     H 5638   9.227   5.834   0.198  1.2723  1.3119  0.2299
   41MOL0     H 5639   9.147   6.049   0.297 -1.1579 -0.9835 -0.0459
   41MOL0     H 5640   9.314   6.340   0.540  0.0738 -0.8352  0.0934
   41MOL0     H 5641   9.365   6.573   0.584  0.4713 -1.4165 -0.6251
   41MOL0     H 5642   7.418   7.090   0.640  0.4155 -0.0497 -0.9029
   41MOL0     H 5643   7.185   7.156   0.605  2.7248 -2.1999 -1.0503
   41MOL0     H 5644   6.946   7.662   0.634  0.8798 -1.9613  0.7083
   41MOL0     H 5645   6.717   7.729   0.675  3.5165 -2.1921  2.6676
   41MOL0     H 5646   6.493   7.699   0.726  0.2956  3.2244  0.7860
   41MOL0     H 5647   6.501   7.830   0.604  1.7944  0.3959  3.5795
   41MOL0     H 5648   6.249   7.670   0.632 -0.9647  0.2204  0.8830
   41MOL0     H 5649   6.274   7.823   0.557 -1.8253 -1.1412 -0.1719
   41MOL0     H 5650   6.305   7.787   0.862 -3.0509  2.2314  2.9791
   41MOL0     H 5651   6.365   7.920   0.769 -0.5378 -0.2083 -1.7890
   41MOL0     H 5652   6.129   7.969   0.701 -0.6945  0.0094  0.2577
   41MOL0     H 5653   6.160   7.985   0.862 -3.5846  3.0479 -3.3988
   41MOL0     H 5654   5.878   7.672   0.862 -0.5326  0.5673  1.9382
   41MOL0     H 5655   6.576   7.445   0.375  0.1612 -3.3596  0.9663
   41MOL0     H 5656   6.899   7.276   0.378  1.3193  0.2412 -1.9573
   41MOL0     H 5657   6.748   7.298   0.292 -1.0197  2.0636  0.1298
   41MOL0     H 5658   6.880   7.408   0.249  0.0283  2.5429  0.8042
   42MOL0     O 5659   5.862   5.590   5.639 -0.0081  0.0668 -0.0480
   42MOL0     C 5660   5.816   5.483   5.667  0.6330 -0.0209 -0.7581
   42MOL0     O 5661   5.891   5.369   5.682 -0.4461 -0.2162 -0.3850
   42MOL0     C 5662   6.023   5.371   5.644  0.1074 -0.7608  0.2309
   42MOL0     C 5663   6.124   5.337   5.732 -0.3496 -0.3753  1.0452
   42MOL0     C 5664   6.257   5.332   5.687 -0.0368  0.4290  0.3720
   42MOL0     C 5665   6.296   5.368   5.557  0.3711  0.8531 -0.7456
   42MOL0     O 5666   6.429   5.363   5.531  0.4823 -0.6027 -0.0846
   42MOL0     C 5667   6.458   5.345   5.393 -0.7750 -0.0400 -0.2698
   42MOL0     C 5668   6.608   5.311   5.386  0.1702 -1.0504 -0.5581
   42MOL0     C 5669   6.645   5.284   5.241  0.0677  0.8571  0.6918
   42MOL0     C 5670   6.795   5.238   5.233 -0.2826  0.1374 -0.0595
   42MOL0     C 5671   6.819   5.217   5.079 -0.3783 -0.2784 -1.0126
   42MOL0     C 5672   6.970   5.214   5.033  0.3717 -0.5142 -0.7081
   42MOL0     C 5673   7.027   5.354   5.021  0.3875 -0.6009  0.8306
   42MOL0     C 5674   7.175   5.348   4.974 -0.8942  0.1775 -0.5940
   42MOL0     N 5675   7.221   5.490   4.944  0.2172 -0.0739 -0.2414
   42MOL0     C 5676   7.251   5.595   5.031  0.5323  0.5086  0.2816
   42MOL0     C 5677   7.307   5.689   4.958  0.8171 -0.6823  0.1946
   42MOL0     C 5678   7.362   5.818   5.017  0.1096 -0.3209 -0.3306
   42MOL0     C 5679   7.513   5.795   5.066  1.6035  0.6273 -0.8656
   42MOL0     C 5680   7.602   5.758   4.949  0.6141  0.6202 -0.4808
   42MOL0     C 5681   7.746   5.739   4.988  0.5528 -0.7099 -0.3529
   42MOL0     O 5682   7.798   5.865   5.035 -0.1724  0.5733 -1.0093
   42MOL0     C 5683   7.928   5.873   5.079  0.3173 -0.6343 -0.4701
   42MOL0     C 5684   7.964   5.990   5.130  0.5157  0.2312  0.5230
   42MOL0     C 5685   8.088   6.020   5.188 -0.1423 -0.8099 -0.1883
   42MOL0     C 5686   8.103   6.173   5.226 -0.7814  0.2804 -0.2380
   42MOL0     C 5687   8.188   5.919   5.187 -0.1313  0.3339  0.3191
   42MOL0     C 5688   8.315   5.938   5.257  0.1859 -0.4638 -0.9805
   42MOL0     O 5689   8.365   6.068   5.287 -0.3956 -0.6287 -0.5037
   42MOL0     C 5690   8.488   6.079   5.340 -0.2949  0.1897 -0.4260
   42MOL0     C 5691   8.494   6.134   5.469 -0.1715  0.4680  0.2540
   42MOL0     C 5692   8.616   6.156   5.531  0.7251 -0.6764  0.9750
   42MOL0     C 5693   8.738   6.130   5.457 -0.1846  0.0239 -0.4293
   42MOL0     O 5694   8.863   6.150   5.527 -0.1101  0.0025 -0.0595
   42MOL0     C 5695   8.859   6.198   5.660 -0.0723  0.8833  0.0101
   42MOL0     C 5696   8.998   6.192   5.721 -0.6266 -0.5326  0.2792
   42MOL0     C 5697   9.079   6.295   5.644  0.2407  0.5000 -0.5656
   42MOL0     C 5698   9.215   6.311   5.711  0.0298  0.1588 -0.4722
   42MOL0     C 5699   9.305   6.400   5.632 -0.2818 -0.0879 -0.5993
   42MOL0     C 5700   9.448   6.398   5.681 -1.1583 -0.2475  0.3416
   42MOL0     C 5701   9.554   6.476   5.594  0.6618 -0.2439  0.6913
   42MOL0     C 5702   9.636   6.585   5.666  0.4761  0.2439 -0.2514
   42MOL0    Cl 5703   9.533   6.725   5.738 -0.1341  0.4064 -0.7650
   42MOL0     C 5704   8.725   6.072   5.330  0.7513  0.6068  0.1314
   42MOL0     C 5705   8.599   6.041   5.276 -0.0142 -0.2378 -0.0794
   42MOL0     O 5706   8.386   5.843   5.263 -0.3428  0.6987  0.1886
   42MOL0     C 5707   8.159   5.797   5.127  0.1534 -0.2977  0.8757
   42MOL0     C 5708   8.027   5.780   5.079  0.8065 -0.8135 -0.5721
   42MOL0     N 5709   7.310   5.649   4.826 -0.1535  1.1095 -0.3329
   42MOL0     N 5710   7.256   5.526   4.818  0.7185 -0.8602 -0.6829
   42MOL0     C 5711   6.191   5.407   5.471 -0.4372 -0.7306  0.2158
   42MOL0     C 5712   6.060   5.412   5.513  0.4047  0.4665  0.0724
   42MOL0     C 5713   5.667   5.469   5.688  0.8457  0.2794  0.0853
   42MOL0     C 5714   5.624   5.384   5.792 -0.0593 -0.0781 -0.7025
   42MOL0     C 5715   5.493   5.345   5.803 -0.4409  0.0372 -0.0987
   42MOL0     C 5716   5.394   5.401   5.735  0.0586  0.3702  0.3175
   42MOL0     O 5717   5.261   5.373   5.770  0.5607 -0.7985 -0.7815
   42MOL0     C 5718   5.163   5.469   5.723 -1.0756  0.3877 -0.3685
   42MOL0     C 5719   5.024   5.403   5.747 -1.2478  0.6684  0.0562
   42MOL0     C 5720   4.908   5.501   5.740 -0.7529 -0.7620 -0.3840
   42MOL0     C 5721   4.784   5.431   5.772  0.2059  0.0773  0.7666
   42MOL0     C 5722   4.677   5.519   5.830  0.4815 -0.3402  0.0162
   42MOL0     C 5723   4.586   5.589   5.877  0.1376  0.2789  0.6247
   42MOL0     C 5724   5.428   5.499   5.634 -0.0982  0.0685 -0.7897
   42MOL0     C 5725   5.565   5.530   5.612 -0.6245 -0.2088 -0.3146
   42MOL0     C 5726   5.600   5.621   5.497  0.3665 -0.4767 -0.2485
   42MOL0     H 5727   6.105   5.320   5.837  0.5199 -0.9540  1.1211
   42MOL0     H 5728   6.336   5.295   5.752  1.5090  0.5827 -1.3407
   42MOL0     H 5729   6.431   5.425   5.323 -0.5178 -0.6435 -1.0807
   42MOL0     H 5730   6.403   5.257   5.358 -0.0274 -0.2986 -0.8238
   42MOL0     H 5731   6.670   5.390   5.429 -1.7936 -0.3549  1.2014
   42MOL0     H 5732   6.623   5.214   5.433 -3.9281 -2.3617 -1.5141
   42MOL0     H 5733   6.567   5.217   5.202 -0.9002  2.1795  0.2755
   42MOL0     H 5734   6.650   5.378   5.186  3.1654  1.8056  2.3876
   42MOL0     H 5735   6.860   5.310   5.282  0.6358  1.5876 -3.1771
   42MOL0     H 5736   6.801   5.141   5.285  3.2892  1.1354  1.6680
   42MOL0     H 5737   6.771   5.300   5.026 -1.5622 -0.0864  0.3099
   42MOL0     H 5738   6.764   5.133   5.036 -1.8538  2.0848 -4.0814
   42MOL0     H 5739   7.027   5.155   5.106  2.0554  3.3085  1.3486
   42MOL0     H 5740   6.971   5.160   4.938 -0.9695  0.7672 -1.5009
   42MOL0     H 5741   7.018   5.404   5.117  1.0938  0.0117  0.5879
   42MOL0     H 5742   6.967   5.416   4.954 -0.3280 -1.8559  0.2669
   42MOL0     H 5743   7.238   5.301   5.050 -0.2647  3.1114  0.8680
   42MOL0     H 5744   7.181   5.284   4.886 -2.8638  0.6574 -1.1307
   42MOL0     H 5745   7.239   5.584   5.138  1.2384 -3.6469  0.1005
   42MOL0     H 5746   7.320   5.828   5.117  1.7591  0.1899  0.3355
   42MOL0     H 5747   7.347   5.903   4.949  0.1568 -1.6491 -2.0840
   42MOL0     H 5748   7.544   5.886   5.118 -0.2208  0.6935  0.2089
   42MOL0     H 5749   7.511   5.708   5.132 -3.0666 -0.5869 -2.1874
   42MOL0     H 5750   7.562   5.674   4.891  1.2529 -0.8538  1.1255
   42MOL0     H 5751   7.598   5.842   4.880  0.5976  0.1853 -1.0170
   42MOL0     H 5752   7.764   5.667   5.068  0.6781 -0.2400  0.0480
   42MOL0     H 5753   7.815   5.725   4.904  2.3850  1.4639  0.6873
   42MOL0     H 5754   7.886   6.065   5.136  2.2920  2.3475 -1.1800
   42MOL0     H 5755   8.187   6.227   5.181  2.0519 -1.5045  2.4413
   42MOL0     H 5756   8.127   6.189   5.332  1.2282  3.9303 -1.0574
   42MOL0     H 5757   8.010   6.227   5.210 -0.1537  1.3391 -0.3898
   42MOL0     H 5758   8.398   6.158   5.514 -0.3907  0.4587 -0.1998
   42MOL0     H 5759   8.599   6.198   5.630 -1.5845  4.7209 -1.3318
   42MOL0     H 5760   8.820   6.300   5.666 -2.1551  0.1548 -0.1300
   42MOL0     H 5761   8.796   6.128   5.717  2.3292 -1.0815  0.4408
   42MOL0     H 5762   9.004   6.215   5.828 -1.8046 -2.6343  0.8531
   42MOL0     H 5763   9.040   6.091   5.721 -0.0796 -0.3460 -1.5655
   42MOL0     H 5764   9.034   6.394   5.638 -0.9482 -0.1056 -3.6659
   42MOL0     H 5765   9.096   6.273   5.538  0.3751  1.3893 -0.7369
   42MOL0     H 5766   9.267   6.215   5.706  1.8956  1.1661 -5.0575
   42MOL0     H 5767   9.202   6.342   5.816 -0.6159  2.6397 -1.2187
   42MOL0     H 5768   9.306   6.348   5.536 -3.6574 -2.7557  0.5975
   42MOL0     H 5769   9.260   6.498   5.620 -1.2908 -0.7215 -2.2888
   42MOL0     H 5770   9.476   6.294   5.701 -1.6581 -0.0286  2.3696
   42MOL0     H 5771   9.435   6.438   5.782 -4.6124  0.9149 -0.4181
   42MOL0     H 5772   9.495   6.514   5.510  0.4315 -3.2622 -0.6240
   42MOL0     H 5773   9.634   6.414   5.554  2.8423  3.1137 -0.6128
   42MOL0     H 5774   9.710   6.634   5.602  1.2996  2.3815  2.1833
   42MOL0     H 5775   9.696   6.541   5.746  2.9913  1.4209 -1.3662
   42MOL0     H 5776   8.806   6.042   5.264  0.1060 -0.1107 -0.3711
   42MOL0     H 5777   8.574   5.988   5.185 -1.0033  1.0270 -0.5857
   42MOL0     H 5778   8.225   5.712   5.142 -1.3688 -2.0066 -1.4272
   42MOL0     H 5779   8.003   5.684   5.033  1.0048 -0.4424 -1.4663
   42MOL0     H 5780   6.220   5.434   5.370 -0.3732 -0.5146  0.2905
   42MOL0     H 5781   5.986   5.443   5.439  0.9962 -1.2202 -1.3137
   42MOL0     H 5782   5.702   5.340   5.854 -0.3517  0.2964 -0.0497
   42MOL0     H 5783   5.460   5.277   5.881  2.0871 -0.2070  0.8356
   42MOL0     H 5784   5.174   5.565   5.773  0.9834 -0.2811  0.5534
   42MOL0     H 5785   5.168   5.472   5.614 -1.0660 -0.5697 -0.4061
   42MOL0     H 5786   5.025   5.358   5.847  1.6156  1.9464  0.7006
   42MOL0     H 5787   5.012   5.321   5.677 -0.3084 -2.1501  2.9399
   42MOL0     H 5788   4.930   5.583   5.809 -0.7708  0.5136 -1.8293
   42MOL0     H 5789   4.900   5.556   5.645  0.5135  0.8235  0.3829
   42MOL0     H 5790   4.800   5.341   5.833  0.7722  0.0034  0.5072
   42MOL0     H 5791   4.745   5.393   5.677  2.3483 -0.7291  0.1686
   42MOL0     H 5792   4.515   5.649   5.928 -1.0489  0.9055 -1.6140
   42MOL0     H 5793   5.353   5.552   5.576 -0.1824  0.6054 -0.2052
   42MOL0     H 5794   5.525   5.607   5.418 -0.1903 -0.3827  0.2522
   42MOL0     H 5795   5.614   5.726   5.524 -0.9347  0.0315 -1.4296
   42MOL0     H 5796   5.689   5.581   5.449  0.0269  0.5640 -1.8079
   43MOL0     O 5797   9.463   5.054   3.608 -0.2603  0.5273 -0.2712
   43MOL0     C 5798   9.499   5.166   3.631  0.7575  0.6242 -0.4611
   43MOL0     O 5799   9.415   5.262   3.670  0.2705 -0.4322  0.3250
   43MOL0     C 5800   9.286   5.229   3.655  0.3421 -1.1452 -0.9582
   43MOL0     C 5801   9.214   5.137   3.739 -0.4351 -0.7076  0.9195
   43MOL0     C 5802   9.080   5.101   3.708 -0.3777  0.1600 -0.3066
   43MOL0     C 5803   9.015   5.153   3.598  0.0753  0.7835 -0.5680
   43MOL0     O 5804   8.883   5.118   3.581  0.2144  1.0659  0.5078
   43MOL0     C 5805   8.790   5.195   3.492  0.4919 -0.5147 -0.4685
   43MOL0     C 5806   8.702   5.281   3.584 -0.3345  1.3822  0.0673
   43MOL0     C 5807   8.782   5.369   3.678  0.4122  0.1460 -0.7108
   43MOL0     C 5808   8.838   5.507   3.610  0.7959 -0.1747 -0.0567
   43MOL0     C 5809   8.924   5.585   3.718  0.1944 -0.3651 -0.2922
   43MOL0     C 5810   8.968   5.722   3.683  0.2291 -0.0210  0.5404
   43MOL0     C 5811   9.092   5.789   3.755  0.0259 -0.3681 -0.2010
   43MOL0     C 5812   9.045   5.833   3.900 -0.6359  0.3952  0.2854
   43MOL0     N 5813   9.157   5.910   3.964  0.5800  0.6459 -0.3638
   43MOL0     C 5814   9.141   6.023   4.042 -0.2834 -0.0537 -0.5084
   43MOL0     C 5815   9.266   6.054   4.081 -0.3447 -0.2336  0.6028
   43MOL0     C 5816   9.312   6.169   4.165 -0.1968 -0.4741 -0.1875
   43MOL0     C 5817   9.308   6.148   4.318  0.8332 -0.0953  0.2201
   43MOL0     C 5818   9.165   6.162   4.370  0.1453  0.3531 -0.5719
   43MOL0     C 5819   9.148   6.162   4.521 -0.1076 -0.2194  0.0521
   43MOL0     O 5820   9.205   6.040   4.566  0.5058  0.2517 -0.5129
   43MOL0     C 5821   9.132   5.928   4.592  0.2446 -0.2879  0.1852
   43MOL0     C 5822   9.198   5.806   4.621 -0.3973  0.0974 -0.1124
   43MOL0     C 5823   9.121   5.686   4.624 -0.9322  0.3156  0.1301
   43MOL0     C 5824   9.199   5.552   4.652 -0.4354 -0.3023  0.5810
   43MOL0     C 5825   8.978   5.686   4.616  0.4675 -0.3114  0.3356
   43MOL0     C 5826   8.885   5.577   4.649 -0.2308 -0.2055  0.6096
   43MOL0     O 5827   8.755   5.590   4.609 -0.8790  0.0789 -0.7255
   43MOL0     C 5828   8.673   5.483   4.608 -0.2595  0.4685  0.2753
   43MOL0     C 5829   8.547   5.507   4.661  0.0698  0.5519 -0.4177
   43MOL0     C 5830   8.452   5.407   4.654 -0.5070 -0.3528  0.2437
   43MOL0     C 5831   8.476   5.287   4.586 -0.6182  0.4915 -1.0643
   43MOL0     O 5832   8.381   5.188   4.564  0.7424 -0.4019  0.0973
   43MOL0     C 5833   8.249   5.205   4.634 -0.2006 -0.1715 -0.1304
   43MOL0     C 5834   8.162   5.088   4.617  0.7088  0.2386 -0.2271
   43MOL0     C 5835   8.009   5.114   4.646 -0.3575 -0.7017 -0.3871
   43MOL0     C 5836   7.939   4.980   4.670 -0.2717 -0.5813  0.3666
   43MOL0     C 5837   7.807   5.002   4.750  0.0443 -0.0328  0.7623
   43MOL0     C 5838   7.743   4.863   4.763  0.3055  0.4193  0.7849
   43MOL0     C 5839   7.607   4.864   4.826  0.4804 -0.2659 -0.3233
   43MOL0     C 5840   7.546   4.723   4.823  0.6804 -0.4650  0.6104
   43MOL0    Cl 5841   7.407   4.718   4.945  0.2418  0.1568 -0.0915
   43MOL0     C 5842   8.600   5.262   4.543  0.5190  0.0232  0.2921
   43MOL0     C 5843   8.700   5.355   4.546 -0.5743  0.5408 -1.1810
   43MOL0     O 5844   8.917   5.474   4.711  0.1283  0.0910  0.2190
   43MOL0     C 5845   8.919   5.816   4.608  0.6285  0.2570 -0.6383
   43MOL0     C 5846   8.993   5.933   4.589  0.2743  0.3636 -0.1642
   43MOL0     N 5847   9.345   5.943   4.057  0.7360  0.3954  0.3243
   43MOL0     N 5848   9.282   5.862   3.982 -0.1501 -0.0085 -0.4928
   43MOL0     C 5849   9.090   5.236   3.510  0.8384 -0.1139 -0.0931
   43MOL0     C 5850   9.220   5.268   3.536 -0.5454 -0.0709 -0.7814
   43MOL0     C 5851   9.640   5.199   3.635 -0.4944  0.3228  0.2796
   43MOL0     C 5852   9.698   5.284   3.727 -0.6548  0.5115 -1.0913
   43MOL0     C 5853   9.835   5.306   3.732 -0.0776  0.8608  0.0677
   43MOL0     C 5854   9.919   5.256   3.635  0.2631  0.5815 -0.0806
   43MOL0     O 5855  10.054   5.278   3.656 -0.3972 -0.6679 -0.3921
   43MOL0     C 5856  10.149   5.229   3.556 -0.1705  0.5993  0.3765
   43MOL0     C 5857  10.283   5.282   3.602 -0.1809 -0.1854  0.8576
   43MOL0     C 5858  10.384   5.270   3.487 -0.0007 -0.6161 -0.3841
   43MOL0     C 5859  10.528   5.282   3.537  0.4988  0.7625  0.0193
   43MOL0     C 5860  10.633   5.307   3.434  0.3672  0.4797  0.4286
   43MOL0     C 5861  10.709   5.291   3.335 -0.2195  0.3674  0.9042
   43MOL0     C 5862   9.866   5.174   3.540 -0.5842 -0.5625  0.2651
   43MOL0     C 5863   9.730   5.150   3.537 -0.0525  0.0047  0.6806
   43MOL0     C 5864   9.686   5.054   3.429 -0.3747 -0.2566  0.2919
   43MOL0     H 5865   9.263   5.101   3.829 -0.8341 -1.1462  0.9625
   43MOL0     H 5866   9.026   5.053   3.789 -0.9221 -0.9029 -1.2683
   43MOL0     H 5867   8.729   5.124   3.435 -0.7546  0.8121 -0.8159
   43MOL0     H 5868   8.838   5.261   3.420 -1.7770  1.2748 -0.4454
   43MOL0     H 5869   8.640   5.345   3.520 -1.0580  2.4226  1.7546
   43MOL0     H 5870   8.640   5.208   3.636 -2.0732  1.2686 -2.0312
   43MOL0     H 5871   8.714   5.384   3.763  2.2586 -1.2581  1.1171
   43MOL0     H 5872   8.863   5.309   3.721 -1.0594 -0.5265  1.2968
   43MOL0     H 5873   8.885   5.487   3.513 -1.1550  1.7124 -1.4968
   43MOL0     H 5874   8.743   5.554   3.584 -0.3078 -3.1333 -1.8753
   43MOL0     H 5875   9.005   5.517   3.745 -0.1959 -0.3854  0.9087
   43MOL0     H 5876   8.877   5.596   3.816  0.3155  1.2981 -0.3908
   43MOL0     H 5877   8.986   5.717   3.575 -0.8816 -0.1840  0.3521
   43MOL0     H 5878   8.881   5.785   3.701 -0.4056 -1.5167  3.2796
   43MOL0     H 5879   9.112   5.878   3.695 -2.5064  0.2285 -0.2681
   43MOL0     H 5880   9.171   5.713   3.755 -1.4495 -1.9750  0.5345
   43MOL0     H 5881   8.959   5.898   3.884 -2.2317 -2.0034 -1.7524
   43MOL0     H 5882   9.026   5.742   3.958  4.3734 -0.4378  1.0433
   43MOL0     H 5883   9.051   6.081   4.062  1.6134  2.0790  2.8230
   43MOL0     H 5884   9.271   6.268   4.143  2.0605  1.4231  3.2177
   43MOL0     H 5885   9.415   6.175   4.128 -0.0705  0.5524  0.2996
   43MOL0     H 5886   9.361   6.056   4.344  4.6820  2.4223  2.0873
   43MOL0     H 5887   9.365   6.220   4.376  2.2644 -1.1669  0.1896
   43MOL0     H 5888   9.122   6.256   4.333  2.1867  1.2441 -0.7724
   43MOL0     H 5889   9.106   6.075   4.338 -1.8337  0.2988  2.6697
   43MOL0     H 5890   9.202   6.253   4.550 -1.3871  1.1501 -1.6403
   43MOL0     H 5891   9.047   6.172   4.560  0.1488  0.2080  0.6172
   43MOL0     H 5892   9.304   5.795   4.643 -0.0879  1.2257 -0.9080
   43MOL0     H 5893   9.184   5.535   4.759  0.6301  2.2333  1.1996
   43MOL0     H 5894   9.303   5.557   4.620 -0.3752 -1.5737  0.4988
   43MOL0     H 5895   9.154   5.471   4.592 -1.1715 -0.0075  0.7233
   43MOL0     H 5896   8.511   5.600   4.705  2.8103  1.1782  0.7140
   43MOL0     H 5897   8.356   5.432   4.698 -0.0981  0.8230  0.5224
   43MOL0     H 5898   8.267   5.213   4.741  0.5618 -0.7599 -0.2070
   43MOL0     H 5899   8.196   5.293   4.596  0.7424 -0.3590 -1.9936
   43MOL0     H 5900   8.160   5.060   4.511 -0.6059 -1.3053  0.1566
   43MOL0     H 5901   8.186   5.004   4.683 -2.2660 -0.6646 -0.1151
   43MOL0     H 5902   7.970   5.171   4.561  1.0553  1.5748  0.4119
   43MOL0     H 5903   7.999   5.179   4.734  0.4140  0.0051 -0.8144
   43MOL0     H 5904   8.009   4.917   4.725  1.0686  2.1848  2.0784
   43MOL0     H 5905   7.923   4.934   4.572  2.8236 -3.0467  0.8751
   43MOL0     H 5906   7.835   5.046   4.846  1.7374  1.3377 -0.3071
   43MOL0     H 5907   7.750   5.074   4.690  1.9644  0.3362 -0.7226
   43MOL0     H 5908   7.812   4.797   4.817  0.9130  1.5371  1.4026
   43MOL0     H 5909   7.724   4.826   4.662  0.3059  3.9060 -0.6217
   43MOL0     H 5910   7.551   4.926   4.756  2.8277 -0.2724 -2.3401
   43MOL0     H 5911   7.633   4.902   4.925  4.6336 -0.7360 -1.0571
   43MOL0     H 5912   7.625   4.652   4.851  0.9420 -0.0308  0.9908
   43MOL0     H 5913   7.511   4.703   4.721  0.6301 -0.7486  0.6807
   43MOL0     H 5914   8.626   5.172   4.488 -0.5723 -0.3554  0.3674
   43MOL0     H 5915   8.801   5.333   4.513 -0.4999 -1.9185  0.3824
   43MOL0     H 5916   8.813   5.824   4.585 -0.0688  0.2359  2.1524
   43MOL0     H 5917   8.933   6.018   4.558  1.0761  0.0287 -2.9004
   43MOL0     H 5918   9.046   5.270   3.417 -0.2846 -5.3218 -1.7609
   43MOL0     H 5919   9.274   5.333   3.468 -1.1234  0.9744 -0.2789
   43MOL0     H 5920   9.635   5.328   3.804  1.7257  0.1767  1.1868
   43MOL0     H 5921   9.876   5.365   3.814 -0.4847 -1.2978  1.9430
   43MOL0     H 5922  10.142   5.120   3.547 -1.1770  0.4296  2.4605
   43MOL0     H 5923  10.129   5.261   3.454 -3.4608 -1.1818  0.3428
   43MOL0     H 5924  10.320   5.232   3.691  1.4250  2.6117  1.8788
   43MOL0     H 5925  10.259   5.386   3.628 -0.2801  0.8439 -2.7583
   43MOL0     H 5926  10.370   5.172   3.441 -1.7793 -0.5684 -0.0128
   43MOL0     H 5927  10.349   5.347   3.417  0.9581  0.0140 -0.1917
   43MOL0     H 5928  10.564   5.187   3.578  1.1076  0.8562 -0.2831
   43MOL0     H 5929  10.538   5.349   3.623  2.7680 -2.4583  2.5248
   43MOL0     H 5930  10.779   5.274   3.255 -0.9177  1.0875  0.1235
   43MOL0     H 5931   9.930   5.139   3.460 -0.0699  2.1589 -0.6292
   43MOL0     H 5932   9.585   5.069   3.390  0.1654  1.9055 -0.4344
   43MOL0     H 5933   9.755   5.059   3.345 -1.2263 -0.0938 -0.4119
   43MOL0     H 5934   9.699   4.953   3.469  3.2776  0.2312  0.6953
   44MOL0     O 5935   6.110   2.700  11.062  0.0386  0.8693  0.3560
   44MOL0     C 5936   6.006   2.695  11.130  0.4078  0.6831  0.4934
   44MOL0     O 5937   5.993   2.666  11.270  0.5674  0.3180  0.4745
   44MOL0     C 5938   6.108   2.655  11.346 -0.1466 -0.6229 -0.0559
   44MOL0     C 5939   6.232   2.603  11.308  0.3797  0.5288  0.2572
   44MOL0     C 5940   6.346   2.593  11.388  0.0003 -0.2282 -0.3871
   44MOL0     C 5941   6.344   2.638  11.520 -0.6670  0.1884 -0.0597
   44MOL0     O 5942   6.454   2.637  11.606 -0.0957  0.1893  0.2031
   44MOL0     C 5943   6.552   2.526  11.590  0.2337  1.7135 -0.3785
   44MOL0     C 5944   6.615   2.508  11.735 -0.4410 -0.0359  0.2154
   44MOL0     C 5945   6.711   2.387  11.728  0.1357  0.1419  0.6332
   44MOL0     C 5946   6.795   2.361  11.860  0.5596 -0.7924  0.8221
   44MOL0     C 5947   6.707   2.338  11.981 -0.3774 -0.3994 -0.4880
   44MOL0     C 5948   6.694   2.467  12.069 -0.2455  0.1370 -0.1924
   44MOL0     C 5949   6.600   2.459  12.188 -0.3749  1.0589  0.2132
   44MOL0     C 5950   6.664   2.399  12.320  0.4023  0.3863 -0.2787
   44MOL0     N 5951   6.681   2.251  12.319 -0.1859  0.1713 -0.6904
   44MOL0     C 5952   6.585   2.151  12.322  0.6840 -0.4726  0.3012
   44MOL0     C 5953   6.650   2.028  12.293 -0.2409  0.6984 -0.6545
   44MOL0     C 5954   6.606   1.884  12.288 -0.3233  0.3288 -1.0477
   44MOL0     C 5955   6.665   1.792  12.403  0.1179  0.0762  0.5977
   44MOL0     C 5956   6.642   1.637  12.360  0.4041  0.6447 -0.6288
   44MOL0     C 5957   6.632   1.542  12.482 -0.5029 -0.6424 -0.1173
   44MOL0     O 5958   6.754   1.569  12.551 -0.5310  0.6965  0.4637
   44MOL0     C 5959   6.783   1.491  12.669  0.3540 -0.0588  0.0671
   44MOL0     C 5960   6.679   1.414  12.728 -0.2411 -0.8026 -0.2216
   44MOL0     C 5961   6.710   1.324  12.828 -0.4583  0.4891 -0.3343
   44MOL0     C 5962   6.597   1.232  12.871  0.5039  0.0379  0.0454
   44MOL0     C 5963   6.839   1.322  12.886  0.6044  0.2147 -0.0946
   44MOL0     C 5964   6.883   1.226  12.995  0.4286  0.9092 -0.3531
   44MOL0     O 5965   6.991   1.257  13.065 -0.0019 -0.4164 -0.2406
   44MOL0     C 5966   7.063   1.161  13.137  0.2140  0.7757 -0.5861
   44MOL0     C 5967   7.132   1.213  13.250  0.2754 -0.7124  0.0503
   44MOL0     C 5968   7.224   1.134  13.313 -0.8531 -0.3847 -0.7780
   44MOL0     C 5969   7.241   0.996  13.288  0.4010 -0.2077  0.3121
   44MOL0     O 5970   7.325   0.924  13.373  0.4745 -0.4017  0.1207
   44MOL0     C 5971   7.342   0.787  13.337 -0.7708  0.2293 -0.1383
   44MOL0     C 5972   7.445   0.712  13.426  0.3020  0.0247  0.1415
   44MOL0     C 5973   7.586   0.749  13.392  0.0374  1.0272  0.1903
   44MOL0     C 5974   7.692   0.675  13.477  0.1487  0.4104  0.3465
   44MOL0     C 5975   7.836   0.725  13.440  0.9135  0.2424 -1.0347
   44MOL0     C 5976   7.931   0.662  13.545 -0.2381 -0.2479  1.1204
   44MOL0     C 5977   8.073   0.713  13.531  0.2760  0.5360  0.9081
   44MOL0     C 5978   8.163   0.646  13.642  0.2105 -0.2597  0.0119
   44MOL0    Cl 5979   8.165   0.468  13.652  0.4914 -0.4485  0.4590
   44MOL0     C 5980   7.154   0.940  13.186  0.5311 -0.5544 -1.1318
   44MOL0     C 5981   7.066   1.019  13.119 -0.2047 -0.5856  0.2982
   44MOL0     O 5982   6.810   1.127  13.024  0.1619  0.1593 -0.1322
   44MOL0     C 5983   6.936   1.405  12.834 -0.4377  0.0735 -0.0128
   44MOL0     C 5984   6.909   1.483  12.724  0.0496 -0.6305 -0.2757
   44MOL0     N 5985   6.783   2.062  12.295  0.0334 -0.0756  0.0754
   44MOL0     N 5986   6.799   2.189  12.308 -0.3919  0.6454  0.2627
   44MOL0     C 5987   6.218   2.687  11.560  0.5061  0.7034 -0.3068
   44MOL0     C 5988   6.106   2.700  11.478  0.2263  0.9909 -1.1280
   44MOL0     C 5989   5.884   2.722  11.051  0.2292 -0.3879  0.3567
   44MOL0     C 5990   5.768   2.754  11.126  0.3319  0.3041 -0.7318
   44MOL0     C 5991   5.647   2.801  11.077  0.4368  0.4978  0.3539
   44MOL0     C 5992   5.633   2.807  10.933  0.4904 -0.8589  0.3017
   44MOL0     O 5993   5.515   2.857  10.867  0.5669  1.0323 -0.5771
   44MOL0     C 5994   5.403   2.874  10.959  0.0626 -0.7854  0.1388
   44MOL0     C 5995   5.275   2.888  10.873 -0.2911  0.1146  0.9838
   44MOL0     C 5996   5.153   2.884  10.962 -0.3485  0.2039 -0.2968
   44MOL0     C 5997   5.016   2.910  10.891  0.1556  0.9420 -0.1148
   44MOL0     C 5998   4.956   2.800  10.810  0.9005 -0.1092  0.5135
   44MOL0     C 5999   4.900   2.722  10.736  0.5170 -1.1804  0.1316
   44MOL0     C 6000   5.744   2.766  10.857 -0.2146 -0.3329 -0.1483
   44MOL0     C 6001   5.866   2.721  10.910 -0.4448 -0.7525 -0.3945
   44MOL0     C 6002   5.973   2.682  10.809 -0.2243  0.3301  0.8615
   44MOL0     H 6003   6.253   2.563  11.210  1.6870 -0.1480  0.7807
   44MOL0     H 6004   6.435   2.548  11.347  0.5532  0.8260 -0.3715
   44MOL0     H 6005   6.625   2.545  11.511  1.6931 -0.5103  0.3539
   44MOL0     H 6006   6.489   2.440  11.569 -1.8094  3.1272 -0.3590
   44MOL0     H 6007   6.673   2.598  11.758 -0.4835  0.5705 -1.8938
   44MOL0     H 6008   6.536   2.488  11.808  0.7033  0.8874  1.7787
   44MOL0     H 6009   6.650   2.297  11.711  1.5969 -0.5435 -1.4312
   44MOL0     H 6010   6.770   2.401  11.637 -1.4258  1.4300 -0.2299
   44MOL0     H 6011   6.857   2.272  11.841  2.7318  0.3628  2.0963
   44MOL0     H 6012   6.861   2.444  11.886 -1.1604  0.2704  2.0093
   44MOL0     H 6013   6.758   2.261  12.042  0.7310 -1.7266 -2.9547
   44MOL0     H 6014   6.609   2.297  11.956 -0.6719 -1.2560  1.8102
   44MOL0     H 6015   6.792   2.497  12.107 -0.7409 -1.3498  2.4934
   44MOL0     H 6016   6.657   2.548  12.006  1.6109 -0.8137 -2.6776
   44MOL0     H 6017   6.507   2.403  12.172  0.3336  0.0147 -0.3513
   44MOL0     H 6018   6.551   2.554  12.212 -2.4135 -0.0305  0.6621
   44MOL0     H 6019   6.761   2.443  12.347 -0.2984  3.1920 -1.8766
   44MOL0     H 6020   6.600   2.421  12.406 -1.0673 -1.9183 -0.7054
   44MOL0     H 6021   6.478   2.151  12.341  0.6005 -2.6614  0.0139
   44MOL0     H 6022   6.627   1.839  12.191  0.5077  0.7471 -1.0706
   44MOL0     H 6023   6.498   1.900  12.299 -0.0423  1.8352 -0.1393
   44MOL0     H 6024   6.773   1.808  12.400  0.0454  0.4915 -0.3122
   44MOL0     H 6025   6.629   1.814  12.504  0.2258  3.7155 -0.0099
   44MOL0     H 6026   6.548   1.608  12.313 -0.0070 -0.0764  0.6058
   44MOL0     H 6027   6.717   1.603  12.288  0.4633  2.8421 -1.7108
   44MOL0     H 6028   6.560   1.591  12.547  0.2258  0.4617 -0.1106
   44MOL0     H 6029   6.610   1.438  12.457 -0.6337 -0.3683 -1.1948
   44MOL0     H 6030   6.581   1.418  12.681 -0.0616  1.5543 -0.5531
   44MOL0     H 6031   6.561   1.256  12.971  1.6552  2.4331 -0.0467
   44MOL0     H 6032   6.630   1.130  12.852  0.9033  0.1646  0.0610
   44MOL0     H 6033   6.511   1.242  12.804  2.2747  2.1845 -2.0914
   44MOL0     H 6034   7.125   1.320  13.267 -0.4687 -0.8512  0.6409
   44MOL0     H 6035   7.271   1.178  13.400 -0.7042 -2.5118  0.2953
   44MOL0     H 6036   7.242   0.746  13.350 -0.3464 -0.6755  0.3662
   44MOL0     H 6037   7.374   0.775  13.233  0.6375 -2.6013  0.5360
   44MOL0     H 6038   7.426   0.745  13.529  1.0547  1.1094 -0.0519
   44MOL0     H 6039   7.425   0.605  13.417 -1.6625  0.4582 -1.1643
   44MOL0     H 6040   7.602   0.858  13.391 -0.6213  1.1321  0.5055
   44MOL0     H 6041   7.596   0.707  13.291  2.3170  0.0519  0.7749
   44MOL0     H 6042   7.689   0.566  13.480  0.4405  0.4119  0.7906
   44MOL0     H 6043   7.670   0.705  13.580 -0.1550  0.8412  0.1568
   44MOL0     H 6044   7.858   0.676  13.345  1.7889 -2.1078  0.2711
   44MOL0     H 6045   7.848   0.833  13.430  0.4004  0.4515  0.3421
   44MOL0     H 6046   7.933   0.553  13.541  2.0616 -0.2567 -3.0464
   44MOL0     H 6047   7.893   0.687  13.645  0.6266 -1.5379  1.8026
   44MOL0     H 6048   8.076   0.822  13.526  4.8056  0.5690 -1.2751
   44MOL0     H 6049   8.114   0.673  13.437  0.5135  1.2778  0.6869
   44MOL0     H 6050   8.130   0.680  13.741 -2.1797 -0.8559 -0.5051
   44MOL0     H 6051   8.263   0.685  13.623  0.2732 -1.3560 -2.1713
   44MOL0     H 6052   7.161   0.838  13.150 -0.1091 -1.0870  0.1591
   44MOL0     H 6053   7.005   0.991  13.035 -0.7744  2.0663 -0.2577
   44MOL0     H 6054   7.033   1.400  12.883 -2.1672  0.9963  3.8849
   44MOL0     H 6055   6.988   1.549  12.691  1.5561 -2.5511 -0.7662
   44MOL0     H 6056   6.213   2.726  11.662  1.0469 -0.1062  0.0369
   44MOL0     H 6057   6.019   2.724  11.538  3.1660 -1.8289  5.2652
   44MOL0     H 6058   5.775   2.757  11.235 -0.6251  0.7652 -0.6704
   44MOL0     H 6059   5.575   2.833  11.152 -0.1592 -1.2168  0.5597
   44MOL0     H 6060   5.399   2.797  11.037 -0.8265 -1.2357 -0.3415
   44MOL0     H 6061   5.419   2.965  11.018 -0.7519  0.2734 -1.2262
   44MOL0     H 6062   5.266   2.799  10.810  0.6911 -0.5421  1.7396
   44MOL0     H 6063   5.273   2.980  10.814  0.4331 -1.6220 -1.9436
   44MOL0     H 6064   5.157   2.788  11.015 -0.3718 -0.3542 -1.2881
   44MOL0     H 6065   5.164   2.966  11.033 -1.0308  1.9637 -2.1389
   44MOL0     H 6066   5.026   2.995  10.824 -0.1579  0.1109 -1.2477
   44MOL0     H 6067   4.942   2.927  10.971 -3.0085  0.7341 -2.7731
   44MOL0     H 6068   4.849   2.658  10.667  2.0482  0.5833 -2.8753
   44MOL0     H 6069   5.725   2.766  10.750  0.4834 -1.8999 -0.2990
   44MOL0     H 6070   6.015   2.583  10.831  0.0724  0.7569  2.2724
   44MOL0     H 6071   5.934   2.690  10.707  1.7018  1.0439  0.1347
   44MOL0     H 6072   6.054   2.754  10.820 -1.2751  2.1322 -2.0687
   45MOL0     O 6073   4.290   9.218   4.864  0.4159  0.0058  0.8859
   45MOL0     C 6074   4.310   9.137   4.780  0.6869  0.5845  0.8772
   45MOL0     O 6075   4.229   9.111   4.673 -0.3571 -0.6090 -0.8808
   45MOL0     C 6076   4.108   9.177   4.668  0.4684 -0.7695 -1.1246
   45MOL0     C 6077   4.106   9.312   4.618  0.2151 -0.8835 -0.4211
   45MOL0     C 6078   3.979   9.369   4.588 -0.6696 -0.3891  0.3678
   45MOL0     C 6079   3.862   9.305   4.628  0.0411 -0.1758 -0.4181
   45MOL0     O 6080   3.740   9.353   4.611  0.1127 -0.2358  0.2248
   45MOL0     C 6081   3.684   9.419   4.728 -0.2715  0.8330 -0.6129
   45MOL0     C 6082   3.593   9.531   4.682 -0.7190 -0.2035  0.5426
   45MOL0     C 6083   3.665   9.650   4.625  0.2446 -0.3871  1.3043
   45MOL0     C 6084   3.751   9.723   4.733 -0.1579  0.0728 -0.3303
   45MOL0     C 6085   3.785   9.862   4.700  0.5632 -0.4574  0.5411
   45MOL0     C 6086   3.870   9.889   4.574 -0.0874  0.0198 -0.7200
   45MOL0     C 6087   3.942  10.027   4.581 -0.3033 -0.2516 -0.9054
   45MOL0     C 6088   4.026  10.065   4.456  0.0242  1.1750 -0.0731
   45MOL0     N 6089   4.078  10.196   4.477 -0.2333  0.8746 -0.6208
   45MOL0     C 6090   4.190  10.221   4.545 -0.2053  0.1398 -0.1930
   45MOL0     C 6091   4.195  10.358   4.538 -0.4103  0.1803  0.3222
   45MOL0     C 6092   4.290  10.453   4.599  0.4750  0.7745  0.0867
   45MOL0     C 6093   4.411  10.487   4.504 -0.4886 -0.1995 -0.4547
   45MOL0     C 6094   4.515  10.383   4.508 -0.1137 -0.0560  0.5354
   45MOL0     C 6095   4.636  10.417   4.407 -0.3441  0.3553 -0.4257
   45MOL0     O 6096   4.683  10.547   4.442 -0.0698 -0.5430 -0.4221
   45MOL0     C 6097   4.768  10.616   4.354  0.4655 -0.5032  0.7013
   45MOL0     C 6098   4.872  10.562   4.284  0.1051 -0.0368  0.5712
   45MOL0     C 6099   4.959  10.636   4.205 -0.0121  0.8791 -0.0856
   45MOL0     C 6100   5.061  10.551   4.131 -0.9562 -0.2506  0.5630
   45MOL0     C 6101   4.958  10.778   4.201 -0.0990 -0.1389 -0.2360
   45MOL0     C 6102   5.052  10.866   4.126 -0.0828  0.9178  0.6116
   45MOL0     O 6103   5.180  10.821   4.123 -0.2566  0.3038 -0.1892
   45MOL0     C 6104   5.287  10.881   4.069  0.6560 -0.5318  0.3159
   45MOL0     C 6105   5.292  10.973   3.969  0.0745  0.6008 -0.5642
   45MOL0     C 6106   5.405  11.006   3.906  0.0261 -0.7187 -0.2561
   45MOL0     C 6107   5.527  10.953   3.938 -0.0272 -0.3604  1.0447
   45MOL0     O 6108   5.627  10.999   3.864 -1.6555  0.6331 -0.2735
   45MOL0     C 6109   5.751  10.926   3.877 -0.1418  0.1591 -0.5546
   45MOL0     C 6110   5.851  10.980   3.787 -0.0277 -0.0035  0.4126
   45MOL0     C 6111   5.992  10.919   3.796  0.4387  0.0411 -0.2195
   45MOL0     C 6112   6.102  11.018   3.756 -0.5509 -0.6492 -0.2146
   45MOL0     C 6113   6.241  10.960   3.754  0.2063  0.7483 -0.3304
   45MOL0     C 6114   6.347  11.066   3.709  0.5384  0.5190  0.1732
   45MOL0     C 6115   6.490  10.991   3.696 -0.8227 -0.7092  0.2906
   45MOL0     C 6116   6.603  11.098   3.710  0.3799  0.0532  0.4229
   45MOL0    Cl 6117   6.777  11.021   3.714 -0.1287  0.1136 -0.1214
   45MOL0     C 6118   5.529  10.859   4.047  0.3172 -0.5721  0.0735
   45MOL0     C 6119   5.407  10.828   4.111 -0.1203 -0.0266 -0.0292
   45MOL0     O 6120   5.018  10.985   4.100  0.1697  0.4808  0.0710
   45MOL0     C 6121   4.847  10.830   4.272 -0.4520  0.1938  0.9862
   45MOL0     C 6122   4.753  10.753   4.332 -0.0215  0.3539 -0.3579
   45MOL0     N 6123   4.091  10.397   4.462  0.9100 -0.1647  0.5490
   45MOL0     N 6124   4.022  10.301   4.410 -0.1123  0.6216 -0.0976
   45MOL0     C 6125   3.866   9.178   4.689  0.2189 -0.0412  0.0936
   45MOL0     C 6126   3.984   9.117   4.710  0.0612  0.5646 -0.1108
   45MOL0     C 6127   4.442   9.067   4.800 -0.4181 -0.5791  0.0221
   45MOL0     C 6128   4.518   9.096   4.917  1.1693 -0.4198 -0.4343
   45MOL0     C 6129   4.640   9.045   4.942  0.5967 -0.4037  0.3851
   45MOL0     C 6130   4.697   8.955   4.840 -0.3566  0.6560 -0.0150
   45MOL0     O 6131   4.813   8.880   4.859 -0.2993 -0.1102  0.3473
   45MOL0     C 6132   4.912   8.934   4.953 -0.2251  0.5063  0.1803
   45MOL0     C 6133   5.004   8.828   5.011  0.1838  0.1151  0.1157
   45MOL0     C 6134   5.098   8.774   4.906  0.2250 -0.5829 -0.2943
   45MOL0     C 6135   5.201   8.879   4.851 -0.1363  0.4637 -0.1959
   45MOL0     C 6136   5.321   8.817   4.797  0.4075 -0.3973  0.3444
   45MOL0     C 6137   5.408   8.751   4.753  0.3650 -0.0782  0.2752
   45MOL0     C 6138   4.620   8.918   4.730 -0.4213  0.3125 -0.0964
   45MOL0     C 6139   4.495   8.973   4.707  0.3438  0.8486  0.1131
   45MOL0     C 6140   4.434   8.925   4.576  0.2480  0.0753  1.0042
   45MOL0     H 6141   4.196   9.364   4.588 -1.4499  1.1963 -2.1754
   45MOL0     H 6142   3.993   9.470   4.551  2.5777 -0.6542  0.6510
   45MOL0     H 6143   3.760   9.452   4.800  0.2846 -0.8520 -0.3686
   45MOL0     H 6144   3.632   9.337   4.778  2.1880  0.5540  1.7251
   45MOL0     H 6145   3.535   9.490   4.599 -1.4182 -2.3071  1.9921
   45MOL0     H 6146   3.523   9.563   4.760 -2.0216 -1.4105 -0.0716
   45MOL0     H 6147   3.748   9.627   4.558 -1.2520 -0.2039 -0.6934
   45MOL0     H 6148   3.601   9.713   4.563 -1.4019 -1.7880  1.5023
   45MOL0     H 6149   3.676   9.730   4.812 -0.9243  1.5290 -1.1269
   45MOL0     H 6150   3.831   9.660   4.774 -0.2673  0.1685  0.0315
   45MOL0     H 6151   3.841   9.889   4.790  2.7221 -1.2203 -0.5025
   45MOL0     H 6152   3.698   9.927   4.685  1.6711  0.6695 -1.4157
   45MOL0     H 6153   3.938   9.804   4.566  0.8741  0.1368  3.6638
   45MOL0     H 6154   3.801   9.889   4.489 -1.2860  0.3179  0.2268
   45MOL0     H 6155   4.002  10.041   4.671  1.6378 -1.1066 -2.0035
   45MOL0     H 6156   3.856  10.093   4.595  0.3185  0.7128 -1.5924
   45MOL0     H 6157   4.112   9.998   4.444 -0.2930  0.6001  0.7827
   45MOL0     H 6158   3.964  10.044   4.368 -1.3322  0.7724  0.9537
   45MOL0     H 6159   4.263  10.153   4.589 -0.7481 -0.3599 -0.0616
   45MOL0     H 6160   4.331  10.409   4.691  1.9753  0.6690 -0.5994
   45MOL0     H 6161   4.225  10.540   4.612 -1.3545 -0.7753  2.0118
   45MOL0     H 6162   4.366  10.487   4.404 -0.2972  1.5756 -0.5801
   45MOL0     H 6163   4.452  10.587   4.521 -3.3721  1.1258 -0.6615
   45MOL0     H 6164   4.557  10.360   4.606  1.3069  1.8400  0.4481
   45MOL0     H 6165   4.473  10.291   4.468  0.9926  0.0756 -1.0543
   45MOL0     H 6166   4.718  10.345   4.410  1.6612  2.4358 -1.5585
   45MOL0     H 6167   4.604  10.410   4.303 -0.5131  2.4239 -0.5531
   45MOL0     H 6168   4.899  10.458   4.274  1.3294  0.1898  1.3402
   45MOL0     H 6169   5.047  10.443   4.128  4.4222 -1.2149 -0.7812
   45MOL0     H 6170   5.158  10.562   4.181 -0.6088 -1.3082  0.1465
   45MOL0     H 6171   5.075  10.574   4.025  0.4671 -2.0588  0.3174
   45MOL0     H 6172   5.202  10.995   3.912 -0.7800  0.5115  0.7003
   45MOL0     H 6173   5.403  11.070   3.819  1.4595 -2.0843 -1.3709
   45MOL0     H 6174   5.789  10.929   3.980 -3.0446 -3.0382  0.8196
   45MOL0     H 6175   5.735  10.819   3.862 -2.7095  0.7548 -2.7974
   45MOL0     H 6176   5.819  10.952   3.686  1.4625  0.3438 -0.1824
   45MOL0     H 6177   5.843  11.089   3.798 -0.0738  0.0806 -0.4196
   45MOL0     H 6178   5.984  10.834   3.729 -1.1488 -0.0319  0.0232
   45MOL0     H 6179   6.020  10.895   3.899 -1.7368  2.3388  1.0039
   45MOL0     H 6180   6.092  11.106   3.821  1.1747 -0.7913  0.2887
   45MOL0     H 6181   6.082  11.051   3.654  0.5405 -0.5981 -0.4208
   45MOL0     H 6182   6.261  10.918   3.853 -1.9870 -0.3164 -0.2761
   45MOL0     H 6183   6.246  10.872   3.689  0.0651  1.9142 -1.9931
   45MOL0     H 6184   6.346  11.154   3.774  0.9045 -0.4883  1.5818
   45MOL0     H 6185   6.313  11.106   3.613 -0.2204 -2.3770 -0.8583
   45MOL0     H 6186   6.505  10.941   3.601  2.8121  1.0262 -0.2097
   45MOL0     H 6187   6.507  10.919   3.777  2.5373 -2.0160 -1.4153
   45MOL0     H 6188   6.580  11.145   3.806  1.9563  1.2535  0.2508
   45MOL0     H 6189   6.599  11.181   3.638 -1.3391  0.5581  1.0450
   45MOL0     H 6190   5.625  10.815   4.071  2.0784  2.4558 -0.9110
   45MOL0     H 6191   5.407  10.759   4.194  1.6731 -1.0121 -0.8098
   45MOL0     H 6192   4.841  10.938   4.272 -1.1963  0.1630  2.1699
   45MOL0     H 6193   4.675  10.800   4.391 -2.1745 -2.6326 -0.6074
   45MOL0     H 6194   3.771   9.131   4.713  0.0725  0.1997 -0.0027
   45MOL0     H 6195   3.981   9.012   4.739 -2.1430  1.1201  2.0144
   45MOL0     H 6196   4.477   9.165   4.990  2.0672 -0.6083  0.2729
   45MOL0     H 6197   4.688   9.070   5.036  1.5460 -0.6074 -0.0300
   45MOL0     H 6198   4.968   9.019   4.912 -1.2175 -0.3246 -3.2610
   45MOL0     H 6199   4.860   8.968   5.043  0.0902 -2.0526  1.4107
   45MOL0     H 6200   4.946   8.746   5.056 -2.4724  1.7037 -0.1638
   45MOL0     H 6201   5.063   8.875   5.090 -1.8412  0.1678  1.6848
   45MOL0     H 6202   5.150   8.687   4.945 -0.4874 -0.8111  0.1771
   45MOL0     H 6203   5.042   8.739   4.818 -1.8960  1.3789  0.1679
   45MOL0     H 6204   5.231   8.938   4.938 -0.3566 -1.4591  1.2505
   45MOL0     H 6205   5.153   8.944   4.777 -1.3530 -0.5701 -0.3414
   45MOL0     H 6206   5.480   8.694   4.699 -0.1241  0.6801 -1.2376
   45MOL0     H 6207   4.660   8.843   4.662 -2.2491 -0.2159 -0.6301
   45MOL0     H 6208   4.335   8.883   4.594  0.2547 -1.6037 -2.2424
   45MOL0     H 6209   4.430   9.006   4.502  2.7952 -0.7127 -0.1007
   45MOL0     H 6210   4.494   8.844   4.535  0.4629  1.1089 -0.8233
   46MOL0     O 6211   6.476   7.111   7.593  0.2948 -0.1689  0.7276
   46MOL0     C 6212   6.569   7.121   7.511 -0.6293  0.3380 -0.1671
   46MOL0     O 6213   6.569   7.216   7.403 -0.2829 -0.2792  0.4603
   46MOL0     C 6214   6.443   7.244   7.354 -1.4846 -0.0562 -1.1477
   46MOL0     C 6215   6.390   7.194   7.238 -0.4246  1.0441 -0.4288
   46MOL0     C 6216   6.273   7.247   7.179 -0.0807 -0.0047 -0.0567
   46MOL0     C 6217   6.190   7.329   7.259 -0.0084 -0.6155 -0.0262
   46MOL0     O 6218   6.063   7.361   7.230 -0.4020 -0.3980 -0.1012
   46MOL0     C 6219   6.000   7.281   7.136  0.2641  0.2264 -0.2383
   46MOL0     C 6220   5.847   7.298   7.152  0.2038  0.0935  0.7108
   46MOL0     C 6221   5.765   7.203   7.066 -0.0323  1.2524 -0.6493
   46MOL0     C 6222   5.767   7.049   7.103 -0.1326 -0.2041 -0.0458
   46MOL0     C 6223   5.640   6.971   7.049 -0.2641 -0.6874 -0.1699
   46MOL0     C 6224   5.606   6.971   6.903  0.1443  0.3610 -0.3279
   46MOL0     C 6225   5.728   6.939   6.824 -0.3041  0.5988  0.2572
   46MOL0     C 6226   5.690   6.914   6.676  0.4621  0.0550  0.0994
   46MOL0     N 6227   5.672   7.036   6.608  1.0411  0.0397  0.5993
   46MOL0     C 6228   5.763   7.127   6.578  0.2863 -0.3460  0.4571
   46MOL0     C 6229   5.713   7.200   6.477  0.1268  0.3634 -0.4034
   46MOL0     C 6230   5.781   7.306   6.398  0.6047  0.5122  0.3515
   46MOL0     C 6231   5.917   7.260   6.347  0.1047 -0.2794 -0.3609
   46MOL0     C 6232   5.985   7.368   6.254 -0.1270  0.4899  0.1071
   46MOL0     C 6233   6.141   7.362   6.258  0.0854  0.9129  0.4505
   46MOL0     O 6234   6.192   7.244   6.187 -0.5328 -0.1771 -0.2332
   46MOL0     C 6235   6.299   7.192   6.253  0.1177  0.0278 -0.1712
   46MOL0     C 6236   6.431   7.235   6.225 -0.1037  0.4879  0.6097
   46MOL0     C 6237   6.553   7.177   6.279 -0.0273 -1.3392 -0.0827
   46MOL0     C 6238   6.683   7.243   6.243 -0.1981  0.5004 -0.6273
   46MOL0     C 6239   6.532   7.080   6.387 -1.0834  1.1291  0.4882
   46MOL0     C 6240   6.652   7.022   6.472 -0.1812 -0.1594 -0.1484
   46MOL0     O 6241   6.777   7.037   6.420 -0.5006  0.2343  0.4110
   46MOL0     C 6242   6.895   7.020   6.488 -0.1352  1.3868  0.0207
   46MOL0     C 6243   6.994   7.123   6.487  0.8906  0.3577  0.0281
   46MOL0     C 6244   7.106   7.118   6.570 -0.5587 -0.1792  0.7393
   46MOL0     C 6245   7.145   7.004   6.633 -0.7585  0.4752  0.5895
   46MOL0     O 6246   7.268   7.009   6.696 -0.0322 -0.2094  0.3272
   46MOL0     C 6247   7.328   6.879   6.730 -0.1851  0.2706  0.0169
   46MOL0     C 6248   7.463   6.898   6.793 -1.4259  0.2117 -0.2413
   46MOL0     C 6249   7.451   6.976   6.923 -0.8352 -0.4306  0.6906
   46MOL0     C 6250   7.590   7.024   6.977  0.1988  0.1131  1.3292
   46MOL0     C 6251   7.585   7.105   7.108  0.7648 -0.2773 -0.2203
   46MOL0     C 6252   7.715   7.143   7.174 -0.6189 -0.6592 -0.4104
   46MOL0     C 6253   7.811   7.238   7.100  0.0287 -0.4163  0.2422
   46MOL0     C 6254   7.735   7.359   7.051  0.7281 -0.0005  0.3573
   46MOL0    Cl 6255   7.845   7.478   6.985  0.2144 -0.3799 -0.1197
   46MOL0     C 6256   7.053   6.895   6.635 -0.1132  0.2757 -0.3832
   46MOL0     C 6257   6.938   6.901   6.560  1.4311 -0.3316 -0.3776
   46MOL0     O 6258   6.626   6.944   6.569 -0.2895 -0.7648  0.2556
   46MOL0     C 6259   6.398   7.051   6.421  0.5786 -0.6358  0.9449
   46MOL0     C 6260   6.288   7.104   6.356  0.3678 -0.1896  0.6733
   46MOL0     N 6261   5.581   7.157   6.466 -0.3354 -1.0274  0.3133
   46MOL0     N 6262   5.554   7.060   6.542 -0.3536 -0.2579  0.7837
   46MOL0     C 6263   6.230   7.373   7.380 -0.2442 -0.0730 -0.2576
   46MOL0     C 6264   6.359   7.329   7.424 -0.4198  0.1590 -0.1815
   46MOL0     C 6265   6.691   7.043   7.533 -0.0331 -0.0672 -0.4473
   46MOL0     C 6266   6.811   7.095   7.488 -0.4032  0.7482 -0.4053
   46MOL0     C 6267   6.931   7.028   7.519  0.7494 -0.0155  0.3083
   46MOL0     C 6268   6.937   6.904   7.575  0.6962 -0.6000 -0.0749
   46MOL0     O 6269   7.057   6.845   7.592 -0.2809  0.2473 -0.4288
   46MOL0     C 6270   7.068   6.707   7.612 -0.4191  0.0430 -0.1478
   46MOL0     C 6271   7.046   6.630   7.482 -0.3718 -0.1489 -0.1075
   46MOL0     C 6272   7.037   6.476   7.488 -0.0116  0.3230  0.9668
   46MOL0     C 6273   6.909   6.427   7.565  0.2117 -0.4492 -0.1525
   46MOL0     C 6274   6.873   6.287   7.544  0.7181 -0.9283  0.6603
   46MOL0     C 6275   6.825   6.183   7.511 -0.0420  0.0456  0.1887
   46MOL0     C 6276   6.813   6.842   7.606 -0.1850  0.1465 -0.0584
   46MOL0     C 6277   6.688   6.909   7.587  0.9075 -0.3188  0.8537
   46MOL0     C 6278   6.562   6.841   7.629  0.2296 -0.5837  0.5789
   46MOL0     H 6279   6.451   7.117   7.193  1.3283  1.4024  1.2231
   46MOL0     H 6280   6.238   7.205   7.086  0.3107  0.9698 -0.6599
   46MOL0     H 6281   6.014   7.173   7.142  1.3635  0.4026  0.6239
   46MOL0     H 6282   6.028   7.306   7.033  1.9204 -1.8317 -0.3536
   46MOL0     H 6283   5.815   7.291   7.256 -0.2876 -0.6274  0.5225
   46MOL0     H 6284   5.826   7.404   7.133  2.5051  1.1964  3.5195
   46MOL0     H 6285   5.662   7.228   7.093 -1.3648 -3.0988 -1.0022
   46MOL0     H 6286   5.767   7.218   6.958 -2.5039 -1.7645 -1.2758
   46MOL0     H 6287   5.859   7.009   7.060 -0.5287  0.0647 -1.1808
   46MOL0     H 6288   5.773   7.049   7.212  3.4635 -0.0425 -0.1102
   46MOL0     H 6289   5.561   7.020   7.106  2.1630  2.4601  0.7687
   46MOL0     H 6290   5.641   6.866   7.081 -1.7208 -1.2098 -1.6563
   46MOL0     H 6291   5.532   6.893   6.883 -1.2167  1.7663 -1.0162
   46MOL0     H 6292   5.559   7.065   6.873 -1.1285  0.2560  1.2229
   46MOL0     H 6293   5.774   6.847   6.862  2.1296  2.0662  1.0955
   46MOL0     H 6294   5.806   7.016   6.826 -0.8820  1.3323 -2.0273
   46MOL0     H 6295   5.773   6.870   6.620  0.0682  1.9024 -2.0756
   46MOL0     H 6296   5.602   6.850   6.670 -0.7631  1.4310  2.1136
   46MOL0     H 6297   5.866   7.143   6.610  0.0110  0.8050  0.7735
   46MOL0     H 6298   5.789   7.396   6.459  1.2518  0.9050 -0.3033
   46MOL0     H 6299   5.715   7.327   6.314 -0.1041  1.1277  1.0439
   46MOL0     H 6300   5.983   7.243   6.433 -1.3484  0.3970  0.9442
   46MOL0     H 6301   5.911   7.166   6.293  3.4834 -0.9173  0.1141
   46MOL0     H 6302   5.945   7.360   6.153 -2.0271  0.2415  0.8340
   46MOL0     H 6303   5.961   7.465   6.297 -2.2355 -0.7777  2.0583
   46MOL0     H 6304   6.182   7.455   6.219 -0.5333  0.5611 -1.1134
   46MOL0     H 6305   6.165   7.351   6.364  2.2034 -0.3412 -0.0855
   46MOL0     H 6306   6.438   7.298   6.138 -0.2838 -1.0631 -0.5662
   46MOL0     H 6307   6.674   7.311   6.158 -1.1719  0.3675 -0.6434
   46MOL0     H 6308   6.750   7.162   6.212 -2.9586 -1.8584 -0.9511
   46MOL0     H 6309   6.721   7.292   6.333 -1.4188  0.8430 -0.2811
   46MOL0     H 6310   6.971   7.210   6.427 -0.0956 -1.4156 -2.3156
   46MOL0     H 6311   7.177   7.199   6.570 -0.9452  0.1709 -0.0908
   46MOL0     H 6312   7.254   6.831   6.794  0.2566 -1.0842 -0.4613
   46MOL0     H 6313   7.340   6.825   6.636  1.3490  0.5565  0.0220
   46MOL0     H 6314   7.506   6.799   6.813 -0.8643  1.0103  2.8769
   46MOL0     H 6315   7.530   6.949   6.723 -0.6050 -0.5896 -0.0671
   46MOL0     H 6316   7.388   6.925   6.996 -0.0994 -2.3801  0.0161
   46MOL0     H 6317   7.397   7.069   6.901 -2.9842 -1.7961 -0.0870
   46MOL0     H 6318   7.635   7.084   6.897 -1.6059  0.1182  0.2464
   46MOL0     H 6319   7.657   6.939   6.991  1.0483  0.6231  0.4867
   46MOL0     H 6320   7.515   7.189   7.099 -1.6118 -2.0183  0.8411
   46MOL0     H 6321   7.544   7.034   7.182 -2.3374  1.1288 -0.4226
   46MOL0     H 6322   7.777   7.053   7.186 -1.8988 -1.5291 -0.0743
   46MOL0     H 6323   7.690   7.186   7.271 -0.8297  2.0072 -1.5655
   46MOL0     H 6324   7.874   7.180   7.032 -1.2344 -0.5766 -0.8161
   46MOL0     H 6325   7.881   7.284   7.171 -1.4431  1.0134  0.8265
   46MOL0     H 6326   7.685   7.415   7.131  0.4623  0.8742 -0.4028
   46MOL0     H 6327   7.652   7.332   6.985 -0.5539  2.0287  1.0493
   46MOL0     H 6328   7.083   6.796   6.668 -1.2396 -0.1094 -0.4894
   46MOL0     H 6329   6.884   6.807   6.554 -1.4584  1.2162 -0.2889
   46MOL0     H 6330   6.392   6.981   6.504  0.4905 -1.3298  0.3711
   46MOL0     H 6331   6.189   7.072   6.389  0.6667 -1.4620  0.3653
   46MOL0     H 6332   6.163   7.436   7.439  1.3123  0.4617  1.0064
   46MOL0     H 6333   6.404   7.360   7.518  0.8889 -1.9627 -0.0406
   46MOL0     H 6334   6.812   7.194   7.443 -1.3868 -0.1068 -2.4488
   46MOL0     H 6335   7.024   7.075   7.491  1.6294 -0.8097  1.7512
   46MOL0     H 6336   7.173   6.690   7.638 -0.5817 -1.2954 -0.3195
   46MOL0     H 6337   7.004   6.672   7.694  2.9176  1.0369  3.1907
   46MOL0     H 6338   7.130   6.656   7.417  0.2397 -1.1906  0.2448
   46MOL0     H 6339   6.959   6.676   7.435  0.6942 -1.2341 -3.4312
   46MOL0     H 6340   7.048   6.435   7.387  4.5950  4.3693 -0.5545
   46MOL0     H 6341   7.125   6.432   7.534 -0.7787  0.0431  2.2064
   46MOL0     H 6342   6.828   6.493   7.534  0.6545 -0.7586 -2.1341
   46MOL0     H 6343   6.925   6.446   7.671 -1.8407  1.0692 -0.0636
   46MOL0     H 6344   6.804   6.084   7.476 -1.5776  0.5117 -0.2552
   46MOL0     H 6345   6.799   6.743   7.647  0.8722  0.2697  0.6665
   46MOL0     H 6346   6.570   6.740   7.670 -3.4499 -1.0032  0.5584
   46MOL0     H 6347   6.510   6.907   7.700 -0.2789 -0.4420  0.0794
   46MOL0     H 6348   6.494   6.834   7.544 -1.8713  3.6071  1.6459
   47MOL0     O 6349   1.573   7.546   7.187  0.4538 -0.2202 -0.2755
   47MOL0     C 6350   1.502   7.604   7.112 -0.5287  0.1281  1.1945
   47MOL0     O 6351   1.530   7.624   6.976 -0.7035 -0.5941  0.5777
   47MOL0     C 6352   1.660   7.624   6.942  0.4454  0.2967 -1.1144
   47MOL0     C 6353   1.689   7.595   6.809 -1.1403  0.8207  0.2738
   47MOL0     C 6354   1.822   7.574   6.767 -0.3308  1.0503  0.2154
   47MOL0     C 6355   1.924   7.606   6.848 -0.2403 -0.0516  0.5260
   47MOL0     O 6356   2.059   7.588   6.811 -0.6121 -0.4268 -0.2168
   47MOL0     C 6357   2.094   7.664   6.701  0.9557  0.0837 -0.0550
   47MOL0     C 6358   2.230   7.616   6.650  0.3850 -0.1005  0.9054
   47MOL0     C 6359   2.339   7.673   6.751  0.4092  0.2064  0.1769
   47MOL0     C 6360   2.388   7.820   6.722  0.3593 -0.3366  0.0100
   47MOL0     C 6361   2.475   7.860   6.845 -0.2652 -0.1768  0.3299
   47MOL0     C 6362   2.535   7.993   6.824 -0.4393 -0.6621 -0.3978
   47MOL0     C 6363   2.675   8.014   6.897  0.2163 -0.0364  0.0700
   47MOL0     C 6364   2.694   8.169   6.923  0.6827  0.7912 -0.9486
   47MOL0     N 6365   2.830   8.195   6.978 -0.1759  0.1010 -0.3185
   47MOL0     C 6366   2.886   8.129   7.083  0.0033 -0.8963 -0.0917
   47MOL0     C 6367   3.019   8.162   7.079 -0.1825  0.8208 -0.1957
   47MOL0     C 6368   3.116   8.110   7.190  0.7021 -1.3293 -0.2245
   47MOL0     C 6369   3.150   7.961   7.171  0.4650  0.0684 -0.0041
   47MOL0     C 6370   3.188   7.900   7.312  0.6992  0.2141  0.0865
   47MOL0     C 6371   3.325   7.951   7.363 -0.1672  1.0637 -0.3245
   47MOL0     O 6372   3.432   7.876   7.297  0.4191 -0.6985  0.1385
   47MOL0     C 6373   3.551   7.934   7.286 -0.6519  0.4828 -0.2400
   47MOL0     C 6374   3.597   8.052   7.343  0.3244  0.3119 -0.7839
   47MOL0     C 6375   3.714   8.115   7.298 -0.0839 -0.1071  0.8266
   47MOL0     C 6376   3.754   8.226   7.389  0.0682 -0.6351 -0.9608
   47MOL0     C 6377   3.790   8.063   7.193 -0.5659  0.4297  0.6137
   47MOL0     C 6378   3.925   8.127   7.147  0.0981  0.6578  0.6619
   47MOL0     O 6379   3.997   8.063   7.040  0.5575 -0.6224  0.3232
   47MOL0     C 6380   4.122   8.116   7.000  0.6475 -0.3328 -0.0456
   47MOL0     C 6381   4.235   8.074   7.067  0.1026  0.1693 -0.4638
   47MOL0     C 6382   4.367   8.105   7.025 -0.3902 -1.0161 -0.0790
   47MOL0     C 6383   4.388   8.186   6.910 -0.1802 -1.3264  0.1853
   47MOL0     O 6384   4.514   8.226   6.867  0.6130 -0.6279  0.1843
   47MOL0     C 6385   4.633   8.220   6.940  0.0748  0.1885 -0.0599
   47MOL0     C 6386   4.706   8.085   6.901 -0.4309  1.0004  0.9385
   47MOL0     C 6387   4.856   8.095   6.938 -0.3532 -0.2001  0.8864
   47MOL0     C 6388   4.929   8.009   6.832  0.2224  0.2089 -0.5277
   47MOL0     C 6389   5.076   8.006   6.867 -0.2003  0.8368  0.1041
   47MOL0     C 6390   5.171   7.931   6.769 -0.3127 -0.3719 -0.1427
   47MOL0     C 6391   5.320   7.939   6.810 -0.1417 -0.9074 -0.7744
   47MOL0     C 6392   5.415   7.906   6.699  0.2950  1.0300 -0.2329
   47MOL0    Cl 6393   5.581   7.942   6.753 -0.1413  0.0208 -0.0694
   47MOL0     C 6394   4.268   8.228   6.848 -0.1155  0.1235 -0.0835
   47MOL0     C 6395   4.139   8.185   6.887  0.6924  0.6451  0.7066
   47MOL0     O 6396   3.974   8.225   7.206  0.9402 -0.3669  0.4502
   47MOL0     C 6397   3.739   7.948   7.129  0.2539 -0.8641 -0.7213
   47MOL0     C 6398   3.628   7.882   7.176 -0.5480  0.1485  0.0216
   47MOL0     N 6399   3.046   8.251   6.975 -0.0903  0.1303 -0.0010
   47MOL0     N 6400   2.930   8.255   6.908 -0.0409  0.1826 -0.5640
   47MOL0     C 6401   1.907   7.641   6.979  0.5729  0.0632 -0.2919
   47MOL0     C 6402   1.775   7.655   7.018  0.6194 -0.0735 -0.0527
   47MOL0     C 6403   1.361   7.637   7.147  0.2296 -0.8049  0.0602
   47MOL0     C 6404   1.266   7.639   7.042 -0.3432  0.2344  0.1214
   47MOL0     C 6405   1.137   7.675   7.071  0.6464  0.3092  0.0905
   47MOL0     C 6406   1.089   7.702   7.194 -0.0907 -0.8328 -0.0333
   47MOL0     O 6407   0.960   7.737   7.231  0.2357 -0.2113 -1.1997
   47MOL0     C 6408   0.869   7.730   7.129 -0.1169  0.1197  0.7522
   47MOL0     C 6409   0.732   7.783   7.175 -0.3898  0.4455 -0.5893
   47MOL0     C 6410   0.686   7.674   7.287  0.2408 -0.8739 -0.5005
   47MOL0     C 6411   0.572   7.735   7.355  0.6159 -0.0429 -0.6659
   47MOL0     C 6412   0.457   7.747   7.259  0.8365 -0.5367 -0.0866
   47MOL0     C 6413   0.360   7.735   7.187  0.3832  0.0473 -0.7001
   47MOL0     C 6414   1.184   7.701   7.298 -0.1427 -0.3091 -0.1416
   47MOL0     C 6415   1.321   7.675   7.277 -0.4121  0.0281 -0.3203
   47MOL0     C 6416   1.424   7.685   7.390  0.2549  0.2910  0.5593
   47MOL0     H 6417   1.614   7.571   6.735 -1.4224  2.2078  0.0809
   47MOL0     H 6418   1.842   7.521   6.675 -0.1076 -0.3905  1.0629
   47MOL0     H 6419   2.111   7.763   6.744 -2.2236  0.5136  0.4701
   47MOL0     H 6420   2.017   7.671   6.623  0.5892 -0.6479  0.2320
   47MOL0     H 6421   2.229   7.507   6.636 -3.1130 -0.3672  2.2251
   47MOL0     H 6422   2.240   7.661   6.551  0.3687 -2.3235 -0.1880
   47MOL0     H 6423   2.312   7.676   6.857  3.0492 -0.0584  0.9354
   47MOL0     H 6424   2.434   7.617   6.755  1.6048  2.0874 -0.5753
   47MOL0     H 6425   2.452   7.826   6.634  1.1866  0.9811  0.6745
   47MOL0     H 6426   2.297   7.879   6.708 -0.4872 -1.3310  1.1281
   47MOL0     H 6427   2.550   7.782   6.860 -0.5000 -0.5647 -0.4805
   47MOL0     H 6428   2.421   7.869   6.940  0.4243 -0.7555  0.7903
   47MOL0     H 6429   2.575   7.999   6.722 -0.9728  2.2807 -0.5187
   47MOL0     H 6430   2.462   8.075   6.828 -0.0104 -0.3080  0.6995
   47MOL0     H 6431   2.749   7.974   6.826 -2.8662 -2.0070 -2.2883
   47MOL0     H 6432   2.681   7.948   6.984 -3.6880 -0.3764  0.2529
   47MOL0     H 6433   2.693   8.232   6.834 -0.4926 -1.4947 -2.6406
   47MOL0     H 6434   2.613   8.201   6.990  2.4314 -0.5316  2.0410
   47MOL0     H 6435   2.847   8.073   7.167 -1.8895  0.1979 -0.1971
   47MOL0     H 6436   3.062   8.119   7.285  1.3038 -0.4100  0.0415
   47MOL0     H 6437   3.210   8.166   7.193  0.6743 -0.8827 -3.6990
   47MOL0     H 6438   3.066   7.906   7.128  1.4503 -2.5039  1.1569
   47MOL0     H 6439   3.237   7.951   7.105  2.3633 -0.2022  2.3943
   47MOL0     H 6440   3.107   7.917   7.383 -2.6736 -4.5080 -2.0763
   47MOL0     H 6441   3.194   7.791   7.310  1.0056  0.2284 -1.4787
   47MOL0     H 6442   3.334   8.055   7.330  1.7223  0.3848 -2.1481
   47MOL0     H 6443   3.346   7.943   7.470 -0.5461  0.4340 -0.2932
   47MOL0     H 6444   3.539   8.093   7.425 -1.0101  1.2595 -2.1501
   47MOL0     H 6445   3.844   8.198   7.444 -1.8825 -1.3092  2.1236
   47MOL0     H 6446   3.678   8.239   7.466 -1.3467  0.5944 -2.5022
   47MOL0     H 6447   3.769   8.322   7.339  2.9814  0.9672  2.4824
   47MOL0     H 6448   4.226   8.011   7.154  1.8696  1.4220  0.6887
   47MOL0     H 6449   4.454   8.061   7.072 -0.6619  1.1513  2.7444
   47MOL0     H 6450   4.691   8.308   6.912  1.5423  0.0107  2.1238
   47MOL0     H 6451   4.619   8.226   7.048  0.0052 -2.3230  0.1491
   47MOL0     H 6452   4.655   8.005   6.956 -0.4359  0.9483  0.8593
   47MOL0     H 6453   4.692   8.061   6.795  0.5412 -1.0163  1.2156
   47MOL0     H 6454   4.878   8.068   7.041 -0.8006  1.0876  1.3441
   47MOL0     H 6455   4.891   8.197   6.920  0.5363 -0.6058  0.2216
   47MOL0     H 6456   4.916   8.049   6.731  0.4088 -0.3122 -0.7619
   47MOL0     H 6457   4.893   7.906   6.825 -3.1878  1.1314  1.3571
   47MOL0     H 6458   5.102   8.112   6.880 -1.7486  0.9814  2.9056
   47MOL0     H 6459   5.079   7.951   6.962 -1.4088  2.1050  0.9248
   47MOL0     H 6460   5.154   7.972   6.669 -1.5512  1.8658  0.8937
   47MOL0     H 6461   5.143   7.826   6.755  0.6787 -0.4868 -1.4901
   47MOL0     H 6462   5.345   7.877   6.896 -0.2574 -0.7645 -0.6394
   47MOL0     H 6463   5.346   8.043   6.835 -0.5097 -1.1014  0.4823
   47MOL0     H 6464   5.395   7.969   6.612 -1.0239 -0.0321 -0.7200
   47MOL0     H 6465   5.398   7.801   6.673 -2.9409  1.4636 -0.2876
   47MOL0     H 6466   4.297   8.295   6.768 -0.5871  1.2433  0.6712
   47MOL0     H 6467   4.048   8.223   6.841  0.3427  1.3846  1.9577
   47MOL0     H 6468   3.798   7.914   7.044 -1.3928 -0.2018 -2.2030
   47MOL0     H 6469   3.595   7.796   7.119  1.4992  0.0748 -1.1150
   47MOL0     H 6470   1.993   7.660   7.042  1.4512 -1.0978 -1.0975
   47MOL0     H 6471   1.765   7.673   7.125  1.1916 -2.6164  0.5044
   47MOL0     H 6472   1.297   7.621   6.940  0.9039 -3.7712  1.0057
   47MOL0     H 6473   1.064   7.664   6.991 -0.6241  1.6151  1.0398
   47MOL0     H 6474   0.905   7.781   7.039 -0.6474 -0.7306  0.0293
   47MOL0     H 6475   0.858   7.626   7.096 -1.4972  0.3984  0.2555
   47MOL0     H 6476   0.662   7.793   7.091 -1.7827  1.4798  0.6222
   47MOL0     H 6477   0.742   7.885   7.214  2.4669  0.6150 -1.5643
   47MOL0     H 6478   0.665   7.574   7.249 -1.4808 -0.6774 -0.1176
   47MOL0     H 6479   0.759   7.661   7.368 -2.2362 -0.5977  1.9407
   47MOL0     H 6480   0.598   7.830   7.401 -0.4531 -0.8113  1.6655
   47MOL0     H 6481   0.538   7.674   7.439  1.0842  1.9802  1.0564
   47MOL0     H 6482   0.276   7.724   7.121 -0.1665 -2.4347  0.2941
   47MOL0     H 6483   1.149   7.718   7.399 -1.4515 -1.6068 -0.3516
   47MOL0     H 6484   1.523   7.717   7.357 -0.5507  1.0679 -1.2488
   47MOL0     H 6485   1.386   7.735   7.479 -0.8950  3.2227 -1.4365
   47MOL0     H 6486   1.436   7.584   7.430  0.0124 -0.3181 -0.8209
   48MOL0     O 6487   7.668   9.761   2.993  0.2134  0.1686  0.1546
   48MOL0     C 6488   7.681   9.883   2.985  0.4396 -0.3041  0.0099
   48MOL0     O 6489   7.787   9.946   3.020  0.1378  0.4222 -0.3490
   48MOL0     C 6490   7.909   9.886   3.060 -0.3047 -1.4181 -0.1690
   48MOL0     C 6491   8.001   9.972   3.123  0.7484  0.5127 -0.1191
   48MOL0     C 6492   8.132   9.929   3.150 -0.2309  0.0108  0.4902
   48MOL0     C 6493   8.174   9.804   3.103 -0.6138  0.7171  0.9049
   48MOL0     O 6494   8.298   9.743   3.129 -1.0960 -1.0719  0.5512
   48MOL0     C 6495   8.307   9.681   3.254  0.7298  0.2638 -0.0855
   48MOL0     C 6496   8.426   9.585   3.264 -0.1105 -0.1220  0.3281
   48MOL0     C 6497   8.401   9.458   3.181  0.6511 -1.2484 -0.4542
   48MOL0     C 6498   8.516   9.352   3.186  0.2420 -0.7366  0.1996
   48MOL0     C 6499   8.458   9.204   3.189  0.2530  0.0948 -0.0102
   48MOL0     C 6500   8.573   9.105   3.179 -0.6193  0.0139  0.1495
   48MOL0     C 6501   8.614   9.062   3.318  0.2278  0.3041  0.0984
   48MOL0     C 6502   8.601   8.906   3.326 -0.6141  0.0644 -0.1979
   48MOL0     N 6503   8.718   8.834   3.278  0.1466 -0.3282 -0.2029
   48MOL0     C 6504   8.741   8.792   3.147 -0.4609 -0.5852 -1.4080
   48MOL0     C 6505   8.873   8.768   3.143  0.0643  0.6168 -0.1647
   48MOL0     C 6506   8.947   8.715   3.025  1.3472  0.9495 -0.2056
   48MOL0     C 6507   9.062   8.622   3.071 -0.5729 -0.2948  0.2127
   48MOL0     C 6508   9.169   8.590   2.964 -0.8546 -0.5020  0.0753
   48MOL0     C 6509   9.273   8.481   3.016  0.4902  0.3709  0.3385
   48MOL0     O 6510   9.379   8.536   3.098  0.5883 -0.5244  0.5444
   48MOL0     C 6511   9.506   8.490   3.106 -0.4343 -0.8764 -0.1612
   48MOL0     C 6512   9.599   8.558   3.182  0.7469  0.1290 -0.3762
   48MOL0     C 6513   9.735   8.534   3.176 -0.4072 -0.6789  0.2121
   48MOL0     C 6514   9.829   8.614   3.267 -0.3876  0.1683 -0.4840
   48MOL0     C 6515   9.786   8.429   3.101 -0.2420 -0.1338 -0.7219
   48MOL0     C 6516   9.930   8.390   3.088  0.2901 -0.1909 -0.2181
   48MOL0     O 6517  10.009   8.392   3.196 -0.4502 -0.3444  0.2036
   48MOL0     C 6518  10.142   8.377   3.178 -0.3716  0.5497  1.1348
   48MOL0     C 6519  10.221   8.432   3.071 -0.2384  0.3069 -0.4277
   48MOL0     C 6520  10.361   8.418   3.075 -0.7105 -0.7076 -0.7134
   48MOL0     C 6521  10.424   8.363   3.190 -0.4983  1.2466  0.6244
   48MOL0     O 6522  10.563   8.357   3.203  0.8056  0.5153  0.0851
   48MOL0     C 6523  10.637   8.342   3.081 -0.7138  0.0424 -0.0640
   48MOL0     C 6524  10.785   8.320   3.110 -0.9331  0.3357  0.4799
   48MOL0     C 6525  10.862   8.442   3.164  0.2370  0.3008  0.3970
   48MOL0     C 6526  10.985   8.414   3.254  0.3219  0.2886  0.6543
   48MOL0     C 6527  11.109   8.357   3.179 -0.1721  0.1136 -1.1383
   48MOL0     C 6528  11.229   8.456   3.169  0.7029 -0.0066  0.3120
   48MOL0     C 6529  11.319   8.424   3.048 -0.4905 -0.0265 -0.2667
   48MOL0     C 6530  11.400   8.549   3.019 -0.3226 -0.1476 -0.3478
   48MOL0    Cl 6531  11.310   8.693   2.953 -0.1509  0.2445  0.2446
   48MOL0     C 6532  10.351   8.319   3.301 -0.2617 -1.0089 -0.5551
   48MOL0     C 6533  10.209   8.335   3.295 -0.5741  0.0516  0.6316
   48MOL0     O 6534   9.964   8.347   2.980  0.0377  0.2110 -0.6153
   48MOL0     C 6535   9.692   8.346   3.035 -0.3895 -0.3075 -0.5748
   48MOL0     C 6536   9.555   8.377   3.033  0.6648 -0.4301  0.3660
   48MOL0     N 6537   8.924   8.779   3.275 -0.3681  0.5300 -0.2904
   48MOL0     N 6538   8.827   8.808   3.354 -0.9042  0.0481  0.0117
   48MOL0     C 6539   8.085   9.729   3.024 -0.5749 -0.1498 -0.7329
   48MOL0     C 6540   7.954   9.768   3.013 -0.6661  0.4717  0.5716
   48MOL0     C 6541   7.555   9.957   2.965  0.3330 -0.4681  0.6158
   48MOL0     C 6542   7.551  10.089   3.016 -0.3351  0.3201 -0.2626
   48MOL0     C 6543   7.433  10.161   3.004  0.0980 -0.0132  0.1235
   48MOL0     C 6544   7.313  10.111   2.947 -0.1126  0.4401  0.3044
   48MOL0     O 6545   7.198  10.197   2.949 -0.1433  0.3607 -0.4272
   48MOL0     C 6546   7.073  10.137   2.917 -0.5800  0.3881 -0.9332
   48MOL0     C 6547   6.964  10.237   2.933  0.0249 -0.1188  0.2707
   48MOL0     C 6548   6.944  10.264   3.084 -0.5263  0.8310  0.8861
   48MOL0     C 6549   6.804  10.305   3.125 -0.2000  0.6290 -0.3881
   48MOL0     C 6550   6.701  10.210   3.084  0.1667  0.4620 -0.1538
   48MOL0     C 6551   6.609  10.146   3.046  0.5429 -0.1522  0.4421
   48MOL0     C 6552   7.319   9.975   2.895  0.3989  0.0310  0.0013
   48MOL0     C 6553   7.446   9.902   2.895  0.2040  1.2687 -0.0345
   48MOL0     C 6554   7.443   9.762   2.823  0.0257 -0.4862  1.0535
   48MOL0     H 6555   7.968  10.071   3.151  0.1182  1.2300 -3.1314
   48MOL0     H 6556   8.202   9.989   3.207 -3.3353  2.0912  2.4040
   48MOL0     H 6557   8.218   9.619   3.267  0.0829  0.9503 -1.0795
   48MOL0     H 6558   8.316   9.769   3.318  0.9827 -1.5209  2.4884
   48MOL0     H 6559   8.517   9.629   3.221  1.1336 -1.9209  0.9538
   48MOL0     H 6560   8.445   9.549   3.366  3.7949  1.5285  0.3616
   48MOL0     H 6561   8.304   9.416   3.209  1.0404  0.0035  3.3630
   48MOL0     H 6562   8.392   9.488   3.076 -5.1485  0.9543  0.3198
   48MOL0     H 6563   8.587   9.368   3.105 -0.0941 -0.3473 -0.0205
   48MOL0     H 6564   8.569   9.369   3.280  3.0690 -1.5932 -1.1149
   48MOL0     H 6565   8.396   9.198   3.099  0.7340 -2.6048 -0.2486
   48MOL0     H 6566   8.392   9.183   3.273 -0.5880 -1.4633 -1.0106
   48MOL0     H 6567   8.542   9.019   3.120 -0.6669  0.0991  0.0521
   48MOL0     H 6568   8.658   9.153   3.131  1.8555 -0.4087  3.6793
   48MOL0     H 6569   8.560   9.113   3.398  0.6607  0.2046  0.4580
   48MOL0     H 6570   8.720   9.084   3.334  0.2074 -0.5097  1.5839
   48MOL0     H 6571   8.591   8.875   3.431  1.1223 -3.7961 -0.9967
   48MOL0     H 6572   8.511   8.869   3.277 -2.4554  0.7008  2.4463
   48MOL0     H 6573   8.685   8.793   3.054 -1.3914 -1.7112 -0.8842
   48MOL0     H 6574   8.988   8.803   2.974  3.1909 -0.1841 -0.7769
   48MOL0     H 6575   8.881   8.657   2.960  0.5005 -1.5320  2.6402
   48MOL0     H 6576   9.108   8.668   3.159 -1.3120 -0.9992  0.9764
   48MOL0     H 6577   9.024   8.524   3.101 -0.4101 -0.7224 -0.9330
   48MOL0     H 6578   9.117   8.540   2.881 -1.0619  1.2768 -0.9174
   48MOL0     H 6579   9.215   8.683   2.930 -2.4468  0.7660  1.2470
   48MOL0     H 6580   9.229   8.405   3.082  3.7621 -1.4567  0.6443
   48MOL0     H 6581   9.315   8.427   2.931  1.2423 -0.2730  1.1028
   48MOL0     H 6582   9.554   8.642   3.235 -1.3126 -1.5288  0.6369
   48MOL0     H 6583   9.776   8.692   3.324  0.1258  0.1483  0.0332
   48MOL0     H 6584   9.895   8.670   3.200 -0.5511 -0.4089 -1.1361
   48MOL0     H 6585   9.875   8.547   3.341 -1.4907  3.2926  3.4072
   48MOL0     H 6586  10.171   8.485   2.991 -3.6123 -1.2051  0.5131
   48MOL0     H 6587  10.414   8.447   2.985 -0.5409 -0.7569 -0.6304
   48MOL0     H 6588  10.600   8.253   3.030  0.7642 -0.9752  0.5688
   48MOL0     H 6589  10.624   8.425   3.011  1.4887 -1.4508 -2.4182
   48MOL0     H 6590  10.796   8.242   3.186  0.6433 -0.9800 -0.9974
   48MOL0     H 6591  10.834   8.281   3.020 -1.7423 -2.7640  1.2569
   48MOL0     H 6592  10.804   8.508   3.228  1.0134  1.8238 -0.4204
   48MOL0     H 6593  10.892   8.505   3.079 -0.9736 -1.0313 -1.0817
   48MOL0     H 6594  10.960   8.330   3.319 -3.0582 -0.6895 -1.6376
   48MOL0     H 6595  11.007   8.506   3.308  2.2053 -0.6787  1.6565
   48MOL0     H 6596  11.139   8.257   3.210  0.7656 -0.1891 -2.8803
   48MOL0     H 6597  11.069   8.335   3.079 -1.4175 -3.0946 -0.0855
   48MOL0     H 6598  11.288   8.454   3.261  2.1265 -0.1979 -0.5829
   48MOL0     H 6599  11.179   8.551   3.148  1.6943  0.3274 -0.6275
   48MOL0     H 6600  11.261   8.400   2.958 -2.0903  1.3426  0.3353
   48MOL0     H 6601  11.384   8.346   3.087 -1.1370 -0.8975 -0.8774
   48MOL0     H 6602  11.483   8.516   2.956  2.4801 -0.2678  3.0649
   48MOL0     H 6603  11.446   8.571   3.116 -1.8884 -0.2887  0.4652
   48MOL0     H 6604  10.403   8.288   3.391 -2.7802  2.0801  2.2378
   48MOL0     H 6605  10.147   8.308   3.379 -3.9316 -0.7297 -1.8562
   48MOL0     H 6606   9.717   8.253   2.985 -2.2717 -0.4752 -1.2868
   48MOL0     H 6607   9.481   8.311   2.988 -1.6631 -0.2290  3.5755
   48MOL0     H 6608   8.130   9.640   2.983  1.0967 -0.1214  0.9231
   48MOL0     H 6609   7.885   9.709   2.953 -0.7978  1.5408 -0.3455
   48MOL0     H 6610   7.643  10.132   3.055 -1.1673  4.7435 -2.4483
   48MOL0     H 6611   7.410  10.257   3.048  0.6001  0.6872 -1.1027
   48MOL0     H 6612   7.082  10.109   2.812  1.4576  0.1392 -0.7272
   48MOL0     H 6613   7.062  10.046   2.977  1.2049  1.9907  2.1039
   48MOL0     H 6614   6.878  10.186   2.888 -0.0068 -2.1573  2.4611
   48MOL0     H 6615   6.977  10.333   2.882 -1.2821 -0.2596 -0.3653
   48MOL0     H 6616   6.986  10.184   3.146  0.4998  3.5859  4.0334
   48MOL0     H 6617   7.008  10.346   3.116  0.7043 -0.0914  0.8894
   48MOL0     H 6618   6.783  10.398   3.071 -0.1883  0.4951 -0.6254
   48MOL0     H 6619   6.796  10.322   3.233  1.3114  0.5659 -0.2485
   48MOL0     H 6620   6.529  10.085   3.010  0.5136 -1.5491  2.6743
   48MOL0     H 6621   7.236   9.920   2.851  1.3941 -1.5682  0.0213
   48MOL0     H 6622   7.414   9.682   2.893  0.7762 -1.2657  0.5046
   48MOL0     H 6623   7.373   9.760   2.739  1.7102  0.6049 -0.4466
   48MOL0     H 6624   7.542   9.740   2.781 -0.3279  0.1889 -0.1687
   49MOL0     O 6625   4.374   3.163   8.273 -0.0856  0.1662  0.1624
   49MOL0     C 6626   4.368   3.281   8.239 -0.6998  0.4098  0.1864
   49MOL0     O 6627   4.465   3.355   8.167 -0.0200  0.5054  0.0777
   49MOL0     C 6628   4.574   3.291   8.115 -0.0679 -0.5827 -0.5544
   49MOL0     C 6629   4.685   3.256   8.201 -0.7725 -0.7911 -0.6000
   49MOL0     C 6630   4.808   3.214   8.146  0.3593  0.1922  0.3526
   49MOL0     C 6631   4.818   3.201   8.002  0.4294  0.2489 -0.0616
   49MOL0     O 6632   4.931   3.151   7.943  0.2273  0.3382 -0.5485
   49MOL0     C 6633   5.054   3.183   8.011 -0.5437 -0.3853 -0.1181
   49MOL0     C 6634   5.172   3.136   7.926  0.1437  1.0417  0.4376
   49MOL0     C 6635   5.306   3.186   7.981 -0.5499 -0.8445  0.2382
   49MOL0     C 6636   5.422   3.112   7.914  0.5005  0.0737 -0.9534
   49MOL0     C 6637   5.562   3.157   7.956 -0.1497 -0.6187 -0.0115
   49MOL0     C 6638   5.668   3.090   7.868 -0.1976 -0.0113  0.8021
   49MOL0     C 6639   5.817   3.120   7.913  0.3292 -0.1572  0.6050
   49MOL0     C 6640   5.909   3.033   7.825  0.1296  0.4858 -0.1501
   49MOL0     N 6641   6.048   3.054   7.854  0.3155  0.4389  0.3559
   49MOL0     C 6642   6.096   3.142   7.948  0.2420 -0.4369  0.4064
   49MOL0     C 6643   6.226   3.130   7.938  0.5402  0.4439 -0.4778
   49MOL0     C 6644   6.327   3.196   8.032 -0.3769  0.3195 -0.2911
   49MOL0     C 6645   6.288   3.206   8.182  0.2003  0.1850 -0.2704
   49MOL0     C 6646   6.399   3.241   8.277 -0.4181 -0.7575  0.0158
   49MOL0     C 6647   6.328   3.227   8.417 -0.2923 -0.4824  0.3347
   49MOL0     O 6648   6.412   3.227   8.536  0.0911  0.0176 -0.0368
   49MOL0     C 6649   6.518   3.141   8.529  0.2393  0.2199 -0.4655
   49MOL0     C 6650   6.640   3.180   8.465 -0.4989  0.1538 -0.1510
   49MOL0     C 6651   6.752   3.094   8.458  0.0285 -0.0494 -0.4108
   49MOL0     C 6652   6.878   3.157   8.399  0.0117  0.9661  0.0789
   49MOL0     C 6653   6.750   2.963   8.517  0.1688 -0.4148 -0.9765
   49MOL0     C 6654   6.860   2.869   8.550 -0.9896  0.2981  0.1846
   49MOL0     O 6655   6.841   2.783   8.653  0.6789 -0.5323 -0.3437
   49MOL0     C 6656   6.943   2.730   8.722  0.9055  0.1780 -0.2043
   49MOL0     C 6657   7.070   2.782   8.730 -0.2160 -1.1079 -0.4876
   49MOL0     C 6658   7.161   2.712   8.807 -0.0567  0.0297  0.2824
   49MOL0     C 6659   7.128   2.598   8.881 -0.8057  0.8351  0.6274
   49MOL0     O 6660   7.234   2.539   8.952 -0.0169 -0.3518 -0.3422
   49MOL0     C 6661   7.203   2.428   9.044 -0.3008  0.4357  0.2298
   49MOL0     C 6662   7.197   2.472   9.185  0.0804  0.6511  0.2101
   49MOL0     C 6663   7.074   2.562   9.225 -0.2315 -0.2062  0.1394
   49MOL0     C 6664   7.070   2.593   9.375 -0.3797  0.0346  0.5204
   49MOL0     C 6665   7.197   2.626   9.445  0.1373  0.4538 -0.4377
   49MOL0     C 6666   7.258   2.762   9.406  0.0387 -0.6974 -0.4704
   49MOL0     C 6667   7.176   2.881   9.460  0.5016 -0.5961  0.3494
   49MOL0     C 6668   7.228   3.028   9.414  0.1057  0.5285 -0.2985
   49MOL0    Cl 6669   7.106   3.156   9.467 -0.1640 -0.0790  0.4732
   49MOL0     C 6670   7.011   2.537   8.851  0.1441 -0.2811 -0.3972
   49MOL0     C 6671   6.914   2.607   8.774 -0.7756 -0.1059  0.2288
   49MOL0     O 6672   6.954   2.877   8.479 -0.7553  0.7252  0.9959
   49MOL0     C 6673   6.623   2.926   8.578  0.1330 -0.4497  0.2087
   49MOL0     C 6674   6.515   3.014   8.579  0.2393  0.1992 -0.5506
   49MOL0     N 6675   6.259   3.039   7.841  0.4612  0.0830  0.5041
   49MOL0     N 6676   6.148   3.000   7.790  0.4603  0.8559 -0.1687
   49MOL0     C 6677   4.707   3.234   7.917  0.1430  0.0456 -0.1262
   49MOL0     C 6678   4.589   3.282   7.975 -1.3616  0.0139 -0.3707
   49MOL0     C 6679   4.262   3.356   8.296  0.3128 -0.7553  0.3882
   49MOL0     C 6680   4.221   3.464   8.218  0.6786 -0.4931  0.7756
   49MOL0     C 6681   4.111   3.543   8.253 -0.4904 -0.7940 -0.4284
   49MOL0     C 6682   4.041   3.522   8.375  0.2761  0.6798 -0.9625
   49MOL0     O 6683   3.946   3.604   8.425  0.2449  0.5847  0.2565
   49MOL0     C 6684   3.813   3.546   8.419  0.7920 -0.8921 -1.0171
   49MOL0     C 6685   3.729   3.556   8.547 -0.3552 -0.4496  0.1908
   49MOL0     C 6686   3.788   3.455   8.640 -0.5710 -0.0859  0.8183
   49MOL0     C 6687   3.706   3.434   8.770 -0.6276 -0.2505  0.7987
   49MOL0     C 6688   3.601   3.343   8.756  0.6163 -0.1302  0.1287
   49MOL0     C 6689   3.513   3.254   8.747 -0.5517 -0.7035  0.8723
   49MOL0     C 6690   4.096   3.425   8.464 -0.3493  0.0243 -0.5038
   49MOL0     C 6691   4.198   3.341   8.419 -0.3683  0.3254 -0.4957
   49MOL0     C 6692   4.228   3.241   8.530  1.3476 -0.1215  0.3118
   49MOL0     H 6693   4.663   3.251   8.307 -0.1245  1.7571 -0.2705
   49MOL0     H 6694   4.889   3.187   8.212  1.1278 -0.3456 -0.7962
   49MOL0     H 6695   5.065   3.130   8.107  0.6251  1.1199  0.6118
   49MOL0     H 6696   5.069   3.288   8.034  0.2266 -0.6575  0.6837
   49MOL0     H 6697   5.174   3.027   7.923  2.2259  1.0537 -0.1899
   49MOL0     H 6698   5.148   3.172   7.826 -1.4314  0.5920  0.6257
   49MOL0     H 6699   5.322   3.293   7.967 -2.4754 -0.2498  2.1148
   49MOL0     H 6700   5.311   3.169   8.089 -0.2580 -2.7891 -0.0376
   49MOL0     H 6701   5.425   3.003   7.923  0.2255  0.0872 -0.6975
   49MOL0     H 6702   5.413   3.150   7.812 -2.1530  0.0574 -0.8063
   49MOL0     H 6703   5.580   3.132   8.061 -2.7597 -1.6890  0.2560
   49MOL0     H 6704   5.572   3.265   7.940  1.1471 -0.6051  0.7681
   49MOL0     H 6705   5.654   2.982   7.857  2.7856 -0.3110 -1.4176
   49MOL0     H 6706   5.647   3.115   7.763 -0.9098 -1.7457  0.4849
   49MOL0     H 6707   5.844   3.086   8.014  1.4124  1.7930  1.0241
   49MOL0     H 6708   5.828   3.229   7.915 -1.6019  0.0766  0.1691
   49MOL0     H 6709   5.893   2.927   7.847 -0.4383  0.8578  1.3302
   49MOL0     H 6710   5.887   3.040   7.718 -0.7432 -0.3496 -0.0422
   49MOL0     H 6711   6.051   3.218   8.012 -0.1488 -0.6191  0.3512
   49MOL0     H 6712   6.340   3.296   7.989 -0.7797 -0.2041 -1.6943
   49MOL0     H 6713   6.412   3.130   8.014 -2.5551 -2.1812 -2.3544
   49MOL0     H 6714   6.225   3.295   8.187 -0.0244  0.1301 -1.8341
   49MOL0     H 6715   6.240   3.113   8.215  3.0310 -0.3796  2.8835
   49MOL0     H 6716   6.493   3.188   8.260 -0.5617 -0.2530 -2.6978
   49MOL0     H 6717   6.413   3.349   8.270 -6.4541  0.4105  0.5627
   49MOL0     H 6718   6.238   3.288   8.426  0.2695  0.1642  1.9584
   49MOL0     H 6719   6.291   3.124   8.414  0.1739 -0.6213 -1.7386
   49MOL0     H 6720   6.644   3.281   8.425 -0.9368  1.1182  2.0890
   49MOL0     H 6721   6.940   3.078   8.356 -3.2014 -1.2324 -0.8740
   49MOL0     H 6722   6.928   3.227   8.467  1.5477 -1.3126  1.4470
   49MOL0     H 6723   6.846   3.221   8.316 -1.6429  1.2014  0.8601
   49MOL0     H 6724   7.100   2.880   8.693 -1.0551 -0.5965  0.1703
   49MOL0     H 6725   7.261   2.753   8.822 -0.2182  0.1270  1.1582
   49MOL0     H 6726   7.110   2.377   9.019 -0.9509  2.3879 -1.6030
   49MOL0     H 6727   7.282   2.353   9.032 -0.8490 -0.9213  3.8208
   49MOL0     H 6728   7.192   2.376   9.238  1.4553  0.8706  0.7792
   49MOL0     H 6729   7.294   2.521   9.199  0.0912  1.2689 -1.7758
   49MOL0     H 6730   6.975   2.536   9.185 -0.5390  0.5580  0.3709
   49MOL0     H 6731   7.103   2.661   9.189  2.9834 -0.6802  1.1156
   49MOL0     H 6732   7.049   2.496   9.423 -1.0129 -0.2793 -0.3736
   49MOL0     H 6733   6.987   2.661   9.395 -0.9126 -0.1592 -0.9332
   49MOL0     H 6734   7.164   2.639   9.549 -0.1975  1.3772 -0.6507
   49MOL0     H 6735   7.273   2.547   9.448 -2.4758 -2.4366 -3.5701
   49MOL0     H 6736   7.270   2.764   9.298  0.5498 -3.1976 -0.5128
   49MOL0     H 6737   7.356   2.767   9.454 -0.9097 -1.0743  1.6386
   49MOL0     H 6738   7.169   2.877   9.569  0.4285  1.6354  0.4573
   49MOL0     H 6739   7.071   2.876   9.428  0.2079 -0.0364  1.1957
   49MOL0     H 6740   7.243   3.026   9.306 -0.4553 -3.3660 -0.4213
   49MOL0     H 6741   7.328   3.051   9.453  0.1405  3.4773 -1.7940
   49MOL0     H 6742   6.976   2.436   8.872 -0.1956  0.0697  0.8273
   49MOL0     H 6743   6.821   2.555   8.755 -1.0417  0.4719 -0.0378
   49MOL0     H 6744   6.619   2.826   8.620  2.6582 -1.5101 -1.7931
   49MOL0     H 6745   6.421   2.997   8.631  0.3425  0.9588 -0.1089
   49MOL0     H 6746   4.716   3.235   7.809  1.3856 -2.5259 -0.1271
   49MOL0     H 6747   4.506   3.320   7.915 -1.4925  1.2432  0.5672
   49MOL0     H 6748   4.253   3.482   8.116  0.1137 -1.1271  0.4758
   49MOL0     H 6749   4.075   3.619   8.185  0.5207  0.2822  0.1926
   49MOL0     H 6750   3.755   3.591   8.337  1.4104  1.5939 -0.1910
   49MOL0     H 6751   3.823   3.440   8.396  3.0504 -1.1100  0.6638
   49MOL0     H 6752   3.623   3.537   8.528 -0.9865  0.2146  2.6923
   49MOL0     H 6753   3.736   3.655   8.593 -1.4808 -0.4650  0.4102
   49MOL0     H 6754   3.810   3.363   8.586  0.7806  0.3805  0.5128
   49MOL0     H 6755   3.887   3.487   8.675 -0.6450 -1.0254  1.9602
   49MOL0     H 6756   3.665   3.531   8.799 -1.7792  0.0273 -1.4855
   49MOL0     H 6757   3.777   3.397   8.845 -1.2982 -1.2677  0.9526
   49MOL0     H 6758   3.434   3.184   8.729 -1.4323  0.8517 -2.0653
   49MOL0     H 6759   4.050   3.411   8.561 -0.2231  1.9314 -0.1323
   49MOL0     H 6760   4.273   3.286   8.619 -1.6535 -2.2693  3.1632
   49MOL0     H 6761   4.139   3.195   8.574  2.3888 -1.0521  1.5281
   49MOL0     H 6762   4.284   3.151   8.505 -5.1309 -4.7123 -0.0288
   50MOL0     O 6763  11.100   9.762   5.090 -0.2851  0.2363  0.4754
   50MOL0     C 6764  11.021   9.777   5.183 -0.1834 -0.2347  0.8479
   50MOL0     O 6765  11.057   9.799   5.314  0.1560  0.0026  0.0280
   50MOL0     C 6766  11.178   9.846   5.355 -0.0014 -0.2722 -0.2656
   50MOL0     C 6767  11.194   9.852   5.495 -0.3136 -1.0248 -0.1944
   50MOL0     C 6768  11.312   9.904   5.552  0.6922  1.0176 -0.8161
   50MOL0     C 6769  11.411   9.954   5.467 -0.3751  0.5753 -0.2254
   50MOL0     O 6770  11.526  10.002   5.525  0.0180 -0.1554 -0.4063
   50MOL0     C 6771  11.626  10.066   5.451  0.3321  0.6502  0.1068
   50MOL0     C 6772  11.699  10.168   5.546 -0.7212 -0.8570  0.6107
   50MOL0     C 6773  11.770  10.089   5.657 -0.1916 -0.3195 -1.5531
   50MOL0     C 6774  11.847  10.174   5.769  0.3801 -0.0469  0.0883
   50MOL0     C 6775  11.959  10.252   5.714  0.3012 -0.4136  0.3085
   50MOL0     C 6776  12.003  10.353   5.814 -0.4338  0.0757 -0.3938
   50MOL0     C 6777  12.140  10.424   5.772  0.1769 -0.4825  0.3358
   50MOL0     C 6778  12.158  10.552   5.856 -0.6336 -1.2597 -0.3141
   50MOL0     N 6779  12.305  10.591   5.881  0.1382 -0.3681  0.6880
   50MOL0     C 6780  12.403  10.604   5.780  0.7522 -0.2494  0.5020
   50MOL0     C 6781  12.508  10.651   5.847 -0.2465  0.9374 -0.9164
   50MOL0     C 6782  12.644  10.707   5.793 -0.1991  1.2173  0.5153
   50MOL0     C 6783  12.668  10.842   5.840 -1.0235 -0.4675 -0.0747
   50MOL0     C 6784  12.767  10.928   5.746 -0.1179  0.3175  0.3903
   50MOL0     C 6785  12.826  11.047   5.818  0.0163 -0.1731 -0.2129
   50MOL0     O 6786  12.818  11.156   5.729 -0.5016 -0.1428  0.0925
   50MOL0     C 6787  12.937  11.211   5.694  0.5079 -0.1236 -0.3097
   50MOL0     C 6788  12.971  11.332   5.759  0.0142  0.4688  0.1429
   50MOL0     C 6789  13.091  11.398   5.723 -0.3348 -0.6348  0.1752
   50MOL0     C 6790  13.107  11.531   5.784 -0.5154  0.0387  0.0283
   50MOL0     C 6791  13.194  11.329   5.650  1.5725  0.3528 -0.0180
   50MOL0     C 6792  13.327  11.379   5.620 -0.3671  0.5015 -0.2486
   50MOL0     O 6793  13.416  11.292   5.566 -0.2961 -0.1563 -0.2232
   50MOL0     C 6794  13.555  11.311   5.599  1.3627 -0.0003  0.6235
   50MOL0     C 6795  13.635  11.240   5.515 -0.2332  0.1523 -0.5543
   50MOL0     C 6796  13.772  11.243   5.554 -0.0749 -0.4327 -0.0894
   50MOL0     C 6797  13.823  11.300   5.672 -0.5130  0.0079  0.0679
   50MOL0     O 6798  13.960  11.289   5.700  0.5315  0.1149  0.5176
   50MOL0     C 6799  14.001  11.310   5.837 -0.8472 -0.3007  0.2214
   50MOL0     C 6800  14.159  11.293   5.846  0.8806 -0.5791 -0.7795
   50MOL0     C 6801  14.204  11.297   5.995  0.0549 -0.1807 -0.2192
   50MOL0     C 6802  14.331  11.219   6.014 -1.0671 -0.1642  0.5363
   50MOL0     C 6803  14.371  11.191   6.154 -0.5744 -0.0477 -0.8720
   50MOL0     C 6804  14.498  11.098   6.165  0.6332 -0.6203 -0.2447
   50MOL0     C 6805  14.609  11.100   6.057 -0.2116 -0.1911  0.6664
   50MOL0     C 6806  14.698  11.226   6.064  0.0313  0.3278 -0.6673
   50MOL0    Cl 6807  14.850  11.217   5.966  0.1959  0.3315  0.3416
   50MOL0     C 6808  13.727  11.353   5.759 -0.6215 -0.5450 -0.3908
   50MOL0     C 6809  13.599  11.371   5.712  0.0071 -0.7582  0.2926
   50MOL0     O 6810  13.342  11.503   5.633 -0.6010  0.2257 -0.4947
   50MOL0     C 6811  13.162  11.196   5.608 -0.0642  0.3938 -0.2097
   50MOL0     C 6812  13.030  11.135   5.621 -0.8486 -0.4282  0.1719
   50MOL0     N 6813  12.486  10.661   5.985  0.0572  0.0438 -0.2268
   50MOL0     N 6814  12.368  10.615   6.000  0.1104  0.0580 -0.2099
   50MOL0     C 6815  11.395   9.950   5.328  0.0755  0.4772  1.0471
   50MOL0     C 6816  11.283   9.903   5.272  0.0162 -0.0755  0.2029
   50MOL0     C 6817  10.876   9.746   5.161  0.0674  0.8328 -0.5692
   50MOL0     C 6818  10.792   9.740   5.279  0.3744  0.2385 -0.3412
   50MOL0     C 6819  10.658   9.704   5.277 -0.9312 -0.3208 -0.2280
   50MOL0     C 6820  10.593   9.669   5.160 -0.1413  0.2386  0.0977
   50MOL0     O 6821  10.463   9.641   5.166  0.2229 -0.2718  0.7193
   50MOL0     C 6822  10.403   9.605   5.034 -0.0072  0.2262  0.0985
   50MOL0     C 6823  10.259   9.548   5.062 -0.0726 -0.3075  0.3181
   50MOL0     C 6824  10.277   9.412   5.122  0.3659  0.3328  0.0727
   50MOL0     C 6825  10.144   9.356   5.189 -0.5170  0.2819  0.3238
   50MOL0     C 6826  10.084   9.450   5.285  0.0760  0.2383 -0.9343
   50MOL0     C 6827  10.029   9.523   5.368 -0.0706 -0.2963 -0.5289
   50MOL0     C 6828  10.664   9.689   5.047 -0.5342  0.3488  0.9404
   50MOL0     C 6829  10.805   9.727   5.038  0.1215 -0.0036 -0.1683
   50MOL0     C 6830  10.878   9.743   4.905  0.5470  1.8752  0.4642
   50MOL0     H 6831  11.118   9.817   5.564 -1.3175 -0.2611 -0.8830
   50MOL0     H 6832  11.325   9.907   5.659 -0.1088  0.7566 -0.7052
   50MOL0     H 6833  11.574  10.127   5.377 -1.1739 -0.7162 -0.0043
   50MOL0     H 6834  11.701   9.997   5.411 -0.9205 -1.2493  0.8766
   50MOL0     H 6835  11.767  10.231   5.487  0.9371 -2.9916  0.1356
   50MOL0     H 6836  11.630  10.243   5.586  0.7778  1.0764 -0.2426
   50MOL0     H 6837  11.707  10.014   5.706  1.8205 -0.9996  0.1011
   50MOL0     H 6838  11.848  10.033   5.606  0.1668 -2.2803  0.9682
   50MOL0     H 6839  11.783  10.245   5.821 -0.3494 -0.2524 -0.5061
   50MOL0     H 6840  11.880  10.099   5.841  0.6934  1.0315  1.0867
   50MOL0     H 6841  11.934  10.316   5.629  1.2252  0.3612  0.5925
   50MOL0     H 6842  12.043  10.185   5.695  0.5288 -0.0504  0.0215
   50MOL0     H 6843  11.931  10.429   5.845  0.5836 -1.0173  5.9043
   50MOL0     H 6844  12.020  10.301   5.908 -0.9583  1.3618  0.4347
   50MOL0     H 6845  12.153  10.457   5.668  0.0857 -1.4048  0.0201
   50MOL0     H 6846  12.209  10.342   5.793 -1.2288 -1.4627  1.3159
   50MOL0     H 6847  12.115  10.631   5.794  1.9889 -0.4793 -1.2869
   50MOL0     H 6848  12.109  10.544   5.953 -1.3341 -1.5293 -0.6826
   50MOL0     H 6849  12.397  10.609   5.672  0.4718 -1.9247  0.4144
   50MOL0     H 6850  12.663  10.707   5.685 -1.6418  0.6387  0.2393
   50MOL0     H 6851  12.724  10.649   5.839 -2.0573 -0.6656  1.5694
   50MOL0     H 6852  12.568  10.887   5.846 -1.2262 -1.0970  2.8846
   50MOL0     H 6853  12.719  10.839   5.937  0.5377  3.3104 -0.6324
   50MOL0     H 6854  12.844  10.856   5.716 -1.4740 -1.1284  0.2693
   50MOL0     H 6855  12.710  10.954   5.657 -4.4531  1.0250  3.0771
   50MOL0     H 6856  12.773  11.071   5.911  1.2028 -1.5221  0.8687
   50MOL0     H 6857  12.927  11.021   5.854  0.9947 -0.0452 -2.6592
   50MOL0     H 6858  12.898  11.370   5.830  0.0077 -0.3336  0.5795
   50MOL0     H 6859  13.164  11.527   5.878  0.3936 -1.7268 -0.5574
   50MOL0     H 6860  13.014  11.561   5.833 -1.5913 -2.9058  0.0237
   50MOL0     H 6861  13.143  11.610   5.718 -2.4228  2.1322  1.3231
   50MOL0     H 6862  13.602  11.181   5.430 -1.3280 -0.0824  0.0134
   50MOL0     H 6863  13.835  11.189   5.484  2.2304  0.8746  0.8652
   50MOL0     H 6864  13.981  11.412   5.871  0.6469  0.2251 -0.3701
   50MOL0     H 6865  13.957  11.237   5.905 -1.0330 -1.0554 -0.7041
   50MOL0     H 6866  14.178  11.193   5.806  1.9133 -0.0380 -1.6923
   50MOL0     H 6867  14.212  11.370   5.789  1.4176 -2.3184 -2.7845
   50MOL0     H 6868  14.126  11.264   6.064  0.7442  1.8824  1.6991
   50MOL0     H 6869  14.217  11.400   6.030 -1.9850  1.3487 -3.5873
   50MOL0     H 6870  14.417  11.274   5.976 -2.0485  0.3880 -1.0045
   50MOL0     H 6871  14.320  11.128   5.954  0.0300  0.5425 -0.8086
   50MOL0     H 6872  14.398  11.288   6.197  0.4562 -1.1478  1.0593
   50MOL0     H 6873  14.285  11.144   6.201 -0.1549 -1.3063 -1.3215
   50MOL0     H 6874  14.461  10.995   6.169 -0.8506 -0.0546  1.5455
   50MOL0     H 6875  14.539  11.125   6.262  1.9824 -0.5988 -0.7984
   50MOL0     H 6876  14.573  11.098   5.953  2.7588  2.2763 -0.5561
   50MOL0     H 6877  14.664  11.007   6.073 -1.5262 -0.7617  2.1025
   50MOL0     H 6878  14.718  11.250   6.168  1.7002  1.5673 -1.2312
   50MOL0     H 6879  14.637  11.312   6.036  0.4509  1.1733  0.9278
   50MOL0     H 6880  13.735  11.405   5.853  1.8328 -0.0100 -0.8301
   50MOL0     H 6881  13.531  11.427   5.775  1.6937  3.6598 -1.4080
   50MOL0     H 6882  13.233  11.135   5.553  0.7589  0.5823  0.6102
   50MOL0     H 6883  13.003  11.039   5.580 -0.6852  0.2339 -1.5527
   50MOL0     H 6884  11.466   9.994   5.258 -1.1761  0.8050 -0.0816
   50MOL0     H 6885  11.263   9.913   5.166 -2.5936  1.2592  0.7280
   50MOL0     H 6886  10.832   9.763   5.377  1.2048  0.0339 -0.6264
   50MOL0     H 6887  10.605   9.707   5.372 -0.3913  0.7568  0.0506
   50MOL0     H 6888  10.407   9.684   4.960  1.0639  1.8650  1.8115
   50MOL0     H 6889  10.459   9.521   4.992  0.2513  1.1788 -1.5230
   50MOL0     H 6890  10.208   9.552   4.965  2.0166  1.1745 -0.8380
   50MOL0     H 6891  10.212   9.617   5.132 -1.0671  2.3607 -2.7193
   50MOL0     H 6892  10.313   9.342   5.045 -0.6115  1.2955 -1.3154
   50MOL0     H 6893  10.343   9.420   5.208 -2.5701  2.1644  2.3379
   50MOL0     H 6894  10.173   9.259   5.232  1.4049  1.0323  0.8086
   50MOL0     H 6895  10.076   9.340   5.105 -0.1827 -0.1626  0.1364
   50MOL0     H 6896   9.991   9.571   5.457  1.8658 -1.7624  1.1774
   50MOL0     H 6897  10.621   9.666   4.950  1.3359 -1.6855  0.5026
   50MOL0     H 6898  10.927   9.840   4.894  2.6327  0.6313 -2.3617
   50MOL0     H 6899  10.941   9.656   4.884 -0.4378  1.0979  0.6088
   50MOL0     H 6900  10.801   9.749   4.827  1.2755  2.7001 -0.2044
   51MOL0     O 6901   2.811   1.006   1.883  0.0716  0.2202  0.4998
   51MOL0     C 6902   2.716   1.089   1.889  0.0091 -0.6921 -0.0400
   51MOL0     O 6903   2.726   1.223   1.871 -0.3185  0.1830 -0.8442
   51MOL0     C 6904   2.845   1.263   1.825 -0.1725  0.2768 -0.5498
   51MOL0     C 6905   2.966   1.241   1.894  0.0820 -0.6130  0.5633
   51MOL0     C 6906   3.087   1.289   1.842  0.5631  0.1384 -0.2928
   51MOL0     C 6907   3.095   1.357   1.726  0.9807 -0.3837  0.1333
   51MOL0     O 6908   3.213   1.413   1.678  0.2204  0.6138  0.8168
   51MOL0     C 6909   3.334   1.385   1.751  0.0046  0.0160 -0.1357
   51MOL0     C 6910   3.447   1.473   1.690 -0.5508 -0.7006 -0.1218
   51MOL0     C 6911   3.582   1.441   1.762 -0.0027 -0.5115 -0.0530
   51MOL0     C 6912   3.677   1.565   1.742 -0.3373  1.1242 -1.2774
   51MOL0     C 6913   3.821   1.513   1.785 -0.3490 -0.5879  0.7456
   51MOL0     C 6914   3.933   1.614   1.762 -0.2163 -1.0303 -0.6134
   51MOL0     C 6915   4.084   1.556   1.779  0.0142 -0.2338  0.2003
   51MOL0     C 6916   4.105   1.466   1.913  0.8843 -0.3504 -0.6841
   51MOL0     N 6917   4.249   1.463   1.940  0.0461  0.4868  0.0145
   51MOL0     C 6918   4.336   1.565   1.974 -0.0114 -0.7004  0.1895
   51MOL0     C 6919   4.465   1.520   1.952  0.3833  0.0886 -0.3616
   51MOL0     C 6920   4.588   1.606   1.993  0.2925  0.2092  0.4538
   51MOL0     C 6921   4.659   1.673   1.868 -0.6063  0.1934 -0.9007
   51MOL0     C 6922   4.720   1.571   1.772 -0.4856  0.3546 -0.5496
   51MOL0     C 6923   4.847   1.501   1.825  0.1236  0.1867  0.5849
   51MOL0     O 6924   4.961   1.590   1.839 -0.1763  0.1919 -0.0302
   51MOL0     C 6925   5.065   1.543   1.916  0.1537 -0.6559  0.5501
   51MOL0     C 6926   5.176   1.477   1.859  0.6274 -0.3924 -0.0561
   51MOL0     C 6927   5.277   1.423   1.948  0.3157  0.1257  0.1802
   51MOL0     C 6928   5.389   1.341   1.882 -0.1272  0.1899  0.7624
   51MOL0     C 6929   5.263   1.442   2.090  0.7578  0.0693 -0.5741
   51MOL0     C 6930   5.361   1.396   2.189 -0.4085 -0.3491 -0.1233
   51MOL0     O 6931   5.455   1.300   2.152  0.0181 -0.6676 -0.0641
   51MOL0     C 6932   5.559   1.270   2.242 -0.9771 -0.8800 -0.5448
   51MOL0     C 6933   5.648   1.373   2.282  0.3147 -0.3322 -0.0110
   51MOL0     C 6934   5.767   1.338   2.354  0.7915 -0.4243 -0.1858
   51MOL0     C 6935   5.796   1.207   2.384  0.8682 -0.1308  0.4814
   51MOL0     O 6936   5.894   1.164   2.479 -0.2816  0.2683  0.3552
   51MOL0     C 6937   5.947   1.260   2.574  0.2261 -0.5451  0.6345
   51MOL0     C 6938   6.092   1.220   2.620  0.0517 -0.4687  0.0320
   51MOL0     C 6939   6.097   1.101   2.720  0.6283 -0.0710  0.2946
   51MOL0     C 6940   6.238   1.089   2.790 -0.0735  0.4876 -0.2011
   51MOL0     C 6941   6.236   0.982   2.904 -0.4391 -0.3768 -0.1737
   51MOL0     C 6942   6.365   0.947   2.977  1.3046  0.2537 -0.1973
   51MOL0     C 6943   6.494   0.931   2.901 -0.5792  0.2790 -0.1820
   51MOL0     C 6944   6.590   0.840   2.975 -0.4603 -0.3230  0.4151
   51MOL0    Cl 6945   6.726   0.813   2.870 -0.4745  0.3004  0.0297
   51MOL0     C 6946   5.712   1.102   2.334  0.2499  0.5111  0.3754
   51MOL0     C 6947   5.598   1.133   2.265  0.7644  0.0281 -0.1271
   51MOL0     O 6948   5.348   1.450   2.295 -0.3298  0.7060 -0.0702
   51MOL0     C 6949   5.142   1.511   2.138  0.1377  0.6532  0.1180
   51MOL0     C 6950   5.058   1.561   2.045  0.3156  1.1576 -0.5147
   51MOL0     N 6951   4.452   1.391   1.899 -0.5445 -0.3082 -0.5106
   51MOL0     N 6952   4.324   1.357   1.893 -0.3230 -0.3109  0.1178
   51MOL0     C 6953   2.978   1.386   1.657  1.0785 -0.2256 -0.1316
   51MOL0     C 6954   2.852   1.336   1.706  0.1387 -0.0856 -0.4748
   51MOL0     C 6955   2.580   1.054   1.948  0.0806  0.1633  0.1250
   51MOL0     C 6956   2.470   1.142   1.929 -0.3356  0.6831 -0.3249
   51MOL0     C 6957   2.344   1.094   1.956  0.1988  0.8563  0.0201
   51MOL0     C 6958   2.320   0.971   2.016  0.2924  0.4849 -0.5796
   51MOL0     O 6959   2.194   0.919   2.050 -0.3899 -0.0690  0.2968
   51MOL0     C 6960   2.072   0.982   1.988 -0.0613  0.8186  0.8805
   51MOL0     C 6961   1.968   0.985   2.093  0.4997  0.0216 -0.1751
   51MOL0     C 6962   1.913   0.849   2.130  0.1343 -0.4086  0.1842
   51MOL0     C 6963   1.808   0.853   2.241  0.2914  0.1406 -0.2352
   51MOL0     C 6964   1.745   0.721   2.259  0.3529  0.0788  0.3354
   51MOL0     C 6965   1.702   0.606   2.283 -0.5171 -0.5707  0.5881
   51MOL0     C 6966   2.427   0.892   2.048  0.4963 -0.6904 -0.1731
   51MOL0     C 6967   2.555   0.936   2.026 -1.0967  0.5334  0.1059
   51MOL0     C 6968   2.658   0.844   2.092  0.9426 -0.6602 -0.3053
   51MOL0     H 6969   2.980   1.176   1.980 -1.1630 -2.4788 -0.5972
   51MOL0     H 6970   3.169   1.252   1.902 -1.4613 -0.9847  1.9850
   51MOL0     H 6971   3.360   1.279   1.740 -0.9329 -0.1963 -0.3831
   51MOL0     H 6972   3.333   1.404   1.859  2.7018 -0.3022  0.0303
   51MOL0     H 6973   3.466   1.447   1.586 -0.0320  0.8717 -0.4397
   51MOL0     H 6974   3.403   1.573   1.695 -0.4089 -0.6615  0.5479
   51MOL0     H 6975   3.580   1.399   1.863  2.0517 -1.3953 -0.3337
   51MOL0     H 6976   3.622   1.356   1.706 -2.9874 -2.0086 -0.1546
   51MOL0     H 6977   3.685   1.595   1.637 -0.4257 -2.2129 -2.3713
   51MOL0     H 6978   3.641   1.647   1.804  0.4803  0.0367  0.7580
   51MOL0     H 6979   3.839   1.431   1.715 -2.0022  1.0896 -1.8414
   51MOL0     H 6980   3.819   1.471   1.886 -2.0568 -2.8569 -0.1344
   51MOL0     H 6981   3.920   1.658   1.663  0.5312 -0.2238 -0.3634
   51MOL0     H 6982   3.934   1.694   1.836  0.9658 -0.3928 -1.2723
   51MOL0     H 6983   4.155   1.639   1.774  1.8052 -1.7667 -2.2165
   51MOL0     H 6984   4.110   1.497   1.691  1.3736  3.0654 -1.8263
   51MOL0     H 6985   4.042   1.503   1.995  0.7021  1.6422 -1.6661
   51MOL0     H 6986   4.063   1.368   1.892 -5.3965  1.5801  0.8167
   51MOL0     H 6987   4.317   1.657   2.029 -2.3054 -1.4099  0.6686
   51MOL0     H 6988   4.655   1.533   2.039  0.8115  0.4288  0.0593
   51MOL0     H 6989   4.568   1.675   2.076  3.3611 -0.2181  1.6730
   51MOL0     H 6990   4.584   1.738   1.821 -1.3777 -1.1897 -1.6212
   51MOL0     H 6991   4.738   1.734   1.913 -0.5885 -1.4478  1.4730
   51MOL0     H 6992   4.648   1.493   1.744  0.3163  0.2855 -2.6239
   51MOL0     H 6993   4.753   1.617   1.678  4.6047 -1.1727  0.1873
   51MOL0     H 6994   4.830   1.449   1.920 -3.5496  0.2877  0.1245
   51MOL0     H 6995   4.869   1.421   1.754  3.8280 -0.6848  2.4491
   51MOL0     H 6996   5.175   1.477   1.750 -3.7505 -1.3724 -0.2051
   51MOL0     H 6997   5.473   1.409   1.865 -0.3427  0.1845 -0.3584
   51MOL0     H 6998   5.347   1.308   1.787  0.0610 -0.6001  0.9429
   51MOL0     H 6999   5.425   1.247   1.925  0.2916  0.4625  1.0267
   51MOL0     H 7000   5.638   1.480   2.265 -2.9436  0.4435  4.7462
   51MOL0     H 7001   5.825   1.424   2.387 -0.6498  1.2072 -1.6706
   51MOL0     H 7002   5.948   1.360   2.531  3.2489 -0.8910 -0.3460
   51MOL0     H 7003   5.889   1.258   2.667  1.7509 -0.2405  1.6266
   51MOL0     H 7004   6.146   1.187   2.531 -1.7315  1.2236 -1.7672
   51MOL0     H 7005   6.139   1.309   2.664 -2.1673  0.2327  1.1643
   51MOL0     H 7006   6.079   1.013   2.658  2.7218 -0.8993  0.8059
   51MOL0     H 7007   6.016   1.115   2.793  0.6913  2.2900 -0.0013
   51MOL0     H 7008   6.265   1.190   2.822 -3.0703  1.7269 -1.2641
   51MOL0     H 7009   6.306   1.058   2.709  1.8868 -1.3771  2.0044
   51MOL0     H 7010   6.156   1.013   2.972  0.4054  1.5241  0.0201
   51MOL0     H 7011   6.208   0.897   2.841 -1.6891  0.7228 -1.1833
   51MOL0     H 7012   6.338   0.859   3.036  0.4381 -0.6736 -1.8963
   51MOL0     H 7013   6.386   1.027   3.049 -0.5441 -0.7484  1.5929
   51MOL0     H 7014   6.539   1.030   2.885 -0.0727  0.1980  0.6604
   51MOL0     H 7015   6.472   0.893   2.801 -0.4082  0.6299 -0.3531
   51MOL0     H 7016   6.553   0.741   3.001 -1.6777 -0.5283 -1.8336
   51MOL0     H 7017   6.615   0.890   3.069 -0.3873  0.0606  0.1955
   51MOL0     H 7018   5.729   0.995   2.344 -0.9240  0.2451 -0.2280
   51MOL0     H 7019   5.545   1.043   2.234  1.8502 -0.6614 -0.0284
   51MOL0     H 7020   5.129   1.538   2.242  1.2049 -0.1760  0.4878
   51MOL0     H 7021   4.975   1.608   2.097 -1.7336 -3.1234  0.4948
   51MOL0     H 7022   2.992   1.450   1.570 -2.1030  2.7210  1.2823
   51MOL0     H 7023   2.763   1.358   1.649 -0.9125 -1.1844  0.6664
   51MOL0     H 7024   2.482   1.242   1.889  0.7330  1.3249  1.4731
   51MOL0     H 7025   2.260   1.158   1.933 -1.2111 -0.1128  2.1699
   51MOL0     H 7026   2.091   1.085   1.955  2.2905  0.4480  0.8564
   51MOL0     H 7027   2.034   0.926   1.902 -0.9652  0.1134  1.7149
   51MOL0     H 7028   1.890   1.056   2.066  0.1058  0.1418  1.1860
   51MOL0     H 7029   2.003   1.029   2.187 -3.4384  0.4870  1.2394
   51MOL0     H 7030   1.850   0.804   2.052 -0.1788 -3.5794  2.0761
   51MOL0     H 7031   1.994   0.778   2.153 -1.1987 -3.7308 -4.0012
   51MOL0     H 7032   1.739   0.935   2.217  0.6648  0.5760  0.1580
   51MOL0     H 7033   1.860   0.872   2.335 -2.0959 -0.3602  1.2794
   51MOL0     H 7034   1.690   0.505   2.317  4.1516 -1.1273  1.2676
   51MOL0     H 7035   2.407   0.801   2.104  1.1555  0.8788  2.8495
   51MOL0     H 7036   2.616   0.807   2.186  1.2442  0.0661  0.1212
   51MOL0     H 7037   2.663   0.755   2.029 -0.1103 -0.5475 -0.5769
   51MOL0     H 7038   2.753   0.895   2.105 -0.5870  2.0473  0.9448
   52MOL0     O 7039   1.296   4.096   3.774 -0.6727  0.2660 -0.3249
   52MOL0     C 7040   1.221   4.032   3.851  0.0815 -0.5941  0.2773
   52MOL0     O 7041   1.264   3.939   3.943 -0.0100 -0.4891 -0.6935
   52MOL0     C 7042   1.385   3.880   3.922 -0.7761 -0.4015  0.1171
   52MOL0     C 7043   1.419   3.822   3.797  0.7266 -0.4661  0.4780
   52MOL0     C 7044   1.546   3.778   3.764 -0.8598  0.0620 -0.3100
   52MOL0     C 7045   1.646   3.802   3.861 -0.8132  0.2513 -0.4645
   52MOL0     O 7046   1.783   3.784   3.836 -0.0308 -0.0901  0.9356
   52MOL0     C 7047   1.833   3.665   3.770 -0.1206 -0.6387  0.1039
   52MOL0     C 7048   1.988   3.659   3.768  0.6012 -0.4541  0.0021
   52MOL0     C 7049   2.053   3.684   3.912  0.0348 -0.3447  0.1662
   52MOL0     C 7050   2.195   3.634   3.909 -0.2244  0.6113 -1.0194
   52MOL0     C 7051   2.263   3.639   4.056 -0.1138  0.5396  0.5527
   52MOL0     C 7052   2.413   3.589   4.057  0.2833 -0.7927 -0.0214
   52MOL0     C 7053   2.456   3.539   4.206  0.6508 -0.3856 -0.0750
   52MOL0     C 7054   2.593   3.483   4.204 -0.5930  0.1048  0.7761
   52MOL0     N 7055   2.601   3.386   4.312  0.4099  0.0028  0.5346
   52MOL0     C 7056   2.680   3.272   4.298  1.0246 -0.6434  0.2693
   52MOL0     C 7057   2.669   3.214   4.421 -0.3061 -0.7435  0.1692
   52MOL0     C 7058   2.724   3.083   4.466 -0.0344  0.1600 -0.8414
   52MOL0     C 7059   2.620   2.993   4.531  0.6540  1.1675  0.6688
   52MOL0     C 7060   2.682   2.856   4.572  0.0967 -0.4820 -0.9708
   52MOL0     C 7061   2.641   2.735   4.482 -0.0278 -0.8104 -0.0301
   52MOL0     O 7062   2.688   2.751   4.346  0.0396 -0.1593 -0.2681
   52MOL0     C 7063   2.783   2.659   4.313 -0.3551  0.2609  1.0049
   52MOL0     C 7064   2.897   2.621   4.379 -0.6642 -0.4090  0.4125
   52MOL0     C 7065   2.993   2.524   4.339 -0.5249  0.5630  0.4762
   52MOL0     C 7066   3.107   2.481   4.434 -0.1258 -0.4356  0.2081
   52MOL0     C 7067   2.966   2.457   4.216  0.7621  0.1635  0.1302
   52MOL0     C 7068   3.061   2.357   4.155  0.2376 -0.0906  0.5887
   52MOL0     O 7069   3.183   2.331   4.209  0.0801  0.0860  0.3335
   52MOL0     C 7070   3.287   2.310   4.120  0.1325  0.1459  0.2620
   52MOL0     C 7071   3.295   2.353   3.985  0.3659 -0.5055 -0.8607
   52MOL0     C 7072   3.408   2.313   3.904  0.0708 -0.8133  0.0684
   52MOL0     C 7073   3.519   2.243   3.964  0.5460  0.1613 -0.7629
   52MOL0     O 7074   3.637   2.207   3.906 -0.5596 -0.0010  0.2793
   52MOL0     C 7075   3.670   2.255   3.774 -0.3712  0.0551 -0.5487
   52MOL0     C 7076   3.809   2.205   3.739 -0.3266  0.0567  0.0895
   52MOL0     C 7077   3.860   2.235   3.597  0.4532 -0.2265  0.1181
   52MOL0     C 7078   4.017   2.223   3.605 -0.6530 -0.1352 -0.6601
   52MOL0     C 7079   4.086   2.205   3.468 -0.6660  0.3043  0.1996
   52MOL0     C 7080   4.237   2.210   3.468 -0.6633  0.1196 -0.2762
   52MOL0     C 7081   4.305   2.219   3.332  0.5251  0.7965  0.3815
   52MOL0     C 7082   4.452   2.276   3.342  0.4778  0.1360  0.1998
   52MOL0    Cl 7083   4.518   2.294   3.172 -0.2444  0.1222 -0.1811
   52MOL0     C 7084   3.506   2.195   4.094 -0.0584  0.5728 -0.0026
   52MOL0     C 7085   3.396   2.233   4.170 -0.7404 -0.4124 -0.3607
   52MOL0     O 7086   3.016   2.303   4.052  0.0900  0.3437 -0.4637
   52MOL0     C 7087   2.853   2.498   4.146 -0.6678  0.5213 -0.3143
   52MOL0     C 7088   2.759   2.587   4.196  0.8385 -0.3594 -0.8790
   52MOL0     N 7089   2.588   3.295   4.506 -0.7712  0.5934 -0.5006
   52MOL0     N 7090   2.557   3.396   4.439  0.3307 -0.2046 -1.1623
   52MOL0     C 7091   1.618   3.869   3.977  0.1539 -0.4461 -0.0695
   52MOL0     C 7092   1.489   3.907   4.008 -0.6165 -0.0458 -0.4962
   52MOL0     C 7093   1.073   4.075   3.864  0.8731 -0.0723 -0.0862
   52MOL0     C 7094   1.008   4.088   3.989 -0.2472  0.2925  0.0023
   52MOL0     C 7095   0.883   4.140   3.997 -0.5875 -0.7831  0.1873
   52MOL0     C 7096   0.805   4.168   3.885  0.4486  0.4048 -0.4099
   52MOL0     O 7097   0.673   4.210   3.882  0.1388 -0.0918 -0.6001
   52MOL0     C 7098   0.637   4.294   3.992  0.0786 -0.5334  0.8635
   52MOL0     C 7099   0.538   4.391   3.931 -0.4163 -0.7042  0.0794
   52MOL0     C 7100   0.412   4.335   3.861 -0.4555  0.5256  0.6261
   52MOL0     C 7101   0.355   4.437   3.761 -0.4157 -0.0988 -0.4328
   52MOL0     C 7102   0.230   4.392   3.699  0.5886 -0.1986 -0.1488
   52MOL0     C 7103   0.120   4.384   3.655 -0.7061 -0.4047 -0.3063
   52MOL0     C 7104   0.866   4.138   3.762  0.4147  0.9905 -1.1459
   52MOL0     C 7105   0.995   4.098   3.752 -0.2667 -0.1187 -0.2115
   52MOL0     C 7106   1.044   4.061   3.624  0.1914 -0.5411  0.0791
   52MOL0     H 7107   1.333   3.790   3.739  0.4684  1.6072 -0.3596
   52MOL0     H 7108   1.577   3.741   3.667 -0.3053  1.2748 -0.6201
   52MOL0     H 7109   1.800   3.655   3.666  1.9126 -2.1230 -0.4496
   52MOL0     H 7110   1.792   3.573   3.813 -2.1751 -1.2014 -2.7877
   52MOL0     H 7111   2.008   3.556   3.739 -2.3081 -1.1860  0.2294
   52MOL0     H 7112   2.025   3.731   3.694  2.1612  1.4930  2.5070
   52MOL0     H 7113   2.042   3.789   3.942  0.8983  0.8398 -3.1761
   52MOL0     H 7114   2.011   3.622   3.991 -1.1259 -2.2451 -1.8469
   52MOL0     H 7115   2.193   3.532   3.868  1.1597  0.3530 -0.5067
   52MOL0     H 7116   2.249   3.700   3.840 -1.7716  1.6690 -1.2585
   52MOL0     H 7117   2.208   3.564   4.115  0.1194  0.0220  0.1191
   52MOL0     H 7118   2.262   3.733   4.111  1.5386  1.0895 -0.3028
   52MOL0     H 7119   2.427   3.512   3.981 -0.6801 -1.5944  0.5861
   52MOL0     H 7120   2.469   3.681   4.035 -0.6495  0.7089  3.2180
   52MOL0     H 7121   2.389   3.460   4.239  1.2329 -1.3803 -1.2270
   52MOL0     H 7122   2.444   3.620   4.279 -0.9741 -1.7283  1.2168
   52MOL0     H 7123   2.618   3.433   4.110  0.7673  0.6245  0.8453
   52MOL0     H 7124   2.664   3.566   4.213 -0.4467  0.1134 -0.3432
   52MOL0     H 7125   2.741   3.239   4.215 -0.3844 -0.7472 -0.7769
   52MOL0     H 7126   2.803   3.099   4.541  0.1220 -1.4519 -0.6275
   52MOL0     H 7127   2.771   3.042   4.376  1.4365 -1.1657  0.4474
   52MOL0     H 7128   2.586   3.047   4.620  1.0367  1.0838  0.8696
   52MOL0     H 7129   2.539   2.973   4.460  1.5998  0.9500 -0.3786
   52MOL0     H 7130   2.790   2.867   4.582 -0.0989  0.6769  0.1024
   52MOL0     H 7131   2.645   2.839   4.674  0.4673 -1.9917 -1.0673
   52MOL0     H 7132   2.669   2.635   4.516  0.0440 -0.2821  1.5328
   52MOL0     H 7133   2.534   2.741   4.499  0.0687  2.1319  0.0838
   52MOL0     H 7134   2.915   2.666   4.476 -1.0018  1.6813 -0.4429
   52MOL0     H 7135   3.201   2.495   4.380 -1.0735 -0.0489 -1.4262
   52MOL0     H 7136   3.094   2.375   4.460  1.2239 -0.4330  0.9590
   52MOL0     H 7137   3.106   2.537   4.527  0.2114  0.1548 -0.1391
   52MOL0     H 7138   3.221   2.413   3.933  1.8644  0.1832 -2.3001
   52MOL0     H 7139   3.413   2.329   3.796  1.4233 -1.1548  0.0605
   52MOL0     H 7140   3.600   2.227   3.695 -1.4917 -1.1951  0.8334
   52MOL0     H 7141   3.669   2.364   3.763 -0.4636 -0.0167 -1.2878
   52MOL0     H 7142   3.869   2.251   3.818 -1.5012 -1.8487  2.1842
   52MOL0     H 7143   3.817   2.097   3.751  1.6650  0.1282 -0.2043
   52MOL0     H 7144   3.824   2.334   3.567 -0.5067 -0.7887 -0.6187
   52MOL0     H 7145   3.818   2.164   3.526 -1.3273  1.3384 -0.4930
   52MOL0     H 7146   4.032   2.134   3.667 -2.8713  0.3512  0.7065
   52MOL0     H 7147   4.069   2.305   3.654  0.5684 -0.6777 -1.0208
   52MOL0     H 7148   4.050   2.109   3.430  0.0094 -0.7722  2.1087
   52MOL0     H 7149   4.063   2.291   3.405  1.9309  1.2437  0.4101
   52MOL0     H 7150   4.281   2.124   3.521 -1.5294  2.3124  4.5566
   52MOL0     H 7151   4.260   2.305   3.518 -1.9772  0.5112 -0.3961
   52MOL0     H 7152   4.241   2.280   3.269 -0.0744  0.6937  0.8736
   52MOL0     H 7153   4.304   2.117   3.291  0.5164  1.2827 -0.8586
   52MOL0     H 7154   4.507   2.209   3.408 -2.3923 -3.3052 -0.6212
   52MOL0     H 7155   4.454   2.374   3.390  4.5339 -0.1361  0.9343
   52MOL0     H 7156   3.575   2.132   4.149 -3.7273 -2.0933  1.9800
   52MOL0     H 7157   3.401   2.223   4.278 -0.7298 -1.8302 -0.4700
   52MOL0     H 7158   2.818   2.451   4.055 -0.8043  0.1487 -0.0686
   52MOL0     H 7159   2.668   2.608   4.140  0.4261 -0.7899 -0.3834
   52MOL0     H 7160   1.700   3.898   4.042 -0.4930  0.8345  0.2078
   52MOL0     H 7161   1.475   3.958   4.103 -0.1061 -0.5913 -0.1255
   52MOL0     H 7162   1.058   4.073   4.084 -2.3609 -1.1392  0.9453
   52MOL0     H 7163   0.852   4.164   4.098 -0.7403  1.7685 -0.3890
   52MOL0     H 7164   0.594   4.243   4.079  1.5552  0.5193  2.2513
   52MOL0     H 7165   0.718   4.359   4.024  0.0921  0.5963 -1.2927
   52MOL0     H 7166   0.588   4.440   3.847  2.0641 -1.8976  0.7533
   52MOL0     H 7167   0.511   4.474   3.996 -1.2052 -2.0783  1.5763
   52MOL0     H 7168   0.425   4.243   3.805 -2.1860 -0.6744  2.0836
   52MOL0     H 7169   0.336   4.314   3.937  1.1206 -0.1221  2.0883
   52MOL0     H 7170   0.429   4.459   3.684 -2.9970  1.4463 -2.6802
   52MOL0     H 7171   0.337   4.530   3.816  0.4417 -1.0103  1.4712
   52MOL0     H 7172   0.018   4.395   3.626 -0.8060  1.3178  0.5644
   52MOL0     H 7173   0.799   4.140   3.677  0.4024  0.8479 -1.1393
   52MOL0     H 7174   1.086   3.961   3.613 -1.6569 -1.1392 -2.3273
   52MOL0     H 7175   0.966   4.079   3.549 -0.4449  0.9166  1.0394
   52MOL0     H 7176   1.121   4.133   3.592  0.7613 -0.9873  0.4219
   53MOL0     O 7177   1.069   3.377   0.088  0.3579 -0.7881 -0.0473
   53MOL0     C 7178   0.999   3.279   0.071 -0.0864  0.5431 -0.3120
   53MOL0     O 7179   1.041   3.158   0.020  0.4320 -0.1787  0.0419
   53MOL0     C 7180   1.172   3.152  -0.013 -0.1121 -0.4119 -0.5275
   53MOL0     C 7181   1.270   3.167   0.082  0.2691  0.2111  0.1015
   53MOL0     C 7182   1.407   3.170   0.039  0.3034  0.1060  0.3567
   53MOL0     C 7183   1.443   3.132  -0.088  0.6536 -0.7488 -0.4145
   53MOL0     O 7184   1.566   3.128  -0.145  0.2857  0.7499  0.3307
   53MOL0     C 7185   1.675   3.195  -0.082 -0.4566  0.2987 -0.6738
   53MOL0     C 7186   1.818   3.163  -0.143  0.1544  0.2050  0.1255
   53MOL0     C 7187   1.841   3.204  -0.288 -0.5553  0.3735  0.2995
   53MOL0     C 7188   1.995   3.186  -0.318  0.3029  0.0883  0.4016
   53MOL0     C 7189   2.040   3.237  -0.448  0.1314  0.3795  0.6376
   53MOL0     C 7190   2.009   3.131  -0.568  0.7585  0.7326 -0.5213
   53MOL0     C 7191   2.023   3.188  -0.710 -0.1895  0.0917 -0.1693
   53MOL0     C 7192   2.157   3.259  -0.736 -0.6420  0.5649  0.4490
   53MOL0     N 7193   2.157   3.349  -0.857  0.2398  0.6205 -0.7249
   53MOL0     C 7194   2.112   3.479  -0.834  0.3747 -0.5695  0.2900
   53MOL0     C 7195   2.110   3.530  -0.962  0.7504  0.2694 -0.1478
   53MOL0     C 7196   2.064   3.673  -1.000  0.2510 -0.4739 -0.2564
   53MOL0     C 7197   2.173   3.746  -1.091  1.1244 -0.3453  0.1992
   53MOL0     C 7198   2.313   3.757  -1.026  0.4238 -0.4736  0.3053
   53MOL0     C 7199   2.305   3.804  -0.876  0.1653  0.1061  0.3886
   53MOL0     O 7200   2.435   3.838  -0.835  0.0397  0.0175 -1.2130
   53MOL0     C 7201   2.520   3.734  -0.800  0.3539  0.1696 -0.0476
   53MOL0     C 7202   2.487   3.603  -0.775  0.0923 -0.5132  0.6433
   53MOL0     C 7203   2.579   3.505  -0.761 -0.3508  0.2249 -0.5974
   53MOL0     C 7204   2.527   3.375  -0.736 -0.3858  0.4961  0.1749
   53MOL0     C 7205   2.715   3.543  -0.746 -0.4082  0.1333  0.4919
   53MOL0     C 7206   2.826   3.444  -0.709  0.3517 -0.1463 -0.0541
   53MOL0     O 7207   2.796   3.309  -0.691  0.2452 -0.2683 -0.3459
   53MOL0     C 7208   2.887   3.226  -0.633 -0.2789  0.6963  0.6052
   53MOL0     C 7209   3.021   3.227  -0.652 -0.3177  0.4420 -0.0062
   53MOL0     C 7210   3.107   3.129  -0.586 -0.0337 -0.2392  0.1367
   53MOL0     C 7211   3.061   3.033  -0.498  0.1656 -0.3420  0.3652
   53MOL0     O 7212   3.145   2.952  -0.430  0.0552  0.5345 -0.3486
   53MOL0     C 7213   3.132   2.816  -0.475 -0.6566  1.0667 -0.6012
   53MOL0     C 7214   3.260   2.741  -0.428  0.3210 -1.0357  0.8277
   53MOL0     C 7215   3.380   2.777  -0.525 -0.1568 -0.5823 -0.4883
   53MOL0     C 7216   3.518   2.735  -0.461 -0.2662  0.5990 -0.3951
   53MOL0     C 7217   3.623   2.738  -0.562 -0.2907 -0.4357 -0.1281
   53MOL0     C 7218   3.768   2.704  -0.511  0.5263 -0.6392  0.4369
   53MOL0     C 7219   3.821   2.812  -0.411 -0.3001  0.6828  0.0960
   53MOL0     C 7220   3.959   2.773  -0.360 -0.7503  0.1082 -0.8592
   53MOL0    Cl 7221   4.073   2.703  -0.487 -0.4060  0.2673  0.1723
   53MOL0     C 7222   2.925   3.023  -0.487  0.8249  0.5545  0.0036
   53MOL0     C 7223   2.839   3.118  -0.553  0.6489  0.1071 -0.6015
   53MOL0     O 7224   2.933   3.504  -0.695 -0.3314 -0.2417 -0.6472
   53MOL0     C 7225   2.754   3.679  -0.774  0.6507 -0.2299 -0.0469
   53MOL0     C 7226   2.656   3.771  -0.796  0.2342  0.6072  0.4890
   53MOL0     N 7227   2.155   3.430  -1.051 -0.5583  0.2018 -0.3950
   53MOL0     N 7228   2.191   3.322  -0.989 -0.9102 -0.2421  0.8980
   53MOL0     C 7229   1.346   3.116  -0.182  0.6538 -0.1873  0.0197
   53MOL0     C 7230   1.213   3.111  -0.139 -0.1512  0.0565 -0.2053
   53MOL0     C 7231   0.854   3.285   0.114 -0.1755 -0.0261  0.6369
   53MOL0     C 7232   0.802   3.413   0.143  0.1049 -0.0474 -0.6199
   53MOL0     C 7233   0.667   3.427   0.184 -1.1003 -0.2726  0.2209
   53MOL0     C 7234   0.579   3.324   0.193 -0.6640  0.8659  0.7188
   53MOL0     O 7235   0.449   3.330   0.222  0.4693  0.0160  0.6669
   53MOL0     C 7236   0.380   3.458   0.227 -0.2362 -0.2114 -0.5811
   53MOL0     C 7237   0.232   3.424   0.250 -0.3563 -0.3780  0.0055
   53MOL0     C 7238   0.171   3.335   0.140 -0.2769  0.3147  0.2522
   53MOL0     C 7239   0.172   3.408   0.003 -0.5289 -0.0902  0.0081
   53MOL0     C 7240   0.114   3.547   0.005 -0.0249  0.1295  0.6540
   53MOL0     C 7241   0.088   3.666   0.003 -0.2238  0.1175  0.4919
   53MOL0     C 7242   0.629   3.198   0.161 -0.5009 -0.4700 -0.6201
   53MOL0     C 7243   0.762   3.173   0.123 -0.7436 -0.2860  0.1122
   53MOL0     C 7244   0.795   3.033   0.094 -0.4667 -0.0437  0.0422
   53MOL0     H 7245   1.255   3.190   0.186  0.7138  0.8309  0.0345
   53MOL0     H 7246   1.489   3.194   0.105  0.0675  0.8905  0.3826
   53MOL0     H 7247   1.689   3.159   0.020 -1.4796 -0.9161 -0.9230
   53MOL0     H 7248   1.657   3.302  -0.074  2.2985  0.6876  1.8369
   53MOL0     H 7249   1.884   3.217  -0.074 -1.1751  0.4741  1.2497
   53MOL0     H 7250   1.836   3.056  -0.132 -0.7352  0.0475  0.1286
   53MOL0     H 7251   1.777   3.131  -0.339  0.0935 -2.8104  3.5677
   53MOL0     H 7252   1.815   3.307  -0.314 -1.5744  0.0761  0.0764
   53MOL0     H 7253   2.051   3.239  -0.240 -2.4054  3.9602 -0.0301
   53MOL0     H 7254   2.025   3.081  -0.307 -0.1183  0.0785  1.6484
   53MOL0     H 7255   2.149   3.242  -0.450  0.1146  0.5800 -0.7748
   53MOL0     H 7256   1.991   3.333  -0.466  3.4742  1.8616 -1.4522
   53MOL0     H 7257   2.059   3.034  -0.563  1.9010  1.2646 -1.2196
   53MOL0     H 7258   1.902   3.110  -0.556  0.8086  0.6609 -0.1783
   53MOL0     H 7259   1.948   3.265  -0.729 -1.1135 -0.7717 -0.0731
   53MOL0     H 7260   2.015   3.107  -0.783  0.0465 -0.6349  0.5931
   53MOL0     H 7261   2.190   3.314  -0.648  1.6489  0.6775 -0.4070
   53MOL0     H 7262   2.237   3.185  -0.746  0.2431  0.9393  3.7240
   53MOL0     H 7263   2.083   3.535  -0.746  2.2327  1.0644 -0.0543
   53MOL0     H 7264   2.043   3.724  -0.906 -0.4202 -0.1565 -0.5709
   53MOL0     H 7265   1.964   3.664  -1.045 -0.7108 -1.3515  1.9052
   53MOL0     H 7266   2.171   3.709  -1.194  0.2028 -2.5460  0.9517
   53MOL0     H 7267   2.128   3.845  -1.090  1.7222 -0.0697  1.2021
   53MOL0     H 7268   2.364   3.660  -1.035  2.6575  0.6786 -0.2207
   53MOL0     H 7269   2.376   3.835  -1.069  0.7813 -0.7776  0.2673
   53MOL0     H 7270   2.241   3.891  -0.894  0.8285  0.4358 -0.4553
   53MOL0     H 7271   2.258   3.738  -0.802 -0.5400 -0.3342 -0.4291
   53MOL0     H 7272   2.386   3.565  -0.790  1.8510 -4.4255 -3.7489
   53MOL0     H 7273   2.419   3.378  -0.750 -0.1187  1.4329 -2.1594
   53MOL0     H 7274   2.559   3.338  -0.638  0.2076 -0.1731 -0.2591
   53MOL0     H 7275   2.561   3.308  -0.816 -2.7648 -1.3831  0.6354
   53MOL0     H 7276   3.078   3.287  -0.722 -1.8949  0.7266 -1.1081
   53MOL0     H 7277   3.215   3.128  -0.596  0.4167 -0.8115  3.6718
   53MOL0     H 7278   3.044   2.767  -0.431  0.3313  1.0552  1.4728
   53MOL0     H 7279   3.125   2.811  -0.584  1.8521  0.6515 -0.8041
   53MOL0     H 7280   3.286   2.767  -0.325  1.8562 -0.6690  0.3759
   53MOL0     H 7281   3.242   2.633  -0.437 -0.8303 -0.9893  2.0711
   53MOL0     H 7282   3.380   2.885  -0.539 -3.2450 -0.6870 -2.3341
   53MOL0     H 7283   3.368   2.734  -0.625  0.1936  2.5950 -2.0097
   53MOL0     H 7284   3.500   2.636  -0.417  0.1192  0.9063  0.4713
   53MOL0     H 7285   3.543   2.795  -0.373 -0.2215  0.7139 -0.4873
   53MOL0     H 7286   3.594   2.662  -0.635 -1.0553  0.1446 -0.4298
   53MOL0     H 7287   3.622   2.837  -0.608 -1.0256  0.8720  2.5244
   53MOL0     H 7288   3.830   2.688  -0.599  4.3628 -2.3281  3.1818
   53MOL0     H 7289   3.765   2.604  -0.468 -0.7331 -1.1638 -0.8165
   53MOL0     H 7290   3.757   2.822  -0.323 -0.3892 -1.3955  0.3134
   53MOL0     H 7291   3.827   2.900  -0.476  1.8623 -0.6585 -1.6803
   53MOL0     H 7292   3.946   2.696  -0.283  3.1284  0.3286  0.2248
   53MOL0     H 7293   3.996   2.865  -0.314  0.2347  1.2717 -3.7297
   53MOL0     H 7294   2.873   2.942  -0.437 -0.2497 -0.1128 -2.0976
   53MOL0     H 7295   2.731   3.120  -0.549  0.6282  0.9639 -1.1879
   53MOL0     H 7296   2.850   3.727  -0.757  0.8910 -0.9878  0.8164
   53MOL0     H 7297   2.685   3.875  -0.810  0.8590  0.4443  0.5581
   53MOL0     H 7298   1.373   3.093  -0.284 -1.5423  0.6667 -0.8161
   53MOL0     H 7299   1.136   3.103  -0.214 -1.5734 -2.6322  1.3725
   53MOL0     H 7300   0.868   3.499   0.134 -0.0054 -0.1341 -2.9423
   53MOL0     H 7301   0.642   3.531   0.206 -0.0172  0.8382 -3.1822
   53MOL0     H 7302   0.402   3.531   0.305 -0.1913 -0.4833 -0.3381
   53MOL0     H 7303   0.397   3.508   0.131  1.5622  0.5112  0.0861
   53MOL0     H 7304   0.182   3.521   0.259 -0.8832 -0.6588  0.2173
   53MOL0     H 7305   0.205   3.382   0.348  0.9404  0.2874  0.6705
   53MOL0     H 7306   0.217   3.237   0.124  3.1408  1.8543 -0.2740
   53MOL0     H 7307   0.064   3.327   0.161 -0.0639 -0.1590  1.2476
   53MOL0     H 7308   0.101   3.350  -0.059 -2.3002  0.5357  1.3726
   53MOL0     H 7309   0.272   3.407  -0.041 -0.3609  1.0659  0.3555
   53MOL0     H 7310   0.068   3.771  -0.001  3.6484  1.0042  0.5399
   53MOL0     H 7311   0.562   3.114   0.177 -1.1129  0.5527  3.2148
   53MOL0     H 7312   0.876   3.002   0.160 -0.1362  3.8514  1.7837
   53MOL0     H 7313   0.709   2.970   0.119  0.7446 -1.2704  1.2859
   53MOL0     H 7314   0.817   3.026  -0.013 -2.4397  1.6368 -0.5481
   54MOL0     O 7315   6.347   3.070   9.398  0.2892  0.0173 -0.1737
   54MOL0     C 7316   6.306   3.020   9.508 -1.0603 -0.2602 -0.0645
   54MOL0     O 7317   6.236   3.092   9.602  0.0018  0.0471 -0.0754
   54MOL0     C 7318   6.197   3.214   9.569  0.1005 -0.5130  0.6415
   54MOL0     C 7319   6.098   3.239   9.473 -0.3025 -0.1451  0.3706
   54MOL0     C 7320   6.063   3.369   9.435  0.0861  0.2710  0.2003
   54MOL0     C 7321   6.145   3.477   9.477 -0.0949 -0.3904  0.3162
   54MOL0     O 7322   6.113   3.600   9.424 -0.3741  0.4983  0.3210
   54MOL0     C 7323   6.197   3.720   9.430  0.1767  0.2546  0.2018
   54MOL0     C 7324   6.126   3.807   9.339 -0.0516  0.1966  0.9796
   54MOL0     C 7325   6.001   3.875   9.396  0.4268 -0.1495 -0.3640
   54MOL0     C 7326   5.944   3.985   9.299  0.1140 -0.9318  0.2133
   54MOL0     C 7327   5.858   4.080   9.381  0.4845  0.2189 -0.9003
   54MOL0     C 7328   5.825   4.210   9.312  0.1978  0.4628 -0.3546
   54MOL0     C 7329   5.743   4.314   9.405 -0.2091  0.1511  0.4398
   54MOL0     C 7330   5.591   4.285   9.412 -0.4408 -0.9528 -0.3945
   54MOL0     N 7331   5.532   4.388   9.499  0.7090  0.0597 -0.0743
   54MOL0     C 7332   5.535   4.525   9.486 -0.5415 -0.6289 -0.4038
   54MOL0     C 7333   5.497   4.571   9.608  0.3018  0.1514 -0.3451
   54MOL0     C 7334   5.486   4.711   9.655 -0.0068 -0.0655  0.1048
   54MOL0     C 7335   5.616   4.786   9.654 -0.0326  0.7505  0.0623
   54MOL0     C 7336   5.713   4.757   9.765 -0.8974  0.0121  0.4738
   54MOL0     C 7337   5.774   4.614   9.770  0.8621  0.1848 -0.1174
   54MOL0     O 7338   5.845   4.597   9.648 -0.1772  0.1710  0.3273
   54MOL0     C 7339   5.916   4.479   9.632 -0.6502 -0.5340  0.8371
   54MOL0     C 7340   6.002   4.489   9.526  0.2531 -0.2548  0.5209
   54MOL0     C 7341   6.101   4.397   9.498  0.5038 -0.3362 -0.0188
   54MOL0     C 7342   6.207   4.425   9.392 -0.1275 -0.4185  0.6170
   54MOL0     C 7343   6.105   4.276   9.572  1.1391  0.6515 -0.2096
   54MOL0     C 7344   6.199   4.160   9.557 -0.3379 -0.0256  0.0228
   54MOL0     O 7345   6.220   4.078   9.659  0.4236  0.4121  0.4560
   54MOL0     C 7346   6.319   3.979   9.665 -0.7204  0.4650 -0.3405
   54MOL0     C 7347   6.308   3.889   9.769 -0.0547 -0.7075 -0.2923
   54MOL0     C 7348   6.391   3.780   9.775 -0.0721  0.0903  0.3607
   54MOL0     C 7349   6.493   3.752   9.678 -0.3376  0.7490 -0.5158
   54MOL0     O 7350   6.559   3.627   9.675 -0.4239 -0.7422 -0.1210
   54MOL0     C 7351   6.682   3.614   9.600  0.7800 -0.6122  0.2952
   54MOL0     C 7352   6.762   3.494   9.639 -0.4509  0.8263  0.9090
   54MOL0     C 7353   6.694   3.367   9.583 -0.1079  0.5341 -0.9367
   54MOL0     C 7354   6.743   3.236   9.661  0.2411 -0.8844 -0.0072
   54MOL0     C 7355   6.684   3.114   9.601  0.4268 -0.0551 -0.0560
   54MOL0     C 7356   6.699   2.994   9.695 -0.5530  0.2922 -0.3135
   54MOL0     C 7357   6.794   2.881   9.634  0.1566 -0.1557  0.5104
   54MOL0     C 7358   6.794   2.760   9.730 -0.2174  0.8281 -0.1789
   54MOL0    Cl 7359   6.954   2.664   9.719 -0.1745 -0.6087 -0.0888
   54MOL0     C 7360   6.504   3.852   9.578 -0.9167  0.1228 -0.4481
   54MOL0     C 7361   6.422   3.962   9.568  1.2075 -0.9116 -0.2043
   54MOL0     O 7362   6.236   4.147   9.440 -0.1586  0.0012 -0.1105
   54MOL0     C 7363   6.006   4.259   9.670  0.7758  0.5065  0.1531
   54MOL0     C 7364   5.914   4.366   9.708  0.3062  0.3248 -0.0332
   54MOL0     N 7365   5.465   4.466   9.692  0.4588  0.9887  0.7472
   54MOL0     N 7366   5.492   4.356   9.629 -0.7431  0.2725  0.7643
   54MOL0     C 7367   6.254   3.453   9.567  1.0262 -0.4498  0.3696
   54MOL0     C 7368   6.281   3.323   9.613  0.1973  0.1965 -0.3658
   54MOL0     C 7369   6.351   2.876   9.537  0.7716 -0.5940 -1.1224
   54MOL0     C 7370   6.297   2.810   9.653 -0.3754  0.7849 -0.4369
   54MOL0     C 7371   6.335   2.684   9.704 -0.1525 -0.1382 -0.2869
   54MOL0     C 7372   6.425   2.617   9.625  0.6538 -0.0300 -1.5015
   54MOL0     O 7373   6.476   2.499   9.683  0.6206 -0.1670 -0.1453
   54MOL0     C 7374   6.467   2.388   9.586 -0.1267  0.3082  0.1835
   54MOL0     C 7375   6.510   2.242   9.651 -0.6899  0.0339  0.4990
   54MOL0     C 7376   6.658   2.226   9.642  0.2330 -0.0772  0.3242
   54MOL0     C 7377   6.733   2.144   9.744 -0.3505  0.7112 -0.1725
   54MOL0     C 7378   6.879   2.159   9.723  0.1679 -0.2884  0.2289
   54MOL0     C 7379   6.997   2.164   9.696 -0.7564 -0.4151  0.4638
   54MOL0     C 7380   6.473   2.671   9.508  0.8823 -0.6076  0.8264
   54MOL0     C 7381   6.447   2.803   9.467  0.4157  0.2850  0.7409
   54MOL0     C 7382   6.512   2.842   9.337  0.0544 -0.6493 -0.9636
   54MOL0     H 7383   6.033   3.155   9.453  1.4563 -2.0612  2.1595
   54MOL0     H 7384   5.975   3.375   9.372 -0.3616 -0.2842  0.7592
   54MOL0     H 7385   6.301   3.714   9.398  0.8184  3.6797  1.2494
   54MOL0     H 7386   6.203   3.754   9.534  2.0102  1.0601 -0.1355
   54MOL0     H 7387   6.194   3.877   9.290 -1.5496  1.1198  0.1423
   54MOL0     H 7388   6.088   3.752   9.253 -0.2535 -0.2638  1.3570
   54MOL0     H 7389   5.922   3.807   9.429  1.6106 -0.9741  0.8798
   54MOL0     H 7390   6.029   3.912   9.495 -0.7251 -0.9295  0.2827
   54MOL0     H 7391   6.028   4.039   9.257 -0.7912 -1.8054 -2.9961
   54MOL0     H 7392   5.884   3.937   9.221 -0.1529 -2.1353  1.1290
   54MOL0     H 7393   5.917   4.109   9.468 -0.8708  1.3308 -0.3069
   54MOL0     H 7394   5.770   4.027   9.419  1.4689  0.8037  2.5836
   54MOL0     H 7395   5.913   4.256   9.266 -1.5679  1.7110 -2.7293
   54MOL0     H 7396   5.752   4.188   9.233  1.6523 -1.3153 -1.2821
   54MOL0     H 7397   5.755   4.413   9.361  3.6533 -1.2556 -2.1918
   54MOL0     H 7398   5.784   4.306   9.507 -0.1384 -0.3802  0.3751
   54MOL0     H 7399   5.549   4.312   9.315  1.3024 -1.7872 -1.4352
   54MOL0     H 7400   5.575   4.182   9.445  0.8856 -0.9711  0.2568
   54MOL0     H 7401   5.516   4.590   9.401 -0.1507  2.1069  1.4930
   54MOL0     H 7402   5.456   4.703   9.760 -2.7023  0.4265 -0.5336
   54MOL0     H 7403   5.411   4.766   9.597  0.8406 -0.3687 -1.3154
   54MOL0     H 7404   5.664   4.755   9.561  1.5510  1.4135  0.6199
   54MOL0     H 7405   5.591   4.892   9.662  0.4029  0.7702  1.4852
   54MOL0     H 7406   5.800   4.822   9.755 -0.7144 -0.3483 -0.4457
   54MOL0     H 7407   5.668   4.773   9.863 -0.8800  2.2533  0.1688
   54MOL0     H 7408   5.846   4.605   9.852  1.1951  0.1819 -0.4042
   54MOL0     H 7409   5.692   4.545   9.794  0.6622  0.8167  1.1098
   54MOL0     H 7410   5.991   4.579   9.466  2.1200  0.8017  1.6884
   54MOL0     H 7411   6.310   4.409   9.427  0.6130  2.1930 -0.1035
   54MOL0     H 7412   6.206   4.529   9.359 -0.8457 -1.2686 -2.2592
   54MOL0     H 7413   6.193   4.358   9.307  1.9715 -3.5086  2.4882
   54MOL0     H 7414   6.235   3.902   9.849  1.9455 -0.3873  1.5697
   54MOL0     H 7415   6.368   3.699   9.844 -3.4646  1.0408  0.4838
   54MOL0     H 7416   6.674   3.626   9.491 -1.4538 -0.1717  0.4755
   54MOL0     H 7417   6.744   3.698   9.635  1.7979 -1.2336  0.0272
   54MOL0     H 7418   6.869   3.499   9.617 -0.5583 -0.5108 -0.0199
   54MOL0     H 7419   6.759   3.497   9.749 -1.3472  3.8801  0.8926
   54MOL0     H 7420   6.712   3.343   9.478 -2.2592  1.3757 -1.5568
   54MOL0     H 7421   6.586   3.379   9.593  0.2011  2.1104  1.0942
   54MOL0     H 7422   6.706   3.237   9.764  0.7746 -1.6313  0.2049
   54MOL0     H 7423   6.852   3.233   9.671  0.7097  4.0551 -1.1023
   54MOL0     H 7424   6.578   3.133   9.585  0.6409  1.5862  0.3014
   54MOL0     H 7425   6.730   3.105   9.502  1.8041  0.3563  0.5205
   54MOL0     H 7426   6.600   2.953   9.717 -0.0936  0.1675  1.6946
   54MOL0     H 7427   6.730   3.012   9.798  0.8409 -1.7295 -0.3209
   54MOL0     H 7428   6.895   2.922   9.623 -1.1561  3.7630  1.4936
   54MOL0     H 7429   6.764   2.844   9.536 -1.0543  1.2191  0.3334
   54MOL0     H 7430   6.713   2.692   9.701  0.3506 -0.7788  1.8304
   54MOL0     H 7431   6.772   2.799   9.830 -3.2080  3.3786 -1.6602
   54MOL0     H 7432   6.586   3.834   9.510  0.4181  0.3330  1.0494
   54MOL0     H 7433   6.423   4.027   9.482 -0.0497  2.0754  1.8636
   54MOL0     H 7434   6.011   4.167   9.727  1.5729 -0.6800 -1.7337
   54MOL0     H 7435   5.843   4.363   9.790 -1.9953  3.0952 -1.7196
   54MOL0     H 7436   6.318   3.536   9.595 -0.4890  0.2591  1.8574
   54MOL0     H 7437   6.365   3.312   9.681 -0.1880  3.3841  0.7831
   54MOL0     H 7438   6.220   2.868   9.703  0.8832  2.5455 -0.4268
   54MOL0     H 7439   6.295   2.638   9.793 -2.3528  1.1841 -0.5145
   54MOL0     H 7440   6.363   2.394   9.553  0.1681  2.0108 -0.5109
   54MOL0     H 7441   6.533   2.399   9.499  0.3279 -3.2206 -0.1060
   54MOL0     H 7442   6.460   2.161   9.598  1.1133 -0.9280  0.2122
   54MOL0     H 7443   6.481   2.243   9.757  0.0766  1.2611  0.7216
   54MOL0     H 7444   6.672   2.183   9.543  0.0792  0.0182  0.2605
   54MOL0     H 7445   6.704   2.325   9.636  3.4148 -1.5030 -1.2705
   54MOL0     H 7446   6.694   2.042   9.750 -3.3766  1.8240  1.2241
   54MOL0     H 7447   6.710   2.196   9.837  0.1336  1.2742 -0.3676
   54MOL0     H 7448   7.103   2.173   9.685 -0.6038  0.4173  2.2012
   54MOL0     H 7449   6.548   2.615   9.453 -0.1479  2.3978 -4.2910
   54MOL0     H 7450   6.570   2.760   9.293 -1.0033 -1.7228 -0.4380
   54MOL0     H 7451   6.434   2.859   9.262  1.0448  0.2540 -1.8181
   54MOL0     H 7452   6.587   2.920   9.347 -0.0292 -0.2585 -3.0289
   55MOL0     O 7453   4.584   4.149   2.189  0.5467 -0.1625 -0.3830
   55MOL0     C 7454   4.493   4.076   2.231 -0.0806  0.1350 -0.5287
   55MOL0     O 7455   4.517   3.985   2.321 -0.1732 -0.3033  0.0511
   55MOL0     C 7456   4.647   3.941   2.347  0.0886 -0.1576  0.1180
   55MOL0     C 7457   4.677   3.922   2.485 -0.8282  0.8011  0.7639
   55MOL0     C 7458   4.810   3.878   2.518  0.4308  0.0679 -0.1673
   55MOL0     C 7459   4.906   3.847   2.414  0.5163 -0.3097 -1.0771
   55MOL0     O 7460   5.022   3.794   2.433 -0.0647  0.5209  0.7271
   55MOL0     C 7461   5.079   3.766   2.562  0.1855 -0.5292  0.2424
   55MOL0     C 7462   5.215   3.693   2.550  0.0626 -0.1378  0.5076
   55MOL0     C 7463   5.327   3.784   2.488 -0.1416  0.0852 -0.0910
   55MOL0     C 7464   5.352   3.741   2.341 -0.0860 -0.1235  0.6379
   55MOL0     C 7465   5.498   3.790   2.292  0.0709  0.1592 -0.0737
   55MOL0     C 7466   5.521   3.727   2.149  0.0459  0.2863 -0.0027
   55MOL0     C 7467   5.670   3.733   2.113  0.1419 -0.2361 -0.0024
   55MOL0     C 7468   5.719   3.618   2.024  0.6276  0.0287 -0.2251
   55MOL0     N 7469   5.859   3.616   1.999 -0.1167  0.3558  0.0523
   55MOL0     C 7470   5.957   3.632   2.089  0.3076 -0.2758  0.4504
   55MOL0     C 7471   6.068   3.672   2.028 -0.4320 -0.0063 -0.0371
   55MOL0     C 7472   6.180   3.736   2.095  0.1007  0.5622  0.0429
   55MOL0     C 7473   6.295   3.637   2.078  0.7272 -0.3932  0.1037
   55MOL0     C 7474   6.421   3.705   2.119  0.1886 -0.5308  0.0969
   55MOL0     C 7475   6.541   3.614   2.112 -0.0579 -0.0186  0.3733
   55MOL0     O 7476   6.560   3.592   1.973  0.4440  0.1442  0.2716
   55MOL0     C 7477   6.660   3.507   1.946 -0.2993  0.4534  0.4601
   55MOL0     C 7478   6.790   3.537   1.991 -0.3719  0.1576  0.3035
   55MOL0     C 7479   6.897   3.457   1.956 -0.3673 -1.0566  0.1465
   55MOL0     C 7480   7.029   3.507   2.008  0.1002 -0.7847 -0.6234
   55MOL0     C 7481   6.877   3.336   1.875  0.0581 -1.3688  0.0119
   55MOL0     C 7482   6.987   3.237   1.847  0.1556  0.2672 -0.1201
   55MOL0     O 7483   6.975   3.165   1.727  0.1840 -0.4872 -0.4933
   55MOL0     C 7484   7.086   3.097   1.697  0.4408  0.3977 -0.2698
   55MOL0     C 7485   7.124   2.979   1.755 -0.0055  0.1076  0.0101
   55MOL0     C 7486   7.244   2.903   1.708  0.4161 -0.0447  0.7626
   55MOL0     C 7487   7.310   2.952   1.597 -0.3097 -0.0465 -0.3971
   55MOL0     O 7488   7.425   2.885   1.555  0.3471  0.1845 -0.1789
   55MOL0     C 7489   7.525   2.936   1.460 -1.1183 -0.0592 -0.1506
   55MOL0     C 7490   7.662   2.858   1.457  0.3216  0.2209 -0.3644
   55MOL0     C 7491   7.737   2.877   1.594  0.4028 -0.1117 -0.2106
   55MOL0     C 7492   7.864   2.795   1.603 -0.8211  0.5412 -0.5485
   55MOL0     C 7493   7.963   2.828   1.482  0.4459 -0.2768  0.5302
   55MOL0     C 7494   8.108   2.783   1.499 -0.1663 -0.1218  0.0372
   55MOL0     C 7495   8.171   2.823   1.359 -0.4311 -0.1095 -0.1226
   55MOL0     C 7496   8.328   2.796   1.373 -0.7174 -0.0996 -0.4310
   55MOL0    Cl 7497   8.416   2.903   1.498 -0.1629  0.1878  0.2383
   55MOL0     C 7498   7.256   3.061   1.530  0.4554 -0.7109 -0.8014
   55MOL0     C 7499   7.153   3.140   1.584  0.0915 -0.4813  0.2308
   55MOL0     O 7500   7.072   3.222   1.934  0.3376 -0.2866 -0.8372
   55MOL0     C 7501   6.739   3.310   1.837 -0.4652 -0.1745  0.6243
   55MOL0     C 7502   6.634   3.396   1.866  0.0055 -0.7221  0.2888
   55MOL0     N 7503   6.048   3.667   1.894 -0.1443  0.0961  0.1806
   55MOL0     N 7504   5.923   3.625   1.875 -0.4847  0.3800  0.2873
   55MOL0     C 7505   4.870   3.866   2.281 -0.1960 -0.1576 -0.0846
   55MOL0     C 7506   4.741   3.906   2.241 -0.1076 -0.2593 -0.4034
   55MOL0     C 7507   4.355   4.100   2.185 -0.1604 -0.0740 -0.4174
   55MOL0     C 7508   4.267   3.989   2.162 -0.6955 -0.1014 -0.4681
   55MOL0     C 7509   4.141   4.004   2.117  0.8426  0.0243 -0.5100
   55MOL0     C 7510   4.080   4.125   2.086  0.1175  0.0056 -0.0796
   55MOL0     O 7511   3.950   4.139   2.041  0.0325 -0.1757  0.0608
   55MOL0     C 7512   3.871   4.017   2.064 -0.5971  0.0257 -0.6134
   55MOL0     C 7513   3.734   4.031   2.007  0.6830 -0.7557  0.5548
   55MOL0     C 7514   3.725   4.062   1.853 -0.4936 -0.9861  0.1733
   55MOL0     C 7515   3.577   4.080   1.819 -0.1983 -0.0402  0.0040
   55MOL0     C 7516   3.512   3.947   1.812  0.5061 -0.1892 -0.9290
   55MOL0     C 7517   3.452   3.839   1.808  0.6086 -0.5606  0.1112
   55MOL0     C 7518   4.166   4.236   2.098 -0.1930  0.0700  0.6364
   55MOL0     C 7519   4.299   4.227   2.144  1.1288 -0.4454  0.5389
   55MOL0     C 7520   4.371   4.357   2.150  0.7725 -0.1812 -0.1135
   55MOL0     H 7521   4.603   3.948   2.559 -0.2799 -1.2436  2.1141
   55MOL0     H 7522   4.839   3.860   2.621 -1.6350 -0.8670  0.3097
   55MOL0     H 7523   5.005   3.712   2.621 -1.1290  1.6060  0.6530
   55MOL0     H 7524   5.094   3.866   2.604  0.4577 -0.2288 -0.5357
   55MOL0     H 7525   5.242   3.650   2.647 -2.4179 -0.2167  1.2312
   55MOL0     H 7526   5.192   3.603   2.492  0.1233 -0.9464  1.6986
   55MOL0     H 7527   5.300   3.890   2.488  0.2140  0.3556 -4.4270
   55MOL0     H 7528   5.411   3.758   2.552 -0.4957 -0.4735  0.1465
   55MOL0     H 7529   5.342   3.632   2.339 -0.4342 -0.1972  2.8298
   55MOL0     H 7530   5.270   3.775   2.278  0.5575 -0.7924 -0.5841
   55MOL0     H 7531   5.569   3.752   2.366  0.5680  1.2185  0.0145
   55MOL0     H 7532   5.507   3.899   2.288  1.3237  0.0382 -1.5166
   55MOL0     H 7533   5.493   3.622   2.155 -1.4011  0.6445  0.0212
   55MOL0     H 7534   5.454   3.770   2.074 -0.7437 -0.3197  0.3397
   55MOL0     H 7535   5.724   3.721   2.208 -0.1817  4.4956  1.0073
   55MOL0     H 7536   5.686   3.834   2.076  2.4529 -0.0095  1.4202
   55MOL0     H 7537   5.694   3.526   2.077 -1.1115 -0.5981 -1.9957
   55MOL0     H 7538   5.663   3.634   1.931 -1.1671  2.9399  1.2272
   55MOL0     H 7539   5.941   3.633   2.196 -0.5562  1.9059  0.3326
   55MOL0     H 7540   6.151   3.746   2.199 -0.7874 -0.2449 -0.1177
   55MOL0     H 7541   6.192   3.836   2.053  2.4513  0.6471  0.7556
   55MOL0     H 7542   6.271   3.550   2.140 -2.9602  0.2614 -0.1563
   55MOL0     H 7543   6.298   3.601   1.975 -1.6119 -1.8216  0.4529
   55MOL0     H 7544   6.428   3.794   2.055  0.0165 -1.0824 -0.6935
   55MOL0     H 7545   6.421   3.727   2.227  0.6436 -0.6112  0.1145
   55MOL0     H 7546   6.631   3.662   2.151  0.8839  0.0746 -1.7579
   55MOL0     H 7547   6.527   3.515   2.157  2.6747 -1.1842 -1.1099
   55MOL0     H 7548   6.795   3.632   2.044 -0.4926 -0.6712  1.8597
   55MOL0     H 7549   7.045   3.463   2.107  1.5306  1.7420  0.3483
   55MOL0     H 7550   7.035   3.615   2.022  0.8003 -0.8502 -0.3828
   55MOL0     H 7551   7.111   3.487   1.939  1.6055  0.1527  0.8231
   55MOL0     H 7552   7.082   2.947   1.849  0.6706  0.2210  0.3544
   55MOL0     H 7553   7.282   2.814   1.758  2.0599  0.9081  1.2831
   55MOL0     H 7554   7.478   2.927   1.362 -1.5349 -2.3642  0.1948
   55MOL0     H 7555   7.549   3.041   1.478 -0.8559 -0.1835  0.2313
   55MOL0     H 7556   7.638   2.753   1.436  1.5529  0.0223 -0.8256
   55MOL0     H 7557   7.713   2.906   1.373 -2.7535  0.2932 -2.3741
   55MOL0     H 7558   7.678   2.852   1.682  2.1074 -3.4501  0.1600
   55MOL0     H 7559   7.766   2.982   1.602  1.2471  0.0266 -3.4733
   55MOL0     H 7560   7.832   2.690   1.603 -0.1175  0.3218 -0.4820
   55MOL0     H 7561   7.916   2.823   1.694  0.6917  4.2175 -2.3292
   55MOL0     H 7562   7.924   2.785   1.390 -0.5403 -1.4312  1.4496
   55MOL0     H 7563   7.960   2.937   1.475 -2.8474 -0.3112  0.1228
   55MOL0     H 7564   8.107   2.680   1.534 -1.3465  0.3841  1.6007
   55MOL0     H 7565   8.150   2.851   1.574 -0.4783 -0.8637  0.8955
   55MOL0     H 7566   8.158   2.923   1.318 -2.2170 -0.8481 -1.4350
   55MOL0     H 7567   8.135   2.751   1.285 -2.1182 -0.0427  0.5973
   55MOL0     H 7568   8.377   2.794   1.275 -0.0214 -2.0395 -0.0937
   55MOL0     H 7569   8.336   2.694   1.411  0.1683  0.9019  2.3217
   55MOL0     H 7570   7.298   3.085   1.433  0.8943  0.0817 -0.4254
   55MOL0     H 7571   7.121   3.229   1.531  0.5989 -0.3170  0.1989
   55MOL0     H 7572   6.722   3.218   1.780 -0.4287  0.0185  0.2988
   55MOL0     H 7573   6.534   3.374   1.830 -0.2998  0.3940  0.4200
   55MOL0     H 7574   4.936   3.834   2.201 -0.2132  0.7913 -0.4936
   55MOL0     H 7575   4.711   3.916   2.137 -1.6407 -0.9283 -0.0528
   55MOL0     H 7576   4.302   3.888   2.182  0.0653  0.2161 -0.1623
   55MOL0     H 7577   4.099   3.905   2.104 -2.0499  1.0550  0.3181
   55MOL0     H 7578   3.915   3.931   2.013  0.0391 -0.5089  0.7690
   55MOL0     H 7579   3.864   3.979   2.166 -5.7866 -3.0237 -1.7487
   55MOL0     H 7580   3.686   4.112   2.063  1.1840  0.6984 -1.0292
   55MOL0     H 7581   3.678   3.939   2.026 -0.2987 -0.6126 -1.3250
   55MOL0     H 7582   3.771   4.158   1.825 -0.9938 -0.5333  0.8750
   55MOL0     H 7583   3.779   3.985   1.796  0.2588 -0.0908 -0.3687
   55MOL0     H 7584   3.567   4.128   1.721 -0.2360 -0.0947 -0.0186
   55MOL0     H 7585   3.531   4.146   1.893  2.5681 -0.8604  2.6807
   55MOL0     H 7586   3.394   3.750   1.796 -1.6568  1.0574 -1.9231
   55MOL0     H 7587   4.133   4.337   2.075  1.5088  0.7622  1.0370
   55MOL0     H 7588   4.352   4.414   2.242 -0.7642  2.0027 -1.7011
   55MOL0     H 7589   4.475   4.337   2.124  0.7043 -1.9050  0.7940
   55MOL0     H 7590   4.331   4.426   2.075  0.2324 -0.9991 -0.5986
   56MOL0     O 7591   3.365   0.054   0.818 -0.3782 -0.7617 -0.0041
   56MOL0     C 7592   3.331   0.136   0.733  0.5348  0.3002 -0.1131
   56MOL0     O 7593   3.418   0.220   0.665  0.5176  0.3050 -0.4704
   56MOL0     C 7594   3.557   0.211   0.673 -0.4063  0.4436  0.2560
   56MOL0     C 7595   3.639   0.184   0.787 -0.3801 -0.7990  0.5271
   56MOL0     C 7596   3.781   0.180   0.769 -0.2835 -0.9671 -0.8483
   56MOL0     C 7597   3.843   0.233   0.652 -0.7452  0.2523  0.0860
   56MOL0     O 7598   3.980   0.247   0.632 -0.5642 -0.7202  0.2895
   56MOL0     C 7599   4.051   0.272   0.755  0.1392 -0.1383 -0.1613
   56MOL0     C 7600   4.197   0.323   0.722 -0.0374  0.4688  0.6261
   56MOL0     C 7601   4.288   0.216   0.653 -0.1123  0.0881  0.1433
   56MOL0     C 7602   4.435   0.262   0.639 -0.1315  0.1244 -0.3793
   56MOL0     C 7603   4.517   0.190   0.539 -0.0909 -0.5843 -0.5745
   56MOL0     C 7604   4.533   0.039   0.573 -0.6914  0.1543  0.3828
   56MOL0     C 7605   4.637  -0.020   0.482 -0.1195  0.0206 -0.1951
   56MOL0     C 7606   4.597  -0.167   0.461  0.0653  0.5744 -0.0607
   56MOL0     N 7607   4.701  -0.236   0.382 -0.3605  0.0252 -0.5580
   56MOL0     C 7608   4.727  -0.208   0.249  0.1205 -0.0966 -0.0121
   56MOL0     C 7609   4.816  -0.307   0.223 -0.9100  0.4174 -0.3150
   56MOL0     C 7610   4.903  -0.315   0.096 -0.1425 -0.2822  0.3883
   56MOL0     C 7611   5.047  -0.250   0.117  1.0443  0.0900  0.7485
   56MOL0     C 7612   5.151  -0.300   0.026 -0.4125  0.3719  0.5795
   56MOL0     C 7613   5.277  -0.212   0.015 -0.2939  0.7255  0.7859
   56MOL0     O 7614   5.378  -0.305  -0.031  0.1132 -0.0805  0.0614
   56MOL0     C 7615   5.508  -0.267  -0.053  0.3175 -0.3692  0.3364
   56MOL0     C 7616   5.559  -0.143  -0.025 -1.0068 -0.6151 -0.0917
   56MOL0     C 7617   5.692  -0.108  -0.050  0.3515  0.2421 -0.2032
   56MOL0     C 7618   5.731   0.031  -0.001  0.1676 -0.4862 -0.1215
   56MOL0     C 7619   5.785  -0.203  -0.100  0.0468  0.1795  0.3526
   56MOL0     C 7620   5.931  -0.165  -0.130 -0.0155 -0.4310 -0.1861
   56MOL0     O 7621   5.975  -0.036  -0.112 -0.1185 -0.2232 -0.1190
   56MOL0     C 7622   6.108  -0.000  -0.136  0.7021  0.1258 -0.0953
   56MOL0     C 7623   6.131   0.092  -0.232 -0.3486 -0.1076 -0.3172
   56MOL0     C 7624   6.256   0.139  -0.249  0.4256 -0.1950 -0.1238
   56MOL0     C 7625   6.368   0.092  -0.185  0.0199  0.0002  0.1622
   56MOL0     O 7626   6.484   0.158  -0.211 -0.5350 -0.1611 -0.0261
   56MOL0     C 7627   6.615   0.129  -0.153 -0.0897  0.3795  0.1043
   56MOL0     C 7628   6.665  -0.003  -0.216  0.5875 -0.1152 -0.4672
   56MOL0     C 7629   6.806  -0.042  -0.171 -0.2300  0.2390  0.0883
   56MOL0     C 7630   6.826  -0.197  -0.213 -0.3113  0.8486  0.1415
   56MOL0     C 7631   6.980  -0.228  -0.198  0.3801 -0.4645  1.1300
   56MOL0     C 7632   7.017  -0.277  -0.058  0.3708  0.1531  0.0195
   56MOL0     C 7633   7.169  -0.293  -0.032  0.9901  0.2021  0.2091
   56MOL0     C 7634   7.241  -0.379  -0.142 -1.2975 -0.0402 -1.0257
   56MOL0    Cl 7635   7.413  -0.405  -0.100  0.2563  0.2742 -0.2875
   56MOL0     C 7636   6.350  -0.023  -0.097  0.2365  0.1513  0.9007
   56MOL0     C 7637   6.220  -0.065  -0.079 -0.0554 -0.2611  0.6761
   56MOL0     O 7638   5.992  -0.262  -0.179 -0.3864  0.2385  0.2697
   56MOL0     C 7639   5.729  -0.333  -0.122 -0.0716 -0.5978  0.3803
   56MOL0     C 7640   5.590  -0.361  -0.101  0.0009  0.2113  0.1407
   56MOL0     N 7641   4.836  -0.386   0.341 -0.5437 -0.3125  0.3498
   56MOL0     N 7642   4.770  -0.337   0.443  0.2292  0.2612 -0.1851
   56MOL0     C 7643   3.763   0.263   0.540  0.1217  0.4780  0.2685
   56MOL0     C 7644   3.615   0.254   0.550 -0.0197 -0.4501  0.7102
   56MOL0     C 7645   3.189   0.149   0.688  0.4160  0.4037 -0.8489
   56MOL0     C 7646   3.151   0.257   0.606 -0.1585  0.4024 -0.9777
   56MOL0     C 7647   3.016   0.287   0.578 -0.9279 -0.6729  0.0213
   56MOL0     C 7648   2.906   0.221   0.635  0.1766  0.8298 -0.5803
   56MOL0     O 7649   2.770   0.249   0.603 -0.2529  0.2185 -0.5527
   56MOL0     C 7650   2.657   0.212   0.692 -0.0780  0.6744 -0.0135
   56MOL0     C 7651   2.540   0.300   0.652  0.5809 -0.2470 -0.8813
   56MOL0     C 7652   2.412   0.287   0.735  0.2167 -0.2318  0.4115
   56MOL0     C 7653   2.425   0.351   0.875  0.2654 -0.2799  0.0559
   56MOL0     C 7654   2.292   0.342   0.934  0.7620  0.6542 -0.1775
   56MOL0     C 7655   2.179   0.339   0.987  0.0991  0.9389 -0.2123
   56MOL0     C 7656   2.944   0.116   0.718 -0.0054 -0.0822  0.0531
   56MOL0     C 7657   3.078   0.078   0.746  0.0773  0.1100  0.9071
   56MOL0     C 7658   3.096  -0.028   0.847  0.4464  0.3964  0.5981
   56MOL0     H 7659   3.578   0.162   0.874 -0.3847 -1.7343  0.3031
   56MOL0     H 7660   3.835   0.167   0.863 -1.0387  1.5282  0.0165
   56MOL0     H 7661   4.069   0.174   0.799  1.3742  0.7479  1.4077
   56MOL0     H 7662   3.999   0.343   0.820 -0.4774 -1.1132  0.4209
   56MOL0     H 7663   4.190   0.412   0.658  2.3244  2.7414  3.2658
   56MOL0     H 7664   4.242   0.359   0.814  1.3032 -0.9871  0.5674
   56MOL0     H 7665   4.280   0.120   0.705  0.8935 -0.4333 -0.6326
   56MOL0     H 7666   4.261   0.199   0.548 -0.3083 -2.3453  0.5204
   56MOL0     H 7667   4.425   0.367   0.612 -1.1621  0.3892  0.9133
   56MOL0     H 7668   4.491   0.263   0.733  2.5289  1.9105 -1.8498
   56MOL0     H 7669   4.611   0.246   0.539 -0.2752 -0.2072  1.0267
   56MOL0     H 7670   4.472   0.200   0.440  0.9087  1.8861 -0.8329
   56MOL0     H 7671   4.553   0.017   0.678 -2.3017 -0.5233  0.5648
   56MOL0     H 7672   4.434  -0.005   0.559 -1.6985  2.3252  0.2534
   56MOL0     H 7673   4.734   0.001   0.528 -0.8330  2.0720  0.4604
   56MOL0     H 7674   4.643   0.032   0.386 -0.0594  1.6997  0.6959
   56MOL0     H 7675   4.579  -0.213   0.558  0.3593 -0.0493 -0.2975
   56MOL0     H 7676   4.506  -0.177   0.402  0.0669  0.7918 -0.1014
   56MOL0     H 7677   4.696  -0.123   0.189  0.8772  0.8167  0.8615
   56MOL0     H 7678   4.854  -0.272   0.008  1.2924  0.3229 -0.1500
   56MOL0     H 7679   4.899  -0.422   0.073 -0.4658  0.0783 -1.3864
   56MOL0     H 7680   5.024  -0.147   0.087 -0.4169 -0.7753 -1.3331
   56MOL0     H 7681   5.077  -0.259   0.221  0.0629 -1.8935  0.9000
   56MOL0     H 7682   5.173  -0.403   0.056 -0.8687  0.8232  2.6224
   56MOL0     H 7683   5.111  -0.309  -0.075  1.0682 -1.1108  0.0807
   56MOL0     H 7684   5.267  -0.130  -0.056  2.7222 -1.2235 -2.1281
   56MOL0     H 7685   5.319  -0.166   0.105 -0.0065  1.9885  0.0215
   56MOL0     H 7686   5.488  -0.075   0.022  0.9657  0.3730  1.6391
   56MOL0     H 7687   5.770   0.089  -0.085  3.0836 -4.1825 -1.5709
   56MOL0     H 7688   5.813   0.041   0.070 -1.2081  0.2572  1.4156
   56MOL0     H 7689   5.646   0.088   0.039  0.4181 -0.3735  0.2479
   56MOL0     H 7690   6.042   0.132  -0.282 -2.5913 -0.3642  3.1595
   56MOL0     H 7691   6.287   0.219  -0.315  3.2711 -0.5443  0.6281
   56MOL0     H 7692   6.685   0.208  -0.182  2.9314 -2.3237 -0.6072
   56MOL0     H 7693   6.607   0.129  -0.044 -0.6222 -1.7308  0.1168
   56MOL0     H 7694   6.594  -0.084  -0.198 -0.2671  0.1435 -2.3806
   56MOL0     H 7695   6.668   0.016  -0.324  3.8041  0.0793 -0.4320
   56MOL0     H 7696   6.824  -0.035  -0.063 -0.0850 -1.1371  0.1768
   56MOL0     H 7697   6.872   0.024  -0.229 -1.5040  0.0761 -1.6329
   56MOL0     H 7698   6.806  -0.204  -0.320 -0.5905  0.8886  0.1916
   56MOL0     H 7699   6.760  -0.273  -0.172  1.0781 -1.5037 -1.7302
   56MOL0     H 7700   7.013  -0.305  -0.269 -3.0628  0.7041 -2.0172
   56MOL0     H 7701   7.038  -0.138  -0.221  0.2563 -0.6217  0.1372
   56MOL0     H 7702   6.963  -0.370  -0.036  0.6081  0.6286  3.0763
   56MOL0     H 7703   6.990  -0.203   0.018 -0.2186  1.5233 -1.4654
   56MOL0     H 7704   7.171  -0.344   0.065 -1.9212  1.4965  1.0474
   56MOL0     H 7705   7.226  -0.199  -0.030  0.6912  0.4867 -2.0549
   56MOL0     H 7706   7.236  -0.322  -0.236  1.0290  4.8309  1.4294
   56MOL0     H 7707   7.188  -0.475  -0.147 -0.4819 -0.7711  2.2135
   56MOL0     H 7708   6.437  -0.065  -0.049 -0.7529 -1.0502  1.7026
   56MOL0     H 7709   6.187  -0.134  -0.002 -1.2434 -0.2476  0.2048
   56MOL0     H 7710   5.785  -0.421  -0.152 -0.1910 -0.1044 -1.4160
   56MOL0     H 7711   5.563  -0.466  -0.106  1.2076 -0.0687 -1.1849
   56MOL0     H 7712   3.809   0.298   0.448  0.0860 -1.1920 -0.4171
   56MOL0     H 7713   3.548   0.273   0.467 -0.7485 -1.7613  0.9689
   56MOL0     H 7714   3.225   0.321   0.558  2.0320 -1.0845  0.2427
   56MOL0     H 7715   2.990   0.375   0.520  1.3461  1.5220  2.0776
   56MOL0     H 7716   2.636   0.106   0.673  1.5429  0.7378 -2.8304
   56MOL0     H 7717   2.683   0.224   0.798 -0.4030  1.0636  0.0249
   56MOL0     H 7718   2.509   0.271   0.552 -1.4141 -2.1856  0.2153
   56MOL0     H 7719   2.574   0.404   0.653 -1.3816  0.4369 -0.1014
   56MOL0     H 7720   2.329   0.330   0.680  0.4171 -1.8577 -1.2404
   56MOL0     H 7721   2.395   0.181   0.755  0.3646  0.0878  2.5345
   56MOL0     H 7722   2.454   0.456   0.874  1.2202 -0.4867  1.5327
   56MOL0     H 7723   2.503   0.292   0.925  1.6161 -0.3691 -2.0196
   56MOL0     H 7724   2.090   0.331   1.045  0.7258 -0.9581  0.5747
   56MOL0     H 7725   2.862   0.061   0.762  1.3853 -0.8714  1.8108
   56MOL0     H 7726   3.173  -0.102   0.821  1.2278  0.8939  1.4380
   56MOL0     H 7727   3.118   0.010   0.947 -0.4117 -0.8332  1.2850
   56MOL0     H 7728   3.008  -0.092   0.852  1.2321 -1.0032 -1.7128
   57MOL0     O 7729   8.648   6.851  10.138 -0.1286  0.7260  0.2617
   57MOL0     C 7730   8.674   6.831  10.019  0.0678  0.4746  0.3483
   57MOL0     O 7731   8.791   6.877   9.966 -0.0531  0.0319 -0.5205
   57MOL0     C 7732   8.908   6.871  10.039 -0.4442  0.0006 -0.2827
   57MOL0     C 7733   8.982   6.991  10.058 -0.5922 -0.2380 -0.5268
   57MOL0     C 7734   9.109   6.986  10.113  0.3731  0.0776  0.4519
   57MOL0     C 7735   9.161   6.860  10.161  1.1248 -0.6106 -0.5777
   57MOL0     O 7736   9.287   6.846  10.216  0.3393 -0.5608  0.2366
   57MOL0     C 7737   9.345   6.980  10.266  0.5715 -0.0689 -1.0334
   57MOL0     C 7738   9.447   6.952  10.376  0.1471 -0.4074 -0.4640
   57MOL0     C 7739   9.564   6.879  10.308 -0.1415  0.4943  0.7746
   57MOL0     C 7740   9.662   6.810  10.407  0.0380  0.1273 -0.5660
   57MOL0     C 7741   9.779   6.740  10.335 -0.2843 -0.2715 -0.7510
   57MOL0     C 7742   9.880   6.666  10.426 -0.0903  0.2332 -0.5347
   57MOL0     C 7743   9.981   6.757  10.509 -1.2481 -0.6706 -0.5424
   57MOL0     C 7744  10.068   6.842  10.418 -0.8792 -0.8869  0.5294
   57MOL0     N 7745  10.203   6.863  10.481 -0.1460 -0.1549 -0.0476
   57MOL0     C 7746  10.230   6.924  10.610  0.1450 -0.1805  0.0057
   57MOL0     C 7747  10.362   6.958  10.603  0.2504  0.6750 -0.0176
   57MOL0     C 7748  10.453   7.007  10.722 -0.1638  0.6093 -0.2675
   57MOL0     C 7749  10.467   7.163  10.731  0.2082 -0.2117  0.1380
   57MOL0     C 7750  10.584   7.210  10.638  0.0146 -0.5095 -0.5761
   57MOL0     C 7751  10.707   7.216  10.734 -1.0053  0.1490  0.1541
   57MOL0     O 7752  10.823   7.197  10.655  0.2293 -0.0626  0.2755
   57MOL0     C 7753  10.933   7.137  10.711 -0.7417  0.4998  0.2468
   57MOL0     C 7754  10.969   7.135  10.846 -0.4312 -0.0985 -0.0408
   57MOL0     C 7755  11.093   7.093  10.896 -0.5346  0.3973 -0.4332
   57MOL0     C 7756  11.118   7.112  11.045 -0.9691 -0.3791  0.1414
   57MOL0     C 7757  11.195   7.054  10.802 -0.9841 -0.4786  0.4055
   57MOL0     C 7758  11.322   6.991  10.844  0.2348 -0.4274  0.2592
   57MOL0     O 7759  11.427   6.971  10.746  0.6888 -0.0825  0.3995
   57MOL0     C 7760  11.538   6.916  10.793 -0.0879  0.6292  0.0841
   57MOL0     C 7761  11.568   6.781  10.778  0.1663 -0.2887  0.9968
   57MOL0     C 7762  11.670   6.725  10.845  0.6186  0.5350 -0.3899
   57MOL0     C 7763  11.758   6.800  10.926  0.5801  1.2424  0.3141
   57MOL0     O 7764  11.861   6.738  10.998  0.3154 -0.1477 -0.0540
   57MOL0     C 7765  11.867   6.597  11.008 -0.7118 -1.0729  0.0263
   57MOL0     C 7766  11.944   6.531  10.890  0.1664  0.2555  0.0891
   57MOL0     C 7767  12.089   6.571  10.886 -0.3779 -0.2300  0.3571
   57MOL0     C 7768  12.172   6.531  11.000  0.3719 -0.1240 -0.7325
   57MOL0     C 7769  12.322   6.540  10.980  0.9203  0.3919  0.1883
   57MOL0     C 7770  12.372   6.688  10.985 -0.1847  0.6743  0.0263
   57MOL0     C 7771  12.521   6.698  11.027  0.6523 -0.0832  0.2725
   57MOL0     C 7772  12.619   6.619  10.955 -0.0293 -0.1394 -0.3130
   57MOL0    Cl 7773  12.775   6.685  11.010 -0.0269  0.4674 -0.1070
   57MOL0     C 7774  11.739   6.940  10.944 -0.3887  0.5575  0.2135
   57MOL0     C 7775  11.625   6.997  10.879  0.4650  0.5649 -0.8551
   57MOL0     O 7776  11.323   6.944  10.962 -0.6192  0.1644 -0.3252
   57MOL0     C 7777  11.164   7.060  10.669  0.2416 -0.4860 -0.0373
   57MOL0     C 7778  11.034   7.102  10.623 -0.9303  0.3964  0.4831
   57MOL0     N 7779  10.407   6.940  10.473 -0.2716 -0.2911 -0.2830
   57MOL0     N 7780  10.315   6.895  10.409 -0.1200 -0.3543  0.2004
   57MOL0     C 7781   9.083   6.742  10.148 -0.1826 -0.0261 -0.8455
   57MOL0     C 7782   8.956   6.750  10.093  0.6107 -0.2948 -0.0216
   57MOL0     C 7783   8.585   6.786   9.915 -0.3242  0.0776  0.0808
   57MOL0     C 7784   8.607   6.810   9.781 -0.5381 -0.2014 -0.3723
   57MOL0     C 7785   8.520   6.764   9.680  0.2373 -0.0240 -0.4652
   57MOL0     C 7786   8.400   6.711   9.715  0.1100  0.7328 -0.3699
   57MOL0     O 7787   8.295   6.670   9.640  0.0457 -0.0813  0.4025
   57MOL0     C 7788   8.335   6.649   9.498 -0.1717  0.7910  0.4102
   57MOL0     C 7789   8.261   6.537   9.430  0.9059  0.0658 -0.6247
   57MOL0     C 7790   8.105   6.544   9.434  0.4125 -0.4965  0.4519
   57MOL0     C 7791   8.047   6.682   9.436 -0.0106 -0.2807 -0.3621
   57MOL0     C 7792   7.907   6.679   9.429  1.1867  0.2358  0.8406
   57MOL0     C 7793   7.785   6.687   9.419  0.1535 -0.6915  0.0938
   57MOL0     C 7794   8.369   6.687   9.850 -0.5315  0.1675 -0.5263
   57MOL0     C 7795   8.462   6.722   9.945 -0.6662 -0.0974 -0.8112
   57MOL0     C 7796   8.424   6.698  10.085  0.4286  0.1696 -0.9246
   57MOL0     H 7797   8.945   7.088  10.028  1.9742  0.8973 -0.2398
   57MOL0     H 7798   9.163   7.080  10.111  2.0145 -0.7515 -3.1622
   57MOL0     H 7799   9.265   7.038  10.313  1.5470  0.1221  0.4988
   57MOL0     H 7800   9.388   7.032  10.180  1.6158 -0.9474 -1.0690
   57MOL0     H 7801   9.478   7.045  10.424 -0.5560 -1.5731  2.4719
   57MOL0     H 7802   9.414   6.883  10.454  2.6960 -2.9041 -1.4214
   57MOL0     H 7803   9.521   6.802  10.243 -1.3708  1.2384  0.6884
   57MOL0     H 7804   9.625   6.946  10.247  1.6519 -0.4419  1.4369
   57MOL0     H 7805   9.703   6.889  10.470 -1.2914  0.1187  0.3726
   57MOL0     H 7806   9.612   6.740  10.475  0.4933  1.2895  1.0425
   57MOL0     H 7807   9.834   6.820  10.285 -1.6851  2.0089  1.1815
   57MOL0     H 7808   9.742   6.669  10.260 -0.5698 -0.4733 -0.4245
   57MOL0     H 7809   9.826   6.607  10.501 -3.5268 -0.6451 -3.4464
   57MOL0     H 7810   9.951   6.597  10.380 -0.5641 -0.8499  0.3103
   57MOL0     H 7811  10.048   6.680  10.548  0.2737 -1.0424 -3.6311
   57MOL0     H 7812   9.942   6.818  10.591 -1.0548 -1.0368 -0.1727
   57MOL0     H 7813  10.076   6.785  10.326 -1.1774 -0.1696  0.0473
   57MOL0     H 7814  10.022   6.939  10.394 -0.0336 -0.7597 -0.6261
   57MOL0     H 7815  10.158   6.941  10.689 -0.0703  2.4027 -0.6702
   57MOL0     H 7816  10.543   6.946  10.731  0.3809  1.4831  0.4839
   57MOL0     H 7817  10.391   6.991  10.811 -0.4390  1.3932 -0.3041
   57MOL0     H 7818  10.374   7.206  10.694  0.0625  2.5604  3.2628
   57MOL0     H 7819  10.469   7.190  10.837 -2.1630  0.7027 -0.0058
   57MOL0     H 7820  10.605   7.143  10.554  1.6007  1.3964 -1.7864
   57MOL0     H 7821  10.570   7.310  10.596  1.0128  0.4638  1.3054
   57MOL0     H 7822  10.705   7.309  10.792 -1.2972 -0.6009  1.3971
   57MOL0     H 7823  10.707   7.132  10.804  2.1319 -0.0607  0.0105
   57MOL0     H 7824  10.893   7.173  10.914 -0.5781 -1.7648  0.7729
   57MOL0     H 7825  11.126   7.019  11.103  1.2963 -1.1277 -1.2345
   57MOL0     H 7826  11.037   7.175  11.081  1.3238  1.8695  1.7302
   57MOL0     H 7827  11.210   7.169  11.060 -0.9193 -0.5563  0.5223
   57MOL0     H 7828  11.488   6.721  10.734  0.1104  2.3008 -2.9315
   57MOL0     H 7829  11.688   6.619  10.832  3.0661  1.1970 -3.5295
   57MOL0     H 7830  11.917   6.566  11.100  1.8163  1.3937 -0.3772
   57MOL0     H 7831  11.766   6.554  11.013 -0.3097 -2.3176 -1.8385
   57MOL0     H 7832  11.932   6.422  10.891  3.6205 -0.3157 -2.3133
   57MOL0     H 7833  11.904   6.568  10.795  0.9298  3.8727  1.0472
   57MOL0     H 7834  12.105   6.678  10.868  3.9364 -0.7850 -0.0478
   57MOL0     H 7835  12.132   6.523  10.798  2.5360  3.1358 -0.2844
   57MOL0     H 7836  12.142   6.426  11.007 -1.3429  0.3343 -0.7502
   57MOL0     H 7837  12.145   6.583  11.093 -0.9713 -2.3386  0.1707
   57MOL0     H 7838  12.361   6.475  11.059 -2.5000 -1.4988  0.5154
   57MOL0     H 7839  12.348   6.494  10.884 -0.1765 -1.5489  0.7713
   57MOL0     H 7840  12.321   6.739  11.068 -1.3339 -3.0284  1.8323
   57MOL0     H 7841  12.357   6.739  10.890  1.2799  0.6608 -0.2315
   57MOL0     H 7842  12.530   6.676  11.133  3.3480 -1.8527 -0.2147
   57MOL0     H 7843  12.547   6.804  11.018  0.0002  0.0317 -0.3727
   57MOL0     H 7844  12.613   6.629  10.846 -1.3543 -0.0191 -0.2432
   57MOL0     H 7845  12.606   6.513  10.978  0.6568  0.0655  1.1696
   57MOL0     H 7846  11.807   7.001  11.003 -0.1229 -0.0222  0.5151
   57MOL0     H 7847  11.596   7.101  10.894  1.0415  0.4855  1.1764
   57MOL0     H 7848  11.233   7.028  10.591 -0.7547  1.3128 -1.7509
   57MOL0     H 7849  11.013   7.099  10.516 -1.9821  1.0819  0.6597
   57MOL0     H 7850   9.122   6.644  10.172  1.4022  0.4235 -1.4188
   57MOL0     H 7851   8.884   6.669  10.085  1.1232 -0.8747  1.0665
   57MOL0     H 7852   8.693   6.870   9.752 -0.7469  0.7500  0.8834
   57MOL0     H 7853   8.562   6.779   9.580 -0.4262 -2.4687 -1.1795
   57MOL0     H 7854   8.315   6.739   9.439  3.1150  0.4713 -1.4113
   57MOL0     H 7855   8.440   6.623   9.483 -1.0681 -3.4224  0.3362
   57MOL0     H 7856   8.289   6.449   9.489 -0.5057 -1.0478 -1.5616
   57MOL0     H 7857   8.292   6.514   9.327 -1.2745  1.2105 -1.6079
   57MOL0     H 7858   8.076   6.493   9.341 -1.1217  1.0900  0.0137
   57MOL0     H 7859   8.062   6.490   9.519 -1.5461  1.8321  1.0257
   57MOL0     H 7860   8.089   6.748   9.359  2.8659 -0.0970  1.2403
   57MOL0     H 7861   8.064   6.728   9.534 -3.1802  1.0739 -0.3275
   57MOL0     H 7862   7.678   6.685   9.421  0.1383  0.2001  2.4277
   57MOL0     H 7863   8.271   6.643   9.864 -0.4134 -0.0662 -0.4234
   57MOL0     H 7864   8.417   6.781  10.156  0.9738 -1.5135  1.2328
   57MOL0     H 7865   8.325   6.650  10.089  0.0539  0.7989 -2.1648
   57MOL0     H 7866   8.494   6.633  10.138 -0.3856  0.0042 -0.0139
   58MOL0     O 7867   9.232   9.214  10.318  0.3934 -0.4750  0.7699
   58MOL0     C 7868   9.211   9.126  10.235  0.2010 -0.0681  0.2979
   58MOL0     O 7869   9.253   8.997  10.261  0.4247 -0.6082  0.3131
   58MOL0     C 7870   9.278   8.954  10.384  0.1633 -0.5513 -0.0923
   58MOL0     C 7871   9.202   8.991  10.493 -0.1061 -0.9981 -0.4814
   58MOL0     C 7872   9.222   8.932  10.617  0.7161 -0.1650 -0.5793
   58MOL0     C 7873   9.326   8.841  10.640  0.2180 -0.2521 -0.3174
   58MOL0     O 7874   9.361   8.790  10.757 -0.3829 -0.3682 -0.1346
   58MOL0     C 7875   9.489   8.828  10.810 -0.2738  0.4251  0.0195
   58MOL0     C 7876   9.462   8.872  10.949 -0.3576  0.3680 -0.3084
   58MOL0     C 7877   9.593   8.863  11.036 -0.6975  0.0329 -0.8895
   58MOL0     C 7878   9.538   8.898  11.178  0.4962  0.2051 -0.1760
   58MOL0     C 7879   9.657   8.884  11.278  0.0756  0.5405 -0.1430
   58MOL0     C 7880   9.619   8.923  11.425 -0.6081  0.3560 -0.4991
   58MOL0     C 7881   9.724   8.857  11.520 -0.3453 -0.7094 -0.2981
   58MOL0     C 7882   9.851   8.940  11.539 -0.4293 -0.4055  0.2919
   58MOL0     N 7883   9.944   8.873  11.631 -0.6486 -0.2708  0.5257
   58MOL0     C 7884  10.066   8.921  11.667  0.4258  0.6334  1.0034
   58MOL0     C 7885  10.118   8.835  11.759 -0.7673 -0.3948  0.1241
   58MOL0     C 7886  10.246   8.862  11.837  1.5303 -0.4648 -0.4706
   58MOL0     C 7887  10.359   8.763  11.809 -0.0588  0.8685  0.5413
   58MOL0     C 7888  10.446   8.752  11.937 -0.4831  0.1222 -0.0782
   58MOL0     C 7889  10.558   8.641  11.917 -0.3764 -0.3597  0.3982
   58MOL0     O 7890  10.657   8.708  11.850 -0.4260 -0.3583 -0.0436
   58MOL0     C 7891  10.781   8.652  11.834 -0.0975  0.7344  0.4468
   58MOL0     C 7892  10.867   8.719  11.749 -0.2593  0.4078 -0.3432
   58MOL0     C 7893  10.995   8.675  11.722 -0.6331 -0.0006 -0.7923
   58MOL0     C 7894  11.074   8.763  11.637  0.3100 -0.1641  0.1844
   58MOL0     C 7895  11.042   8.545  11.768  0.1775 -0.1460 -0.6189
   58MOL0     C 7896  11.170   8.478  11.745  0.0840  0.7865  0.1431
   58MOL0     O 7897  11.217   8.388  11.843  0.6401 -0.2776  0.7661
   58MOL0     C 7898  11.347   8.351  11.833 -0.0262  0.0365 -0.5173
   58MOL0     C 7899  11.431   8.421  11.914  0.8891 -1.0680  0.0598
   58MOL0     C 7900  11.571   8.405  11.915  0.0974  0.3563 -0.5175
   58MOL0     C 7901  11.618   8.295  11.844 -0.2564  0.6553  0.1334
   58MOL0     O 7902  11.756   8.266  11.833  0.6010  0.1595  0.0191
   58MOL0     C 7903  11.799   8.176  11.933  0.1274  0.4232 -0.1570
   58MOL0     C 7904  11.947   8.149  11.912 -1.0240 -0.6659 -0.2202
   58MOL0     C 7905  11.987   8.024  11.986 -0.1486 -0.0118  0.2881
   58MOL0     C 7906  12.122   7.978  11.926 -0.7278  0.1568  0.2357
   58MOL0     C 7907  12.173   7.868  12.011 -0.4046 -0.0760 -0.3227
   58MOL0     C 7908  12.315   7.830  11.972  0.3604  1.2396 -0.2054
   58MOL0     C 7909  12.361   7.721  12.064 -1.0592  0.3236  0.3643
   58MOL0     C 7910  12.513   7.700  12.029 -0.2551 -0.6826  0.7975
   58MOL0    Cl 7911  12.531   7.603  11.870  0.4984  0.7171 -0.2262
   58MOL0     C 7912  11.533   8.216  11.763  0.1647 -0.8907  0.4303
   58MOL0     C 7913  11.396   8.239  11.772  0.8215  0.3973  0.6147
   58MOL0     O 7914  11.239   8.516  11.653 -0.3196 -0.1215 -0.1193
   58MOL0     C 7915  10.951   8.479  11.860 -0.1658 -0.2096  0.0727
   58MOL0     C 7916  10.826   8.534  11.892  0.1797 -0.4341  0.0144
   58MOL0     N 7917  10.027   8.747  11.789  0.4833 -0.2016 -0.1666
   58MOL0     N 7918   9.921   8.770  11.713  0.0550  0.3170  0.3579
   58MOL0     C 7919   9.391   8.799  10.523  0.1328  0.4991  0.4449
   58MOL0     C 7920   9.358   8.848  10.397  0.2135 -0.0576  0.5943
   58MOL0     C 7921   9.151   9.151  10.097 -0.0489  0.2391  0.2582
   58MOL0     C 7922   9.084   9.046  10.034 -0.4553  0.3934 -0.2438
   58MOL0     C 7923   9.020   9.063   9.908 -0.1123 -0.2352  0.3388
   58MOL0     C 7924   9.027   9.189   9.848  0.7370  0.1605  0.9415
   58MOL0     O 7925   8.966   9.205   9.725  0.4480  0.0200 -0.0180
   58MOL0     C 7926   8.962   9.332   9.649  0.4442 -0.6114 -0.2250
   58MOL0     C 7927   8.875   9.448   9.716 -0.3341  0.0508  0.5621
   58MOL0     C 7928   8.874   9.573   9.631 -0.0637 -0.7235  0.0031
   58MOL0     C 7929   8.756   9.575   9.533 -0.3933 -0.4707 -0.3083
   58MOL0     C 7930   8.626   9.573   9.609  0.3734  0.3822  0.0577
   58MOL0     C 7931   8.526   9.565   9.673 -0.6647 -0.0474 -1.2034
   58MOL0     C 7932   9.095   9.293   9.913 -0.3749  0.0092 -0.9376
   58MOL0     C 7933   9.155   9.282  10.037  0.2475  0.4281 -0.1733
   58MOL0     C 7934   9.215   9.412  10.100 -1.2455  0.2679  0.7076
   58MOL0     H 7935   9.127   9.069  10.488 -2.4064 -2.8319  2.3094
   58MOL0     H 7936   9.158   8.955  10.701 -0.6380 -0.6780 -1.4435
   58MOL0     H 7937   9.536   8.910  10.755 -0.1996 -0.4215 -1.2310
   58MOL0     H 7938   9.554   8.740  10.807 -1.7863 -0.7266 -0.6203
   58MOL0     H 7939   9.429   8.976  10.948  0.6380  0.7621  1.7116
   58MOL0     H 7940   9.387   8.803  10.990  1.6267 -2.3367 -0.9296
   58MOL0     H 7941   9.633   8.761  11.033 -0.2168  0.2437 -2.0352
   58MOL0     H 7942   9.669   8.930  10.996  0.9395 -1.4318 -0.3612
   58MOL0     H 7943   9.485   8.993  11.170 -2.3102 -1.3179 -0.9854
   58MOL0     H 7944   9.468   8.822  11.212  2.6905 -2.0406 -0.3672
   58MOL0     H 7945   9.745   8.937  11.238 -0.3190  0.3680 -1.2704
   58MOL0     H 7946   9.679   8.778  11.264  0.3915  0.7473 -1.3787
   58MOL0     H 7947   9.625   9.029  11.452 -1.3754  0.2356  0.1817
   58MOL0     H 7948   9.518   8.894  11.454  0.1181 -0.6088  1.2538
   58MOL0     H 7949   9.742   8.757  11.480 -1.5702 -2.6181  3.4153
   58MOL0     H 7950   9.684   8.848  11.622  1.6950 -0.2840  0.5797
   58MOL0     H 7951   9.893   8.962  11.440 -1.5886  0.0043 -0.1417
   58MOL0     H 7952   9.810   9.035  11.575 -2.5283 -0.1562 -2.3917
   58MOL0     H 7953  10.105   9.018  11.639  2.2843  0.5692  3.1196
   58MOL0     H 7954  10.225   8.873  11.943 -1.9036 -1.1829 -0.9524
   58MOL0     H 7955  10.278   8.961  11.803 -1.3285  0.5689 -0.4161
   58MOL0     H 7956  10.316   8.662  11.800  1.9665 -0.1584  1.6486
   58MOL0     H 7957  10.422   8.793  11.725  1.7988  0.6123  1.7902
   58MOL0     H 7958  10.496   8.846  11.963 -0.6204 -0.1035  1.0787
   58MOL0     H 7959  10.384   8.717  12.020  1.7345 -2.3645  0.6956
   58MOL0     H 7960  10.603   8.606  12.011 -0.1287  2.6931  1.5304
   58MOL0     H 7961  10.516   8.554  11.866  0.8303 -1.2823  0.9465
   58MOL0     H 7962  10.830   8.805  11.695  0.1993  0.2291 -0.9608
   58MOL0     H 7963  11.173   8.778  11.680 -0.8127  1.5657  2.4009
   58MOL0     H 7964  11.033   8.864  11.636 -1.2188 -0.7454 -1.0825
   58MOL0     H 7965  11.067   8.723  11.536  2.6477 -0.7377  0.1935
   58MOL0     H 7966  11.394   8.502  11.976  0.8183 -0.5439 -0.6484
   58MOL0     H 7967  11.641   8.466  11.971  0.6989 -1.6709  1.0848
   58MOL0     H 7968  11.795   8.225  12.030  1.3043 -0.9847  0.6405
   58MOL0     H 7969  11.748   8.080  11.944  2.2191 -0.6792  0.5206
   58MOL0     H 7970  11.958   8.124  11.806  0.5693  1.6300 -0.6752
   58MOL0     H 7971  12.010   8.237  11.932 -0.7248 -1.0936  0.7477
   58MOL0     H 7972  11.907   7.949  11.983  1.5480 -2.0845  2.6909
   58MOL0     H 7973  11.996   8.048  12.093  0.2187 -3.1397  1.0613
   58MOL0     H 7974  12.202   8.052  11.920  0.1577 -0.6966  1.0231
   58MOL0     H 7975  12.114   7.935  11.826 -0.5146  0.5781  0.0354
   58MOL0     H 7976  12.172   7.891  12.118 -2.5968 -0.2858 -0.2390
   58MOL0     H 7977  12.104   7.783  12.004 -1.7000  1.0124 -1.1210
   58MOL0     H 7978  12.378   7.917  11.987  1.6581  0.6022 -1.6754
   58MOL0     H 7979  12.320   7.806  11.865  2.8647  1.9356 -0.3028
   58MOL0     H 7980  12.299   7.631  12.058 -0.1559 -0.3835  1.4456
   58MOL0     H 7981  12.358   7.749  12.170  1.1355 -0.8431  0.7702
   58MOL0     H 7982  12.563   7.657  12.116 -1.5877 -0.5369  1.6611
   58MOL0     H 7983  12.547   7.803  12.013 -1.7601 -0.2560  0.1943
   58MOL0     H 7984  11.565   8.124  11.715 -0.2480 -0.6259 -0.3619
   58MOL0     H 7985  11.335   8.173  11.711  0.8302  0.5969  0.3884
   58MOL0     H 7986  10.978   8.385  11.906  0.3107 -1.8178 -3.1657
   58MOL0     H 7987  10.769   8.482  11.968 -1.7559  2.5745  0.7642
   58MOL0     H 7988   9.464   8.723  10.548  0.4747  0.9862  0.9422
   58MOL0     H 7989   9.406   8.827  10.302  1.5605  1.7021  0.8170
   58MOL0     H 7990   9.071   8.949  10.082 -2.1827 -1.0947 -3.4111
   58MOL0     H 7991   8.966   8.978   9.867  3.1361 -1.3530 -2.0780
   58MOL0     H 7992   9.060   9.374   9.627 -0.2210  0.4152 -1.3024
   58MOL0     H 7993   8.924   9.327   9.547 -2.2472  2.3309  0.4805
   58MOL0     H 7994   8.928   9.462   9.810  1.5491 -1.8451 -0.1520
   58MOL0     H 7995   8.775   9.416   9.747 -0.5749  1.7899  1.7475
   58MOL0     H 7996   8.873   9.669   9.685  0.2052 -0.1581 -0.9807
   58MOL0     H 7997   8.969   9.577   9.577 -0.5643  2.2947 -0.8330
   58MOL0     H 7998   8.768   9.493   9.462  1.4890 -0.8745  0.4205
   58MOL0     H 7999   8.763   9.670   9.479 -1.2470  1.0244  2.0323
   58MOL0     H 8000   8.434   9.549   9.727 -0.9248  0.7876 -1.3809
   58MOL0     H 8001   9.107   9.395   9.877  0.3061  0.2231 -0.1283
   58MOL0     H 8002   9.221   9.491  10.024  0.5215  0.4570  1.0047
   58MOL0     H 8003   9.152   9.449  10.182 -0.4316  0.9743  1.0212
   58MOL0     H 8004   9.320   9.400  10.125 -0.7199  0.2478 -1.3014
   59MOL0     O 8005   0.905   2.381   4.371 -0.4297  0.6854 -0.0419
   59MOL0     C 8006   0.865   2.264   4.357  0.4956 -0.3389  0.0717
   59MOL0     O 8007   0.924   2.172   4.286 -0.3452 -0.2150 -0.7183
   59MOL0     C 8008   1.042   2.200   4.223 -0.7516  0.1805  0.8989
   59MOL0     C 8009   1.075   2.311   4.150 -0.5684  0.3402  0.6430
   59MOL0     C 8010   1.195   2.325   4.080 -0.2721  0.0487  0.7981
   59MOL0     C 8011   1.298   2.223   4.102  0.5148 -0.6770  0.0474
   59MOL0     O 8012   1.430   2.228   4.059  0.1645  0.1933  0.1682
   59MOL0     C 8013   1.485   2.354   4.018 -0.0460  0.2287 -0.3611
   59MOL0     C 8014   1.623   2.324   3.956 -0.5909 -0.5032 -0.4206
   59MOL0     C 8015   1.717   2.254   4.065  0.3245  0.1118 -0.3755
   59MOL0     C 8016   1.851   2.189   4.004  0.0374  0.5661  1.2078
   59MOL0     C 8017   1.952   2.152   4.110  0.4487  0.2380  0.9095
   59MOL0     C 8018   2.081   2.119   4.046 -0.2654 -0.1991  0.5433
   59MOL0     C 8019   2.185   2.068   4.147  0.7778  0.7244 -0.5542
   59MOL0     C 8020   2.330   2.051   4.093 -0.8319  0.4471 -0.1982
   59MOL0     N 8021   2.324   1.996   3.961  0.0378 -0.0598 -0.1199
   59MOL0     C 8022   2.318   2.073   3.842  0.4747 -0.1119  0.3718
   59MOL0     C 8023   2.314   1.984   3.738  0.4451 -0.4030  0.0338
   59MOL0     C 8024   2.282   2.006   3.586 -0.3110  0.2122  0.0475
   59MOL0     C 8025   2.398   2.070   3.518 -0.3863 -0.1080 -0.2312
   59MOL0     C 8026   2.543   2.009   3.549  0.1045  0.2783 -0.5724
   59MOL0     C 8027   2.647   2.084   3.479 -0.4791 -0.1762  0.7420
   59MOL0     O 8028   2.628   2.050   3.337 -0.3212 -0.2557  0.0540
   59MOL0     C 8029   2.728   2.097   3.250  0.0032  0.6800 -0.4072
   59MOL0     C 8030   2.722   2.044   3.117  0.0917 -0.4549 -0.2182
   59MOL0     C 8031   2.814   2.080   3.025  0.0388 -0.9479 -0.1805
   59MOL0     C 8032   2.795   2.020   2.882  0.1410 -0.5406 -0.9858
   59MOL0     C 8033   2.917   2.175   3.056 -0.3347  0.5026 -0.1268
   59MOL0     C 8034   3.025   2.224   2.960 -0.5799  0.3797  0.4840
   59MOL0     O 8035   3.039   2.156   2.838 -0.1050 -0.7459  0.6899
   59MOL0     C 8036   3.133   2.205   2.751 -1.1754  0.1530  0.5809
   59MOL0     C 8037   3.269   2.187   2.772  0.1776 -0.3869  0.3283
   59MOL0     C 8038   3.369   2.246   2.682  0.1321  0.5960 -0.5906
   59MOL0     C 8039   3.331   2.308   2.572 -0.1806 -0.2986  0.0918
   59MOL0     O 8040   3.432   2.353   2.494 -0.6271 -0.0379 -0.0924
   59MOL0     C 8041   3.411   2.397   2.364 -0.9724  0.1998  0.6488
   59MOL0     C 8042   3.543   2.445   2.293 -0.2177 -0.1440 -0.0051
   59MOL0     C 8043   3.637   2.330   2.268  0.5561  0.1201  0.1130
   59MOL0     C 8044   3.769   2.385   2.199 -0.0157 -0.5811 -0.1305
   59MOL0     C 8045   3.859   2.268   2.179  0.1651  0.1357  1.6127
   59MOL0     C 8046   3.981   2.321   2.101  0.5479 -0.4791 -0.2404
   59MOL0     C 8047   4.072   2.208   2.052 -0.3848 -1.2817 -0.1354
   59MOL0     C 8048   4.163   2.263   1.943 -0.1276  1.3722 -0.2747
   59MOL0    Cl 8049   4.270   2.386   2.010 -0.2223 -0.0813 -0.1373
   59MOL0     C 8050   3.190   2.323   2.545  0.1268  0.4195  0.2321
   59MOL0     C 8051   3.090   2.271   2.633 -0.4992  0.7348  0.4022
   59MOL0     O 8052   3.066   2.334   2.985  0.5190 -0.9011  0.3814
   59MOL0     C 8053   2.918   2.226   3.184 -0.2447 -0.3909  0.6870
   59MOL0     C 8054   2.821   2.196   3.284 -0.3707 -0.2029  0.5153
   59MOL0     N 8055   2.307   1.858   3.798  0.2952  0.5335 -0.1474
   59MOL0     N 8056   2.317   1.859   3.924  0.1321 -1.0207  0.1063
   59MOL0     C 8057   1.268   2.107   4.169 -0.0551 -0.9829 -0.7003
   59MOL0     C 8058   1.140   2.101   4.229 -0.8850  0.0495 -0.5984
   59MOL0     C 8059   0.745   2.221   4.435  0.0289  0.1313 -0.1728
   59MOL0     C 8060   0.732   2.087   4.458 -0.0252 -0.2097  0.5690
   59MOL0     C 8061   0.617   2.043   4.520  0.0575  0.4509  0.2516
   59MOL0     C 8062   0.527   2.131   4.575 -0.2299  0.5552  0.6200
   59MOL0     O 8063   0.411   2.083   4.631 -0.3765  0.7424 -0.1546
   59MOL0     C 8064   0.312   2.166   4.697 -0.8936  0.3828 -0.1106
   59MOL0     C 8065   0.225   2.226   4.598  0.1643 -0.4594  0.2693
   59MOL0     C 8066   0.165   2.368   4.629 -0.3345  0.2061  0.4624
   59MOL0     C 8067   0.163   2.449   4.506 -0.3492  1.2949  0.2646
   59MOL0     C 8068   0.116   2.582   4.549  0.5169  1.1236  0.5130
   59MOL0     C 8069   0.080   2.689   4.588  0.3661  0.2680 -0.5062
   59MOL0     C 8070   0.541   2.270   4.555 -0.5543 -0.2080  0.5159
   59MOL0     C 8071   0.642   2.314   4.475  0.6059 -0.5858 -0.0625
   59MOL0     C 8072   0.648   2.464   4.453 -0.5355  0.6952  1.0798
   59MOL0     H 8073   1.000   2.388   4.135 -0.7073 -0.0445 -0.7744
   59MOL0     H 8074   1.207   2.414   4.019  2.0626 -1.2391 -0.7878
   59MOL0     H 8075   1.493   2.420   4.105 -2.7286 -1.9015  1.6717
   59MOL0     H 8076   1.423   2.399   3.941 -0.0912 -0.4218 -0.7123
   59MOL0     H 8077   1.613   2.255   3.872  1.3649 -3.0769  1.2928
   59MOL0     H 8078   1.660   2.413   3.906  0.9405 -0.9407 -0.1072
   59MOL0     H 8079   1.751   2.331   4.135 -1.5151 -0.6391  1.4190
   59MOL0     H 8080   1.655   2.195   4.132  1.4019  0.8042  1.2836
   59MOL0     H 8081   1.830   2.104   3.938  1.9690  1.0236 -0.0892
   59MOL0     H 8082   1.901   2.257   3.934  0.7155 -1.8419 -0.8017
   59MOL0     H 8083   1.917   2.068   4.171 -0.6916 -2.2589 -2.8678
   59MOL0     H 8084   1.970   2.238   4.176 -3.7752  2.4791 -0.4510
   59MOL0     H 8085   2.057   2.045   3.969 -4.2289  0.9306  0.4711
   59MOL0     H 8086   2.128   2.199   3.987  0.5542 -0.7288  0.4502
   59MOL0     H 8087   2.147   1.974   4.186  1.4716  1.3293  1.6948
   59MOL0     H 8088   2.182   2.126   4.239 -2.2462 -0.8760  0.4924
   59MOL0     H 8089   2.379   2.148   4.081  0.0009  0.1898  0.9849
   59MOL0     H 8090   2.391   1.982   4.152 -0.6120 -0.4631 -1.4554
   59MOL0     H 8091   2.304   2.180   3.828  2.6527  0.1171 -0.3946
   59MOL0     H 8092   2.193   2.069   3.582 -1.9816 -1.7593  2.4993
   59MOL0     H 8093   2.264   1.908   3.539 -1.7582 -0.2092  1.4041
   59MOL0     H 8094   2.375   2.044   3.415  0.2828 -2.3128  0.1202
   59MOL0     H 8095   2.405   2.179   3.528  0.8731 -0.0628 -1.3238
   59MOL0     H 8096   2.564   2.009   3.656 -2.0664 -0.4216 -0.1034
   59MOL0     H 8097   2.543   1.903   3.520 -0.5372  0.4633 -1.2869
   59MOL0     H 8098   2.644   2.188   3.513  0.1940 -0.9011  3.2430
   59MOL0     H 8099   2.745   2.052   3.516  1.5672  3.2059 -1.1769
   59MOL0     H 8100   2.639   1.979   3.091 -0.0934 -0.5991  0.7055
   59MOL0     H 8101   2.783   2.100   2.807  2.4243  0.5302 -0.2996
   59MOL0     H 8102   2.713   1.948   2.872 -2.3969  1.6357  2.0343
   59MOL0     H 8103   2.881   1.960   2.850  0.6491 -0.9637  1.0501
   59MOL0     H 8104   3.294   2.119   2.852 -4.6263 -1.1096  1.5412
   59MOL0     H 8105   3.470   2.236   2.721 -0.6889 -0.8641  1.3786
   59MOL0     H 8106   3.366   2.314   2.308 -0.8009 -0.4996  1.5235
   59MOL0     H 8107   3.339   2.479   2.369  0.7920  1.7621  1.7733
   59MOL0     H 8108   3.514   2.488   2.197 -0.4459 -2.4494 -1.0591
   59MOL0     H 8109   3.594   2.509   2.365  0.4611  0.3424 -0.8996
   59MOL0     H 8110   3.579   2.260   2.206  0.6819 -0.3143  0.4798
   59MOL0     H 8111   3.658   2.278   2.361  3.4081 -1.5565 -1.3435
   59MOL0     H 8112   3.815   2.461   2.263  1.9251 -0.9163 -1.0603
   59MOL0     H 8113   3.741   2.428   2.103 -1.2310 -1.3459 -0.1381
   59MOL0     H 8114   3.893   2.219   2.270 -2.5672  0.6942  3.0412
   59MOL0     H 8115   3.813   2.194   2.113  1.5321 -0.1398  0.9361
   59MOL0     H 8116   4.049   2.383   2.160  2.2120 -1.5421 -0.9598
   59MOL0     H 8117   3.951   2.379   2.013 -0.1786  1.0459  0.9658
   59MOL0     H 8118   4.026   2.116   2.015  1.7578 -3.0900  1.3916
   59MOL0     H 8119   4.132   2.174   2.137  0.7057  2.5847  0.8679
   59MOL0     H 8120   4.098   2.299   1.863 -3.1295  1.5306  2.0524
   59MOL0     H 8121   4.232   2.184   1.911 -0.9017  0.6425 -0.1532
   59MOL0     H 8122   3.153   2.379   2.460  1.6486 -0.4078 -1.0361
   59MOL0     H 8123   2.986   2.267   2.603  0.4168  1.4244 -3.4504
   59MOL0     H 8124   2.997   2.294   3.215 -0.7375  0.5182  0.0020
   59MOL0     H 8125   2.815   2.255   3.375  0.9541 -0.2866  0.6817
   59MOL0     H 8126   1.341   2.029   4.188 -0.2321 -1.2103 -0.9584
   59MOL0     H 8127   1.119   2.015   4.291 -2.3831  0.6527 -0.2015
   59MOL0     H 8128   0.811   2.026   4.416 -1.0619 -0.2675 -1.4062
   59MOL0     H 8129   0.604   1.935   4.530 -1.4399  0.7777  2.5804
   59MOL0     H 8130   0.252   2.108   4.767  1.2364 -0.4056  1.1517
   59MOL0     H 8131   0.356   2.241   4.764  0.1357 -0.5008  0.2366
   59MOL0     H 8132   0.146   2.153   4.580  0.4432 -1.0998  1.4983
   59MOL0     H 8133   0.274   2.233   4.501  0.1174 -1.2031  0.1878
   59MOL0     H 8134   0.062   2.351   4.662 -0.3688  0.7795  0.6580
   59MOL0     H 8135   0.211   2.416   4.716 -1.7469  2.3101  0.1234
   59MOL0     H 8136   0.095   2.409   4.430  1.1274  2.2093 -1.6386
   59MOL0     H 8137   0.264   2.468   4.466 -0.2354  2.8544  1.2370
   59MOL0     H 8138   0.058   2.772   4.653  0.6058 -1.8193  2.4895
   59MOL0     H 8139   0.470   2.341   4.596 -0.3564  0.2656  0.0458
   59MOL0     H 8140   0.555   2.517   4.476 -0.2695  1.0214  1.4279
   59MOL0     H 8141   0.724   2.493   4.527  0.5319  1.0128 -0.1125
   59MOL0     H 8142   0.675   2.492   4.351 -0.0131 -0.3352  0.9163
   60MOL0     O 8143   4.168   9.304   3.498  0.8968 -0.9016 -0.4067
   60MOL0     C 8144   4.184   9.368   3.393  0.0790 -0.2936 -0.3845
   60MOL0     O 8145   4.305   9.395   3.349 -0.1304  0.2180  0.2318
   60MOL0     C 8146   4.423   9.357   3.422 -0.1499  0.6956 -0.1146
   60MOL0     C 8147   4.480   9.227   3.407  0.6856  0.5465  0.1751
   60MOL0     C 8148   4.616   9.216   3.462 -0.4075 -0.5322  0.0014
   60MOL0     C 8149   4.671   9.311   3.541 -1.2507 -0.8515 -0.9974
   60MOL0     O 8150   4.788   9.291   3.604 -0.2454 -0.5141  0.0666
   60MOL0     C 8151   4.895   9.234   3.520 -0.0755  0.6971 -0.7732
   60MOL0     C 8152   5.026   9.237   3.598 -0.2810  0.3216  0.1956
   60MOL0     C 8153   5.105   9.359   3.546  0.0876  0.6995  0.5447
   60MOL0     C 8154   5.229   9.385   3.625  0.0780 -0.1923  0.5462
   60MOL0     C 8155   5.215   9.474   3.754  0.2972 -0.1139 -0.1979
   60MOL0     C 8156   5.347   9.552   3.802  0.3663  0.2464  0.2888
   60MOL0     C 8157   5.352   9.674   3.715  0.6371  0.3569 -0.2984
   60MOL0     C 8158   5.411   9.797   3.792 -0.1874  0.1650 -0.1362
   60MOL0     N 8159   5.552   9.779   3.807  0.8316  0.3117  0.1554
   60MOL0     C 8160   5.613   9.702   3.907  0.2685 -0.5119 -0.2962
   60MOL0     C 8161   5.744   9.694   3.864 -0.2474  0.2358 -0.5355
   60MOL0     C 8162   5.858   9.644   3.948 -0.2634 -0.3806  0.0785
   60MOL0     C 8163   5.955   9.761   3.985 -0.0000 -0.5453 -0.0319
   60MOL0     C 8164   6.043   9.793   3.859 -0.2077 -0.1697  0.5210
   60MOL0     C 8165   6.150   9.896   3.899 -0.3183  0.5106  0.0681
   60MOL0     O 8166   6.191   9.957   3.777  0.1497 -0.4764 -0.2562
   60MOL0     C 8167   6.299  10.038   3.773 -0.3739 -0.2207  0.7563
   60MOL0     C 8168   6.372  10.086   3.875 -0.2017 -0.5098 -0.2704
   60MOL0     C 8169   6.488  10.175   3.867  0.2514  1.2072  0.2108
   60MOL0     C 8170   6.556  10.210   3.991  0.2124 -0.3980  0.3417
   60MOL0     C 8171   6.519  10.219   3.740 -0.0344 -0.2765 -0.4770
   60MOL0     C 8172   6.641  10.304   3.707  0.0895  0.5768  0.4895
   60MOL0     O 8173   6.649  10.349   3.577 -0.1587  0.1835 -0.1248
   60MOL0     C 8174   6.740  10.451   3.553 -0.2447 -0.1396  0.6700
   60MOL0     C 8175   6.865  10.414   3.496 -0.2331 -0.3532 -0.1210
   60MOL0     C 8176   6.943  10.525   3.446  0.2656  0.4643 -0.2113
   60MOL0     C 8177   6.925  10.657   3.477  0.6652 -0.5380 -0.2821
   60MOL0     O 8178   7.016  10.747   3.440 -0.2425  0.1060  0.7888
   60MOL0     C 8179   7.022  10.871   3.515  0.7092 -0.7930 -0.1793
   60MOL0     C 8180   7.146  10.946   3.481 -0.1313 -0.1895 -0.7314
   60MOL0     C 8181   7.276  10.881   3.532 -0.1301 -0.0243  0.1162
   60MOL0     C 8182   7.392  10.976   3.484  0.4413 -0.2681 -0.3555
   60MOL0     C 8183   7.527  10.921   3.521 -0.6032 -0.4278 -0.3586
   60MOL0     C 8184   7.576  10.795   3.439  0.2299 -0.6970  0.6900
   60MOL0     C 8185   7.665  10.835   3.316  0.9384 -0.2269 -0.0135
   60MOL0     C 8186   7.682  10.731   3.203 -0.6440  0.4139 -0.0053
   60MOL0    Cl 8187   7.535  10.721   3.099 -0.0849  0.0882 -0.1503
   60MOL0     C 8188   6.798  10.692   3.544 -0.2270 -0.6384 -0.0713
   60MOL0     C 8189   6.710  10.589   3.578 -0.1068  0.4119  0.2766
   60MOL0     O 8190   6.721  10.341   3.795  0.5575  0.1954 -0.2952
   60MOL0     C 8191   6.450  10.164   3.626  0.8251  0.1634 -0.3184
   60MOL0     C 8192   6.342  10.081   3.642  0.0185  0.6834 -0.3535
   60MOL0     N 8193   5.754   9.749   3.743 -0.0852 -1.1705 -0.2036
   60MOL0     N 8194   5.640   9.807   3.710 -0.7613  0.4587 -1.1785
   60MOL0     C 8195   4.597   9.428   3.568 -0.4521  0.3564 -0.4762
   60MOL0     C 8196   4.470   9.456   3.517 -0.8890  0.4106  0.8249
   60MOL0     C 8197   4.071   9.394   3.311 -0.4222 -0.0244  0.1702
   60MOL0     C 8198   4.099   9.385   3.171 -0.0404  0.1792  0.0758
   60MOL0     C 8199   3.997   9.399   3.076  0.6313  0.0740 -0.0537
   60MOL0     C 8200   3.868   9.431   3.117 -0.0574 -1.1541  0.6047
   60MOL0     O 8201   3.775   9.435   3.014 -0.3773 -1.0144 -0.1313
   60MOL0     C 8202   3.646   9.500   3.041 -0.3036 -0.5924  0.5503
   60MOL0     C 8203   3.551   9.488   2.920  0.5991  0.3496  0.6762
   60MOL0     C 8204   3.405   9.537   2.938 -0.0106  0.5485  0.6026
   60MOL0     C 8205   3.329   9.520   2.806  0.0156  0.7555  0.1462
   60MOL0     C 8206   3.291   9.650   2.748 -0.5266 -0.3703  0.0294
   60MOL0     C 8207   3.252   9.742   2.678  0.3203  0.1607  0.2117
   60MOL0     C 8208   3.845   9.458   3.256  0.1759 -0.1436  0.6333
   60MOL0     C 8209   3.944   9.435   3.357 -0.7344 -0.9726  0.0996
   60MOL0     C 8210   3.911   9.462   3.498 -0.3604  0.8118 -0.1897
   60MOL0     H 8211   4.427   9.151   3.352  0.3460 -0.1286  1.3997
   60MOL0     H 8212   4.660   9.122   3.430  0.8663 -0.6451  1.9514
   60MOL0     H 8213   4.901   9.291   3.427  1.6539  0.6117 -0.7507
   60MOL0     H 8214   4.870   9.128   3.507  0.6158  0.2701  1.1115
   60MOL0     H 8215   5.010   9.246   3.705 -1.5396  1.2387 -0.0478
   60MOL0     H 8216   5.080   9.142   3.586  0.2819  0.4831  1.3434
   60MOL0     H 8217   5.134   9.335   3.443 -2.8360  1.6423 -0.5957
   60MOL0     H 8218   5.034   9.442   3.555 -0.1541  0.4165  1.2740
   60MOL0     H 8219   5.283   9.298   3.665 -0.1792 -1.6076 -1.9473
   60MOL0     H 8220   5.298   9.439   3.560 -2.6856  1.3087 -1.3783
   60MOL0     H 8221   5.192   9.392   3.822  3.6217 -2.3995 -1.5519
   60MOL0     H 8222   5.125   9.536   3.743  0.4477  0.0569 -0.4799
   60MOL0     H 8223   5.336   9.585   3.905  0.7613 -2.1402  1.1695
   60MOL0     H 8224   5.436   9.491   3.784  0.8435  0.7108  1.0733
   60MOL0     H 8225   5.250   9.701   3.686  0.8457  0.8590 -0.5708
   60MOL0     H 8226   5.405   9.656   3.621 -0.8924  0.3901 -1.2045
   60MOL0     H 8227   5.387   9.890   3.740 -0.2800  0.2593  0.0717
   60MOL0     H 8228   5.360   9.799   3.889  0.0642 -3.3811  0.2112
   60MOL0     H 8229   5.578   9.682   4.008 -1.4873 -0.6199 -0.8956
   60MOL0     H 8230   5.903   9.558   3.896 -2.0842 -0.3190 -1.6935
   60MOL0     H 8231   5.820   9.607   4.043  0.4912 -0.1506  0.4823
   60MOL0     H 8232   5.898   9.849   4.015 -1.4291 -1.0009 -1.2738
   60MOL0     H 8233   6.013   9.713   4.065  1.0439 -1.7483 -1.4556
   60MOL0     H 8234   6.077   9.696   3.822  1.3431  0.7062 -0.4429
   60MOL0     H 8235   5.979   9.845   3.788  0.9389 -1.0542 -1.2546
   60MOL0     H 8236   6.117   9.968   3.975  1.7036  1.7551 -0.1859
   60MOL0     H 8237   6.228   9.839   3.951  0.8520  1.5834 -0.4646
   60MOL0     H 8238   6.350  10.064   3.979 -0.6960  2.7905  0.4326
   60MOL0     H 8239   6.661  10.181   3.990  1.0126  2.1589 -1.5522
   60MOL0     H 8240   6.510  10.152   4.071  0.6583 -1.4561 -0.1542
   60MOL0     H 8241   6.550  10.313   4.028  0.9184  0.3234 -1.4254
   60MOL0     H 8242   6.891  10.310   3.479  0.5230 -0.1949  0.0194
   60MOL0     H 8243   7.040  10.506   3.403  0.4463  0.3482  0.2368
   60MOL0     H 8244   6.945  10.945   3.493  0.9391 -0.1990  0.9716
   60MOL0     H 8245   7.015  10.848   3.621  0.1656 -1.7160 -0.3945
   60MOL0     H 8246   7.154  10.946   3.371  0.0524 -0.4924 -0.7163
   60MOL0     H 8247   7.141  11.052   3.508  5.3440  0.8616 -2.5961
   60MOL0     H 8248   7.279  10.779   3.493 -1.5564 -0.5795  1.3551
   60MOL0     H 8249   7.282  10.868   3.640  1.0606  0.5120  0.1349
   60MOL0     H 8250   7.384  11.070   3.539  1.9455 -0.6689  0.6029
   60MOL0     H 8251   7.381  10.987   3.375 -0.1571 -0.5856 -0.3307
   60MOL0     H 8252   7.593  11.009   3.516 -2.7731  1.5855  2.5934
   60MOL0     H 8253   7.523  10.892   3.626  1.6352 -3.7785 -1.0450
   60MOL0     H 8254   7.494  10.732   3.405  0.1963 -0.0173 -0.5676
   60MOL0     H 8255   7.630  10.727   3.505 -0.3212 -2.2544 -0.4145
   60MOL0     H 8256   7.761  10.856   3.364  1.9632 -2.0021 -1.1546
   60MOL0     H 8257   7.634  10.930   3.272 -0.2567 -0.3573  0.5222
   60MOL0     H 8258   7.703  10.634   3.251 -2.5207  0.7108  1.5444
   60MOL0     H 8259   7.761  10.766   3.136  2.2571  1.3446  3.5958
   60MOL0     H 8260   6.774  10.795   3.570 -0.1434 -0.3271 -1.1659
   60MOL0     H 8261   6.614  10.601   3.626 -0.7607 -1.0921 -0.5975
   60MOL0     H 8262   6.482  10.192   3.526 -0.9683 -1.4244 -1.4101
   60MOL0     H 8263   6.281  10.058   3.556  0.4528  0.5017 -0.6115
   60MOL0     H 8264   4.639   9.500   3.638 -0.4773 -1.8175  1.9070
   60MOL0     H 8265   4.416   9.549   3.535  0.6356  1.0514  2.3695
   60MOL0     H 8266   4.199   9.358   3.136 -0.1371 -0.1297  0.0298
   60MOL0     H 8267   4.008   9.375   2.971 -0.3642  0.7428 -0.3313
   60MOL0     H 8268   3.601   9.445   3.124  2.7881  0.5805  3.2589
   60MOL0     H 8269   3.657   9.604   3.072 -2.6446 -0.1446  0.0422
   60MOL0     H 8270   3.555   9.382   2.893  0.4125 -0.5938  3.9259
   60MOL0     H 8271   3.591   9.542   2.833  0.2144  1.3734  1.1219
   60MOL0     H 8272   3.351   9.468   3.004 -1.2411 -2.3092 -3.0247
   60MOL0     H 8273   3.405   9.641   2.974  2.0986  0.0409  2.2702
   60MOL0     H 8274   3.237   9.462   2.816  1.4078 -1.4700  0.8520
   60MOL0     H 8275   3.384   9.457   2.735  3.1602  0.8531  2.2809
   60MOL0     H 8276   3.207   9.815   2.613 -0.6087 -1.7078 -1.3600
   60MOL0     H 8277   3.744   9.476   3.293  0.5263  0.7230  1.1886
   60MOL0     H 8278   3.826   9.529   3.510  0.0025  1.3140 -0.3912
   60MOL0     H 8279   3.898   9.366   3.549 -0.6636  0.7255 -0.4230
   60MOL0     H 8280   3.992   9.508   3.554  0.1324 -0.6054  0.3087
   61MOL0     O 8281   8.969   0.501   8.427  0.2747 -0.2042  0.9679
   61MOL0     C 8282   8.872   0.442   8.382 -0.3903 -0.2379  0.0101
   61MOL0     O 8283   8.831   0.452   8.253  0.3712 -0.3675 -0.1616
   61MOL0     C 8284   8.889   0.544   8.163  0.3832  0.1837  0.7735
   61MOL0     C 8285   8.922   0.676   8.198 -1.2970  0.7778  0.4213
   61MOL0     C 8286   8.965   0.767   8.097 -0.1963  0.3951 -0.1600
   61MOL0     C 8287   8.977   0.734   7.963  0.5164 -0.7614  0.0760
   61MOL0     O 8288   9.006   0.836   7.880  0.0752  0.1449 -0.1012
   61MOL0     C 8289   9.022   0.819   7.739  0.2351 -0.4898 -1.1659
   61MOL0     C 8290   9.157   0.755   7.711 -0.3114  0.3112  0.4231
   61MOL0     C 8291   9.284   0.831   7.683 -0.7023 -0.4423  0.6448
   61MOL0     C 8292   9.382   0.739   7.625 -0.4520  0.4626  0.0217
   61MOL0     C 8293   9.499   0.822   7.582  0.1949  0.0599  0.6013
   61MOL0     C 8294   9.619   0.736   7.534 -0.4705  0.6705  0.3604
   61MOL0     C 8295   9.741   0.824   7.499  0.0268  0.6416  0.5331
   61MOL0     C 8296   9.735   0.876   7.353  0.5150  0.3040  0.2761
   61MOL0     N 8297   9.871   0.880   7.298  0.2898 -0.1939  0.0111
   61MOL0     C 8298   9.964   0.772   7.285  0.2322  0.0226 -1.1122
   61MOL0     C 8299  10.082   0.820   7.238  0.4161 -0.1172 -0.2870
   61MOL0     C 8300  10.204   0.739   7.195  1.1383 -0.2708  0.0909
   61MOL0     C 8301  10.324   0.823   7.214 -0.1908 -0.8096  0.2300
   61MOL0     C 8302  10.448   0.746   7.164  0.5927 -0.6958  0.1999
   61MOL0     C 8303  10.578   0.807   7.198 -0.2354 -0.2941 -0.0936
   61MOL0     O 8304  10.597   0.838   7.339  0.0094  0.1262  0.4229
   61MOL0     C 8305  10.725   0.876   7.377 -0.1087 -0.1755 -0.4536
   61MOL0     C 8306  10.836   0.906   7.295  0.0462  0.1267 -0.8051
   61MOL0     C 8307  10.957   0.962   7.344  0.7305 -0.0827  0.6579
   61MOL0     C 8308  11.054   0.998   7.237  0.5666  0.1382 -1.1843
   61MOL0     C 8309  10.972   0.973   7.480  0.0558 -0.1438  0.3859
   61MOL0     C 8310  11.100   1.035   7.542 -0.2773 -0.3702  1.0762
   61MOL0     O 8311  11.094   1.039   7.670 -0.1075 -0.3521 -0.3086
   61MOL0     C 8312  11.168   1.114   7.757  0.5517 -0.3490  0.0524
   61MOL0     C 8313  11.126   1.099   7.889  0.1500 -0.2096 -0.7027
   61MOL0     C 8314  11.195   1.164   7.997 -1.1548 -0.8069  0.1092
   61MOL0     C 8315  11.305   1.241   7.975  0.8333 -0.2361  0.0482
   61MOL0     O 8316  11.370   1.290   8.086 -0.1986  0.2583 -0.6129
   61MOL0     C 8317  11.513   1.296   8.066  0.2195  0.0147 -0.2564
   61MOL0     C 8318  11.578   1.295   8.205  0.6005 -0.0863  0.1181
   61MOL0     C 8319  11.733   1.305   8.202  0.0700  0.3692  0.1609
   61MOL0     C 8320  11.792   1.343   8.340  0.9049  0.1477 -0.5432
   61MOL0     C 8321  11.944   1.348   8.337  0.8605 -0.4327 -0.7407
   61MOL0     C 8322  12.010   1.459   8.258  0.0826  0.1651  0.8544
   61MOL0     C 8323  12.159   1.468   8.285  0.2431  0.3110  0.2871
   61MOL0     C 8324  12.246   1.337   8.276  0.0547  0.5166  0.9403
   61MOL0    Cl 8325  12.391   1.361   8.380  0.3637 -0.1592 -0.2383
   61MOL0     C 8326  11.354   1.246   7.842  0.6487 -0.8628 -0.1414
   61MOL0     C 8327  11.286   1.187   7.734  0.2160 -0.0254 -0.3604
   61MOL0     O 8328  11.190   1.084   7.468  0.0507 -0.1482 -0.7804
   61MOL0     C 8329  10.871   0.927   7.565  0.6660 -0.8644 -0.1889
   61MOL0     C 8330  10.749   0.887   7.514  0.9702 -0.2953 -0.0621
   61MOL0     N 8331  10.062   0.957   7.233 -0.6772 -0.9623  0.0006
   61MOL0     N 8332   9.945   0.994   7.270  0.7453  0.2958 -0.2679
   61MOL0     C 8333   8.948   0.603   7.930  0.0062  0.7254 -0.0603
   61MOL0     C 8334   8.895   0.514   8.024 -0.4240  0.1671  0.1018
   61MOL0     C 8335   8.787   0.358   8.472  0.1642 -0.5105  0.8538
   61MOL0     C 8336   8.739   0.413   8.593 -0.4795 -0.2240 -0.1181
   61MOL0     C 8337   8.651   0.342   8.675 -0.1873 -0.3528 -0.2409
   61MOL0     C 8338   8.600   0.217   8.638  0.0263 -0.2578  0.1095
   61MOL0     O 8339   8.502   0.149   8.700  0.3796 -0.1173 -0.3028
   61MOL0     C 8340   8.432   0.194   8.812 -0.2326  0.8156 -0.1727
   61MOL0     C 8341   8.336   0.092   8.865 -0.1502  0.3163 -0.1728
   61MOL0     C 8342   8.223   0.055   8.761  0.4086 -0.6103  0.5560
   61MOL0     C 8343   8.120  -0.038   8.835  0.1494 -0.1595  0.3595
   61MOL0     C 8344   8.009   0.054   8.877 -0.0037  0.5359  0.3042
   61MOL0     C 8345   7.913   0.113   8.908  1.0886 -0.0919 -0.5956
   61MOL0     C 8346   8.647   0.164   8.518  0.4037 -0.4404 -0.2258
   61MOL0     C 8347   8.744   0.228   8.440  0.6384  0.2828 -0.0008
   61MOL0     C 8348   8.804   0.158   8.320  0.1817  1.4521  0.3599
   61MOL0     H 8349   8.903   0.712   8.298 -5.0266  2.2585 -0.6468
   61MOL0     H 8350   8.981   0.871   8.124 -1.7207  1.0508 -1.5427
   61MOL0     H 8351   9.028   0.918   7.692  1.1772 -0.7696 -1.6453
   61MOL0     H 8352   8.945   0.751   7.701  2.3636 -2.7317 -1.6863
   61MOL0     H 8353   9.177   0.690   7.797  0.9184  2.4276  1.8486
   61MOL0     H 8354   9.138   0.690   7.626 -3.8466  0.5281  0.8784
   61MOL0     H 8355   9.255   0.922   7.630 -0.7531  0.7574  2.6222
   61MOL0     H 8356   9.324   0.877   7.774  1.2186  0.8728 -0.7568
   61MOL0     H 8357   9.419   0.669   7.700  0.5907  0.6786 -0.2693
   61MOL0     H 8358   9.346   0.680   7.540  1.1689 -2.6643  1.3346
   61MOL0     H 8359   9.536   0.885   7.663 -1.5813  0.9511  0.7697
   61MOL0     H 8360   9.469   0.892   7.504  0.6072  0.1331  0.5063
   61MOL0     H 8361   9.656   0.657   7.600 -2.5132 -0.3524  0.3575
   61MOL0     H 8362   9.589   0.683   7.443 -1.7663  3.5677 -1.0427
   61MOL0     H 8363   9.835   0.770   7.509  0.2649  1.1501  1.0894
   61MOL0     H 8364   9.749   0.903   7.574  0.9731 -0.6754  1.8646
   61MOL0     H 8365   9.679   0.812   7.284 -0.5650  1.8104 -0.2876
   61MOL0     H 8366   9.696   0.978   7.351  2.5665  1.1428  0.7520
   61MOL0     H 8367   9.935   0.667   7.282 -1.4770  0.3643  0.9087
   61MOL0     H 8368  10.200   0.696   7.095  4.3251 -1.2474  0.2932
   61MOL0     H 8369  10.212   0.653   7.263 -1.6850 -2.5374 -2.1888
   61MOL0     H 8370  10.313   0.910   7.149 -0.3828 -0.7966  0.2771
   61MOL0     H 8371  10.330   0.862   7.316 -0.9502 -1.8071  0.6701
   61MOL0     H 8372  10.437   0.639   7.186  1.4405 -0.5922  1.2184
   61MOL0     H 8373  10.446   0.759   7.055 -1.7192 -1.3735  0.1087
   61MOL0     H 8374  10.654   0.744   7.151 -0.2159  0.3193 -0.9277
   61MOL0     H 8375  10.594   0.898   7.139  4.3645 -2.4915 -2.8264
   61MOL0     H 8376  10.821   0.895   7.188  1.6232 -1.1266 -0.9393
   61MOL0     H 8377  11.149   0.945   7.250 -0.2404 -0.5524  3.6270
   61MOL0     H 8378  11.068   1.107   7.237 -0.0798  0.2328 -0.5506
   61MOL0     H 8379  11.010   0.969   7.141 -0.4929  2.4526 -1.4823
   61MOL0     H 8380  11.042   1.031   7.899  1.9197 -2.3478  0.4029
   61MOL0     H 8381  11.161   1.154   8.099 -3.6022  0.8907 -0.4360
   61MOL0     H 8382  11.545   1.209   8.009  0.3807 -0.9528  1.2480
   61MOL0     H 8383  11.545   1.382   8.007  3.1619  0.3207  1.5660
   61MOL0     H 8384  11.545   1.382   8.263  0.4658 -1.1968  1.7740
   61MOL0     H 8385  11.546   1.206   8.259 -0.9066  0.9750  1.0512
   61MOL0     H 8386  11.755   1.384   8.129 -0.0482  0.9345  0.7320
   61MOL0     H 8387  11.770   1.208   8.166  0.8198 -0.0582  1.9707
   61MOL0     H 8388  11.759   1.267   8.412 -1.5221  1.5021 -0.1065
   61MOL0     H 8389  11.755   1.439   8.377  3.4694  0.8381  0.4370
   61MOL0     H 8390  11.981   1.358   8.440  3.0752  1.4005 -1.6401
   61MOL0     H 8391  11.973   1.245   8.314  0.6066 -1.0096  1.3056
   61MOL0     H 8392  11.968   1.556   8.286 -2.4899 -1.3970  2.8559
   61MOL0     H 8393  11.997   1.435   8.152 -2.0256  0.5704  0.9774
   61MOL0     H 8394  12.170   1.506   8.386 -1.9443 -1.8305  1.4327
   61MOL0     H 8395  12.204   1.540   8.216 -1.3935  0.8917 -0.2270
   61MOL0     H 8396  12.282   1.321   8.174 -0.2478 -1.1504  1.0652
   61MOL0     H 8397  12.193   1.247   8.308 -2.1295  1.7490  1.0462
   61MOL0     H 8398  11.442   1.303   7.815 -1.6270  2.7676 -0.6875
   61MOL0     H 8399  11.328   1.208   7.636 -2.7636 -2.9229 -2.4880
   61MOL0     H 8400  10.880   0.938   7.672 -1.0923 -1.6310  0.0713
   61MOL0     H 8401  10.672   0.851   7.581  1.2457 -1.9083 -0.5697
   61MOL0     H 8402   8.939   0.567   7.828 -3.6611 -0.1373  0.4052
   61MOL0     H 8403   8.864   0.413   7.998 -0.3890 -0.5748  2.6594
   61MOL0     H 8404   8.773   0.513   8.617 -1.2119  0.6402 -2.3733
   61MOL0     H 8405   8.601   0.399   8.753 -0.8101  1.6272 -1.9920
   61MOL0     H 8406   8.499   0.229   8.891  3.8107  0.6386 -3.2055
   61MOL0     H 8407   8.375   0.280   8.777 -0.0352  0.9110 -0.2604
   61MOL0     H 8408   8.288   0.134   8.954 -0.2623 -0.6776  0.2449
   61MOL0     H 8409   8.395   0.005   8.895  1.0455  0.5222 -1.7591
   61MOL0     H 8410   8.190   0.149   8.716  0.4345 -1.4334 -1.2697
   61MOL0     H 8411   8.262   0.003   8.673  0.9916 -1.3292  1.2220
   61MOL0     H 8412   8.167  -0.074   8.927  1.5306  2.7614  0.9396
   61MOL0     H 8413   8.070  -0.123   8.788 -1.5818  0.0842  1.6361
   61MOL0     H 8414   7.824   0.173   8.908  1.4589  0.6315 -3.3826
   61MOL0     H 8415   8.611   0.075   8.468  1.5406 -0.4977 -0.9935
   61MOL0     H 8416   8.829   0.222   8.236 -0.7428  1.8620  0.3826
   61MOL0     H 8417   8.899   0.114   8.351  0.8884  2.6646 -0.0055
   61MOL0     H 8418   8.729   0.088   8.281  0.0686  1.5057  0.4786
   62MOL0     O 8419   8.690   5.364   5.992  0.1482 -0.2541  0.1164
   62MOL0     C 8420   8.715   5.311   5.885 -0.6738 -0.1499  0.2959
   62MOL0     O 8421   8.622   5.272   5.787 -0.2280 -0.1853 -0.3302
   62MOL0     C 8422   8.488   5.291   5.798  0.1633  0.2087  0.2101
   62MOL0     C 8423   8.394   5.197   5.746 -0.0812  0.7326 -1.0265
   62MOL0     C 8424   8.256   5.215   5.755 -1.4170 -0.2589  0.3181
   62MOL0     C 8425   8.204   5.325   5.827 -0.5330  0.3132  0.4624
   62MOL0     O 8426   8.076   5.339   5.866 -0.3446  0.6076  0.9572
   62MOL0     C 8427   7.982   5.388   5.768 -0.3397 -0.7394 -0.5980
   62MOL0     C 8428   7.882   5.475   5.851  0.5119 -0.7154  0.2097
   62MOL0     C 8429   7.949   5.598   5.903  0.2187  0.2959  0.1831
   62MOL0     C 8430   7.833   5.683   5.967 -0.9657 -0.0960  0.2981
   62MOL0     C 8431   7.875   5.817   6.036 -0.4252  0.4886 -0.3025
   62MOL0     C 8432   7.918   5.796   6.186 -0.1429  0.5006  0.5862
   62MOL0     C 8433   7.937   5.937   6.256  0.5480  0.3970  0.2714
   62MOL0     C 8434   8.053   6.029   6.197  0.5611 -0.3984  0.2616
   62MOL0     N 8435   8.185   5.964   6.216 -0.5498  0.4141  0.4486
   62MOL0     C 8436   8.236   5.850   6.148 -0.2535  0.3837 -0.2466
   62MOL0     C 8437   8.360   5.835   6.197 -0.0902 -0.1847 -0.6804
   62MOL0     C 8438   8.451   5.715   6.165  0.1164 -0.5590  0.8549
   62MOL0     C 8439   8.447   5.633   6.292  0.1758 -0.1132 -0.4409
   62MOL0     C 8440   8.510   5.495   6.279 -0.1402  0.4575 -0.0889
   62MOL0     C 8441   8.487   5.410   6.402 -0.2729 -0.8133 -0.7770
   62MOL0     O 8442   8.573   5.437   6.509 -0.1565 -0.4908 -0.4164
   62MOL0     C 8443   8.721   5.433   6.488 -0.3891  0.3301  1.1468
   62MOL0     C 8444   8.789   5.322   6.429  0.4433  0.5191  0.2289
   62MOL0     C 8445   8.928   5.316   6.417 -0.7448 -0.5093 -0.2329
   62MOL0     C 8446   8.987   5.204   6.351  0.5913  0.2780  0.4848
   62MOL0     C 8447   9.006   5.419   6.481  0.4396 -0.3063  0.4951
   62MOL0     C 8448   9.159   5.418   6.475  0.8671  0.4543 -0.0066
   62MOL0     O 8449   9.223   5.358   6.373 -0.8238  0.1354 -0.1491
   62MOL0     C 8450   9.363   5.354   6.363 -0.0160  0.5936  0.8932
   62MOL0     C 8451   9.449   5.364   6.470 -0.4500 -0.6054  0.7233
   62MOL0     C 8452   9.584   5.347   6.450 -0.9701  0.7401  0.4588
   62MOL0     C 8453   9.636   5.337   6.319 -0.7722 -0.4084  0.7678
   62MOL0     O 8454   9.769   5.345   6.284 -0.5198  0.2758  0.5199
   62MOL0     C 8455   9.870   5.360   6.386 -1.0015 -0.4411  0.3450
   62MOL0     C 8456   9.984   5.257   6.362 -0.0014  0.5498 -0.1861
   62MOL0     C 8457  10.101   5.287   6.462 -0.0675  0.0482 -0.1189
   62MOL0     C 8458  10.226   5.204   6.428 -0.4778 -0.9210  0.2026
   62MOL0     C 8459  10.346   5.237   6.524 -0.1041 -0.3018 -0.2642
   62MOL0     C 8460  10.465   5.146   6.495  0.2555  0.7232  0.1551
   62MOL0     C 8461  10.575   5.186   6.583  0.2386 -0.4484 -0.0165
   62MOL0     C 8462  10.702   5.108   6.574 -0.3678  0.5043 -0.0867
   62MOL0    Cl 8463  10.832   5.205   6.651  0.4821 -0.1715 -0.3512
   62MOL0     C 8464   9.547   5.327   6.217  0.1725  0.1114  0.8868
   62MOL0     C 8465   9.414   5.335   6.238 -0.0224 -0.0927 -0.3412
   62MOL0     O 8466   9.212   5.481   6.563 -0.2422  0.0849  0.4875
   62MOL0     C 8467   8.941   5.534   6.525  0.1255 -0.2401  0.8293
   62MOL0     C 8468   8.802   5.539   6.533 -0.1752 -0.4727  0.1341
   62MOL0     N 8469   8.389   5.936   6.286 -0.1549 -0.0833 -0.7922
   62MOL0     N 8470   8.282   6.011   6.296 -0.3862  0.2761 -0.3581
   62MOL0     C 8471   8.292   5.418   5.879 -0.7129 -0.4264 -0.2702
   62MOL0     C 8472   8.430   5.401   5.864 -0.4273  0.7423 -0.6694
   62MOL0     C 8473   8.856   5.282   5.859  0.2279  0.7262  0.2159
   62MOL0     C 8474   8.937   5.250   5.971 -1.3431  0.2237 -0.1857
   62MOL0     C 8475   9.068   5.211   5.963 -0.5908  0.6466  0.0843
   62MOL0     C 8476   9.121   5.199   5.835 -0.9635  0.4302 -0.1630
   62MOL0     O 8477   9.246   5.138   5.810  0.3744  0.5256 -0.7523
   62MOL0     C 8478   9.311   5.052   5.907 -0.5542 -0.2861 -0.1261
   62MOL0     C 8479   9.434   4.974   5.841  0.9791  0.0361  0.0519
   62MOL0     C 8480   9.551   5.065   5.817 -0.6336  0.9011  0.7100
   62MOL0     C 8481   9.668   5.001   5.740 -0.7121  0.0119 -0.4124
   62MOL0     C 8482   9.777   5.091   5.709 -0.3305 -0.1100  0.0516
   62MOL0     C 8483   9.862   5.176   5.677 -0.3176  0.6587  0.1579
   62MOL0     C 8484   9.048   5.241   5.725  0.3091 -1.1319  0.1849
   62MOL0     C 8485   8.914   5.286   5.736  0.6113  0.1672  0.8299
   62MOL0     C 8486   8.851   5.326   5.609 -0.2464  0.4037  0.9674
   62MOL0     H 8487   8.438   5.112   5.695 -0.3198  1.2705 -2.1455
   62MOL0     H 8488   8.194   5.139   5.710  0.1713 -0.2040 -2.1088
   62MOL0     H 8489   7.926   5.300   5.736 -0.1629 -1.2613  0.4680
   62MOL0     H 8490   8.033   5.435   5.683 -0.4105 -1.4232 -1.0246
   62MOL0     H 8491   7.806   5.523   5.789  1.4227  3.1772  1.8000
   62MOL0     H 8492   7.840   5.416   5.933  1.9237 -1.1455  0.6538
   62MOL0     H 8493   8.024   5.563   5.975  1.0105  1.5526 -0.0069
   62MOL0     H 8494   7.998   5.660   5.828  1.2867 -1.0443 -0.2841
   62MOL0     H 8495   7.762   5.714   5.890 -2.1873 -2.6716  0.2891
   62MOL0     H 8496   7.793   5.617   6.045  0.1967 -0.1791  0.8409
   62MOL0     H 8497   7.788   5.883   6.034 -0.2021  0.7818 -0.9422
   62MOL0     H 8498   7.962   5.860   5.986  1.8556 -2.3104  0.9825
   62MOL0     H 8499   7.833   5.739   6.227 -1.4175  1.0506 -1.1731
   62MOL0     H 8500   8.013   5.741   6.185  1.6965  3.3892  2.8729
   62MOL0     H 8501   7.969   5.936   6.361 -0.5608 -0.0629  0.6242
   62MOL0     H 8502   7.840   5.987   6.251  1.7491  2.9696  0.8596
   62MOL0     H 8503   8.037   6.039   6.089 -0.2896  0.0775  0.4241
   62MOL0     H 8504   8.056   6.125   6.249 -2.5098 -0.3559  0.5172
   62MOL0     H 8505   8.185   5.780   6.083  0.4357 -0.6443  0.2871
   62MOL0     H 8506   8.550   5.753   6.137 -0.7255  1.3150  0.2433
   62MOL0     H 8507   8.413   5.650   6.086 -0.6686  1.2764 -0.3667
   62MOL0     H 8508   8.487   5.689   6.377 -1.2866 -2.8770  2.3116
   62MOL0     H 8509   8.341   5.612   6.313  0.5550 -2.1422 -0.2658
   62MOL0     H 8510   8.477   5.447   6.186  1.8383  0.8762 -1.0521
   62MOL0     H 8511   8.617   5.513   6.272  0.2530 -1.9747 -1.2350
   62MOL0     H 8512   8.391   5.447   6.440  1.6068  2.0610  1.6735
   62MOL0     H 8513   8.497   5.307   6.368 -1.2569 -0.8182 -1.0734
   62MOL0     H 8514   8.727   5.243   6.387  2.3641  0.1522 -2.1094
   62MOL0     H 8515   8.919   5.126   6.314 -1.2192  1.0525  2.0164
   62MOL0     H 8516   9.071   5.168   6.412  1.5687 -0.1738 -1.0674
   62MOL0     H 8517   9.024   5.250   6.259 -0.6911 -0.9562 -0.7137
   62MOL0     H 8518   9.426   5.370   6.576 -2.8426 -2.0063  0.3639
   62MOL0     H 8519   9.647   5.350   6.538 -0.1285  1.1891 -0.1472
   62MOL0     H 8520   9.918   5.458   6.376 -0.3874 -0.6864  0.8724
   62MOL0     H 8521   9.836   5.350   6.489  0.5351  1.1385  1.0505
   62MOL0     H 8522   9.943   5.156   6.374  1.6804 -0.3264 -1.4261
   62MOL0     H 8523  10.018   5.262   6.258 -1.4639 -3.1283 -1.0175
   62MOL0     H 8524  10.079   5.281   6.569  1.8340  1.0956  0.3870
   62MOL0     H 8525  10.131   5.392   6.452  1.4720 -0.0292  2.5790
   62MOL0     H 8526  10.272   5.230   6.333  0.7641  0.8329  1.2159
   62MOL0     H 8527  10.199   5.099   6.416  0.3606 -0.8021 -4.1850
   62MOL0     H 8528  10.372   5.342   6.505  0.2155 -0.4868 -0.8703
   62MOL0     H 8529  10.298   5.222   6.622 -1.7902  1.4433 -0.7494
   62MOL0     H 8530  10.502   5.163   6.393  1.8915 -2.1871  0.1760
   62MOL0     H 8531  10.443   5.039   6.502 -0.8013  0.9556  0.6006
   62MOL0     H 8532  10.544   5.178   6.688  2.8737  2.6391  1.1392
   62MOL0     H 8533  10.594   5.293   6.573  2.9081 -1.0337 -2.3060
   62MOL0     H 8534  10.727   5.082   6.470  2.8548  0.3968  0.6111
   62MOL0     H 8535  10.696   5.011   6.625 -0.6012  0.2317 -0.6216
   62MOL0     H 8536   9.578   5.314   6.113 -0.3417 -1.5815  0.9034
   62MOL0     H 8537   9.339   5.308   6.165 -2.4316 -0.4757  2.1152
   62MOL0     H 8538   9.002   5.620   6.550 -0.0826  0.3286 -0.5499
   62MOL0     H 8539   8.754   5.624   6.580  3.5568  1.9970 -0.0716
   62MOL0     H 8540   8.252   5.499   5.939  0.5021 -0.1616  0.2142
   62MOL0     H 8541   8.490   5.478   5.912 -0.5965  0.1788  0.4877
   62MOL0     H 8542   8.882   5.251   6.064 -3.5585  2.2033 -1.4220
   62MOL0     H 8543   9.124   5.184   6.052 -2.8830 -2.4009  0.7853
   62MOL0     H 8544   9.343   5.121   5.986 -0.7619  0.4655 -0.6915
   62MOL0     H 8545   9.246   4.972   5.943 -1.8401  0.8957  0.2542
   62MOL0     H 8546   9.402   4.923   5.749  0.3137  0.4957  0.0298
   62MOL0     H 8547   9.462   4.893   5.909  1.2924 -0.5723 -0.7800
   62MOL0     H 8548   9.524   5.161   5.773  0.1022  1.8056  2.1437
   62MOL0     H 8549   9.589   5.083   5.918  0.0692 -1.3043  0.8831
   62MOL0     H 8550   9.625   4.966   5.646 -1.4979  1.1610 -0.4946
   62MOL0     H 8551   9.696   4.916   5.803 -0.7351  0.0629 -0.3343
   62MOL0     H 8552   9.950   5.235   5.658 -1.7618  1.7107 -5.0418
   62MOL0     H 8553   9.104   5.238   5.632  2.9798  0.0416  1.6199
   62MOL0     H 8554   8.903   5.284   5.523 -1.4680 -1.1519  0.9367
   62MOL0     H 8555   8.751   5.284   5.593  0.7097 -1.1997 -1.3209
   62MOL0     H 8556   8.852   5.434   5.588  0.4785  0.2925  0.4118
   63MOL0     O 8557   9.216  10.172   2.856  0.1987  0.3292  0.6337
   63MOL0     C 8558   9.241  10.273   2.912  0.3407  0.4576  0.8167
   63MOL0     O 8559   9.360  10.310   2.978 -0.3828  0.6616  0.6830
   63MOL0     C 8560   9.461  10.230   2.931  0.6336 -0.0771 -0.4675
   63MOL0     C 8561   9.486  10.109   2.990 -0.2302  0.9229  0.5069
   63MOL0     C 8562   9.604  10.044   2.947  0.3781  0.5821 -0.6175
   63MOL0     C 8563   9.695  10.096   2.856  0.4745  0.0858  0.6941
   63MOL0     O 8564   9.809  10.028   2.823  0.0233  0.7376 -0.1598
   63MOL0     C 8565   9.912  10.110   2.770  0.0927  0.0787  0.2438
   63MOL0     C 8566  10.045  10.028   2.762 -0.3832  0.2421 -0.1957
   63MOL0     C 8567  10.037   9.893   2.684 -0.4798 -0.2672  0.5350
   63MOL0     C 8568  10.172   9.816   2.689  0.3999 -0.1657 -0.7843
   63MOL0     C 8569  10.171   9.675   2.634 -0.6867 -0.4354  0.8110
   63MOL0     C 8570  10.294   9.598   2.683  0.3343  0.1442 -0.3205
   63MOL0     C 8571  10.315   9.463   2.605  0.3808 -0.1665 -0.5829
   63MOL0     C 8572  10.441   9.386   2.655  0.0770  0.2388 -0.2081
   63MOL0     N 8573  10.564   9.424   2.589  0.5376  0.6222 -0.3581
   63MOL0     C 8574  10.639   9.333   2.517  0.0237  0.3901  0.5824
   63MOL0     C 8575  10.748   9.407   2.483  0.9204  0.3074 -0.1718
   63MOL0     C 8576  10.857   9.362   2.399  0.0712 -0.5475  0.1163
   63MOL0     C 8577  10.985   9.351   2.483  0.6381 -0.0130  1.0299
   63MOL0     C 8578  11.113   9.314   2.412  0.2403  0.2780 -0.1394
   63MOL0     C 8579  11.236   9.325   2.498 -0.5074  0.1407 -0.0508
   63MOL0     O 8580  11.352   9.315   2.408 -0.5531 -0.4439  0.3954
   63MOL0     C 8581  11.477   9.309   2.474  0.1613  0.2197 -0.3408
   63MOL0     C 8582  11.499   9.306   2.612 -0.2215 -0.5374 -0.2849
   63MOL0     C 8583  11.624   9.303   2.672  0.1682 -0.4733  0.2141
   63MOL0     C 8584  11.618   9.311   2.822 -0.6894  0.2039 -0.9415
   63MOL0     C 8585  11.740   9.314   2.583  0.1314 -0.4270 -0.4632
   63MOL0     C 8586  11.877   9.316   2.625 -0.3038  0.2887  0.4270
   63MOL0     O 8587  11.966   9.383   2.553 -0.3925  0.7664 -0.2097
   63MOL0     C 8588  12.098   9.369   2.580  0.3949 -0.7487 -0.3368
   63MOL0     C 8589  12.166   9.269   2.515 -0.1719  0.2947  0.2139
   63MOL0     C 8590  12.305   9.259   2.523 -0.7844 -0.9948  1.2514
   63MOL0     C 8591  12.375   9.341   2.610  0.1435 -0.3161 -1.0320
   63MOL0     O 8592  12.510   9.325   2.621  0.3938  0.4546  1.0581
   63MOL0     C 8593  12.573   9.399   2.515 -0.2117  0.0841  0.1248
   63MOL0     C 8594  12.719   9.382   2.526 -0.0881  0.8291  1.0052
   63MOL0     C 8595  12.780   9.498   2.599 -0.3256 -0.9125  0.3813
   63MOL0     C 8596  12.922   9.474   2.651  0.2105 -0.2306  0.1332
   63MOL0     C 8597  12.940   9.338   2.714 -0.7727  0.8088  0.2738
   63MOL0     C 8598  13.079   9.330   2.790 -0.5088  0.1953  0.3155
   63MOL0     C 8599  13.196   9.278   2.691  0.4207 -0.6281 -0.3700
   63MOL0     C 8600  13.325   9.287   2.755 -1.2144  0.0171 -1.0411
   63MOL0    Cl 8601  13.437   9.185   2.648 -0.0297  0.0815  0.1474
   63MOL0     C 8602  12.302   9.426   2.689  0.2733  0.1510  0.3263
   63MOL0     C 8603  12.168   9.457   2.669  0.3793 -0.7943  0.6127
   63MOL0     O 8604  11.904   9.244   2.722 -0.4610 -0.3568  0.4198
   63MOL0     C 8605  11.717   9.305   2.441  0.5189 -0.0145 -0.6013
   63MOL0     C 8606  11.588   9.301   2.391  0.8005 -0.4935  0.5134
   63MOL0     N 8607  10.735   9.531   2.532  0.5061 -0.2259  0.4651
   63MOL0     N 8608  10.617   9.542   2.597 -0.0424 -0.4198  0.2687
   63MOL0     C 8609   9.661  10.222   2.802 -0.0629  0.7523  0.0187
   63MOL0     C 8610   9.549  10.283   2.841 -0.6950 -0.3767  0.2005
   63MOL0     C 8611   9.125  10.373   2.919 -0.9520 -0.8205  0.9995
   63MOL0     C 8612   9.131  10.467   3.022  0.5277  0.0624  0.2957
   63MOL0     C 8613   9.037  10.570   3.029  1.3354 -0.8879 -0.7275
   63MOL0     C 8614   8.919  10.574   2.947 -0.5337  0.2191  0.6679
   63MOL0     O 8615   8.814  10.662   2.956  0.4724  0.4003 -0.2358
   63MOL0     C 8616   8.834  10.775   3.043  0.0508  0.9558 -0.4366
   63MOL0     C 8617   8.705  10.863   3.043  0.2760  1.0082 -0.2032
   63MOL0     C 8618   8.587  10.796   3.118  0.2341 -0.0181 -0.0328
   63MOL0     C 8619   8.583  10.801   3.276  0.4044  0.1013  0.8078
   63MOL0     C 8620   8.487  10.703   3.322  0.1650 -0.0533 -0.7510
   63MOL0     C 8621   8.393  10.638   3.362 -0.0868  0.2916 -0.7133
   63MOL0     C 8622   8.921  10.480   2.846 -0.1029  0.2314 -0.0886
   63MOL0     C 8623   9.018  10.377   2.825 -0.4797  0.1831  0.2986
   63MOL0     C 8624   8.995  10.279   2.721  0.6631  0.5372  0.7912
   63MOL0     H 8625   9.414  10.080   3.066  0.0701  2.3757  1.4016
   63MOL0     H 8626   9.630   9.943   2.979 -0.0678  0.6546  0.0055
   63MOL0     H 8627   9.920  10.209   2.815  1.4694  0.3487 -0.5282
   63MOL0     H 8628   9.889  10.130   2.665  4.4672  0.2257 -0.8768
   63MOL0     H 8629  10.114  10.100   2.715  0.0407 -1.0356 -1.6163
   63MOL0     H 8630  10.083  10.006   2.862 -3.4738 -2.0608  0.6133
   63MOL0     H 8631   9.963   9.826   2.728  0.0557 -0.7438  0.7216
   63MOL0     H 8632   9.995   9.909   2.584 -0.7402 -1.7833  0.3817
   63MOL0     H 8633  10.250   9.875   2.638  0.9596 -0.2452 -0.0401
   63MOL0     H 8634  10.210   9.817   2.792  2.3388 -1.3661 -1.4265
   63MOL0     H 8635  10.179   9.702   2.528 -0.9050 -2.1406  0.3369
   63MOL0     H 8636  10.074   9.626   2.651 -1.2691  0.8257  1.3086
   63MOL0     H 8637  10.385   9.657   2.675  0.8346 -0.6679 -0.8172
   63MOL0     H 8638  10.273   9.567   2.786  3.3131 -2.2519 -0.2834
   63MOL0     H 8639  10.326   9.482   2.497 -1.2116  1.5720 -0.4995
   63MOL0     H 8640  10.228   9.397   2.608  0.3606 -1.0673 -7.0378
   63MOL0     H 8641  10.461   9.398   2.762 -0.3327 -0.8018 -0.0001
   63MOL0     H 8642  10.422   9.278   2.649 -1.0136  0.1510  3.1412
   63MOL0     H 8643  10.616   9.228   2.504 -2.2871  1.0643 -1.4790
   63MOL0     H 8644  10.873   9.449   2.336  1.3963 -1.6373 -1.1214
   63MOL0     H 8645  10.834   9.275   2.336 -3.4623 -0.1562  0.6262
   63MOL0     H 8646  10.999   9.447   2.533  1.9432 -0.3199  1.2970
   63MOL0     H 8647  10.972   9.279   2.564 -1.1397 -1.9506 -0.8401
   63MOL0     H 8648  11.099   9.209   2.382 -0.6269 -0.2649  2.0098
   63MOL0     H 8649  11.122   9.382   2.326 -0.1216  2.3109  1.3565
   63MOL0     H 8650  11.261   9.418   2.550  0.6410  1.0058 -2.0248
   63MOL0     H 8651  11.233   9.238   2.563  3.8062 -0.9067 -0.9241
   63MOL0     H 8652  11.415   9.309   2.680 -0.7086 -2.2609 -0.7618
   63MOL0     H 8653  11.701   9.250   2.860 -1.1648 -1.1863 -2.0445
   63MOL0     H 8654  11.523   9.274   2.863 -1.6729  2.0141 -1.4590
   63MOL0     H 8655  11.633   9.414   2.857 -2.6390 -0.5836  2.6721
   63MOL0     H 8656  12.120   9.179   2.476  1.7750 -2.0189  2.8921
   63MOL0     H 8657  12.361   9.179   2.476 -0.2979  0.6907 -1.2429
   63MOL0     H 8658  12.535   9.371   2.416 -2.3324 -1.1512  1.2123
   63MOL0     H 8659  12.548   9.505   2.527 -0.2780  0.1060 -0.1893
   63MOL0     H 8660  12.728   9.286   2.579  0.8032  1.3410  1.8141
   63MOL0     H 8661  12.757   9.360   2.425 -1.8057 -0.9064  0.6878
   63MOL0     H 8662  12.719   9.515   2.688 -0.8229 -0.5529 -0.0223
   63MOL0     H 8663  12.784   9.591   2.541  2.6392  1.4057  3.8030
   63MOL0     H 8664  12.942   9.551   2.725  0.3888  1.8308 -1.9662
   63MOL0     H 8665  12.997   9.505   2.578  0.1444  3.5694  1.4447
   63MOL0     H 8666  12.856   9.319   2.780 -0.7311  0.6773  0.2892
   63MOL0     H 8667  12.941   9.261   2.636  0.6261  2.1564 -1.1261
   63MOL0     H 8668  13.073   9.262   2.876  0.9271 -1.3425 -0.7592
   63MOL0     H 8669  13.118   9.425   2.829  0.4594 -0.1228  0.1473
   63MOL0     H 8670  13.199   9.331   2.595  0.8550  0.0355  0.0054
   63MOL0     H 8671  13.162   9.175   2.676 -0.4856 -0.4444  0.3196
   63MOL0     H 8672  13.330   9.239   2.854 -2.5101  3.0597  0.6309
   63MOL0     H 8673  13.358   9.389   2.777  1.2060 -1.0788  1.0336
   63MOL0     H 8674  12.360   9.485   2.760  1.3032  2.7474 -2.4492
   63MOL0     H 8675  12.127   9.538   2.728  0.8082 -0.2215  0.1327
   63MOL0     H 8676  11.801   9.308   2.373  0.0580  3.7119 -1.2011
   63MOL0     H 8677  11.548   9.301   2.290  1.4780 -0.7808  0.2391
   63MOL0     H 8678   9.728  10.262   2.727  1.0134 -0.4073  0.3353
   63MOL0     H 8679   9.525  10.377   2.792 -5.1501 -1.8995 -0.9788
   63MOL0     H 8680   9.220  10.473   3.084  1.5832  0.7242 -1.2501
   63MOL0     H 8681   9.039  10.652   3.100 -1.8192 -0.0809 -1.4218
   63MOL0     H 8682   8.864  10.749   3.145  0.7539  0.9501 -0.6390
   63MOL0     H 8683   8.915  10.840   3.010  1.1255  0.1737  0.5639
   63MOL0     H 8684   8.668  10.886   2.943 -0.2593  0.1520 -0.2109
   63MOL0     H 8685   8.735  10.956   3.091 -0.5343  1.3858 -0.4253
   63MOL0     H 8686   8.494  10.839   3.080  0.4537 -0.7684 -1.5085
   63MOL0     H 8687   8.587  10.690   3.091 -3.2859 -0.2013  0.2015
   63MOL0     H 8688   8.564  10.902   3.313 -0.5822 -0.3575  1.6083
   63MOL0     H 8689   8.672  10.762   3.326  2.2612  2.6071 -0.3095
   63MOL0     H 8690   8.312  10.591   3.413  0.7730 -0.7321 -0.2381
   63MOL0     H 8691   8.834  10.499   2.784 -0.9690  1.0472  1.3314
   63MOL0     H 8692   8.912  10.308   2.657 -0.4713 -0.5646  1.7189
   63MOL0     H 8693   9.081  10.272   2.654 -0.3387 -0.0122 -0.4640
   63MOL0     H 8694   8.979  10.176   2.755  0.1915 -0.2619 -1.7017
   64MOL0     O 8695   7.505   8.738   9.142  0.6122 -0.1050  0.0297
   64MOL0     C 8696   7.438   8.723   9.244 -0.2336 -1.2410 -0.2607
   64MOL0     O 8697   7.497   8.718   9.369  0.1821  0.2613 -0.4124
   64MOL0     C 8698   7.627   8.745   9.395 -0.4514 -0.5350  0.3870
   64MOL0     C 8699   7.697   8.864   9.372  0.9008 -1.3733  0.4551
   64MOL0     C 8700   7.827   8.868   9.410  0.0987 -0.2348 -0.2843
   64MOL0     C 8701   7.894   8.759   9.464 -0.9360  0.5066 -0.0665
   64MOL0     O 8702   8.031   8.749   9.469  0.4635  0.0178 -0.2945
   64MOL0     C 8703   8.107   8.852   9.415 -0.0102 -0.7117  0.1130
   64MOL0     C 8704   8.252   8.822   9.456  0.7353 -0.7047  0.5917
   64MOL0     C 8705   8.306   8.693   9.396 -1.0772 -1.3043 -0.0822
   64MOL0     C 8706   8.458   8.697   9.364  0.3128  0.1352 -0.1304
   64MOL0     C 8707   8.511   8.565   9.314  0.1333 -0.3804 -1.0312
   64MOL0     C 8708   8.657   8.585   9.272  0.0315  0.3129  0.2036
   64MOL0     C 8709   8.735   8.451   9.275 -1.0846  0.3255 -0.0439
   64MOL0     C 8710   8.887   8.478   9.270  0.7708  0.2256 -0.5002
   64MOL0     N 8711   8.968   8.357   9.286 -0.7984 -0.0538  0.4704
   64MOL0     C 8712   9.022   8.288   9.179 -0.0137  0.5041  0.2203
   64MOL0     C 8713   9.076   8.176   9.233  0.6030  0.7382  0.5679
   64MOL0     C 8714   9.145   8.065   9.172 -0.2044 -0.1197 -0.0849
   64MOL0     C 8715   9.066   7.941   9.158  0.3311  0.3001  0.0970
   64MOL0     C 8716   9.143   7.836   9.068  0.9790 -0.2921  0.1397
   64MOL0     C 8717   9.273   7.788   9.111  0.0435 -0.0275 -0.1314
   64MOL0     O 8718   9.265   7.768   9.259 -0.3740  0.2396 -0.3351
   64MOL0     C 8719   9.380   7.725   9.323 -0.2998  0.1206  0.1887
   64MOL0     C 8720   9.484   7.650   9.264 -0.2352 -0.4099 -0.2658
   64MOL0     C 8721   9.602   7.620   9.328  0.6762 -0.6134  0.6410
   64MOL0     C 8722   9.695   7.534   9.249 -1.1933  0.8425  0.2755
   64MOL0     C 8723   9.630   7.666   9.455 -0.3899 -0.4753  0.9307
   64MOL0     C 8724   9.762   7.658   9.530  1.2706  0.0195  0.1216
   64MOL0     O 8725   9.768   7.724   9.652 -0.1176  0.8755  0.0526
   64MOL0     C 8726   9.890   7.750   9.711 -0.5939  0.5089 -0.6243
   64MOL0     C 8727  10.008   7.801   9.651 -0.4721  0.0776 -0.2205
   64MOL0     C 8728  10.131   7.804   9.715  0.4130 -0.8533  0.4577
   64MOL0     C 8729  10.143   7.752   9.844 -0.0439  0.1836  0.8082
   64MOL0     O 8730  10.264   7.754   9.912 -0.1545  0.1159 -0.6499
   64MOL0     C 8731  10.380   7.710   9.845 -0.4306  0.2565 -0.3619
   64MOL0     C 8732  10.504   7.712   9.937 -0.7060  0.8864  0.2699
   64MOL0     C 8733  10.550   7.854   9.979 -1.2889 -0.2540  0.2911
   64MOL0     C 8734  10.689   7.833  10.054  0.2626  0.4024  0.0653
   64MOL0     C 8735  10.777   7.955  10.071  0.6260  0.5255  0.1683
   64MOL0     C 8736  10.848   7.985   9.935  0.3029 -0.0505 -0.7350
   64MOL0     C 8737  10.899   8.127   9.923  0.4996 -0.9804 -0.5963
   64MOL0     C 8738  11.001   8.185  10.032  0.2412  0.1818  0.1873
   64MOL0    Cl 8739  11.147   8.088  10.020 -0.3307 -0.3381  0.1621
   64MOL0     C 8740  10.026   7.710   9.902  0.3907 -0.0288  0.1147
   64MOL0     C 8741   9.902   7.701   9.837 -1.0233 -0.2532 -0.6452
   64MOL0     O 8742   9.857   7.597   9.480 -0.0155 -0.7745  0.4052
   64MOL0     C 8743   9.537   7.745   9.513  0.0968 -0.0356 -0.4575
   64MOL0     C 8744   9.413   7.769   9.454 -0.0588  0.0030 -0.8096
   64MOL0     N 8745   9.026   8.163   9.361 -0.3358 -0.2484  0.0158
   64MOL0     N 8746   8.969   8.275   9.393 -1.1213  0.1523  0.0928
   64MOL0     C 8747   7.820   8.648   9.497  0.1578 -0.2387 -0.5018
   64MOL0     C 8748   7.690   8.640   9.462 -0.1809 -0.4037 -0.5878
   64MOL0     C 8749   7.287   8.705   9.238 -0.4368  0.2975 -0.1929
   64MOL0     C 8750   7.216   8.753   9.347 -0.2780 -0.1319 -0.1041
   64MOL0     C 8751   7.081   8.729   9.361  0.5518 -0.8155  0.7247
   64MOL0     C 8752   7.009   8.654   9.268  0.2868  0.5395 -0.1427
   64MOL0     O 8753   6.878   8.634   9.272  0.2342 -1.0012  0.8014
   64MOL0     C 8754   6.842   8.494   9.281 -0.4082  0.8464  0.4359
   64MOL0     C 8755   6.766   8.451   9.150 -0.4403 -0.4164 -0.1356
   64MOL0     C 8756   6.638   8.535   9.132 -0.4603 -0.4611 -0.6401
   64MOL0     C 8757   6.545   8.510   9.009  0.2625  0.7822  0.8191
   64MOL0     C 8758   6.467   8.385   9.002  0.3782  0.2289 -0.3701
   64MOL0     C 8759   6.407   8.281   9.014  0.3027 -0.3056 -0.8930
   64MOL0     C 8760   7.079   8.619   9.153  0.0659 -0.5254 -0.8894
   64MOL0     C 8761   7.213   8.645   9.132 -0.2161 -0.6937 -1.2613
   64MOL0     C 8762   7.277   8.601   9.004  0.1476  0.0397  0.2349
   64MOL0     H 8763   7.648   8.950   9.328 -0.8466 -1.8267  1.4347
   64MOL0     H 8764   7.876   8.962   9.387  0.7354 -0.6199 -0.5235
   64MOL0     H 8765   8.083   8.952   9.451  1.2638 -0.1767 -0.4250
   64MOL0     H 8766   8.109   8.862   9.306  1.1408  0.8371  0.2432
   64MOL0     H 8767   8.322   8.900   9.423  0.7873 -0.2606  1.6928
   64MOL0     H 8768   8.251   8.825   9.566 -2.7640 -0.6219  0.6588
   64MOL0     H 8769   8.280   8.626   9.479  0.4993  2.6187  4.0103
   64MOL0     H 8770   8.265   8.668   9.298  0.6961 -3.0541 -0.4217
   64MOL0     H 8771   8.471   8.774   9.288 -0.9636 -0.0285 -0.5379
   64MOL0     H 8772   8.513   8.727   9.454 -3.9460 -2.2790  3.7228
   64MOL0     H 8773   8.450   8.545   9.225  0.3871  1.1474 -1.5777
   64MOL0     H 8774   8.502   8.479   9.381  3.2996  0.3541  0.5017
   64MOL0     H 8775   8.657   8.629   9.171  1.3697  0.3628  0.2053
   64MOL0     H 8776   8.705   8.659   9.338 -2.9077  0.5020  2.2951
   64MOL0     H 8777   8.712   8.387   9.189  0.9757 -2.3871  1.2932
   64MOL0     H 8778   8.710   8.392   9.364  0.5186 -0.9156 -0.3596
   64MOL0     H 8779   8.899   8.518   9.169 -0.0976 -1.6322 -1.3924
   64MOL0     H 8780   8.913   8.553   9.346 -0.0992  0.7577 -0.7138
   64MOL0     H 8781   9.030   8.319   9.075  2.5187  0.0649  0.2410
   64MOL0     H 8782   9.236   8.057   9.233  0.9913 -0.5555 -1.8351
   64MOL0     H 8783   9.174   8.104   9.073 -1.1824  1.0274  0.0633
   64MOL0     H 8784   9.052   7.891   9.255 -2.8049  0.1514 -0.3144
   64MOL0     H 8785   8.971   7.971   9.113 -0.7746 -3.0678 -0.0374
   64MOL0     H 8786   9.079   7.750   9.047  2.5320 -1.1983 -0.9881
   64MOL0     H 8787   9.161   7.889   8.974 -1.2641  2.2796  1.0040
   64MOL0     H 8788   9.290   7.693   9.060  1.1084  0.1751 -0.1642
   64MOL0     H 8789   9.355   7.855   9.082 -1.2339  0.3295 -3.3387
   64MOL0     H 8790   9.466   7.620   9.161  1.6781 -0.8613 -0.4971
   64MOL0     H 8791   9.722   7.444   9.304  0.2877  0.4521 -1.0004
   64MOL0     H 8792   9.787   7.585   9.218 -0.7189 -1.2829 -2.0746
   64MOL0     H 8793   9.643   7.502   9.159 -1.1336 -0.3540  0.6530
   64MOL0     H 8794   9.999   7.845   9.552 -0.8522 -0.0309 -0.2339
   64MOL0     H 8795  10.219   7.844   9.665  1.0041 -1.6017  0.8670
   64MOL0     H 8796  10.367   7.606   9.812  0.5276  1.2077 -4.3485
   64MOL0     H 8797  10.412   7.772   9.761 -1.4895  0.6459 -0.4945
   64MOL0     H 8798  10.484   7.651  10.026 -1.6380  0.3224 -0.3061
   64MOL0     H 8799  10.584   7.656   9.887 -0.2117  0.3915  1.5492
   64MOL0     H 8800  10.483   7.914  10.041  0.9583  1.8481  0.8309
   64MOL0     H 8801  10.566   7.907   9.885 -0.3727 -3.6348 -1.6375
   64MOL0     H 8802  10.755   7.753  10.019 -2.1076 -0.6716 -2.1908
   64MOL0     H 8803  10.648   7.796  10.148 -2.3991  2.5958 -0.1240
   64MOL0     H 8804  10.717   8.041  10.101 -0.0550  0.6955 -1.5768
   64MOL0     H 8805  10.860   7.944  10.141  1.0507 -1.5584 -0.5778
   64MOL0     H 8806  10.781   7.973   9.850 -1.1552  1.6602  0.1250
   64MOL0     H 8807  10.937   7.924   9.916  1.4309  2.1598 -3.0142
   64MOL0     H 8808  10.818   8.201   9.920 -0.6873 -1.9186  3.2114
   64MOL0     H 8809  10.947   8.141   9.826  0.0168 -0.2554 -0.7432
   64MOL0     H 8810  10.974   8.183  10.138  0.6958 -0.4281  0.2967
   64MOL0     H 8811  11.016   8.290  10.005 -2.2797  0.5031 -0.1791
   64MOL0     H 8812  10.030   7.684  10.007  1.3975  1.0225  0.3555
   64MOL0     H 8813   9.814   7.652   9.879 -0.0315 -2.7019 -1.2589
   64MOL0     H 8814   9.553   7.791   9.610  1.1938 -1.1475 -0.0955
   64MOL0     H 8815   9.341   7.831   9.506  2.1222  0.8468  1.4254
   64MOL0     H 8816   7.857   8.556   9.541  0.4611  0.3989  0.6114
   64MOL0     H 8817   7.625   8.557   9.490 -1.7213  0.7132 -0.7334
   64MOL0     H 8818   7.272   8.811   9.420  2.3288 -1.2999 -1.0409
   64MOL0     H 8819   7.023   8.777   9.439 -0.6134  1.9817 -1.6659
   64MOL0     H 8820   6.927   8.426   9.290 -0.4431  0.7116 -0.1857
   64MOL0     H 8821   6.775   8.476   9.366 -0.8214 -0.6706 -0.1830
   64MOL0     H 8822   6.738   8.345   9.152  0.1942 -0.6246  2.5442
   64MOL0     H 8823   6.835   8.472   9.068 -1.4862 -0.1168 -0.9508
   64MOL0     H 8824   6.577   8.517   9.221  2.1864 -2.9983  0.8049
   64MOL0     H 8825   6.669   8.641   9.132 -1.4545 -0.1591 -0.2672
   64MOL0     H 8826   6.608   8.515   8.919 -0.6023 -0.6117  0.1043
   64MOL0     H 8827   6.473   8.592   9.013  0.5957  1.0804  0.7379
   64MOL0     H 8828   6.343   8.196   9.018  1.6471 -1.5367 -3.1676
   64MOL0     H 8829   7.023   8.566   9.078  0.6955  0.8242 -2.3660
   64MOL0     H 8830   7.340   8.681   8.964  2.0535 -0.1679  2.5874
   64MOL0     H 8831   7.336   8.510   9.018  1.6180  0.6945 -1.2945
   64MOL0     H 8832   7.201   8.577   8.929  0.8057 -0.6005 -0.2449
   65MOL0     O 8833   5.858   2.481   5.039  0.2440 -0.0109  0.1222
   65MOL0     C 8834   5.822   2.538   5.145 -0.2184 -0.8763 -0.2823
   65MOL0     O 8835   5.907   2.623   5.216 -0.2446  0.3317 -0.1321
   65MOL0     C 8836   6.041   2.640   5.180 -0.4391  0.2965  0.1637
   65MOL0     C 8837   6.088   2.761   5.126 -0.7005 -0.0850 -0.2155
   65MOL0     C 8838   6.223   2.765   5.091  0.3230 -0.4900 -1.4523
   65MOL0     C 8839   6.310   2.660   5.119 -0.1015 -1.1601  0.5001
   65MOL0     O 8840   6.441   2.706   5.094 -0.0683  0.5626 -0.4000
   65MOL0     C 8841   6.549   2.636   5.161  0.0019  0.8792  0.1584
   65MOL0     C 8842   6.683   2.680   5.115 -0.0394 -0.7459  0.5327
   65MOL0     C 8843   6.713   2.634   4.973 -0.4598  0.6964 -0.5134
   65MOL0     C 8844   6.816   2.717   4.912 -1.0634 -0.1352 -0.7854
   65MOL0     C 8845   6.846   2.671   4.769  1.2832 -1.1664  0.1401
   65MOL0     C 8846   6.940   2.776   4.702 -0.1606 -0.0784  0.1640
   65MOL0     C 8847   6.885   2.822   4.566  0.3979 -0.2439  0.8206
   65MOL0     C 8848   6.947   2.955   4.527  0.7785 -0.0478 -0.1261
   65MOL0     N 8849   7.077   2.949   4.460 -0.4305 -0.1181  0.1081
   65MOL0     C 8850   7.096   2.884   4.337  0.1826 -0.0220  0.1252
   65MOL0     C 8851   7.232   2.882   4.308  0.4542 -0.5266 -1.0178
   65MOL0     C 8852   7.297   2.830   4.189  0.7575  0.0317  0.2650
   65MOL0     C 8853   7.450   2.836   4.202  0.3421 -0.1820 -0.7316
   65MOL0     C 8854   7.513   2.754   4.110 -0.1442  0.7741 -0.3407
   65MOL0     C 8855   7.669   2.758   4.131 -0.3108  0.0491  1.5204
   65MOL0     O 8856   7.716   2.894   4.114  0.0427 -0.0635  0.6139
   65MOL0     C 8857   7.831   2.932   4.172  0.4368  0.4756 -1.3726
   65MOL0     C 8858   7.861   3.067   4.171 -0.8805 -0.2270 -0.4254
   65MOL0     C 8859   7.956   3.125   4.261  0.4808 -0.7458  0.3173
   65MOL0     C 8860   7.973   3.275   4.258  0.1105  0.5400  0.8510
   65MOL0     C 8861   8.041   3.035   4.330  0.8479  0.1470  0.0704
   65MOL0     C 8862   8.143   3.067   4.436 -0.0855  0.6898  0.2367
   65MOL0     O 8863   8.201   2.962   4.498  0.5903  0.4884  0.4273
   65MOL0     C 8864   8.293   2.980   4.598 -0.3719 -0.1988  0.8619
   65MOL0     C 8865   8.290   2.908   4.718  0.3993 -0.5173  0.4011
   65MOL0     C 8866   8.380   2.930   4.823 -0.3176 -0.7459  0.0686
   65MOL0     C 8867   8.491   3.019   4.796 -0.5239  0.5958  0.0633
   65MOL0     O 8868   8.580   3.075   4.889 -0.6693  0.9556  0.2700
   65MOL0     C 8869   8.582   3.026   5.027 -0.2445  0.4938  0.1628
   65MOL0     C 8870   8.641   3.133   5.116 -0.1930 -0.5461 -0.3702
   65MOL0     C 8871   8.789   3.164   5.081  0.3079 -0.1649 -0.0519
   65MOL0     C 8872   8.857   3.242   5.185  0.5935  0.0035 -0.5448
   65MOL0     C 8873   9.003   3.243   5.165  0.1594 -0.7387 -0.3377
   65MOL0     C 8874   9.090   3.329   5.269  0.0341  0.1933 -0.2651
   65MOL0     C 8875   9.240   3.310   5.236  0.3522 -0.4853 -0.4319
   65MOL0     C 8876   9.320   3.406   5.321 -1.6036 -0.5897  0.5633
   65MOL0    Cl 8877   9.504   3.384   5.292 -0.4250 -0.3106  0.4117
   65MOL0     C 8878   8.511   3.070   4.669 -0.5370  0.0853  0.8614
   65MOL0     C 8879   8.408   3.044   4.574 -0.4107 -0.2157 -0.1888
   65MOL0     O 8880   8.171   3.184   4.463  0.1067 -0.1768 -0.7272
   65MOL0     C 8881   8.013   2.899   4.318  0.3324 -0.1549  0.1000
   65MOL0     C 8882   7.908   2.843   4.248  0.1149 -0.1012 -0.0842
   65MOL0     N 8883   7.278   2.955   4.421  0.3248  0.0804  0.4449
   65MOL0     N 8884   7.193   2.988   4.510 -0.5879  0.4188 -0.3911
   65MOL0     C 8885   6.259   2.539   5.165  0.2721  0.3499  0.0314
   65MOL0     C 8886   6.126   2.529   5.194  0.3179 -0.2823 -1.0704
   65MOL0     C 8887   5.687   2.518   5.204  0.1612  0.9657 -0.5195
   65MOL0     C 8888   5.679   2.503   5.342 -0.1078 -0.1605  0.3396
   65MOL0     C 8889   5.556   2.476   5.408 -0.0170 -0.1102 -0.5652
   65MOL0     C 8890   5.439   2.458   5.334 -0.0581 -0.3168 -0.5030
   65MOL0     O 8891   5.310   2.442   5.385 -0.7557  0.2241 -0.2408
   65MOL0     C 8892   5.301   2.422   5.529 -1.0028  0.3796  0.0156
   65MOL0     C 8893   5.161   2.446   5.586 -0.6848 -0.6629  0.0538
   65MOL0     C 8894   5.071   2.332   5.538 -0.1176  0.0344  0.5241
   65MOL0     C 8895   4.931   2.350   5.600 -0.1306  0.0444  1.0410
   65MOL0     C 8896   4.922   2.317   5.745 -0.0475 -0.6806  0.3836
   65MOL0     C 8897   4.902   2.310   5.867 -1.6146  0.0220 -0.5210
   65MOL0     C 8898   5.448   2.481   5.201  0.0826 -0.2151 -0.5313
   65MOL0     C 8899   5.565   2.504   5.130  0.1073  0.4289  0.1708
   65MOL0     C 8900   5.553   2.497   4.977 -0.4308 -0.4603  0.1366
   65MOL0     H 8901   6.019   2.845   5.128 -2.3584 -1.3626  2.4852
   65MOL0     H 8902   6.261   2.859   5.050 -1.8243  2.3797  2.4942
   65MOL0     H 8903   6.533   2.528   5.148 -1.3336  0.7537  2.2242
   65MOL0     H 8904   6.548   2.642   5.271  0.7041 -0.8425  0.3039
   65MOL0     H 8905   6.687   2.789   5.114  3.3619 -0.7727  0.1232
   65MOL0     H 8906   6.770   2.648   5.173  2.3226  1.5121 -1.5394
   65MOL0     H 8907   6.735   2.527   4.971 -3.3465 -0.1215  2.4204
   65MOL0     H 8908   6.613   2.647   4.929 -2.1579  1.2279  3.1000
   65MOL0     H 8909   6.782   2.821   4.912  3.3835  1.5162 -1.0862
   65MOL0     H 8910   6.902   2.707   4.978 -0.9222 -1.6049 -1.1417
   65MOL0     H 8911   6.751   2.673   4.716  0.9333  1.0924  0.7195
   65MOL0     H 8912   6.892   2.572   4.772  1.6251 -1.0502 -0.9346
   65MOL0     H 8913   6.940   2.862   4.769 -1.0462  0.3870 -0.4040
   65MOL0     H 8914   7.045   2.747   4.691 -0.3681 -1.3902  1.4361
   65MOL0     H 8915   6.782   2.852   4.589  0.5416  0.5601  0.4567
   65MOL0     H 8916   6.893   2.744   4.490 -0.6722  0.5967 -0.1852
   65MOL0     H 8917   6.877   2.990   4.451  0.7426 -3.1066 -1.6576
   65MOL0     H 8918   6.949   3.026   4.611 -2.1157 -0.6444  0.5648
   65MOL0     H 8919   7.018   2.844   4.274  0.9021 -1.2600  0.0070
   65MOL0     H 8920   7.269   2.898   4.108 -0.9563  0.7871  1.4400
   65MOL0     H 8921   7.261   2.728   4.176  1.5033 -0.0642 -1.1812
   65MOL0     H 8922   7.477   2.940   4.185  2.2308 -0.8324 -2.0212
   65MOL0     H 8923   7.478   2.817   4.306 -0.2448  1.0095 -0.3384
   65MOL0     H 8924   7.494   2.647   4.117 -0.1098  0.7995  0.2406
   65MOL0     H 8925   7.483   2.782   4.009  1.7269 -1.2033 -1.5271
   65MOL0     H 8926   7.676   2.724   4.235 -1.2853  1.0090  1.9158
   65MOL0     H 8927   7.710   2.701   4.047 -1.3836 -0.4323  1.3070
   65MOL0     H 8928   7.804   3.126   4.101 -0.2830 -1.0354 -1.6316
   65MOL0     H 8929   7.967   3.313   4.360 -1.6088 -3.0833  2.2776
   65MOL0     H 8930   7.895   3.319   4.195  1.9862  0.7125 -1.4791
   65MOL0     H 8931   8.068   3.302   4.212 -0.8637 -0.9480 -2.3030
   65MOL0     H 8932   8.206   2.843   4.737  0.8000 -0.7167  1.5359
   65MOL0     H 8933   8.369   2.884   4.920 -0.4307  1.6035  1.2363
   65MOL0     H 8934   8.482   2.994   5.059  0.7961  0.3534  3.7094
   65MOL0     H 8935   8.646   2.937   5.032  0.1788  0.8310  0.9950
   65MOL0     H 8936   8.587   3.228   5.107  2.0924  1.1407  1.9902
   65MOL0     H 8937   8.626   3.108   5.221  1.2705  0.4805  0.1173
   65MOL0     H 8938   8.789   3.217   4.986  0.8976 -1.7434 -0.9793
   65MOL0     H 8939   8.839   3.071   5.053  1.5767  0.1876  0.9400
   65MOL0     H 8940   8.832   3.203   5.284 -0.1265  2.6523  0.4015
   65MOL0     H 8941   8.826   3.347   5.178 -2.6882 -0.9040 -0.9311
   65MOL0     H 8942   9.036   3.139   5.157  0.4015 -1.1022  3.5850
   65MOL0     H 8943   9.025   3.296   5.072  0.2647 -0.2134 -0.0219
   65MOL0     H 8944   9.074   3.304   5.374  1.3930  1.5159  0.2814
   65MOL0     H 8945   9.059   3.433   5.259 -1.8893 -0.3320 -0.1315
   65MOL0     H 8946   9.263   3.326   5.130  2.4143 -1.8964 -0.2547
   65MOL0     H 8947   9.270   3.208   5.260  0.9292 -0.2472 -0.1447
   65MOL0     H 8948   9.289   3.392   5.424 -1.2061  2.9268  1.2958
   65MOL0     H 8949   9.293   3.509   5.295 -1.4321 -0.5829  0.4059
   65MOL0     H 8950   8.596   3.134   4.645 -0.5180 -0.1342  0.3133
   65MOL0     H 8951   8.423   3.103   4.484 -0.4356  2.5858  1.5380
   65MOL0     H 8952   8.077   2.821   4.356 -1.5904 -0.8918  2.0268
   65MOL0     H 8953   7.888   2.736   4.253 -1.0699  0.1721  3.7416
   65MOL0     H 8954   6.324   2.452   5.174 -0.0879  0.0459 -0.2980
   65MOL0     H 8955   6.082   2.435   5.228  1.3231 -0.8700 -1.3718
   65MOL0     H 8956   5.770   2.520   5.399  1.1234 -1.2058 -1.2088
   65MOL0     H 8957   5.565   2.467   5.516 -2.9063 -0.2459 -0.2530
   65MOL0     H 8958   5.337   2.324   5.561 -2.7251 -0.0749  0.6755
   65MOL0     H 8959   5.367   2.497   5.574  0.3793 -0.5393 -0.4303
   65MOL0     H 8960   5.126   2.544   5.550  0.0810 -1.2805 -2.6033
   65MOL0     H 8961   5.162   2.446   5.695  0.4321 -2.2836  0.0839
   65MOL0     H 8962   5.057   2.336   5.430 -1.6431 -2.6954  0.5389
   65MOL0     H 8963   5.116   2.235   5.562  0.1708 -0.1953 -0.8537
   65MOL0     H 8964   4.848   2.304   5.546 -1.2790  4.0762 -1.0356
   65MOL0     H 8965   4.896   2.452   5.582 -1.1718 -0.2921  1.1229
   65MOL0     H 8966   4.880   2.309   5.971 -1.0884 -0.5483 -0.4047
   65MOL0     H 8967   5.354   2.475   5.146 -2.1613  3.8413  2.2860
   65MOL0     H 8968   5.610   2.583   4.941 -0.4551 -0.9123 -1.0224
   65MOL0     H 8969   5.590   2.404   4.932 -0.9163 -0.3346 -0.5290
   65MOL0     H 8970   5.450   2.506   4.943 -0.6014 -4.4284 -0.8860
   66MOL0     O 8971  10.652  10.198   3.436  0.3286 -0.0177  0.2271
   66MOL0     C 8972  10.628  10.254   3.550  1.0457  0.5398  0.0602
   66MOL0     O 8973  10.710  10.242   3.658  1.1250 -0.3692  1.1534
   66MOL0     C 8974  10.798  10.138   3.652  0.2604  0.4590  0.4135
   66MOL0     C 8975  10.926  10.160   3.612 -1.3521 -0.0982 -0.7941
   66MOL0     C 8976  11.023  10.051   3.611  0.0723  0.4487  0.5992
   66MOL0     C 8977  10.988   9.918   3.659 -0.9292  0.0954  0.7417
   66MOL0     O 8978  11.093   9.826   3.666 -0.6104 -0.5529 -0.6548
   66MOL0     C 8979  11.072   9.723   3.757 -0.9532 -0.3455  0.1004
   66MOL0     C 8980  11.200   9.645   3.790 -0.3285 -0.3639 -0.3854
   66MOL0     C 8981  11.291   9.735   3.872 -0.1957 -0.0014 -0.3222
   66MOL0     C 8982  11.437   9.677   3.911  0.1280 -0.1932 -0.8765
   66MOL0     C 8983  11.515   9.731   4.033  0.4892  1.0228 -0.1677
   66MOL0     C 8984  11.439   9.692   4.159 -0.2697 -0.6688 -0.6998
   66MOL0     C 8985  11.504   9.737   4.289 -0.9224 -0.3057  0.1423
   66MOL0     C 8986  11.481   9.882   4.303 -0.6810 -0.5069 -0.5585
   66MOL0     N 8987  11.531   9.937   4.428 -0.2727  0.6351  0.1130
   66MOL0     C 8988  11.663   9.991   4.452  0.9079 -0.0710 -0.0339
   66MOL0     C 8989  11.650  10.076   4.560  0.2318  0.3877  0.2313
   66MOL0     C 8990  11.755  10.154   4.626 -0.5311 -0.6884  0.7135
   66MOL0     C 8991  11.854  10.069   4.704  0.3808 -0.6054 -0.6271
   66MOL0     C 8992  11.951  10.152   4.789 -1.3012 -0.4846 -0.1785
   66MOL0     C 8993  12.043  10.073   4.879 -0.4376 -0.6880  0.3186
   66MOL0     O 8994  12.109  10.154   4.983  0.1507  0.3717  0.2021
   66MOL0     C 8995  12.240  10.202   4.976  0.5974  0.1613  0.7972
   66MOL0     C 8996  12.318  10.224   5.087  0.4696  0.1388 -0.1642
   66MOL0     C 8997  12.449  10.264   5.074  0.7807 -0.1966 -0.0421
   66MOL0     C 8998  12.526  10.275   5.205 -0.0128 -0.1188  0.4784
   66MOL0     C 8999  12.508  10.295   4.950  0.4562 -0.1824  0.5345
   66MOL0     C 9000  12.648  10.337   4.929 -0.4970 -0.9623  0.3331
   66MOL0     O 9001  12.713  10.395   5.041 -0.7685 -0.7727 -0.1563
   66MOL0     C 9002  12.825  10.470   5.013  0.4226 -0.2299 -0.6478
   66MOL0     C 9003  12.954  10.422   5.061  1.1569 -0.5677  0.0793
   66MOL0     C 9004  13.064  10.504   5.041 -0.4271  0.6582 -0.7748
   66MOL0     C 9005  13.052  10.629   4.977  0.6821 -0.5781 -0.5656
   66MOL0     O 9006  13.157  10.697   4.931  0.4951 -0.3961  0.0974
   66MOL0     C 9007  13.281  10.628   4.911  0.3282 -0.4350  0.1860
   66MOL0     C 9008  13.387  10.715   4.839  0.4176  0.3069  0.2426
   66MOL0     C 9009  13.428  10.830   4.916 -0.1688  0.2926  0.1041
   66MOL0     C 9010  13.557  10.908   4.856  0.6096 -0.2685 -0.1940
   66MOL0     C 9011  13.593  11.026   4.932  0.1103 -0.5806 -0.6300
   66MOL0     C 9012  13.728  11.087   4.886  0.2090  0.2126  0.2926
   66MOL0     C 9013  13.764  11.228   4.933 -0.0865 -0.0487 -0.4296
   66MOL0     C 9014  13.896  11.261   4.874 -0.0168 -0.0123  0.5682
   66MOL0    Cl 9015  13.942  11.422   4.944  0.2834 -0.2422 -0.4403
   66MOL0     C 9016  12.924  10.678   4.945  0.7106  0.6632 -0.1719
   66MOL0     C 9017  12.813  10.596   4.963  0.8298 -0.5021 -0.0876
   66MOL0     O 9018  12.698  10.333   4.820  0.0292  0.2091  0.1049
   66MOL0     C 9019  12.436  10.263   4.836 -0.3607  0.7759  0.1666
   66MOL0     C 9020  12.302  10.226   4.848  0.0911 -0.0152  0.0043
   66MOL0     N 9021  11.516  10.063   4.600  0.4456 -0.0736  0.0315
   66MOL0     N 9022  11.448   9.976   4.531 -0.2455 -0.4848 -0.8316
   66MOL0     C 9023  10.850   9.895   3.688 -0.0824  0.0358  1.0474
   66MOL0     C 9024  10.763  10.009   3.693 -0.2672  0.3171  1.2132
   66MOL0     C 9025  10.512  10.343   3.547 -0.2935 -0.0637 -0.4698
   66MOL0     C 9026  10.502  10.437   3.442 -0.1459  0.7230 -0.0082
   66MOL0     C 9027  10.395  10.532   3.442  0.4774  0.4997 -0.1110
   66MOL0     C 9028  10.297  10.528   3.535 -0.2347  0.0624 -0.2036
   66MOL0     O 9029  10.191  10.610   3.518  0.2529 -0.4035  0.1180
   66MOL0     C 9030  10.090  10.645   3.615 -0.0852 -0.6917  0.1687
   66MOL0     C 9031   9.971  10.549   3.620 -0.0981  0.1175  0.4655
   66MOL0     C 9032   9.878  10.599   3.728 -0.2614  0.4302 -0.3052
   66MOL0     C 9033   9.820  10.743   3.724 -0.4581 -0.8249 -0.1608
   66MOL0     C 9034   9.737  10.772   3.603 -0.4407 -0.0582  0.3578
   66MOL0     C 9035   9.671  10.794   3.505 -0.1183 -0.6274 -0.8932
   66MOL0     C 9036  10.312  10.439   3.641  0.7573  0.6296  0.1676
   66MOL0     C 9037  10.417  10.347   3.650  0.2379 -0.1851  0.2743
   66MOL0     C 9038  10.426  10.252   3.771 -0.2875  0.1446  0.3602
   66MOL0     H 9039  10.957  10.261   3.589 -0.3666  0.0849  1.1300
   66MOL0     H 9040  11.123  10.073   3.575  0.2772 -1.3772 -0.1148
   66MOL0     H 9041  10.999   9.657   3.710 -1.3019  0.2288 -0.1738
   66MOL0     H 9042  11.042   9.772   3.850  2.7455  1.9850  0.3022
   66MOL0     H 9043  11.173   9.549   3.835 -0.6783 -0.5432 -0.9655
   66MOL0     H 9044  11.254   9.625   3.697 -1.4127 -1.1280 -0.8710
   66MOL0     H 9045  11.306   9.830   3.822 -1.1792  2.0468  2.9409
   66MOL0     H 9046  11.241   9.762   3.966  0.4639  0.3484 -0.0717
   66MOL0     H 9047  11.426   9.570   3.931 -1.5896  0.0034 -0.6365
   66MOL0     H 9048  11.510   9.686   3.830  1.6824  0.0782  0.5096
   66MOL0     H 9049  11.527   9.839   4.021  2.7090  0.9327  0.6880
   66MOL0     H 9050  11.613   9.682   4.032 -0.4431 -0.9845 -1.7138
   66MOL0     H 9051  11.333   9.720   4.158  0.1531  1.2244  1.1233
   66MOL0     H 9052  11.450   9.583   4.163 -1.9587 -0.8520  0.0133
   66MOL0     H 9053  11.614   9.731   4.287 -0.8970  0.1208  0.1359
   66MOL0     H 9054  11.467   9.683   4.377  2.1455 -1.7057  0.7107
   66MOL0     H 9055  11.522   9.936   4.217  0.0653  0.6603  0.4911
   66MOL0     H 9056  11.373   9.900   4.309 -0.8524 -0.6098 -2.5195
   66MOL0     H 9057  11.751   9.969   4.393  1.9308  2.0832  0.5738
   66MOL0     H 9058  11.701  10.221   4.693 -1.7427  1.1082 -1.8858
   66MOL0     H 9059  11.812  10.219   4.558  1.1826 -1.4870  1.3298
   66MOL0     H 9060  11.805  10.000   4.773  2.0458  0.4399  1.7456
   66MOL0     H 9061  11.904  10.003   4.632 -0.5470 -0.3754 -1.5045
   66MOL0     H 9062  12.025  10.192   4.719  2.4980 -1.7904  2.7512
   66MOL0     H 9063  11.907  10.240   4.836 -0.5940  0.3277 -1.0029
   66MOL0     H 9064  11.989   9.991   4.927 -0.5239 -0.3341  0.8393
   66MOL0     H 9065  12.116  10.021   4.816 -0.5098 -1.2981  0.7258
   66MOL0     H 9066  12.283  10.212   5.189  1.9119  1.4882  0.5288
   66MOL0     H 9067  12.561  10.378   5.220 -1.7262  0.4209  0.9400
   66MOL0     H 9068  12.611  10.206   5.198 -2.2605 -2.9461 -1.4045
   66MOL0     H 9069  12.467  10.246   5.292 -0.9726  1.6539  0.4432
   66MOL0     H 9070  12.958  10.325   5.111  1.3528 -0.0406  1.1109
   66MOL0     H 9071  13.159  10.463   5.072  0.1886 -0.7101 -4.0677
   66MOL0     H 9072  13.321  10.598   5.009  0.9256  0.4097  0.2198
   66MOL0     H 9073  13.262  10.541   4.848  1.2762 -1.4012  1.1881
   66MOL0     H 9074  13.471  10.649   4.819 -1.7123 -1.9492 -2.0621
   66MOL0     H 9075  13.357  10.756   4.742  2.1509  0.3656 -0.2878
   66MOL0     H 9076  13.453  10.806   5.020  0.2306  1.1007  0.2032
   66MOL0     H 9077  13.341  10.894   4.932  0.6623  0.8726  2.8745
   66MOL0     H 9078  13.533  10.937   4.753  0.2439 -1.5379 -0.4785
   66MOL0     H 9079  13.642  10.841   4.847  0.7163 -0.0239 -1.0959
   66MOL0     H 9080  13.518  11.105   4.920 -0.4991 -0.9463  0.6196
   66MOL0     H 9081  13.607  10.999   5.037 -0.0027 -0.9035 -0.6992
   66MOL0     H 9082  13.728  11.092   4.777 -1.1445 -0.3741  0.2406
   66MOL0     H 9083  13.801  11.011   4.916 -1.1370 -1.2258  0.0789
   66MOL0     H 9084  13.764  11.253   5.039  1.8923  2.2811 -0.8812
   66MOL0     H 9085  13.682  11.289   4.894 -1.0027 -0.7493  0.3628
   66MOL0     H 9086  13.883  11.274   4.766 -0.7496 -1.6169  0.4463
   66MOL0     H 9087  13.966  11.178   4.883  1.1820  0.8242 -0.6980
   66MOL0     H 9088  12.897  10.768   4.890 -2.2035 -0.5840 -0.9724
   66MOL0     H 9089  12.722  10.643   4.928  0.6866 -0.2330  0.6364
   66MOL0     H 9090  12.483  10.278   4.739 -0.7831 -2.0754 -0.5614
   66MOL0     H 9091  12.245  10.224   4.755  2.6759 -0.1815 -1.6896
   66MOL0     H 9092  10.829   9.794   3.722  1.3077 -0.8175 -0.4536
   66MOL0     H 9093  10.662   9.994   3.730 -0.6618 -2.0443 -0.6000
   66MOL0     H 9094  10.582  10.436   3.369  1.7579 -0.1760  1.9670
   66MOL0     H 9095  10.395  10.608   3.365  3.7649 -0.9198 -1.7541
   66MOL0     H 9096  10.137  10.640   3.714 -0.2361 -0.3363  0.2619
   66MOL0     H 9097  10.064  10.750   3.598  2.0386  0.0036  0.8384
   66MOL0     H 9098  10.008  10.447   3.637  1.5088  0.6961  0.6345
   66MOL0     H 9099   9.931  10.551   3.519  0.7170  3.0330  0.1241
   66MOL0     H 9100   9.792  10.531   3.725 -0.1107  0.1612  0.8681
   66MOL0     H 9101   9.933  10.603   3.822 -0.9748  0.7671  0.1112
   66MOL0     H 9102   9.900  10.818   3.725 -2.5009  1.5140  0.5087
   66MOL0     H 9103   9.762  10.762   3.815  0.2146  3.1652 -0.3806
   66MOL0     H 9104   9.606  10.819   3.423 -0.5044 -0.8732 -0.6633
   66MOL0     H 9105  10.240  10.445   3.722 -1.2296  3.5136 -1.6564
   66MOL0     H 9106  10.338  10.271   3.833 -0.2071 -0.7596  0.7666
   66MOL0     H 9107  10.436  10.146   3.746  0.3681  0.1604  0.5415
   66MOL0     H 9108  10.513  10.279   3.831 -1.1749  0.5546  1.5063
   67MOL0     O 9109   2.776   6.297   5.159  0.6347  0.3851 -0.7436
   67MOL0     C 9110   2.823   6.201   5.095 -0.1231 -0.1535 -0.3650
   67MOL0     O 9111   2.946   6.145   5.117  0.1556 -0.4580  0.1175
   67MOL0     C 9112   3.017   6.168   5.234 -0.1012 -0.5641  0.7817
   67MOL0     C 9113   3.157   6.160   5.218 -0.6833  0.3542  0.2982
   67MOL0     C 9114   3.243   6.178   5.327 -0.2050  0.7146 -0.2495
   67MOL0     C 9115   3.193   6.228   5.447 -0.0075 -0.0145 -0.0154
   67MOL0     O 9116   3.280   6.297   5.533  0.4951  0.0187  0.3674
   67MOL0     C 9117   3.241   6.303   5.674 -0.0205 -0.4592  0.0736
   67MOL0     C 9118   3.212   6.444   5.721 -0.4259 -0.1001 -0.5200
   67MOL0     C 9119   3.340   6.529   5.741  0.2851  0.1220 -0.6259
   67MOL0     C 9120   3.399   6.494   5.883  0.1664 -0.4551  0.0415
   67MOL0     C 9121   3.552   6.509   5.891 -0.4429  0.0398  0.8521
   67MOL0     C 9122   3.628   6.405   5.806 -1.3963 -0.8209  0.1543
   67MOL0     C 9123   3.784   6.422   5.804 -0.1555 -0.4989 -0.1818
   67MOL0     C 9124   3.863   6.355   5.915  0.0923 -0.6393 -0.1444
   67MOL0     N 9125   3.981   6.438   5.950  0.0805  0.9557  0.0474
   67MOL0     C 9126   3.980   6.551   6.019 -0.1148  0.1610 -0.3310
   67MOL0     C 9127   4.104   6.596   6.017 -0.6126 -0.5917  0.3827
   67MOL0     C 9128   4.150   6.729   6.076  0.1182  0.8143  0.4724
   67MOL0     C 9129   4.129   6.829   5.954  0.4231 -0.3760  0.2320
   67MOL0     C 9130   4.127   6.974   6.001  0.1423 -0.2925  1.0283
   67MOL0     C 9131   4.270   7.034   6.014 -0.1076 -0.6663 -0.0287
   67MOL0     O 9132   4.337   7.006   5.890 -0.3895 -0.2498  0.3794
   67MOL0     C 9133   4.461   7.054   5.861 -0.3221 -0.4992  0.1162
   67MOL0     C 9134   4.552   7.120   5.949  0.2154 -0.2768  0.0711
   67MOL0     C 9135   4.694   7.154   5.923 -0.0527  0.4545 -0.4611
   67MOL0     C 9136   4.773   7.217   6.033  0.0278 -0.1154 -0.0492
   67MOL0     C 9137   4.742   7.112   5.794 -0.5232  0.9400 -0.1604
   67MOL0     C 9138   4.882   7.126   5.754 -0.0302 -0.1532 -0.6105
   67MOL0     O 9139   4.929   7.053   5.648 -0.7423 -0.3069  0.0901
   67MOL0     C 9140   5.023   7.112   5.566 -0.6248 -0.2758  0.5270
   67MOL0     C 9141   5.164   7.113   5.597  0.7191  0.1703 -0.3223
   67MOL0     C 9142   5.258   7.178   5.512  0.3051  0.3663  0.8555
   67MOL0     C 9143   5.204   7.234   5.388 -1.0727  1.2848  0.6725
   67MOL0     O 9144   5.282   7.307   5.301  0.3489  0.3672  0.5072
   67MOL0     C 9145   5.423   7.313   5.322  0.2181 -0.3044 -0.5928
   67MOL0     C 9146   5.487   7.381   5.202  0.7689  0.2276 -0.5003
   67MOL0     C 9147   5.638   7.403   5.216 -0.1717  0.0386 -0.1572
   67MOL0     C 9148   5.697   7.484   5.102  0.1184  0.2226  0.6286
   67MOL0     C 9149   5.849   7.482   5.114  0.1770  0.3807  0.2039
   67MOL0     C 9150   5.922   7.561   5.000 -0.1694  0.5286 -0.1804
   67MOL0     C 9151   6.055   7.621   5.047  0.7814 -0.1436 -0.2680
   67MOL0     C 9152   6.138   7.691   4.936 -0.5402 -0.3704 -1.2781
   67MOL0    Cl 9153   6.289   7.743   4.994 -0.1340 -0.1202 -0.2333
   67MOL0     C 9154   5.076   7.236   5.357  0.4443  0.0450 -0.0810
   67MOL0     C 9155   4.987   7.177   5.445 -0.1127  0.7428 -0.4098
   67MOL0     O 9156   4.949   7.213   5.802 -0.3046 -0.3919 -0.6728
   67MOL0     C 9157   4.646   7.052   5.702  0.5480  0.4701  0.5842
   67MOL0     C 9158   4.516   7.028   5.732  0.2377  0.2095 -0.4082
   67MOL0     N 9159   4.182   6.500   5.950 -0.7136 -0.5787  0.0009
   67MOL0     N 9160   4.104   6.402   5.912 -0.5793 -0.1204 -0.1267
   67MOL0     C 9161   3.052   6.222   5.463  0.5591  0.7010 -0.9244
   67MOL0     C 9162   2.965   6.192   5.360  0.2606  0.6152 -0.5139
   67MOL0     C 9163   2.754   6.147   4.978 -0.1237 -0.8508 -0.3350
   67MOL0     C 9164   2.822   6.070   4.876  0.7502 -0.2735 -0.4304
   67MOL0     C 9165   2.758   6.045   4.751 -1.0882 -0.3687 -0.6663
   67MOL0     C 9166   2.630   6.077   4.730 -0.2439  0.6946 -0.2340
   67MOL0     O 9167   2.572   6.051   4.603  0.0909  0.1137 -0.2450
   67MOL0     C 9168   2.430   6.077   4.577 -0.1009 -0.7966 -0.2130
   67MOL0     C 9169   2.394   6.090   4.421  0.3446 -0.1843  0.3387
   67MOL0     C 9170   2.254   6.150   4.395 -0.2023  0.7246  0.1370
   67MOL0     C 9171   2.221   6.143   4.239 -0.5349  0.4749 -0.2768
   67MOL0     C 9172   2.088   6.188   4.209 -0.1238  0.2400 -0.0987
   67MOL0     C 9173   1.975   6.238   4.194 -0.3505  0.1839 -0.2036
   67MOL0     C 9174   2.558   6.131   4.835 -0.2378  0.1970 -0.8160
   67MOL0     C 9175   2.621   6.181   4.946 -0.3505 -0.1674 -0.6895
   67MOL0     C 9176   2.534   6.276   5.023  0.3950  0.0295  0.5961
   67MOL0     H 9177   3.201   6.140   5.121 -0.0545  0.1652  0.6141
   67MOL0     H 9178   3.350   6.163   5.319 -0.2650 -0.5794  0.9435
   67MOL0     H 9179   3.320   6.265   5.740  2.4733  1.8769 -1.3258
   67MOL0     H 9180   3.154   6.240   5.692 -0.0853 -0.3052  0.2971
   67MOL0     H 9181   3.150   6.485   5.641 -0.2541 -0.1924 -0.7024
   67MOL0     H 9182   3.147   6.448   5.808 -0.4756  1.5813 -0.5961
   67MOL0     H 9183   3.407   6.528   5.654  0.2899  0.9968 -0.6364
   67MOL0     H 9184   3.300   6.630   5.752 -1.2014 -0.5027  0.1414
   67MOL0     H 9185   3.354   6.564   5.955  1.6796  1.2644 -0.6033
   67MOL0     H 9186   3.370   6.393   5.913  1.0106 -0.3390  1.3312
   67MOL0     H 9187   3.590   6.505   5.994  0.7703 -3.5224  0.3975
   67MOL0     H 9188   3.577   6.608   5.850 -2.9169  1.6005  2.7589
   67MOL0     H 9189   3.610   6.302   5.839 -0.3337 -0.7789  0.9034
   67MOL0     H 9190   3.604   6.412   5.700  0.5001  1.3890 -0.2179
   67MOL0     H 9191   3.809   6.528   5.803  3.0989 -1.1743  0.2359
   67MOL0     H 9192   3.821   6.386   5.708  2.4294 -2.0127  1.2710
   67MOL0     H 9193   3.798   6.361   6.002  0.9416  1.1183  0.4036
   67MOL0     H 9194   3.892   6.253   5.889 -0.7761 -0.1633 -3.4471
   67MOL0     H 9195   3.898   6.596   6.073  1.5051  3.2491 -0.2045
   67MOL0     H 9196   4.256   6.743   6.102  0.5950  1.6824 -1.6773
   67MOL0     H 9197   4.093   6.744   6.168  2.1292 -0.4185  2.0274
   67MOL0     H 9198   4.204   6.809   5.877  1.2383  1.7502  0.3960
   67MOL0     H 9199   4.032   6.809   5.907  1.0902 -0.2251 -1.2907
   67MOL0     H 9200   4.075   7.031   5.923  0.3460 -0.3647  0.8387
   67MOL0     H 9201   4.078   6.992   6.097 -0.6145 -2.0253  1.0062
   67MOL0     H 9202   4.275   7.140   6.039  1.2223 -1.0538  1.4354
   67MOL0     H 9203   4.320   6.985   6.097  3.6688  2.1355 -0.3956
   67MOL0     H 9204   4.508   7.152   6.042 -1.0514  2.7584 -1.4285
   67MOL0     H 9205   4.710   7.245   6.117 -0.6580 -0.6363 -0.3815
   67MOL0     H 9206   4.796   7.310   5.978 -1.1276  0.3708  0.2609
   67MOL0     H 9207   4.863   7.166   6.068 -0.2014  0.7289  1.8848
   67MOL0     H 9208   5.199   7.065   5.688 -0.7987 -2.0663 -0.8247
   67MOL0     H 9209   5.364   7.175   5.536  0.8930  1.5951 -1.3132
   67MOL0     H 9210   5.446   7.373   5.410 -0.8245 -1.5145  0.5462
   67MOL0     H 9211   5.465   7.214   5.336 -0.7625 -0.5439  0.8775
   67MOL0     H 9212   5.478   7.318   5.113  1.1196  1.2414 -1.2774
   67MOL0     H 9213   5.438   7.478   5.187  1.6994  0.9236  0.8094
   67MOL0     H 9214   5.689   7.307   5.228  0.1314  0.2267  0.0809
   67MOL0     H 9215   5.644   7.462   5.308  1.2504 -0.5015  0.1232
   67MOL0     H 9216   5.661   7.586   5.117 -2.2024 -0.4663  0.1691
   67MOL0     H 9217   5.664   7.444   5.006 -0.9200  3.8374 -0.7105
   67MOL0     H 9218   5.871   7.529   5.211  0.9188 -0.2550  0.3543
   67MOL0     H 9219   5.895   7.383   5.112 -0.3139  0.1027  1.5221
   67MOL0     H 9220   5.858   7.641   4.960  1.8973  2.0986 -0.5138
   67MOL0     H 9221   5.941   7.503   4.909  1.1256 -1.1841  1.1392
   67MOL0     H 9222   6.099   7.545   5.113  0.4300 -0.2649 -0.1713
   67MOL0     H 9223   6.029   7.702   5.116 -0.3475 -2.7737  2.6450
   67MOL0     H 9224   6.089   7.779   4.893 -0.6793  0.1449 -0.1148
   67MOL0     H 9225   6.172   7.619   4.861  0.1387 -1.2390 -0.1675
   67MOL0     H 9226   5.043   7.283   5.265 -1.5432  1.1348  1.0888
   67MOL0     H 9227   4.882   7.192   5.421 -0.2612  0.6276  0.1543
   67MOL0     H 9228   4.681   7.016   5.606  0.6610  1.4892  0.2238
   67MOL0     H 9229   4.447   7.009   5.651 -2.2055  0.9820  1.3639
   67MOL0     H 9230   3.009   6.261   5.555  1.1207  0.3972 -0.5302
   67MOL0     H 9231   2.856   6.188   5.364  0.1774 -2.3871 -2.1992
   67MOL0     H 9232   2.920   6.025   4.891  0.2551 -0.9854  0.8798
   67MOL0     H 9233   2.814   5.991   4.675  0.0044 -3.0536  1.8715
   67MOL0     H 9234   2.365   6.004   4.627 -2.5276  0.0864 -1.8604
   67MOL0     H 9235   2.413   6.176   4.620  2.5818 -0.1786 -0.4204
   67MOL0     H 9236   2.402   5.992   4.373  0.8887  1.3555 -2.9410
   67MOL0     H 9237   2.470   6.160   4.387 -0.2016  0.2226 -0.0564
   67MOL0     H 9238   2.180   6.088   4.448  0.5193 -0.3534 -0.0877
   67MOL0     H 9239   2.261   6.254   4.428 -1.0841  0.9698 -0.4006
   67MOL0     H 9240   2.233   6.040   4.205 -0.7517  0.0621  0.8468
   67MOL0     H 9241   2.303   6.194   4.187 -0.5845 -0.9986 -1.9004
   67MOL0     H 9242   1.874   6.267   4.174 -0.5057  1.2091  1.8256
   67MOL0     H 9243   2.451   6.140   4.817 -0.3786 -2.1204 -1.3482
   67MOL0     H 9244   2.523   6.252   5.129 -0.7728  4.3194  1.6591
   67MOL0     H 9245   2.572   6.378   5.012  0.5135 -0.1051 -0.3222
   67MOL0     H 9246   2.430   6.269   4.992  0.3872 -2.9721  1.0205
   68MOL0     O 9247   4.077   4.014   1.061  0.2004 -0.0320 -0.2456
   68MOL0     C 9248   3.978   4.027   1.128 -0.6369  0.1386  0.4823
   68MOL0     O 9249   3.967   4.123   1.227  0.4048  0.3471  0.3396
   68MOL0     C 9250   4.075   4.188   1.264 -0.3812 -0.4431 -0.0830
   68MOL0     C 9251   4.208   4.132   1.285 -0.1128 -0.6502  0.0725
   68MOL0     C 9252   4.322   4.214   1.319  0.1854  0.6550 -0.5167
   68MOL0     C 9253   4.310   4.347   1.336  0.6644 -1.4204 -0.1676
   68MOL0     O 9254   4.416   4.434   1.368  0.7971 -0.4717  0.1107
   68MOL0     C 9255   4.552   4.378   1.337  0.1825  0.1107 -0.0709
   68MOL0     C 9256   4.663   4.482   1.318  0.3728 -0.4247  0.3107
   68MOL0     C 9257   4.716   4.534   1.452  0.9256  0.1669  1.1040
   68MOL0     C 9258   4.833   4.632   1.441  0.1853  0.3449  0.3447
   68MOL0     C 9259   4.887   4.665   1.579  0.3297 -1.1718  0.2323
   68MOL0     C 9260   4.975   4.562   1.643  0.1522 -0.0001  0.7066
   68MOL0     C 9261   5.028   4.617   1.781 -0.5874  0.0427 -1.5723
   68MOL0     C 9262   5.161   4.555   1.823  0.1542 -0.3335 -0.1611
   68MOL0     N 9263   5.273   4.620   1.748 -0.1159  0.6084 -0.3043
   68MOL0     C 9264   5.333   4.582   1.625  0.0424  0.2275  0.4921
   68MOL0     C 9265   5.456   4.644   1.612  0.5271  0.0947  0.4343
   68MOL0     C 9266   5.556   4.612   1.511  0.0979  0.3707  0.1403
   68MOL0     C 9267   5.659   4.516   1.559 -0.3401  0.9288 -0.3236
   68MOL0     C 9268   5.760   4.496   1.445 -0.0185  0.7028  0.5631
   68MOL0     C 9269   5.889   4.420   1.472  0.4006  0.6186 -0.0917
   68MOL0     O 9270   5.865   4.288   1.524  0.5318  0.1089 -0.7408
   68MOL0     C 9271   5.977   4.208   1.507 -0.1196  0.2549 -0.3179
   68MOL0     C 9272   6.020   4.134   1.619 -0.3924  0.5196 -0.3270
   68MOL0     C 9273   6.122   4.046   1.603 -0.8066  0.2924 -0.3991
   68MOL0     C 9274   6.154   3.962   1.728  0.0449 -0.3531  0.0225
   68MOL0     C 9275   6.210   4.036   1.485  0.7673 -0.5281 -0.2050
   68MOL0     C 9276   6.343   3.968   1.480 -0.8259 -0.4360  0.1820
   68MOL0     O 9277   6.414   3.956   1.596 -0.5781 -0.5091  0.2426
   68MOL0     C 9278   6.542   3.915   1.589  0.6280 -0.2906 -0.3350
   68MOL0     C 9279   6.586   3.841   1.696 -0.2530 -0.3454 -0.5052
   68MOL0     C 9280   6.723   3.811   1.707 -0.0025 -0.4786 -0.1634
   68MOL0     C 9281   6.816   3.840   1.610  0.0856 -0.1924 -0.0599
   68MOL0     O 9282   6.946   3.813   1.632  0.0523 -0.0142 -0.3436
   68MOL0     C 9283   7.047   3.846   1.537  0.6765 -0.1894 -0.6588
   68MOL0     C 9284   7.184   3.793   1.580 -0.7245  0.3357  0.1981
   68MOL0     C 9285   7.228   3.671   1.504  0.2820 -0.5881  0.1432
   68MOL0     C 9286   7.373   3.636   1.531  0.4603 -0.5532  0.1853
   68MOL0     C 9287   7.424   3.517   1.450 -0.4561  0.9386  0.1522
   68MOL0     C 9288   7.580   3.503   1.448 -0.0021  0.1760 -0.3540
   68MOL0     C 9289   7.645   3.416   1.337 -0.1253 -0.3649 -0.4770
   68MOL0     C 9290   7.798   3.403   1.362  0.5915  0.3940  0.7405
   68MOL0    Cl 9291   7.857   3.280   1.249  0.3451  0.0308 -0.0093
   68MOL0     C 9292   6.770   3.923   1.507  0.4873  0.0557 -0.7020
   68MOL0     C 9293   6.632   3.963   1.496 -0.2241  0.5433 -0.2580
   68MOL0     O 9294   6.371   3.920   1.371  0.3343  0.6962  0.7043
   68MOL0     C 9295   6.165   4.111   1.375  0.1147  0.2221  0.1119
   68MOL0     C 9296   6.048   4.192   1.387 -0.3287  0.3035  0.8028
   68MOL0     N 9297   5.472   4.721   1.724  0.2812  0.2279  0.2511
   68MOL0     N 9298   5.360   4.703   1.796 -0.1440 -0.2866 -0.3973
   68MOL0     C 9299   4.181   4.407   1.311 -0.2102 -0.4198  0.3920
   68MOL0     C 9300   4.070   4.331   1.275 -0.1159  0.7040 -0.7285
   68MOL0     C 9301   3.865   3.933   1.103  0.2048  0.4464 -0.6106
   68MOL0     C 9302   3.729   3.962   1.146 -0.0322 -1.5032  0.6738
   68MOL0     C 9303   3.623   3.873   1.119  0.3257  0.0662 -0.1807
   68MOL0     C 9304   3.638   3.745   1.072 -0.3651 -0.3275  0.7686
   68MOL0     O 9305   3.524   3.672   1.068  0.2587  0.6128  0.2776
   68MOL0     C 9306   3.514   3.561   0.983 -0.3201  0.1678 -0.7331
   68MOL0     C 9307   3.369   3.522   0.951 -0.7719 -0.0548 -0.0290
   68MOL0     C 9308   3.276   3.441   1.041  0.6237  0.0787 -0.1104
   68MOL0     C 9309   3.259   3.523   1.170  0.2041 -0.4175 -0.5085
   68MOL0     C 9310   3.149   3.457   1.237  0.0295 -0.0231 -0.3024
   68MOL0     C 9311   3.062   3.411   1.304 -0.1618  0.9254 -0.0453
   68MOL0     C 9312   3.766   3.710   1.022 -0.0177 -1.2350  0.5164
   68MOL0     C 9313   3.877   3.802   1.037 -0.1885  0.9587  0.6235
   68MOL0     C 9314   4.008   3.758   0.978  0.0840  0.7342 -0.2483
   68MOL0     H 9315   4.231   4.028   1.263  0.7409 -0.0259 -2.3612
   68MOL0     H 9316   4.412   4.162   1.352  0.8611  2.6157  0.9330
   68MOL0     H 9317   4.552   4.322   1.243  1.7179  2.6935 -1.7104
   68MOL0     H 9318   4.584   4.314   1.420 -1.0675 -1.8593 -1.0331
   68MOL0     H 9319   4.747   4.426   1.275  0.4990 -0.9556  1.2176
   68MOL0     H 9320   4.634   4.558   1.245  3.4016  1.8630  1.2747
   68MOL0     H 9321   4.639   4.591   1.505 -0.2104 -0.3863  0.1059
   68MOL0     H 9322   4.754   4.449   1.510  2.6933  0.4484  0.4270
   68MOL0     H 9323   4.919   4.592   1.386  1.0261 -2.4201  3.3627
   68MOL0     H 9324   4.810   4.727   1.391 -0.4388  0.5147  0.9426
   68MOL0     H 9325   4.806   4.688   1.649  0.7304  0.1545  0.2825
   68MOL0     H 9326   4.936   4.761   1.564  0.6360 -1.6278 -2.0104
   68MOL0     H 9327   4.908   4.476   1.644 -2.3607  1.8504  1.2165
   68MOL0     H 9328   5.064   4.542   1.582 -0.2436 -2.4246  0.8357
   68MOL0     H 9329   4.955   4.604   1.861  2.5808  0.7956  1.7340
   68MOL0     H 9330   5.049   4.724   1.773  0.2443 -0.1568 -2.2205
   68MOL0     H 9331   5.174   4.555   1.931 -1.4783 -1.8860  0.0765
   68MOL0     H 9332   5.170   4.448   1.801  1.9963  0.0310 -1.4589
   68MOL0     H 9333   5.294   4.512   1.552  2.7555  0.9388 -1.8348
   68MOL0     H 9334   5.596   4.702   1.463 -1.1712  0.8991  0.0359
   68MOL0     H 9335   5.510   4.560   1.427 -0.0093  0.9232 -0.1504
   68MOL0     H 9336   5.715   4.567   1.638  2.0524 -0.5100 -0.9904
   68MOL0     H 9337   5.609   4.424   1.590 -1.4932  1.5318 -0.3119
   68MOL0     H 9338   5.706   4.445   1.365 -1.3150  2.3241  0.3330
   68MOL0     H 9339   5.786   4.596   1.407  0.5562  0.0643 -0.7663
   68MOL0     H 9340   5.934   4.426   1.373 -0.7958  1.8871 -0.5862
   68MOL0     H 9341   5.944   4.481   1.544  0.7847  0.9334 -0.6441
   68MOL0     H 9342   5.961   4.146   1.709 -2.3184 -4.3797 -0.5957
   68MOL0     H 9343   6.072   3.952   1.800  1.5753  0.0071  1.8796
   68MOL0     H 9344   6.235   4.007   1.786 -1.5591  1.8448  0.7338
   68MOL0     H 9345   6.193   3.867   1.691  0.9501 -0.0693  0.2273
   68MOL0     H 9346   6.511   3.831   1.773  0.7973  0.5280  0.6736
   68MOL0     H 9347   6.749   3.761   1.799  1.7411  1.0771  0.2443
   68MOL0     H 9348   7.022   3.804   1.439 -2.9988 -0.3409  0.2179
   68MOL0     H 9349   7.049   3.955   1.532 -1.5128 -0.0949 -0.3938
   68MOL0     H 9350   7.257   3.875   1.571  2.5248 -2.5491 -4.6749
   68MOL0     H 9351   7.191   3.764   1.685  2.5946  0.6418  0.1685
   68MOL0     H 9352   7.211   3.691   1.398  3.0943  1.2241 -0.0778
   68MOL0     H 9353   7.161   3.592   1.540 -0.7900  0.2493  0.0317
   68MOL0     H 9354   7.382   3.619   1.639  2.1913  1.7698  0.4786
   68MOL0     H 9355   7.439   3.721   1.516  1.2663 -0.2214  4.2883
   68MOL0     H 9356   7.372   3.429   1.491  1.3373  0.0183  0.5517
   68MOL0     H 9357   7.391   3.536   1.347 -2.8226  2.1418  1.0415
   68MOL0     H 9358   7.592   3.453   1.544 -0.4524 -1.1756 -0.9666
   68MOL0     H 9359   7.633   3.599   1.452  1.7989 -0.8330  1.3543
   68MOL0     H 9360   7.635   3.469   1.241  0.6377 -0.3830 -0.5668
   68MOL0     H 9361   7.605   3.315   1.335  1.3068 -0.9750  0.4930
   68MOL0     H 9362   7.818   3.376   1.466  0.5576  0.0021  0.6469
   68MOL0     H 9363   7.828   3.507   1.348  0.2362  0.2522 -1.3414
   68MOL0     H 9364   6.839   3.941   1.425  0.8411 -3.8549 -1.4264
   68MOL0     H 9365   6.608   4.017   1.405 -0.9498  1.3853  0.4194
   68MOL0     H 9366   6.224   4.107   1.283  0.1282 -0.2134  0.1384
   68MOL0     H 9367   5.996   4.228   1.298 -1.4659 -0.8228  0.9770
   68MOL0     H 9368   4.169   4.515   1.311 -0.6781 -0.4411  2.2729
   68MOL0     H 9369   3.980   4.391   1.260  0.4216  1.4397 -1.0745
   68MOL0     H 9370   3.713   4.054   1.201  0.0538 -0.6916 -0.5988
   68MOL0     H 9371   3.526   3.906   1.155  0.7643  1.2343 -0.0223
   68MOL0     H 9372   3.579   3.579   0.897 -0.2224 -1.1470 -0.9568
   68MOL0     H 9373   3.551   3.473   1.037 -1.1618 -0.5349 -1.2587
   68MOL0     H 9374   3.365   3.475   0.852 -1.7402  0.3367 -0.1859
   68MOL0     H 9375   3.327   3.620   0.929  0.1635  0.1420 -1.0180
   68MOL0     H 9376   3.185   3.435   0.982  1.0875 -0.2079 -0.8122
   68MOL0     H 9377   3.306   3.336   1.052 -1.8270 -0.8798 -1.7611
   68MOL0     H 9378   3.234   3.628   1.149 -0.1119 -0.8806 -2.7450
   68MOL0     H 9379   3.356   3.514   1.221  0.7769  0.3218 -1.4285
   68MOL0     H 9380   2.992   3.357   1.365  0.5151 -2.4442 -2.0044
   68MOL0     H 9381   3.779   3.622   0.961 -0.5861 -0.5095 -0.6853
   68MOL0     H 9382   4.081   3.755   1.060  0.1930  1.1596 -0.3222
   68MOL0     H 9383   4.008   3.652   0.952  1.2454  0.0602  2.1851
   68MOL0     H 9384   4.051   3.818   0.897  1.6928 -0.1360 -0.0795
   69MOL0     O 9385   6.326   2.132   6.453 -0.2201 -0.2196 -0.6687
   69MOL0     C 9386   6.287   2.096   6.567  0.1382 -0.5225  0.8783
   69MOL0     O 9387   6.358   2.023   6.658  0.1087  0.6123  0.4994
   69MOL0     C 9388   6.480   1.978   6.615 -0.2444 -0.4697  0.2622
   69MOL0     C 9389   6.486   1.855   6.551 -0.2512  0.0542 -0.2601
   69MOL0     C 9390   6.607   1.806   6.509  0.1611 -0.0672 -0.4619
   69MOL0     C 9391   6.731   1.864   6.550 -0.3318  0.4218  0.6707
   69MOL0     O 9392   6.847   1.788   6.521 -0.0495  0.2926 -0.1951
   69MOL0     C 9393   6.978   1.859   6.519 -0.1146  0.3095 -0.3300
   69MOL0     C 9394   7.060   1.803   6.406 -0.5023  0.0076  0.0664
   69MOL0     C 9395   7.198   1.867   6.408  0.0190 -0.4188  0.4775
   69MOL0     C 9396   7.268   1.836   6.271  0.3653  0.0850  0.6238
   69MOL0     C 9397   7.406   1.893   6.278 -0.1884 -1.2442 -0.4371
   69MOL0     C 9398   7.482   1.841   6.157 -0.1632 -0.2923 -0.1241
   69MOL0     C 9399   7.610   1.921   6.129 -0.1199  0.4671  0.3589
   69MOL0     C 9400   7.678   1.862   6.000 -0.2883 -0.1260 -1.0682
   69MOL0     N 9401   7.815   1.893   6.018 -0.4826 -0.3055  1.2064
   69MOL0     C 9402   7.860   2.017   5.986 -0.7107  0.1127  0.2140
   69MOL0     C 9403   7.996   2.007   5.982  0.2308 -0.5174 -0.5106
   69MOL0     C 9404   8.089   2.113   5.934 -0.4685  0.0317  0.1115
   69MOL0     C 9405   8.211   2.057   5.856 -0.3258 -0.6385  0.4884
   69MOL0     C 9406   8.304   1.980   5.952  0.3765 -0.0944  0.0586
   69MOL0     C 9407   8.447   1.967   5.904  0.6087 -0.7208 -0.1024
   69MOL0     O 9408   8.504   2.100   5.903 -0.0529 -0.3562  0.2428
   69MOL0     C 9409   8.637   2.107   5.861  0.0525 -0.4581  0.8066
   69MOL0     C 9410   8.707   2.219   5.917  0.2686  0.0892  0.9415
   69MOL0     C 9411   8.849   2.237   5.894  0.6776  0.7005 -0.5762
   69MOL0     C 9412   8.914   2.362   5.953  0.4021  0.6647  0.7596
   69MOL0     C 9413   8.908   2.130   5.818 -0.1773  0.4055  0.0121
   69MOL0     C 9414   9.055   2.123   5.783  0.1453  0.4243  0.1506
   69MOL0     O 9415   9.139   2.204   5.856  0.1426 -0.6208  0.0905
   69MOL0     C 9416   9.270   2.231   5.821  0.4621 -0.8560  0.3330
   69MOL0     C 9417   9.325   2.362   5.833 -0.3084  0.1637  0.6014
   69MOL0     C 9418   9.459   2.383   5.808 -0.5858 -0.3507 -0.0168
   69MOL0     C 9419   9.539   2.283   5.761 -0.8069  0.3298 -0.1960
   69MOL0     O 9420   9.677   2.317   5.733 -0.2345 -0.3740  0.6147
   69MOL0     C 9421   9.737   2.254   5.612 -0.1550  0.3381 -0.5122
   69MOL0     C 9422   9.891   2.262   5.622  0.1452 -0.5547  0.1008
   69MOL0     C 9423   9.952   2.404   5.656  0.0782  0.4365 -0.5691
   69MOL0     C 9424  10.097   2.394   5.670 -0.6209 -0.5696  0.1563
   69MOL0     C 9425  10.158   2.533   5.667  0.4595  0.7061  0.2473
   69MOL0     C 9426  10.298   2.507   5.623 -0.8417  0.1320 -0.3104
   69MOL0     C 9427  10.405   2.619   5.638  1.0233  0.7293 -0.7942
   69MOL0     C 9428  10.543   2.581   5.584 -0.1194  0.1696  0.4301
   69MOL0    Cl 9429  10.537   2.565   5.399  0.1037 -0.0004 -0.0084
   69MOL0     C 9430   9.491   2.153   5.754 -0.5664  0.3027 -0.1207
   69MOL0     C 9431   9.357   2.131   5.790  0.1608 -0.4584  0.0470
   69MOL0     O 9432   9.088   2.057   5.685  0.2053  0.5283  0.2719
   69MOL0     C 9433   8.833   2.020   5.767 -0.3889 -0.3155 -0.1449
   69MOL0     C 9434   8.699   2.011   5.780  0.5755  0.4300 -0.2899
   69MOL0     N 9435   8.025   1.879   6.027 -0.1415 -0.4264  0.3534
   69MOL0     N 9436   7.920   1.811   6.043 -0.3483  0.1097 -0.5985
   69MOL0     C 9437   6.726   1.989   6.616  0.1681 -0.9372 -0.1046
   69MOL0     C 9438   6.602   2.043   6.644  0.9148 -0.1357 -0.2846
   69MOL0     C 9439   6.141   2.127   6.580 -0.3885 -0.5899  0.1722
   69MOL0     C 9440   6.065   2.040   6.654 -0.0917  0.6555 -0.0356
   69MOL0     C 9441   5.926   2.061   6.682  0.4021  0.4121 -0.2393
   69MOL0     C 9442   5.854   2.170   6.632 -0.3229  0.2588 -0.9550
   69MOL0     O 9443   5.715   2.188   6.651 -0.6431  0.4245  0.0763
   69MOL0     C 9444   5.651   2.317   6.626  0.0384  0.1088 -0.2505
   69MOL0     C 9445   5.538   2.339   6.722  0.1646 -0.0070 -0.4900
   69MOL0     C 9446   5.403   2.273   6.701  0.2643 -1.0100 -0.6021
   69MOL0     C 9447   5.314   2.316   6.820  0.7589  0.0715 -0.3458
   69MOL0     C 9448   5.354   2.227   6.933 -0.9031 -0.6081  0.0752
   69MOL0     C 9449   5.379   2.143   7.021 -0.6858 -0.2148 -0.3491
   69MOL0     C 9450   5.927   2.253   6.548 -0.5194  0.3422 -0.0803
   69MOL0     C 9451   6.069   2.244   6.527  0.5929  0.9699 -0.2928
   69MOL0     C 9452   6.143   2.357   6.464 -0.0550  0.1405  0.2757
   69MOL0     H 9453   6.396   1.795   6.557  0.0004 -0.2949  0.0575
   69MOL0     H 9454   6.610   1.707   6.464  1.3479  0.5773 -1.9004
   69MOL0     H 9455   7.033   1.856   6.613 -0.3069  1.3201 -0.1735
   69MOL0     H 9456   6.956   1.963   6.494 -2.3203 -0.1640 -0.5928
   69MOL0     H 9457   7.062   1.695   6.417 -1.2700 -0.1604 -1.2599
   69MOL0     H 9458   7.017   1.843   6.313  1.0466  2.9796  0.4978
   69MOL0     H 9459   7.196   1.974   6.426 -3.2629 -0.2091 -0.4483
   69MOL0     H 9460   7.262   1.821   6.484  0.9556  0.7618  0.4261
   69MOL0     H 9461   7.277   1.728   6.263 -0.9904 -0.1026  1.3938
   69MOL0     H 9462   7.211   1.870   6.185 -0.9568 -1.4462  0.8666
   69MOL0     H 9463   7.453   1.877   6.375  1.0127 -0.5431 -0.8915
   69MOL0     H 9464   7.399   2.002   6.269  1.4798 -1.1462 -0.8802
   69MOL0     H 9465   7.502   1.735   6.177  1.0459  0.3295  2.5180
   69MOL0     H 9466   7.415   1.853   6.072 -0.1142 -0.6398 -0.2149
   69MOL0     H 9467   7.667   1.909   6.222 -1.3232 -1.5618  0.9061
   69MOL0     H 9468   7.577   2.025   6.120 -0.0461  0.3825 -1.1318
   69MOL0     H 9469   7.668   1.753   5.999  0.9644 -0.2767 -0.0224
   69MOL0     H 9470   7.623   1.906   5.916 -1.1255  1.4677  0.2502
   69MOL0     H 9471   7.813   2.107   5.946 -2.1599 -0.5314  0.4211
   69MOL0     H 9472   8.139   2.166   6.016 -0.0566 -1.5857  0.9439
   69MOL0     H 9473   8.027   2.184   5.879 -0.6859 -1.8431 -2.2299
   69MOL0     H 9474   8.184   2.008   5.763  0.8309 -0.1764 -0.1011
   69MOL0     H 9475   8.261   2.146   5.816  0.7541 -2.1918 -1.7630
   69MOL0     H 9476   8.311   2.031   6.049  0.6467  2.8525 -1.3823
   69MOL0     H 9477   8.268   1.877   5.957  0.0274  0.0901  2.6186
   69MOL0     H 9478   8.501   1.900   5.972 -1.3065 -1.4634  0.7830
   69MOL0     H 9479   8.443   1.922   5.805  0.8971 -0.9246 -0.0226
   69MOL0     H 9480   8.654   2.294   5.975  0.9575  0.5977  0.9228
   69MOL0     H 9481   9.001   2.326   6.009  0.8606 -2.6927 -1.7622
   69MOL0     H 9482   8.844   2.408   6.024 -0.6714 -0.1518  0.2664
   69MOL0     H 9483   8.946   2.434   5.877  5.0414 -1.2231  0.5742
   69MOL0     H 9484   9.260   2.436   5.879 -1.7859 -1.4411  1.2252
   69MOL0     H 9485   9.486   2.486   5.831 -1.5791 -0.6947  3.3022
   69MOL0     H 9486   9.697   2.156   5.585  1.4974 -1.1539  2.0413
   69MOL0     H 9487   9.703   2.322   5.533  0.5371  0.6605 -0.5423
   69MOL0     H 9488   9.919   2.189   5.699 -2.3138 -1.9034 -0.1505
   69MOL0     H 9489   9.937   2.224   5.530  0.0998  1.7294 -0.9119
   69MOL0     H 9490   9.890   2.436   5.741 -2.1450  0.3115 -2.0649
   69MOL0     H 9491   9.920   2.467   5.572 -2.6375 -0.8706 -0.6320
   69MOL0     H 9492  10.136   2.329   5.591  0.6774  1.3457 -0.8499
   69MOL0     H 9493  10.116   2.341   5.764 -0.4610 -1.7135 -0.5002
   69MOL0     H 9494  10.103   2.601   5.601  0.2484 -0.0401 -0.3585
   69MOL0     H 9495  10.144   2.578   5.765  2.5327  3.0326 -0.4125
   69MOL0     H 9496  10.302   2.477   5.518  3.3586  0.1591 -0.3295
   69MOL0     H 9497  10.326   2.422   5.686 -0.7479  0.5263  0.1842
   69MOL0     H 9498  10.416   2.659   5.740 -0.6291  2.0025 -1.0563
   69MOL0     H 9499  10.377   2.707   5.579  0.9574  0.3048 -1.3967
   69MOL0     H 9500  10.581   2.493   5.637  2.6568  0.6470 -0.5813
   69MOL0     H 9501  10.620   2.656   5.604  1.8937 -2.0068  1.3370
   69MOL0     H 9502   9.561   2.071   5.740  0.2312  0.3643  2.7161
   69MOL0     H 9503   9.319   2.029   5.786 -0.8731 -0.0948  0.3144
   69MOL0     H 9504   8.882   1.948   5.701 -1.6879 -1.1121 -0.2819
   69MOL0     H 9505   8.649   1.920   5.750 -0.0843  0.9057 -0.6617
   69MOL0     H 9506   6.814   2.028   6.666  0.6140 -0.7569 -1.0198
   69MOL0     H 9507   6.596   2.131   6.708  1.0791 -2.7398  3.6403
   69MOL0     H 9508   6.107   1.945   6.686  0.5317  1.5304  1.8366
   69MOL0     H 9509   5.883   1.984   6.745 -1.4864  1.2744 -0.4125
   69MOL0     H 9510   5.720   2.400   6.644 -2.6968  2.3092  0.7411
   69MOL0     H 9511   5.613   2.334   6.525 -0.8525 -0.1492  0.0358
   69MOL0     H 9512   5.511   2.445   6.720  0.4837  0.1219  0.8997
   69MOL0     H 9513   5.576   2.310   6.820 -0.6400 -0.1560 -0.2201
   69MOL0     H 9514   5.357   2.311   6.609 -2.8071 -2.4730  0.1960
   69MOL0     H 9515   5.423   2.166   6.699  0.2493 -1.0007 -2.3986
   69MOL0     H 9516   5.208   2.292   6.808  0.3049  0.6182  2.1354
   69MOL0     H 9517   5.317   2.421   6.848  2.3518 -0.1779  0.5287
   69MOL0     H 9518   5.375   2.055   7.082 -2.4190 -0.2144 -0.4129
   69MOL0     H 9519   5.887   2.345   6.508 -1.4028  0.0209  0.0534
   69MOL0     H 9520   6.101   2.451   6.501  1.1862  1.5011 -1.5617
   69MOL0     H 9521   6.251   2.357   6.481  0.0591 -0.9760 -0.3625
   69MOL0     H 9522   6.127   2.350   6.356 -2.1725 -1.5952  0.6240
   70MOL0     O 9523   0.605   8.150   2.104 -0.2795  1.0233  0.3707
   70MOL0     C 9524   0.645   8.261   2.087 -0.0924 -0.5726 -0.1118
   70MOL0     O 9525   0.772   8.293   2.052 -0.0424 -0.4079 -0.0796
   70MOL0     C 9526   0.884   8.215   2.096  0.4154  0.2411  0.1285
   70MOL0     C 9527   1.011   8.235   2.038  1.1803 -0.2546  1.2210
   70MOL0     C 9528   1.129   8.170   2.068 -0.2722 -0.9618 -0.3747
   70MOL0     C 9529   1.121   8.078   2.174  0.3609 -0.1830  0.4817
   70MOL0     O 9530   1.236   8.011   2.205 -0.2573  0.1032 -0.2080
   70MOL0     C 9531   1.242   7.867   2.205 -0.1593 -0.3863 -0.1911
   70MOL0     C 9532   1.312   7.829   2.071 -0.7454 -0.2387  0.0827
   70MOL0     C 9533   1.456   7.879   2.052 -0.3205  0.3009  0.5608
   70MOL0     C 9534   1.502   7.861   1.903 -0.1846  0.4198  0.0799
   70MOL0     C 9535   1.653   7.867   1.890 -0.9344 -0.8784  0.3904
   70MOL0     C 9536   1.733   7.746   1.945 -0.3520  0.0273 -0.3103
   70MOL0     C 9537   1.878   7.769   1.904  0.0539 -1.0094  0.2508
   70MOL0     C 9538   1.960   7.638   1.919  0.4024  0.4209 -0.6254
   70MOL0     N 9539   2.104   7.670   1.906  0.6638  0.2968 -0.5755
   70MOL0     C 9540   2.169   7.730   1.800 -0.6837  0.0941 -0.8431
   70MOL0     C 9541   2.300   7.737   1.835 -0.6583  0.4337  0.5154
   70MOL0     C 9542   2.397   7.801   1.738  0.1220 -0.0657 -0.5651
   70MOL0     C 9543   2.542   7.776   1.780 -0.3329 -0.4227  0.6349
   70MOL0     C 9544   2.598   7.641   1.741 -0.2318  0.5698  0.2443
   70MOL0     C 9545   2.734   7.638   1.803 -0.6797 -0.0641  0.4100
   70MOL0     O 9546   2.830   7.688   1.706 -0.5913 -0.1819 -0.1761
   70MOL0     C 9547   2.966   7.675   1.726 -0.6987  0.9558  0.4905
   70MOL0     C 9548   3.043   7.713   1.620  0.4956  0.1883  0.0419
   70MOL0     C 9549   3.185   7.714   1.619 -0.7105 -0.7200  0.5625
   70MOL0     C 9550   3.252   7.735   1.485 -0.5635 -0.0942 -0.0377
   70MOL0     C 9551   3.251   7.692   1.746  0.4003 -1.3627  0.5322
   70MOL0     C 9552   3.397   7.714   1.766  0.9915  0.1076 -0.9102
   70MOL0     O 9553   3.450   7.668   1.885 -0.1143  0.4161  0.3301
   70MOL0     C 9554   3.577   7.712   1.919  0.7532  0.1907  0.3540
   70MOL0     C 9555   3.668   7.608   1.906  0.2696 -0.1704  0.7702
   70MOL0     C 9556   3.801   7.637   1.937 -0.1779  0.6637 -0.9988
   70MOL0     C 9557   3.844   7.762   1.978  0.4473  0.3201  0.6772
   70MOL0     O 9558   3.976   7.772   2.012 -0.2312 -0.5327 -0.3323
   70MOL0     C 9559   4.027   7.904   2.024 -0.2060 -0.8056 -0.6840
   70MOL0     C 9560   4.181   7.898   2.051 -0.5010 -0.2381 -0.9344
   70MOL0     C 9561   4.207   7.811   2.172  0.7419  0.1687  0.4400
   70MOL0     C 9562   4.361   7.787   2.181 -0.5937 -0.3640 -0.5031
   70MOL0     C 9563   4.413   7.704   2.309  0.4335  0.3834 -0.5589
   70MOL0     C 9564   4.542   7.757   2.347 -0.5445 -0.2576 -0.1312
   70MOL0     C 9565   4.587   7.678   2.475  1.1692  0.1969  0.1506
   70MOL0     C 9566   4.732   7.724   2.511 -0.6665  0.8206 -1.4689
   70MOL0    Cl 9567   4.835   7.760   2.376 -0.4458 -0.0882  0.3492
   70MOL0     C 9568   3.742   7.861   1.995 -0.3594 -0.7187  0.1219
   70MOL0     C 9569   3.605   7.842   1.959 -0.3330 -0.1789 -0.4868
   70MOL0     O 9570   3.457   7.790   1.692  0.2463 -0.1186  0.2822
   70MOL0     C 9571   3.170   7.656   1.858 -0.3119 -1.8179 -0.6135
   70MOL0     C 9572   3.028   7.643   1.845  0.3779  0.1140 -0.2276
   70MOL0     N 9573   2.311   7.678   1.968  0.3461 -0.6306 -0.1025
   70MOL0     N 9574   2.190   7.649   2.008  0.2063 -0.4866  0.0440
   70MOL0     C 9575   1.001   8.066   2.247 -0.5663 -0.6569  0.3347
   70MOL0     C 9576   0.881   8.124   2.202 -0.4270 -0.2387 -0.3424
   70MOL0     C 9577   0.552   8.376   2.111  0.2704  0.3544 -0.2278
   70MOL0     C 9578   0.611   8.504   2.105 -0.5618 -0.2027  0.3278
   70MOL0     C 9579   0.535   8.622   2.110  0.5947  0.3051 -0.0948
   70MOL0     C 9580   0.394   8.618   2.127 -0.2458 -0.1388 -0.0820
   70MOL0     O 9581   0.309   8.731   2.146 -1.4092  0.5305 -0.1018
   70MOL0     C 9582   0.346   8.845   2.071  0.9518 -0.8096 -0.1336
   70MOL0     C 9583   0.231   8.941   2.065  1.1949 -0.2433  0.1112
   70MOL0     C 9584   0.258   9.052   1.960 -0.3890  0.7207 -0.2614
   70MOL0     C 9585   0.129   9.135   1.937 -0.3728 -0.6864 -0.6491
   70MOL0     C 9586   0.163   9.249   1.839  0.9985  0.1666 -0.4295
   70MOL0     C 9587   0.166   9.353   1.772  1.3540 -0.1753 -0.3219
   70MOL0     C 9588   0.337   8.490   2.143 -0.2020 -0.4483  0.5706
   70MOL0     C 9589   0.410   8.372   2.132 -0.4519  1.0632 -0.1475
   70MOL0     C 9590   0.339   8.242   2.168  0.2656 -0.0831  0.1000
   70MOL0     H 9591   1.013   8.313   1.962  1.3164 -0.3683  1.1060
   70MOL0     H 9592   1.221   8.191   2.015 -1.4993  2.0198 -1.5273
   70MOL0     H 9593   1.143   7.822   2.217 -0.2705 -0.6951 -1.9957
   70MOL0     H 9594   1.315   7.837   2.281  2.3130 -0.6770 -2.5302
   70MOL0     H 9595   1.302   7.720   2.061  0.6075 -0.3322 -0.4192
   70MOL0     H 9596   1.252   7.860   1.984  1.2426  0.4430 -1.1017
   70MOL0     H 9597   1.462   7.981   2.092 -1.6044  0.0196  1.5435
   70MOL0     H 9598   1.520   7.817   2.115  0.9871  0.9684 -0.0809
   70MOL0     H 9599   1.480   7.764   1.857 -0.5726  0.4473  0.2072
   70MOL0     H 9600   1.449   7.940   1.848  0.6142  0.2431 -0.9858
   70MOL0     H 9601   1.682   7.963   1.934  2.3337 -1.8696  0.5868
   70MOL0     H 9602   1.668   7.873   1.782 -1.5191 -3.2362  0.1140
   70MOL0     H 9603   1.730   7.748   2.055 -1.7305 -0.5097 -0.3239
   70MOL0     H 9604   1.706   7.645   1.912  2.8489 -1.1116  0.1085
   70MOL0     H 9605   1.916   7.835   1.982 -1.2865  0.2398 -0.1103
   70MOL0     H 9606   1.901   7.806   1.804  2.3471 -1.5525  0.5327
   70MOL0     H 9607   1.938   7.585   2.012  0.8371 -3.8754 -2.7175
   70MOL0     H 9608   1.935   7.565   1.840  1.0594 -0.6275  0.1048
   70MOL0     H 9609   2.117   7.768   1.713  0.1917  0.1521 -1.3418
   70MOL0     H 9610   2.386   7.910   1.729  0.5011  0.2131  1.7533
   70MOL0     H 9611   2.367   7.765   1.639 -4.2214 -2.8110  1.4531
   70MOL0     H 9612   2.609   7.851   1.737 -0.9740 -0.7168 -0.9456
   70MOL0     H 9613   2.546   7.779   1.889  0.6616  1.3611  0.5925
   70MOL0     H 9614   2.534   7.563   1.784 -0.9560  1.7202  1.3296
   70MOL0     H 9615   2.611   7.619   1.634  5.4922  2.4879  0.2035
   70MOL0     H 9616   2.753   7.688   1.898  0.9428  1.7717 -0.7879
   70MOL0     H 9617   2.756   7.534   1.829  0.5531  0.7167  2.7930
   70MOL0     H 9618   2.980   7.735   1.534 -0.4814 -2.2158  0.0730
   70MOL0     H 9619   3.186   7.703   1.404  0.4642  1.2572 -1.4861
   70MOL0     H 9620   3.346   7.679   1.491 -0.3506  0.3946  1.5307
   70MOL0     H 9621   3.288   7.839   1.484  2.4228 -1.0281 -0.4711
   70MOL0     H 9622   3.638   7.508   1.875 -1.3979  0.3428  0.6509
   70MOL0     H 9623   3.876   7.560   1.923 -1.4838 -0.5938 -1.3153
   70MOL0     H 9624   3.996   7.963   1.937  1.9369  0.4407 -0.6815
   70MOL0     H 9625   3.972   7.950   2.106  0.4412  1.1195 -1.2633
   70MOL0     H 9626   4.232   7.846   1.970 -1.3058 -1.5824 -0.5998
   70MOL0     H 9627   4.224   7.999   2.050 -1.5455  0.2425 -0.0163
   70MOL0     H 9628   4.153   7.718   2.154 -2.6449  1.9456  0.6941
   70MOL0     H 9629   4.171   7.865   2.260  0.2217  0.4186  0.0769
   70MOL0     H 9630   4.409   7.884   2.190  2.0136 -1.5447 -0.7955
   70MOL0     H 9631   4.389   7.728   2.093 -0.6113 -2.4302  0.8089
   70MOL0     H 9632   4.338   7.715   2.388 -1.4893  2.6759 -2.5492
   70MOL0     H 9633   4.423   7.597   2.285  0.4151  0.7032 -2.0926
   70MOL0     H 9634   4.529   7.863   2.371 -0.7116 -0.4290  0.5486
   70MOL0     H 9635   4.612   7.746   2.264 -1.7744 -2.0199 -0.9918
   70MOL0     H 9636   4.593   7.570   2.464 -1.6042 -0.0309  0.2797
   70MOL0     H 9637   4.528   7.688   2.567  2.6629 -1.2089  1.3264
   70MOL0     H 9638   4.781   7.652   2.577 -2.0264  2.5150  1.5912
   70MOL0     H 9639   4.724   7.818   2.566  2.5315  0.2042  0.2716
   70MOL0     H 9640   3.771   7.960   2.026 -1.3532 -0.7915  1.3279
   70MOL0     H 9641   3.531   7.918   1.981  0.7098  0.7023  0.0426
   70MOL0     H 9642   3.215   7.640   1.955  0.9325  1.4878 -0.5158
   70MOL0     H 9643   2.977   7.601   1.932 -0.1721  0.2443 -0.4852
   70MOL0     H 9644   0.987   8.005   2.336  0.6907  0.0647  1.0446
   70MOL0     H 9645   0.783   8.104   2.245 -0.6219 -2.1363 -1.5456
   70MOL0     H 9646   0.719   8.518   2.102 -0.6478  0.3459 -1.3212
   70MOL0     H 9647   0.585   8.718   2.114 -1.0602  1.1717  0.9445
   70MOL0     H 9648   0.430   8.892   2.124  2.3494  0.0716 -2.9505
   70MOL0     H 9649   0.376   8.816   1.970  3.6168  1.1944 -0.0416
   70MOL0     H 9650   0.221   8.994   2.160 -2.0762  0.7534 -0.6667
   70MOL0     H 9651   0.136   8.891   2.042  0.8848  1.2356 -2.2252
   70MOL0     H 9652   0.341   9.114   1.996  0.6061 -1.1306  0.7394
   70MOL0     H 9653   0.296   9.013   1.865  0.6562  0.5623  0.2138
   70MOL0     H 9654   0.086   9.181   2.027  1.0119  1.1311 -0.8632
   70MOL0     H 9655   0.052   9.075   1.888  0.1769 -1.3666 -0.7055
   70MOL0     H 9656   0.159   9.438   1.707  0.4810  0.0477  0.0526
   70MOL0     H 9657   0.230   8.493   2.163 -0.4635  1.3035 -0.8105
   70MOL0     H 9658   0.238   8.270   2.199 -0.0831  1.4121 -2.1687
   70MOL0     H 9659   0.347   8.164   2.091  3.3971  0.5392 -0.3379
   70MOL0     H 9660   0.384   8.201   2.259  1.3433 -0.1748 -0.4645
   71MOL0     O 9661   8.865   2.033  11.165  0.1003 -0.8611 -0.1487
   71MOL0     C 9662   8.856   2.092  11.275  0.3970  0.6121  0.0420
   71MOL0     O 9663   8.944   2.073  11.373  0.0530 -0.0218 -0.1720
   71MOL0     C 9664   9.039   1.979  11.364 -0.0814  0.6178 -0.2503
   71MOL0     C 9665   9.067   1.903  11.481 -0.3862 -0.2973 -0.4932
   71MOL0     C 9666   9.172   1.808  11.489 -0.4735 -1.7962 -0.0713
   71MOL0     C 9667   9.262   1.799  11.373 -0.0754  0.3993 -0.2682
   71MOL0     O 9668   9.378   1.719  11.365 -0.0752 -0.6599 -0.2469
   71MOL0     C 9669   9.403   1.618  11.457 -0.0985 -0.5978  0.4352
   71MOL0     C 9670   9.471   1.665  11.573  0.1062  0.8386 -0.2331
   71MOL0     C 9671   9.613   1.708  11.542  0.6662  0.5706 -0.2561
   71MOL0     C 9672   9.694   1.717  11.673  0.0912 -0.4506 -0.1327
   71MOL0     C 9673   9.839   1.723  11.638 -0.4232 -0.7018  0.1131
   71MOL0     C 9674   9.908   1.607  11.582 -0.1652  0.0257 -0.1879
   71MOL0     C 9675  10.057   1.626  11.581  0.7666  0.5843 -0.4061
   71MOL0     C 9676  10.129   1.521  11.508  0.6420  0.3894  0.2272
   71MOL0     N 9677  10.176   1.403  11.596 -0.1083 -0.2596 -0.0570
   71MOL0     C 9678  10.094   1.322  11.671  0.8934  0.0125 -0.1131
   71MOL0     C 9679  10.170   1.268  11.768 -0.1710 -0.0271 -0.1143
   71MOL0     C 9680  10.133   1.183  11.886  0.2744  0.1281 -0.6483
   71MOL0     C 9681  10.070   1.044  11.839  0.2487  0.1713  0.2851
   71MOL0     C 9682  10.162   0.983  11.733  0.7997  0.5541  1.1826
   71MOL0     C 9683  10.193   0.840  11.759  0.3423  0.7866  0.4210
   71MOL0     O 9684  10.251   0.810  11.884  0.2552 -0.3806  0.2099
   71MOL0     C 9685  10.385   0.836  11.906  0.7582  1.2716 -0.4252
   71MOL0     C 9686  10.413   0.940  11.995  0.6098  0.0375  0.4681
   71MOL0     C 9687  10.547   0.981  12.007  0.7208  0.4414 -0.3387
   71MOL0     C 9688  10.576   1.091  12.112  0.5389 -0.0398 -0.3675
   71MOL0     C 9689  10.651   0.911  11.933 -0.3464  0.1255 -0.3343
   71MOL0     C 9690  10.796   0.940  11.951  0.5118  0.9482 -0.7731
   71MOL0     O 9691  10.839   1.000  12.062  0.1823  0.4317 -0.1858
   71MOL0     C 9692  10.952   1.074  12.079  0.4888 -0.8563 -0.8781
   71MOL0     C 9693  11.045   1.119  11.988  0.5094 -0.0343 -0.1830
   71MOL0     C 9694  11.168   1.179  12.024 -0.3799  0.3463 -0.3959
   71MOL0     C 9695  11.186   1.219  12.157  0.1065 -0.7195 -0.2283
   71MOL0     O 9696  11.299   1.297  12.202  0.0459 -0.1410 -0.0179
   71MOL0     C 9697  11.403   1.330  12.105 -0.4761 -0.0177  0.0666
   71MOL0     C 9698  11.491   1.445  12.175  0.0733  0.7901 -0.0922
   71MOL0     C 9699  11.623   1.464  12.112  0.0737 -0.7363  0.1677
   71MOL0     C 9700  11.692   1.593  12.167 -0.6785 -0.2697  0.4418
   71MOL0     C 9701  11.843   1.591  12.127  1.3983  0.1647  0.2230
   71MOL0     C 9702  11.913   1.727  12.156 -0.5529  0.5439  0.3188
   71MOL0     C 9703  12.039   1.733  12.075 -0.4919 -0.0740  0.0933
   71MOL0     C 9704  12.163   1.780  12.151  0.0922  0.5892  0.4332
   71MOL0    Cl 9705  12.314   1.794  12.038 -0.1325 -0.0840 -0.3372
   71MOL0     C 9706  11.098   1.178  12.255 -1.3712 -1.2058 -0.0171
   71MOL0     C 9707  10.983   1.102  12.217  0.8438  0.1189  0.4543
   71MOL0     O 9708  10.856   0.935  11.844 -0.6381  0.0800 -0.0494
   71MOL0     C 9709  10.616   0.805  11.848 -0.5181  0.1370  0.7774
   71MOL0     C 9710  10.484   0.771  11.839 -0.0370  0.2914 -0.1981
   71MOL0     N 9711  10.300   1.319  11.744 -0.0600  0.5315 -0.7151
   71MOL0     N 9712  10.299   1.396  11.646 -0.2534  0.7614 -0.1814
   71MOL0     C 9713   9.242   1.887  11.268 -0.2252 -0.0709  0.4003
   71MOL0     C 9714   9.129   1.966  11.256 -0.4729 -1.0266 -0.3759
   71MOL0     C 9715   8.742   2.186  11.296 -0.1205 -0.1996 -0.1768
   71MOL0     C 9716   8.769   2.296  11.378  0.8522  0.0812  0.2654
   71MOL0     C 9717   8.682   2.392  11.404  1.1691  0.4511 -0.6082
   71MOL0     C 9718   8.563   2.396  11.332  0.5064 -0.2870  0.9638
   71MOL0     O 9719   8.479   2.500  11.349 -0.4728 -0.1271  0.4964
   71MOL0     C 9720   8.436   2.565  11.227 -0.0747 -1.1259 -0.0800
   71MOL0     C 9721   8.471   2.720  11.231 -0.5069  0.6459 -0.3312
   71MOL0     C 9722   8.615   2.737  11.273 -0.1714 -0.0791 -0.1031
   71MOL0     C 9723   8.668   2.877  11.253  1.5828 -0.3993 -0.0516
   71MOL0     C 9724   8.805   2.879  11.297 -0.4980 -0.1098  0.0600
   71MOL0     C 9725   8.924   2.885  11.328 -0.0308 -0.0349  0.2239
   71MOL0     C 9726   8.530   2.285  11.248  0.2032 -0.0487  0.1771
   71MOL0     C 9727   8.619   2.173  11.234  0.7553  0.2028 -0.0729
   71MOL0     C 9728   8.560   2.040  11.170 -0.5145 -0.2544 -0.0577
   71MOL0     H 9729   8.991   1.912  11.559 -0.8478 -0.4330 -0.9223
   71MOL0     H 9730   9.186   1.754  11.582  0.4153 -1.2917  0.1103
   71MOL0     H 9731   9.446   1.531  11.407 -1.6909 -1.6305  0.7752
   71MOL0     H 9732   9.304   1.576  11.478 -1.5379  2.4020  0.2861
   71MOL0     H 9733   9.424   1.756  11.611 -0.9331 -0.3319  1.4775
   71MOL0     H 9734   9.471   1.584  11.647 -0.0483  1.9856  1.0736
   71MOL0     H 9735   9.641   1.636  11.465 -1.5574 -2.0981  1.2117
   71MOL0     H 9736   9.613   1.809  11.501  1.4428  0.1438 -1.3388
   71MOL0     H 9737   9.665   1.811  11.722  0.9979 -0.4697  0.4631
   71MOL0     H 9738   9.675   1.629  11.734  2.4172 -1.9511 -1.4335
   71MOL0     H 9739   9.890   1.751  11.730 -1.0395  4.2700 -0.8077
   71MOL0     H 9740   9.849   1.806  11.568 -2.9012  1.5520  2.2444
   71MOL0     H 9741   9.886   1.517  11.640  1.2516 -0.8106 -0.8928
   71MOL0     H 9742   9.879   1.599  11.477  3.6354 -1.3231 -1.3044
   71MOL0     H 9743  10.101   1.652  11.677  0.6141  2.2549 -0.7432
   71MOL0     H 9744  10.071   1.720  11.526  0.0690  2.0066  1.7161
   71MOL0     H 9745  10.076   1.476  11.423 -1.0962 -1.3801  2.1386
   71MOL0     H 9746  10.218   1.573  11.471  1.5143  0.4150  2.2631
   71MOL0     H 9747   9.986   1.316  11.671  0.8869 -1.0821  2.0508
   71MOL0     H 9748  10.057   1.242  11.939  0.8062  2.9054 -2.7539
   71MOL0     H 9749  10.226   1.163  11.941  1.2670 -0.7127 -2.5314
   71MOL0     H 9750  10.065   0.974  11.922  1.4233 -0.5963 -0.2584
   71MOL0     H 9751   9.973   1.067  11.793  0.8361 -1.5414 -2.0247
   71MOL0     H 9752  10.124   0.983  11.630 -0.1244  1.7789  1.4963
   71MOL0     H 9753  10.256   1.038  11.724  0.8610  0.2208 -0.5511
   71MOL0     H 9754  10.106   0.776  11.744  0.1619  0.0829  3.6106
   71MOL0     H 9755  10.269   0.810  11.686  0.0532 -0.5202  0.6416
   71MOL0     H 9756  10.340   0.979  12.065 -0.9652  0.0129 -1.0933
   71MOL0     H 9757  10.633   1.055  12.197  1.1895  1.9304  0.0975
   71MOL0     H 9758  10.481   1.126  12.154  0.4211 -1.4860  0.5992
   71MOL0     H 9759  10.628   1.178  12.069  2.5134 -0.3149  1.3581
   71MOL0     H 9760  11.032   1.099  11.882  1.4935  0.7805 -0.4716
   71MOL0     H 9761  11.232   1.208  11.942 -0.2926 -0.1864 -0.5190
   71MOL0     H 9762  11.455   1.235  12.091  0.0074  0.6057 -3.0357
   71MOL0     H 9763  11.380   1.368  12.005  0.8666  2.0385  0.4798
   71MOL0     H 9764  11.442   1.542  12.186 -0.1128  0.7998 -0.9168
   71MOL0     H 9765  11.497   1.409  12.278 -0.0845  0.6476 -0.1327
   71MOL0     H 9766  11.619   1.472  12.003  2.8801  2.8835  0.1138
   71MOL0     H 9767  11.679   1.377  12.148 -1.3183 -1.3257  0.9711
   71MOL0     H 9768  11.680   1.603  12.276 -1.9387  1.6229  0.1883
   71MOL0     H 9769  11.641   1.683  12.129 -1.6774  0.1805  2.6353
   71MOL0     H 9770  11.903   1.520  12.185  1.5088  0.5991  0.6461
   71MOL0     H 9771  11.848   1.575  12.019 -0.5134 -1.5167  0.3343
   71MOL0     H 9772  11.937   1.735  12.262 -1.4927  2.1463  0.4443
   71MOL0     H 9773  11.845   1.811  12.137 -0.2806  1.7418  3.8376
   71MOL0     H 9774  12.028   1.807  11.995  1.8599 -0.0123 -0.2722
   71MOL0     H 9775  12.067   1.639  12.025 -0.4845  1.6278 -3.3852
   71MOL0     H 9776  12.189   1.712  12.233  0.3791 -0.5089 -0.5567
   71MOL0     H 9777  12.146   1.883  12.184  0.7601  1.3193 -1.4101
   71MOL0     H 9778  11.123   1.212  12.355  2.5253 -0.3172 -1.1332
   71MOL0     H 9779  10.918   1.072  12.299 -1.7355  0.4583 -1.3509
   71MOL0     H 9780  10.697   0.747  11.806 -0.3154 -1.2599  2.9374
   71MOL0     H 9781  10.450   0.695  11.770 -2.8492  0.6337  0.6900
   71MOL0     H 9782   9.313   1.880  11.187 -2.4251 -1.2370 -1.5339
   71MOL0     H 9783   9.117   2.037  11.175 -0.5156  0.7487  1.1169
   71MOL0     H 9784   8.871   2.306  11.415  0.7920 -1.7942  1.0351
   71MOL0     H 9785   8.699   2.471  11.476 -0.5045  0.0426  0.2981
   71MOL0     H 9786   8.479   2.520  11.137  0.2091 -1.3179  0.1484
   71MOL0     H 9787   8.330   2.556  11.201  0.8057 -1.0161 -4.4257
   71MOL0     H 9788   8.403   2.766  11.304 -2.0781  0.0042 -1.3336
   71MOL0     H 9789   8.457   2.773  11.136  1.9891 -0.9572 -1.7017
   71MOL0     H 9790   8.625   2.699  11.375  2.8985 -1.9131 -0.9628
   71MOL0     H 9791   8.672   2.677  11.201 -1.1516  1.1332 -1.9929
   71MOL0     H 9792   8.614   2.937  11.326  1.9745  0.0886 -0.1639
   71MOL0     H 9793   8.662   2.901  11.146  0.4002  1.0748  0.3189
   71MOL0     H 9794   9.022   2.897  11.369 -0.6294  0.5815  1.5304
   71MOL0     H 9795   8.428   2.294  11.211  0.0558  1.1572  0.8198
   71MOL0     H 9796   8.609   2.010  11.076  0.4392 -3.4962  1.3304
   71MOL0     H 9797   8.567   1.951  11.233  2.9806 -1.8550 -2.3389
   71MOL0     H 9798   8.455   2.048  11.140 -0.5598 -2.0411 -0.5268
   72MOL0     O 9799   0.047   5.116   6.546 -0.1985  0.5110  0.4599
   72MOL0     C 9800   0.111   5.138   6.648 -0.8155 -0.2027  0.2077
   72MOL0     O 9801   0.241   5.191   6.649  0.0553  0.3550  0.0603
   72MOL0     C 9802   0.314   5.227   6.535 -0.4251 -0.1200  0.0590
   72MOL0     C 9803   0.386   5.129   6.469  0.1521 -0.6389 -0.5235
   72MOL0     C 9804   0.461   5.157   6.358  0.2793  0.0871 -0.5292
   72MOL0     C 9805   0.488   5.296   6.331 -0.7603  0.7901  0.1606
   72MOL0     O 9806   0.583   5.334   6.244 -0.6983  0.3858  0.3201
   72MOL0     C 9807   0.702   5.256   6.236 -0.0894 -0.7799  0.3327
   72MOL0     C 9808   0.811   5.342   6.187 -0.7678 -0.4342 -0.0315
   72MOL0     C 9809   0.946   5.280   6.211 -0.0737  0.1333  0.1257
   72MOL0     C 9810   1.051   5.377   6.173  0.6436  0.0807  0.3465
   72MOL0     C 9811   1.190   5.317   6.160 -0.5881  0.8039  0.9221
   72MOL0     C 9812   1.288   5.424   6.090  0.3422 -0.0889 -0.2988
   72MOL0     C 9813   1.437   5.368   6.096 -0.4045  0.3229 -0.4980
   72MOL0     C 9814   1.525   5.449   5.999 -0.0842  0.0303  0.0985
   72MOL0     N 9815   1.552   5.592   6.035  0.6469  0.0671  0.8398
   72MOL0     C 9816   1.457   5.688   6.052 -0.2234  0.1372 -0.1151
   72MOL0     C 9817   1.511   5.792   6.114 -1.2166 -0.6863  0.1542
   72MOL0     C 9818   1.434   5.920   6.137 -0.4012 -0.1280 -0.1560
   72MOL0     C 9819   1.388   5.943   6.280  0.2086  0.2308 -0.1905
   72MOL0     C 9820   1.500   5.965   6.381  1.0351 -0.2094 -0.0865
   72MOL0     C 9821   1.584   6.101   6.381 -0.1184  0.6688 -0.6818
   72MOL0     O 9822   1.669   6.118   6.500  0.0577 -0.8140  0.0263
   72MOL0     C 9823   1.800   6.074   6.498 -0.4458 -0.5219  0.7285
   72MOL0     C 9824   1.892   6.124   6.590  0.8322 -0.5544  0.2512
   72MOL0     C 9825   2.030   6.109   6.566 -0.3301  0.3915 -0.7574
   72MOL0     C 9826   2.114   6.197   6.644  0.3788  1.1339 -0.8153
   72MOL0     C 9827   2.076   6.028   6.465  0.0198 -0.0094 -0.0110
   72MOL0     C 9828   2.221   6.017   6.417  0.2817  0.6446  0.9380
   72MOL0     O 9829   2.254   5.963   6.292  0.0763 -0.1002  0.3327
   72MOL0     C 9830   2.373   5.980   6.241  0.7041  0.1172 -0.1172
   72MOL0     C 9831   2.456   5.874   6.232 -0.5202 -0.2458  1.0077
   72MOL0     C 9832   2.581   5.879   6.180 -0.7626  0.1018 -0.0653
   72MOL0     C 9833   2.634   5.998   6.144  0.3186 -0.9333 -0.1882
   72MOL0     O 9834   2.761   5.994   6.093 -0.5526 -0.4290  0.6495
   72MOL0     C 9835   2.836   6.113   6.062  0.3473 -0.0670 -0.4788
   72MOL0     C 9836   2.983   6.093   6.011  0.1342  0.0362 -0.0975
   72MOL0     C 9837   2.999   6.021   5.877 -0.5640  0.3794  0.4256
   72MOL0     C 9838   3.148   5.991   5.856  0.2807 -1.2062  0.7777
   72MOL0     C 9839   3.159   5.949   5.710 -0.6303  0.3998  0.5975
   72MOL0     C 9840   3.309   5.939   5.676 -0.2641  0.0793 -0.6714
   72MOL0     C 9841   3.330   5.887   5.539  0.2319 -0.2408 -0.5588
   72MOL0     C 9842   3.476   5.864   5.495  0.0983 -0.1697 -1.1705
   72MOL0    Cl 9843   3.581   6.010   5.522  0.0234 -0.0009  0.2230
   72MOL0     C 9844   2.551   6.112   6.150 -0.2316  0.6717  0.1679
   72MOL0     C 9845   2.424   6.101   6.203  0.2217 -0.2785  0.3742
   72MOL0     O 9846   2.302   6.077   6.482  0.2278  0.2348  0.2851
   72MOL0     C 9847   1.982   5.961   6.382  0.1960 -0.3582 -0.2168
   72MOL0     C 9848   1.848   5.985   6.396 -0.4061 -0.5985  0.4683
   72MOL0     N 9849   1.647   5.757   6.129 -0.7010 -0.0107 -0.6033
   72MOL0     N 9850   1.666   5.644   6.086 -0.5527 -0.5821 -0.1962
   72MOL0     C 9851   0.423   5.399   6.399 -1.0464 -0.0104 -0.2926
   72MOL0     C 9852   0.333   5.363   6.499  0.4029 -0.3225 -0.7447
   72MOL0     C 9853   0.050   5.116   6.784  0.0810 -0.0656  0.5097
   72MOL0     C 9854   0.131   5.118   6.899 -0.0113  0.1092  0.3731
   72MOL0     C 9855   0.090   5.068   7.025  0.2280 -0.3332 -0.2572
   72MOL0     C 9856  -0.039   5.021   7.047  0.8039 -0.1734  0.2243
   72MOL0     O 9857  -0.087   4.975   7.166 -0.4861 -0.5690 -0.4243
   72MOL0     C 9858   0.004   4.927   7.261  0.0986 -0.4531 -0.4115
   72MOL0     C 9859   0.015   5.028   7.381 -0.2684  0.0700  0.8219
   72MOL0     C 9860   0.101   4.976   7.500  0.1681 -0.7418 -0.4004
   72MOL0     C 9861   0.245   4.957   7.454 -1.1596 -0.3890 -0.5826
   72MOL0     C 9862   0.343   4.954   7.562  0.3292  0.1307 -0.2095
   72MOL0     C 9863   0.431   4.956   7.650 -0.6133 -0.9810  0.2293
   72MOL0     C 9864  -0.135   5.032   6.941 -0.1804  0.3948  0.0253
   72MOL0     C 9865  -0.091   5.073   6.814 -0.5691 -0.1863 -0.4781
   72MOL0     C 9866  -0.189   5.063   6.709  0.1483 -1.0066  0.2144
   72MOL0     H 9867   0.356   5.030   6.503 -0.2932 -0.3607 -0.0813
   72MOL0     H 9868   0.511   5.072   6.313  1.4682 -0.2266  1.2711
   72MOL0     H 9869   0.678   5.176   6.165 -0.3888  0.4588 -1.0164
   72MOL0     H 9870   0.727   5.225   6.337  1.4866 -1.4901 -0.2563
   72MOL0     H 9871   0.800   5.368   6.082  1.9391  0.1130 -0.2598
   72MOL0     H 9872   0.813   5.432   6.249 -0.1514  1.6837 -2.9034
   72MOL0     H 9873   0.953   5.263   6.319  0.2836 -1.3064 -0.1096
   72MOL0     H 9874   0.965   5.195   6.145  1.4870  2.1693 -2.2247
   72MOL0     H 9875   1.024   5.413   6.073  1.1495  1.8212  0.8012
   72MOL0     H 9876   1.052   5.462   6.242 -1.2728  0.7090 -0.3232
   72MOL0     H 9877   1.194   5.221   6.107  0.8851  0.5669  1.4252
   72MOL0     H 9878   1.226   5.292   6.260  0.1808 -0.4943  0.3373
   72MOL0     H 9879   1.258   5.437   5.986  0.0036  0.4256 -0.1421
   72MOL0     H 9880   1.279   5.518   6.146  2.6535 -1.6295  3.0106
   72MOL0     H 9881   1.440   5.261   6.076  0.8876  0.1321  0.5189
   72MOL0     H 9882   1.465   5.379   6.201  0.8330  0.8299 -0.8602
   72MOL0     H 9883   1.620   5.396   5.993 -0.2783 -0.4550  1.1507
   72MOL0     H 9884   1.478   5.451   5.900 -1.8413  1.4101  0.8931
   72MOL0     H 9885   1.351   5.675   6.032 -0.0547  1.0403 -1.7665
   72MOL0     H 9886   1.352   5.931   6.066 -0.5902  0.6134  0.1687
   72MOL0     H 9887   1.506   5.999   6.112  0.4557 -1.3586 -1.7980
   72MOL0     H 9888   1.310   6.020   6.289 -1.6434 -1.6036  0.2173
   72MOL0     H 9889   1.342   5.848   6.307  1.4630 -0.4688 -0.4361
   72MOL0     H 9890   1.455   5.958   6.480  1.4054 -1.5021  0.0041
   72MOL0     H 9891   1.567   5.879   6.374  0.9552 -0.3538  0.8351
   72MOL0     H 9892   1.654   6.108   6.298 -1.0013 -2.7182 -1.9122
   72MOL0     H 9893   1.519   6.189   6.378  2.0014  2.3385 -0.1501
   72MOL0     H 9894   1.872   6.202   6.662  0.6531  1.4023 -1.8106
   72MOL0     H 9895   2.062   6.221   6.737 -1.8071  1.3697 -2.0123
   72MOL0     H 9896   2.154   6.287   6.598 -0.0510  1.3402 -0.7956
   72MOL0     H 9897   2.200   6.138   6.677 -1.3276  0.1835  2.3748
   72MOL0     H 9898   2.408   5.781   6.261 -1.1320  0.1506  1.2799
   72MOL0     H 9899   2.637   5.788   6.161  1.0786  1.2924 -0.4669
   72MOL0     H 9900   2.768   6.166   5.995 -3.6407 -0.4080  2.9308
   72MOL0     H 9901   2.853   6.168   6.155 -0.8879  0.7911 -0.7382
   72MOL0     H 9902   3.032   6.191   6.001 -1.7175  1.0345  0.0736
   72MOL0     H 9903   3.039   6.037   6.086 -0.5366 -0.4275  0.0701
   72MOL0     H 9904   2.964   6.095   5.804 -1.3483 -0.4653 -0.0811
   72MOL0     H 9905   2.946   5.925   5.871  0.5545 -0.2057 -0.5343
   72MOL0     H 9906   3.188   5.919   5.927 -1.4842 -2.2127  0.7904
   72MOL0     H 9907   3.199   6.088   5.864 -1.8873  0.0555  0.1476
   72MOL0     H 9908   3.116   5.848   5.715  1.5970 -0.6330 -0.1260
   72MOL0     H 9909   3.103   6.016   5.644 -1.6494  1.5903  2.5783
   72MOL0     H 9910   3.355   5.861   5.738  0.4704 -1.0033 -2.5028
   72MOL0     H 9911   3.374   6.026   5.691  3.5822 -3.0117  3.4181
   72MOL0     H 9912   3.276   5.948   5.466  2.3926 -0.9699 -2.9186
   72MOL0     H 9913   3.287   5.787   5.536  1.3696 -0.7356 -3.5572
   72MOL0     H 9914   3.469   5.835   5.390 -3.2635  1.9201 -1.6987
   72MOL0     H 9915   3.516   5.785   5.558  1.7088  3.0944  2.3065
   72MOL0     H 9916   2.586   6.205   6.106  0.7540 -0.5345 -1.7255
   72MOL0     H 9917   2.370   6.194   6.187 -0.2040 -1.0006 -3.3924
   72MOL0     H 9918   2.015   5.892   6.305 -0.7620 -0.7045 -0.3363
   72MOL0     H 9919   1.779   5.938   6.325 -2.0825 -0.9561  2.2437
   72MOL0     H 9920   0.440   5.504   6.380  0.1417 -0.1292  0.0739
   72MOL0     H 9921   0.263   5.438   6.537 -0.0455 -0.7413 -0.7364
   72MOL0     H 9922   0.236   5.144   6.890 -0.3648  1.0100 -1.7672
   72MOL0     H 9923   0.165   5.063   7.104  1.8711  1.6407 -1.5810
   72MOL0     H 9924  -0.036   4.832   7.296  2.5530 -1.5885 -0.4967
   72MOL0     H 9925   0.102   4.900   7.221  0.7135  0.8304  0.1597
   72MOL0     H 9926  -0.083   5.035   7.429 -1.4706 -0.5160 -1.4295
   72MOL0     H 9927   0.054   5.124   7.347 -2.9727  0.7169 -0.6923
   72MOL0     H 9928   0.100   5.048   7.583 -0.0841  0.9385 -1.8044
   72MOL0     H 9929   0.067   4.879   7.539 -0.1560  0.0098  1.2746
   72MOL0     H 9930   0.279   5.039   7.389  1.3597  0.8650  2.1016
   72MOL0     H 9931   0.252   4.861   7.402  0.9603 -1.2203  1.1143
   72MOL0     H 9932   0.510   4.947   7.722 -1.8635 -0.9699  1.6463
   72MOL0     H 9933  -0.240   5.010   6.961  0.2432 -1.9331  0.0407
   72MOL0     H 9934  -0.285   5.031   6.751  0.2331  1.3684  2.4722
   72MOL0     H 9935  -0.196   5.160   6.659  0.1171  0.0682  2.1805
   72MOL0     H 9936  -0.166   4.993   6.629 -1.2340  1.1282 -2.2012
   73MOL0     O 9937   8.880   4.969  10.405  0.0108  0.4283  0.1237
   73MOL0     C 9938   8.860   5.072  10.462  0.5788 -0.2826 -0.4890
   73MOL0     O 9939   8.947   5.164  10.498 -0.4009 -0.9732  0.7282
   73MOL0     C 9940   9.074   5.165  10.433  0.3601  0.4323 -0.5199
   73MOL0     C 9941   9.098   5.161  10.293  0.3388  0.1458  0.3651
   73MOL0     C 9942   9.231   5.163  10.251  0.0345  0.2817  0.1520
   73MOL0     C 9943   9.348   5.160  10.338  0.6772  0.1034  0.6754
   73MOL0     O 9944   9.479   5.176  10.283 -1.1567 -0.5117 -0.0226
   73MOL0     C 9945   9.500   5.317  10.260 -0.2165  0.0436 -0.2080
   73MOL0     C 9946   9.635   5.326  10.194 -0.2265 -1.0389  0.3202
   73MOL0     C 9947   9.739   5.393  10.289  0.3622  0.0999 -0.0248
   73MOL0     C 9948   9.798   5.275  10.364 -0.1634 -0.4147  0.1788
   73MOL0     C 9949   9.931   5.323  10.440 -0.2348 -0.9409  0.2622
   73MOL0     C 9950   9.988   5.219  10.531  0.9054 -0.2844  0.4954
   73MOL0     C 9951  10.124   5.233  10.568 -1.1651  0.2403 -1.2453
   73MOL0     C 9952  10.150   5.155  10.698  0.4879 -0.5570  0.3867
   73MOL0     N 9953  10.277   5.192  10.764  0.7717  0.0839  0.0336
   73MOL0     C 9954  10.289   5.300  10.840 -0.4532 -0.0917 -0.1846
   73MOL0     C 9955  10.416   5.312  10.873  0.6591 -0.4740 -0.3208
   73MOL0     C 9956  10.493   5.410  10.963  0.3708 -0.0516  0.2086
   73MOL0     C 9957  10.638   5.372  10.985  0.1188  0.4671 -0.0480
   73MOL0     C 9958  10.716   5.488  11.037 -0.2879 -0.4755 -0.6077
   73MOL0     C 9959  10.867   5.456  11.040 -0.3629  0.8747 -0.2960
   73MOL0     O 9960  10.930   5.451  10.909  0.4366  0.3710 -0.4496
   73MOL0     C 9961  10.987   5.566  10.862 -0.2676 -0.7034  0.0709
   73MOL0     C 9962  10.950   5.699  10.902 -0.5505 -0.3246 -0.3293
   73MOL0     C 9963  11.011   5.815  10.837  0.5152  0.0725 -0.1850
   73MOL0     C 9964  10.948   5.948  10.856  0.2346 -1.0224 -0.5519
   73MOL0     C 9965  11.120   5.797  10.750  0.7025  0.2233 -0.5303
   73MOL0     C 9966  11.183   5.913  10.679 -0.9026  0.7572 -0.4039
   73MOL0     O 9967  11.306   5.889  10.642  0.3887  0.6352 -0.0640
   73MOL0     C 9968  11.381   5.991  10.590 -1.0374  0.0172 -0.4665
   73MOL0     C 9969  11.352   6.052  10.466  0.4749 -0.0141  0.4499
   73MOL0     C 9970  11.422   6.166  10.421 -0.6486  0.8694 -0.6009
   73MOL0     C 9971  11.516   6.227  10.507 -0.0446  0.3675  0.1028
   73MOL0     O 9972  11.586   6.334  10.451  0.2020  0.5711 -0.1962
   73MOL0     C 9973  11.637   6.449  10.529 -0.2414 -0.4325 -0.2119
   73MOL0     C 9974  11.728   6.532  10.436  0.0326 -1.1781  0.4271
   73MOL0     C 9975  11.875   6.542  10.476 -0.4726 -0.2885  0.9168
   73MOL0     C 9976  11.938   6.659  10.401 -0.0981 -0.0748  0.4255
   73MOL0     C 9977  12.084   6.686  10.434  0.1295  0.1495 -0.3785
   73MOL0     C 9978  12.143   6.817  10.379 -0.0745 -0.4252 -0.1920
   73MOL0     C 9979  12.291   6.853  10.422  0.1703  0.6106 -0.0768
   73MOL0     C 9980  12.296   6.850  10.577  0.0969 -0.0525 -0.1649
   73MOL0    Cl 9981  12.460   6.885  10.627  0.0404  0.1874  0.1680
   73MOL0     C 9982  11.541   6.171  10.630 -0.2265 -0.7090 -0.4804
   73MOL0     C 9983  11.481   6.050  10.673  0.3823  0.3993 -0.0641
   73MOL0     O 9984  11.120   6.011  10.655 -0.3822 -0.2236 -0.0651
   73MOL0     C 9985  11.158   5.669  10.723  0.1231  0.1331  0.1036
   73MOL0     C 9986  11.089   5.555  10.772  0.1189  0.1028 -0.5702
   73MOL0     N 9987  10.478   5.200  10.823 -0.9935 -0.6057 -0.7614
   73MOL0     N 9988  10.394   5.126  10.759  0.2043  0.4965  0.6223
   73MOL0     C 9989   9.323   5.167  10.478 -0.0818  0.4363 -0.0216
   73MOL0     C 9990   9.187   5.166  10.519  0.1783  0.1511 -0.6155
   73MOL0     C 9991   8.725   5.100  10.507 -0.3725 -0.8913  0.1907
   73MOL0     C 9992   8.710   5.193  10.611  0.0745 -0.3749  0.0128
   73MOL0     C 9993   8.587   5.228  10.666 -0.9988  0.4719  0.0715
   73MOL0     C 9994   8.476   5.166  10.613  0.1651  0.3163  0.6127
   73MOL0     O 9995   8.346   5.176  10.654  0.3346 -0.1458  0.2677
   73MOL0     C 9996   8.325   5.290  10.741  0.3600 -0.1872 -0.2742
   73MOL0     C 9997   8.178   5.283  10.786 -0.6990 -0.0429  0.5870
   73MOL0     C 9998   8.156   5.150  10.853 -0.3132 -0.1618 -0.3113
   73MOL0     C 9999   8.023   5.169  10.923  0.2618 -0.3253 -0.0662
   73MOL0     C10000   7.990   5.052  11.011  0.6933 -0.4706  0.6277
   73MOL0     C10001   7.972   4.950  11.072 -0.0887  0.3197 -0.4048
   73MOL0     C10002   8.490   5.080  10.500  0.0441 -0.0872  0.6207
   73MOL0     C10003   8.610   5.047  10.450  0.6337  0.9140  0.4625
   73MOL0     C10004   8.605   4.938  10.336  0.2567  0.0114  0.0884
   73MOL0     H10005   9.011   5.165  10.228  0.7766  2.4681 -0.1673
   73MOL0     H10006   9.250   5.153  10.145  2.1739  1.7993  0.3151
   73MOL0     H10007   9.491   5.367  10.357  3.9307 -0.5631  0.6889
   73MOL0     H10008   9.421   5.360  10.198 -1.2985 -0.3796  0.8283
   73MOL0     H10009   9.665   5.232  10.147  2.2316  0.4660 -1.3571
   73MOL0     H10010   9.624   5.389  10.105 -1.4939 -0.5177  0.8178
   73MOL0     H10011   9.818   5.435  10.227  2.0336  0.1025  1.9870
   73MOL0     H10012   9.702   5.478  10.348  2.7712 -0.4677  2.5255
   73MOL0     H10013   9.721   5.229  10.426 -0.0294 -0.7002  0.1352
   73MOL0     H10014   9.822   5.194  10.294  0.6135 -1.4845  1.6300
   73MOL0     H10015   9.906   5.418  10.488  0.1029  0.0541 -1.4736
   73MOL0     H10016  10.007   5.358  10.370 -1.4830  0.5241 -0.4148
   73MOL0     H10017   9.925   5.226  10.620  1.3089 -1.3114  0.8791
   73MOL0     H10018   9.975   5.122  10.481  3.1307 -0.3155 -0.1381
   73MOL0     H10019  10.142   5.338  10.593 -0.9165 -0.3970  1.6266
   73MOL0     H10020  10.190   5.208  10.485 -1.2006 -1.9156 -0.6711
   73MOL0     H10021  10.071   5.182  10.768 -0.0699  0.2104 -0.5154
   73MOL0     H10022  10.148   5.048  10.679  2.2082 -0.2799 -1.8182
   73MOL0     H10023  10.221   5.379  10.869  2.2300  2.4289 -0.2702
   73MOL0     H10024  10.446   5.414  11.062  2.7949 -1.4960  1.5392
   73MOL0     H10025  10.480   5.511  10.922  0.6194  0.7707  2.0397
   73MOL0     H10026  10.652   5.288  11.053  0.1075  0.2779 -0.2793
   73MOL0     H10027  10.692   5.347  10.893 -0.0392 -0.2274  0.0485
   73MOL0     H10028  10.705   5.574  10.970  0.4148  1.9629  2.1839
   73MOL0     H10029  10.678   5.517  11.136 -0.1815 -1.1528 -0.3679
   73MOL0     H10030  10.916   5.527  11.108 -2.1471  1.4827  0.4093
   73MOL0     H10031  10.878   5.357  11.084 -1.5255  1.6003  1.7424
   73MOL0     H10032  10.875   5.713  10.980 -0.6142  0.7734 -0.5811
   73MOL0     H10033  10.874   5.972  10.780 -2.9762  0.0471  2.6010
   73MOL0     H10034  11.018   6.032  10.869 -0.8056  0.0755 -1.7963
   73MOL0     H10035  10.884   5.945  10.945  0.1704  0.9747 -0.4802
   73MOL0     H10036  11.282   6.000  10.401  0.0534 -2.3137  2.5798
   73MOL0     H10037  11.400   6.216  10.327  0.3750  1.1976 -0.6726
   73MOL0     H10038  11.557   6.505  10.578  0.8873  1.6368 -0.6013
   73MOL0     H10039  11.698   6.405  10.608  3.1145  3.0540 -0.5644
   73MOL0     H10040  11.728   6.496  10.332 -1.3354  1.2916 -0.5144
   73MOL0     H10041  11.699   6.637  10.433  0.3543 -1.0681  1.1047
   73MOL0     H10042  11.928   6.447  10.464 -3.2185 -2.3348  3.2897
   73MOL0     H10043  11.877   6.570  10.582  0.3034 -0.7955  1.0441
   73MOL0     H10044  11.886   6.751  10.431 -0.6063 -0.3361  0.3464
   73MOL0     H10045  11.918   6.639  10.295 -0.7680 -1.5651  0.8084
   73MOL0     H10046  12.088   6.695  10.543 -1.3732  1.6329 -0.4140
   73MOL0     H10047  12.141   6.599  10.399 -0.1961 -1.3420  2.4591
   73MOL0     H10048  12.083   6.904  10.406  0.2512  0.1619 -1.2963
   73MOL0     H10049  12.139   6.807  10.270  1.0686 -0.7698 -0.2193
   73MOL0     H10050  12.316   6.950  10.378  1.5926  1.0642  1.5942
   73MOL0     H10051  12.360   6.778  10.382 -1.5429 -0.2837 -1.4981
   73MOL0     H10052  12.270   6.754  10.623  0.8943 -0.5631 -0.7694
   73MOL0     H10053  12.219   6.914  10.621  0.2856  1.5888 -2.0815
   73MOL0     H10054  11.603   6.225  10.700 -3.8116  2.6734  0.4659
   73MOL0     H10055  11.508   6.002  10.766 -0.9243  0.4815  0.3704
   73MOL0     H10056  11.236   5.651  10.650 -0.9849 -0.4212 -0.9672
   73MOL0     H10057  11.112   5.454  10.740  1.3643 -0.1080  0.8978
   73MOL0     H10058   9.411   5.186  10.538  0.6101  0.4874 -1.0289
   73MOL0     H10059   9.171   5.175  10.626 -1.0282  1.1187 -0.8467
   73MOL0     H10060   8.794   5.244  10.656  0.5256  1.4847 -2.7285
   73MOL0     H10061   8.596   5.297  10.749  5.3490  2.9248 -2.0567
   73MOL0     H10062   8.388   5.265  10.827  0.2073 -3.0311 -0.8861
   73MOL0     H10063   8.350   5.382  10.687 -1.4614  1.2681  1.2185
   73MOL0     H10064   8.104   5.288  10.706 -1.3324 -2.2392  0.9740
   73MOL0     H10065   8.168   5.367  10.855  0.7397 -1.2210  2.3345
   73MOL0     H10066   8.157   5.081  10.767 -0.2724 -0.3092 -0.1924
   73MOL0     H10067   8.237   5.126  10.922 -2.0125  1.5978  2.4778
   73MOL0     H10068   7.939   5.192  10.857 -1.0774 -0.4070  1.5502
   73MOL0     H10069   8.026   5.260  10.984  1.4473 -0.1036 -0.4253
   73MOL0     H10070   7.942   4.872  11.139 -1.2881  1.4394  0.3984
   73MOL0     H10071   8.406   5.027  10.457  0.8668 -0.8023 -0.1371
   73MOL0     H10072   8.688   4.967  10.270  0.0364  2.0466  0.6387
   73MOL0     H10073   8.622   4.836  10.371  0.5666 -0.0769 -0.3114
   73MOL0     H10074   8.513   4.929  10.278  1.4662  0.8705 -2.0894
   74MOL0     O10075   6.270   1.522   5.111 -0.1328  0.1636  0.1198
   74MOL0     C10076   6.319   1.440   5.034  0.7024 -0.4607 -0.8759
   74MOL0     O10077   6.453   1.429   5.009 -0.2121 -0.2713 -0.0614
   74MOL0     C10078   6.537   1.528   5.036 -0.4145  0.2520 -0.5019
   74MOL0     C10079   6.655   1.499   5.101 -0.2390  0.2998  0.1738
   74MOL0     C10080   6.745   1.591   5.148  0.0143 -0.0527  1.1765
   74MOL0     C10081   6.723   1.726   5.123  0.1152 -0.0411 -0.5087
   74MOL0     O10082   6.804   1.830   5.156 -0.2024 -0.2980 -0.0939
   74MOL0     C10083   6.910   1.807   5.253  0.0022  0.5257 -0.3996
   74MOL0     C10084   7.005   1.931   5.256 -0.3985  0.5285 -0.2187
   74MOL0     C10085   7.090   1.926   5.127  0.1886 -0.5158  0.4860
   74MOL0     C10086   7.188   2.040   5.134  0.8883 -0.6822 -0.1155
   74MOL0     C10087   7.323   1.994   5.208  0.2058  0.0720  0.4010
   74MOL0     C10088   7.411   1.910   5.117  0.1972  0.4255 -0.3436
   74MOL0     C10089   7.544   1.880   5.178 -0.6347  0.1148 -1.1280
   74MOL0     C10090   7.623   1.778   5.096 -0.9281 -0.2512 -0.1974
   74MOL0     N10091   7.769   1.773   5.152  0.3050  0.2927  0.7434
   74MOL0     C10092   7.859   1.872   5.129 -0.9322  0.0551 -0.1564
   74MOL0     C10093   7.979   1.830   5.180  0.5442 -0.8652 -0.1648
   74MOL0     C10094   8.114   1.895   5.188 -0.2723 -0.1410 -0.1408
   74MOL0     C10095   8.230   1.800   5.143  0.0751  0.7044  0.5259
   74MOL0     C10096   8.340   1.898   5.103 -0.3374  0.5815 -0.3427
   74MOL0     C10097   8.490   1.839   5.101  0.6078 -0.1373 -0.9357
   74MOL0     O10098   8.571   1.955   5.073 -0.7471 -0.1946  0.1779
   74MOL0     C10099   8.706   1.917   5.039  0.6524  0.2323 -0.0438
   74MOL0     C10100   8.757   1.788   5.064 -0.0837  0.4752  0.1877
   74MOL0     C10101   8.892   1.757   5.032  0.5252  0.3824 -0.3377
   74MOL0     C10102   8.944   1.619   5.076 -0.0157  0.0229  0.3272
   74MOL0     C10103   8.968   1.861   4.968 -0.2636  0.6425  0.0304
   74MOL0     C10104   9.115   1.841   4.944 -0.1048 -0.3355 -0.1287
   74MOL0     O10105   9.187   1.953   4.954  0.4335  0.0328  0.3049
   74MOL0     C10106   9.330   1.941   4.950 -1.6465 -0.3012 -0.1472
   74MOL0     C10107   9.405   2.052   4.910  0.1164  0.3707  0.4185
   74MOL0     C10108   9.544   2.053   4.893 -0.2454  0.4242  0.4318
   74MOL0     C10109   9.610   1.942   4.937  0.0569  0.9447  0.1140
   74MOL0     O10110   9.744   1.928   4.946 -0.1992 -0.4669 -0.2801
   74MOL0     C10111   9.827   2.031   4.887  0.6264 -0.1051  0.4211
   74MOL0     C10112   9.965   1.967   4.869 -0.6476  0.6743  0.2434
   74MOL0     C10113  10.029   1.949   5.006 -0.6106  0.5078 -0.4992
   74MOL0     C10114  10.162   1.872   5.009  0.4442  0.5082 -0.1055
   74MOL0     C10115  10.221   1.890   5.149  0.8419  0.0788 -0.3647
   74MOL0     C10116  10.365   1.843   5.166  0.3537 -0.0146 -0.0042
   74MOL0     C10117  10.379   1.689   5.164  0.3422 -0.3338 -1.1240
   74MOL0     C10118  10.521   1.648   5.210  0.5112  0.3283  0.3706
   74MOL0    Cl10119  10.514   1.474   5.250 -0.0751  0.2220 -0.6721
   74MOL0     C10120   9.540   1.825   4.979  0.0548  0.1086 -0.4535
   74MOL0     C10121   9.404   1.832   4.987  0.4838  0.2538 -0.7829
   74MOL0     O10122   9.156   1.733   4.906  0.2697  0.1665  0.0506
   74MOL0     C10123   8.920   1.990   4.949  0.7641  0.3260  0.5217
   74MOL0     C10124   8.789   2.021   4.980  0.0472  0.5724  0.2773
   74MOL0     N10125   7.949   1.714   5.243 -1.1836 -0.0281 -0.1997
   74MOL0     N10126   7.822   1.673   5.218 -0.0987 -0.9678 -0.3537
   74MOL0     C10127   6.607   1.762   5.061 -0.0980  0.3358 -0.2419
   74MOL0     C10128   6.512   1.667   5.014  0.2755  0.3329  0.9331
   74MOL0     C10129   6.231   1.326   4.981 -0.2735  0.1858 -0.2051
   74MOL0     C10130   6.096   1.320   5.017 -0.2391  0.2893 -0.0970
   74MOL0     C10131   6.008   1.235   4.965  0.6794 -0.4739  0.4151
   74MOL0     C10132   6.050   1.132   4.888 -0.4465 -0.0892  0.3290
   74MOL0     O10133   5.954   1.036   4.864 -0.2010 -0.3227  0.0814
   74MOL0     C10134   5.972   0.976   4.736  0.0276 -0.4597 -0.5531
   74MOL0     C10135   5.837   0.926   4.707  0.1766  1.1623  0.3219
   74MOL0     C10136   5.811   0.793   4.782 -0.3579  0.7265  0.2931
   74MOL0     C10137   5.669   0.750   4.746  0.7253  0.1473  0.2658
   74MOL0     C10138   5.636   0.624   4.826 -0.4013 -0.8638  0.5843
   74MOL0     C10139   5.635   0.530   4.896 -0.5234 -0.3602 -0.2246
   74MOL0     C10140   6.185   1.121   4.858 -0.4287 -0.2839 -0.5571
   74MOL0     C10141   6.280   1.220   4.893  0.3411 -0.2612 -0.3431
   74MOL0     C10142   6.419   1.195   4.849 -0.2797 -0.2747 -0.0044
   74MOL0     H10143   6.666   1.393   5.118 -1.4603  0.0632 -0.4134
   74MOL0     H10144   6.833   1.557   5.201  1.5563 -0.1350 -1.2751
   74MOL0     H10145   6.959   1.714   5.224 -1.5600 -0.1404 -0.9896
   74MOL0     H10146   6.868   1.786   5.352  0.3926  1.9657  0.1068
   74MOL0     H10147   6.952   2.022   5.285 -0.8818 -0.1297  1.0418
   74MOL0     H10148   7.079   1.914   5.335 -1.1639  0.0583  0.4019
   74MOL0     H10149   7.146   1.832   5.120  1.3823  0.1572  0.8182
   74MOL0     H10150   7.027   1.939   5.039 -0.7605  2.0780  1.4557
   74MOL0     H10151   7.210   2.080   5.035 -0.9526 -1.0189 -0.6923
   74MOL0     H10152   7.128   2.121   5.176 -0.6807 -1.1785 -1.3083
   74MOL0     H10153   7.302   1.940   5.301  0.7796 -3.5787 -1.4443
   74MOL0     H10154   7.376   2.088   5.227 -1.3003  0.6995  1.8313
   74MOL0     H10155   7.366   1.813   5.094  0.8317 -0.3126  1.4107
   74MOL0     H10156   7.423   1.973   5.028 -1.3910 -1.4481 -1.9777
   74MOL0     H10157   7.529   1.839   5.279 -2.1015  3.0167 -0.0615
   74MOL0     H10158   7.601   1.973   5.182 -0.1415 -0.1832 -1.1200
   74MOL0     H10159   7.568   1.685   5.115 -2.9977  0.5521 -1.9457
   74MOL0     H10160   7.629   1.807   4.991  2.0558  3.8438  0.8571
   74MOL0     H10161   7.858   1.959   5.065  1.2228  0.0911 -0.2151
   74MOL0     H10162   8.127   1.911   5.295  1.3648 -4.2342  0.4694
   74MOL0     H10163   8.120   1.995   5.146  4.8249  0.6121  1.7016
   74MOL0     H10164   8.262   1.738   5.226  0.4811  0.5272  0.2399
   74MOL0     H10165   8.193   1.743   5.057  0.4841  0.0914  0.7573
   74MOL0     H10166   8.308   1.930   5.003 -0.6730 -0.9599 -0.7543
   74MOL0     H10167   8.347   1.987   5.166 -2.2395  0.4134  0.1481
   74MOL0     H10168   8.516   1.791   5.196  0.8704 -2.2492 -2.0131
   74MOL0     H10169   8.497   1.767   5.019  0.3594 -0.1401 -0.9567
   74MOL0     H10170   8.696   1.715   5.115 -0.6865 -0.8153 -2.1986
   74MOL0     H10171   8.989   1.566   4.992  1.0150  1.1771  0.1210
   74MOL0     H10172   8.869   1.556   5.125  1.4570 -0.6348  1.8778
   74MOL0     H10173   9.023   1.643   5.148 -0.0036  0.2066  0.2536
   74MOL0     H10174   9.361   2.144   4.872  0.2136 -0.0258 -0.6978
   74MOL0     H10175   9.592   2.142   4.853 -0.5982  0.3183 -0.2407
   74MOL0     H10176   9.793   2.058   4.786  1.2633  1.9842  0.7312
   74MOL0     H10177   9.831   2.115   4.956 -1.3762  0.3924  0.0031
   74MOL0     H10178   9.948   1.874   4.813 -0.2595  0.8651 -0.1939
   74MOL0     H10179  10.024   2.032   4.805 -0.8543  0.8462  0.2285
   74MOL0     H10180   9.962   1.884   5.063  0.5232 -0.8219 -0.6397
   74MOL0     H10181  10.042   2.046   5.055  0.4877 -0.1604  0.5937
   74MOL0     H10182  10.228   1.913   4.933  1.7499  0.0547  0.7438
   74MOL0     H10183  10.146   1.764   4.998  2.5688  0.2003 -0.5415
   74MOL0     H10184  10.219   1.995   5.180  2.4453 -0.5064  1.9380
   74MOL0     H10185  10.158   1.846   5.227  1.7271 -0.3985  0.0998
   74MOL0     H10186  10.387   1.879   5.267 -0.7037  1.4371 -0.2689
   74MOL0     H10187  10.424   1.898   5.092  0.4081  2.5715  1.8355
   74MOL0     H10188  10.368   1.641   5.066  0.5648  1.6127 -2.1579
   74MOL0     H10189  10.304   1.656   5.237 -1.7606  4.8055 -0.5009
   74MOL0     H10190  10.550   1.702   5.300  2.1636  1.2361 -0.6483
   74MOL0     H10191  10.592   1.674   5.131 -1.4580 -0.7809 -1.9348
   74MOL0     H10192   9.602   1.747   5.023 -0.2749  0.4743  0.6811
   74MOL0     H10193   9.354   1.739   5.012 -1.2843  0.3736 -3.4629
   74MOL0     H10194   8.980   2.075   4.920 -0.6590  0.7904 -1.2255
   74MOL0     H10195   8.753   2.123   4.978 -0.9401  0.2259 -0.8214
   74MOL0     H10196   6.576   1.866   5.061 -0.8729  0.2205  2.9693
   74MOL0     H10197   6.419   1.692   4.965  0.6390  0.8671  0.5043
   74MOL0     H10198   6.048   1.398   5.074 -0.0179  2.0893 -2.2452
   74MOL0     H10199   5.905   1.257   4.993  0.2275  0.5103 -1.7866
   74MOL0     H10200   6.008   1.045   4.659 -0.7929 -0.9888 -1.4386
   74MOL0     H10201   6.048   0.898   4.746  0.6168  0.1422 -0.2679
   74MOL0     H10202   5.834   0.904   4.600 -0.5744 -2.0635  0.8941
   74MOL0     H10203   5.747   0.985   4.726 -1.5399 -0.6459 -1.6174
   74MOL0     H10204   5.878   0.713   4.748 -0.4866  0.9898 -0.6019
   74MOL0     H10205   5.826   0.807   4.889  1.2905  0.5551  0.0991
   74MOL0     H10206   5.665   0.714   4.642 -1.8077 -0.9795  0.6886
   74MOL0     H10207   5.598   0.832   4.758  0.1344 -0.3363  0.1361
   74MOL0     H10208   5.634   0.456   4.973  4.2931  0.0443  0.4748
   74MOL0     H10209   6.219   1.028   4.814 -3.0638 -0.4003 -2.6196
   74MOL0     H10210   6.436   1.114   4.778 -1.4724 -0.6495  0.1315
   74MOL0     H10211   6.453   1.291   4.807  1.6111 -0.0656  1.8280
   74MOL0     H10212   6.485   1.175   4.934  0.8668 -1.5369 -1.1427
   75MOL0     O10213   6.556   0.731   5.827  0.8728  0.9880 -0.0575
   75MOL0     C10214   6.506   0.770   5.929 -0.5955 -0.6721 -0.6388
   75MOL0     O10215   6.561   0.765   6.061  0.4294  0.6756  0.0696
   75MOL0     C10216   6.671   0.697   6.092  0.3633  0.4740  1.0934
   75MOL0     C10217   6.669   0.622   6.203 -0.2447  0.3302 -0.3110
   75MOL0     C10218   6.785   0.560   6.251  0.5630 -0.1712 -0.2217
   75MOL0     C10219   6.905   0.587   6.182 -0.0752 -0.0266  0.4485
   75MOL0     O10220   7.016   0.530   6.240  0.5964 -0.4607 -0.3442
   75MOL0     C10221   7.133   0.514   6.166 -0.4096  0.1342  0.6031
   75MOL0     C10222   7.214   0.419   6.254  0.0036 -0.3846  1.1920
   75MOL0     C10223   7.324   0.361   6.162 -0.0047 -0.2086  0.0072
   75MOL0     C10224   7.452   0.447   6.160 -0.5405  0.0831  0.2896
   75MOL0     C10225   7.543   0.391   6.049 -0.0276 -0.5957 -0.7505
   75MOL0     C10226   7.679   0.462   6.051 -0.2216  0.4082  0.5132
   75MOL0     C10227   7.756   0.429   5.928  0.0756  0.4602  0.0313
   75MOL0     C10228   7.902   0.482   5.928  1.1267  0.0888  0.0587
   75MOL0     N10229   7.960   0.444   5.802 -0.5538  1.2077  0.6276
   75MOL0     C10230   8.045   0.341   5.778 -0.2019  0.0101 -0.5643
   75MOL0     C10231   8.076   0.347   5.641  0.3176  0.4954  0.1665
   75MOL0     C10232   8.181   0.262   5.575  0.2403  0.6708  0.0338
   75MOL0     C10233   8.314   0.333   5.532  0.1687  0.0330  0.2300
   75MOL0     C10234   8.404   0.336   5.659  0.4921 -0.6023  0.3436
   75MOL0     C10235   8.540   0.390   5.618  0.1750  0.2336 -0.0579
   75MOL0     O10236   8.533   0.507   5.541  0.1060  0.6878  0.8335
   75MOL0     C10237   8.657   0.560   5.516  0.8885 -0.0148 -0.5372
   75MOL0     C10238   8.669   0.700   5.531  0.5304  0.6226  0.4157
   75MOL0     C10239   8.787   0.769   5.503 -0.6905  0.0147  0.2031
   75MOL0     C10240   8.787   0.919   5.525 -0.3606  0.7532  0.3515
   75MOL0     C10241   8.902   0.697   5.445  0.4774 -0.0750 -0.1184
   75MOL0     C10242   9.024   0.760   5.391 -0.5945 -0.3378  0.5966
   75MOL0     O10243   9.120   0.672   5.341  0.2413 -0.2291  1.1657
   75MOL0     C10244   9.240   0.720   5.303  0.2754  1.0402 -0.6237
   75MOL0     C10245   9.305   0.832   5.359 -0.6162 -0.3203 -0.5868
   75MOL0     C10246   9.436   0.859   5.331  0.4067  0.5042 -0.2090
   75MOL0     C10247   9.515   0.782   5.248  1.3581  0.1826 -0.4263
   75MOL0     O10248   9.646   0.814   5.238  0.1944 -0.0029 -0.2572
   75MOL0     C10249   9.738   0.706   5.213  0.4203 -0.2044  0.6542
   75MOL0     C10250   9.880   0.735   5.238 -0.5452 -0.2039  1.2531
   75MOL0     C10251   9.966   0.609   5.216 -0.4438 -0.1734  0.3181
   75MOL0     C10252  10.112   0.658   5.209  0.6962  0.8220 -0.1287
   75MOL0     C10253  10.195   0.539   5.209 -0.5022  0.5653 -0.0009
   75MOL0     C10254  10.337   0.594   5.174 -0.2829 -0.1603  0.1051
   75MOL0     C10255  10.445   0.479   5.171 -0.5768 -0.8120  0.5823
   75MOL0     C10256  10.580   0.536   5.145 -0.4147  0.1473 -0.1514
   75MOL0    Cl10257  10.594   0.617   4.974  0.0803 -0.0359  0.3356
   75MOL0     C10258   9.454   0.670   5.185 -0.0295 -0.4859 -0.4151
   75MOL0     C10259   9.317   0.640   5.221  0.2613 -0.1129  0.6019
   75MOL0     O10260   9.033   0.885   5.371  0.6785 -0.1865 -0.5375
   75MOL0     C10261   8.891   0.560   5.445  1.0198 -0.3536 -0.9994
   75MOL0     C10262   8.772   0.490   5.487 -0.4742 -0.5889 -0.0391
   75MOL0     N10263   8.009   0.455   5.584  0.4731  0.2101  0.0783
   75MOL0     N10264   7.934   0.504   5.682 -0.1882 -0.1945 -0.2802
   75MOL0     C10265   6.910   0.670   6.071  0.1296 -0.6034 -0.2407
   75MOL0     C10266   6.794   0.724   6.026  0.0952  0.7175 -0.3375
   75MOL0     C10267   6.382   0.849   5.932  0.5595  0.7468  1.0948
   75MOL0     C10268   6.285   0.807   6.017  1.2997 -0.6331 -0.8926
   75MOL0     C10269   6.155   0.867   6.017  0.3292  0.7410 -0.1253
   75MOL0     C10270   6.119   0.963   5.920  1.0374 -0.3558  0.4613
   75MOL0     O10271   5.991   1.013   5.905  0.5874 -0.1936 -0.9472
   75MOL0     C10272   5.885   0.980   5.986  0.5864 -0.0787 -0.7422
   75MOL0     C10273   5.751   1.063   5.947  0.2962  0.6726 -1.1693
   75MOL0     C10274   5.743   1.197   6.019  0.4012  1.1558 -0.6355
   75MOL0     C10275   5.652   1.300   5.961  0.9903 -0.2166  0.4209
   75MOL0     C10276   5.515   1.264   5.997  0.7569 -0.2581  0.3982
   75MOL0     C10277   5.404   1.231   6.036 -0.2966  0.0567 -0.6847
   75MOL0     C10278   6.218   1.003   5.829  0.0806 -0.0577 -0.1797
   75MOL0     C10279   6.346   0.945   5.832 -0.1142 -0.5465  0.6835
   75MOL0     C10280   6.452   0.987   5.740 -0.4485  0.2443 -0.2567
   75MOL0     H10281   6.580   0.609   6.263  0.7258  3.1863  1.9885
   75MOL0     H10282   6.782   0.485   6.329  2.6384 -0.3583 -0.2636
   75MOL0     H10283   7.190   0.607   6.155 -0.0185 -0.4037 -2.8981
   75MOL0     H10284   7.110   0.465   6.071 -1.2191 -1.0783  1.3851
   75MOL0     H10285   7.250   0.472   6.342  0.0731 -1.7014  1.9963
   75MOL0     H10286   7.154   0.334   6.290 -1.4456 -0.0418 -0.2742
   75MOL0     H10287   7.356   0.260   6.192  0.1857  0.4944  2.4067
   75MOL0     H10288   7.289   0.354   6.059 -0.3420 -1.2071  0.1824
   75MOL0     H10289   7.452   0.554   6.140  1.0409  0.2339  0.9154
   75MOL0     H10290   7.505   0.428   6.255  3.3557  0.9843 -1.4955
   75MOL0     H10291   7.493   0.391   5.952 -1.6579  0.9314  0.0382
   75MOL0     H10292   7.558   0.284   6.069  1.9136 -0.2736 -0.2331
   75MOL0     H10293   7.668   0.570   6.065  2.4573  0.9533 -1.0331
   75MOL0     H10294   7.741   0.415   6.127  2.3965 -2.4982 -3.0638
   75MOL0     H10295   7.702   0.473   5.844 -0.7440 -1.3286 -0.4343
   75MOL0     H10296   7.762   0.320   5.938  0.3985  0.6562  2.5153
   75MOL0     H10297   7.907   0.591   5.940  2.4099 -0.0342  0.8396
   75MOL0     H10298   7.946   0.440   6.019 -1.6891 -2.3983  0.4185
   75MOL0     H10299   8.064   0.266   5.854 -3.9698 -1.5934 -0.9914
   75MOL0     H10300   8.148   0.217   5.481  0.5781 -3.4821  1.7136
   75MOL0     H10301   8.198   0.176   5.639 -0.7956 -0.7858 -1.5741
   75MOL0     H10302   8.375   0.280   5.459  2.4876  0.7662  1.5167
   75MOL0     H10303   8.285   0.429   5.488 -1.4758 -1.4070 -2.0593
   75MOL0     H10304   8.369   0.405   5.736 -0.4850  2.1887 -2.3497
   75MOL0     H10305   8.416   0.234   5.696 -2.4597 -0.4013  2.1104
   75MOL0     H10306   8.588   0.410   5.715 -1.5251 -1.7887  1.2809
   75MOL0     H10307   8.597   0.321   5.555  0.6466  1.4287 -0.9819
   75MOL0     H10308   8.581   0.758   5.558  0.5246  0.8035  0.0188
   75MOL0     H10309   8.873   0.956   5.582  1.1107 -0.5139 -0.9454
   75MOL0     H10310   8.692   0.941   5.573 -0.6177 -0.0878  0.2503
   75MOL0     H10311   8.801   0.965   5.426  5.2918 -1.9697 -0.5376
   75MOL0     H10312   9.260   0.904   5.426  1.7077  0.0591  0.6730
   75MOL0     H10313   9.486   0.939   5.384  2.2493 -1.4633  1.2145
   75MOL0     H10314   9.704   0.619   5.271 -4.0871 -1.1728 -2.8441
   75MOL0     H10315   9.728   0.679   5.107  0.8305 -2.2064  1.0923
   75MOL0     H10316   9.906   0.811   5.164 -1.8923 -0.9870 -0.0827
   75MOL0     H10317   9.906   0.771   5.338  0.5296  2.2449  0.1774
   75MOL0     H10318   9.954   0.555   5.122  0.7298 -0.1635  0.1528
   75MOL0     H10319   9.946   0.546   5.303 -0.5941  2.4143  2.2922
   75MOL0     H10320  10.135   0.721   5.295  0.5795  0.0571  0.4648
   75MOL0     H10321  10.128   0.717   5.118  1.8717  1.0955  0.2345
   75MOL0     H10322  10.189   0.477   5.299  0.8949 -1.9407 -1.5020
   75MOL0     H10323  10.175   0.462   5.133 -1.0498  0.5549  0.1515
   75MOL0     H10324  10.364   0.676   5.241  0.7836  0.4932 -1.0845
   75MOL0     H10325  10.329   0.629   5.071  0.9069  1.5553  0.5380
   75MOL0     H10326  10.428   0.404   5.094 -0.5650 -0.2200 -0.0096
   75MOL0     H10327  10.451   0.438   5.272  0.5028  0.1818  0.9546
   75MOL0     H10328  10.637   0.443   5.159  0.8423  0.4846 -2.5076
   75MOL0     H10329  10.594   0.603   5.231 -1.2891 -0.4933  0.5112
   75MOL0     H10330   9.516   0.606   5.122  0.0494 -0.6226 -0.2011
   75MOL0     H10331   9.279   0.551   5.171 -0.5818  0.7011 -0.2283
   75MOL0     H10332   8.971   0.491   5.419  1.2152 -1.2980  1.7857
   75MOL0     H10333   8.780   0.382   5.492 -2.4398 -0.7441  0.8344
   75MOL0     H10334   7.004   0.694   6.024  1.6324 -0.7029  2.5352
   75MOL0     H10335   6.804   0.802   5.952 -2.5453  0.7163 -0.8065
   75MOL0     H10336   6.298   0.731   6.094 -0.9838 -0.2645 -0.0818
   75MOL0     H10337   6.088   0.842   6.098  2.9423  0.3398  2.0407
   75MOL0     H10338   5.860   0.874   5.977  1.8291 -0.4748  0.2560
   75MOL0     H10339   5.906   1.002   6.091 -0.7237 -0.5098 -0.3647
   75MOL0     H10340   5.672   0.999   5.988  0.7298 -0.9459 -2.7420
   75MOL0     H10341   5.738   1.073   5.839  0.7582 -1.3375 -1.4492
   75MOL0     H10342   5.714   1.178   6.123 -2.9646  2.0287 -1.2968
   75MOL0     H10343   5.846   1.233   6.023  0.7476  0.1205  1.0179
   75MOL0     H10344   5.667   1.291   5.853  3.5361 -0.4073  0.7350
   75MOL0     H10345   5.677   1.401   5.994 -0.1519  0.0603  0.4984
   75MOL0     H10346   5.303   1.209   6.063 -1.1648  2.9492 -1.1962
   75MOL0     H10347   6.207   1.084   5.757  0.5565 -2.0733 -2.6306
   75MOL0     H10348   6.484   0.918   5.661 -0.3310  1.7075 -1.5376
   75MOL0     H10349   6.420   1.066   5.671  1.3087 -0.5249 -2.0747
   75MOL0     H10350   6.530   1.034   5.800 -0.4965  0.0838 -0.0680
   76MOL0     O10351   3.039   6.138   4.263 -0.0458  0.1798  0.8557
   76MOL0     C10352   3.032   6.177   4.142  0.1580  0.2580  0.8789
   76MOL0     O10353   3.117   6.142   4.037 -0.0609  0.2468 -0.0625
   76MOL0     C10354   3.213   6.044   4.052 -0.0406 -0.3788  0.0103
   76MOL0     C10355   3.299   6.026   4.163 -0.2868 -0.3839  0.2128
   76MOL0     C10356   3.411   5.936   4.157 -0.4674 -1.1929 -0.2467
   76MOL0     C10357   3.436   5.871   4.040  1.0036 -0.3398  0.9666
   76MOL0     O10358   3.526   5.769   4.016  0.0319  0.5946 -0.2887
   76MOL0     C10359   3.640   5.770   4.086 -0.4043 -0.0920 -0.5226
   76MOL0     C10360   3.747   5.852   4.001  0.5180  0.4730 -0.3508
   76MOL0     C10361   3.885   5.812   4.046 -0.6994 -0.2901  0.2025
   76MOL0     C10362   3.933   5.872   4.178  0.8846  0.2279  0.2347
   76MOL0     C10363   3.932   6.020   4.181  0.2815  0.4771  0.3303
   76MOL0     C10364   3.966   6.067   4.321 -0.3012 -1.1171  0.0285
   76MOL0     C10365   3.958   6.218   4.342  0.3585 -0.0178  0.0806
   76MOL0     C10366   4.038   6.313   4.242  0.7764 -0.1095  0.0924
   76MOL0     N10367   4.174   6.285   4.216 -0.7028 -0.2297  0.8987
   76MOL0     C10368   4.224   6.290   4.086  0.3844 -0.3484 -0.4837
   76MOL0     C10369   4.354   6.271   4.105 -0.0385 -0.7524 -0.2625
   76MOL0     C10370   4.453   6.293   3.995 -0.5118 -1.1381  0.0237
   76MOL0     C10371   4.511   6.153   3.958 -0.1267 -0.5844  0.3768
   76MOL0     C10372   4.580   6.153   3.819 -0.0882  0.2594  0.3674
   76MOL0     C10373   4.720   6.214   3.800  0.4230 -0.0199  0.5090
   76MOL0     O10374   4.803   6.138   3.879  0.5221  0.2547  0.0855
   76MOL0     C10375   4.940   6.167   3.881 -0.3323 -0.2170  0.2664
   76MOL0     C10376   5.017   6.129   3.994 -0.6411 -0.3590 -0.7002
   76MOL0     C10377   5.149   6.151   4.020 -0.5802 -0.8483  0.4006
   76MOL0     C10378   5.204   6.080   4.149 -0.3465 -0.0902 -0.5149
   76MOL0     C10379   5.223   6.212   3.917 -0.2857  0.1253  0.0799
   76MOL0     C10380   5.370   6.232   3.923  0.0542 -0.3709  0.2706
   76MOL0     O10381   5.432   6.248   3.801 -0.3127  0.3257 -0.0457
   76MOL0     C10382   5.566   6.238   3.783 -0.2402  0.4546  0.2219
   76MOL0     C10383   5.654   6.151   3.862  0.1324  0.3818  0.7682
   76MOL0     C10384   5.787   6.147   3.834 -0.8200 -0.5002 -1.0722
   76MOL0     C10385   5.839   6.227   3.724  0.3757 -0.6327 -0.0960
   76MOL0     O10386   5.965   6.232   3.685 -0.3980 -0.6857 -0.1166
   76MOL0     C10387   6.061   6.134   3.724 -1.0620 -0.3334 -0.2325
   76MOL0     C10388   6.203   6.163   3.660 -0.0393  0.5203 -0.3641
   76MOL0     C10389   6.294   6.049   3.709 -0.6373  0.4851  0.4544
   76MOL0     C10390   6.434   6.061   3.653 -0.3006  0.6400 -1.1145
   76MOL0     C10391   6.453   5.982   3.526  0.2073  0.3587 -0.2207
   76MOL0     C10392   6.585   5.994   3.450  0.0888  0.4282  0.4611
   76MOL0     C10393   6.574   6.125   3.360 -0.0044 -0.0867 -0.2248
   76MOL0     C10394   6.713   6.173   3.327  0.4295 -0.0258 -0.2195
   76MOL0    Cl10395   6.828   6.053   3.259  0.0137 -0.1325 -0.1685
   76MOL0     C10396   5.754   6.309   3.656 -0.2191 -0.1295 -0.7474
   76MOL0     C10397   5.617   6.310   3.678  0.2004 -0.4180 -0.4335
   76MOL0     O10398   5.427   6.266   4.031 -0.3455 -0.0171  0.0768
   76MOL0     C10399   5.148   6.245   3.801 -0.3039  0.3089  0.7871
   76MOL0     C10400   5.012   6.233   3.786 -0.5270 -0.5569  0.5226
   76MOL0     N10401   4.375   6.257   4.241 -0.2344 -0.0971 -0.7796
   76MOL0     N10402   4.270   6.258   4.308  0.2948 -0.3340 -0.5049
   76MOL0     C10403   3.349   5.889   3.926 -0.0840 -0.6987 -0.1717
   76MOL0     C10404   3.248   5.980   3.932  0.7855  0.2709  0.5771
   76MOL0     C10405   2.907   6.244   4.095  0.2664 -0.8109  0.4340
   76MOL0     C10406   2.902   6.268   3.957  0.1409  0.1084  0.9697
   76MOL0     C10407   2.803   6.352   3.902 -0.2354  0.3834 -0.3793
   76MOL0     C10408   2.699   6.398   3.987  0.2001 -0.5498 -0.6247
   76MOL0     O10409   2.595   6.481   3.955 -0.0633  0.1108  0.4670
   76MOL0     C10410   2.565   6.510   3.816  0.5276  0.4663  0.5412
   76MOL0     C10411   2.419   6.555   3.807  0.7273 -0.3030 -0.4571
   76MOL0     C10412   2.319   6.475   3.905  0.2831  0.0335  0.4140
   76MOL0     C10413   2.165   6.471   3.869  0.2752 -1.2439 -0.1578
   76MOL0     C10414   2.094   6.585   3.922  0.0768  0.2514 -0.1381
   76MOL0     C10415   2.024   6.663   3.974  0.7793  0.0309 -0.3936
   76MOL0     C10416   2.703   6.374   4.125  0.4595 -0.1468  0.0824
   76MOL0     C10417   2.801   6.298   4.177  0.4287  0.2639 -0.1336
   76MOL0     C10418   2.798   6.262   4.325  0.5277  0.3964  0.2717
   76MOL0     H10419   3.275   6.073   4.258  1.9602  0.0113  0.6459
   76MOL0     H10420   3.478   5.918   4.240  2.1418  1.3171 -1.6209
   76MOL0     H10421   3.677   5.668   4.099 -1.3518 -0.7621 -2.5932
   76MOL0     H10422   3.628   5.808   4.188 -0.3337 -1.7584  0.1338
   76MOL0     H10423   3.734   5.828   3.895 -0.7299  0.7315 -0.2716
   76MOL0     H10424   3.718   5.956   4.016  0.1227  0.1205  1.6261
   76MOL0     H10425   3.902   5.704   4.043 -1.8687 -0.4692 -1.3981
   76MOL0     H10426   3.953   5.840   3.965 -1.6732 -2.4074 -1.4660
   76MOL0     H10427   3.883   5.816   4.258  0.8053 -1.1299 -0.7189
   76MOL0     H10428   4.038   5.847   4.196  0.8635  1.5414  2.4205
   76MOL0     H10429   3.837   6.068   4.159  0.6735  0.9741 -0.3033
   76MOL0     H10430   4.008   6.042   4.105  1.1882 -1.7762  0.4856
   76MOL0     H10431   3.906   6.023   4.402 -0.5709 -0.4276  0.2065
   76MOL0     H10432   4.070   6.038   4.340  0.0390  0.7377  1.2039
   76MOL0     H10433   4.018   6.227   4.432  0.5033 -2.6572  0.3214
   76MOL0     H10434   3.858   6.258   4.364 -0.0248 -0.4352 -0.8307
   76MOL0     H10435   3.982   6.312   4.148 -0.9145 -0.7685  1.0449
   76MOL0     H10436   4.019   6.413   4.284 -1.4003  0.3093 -1.6533
   76MOL0     H10437   4.172   6.315   3.993  1.0058  2.6283 -0.1203
   76MOL0     H10438   4.533   6.355   4.036  0.7422  0.0819 -3.8363
   76MOL0     H10439   4.400   6.341   3.913  1.3555  1.3153  0.1588
   76MOL0     H10440   4.591   6.139   4.032  1.2405  0.2830 -0.8868
   76MOL0     H10441   4.438   6.072   3.964  0.6757 -1.3441  0.0282
   76MOL0     H10442   4.594   6.046   3.798 -1.8193  0.1746 -0.5331
   76MOL0     H10443   4.510   6.191   3.744  2.2862  0.6984 -1.7613
   76MOL0     H10444   4.745   6.228   3.695 -3.3738 -0.7023 -0.6082
   76MOL0     H10445   4.714   6.314   3.845 -2.1680  0.0663  0.1172
   76MOL0     H10446   4.963   6.065   4.063 -3.8311 -0.9549 -3.4664
   76MOL0     H10447   5.166   6.139   4.232 -1.2681  2.1580 -2.4200
   76MOL0     H10448   5.313   6.083   4.161 -0.6284 -0.5257  3.3549
   76MOL0     H10449   5.162   5.979   4.151 -4.7323  1.5076 -0.8174
   76MOL0     H10450   5.605   6.089   3.937 -0.1630 -1.4782 -0.8974
   76MOL0     H10451   5.864   6.094   3.890  1.2245  0.9907 -2.3327
   76MOL0     H10452   6.065   6.152   3.832 -1.8945 -1.5724  0.0251
   76MOL0     H10453   6.029   6.030   3.711 -1.1633 -0.0383 -2.9185
   76MOL0     H10454   6.192   6.167   3.551  0.0533  0.7973 -0.3641
   76MOL0     H10455   6.250   6.257   3.688 -0.8195  0.9465 -0.4515
   76MOL0     H10456   6.251   5.953   3.681  2.3678 -0.7208 -0.4164
   76MOL0     H10457   6.300   6.053   3.818 -1.5080  4.9115  0.5306
   76MOL0     H10458   6.512   6.029   3.722  0.5120 -0.3562 -2.4610
   76MOL0     H10459   6.456   6.168   3.640 -1.3745  1.0998  0.5645
   76MOL0     H10460   6.432   5.875   3.535 -1.6765  0.7389  0.2445
   76MOL0     H10461   6.367   6.001   3.462  0.2400  1.2522 -0.0094
   76MOL0     H10462   6.596   5.911   3.379  1.0549  1.1251 -0.2452
   76MOL0     H10463   6.663   6.004   3.527  0.6367 -2.4401  0.3881
   76MOL0     H10464   6.520   6.207   3.409 -0.3053 -1.0613  1.1620
   76MOL0     H10465   6.519   6.101   3.269 -0.3995 -0.8830  0.2113
   76MOL0     H10466   6.755   6.189   3.426 -2.4805 -1.9948  1.4736
   76MOL0     H10467   6.709   6.264   3.266  1.1693 -0.1395 -0.4483
   76MOL0     H10468   5.796   6.369   3.576 -2.0173  2.6283  0.2250
   76MOL0     H10469   5.544   6.359   3.613  0.3228  2.3439  1.3806
   76MOL0     H10470   5.196   6.296   3.717 -1.7358 -1.3098 -1.1287
   76MOL0     H10471   4.966   6.268   3.695 -0.7556 -0.3010  0.7352
   76MOL0     H10472   3.359   5.821   3.842 -1.7371 -2.0119  0.6176
   76MOL0     H10473   3.184   5.996   3.845  0.2862  1.4432  1.1337
   76MOL0     H10474   2.976   6.239   3.883  2.0047  0.9874  2.4386
   76MOL0     H10475   2.800   6.382   3.797 -0.9990  0.4397 -0.3449
   76MOL0     H10476   2.630   6.589   3.777  2.0010 -0.5758  0.8114
   76MOL0     H10477   2.586   6.427   3.749  1.8733 -0.9373  2.5875
   76MOL0     H10478   2.385   6.545   3.704  2.2334  0.1788 -1.0276
   76MOL0     H10479   2.417   6.661   3.835  5.5930  0.2458 -1.2968
   76MOL0     H10480   2.349   6.370   3.913  1.6123  0.3113 -0.5858
   76MOL0     H10481   2.330   6.502   4.010 -2.5948 -4.0321  2.0061
   76MOL0     H10482   2.118   6.383   3.914 -0.2900  0.4569  2.8869
   76MOL0     H10483   2.158   6.466   3.760 -4.0206 -2.9392 -0.0089
   76MOL0     H10484   1.968   6.731   4.035 -2.7028 -1.6948 -1.3860
   76MOL0     H10485   2.627   6.415   4.190  1.9239  0.8289  1.2575
   76MOL0     H10486   2.788   6.153   4.330 -0.8076  0.3453 -1.9909
   76MOL0     H10487   2.876   6.302   4.389 -0.0513  0.8876  0.6861
   76MOL0     H10488   2.705   6.313   4.351 -1.1072 -0.4183 -3.2830
   77MOL0     O10489   7.411   0.409   0.445 -0.5154  0.1421 -0.4160
   77MOL0     C10490   7.378   0.454   0.554 -0.9807  0.1834 -0.2856
   77MOL0     O10491   7.467   0.532   0.631 -0.3383  0.0905  0.4213
   77MOL0     C10492   7.592   0.560   0.584 -0.4756 -0.1860  0.4669
   77MOL0     C10493   7.680   0.462   0.583 -0.6204  0.9045  0.0949
   77MOL0     C10494   7.804   0.475   0.515 -0.9117 -0.6348  0.0133
   77MOL0     C10495   7.838   0.602   0.455 -0.0677  0.2275 -0.2862
   77MOL0     O10496   7.963   0.614   0.406 -0.0801  0.2030  0.2948
   77MOL0     C10497   8.050   0.499   0.377 -0.2465  0.0490 -0.3221
   77MOL0     C10498   8.182   0.546   0.309 -0.2080  0.3079  0.5806
   77MOL0     C10499   8.147   0.653   0.196  0.2203 -0.0737  0.2247
   77MOL0     C10500   8.278   0.677   0.114 -0.2944 -0.8723 -0.3376
   77MOL0     C10501   8.241   0.774   0.011 -0.0349 -0.1027  0.2715
   77MOL0     C10502   8.353   0.811  -0.089 -0.8988 -0.2459  0.1825
   77MOL0     C10503   8.392   0.693  -0.183  0.7966 -0.2805  0.1442
   77MOL0     C10504   8.516   0.721  -0.265  0.3140 -0.0879  0.4519
   77MOL0     N10505   8.486   0.815  -0.378  0.0671 -0.5788 -0.3674
   77MOL0     C10506   8.485   0.951  -0.355 -0.3521  0.3538  1.2721
   77MOL0     C10507   8.465   1.001  -0.477  0.8624 -0.3030  0.2434
   77MOL0     C10508   8.444   1.146  -0.501 -0.7366 -0.7098  0.3762
   77MOL0     C10509   8.557   1.219  -0.580 -0.8115  0.6446 -0.5230
   77MOL0     C10510   8.552   1.183  -0.726 -0.8517  0.1756  0.1240
   77MOL0     C10511   8.691   1.196  -0.779  0.7058 -0.0900 -0.8380
   77MOL0     O10512   8.697   1.164  -0.917  0.1938  0.6677 -0.2101
   77MOL0     C10513   8.722   1.035  -0.957 -0.3088  0.4017  0.5704
   77MOL0     C10514   8.767   1.013  -1.085  0.0431 -1.1806 -0.4634
   77MOL0     C10515   8.790   0.889  -1.139 -0.8834 -0.2150  0.6339
   77MOL0     C10516   8.841   0.901  -1.283  0.1782 -0.3660  0.2416
   77MOL0     C10517   8.760   0.770  -1.069 -0.1323 -0.4962  0.4263
   77MOL0     C10518   8.757   0.639  -1.128 -0.9404 -0.4247  0.5195
   77MOL0     O10519   8.837   0.628  -1.233 -0.0203  0.1457 -0.3380
   77MOL0     C10520   8.845   0.509  -1.309  0.9740 -0.5338  0.1390
   77MOL0     C10521   8.825   0.379  -1.273 -0.2163  0.2537 -0.2348
   77MOL0     C10522   8.860   0.270  -1.356  0.6554 -0.6752 -0.5732
   77MOL0     C10523   8.912   0.291  -1.485  0.0330  0.0851 -0.1899
   77MOL0     O10524   8.949   0.198  -1.575 -0.4072  0.0209  0.3091
   77MOL0     C10525   8.972   0.069  -1.524 -0.2926  0.2618  0.5784
   77MOL0     C10526   9.055  -0.011  -1.624 -0.7899 -0.4820 -0.4598
   77MOL0     C10527   9.118  -0.135  -1.553 -0.1010  0.4566 -0.3296
   77MOL0     C10528   9.205  -0.220  -1.647  0.0643  0.0306 -0.7208
   77MOL0     C10529   9.309  -0.303  -1.566  0.0809  0.1394  0.5776
   77MOL0     C10530   9.401  -0.368  -1.672 -0.6229 -0.1409 -0.2523
   77MOL0     C10531   9.484  -0.474  -1.591 -0.3862 -0.4616 -0.5118
   77MOL0     C10532   9.629  -0.429  -1.564 -0.0680  0.3020 -0.8084
   77MOL0    Cl10533   9.715  -0.553  -1.465 -0.1085  0.3986  0.4596
   77MOL0     C10534   8.921   0.420  -1.522  0.0646  0.6128  0.5080
   77MOL0     C10535   8.882   0.525  -1.442  0.4526  0.2818 -0.8124
   77MOL0     O10536   8.694   0.552  -1.069  0.1559  0.5692 -0.1159
   77MOL0     C10537   8.730   0.791  -0.927 -0.1126 -0.3273  0.3717
   77MOL0     C10538   8.726   0.922  -0.868  0.3889  0.7924  0.2004
   77MOL0     N10539   8.442   0.897  -0.564 -0.5556 -1.4479  0.7279
   77MOL0     N10540   8.455   0.789  -0.502 -0.2774  1.1268 -0.6279
   77MOL0     C10541   7.739   0.709   0.462 -0.0599 -0.0052  0.2451
   77MOL0     C10542   7.614   0.686   0.530 -0.4983  0.1841  0.8877
   77MOL0     C10543   7.242   0.408   0.604 -0.2021  0.6181 -0.4603
   77MOL0     C10544   7.168   0.322   0.513 -0.4112 -0.1298 -0.8556
   77MOL0     C10545   7.053   0.260   0.559  0.0204  0.0826  0.3474
   77MOL0     C10546   6.980   0.310   0.671  0.7752  0.9847  0.6351
   77MOL0     O10547   6.849   0.269   0.710  0.4935  0.0010 -0.3268
   77MOL0     C10548   6.791   0.149   0.656  0.4596  0.3206 -0.1120
   77MOL0     C10549   6.732   0.158   0.515  0.5092 -0.1429 -0.3926
   77MOL0     C10550   6.631   0.044   0.502  0.1422 -0.0582  0.3312
   77MOL0     C10551   6.563   0.013   0.366  0.2816  0.4254 -0.3727
   77MOL0     C10552   6.651  -0.071   0.284  0.3030 -0.1258 -0.3897
   77MOL0     C10553   6.710  -0.159   0.219  0.9158  0.2235 -0.4028
   77MOL0     C10554   7.050   0.396   0.759 -0.8677  0.4238 -0.4839
   77MOL0     C10555   7.186   0.444   0.729 -0.8864  0.3173  0.1988
   77MOL0     C10556   7.261   0.525   0.838  0.7363 -0.4274 -0.4240
   77MOL0     H10557   7.647   0.370   0.631  0.3493  0.5865  0.1863
   77MOL0     H10558   7.879   0.396   0.509  0.5404  0.6753  0.0191
   77MOL0     H10559   7.998   0.438   0.303 -1.6990 -1.6467  1.9598
   77MOL0     H10560   8.074   0.445   0.469  0.3817  1.9830  0.7071
   77MOL0     H10561   8.241   0.600   0.383  1.9069  1.1087 -1.5532
   77MOL0     H10562   8.239   0.469   0.257 -0.8467  1.4239 -1.9138
   77MOL0     H10563   8.069   0.609   0.133  1.5458 -1.8253 -0.2863
   77MOL0     H10564   8.100   0.743   0.237 -3.2478 -0.9465 -1.4596
   77MOL0     H10565   8.357   0.726   0.172 -0.6649 -0.5604 -0.0939
   77MOL0     H10566   8.318   0.586   0.067  0.1775 -0.4296 -0.8057
   77MOL0     H10567   8.213   0.866   0.064 -0.2466  1.3869 -2.2450
   77MOL0     H10568   8.156   0.744  -0.051  0.3620  0.5362 -0.6051
   77MOL0     H10569   8.302   0.884  -0.152 -1.1729 -0.5326  0.0673
   77MOL0     H10570   8.440   0.855  -0.040 -0.5827  0.9161 -1.3515
   77MOL0     H10571   8.309   0.659  -0.246 -0.6810 -0.7427  2.2315
   77MOL0     H10572   8.424   0.613  -0.116  3.6827  0.9365  0.3350
   77MOL0     H10573   8.596   0.760  -0.201 -0.5964 -2.2743  3.1519
   77MOL0     H10574   8.540   0.623  -0.307 -1.9649  0.0640 -1.4397
   77MOL0     H10575   8.497   1.006  -0.263  0.4473 -0.3032  1.5714
   77MOL0     H10576   8.457   1.189  -0.401 -1.3085  1.0318 -0.2743
   77MOL0     H10577   8.346   1.172  -0.541  0.3787  2.0483 -0.8184
   77MOL0     H10578   8.533   1.325  -0.570  0.5122  1.0224 -1.1476
   77MOL0     H10579   8.650   1.180  -0.538 -2.3695 -2.5216  0.3138
   77MOL0     H10580   8.527   1.077  -0.736  2.3981 -0.6380 -0.2578
   77MOL0     H10581   8.487   1.248  -0.785 -2.3022 -0.5659  0.8450
   77MOL0     H10582   8.731   1.296  -0.765 -2.3995  1.0334  1.1673
   77MOL0     H10583   8.749   1.123  -0.723 -1.1759 -1.9215 -1.1183
   77MOL0     H10584   8.784   1.104  -1.142  4.3902 -0.2619  1.9198
   77MOL0     H10585   8.831   1.004  -1.319  1.5793 -0.4101 -0.3570
   77MOL0     H10586   8.795   0.837  -1.359  1.0317  0.0488 -0.6597
   77MOL0     H10587   8.946   0.877  -1.303 -0.2438 -0.0647 -3.0143
   77MOL0     H10588   8.798   0.365  -1.169 -2.4372  2.8176 -0.3611
   77MOL0     H10589   8.842   0.171  -1.316 -0.5573 -0.4853 -0.6189
   77MOL0     H10590   9.032   0.077  -1.433  1.0001 -4.6158  0.4125
   77MOL0     H10591   8.870   0.029  -1.517 -0.3576  0.1302 -0.9428
   77MOL0     H10592   8.990  -0.039  -1.707  0.4313  0.0374 -1.6305
   77MOL0     H10593   9.133   0.054  -1.665 -1.9655  1.6804  0.5326
   77MOL0     H10594   9.049  -0.199  -1.497 -0.2595 -1.5637 -2.6762
   77MOL0     H10595   9.179  -0.089  -1.475 -0.8757  0.5667  0.2241
   77MOL0     H10596   9.257  -0.154  -1.717 -3.7419  3.3932 -0.7542
   77MOL0     H10597   9.141  -0.281  -1.711  1.5540 -0.8840 -1.3953
   77MOL0     H10598   9.376  -0.252  -1.496  0.0436 -1.8034  2.1116
   77MOL0     H10599   9.257  -0.382  -1.512  0.2320 -0.8877 -0.7476
   77MOL0     H10600   9.451  -0.294  -1.735 -1.1134  0.8722  0.5399
   77MOL0     H10601   9.342  -0.424  -1.745  0.8265  1.1395 -2.5323
   77MOL0     H10602   9.489  -0.565  -1.652 -2.3203  0.2217 -1.7951
   77MOL0     H10603   9.436  -0.501  -1.497  1.0775  0.5759  0.5851
   77MOL0     H10604   9.630  -0.333  -1.511 -0.6577 -0.3418  0.3971
   77MOL0     H10605   9.683  -0.410  -1.657 -0.6872  1.9126 -0.8778
   77MOL0     H10606   8.958   0.446  -1.620 -0.3902 -2.8149 -0.7160
   77MOL0     H10607   8.899   0.630  -1.465  0.0483  0.5896  0.2313
   77MOL0     H10608   8.691   0.713  -0.861  2.0211 -2.4478 -0.7144
   77MOL0     H10609   8.683   0.936  -0.769 -1.1847 -0.5914 -0.2299
   77MOL0     H10610   7.767   0.805   0.420  2.2320 -0.1412  1.2954
   77MOL0     H10611   7.541   0.764   0.548  0.8874  1.9054 -0.5327
   77MOL0     H10612   7.227   0.294   0.427  0.2006  1.0488 -0.8437
   77MOL0     H10613   7.003   0.195   0.489  2.3310 -1.4506  0.0075
   77MOL0     H10614   6.870   0.073   0.655  0.5095  0.3732 -0.8392
   77MOL0     H10615   6.715   0.115   0.727  0.9302 -0.0435  0.2260
   77MOL0     H10616   6.810   0.150   0.439  1.9528  0.8844  0.9129
   77MOL0     H10617   6.675   0.251   0.504  3.3563  1.6332 -1.4352
   77MOL0     H10618   6.678  -0.048   0.537 -1.0246  0.5825  4.0326
   77MOL0     H10619   6.554   0.074   0.573  1.8483  3.0037  1.0677
   77MOL0     H10620   6.530   0.104   0.315  0.4302  0.7569  0.1138
   77MOL0     H10621   6.477  -0.052   0.385 -0.3362  0.9156 -1.3701
   77MOL0     H10622   6.748  -0.228   0.148  0.9558 -0.2582  0.0791
   77MOL0     H10623   7.007   0.440   0.849  1.2250  0.3654  0.5934
   77MOL0     H10624   7.288   0.628   0.814  2.9618 -0.0671  2.9204
   77MOL0     H10625   7.195   0.530   0.925  1.1773  0.2414 -0.1150
   77MOL0     H10626   7.360   0.480   0.846  1.7593  0.6631 -4.4174
   78MOL0     O10627   4.296   7.826   4.980  0.0280  0.3938  0.0738
   78MOL0     C10628   4.356   7.748   5.050  0.1457 -1.0142 -0.0065
   78MOL0     O10629   4.485   7.738   5.053 -0.2807  0.2623  0.1137
   78MOL0     C10630   4.570   7.810   4.974  0.6337 -0.0739  0.1010
   78MOL0     C10631   4.663   7.901   5.025 -0.2475  0.1438  0.8841
   78MOL0     C10632   4.739   7.983   4.945 -0.6133  0.4763  0.2722
   78MOL0     C10633   4.732   7.979   4.801  0.3712 -0.3402 -0.2782
   78MOL0     O10634   4.823   8.044   4.717 -0.2277 -0.3120  0.2742
   78MOL0     C10635   4.784   8.075   4.583 -0.2439 -0.0097 -0.3944
   78MOL0     C10636   4.859   8.194   4.534  1.3059  0.2760 -0.2455
   78MOL0     C10637   5.009   8.159   4.518 -0.0666 -0.4952  0.5116
   78MOL0     C10638   5.104   8.261   4.451 -0.0017 -0.1562 -0.0759
   78MOL0     C10639   5.248   8.201   4.454  0.2339 -0.4813  0.3477
   78MOL0     C10640   5.335   8.308   4.392 -0.1887  0.0611 -0.6061
   78MOL0     C10641   5.473   8.247   4.388 -0.2702 -0.6762  0.2583
   78MOL0     C10642   5.529   8.205   4.526 -0.4774  0.0854  0.7200
   78MOL0     N10643   5.679   8.207   4.527  0.1758 -0.1386  0.7937
   78MOL0     C10644   5.759   8.117   4.463  0.1995 -0.1323 -0.3461
   78MOL0     C10645   5.881   8.165   4.456 -0.8659  0.2390 -0.0071
   78MOL0     C10646   6.000   8.097   4.403 -1.2332  0.4585  0.4703
   78MOL0     C10647   6.058   8.183   4.288  0.0978 -0.9645 -0.1473
   78MOL0     C10648   6.156   8.095   4.208 -0.6473  0.3566 -0.2039
   78MOL0     C10649   6.267   8.167   4.134 -0.1657 -0.0066  0.5291
   78MOL0     O10650   6.334   8.259   4.225  0.1218  0.2001 -0.3082
   78MOL0     C10651   6.451   8.320   4.170 -0.2428  0.5275  0.5013
   78MOL0     C10652   6.497   8.309   4.039 -0.0479 -0.0590 -1.2467
   78MOL0     C10653   6.608   8.380   3.993 -1.6498  0.1926  0.7145
   78MOL0     C10654   6.633   8.364   3.842 -0.2956  0.0071  0.3998
   78MOL0     C10655   6.685   8.454   4.079 -0.9223  0.0864  0.9541
   78MOL0     C10656   6.809   8.534   4.039  0.0839  1.0552  0.1193
   78MOL0     O10657   6.797   8.673   4.063 -0.6982 -0.1960 -0.0784
   78MOL0     C10658   6.911   8.757   4.056 -0.1959  0.1376 -0.5482
   78MOL0     C10659   6.921   8.842   3.949 -0.6145 -0.3980 -0.3908
   78MOL0     C10660   7.034   8.919   3.916 -0.2036 -0.3624  0.4055
   78MOL0     C10661   7.137   8.919   4.016  0.2969 -0.1998  0.0624
   78MOL0     O10662   7.251   8.993   3.983 -0.6046  0.1495  0.4878
   78MOL0     C10663   7.360   8.985   4.073 -0.8832  0.4557  0.1072
   78MOL0     C10664   7.460   9.090   4.014 -0.4433  0.0469 -0.4848
   78MOL0     C10665   7.585   9.109   4.097  0.3164  0.2940 -0.2181
   78MOL0     C10666   7.682   8.985   4.074 -0.1435 -0.2422 -0.1869
   78MOL0     C10667   7.820   9.017   4.120 -0.9715  0.4286 -0.8754
   78MOL0     C10668   7.901   8.883   4.121 -1.2100 -0.3183  0.0994
   78MOL0     C10669   7.879   8.796   4.235 -0.2778 -0.5615 -0.4162
   78MOL0     C10670   7.949   8.663   4.210 -0.3889  0.3632  0.1318
   78MOL0    Cl10671   8.120   8.680   4.161 -0.3131 -0.0975  0.0652
   78MOL0     C10672   7.130   8.839   4.134  0.7638 -0.6868  0.5839
   78MOL0     C10673   7.012   8.764   4.157 -0.4582 -0.2306  1.1860
   78MOL0     O10674   6.909   8.474   3.990  0.0483 -0.5530  0.2312
   78MOL0     C10675   6.642   8.464   4.210 -0.5987  0.0522  0.4146
   78MOL0     C10676   6.538   8.390   4.260  0.6038 -0.7233  0.7038
   78MOL0     N10677   5.871   8.289   4.514 -0.5559  0.5662  0.3021
   78MOL0     N10678   5.748   8.316   4.551  0.1016  0.5859  0.5111
   78MOL0     C10679   4.644   7.889   4.752 -0.4604 -0.8438  0.1580
   78MOL0     C10680   4.557   7.806   4.833  0.4974  0.3094  0.0321
   78MOL0     C10681   4.276   7.672   5.154 -0.7537  0.3738 -0.3902
   78MOL0     C10682   4.138   7.662   5.129  0.4080 -0.2429 -0.3093
   78MOL0     C10683   4.052   7.612   5.227  0.4500 -0.5905 -0.5167
   78MOL0     C10684   4.090   7.579   5.352  0.4228  1.2395  0.2664
   78MOL0     O10685   4.008   7.539   5.455  0.1709  0.0516 -0.0168
   78MOL0     C10686   3.885   7.485   5.426  0.1389  0.4352  0.7645
   78MOL0     C10687   3.764   7.583   5.425 -0.0663 -0.1727 -0.0813
   78MOL0     C10688   3.763   7.681   5.545 -0.1766  0.1449 -0.0134
   78MOL0     C10689   3.765   7.615   5.686 -0.3610 -0.4952  0.2142
   78MOL0     C10690   3.638   7.534   5.714 -0.3412  0.8284 -0.1501
   78MOL0     C10691   3.542   7.467   5.747 -0.4592 -0.5696  0.4761
   78MOL0     C10692   4.226   7.590   5.380  0.6110  0.0740 -0.4619
   78MOL0     C10693   4.321   7.632   5.288  0.3310  0.4808 -0.3898
   78MOL0     C10694   4.463   7.646   5.331  0.3362  1.0197 -0.5837
   78MOL0     H10695   4.675   7.919   5.131  2.5371  3.0064  0.2345
   78MOL0     H10696   4.813   8.044   4.996 -0.9973  0.8261  0.4119
   78MOL0     H10697   4.679   8.105   4.574  0.3767  1.8116 -2.2616
   78MOL0     H10698   4.791   7.990   4.514  0.1162  0.9393 -1.5557
   78MOL0     H10699   4.813   8.233   4.443  0.8160  1.2774  0.4119
   78MOL0     H10700   4.839   8.283   4.594  0.1733  2.4346 -3.5321
   78MOL0     H10701   5.063   8.146   4.612 -1.2634 -0.4122  1.2269
   78MOL0     H10702   5.013   8.063   4.465 -1.2586 -0.4552  0.3300
   78MOL0     H10703   5.079   8.282   4.347  1.5723  0.9921 -0.2521
   78MOL0     H10704   5.097   8.357   4.503  0.2189 -0.6752  0.9455
   78MOL0     H10705   5.253   8.105   4.402  0.9860 -0.5243  0.4851
   78MOL0     H10706   5.264   8.202   4.562  1.0526  3.4369  0.3314
   78MOL0     H10707   5.303   8.317   4.287  1.5036 -0.6936 -1.2327
   78MOL0     H10708   5.322   8.398   4.453 -0.3789 -0.3319 -0.0610
   78MOL0     H10709   5.536   8.328   4.352 -1.3366  0.7714  1.5254
   78MOL0     H10710   5.475   8.163   4.318 -0.4044  0.2835 -0.9400
   78MOL0     H10711   5.490   8.282   4.592 -2.1816  1.1510 -1.3934
   78MOL0     H10712   5.491   8.103   4.541  1.5281 -0.7535  0.4302
   78MOL0     H10713   5.726   8.020   4.426 -2.4367  0.8388 -0.7163
   78MOL0     H10714   5.977   7.996   4.370  1.6647 -0.0917 -0.1756
   78MOL0     H10715   6.072   8.076   4.483 -1.6560  0.2132  0.7929
   78MOL0     H10716   5.972   8.203   4.223  0.6361  3.0127  0.1625
   78MOL0     H10717   6.111   8.271   4.326 -1.2542 -0.6316  1.0698
   78MOL0     H10718   6.195   8.017   4.275  0.8071  0.5786 -0.7763
   78MOL0     H10719   6.096   8.036   4.138  2.7881 -1.0565 -2.1792
   78MOL0     H10720   6.338   8.098   4.086 -0.6567 -0.1441 -0.0102
   78MOL0     H10721   6.222   8.229   4.056 -1.2993 -1.9113 -0.3949
   78MOL0     H10722   6.423   8.274   3.967 -1.4488  2.7607 -1.3263
   78MOL0     H10723   6.624   8.465   3.802 -2.9927  0.0575  0.9137
   78MOL0     H10724   6.550   8.313   3.791  0.0096  1.9065 -2.2017
   78MOL0     H10725   6.731   8.318   3.827  0.3853  1.4895  0.1118
   78MOL0     H10726   6.837   8.850   3.880  0.1916 -1.0546 -1.4751
   78MOL0     H10727   7.046   8.971   3.822  1.2213 -1.2711  0.0598
   78MOL0     H10728   7.335   9.023   4.173  0.7321  2.2455 -0.1128
   78MOL0     H10729   7.398   8.883   4.069  0.8862  1.0991 -0.1879
   78MOL0     H10730   7.488   9.063   3.912  1.0523  3.1514 -1.0228
   78MOL0     H10731   7.406   9.185   4.003  1.9930  1.4702 -0.8339
   78MOL0     H10732   7.561   9.109   4.204 -1.6355 -0.6299 -0.6062
   78MOL0     H10733   7.639   9.198   4.065  0.4981 -0.7009 -2.9025
   78MOL0     H10734   7.696   8.966   3.967  3.4053 -1.7087  0.4090
   78MOL0     H10735   7.643   8.898   4.128  1.0908 -1.4894 -1.2358
   78MOL0     H10736   7.864   9.094   4.056  0.2656  0.0835 -0.4643
   78MOL0     H10737   7.824   9.064   4.219 -0.2540  0.0506 -0.7244
   78MOL0     H10738   8.007   8.907   4.110 -1.6376  1.4982 -0.3280
   78MOL0     H10739   7.894   8.826   4.028  1.8324 -2.1900  0.8506
   78MOL0     H10740   7.774   8.773   4.256  0.2777 -1.8282  1.1286
   78MOL0     H10741   7.912   8.851   4.324  0.1990  2.3095 -2.2247
   78MOL0     H10742   7.899   8.612   4.127 -2.9433 -0.8229  2.2726
   78MOL0     H10743   7.930   8.601   4.298 -0.1978  1.9315  1.3242
   78MOL0     H10744   7.213   8.811   4.198 -0.2360 -2.7881  1.0702
   78MOL0     H10745   7.009   8.705   4.249 -0.8064 -1.2126  0.5628
   78MOL0     H10746   6.693   8.532   4.278  1.2586 -2.0000  1.1714
   78MOL0     H10747   6.505   8.399   4.363  2.1160  2.6209  1.0184
   78MOL0     H10748   4.646   7.877   4.644  1.5960 -3.7179  0.4026
   78MOL0     H10749   4.488   7.732   4.794  2.0234 -2.1198  1.6935
   78MOL0     H10750   4.100   7.686   5.030  3.9982  0.7181 -1.6002
   78MOL0     H10751   3.946   7.600   5.205  0.6411  1.2397 -2.7145
   78MOL0     H10752   3.897   7.423   5.336  2.6989 -0.6820  1.7683
   78MOL0     H10753   3.869   7.413   5.506  1.4495 -0.3644  0.3439
   78MOL0     H10754   3.666   7.534   5.430  0.0539 -0.5993 -1.4285
   78MOL0     H10755   3.747   7.633   5.330  1.1431 -2.9802 -1.9132
   78MOL0     H10756   3.861   7.729   5.538  0.6377 -1.1676  1.6748
   78MOL0     H10757   3.690   7.759   5.524 -1.2989 -1.0320 -0.6231
   78MOL0     H10758   3.773   7.691   5.765 -1.1853 -0.3928  0.2161
   78MOL0     H10759   3.851   7.549   5.701  1.9796  2.6057  1.5668
   78MOL0     H10760   3.473   7.400   5.793  0.5238 -1.9766 -0.0219
   78MOL0     H10761   4.238   7.574   5.487 -1.7209  0.4420 -0.0924
   78MOL0     H10762   4.475   7.617   5.436 -1.5581 -1.4477 -0.9546
   78MOL0     H10763   4.530   7.580   5.273  0.4741 -0.4699  1.1770
   78MOL0     H10764   4.492   7.750   5.346 -1.3357  1.0574  3.6898
   79MOL0     O10765   3.184   7.951   0.321  0.1677 -0.1249 -0.8254
   79MOL0     C10766   3.132   7.998   0.222 -0.8987 -0.3859 -0.2024
   79MOL0     O10767   3.167   8.112   0.155  0.2951 -1.0666  0.5700
   79MOL0     C10768   3.305   8.156   0.141 -0.0853  0.3046 -0.4593
   79MOL0     C10769   3.330   8.256   0.040 -0.5330  0.4753  0.1020
   79MOL0     C10770   3.466   8.282   0.010 -0.0182 -0.2965 -0.6442
   79MOL0     C10771   3.572   8.226   0.079  0.5454 -0.0569 -0.6779
   79MOL0     O10772   3.692   8.272   0.053 -0.0292 -0.2101  0.0568
   79MOL0     C10773   3.716   8.412   0.087 -0.2130 -0.7933 -0.1500
   79MOL0     C10774   3.780   8.452   0.224  0.8312  0.2109  0.2756
   79MOL0     C10775   3.910   8.377   0.255 -0.4300 -0.0229 -0.5704
   79MOL0     C10776   3.999   8.355   0.131  0.3306 -0.0240  0.0873
   79MOL0     C10777   4.140   8.377   0.156  0.3492  0.1487 -0.6637
   79MOL0     C10778   4.178   8.532   0.144  0.9350  0.5649  0.3618
   79MOL0     C10779   4.318   8.561   0.214 -0.3106 -0.9045  1.0986
   79MOL0     C10780   4.422   8.490   0.142 -0.1226  0.9421  0.1902
   79MOL0     N10781   4.548   8.526   0.193 -0.4772 -0.5778 -0.3006
   79MOL0     C10782   4.625   8.434   0.250  0.4396  0.4717 -0.6807
   79MOL0     C10783   4.748   8.483   0.273 -0.2499 -0.0602 -0.2281
   79MOL0     C10784   4.863   8.384   0.320  0.0070 -0.3145  0.6970
   79MOL0     C10785   4.998   8.443   0.285  0.1755  0.2114  0.1243
   79MOL0     C10786   5.107   8.336   0.309  0.0799  0.1563 -0.0250
   79MOL0     C10787   5.235   8.379   0.254 -0.3206 -0.1580  0.2672
   79MOL0     O10788   5.280   8.508   0.290  0.5789  0.2799  0.8762
   79MOL0     C10789   5.415   8.518   0.326 -0.3672 -0.1883 -0.0132
   79MOL0     C10790   5.523   8.440   0.277 -0.7160  0.1631  0.8512
   79MOL0     C10791   5.655   8.463   0.302 -0.9791 -0.0478  0.1612
   79MOL0     C10792   5.759   8.386   0.224  0.4716  0.5135 -0.4725
   79MOL0     C10793   5.694   8.561   0.393  0.7952 -0.1151 -0.1152
   79MOL0     C10794   5.838   8.591   0.437 -0.8288  0.0834  0.1988
   79MOL0     O10795   5.839   8.680   0.545  0.3105  0.3289  0.0531
   79MOL0     C10796   5.951   8.703   0.615 -0.2758 -0.0778  0.1270
   79MOL0     C10797   6.056   8.608   0.640  0.0528  0.2407  0.8790
   79MOL0     C10798   6.167   8.646   0.722 -0.2898  0.3383  0.6874
   79MOL0     C10799   6.181   8.783   0.769  0.3217  0.8680  0.6618
   79MOL0     O10800   6.281   8.825   0.861 -0.1241  1.0215 -0.2257
   79MOL0     C10801   6.395   8.737   0.881 -0.6610  0.2796 -1.0837
   79MOL0     C10802   6.491   8.811   0.987  0.2857  0.0980 -0.5353
   79MOL0     C10803   6.551   8.957   0.936 -0.3792 -0.8704 -0.2715
   79MOL0     C10804   6.599   9.049   1.050 -0.3566  0.3428 -0.2855
   79MOL0     C10805   6.678   9.174   1.018  0.4300 -0.1593 -0.0464
   79MOL0     C10806   6.712   9.267   1.132 -0.2103 -0.0729  0.1773
   79MOL0     C10807   6.814   9.377   1.092 -0.1885 -0.0733  0.8616
   79MOL0     C10808   6.960   9.323   1.064  0.7464 -0.7379  0.0495
   79MOL0    Cl10809   7.019   9.420   0.923  0.6873 -0.6531  0.1945
   79MOL0     C10810   6.080   8.872   0.736 -0.1807  0.2360 -0.6333
   79MOL0     C10811   5.962   8.829   0.668 -0.6874  0.3660  0.5240
   79MOL0     O10812   5.938   8.542   0.381 -0.1540 -0.0119 -0.0141
   79MOL0     C10813   5.586   8.632   0.455  0.2682  0.4690  0.1637
   79MOL0     C10814   5.454   8.614   0.420  0.6490 -0.2323  0.0488
   79MOL0     N10815   4.748   8.614   0.207 -0.7536  0.8138 -0.0243
   79MOL0     N10816   4.632   8.624   0.156  0.3997 -0.6811 -0.0050
   79MOL0     C10817   3.542   8.150   0.189 -1.2858 -0.1266  0.8515
   79MOL0     C10818   3.413   8.105   0.214 -0.0228 -0.0663 -0.4934
   79MOL0     C10819   3.020   7.932   0.158  0.1303 -0.0313 -0.5891
   79MOL0     C10820   2.905   7.906   0.234 -0.3483  1.0855 -0.1978
   79MOL0     C10821   2.792   7.859   0.174  0.4184  0.2847  0.4204
   79MOL0     C10822   2.786   7.830   0.036  0.0494  0.4132 -0.0903
   79MOL0     O10823   2.683   7.767  -0.033 -0.8054  0.3633  0.4674
   79MOL0     C10824   2.557   7.738   0.023 -0.6498  0.3240 -0.2645
   79MOL0     C10825   2.462   7.854   0.004 -0.7490 -0.0219  0.1617
   79MOL0     C10826   2.471   7.890  -0.139  1.2730 -0.4799  0.1019
   79MOL0     C10827   2.343   7.962  -0.182 -0.0198 -0.2908  0.4616
   79MOL0     C10828   2.222   7.877  -0.201 -0.1214 -0.2951 -0.5572
   79MOL0     C10829   2.138   7.800  -0.216  0.4074  0.4354 -0.1609
   79MOL0     C10830   2.903   7.851  -0.033  0.5417  0.6112  0.3698
   79MOL0     C10831   3.015   7.910   0.018 -0.3549  0.1342  0.6899
   79MOL0     C10832   3.139   7.923  -0.084 -0.4386 -0.0517  0.1418
   79MOL0     H10833   3.257   8.309  -0.021  0.1796  1.5470  0.1386
   79MOL0     H10834   3.499   8.349  -0.068 -0.8180  0.5004 -0.3188
   79MOL0     H10835   3.631   8.479   0.073  0.8110  0.1243 -2.5024
   79MOL0     H10836   3.785   8.440   0.007 -1.4627 -0.9223 -1.2914
   79MOL0     H10837   3.802   8.559   0.227 -0.0766  0.3943  0.6587
   79MOL0     H10838   3.703   8.432   0.299  2.4541  0.2779  2.0390
   79MOL0     H10839   3.963   8.437   0.331 -0.5329  1.4548 -1.6299
   79MOL0     H10840   3.872   8.285   0.299 -0.7951 -0.2451 -1.3416
   79MOL0     H10841   3.977   8.249   0.116  0.9418 -0.5005  2.3229
   79MOL0     H10842   3.968   8.403   0.037 -0.0881 -2.3091 -1.0080
   79MOL0     H10843   4.197   8.315   0.087 -1.6569 -1.5217 -0.9355
   79MOL0     H10844   4.176   8.344   0.254  3.5652 -1.0204 -2.1062
   79MOL0     H10845   4.179   8.564   0.040 -1.6424  0.8970  0.3727
   79MOL0     H10846   4.092   8.591   0.178  1.0076  0.5970  0.4946
   79MOL0     H10847   4.316   8.539   0.321 -2.4449  2.0110  1.7962
   79MOL0     H10848   4.330   8.670   0.216 -1.6823 -0.7421  1.6397
   79MOL0     H10849   4.405   8.384   0.165  0.6524  1.4117  3.4794
   79MOL0     H10850   4.414   8.497   0.033 -0.9092 -0.1332  0.1567
   79MOL0     H10851   4.592   8.334   0.275  2.3001  0.1314  0.5587
   79MOL0     H10852   4.863   8.288   0.266  3.5277 -0.4906  0.7817
   79MOL0     H10853   4.835   8.363   0.423 -0.9410  0.5062  0.6233
   79MOL0     H10854   5.000   8.474   0.181 -2.8304 -2.2608 -0.8103
   79MOL0     H10855   5.036   8.528   0.343  0.8363 -1.0417  1.6214
   79MOL0     H10856   5.120   8.321   0.417  0.9495 -2.0606 -0.3971
   79MOL0     H10857   5.085   8.239   0.265  1.5780  0.3672 -1.3258
   79MOL0     H10858   5.301   8.303   0.298 -2.5771 -2.0351  0.5568
   79MOL0     H10859   5.234   8.369   0.146 -1.3073  1.4613  0.0976
   79MOL0     H10860   5.512   8.364   0.199 -0.3584  0.2832  0.6783
   79MOL0     H10861   5.822   8.327   0.291  2.0407 -1.2058 -3.2511
   79MOL0     H10862   5.819   8.457   0.165 -0.7963  1.2930 -0.8573
   79MOL0     H10863   5.720   8.317   0.149 -0.9721  0.0735  0.6492
   79MOL0     H10864   6.038   8.505   0.611  2.0015  0.5991 -1.9725
   79MOL0     H10865   6.237   8.569   0.754  0.1169 -0.4305 -1.8235
   79MOL0     H10866   6.349   8.645   0.920  1.5761 -0.3618  0.2239
   79MOL0     H10867   6.456   8.711   0.795  0.7160 -1.1859  0.2577
   79MOL0     H10868   6.432   8.827   1.078  0.8849 -0.9346  0.0509
   79MOL0     H10869   6.571   8.741   1.010 -0.8587 -0.3523  2.5610
   79MOL0     H10870   6.468   9.012   0.891 -0.9741 -1.0132  0.6265
   79MOL0     H10871   6.642   8.944   0.876  0.0727  1.9069 -0.3493
   79MOL0     H10872   6.655   8.979   1.112 -1.7050  0.5088  1.1850
   79MOL0     H10873   6.505   9.073   1.100 -1.2646  3.2550 -3.0423
   79MOL0     H10874   6.770   9.137   0.972 -0.1300 -1.4337 -0.1674
   79MOL0     H10875   6.613   9.224   0.946 -1.2303 -1.9316  0.1643
   79MOL0     H10876   6.744   9.218   1.224 -1.8405 -1.6168 -0.0221
   79MOL0     H10877   6.624   9.316   1.174 -1.1457 -2.6537  1.4668
   79MOL0     H10878   6.814   9.449   1.175  2.0653  0.3237  0.5876
   79MOL0     H10879   6.775   9.429   1.004 -2.8326 -0.0716  1.9544
   79MOL0     H10880   6.951   9.220   1.029 -0.8165  0.1230 -2.3165
   79MOL0     H10881   7.020   9.316   1.156 -1.0753  0.6543  1.4220
   79MOL0     H10882   6.073   8.969   0.785 -1.3213 -0.5840  0.9395
   79MOL0     H10883   5.877   8.896   0.656 -0.6069  0.6588  1.5414
   79MOL0     H10884   5.597   8.697   0.541  0.2456 -1.9461  2.1173
   79MOL0     H10885   5.364   8.659   0.462  0.8085 -0.0933  0.2446
   79MOL0     H10886   3.622   8.143   0.263 -0.0173 -1.7727 -0.5854
   79MOL0     H10887   3.404   8.034   0.296  0.7973 -0.8611 -1.0696
   79MOL0     H10888   2.896   7.916   0.341 -3.1176  0.3594 -0.2965
   79MOL0     H10889   2.707   7.829   0.233 -0.4323 -1.2231 -1.4667
   79MOL0     H10890   2.510   7.647  -0.014  0.5425 -0.4739  0.1253
   79MOL0     H10891   2.573   7.720   0.130 -0.3408  1.2715 -0.1377
   79MOL0     H10892   2.486   7.938   0.069 -1.1020  0.1021  0.1285
   79MOL0     H10893   2.366   7.809   0.028  0.0960 -0.9969  1.9236
   79MOL0     H10894   2.556   7.956  -0.159  0.7983 -0.0931 -0.7029
   79MOL0     H10895   2.491   7.800  -0.199  2.6765 -0.5455  0.6309
   79MOL0     H10896   2.360   8.025  -0.271 -0.8527  1.9718  1.8243
   79MOL0     H10897   2.321   8.033  -0.102 -0.2437  1.4849 -1.0841
   79MOL0     H10898   2.055   7.732  -0.222 -0.2521  1.3331 -2.0993
   79MOL0     H10899   2.903   7.822  -0.138 -0.2428 -0.9960  0.7859
   79MOL0     H10900   3.109   7.872  -0.176  0.2920 -1.3594  0.6116
   79MOL0     H10901   3.160   8.029  -0.098  4.6691 -0.6748  1.2491
   79MOL0     H10902   3.220   7.870  -0.033 -3.3543 -3.2389  1.9674
   80MOL0     O10903   7.429   2.539   6.510  0.0698 -0.2700 -0.0531
   80MOL0     C10904   7.396   2.654   6.497 -0.0881 -0.3514  0.0271
   80MOL0     O10905   7.478   2.762   6.462  0.6526  0.2600 -0.7442
   80MOL0     C10906   7.615   2.735   6.468  0.4094  0.4383 -0.4936
   80MOL0     C10907   7.680   2.794   6.580  0.6444 -0.5095  0.2778
   80MOL0     C10908   7.810   2.753   6.616 -0.3729 -0.2115 -0.1016
   80MOL0     C10909   7.886   2.681   6.518  0.1465  0.4399 -0.2390
   80MOL0     O10910   8.021   2.686   6.540  0.2168 -0.0916 -0.1945
   80MOL0     C10911   8.117   2.643   6.444 -0.3343  0.2608  0.6647
   80MOL0     C10912   8.249   2.694   6.491 -0.2994 -0.5985 -0.3782
   80MOL0     C10913   8.273   2.846   6.472 -0.4200 -0.0383  0.9806
   80MOL0     C10914   8.338   2.909   6.596 -0.3631  0.6832 -0.2822
   80MOL0     C10915   8.406   3.043   6.569  0.4448 -1.0067  0.3629
   80MOL0     C10916   8.470   3.102   6.705 -0.1400 -0.0241 -0.2303
   80MOL0     C10917   8.609   3.044   6.736 -0.0714 -0.4765  0.0614
   80MOL0     C10918   8.642   3.033   6.881 -0.2256  0.6047  0.6254
   80MOL0     N10919   8.717   3.156   6.914 -0.6432 -0.0336  0.0057
   80MOL0     C10920   8.858   3.175   6.894  0.5887 -0.7768  1.2984
   80MOL0     C10921   8.869   3.317   6.883 -0.2315  1.3427 -0.4028
   80MOL0     C10922   9.001   3.389   6.858  0.0483 -0.4224  0.3181
   80MOL0     C10923   9.109   3.354   6.964  0.8141 -0.7496  0.3684
   80MOL0     C10924   9.244   3.335   6.886  0.3529 -0.3008 -0.2455
   80MOL0     C10925   9.275   3.458   6.798 -0.0908 -0.0978  0.2982
   80MOL0     O10926   9.396   3.422   6.731 -0.4114 -0.0880  0.6511
   80MOL0     C10927   9.522   3.438   6.783 -0.0216  0.1098 -0.2963
   80MOL0     C10928   9.535   3.499   6.910 -0.0034 -0.3053  0.1306
   80MOL0     C10929   9.661   3.526   6.960  0.3434 -0.0177 -0.0743
   80MOL0     C10930   9.663   3.596   7.095 -0.1763  0.2683  0.3474
   80MOL0     C10931   9.778   3.503   6.882  0.5487  0.8035  0.1742
   80MOL0     C10932   9.913   3.544   6.931  0.0290 -0.2179  0.6977
   80MOL0     O10933  10.019   3.484   6.873  0.0609  0.4092  0.4676
   80MOL0     C10934  10.143   3.531   6.907  0.0911 -0.4247 -0.5045
   80MOL0     C10935  10.168   3.665   6.875  0.1673  1.2367 -0.1095
   80MOL0     C10936  10.296   3.711   6.904  0.7131  0.1704  0.0491
   80MOL0     C10937  10.391   3.628   6.971 -0.3808 -0.2144  0.1370
   80MOL0     O10938  10.513   3.680   7.007 -1.1536  0.0439 -0.5602
   80MOL0     C10939  10.621   3.586   7.039 -0.2761  0.1607  0.8719
   80MOL0     C10940  10.750   3.667   7.024  0.7387 -0.7434 -0.1304
   80MOL0     C10941  10.867   3.592   7.082  0.2493 -0.1848 -0.3361
   80MOL0     C10942  10.876   3.630   7.233  0.0064 -0.1897 -1.1942
   80MOL0     C10943  10.992   3.548   7.290 -0.2195  0.5459  0.4165
   80MOL0     C10944  11.001   3.544   7.449  0.1109  0.6406  0.1550
   80MOL0     C10945  11.072   3.423   7.512 -0.0803 -0.3198  0.3018
   80MOL0     C10946  11.226   3.440   7.500  0.6388 -0.6458 -0.0673
   80MOL0    Cl10947  11.314   3.332   7.597  0.1398 -0.1824 -0.3011
   80MOL0     C10948  10.362   3.493   7.010  0.7020  0.0616  0.5385
   80MOL0     C10949  10.235   3.453   6.978  0.1746 -0.6938  0.5547
   80MOL0     O10950   9.925   3.639   7.010 -0.3770  0.6347  0.8473
   80MOL0     C10951   9.767   3.416   6.775  0.2655 -0.0653 -0.3975
   80MOL0     C10952   9.638   3.384   6.726  0.2174 -0.5324  0.3874
   80MOL0     N10953   8.741   3.374   6.906 -0.7748 -1.0445 -0.0667
   80MOL0     N10954   8.657   3.276   6.928 -0.2879  0.1906 -0.5058
   80MOL0     C10955   7.827   2.634   6.398 -1.0360  0.2398  0.1420
   80MOL0     C10956   7.684   2.648   6.380 -0.4475  0.3204  0.5918
   80MOL0     C10957   7.251   2.687   6.529 -0.2052  0.9481  0.5708
   80MOL0     C10958   7.156   2.596   6.500  0.1380  0.0676  0.4432
   80MOL0     C10959   7.019   2.625   6.503 -0.0374  0.7863  0.0566
   80MOL0     C10960   6.975   2.747   6.546  1.1060 -1.2096  0.6782
   80MOL0     O10961   6.838   2.769   6.539 -0.4114  0.2616  0.4945
   80MOL0     C10962   6.790   2.901   6.575 -0.8509  0.8119  1.0041
   80MOL0     C10963   6.772   2.899   6.730 -0.5120 -0.4401  0.0881
   80MOL0     C10964   6.776   3.041   6.784  0.1441 -0.3681 -0.2075
   80MOL0     C10965   6.665   3.129   6.727 -0.3910  0.0396 -1.2237
   80MOL0     C10966   6.531   3.088   6.776 -0.6738  0.6872  0.3753
   80MOL0     C10967   6.428   3.043   6.816  0.0872  0.0273 -0.3621
   80MOL0     C10968   7.072   2.836   6.589  0.6130 -0.1764  0.4869
   80MOL0     C10969   7.208   2.808   6.583  0.3585  0.1062 -0.0620
   80MOL0     C10970   7.312   2.904   6.645  0.4705  0.2400  0.3723
   80MOL0     H10971   7.627   2.855   6.652 -0.3141 -2.0862  0.9556
   80MOL0     H10972   7.852   2.801   6.704 -0.0866 -0.7031  0.0385
   80MOL0     H10973   8.088   2.672   6.343 -1.4443  1.9033  1.4029
   80MOL0     H10974   8.122   2.534   6.450  0.3199  0.3496  2.1748
   80MOL0     H10975   8.264   2.659   6.594 -0.6210 -3.3603 -1.1825
   80MOL0     H10976   8.325   2.638   6.436  1.5844 -0.0064  1.4443
   80MOL0     H10977   8.351   2.854   6.396  0.3421  1.3601  1.8577
   80MOL0     H10978   8.185   2.899   6.436  0.2290 -1.2122 -2.8357
   80MOL0     H10979   8.266   2.920   6.678  0.1214 -2.0206  0.6099
   80MOL0     H10980   8.413   2.839   6.635  0.2132  0.4046 -1.8241
   80MOL0     H10981   8.330   3.117   6.542  1.2197  0.5416  2.1760
   80MOL0     H10982   8.475   3.045   6.485 -0.7685 -1.7493 -0.6837
   80MOL0     H10983   8.488   3.210   6.699 -0.9409  0.0975 -0.5571
   80MOL0     H10984   8.399   3.076   6.784  0.3280  1.6316  0.7776
   80MOL0     H10985   8.684   3.103   6.681 -0.0464  0.0461  0.6398
   80MOL0     H10986   8.622   2.948   6.686 -1.9621 -1.4221  1.2997
   80MOL0     H10987   8.554   3.018   6.945 -0.6114  1.2911  0.2632
   80MOL0     H10988   8.709   2.946   6.884 -0.5071  0.3782  0.4605
   80MOL0     H10989   8.925   3.091   6.878 -0.8997 -1.6603 -0.7084
   80MOL0     H10990   8.996   3.498   6.860 -0.4085 -0.3789  4.0945
   80MOL0     H10991   9.033   3.360   6.758  0.8173 -1.2039  0.7735
   80MOL0     H10992   9.114   3.432   7.040 -1.6249 -0.9036  0.7671
   80MOL0     H10993   9.085   3.260   7.015 -0.6675 -0.7926 -0.3508
   80MOL0     H10994   9.323   3.336   6.962  1.1714 -0.7666 -1.0845
   80MOL0     H10995   9.244   3.243   6.828 -0.6612  0.1395 -0.9757
   80MOL0     H10996   9.202   3.462   6.717 -0.4175  1.3600  0.6314
   80MOL0     H10997   9.271   3.552   6.854 -1.4623  0.4004 -0.5829
   80MOL0     H10998   9.448   3.535   6.964  0.5161  2.2284 -0.5592
   80MOL0     H10999   9.733   3.555   7.168  0.4647 -2.1611 -1.5166
   80MOL0     H11000   9.568   3.607   7.148 -0.4241 -0.1466 -0.0025
   80MOL0     H11001   9.699   3.697   7.072  0.5663 -0.7914 -4.0601
   80MOL0     H11002  10.100   3.727   6.816  0.8135  2.4348  0.3613
   80MOL0     H11003  10.327   3.812   6.880  2.1443 -0.4172 -0.6947
   80MOL0     H11004  10.610   3.534   7.135  2.8452 -1.0534  0.6769
   80MOL0     H11005  10.625   3.515   6.956  1.9258  2.3024 -0.9898
   80MOL0     H11006  10.765   3.676   6.916 -0.7656  1.0801 -0.2386
   80MOL0     H11007  10.741   3.768   7.065 -2.1746 -0.8713 -0.2703
   80MOL0     H11008  10.959   3.632   7.040  0.1053  0.2302 -0.2621
   80MOL0     H11009  10.862   3.485   7.059  0.0764 -0.2391 -0.0529
   80MOL0     H11010  10.784   3.607   7.288 -0.8562  0.2773 -2.4124
   80MOL0     H11011  10.909   3.733   7.248 -1.7077 -0.0249  3.0670
   80MOL0     H11012  10.978   3.446   7.254 -0.5129  0.6289  0.2939
   80MOL0     H11013  11.084   3.585   7.245 -0.1398 -0.4562 -0.2673
   80MOL0     H11014  10.906   3.553   7.501 -0.2898  2.1010 -0.8029
   80MOL0     H11015  11.061   3.631   7.476 -0.9358  2.1383 -2.1232
   80MOL0     H11016  11.032   3.333   7.465  2.3765 -0.8594 -0.9222
   80MOL0     H11017  11.046   3.424   7.618  0.3829 -0.6449  0.4183
   80MOL0     H11018  11.261   3.540   7.527 -1.6177 -0.8941  4.7508
   80MOL0     H11019  11.252   3.424   7.395 -0.1167  1.3062 -0.5916
   80MOL0     H11020  10.425   3.429   7.071 -0.7866 -0.8447  1.1766
   80MOL0     H11021  10.213   3.349   7.001  0.9164 -0.9302  0.2300
   80MOL0     H11022   9.862   3.374   6.743  0.2829  0.3584 -0.9114
   80MOL0     H11023   9.637   3.324   6.636 -2.8009 -1.7415  1.1272
   80MOL0     H11024   7.888   2.590   6.320 -1.5720 -1.6202  0.7167
   80MOL0     H11025   7.643   2.588   6.299 -2.9244  3.7114 -0.8992
   80MOL0     H11026   7.196   2.500   6.469  1.3881  0.5862  0.3973
   80MOL0     H11027   6.958   2.541   6.470  2.6423 -0.4267 -2.1951
   80MOL0     H11028   6.855   2.974   6.526  0.1735 -0.6833  0.0384
   80MOL0     H11029   6.693   2.908   6.526 -0.0367  2.5275 -0.4683
   80MOL0     H11030   6.850   2.837   6.775 -1.8232 -1.0340  1.6067
   80MOL0     H11031   6.676   2.856   6.757 -0.3966 -1.7659 -1.4600
   80MOL0     H11032   6.757   3.036   6.892 -1.3095  1.2540 -0.3538
   80MOL0     H11033   6.872   3.090   6.768 -0.2573  0.0317 -1.5798
   80MOL0     H11034   6.672   3.133   6.618 -0.9009  0.0276 -1.2603
   80MOL0     H11035   6.678   3.233   6.759 -0.4624 -0.6409  1.1516
   80MOL0     H11036   6.334   3.006   6.850 -0.6534  0.8429 -1.4505
   80MOL0     H11037   7.050   2.930   6.638 -1.0002  0.0771 -0.6466
   80MOL0     H11038   7.379   2.852   6.714  1.1736  1.1191  0.3739
   80MOL0     H11039   7.366   2.942   6.558  0.6192 -1.6941 -0.4141
   80MOL0     H11040   7.260   2.986   6.696  0.4920  1.2690 -1.2096
   81MOL0     O11041  10.464   8.354   1.910 -0.5119 -0.8412  0.4273
   81MOL0     C11042  10.414   8.415   1.813 -0.4771 -0.5049 -0.3454
   81MOL0     O11043  10.487   8.461   1.708 -0.0665  0.2567 -0.0533
   81MOL0     C11044  10.619   8.446   1.673  0.2072  0.5209  0.3034
   81MOL0     C11045  10.717   8.416   1.774  0.0086  0.5146 -0.4110
   81MOL0     C11046  10.843   8.384   1.732  0.0604  0.9123 -0.2445
   81MOL0     C11047  10.884   8.392   1.606 -0.2542 -0.5635 -0.2747
   81MOL0     O11048  11.008   8.350   1.559  0.3431  0.0755  0.3870
   81MOL0     C11049  11.100   8.281   1.637  0.2624 -0.2962  0.4747
   81MOL0     C11050  11.229   8.253   1.571  0.0780  0.3938  0.2117
   81MOL0     C11051  11.311   8.165   1.670 -0.4267 -0.1498  0.1750
   81MOL0     C11052  11.439   8.115   1.607  0.4537  0.2355 -0.1220
   81MOL0     C11053  11.516   8.024   1.703  0.4158  0.1227  0.6183
   81MOL0     C11054  11.629   7.961   1.629  0.2275 -0.6219  0.8051
   81MOL0     C11055  11.725   7.878   1.715  0.7434 -0.5788 -0.2760
   81MOL0     C11056  11.765   7.737   1.668 -0.4588  0.4705 -0.7126
   81MOL0     N11057  11.642   7.657   1.651 -0.0058  0.1880 -0.0951
   81MOL0     C11058  11.586   7.632   1.531 -0.1498 -0.3613 -0.5877
   81MOL0     C11059  11.485   7.545   1.562 -0.0055  0.0313 -0.1268
   81MOL0     C11060  11.386   7.526   1.462  0.1642  0.2641  0.2414
   81MOL0     C11061  11.245   7.568   1.496  0.4940  0.8416 -0.0839
   81MOL0     C11062  11.235   7.718   1.506 -0.2542  0.2372  0.0213
   81MOL0     C11063  11.083   7.754   1.510 -0.0793 -0.2641  0.5287
   81MOL0     O11064  11.028   7.712   1.379 -0.4383 -0.4073 -0.2791
   81MOL0     C11065  10.899   7.673   1.368  0.1718 -0.2118 -0.1992
   81MOL0     C11066  10.851   7.563   1.290 -0.0788 -0.1897 -0.6860
   81MOL0     C11067  10.712   7.536   1.275 -0.1269 -0.3597 -0.3985
   81MOL0     C11068  10.677   7.417   1.190 -0.2729 -0.0135  0.9271
   81MOL0     C11069  10.623   7.635   1.326  0.0997 -0.1386 -0.1336
   81MOL0     C11070  10.472   7.645   1.306 -0.3208  0.3070 -0.1516
   81MOL0     O11071  10.389   7.704   1.405 -0.0372  0.0043 -0.7143
   81MOL0     C11072  10.255   7.689   1.393  0.0762  0.0006 -0.5075
   81MOL0     C11073  10.189   7.582   1.457  0.6087 -0.1047  0.3136
   81MOL0     C11074  10.056   7.551   1.432 -0.1010  0.4490 -0.9113
   81MOL0     C11075   9.975   7.637   1.349  1.0682  0.1919  0.5652
   81MOL0     O11076   9.844   7.595   1.313  0.2445 -0.3031 -0.6638
   81MOL0     C11077   9.777   7.660   1.205 -0.4184 -0.6690 -0.0880
   81MOL0     C11078   9.631   7.605   1.178 -0.5839 -0.8495  0.1855
   81MOL0     C11079   9.519   7.665   1.258 -0.1036 -0.2135 -0.2947
   81MOL0     C11080   9.547   7.678   1.413  0.5742 -0.1491 -0.3129
   81MOL0     C11081   9.423   7.712   1.499 -0.7419  0.2234  0.2960
   81MOL0     C11082   9.377   7.861   1.483 -0.2597 -0.0542  0.4609
   81MOL0     C11083   9.262   7.898   1.580 -0.1375 -0.1647 -0.0857
   81MOL0     C11084   9.207   8.042   1.539 -0.1062 -0.1293  0.1152
   81MOL0    Cl11085   9.087   8.088   1.647  0.4817 -0.5062  0.5135
   81MOL0     C11086  10.044   7.736   1.285  0.3985  0.0196 -0.2485
   81MOL0     C11087  10.180   7.770   1.313  0.6343  0.4951 -0.1089
   81MOL0     O11088  10.431   7.594   1.201 -0.4662 -0.0823  0.7391
   81MOL0     C11089  10.669   7.745   1.395 -0.1610  0.2463  0.7325
   81MOL0     C11090  10.804   7.757   1.420  0.5690  0.1141 -0.4073
   81MOL0     N11091  11.493   7.509   1.690 -0.2841 -0.1976  0.0628
   81MOL0     N11092  11.587   7.576   1.753 -1.2933  0.4493 -0.1456
   81MOL0     C11093  10.793   8.434   1.508 -0.9154  0.3658  0.2063
   81MOL0     C11094  10.665   8.459   1.545  0.1966 -0.1904  0.5667
   81MOL0     C11095  10.267   8.445   1.808  1.6858  0.5886 -0.1485
   81MOL0     C11096  10.205   8.504   1.695 -0.4712  0.0255  0.2848
   81MOL0     C11097  10.066   8.529   1.684  0.1576 -0.1311  0.1721
   81MOL0     C11098   9.975   8.493   1.784  0.4188 -0.8539 -0.3680
   81MOL0     O11099   9.842   8.515   1.778  0.0236 -0.4166 -0.0328
   81MOL0     C11100   9.799   8.647   1.748 -0.4822  0.5302  0.0643
   81MOL0     C11101   9.651   8.655   1.711  0.5017 -0.1209  0.0386
   81MOL0     C11102   9.636   8.766   1.608 -0.8969 -0.0928 -0.7754
   81MOL0     C11103   9.489   8.791   1.580 -0.4825 -0.1403  0.2599
   81MOL0     C11104   9.485   8.880   1.468  0.5139 -0.0994 -0.5923
   81MOL0     C11105   9.485   8.949   1.370  0.3780 -0.1546  0.4964
   81MOL0     C11106  10.035   8.441   1.895 -0.9608  0.7275 -0.0915
   81MOL0     C11107  10.171   8.414   1.914  0.1697 -0.5477 -0.6382
   81MOL0     C11108  10.211   8.370   2.053  1.1167 -0.6143 -0.4435
   81MOL0     H11109  10.696   8.401   1.879  0.4097 -0.3992 -0.4530
   81MOL0     H11110  10.908   8.344   1.810  0.6421 -1.9720 -2.0351
   81MOL0     H11111  11.050   8.188   1.664 -1.2818  0.5568  0.6535
   81MOL0     H11112  11.126   8.344   1.723 -0.0754  3.6316 -2.0152
   81MOL0     H11113  11.203   8.197   1.481 -0.5594 -0.7477  1.0815
   81MOL0     H11114  11.280   8.345   1.542  1.3259 -0.8962 -1.9633
   81MOL0     H11115  11.338   8.231   1.753  1.2726 -1.0204  0.3442
   81MOL0     H11116  11.250   8.082   1.707  0.1005 -1.5880 -2.0350
   81MOL0     H11117  11.419   8.058   1.515  0.6912 -2.4652  1.3964
   81MOL0     H11118  11.491   8.209   1.586  1.4819  0.0773  1.6102
   81MOL0     H11119  11.446   7.946   1.734  1.2129 -1.8061 -2.1143
   81MOL0     H11120  11.555   8.067   1.796 -0.2144 -0.3403  1.1064
   81MOL0     H11121  11.581   7.904   1.549 -1.1532 -0.1181  1.2564
   81MOL0     H11122  11.686   8.037   1.575 -3.4679  0.2093 -2.3611
   81MOL0     H11123  11.672   7.867   1.809  1.5909  0.3244  0.3250
   81MOL0     H11124  11.817   7.936   1.722  1.6805 -1.8916 -1.0684
   81MOL0     H11125  11.838   7.729   1.587  1.7735 -1.3154  1.2944
   81MOL0     H11126  11.821   7.694   1.753  0.1781  3.2187  0.3619
   81MOL0     H11127  11.588   7.697   1.445 -4.2343 -0.3652 -0.8698
   81MOL0     H11128  11.380   7.419   1.442 -0.0559  0.5844 -1.5485
   81MOL0     H11129  11.418   7.577   1.371  1.5511  0.1269  0.6289
   81MOL0     H11130  11.181   7.533   1.414  0.2644  1.6576 -0.2578
   81MOL0     H11131  11.210   7.521   1.588 -1.2941  2.9677  0.4134
   81MOL0     H11132  11.297   7.744   1.592 -0.6897 -1.7145  0.9760
   81MOL0     H11133  11.270   7.776   1.420 -0.7365 -2.3832 -2.0996
   81MOL0     H11134  11.037   7.704   1.596  1.4567 -2.7493  0.0024
   81MOL0     H11135  11.062   7.861   1.518 -1.3630 -0.5117  0.7131
   81MOL0     H11136  10.920   7.502   1.233  0.1104  0.4699 -1.1812
   81MOL0     H11137  10.593   7.365   1.238  0.2778 -1.4752  0.3753
   81MOL0     H11138  10.760   7.346   1.190  0.1147  0.3801 -1.3681
   81MOL0     H11139  10.641   7.439   1.089 -2.1116  1.5154  1.8417
   81MOL0     H11140  10.247   7.517   1.520 -1.8772  0.1336  3.0622
   81MOL0     H11141  10.014   7.464   1.482  1.5136 -0.1849 -0.6122
   81MOL0     H11142   9.769   7.763   1.243 -1.3310 -0.4657 -0.7919
   81MOL0     H11143   9.831   7.671   1.111 -1.1130 -2.7108 -0.7660
   81MOL0     H11144   9.614   7.614   1.070 -1.8946 -0.5486  0.3940
   81MOL0     H11145   9.629   7.498   1.203 -0.7847 -0.5959  1.3162
   81MOL0     H11146   9.434   7.600   1.237  1.2902 -1.5507 -2.0292
   81MOL0     H11147   9.494   7.761   1.213  1.3666 -0.7691 -2.3903
   81MOL0     H11148   9.629   7.745   1.439  2.1313 -1.9943 -0.2487
   81MOL0     H11149   9.589   7.582   1.445  0.4584 -0.6686 -1.6652
   81MOL0     H11150   9.337   7.652   1.469 -0.4762 -0.0086 -0.0124
   81MOL0     H11151   9.436   7.693   1.606 -0.4866  0.6090  0.3376
   81MOL0     H11152   9.349   7.881   1.380 -1.2613  0.0207  0.7411
   81MOL0     H11153   9.455   7.935   1.507 -1.2501  2.1486 -2.5839
   81MOL0     H11154   9.297   7.899   1.683 -1.0669  0.9928  0.2374
   81MOL0     H11155   9.181   7.825   1.571  0.5368 -0.9726  0.2619
   81MOL0     H11156   9.158   8.044   1.441  2.0914  2.8457 -1.0939
   81MOL0     H11157   9.283   8.122   1.536 -0.8542  0.6525  1.3311
   81MOL0     H11158   9.987   7.789   1.209 -2.9511 -0.9088  1.4243
   81MOL0     H11159  10.230   7.849   1.259  0.2183  0.5616 -0.4063
   81MOL0     H11160  10.593   7.812   1.435 -2.9784 -2.7743  0.8318
   81MOL0     H11161  10.838   7.848   1.467  1.6469 -1.3853  1.8725
   81MOL0     H11162  10.823   8.432   1.404 -1.2186 -0.9975  0.1200
   81MOL0     H11163  10.593   8.503   1.476  0.1812  2.2646  2.0122
   81MOL0     H11164  10.268   8.545   1.617  2.1219 -2.5429  0.8733
   81MOL0     H11165  10.024   8.588   1.603 -1.9723  0.6908  1.7702
   81MOL0     H11166   9.817   8.715   1.832 -2.8338 -2.4661  3.2784
   81MOL0     H11167   9.848   8.673   1.653 -2.4987  0.1228 -1.1321
   81MOL0     H11168   9.587   8.677   1.797  1.5738  1.3426  0.5032
   81MOL0     H11169   9.610   8.560   1.675 -1.9119  0.3876  1.2296
   81MOL0     H11170   9.662   8.864   1.650 -0.1893 -1.5480  2.5258
   81MOL0     H11171   9.695   8.749   1.518  0.1599 -1.6246  0.1497
   81MOL0     H11172   9.442   8.831   1.670  2.3605  2.7165  0.6381
   81MOL0     H11173   9.447   8.693   1.555 -1.7360  0.2846  0.6573
   81MOL0     H11174   9.497   9.004   1.279  0.8320 -2.7051 -1.1000
   81MOL0     H11175   9.971   8.420   1.979  0.2621  0.2166  0.7346
   81MOL0     H11176  10.273   8.280   2.042  0.9940 -0.5117 -2.1793
   81MOL0     H11177  10.267   8.448   2.105  0.0738  0.1854 -0.4806
   81MOL0     H11178  10.126   8.341   2.116  0.8572  0.3719 -0.3296
   82MOL0     O11179   7.215   0.777   4.377 -0.5124  0.8143  0.2671
   82MOL0     C11180   7.175   0.793   4.495 -0.0536 -0.5239  0.3919
   82MOL0     O11181   7.255   0.772   4.608  0.2552 -0.0463 -0.2205
   82MOL0     C11182   7.389   0.745   4.579 -0.0476  0.3069 -0.0813
   82MOL0     C11183   7.433   0.607   4.586 -0.4276  1.0918  0.5177
   82MOL0     C11184   7.571   0.578   4.573  0.0693  0.1405 -0.5054
   82MOL0     C11185   7.663   0.672   4.528  0.2713  0.1362  1.1181
   82MOL0     O11186   7.792   0.639   4.492  0.4582 -0.3352  0.2442
   82MOL0     C11187   7.872   0.572   4.590 -0.0337 -0.0540 -0.3137
   82MOL0     C11188   7.962   0.484   4.510  1.4599  0.4965  0.2585
   82MOL0     C11189   8.036   0.377   4.589  0.0053 -0.0354 -0.7313
   82MOL0     C11190   8.157   0.446   4.652  0.2251 -0.5121  0.3959
   82MOL0     C11191   8.246   0.331   4.701  0.5877  0.1222  0.3396
   82MOL0     C11192   8.365   0.370   4.784  0.3602  0.0967  0.8465
   82MOL0     C11193   8.480   0.270   4.780 -0.1945 -0.2059 -0.3807
   82MOL0     C11194   8.444   0.128   4.835 -0.1021 -0.0840  0.0993
   82MOL0     N11195   8.560   0.039   4.838  0.1430  0.2190  0.1026
   82MOL0     C11196   8.651   0.022   4.732  0.5616 -0.0921 -0.0454
   82MOL0     C11197   8.753  -0.058   4.776  0.1757  0.2532 -0.4428
   82MOL0     C11198   8.881  -0.095   4.698  0.2658  0.0731  0.4121
   82MOL0     C11199   9.004  -0.022   4.742  0.1948  0.2855 -0.0853
   82MOL0     C11200   9.115  -0.098   4.672 -0.1041 -0.6120 -0.2213
   82MOL0     C11201   9.243  -0.021   4.670 -0.3905  0.6422 -0.5903
   82MOL0     O11202   9.272   0.006   4.811  0.1375  0.8050  0.5289
   82MOL0     C11203   9.400   0.034   4.850 -0.1286  0.0232  0.4341
   82MOL0     C11204   9.419   0.120   4.961 -1.1645 -0.0624 -0.5242
   82MOL0     C11205   9.550   0.155   4.993 -0.3708  0.3979  0.0415
   82MOL0     C11206   9.569   0.254   5.111 -0.1499 -0.1896 -1.6811
   82MOL0     C11207   9.664   0.096   4.927 -0.8924 -0.1037 -0.0849
   82MOL0     C11208   9.805   0.132   4.944  0.9166 -0.3908  0.0514
   82MOL0     O11209   9.902   0.065   4.868 -0.3379  0.9955  0.3069
   82MOL0     C11210  10.035   0.083   4.873 -0.6483 -0.3895  0.4945
   82MOL0     C11211  10.105   0.191   4.935  0.4252  0.6838  0.5128
   82MOL0     C11212  10.246   0.198   4.926  0.8313 -0.5793 -0.6211
   82MOL0     C11213  10.317   0.118   4.840 -0.2598  0.3761 -0.3914
   82MOL0     O11214  10.451   0.126   4.816  0.5476 -0.5812  0.8708
   82MOL0     C11215  10.528   0.194   4.917  0.5290  0.6550  0.3503
   82MOL0     C11216  10.678   0.190   4.903 -0.3556  0.3823  0.1229
   82MOL0     C11217  10.738   0.268   4.786 -0.6177  0.6640 -0.2463
   82MOL0     C11218  10.830   0.186   4.697 -0.6504 -0.0056  0.4441
   82MOL0     C11219  10.836   0.270   4.560  0.2578  0.5436 -0.9324
   82MOL0     C11220  10.902   0.186   4.451 -0.2086  0.6990 -0.1155
   82MOL0     C11221  10.886   0.238   4.305 -0.4057  0.4161 -0.4417
   82MOL0     C11222  10.952   0.376   4.296 -0.1671 -0.3668  0.5944
   82MOL0    Cl11223  10.998   0.403   4.121 -0.3299 -0.0886  0.0773
   82MOL0     C11224  10.247   0.012   4.774 -0.0308 -0.3219  0.4942
   82MOL0     C11225  10.109   0.002   4.789  0.5014  0.6991  0.6900
   82MOL0     O11226   9.828   0.235   5.011  0.5853 -0.0178  0.4362
   82MOL0     C11227   9.640   0.010   4.825 -0.3308 -0.3383  0.3739
   82MOL0     C11228   9.516  -0.013   4.777 -0.4762 -0.1412 -0.5766
   82MOL0     N11229   8.722  -0.080   4.907  0.2048 -0.3139  0.6736
   82MOL0     N11230   8.608  -0.033   4.942 -0.1940  0.3487 -0.3815
   82MOL0     C11231   7.623   0.805   4.533 -0.5799  0.5002  0.3074
   82MOL0     C11232   7.492   0.838   4.555 -0.3925 -0.2659  0.0883
   82MOL0     C11233   7.033   0.829   4.509  0.4503 -0.4455 -0.2102
   82MOL0     C11234   6.935   0.778   4.418 -0.0210 -0.2638 -0.0114
   82MOL0     C11235   6.804   0.824   4.422  0.8974  1.3549  0.6733
   82MOL0     C11236   6.761   0.901   4.525 -0.9411  0.0396 -0.2315
   82MOL0     O11237   6.624   0.933   4.541  0.1424 -0.4709  0.1464
   82MOL0     C11238   6.519   0.835   4.543 -0.8099 -0.1528 -1.2702
   82MOL0     C11239   6.379   0.892   4.528  0.0017 -0.1470 -0.3260
   82MOL0     C11240   6.270   0.798   4.573 -0.5412 -0.3081 -0.0831
   82MOL0     C11241   6.250   0.680   4.472 -0.5721  0.4563  0.0123
   82MOL0     C11242   6.128   0.611   4.508  0.1862 -0.5668  0.2383
   82MOL0     C11243   6.019   0.577   4.550 -0.1284  0.4490  0.0730
   82MOL0     C11244   6.849   0.953   4.616  0.4714  0.2580  0.1876
   82MOL0     C11245   6.988   0.919   4.611 -0.6172  0.1439  0.3646
   82MOL0     C11246   7.089   0.977   4.706  0.3534  0.1656  0.4697
   82MOL0     H11247   7.362   0.531   4.617 -0.0121  0.7797  0.7195
   82MOL0     H11248   7.599   0.473   4.570 -0.7090 -0.0615 -3.0498
   82MOL0     H11249   7.814   0.517   4.665 -0.5853  0.8951 -0.0263
   82MOL0     H11250   7.930   0.655   4.633 -0.9454  0.2937  0.2739
   82MOL0     H11251   7.916   0.420   4.434 -0.8106  0.8619  1.2569
   82MOL0     H11252   8.040   0.548   4.466  1.2260  1.2536  0.9236
   82MOL0     H11253   7.978   0.352   4.679  1.9228  1.9240  1.1765
   82MOL0     H11254   8.060   0.282   4.541  0.1415 -0.9208  1.0106
   82MOL0     H11255   8.213   0.505   4.579  2.7735 -1.8863  1.1182
   82MOL0     H11256   8.120   0.510   4.732 -0.5671  0.0036 -0.3502
   82MOL0     H11257   8.273   0.283   4.606  0.5626  1.4643 -0.3622
   82MOL0     H11258   8.190   0.260   4.763  1.4910  0.6808  1.8797
   82MOL0     H11259   8.406   0.462   4.741 -0.4884 -0.3789 -1.0833
   82MOL0     H11260   8.327   0.399   4.882 -3.5418  1.5359 -0.9008
   82MOL0     H11261   8.557   0.312   4.844  2.1895 -1.1119 -2.4850
   82MOL0     H11262   8.511   0.266   4.675  0.7321 -1.4599 -0.0780
   82MOL0     H11263   8.400   0.136   4.935  1.2029 -1.9778  0.8680
   82MOL0     H11264   8.362   0.099   4.769  1.2068 -3.3284 -0.3074
   82MOL0     H11265   8.632   0.050   4.629  4.1052  0.1630 -0.7526
   82MOL0     H11266   8.861  -0.075   4.592  0.9304 -2.7875 -0.3301
   82MOL0     H11267   8.886  -0.204   4.704 -0.8246 -0.0915 -0.9198
   82MOL0     H11268   8.996   0.084   4.715  3.5072  1.4154  2.6145
   82MOL0     H11269   9.023  -0.016   4.850  2.8837 -0.5406 -0.4395
   82MOL0     H11270   9.128  -0.198   4.715 -1.0635 -1.0680 -0.9557
   82MOL0     H11271   9.098  -0.107   4.565  3.2017  0.5801 -0.9554
   82MOL0     H11272   9.320  -0.075   4.614  1.8299  1.8171  1.1430
   82MOL0     H11273   9.231   0.074   4.616  0.5803  0.5225 -1.0406
   82MOL0     H11274   9.328   0.157   5.007 -0.3574  0.1173  0.9899
   82MOL0     H11275   9.593   0.360   5.099  0.2105 -0.0920 -0.3277
   82MOL0     H11276   9.645   0.215   5.179 -0.3720 -1.0724 -1.9237
   82MOL0     H11277   9.472   0.257   5.162  1.1193  1.8104  0.8333
   82MOL0     H11278  10.058   0.265   4.999 -1.7602 -0.9221  0.9027
   82MOL0     H11279  10.292   0.276   4.985 -0.1165  0.5489 -1.3492
   82MOL0     H11280  10.497   0.299   4.912 -0.9427  0.2999  1.4581
   82MOL0     H11281  10.503   0.151   5.014 -0.3999  0.4637  0.0341
   82MOL0     H11282  10.716   0.237   4.994  2.0530 -0.6617 -0.2714
   82MOL0     H11283  10.719   0.089   4.910 -1.6165 -0.1908 -0.3680
   82MOL0     H11284  10.792   0.353   4.829 -0.0823 -0.5742  1.6605
   82MOL0     H11285  10.653   0.310   4.731 -1.2289 -1.5623 -1.1252
   82MOL0     H11286  10.782   0.088   4.695 -2.0716  0.6179  1.6790
   82MOL0     H11287  10.930   0.162   4.736 -1.3796 -0.6554  1.9904
   82MOL0     H11288  10.740   0.300   4.519 -1.0536 -4.5541 -2.2868
   82MOL0     H11289  10.900   0.357   4.579  0.9368 -0.3768  1.3687
   82MOL0     H11290  10.875   0.081   4.455  1.4398  0.2567  0.7848
   82MOL0     H11291  11.009   0.186   4.477 -0.2612  1.0370  0.1157
   82MOL0     H11292  10.780   0.231   4.278 -0.5414 -0.9416  0.3677
   82MOL0     H11293  10.941   0.171   4.239 -3.6934  0.2850 -3.3977
   82MOL0     H11294  11.042   0.370   4.358 -0.8621 -1.9545  1.5251
   82MOL0     H11295  10.892   0.460   4.332  1.4573  1.7051 -1.2483
   82MOL0     H11296  10.296  -0.061   4.712  1.1950 -0.7911  1.9550
   82MOL0     H11297  10.060  -0.083   4.744  0.8074  0.4723  0.7831
   82MOL0     H11298   9.712  -0.042   4.762 -0.8106  0.9790 -1.3221
   82MOL0     H11299   9.499  -0.088   4.700 -3.1154 -1.1260  0.8132
   82MOL0     H11300   7.698   0.883   4.521  1.6436 -1.5074  0.4290
   82MOL0     H11301   7.469   0.944   4.550 -1.6683 -0.5254  0.2816
   82MOL0     H11302   6.957   0.710   4.337  0.3846  2.4827 -2.3824
   82MOL0     H11303   6.732   0.788   4.348  1.9358 -1.1350  0.7747
   82MOL0     H11304   6.526   0.752   4.471 -0.3739 -2.5223  1.3265
   82MOL0     H11305   6.531   0.781   4.637  2.5705  2.3078 -0.0662
   82MOL0     H11306   6.359   0.917   4.424 -1.2361  3.4793  0.6293
   82MOL0     H11307   6.375   0.979   4.595  2.2769 -1.1891  1.2738
   82MOL0     H11308   6.303   0.746   4.663  1.5689 -1.3925 -1.4006
   82MOL0     H11309   6.175   0.850   4.583 -0.7735 -0.3272 -1.8644
   82MOL0     H11310   6.328   0.604   4.478 -1.7112 -0.6944  0.7174
   82MOL0     H11311   6.247   0.715   4.368 -1.3615 -0.1640 -0.1858
   82MOL0     H11312   5.935   0.541   4.605  1.5427  1.3282  3.5067
   82MOL0     H11313   6.816   1.017   4.698  0.6536  0.1120  0.3771
   82MOL0     H11314   7.053   1.060   4.768  1.4342 -1.0911  2.9456
   82MOL0     H11315   7.135   0.902   4.771 -2.0285 -0.0726  2.0135
   82MOL0     H11316   7.174   1.019   4.650 -0.2874 -2.3435 -2.6735
   83MOL0     O11317   8.495   4.268   8.833 -0.8504  0.3380 -0.1891
   83MOL0     C11318   8.434   4.240   8.934 -0.0808 -0.0594  0.0623
   83MOL0     O11319   8.470   4.271   9.064 -0.3593 -0.7812 -0.0762
   83MOL0     C11320   8.598   4.314   9.102  0.2601  0.6890 -1.0122
   83MOL0     C11321   8.717   4.300   9.031  0.3691  0.4717 -0.9811
   83MOL0     C11322   8.832   4.362   9.079 -0.0966  0.1126 -0.3771
   83MOL0     C11323   8.839   4.420   9.209  0.0817 -0.6120 -0.1756
   83MOL0     O11324   8.963   4.470   9.255  0.2117  0.5652  0.0794
   83MOL0     C11325   8.971   4.516   9.394 -0.3314 -0.2447  0.0660
   83MOL0     C11326   9.114   4.553   9.415 -0.6381  0.6621 -0.5531
   83MOL0     C11327   9.160   4.597   9.562  0.0334  0.2849  0.4987
   83MOL0     C11328   9.311   4.633   9.550 -0.4213  0.5480  0.2489
   83MOL0     C11329   9.355   4.699   9.672 -0.3678 -0.8320 -0.7984
   83MOL0     C11330   9.505   4.727   9.672  0.4988  0.0965 -0.3003
   83MOL0     C11331   9.559   4.781   9.803  0.4669  0.1469  0.5764
   83MOL0     C11332   9.545   4.935   9.814 -0.2248  0.2812  0.1527
   83MOL0     N11333   9.404   4.979   9.837 -0.5603 -0.5702  0.2364
   83MOL0     C11334   9.304   4.912   9.904 -0.0894  0.3853  0.6748
   83MOL0     C11335   9.193   4.980   9.880  0.1063  0.2927 -0.6876
   83MOL0     C11336   9.055   4.942   9.927 -0.2987  0.1139 -0.1813
   83MOL0     C11337   9.013   4.819   9.842  0.6723  0.3151 -0.0207
   83MOL0     C11338   8.889   4.748   9.912 -0.0355  0.2897  0.1522
   83MOL0     C11339   8.907   4.603   9.891  0.2117 -0.2541  0.2387
   83MOL0     O11340   8.883   4.576   9.750 -0.6155  0.0542  0.2398
   83MOL0     C11341   8.750   4.538   9.723 -0.6504 -0.8710 -0.0290
   83MOL0     C11342   8.675   4.606   9.618  0.3859 -0.3083  0.2270
   83MOL0     C11343   8.543   4.568   9.587 -0.5889  0.0955 -0.2352
   83MOL0     C11344   8.466   4.644   9.485  0.1837 -0.3013  1.0511
   83MOL0     C11345   8.488   4.453   9.656  0.2370 -0.3587 -0.1522
   83MOL0     C11346   8.354   4.384   9.628 -0.6522  0.0516  0.5084
   83MOL0     O11347   8.304   4.400   9.504  0.0747  0.1316  0.4916
   83MOL0     C11348   8.194   4.323   9.467  0.1845 -0.3913 -0.3155
   83MOL0     C11349   8.077   4.384   9.419 -0.4821 -1.0025 -0.3843
   83MOL0     C11350   7.958   4.310   9.404 -0.0616 -0.4962  0.4137
   83MOL0     C11351   7.957   4.173   9.423 -0.5832  0.0471  0.1854
   83MOL0     O11352   7.851   4.091   9.410 -0.0227  0.5792 -0.2419
   83MOL0     C11353   7.724   4.141   9.433 -0.3443 -0.5428 -0.0276
   83MOL0     C11354   7.713   4.206   9.575 -0.5047 -1.1201  0.0529
   83MOL0     C11355   7.565   4.195   9.632 -0.9823  0.2489  0.6043
   83MOL0     C11356   7.555   4.193   9.779 -0.4773  0.1939  0.1070
   83MOL0     C11357   7.625   4.309   9.845 -0.5331  0.2173  0.6338
   83MOL0     C11358   7.630   4.304   9.997  0.9152  1.1345  0.7347
   83MOL0     C11359   7.515   4.373  10.074 -0.3288  0.2627 -0.9284
   83MOL0     C11360   7.542   4.374  10.219 -0.3333 -0.4175 -0.2713
   83MOL0    Cl11361   7.425   4.494  10.288 -0.1633 -0.5675 -0.2360
   83MOL0     C11362   8.074   4.110   9.454 -0.3206  0.1658  0.0523
   83MOL0     C11363   8.194   4.184   9.474 -0.1270  0.0395  0.3577
   83MOL0     O11364   8.307   4.301   9.714  0.0322 -0.3790 -0.1084
   83MOL0     C11365   8.569   4.384   9.752  0.1886  0.1726  0.6543
   83MOL0     C11366   8.698   4.421   9.783 -0.0871 -0.1968 -0.2065
   83MOL0     N11367   9.223   5.089   9.800  0.6257  0.0676 -0.6193
   83MOL0     N11368   9.349   5.091   9.777  0.7383 -0.9212 -0.1079
   83MOL0     C11369   8.721   4.421   9.289 -0.0030 -0.8575  0.7044
   83MOL0     C11370   8.600   4.369   9.230  0.3240  0.4105  0.0379
   83MOL0     C11371   8.293   4.188   8.905 -0.0859 -0.7222  0.0465
   83MOL0     C11372   8.262   4.127   8.779  0.0976 -0.8135  1.0929
   83MOL0     C11373   8.130   4.099   8.738 -0.6720  0.1165  0.4010
   83MOL0     C11374   8.026   4.098   8.826  0.4106 -0.8582  0.3184
   83MOL0     O11375   7.912   4.056   8.778  0.3228 -0.4583 -0.4817
   83MOL0     C11376   7.788   4.052   8.862 -0.3093  0.4028 -0.2706
   83MOL0     C11377   7.670   3.990   8.772 -0.6709 -0.6498 -0.5670
   83MOL0     C11378   7.683   4.032   8.627  0.3496 -0.0084 -0.5784
   83MOL0     C11379   7.564   3.988   8.537 -0.1364 -0.6908  0.3203
   83MOL0     C11380   7.615   3.979   8.396  1.0675  0.2065  0.3152
   83MOL0     C11381   7.653   3.979   8.283 -0.1222 -1.1334  0.4064
   83MOL0     C11382   8.051   4.144   8.953  0.2426 -0.0919 -0.1756
   83MOL0     C11383   8.178   4.193   8.992 -0.1534  0.8622  0.2234
   83MOL0     C11384   8.190   4.240   9.139 -0.3085 -0.1117 -0.3825
   83MOL0     H11385   8.707   4.249   8.936 -2.0903 -0.7428 -0.1631
   83MOL0     H11386   8.921   4.370   9.018  1.9054  0.7693  2.4043
   83MOL0     H11387   8.955   4.442   9.473 -1.7074 -1.3440 -1.1739
   83MOL0     H11388   8.905   4.602   9.408 -0.2819 -0.3183  0.7893
   83MOL0     H11389   9.174   4.465   9.388 -0.5907  0.5366 -0.0489
   83MOL0     H11390   9.145   4.638   9.354 -0.3878 -0.2542 -1.7500
   83MOL0     H11391   9.104   4.685   9.595 -3.1096 -0.4244 -2.4562
   83MOL0     H11392   9.150   4.520   9.639  3.7971 -2.5225 -1.4992
   83MOL0     H11393   9.372   4.545   9.533 -1.2062 -0.0984  0.7199
   83MOL0     H11394   9.330   4.699   9.464  0.1518  0.2840  0.1721
   83MOL0     H11395   9.324   4.636   9.756  0.2445 -2.4032 -1.7132
   83MOL0     H11396   9.297   4.792   9.680 -1.1319 -1.3804  0.2571
   83MOL0     H11397   9.556   4.632   9.653 -0.2299 -0.5284  0.6999
   83MOL0     H11398   9.535   4.801   9.598 -1.0851  1.4007  0.2951
   83MOL0     H11399   9.667   4.768   9.809  0.6966  0.0213 -2.4851
   83MOL0     H11400   9.514   4.731   9.890 -1.2598  3.4985  1.7858
   83MOL0     H11401   9.608   4.956   9.901  1.7123 -0.3047 -1.0236
   83MOL0     H11402   9.592   4.984   9.727 -1.5093 -0.0735 -0.7724
   83MOL0     H11403   9.305   4.816   9.954 -2.4453 -0.1857 -0.2266
   83MOL0     H11404   8.996   5.033   9.916  0.8327  0.7142 -1.4902
   83MOL0     H11405   9.055   4.913  10.033  2.2798  1.4363  0.2505
   83MOL0     H11406   8.990   4.850   9.739  2.7173  0.4961 -0.4650
   83MOL0     H11407   9.096   4.751   9.825  0.2947 -0.5856  1.5895
   83MOL0     H11408   8.897   4.763  10.020  1.1254 -3.1623  0.6703
   83MOL0     H11409   8.791   4.788   9.883 -0.6445 -1.9448 -1.1232
   83MOL0     H11410   9.005   4.572   9.929  0.3641 -1.3572 -0.9522
   83MOL0     H11411   8.826   4.568   9.955  1.4273 -1.6452  1.0884
   83MOL0     H11412   8.721   4.680   9.553  1.9311 -2.0750 -0.7882
   83MOL0     H11413   8.364   4.658   9.521  0.0501  1.8260  0.0032
   83MOL0     H11414   8.463   4.595   9.388 -0.1575  0.1831  0.8106
   83MOL0     H11415   8.507   4.743   9.463 -2.5178  0.7010  0.0783
   83MOL0     H11416   8.077   4.491   9.401  0.2578 -0.7708  0.8440
   83MOL0     H11417   7.873   4.371   9.377  2.5460  2.9463 -0.6506
   83MOL0     H11418   7.697   4.204   9.348  2.6930  1.8400  0.6058
   83MOL0     H11419   7.650   4.060   9.433 -3.6493  2.1841  2.0492
   83MOL0     H11420   7.775   4.152   9.648  0.7169 -0.5264 -0.5218
   83MOL0     H11421   7.755   4.307   9.575 -2.1106 -0.4260 -0.7138
   83MOL0     H11422   7.525   4.099   9.599 -2.7852  0.0060  3.2068
   83MOL0     H11423   7.509   4.281   9.593 -0.2633  1.0855  1.3482
   83MOL0     H11424   7.613   4.106   9.812  2.7470  2.4898  0.9290
   83MOL0     H11425   7.452   4.171   9.808 -0.6260 -0.5903 -0.9600
   83MOL0     H11426   7.728   4.304   9.811 -1.2420 -0.9452 -1.5559
   83MOL0     H11427   7.578   4.400   9.804 -0.9600  0.6625  2.0502
   83MOL0     H11428   7.724   4.359  10.007  1.6958  0.1610 -0.8646
   83MOL0     H11429   7.638   4.200  10.030 -0.4794  1.2850  1.6439
   83MOL0     H11430   7.426   4.313  10.053  1.5373 -3.2682  0.3846
   83MOL0     H11431   7.501   4.475  10.040  0.0959  0.0182 -1.8569
   83MOL0     H11432   7.646   4.404  10.239 -0.1164 -0.0251 -1.8803
   83MOL0     H11433   7.530   4.276  10.266 -1.3562 -1.0736 -1.8590
   83MOL0     H11434   8.085   4.002   9.458  1.1727  0.3456  1.7056
   83MOL0     H11435   8.295   4.144   9.475 -0.9403 -2.3177 -1.1611
   83MOL0     H11436   8.537   4.300   9.813  0.6301 -0.8369 -0.4582
   83MOL0     H11437   8.753   4.380   9.867  0.6347  4.1309  1.7524
   83MOL0     H11438   8.722   4.462   9.389  4.7009  0.1121  0.4893
   83MOL0     H11439   8.507   4.360   9.283 -2.3967 -5.0430 -4.5912
   83MOL0     H11440   8.343   4.100   8.713 -0.5540 -1.3564  0.5123
   83MOL0     H11441   8.118   4.067   8.635 -0.9601  1.4703  0.0067
   83MOL0     H11442   7.797   3.984   8.947 -4.6591  0.0823  0.1468
   83MOL0     H11443   7.765   4.151   8.903 -0.0435  0.6430 -0.6888
   83MOL0     H11444   7.574   4.015   8.819  1.0388 -0.3402  3.1061
   83MOL0     H11445   7.690   3.882   8.778  2.5519 -0.1124  0.4605
   83MOL0     H11446   7.690   4.141   8.630  2.8397 -0.1184  1.6830
   83MOL0     H11447   7.775   3.995   8.581  0.8919 -0.5379  0.8820
   83MOL0     H11448   7.484   4.062   8.538 -1.4188 -2.0154  0.1115
   83MOL0     H11449   7.529   3.899   8.592  1.1491 -0.1804  2.0694
   83MOL0     H11450   7.688   3.974   8.182 -0.8612 -0.7003  0.1171
   83MOL0     H11451   7.963   4.156   9.015  0.4095 -0.5950  0.1656
   83MOL0     H11452   8.167   4.346   9.157 -2.4114 -0.7456  1.1020
   83MOL0     H11453   8.110   4.195   9.199  1.0237  0.3009  1.8009
   83MOL0     H11454   8.285   4.216   9.186  0.6454  1.6771 -1.2805
   84MOL0     O11455   0.222   2.973   5.015  0.3461 -0.4667  0.5306
   84MOL0     C11456   0.315   3.049   5.041 -0.6435  0.0731 -0.0749
   84MOL0     O11457   0.300   3.180   5.072  0.3551  0.5494 -0.1990
   84MOL0     C11458   0.169   3.225   5.100  0.8398 -0.4042  0.4443
   84MOL0     C11459   0.107   3.308   5.010  0.3964 -0.4120  0.9525
   84MOL0     C11460  -0.012   3.374   5.031 -0.2923  0.3810  0.4277
   84MOL0     C11461  -0.068   3.373   5.157 -0.2361  0.3000 -1.2253
   84MOL0     O11462  -0.182   3.441   5.201  0.3806  0.1196 -0.5235
   84MOL0     C11463  -0.241   3.518   5.094 -0.5665 -0.0728 -0.0525
   84MOL0     C11464  -0.350   3.603   5.145 -0.3065 -0.7043  1.0487
   84MOL0     C11465  -0.440   3.655   5.032 -0.6299  0.2069  0.4064
   84MOL0     C11466  -0.429   3.804   5.009  0.0387  0.0360 -0.3534
   84MOL0     C11467  -0.518   3.838   4.895  1.2466  0.9092  0.2198
   84MOL0     C11468  -0.501   3.992   4.885 -0.6562 -0.8582 -0.1675
   84MOL0     C11469  -0.563   4.072   4.771 -0.4447 -0.3321  0.0308
   84MOL0     C11470  -0.517   4.221   4.778  0.1364  0.4297  0.1301
   84MOL0     N11471  -0.374   4.233   4.749  0.4175  0.3255  0.5106
   84MOL0     C11472  -0.277   4.233   4.843  0.4425  0.1255  0.0278
   84MOL0     C11473  -0.166   4.209   4.776 -0.1904 -0.6265 -0.1483
   84MOL0     C11474  -0.035   4.208   4.846 -0.1365 -0.0902 -0.3760
   84MOL0     C11475   0.058   4.327   4.823  0.0757 -0.8382  0.1961
   84MOL0     C11476   0.159   4.344   4.934 -0.1109 -0.3519 -0.6848
   84MOL0     C11477   0.251   4.462   4.912 -0.3333  0.1547  0.5191
   84MOL0     O11478   0.360   4.432   4.815 -0.3117 -0.2639  0.4965
   84MOL0     C11479   0.455   4.533   4.809  0.9027 -0.0312  0.9611
   84MOL0     C11480   0.429   4.654   4.748  0.1632 -0.6241  0.3747
   84MOL0     C11481   0.525   4.756   4.731  0.1673  0.0973  0.1242
   84MOL0     C11482   0.468   4.882   4.663  0.3238  0.6636  0.9120
   84MOL0     C11483   0.659   4.739   4.785 -0.5209  0.3801  0.1467
   84MOL0     C11484   0.771   4.836   4.768 -0.5545 -0.0605  0.2361
   84MOL0     O11485   0.893   4.784   4.817  0.1199  0.2661  0.4756
   84MOL0     C11486   1.012   4.849   4.822  0.1503 -0.0819 -0.1112
   84MOL0     C11487   1.025   4.992   4.847 -0.3820  0.0788 -0.0067
   84MOL0     C11488   1.154   5.051   4.848  0.7166  0.4452  0.2267
   84MOL0     C11489   1.266   4.969   4.843 -0.4219  0.4707 -0.7048
   84MOL0     O11490   1.380   5.032   4.874 -0.0854  0.5352 -0.3429
   84MOL0     C11491   1.495   4.956   4.919 -0.6811 -0.0054 -1.1175
   84MOL0     C11492   1.609   5.047   4.965 -0.8003  0.2130  0.1006
   84MOL0     C11493   1.700   5.073   4.846 -0.1232  0.1180 -0.6891
   84MOL0     C11494   1.644   5.205   4.784  0.8055  0.3097 -0.4818
   84MOL0     C11495   1.739   5.242   4.669  0.5099  0.3020  0.2974
   84MOL0     C11496   1.664   5.312   4.557 -0.4808  1.2396  0.6866
   84MOL0     C11497   1.761   5.342   4.444 -0.1761 -0.0709 -0.0756
   84MOL0     C11498   1.700   5.408   4.326  0.1417  0.7107 -0.0652
   84MOL0    Cl11499   1.823   5.430   4.203  0.0992  0.2955  0.1884
   84MOL0     C11500   1.253   4.829   4.822 -0.3074  0.1633 -0.0896
   84MOL0     C11501   1.125   4.766   4.816  0.7100  0.1609 -0.1289
   84MOL0     O11502   0.763   4.935   4.699  0.1664 -0.1694 -0.6374
   84MOL0     C11503   0.686   4.607   4.850  0.3538 -0.3112 -0.1646
   84MOL0     C11504   0.585   4.512   4.866 -0.5936  0.0010  0.6706
   84MOL0     N11505  -0.188   4.193   4.642 -0.4954  0.6366 -0.0494
   84MOL0     N11506  -0.318   4.194   4.630 -0.4627  0.2978 -0.4867
   84MOL0     C11507  -0.016   3.274   5.246  0.0651 -0.5451  0.1505
   84MOL0     C11508   0.106   3.202   5.224  1.1541 -0.3524 -0.0340
   84MOL0     C11509   0.447   2.985   5.069  0.3016  0.0899 -0.2635
   84MOL0     C11510   0.504   3.003   5.197  0.2450  0.7010 -0.3553
   84MOL0     C11511   0.617   2.920   5.229  0.4790  0.7803  0.3444
   84MOL0     C11512   0.678   2.840   5.139  0.1065 -0.3901  0.5444
   84MOL0     O11513   0.798   2.767   5.153 -0.3635  0.0697  0.5310
   84MOL0     C11514   0.864   2.772   5.279  0.0725  0.3527  0.3032
   84MOL0     C11515   0.996   2.701   5.257 -0.0150 -0.2215  0.0276
   84MOL0     C11516   0.973   2.564   5.198 -0.7085  0.1332  0.1628
   84MOL0     C11517   1.103   2.476   5.199  0.7593 -0.2292 -0.6857
   84MOL0     C11518   1.209   2.542   5.118 -0.0859 -0.6815  0.3691
   84MOL0     C11519   1.316   2.576   5.063  0.1449 -0.4682  0.1799
   84MOL0     C11520   0.628   2.835   5.010  0.0307  0.2916 -0.5540
   84MOL0     C11521   0.514   2.902   4.981  0.2374 -0.1982  0.8873
   84MOL0     C11522   0.465   2.891   4.829  0.2561  0.4043 -0.5897
   84MOL0     H11523   0.140   3.321   4.907  0.2623  0.9683  1.0657
   84MOL0     H11524  -0.038   3.446   4.955 -0.9355 -1.1981 -0.8840
   84MOL0     H11525  -0.274   3.450   5.015  0.3808 -0.5254 -0.0804
   84MOL0     H11526  -0.167   3.584   5.048 -0.3506  0.8687  1.5681
   84MOL0     H11527  -0.420   3.546   5.208 -2.3171  1.2296  0.6686
   84MOL0     H11528  -0.316   3.681   5.214 -0.8938 -0.4711  1.0777
   84MOL0     H11529  -0.417   3.611   4.934  0.5510 -0.8925  1.1429
   84MOL0     H11530  -0.542   3.621   5.053  0.0951 -2.2473  0.2844
   84MOL0     H11531  -0.482   3.848   5.094 -3.0772 -0.1541 -2.0542
   84MOL0     H11532  -0.325   3.834   4.994  0.4584 -0.8807  0.5643
   84MOL0     H11533  -0.621   3.810   4.915  0.6818 -2.0159 -5.0970
   84MOL0     H11534  -0.481   3.788   4.805 -0.9744  1.0219 -0.7987
   84MOL0     H11535  -0.518   4.039   4.982 -1.2455 -1.4879  0.0432
   84MOL0     H11536  -0.393   4.007   4.874 -0.7808  0.7154  0.5300
   84MOL0     H11537  -0.666   4.072   4.807 -0.1412  0.9237  0.9536
   84MOL0     H11538  -0.558   4.024   4.672  0.6730  1.0827 -0.6469
   84MOL0     H11539  -0.576   4.281   4.708  0.8206 -0.1300 -0.9508
   84MOL0     H11540  -0.526   4.266   4.878  0.0613  0.1351  0.2589
   84MOL0     H11541  -0.287   4.246   4.950 -1.2495 -2.9898  0.3828
   84MOL0     H11542   0.008   4.114   4.812 -1.3732  0.0431 -2.4337
   84MOL0     H11543  -0.058   4.203   4.953 -2.1463  0.3770 -0.7406
   84MOL0     H11544   0.108   4.311   4.727  0.6197 -2.2534  0.6938
   84MOL0     H11545   0.003   4.421   4.811  1.6680  0.0196 -0.8218
   84MOL0     H11546   0.102   4.365   5.026 -2.0478 -0.9874 -1.6787
   84MOL0     H11547   0.220   4.254   4.937  0.1144 -0.2030  1.9444
   84MOL0     H11548   0.194   4.553   4.890  0.8315  0.8811  0.4079
   84MOL0     H11549   0.299   4.487   5.007 -1.1969 -0.4721  1.1415
   84MOL0     H11550   0.328   4.679   4.715  0.3345  0.8270  0.8510
   84MOL0     H11551   0.359   4.873   4.668  0.3931 -3.3150 -0.9603
   84MOL0     H11552   0.494   4.870   4.558  0.9213 -0.2265  1.1489
   84MOL0     H11553   0.497   4.983   4.694 -0.1728  2.2391 -3.2268
   84MOL0     H11554   0.939   5.057   4.857  0.5528  1.6480 -1.5535
   84MOL0     H11555   1.153   5.159   4.859 -2.1054  0.4848  0.2774
   84MOL0     H11556   1.466   4.886   4.998  2.4787 -1.4336 -1.0937
   84MOL0     H11557   1.533   4.899   4.834 -0.6935 -0.6967 -0.6683
   84MOL0     H11558   1.575   5.137   5.018 -0.0785  0.7610 -0.3562
   84MOL0     H11559   1.673   4.989   5.033 -1.3963  1.3255  1.6772
   84MOL0     H11560   1.701   4.996   4.769 -1.9542  0.3582 -0.9876
   84MOL0     H11561   1.804   5.098   4.870 -0.0369 -0.7644 -0.1036
   84MOL0     H11562   1.648   5.285   4.859  1.0403 -0.8020  0.7256
   84MOL0     H11563   1.539   5.196   4.756  0.6848 -0.0659  0.0805
   84MOL0     H11564   1.804   5.322   4.705 -1.9068  2.2200  0.7058
   84MOL0     H11565   1.796   5.156   4.632  0.2742  0.3723 -0.2337
   84MOL0     H11566   1.619   5.407   4.586 -0.6054  1.7901 -1.1901
   84MOL0     H11567   1.580   5.248   4.528  1.2732 -1.4034  1.0915
   84MOL0     H11568   1.795   5.241   4.421 -1.4584 -0.5646  0.1347
   84MOL0     H11569   1.842   5.405   4.483 -2.0266  1.9783  0.6567
   84MOL0     H11570   1.661   5.506   4.354 -1.2503 -0.5160  2.6410
   84MOL0     H11571   1.623   5.337   4.295  0.1233 -0.0755  1.6493
   84MOL0     H11572   1.343   4.768   4.824  0.2525  0.9847  0.9797
   84MOL0     H11573   1.116   4.659   4.799  0.8790  0.1039  0.1280
   84MOL0     H11574   0.785   4.575   4.879  0.0993 -1.8370 -0.8636
   84MOL0     H11575   0.606   4.412   4.901 -0.8843 -0.2599  0.1134
   84MOL0     H11576  -0.056   3.272   5.347  0.5851  1.6125  0.4518
   84MOL0     H11577   0.144   3.133   5.299 -1.8607 -0.3463  1.6819
   84MOL0     H11578   0.466   3.069   5.274 -0.1978  1.2412 -1.0287
   84MOL0     H11579   0.659   2.927   5.329 -2.2080  1.7598  1.5044
   84MOL0     H11580   0.876   2.880   5.291 -2.1924  0.8552 -1.3128
   84MOL0     H11581   0.817   2.729   5.368  0.5690  2.3738  1.6182
   84MOL0     H11582   1.048   2.696   5.353 -0.5862 -2.0321  0.2652
   84MOL0     H11583   1.062   2.752   5.186 -0.3991 -0.0242 -0.1928
   84MOL0     H11584   0.901   2.509   5.260  1.4361  0.4103  3.1020
   84MOL0     H11585   0.949   2.572   5.091 -1.3773  1.6508  0.4105
   84MOL0     H11586   1.093   2.375   5.158 -1.3919 -0.6941  0.8117
   84MOL0     H11587   1.133   2.458   5.303 -0.2352 -0.7147 -0.4755
   84MOL0     H11588   1.409   2.600   5.015  1.6601 -2.1394  2.0790
   84MOL0     H11589   0.686   2.775   4.940  3.3588  0.2285  2.0069
   84MOL0     H11590   0.477   2.785   4.803 -0.1635 -0.1799  1.4697
   84MOL0     H11591   0.360   2.916   4.817 -0.1978  0.8647  3.1537
   84MOL0     H11592   0.531   2.960   4.776  2.0899 -0.7468  0.0741
   85MOL0     O11593  10.035   1.805   7.711 -0.6134 -0.5559  0.0866
   85MOL0     C11594   9.951   1.862   7.645 -0.5424 -0.2354 -0.1095
   85MOL0     O11595   9.969   1.985   7.578 -0.4041  0.4181 -0.0068
   85MOL0     C11596  10.098   2.033   7.559  0.0597  0.5370  0.3190
   85MOL0     C11597  10.132   2.136   7.641  0.1496 -0.0072  1.2420
   85MOL0     C11598  10.257   2.196   7.629 -0.0023 -0.8197  0.6143
   85MOL0     C11599  10.347   2.156   7.526  0.8785 -0.3718  0.0016
   85MOL0     O11600  10.475   2.204   7.511  0.3081  0.1896 -0.4010
   85MOL0     C11601  10.507   2.292   7.617 -0.3262  0.5609  0.3018
   85MOL0     C11602  10.652   2.341   7.586  0.0536  0.2550 -0.0681
   85MOL0     C11603  10.756   2.246   7.653  1.8310 -0.5895 -0.3901
   85MOL0     C11604  10.889   2.257   7.585  0.2071  0.7945 -0.1863
   85MOL0     C11605  10.962   2.386   7.616 -0.7079  1.0050  0.3460
   85MOL0     C11606  11.105   2.386   7.567  0.3396 -0.1396 -0.1112
   85MOL0     C11607  11.178   2.520   7.582  0.1863  0.2131 -0.0666
   85MOL0     C11608  11.317   2.516   7.522 -0.1540 -0.1605  1.2502
   85MOL0     N11609  11.421   2.423   7.588 -0.1437  0.1062  0.4450
   85MOL0     C11610  11.507   2.335   7.526  0.3453  0.6022  0.6955
   85MOL0     C11611  11.582   2.282   7.620  0.7628 -0.1568  0.1384
   85MOL0     C11612  11.703   2.194   7.595 -0.1297 -0.0954 -0.3184
   85MOL0     C11613  11.810   2.273   7.518 -0.6441  0.4418 -0.6207
   85MOL0     C11614  11.930   2.183   7.483  0.2774 -0.7999  0.0299
   85MOL0     C11615  12.017   2.123   7.598 -1.0869 -0.2447  0.3472
   85MOL0     O11616  12.091   2.227   7.646  0.7856  0.2050  0.1834
   85MOL0     C11617  12.228   2.225   7.639  0.4662  0.6432 -0.1545
   85MOL0     C11618  12.301   2.336   7.688  0.3903  1.1982  0.3825
   85MOL0     C11619  12.438   2.348   7.686 -0.5823  0.0779  0.0186
   85MOL0     C11620  12.496   2.471   7.755 -0.3321  0.2867  1.1450
   85MOL0     C11621  12.511   2.239   7.634  0.0853 -0.3197  1.0295
   85MOL0     C11622  12.655   2.258   7.620  0.1586 -0.5772  0.4675
   85MOL0     O11623  12.725   2.153   7.660 -0.0134  0.4274 -0.2113
   85MOL0     C11624  12.860   2.157   7.658 -0.9585  0.1949 -0.8467
   85MOL0     C11625  12.930   2.140   7.776 -0.1176  0.3337  0.1410
   85MOL0     C11626  13.060   2.138   7.788 -0.6816 -0.1686  0.7774
   85MOL0     C11627  13.144   2.131   7.665 -0.3154  0.5971 -0.0681
   85MOL0     O11628  13.273   2.115   7.695  0.2173  0.2268 -0.0356
   85MOL0     C11629  13.362   2.115   7.583  0.4198 -0.0310 -0.4602
   85MOL0     C11630  13.506   2.065   7.639  0.0083  0.1685 -0.4852
   85MOL0     C11631  13.628   2.047   7.551 -0.0644  0.4750  0.5024
   85MOL0     C11632  13.749   2.052   7.640  0.0059 -0.3841 -0.6895
   85MOL0     C11633  13.873   2.024   7.567 -0.2834  0.0677 -0.1526
   85MOL0     C11634  14.002   2.017   7.660 -1.0210  0.1529  0.1292
   85MOL0     C11635  14.137   2.009   7.589 -0.3946 -0.3525  0.3877
   85MOL0     C11636  14.256   1.981   7.669 -0.4357 -0.3497  0.5702
   85MOL0    Cl11637  14.405   2.011   7.572 -0.2975 -0.2413  0.4848
   85MOL0     C11638  13.077   2.139   7.540 -0.0295  0.2828 -1.0135
   85MOL0     C11639  12.935   2.162   7.540 -0.0846  0.3513  0.0831
   85MOL0     O11640  12.692   2.351   7.544 -0.8569 -0.0522  0.2456
   85MOL0     C11641  12.450   2.124   7.593 -0.8008 -0.0155  0.3511
   85MOL0     C11642  12.312   2.123   7.593 -0.3986 -0.0785  0.6980
   85MOL0     N11643  11.539   2.326   7.743  0.3096  0.0799 -1.0104
   85MOL0     N11644  11.447   2.412   7.721 -0.3738 -0.4086 -0.0625
   85MOL0     C11645  10.308   2.058   7.440 -0.2279  0.0464 -0.5709
   85MOL0     C11646  10.187   1.993   7.460 -0.6335  0.0349  0.1936
   85MOL0     C11647   9.817   1.813   7.640  0.8584 -1.2614  0.0749
   85MOL0     C11648   9.780   1.714   7.744 -0.2494 -0.4423  1.3014
   85MOL0     C11649   9.649   1.658   7.744  0.6515 -0.0232 -0.4258
   85MOL0     C11650   9.554   1.701   7.647 -0.0653 -0.2435 -0.7797
   85MOL0     O11651   9.427   1.656   7.637  0.1525 -0.2006  0.2535
   85MOL0     C11652   9.378   1.567   7.740 -0.5863  0.1419 -0.1820
   85MOL0     C11653   9.233   1.517   7.725 -1.1531  0.1347  0.3421
   85MOL0     C11654   9.140   1.631   7.747 -0.7862 -0.6373 -0.3889
   85MOL0     C11655   8.993   1.602   7.763  0.0562  0.2757 -0.6465
   85MOL0     C11656   8.932   1.602   7.628  0.4562  0.1012 -0.1983
   85MOL0     C11657   8.877   1.598   7.511 -0.8331  0.1101 -0.3369
   85MOL0     C11658   9.594   1.794   7.549  0.2067 -0.5051  0.1519
   85MOL0     C11659   9.717   1.845   7.535 -0.6480  0.6145  0.2872
   85MOL0     C11660   9.743   1.933   7.410  0.7014  0.6263 -0.0715
   85MOL0     H11661  10.066   2.178   7.717  1.1949  1.2005  1.5107
   85MOL0     H11662  10.272   2.285   7.688  0.1768 -0.7114  0.4086
   85MOL0     H11663  10.497   2.240   7.713 -4.1785 -0.2364 -0.3583
   85MOL0     H11664  10.443   2.380   7.625 -1.5476 -0.2664 -0.1040
   85MOL0     H11665  10.664   2.345   7.477  0.6695 -1.3865 -0.0931
   85MOL0     H11666  10.655   2.443   7.624 -1.2364  1.5741 -3.1615
   85MOL0     H11667  10.768   2.285   7.754 -1.6341  3.9260 -1.4203
   85MOL0     H11668  10.711   2.146   7.650 -3.1199  1.3817 -2.2004
   85MOL0     H11669  10.958   2.179   7.621  0.6931  2.0732  1.8125
   85MOL0     H11670  10.878   2.241   7.478  2.2153 -3.9305  0.0403
   85MOL0     H11671  10.956   2.391   7.725 -1.9348 -1.2005  0.4454
   85MOL0     H11672  10.919   2.474   7.568 -1.2328  0.9028  0.6174
   85MOL0     H11673  11.159   2.317   7.631  0.0312  2.0485  2.6814
   85MOL0     H11674  11.092   2.354   7.463 -0.0789  1.2832 -0.5227
   85MOL0     H11675  11.180   2.546   7.689 -0.5451  0.7165 -0.1703
   85MOL0     H11676  11.111   2.596   7.539 -1.2600 -0.4740  0.8774
   85MOL0     H11677  11.309   2.491   7.415  0.6110 -2.9428  1.7654
   85MOL0     H11678  11.367   2.613   7.531  1.9933 -1.1296  0.4367
   85MOL0     H11679  11.514   2.312   7.420  2.8816  0.9411  0.7310
   85MOL0     H11680  11.675   2.109   7.532  0.4280 -1.4932  1.2574
   85MOL0     H11681  11.734   2.167   7.696 -0.6533  0.6833  0.0669
   85MOL0     H11682  11.761   2.309   7.427  0.8603  0.5202 -1.4419
   85MOL0     H11683  11.842   2.354   7.584  2.0866 -0.5933 -0.5551
   85MOL0     H11684  11.902   2.097   7.423 -0.8756 -0.3050 -0.1604
   85MOL0     H11685  11.987   2.253   7.421 -2.2349 -0.1150 -1.6305
   85MOL0     H11686  11.959   2.090   7.685  1.0938  0.2176  2.0698
   85MOL0     H11687  12.067   2.036   7.556 -0.0299  0.2403  0.5725
   85MOL0     H11688  12.240   2.423   7.712 -1.8890  0.7059 -2.9391
   85MOL0     H11689  12.495   2.562   7.695  0.3651 -0.1200  0.5026
   85MOL0     H11690  12.602   2.450   7.773  0.0662 -1.2394 -2.2618
   85MOL0     H11691  12.442   2.490   7.849  0.2170 -0.0472  1.5361
   85MOL0     H11692  12.879   2.130   7.872 -2.1378  0.1931 -0.9075
   85MOL0     H11693  13.106   2.135   7.886 -2.1993 -1.7017  1.4920
   85MOL0     H11694  13.318   2.033   7.525 -2.3150  0.8067  0.2835
   85MOL0     H11695  13.364   2.210   7.529 -0.8162  0.1497 -0.2049
   85MOL0     H11696  13.524   2.155   7.699 -3.9656  0.5699  0.4110
   85MOL0     H11697  13.493   1.981   7.708 -1.2326  1.1796  0.5614
   85MOL0     H11698  13.618   2.124   7.474  2.6757  1.5390  1.0759
   85MOL0     H11699  13.623   1.951   7.500  0.4489  0.7580 -0.1035
   85MOL0     H11700  13.732   1.977   7.717 -0.7738  1.1909  0.7591
   85MOL0     H11701  13.742   2.154   7.679  1.2830  0.1841 -1.8461
   85MOL0     H11702  13.866   1.939   7.499  2.0235 -1.0967  0.9376
   85MOL0     H11703  13.882   2.108   7.498  0.9620  1.3295  1.4625
   85MOL0     H11704  14.000   1.925   7.720  0.1167  0.2516  0.3363
   85MOL0     H11705  14.001   2.098   7.732 -0.3353  1.0493 -0.8430
   85MOL0     H11706  14.145   2.104   7.535  1.1657  0.3958  1.8478
   85MOL0     H11707  14.137   1.935   7.508  1.0904 -1.3754  1.2655
   85MOL0     H11708  14.253   1.880   7.710  1.5536 -0.5863  0.2066
   85MOL0     H11709  14.271   2.046   7.755  2.7456  1.5233 -1.2117
   85MOL0     H11710  13.142   2.125   7.454  0.1635 -0.7010 -0.7187
   85MOL0     H11711  12.875   2.176   7.451  0.0378 -1.4846 -0.3385
   85MOL0     H11712  12.516   2.050   7.548  0.2112  1.1502 -0.1347
   85MOL0     H11713  12.273   2.029   7.558  1.0799 -0.0462 -1.2656
   85MOL0     H11714  10.363   2.019   7.356  1.9528  1.2209  0.2317
   85MOL0     H11715  10.153   1.905   7.406  2.7684 -2.1542  1.3029
   85MOL0     H11716   9.855   1.680   7.815  1.6223 -0.8432 -0.7783
   85MOL0     H11717   9.617   1.584   7.817 -0.2373 -3.3092 -3.7730
   85MOL0     H11718   9.444   1.481   7.753 -0.2062  0.4234 -0.2549
   85MOL0     H11719   9.391   1.607   7.841 -0.3406 -0.0919 -0.1206
   85MOL0     H11720   9.220   1.435   7.796  0.5339 -1.5013 -1.1310
   85MOL0     H11721   9.226   1.478   7.623  4.1520  0.7255 -0.5525
   85MOL0     H11722   9.166   1.674   7.844  2.0359 -0.7203 -1.0048
   85MOL0     H11723   9.157   1.713   7.677  0.8423  1.3277  2.1346
   85MOL0     H11724   8.955   1.690   7.815  0.2184  0.9113 -1.5830
   85MOL0     H11725   8.981   1.506   7.816  1.6618 -0.2831 -1.2385
   85MOL0     H11726   8.829   1.595   7.416 -0.6659  1.1448 -0.4635
   85MOL0     H11727   9.523   1.797   7.466 -0.3900 -0.3289  0.6612
   85MOL0     H11728   9.851   1.939   7.391  0.8597  0.0765  0.6078
   85MOL0     H11729   9.698   1.894   7.318  4.0723 -1.3095 -1.0771
   85MOL0     H11730   9.712   2.038   7.420  1.7084  0.9591 -0.2995
   86MOL0     O11731   5.804   8.788  11.138 -1.0129  0.4022  0.2708
   86MOL0     C11732   5.695   8.829  11.098  0.5112  0.4454  0.0271
   86MOL0     O11733   5.664   8.859  10.965 -0.2346  0.3736 -0.3692
   86MOL0     C11734   5.740   8.829  10.858  1.1426  0.1607  0.5446
   86MOL0     C11735   5.875   8.785  10.853  0.4585 -0.3888  0.4558
   86MOL0     C11736   5.936   8.761  10.728  0.0273  0.1373  0.1526
   86MOL0     C11737   5.869   8.785  10.610 -0.5390 -0.5530 -0.0806
   86MOL0     O11738   5.928   8.752  10.490 -0.0577 -0.0557 -0.0749
   86MOL0     C11739   5.935   8.845  10.382 -0.1700 -0.3451 -0.2141
   86MOL0     C11740   6.053   8.945  10.418  0.0254  0.0301  0.3775
   86MOL0     C11741   6.189   8.886  10.419 -0.0853  0.7453  0.4680
   86MOL0     C11742   6.307   8.995  10.400  0.5914 -0.3222  0.4433
   86MOL0     C11743   6.451   8.931  10.417 -0.1116 -1.1112  0.4749
   86MOL0     C11744   6.565   9.036  10.412  0.0136  0.0959 -0.1122
   86MOL0     C11745   6.693   8.975  10.467 -0.2941 -0.9495  0.2275
   86MOL0     C11746   6.756   8.890  10.348 -0.1050 -0.0319  0.7934
   86MOL0     N11747   6.892   8.847  10.393 -0.2024  0.3934  1.2944
   86MOL0     C11748   6.927   8.790  10.511  0.2976 -0.3259 -0.0890
   86MOL0     C11749   7.063   8.785  10.515  0.2874  0.0850 -0.6953
   86MOL0     C11750   7.140   8.740  10.631  0.2376  0.9275 -0.1148
   86MOL0     C11751   7.190   8.599  10.605 -0.5965 -0.3173 -0.1050
   86MOL0     C11752   7.320   8.574  10.679  0.0682 -0.3871  0.6206
   86MOL0     C11753   7.368   8.433  10.644  0.1310  0.0452 -0.6190
   86MOL0     O11754   7.471   8.389  10.733  0.1727 -0.2410  0.4378
   86MOL0     C11755   7.590   8.457  10.727 -0.4436 -0.7371 -0.2621
   86MOL0     C11756   7.672   8.463  10.841 -0.3153  0.0540  0.2155
   86MOL0     C11757   7.797   8.525  10.838 -0.2534 -0.2820 -0.7068
   86MOL0     C11758   7.879   8.514  10.968  0.3105  0.3476  0.6296
   86MOL0     C11759   7.842   8.588  10.725  0.4457 -0.1667  0.7677
   86MOL0     C11760   7.974   8.664  10.702  0.3853 -0.2627  0.3700
   86MOL0     O11761   7.997   8.696  10.570 -0.6868  0.0457 -0.3475
   86MOL0     C11762   8.124   8.723  10.515  0.3194  0.3787 -0.7008
   86MOL0     C11763   8.121   8.822  10.425 -0.3741 -0.1374 -0.0186
   86MOL0     C11764   8.242   8.859  10.372  0.7041  0.1456 -0.6162
   86MOL0     C11765   8.369   8.808  10.417  0.9355  0.2244  0.3076
   86MOL0     O11766   8.493   8.850  10.375  0.1902 -0.1641  0.2210
   86MOL0     C11767   8.505   8.972  10.310 -0.6463 -0.5317  0.0350
   86MOL0     C11768   8.657   8.978  10.266 -0.1914 -0.3950 -1.1729
   86MOL0     C11769   8.684   9.087  10.165  0.2438  0.8649 -0.5702
   86MOL0     C11770   8.641   9.219  10.209  0.3563 -0.7192  0.2295
   86MOL0     C11771   8.660   9.333  10.111 -0.3373 -0.5733 -0.6578
   86MOL0     C11772   8.593   9.461  10.158 -0.5172  0.4414  0.0052
   86MOL0     C11773   8.541   9.530  10.031  0.0929 -0.1384  0.4976
   86MOL0     C11774   8.452   9.650  10.075 -0.2732 -0.4636  0.1458
   86MOL0    Cl11775   8.408   9.745   9.930 -0.1521 -0.5049  0.0964
   86MOL0     C11776   8.370   8.705  10.511  0.7686 -0.6004  0.2009
   86MOL0     C11777   8.243   8.662  10.561 -0.6072 -0.1658 -0.2832
   86MOL0     O11778   8.053   8.683  10.792  0.0059 -0.2476  0.9008
   86MOL0     C11779   7.771   8.562  10.600  0.2021 -0.0989 -0.0439
   86MOL0     C11780   7.639   8.508  10.606 -0.5312 -0.4713 -0.3057
   86MOL0     N11781   7.113   8.829  10.398 -0.1860  0.2853 -0.6534
   86MOL0     N11782   7.010   8.860  10.330  1.0401 -0.1807 -0.7871
   86MOL0     C11783   5.744   8.841  10.612  0.4086 -0.1968 -0.9303
   86MOL0     C11784   5.679   8.854  10.731 -0.5004 -0.6159 -0.8520
   86MOL0     C11785   5.591   8.864  11.202  0.7098 -0.1719 -0.0612
   86MOL0     C11786   5.506   8.974  11.179  1.0863  0.6743 -0.4735
   86MOL0     C11787   5.408   9.012  11.275 -0.2611  0.1920  0.3535
   86MOL0     C11788   5.409   8.947  11.402 -0.1329  0.2763 -0.2436
   86MOL0     O11789   5.311   8.984  11.495  0.4554  0.8698  0.2718
   86MOL0     C11790   5.291   8.913  11.618  0.2404 -0.6753  0.2027
   86MOL0     C11791   5.347   8.996  11.733 -0.3080  0.4415 -0.5643
   86MOL0     C11792   5.313   8.945  11.875  0.3366  0.3520 -0.5915
   86MOL0     C11793   5.343   9.046  11.989 -1.1199 -0.1416 -0.0431
   86MOL0     C11794   5.488   9.035  12.027 -0.4610 -0.5131  0.1224
   86MOL0     C11795   5.607   9.016  12.042 -0.2377  0.0723  0.4017
   86MOL0     C11796   5.492   8.833  11.419  0.0100  0.3649  0.8438
   86MOL0     C11797   5.576   8.786  11.314  0.4301 -0.1129 -0.1394
   86MOL0     C11798   5.654   8.663  11.338 -0.2157  0.8160 -0.8930
   86MOL0     H11799   5.930   8.768  10.945 -0.7263 -1.3471  1.0154
   86MOL0     H11800   6.028   8.704  10.729 -0.6210 -0.9849 -0.8913
   86MOL0     H11801   5.840   8.896  10.369 -0.3051 -0.7338 -0.7860
   86MOL0     H11802   5.949   8.803  10.282 -1.5513 -0.0770 -0.5407
   86MOL0     H11803   6.049   9.031  10.351 -1.3550 -0.0694  0.3057
   86MOL0     H11804   6.050   8.983  10.521  0.1550  1.3822 -0.1031
   86MOL0     H11805   6.212   8.840  10.515  1.4781 -0.4091 -0.4114
   86MOL0     H11806   6.188   8.813  10.337 -1.2286  0.8624  0.3529
   86MOL0     H11807   6.295   9.034  10.298 -0.8538 -0.6189  0.4812
   86MOL0     H11808   6.294   9.075  10.474  1.5927 -2.1970  2.7637
   86MOL0     H11809   6.462   8.860  10.334  0.0697  0.8791 -1.2923
   86MOL0     H11810   6.447   8.879  10.513 -0.6386  0.2289  1.1972
   86MOL0     H11811   6.582   9.081  10.314  3.7887 -1.1562 -0.1815
   86MOL0     H11812   6.526   9.107  10.485 -1.9529 -1.4108  0.3951
   86MOL0     H11813   6.683   8.897  10.544  2.0776 -0.5726  0.9773
   86MOL0     H11814   6.765   9.052  10.496 -0.2403 -1.3468  1.1896
   86MOL0     H11815   6.692   8.804  10.328  0.2279  0.3148 -2.1592
   86MOL0     H11816   6.752   8.955  10.261  0.2949 -0.0076  0.7887
   86MOL0     H11817   6.859   8.764  10.591  0.6402  1.0147  0.6618
   86MOL0     H11818   7.080   8.753  10.722 -1.1637  0.4343 -0.9348
   86MOL0     H11819   7.229   8.802  10.645  2.7597 -2.7424  1.4400
   86MOL0     H11820   7.118   8.519  10.624  2.5061 -3.3484 -0.1156
   86MOL0     H11821   7.200   8.600  10.496  3.3704 -1.2474  0.1152
   86MOL0     H11822   7.395   8.649  10.654  1.8435 -1.7919  1.4790
   86MOL0     H11823   7.308   8.588  10.787  0.2520 -3.4337  1.1371
   86MOL0     H11824   7.280   8.369  10.658  0.0304  0.5708  1.6441
   86MOL0     H11825   7.395   8.422  10.539  3.1837 -0.2486  0.0911
   86MOL0     H11826   7.640   8.409  10.930  0.6785  1.5777  1.5433
   86MOL0     H11827   7.970   8.454  10.956  0.1401  0.2993 -0.6050
   86MOL0     H11828   7.820   8.477  11.052 -0.6910  1.9146  0.6647
   86MOL0     H11829   7.906   8.615  11.001  0.1469 -0.1181  2.2778
   86MOL0     H11830   8.028   8.869  10.394 -1.7817 -2.1554  1.0122
   86MOL0     H11831   8.240   8.926  10.286  1.8002 -0.8486 -1.4453
   86MOL0     H11832   8.435   8.976  10.226 -0.6065 -0.0988  0.0216
   86MOL0     H11833   8.473   9.057  10.370 -3.6721 -1.7143  0.2325
   86MOL0     H11834   8.717   9.004  10.354 -2.7587  0.7929  0.3702
   86MOL0     H11835   8.697   8.883  10.230  0.4840 -0.1062 -1.2027
   86MOL0     H11836   8.643   9.051  10.070 -2.1012 -2.2450  1.4247
   86MOL0     H11837   8.792   9.098  10.153  0.3782 -1.3415 -1.8799
   86MOL0     H11838   8.677   9.256  10.306 -0.1649  0.5677 -0.0513
   86MOL0     H11839   8.536   9.210  10.237  1.4646 -2.9942  4.5372
   86MOL0     H11840   8.766   9.358  10.101 -0.4832  1.2822  1.6126
   86MOL0     H11841   8.623   9.298  10.014  0.3019 -2.9452 -0.1077
   86MOL0     H11842   8.662   9.514  10.223  2.2831 -1.3081 -1.3401
   86MOL0     H11843   8.509   9.434  10.223  0.2838 -2.9783 -0.1767
   86MOL0     H11844   8.480   9.470   9.964  2.9311  0.5401 -2.9695
   86MOL0     H11845   8.623   9.574   9.974  0.4615  1.7258  2.3424
   86MOL0     H11846   8.498   9.714  10.150 -1.8054  0.3776  0.4018
   86MOL0     H11847   8.362   9.615  10.127  0.1329  0.6406  1.6781
   86MOL0     H11848   8.459   8.682  10.569  0.3412  3.0425  2.5714
   86MOL0     H11849   8.237   8.608  10.655 -0.5735  3.1736  1.8171
   86MOL0     H11850   7.806   8.584  10.500 -1.5677  0.6765 -0.5274
   86MOL0     H11851   7.586   8.490  10.513  0.3999 -1.2289 -0.7086
   86MOL0     H11852   5.687   8.860  10.522  1.2635  1.4163 -1.1872
   86MOL0     H11853   5.573   8.878  10.738 -0.3399 -0.3700  2.4928
   86MOL0     H11854   5.512   9.041  11.094  3.0034  0.8056 -0.2875
   86MOL0     H11855   5.344   9.099  11.276 -0.3427  0.1314  0.7124
   86MOL0     H11856   5.184   8.923  11.641  0.2112 -2.6258  1.1102
   86MOL0     H11857   5.314   8.806  11.617  1.8358 -0.3559 -0.0082
   86MOL0     H11858   5.306   9.097  11.724 -2.2290 -0.1865  0.4033
   86MOL0     H11859   5.455   9.014  11.726 -0.4363  1.2776 -0.4901
   86MOL0     H11860   5.205   8.932  11.880  0.1975  1.6285  0.2781
   86MOL0     H11861   5.359   8.853  11.912  2.0031  1.6295  0.6715
   86MOL0     H11862   5.289   9.040  12.084 -0.5039 -1.7203  0.2323
   86MOL0     H11863   5.315   9.144  11.950 -0.6429  0.4482  1.0470
   86MOL0     H11864   5.714   9.012  12.038 -0.2404 -0.3079  0.6811
   86MOL0     H11865   5.485   8.778  11.512 -1.4612 -0.8149  0.0845
   86MOL0     H11866   5.760   8.680  11.363 -0.0235 -0.9339 -0.4035
   86MOL0     H11867   5.611   8.604  11.419 -1.3057  2.1536 -0.4480
   86MOL0     H11868   5.664   8.603  11.248  0.1313  3.2779 -2.5932
   87MOL0     O11869   5.861   6.132  10.647 -0.1834  0.0359  0.2122
   87MOL0     C11870   5.862   6.252  10.643 -0.0523 -0.1721  0.3627
   87MOL0     O11871   5.976   6.331  10.620 -0.0375 -0.0133  0.2093
   87MOL0     C11872   6.098   6.274  10.628  0.5654  0.4578 -0.7394
   87MOL0     C11873   6.198   6.351  10.689 -0.1192 -0.0682  0.2486
   87MOL0     C11874   6.321   6.295  10.712 -0.8386 -0.4912  0.6013
   87MOL0     C11875   6.348   6.162  10.678  0.1443 -0.2448 -0.0920
   87MOL0     O11876   6.468   6.099  10.693 -0.3154  0.1154  0.0237
   87MOL0     C11877   6.583   6.185  10.722  0.0457 -0.2903  0.9160
   87MOL0     C11878   6.716   6.107  10.694  0.3459 -0.0957  0.3388
   87MOL0     C11879   6.832   6.203  10.707  0.0907 -1.1362  0.0835
   87MOL0     C11880   6.954   6.141  10.625  0.9996 -0.5437  0.3521
   87MOL0     C11881   7.078   6.224  10.645  0.2393  0.4349 -0.6878
   87MOL0     C11882   7.203   6.192  10.555  0.0577 -0.5701 -0.6566
   87MOL0     C11883   7.334   6.254  10.600  0.4019 -0.1425 -0.4605
   87MOL0     C11884   7.455   6.203  10.517 -0.5295  0.6988  0.3043
   87MOL0     N11885   7.551   6.313  10.498 -0.0059 -0.1877  0.0964
   87MOL0     C11886   7.551   6.394  10.392 -0.2916 -0.3457 -0.0133
   87MOL0     C11887   7.643   6.482  10.409 -0.6065  0.0251 -0.1354
   87MOL0     C11888   7.669   6.603  10.322 -0.1820  0.6046 -0.1671
   87MOL0     C11889   7.767   6.567  10.211  0.1735  0.2292  0.4473
   87MOL0     C11890   7.912   6.529  10.249 -0.4224  0.2568 -0.3517
   87MOL0     C11891   7.983   6.630  10.349  1.0790  0.9589 -0.1513
   87MOL0     O11892   8.123   6.596  10.348  0.6274  0.4621  0.1648
   87MOL0     C11893   8.208   6.673  10.433  0.4058  0.8818  0.2008
   87MOL0     C11894   8.343   6.658  10.424  0.2795  0.3297  0.4471
   87MOL0     C11895   8.434   6.719  10.507 -0.6752 -0.9464 -0.5533
   87MOL0     C11896   8.574   6.727  10.462 -0.2875 -0.7495 -0.4099
   87MOL0     C11897   8.388   6.780  10.628 -0.0328  0.7621  0.5849
   87MOL0     C11898   8.474   6.833  10.732 -0.1057  0.1263  0.0084
   87MOL0     O11899   8.612   6.791  10.723  0.0290  0.2372  0.0787
   87MOL0     C11900   8.694   6.861  10.805 -1.1461  0.4332 -0.2926
   87MOL0     C11901   8.737   6.797  10.919 -1.2567 -0.4841 -0.3810
   87MOL0     C11902   8.829   6.868  10.999 -0.4746 -0.2602  0.1776
   87MOL0     C11903   8.880   6.999  10.963  0.6381 -0.0696  0.1287
   87MOL0     O11904   8.959   7.082  11.051  0.2229 -0.0852  0.1909
   87MOL0     C11905   8.902   7.110  11.175  0.7002  0.4585  0.1711
   87MOL0     C11906   8.951   7.248  11.216  0.0005 -0.3764  0.7464
   87MOL0     C11907   9.108   7.259  11.220 -0.3705 -0.8526  0.6678
   87MOL0     C11908   9.152   7.380  11.305  0.2754 -0.2162  0.4465
   87MOL0     C11909   9.305   7.394  11.345  0.2985 -0.6701 -0.6841
   87MOL0     C11910   9.331   7.284  11.448  0.4380  0.1247 -0.5380
   87MOL0     C11911   9.467   7.290  11.512 -0.5252  0.3509 -0.3365
   87MOL0     C11912   9.495   7.181  11.625 -0.1559 -0.5698  0.2747
   87MOL0    Cl11913   9.628   7.227  11.736 -0.0565  0.1840 -0.0182
   87MOL0     C11914   8.845   7.051  10.840 -0.2226  0.2520 -0.0688
   87MOL0     C11915   8.756   6.975  10.763 -0.0379 -0.9911  0.4799
   87MOL0     O11916   8.434   6.921  10.807 -0.1796  0.0408  0.5993
   87MOL0     C11917   8.249   6.787  10.640  0.2725 -0.3978 -0.8724
   87MOL0     C11918   8.162   6.741  10.538 -0.1738  0.2731 -0.3569
   87MOL0     N11919   7.707   6.456  10.529  0.3616 -0.1630 -0.6485
   87MOL0     N11920   7.655   6.353  10.585 -0.2065  0.2241  1.0115
   87MOL0     C11921   6.253   6.096  10.603 -0.7885 -0.5497  0.4857
   87MOL0     C11922   6.129   6.152  10.578  0.5462 -0.4493 -0.0120
   87MOL0     C11923   5.739   6.331  10.656  0.3514  0.0860  0.1374
   87MOL0     C11924   5.740   6.458  10.598  0.5316  0.3812 -0.1364
   87MOL0     C11925   5.633   6.539  10.611  0.4037  0.5510 -0.1582
   87MOL0     C11926   5.513   6.497  10.677  0.7247 -0.0834  0.5762
   87MOL0     O11927   5.417   6.600  10.683 -0.3325  1.0938 -0.2423
   87MOL0     C11928   5.285   6.562  10.744  0.0847  0.3211 -0.0156
   87MOL0     C11929   5.223   6.697  10.783  0.6864 -0.2590  0.4944
   87MOL0     C11930   5.075   6.677  10.832  0.3580 -0.2564 -0.6948
   87MOL0     C11931   5.035   6.817  10.885 -0.2057 -0.2685  0.5106
   87MOL0     C11932   4.892   6.836  10.865 -0.1320  0.3058 -0.0346
   87MOL0     C11933   4.779   6.867  10.847 -0.2774 -0.0991  0.1934
   87MOL0     C11934   5.511   6.371  10.737 -0.6270  0.0460 -0.3161
   87MOL0     C11935   5.624   6.289  10.728 -1.1149  0.9443 -0.1789
   87MOL0     C11936   5.616   6.154  10.798  0.5110 -0.3808  0.0061
   87MOL0     H11937   6.187   6.454  10.721  1.1287  0.7970 -1.8792
   87MOL0     H11938   6.401   6.342  10.767 -0.0857 -1.3141  0.2445
   87MOL0     H11939   6.583   6.220  10.825 -0.2508 -0.0367  0.8309
   87MOL0     H11940   6.596   6.277  10.663  2.1325 -1.1904 -0.1460
   87MOL0     H11941   6.732   6.024  10.763  1.3732  1.6949  2.3512
   87MOL0     H11942   6.714   6.062  10.594 -0.0163 -3.3341  1.6715
   87MOL0     H11943   6.813   6.301  10.661  2.3096 -0.5534  0.2847
   87MOL0     H11944   6.852   6.216  10.814  0.3569  0.8917 -0.1733
   87MOL0     H11945   6.980   6.038  10.651 -0.6678 -0.8815  0.7971
   87MOL0     H11946   6.919   6.135  10.521 -1.7611 -0.5331  1.2275
   87MOL0     H11947   7.092   6.200  10.751  1.7137 -1.0816 -1.1730
   87MOL0     H11948   7.046   6.326  10.624 -0.9678 -0.0335 -1.1975
   87MOL0     H11949   7.219   6.084  10.551  3.0019 -0.2274 -0.2909
   87MOL0     H11950   7.174   6.225  10.454  1.0041  0.4715 -0.6033
   87MOL0     H11951   7.354   6.227  10.705 -0.2713  0.2327 -0.2297
   87MOL0     H11952   7.313   6.361  10.598 -2.7547 -0.6499 -0.1961
   87MOL0     H11953   7.512   6.120  10.559  1.9854  0.7364 -2.6347
   87MOL0     H11954   7.428   6.162  10.419  2.1273 -1.3488  0.3020
   87MOL0     H11955   7.483   6.381  10.308 -0.8652  1.5058  0.1321
   87MOL0     H11956   7.710   6.687  10.380  0.9603 -0.2255  0.2647
   87MOL0     H11957   7.578   6.639  10.273  0.1369  1.5025 -0.1274
   87MOL0     H11958   7.721   6.501  10.137  0.6701  0.9091 -0.4797
   87MOL0     H11959   7.766   6.657  10.150 -4.5276 -1.9222 -3.3361
   87MOL0     H11960   7.913   6.427  10.289  3.6720 -0.0680 -0.8512
   87MOL0     H11961   7.974   6.528  10.159 -0.9028 -0.7295 -0.6895
   87MOL0     H11962   7.971   6.732  10.312 -0.8505  1.1898  0.9810
   87MOL0     H11963   7.945   6.614  10.451  2.7556 -1.6362  0.1602
   87MOL0     H11964   8.381   6.610  10.335 -2.9405 -1.9531  0.1367
   87MOL0     H11965   8.645   6.660  10.512 -0.0912 -0.6477 -0.5523
   87MOL0     H11966   8.619   6.827  10.462 -1.9038  0.0477 -2.8727
   87MOL0     H11967   8.574   6.688  10.360  1.6637 -0.0293 -0.7288
   87MOL0     H11968   8.695   6.699  10.934 -0.5037 -0.9461 -1.2132
   87MOL0     H11969   8.864   6.822  11.091  0.7297  1.1198  0.4654
   87MOL0     H11970   8.793   7.110  11.177  0.6897  1.4695  2.2353
   87MOL0     H11971   8.945   7.032  11.238 -0.2047 -0.2466 -0.0710
   87MOL0     H11972   8.909   7.320  11.146  0.5217 -1.0654 -0.3106
   87MOL0     H11973   8.923   7.272  11.319  2.5012  1.4982  1.0898
   87MOL0     H11974   9.141   7.274  11.117  1.4696  0.3844  1.3731
   87MOL0     H11975   9.158   7.173  11.266  2.1045 -0.1399 -0.4979
   87MOL0     H11976   9.097   7.379  11.399  0.9936  1.8928  0.9286
   87MOL0     H11977   9.125   7.467  11.245  0.1446 -1.6873 -1.7341
   87MOL0     H11978   9.368   7.391  11.256 -1.2445  2.6050 -2.0294
   87MOL0     H11979   9.314   7.493  11.390  1.9850 -1.3037  0.4921
   87MOL0     H11980   9.341   7.187  11.398 -0.1490 -0.6387  0.7779
   87MOL0     H11981   9.251   7.283  11.522  0.1687 -1.0840 -0.8230
   87MOL0     H11982   9.472   7.387  11.562 -0.7858  0.8382 -1.2375
   87MOL0     H11983   9.545   7.286  11.435  0.5774 -2.0222  0.7779
   87MOL0     H11984   9.524   7.086  11.580 -0.5420 -0.7227  0.3490
   87MOL0     H11985   9.398   7.179  11.676 -1.8375 -0.0598 -2.6694
   87MOL0     H11986   8.875   7.151  10.810 -0.8740  0.7833  1.0058
   87MOL0     H11987   8.718   7.017  10.669  0.7373 -1.2554  0.0441
   87MOL0     H11988   8.189   6.834  10.718 -0.6196 -0.5836 -1.4339
   87MOL0     H11989   8.056   6.756  10.554 -0.1896 -0.5960  0.4294
   87MOL0     H11990   6.257   5.994  10.566 -0.9591 -0.6440  0.7267
   87MOL0     H11991   6.054   6.113  10.510  0.1983 -0.2534  0.2560
   87MOL0     H11992   5.822   6.495  10.538 -0.3704  0.0899 -1.6046
   87MOL0     H11993   5.626   6.642  10.577  0.0116 -0.0680 -2.1119
   87MOL0     H11994   5.221   6.511  10.670  1.1176  1.1676 -1.5592
   87MOL0     H11995   5.297   6.495  10.830 -0.3478  0.6383  0.2945
   87MOL0     H11996   5.223   6.769  10.701 -2.8819  0.4441  0.9322
   87MOL0     H11997   5.279   6.747  10.862  0.7558  1.2869 -0.4927
   87MOL0     H11998   5.011   6.629  10.757 -2.8234  1.8099  0.4651
   87MOL0     H11999   5.074   6.605  10.915  0.9242 -2.9887 -2.9071
   87MOL0     H12000   5.079   6.896  10.824 -0.6793 -1.0729 -0.9444
   87MOL0     H12001   5.053   6.831  10.991 -2.6831 -0.9030  1.0975
   87MOL0     H12002   4.679   6.899  10.829 -0.3675 -0.2123  0.4886
   87MOL0     H12003   5.427   6.330  10.791  0.1844 -1.3118 -0.0425
   87MOL0     H12004   5.607   6.075  10.723 -1.2159  0.1667 -0.4218
   87MOL0     H12005   5.690   6.137  10.876 -1.4167 -0.7023  1.8644
   87MOL0     H12006   5.518   6.144  10.845  0.5704  0.3168  0.3045
   88MOL0     O12007   9.845   2.378   7.855  0.1134 -0.4915 -0.1068
   88MOL0     C12008   9.756   2.378   7.936 -1.0739  0.1754 -0.1364
   88MOL0     O12009   9.782   2.373   8.072  0.0614 -0.5365 -0.1414
   88MOL0     C12010   9.907   2.354   8.137 -0.0043 -0.5092 -0.0116
   88MOL0     C12011  10.034   2.334   8.073 -0.6861  0.3454 -0.6278
   88MOL0     C12012  10.149   2.325   8.141 -0.0313  0.7800  0.5177
   88MOL0     C12013  10.135   2.317   8.283 -0.2270 -0.2749 -0.3146
   88MOL0     O12014  10.246   2.304   8.364 -0.1787 -0.0837  0.7158
   88MOL0     C12015  10.370   2.365   8.327  0.5478 -0.1969  0.5933
   88MOL0     C12016  10.472   2.372   8.442 -0.4871 -0.5290 -0.3600
   88MOL0     C12017  10.560   2.243   8.457 -0.1457 -0.0211 -1.1833
   88MOL0     C12018  10.648   2.221   8.585 -0.4294 -0.3609 -1.1484
   88MOL0     C12019  10.778   2.299   8.583 -0.2942 -0.0684  0.6552
   88MOL0     C12020  10.859   2.240   8.699 -0.0663 -0.6762  0.4323
   88MOL0     C12021  10.991   2.308   8.728  0.4587  0.4545 -0.3799
   88MOL0     C12022  11.064   2.226   8.842  1.0813 -0.4870 -0.5478
   88MOL0     N12023  11.208   2.263   8.844  0.7906 -0.1506  0.3370
   88MOL0     C12024  11.304   2.179   8.796  0.0544 -0.2201 -0.5730
   88MOL0     C12025  11.409   2.262   8.780  0.5526  0.2605  0.2375
   88MOL0     C12026  11.536   2.220   8.701 -0.0936  0.5639  0.6321
   88MOL0     C12027  11.674   2.201   8.779  0.8651  0.2318  0.1575
   88MOL0     C12028  11.659   2.111   8.898 -0.3031  0.0530 -0.7565
   88MOL0     C12029  11.781   2.078   8.979 -0.4589  0.7286 -0.3414
   88MOL0     O12030  11.869   2.188   9.002  0.0663  0.2745 -0.3696
   88MOL0     C12031  12.000   2.178   9.029 -0.6373  0.6307  0.6816
   88MOL0     C12032  12.049   2.064   9.098 -0.5419  0.0343 -1.1629
   88MOL0     C12033  12.178   2.052   9.139 -0.3023  0.4083 -0.3436
   88MOL0     C12034  12.218   1.917   9.203  0.3005 -0.7569 -0.1166
   88MOL0     C12035  12.267   2.157   9.111 -0.8200  0.5786 -0.3012
   88MOL0     C12036  12.411   2.155   9.140 -0.6219 -0.1527  0.2938
   88MOL0     O12037  12.500   2.217   9.051 -0.2441  0.0810  0.2057
   88MOL0     C12038  12.635   2.226   9.083  1.1512 -0.1287  0.7026
   88MOL0     C12039  12.697   2.351   9.092  0.7109  0.1704  0.8441
   88MOL0     C12040  12.833   2.356   9.136 -0.2555 -0.7111 -0.4669
   88MOL0     C12041  12.911   2.244   9.162 -0.8137  0.3975 -0.3507
   88MOL0     O12042  13.049   2.270   9.186  0.7711 -0.0111  0.4645
   88MOL0     C12043  13.132   2.154   9.194 -0.1878  0.4671  0.5480
   88MOL0     C12044  13.281   2.188   9.223 -0.6526  0.3775 -0.3669
   88MOL0     C12045  13.338   2.275   9.105  0.7298 -0.1559  0.6238
   88MOL0     C12046  13.491   2.293   9.115 -0.1695 -0.3378 -0.5725
   88MOL0     C12047  13.571   2.170   9.046  0.6564  0.6513 -0.0840
   88MOL0     C12048  13.712   2.217   8.986  0.8925 -0.1814 -0.1000
   88MOL0     C12049  13.698   2.319   8.877 -0.3376  0.4519  0.0519
   88MOL0     C12050  13.612   2.275   8.755 -0.2383 -0.1593 -0.3574
   88MOL0    Cl12051  13.589   2.394   8.629 -0.2404 -0.4285 -0.3017
   88MOL0     C12052  12.840   2.124   9.162 -0.1730 -0.2964 -0.7815
   88MOL0     C12053  12.708   2.112   9.118  0.6024  0.1389 -0.5565
   88MOL0     O12054  12.447   2.095   9.241 -0.8127  0.0080  0.2060
   88MOL0     C12055  12.227   2.271   9.048  1.0403  0.1827  0.6524
   88MOL0     C12056  12.088   2.282   9.005 -0.9997  0.1970 -0.3221
   88MOL0     N12057  11.377   2.393   8.811 -0.3457 -0.3983 -0.5315
   88MOL0     N12058  11.260   2.383   8.877 -0.5768  0.2166  0.4546
   88MOL0     C12059  10.020   2.349   8.347  0.1603  1.0808  0.5907
   88MOL0     C12060   9.904   2.378   8.278  0.2256  1.1540 -0.1288
   88MOL0     C12061   9.609   2.389   7.895  0.3715  0.0128  0.0834
   88MOL0     C12062   9.528   2.449   7.984  0.4040 -0.1831 -0.3177
   88MOL0     C12063   9.388   2.463   7.965  0.3132  0.4577 -0.0398
   88MOL0     C12064   9.329   2.422   7.847 -0.3315  0.9093 -0.2605
   88MOL0     O12065   9.195   2.431   7.817 -0.2126  0.0566  0.2376
   88MOL0     C12066   9.101   2.466   7.918 -0.5023 -0.5985  0.0335
   88MOL0     C12067   8.970   2.444   7.847 -0.1656  0.0497 -0.5037
   88MOL0     C12068   8.855   2.486   7.945 -0.4927 -0.8338 -0.4494
   88MOL0     C12069   8.721   2.450   7.882 -0.6495  0.4263 -0.4225
   88MOL0     C12070   8.623   2.499   7.977 -0.3324 -0.3786  0.2813
   88MOL0     C12071   8.532   2.536   8.049  0.7360 -0.0983  0.3021
   88MOL0     C12072   9.416   2.362   7.750 -0.0159  0.0878 -0.9754
   88MOL0     C12073   9.556   2.346   7.769 -0.0900 -0.2449  0.3501
   88MOL0     C12074   9.648   2.299   7.658  0.4124  0.2546 -0.3440
   88MOL0     H12075  10.053   2.322   7.967  1.6981 -3.8622  0.0262
   88MOL0     H12076  10.251   2.333   8.105  0.4008 -0.6959  1.3266
   88MOL0     H12077  10.339   2.468   8.309 -0.5956 -0.2094  2.3385
   88MOL0     H12078  10.405   2.318   8.235 -0.4298  1.1812 -0.5247
   88MOL0     H12079  10.544   2.452   8.429 -2.1591  1.1543  0.3202
   88MOL0     H12080  10.426   2.397   8.538  2.5840 -1.3481  1.4841
   88MOL0     H12081  10.495   2.155   8.456  0.6118 -0.6329  0.4983
   88MOL0     H12082  10.627   2.238   8.371  0.6357 -3.4437 -0.5051
   88MOL0     H12083  10.589   2.239   8.675  1.1877  0.1628 -0.1565
   88MOL0     H12084  10.674   2.115   8.589  1.2447  0.0413 -0.3803
   88MOL0     H12085  10.755   2.404   8.604 -2.1203 -0.1277 -0.7548
   88MOL0     H12086  10.825   2.293   8.485  1.7638 -0.5288  1.6083
   88MOL0     H12087  10.798   2.254   8.789  0.1159  1.9491  0.2252
   88MOL0     H12088  10.874   2.132   8.683 -0.6762 -0.9181  1.4026
   88MOL0     H12089  10.972   2.414   8.750  2.1623  0.6800  0.1234
   88MOL0     H12090  11.064   2.297   8.647  1.5346 -0.8851  0.7186
   88MOL0     H12091  11.017   2.264   8.933  3.3483  0.3539  0.3516
   88MOL0     H12092  11.044   2.119   8.840 -2.4957 -0.0729  2.6445
   88MOL0     H12093  11.290   2.073   8.779 -2.8648 -0.2653  1.3927
   88MOL0     H12094  11.553   2.301   8.630  2.1599 -0.8884 -0.6188
   88MOL0     H12095  11.506   2.130   8.645  1.3016 -0.4370  1.4460
   88MOL0     H12096  11.747   2.152   8.714 -0.1681  0.5905 -1.3373
   88MOL0     H12097  11.708   2.296   8.822 -0.3760  0.8881 -0.2574
   88MOL0     H12098  11.585   2.147   8.970  1.8892  3.2594  0.1216
   88MOL0     H12099  11.623   2.010   8.876  1.6954 -1.1091  0.9753
   88MOL0     H12100  11.763   2.039   9.079 -2.4003  1.8933 -0.1896
   88MOL0     H12101  11.838   1.998   8.930 -1.8826 -0.4895 -0.0997
   88MOL0     H12102  11.984   1.976   9.102 -1.0089  0.4068 -0.0659
   88MOL0     H12103  12.159   1.839   9.154 -0.7490 -0.5588  0.8074
   88MOL0     H12104  12.199   1.925   9.310  1.8835 -0.1395  0.1504
   88MOL0     H12105  12.325   1.895   9.190  1.1281  1.4730  2.1155
   88MOL0     H12106  12.635   2.433   9.056 -0.4980 -0.3201  1.7734
   88MOL0     H12107  12.883   2.452   9.134  0.1684 -0.9322 -1.1949
   88MOL0     H12108  13.104   2.083   9.272  2.0336  0.3839  1.3346
   88MOL0     H12109  13.119   2.093   9.104 -1.2534  0.3948  0.7335
   88MOL0     H12110  13.300   2.240   9.317  3.9438 -1.4351 -0.0476
   88MOL0     H12111  13.354   2.108   9.237  3.9623  3.5830 -3.2549
   88MOL0     H12112  13.287   2.372   9.099 -0.9048 -1.0042  0.3578
   88MOL0     H12113  13.305   2.226   9.013 -1.8489 -0.3820  1.5997
   88MOL0     H12114  13.521   2.293   9.220 -0.7500  0.8791 -0.3845
   88MOL0     H12115  13.527   2.386   9.071 -1.1376  0.0117 -0.6528
   88MOL0     H12116  13.587   2.102   9.130  1.6858  0.5620 -0.3386
   88MOL0     H12117  13.502   2.128   8.973  1.8455 -1.7196  0.0549
   88MOL0     H12118  13.767   2.129   8.953  1.4053  0.6620 -1.5916
   88MOL0     H12119  13.770   2.258   9.070  2.5693  0.1224 -1.3418
   88MOL0     H12120  13.800   2.329   8.838 -0.7952  1.2594 -0.9680
   88MOL0     H12121  13.666   2.411   8.927  0.6605 -0.4156  2.4857
   88MOL0     H12122  13.511   2.248   8.789 -1.5138  0.8625 -3.0212
   88MOL0     H12123  13.656   2.185   8.711  0.5871 -0.8936  1.8504
   88MOL0     H12124  12.896   2.032   9.169  1.0296  0.5007  0.5798
   88MOL0     H12125  12.665   2.012   9.116 -1.4971  1.0012 -0.8021
   88MOL0     H12126  12.296   2.351   9.025  0.4143  0.1025 -1.8012
   88MOL0     H12127  12.065   2.384   8.975 -0.0214  0.6402  0.3745
   88MOL0     H12128  10.018   2.327   8.454  0.6533 -3.4991 -0.1420
   88MOL0     H12129   9.809   2.387   8.330 -1.2876 -1.3144 -2.2345
   88MOL0     H12130   9.560   2.498   8.075 -2.0187 -0.9602  1.0596
   88MOL0     H12131   9.323   2.500   8.044 -0.1377 -1.2290  0.4113
   88MOL0     H12132   9.114   2.398   8.003  0.8126  1.2150  1.3417
   88MOL0     H12133   9.106   2.571   7.947  0.6126 -0.3582 -0.9935
   88MOL0     H12134   8.966   2.339   7.818  2.1620 -0.2554  0.0514
   88MOL0     H12135   8.965   2.509   7.759  0.6351  1.4312  0.4308
   88MOL0     H12136   8.877   2.434   8.039 -1.4990 -0.1848  0.1648
   88MOL0     H12137   8.854   2.594   7.958 -0.6565 -0.7069 -1.4720
   88MOL0     H12138   8.718   2.344   7.854 -0.9958  1.0829 -3.1379
   88MOL0     H12139   8.724   2.505   7.787 -1.0598  0.1495 -0.6014
   88MOL0     H12140   8.450   2.573   8.106  0.5368 -0.6685  0.3963
   88MOL0     H12141   9.364   2.335   7.658 -0.4659 -0.6668 -0.5091
   88MOL0     H12142   9.745   2.350   7.653  1.6443 -1.6460  2.1728
   88MOL0     H12143   9.676   2.195   7.678 -1.6354 -0.2825 -0.1212
   88MOL0     H12144   9.591   2.322   7.567 -1.0587  0.6156  0.6356
   89MOL0     O12145   5.930  10.496   7.075  0.5960 -0.0179  0.8421
   89MOL0     C12146   5.886  10.527   7.189 -0.3819  1.3334  0.4421
   89MOL0     O12147   5.949  10.601   7.281 -0.1082 -0.4667 -0.0906
   89MOL0     C12148   6.083  10.626   7.292 -0.7053  0.2148  0.4698
   89MOL0     C12149   6.131  10.743   7.357  0.4729 -0.2356  0.3610
   89MOL0     C12150   6.263  10.777   7.365 -0.1976  0.0975  0.1756
   89MOL0     C12151   6.360  10.689   7.311  0.0927  0.1664  0.7905
   89MOL0     O12152   6.494  10.728   7.305 -0.4826 -0.5485 -0.8866
   89MOL0     C12153   6.564  10.714   7.433  0.9182 -0.3040 -0.3820
   89MOL0     C12154   6.619  10.563   7.452 -0.3159  0.0270 -0.0127
   89MOL0     C12155   6.755  10.548   7.375 -0.1094 -0.2346 -0.5388
   89MOL0     C12156   6.801  10.399   7.405 -0.4800  0.0708 -0.0272
   89MOL0     C12157   6.928  10.365   7.326  0.3077  0.2525  0.4135
   89MOL0     C12158   6.979  10.226   7.355 -0.3453  0.1206 -0.0472
   89MOL0     C12159   7.134  10.225   7.325  1.0430  0.0140  0.3355
   89MOL0     C12160   7.183  10.083   7.314  0.4496 -0.7547  0.1504
   89MOL0     N12161   7.331  10.089   7.290 -0.4588  0.4507 -0.0920
   89MOL0     C12162   7.431  10.100   7.377 -0.0711  0.2273  0.6347
   89MOL0     C12163   7.532  10.051   7.300 -0.9504 -0.0731 -0.3548
   89MOL0     C12164   7.675  10.053   7.357 -0.6351 -0.4006 -0.9269
   89MOL0     C12165   7.782  10.050   7.250  0.1248  0.0880 -0.2213
   89MOL0     C12166   7.917  10.009   7.317  0.2389  0.1515 -0.9281
   89MOL0     C12167   8.023   9.978   7.213  0.5310  1.0443 -0.7120
   89MOL0     O12168   8.148   9.945   7.272  0.3374 -0.1145 -0.0025
   89MOL0     C12169   8.260   9.927   7.196 -0.1703  1.1621 -0.2327
   89MOL0     C12170   8.369   9.889   7.264 -0.0710 -0.3060 -0.1913
   89MOL0     C12171   8.498   9.890   7.215 -0.1369  0.6199 -0.0229
   89MOL0     C12172   8.605   9.888   7.320 -0.5864 -0.4361 -0.6272
   89MOL0     C12173   8.520   9.903   7.072 -0.5895 -0.6747 -0.2087
   89MOL0     C12174   8.646   9.917   7.007  0.7173  0.2029  0.0932
   89MOL0     O12175   8.742   9.965   7.091  0.7721  0.7071  0.5754
   89MOL0     C12176   8.859   9.985   7.041 -1.8600 -0.3586  0.4825
   89MOL0     C12177   8.897  10.095   6.966 -0.4999 -0.6441  0.9754
   89MOL0     C12178   9.024  10.113   6.916  0.3310 -0.4206  0.7780
   89MOL0     C12179   9.117  10.015   6.933  1.2414 -0.1918  0.6486
   89MOL0     O12180   9.238  10.037   6.882  0.1238 -0.4702 -0.4065
   89MOL0     C12181   9.356   9.989   6.945 -0.4972  0.7078 -0.3762
   89MOL0     C12182   9.484  10.060   6.888 -1.5072  0.7767  0.2979
   89MOL0     C12183   9.541   9.998   6.761 -0.6484  0.3492 -0.7734
   89MOL0     C12184   9.665  10.074   6.717 -0.3613  0.1648 -0.5977
   89MOL0     C12185   9.716  10.025   6.587  0.1166 -0.8461 -0.6477
   89MOL0     C12186   9.831  10.126   6.539 -0.4961  0.2022 -0.1725
   89MOL0     C12187   9.929  10.082   6.427  1.0830  0.6052  0.0649
   89MOL0     C12188   9.994  10.196   6.339  0.0372  1.0243 -0.9086
   89MOL0    Cl12189  10.122  10.127   6.238 -0.1384 -0.0401 -0.4526
   89MOL0     C12190   9.089   9.907   7.013  0.0034 -0.4221 -0.7227
   89MOL0     C12191   8.954   9.885   7.067  0.0188 -0.0190 -0.7758
   89MOL0     O12192   8.660   9.882   6.893 -0.2569  0.2283  0.0262
   89MOL0     C12193   8.407   9.922   6.996 -0.7312  0.4208  0.0519
   89MOL0     C12194   8.277   9.937   7.060 -0.4097  0.5960  0.6925
   89MOL0     N12195   7.490  10.022   7.170  0.0840 -0.1868 -0.3756
   89MOL0     N12196   7.362  10.029   7.172  0.2878 -0.3986  0.2637
   89MOL0     C12197   6.317  10.569   7.245 -0.5393 -1.3111 -0.2133
   89MOL0     C12198   6.178  10.533   7.240 -0.9769  0.4722  0.2240
   89MOL0     C12199   5.748  10.496   7.222 -0.9376 -0.2020  0.7688
   89MOL0     C12200   5.673  10.580   7.305 -0.4694 -0.0220  0.1141
   89MOL0     C12201   5.534  10.569   7.314  0.8773  0.5564 -0.7060
   89MOL0     C12202   5.459  10.471   7.243 -0.0568 -0.4371 -0.0014
   89MOL0     O12203   5.320  10.465   7.222 -0.3089  0.0874 -0.5214
   89MOL0     C12204   5.233  10.549   7.299 -0.0302  0.0139 -0.4850
   89MOL0     C12205   5.081  10.520   7.279  0.1413 -0.0236 -0.1692
   89MOL0     C12206   5.042  10.520   7.130 -0.2227  0.2491  0.4628
   89MOL0     C12207   4.889  10.548   7.106  0.1387 -0.2265  0.2651
   89MOL0     C12208   4.852  10.686   7.145  0.4534 -0.3959  0.2122
   89MOL0     C12209   4.814  10.797   7.176 -0.2280  0.8318 -0.1048
   89MOL0     C12210   5.531  10.384   7.158 -0.5225  0.1004 -0.6412
   89MOL0     C12211   5.671  10.384   7.160 -0.0408 -0.0578 -0.3549
   89MOL0     C12212   5.731  10.263   7.091  0.1621 -0.4616 -0.1608
   89MOL0     H12213   6.062  10.819   7.393  1.8179  0.8880  0.6762
   89MOL0     H12214   6.300  10.864   7.419 -1.2320  0.5238  0.2167
   89MOL0     H12215   6.501  10.722   7.522  0.0157  0.0201 -1.0421
   89MOL0     H12216   6.647  10.785   7.427 -0.0759  0.7904 -1.8209
   89MOL0     H12217   6.631  10.549   7.560 -3.3413  2.9393  0.8662
   89MOL0     H12218   6.550  10.494   7.403  0.6112  0.6414 -2.3102
   89MOL0     H12219   6.742  10.540   7.267  0.1246 -0.3372 -0.5595
   89MOL0     H12220   6.830  10.624   7.399 -0.1334 -0.9469  2.1130
   89MOL0     H12221   6.820  10.380   7.511 -1.4320 -1.3597 -0.0836
   89MOL0     H12222   6.718  10.333   7.378  0.3018 -0.0789 -2.2645
   89MOL0     H12223   7.007  10.439   7.334 -0.9611  2.4773 -4.2900
   89MOL0     H12224   6.894  10.370   7.222 -0.9408 -1.0038  0.7280
   89MOL0     H12225   6.962  10.213   7.462 -0.7172 -0.3071 -0.1563
   89MOL0     H12226   6.926  10.159   7.288  2.4904 -0.5159 -1.7998
   89MOL0     H12227   7.195  10.276   7.400  3.1257 -0.0024 -1.2437
   89MOL0     H12228   7.161  10.276   7.232  1.9124 -1.3908 -0.2244
   89MOL0     H12229   7.157  10.042   7.412  1.1808  3.8488  2.5919
   89MOL0     H12230   7.129  10.022   7.242 -0.1283  1.3645 -1.3259
   89MOL0     H12231   7.437  10.129   7.482  2.0941 -3.9839  1.9239
   89MOL0     H12232   7.695   9.972   7.427 -2.4413 -0.7957 -0.8215
   89MOL0     H12233   7.699  10.144   7.414  0.8551 -2.1821  1.4813
   89MOL0     H12234   7.752   9.977   7.175  1.1723 -2.1505  1.4166
   89MOL0     H12235   7.794  10.145   7.199 -0.2286  0.4343  0.3260
   89MOL0     H12236   7.954  10.093   7.376  0.0951 -2.4176  3.2479
   89MOL0     H12237   7.902   9.940   7.400 -0.7350  2.8759  1.3003
   89MOL0     H12238   7.989   9.893   7.152 -0.6402  0.0102  1.2711
   89MOL0     H12239   8.039  10.060   7.143  1.8834  2.8395  1.5356
   89MOL0     H12240   8.348   9.881   7.370 -0.1067 -0.6365 -0.2232
   89MOL0     H12241   8.671   9.975   7.329 -0.3057 -0.7181  0.0917
   89MOL0     H12242   8.673   9.810   7.285  0.0932  1.0408 -2.8669
   89MOL0     H12243   8.566   9.878   7.421  1.4842  0.9055  0.3769
   89MOL0     H12244   8.817  10.167   6.951 -0.9366 -0.8884  1.9879
   89MOL0     H12245   9.047  10.196   6.849 -0.9488 -2.0939 -1.8991
   89MOL0     H12246   9.350  10.009   7.052  0.3255  0.3954 -0.2638
   89MOL0     H12247   9.355   9.883   6.916  1.4650  1.4593 -3.7296
   89MOL0     H12248   9.457  10.165   6.874  0.9074  1.5799  1.1329
   89MOL0     H12249   9.560  10.063   6.967 -0.9346  0.0318 -0.2159
   89MOL0     H12250   9.458   9.990   6.690  0.3504 -0.5583 -1.8820
   89MOL0     H12251   9.577   9.898   6.787  1.0115  1.0981 -0.0460
   89MOL0     H12252   9.745  10.067   6.792 -0.1205 -4.5111 -0.9931
   89MOL0     H12253   9.640  10.180   6.713 -0.8861  0.2014  2.0219
   89MOL0     H12254   9.742   9.919   6.600 -1.5540 -1.1410  0.5165
   89MOL0     H12255   9.634  10.029   6.515 -1.7313 -3.6942  1.0812
   89MOL0     H12256   9.896  10.144   6.625  1.0857 -1.5886 -0.9144
   89MOL0     H12257   9.794  10.225   6.513 -0.7787  0.2483  0.3939
   89MOL0     H12258   9.864  10.020   6.365 -1.4625  0.0531  3.0094
   89MOL0     H12259   9.996  10.012   6.479 -0.7630  0.3867  2.2954
   89MOL0     H12260  10.033  10.270   6.409 -1.1988  1.6596 -0.8584
   89MOL0     H12261   9.910  10.242   6.287 -1.6951 -2.2746 -1.3385
   89MOL0     H12262   9.160   9.825   7.022  0.7821  0.3605  0.5221
   89MOL0     H12263   8.925   9.801   7.130 -0.1492  0.7476  0.1864
   89MOL0     H12264   8.415   9.914   6.888 -0.5098 -0.5999  0.1352
   89MOL0     H12265   8.192   9.936   6.994  0.3873 -1.3197 -0.3917
   89MOL0     H12266   6.398  10.507   7.208  1.4512  1.6982 -1.3523
   89MOL0     H12267   6.152  10.430   7.219  0.2360  0.0702  0.6245
   89MOL0     H12268   5.733  10.652   7.359 -0.2955  0.0616 -0.1922
   89MOL0     H12269   5.475  10.644   7.366  1.5155 -0.1829  1.1904
   89MOL0     H12270   5.257  10.537   7.405  2.1389  0.4174 -0.8675
   89MOL0     H12271   5.253  10.652   7.267 -1.8785  0.9017  0.9833
   89MOL0     H12272   5.026  10.602   7.327  0.8776  1.2923 -1.4574
   89MOL0     H12273   5.048  10.424   7.317  0.0232 -0.2007 -0.7082
   89MOL0     H12274   5.088  10.598   7.069 -1.1943 -0.1765 -0.8756
   89MOL0     H12275   5.078  10.430   7.078  0.5371  0.7707  0.0568
   89MOL0     H12276   4.830  10.483   7.171  4.1163 -0.6414  3.8875
   89MOL0     H12277   4.868  10.527   7.001 -1.0343  1.8668  0.0088
   89MOL0     H12278   4.792  10.896   7.208 -3.3693 -0.4087  2.1409
   89MOL0     H12279   5.479  10.307   7.101 -0.9512  0.3528 -0.5972
   89MOL0     H12280   5.766  10.188   7.163  1.9525  1.3519  0.9713
   89MOL0     H12281   5.655  10.228   7.021 -0.2331  1.6399 -0.8403
   89MOL0     H12282   5.817  10.292   7.029 -0.2321  1.3152  0.0675
   90MOL0     O12283   7.948   0.476   4.974  0.2160  0.0787 -0.3511
   90MOL0     C12284   7.896   0.568   5.033  0.2182 -0.4104  0.0921
   90MOL0     O12285   7.961   0.664   5.105  0.1045  0.2808 -0.2517
   90MOL0     C12286   8.094   0.650   5.099 -1.5995  0.0139  0.6442
   90MOL0     C12287   8.165   0.611   5.206 -0.4119 -0.8152 -0.3201
   90MOL0     C12288   8.303   0.608   5.199 -0.0988 -0.7827  0.3832
   90MOL0     C12289   8.373   0.651   5.087  0.1340 -0.0873 -0.3384
   90MOL0     O12290   8.512   0.648   5.099 -0.0120 -0.0867 -0.5901
   90MOL0     C12291   8.562   0.771   5.046 -0.0583  0.4740  0.1232
   90MOL0     C12292   8.713   0.764   5.057  0.1871  0.5853 -0.8009
   90MOL0     C12293   8.755   0.671   4.945 -0.3912  0.7076  0.4828
   90MOL0     C12294   8.889   0.609   4.984  0.1936  0.3604  0.0054
   90MOL0     C12295   8.881   0.464   5.026 -0.4820  0.8324  0.7337
   90MOL0     C12296   9.017   0.383   5.015  0.3050  0.2739  0.6975
   90MOL0     C12297   8.987   0.239   4.960 -0.4899 -0.3584  0.6666
   90MOL0     C12298   8.931   0.144   5.058 -0.2051  0.1520 -0.3722
   90MOL0     N12299   9.023   0.122   5.174 -0.2397 -0.5197  0.2633
   90MOL0     C12300   9.000   0.171   5.296 -0.4453  0.1524 -1.0918
   90MOL0     C12301   9.116   0.140   5.366 -0.5815 -0.4034  0.1621
   90MOL0     C12302   9.137   0.186   5.510 -0.4795 -0.0363  0.5774
   90MOL0     C12303   9.197   0.322   5.527 -0.1090 -1.2982 -0.2789
   90MOL0     C12304   9.342   0.327   5.479 -0.1821 -0.2660  0.5868
   90MOL0     C12305   9.446   0.425   5.550  0.9436  0.0835 -0.0858
   90MOL0     O12306   9.577   0.403   5.499  0.3875 -0.5137 -0.5213
   90MOL0     C12307   9.685   0.472   5.549 -0.1172 -0.7897  0.8440
   90MOL0     C12308   9.687   0.577   5.633 -0.3862 -0.7962  1.4815
   90MOL0     C12309   9.809   0.633   5.677  0.1333 -0.5076  0.6954
   90MOL0     C12310   9.796   0.749   5.769  0.2633  0.5228  0.6159
   90MOL0     C12311   9.940   0.584   5.630 -0.8957  0.3447 -0.3519
   90MOL0     C12312  10.068   0.644   5.663 -0.9868 -0.2770  0.5328
   90MOL0     O12313  10.185   0.590   5.608 -0.7068 -0.0177  0.8808
   90MOL0     C12314  10.307   0.642   5.635 -0.1429  0.5464  0.3849
   90MOL0     C12315  10.387   0.598   5.740 -0.6919  0.0125  0.3466
   90MOL0     C12316  10.507   0.657   5.768  0.7970 -0.2620  0.4450
   90MOL0     C12317  10.558   0.755   5.687 -0.0380 -0.7028  0.4768
   90MOL0     O12318  10.696   0.796   5.706  0.4329 -0.0056  0.2873
   90MOL0     C12319  10.723   0.842   5.835 -0.0978 -0.0887 -0.1995
   90MOL0     C12320  10.778   0.981   5.827  0.4502 -0.4417 -0.1423
   90MOL0     C12321  10.852   1.030   5.954  0.0543 -0.5487 -0.1950
   90MOL0     C12322  10.787   0.996   6.080 -0.1631  0.3902 -0.1176
   90MOL0     C12323  10.845   1.072   6.204 -0.4400  0.5767 -0.0820
   90MOL0     C12324  10.743   1.135   6.304 -0.0004 -0.3241 -0.2190
   90MOL0     C12325  10.651   1.037   6.372  0.2722  0.5759  0.0926
   90MOL0     C12326  10.556   1.102   6.473 -0.1582  0.6886  0.5091
   90MOL0    Cl12327  10.439   1.226   6.411  0.4331 -0.3167 -0.5398
   90MOL0     C12328  10.484   0.793   5.576  0.1673 -0.0355  0.4810
   90MOL0     C12329  10.358   0.741   5.549  0.2748 -0.4654 -0.3264
   90MOL0     O12330  10.069   0.746   5.720 -0.0554  0.1904 -0.9190
   90MOL0     C12331   9.936   0.473   5.545 -0.4292 -0.2547 -0.9158
   90MOL0     C12332   9.811   0.417   5.510 -0.4839  0.2197 -0.7946
   90MOL0     N12333   9.203   0.065   5.287  0.3706 -0.1116  0.5610
   90MOL0     N12334   9.144   0.046   5.176 -0.2886 -0.4886  0.3417
   90MOL0     C12335   8.299   0.683   4.966 -0.4977 -0.6387 -0.9822
   90MOL0     C12336   8.158   0.691   4.973  0.3694  0.4824  0.0364
   90MOL0     C12337   7.751   0.566   5.046 -0.0610  0.1578  0.5763
   90MOL0     C12338   7.678   0.510   4.943  0.4775 -0.5417 -0.1174
   90MOL0     C12339   7.545   0.512   4.938  0.7388  0.5542 -0.1860
   90MOL0     C12340   7.477   0.565   5.044  1.0371 -0.2909 -0.3332
   90MOL0     O12341   7.340   0.573   5.038 -0.1994  0.4973  0.5414
   90MOL0     C12342   7.256   0.527   4.925 -0.1788 -0.1095 -0.3226
   90MOL0     C12343   7.127   0.592   4.972  0.5045  0.3296  0.0228
   90MOL0     C12344   7.015   0.588   4.866  0.4678  0.6288 -0.1101
   90MOL0     C12345   6.889   0.522   4.916  0.4999 -0.0268  0.0924
   90MOL0     C12346   6.897   0.378   4.908 -1.2553 -0.0542  0.8918
   90MOL0     C12347   6.904   0.258   4.879 -0.1086 -1.1802 -0.3363
   90MOL0     C12348   7.537   0.622   5.149  0.1229  0.2240  0.6147
   90MOL0     C12349   7.670   0.617   5.152  0.1600 -0.8609  0.5075
   90MOL0     C12350   7.735   0.680   5.276 -0.9361 -0.4854 -0.1208
   90MOL0     H12351   8.107   0.584   5.293 -0.5730  2.0688  0.5706
   90MOL0     H12352   8.350   0.572   5.290  0.5684 -1.8716 -0.3568
   90MOL0     H12353   8.534   0.859   5.105  1.0867  0.2716  1.0075
   90MOL0     H12354   8.549   0.788   4.939  2.0683 -0.1969 -0.2882
   90MOL0     H12355   8.755   0.862   5.034 -1.7838  1.4591 -0.9208
   90MOL0     H12356   8.749   0.727   5.154 -0.5516  0.6754 -0.4815
   90MOL0     H12357   8.679   0.602   4.910 -1.4658  0.8332  2.3945
   90MOL0     H12358   8.773   0.729   4.855 -0.6927  1.8183  1.1152
   90MOL0     H12359   8.948   0.608   4.892  0.2609 -1.2417  0.0387
   90MOL0     H12360   8.947   0.670   5.055  0.1760 -1.5752  1.7976
   90MOL0     H12361   8.810   0.416   4.958 -0.2472  0.2619  0.8896
   90MOL0     H12362   8.855   0.455   5.132  1.0201 -0.6901  1.0120
   90MOL0     H12363   9.081   0.434   4.943 -0.2806 -0.3726 -0.3078
   90MOL0     H12364   9.059   0.378   5.116 -1.2861 -0.6435  1.3513
   90MOL0     H12365   9.081   0.207   4.914 -0.0964  1.4475  0.1353
   90MOL0     H12366   8.919   0.248   4.875 -2.2441 -2.5408  1.7395
   90MOL0     H12367   8.831   0.172   5.093 -0.2378 -1.9140  1.4439
   90MOL0     H12368   8.922   0.042   5.019  0.2703 -0.6027  1.3634
   90MOL0     H12369   8.918   0.229   5.336 -0.8767 -1.9341  1.3278
   90MOL0     H12370   9.196   0.108   5.559  1.5537  1.2278  0.2557
   90MOL0     H12371   9.046   0.187   5.570  0.9965  1.5219  2.9428
   90MOL0     H12372   9.136   0.392   5.468  1.3702 -0.9471 -1.4427
   90MOL0     H12373   9.192   0.335   5.635 -1.4083  0.4167 -0.4971
   90MOL0     H12374   9.391   0.230   5.474  2.1216  0.8879 -1.0203
   90MOL0     H12375   9.353   0.371   5.380  4.6795 -1.0255  0.5688
   90MOL0     H12376   9.419   0.530   5.530 -0.4083 -0.2248  0.0442
   90MOL0     H12377   9.438   0.408   5.658  4.4913  2.2097  0.7100
   90MOL0     H12378   9.599   0.627   5.671 -0.5962 -0.1628  0.2350
   90MOL0     H12379   9.857   0.738   5.859  0.5033 -1.1775  0.2834
   90MOL0     H12380   9.696   0.759   5.812 -0.3769  0.9484 -0.9114
   90MOL0     H12381   9.824   0.839   5.712 -1.3708 -0.4008 -1.8241
   90MOL0     H12382  10.365   0.514   5.805 -0.1462  0.1391  0.7035
   90MOL0     H12383  10.564   0.620   5.853  1.0041  2.9089  1.8257
   90MOL0     H12384  10.632   0.842   5.896 -0.0842  1.9474 -0.0967
   90MOL0     H12385  10.798   0.775   5.878 -0.7203  0.2441  1.4877
   90MOL0     H12386  10.849   0.999   5.746  1.3765  0.1214  0.7774
   90MOL0     H12387  10.690   1.042   5.804 -0.8520 -2.6041 -1.3033
   90MOL0     H12388  10.855   1.140   5.953 -3.1347 -0.3536 -2.0360
   90MOL0     H12389  10.956   0.996   5.959 -0.6407 -2.8696 -0.4508
   90MOL0     H12390  10.787   0.887   6.092  1.2897  0.4512  0.6796
   90MOL0     H12391  10.686   1.028   6.052 -0.1153  0.2715 -0.4194
   90MOL0     H12392  10.921   1.019   6.261 -0.8775  1.1535  1.0842
   90MOL0     H12393  10.899   1.163   6.176 -0.7240  0.2084 -1.9947
   90MOL0     H12394  10.692   1.204   6.237  0.1811  0.1031  0.0798
   90MOL0     H12395  10.799   1.196   6.375 -1.5526  0.1191  0.6574
   90MOL0     H12396  10.716   0.956   6.409  3.1722  2.1287 -1.2277
   90MOL0     H12397  10.576   1.001   6.302 -0.7170  2.0485  0.3563
   90MOL0     H12398  10.613   1.142   6.557  0.8174  0.2952  0.0544
   90MOL0     H12399  10.498   1.019   6.513  0.3022  0.7052  1.2228
   90MOL0     H12400  10.516   0.864   5.501 -1.9620 -0.5468 -0.9748
   90MOL0     H12401  10.302   0.773   5.462  2.8879 -0.1004 -1.9908
   90MOL0     H12402  10.026   0.426   5.506 -0.3809 -0.6103 -0.3851
   90MOL0     H12403   9.808   0.331   5.444 -0.9273  1.6908 -2.7855
   90MOL0     H12404   8.336   0.710   4.867 -0.1828  1.0252 -0.4363
   90MOL0     H12405   8.096   0.719   4.889 -2.1558 -1.9392  0.9355
   90MOL0     H12406   7.740   0.465   4.865  1.0221  1.2359 -0.7450
   90MOL0     H12407   7.511   0.456   4.852 -0.0316 -3.9431  2.6926
   90MOL0     H12408   7.281   0.570   4.828 -2.6988 -0.9727 -1.4326
   90MOL0     H12409   7.250   0.418   4.925  0.1792 -0.1765  1.8111
   90MOL0     H12410   7.148   0.698   4.988 -2.4727  1.2085 -1.1760
   90MOL0     H12411   7.098   0.547   5.067 -0.8722 -2.4019 -1.5517
   90MOL0     H12412   6.986   0.692   4.848  2.1381  1.4031  1.3207
   90MOL0     H12413   7.043   0.554   4.766  2.9296 -1.6900  1.2294
   90MOL0     H12414   6.798   0.549   4.861  1.5528 -1.3223 -2.4822
   90MOL0     H12415   6.867   0.549   5.020  2.2588 -1.3825  0.8581
   90MOL0     H12416   6.910   0.157   4.844  0.4790 -0.8584 -1.2279
   90MOL0     H12417   7.482   0.654   5.238 -1.6812 -1.2117  0.0848
   90MOL0     H12418   7.773   0.781   5.262 -0.6233 -0.8694 -2.3841
   90MOL0     H12419   7.661   0.687   5.357  0.4520  1.8901  1.0810
   90MOL0     H12420   7.809   0.610   5.314 -1.7090 -1.3379 -0.1529
   91MOL0     O12421   8.263   7.490   4.635  0.3192 -0.2582 -1.0524
   91MOL0     C12422   8.166   7.413   4.613 -0.9429 -0.2452  0.0865
   91MOL0     O12423   8.170   7.322   4.517 -0.4414  0.1102  0.6658
   91MOL0     C12424   8.271   7.333   4.420  0.3257  1.1354  0.0208
   91MOL0     C12425   8.259   7.420   4.309 -0.5821  0.0587 -0.3509
   91MOL0     C12426   8.364   7.434   4.214  0.2041  0.3438 -0.2040
   91MOL0     C12427   8.480   7.359   4.218  1.1535  0.0228 -0.1760
   91MOL0     O12428   8.572   7.367   4.116 -0.1821 -0.1703  0.0061
   91MOL0     C12429   8.638   7.243   4.081  0.3425  0.0203 -0.3433
   91MOL0     C12430   8.778   7.281   4.026 -0.4911  0.4734  0.9441
   91MOL0     C12431   8.873   7.160   4.028 -0.6597 -0.3312  0.7571
   91MOL0     C12432   9.021   7.196   4.023  0.0082  0.9729 -0.0319
   91MOL0     C12433   9.096   7.063   4.012  0.4871  0.4015 -1.0669
   91MOL0     C12434   9.238   7.086   4.011  0.6689 -0.0675  0.2878
   91MOL0     C12435   9.318   6.967   3.946  0.2839 -0.0052  0.7973
   91MOL0     C12436   9.465   6.987   3.958  0.0376  0.4235  0.4137
   91MOL0     N12437   9.553   6.884   3.907 -0.0743 -0.0969 -0.4870
   91MOL0     C12438   9.675   6.862   3.975  0.0127 -0.0715 -0.5140
   91MOL0     C12439   9.714   6.741   3.927  0.0403 -0.5211  0.5991
   91MOL0     C12440   9.851   6.685   3.939 -0.2894  0.6407 -0.2498
   91MOL0     C12441   9.955   6.766   3.861  0.1269 -0.2001 -0.6713
   91MOL0     C12442  10.091   6.711   3.908  0.1743 -0.7518  0.5510
   91MOL0     C12443  10.213   6.749   3.820  0.6133 -0.0805 -0.5876
   91MOL0     O12444  10.232   6.886   3.823 -0.6347  0.0996 -0.1846
   91MOL0     C12445  10.317   6.939   3.723  0.4559 -0.5386 -1.0144
   91MOL0     C12446  10.277   7.059   3.676 -0.0918  0.1325 -1.0588
   91MOL0     C12447  10.342   7.126   3.578 -0.0090 -0.1304  1.4190
   91MOL0     C12448  10.288   7.268   3.555  0.1478 -0.2895  0.1339
   91MOL0     C12449  10.464   7.070   3.525 -0.2571  0.1880 -0.2919
   91MOL0     C12450  10.543   7.133   3.420  0.2781  0.7597 -0.1028
   91MOL0     O12451  10.528   7.266   3.389  0.0491 -0.0975 -0.0758
   91MOL0     C12452  10.599   7.333   3.298 -1.0575 -0.0625  0.1380
   91MOL0     C12453  10.699   7.428   3.329  0.3093 -0.2095  0.4432
   91MOL0     C12454  10.770   7.500   3.242 -0.6031  0.4956  0.0859
   91MOL0     C12455  10.740   7.486   3.107  0.4240 -0.9873 -0.1508
   91MOL0     O12456  10.821   7.546   3.010 -0.3961 -0.0210  0.3501
   91MOL0     C12457  10.916   7.457   2.953 -0.4712  0.4222 -1.0111
   91MOL0     C12458  10.932   7.489   2.806 -0.3623 -0.2742  0.2079
   91MOL0     C12459  11.036   7.391   2.754 -0.1736 -0.8277  0.3331
   91MOL0     C12460  11.067   7.435   2.608 -0.5836 -0.3363  0.9799
   91MOL0     C12461  11.174   7.330   2.550 -0.1483 -0.0080 -0.0054
   91MOL0     C12462  11.244   7.368   2.407  0.6240  0.0339 -0.7599
   91MOL0     C12463  11.327   7.501   2.405  0.5682  0.3768 -0.4298
   91MOL0     C12464  11.461   7.482   2.483 -0.3542 -0.1507 -0.1208
   91MOL0    Cl12465  11.585   7.429   2.378  0.0799  0.0952 -0.1377
   91MOL0     C12466  10.634   7.397   3.072  0.4404  0.1582  0.5416
   91MOL0     C12467  10.563   7.315   3.165 -0.1065 -0.0358  0.2758
   91MOL0     O12468  10.617   7.057   3.358 -0.0831  0.4609  0.0346
   91MOL0     C12469  10.514   6.949   3.582  0.2962 -0.0043 -0.2022
   91MOL0     C12470  10.432   6.879   3.678 -0.2747  0.8492 -0.0533
   91MOL0     N12471   9.619   6.688   3.842  0.1102 -0.4682 -0.1815
   91MOL0     N12472   9.523   6.775   3.836  0.6750  0.7560 -0.1440
   91MOL0     C12473   8.480   7.262   4.321 -0.4642  0.0998  0.1036
   91MOL0     C12474   8.391   7.253   4.431 -0.4397 -0.5463  0.5290
   91MOL0     C12475   8.039   7.416   4.691 -0.5159  0.1357 -0.6584
   91MOL0     C12476   7.933   7.336   4.642  0.4925 -0.1969 -0.3885
   91MOL0     C12477   7.806   7.343   4.696 -0.5160 -0.3592 -1.0005
   91MOL0     C12478   7.780   7.418   4.810 -0.2948  0.5813  0.0866
   91MOL0     O12479   7.647   7.411   4.841  0.2333  0.3808 -0.1307
   91MOL0     C12480   7.596   7.496   4.945  0.7117 -0.4006 -0.7439
   91MOL0     C12481   7.491   7.595   4.895  0.5336  0.5499  0.4109
   91MOL0     C12482   7.541   7.680   4.775 -0.5818 -0.5933 -0.2426
   91MOL0     C12483   7.643   7.789   4.807  0.1802 -0.4320 -0.2994
   91MOL0     C12484   7.646   7.882   4.691 -0.8951  0.3948  0.6761
   91MOL0     C12485   7.655   7.963   4.599 -0.9792  0.1799  0.8542
   91MOL0     C12486   7.889   7.491   4.863  0.5387  0.4132 -0.3699
   91MOL0     C12487   8.015   7.490   4.807 -0.5940 -0.9146  0.9096
   91MOL0     C12488   8.129   7.569   4.874  0.7148 -0.0115  0.3072
   91MOL0     H12489   8.165   7.474   4.304 -1.6454 -1.1571  3.2474
   91MOL0     H12490   8.358   7.515   4.142  2.8839  1.7888  1.0355
   91MOL0     H12491   8.572   7.192   4.012 -0.3970  1.2574 -0.5768
   91MOL0     H12492   8.654   7.171   4.162  2.2948  1.3343  0.5277
   91MOL0     H12493   8.771   7.313   3.921 -1.9102  0.6236  1.0668
   91MOL0     H12494   8.817   7.362   4.088 -1.2223  1.1679  0.5056
   91MOL0     H12495   8.873   7.114   4.127  0.9448  0.7319  1.2887
   91MOL0     H12496   8.846   7.091   3.947 -0.0422 -1.1889  1.2621
   91MOL0     H12497   9.041   7.251   3.931 -1.4736 -1.6349 -2.0221
   91MOL0     H12498   9.060   7.246   4.113  2.6539 -0.7445 -0.1114
   91MOL0     H12499   9.064   7.014   3.920 -2.2706  0.8236 -0.4234
   91MOL0     H12500   9.068   6.996   4.093 -0.7069  1.5397 -0.4890
   91MOL0     H12501   9.265   7.172   3.950  3.6012 -2.7300 -2.5495
   91MOL0     H12502   9.275   7.101   4.113  0.5633 -1.5593  0.5677
   91MOL0     H12503   9.294   6.951   3.840 -4.7774  0.2407  1.6287
   91MOL0     H12504   9.282   6.877   3.997 -1.6238 -0.1211 -0.6255
   91MOL0     H12505   9.502   7.077   3.907 -0.6763 -0.3564 -1.5829
   91MOL0     H12506   9.470   6.990   4.067 -0.1725  0.8946  0.4157
   91MOL0     H12507   9.742   6.931   4.025  0.3162 -0.6404 -0.1151
   91MOL0     H12508   9.851   6.583   3.902  3.6230  1.0086 -1.7357
   91MOL0     H12509   9.880   6.683   4.045  0.6574  0.0561 -0.5111
   91MOL0     H12510   9.939   6.745   3.754  1.4437 -1.7660 -0.6143
   91MOL0     H12511   9.951   6.872   3.886 -2.3966 -0.3810 -0.0435
   91MOL0     H12512  10.106   6.747   4.010  0.7383 -1.3507  0.6848
   91MOL0     H12513  10.084   6.602   3.908  2.3320 -0.9498  1.6860
   91MOL0     H12514  10.307   6.706   3.857  0.5914  1.2999  1.2289
   91MOL0     H12515  10.189   6.712   3.720  3.1920  1.1574 -1.7607
   91MOL0     H12516  10.186   7.101   3.716 -0.5065 -1.7073  0.0119
   91MOL0     H12517  10.369   7.340   3.565  0.8890 -0.4043 -3.5235
   91MOL0     H12518  10.207   7.296   3.622  0.0531  0.6200 -0.3417
   91MOL0     H12519  10.258   7.280   3.450 -2.0521  2.4607  0.9610
   91MOL0     H12520  10.714   7.441   3.436  1.6213  1.0317  0.1423
   91MOL0     H12521  10.849   7.564   3.280  0.2388  0.0072 -0.8112
   91MOL0     H12522  11.015   7.460   3.000 -0.3600 -0.3788 -1.1841
   91MOL0     H12523  10.877   7.358   2.976  1.4837  0.2190  1.9696
   91MOL0     H12524  10.832   7.476   2.762 -0.8209  1.6492  0.6056
   91MOL0     H12525  10.957   7.595   2.796 -0.9414 -0.2130 -0.8130
   91MOL0     H12526  10.992   7.291   2.764 -0.6823 -0.6215  0.2097
   91MOL0     H12527  11.127   7.400   2.813 -0.3849 -1.3416  0.7472
   91MOL0     H12528  11.119   7.531   2.615  2.3089 -1.8044  1.2289
   91MOL0     H12529  10.986   7.439   2.534 -0.7176  1.3910  1.1822
   91MOL0     H12530  11.256   7.313   2.621 -1.3369  0.8724  1.6397
   91MOL0     H12531  11.110   7.243   2.535  1.0950 -0.6925 -1.7413
   91MOL0     H12532  11.171   7.373   2.326  1.8372 -0.2894 -1.9110
   91MOL0     H12533  11.307   7.283   2.378 -2.8477 -2.0234 -2.9329
   91MOL0     H12534  11.266   7.582   2.448  0.8030  1.4276 -1.9991
   91MOL0     H12535  11.341   7.529   2.301  0.4722 -1.9599 -1.1246
   91MOL0     H12536  11.455   7.417   2.572  0.0337 -0.0360 -0.0112
   91MOL0     H12537  11.488   7.583   2.516 -3.5714  0.2904  1.6453
   91MOL0     H12538  10.614   7.405   2.966  1.2571  1.2887  0.4538
   91MOL0     H12539  10.479   7.249   3.147  1.4413 -2.5671  1.7831
   91MOL0     H12540  10.607   6.909   3.542 -0.8314 -0.8656 -2.1250
   91MOL0     H12541  10.468   6.782   3.711 -0.5254  0.8474  0.2225
   91MOL0     H12542   8.572   7.207   4.340  0.2616  1.5464  0.9071
   91MOL0     H12543   8.418   7.196   4.519  0.1317  0.2105  0.8576
   91MOL0     H12544   7.937   7.257   4.568  0.3167 -0.6707  0.1002
   91MOL0     H12545   7.732   7.273   4.660 -1.8370  0.4520  0.0336
   91MOL0     H12546   7.550   7.433   5.022 -0.1668 -1.5830 -2.1820
   91MOL0     H12547   7.678   7.552   4.992 -0.7305 -0.3678  1.9365
   91MOL0     H12548   7.452   7.656   4.978  2.5665 -0.6164  2.3211
   91MOL0     H12549   7.408   7.541   4.848  0.8997  1.4768 -1.3785
   91MOL0     H12550   7.584   7.622   4.694  2.4855 -1.2226  1.6801
   91MOL0     H12551   7.452   7.734   4.740 -0.1538  0.6042  0.4674
   91MOL0     H12552   7.741   7.740   4.805  0.7652  0.7082 -0.0980
   91MOL0     H12553   7.615   7.849   4.894  0.0987  1.3042 -1.4721
   91MOL0     H12554   7.659   8.044   4.530  0.0181 -2.0317 -1.8609
   91MOL0     H12555   7.876   7.544   4.957  0.0063 -2.7231  1.5105
   91MOL0     H12556   8.224   7.516   4.865 -0.1710 -1.4552 -1.0162
   91MOL0     H12557   8.145   7.660   4.816 -2.0598 -0.8064 -1.9400
   91MOL0     H12558   8.095   7.591   4.976 -1.0055  1.3926 -0.5059
   92MOL0     O12559   2.217   9.530   1.960  0.4827  0.6517  0.1300
   92MOL0     C12560   2.219   9.552   1.839  0.9975 -0.6289  0.3185
   92MOL0     O12561   2.331   9.587   1.772  0.2249  0.0948  0.6545
   92MOL0     C12562   2.445   9.593   1.840 -0.0686 -0.4449  0.8300
   92MOL0     C12563   2.505   9.721   1.859 -0.7238  0.5234 -0.0860
   92MOL0     C12564   2.625   9.732   1.936  0.0101  0.6781 -0.1360
   92MOL0     C12565   2.690   9.616   1.974  0.3920 -0.4183 -0.9617
   92MOL0     O12566   2.812   9.636   2.035  0.1149 -0.7424 -0.6026
   92MOL0     C12567   2.920   9.536   2.022  0.9695  0.7725 -0.2193
   92MOL0     C12568   3.028   9.540   2.118 -0.1109  0.0318 -0.8044
   92MOL0     C12569   2.986   9.520   2.270  0.0480 -0.1287  0.3190
   92MOL0     C12570   3.096   9.566   2.359  0.4321 -0.1819  0.3002
   92MOL0     C12571   3.231   9.479   2.353  0.3817  0.7686  0.0850
   92MOL0     C12572   3.220   9.328   2.370 -0.6054 -0.8796 -0.0807
   92MOL0     C12573   3.359   9.278   2.403 -0.6007  0.1221 -0.1031
   92MOL0     C12574   3.334   9.130   2.453  0.2621  0.1538 -0.5556
   92MOL0     N12575   3.457   9.052   2.474  0.3983 -0.4475 -0.7800
   92MOL0     C12576   3.547   9.016   2.391 -0.3204 -0.4409 -0.0470
   92MOL0     C12577   3.647   8.960   2.457  0.7738 -0.6124 -0.1849
   92MOL0     C12578   3.777   8.932   2.393 -0.0208 -0.5569  0.1253
   92MOL0     C12579   3.769   8.816   2.294  0.0984  0.3676 -0.4144
   92MOL0     C12580   3.917   8.760   2.278  0.0571  0.3807  0.3283
   92MOL0     C12581   3.902   8.635   2.191  0.1794 -0.0730 -0.6784
   92MOL0     O12582   3.952   8.670   2.064 -0.5526 -0.0183 -0.2043
   92MOL0     C12583   4.092   8.677   2.048 -0.0589  0.6376  0.6655
   92MOL0     C12584   4.141   8.735   1.930 -0.8034 -0.0868  0.2315
   92MOL0     C12585   4.276   8.740   1.894 -0.5196 -0.0850 -0.1111
   92MOL0     C12586   4.302   8.811   1.763 -0.3314  0.0335 -0.0132
   92MOL0     C12587   4.371   8.681   1.982 -0.4612 -0.7312  0.2167
   92MOL0     C12588   4.514   8.667   1.945 -0.4739 -0.2752  0.6897
   92MOL0     O12589   4.568   8.777   1.874 -0.3324 -0.2704  0.3130
   92MOL0     C12590   4.704   8.797   1.885  0.6240 -0.0794  0.0829
   92MOL0     C12591   4.794   8.704   1.835  0.5721  0.3243 -0.3740
   92MOL0     C12592   4.931   8.732   1.841 -0.6924  0.0277 -0.4956
   92MOL0     C12593   4.983   8.841   1.904 -0.0215 -1.0535  0.5409
   92MOL0     O12594   5.123   8.858   1.903 -0.4203  0.4777  0.3693
   92MOL0     C12595   5.174   8.979   1.963  0.5078  0.8512 -0.5874
   92MOL0     C12596   5.316   9.004   1.926 -0.1356 -0.3346  0.1180
   92MOL0     C12597   5.332   9.009   1.767 -0.3606  0.1841  0.3844
   92MOL0     C12598   5.469   9.065   1.720  0.7196  0.3510  0.2357
   92MOL0     C12599   5.472   9.088   1.562  0.3717 -0.1708  0.6849
   92MOL0     C12600   5.450   8.954   1.488  0.1188 -0.2655  0.6827
   92MOL0     C12601   5.458   8.975   1.338 -0.2647 -0.3566  0.5499
   92MOL0     C12602   5.462   8.851   1.251  0.1793 -0.1873 -0.3507
   92MOL0    Cl12603   5.295   8.796   1.245  0.0001 -0.2857 -0.3896
   92MOL0     C12604   4.894   8.935   1.951  0.2965 -0.0328 -0.4004
   92MOL0     C12605   4.760   8.918   1.930  0.9520  0.8088 -0.6373
   92MOL0     O12606   4.582   8.567   1.984  0.1454 -0.0072  0.0590
   92MOL0     C12607   4.328   8.610   2.099  1.1747  0.2158 -1.0860
   92MOL0     C12608   4.188   8.608   2.130 -0.5611 -0.0227 -0.2054
   92MOL0     N12609   3.614   8.962   2.594  0.2472 -0.0350  0.0694
   92MOL0     N12610   3.492   9.010   2.602 -0.2592  0.2297 -0.4709
   92MOL0     C12611   2.628   9.486   1.956 -0.4676  0.2039 -0.1186
   92MOL0     C12612   2.504   9.474   1.889  0.2210  0.0269  0.3256
   92MOL0     C12613   2.094   9.547   1.768  0.5522 -0.7111 -0.1718
   92MOL0     C12614   2.057   9.676   1.718 -0.7716  0.8953  0.3139
   92MOL0     C12615   1.926   9.685   1.680 -0.2286 -0.4612  0.6747
   92MOL0     C12616   1.835   9.576   1.672  0.2903 -0.2039  0.3310
   92MOL0     O12617   1.703   9.591   1.639  0.8454  0.3398  0.3225
   92MOL0     C12618   1.650   9.722   1.594 -0.8465  0.1444  0.1871
   92MOL0     C12619   1.495   9.733   1.577  0.0077  0.8101  0.8619
   92MOL0     C12620   1.457   9.861   1.501 -0.2197 -0.0772  0.1578
   92MOL0     C12621   1.487   9.849   1.351 -0.5634 -0.0455  0.0624
   92MOL0     C12622   1.436   9.966   1.277 -0.5624  0.4488 -0.1852
   92MOL0     C12623   1.397  10.069   1.217 -0.4753  0.1473  0.3584
   92MOL0     C12624   1.884   9.451   1.703 -0.8755 -0.5826  0.6578
   92MOL0     C12625   2.016   9.430   1.752 -0.1093  0.1486  0.1455
   92MOL0     C12626   2.057   9.292   1.795 -0.1194  0.1467 -0.6452
   92MOL0     H12627   2.475   9.819   1.825  0.2121  0.9087  0.1495
   92MOL0     H12628   2.657   9.832   1.964 -1.9303  0.9329  1.4297
   92MOL0     H12629   2.971   9.530   1.925  3.2627 -1.3925  0.9916
   92MOL0     H12630   2.869   9.444   2.053 -1.5357  2.4148  0.8128
   92MOL0     H12631   3.104   9.466   2.093 -1.0417 -1.3826  0.3410
   92MOL0     H12632   3.061   9.644   2.116  1.2122 -0.1459  2.8760
   92MOL0     H12633   2.898   9.576   2.302 -1.2807 -1.7047 -0.3763
   92MOL0     H12634   2.987   9.412   2.291  0.0735 -0.3073 -0.5391
   92MOL0     H12635   3.126   9.670   2.340  1.9621 -0.7948 -0.8586
   92MOL0     H12636   3.055   9.553   2.459  0.0636 -4.9397 -0.2536
   92MOL0     H12637   3.291   9.518   2.436 -1.7264 -1.0184  2.5822
   92MOL0     H12638   3.280   9.508   2.259 -0.0494 -0.1681 -0.4358
   92MOL0     H12639   3.145   9.318   2.449 -1.3219  4.6483  0.3223
   92MOL0     H12640   3.189   9.276   2.279 -2.3626  0.0844 -0.0684
   92MOL0     H12641   3.406   9.332   2.486 -0.8609  0.6495 -0.2974
   92MOL0     H12642   3.426   9.279   2.317  0.5490 -1.3817  0.7038
   92MOL0     H12643   3.271   9.139   2.542 -0.5631  0.3086 -1.1398
   92MOL0     H12644   3.272   9.075   2.381 -1.2133 -0.4411  1.0945
   92MOL0     H12645   3.538   9.039   2.285  0.2054 -0.7779 -0.1710
   92MOL0     H12646   3.848   8.912   2.474  0.4962  0.2609 -0.1208
   92MOL0     H12647   3.811   9.018   2.335  0.9091 -1.8028 -1.2552
   92MOL0     H12648   3.707   8.743   2.346 -1.6995  2.2672  0.2896
   92MOL0     H12649   3.716   8.850   2.204  0.2903  1.9211  0.0247
   92MOL0     H12650   3.978   8.839   2.234  0.1770 -0.0949 -0.3762
   92MOL0     H12651   3.957   8.727   2.374  2.2898 -0.5990 -0.8526
   92MOL0     H12652   3.935   8.539   2.231  1.9672  0.9044  0.3157
   92MOL0     H12653   3.797   8.607   2.178  0.3192 -1.1153  0.3063
   92MOL0     H12654   4.068   8.781   1.864 -0.5847 -2.6183 -1.9356
   92MOL0     H12655   4.215   8.824   1.699  0.1554  1.8685 -0.3837
   92MOL0     H12656   4.372   8.754   1.702  1.2042  0.0067  1.6665
   92MOL0     H12657   4.344   8.912   1.776 -0.0255  0.1154 -1.4548
   92MOL0     H12658   4.769   8.610   1.788  0.1800  0.9785 -1.4937
   92MOL0     H12659   5.015   8.667   1.814 -0.5390 -0.5496  1.2604
   92MOL0     H12660   5.124   9.065   1.918  2.1106  0.9111 -2.4336
   92MOL0     H12661   5.155   8.974   2.070  0.9815  0.9098 -0.4983
   92MOL0     H12662   5.342   9.103   1.964  0.1852  1.2653 -3.7884
   92MOL0     H12663   5.380   8.923   1.965 -0.5277 -0.6941  0.0151
   92MOL0     H12664   5.252   9.073   1.731  0.1158  0.6021  0.0503
   92MOL0     H12665   5.310   8.912   1.722 -1.8952  1.2087 -1.1642
   92MOL0     H12666   5.539   8.987   1.751 -1.9579 -1.9568  0.7938
   92MOL0     H12667   5.481   9.159   1.774 -0.6488  0.6894 -0.0053
   92MOL0     H12668   5.400   9.166   1.539  0.4887 -0.0249  0.8148
   92MOL0     H12669   5.569   9.130   1.535  1.0220  0.1027  3.1916
   92MOL0     H12670   5.354   8.905   1.508  0.1217  0.0307  1.4625
   92MOL0     H12671   5.523   8.877   1.512 -0.5075 -1.6664 -1.5892
   92MOL0     H12672   5.551   9.025   1.309 -0.8735 -0.2903 -1.4141
   92MOL0     H12673   5.381   9.047   1.309 -0.7505  0.0076  2.5643
   92MOL0     H12674   5.529   8.771   1.286  3.4988  2.8237  0.8502
   92MOL0     H12675   5.494   8.875   1.149  1.5387 -0.0751  0.0713
   92MOL0     H12676   4.933   9.019   2.007 -2.4947  0.6757  0.6257
   92MOL0     H12677   4.689   8.988   1.972  0.8711 -0.5039  1.5687
   92MOL0     H12678   4.400   8.557   2.160 -0.6365 -0.9689  0.1280
   92MOL0     H12679   4.154   8.550   2.216 -0.2009  0.6846  0.4294
   92MOL0     H12680   2.682   9.394   1.975 -0.4094  0.0935 -0.7819
   92MOL0     H12681   2.452   9.384   1.861  1.8065 -0.5640 -0.8351
   92MOL0     H12682   2.120   9.764   1.726  1.0202 -0.2741 -0.4435
   92MOL0     H12683   1.902   9.789   1.657  5.1180  0.8844 -0.0734
   92MOL0     H12684   1.680   9.794   1.671 -0.2772 -0.3944  0.4760
   92MOL0     H12685   1.701   9.747   1.501  1.7739  0.3916  1.5887
   92MOL0     H12686   1.449   9.733   1.676  1.3444  1.1672  1.5174
   92MOL0     H12687   1.463   9.642   1.525 -2.1074  0.6935  2.2371
   92MOL0     H12688   1.349   9.882   1.504 -0.4848 -1.0707 -1.3524
   92MOL0     H12689   1.508   9.947   1.545 -1.4530  0.0297  1.4725
   92MOL0     H12690   1.441   9.764   1.300 -1.1049  1.8869 -2.9381
   92MOL0     H12691   1.594   9.859   1.332 -0.5631  2.6500  1.0985
   92MOL0     H12692   1.373  10.157   1.161  2.8824  1.1608  0.3132
   92MOL0     H12693   1.820   9.364   1.691 -1.4263 -0.2336  1.0052
   92MOL0     H12694   2.003   9.216   1.737  0.2846 -0.1590 -0.6285
   92MOL0     H12695   2.162   9.284   1.764 -0.4725 -1.2393 -1.5706
   92MOL0     H12696   2.035   9.286   1.902  2.5033  0.8129  0.0134
   93MOL0     O12697  10.919   1.092   9.487 -0.5976 -0.2870  0.1234
   93MOL0     C12698  10.924   1.034   9.597 -0.8352  0.4389  0.0984
   93MOL0     O12699  10.992   1.074   9.706  0.4183  0.1453  1.2751
   93MOL0     C12700  11.107   1.144   9.687 -0.0202  0.1526  0.7731
   93MOL0     C12701  11.219   1.080   9.623  0.4088  0.6477 -1.0197
   93MOL0     C12702  11.336   1.151   9.602  0.5929  0.2632  0.5873
   93MOL0     C12703  11.343   1.288   9.637 -0.5812 -0.3987 -0.5039
   93MOL0     O12704  11.475   1.334   9.622 -0.0141  0.6039 -0.6281
   93MOL0     C12705  11.500   1.468   9.665 -0.3231  1.8373 -0.5206
   93MOL0     C12706  11.588   1.463   9.792 -0.7722 -0.7379  0.5268
   93MOL0     C12707  11.725   1.390   9.776 -0.1479 -0.9981  0.0744
   93MOL0     C12708  11.830   1.493   9.729 -0.3592  0.0523  0.3856
   93MOL0     C12709  11.970   1.442   9.760 -0.6507  0.0664 -0.0604
   93MOL0     C12710  12.006   1.308   9.696 -0.2861  0.5687 -0.1492
   93MOL0     C12711  12.154   1.286   9.696  0.2443 -0.1456  0.5174
   93MOL0     C12712  12.173   1.156   9.625 -0.2742 -0.2938  0.5869
   93MOL0     N12713  12.310   1.165   9.589  0.3623  0.1299 -0.2436
   93MOL0     C12714  12.356   1.215   9.464  0.4891  0.0822  0.4894
   93MOL0     C12715  12.484   1.239   9.478 -0.3196  0.6372 -0.0560
   93MOL0     C12716  12.580   1.278   9.370 -0.2628 -0.8236  0.2230
   93MOL0     C12717  12.632   1.157   9.287  0.3803 -0.7743  0.1993
   93MOL0     C12718  12.675   1.189   9.147  0.1877  0.9737  0.2499
   93MOL0     C12719  12.824   1.213   9.134 -0.1720 -0.1435  0.2244
   93MOL0     O12720  12.841   1.323   9.230 -0.7512  0.6031 -0.2062
   93MOL0     C12721  12.931   1.426   9.199  0.2670 -0.1570 -1.1506
   93MOL0     C12722  12.919   1.542   9.277 -0.2974  0.1337 -0.7418
   93MOL0     C12723  13.011   1.647   9.261 -0.0597  0.2926  0.3042
   93MOL0     C12724  12.993   1.765   9.352  1.1115  0.6408 -0.1411
   93MOL0     C12725  13.111   1.635   9.169 -0.9439 -0.7406 -0.2149
   93MOL0     C12726  13.222   1.731   9.146  0.1378  0.3910 -0.6446
   93MOL0     O12727  13.247   1.754   9.015  0.5250 -0.8131  0.1966
   93MOL0     C12728  13.370   1.795   8.972  0.9199  0.3450 -0.3085
   93MOL0     C12729  13.368   1.896   8.870  0.0445 -0.0386 -0.2089
   93MOL0     C12730  13.501   1.936   8.831  0.3357 -0.8440 -0.2158
   93MOL0     C12731  13.619   1.883   8.884  0.1852 -0.0236 -0.4621
   93MOL0     O12732  13.742   1.926   8.837  0.0303 -0.2822  0.0891
   93MOL0     C12733  13.870   1.907   8.915  0.4777  1.4502 -0.1943
   93MOL0     C12734  13.982   1.978   8.864 -0.8561  0.3753 -0.3465
   93MOL0     C12735  14.106   1.970   8.954  1.3922  0.0176  0.1113
   93MOL0     C12736  14.228   2.011   8.868 -0.3116  0.3085 -0.1298
   93MOL0     C12737  14.358   1.976   8.941 -0.2762 -0.2886 -0.2219
   93MOL0     C12738  14.487   2.002   8.857 -0.0766 -0.2288 -0.0430
   93MOL0     C12739  14.611   1.938   8.928  0.1426  0.0213 -0.0510
   93MOL0     C12740  14.726   1.959   8.825  0.5225 -1.3635  0.0000
   93MOL0    Cl12741  14.868   1.875   8.872 -0.5288 -0.1751 -0.0666
   93MOL0     C12742  13.607   1.787   8.984 -0.2667 -0.4605 -1.1074
   93MOL0     C12743  13.486   1.745   9.027  0.1588 -0.3452  0.6995
   93MOL0     O12744  13.289   1.760   9.245 -0.0640  0.1284  0.4919
   93MOL0     C12745  13.117   1.523   9.095  0.2631 -0.0687  0.3844
   93MOL0     C12746  13.033   1.414   9.108  0.0067 -0.0661 -0.5132
   93MOL0     N12747  12.513   1.222   9.614 -0.3247 -0.8467  0.3273
   93MOL0     N12748  12.413   1.174   9.676  0.3318 -0.1769 -0.1418
   93MOL0     C12749  11.233   1.342   9.702  0.0601  0.1449 -0.1741
   93MOL0     C12750  11.115   1.276   9.724 -0.0389 -0.0633 -0.3916
   93MOL0     C12751  10.834   0.912   9.603 -0.0162  1.0424  0.1358
   93MOL0     C12752  10.808   0.844   9.477 -0.6015 -0.6833 -0.8641
   93MOL0     C12753  10.725   0.735   9.479  0.2025 -0.1898  0.3767
   93MOL0     C12754  10.689   0.671   9.596  0.3894 -0.7374 -0.0316
   93MOL0     O12755  10.626   0.553   9.590 -0.3182 -0.1005  0.3268
   93MOL0     C12756  10.549   0.501   9.699  0.1761 -0.4513 -0.3026
   93MOL0     C12757  10.432   0.594   9.754  0.7310  0.8278 -0.3649
   93MOL0     C12758  10.304   0.587   9.668  0.1144 -0.2407 -0.8360
   93MOL0     C12759  10.318   0.637   9.527  0.0742 -1.3491  0.1657
   93MOL0     C12760  10.189   0.639   9.458 -0.3469 -0.6245 -0.3697
   93MOL0     C12761  10.079   0.630   9.400  0.2035  0.2831  0.9725
   93MOL0     C12762  10.699   0.741   9.716  0.4514 -0.1746 -0.2491
   93MOL0     C12763  10.778   0.857   9.721  1.1952  0.4996  0.4957
   93MOL0     C12764  10.771   0.936   9.848 -0.0318 -0.3399  0.8440
   93MOL0     H12765  11.217   0.975   9.597  2.5962  0.1196  0.6245
   93MOL0     H12766  11.419   1.098   9.556 -0.2421  0.1206 -0.8059
   93MOL0     H12767  11.413   1.532   9.682 -0.4033  2.0265 -1.5669
   93MOL0     H12768  11.565   1.515   9.590 -1.0010  0.6512 -1.8929
   93MOL0     H12769  11.609   1.563   9.831  0.5386 -1.4854  1.8202
   93MOL0     H12770  11.525   1.418   9.870 -1.2736  0.2789  0.7352
   93MOL0     H12771  11.743   1.357   9.879 -0.5063  0.5444  0.6647
   93MOL0     H12772  11.723   1.303   9.710 -2.3963  1.1639 -2.9584
   93MOL0     H12773  11.823   1.503   9.620  1.5285 -2.5775 -0.0605
   93MOL0     H12774  11.824   1.587   9.785 -1.1066 -0.5282  1.3122
   93MOL0     H12775  11.991   1.434   9.867 -0.0159 -2.3183 -0.2999
   93MOL0     H12776  12.039   1.521   9.731  1.7997 -1.6982  0.6561
   93MOL0     H12777  11.948   1.230   9.746  0.1258 -0.5057 -1.2890
   93MOL0     H12778  11.975   1.311   9.591  0.5805 -0.0102 -0.4275
   93MOL0     H12779  12.194   1.277   9.797 -2.0144 -0.2579  1.4689
   93MOL0     H12780  12.199   1.364   9.635  1.3679 -0.3688  1.0396
   93MOL0     H12781  12.146   1.070   9.686 -1.7507 -0.8142 -0.7276
   93MOL0     H12782  12.117   1.155   9.531  0.0293 -0.6349  0.4061
   93MOL0     H12783  12.293   1.221   9.376  2.9979 -1.1108 -1.5256
   93MOL0     H12784  12.659   1.342   9.409  0.1770 -0.4393 -1.2341
   93MOL0     H12785  12.525   1.336   9.295  0.2186 -1.2978 -0.5157
   93MOL0     H12786  12.707   1.109   9.350  0.9003  1.3912  1.3192
   93MOL0     H12787  12.562   1.073   9.283 -0.9641  0.2871  0.6442
   93MOL0     H12788  12.662   1.095   9.093  3.4179  1.0132 -0.7982
   93MOL0     H12789  12.622   1.269   9.094 -1.6151 -0.8172 -0.7681
   93MOL0     H12790  12.882   1.131   9.177 -2.0866 -1.5155  0.3474
   93MOL0     H12791  12.859   1.233   9.032  0.1941 -0.7411  0.2266
   93MOL0     H12792  12.843   1.546   9.354 -0.2525 -2.3088 -0.4860
   93MOL0     H12793  12.950   1.851   9.300  2.2346  1.7546  0.7141
   93MOL0     H12794  13.092   1.804   9.377  2.4791 -1.3642 -2.1340
   93MOL0     H12795  12.937   1.734   9.441 -0.2789  1.1787 -0.7938
   93MOL0     H12796  13.281   1.947   8.829  0.7444  1.0263 -0.4192
   93MOL0     H12797  13.512   2.019   8.763  0.7896 -2.2366 -1.9067
   93MOL0     H12798  13.863   1.928   9.022  0.1034 -0.3720  0.1726
   93MOL0     H12799  13.896   1.801   8.913  1.2855  1.6095  0.9159
   93MOL0     H12800  14.007   1.942   8.764 -2.2576 -1.0275 -0.2340
   93MOL0     H12801  13.964   2.086   8.868  2.8511  1.0789  0.4809
   93MOL0     H12802  14.124   1.870   8.995  1.5303  1.1999  3.2027
   93MOL0     H12803  14.093   2.028   9.046 -1.0485 -0.5650  0.1976
   93MOL0     H12804  14.232   2.120   8.862  4.2533  0.3847  0.3247
   93MOL0     H12805  14.211   1.963   8.771 -0.7489 -0.7197  0.4325
   93MOL0     H12806  14.369   2.026   9.038  3.4764  1.2333 -1.2566
   93MOL0     H12807  14.361   1.871   8.973  0.2531  0.1709  1.3221
   93MOL0     H12808  14.500   2.109   8.839  2.1536 -0.5020 -0.4407
   93MOL0     H12809  14.471   1.958   8.758 -1.0591  1.3471 -0.6143
   93MOL0     H12810  14.595   1.831   8.947 -1.0904  0.3312  0.7893
   93MOL0     H12811  14.631   1.990   9.022 -1.5423  1.6796 -0.5282
   93MOL0     H12812  14.742   2.066   8.809 -1.5495 -1.0767 -0.3233
   93MOL0     H12813  14.703   1.924   8.724  0.0083  3.2058 -1.6989
   93MOL0     H12814  13.689   1.742   9.038 -1.0569  1.1310  1.6503
   93MOL0     H12815  13.469   1.663   9.097  1.7806 -0.5339  0.9038
   93MOL0     H12816  13.198   1.513   9.023  2.4408  0.6921  2.5624
   93MOL0     H12817  13.057   1.324   9.053  0.5444 -1.0421  1.2544
   93MOL0     H12818  11.240   1.449   9.719  1.5860  0.0899 -0.3465
   93MOL0     H12819  11.026   1.323   9.764  0.7387 -0.9493  2.6573
   93MOL0     H12820  10.845   0.886   9.384  1.7433  2.8943  1.4827
   93MOL0     H12821  10.703   0.680   9.388 -2.2751  0.2541  0.6196
   93MOL0     H12822  10.500   0.409   9.668  0.0686 -0.5580  0.1782
   93MOL0     H12823  10.622   0.490   9.780 -1.2328 -0.3228  1.0136
   93MOL0     H12824  10.448   0.702   9.758  1.3878  0.7025  2.3894
   93MOL0     H12825  10.399   0.559   9.852  3.1030 -0.5482  0.0175
   93MOL0     H12826  10.259   0.488   9.667  0.7031 -0.5502  0.6772
   93MOL0     H12827  10.236   0.649   9.728 -1.4842 -1.7977 -0.9849
   93MOL0     H12828  10.379   0.566   9.470 -0.2128 -3.5726  2.4399
   93MOL0     H12829  10.356   0.739   9.519  0.6636 -1.3657  2.1065
   93MOL0     H12830   9.984   0.612   9.354  0.9326 -0.6127 -0.2183
   93MOL0     H12831  10.654   0.707   9.809 -0.3979  0.0777 -0.5615
   93MOL0     H12832  10.682   0.912   9.907  1.5591  0.2838  3.6683
   93MOL0     H12833  10.866   0.924   9.901  0.6297  0.1997 -0.2058
   93MOL0     H12834  10.767   1.038   9.810  1.9112 -0.8998 -1.0538
   94MOL0     O12835   3.543   2.571   7.563 -0.2685 -0.2610 -0.0923
   94MOL0     C12836   3.468   2.510   7.491  0.0061  0.0229  0.1987
   94MOL0     O12837   3.505   2.465   7.367  0.2606 -1.2080 -0.0484
   94MOL0     C12838   3.635   2.458   7.329  0.3270 -0.2860  0.3588
   94MOL0     C12839   3.677   2.331   7.301 -0.6277  0.3323  0.2660
   94MOL0     C12840   3.805   2.304   7.266 -0.6844  0.3545  0.2022
   94MOL0     C12841   3.900   2.405   7.247  0.3008 -0.7562 -0.0616
   94MOL0     O12842   4.020   2.361   7.214 -0.4577 -0.2786  0.6414
   94MOL0     C12843   4.136   2.446   7.233 -0.4080 -0.0782  0.3016
   94MOL0     C12844   4.254   2.388   7.156  0.1827  0.2614  0.4485
   94MOL0     C12845   4.253   2.387   7.004  0.7302  0.7543 -1.0380
   94MOL0     C12846   4.384   2.326   6.951  1.0405  0.1102  0.5194
   94MOL0     C12847   4.370   2.305   6.799  0.5382  0.0677  0.2539
   94MOL0     C12848   4.501   2.310   6.716 -0.9161  0.1927 -0.3296
   94MOL0     C12849   4.586   2.189   6.749 -0.3999 -0.7249  0.2302
   94MOL0     C12850   4.711   2.185   6.657  0.2824 -0.4367  0.2574
   94MOL0     N12851   4.792   2.301   6.676 -0.1301 -0.0239  0.8789
   94MOL0     C12852   4.831   2.399   6.584 -0.2086 -1.2349 -0.6926
   94MOL0     C12853   4.914   2.480   6.656  0.4645 -0.2681  0.3643
   94MOL0     C12854   4.976   2.613   6.619  0.4915 -0.1994  0.1979
   94MOL0     C12855   4.961   2.640   6.458 -0.8821  0.2108 -1.5753
   94MOL0     C12856   5.046   2.553   6.362 -0.2384 -0.2616 -0.5075
   94MOL0     C12857   5.195   2.580   6.390 -0.5850  0.5385  0.8570
   94MOL0     O12858   5.272   2.486   6.312  0.0929 -0.7683 -0.1566
   94MOL0     C12859   5.414   2.494   6.309 -0.0079 -0.0309 -0.4198
   94MOL0     C12860   5.478   2.386   6.255  0.2737 -0.1288 -0.0233
   94MOL0     C12861   5.609   2.395   6.210 -0.1953 -0.0925  1.0955
   94MOL0     C12862   5.670   2.282   6.125  0.1444  0.4367 -0.3948
   94MOL0     C12863   5.690   2.505   6.243 -0.8706  0.5990 -1.2248
   94MOL0     C12864   5.828   2.523   6.214 -0.0781 -0.2658 -0.3170
   94MOL0     O12865   5.885   2.649   6.220  0.6000 -0.3784  0.1274
   94MOL0     C12866   6.012   2.663   6.184 -0.0594 -0.3343  0.4391
   94MOL0     C12867   6.116   2.653   6.281 -0.4812  0.3255 -0.0442
   94MOL0     C12868   6.257   2.662   6.241 -0.0704 -0.3475  0.2094
   94MOL0     C12869   6.297   2.678   6.107  0.0098  0.7942  0.6674
   94MOL0     O12870   6.431   2.688   6.071 -0.0062 -0.0467 -0.5214
   94MOL0     C12871   6.461   2.666   5.931 -0.6149  0.4998 -0.8166
   94MOL0     C12872   6.615   2.671   5.907  0.1434  0.0131 -0.3478
   94MOL0     C12873   6.686   2.575   5.995  0.2164 -0.5368 -0.3179
   94MOL0     C12874   6.832   2.566   5.951  0.0644  0.1985 -0.0557
   94MOL0     C12875   6.931   2.496   6.055 -0.8115 -0.5889  0.4129
   94MOL0     C12876   7.073   2.549   6.029  0.1354  0.0887  0.1165
   94MOL0     C12877   7.154   2.509   5.908 -0.0341 -0.2709  0.1268
   94MOL0     C12878   7.268   2.608   5.891 -0.6156 -0.6023  0.0328
   94MOL0    Cl12879   7.398   2.560   5.770 -0.3843  0.3625  0.0033
   94MOL0     C12880   6.192   2.684   6.013  1.2012  0.4664  0.3124
   94MOL0     C12881   6.053   2.671   6.044 -0.0138 -1.0236 -0.7682
   94MOL0     O12882   5.900   2.424   6.210  0.3308  0.9382 -0.1189
   94MOL0     C12883   5.626   2.608   6.311 -0.4049 -0.2718 -0.9259
   94MOL0     C12884   5.497   2.598   6.354 -0.4426  0.3214  0.5736
   94MOL0     N12885   4.953   2.417   6.770  0.1502  0.4019  0.6261
   94MOL0     N12886   4.884   2.309   6.775  0.2588  0.3171 -0.5426
   94MOL0     C12887   3.862   2.538   7.281  0.2008  0.0069  0.4660
   94MOL0     C12888   3.725   2.561   7.319 -0.1577  0.2423 -0.4345
   94MOL0     C12889   3.336   2.466   7.543  0.1818 -0.4556  0.1084
   94MOL0     C12890   3.266   2.365   7.475 -0.6003 -0.5196  0.6918
   94MOL0     C12891   3.144   2.316   7.522  0.3401  0.5991 -0.9445
   94MOL0     C12892   3.078   2.355   7.641  0.0486 -0.1693  0.2794
   94MOL0     O12893   2.963   2.294   7.689  0.0874  0.5470 -0.4991
   94MOL0     C12894   2.879   2.362   7.781  0.2876  0.9664  0.2215
   94MOL0     C12895   2.809   2.483   7.721 -0.1211  0.4034 -0.1726
   94MOL0     C12896   2.704   2.533   7.821  0.1116  0.1231 -0.2628
   94MOL0     C12897   2.647   2.672   7.783 -0.6597  0.3811 -0.3907
   94MOL0     C12898   2.547   2.705   7.885  0.5358 -0.9776 -0.1308
   94MOL0     C12899   2.457   2.716   7.967 -0.5801 -0.0488  0.0405
   94MOL0     C12900   3.150   2.458   7.704  0.1626 -0.5418  0.4764
   94MOL0     C12901   3.272   2.515   7.665  0.1007  0.9877  0.5814
   94MOL0     C12902   3.333   2.616   7.758  1.5580  0.7894 -0.4400
   94MOL0     H12903   3.603   2.252   7.309  1.4118 -1.4914  2.6811
   94MOL0     H12904   3.835   2.201   7.246 -0.0321  0.2867  1.4101
   94MOL0     H12905   4.161   2.452   7.339 -0.9347  1.9904  0.3521
   94MOL0     H12906   4.128   2.547   7.191  1.4628  1.2429  2.8538
   94MOL0     H12907   4.341   2.447   7.186 -0.5104  1.5934 -0.0605
   94MOL0     H12908   4.275   2.289   7.196  0.1440 -0.0878 -0.3724
   94MOL0     H12909   4.168   2.327   6.972  0.7997  0.3541 -0.4865
   94MOL0     H12910   4.235   2.492   6.977  1.1461  1.4443  1.1275
   94MOL0     H12911   4.463   2.397   6.977 -0.3894  0.8192  3.2812
   94MOL0     H12912   4.412   2.236   7.006  2.5771 -0.2855 -0.8349
   94MOL0     H12913   4.306   2.385   6.760  1.8280  1.4493  0.8373
   94MOL0     H12914   4.321   2.212   6.771  1.6457 -0.1094 -1.1664
   94MOL0     H12915   4.487   2.300   6.608  1.0776 -2.9705 -0.4518
   94MOL0     H12916   4.553   2.403   6.738 -1.4837  0.1951  1.1242
   94MOL0     H12917   4.531   2.095   6.735 -2.9181  0.9437 -2.3420
   94MOL0     H12918   4.622   2.188   6.852  2.5892  4.0347 -0.4877
   94MOL0     H12919   4.780   2.105   6.687  0.0728 -0.4351  0.7500
   94MOL0     H12920   4.681   2.172   6.552 -1.6306 -1.6233  0.8821
   94MOL0     H12921   4.795   2.411   6.482  1.7343 -1.1294 -1.4054
   94MOL0     H12922   5.080   2.613   6.652  0.7596  4.7776  0.0803
   94MOL0     H12923   4.933   2.694   6.679 -0.7094  0.0561 -0.9760
   94MOL0     H12924   4.856   2.639   6.429 -0.8554 -0.3357 -1.6624
   94MOL0     H12925   5.001   2.741   6.441  1.2016 -0.2076  0.3207
   94MOL0     H12926   5.025   2.446   6.363  2.1137 -0.7841  0.9845
   94MOL0     H12927   5.020   2.585   6.261 -0.7293 -0.3721 -0.4185
   94MOL0     H12928   5.228   2.680   6.360 -0.9135  0.4463  0.1673
   94MOL0     H12929   5.219   2.566   6.496 -0.3686 -1.0606  0.6139
   94MOL0     H12930   5.420   2.298   6.228  1.0008 -1.0617  1.3243
   94MOL0     H12931   5.710   2.319   6.030  1.3447  0.5513  0.1313
   94MOL0     H12932   5.593   2.213   6.089 -1.2070  1.7996 -0.2388
   94MOL0     H12933   5.743   2.216   6.173 -0.2641  0.1505 -0.1671
   94MOL0     H12934   6.096   2.654   6.388  0.0080 -2.0319  0.1242
   94MOL0     H12935   6.331   2.655   6.319 -0.0835 -2.1962  0.0943
   94MOL0     H12936   6.414   2.570   5.909 -1.8621  1.1131 -0.9068
   94MOL0     H12937   6.418   2.747   5.872  0.7753  1.6488 -0.3227
   94MOL0     H12938   6.636   2.639   5.804  1.5941  0.1188 -0.1016
   94MOL0     H12939   6.648   2.774   5.923  1.7697 -0.3627 -1.0558
   94MOL0     H12940   6.645   2.473   5.991 -2.0526  0.3277 -0.3853
   94MOL0     H12941   6.668   2.613   6.096  0.4343  1.0459 -0.8576
   94MOL0     H12942   6.862   2.668   5.926 -2.0276  1.1124  0.8830
   94MOL0     H12943   6.830   2.508   5.859  0.1555 -1.9549  1.2253
   94MOL0     H12944   6.901   2.524   6.156  2.2801  1.8637  0.8026
   94MOL0     H12945   6.908   2.390   6.042  0.4162 -0.5857 -2.7705
   94MOL0     H12946   7.129   2.526   6.121 -2.2125  0.2385  1.6686
   94MOL0     H12947   7.060   2.657   6.021  0.5321  0.1590  0.3783
   94MOL0     H12948   7.095   2.492   5.818  1.4787  0.4745 -1.0507
   94MOL0     H12949   7.206   2.413   5.923 -1.3827 -1.6957 -3.3286
   94MOL0     H12950   7.329   2.617   5.981  0.7570  0.5580 -0.9750
   94MOL0     H12951   7.227   2.705   5.859  0.3653  0.0684  0.7457
   94MOL0     H12952   6.215   2.691   5.907  0.0395  1.7835  0.1183
   94MOL0     H12953   5.974   2.678   5.970 -2.0658  0.4752  1.4437
   94MOL0     H12954   5.680   2.699   6.337 -2.5760  0.1948  2.5615
   94MOL0     H12955   5.450   2.676   6.413  1.1708  1.6983  0.1267
   94MOL0     H12956   3.929   2.623   7.278  2.1598 -1.4779 -0.0393
   94MOL0     H12957   3.704   2.665   7.344  1.7415  0.5921 -0.1470
   94MOL0     H12958   3.310   2.331   7.382  1.2799 -0.9387  1.6873
   94MOL0     H12959   3.110   2.236   7.456  0.0438  1.0313 -1.3208
   94MOL0     H12960   2.801   2.289   7.802  1.9466 -1.0798 -0.4404
   94MOL0     H12961   2.923   2.381   7.879  0.9636 -1.2734  0.4114
   94MOL0     H12962   2.760   2.470   7.625 -2.2177  1.4549  0.6946
   94MOL0     H12963   2.889   2.556   7.705  1.2556 -0.8415  0.7332
   94MOL0     H12964   2.622   2.463   7.842  0.9217 -0.4031  1.4107
   94MOL0     H12965   2.756   2.549   7.916 -0.3053 -0.5118  0.0828
   94MOL0     H12966   2.603   2.663   7.683 -0.8969  0.1437 -0.2696
   94MOL0     H12967   2.732   2.739   7.767  2.6410 -3.2881  0.1265
   94MOL0     H12968   2.386   2.723   8.046  2.7518 -0.1507  3.3219
   94MOL0     H12969   3.110   2.495   7.798  1.2263  3.7390 -0.5469
   94MOL0     H12970   3.313   2.718   7.722  0.5127  2.3003  3.8433
   94MOL0     H12971   3.283   2.611   7.855  1.4828  0.4556 -0.4968
   94MOL0     H12972   3.440   2.593   7.769  0.9783 -1.4661  1.0865
   95MOL0     O12973   4.871  10.947   3.319  0.0223  0.1280 -0.2857
   95MOL0     C12974   4.812  10.959   3.425  1.0606 -0.4821  0.0413
   95MOL0     O12975   4.855  10.930   3.548 -0.8610  0.0223 -0.4999
   95MOL0     C12976   4.984  10.887   3.562  0.5242 -0.3715  0.2058
   95MOL0     C12977   5.093  10.972   3.549 -0.1114 -0.4571 -0.1098
   95MOL0     C12978   5.223  10.917   3.561  0.7042  0.7567  0.7893
   95MOL0     C12979   5.240  10.784   3.591  0.3254  0.1528 -0.2396
   95MOL0     O12980   5.356  10.713   3.602 -0.0599  0.5964  0.2581
   95MOL0     C12981   5.484  10.769   3.582  0.8320  1.3674  0.0928
   95MOL0     C12982   5.584  10.668   3.642  0.1022  0.5103  0.0994
   95MOL0     C12983   5.598  10.535   3.564  0.1675  0.5855 -0.0335
   95MOL0     C12984   5.686  10.535   3.438  0.1616  0.0097 -0.8266
   95MOL0     C12985   5.825  10.607   3.450 -0.5341 -0.3110 -0.5412
   95MOL0     C12986   5.925  10.565   3.552  0.0298  0.1712 -0.2566
   95MOL0     C12987   5.935  10.414   3.562 -0.4584  0.9248  0.0645
   95MOL0     C12988   6.067  10.372   3.615  0.3373 -0.5064  0.7189
   95MOL0     N12989   6.196  10.388   3.537 -0.0363 -0.5604  0.2381
   95MOL0     C12990   6.205  10.362   3.405  0.2918 -0.1025 -0.3627
   95MOL0     C12991   6.312  10.429   3.365 -0.2092 -0.4342 -0.0356
   95MOL0     C12992   6.381  10.406   3.231  0.5724 -0.2964 -0.4780
   95MOL0     C12993   6.497  10.501   3.210 -0.0333  0.1367  0.2000
   95MOL0     C12994   6.442  10.646   3.200  0.1015  0.8069  0.0959
   95MOL0     C12995   6.532  10.720   3.109  0.0076 -0.1417  0.1030
   95MOL0     O12996   6.669  10.703   3.151  0.1301 -0.0016  0.1918
   95MOL0     C12997   6.775  10.717   3.057  0.5879  0.0578 -0.5260
   95MOL0     C12998   6.897  10.660   3.111 -0.8774  0.0311  1.2478
   95MOL0     C12999   7.019  10.660   3.035  0.0001 -0.1775 -0.8071
   95MOL0     C13000   7.148  10.613   3.100 -0.1919 -0.8692 -0.0748
   95MOL0     C13001   7.019  10.721   2.915  0.8565  0.0316  0.3279
   95MOL0     C13002   7.137  10.729   2.829 -0.2599  0.1259 -0.9223
   95MOL0     O13003   7.144  10.847   2.757  0.2922  0.2790  0.3812
   95MOL0     C13004   7.247  10.847   2.671 -0.6604 -0.2892 -0.3428
   95MOL0     C13005   7.359  10.932   2.699  0.1729  0.2633 -0.0513
   95MOL0     C13006   7.453  10.953   2.601  1.2029  0.7888  0.1221
   95MOL0     C13007   7.446  10.867   2.486 -0.0226 -0.5090 -0.4429
   95MOL0     O13008   7.544  10.873   2.392 -0.4054 -0.0986  0.0188
   95MOL0     C13009   7.682  10.868   2.438 -0.1288 -0.0509 -0.2972
   95MOL0     C13010   7.770  10.821   2.329 -0.3814  0.2645 -0.7085
   95MOL0     C13011   7.878  10.930   2.288  0.1383  0.4083  0.2553
   95MOL0     C13012   7.999  10.860   2.228  0.1903 -0.6439  0.5154
   95MOL0     C13013   8.103  10.954   2.166  0.3681  0.0596 -0.3195
   95MOL0     C13014   8.248  10.902   2.178  0.1491  0.3257  0.3583
   95MOL0     C13015   8.336  10.976   2.075  0.7139  0.1404  0.1597
   95MOL0     C13016   8.477  10.905   2.081  0.3444 -0.8890  0.2486
   95MOL0    Cl13017   8.559  10.940   2.233  0.1180 -0.4919 -0.0544
   95MOL0     C13018   7.332  10.793   2.460  0.3033 -0.8115  0.8192
   95MOL0     C13019   7.228  10.788   2.547  0.0022 -0.1802 -0.5615
   95MOL0     O13020   7.215  10.637   2.824  0.0233  0.4105 -0.3213
   95MOL0     C13021   6.897  10.782   2.870 -0.3373 -0.0508  0.1631
   95MOL0     C13022   6.778  10.768   2.932 -0.4661 -0.5594  0.0357
   95MOL0     N13023   6.373  10.498   3.473 -0.1225  0.3085  0.0925
   95MOL0     N13024   6.291  10.481   3.573 -0.3719  0.2478  0.0213
   95MOL0     C13025   5.131  10.705   3.611  1.1440 -0.6511 -0.0422
   95MOL0     C13026   5.000  10.758   3.603 -0.0651  0.4093 -0.8448
   95MOL0     C13027   4.673  11.025   3.414  0.1158 -0.5608  0.5516
   95MOL0     C13028   4.592  10.990   3.296 -0.6017  0.2172  0.2820
   95MOL0     C13029   4.466  11.047   3.279  0.7179  0.5346 -0.9268
   95MOL0     C13030   4.412  11.138   3.369  0.7238  0.1457  0.0943
   95MOL0     O13031   4.287  11.186   3.359 -0.0383  0.1502 -0.2077
   95MOL0     C13032   4.187  11.138   3.270 -0.1994 -0.4893  0.3480
   95MOL0     C13033   4.197  11.205   3.130  0.2210  0.2110  1.3056
   95MOL0     C13034   4.170  11.358   3.126  0.4422 -0.4558  0.2733
   95MOL0     C13035   4.211  11.431   2.992  0.5366 -0.1773 -1.0876
   95MOL0     C13036   4.352  11.416   2.960 -0.0865 -0.3285  0.6179
   95MOL0     C13037   4.464  11.389   2.918 -0.2585 -0.3059 -1.0691
   95MOL0     C13038   4.480  11.171   3.479  0.0077 -0.2805 -0.2594
   95MOL0     C13039   4.611  11.118   3.507 -0.1490 -0.2828  0.5377
   95MOL0     C13040   4.672  11.143   3.636 -0.0863  0.6037  0.3419
   95MOL0     H13041   5.097  11.078   3.525  2.4106  0.2431  2.8164
   95MOL0     H13042   5.309  10.983   3.552  0.4094  1.1383  0.7161
   95MOL0     H13043   5.493  10.867   3.631  0.1639  3.4348 -3.5503
   95MOL0     H13044   5.499  10.785   3.475  2.2375  1.8580  0.3342
   95MOL0     H13045   5.683  10.715   3.646  1.1994 -1.6988  3.7718
   95MOL0     H13046   5.557  10.652   3.746  1.4011 -0.1482  0.3552
   95MOL0     H13047   5.635  10.465   3.639 -2.5511 -1.6187 -0.6066
   95MOL0     H13048   5.500  10.492   3.543 -1.0898  2.6921  1.0958
   95MOL0     H13049   5.697  10.434   3.397 -0.1951  0.1239 -1.2068
   95MOL0     H13050   5.642  10.589   3.353  1.9078  2.9961  0.0210
   95MOL0     H13051   5.810  10.714   3.467  3.1264  0.2838 -0.1611
   95MOL0     H13052   5.878  10.599   3.354 -1.5675  1.6490 -1.3340
   95MOL0     H13053   6.018  10.614   3.523  0.7014 -1.2472 -0.5992
   95MOL0     H13054   5.891  10.606   3.648  1.0023 -1.1876  0.7149
   95MOL0     H13055   5.938  10.368   3.463  2.3767 -1.1515  0.9889
   95MOL0     H13056   5.856  10.380   3.629 -0.3452  0.0169 -0.2544
   95MOL0     H13057   6.082  10.404   3.718 -2.4833  2.9156  0.2743
   95MOL0     H13058   6.052  10.264   3.628 -1.0254 -0.3458  0.6502
   95MOL0     H13059   6.133  10.304   3.348  0.4406 -0.9729  0.3159
   95MOL0     H13060   6.307  10.413   3.151 -1.2497 -0.0100  1.1683
   95MOL0     H13061   6.421  10.304   3.225 -1.5547 -1.5392  3.4949
   95MOL0     H13062   6.573  10.503   3.289  0.2499  0.1289 -0.0715
   95MOL0     H13063   6.550  10.478   3.118 -0.7819  2.6398 -0.9355
   95MOL0     H13064   6.344  10.639   3.152  0.2809  0.2310 -0.1956
   95MOL0     H13065   6.439  10.703   3.293 -0.8674  1.0887 -0.0963
   95MOL0     H13066   6.521  10.668   3.014  3.8556 -1.8862  0.4196
   95MOL0     H13067   6.508  10.827   3.108  2.8328  0.5684 -1.0303
   95MOL0     H13068   6.890  10.628   3.214  1.0203 -0.8713  1.1326
   95MOL0     H13069   7.235  10.656   3.050 -0.5438 -1.8214 -1.5731
   95MOL0     H13070   7.151  10.504   3.090  0.4519 -0.9420  0.7816
   95MOL0     H13071   7.157  10.641   3.205  0.5413  0.3461 -0.4527
   95MOL0     H13072   7.357  10.988   2.792 -0.9151  3.4455 -1.8275
   95MOL0     H13073   7.543  11.012   2.615  1.3360  0.5885  0.1039
   95MOL0     H13074   7.718  10.966   2.470  0.4315 -0.1343 -0.6706
   95MOL0     H13075   7.687  10.803   2.526 -0.7628  0.4167  0.0946
   95MOL0     H13076   7.821  10.727   2.349 -0.3648  0.4872  0.3468
   95MOL0     H13077   7.711  10.797   2.240  0.7337 -1.7934 -0.9340
   95MOL0     H13078   7.906  10.984   2.379 -2.0187 -0.5909  1.5905
   95MOL0     H13079   7.826  10.991   2.213  1.1405  0.0378 -0.7856
   95MOL0     H13080   7.959  10.788   2.156  1.5167 -2.8393  1.8811
   95MOL0     H13081   8.051  10.803   2.305  2.7177 -2.3922 -2.2710
   95MOL0     H13082   8.079  10.976   2.061  2.5682  3.3292 -0.2759
   95MOL0     H13083   8.109  11.049   2.220  2.9402 -0.0277 -0.3238
   95MOL0     H13084   8.251  10.796   2.153  0.6292  0.4136  0.0289
   95MOL0     H13085   8.286  10.923   2.279  0.3229  3.2925 -0.2230
   95MOL0     H13086   8.347  11.085   2.086 -2.8539  0.3751  4.5596
   95MOL0     H13087   8.302  10.952   1.974  0.7467  0.2091  0.1321
   95MOL0     H13088   8.536  10.924   1.991 -2.6895  0.4284 -1.6065
   95MOL0     H13089   8.466  10.797   2.070  0.7966 -0.8501 -0.7093
   95MOL0     H13090   7.318  10.738   2.368 -1.1588 -2.0199  1.7234
   95MOL0     H13091   7.142  10.726   2.524  2.0827 -2.6250 -2.2848
   95MOL0     H13092   6.898  10.823   2.770 -3.0289 -2.0274 -0.7577
   95MOL0     H13093   6.687  10.816   2.899  0.0576  0.8642  0.6031
   95MOL0     H13094   5.141  10.601   3.638 -0.7286 -1.7288 -2.9665
   95MOL0     H13095   4.924  10.688   3.634 -0.2065  1.3774  1.0699
   95MOL0     H13096   4.628  10.915   3.227 -0.2005  1.8343 -1.3496
   95MOL0     H13097   4.410  11.001   3.198 -0.8786 -0.2375  0.5349
   95MOL0     H13098   4.172  11.029   3.266 -1.7846 -0.2822 -0.1326
   95MOL0     H13099   4.096  11.183   3.309 -2.1497 -2.6300 -1.4180
   95MOL0     H13100   4.122  11.157   3.066  1.9969 -1.7590  0.5778
   95MOL0     H13101   4.297  11.178   3.094 -0.0771  0.4794  0.2261
   95MOL0     H13102   4.062  11.363   3.139  0.2777 -2.9131  0.4509
   95MOL0     H13103   4.223  11.411   3.206  1.7983  2.4625 -2.3487
   95MOL0     H13104   4.196  11.538   3.005  2.7887  0.1222 -0.5761
   95MOL0     H13105   4.144  11.398   2.912  0.7723 -3.3746 -0.1253
   95MOL0     H13106   4.564  11.356   2.895 -0.9046 -3.5888  0.3609
   95MOL0     H13107   4.432  11.236   3.552 -0.5817 -0.2967 -0.6166
   95MOL0     H13108   4.665  11.055   3.701 -0.4835  0.4353  0.0813
   95MOL0     H13109   4.776  11.172   3.622 -0.7231  2.3602 -1.1856
   95MOL0     H13110   4.628  11.226   3.691 -0.5271 -0.3462  1.4817
   96MOL0     O13111   4.891   9.990   7.949 -0.1261 -0.4281 -0.4235
   96MOL0     C13112   4.893  10.066   7.854 -0.0261 -0.4904  0.6614
   96MOL0     O13113   5.000  10.088   7.773 -0.3519  0.4464  0.3196
   96MOL0     C13114   5.124  10.047   7.805 -0.3691 -0.5349  0.4796
   96MOL0     C13115   5.163   9.927   7.743 -0.4972 -0.0929 -0.4179
   96MOL0     C13116   5.300   9.894   7.732  0.3944 -0.3358 -0.2438
   96MOL0     C13117   5.396   9.977   7.787 -0.1514  0.4629  0.6473
   96MOL0     O13118   5.531   9.941   7.770 -0.3632 -0.0499  0.0805
   96MOL0     C13119   5.636  10.018   7.839 -0.4260  0.2437 -1.0574
   96MOL0     C13120   5.765   9.934   7.846  0.5449 -0.3271  0.5565
   96MOL0     C13121   5.888  10.016   7.871 -1.1114 -0.4821 -0.5478
   96MOL0     C13122   5.871  10.125   7.981 -1.0082  1.0249  0.0399
   96MOL0     C13123   5.984  10.224   7.969  0.0382 -0.5561  0.1234
   96MOL0     C13124   5.993  10.310   8.099 -0.5567 -0.5793  0.0427
   96MOL0     C13125   6.126  10.388   8.094 -0.5178  0.1654 -0.2077
   96MOL0     C13126   6.143  10.439   8.242 -0.5922  0.3820  0.3220
   96MOL0     N13127   6.271  10.494   8.269  0.4327 -0.0812 -0.2702
   96MOL0     C13128   6.386  10.419   8.286  0.2787 -0.0486  0.0440
   96MOL0     C13129   6.484  10.504   8.301 -0.0241 -0.0876  0.0538
   96MOL0     C13130   6.624  10.459   8.311 -0.2560  0.4081 -0.1751
   96MOL0     C13131   6.680  10.478   8.452  0.2796  0.0426 -0.7407
   96MOL0     C13132   6.826  10.440   8.449 -0.3934 -0.4804  0.2309
   96MOL0     C13133   6.902  10.560   8.397  0.3140 -0.4783 -0.5185
   96MOL0     O13134   7.038  10.527   8.385  0.0258 -0.1383  0.5748
   96MOL0     C13135   7.127  10.617   8.330 -0.6471 -0.2239  0.3965
   96MOL0     C13136   7.103  10.746   8.283  0.0677 -0.7214 -0.0429
   96MOL0     C13137   7.207  10.829   8.251 -0.7306  0.1029 -0.1862
   96MOL0     C13138   7.164  10.966   8.199 -0.4736 -0.4337 -0.9178
   96MOL0     C13139   7.340  10.777   8.253  0.3874 -0.4142  0.5167
   96MOL0     C13140   7.463  10.848   8.205  0.0344  0.6580  0.2686
   96MOL0     O13141   7.448  10.992   8.193  0.4956 -0.0300  0.7405
   96MOL0     C13142   7.556  11.054   8.145 -1.0118 -0.4028  1.4323
   96MOL0     C13143   7.682  11.033   8.201  0.5217  1.0985 -0.2519
   96MOL0     C13144   7.795  11.088   8.143 -0.0288 -0.3195  0.2649
   96MOL0     C13145   7.784  11.169   8.026  0.1614  0.1878 -0.3048
   96MOL0     O13146   7.897  11.229   7.975 -0.6169  0.1555  0.6164
   96MOL0     C13147   8.019  11.166   7.984  0.2683  0.3806 -0.1644
   96MOL0     C13148   8.130  11.255   7.923 -0.1863 -0.3656 -0.3396
   96MOL0     C13149   8.088  11.319   7.786  0.8150  0.1182  0.2103
   96MOL0     C13150   8.200  11.404   7.719 -0.1671 -0.6323 -0.2607
   96MOL0     C13151   8.328  11.329   7.679  1.2591 -0.5605 -0.1695
   96MOL0     C13152   8.426  11.412   7.597 -0.3611 -0.0003  0.6097
   96MOL0     C13153   8.559  11.337   7.589 -0.3081 -1.0132  0.8100
   96MOL0     C13154   8.664  11.404   7.505 -0.0847  0.1697  0.5636
   96MOL0    Cl13155   8.631  11.373   7.328  0.0011 -0.2134  0.0091
   96MOL0     C13156   7.661  11.207   7.981 -0.5156 -0.3797 -0.6495
   96MOL0     C13157   7.545  11.154   8.042 -0.7199 -0.0540  0.6654
   96MOL0     O13158   7.565  10.779   8.188  0.3233  0.2645 -0.6937
   96MOL0     C13159   7.360  10.656   8.306  0.5688  0.2014 -0.9129
   96MOL0     C13160   7.258  10.573   8.340  0.1560  0.7243  0.5611
   96MOL0     N13161   6.432  10.631   8.287 -0.7760 -0.5430 -0.1899
   96MOL0     N13162   6.306  10.622   8.278 -0.2141  0.3957 -0.0570
   96MOL0     C13163   5.355  10.098   7.850  0.0246  0.0974 -0.1839
   96MOL0     C13164   5.223  10.132   7.857  0.0131  0.4144  0.0013
   96MOL0     C13165   4.775  10.145   7.827  0.3115 -0.3121 -1.3290
   96MOL0     C13166   4.763  10.212   7.705  0.3376  0.4065 -0.0559
   96MOL0     C13167   4.648  10.283   7.670 -0.8865 -0.0159 -0.1791
   96MOL0     C13168   4.546  10.304   7.760  0.1441 -0.5731 -0.4140
   96MOL0     O13169   4.434  10.377   7.728 -0.7838 -0.0180 -0.3972
   96MOL0     C13170   4.306  10.308   7.729  0.3039 -0.2611  0.2778
   96MOL0     C13171   4.179  10.386   7.707  0.4647 -0.0142  0.5061
   96MOL0     C13172   4.054  10.309   7.756 -0.2395 -0.1035 -0.3145
   96MOL0     C13173   4.029  10.182   7.666 -0.3159 -0.4388  0.1349
   96MOL0     C13174   3.951  10.225   7.551  0.0639  0.6164 -0.4218
   96MOL0     C13175   3.886  10.244   7.454 -0.2022  0.2393 -0.1671
   96MOL0     C13176   4.554  10.241   7.883  0.0284  0.6106 -1.0349
   96MOL0     C13177   4.662  10.165   7.919 -0.5852 -0.6244 -0.0750
   96MOL0     C13178   4.648  10.090   8.052 -0.2904 -0.2064 -0.5661
   96MOL0     H13179   5.090   9.854   7.708  0.6353 -1.1130 -0.7410
   96MOL0     H13180   5.330   9.801   7.684 -0.5026 -0.2073 -1.1040
   96MOL0     H13181   5.606  10.042   7.941  0.0374 -0.2414 -0.8053
   96MOL0     H13182   5.649  10.106   7.775  0.6507  1.1085  0.3030
   96MOL0     H13183   5.757   9.869   7.934  2.6575 -1.9380 -0.3394
   96MOL0     H13184   5.776   9.859   7.767  0.8249 -0.8921  1.1141
   96MOL0     H13185   5.968   9.950   7.906 -1.0136 -0.3562 -0.5321
   96MOL0     H13186   5.915  10.074   7.782 -1.2415  1.3372  0.5294
   96MOL0     H13187   5.779  10.183   7.974 -1.9097 -0.3189  0.4350
   96MOL0     H13188   5.870  10.078   8.080  3.6823 -1.4221 -0.7835
   96MOL0     H13189   5.963  10.280   7.876 -0.2127 -1.2682 -0.2562
   96MOL0     H13190   6.079  10.171   7.957 -0.2791 -1.9443  3.0485
   96MOL0     H13191   5.911  10.382   8.098 -0.0972  0.0608 -3.3032
   96MOL0     H13192   5.992  10.241   8.184  1.6414  0.1966  0.7841
   96MOL0     H13193   6.126  10.464   8.015 -0.8869 -0.0038 -0.3762
   96MOL0     H13194   6.215  10.328   8.074 -0.6832 -0.2248  0.2184
   96MOL0     H13195   6.061  10.507   8.265 -0.0703  0.8054  0.9678
   96MOL0     H13196   6.136  10.354   8.311 -0.0337 -1.7454 -2.0925
   96MOL0     H13197   6.382  10.312   8.272 -2.0192  0.2050 -2.0933
   96MOL0     H13198   6.683  10.511   8.236  2.1071 -2.5952 -0.5902
   96MOL0     H13199   6.627  10.355   8.278 -0.2972  0.0307  0.9768
   96MOL0     H13200   6.660  10.577   8.494 -0.2874 -0.4325  0.1402
   96MOL0     H13201   6.621  10.408   8.512 -0.5230  1.6249  0.3751
   96MOL0     H13202   6.868  10.416   8.547 -1.5481 -0.5391  0.7184
   96MOL0     H13203   6.846  10.360   8.377 -0.7511  0.4394 -0.9166
   96MOL0     H13204   6.857  10.596   8.304  1.0984 -0.1399 -0.7766
   96MOL0     H13205   6.899  10.638   8.474 -0.5468 -0.1342 -0.8814
   96MOL0     H13206   6.996  10.766   8.274  0.1807 -0.0149  0.1378
   96MOL0     H13207   7.068  10.995   8.243 -0.3908  0.9679 -1.6127
   96MOL0     H13208   7.160  10.977   8.090 -0.5233  1.1530 -0.7758
   96MOL0     H13209   7.233  11.039   8.240  0.0708 -1.3339 -0.1895
   96MOL0     H13210   7.695  10.979   8.294  0.5590  2.2929  0.4528
   96MOL0     H13211   7.892  11.060   8.183 -0.8304 -3.3490  0.3891
   96MOL0     H13212   8.050  11.143   8.087  4.2049  1.4353 -0.9510
   96MOL0     H13213   8.012  11.069   7.934 -1.3335  0.3517  0.0617
   96MOL0     H13214   8.159  11.333   7.994 -1.2432  1.4159 -1.7694
   96MOL0     H13215   8.225  11.202   7.910 -0.2727 -0.5555 -0.2108
   96MOL0     H13216   8.003  11.387   7.801  0.7906  0.3266 -0.8150
   96MOL0     H13217   8.059  11.238   7.719 -1.9391 -0.0249  1.4420
   96MOL0     H13218   8.225  11.481   7.793 -3.6653  0.2824  0.1228
   96MOL0     H13219   8.163  11.463   7.635  0.9002 -3.3295 -2.8006
   96MOL0     H13220   8.376  11.299   7.772 -2.1668 -0.1892  1.9161
   96MOL0     H13221   8.298  11.240   7.623 -0.4349  1.0078 -1.9270
   96MOL0     H13222   8.430  11.515   7.633  0.0147  0.6459 -1.1979
   96MOL0     H13223   8.384  11.413   7.496 -1.0167  3.6008  0.7793
   96MOL0     H13224   8.536  11.240   7.545  0.8487 -1.0193  0.1649
   96MOL0     H13225   8.601  11.311   7.687  0.8187 -1.6299  0.1860
   96MOL0     H13226   8.758  11.351   7.526  0.5810  0.9956 -0.2485
   96MOL0     H13227   8.683  11.508   7.531  1.8698  1.1639 -3.8237
   96MOL0     H13228   7.654  11.284   7.905  1.0112 -1.4014 -1.8886
   96MOL0     H13229   7.449  11.190   8.009  0.5800  2.6072 -0.5113
   96MOL0     H13230   7.462  10.627   8.325  0.4279 -0.3605 -0.9723
   96MOL0     H13231   7.274  10.468   8.363 -1.0600 -0.0900 -2.0183
   96MOL0     H13232   5.428  10.175   7.870  1.7495 -1.3133 -0.8288
   96MOL0     H13233   5.190  10.232   7.885  0.6186  0.9156 -1.0359
   96MOL0     H13234   4.841  10.198   7.630  0.4809  2.4000 -0.3326
   96MOL0     H13235   4.631  10.315   7.568 -0.1875 -3.0061 -1.3236
   96MOL0     H13236   4.311  10.233   7.650  1.0554  0.9789 -0.9051
   96MOL0     H13237   4.300  10.254   7.824 -3.0841  1.5295  1.2512
   96MOL0     H13238   4.167  10.421   7.604 -1.1213  0.8609  0.9622
   96MOL0     H13239   4.182  10.479   7.765  1.4307  1.0182 -1.1180
   96MOL0     H13240   4.067  10.282   7.861 -1.0074  0.0020 -0.1921
   96MOL0     H13241   3.963  10.369   7.754  1.3882  2.5485  0.3215
   96MOL0     H13242   3.963  10.111   7.718 -1.5691  0.3901 -0.2619
   96MOL0     H13243   4.126  10.138   7.642  0.4828  0.3925  1.6776
   96MOL0     H13244   3.823  10.270   7.371  0.1957 -0.9120 -0.8614
   96MOL0     H13245   4.479  10.253   7.960  1.8052 -0.3372  0.9647
   96MOL0     H13246   4.691   9.990   8.043 -0.3030 -0.1034 -1.8807
   96MOL0     H13247   4.704  10.140   8.132  2.4228 -1.6115 -1.4598
   96MOL0     H13248   4.539  10.082   8.064 -0.3289  2.4939  1.9332
   97MOL0     O13249  10.841  10.749   5.735  0.0982 -0.0833 -0.1916
   97MOL0     C13250  10.740  10.738   5.667  0.3688  0.1292 -0.5457
   97MOL0     O13251  10.695  10.836   5.593 -0.4207 -0.0898 -0.0407
   97MOL0     C13252  10.767  10.955   5.594  0.6694  0.0193  0.4717
   97MOL0     C13253  10.891  10.965   5.536  0.1109  0.6791  0.1293
   97MOL0     C13254  10.953  11.096   5.521  0.7723  0.3220  0.2639
   97MOL0     C13255  10.892  11.208   5.574 -0.4732  0.0649 -0.2003
   97MOL0     O13256  10.949  11.336   5.561  0.0354 -0.1626 -0.2010
   97MOL0     C13257  11.088  11.346   5.580  0.9414 -0.4320  0.0907
   97MOL0     C13258  11.123  11.496   5.574 -0.6661 -0.6855  0.3681
   97MOL0     C13259  11.273  11.510   5.583 -0.1334 -0.0932  0.2139
   97MOL0     C13260  11.331  11.645   5.633  0.3496  0.4326  0.4248
   97MOL0     C13261  11.484  11.626   5.639 -0.1638  0.3517  0.5863
   97MOL0     C13262  11.554  11.591   5.504  0.5473  0.2320 -1.5422
   97MOL0     C13263  11.705  11.590   5.518 -1.0918  0.1562 -0.6762
   97MOL0     C13264  11.760  11.468   5.590  0.3996 -0.1990  0.6936
   97MOL0     N13265  11.749  11.346   5.497 -0.1742 -0.1947  0.1052
   97MOL0     C13266  11.793  11.346   5.366 -0.1523  0.7626 -0.1464
   97MOL0     C13267  11.766  11.216   5.326 -0.0093  0.1374 -0.1922
   97MOL0     C13268  11.803  11.170   5.191  0.2273  0.4644  0.3255
   97MOL0     C13269  11.904  11.056   5.187 -0.3969  0.3878 -0.0153
   97MOL0     C13270  11.957  11.010   5.050  0.5001  0.1718  0.5386
   97MOL0     C13271  12.063  10.905   5.070  0.1471  0.0439  0.4567
   97MOL0     O13272  12.172  10.939   5.159  0.3575 -0.1227  0.5727
   97MOL0     C13273  12.241  11.059   5.142  0.0883 -0.0706 -0.5684
   97MOL0     C13274  12.266  11.119   5.021 -0.3837 -0.5164  0.3942
   97MOL0     C13275  12.347  11.235   5.008 -0.3944 -0.0445  0.2476
   97MOL0     C13276  12.375  11.295   4.872  0.0415 -0.7256  0.0189
   97MOL0     C13277  12.402  11.294   5.124 -0.8251 -0.5755  0.5188
   97MOL0     C13278  12.519  11.389   5.126 -0.4191 -0.7544 -0.6420
   97MOL0     O13279  12.606  11.370   5.233  0.0929 -0.0619  0.3226
   97MOL0     C13280  12.715  11.454   5.252  0.3283 -0.6188  0.1641
   97MOL0     C13281  12.719  11.594   5.225 -0.0730  0.8835  0.3020
   97MOL0     C13282  12.833  11.672   5.240 -0.5676  0.7277  0.4779
   97MOL0     C13283  12.943  11.619   5.305  0.4325  0.4993 -0.0149
   97MOL0     O13284  13.048  11.709   5.312 -0.1161 -0.4910 -0.2472
   97MOL0     C13285  13.174  11.660   5.341 -0.5578  0.6864  0.0706
   97MOL0     C13286  13.281  11.758   5.302  0.0829  0.5520  0.0894
   97MOL0     C13287  13.427  11.699   5.314 -0.6062 -0.3401 -0.1836
   97MOL0     C13288  13.516  11.783   5.237 -0.4789  0.0390 -0.2756
   97MOL0     C13289  13.657  11.731   5.227 -0.3310 -0.3251  0.4824
   97MOL0     C13290  13.769  11.848   5.212  0.1976  0.5066 -0.5029
   97MOL0     C13291  13.899  11.792   5.147  0.0029  0.9305  0.2443
   97MOL0     C13292  13.996  11.909   5.147 -0.1918  0.4587  0.0208
   97MOL0    Cl13293  14.148  11.829   5.086 -0.4964 -0.8404  0.2012
   97MOL0     C13294  12.942  11.490   5.327  0.4910  0.0784 -0.2569
   97MOL0     C13295  12.831  11.404   5.299 -0.0258  0.0645 -0.8394
   97MOL0     O13296  12.531  11.474   5.034  0.1404  0.4894  0.1970
   97MOL0     C13297  12.379  11.223   5.246  0.0665  0.0301 -0.3067
   97MOL0     C13298  12.289  11.116   5.259  0.7224  0.2214  0.3905
   97MOL0     N13299  11.705  11.144   5.431  0.0287 -0.4105 -0.2166
   97MOL0     N13300  11.695  11.225   5.534  0.3482 -0.5156 -0.8125
   97MOL0     C13301  10.775  11.193   5.648  0.6475  0.0913 -0.1773
   97MOL0     C13302  10.710  11.065   5.653  0.4905  0.3296  0.0616
   97MOL0     C13303  10.660  10.611   5.664 -0.0304 -0.0809  0.1644
   97MOL0     C13304  10.521  10.616   5.647 -0.4695 -0.3290  0.1359
   97MOL0     C13305  10.433  10.506   5.638 -0.0426 -0.2667 -0.0092
   97MOL0     C13306  10.489  10.379   5.635 -0.4934  0.8698  0.0233
   97MOL0     O13307  10.398  10.278   5.625  0.1776  0.8363  0.2477
   97MOL0     C13308  10.439  10.162   5.562  0.1383  0.8215  0.5149
   97MOL0     C13309  10.323  10.058   5.551  0.0466 -0.7762 -0.7208
   97MOL0     C13310  10.358   9.947   5.453 -0.4962  0.0772  0.2885
   97MOL0     C13311  10.257   9.835   5.459  0.4134 -0.2627  0.7588
   97MOL0     C13312  10.115   9.877   5.429  0.0672  0.0009  0.2832
   97MOL0     C13313   9.995   9.888   5.394 -0.0506  0.2187  0.2039
   97MOL0     C13314  10.625  10.367   5.654 -0.3837 -0.7410  0.7022
   97MOL0     C13315  10.714  10.478   5.667  0.6103 -0.6550 -0.5844
   97MOL0     C13316  10.870  10.458   5.685  1.1399 -1.0441  0.8709
   97MOL0     H13317  10.951  10.884   5.495  2.2286  2.5912 -0.7096
   97MOL0     H13318  11.054  11.097   5.482  0.6118  2.0518 -0.1538
   97MOL0     H13319  11.137  11.287   5.502 -2.4881 -2.5573 -0.6841
   97MOL0     H13320  11.127  11.290   5.666  2.1157  0.3955  0.1237
   97MOL0     H13321  11.091  11.531   5.475 -0.2650 -1.3614 -0.0116
   97MOL0     H13322  11.083  11.558   5.654 -0.0031  0.1402  0.0777
   97MOL0     H13323  11.307  11.443   5.662 -1.5568  0.3729  1.2612
   97MOL0     H13324  11.318  11.492   5.485  1.7587  0.6434  0.8971
   97MOL0     H13325  11.305  11.729   5.568  0.5243  0.4263  0.3464
   97MOL0     H13326  11.286  11.672   5.729 -1.0406 -1.0454  0.2392
   97MOL0     H13327  11.504  11.544   5.709 -1.0027  0.6789  1.2232
   97MOL0     H13328  11.527  11.719   5.678  1.7679 -0.2408 -0.0170
   97MOL0     H13329  11.530  11.492   5.463  2.0617 -0.7861 -0.0959
   97MOL0     H13330  11.553  11.665   5.424  1.1929 -0.6873 -2.4389
   97MOL0     H13331  11.726  11.673   5.586 -0.4011  0.0825 -0.7976
   97MOL0     H13332  11.763  11.606   5.426  1.0434 -0.6496  0.4671
   97MOL0     H13333  11.864  11.493   5.614  0.9185 -0.5091 -1.0646
   97MOL0     H13334  11.707  11.451   5.684 -0.3504 -0.6634  0.2015
   97MOL0     H13335  11.832  11.425   5.302 -0.9517  0.1851 -1.3862
   97MOL0     H13336  11.834  11.253   5.127 -0.2833  0.9846  0.7464
   97MOL0     H13337  11.716  11.125   5.142  1.8257 -1.8142 -0.5961
   97MOL0     H13338  11.994  11.090   5.240 -0.0834  0.4481 -0.5822
   97MOL0     H13339  11.859  10.968   5.233  0.1844 -0.6469 -1.3630
   97MOL0     H13340  11.870  10.969   5.000  1.5108 -1.4624  0.0356
   97MOL0     H13341  12.004  11.086   4.987 -1.8088 -1.6098 -3.6819
   97MOL0     H13342  12.014  10.813   5.103 -1.5566 -0.1454 -2.2711
   97MOL0     H13343  12.101  10.881   4.970  1.6961 -0.2219  1.0836
   97MOL0     H13344  12.234  11.084   4.923  2.4814  0.4572 -0.9913
   97MOL0     H13345  12.481  11.297   4.845 -0.4459  0.9106 -2.0984
   97MOL0     H13346  12.357  11.403   4.870  2.7774 -0.0041  3.7807
   97MOL0     H13347  12.313  11.248   4.796  1.2408  1.9412 -2.8413
   97MOL0     H13348  12.628  11.637   5.184  1.2190  0.5963 -3.1977
   97MOL0     H13349  12.834  11.771   5.196 -1.3957  0.6730  0.3326
   97MOL0     H13350  13.188  11.638   5.447  1.9348 -2.1387 -0.7062
   97MOL0     H13351  13.197  11.567   5.288 -2.2436  0.7441 -0.8629
   97MOL0     H13352  13.271  11.785   5.196  1.3490 -0.9945 -0.4617
   97MOL0     H13353  13.278  11.845   5.368 -0.7428 -0.9909  2.1855
   97MOL0     H13354  13.430  11.599   5.270 -0.7359 -0.9225  1.0856
   97MOL0     H13355  13.465  11.689   5.416  2.4707  1.6672 -0.9944
   97MOL0     H13356  13.532  11.872   5.299 -0.3073  1.4240 -2.2129
   97MOL0     H13357  13.485  11.808   5.135  0.8110  0.0395 -0.6817
   97MOL0     H13358  13.680  11.663   5.309 -1.9583 -0.2543  1.0418
   97MOL0     H13359  13.649  11.671   5.136  0.3892  0.3557 -0.0428
   97MOL0     H13360  13.791  11.883   5.313 -0.8725  1.7821 -0.6942
   97MOL0     H13361  13.746  11.941   5.161 -0.0253  1.2369  0.8875
   97MOL0     H13362  13.881  11.755   5.046  1.0914  2.0547 -0.3937
   97MOL0     H13363  13.941  11.714   5.211 -0.6150  1.9245  1.9540
   97MOL0     H13364  14.009  11.957   5.245 -3.0482  1.7171 -0.1056
   97MOL0     H13365  13.956  11.983   5.078 -1.0563 -1.4852 -1.6905
   97MOL0     H13366  13.032  11.445   5.367 -0.1121 -2.4311 -1.4547
   97MOL0     H13367  12.834  11.301   5.334 -1.5126  0.5969  1.0291
   97MOL0     H13368  12.430  11.256   5.336  0.3983  0.4806 -0.6554
   97MOL0     H13369  12.279  11.061   5.352 -0.5204 -4.5014 -2.2044
   97MOL0     H13370  10.736  11.286   5.688 -2.8910 -1.5641  0.6291
   97MOL0     H13371  10.615  11.053   5.703  1.1572  1.8254  1.8005
   97MOL0     H13372  10.482  10.717   5.634  3.2172  1.1169 -1.1520
   97MOL0     H13373  10.325  10.507   5.625 -0.1088 -1.0849  0.4047
   97MOL0     H13374  10.483  10.181   5.463  2.0402 -1.4592  0.8280
   97MOL0     H13375  10.517  10.113   5.621  0.8920  0.7524 -0.4994
   97MOL0     H13376  10.226  10.101   5.522 -0.2874 -0.5959  0.5798
   97MOL0     H13377  10.307  10.022   5.653  1.4844  2.4708  0.7702
   97MOL0     H13378  10.358   9.993   5.353  1.2835  1.4679  0.8824
   97MOL0     H13379  10.464   9.924   5.464 -0.1719 -0.1987 -2.5315
   97MOL0     H13380  10.265   9.786   5.556  0.9899 -0.6150  0.5373
   97MOL0     H13381  10.275   9.764   5.378 -3.4776  0.2276 -0.7832
   97MOL0     H13382   9.890   9.893   5.376  0.1476 -1.2179 -1.6148
   97MOL0     H13383  10.667  10.268   5.645  3.0169  0.4008  2.2779
   97MOL0     H13384  10.902  10.354   5.691 -0.1943 -1.4324  1.7795
   97MOL0     H13385  10.920  10.502   5.599 -0.6682  2.0151  1.2233
   97MOL0     H13386  10.900  10.513   5.775 -1.2615  2.1820 -0.0943
   98MOL0     O13387  10.252   0.230   6.414  0.1329 -0.3203  0.1857
   98MOL0     C13388  10.234   0.134   6.341 -0.5368 -0.4417 -0.1498
   98MOL0     O13389  10.330   0.067   6.282 -0.7772  0.4315 -0.0112
   98MOL0     C13390  10.466   0.081   6.310  0.7377 -0.5416 -0.3401
   98MOL0     C13391  10.519  -0.034   6.378  0.4611  0.2097  0.0914
   98MOL0     C13392  10.665  -0.038   6.389 -0.8119 -0.1031 -0.3428
   98MOL0     C13393  10.752   0.068   6.340 -0.4524 -0.5728 -0.2277
   98MOL0     O13394  10.889   0.073   6.355 -0.3799 -0.7140  0.0700
   98MOL0     C13395  10.961   0.016   6.467  0.3069  0.6300 -0.5499
   98MOL0     C13396  11.107   0.050   6.455 -0.3873 -0.2584  0.7237
   98MOL0     C13397  11.193   0.029   6.576  0.5520  0.0448 -0.4110
   98MOL0     C13398  11.324   0.098   6.561 -0.9014 -0.0958  0.0892
   98MOL0     C13399  11.416   0.074   6.682 -0.4055  0.5999  0.7554
   98MOL0     C13400  11.537   0.174   6.674  0.7131  0.1064 -0.2836
   98MOL0     C13401  11.633   0.152   6.792 -0.6465  0.5188 -0.2928
   98MOL0     C13402  11.746   0.255   6.792 -0.4576  0.0375  0.0817
   98MOL0     N13403  11.863   0.225   6.708 -0.2954  0.5832  0.7900
   98MOL0     C13404  11.973   0.305   6.711  0.2776 -0.0358  0.0990
   98MOL0     C13405  12.058   0.257   6.619 -0.7442  0.0812  0.3420
   98MOL0     C13406  12.193   0.285   6.573 -0.0812  1.4998  0.5572
   98MOL0     C13407  12.266   0.392   6.653 -0.6540 -1.0128  0.3018
   98MOL0     C13408  12.402   0.436   6.608 -0.5680 -0.4376 -0.5989
   98MOL0     C13409  12.399   0.495   6.471 -1.0709 -0.1237 -0.1272
   98MOL0     O13410  12.533   0.541   6.433  0.5479 -0.6873 -0.2317
   98MOL0     C13411  12.631   0.447   6.398  0.2108 -0.8705  0.0218
   98MOL0     C13412  12.612   0.317   6.377 -0.4219  0.5749  0.2943
   98MOL0     C13413  12.712   0.220   6.347 -0.2481 -0.3252 -0.1738
   98MOL0     C13414  12.673   0.077   6.340  0.0463  0.8401  0.5263
   98MOL0     C13415  12.847   0.271   6.336  0.5754  0.0491 -0.0100
   98MOL0     C13416  12.964   0.191   6.294 -0.3730 -0.4676  0.4302
   98MOL0     O13417  13.088   0.257   6.284  0.1338  0.0455  0.2373
   98MOL0     C13418  13.203   0.192   6.244  0.9125  0.3215  0.1487
   98MOL0     C13419  13.272   0.250   6.135 -0.1862 -0.3516  0.6752
   98MOL0     C13420  13.373   0.175   6.075 -0.4106  0.2306  0.2734
   98MOL0     C13421  13.410   0.047   6.120 -0.2387 -0.4495 -0.1429
   98MOL0     O13422  13.524  -0.009   6.060  0.7403 -0.7196  0.3818
   98MOL0     C13423  13.582  -0.115   6.130 -0.2020 -0.0870 -0.0205
   98MOL0     C13424  13.698  -0.175   6.067  0.0698 -0.6565 -0.1255
   98MOL0     C13425  13.713  -0.324   6.100  0.4992  0.4746  0.0863
   98MOL0     C13426  13.844  -0.379   6.054 -0.9414 -0.2963 -0.2139
   98MOL0     C13427  13.840  -0.412   5.907 -0.9092  0.3675  0.6173
   98MOL0     C13428  13.981  -0.476   5.870  0.2611  0.4180  0.2208
   98MOL0     C13429  13.980  -0.527   5.728  0.1376  0.7743  0.4148
   98MOL0     C13430  14.068  -0.447   5.625  0.1179 -0.6679 -1.0094
   98MOL0    Cl13431  14.236  -0.483   5.663  0.0855  0.1472  0.5300
   98MOL0     C13432  13.345  -0.000   6.237  0.2103  0.0832  0.4504
   98MOL0     C13433  13.242   0.065   6.294 -0.1222  0.3814  0.6359
   98MOL0     O13434  12.945   0.076   6.251  0.2188 -0.1484  0.2062
   98MOL0     C13435  12.866   0.415   6.358 -0.0515 -0.0121  0.8628
   98MOL0     C13436  12.759   0.498   6.389 -0.3922 -0.3176  0.3417
   98MOL0     N13437  11.989   0.155   6.549 -0.1666 -0.9874 -0.4980
   98MOL0     N13438  11.872   0.131   6.612 -0.7585 -0.7899 -0.1102
   98MOL0     C13439  10.683   0.179   6.284 -0.3366 -0.0203 -0.2092
   98MOL0     C13440  10.545   0.186   6.267  0.3944 -0.0716  0.4328
   98MOL0     C13441  10.093   0.096   6.314  0.5463 -0.2592  0.0771
   98MOL0     C13442  10.066   0.009   6.205  0.1966  0.2822  0.2607
   98MOL0     C13443   9.933  -0.013   6.158  0.0800 -0.1985  0.1444
   98MOL0     C13444   9.823   0.031   6.231  0.0076  0.7190 -1.1767
   98MOL0     O13445   9.697   0.004   6.180 -0.0594  1.1592  0.2776
   98MOL0     C13446   9.612  -0.074   6.276  1.0316  0.6518 -0.6385
   98MOL0     C13447   9.463  -0.067   6.241 -0.8536  0.0305  0.3766
   98MOL0     C13448   9.392   0.073   6.256 -0.7053 -0.0531  0.1479
   98MOL0     C13449   9.240   0.070   6.212  0.6596  0.3925  0.5227
   98MOL0     C13450   9.164  -0.046   6.278 -0.0586 -0.7073 -0.3048
   98MOL0     C13451   9.112  -0.137   6.329  0.1832 -0.4943  0.0436
   98MOL0     C13452   9.842   0.120   6.337 -0.0718 -0.6473  0.2020
   98MOL0     C13453   9.977   0.159   6.378  0.2687 -0.7021  0.0600
   98MOL0     C13454   9.982   0.259   6.487 -0.2863  0.8912 -0.2530
   98MOL0     H13455  10.461  -0.119   6.412  2.3147 -0.3969  1.9786
   98MOL0     H13456  10.709  -0.132   6.419  3.4931  1.0146 -2.3568
   98MOL0     H13457  10.955  -0.093   6.476 -1.5293  0.8406  1.9445
   98MOL0     H13458  10.908   0.054   6.555 -2.3894 -1.1406 -1.2701
   98MOL0     H13459  11.142  -0.025   6.383 -0.7896 -0.7530  1.0418
   98MOL0     H13460  11.123   0.151   6.415  1.3269 -0.5355  0.6464
   98MOL0     H13461  11.139   0.072   6.661 -0.2540  0.9554 -1.3598
   98MOL0     H13462  11.204  -0.078   6.598 -1.6723  0.0665  1.2175
   98MOL0     H13463  11.356   0.055   6.466 -0.9432  0.0333  0.0155
   98MOL0     H13464  11.310   0.207   6.564 -2.4123 -0.2838  1.2383
   98MOL0     H13465  11.456  -0.028   6.686  1.5843  1.3139 -0.0790
   98MOL0     H13466  11.357   0.085   6.774 -2.8132  0.9046 -0.7364
   98MOL0     H13467  11.591   0.160   6.581  1.6244  2.9299 -0.2761
   98MOL0     H13468  11.495   0.275   6.677 -0.2965 -0.3117  0.3053
   98MOL0     H13469  11.674   0.052   6.784 -1.6843  0.0607 -0.0403
   98MOL0     H13470  11.573   0.157   6.883  1.4753 -0.2333  1.2132
   98MOL0     H13471  11.704   0.353   6.766 -3.1756 -1.1451 -0.3135
   98MOL0     H13472  11.791   0.263   6.891  0.4289 -1.1875 -0.2055
   98MOL0     H13473  11.999   0.393   6.769  0.3002  0.0241 -0.0017
   98MOL0     H13474  12.184   0.322   6.471 -1.6697 -1.4736 -0.5164
   98MOL0     H13475  12.256   0.196   6.564 -1.5466  0.6087 -1.7997
   98MOL0     H13476  12.205   0.481   6.671  0.4383 -0.5107  1.6442
   98MOL0     H13477  12.280   0.350   6.753  2.4669 -1.9348 -0.4110
   98MOL0     H13478  12.458   0.508   6.668 -0.1894  0.0906 -1.5659
   98MOL0     H13479  12.465   0.346   6.608 -0.6863 -0.5439  0.8041
   98MOL0     H13480  12.365   0.413   6.408  0.2144 -0.2432 -0.7020
   98MOL0     H13481  12.327   0.577   6.473  1.4106  2.2014  0.5866
   98MOL0     H13482  12.516   0.270   6.394  0.9723 -2.8767 -0.5166
   98MOL0     H13483  12.743   0.016   6.397 -0.3937 -0.6703 -0.4944
   98MOL0     H13484  12.678   0.059   6.233  1.2585  3.5286  0.0497
   98MOL0     H13485  12.579   0.047   6.388 -0.1780 -0.9271 -0.9355
   98MOL0     H13486  13.250   0.350   6.099  0.3618 -0.4461  0.0569
   98MOL0     H13487  13.429   0.218   5.992 -1.7992  1.1342 -0.2327
   98MOL0     H13488  13.607  -0.087   6.233  0.8606 -0.1272 -0.2517
   98MOL0     H13489  13.504  -0.192   6.133 -0.0639 -0.2074  0.7452
   98MOL0     H13490  13.683  -0.173   5.959  1.0883 -3.0544 -0.3776
   98MOL0     H13491  13.791  -0.124   6.092  1.7331 -2.5640 -1.9893
   98MOL0     H13492  13.627  -0.378   6.061 -0.8788  0.4629  2.8648
   98MOL0     H13493  13.715  -0.337   6.209 -2.2689  0.9888  0.2679
   98MOL0     H13494  13.871  -0.469   6.110  2.1176  0.6507  0.0040
   98MOL0     H13495  13.928  -0.314   6.081 -1.0667 -0.3506  0.3197
   98MOL0     H13496  13.754  -0.479   5.895 -1.0634  0.8747 -1.4873
   98MOL0     H13497  13.828  -0.320   5.849 -0.9194 -1.0941 -1.8858
   98MOL0     H13498  14.006  -0.553   5.943  1.0008  0.5185  0.0803
   98MOL0     H13499  14.060  -0.401   5.877  3.3607 -2.6134  0.5935
   98MOL0     H13500  13.877  -0.535   5.691  0.4946 -2.4361 -0.1799
   98MOL0     H13501  14.010  -0.632   5.721 -1.2916  0.3206  0.6930
   98MOL0     H13502  14.039  -0.342   5.639 -1.0133 -1.2266  1.2187
   98MOL0     H13503  14.060  -0.476   5.520  0.9306 -0.7751 -1.0488
   98MOL0     H13504  13.378  -0.093   6.284  1.2278  0.8105  1.2214
   98MOL0     H13505  13.183   0.018   6.372 -1.6857  0.5505 -0.3774
   98MOL0     H13506  12.965   0.458   6.345  1.5507 -3.1796  1.5882
   98MOL0     H13507  12.781   0.605   6.393 -1.9586  0.0560 -0.0892
   98MOL0     H13508  10.743   0.263   6.249 -1.4798  0.5140 -0.9639
   98MOL0     H13509  10.518   0.264   6.196 -0.7913 -1.6048 -0.8776
   98MOL0     H13510  10.134  -0.023   6.127 -2.2413 -0.0322 -1.8392
   98MOL0     H13511   9.921  -0.083   6.076  1.3070 -1.0205  0.6329
   98MOL0     H13512   9.640  -0.180   6.269  1.9196  0.7356  0.9307
   98MOL0     H13513   9.623  -0.043   6.381  2.6073  2.8132 -1.3801
   98MOL0     H13514   9.407  -0.134   6.306  1.3872 -1.6503  0.6671
   98MOL0     H13515   9.442  -0.095   6.138  1.5969 -2.1804  0.3782
   98MOL0     H13516   9.411   0.104   6.359  3.5031 -0.3331 -0.3629
   98MOL0     H13517   9.445   0.144   6.192 -0.6983 -0.9554 -0.8770
   98MOL0     H13518   9.223   0.063   6.104 -2.1224 -0.7892  0.9560
   98MOL0     H13519   9.200   0.166   6.246  1.1229  0.9252 -0.3919
   98MOL0     H13520   9.051  -0.203   6.388  0.4333  1.4148  2.5619
   98MOL0     H13521   9.760   0.179   6.376  0.4078  0.4219 -0.3527
   98MOL0     H13522   9.885   0.306   6.504  0.2240  1.4854  1.1164
   98MOL0     H13523  10.030   0.214   6.574  0.2156  1.1123 -0.4094
   98MOL0     H13524  10.037   0.349   6.459 -1.4876  2.0191  0.8811
   99MOL0     O13525   8.392   1.672   5.712  0.0304 -0.3720  0.2503
   99MOL0     C13526   8.304   1.717   5.645  0.1802  0.5315  0.3969
   99MOL0     O13527   8.315   1.793   5.528 -1.0484 -0.1663  0.1212
   99MOL0     C13528   8.444   1.828   5.487  0.0324 -0.7450 -0.5271
   99MOL0     C13529   8.544   1.736   5.469 -0.1853  0.1411 -0.2906
   99MOL0     C13530   8.673   1.790   5.425 -0.4350  0.0332  0.3811
   99MOL0     C13531   8.689   1.922   5.392  0.6694 -0.1364  0.0005
   99MOL0     O13532   8.803   1.980   5.336  0.1120 -0.1192  0.4263
   99MOL0     C13533   8.928   1.905   5.365  0.8261 -0.1540  0.0210
   99MOL0     C13534   9.044   1.983   5.307 -0.1453  0.2688 -0.3102
   99MOL0     C13535   9.189   1.914   5.333  0.8583  0.0424  1.2234
   99MOL0     C13536   9.283   2.033   5.365 -0.6494  0.7188 -0.2773
   99MOL0     C13537   9.419   1.992   5.417  0.4035 -0.1839 -0.2663
   99MOL0     C13538   9.517   1.923   5.322 -0.8550  0.5837  1.0577
   99MOL0     C13539   9.646   1.903   5.397  0.8390  0.2381  0.0483
   99MOL0     C13540   9.718   1.790   5.319  0.6312  0.0985  0.0241
   99MOL0     N13541   9.840   1.748   5.394  0.8304 -0.1013 -0.1903
   99MOL0     C13542   9.857   1.619   5.431 -0.4958  0.0464  0.3944
   99MOL0     C13543   9.978   1.623   5.496  1.4369  0.5945 -0.1142
   99MOL0     C13544  10.052   1.501   5.552  0.2024 -0.4579  0.8200
   99MOL0     C13545  10.093   1.503   5.706  0.0175 -0.3564 -0.1431
   99MOL0     C13546   9.971   1.477   5.794 -0.0059  0.3104  0.1739
   99MOL0     C13547  10.011   1.490   5.949  0.1936  0.2217  0.8396
   99MOL0     O13548   9.905   1.499   6.038  0.0501 -0.3773 -1.0820
   99MOL0     C13549   9.823   1.388   6.065  0.2423 -0.7238 -0.5450
   99MOL0     C13550   9.696   1.407   6.114  0.1753  0.1548 -0.6361
   99MOL0     C13551   9.602   1.302   6.118  1.0176 -0.3224  0.0871
   99MOL0     C13552   9.465   1.341   6.149  0.1508  0.3627 -0.2846
   99MOL0     C13553   9.639   1.169   6.081  0.1961 -0.8387  0.1080
   99MOL0     C13554   9.535   1.056   6.085  1.0595 -0.6435 -0.1461
   99MOL0     O13555   9.425   1.066   6.164 -0.3822 -0.0217 -0.1489
   99MOL0     C13556   9.332   0.968   6.201  0.0492  1.0900  0.1730
   99MOL0     C13557   9.346   0.829   6.188  0.1535 -0.0076 -0.9085
   99MOL0     C13558   9.243   0.749   6.240 -0.1299  0.8968 -0.6667
   99MOL0     C13559   9.122   0.803   6.286  0.4852  1.1625  0.6808
   99MOL0     O13560   9.017   0.723   6.331 -0.3391 -0.1696 -0.5385
   99MOL0     C13561   9.022   0.577   6.321 -0.0351  0.0640 -0.8630
   99MOL0     C13562   8.919   0.513   6.418 -0.3976  0.4736 -0.7409
   99MOL0     C13563   8.925   0.361   6.415  0.3834 -0.0732  0.5271
   99MOL0     C13564   8.793   0.309   6.447  0.4378  0.1141 -1.1161
   99MOL0     C13565   8.785   0.160   6.482 -0.3142 -0.4744 -0.0255
   99MOL0     C13566   8.810   0.067   6.364 -0.4174 -0.1325 -0.4482
   99MOL0     C13567   8.718   0.075   6.245  0.8845  0.7593 -0.3303
   99MOL0     C13568   8.570   0.052   6.275  0.0241 -0.4402 -0.9947
   99MOL0    Cl13569   8.504  -0.059   6.164 -0.1254  0.1838  0.1000
   99MOL0     C13570   9.112   0.932   6.308  0.4836 -0.1547  0.3018
   99MOL0     C13571   9.214   1.023   6.261  0.6689  0.9729  0.4260
   99MOL0     O13572   9.566   0.955   6.021 -0.0472 -1.0997 -0.1870
   99MOL0     C13573   9.767   1.148   6.046 -0.3995  0.3947  0.2638
   99MOL0     C13574   9.860   1.254   6.036  0.6101 -0.0561  0.0884
   99MOL0     N13575  10.030   1.751   5.488 -0.6190  0.3385 -0.0302
   99MOL0     N13576   9.942   1.828   5.436 -0.9665 -0.1785 -0.1978
   99MOL0     C13577   8.584   2.014   5.415 -0.2728 -0.1784  0.0560
   99MOL0     C13578   8.460   1.965   5.466 -0.0764  0.1843 -0.3823
   99MOL0     C13579   8.165   1.669   5.672 -0.1097 -0.9052 -0.1350
   99MOL0     C13580   8.069   1.687   5.566 -0.0081 -0.4606  0.1822
   99MOL0     C13581   7.941   1.637   5.580 -0.8569  0.6385 -0.0037
   99MOL0     C13582   7.891   1.577   5.707 -0.1071 -0.3566  0.4017
   99MOL0     O13583   7.780   1.508   5.736  0.9808  0.2340 -0.2212
   99MOL0     C13584   7.683   1.485   5.637 -0.1097  0.2584  0.4413
   99MOL0     C13585   7.562   1.398   5.679  0.8450 -0.0072  0.2586
   99MOL0     C13586   7.499   1.458   5.810  1.0021  0.0194 -1.0807
   99MOL0     C13587   7.348   1.405   5.814  0.3018 -0.4136  0.3901
   99MOL0     C13588   7.285   1.456   5.932 -0.1956  0.2874 -0.3331
   99MOL0     C13589   7.274   1.499   6.044 -0.9082  0.5711  0.0762
   99MOL0     C13590   7.980   1.575   5.811 -0.9131 -0.4276  0.2457
   99MOL0     C13591   8.118   1.612   5.793  0.1439 -0.4787  0.0882
   99MOL0     C13592   8.205   1.576   5.911  0.0020 -0.6245  0.1738
   99MOL0     H13593   8.540   1.631   5.496  4.2390 -0.3707 -0.8010
   99MOL0     H13594   8.753   1.717   5.419 -0.3248  0.1485  0.4582
   99MOL0     H13595   8.918   1.807   5.318 -0.7412 -0.2365  0.4832
   99MOL0     H13596   8.952   1.882   5.470  0.6886 -0.8032 -0.0844
   99MOL0     H13597   9.039   1.985   5.197  3.0176  0.6592 -0.5447
   99MOL0     H13598   9.044   2.085   5.347 -0.3481 -0.0434  0.4996
   99MOL0     H13599   9.189   1.835   5.409 -0.6832 -2.8134 -1.5125
   99MOL0     H13600   9.213   1.855   5.244 -0.4814 -1.0812  1.5747
   99MOL0     H13601   9.301   2.096   5.278  1.1602  1.5553  0.6481
   99MOL0     H13602   9.234   2.094   5.441 -0.6060 -2.7985  2.8607
   99MOL0     H13603   9.402   1.917   5.495 -0.2305  0.6874  0.4456
   99MOL0     H13604   9.467   2.072   5.472 -0.6200 -0.6335  1.3553
   99MOL0     H13605   9.473   1.828   5.290  0.4138 -0.3913  2.1062
   99MOL0     H13606   9.521   1.975   5.226 -1.4093 -1.4796 -0.1448
   99MOL0     H13607   9.625   1.868   5.498 -1.0236 -0.7452 -0.6176
   99MOL0     H13608   9.700   1.998   5.401 -0.9786  1.3724 -0.6917
   99MOL0     H13609   9.644   1.710   5.305 -1.5620  1.7947  1.2617
   99MOL0     H13610   9.739   1.832   5.220 -0.7482  1.1415  0.1362
   99MOL0     H13611   9.793   1.535   5.407 -2.5259  2.1379 -2.0365
   99MOL0     H13612  10.147   1.504   5.498 -0.5701  1.7056 -0.5547
   99MOL0     H13613  10.003   1.404   5.539  0.5690 -0.3692 -1.6898
   99MOL0     H13614  10.178   1.439   5.729  1.2497  0.8385 -1.2335
   99MOL0     H13615  10.126   1.603   5.734  0.7239 -0.5886 -0.1339
   99MOL0     H13616   9.895   1.553   5.774 -0.1821 -0.0047 -0.3948
   99MOL0     H13617   9.927   1.378   5.776  0.8484 -0.4203  1.8003
   99MOL0     H13618  10.083   1.412   5.974  2.5205  1.3105 -1.8537
   99MOL0     H13619  10.075   1.578   5.959  0.9286 -0.1942  0.0115
   99MOL0     H13620   9.665   1.507   6.143  2.3908 -0.0973  3.2860
   99MOL0     H13621   9.445   1.296   6.247  0.3240  0.8966 -0.0028
   99MOL0     H13622   9.386   1.299   6.086 -1.3533  1.3055  0.8949
   99MOL0     H13623   9.447   1.449   6.153  0.5237  0.4093  0.1498
   99MOL0     H13624   9.435   0.778   6.152  0.0716 -0.7965 -0.0353
   99MOL0     H13625   9.259   0.643   6.223  0.4776  1.2969 -2.9774
   99MOL0     H13626   9.007   0.553   6.215  1.5881 -0.4939 -0.9978
   99MOL0     H13627   9.120   0.532   6.340  0.4352  1.0118 -1.0097
   99MOL0     H13628   8.953   0.543   6.518  2.3912  0.6045 -1.6491
   99MOL0     H13629   8.817   0.549   6.403  0.3299  3.0159 -0.0984
   99MOL0     H13630   8.995   0.323   6.490 -2.6713  0.9134  4.2118
   99MOL0     H13631   8.939   0.327   6.312  0.7315 -1.2963  0.9607
   99MOL0     H13632   8.723   0.325   6.365  1.1140 -0.5156 -1.8293
   99MOL0     H13633   8.755   0.364   6.533  1.3549 -2.6614  1.2484
   99MOL0     H13634   8.852   0.142   6.566  0.1294  2.3115  0.3097
   99MOL0     H13635   8.684   0.138   6.518 -0.7244 -0.0366 -0.8687
   99MOL0     H13636   8.802  -0.032   6.409 -1.0961 -0.2064 -0.7157
   99MOL0     H13637   8.905   0.093   6.317 -0.5802  0.4642 -0.4603
   99MOL0     H13638   8.741  -0.005   6.175  0.1287 -0.0879  0.3542
   99MOL0     H13639   8.729   0.169   6.190 -0.8882  0.3701 -1.4234
   99MOL0     H13640   8.522   0.150   6.273 -1.0662 -0.9019  0.7596
   99MOL0     H13641   8.555   0.006   6.373  0.9856 -0.7126 -0.9612
   99MOL0     H13642   9.017   0.968   6.344 -0.3845 -1.2712 -0.7805
   99MOL0     H13643   9.186   1.128   6.261  1.2277  1.1884 -1.8914
   99MOL0     H13644   9.792   1.048   6.011 -2.6715 -0.9414  2.1482
   99MOL0     H13645   9.956   1.237   5.989  0.0078 -2.0544 -0.5146
   99MOL0     H13646   8.608   2.116   5.387  3.2354 -0.8060  0.3535
   99MOL0     H13647   8.382   2.039   5.481 -0.5231 -0.6699  2.1008
   99MOL0     H13648   8.101   1.735   5.474 -2.0478  0.2531 -0.1925
   99MOL0     H13649   7.865   1.648   5.503 -3.4343 -1.3840  2.0517
   99MOL0     H13650   7.642   1.578   5.597 -0.1440  0.5327  1.0976
   99MOL0     H13651   7.730   1.438   5.551 -1.5097  1.2783 -0.9355
   99MOL0     H13652   7.608   1.299   5.685  0.4593 -0.1420  1.1316
   99MOL0     H13653   7.487   1.393   5.599  0.9573 -1.3014  0.2117
   99MOL0     H13654   7.558   1.421   5.894  2.4647  2.3251 -1.0092
   99MOL0     H13655   7.504   1.567   5.807 -2.3345  0.3553  0.8226
   99MOL0     H13656   7.339   1.297   5.807 -0.4618 -0.4083  1.0770
   99MOL0     H13657   7.300   1.441   5.722  1.1018 -1.1353 -0.3157
   99MOL0     H13658   7.260   1.530   6.146  0.5374 -1.6500  1.0333
   99MOL0     H13659   7.956   1.534   5.909 -1.0504 -0.8238  0.0508
   99MOL0     H13660   8.273   1.655   5.944  0.6414 -1.5733  1.1984
   99MOL0     H13661   8.147   1.552   6.000  1.5499 -1.5062  0.9867
   99MOL0     H13662   8.267   1.486   5.902  0.0797 -0.9616  3.1198
  100MOL0     O13663   1.179   4.416   8.360 -0.3034 -0.2087 -0.1219
  100MOL0     C13664   1.089   4.481   8.313  0.0725  0.1627  0.0175
  100MOL0     O13665   1.100   4.540   8.191 -0.0338  0.4041  0.3119
  100MOL0     C13666   1.222   4.556   8.133  0.2373 -0.5293 -0.0115
  100MOL0     C13667   1.331   4.609   8.203  0.1753  0.7098  0.1618
  100MOL0     C13668   1.453   4.617   8.146 -0.5715  1.1566  0.0129
  100MOL0     C13669   1.472   4.580   8.007  0.2902  0.5795  0.3216
  100MOL0     O13670   1.600   4.583   7.956  0.6311  0.8239 -0.5622
  100MOL0     C13671   1.628   4.511   7.840 -0.5924  1.0912  0.3818
  100MOL0     C13672   1.782   4.509   7.817 -0.6578  0.2250  0.3709
  100MOL0     C13673   1.846   4.426   7.918 -0.3974 -0.5938 -0.3616
  100MOL0     C13674   2.005   4.446   7.918  0.1526 -0.1647  0.5413
  100MOL0     C13675   2.090   4.381   8.028  0.1358  0.6646  0.3078
  100MOL0     C13676   2.092   4.229   8.021  0.0773  0.4919  0.7916
  100MOL0     C13677   2.116   4.163   7.886 -0.5434  0.3668  0.7367
  100MOL0     C13678   2.251   4.219   7.837  0.2269 -0.2094  0.0782
  100MOL0     N13679   2.366   4.176   7.916  0.3142 -0.0281  0.9321
  100MOL0     C13680   2.398   4.047   7.947  0.5812  1.1565  0.2502
  100MOL0     C13681   2.520   4.047   8.005 -0.4364 -0.3956 -0.2579
  100MOL0     C13682   2.594   3.929   8.072 -0.0095 -0.5615 -1.0747
  100MOL0     C13683   2.744   3.915   8.051  0.0379  0.1252  0.3906
  100MOL0     C13684   2.792   3.926   7.904 -0.1022 -0.0406  0.2608
  100MOL0     C13685   2.939   3.886   7.875 -0.4367  0.2182  0.1214
  100MOL0     O13686   3.019   3.953   7.972 -0.4266  0.2477 -0.6182
  100MOL0     C13687   3.155   3.926   7.963 -0.7633  0.0691 -0.2207
  100MOL0     C13688   3.218   3.885   7.848 -0.4232 -0.1922  0.8822
  100MOL0     C13689   3.351   3.848   7.846  0.3124 -0.3184 -0.2270
  100MOL0     C13690   3.417   3.819   7.709  0.0517  0.8907 -0.5652
  100MOL0     C13691   3.427   3.858   7.967  0.7908  0.1957 -0.3707
  100MOL0     C13692   3.572   3.819   7.959  0.1195  0.6152 -0.2703
  100MOL0     O13693   3.615   3.712   7.878  0.3810 -0.2352 -0.1659
  100MOL0     C13694   3.747   3.688   7.884 -0.4033  0.2566  0.1212
  100MOL0     C13695   3.803   3.579   7.953 -0.4883  0.1764 -0.4556
  100MOL0     C13696   3.935   3.548   7.945 -0.4137  0.4077  0.0827
  100MOL0     C13697   4.027   3.630   7.879  0.3852  0.0731 -0.2921
  100MOL0     O13698   4.160   3.593   7.888  0.1051 -0.6931 -0.2260
  100MOL0     C13699   4.263   3.683   7.829  0.1192 -0.2387  0.7354
  100MOL0     C13700   4.395   3.610   7.842 -1.0941 -0.1264 -0.2881
  100MOL0     C13701   4.522   3.677   7.793 -0.3229 -0.8219 -0.7970
  100MOL0     C13702   4.643   3.584   7.818  0.1047 -0.0137 -0.2165
  100MOL0     C13703   4.782   3.638   7.778  0.9214  0.2362 -1.7947
  100MOL0     C13704   4.899   3.553   7.829 -1.2425 -0.2939 -0.5912
  100MOL0     C13705   5.024   3.576   7.742  0.5285 -0.9772  0.1480
  100MOL0     C13706   5.146   3.493   7.786  1.3988  0.3989  0.4334
  100MOL0    Cl13707   5.247   3.447   7.640 -0.1222 -0.2218  0.3064
  100MOL0     C13708   3.971   3.743   7.806  0.3392 -0.5899  0.4502
  100MOL0     C13709   3.833   3.767   7.811 -1.0518 -0.7797 -0.2933
  100MOL0     O13710   3.648   3.887   8.029 -0.4946  0.2262 -0.8734
  100MOL0     C13711   3.359   3.876   8.090 -0.3728 -0.3705  0.2265
  100MOL0     C13712   3.227   3.921   8.086  0.7606  0.4785  0.1342
  100MOL0     N13713   2.565   4.176   8.000  0.0064  0.4143 -0.2846
  100MOL0     N13714   2.479   4.247   7.944  0.5048 -0.1407  0.0608
  100MOL0     C13715   1.362   4.536   7.932 -0.6168  0.1960 -1.0556
  100MOL0     C13716   1.235   4.530   7.996  0.7101 -0.6801 -0.5427
  100MOL0     C13717   0.943   4.480   8.379 -0.4843  0.0634 -0.4125
  100MOL0     C13718   0.840   4.518   8.306  0.0464 -0.5713 -0.0482
  100MOL0     C13719   0.716   4.543   8.358 -0.8719 -0.0972 -0.4681
  100MOL0     C13720   0.684   4.504   8.483  0.2462  0.2284  0.2282
  100MOL0     O13721   0.554   4.503   8.521 -0.1720  0.1483 -0.0170
  100MOL0     C13722   0.527   4.536   8.655 -0.1929 -0.3621 -1.4511
  100MOL0     C13723   0.499   4.412   8.741 -0.5278  0.0698  1.1418
  100MOL0     C13724   0.418   4.293   8.670  0.9236 -0.0968 -0.1490
  100MOL0     C13725   0.271   4.331   8.637 -0.2003 -0.0766  0.2078
  100MOL0     C13726   0.190   4.224   8.575  0.4357 -0.2457 -0.1379
  100MOL0     C13727   0.128   4.135   8.530 -0.4278 -0.7426  0.4860
  100MOL0     C13728   0.789   4.468   8.570 -1.6827 -0.2412 -0.2689
  100MOL0     C13729   0.919   4.463   8.518  0.3562 -0.0353  0.7687
  100MOL0     C13730   1.031   4.440   8.613  0.2224  0.1357  0.1561
  100MOL0     H13731   1.334   4.618   8.311  1.0933  0.5915  0.1511
  100MOL0     H13732   1.541   4.638   8.206  1.6255 -1.4330 -2.0635
  100MOL0     H13733   1.582   4.554   7.751 -0.7102  0.3034  0.0525
  100MOL0     H13734   1.586   4.410   7.846 -1.4025  1.4681  1.2514
  100MOL0     H13735   1.813   4.455   7.727  5.1867 -2.4010  3.3628
  100MOL0     H13736   1.826   4.609   7.818  1.0044 -0.4625  1.5742
  100MOL0     H13737   1.815   4.460   8.018  0.7248 -1.3024  0.2526
  100MOL0     H13738   1.815   4.322   7.905 -0.2067 -0.4735 -1.8774
  100MOL0     H13739   2.043   4.425   7.817 -1.9925  0.8574 -0.5581
  100MOL0     H13740   2.017   4.554   7.929  2.2063 -0.4704  1.7833
  100MOL0     H13741   2.051   4.407   8.126 -3.5941 -1.3728 -0.4684
  100MOL0     H13742   2.191   4.423   8.017  2.0345 -3.2140  1.0908
  100MOL0     H13743   2.157   4.184   8.097 -1.0025  0.4569  1.7276
  100MOL0     H13744   1.998   4.183   8.054  1.1841 -3.0815 -0.6469
  100MOL0     H13745   2.038   4.176   7.810  0.8014  0.2430 -0.7087
  100MOL0     H13746   2.138   4.059   7.913  3.0486  1.2604  1.7536
  100MOL0     H13747   2.267   4.175   7.738  0.1040  2.1946 -1.0758
  100MOL0     H13748   2.252   4.323   7.805 -1.9567 -0.9926 -3.0037
  100MOL0     H13749   2.340   3.957   7.928  1.5711  0.6783 -0.6402
  100MOL0     H13750   2.545   3.832   8.058 -0.4005 -0.5416 -0.0054
  100MOL0     H13751   2.588   3.953   8.179  0.2855  0.5923 -1.3017
  100MOL0     H13752   2.781   4.001   8.109 -0.2895 -0.1331  0.9847
  100MOL0     H13753   2.780   3.819   8.087 -2.4140 -2.1289 -2.6742
  100MOL0     H13754   2.734   3.856   7.843 -0.1576 -0.5164  0.8564
  100MOL0     H13755   2.769   4.027   7.866  0.1603 -0.9399 -2.5466
  100MOL0     H13756   2.936   3.777   7.885  1.5443  0.2704  2.0664
  100MOL0     H13757   2.960   3.915   7.772 -0.8640  1.4279  0.3515
  100MOL0     H13758   3.170   3.892   7.751  1.2785  1.1866  0.0913
  100MOL0     H13759   3.355   3.853   7.626 -0.9582 -2.1276 -1.1615
  100MOL0     H13760   3.435   3.714   7.686 -0.7659  0.0326  2.3028
  100MOL0     H13761   3.513   3.871   7.718  0.4504  0.0003  0.5645
  100MOL0     H13762   3.747   3.508   8.013 -0.5598  0.4585 -0.1813
  100MOL0     H13763   3.974   3.455   7.986 -0.4008  0.7294  0.8110
  100MOL0     H13764   4.242   3.692   7.722  1.9442 -0.8208  0.2955
  100MOL0     H13765   4.268   3.781   7.878  1.6753 -1.3143  2.8585
  100MOL0     H13766   4.405   3.590   7.949  2.2993  1.2931 -0.2085
  100MOL0     H13767   4.391   3.521   7.778 -0.8498  1.3200 -2.4202
  100MOL0     H13768   4.541   3.775   7.837  4.2111 -1.6074 -0.5004
  100MOL0     H13769   4.510   3.693   7.685 -1.4665  0.3188 -0.5324
  100MOL0     H13770   4.621   3.487   7.772  1.5181  1.0415 -3.4462
  100MOL0     H13771   4.662   3.559   7.922  1.6382 -3.2568 -1.1228
  100MOL0     H13772   4.788   3.655   7.670  2.0689 -2.1012 -2.1747
  100MOL0     H13773   4.789   3.732   7.833 -1.9995  0.5594 -1.8528
  100MOL0     H13774   4.869   3.449   7.820  1.0865 -1.2531  1.4781
  100MOL0     H13775   4.930   3.559   7.934 -0.0005 -0.9716 -0.8929
  100MOL0     H13776   5.060   3.679   7.750 -1.7663 -0.1589  0.6223
  100MOL0     H13777   4.996   3.550   7.640  0.6477 -0.4151 -0.0296
  100MOL0     H13778   5.115   3.405   7.844  1.6919  0.3490  0.5168
  100MOL0     H13779   5.207   3.554   7.853  4.6277 -3.2489  1.1787
  100MOL0     H13780   4.033   3.806   7.743  0.0110 -0.5095  0.2030
  100MOL0     H13781   3.793   3.850   7.754  0.2270  1.3007  1.6873
  100MOL0     H13782   3.407   3.849   8.183 -0.2133 -2.1523 -0.3366
  100MOL0     H13783   3.173   3.939   8.178  0.7103  0.5521  0.0896
  100MOL0     H13784   1.362   4.495   7.831  1.4674 -0.0809 -0.9984
  100MOL0     H13785   1.147   4.500   7.941  1.1683  2.7869 -3.5023
  100MOL0     H13786   0.851   4.531   8.199 -3.6236 -2.1970 -0.7476
  100MOL0     H13787   0.641   4.585   8.291 -1.5363  1.6872  1.3041
  100MOL0     H13788   0.603   4.597   8.705 -0.6924  0.7116 -1.9512
  100MOL0     H13789   0.436   4.596   8.666 -0.5955 -1.3166  1.1027
  100MOL0     H13790   0.450   4.443   8.834 -1.6071  0.2457  0.5273
  100MOL0     H13791   0.586   4.363   8.785 -0.2256  1.0255  1.6520
  100MOL0     H13792   0.471   4.258   8.581 -0.9842 -1.1553 -0.9238
  100MOL0     H13793   0.404   4.205   8.734 -1.3842 -1.6351 -2.5681
  100MOL0     H13794   0.282   4.413   8.566 -1.2864 -0.2561 -0.1854
  100MOL0     H13795   0.228   4.357   8.735  2.4133  4.1698  0.4806
  100MOL0     H13796   0.064   4.060   8.489  1.1037 -1.8260 -0.0140
  100MOL0     H13797   0.772   4.445   8.675 -2.9237 -2.2870 -0.8466
  100MOL0     H13798   1.046   4.332   8.618  2.2878  0.3547 -0.3923
  100MOL0     H13799   1.124   4.492   8.587  0.9667 -1.3023 -0.1736
  100MOL0     H13800   0.994   4.469   8.712 -1.0291  0.1880 -0.3042
  101MOL0     O13801   4.926   8.628   6.960 -0.1439 -0.0558 -0.5159
  101MOL0     C13802   4.817   8.599   6.903  0.4272  0.8017  0.9068
  101MOL0     O13803   4.810   8.521   6.791  0.6165 -0.1407 -0.4246
  101MOL0     C13804   4.913   8.502   6.700 -0.7310  0.5721  0.1235
  101MOL0     C13805   5.023   8.590   6.678  0.4392 -0.2989 -0.2249
  101MOL0     C13806   5.127   8.553   6.598 -0.4449  0.5782  0.1816
  101MOL0     C13807   5.134   8.419   6.548  0.2990  0.6343 -0.5204
  101MOL0     O13808   5.246   8.365   6.487  0.6483  0.4234 -0.1962
  101MOL0     C13809   5.295   8.434   6.375  0.0810 -0.0969  0.0959
  101MOL0     C13810   5.420   8.361   6.324  1.1824  0.2052  0.4538
  101MOL0     C13811   5.522   8.338   6.436  0.5620 -0.3809  0.5403
  101MOL0     C13812   5.653   8.287   6.371  0.0012  0.5711  0.1627
  101MOL0     C13813   5.772   8.276   6.461 -0.4175  1.1252 -0.3270
  101MOL0     C13814   5.774   8.144   6.539 -0.0169  0.5054 -0.2639
  101MOL0     C13815   5.855   8.164   6.671 -0.4355  0.7705 -0.1516
  101MOL0     C13816   6.006   8.171   6.646  0.6699 -0.2227 -0.7020
  101MOL0     N13817   6.080   8.218   6.759 -0.4230 -0.4899 -0.0925
  101MOL0     C13818   6.079   8.152   6.877 -0.2641  0.1238 -0.0082
  101MOL0     C13819   6.160   8.222   6.955  0.1861  0.5878 -0.6043
  101MOL0     C13820   6.206   8.186   7.092  0.2740  0.7424 -0.1111
  101MOL0     C13821   6.358   8.176   7.113  0.3664 -0.5368  0.4693
  101MOL0     C13822   6.377   8.132   7.256  1.3496 -0.0944  0.1186
  101MOL0     C13823   6.524   8.146   7.304  0.1115 -0.4630 -0.1193
  101MOL0     O13824   6.614   8.068   7.219  0.4586  0.8182  0.0154
  101MOL0     C13825   6.739   8.056   7.250 -0.7142  1.4725 -0.5852
  101MOL0     C13826   6.808   7.956   7.173 -0.2413  1.2191 -0.7233
  101MOL0     C13827   6.946   7.938   7.185 -0.6725  0.8174  0.1797
  101MOL0     C13828   7.014   7.838   7.095 -0.5473  0.3628 -0.1373
  101MOL0     C13829   7.018   8.008   7.287  0.6295  0.2063  0.2638
  101MOL0     C13830   7.158   7.977   7.332 -0.7228 -0.3325  0.2169
  101MOL0     O13831   7.215   8.067   7.411  0.1419 -1.0510 -0.3832
  101MOL0     C13832   7.336   8.047   7.465  0.0032  0.5978 -0.1439
  101MOL0     C13833   7.356   7.988   7.585 -0.5394 -0.3639 -0.6231
  101MOL0     C13834   7.481   7.964   7.637 -1.4898 -0.8516  0.0250
  101MOL0     C13835   7.605   7.992   7.568 -0.7702 -0.1257  0.1675
  101MOL0     O13836   7.734   7.978   7.612 -0.2299 -0.2753 -0.3431
  101MOL0     C13837   7.758   7.979   7.754 -0.2031  0.1762  0.8215
  101MOL0     C13838   7.908   7.996   7.761 -0.6238  0.5091  0.5481
  101MOL0     C13839   7.964   8.132   7.702 -0.8485 -0.4285  0.2558
  101MOL0     C13840   8.111   8.146   7.731 -0.6429 -0.1482  0.2685
  101MOL0     C13841   8.177   8.271   7.663  0.2722 -0.3962 -0.2079
  101MOL0     C13842   8.128   8.396   7.724 -1.0504  0.1292 -0.6845
  101MOL0     C13843   8.191   8.529   7.684  0.2281  0.3238 -0.2368
  101MOL0     C13844   8.106   8.652   7.744 -0.2584  1.0019 -0.8983
  101MOL0    Cl13845   7.939   8.649   7.689 -0.2571 -0.1350  0.1967
  101MOL0     C13846   7.582   8.048   7.440 -0.5316 -0.5433 -0.0159
  101MOL0     C13847   7.453   8.079   7.395 -0.2300 -0.4421  0.2206
  101MOL0     O13848   7.218   7.874   7.289 -0.2090  0.2968 -0.3458
  101MOL0     C13849   6.948   8.105   7.366 -0.3512 -0.3284 -0.0549
  101MOL0     C13850   6.806   8.130   7.346  0.1627 -0.0925  0.8236
  101MOL0     N13851   6.201   8.340   6.890  0.4753 -0.2048  0.5008
  101MOL0     N13852   6.146   8.339   6.770 -0.1404 -0.4584  0.0989
  101MOL0     C13853   5.026   8.336   6.556 -0.3912  0.0495 -0.5833
  101MOL0     C13854   4.919   8.382   6.630  0.7699  0.0497 -0.6056
  101MOL0     C13855   4.682   8.604   6.979 -1.2299  0.0259 -0.8137
  101MOL0     C13856   4.571   8.546   6.929  0.2858 -0.0623 -0.2063
  101MOL0     C13857   4.447   8.549   7.002 -0.4520 -0.2096 -0.0011
  101MOL0     C13858   4.436   8.598   7.123  0.7249  0.6825 -0.4613
  101MOL0     O13859   4.322   8.610   7.198  0.8470  0.6800 -0.3831
  101MOL0     C13860   4.222   8.511   7.185  0.9955  0.2424  0.1095
  101MOL0     C13861   4.105   8.540   7.274  0.1798 -0.5517 -0.1384
  101MOL0     C13862   4.130   8.501   7.423  0.1900 -0.2090 -0.1924
  101MOL0     C13863   4.150   8.349   7.471  0.1544 -0.5067  0.4880
  101MOL0     C13864   4.253   8.333   7.570 -0.7492  0.0786  0.1059
  101MOL0     C13865   4.326   8.308   7.666 -0.3804 -0.9133  0.0338
  101MOL0     C13866   4.549   8.661   7.175 -0.2294  0.5829 -0.5512
  101MOL0     C13867   4.671   8.665   7.106  0.7118  0.1184  0.3929
  101MOL0     C13868   4.782   8.732   7.183  0.1236  0.3710 -0.4497
  101MOL0     H13869   5.024   8.684   6.732  2.6702 -0.3403 -0.1055
  101MOL0     H13870   5.214   8.617   6.584  1.5930 -1.1752  3.5025
  101MOL0     H13871   5.312   8.541   6.391  1.2547 -0.1403 -0.7707
  101MOL0     H13872   5.220   8.417   6.297 -0.1476 -1.8029  0.6296
  101MOL0     H13873   5.378   8.271   6.278  0.3628  0.5098  0.5792
  101MOL0     H13874   5.459   8.417   6.239 -0.8617  0.0893 -0.6374
  101MOL0     H13875   5.529   8.435   6.487 -0.3791 -0.2696  0.4709
  101MOL0     H13876   5.490   8.261   6.507 -1.9185 -0.3384 -0.4532
  101MOL0     H13877   5.635   8.191   6.322 -1.6693  0.3907  1.0763
  101MOL0     H13878   5.684   8.365   6.301 -0.2592  0.7318  0.2251
  101MOL0     H13879   5.773   8.360   6.531  5.4194  0.3661  1.0557
  101MOL0     H13880   5.869   8.279   6.410  0.0018 -2.0652  0.0381
  101MOL0     H13881   5.675   8.103   6.562  0.8500 -1.7830 -0.3766
  101MOL0     H13882   5.820   8.067   6.476  2.8714  2.7163 -1.0907
  101MOL0     H13883   5.844   8.073   6.731  2.8307 -0.4328 -1.1503
  101MOL0     H13884   5.818   8.248   6.730 -1.6322 -0.3066  0.6625
  101MOL0     H13885   6.051   8.075   6.617 -1.6927 -1.5832 -0.1144
  101MOL0     H13886   6.013   8.248   6.569 -1.5915  1.1178  0.3366
  101MOL0     H13887   6.023   8.063   6.903  1.5183 -1.1097 -0.2677
  101MOL0     H13888   6.153   8.094   7.119 -0.4878  1.0452 -0.5551
  101MOL0     H13889   6.164   8.259   7.161 -2.5494  0.6231 -1.5941
  101MOL0     H13890   6.408   8.104   7.048 -1.1194 -1.4873  0.3555
  101MOL0     H13891   6.396   8.275   7.086 -1.8410 -0.1515 -1.4944
  101MOL0     H13892   6.315   8.193   7.323  1.0970  1.1842 -1.2392
  101MOL0     H13893   6.346   8.027   7.265 -2.3613  0.6704 -1.7564
  101MOL0     H13894   6.561   8.249   7.299  0.2921 -0.5606 -1.0330
  101MOL0     H13895   6.530   8.124   7.411  0.3595 -1.6104 -0.3545
  101MOL0     H13896   6.754   7.889   7.107  0.6334 -1.8529  1.4814
  101MOL0     H13897   7.026   7.752   7.161 -1.8741  0.9365  0.8939
  101MOL0     H13898   7.110   7.879   7.062 -1.6744  2.7222 -0.6904
  101MOL0     H13899   6.947   7.811   7.013 -2.5500  1.4152  1.1007
  101MOL0     H13900   7.267   7.963   7.642 -1.2214 -0.0128 -1.4989
  101MOL0     H13901   7.498   7.916   7.733 -0.2033  0.8840  0.7272
  101MOL0     H13902   7.707   8.067   7.794 -1.8105 -1.2254  2.0102
  101MOL0     H13903   7.728   7.890   7.810  1.6154 -1.0728 -0.0585
  101MOL0     H13904   7.933   7.996   7.867 -0.7948  1.5134  0.5953
  101MOL0     H13905   7.959   7.914   7.709 -0.2829  0.7526  0.4879
  101MOL0     H13906   7.904   8.215   7.740 -0.5614 -0.7197  1.3680
  101MOL0     H13907   7.947   8.123   7.594 -0.2092 -2.5342  0.2861
  101MOL0     H13908   8.168   8.056   7.707  0.4100  1.1241 -2.3410
  101MOL0     H13909   8.119   8.156   7.840  0.1716  0.3957  0.1714
  101MOL0     H13910   8.285   8.272   7.678 -0.1130 -0.3243  3.4286
  101MOL0     H13911   8.147   8.275   7.558  0.2508 -2.6975 -0.3407
  101MOL0     H13912   8.135   8.394   7.833 -0.1577  0.9005 -0.7104
  101MOL0     H13913   8.022   8.405   7.697 -1.1728  0.2537 -0.1756
  101MOL0     H13914   8.184   8.530   7.574  0.2420 -1.5775 -0.2853
  101MOL0     H13915   8.296   8.536   7.712  0.7277 -3.2486 -0.7595
  101MOL0     H13916   8.146   8.750   7.716  0.4193  1.9574  2.8142
  101MOL0     H13917   8.116   8.629   7.851  1.6152 -1.0761 -1.4611
  101MOL0     H13918   7.666   8.079   7.377  1.4814 -0.2905  2.6109
  101MOL0     H13919   7.433   8.134   7.303  0.9933  0.7594  0.6336
  101MOL0     H13920   6.995   8.162   7.445 -0.2272  0.2301 -0.5281
  101MOL0     H13921   6.744   8.200   7.401 -2.7903 -0.8481 -1.2801
  101MOL0     H13922   5.022   8.232   6.525 -2.1792 -0.4239  0.9785
  101MOL0     H13923   4.837   8.313   6.647 -1.7637  2.8405 -0.7169
  101MOL0     H13924   4.568   8.498   6.832 -0.9732  0.7723 -0.6046
  101MOL0     H13925   4.362   8.498   6.956  0.8625 -0.6964 -2.0031
  101MOL0     H13926   4.187   8.516   7.082 -0.2394 -0.7248  0.4518
  101MOL0     H13927   4.266   8.412   7.200  0.1027  0.0901  2.0391
  101MOL0     H13928   4.019   8.494   7.225 -0.2115 -0.1248  0.1445
  101MOL0     H13929   4.100   8.649   7.280 -0.0829 -0.6314  1.9086
  101MOL0     H13930   4.221   8.551   7.455  1.1869 -1.8826 -0.2641
  101MOL0     H13931   4.052   8.555   7.477 -0.2241 -0.5811 -0.4108
  101MOL0     H13932   4.180   8.287   7.386 -0.9314 -0.4353  0.0315
  101MOL0     H13933   4.058   8.303   7.507  0.6858 -2.7024 -0.7329
  101MOL0     H13934   4.401   8.305   7.743  1.7294 -0.8599 -1.8892
  101MOL0     H13935   4.528   8.722   7.263 -0.2796 -0.7162  0.3768
  101MOL0     H13936   4.866   8.668   7.213  1.3107  2.2088  0.3497
  101MOL0     H13937   4.821   8.814   7.122 -3.8873  3.0868  0.2655
  101MOL0     H13938   4.742   8.777   7.274 -0.1660 -2.3867  0.8810
  102MOL0     O13939   8.472   1.452   7.892 -0.1642  0.5174  0.1221
  102MOL0     C13940   8.405   1.549   7.919  0.5790 -0.4079 -0.0024
  102MOL0     O13941   8.428   1.636   8.022  0.4548 -0.4375  0.7383
  102MOL0     C13942   8.541   1.628   8.101  0.9595  0.1236 -0.3035
  102MOL0     C13943   8.655   1.555   8.087 -0.0225  0.1031  0.2466
  102MOL0     C13944   8.762   1.571   8.178 -0.4296 -0.2141 -0.1748
  102MOL0     C13945   8.746   1.652   8.287  0.1121 -0.0795 -0.2303
  102MOL0     O13946   8.845   1.660   8.384 -0.3229 -0.0576  0.6280
  102MOL0     C13947   8.888   1.786   8.422 -0.1972 -0.0529  0.9522
  102MOL0     C13948   9.021   1.779   8.488  0.7926 -0.5008  0.4504
  102MOL0     C13949   9.144   1.714   8.413 -0.1274 -0.7616 -0.3285
  102MOL0     C13950   9.195   1.776   8.286  0.1915 -0.4452  0.2147
  102MOL0     C13951   9.310   1.702   8.221 -0.6583 -0.3440 -0.7440
  102MOL0     C13952   9.444   1.759   8.287 -0.4564  0.0781 -0.2402
  102MOL0     C13953   9.569   1.681   8.261  0.2097 -0.1835  0.2588
  102MOL0     C13954   9.610   1.654   8.113 -1.0482 -0.3857 -0.0964
  102MOL0     N13955   9.742   1.590   8.104  0.1138 -0.1439 -0.5898
  102MOL0     C13956   9.871   1.651   8.082  0.2743  0.1399  0.4814
  102MOL0     C13957   9.942   1.550   8.023 -1.1219  0.1700  0.7695
  102MOL0     C13958  10.088   1.551   7.978  0.0717  0.8015  0.8428
  102MOL0     C13959  10.173   1.629   8.082  0.3112  0.2765 -0.1753
  102MOL0     C13960  10.311   1.564   8.071  0.2996  0.1867 -0.2238
  102MOL0     C13961  10.423   1.628   8.156  0.2326  0.2179  0.4450
  102MOL0     O13962  10.550   1.563   8.113  0.1624 -0.3419  0.1849
  102MOL0     C13963  10.667   1.626   8.153  0.5169  0.3195 -0.9573
  102MOL0     C13964  10.779   1.551   8.117 -0.1512 -0.7157  0.0970
  102MOL0     C13965  10.915   1.606   8.132  0.4897 -0.1588  0.5539
  102MOL0     C13966  11.037   1.537   8.072  0.4468 -0.3665  0.4972
  102MOL0     C13967  10.932   1.720   8.217  0.8130  0.5628  0.1652
  102MOL0     C13968  11.062   1.778   8.254  0.1310 -0.0289 -0.2530
  102MOL0     O13969  11.171   1.701   8.243 -0.3732  1.1940  0.1086
  102MOL0     C13970  11.299   1.744   8.277 -0.7811 -0.4071  0.2927
  102MOL0     C13971  11.334   1.801   8.399 -0.1589 -0.8096  0.0802
  102MOL0     C13972  11.469   1.838   8.426  0.0501  0.6871  0.0011
  102MOL0     C13973  11.570   1.812   8.326 -0.6293 -0.0042  0.1228
  102MOL0     O13974  11.695   1.854   8.371  0.1830 -0.6733 -0.4881
  102MOL0     C13975  11.779   1.907   8.280 -0.4965 -0.0274  0.1981
  102MOL0     C13976  11.885   1.992   8.347  0.4560 -0.8732 -0.8047
  102MOL0     C13977  11.940   1.930   8.473  1.1770  0.9153  0.7033
  102MOL0     C13978  12.042   2.022   8.545 -0.1969 -0.4895 -0.2544
  102MOL0     C13979  12.062   1.977   8.693 -0.2648 -0.4461 -0.0995
  102MOL0     C13980  12.194   1.894   8.699  0.0002  0.6844 -0.6038
  102MOL0     C13981  12.309   1.970   8.740 -0.3363 -1.1199 -0.1695
  102MOL0     C13982  12.438   1.894   8.766  0.6827 -0.4314  0.2852
  102MOL0    Cl13983  12.529   1.855   8.618  0.4292  0.1558  0.4056
  102MOL0     C13984  11.542   1.749   8.202  0.6729 -0.1549  0.1005
  102MOL0     C13985  11.403   1.711   8.185 -1.0333 -0.1556  0.0196
  102MOL0     O13986  11.063   1.903   8.277 -0.3360  0.5874  0.0060
  102MOL0     C13987  10.811   1.787   8.255 -0.1657  0.3509 -0.0996
  102MOL0     C13988  10.686   1.742   8.212 -0.4435 -0.0117  0.0720
  102MOL0     N13989   9.871   1.434   8.022 -0.8495  1.2706 -0.6290
  102MOL0     N13990   9.761   1.452   8.080 -0.4501  0.4988  0.3603
  102MOL0     C13991   8.625   1.722   8.304 -0.7310 -0.9896  0.0486
  102MOL0     C13992   8.526   1.712   8.218 -0.8818  0.8278  1.1060
  102MOL0     C13993   8.284   1.577   7.829  1.1880  0.1598 -0.5059
  102MOL0     C13994   8.278   1.528   7.696 -0.2889  0.2761  0.5516
  102MOL0     C13995   8.175   1.553   7.610  0.2013  0.0171 -0.1987
  102MOL0     C13996   8.067   1.631   7.646  0.5509  0.3459  0.1952
  102MOL0     O13997   7.964   1.657   7.554  0.2962 -0.9173 -0.3802
  102MOL0     C13998   7.923   1.591   7.436  0.2062  0.3456 -0.3405
  102MOL0     C13999   7.789   1.653   7.384  0.0970  0.2456  0.2144
  102MOL0     C14000   7.661   1.654   7.474  0.1703 -0.6267 -0.1964
  102MOL0     C14001   7.582   1.528   7.453  0.8002  0.9218  0.7295
  102MOL0     C14002   7.444   1.518   7.513 -0.6888 -0.5840 -1.2955
  102MOL0     C14003   7.341   1.528   7.574  0.3263  0.4588  0.2570
  102MOL0     C14004   8.069   1.686   7.777  0.3851 -0.0938  0.2786
  102MOL0     C14005   8.171   1.659   7.870 -0.1161  0.1736 -0.5979
  102MOL0     C14006   8.149   1.723   8.001 -0.2476 -0.4780 -0.1247
  102MOL0     H14007   8.674   1.476   8.015  0.9049  1.7916 -1.4579
  102MOL0     H14008   8.853   1.512   8.178  0.5800  1.1982 -2.2961
  102MOL0     H14009   8.816   1.821   8.497 -1.5205 -1.6429  0.4863
  102MOL0     H14010   8.904   1.852   8.336  2.9718 -1.8540  0.0133
  102MOL0     H14011   9.046   1.880   8.520  0.9301 -1.4474  3.7392
  102MOL0     H14012   9.000   1.720   8.578 -3.3350 -1.4503 -0.9035
  102MOL0     H14013   9.224   1.700   8.486  0.7785  0.0171 -1.1531
  102MOL0     H14014   9.120   1.609   8.397 -0.6800 -0.8102  0.7087
  102MOL0     H14015   9.105   1.774   8.224 -0.1249  0.3156  0.6262
  102MOL0     H14016   9.222   1.882   8.298  1.3962 -0.7754  0.5375
  102MOL0     H14017   9.323   1.724   8.115 -0.6633  1.7416 -0.3469
  102MOL0     H14018   9.294   1.595   8.242 -3.2435 -0.4911 -2.8517
  102MOL0     H14019   9.468   1.861   8.256 -1.5429  0.8382  1.2819
  102MOL0     H14020   9.430   1.775   8.394  2.2153  1.0862  0.0389
  102MOL0     H14021   9.558   1.591   8.324 -0.4497  0.5138  1.1749
  102MOL0     H14022   9.653   1.738   8.300 -0.7877  2.0786 -0.7329
  102MOL0     H14023   9.539   1.589   8.060 -1.0932  0.0022 -0.5255
  102MOL0     H14024   9.609   1.744   8.050  0.2375 -0.1932  0.1363
  102MOL0     H14025   9.908   1.753   8.075  0.1771  0.1255 -0.2992
  102MOL0     H14026  10.087   1.599   7.879 -2.7124  1.7956  1.2630
  102MOL0     H14027  10.134   1.453   7.965  0.0795  1.0857 -1.8949
  102MOL0     H14028  10.173   1.731   8.042  1.7178 -0.2718 -1.6685
  102MOL0     H14029  10.130   1.627   8.182 -1.4311  1.0593 -0.8648
  102MOL0     H14030  10.302   1.458   8.098  0.7540  0.1798 -0.0785
  102MOL0     H14031  10.345   1.581   7.969  1.4829 -1.9483 -0.2490
  102MOL0     H14032  10.422   1.736   8.140  0.6276  0.3682  1.3804
  102MOL0     H14033  10.397   1.598   8.258  0.3037  0.0440  0.4120
  102MOL0     H14034  10.756   1.457   8.069 -0.6654 -0.2379 -0.6182
  102MOL0     H14035  11.007   1.468   7.993  2.8678 -1.6837  0.6260
  102MOL0     H14036  11.088   1.483   8.152  0.1343 -0.8994  0.3379
  102MOL0     H14037  11.105   1.612   8.030  0.0848 -0.0601  0.4511
  102MOL0     H14038  11.254   1.813   8.471 -0.5232 -0.1076 -0.4354
  102MOL0     H14039  11.501   1.883   8.520 -0.0431 -0.9524  0.8533
  102MOL0     H14040  11.828   1.819   8.237  0.1654  0.5756 -0.3238
  102MOL0     H14041  11.740   1.971   8.201  1.4580  1.3410  0.2457
  102MOL0     H14042  11.968   2.014   8.279  2.7370 -3.4039  0.9606
  102MOL0     H14043  11.823   2.083   8.356 -1.8094 -2.2478 -1.6329
  102MOL0     H14044  11.985   1.833   8.449  0.4348  0.3842  1.3889
  102MOL0     H14045  11.857   1.912   8.543  2.5670 -2.3547  1.6955
  102MOL0     H14046  12.006   2.125   8.551  1.2575  0.0609 -0.6949
  102MOL0     H14047  12.132   2.024   8.483 -0.3477  5.6239 -0.8533
  102MOL0     H14048  12.081   2.069   8.749  2.8613 -0.4433 -0.9448
  102MOL0     H14049  11.979   1.913   8.723  0.2896 -1.5046 -0.7585
  102MOL0     H14050  12.204   1.854   8.598 -0.8082 -1.2648  0.0428
  102MOL0     H14051  12.192   1.807   8.766  1.4950  1.6832  0.8460
  102MOL0     H14052  12.276   2.018   8.833  2.4875 -3.9618  2.5170
  102MOL0     H14053  12.339   2.046   8.667  2.4090 -1.2782  0.6692
  102MOL0     H14054  12.406   1.798   8.806  0.9557 -1.3959 -1.7017
  102MOL0     H14055  12.493   1.944   8.847  2.6015  0.2439 -1.3583
  102MOL0     H14056  11.611   1.739   8.118  0.5588 -0.2988  0.0233
  102MOL0     H14057  11.367   1.662   8.095 -2.4461  0.1199  0.4063
  102MOL0     H14058  10.825   1.876   8.315  0.7583 -1.6431  2.8608
  102MOL0     H14059  10.596   1.795   8.241 -0.4648  1.1103 -1.8851
  102MOL0     H14060   8.603   1.788   8.387 -1.8930 -0.4677 -0.6614
  102MOL0     H14061   8.434   1.770   8.228 -1.3672  0.1269  0.8146
  102MOL0     H14062   8.361   1.463   7.670 -0.7150  0.1445 -0.5639
  102MOL0     H14063   8.171   1.504   7.513  3.2952  1.7388 -1.3235
  102MOL0     H14064   7.986   1.594   7.346 -1.0349  0.3364 -1.2305
  102MOL0     H14065   7.894   1.491   7.469 -1.3998  0.3737 -1.5736
  102MOL0     H14066   7.767   1.622   7.282 -1.0860 -0.2187  0.5920
  102MOL0     H14067   7.820   1.758   7.374  3.3103 -0.4550  1.6798
  102MOL0     H14068   7.689   1.660   7.579 -0.7040  0.1076  0.0076
  102MOL0     H14069   7.600   1.745   7.463  2.2967  1.8969  5.3644
  102MOL0     H14070   7.644   1.445   7.487  0.6127  0.0531 -0.9843
  102MOL0     H14071   7.572   1.505   7.347  2.0242 -2.9107  1.2875
  102MOL0     H14072   7.253   1.545   7.632 -0.0432 -0.8793  0.1265
  102MOL0     H14073   7.992   1.761   7.790  0.7553  0.1699  0.9547
  102MOL0     H14074   8.064   1.793   7.997  0.3582  0.2832  0.0606
  102MOL0     H14075   8.134   1.651   8.082 -4.3197  1.4287  1.1073
  102MOL0     H14076   8.241   1.776   8.028  0.4035 -1.8008  0.3557
  103MOL0     O14077   1.050   9.852   9.002 -0.1211  0.8786  0.1869
  103MOL0     C14078   1.120   9.776   9.065 -0.2235  0.7839 -0.9287
  103MOL0     O14079   1.080   9.659   9.121  1.1552  0.2277 -0.6765
  103MOL0     C14080   0.943   9.626   9.131  0.9149  0.2650 -0.1927
  103MOL0     C14081   0.887   9.633   9.259 -0.3969  0.0471  0.2804
  103MOL0     C14082   0.749   9.608   9.279 -0.6840  0.3218  0.6854
  103MOL0     C14083   0.672   9.566   9.168  0.2673 -0.5687 -0.1123
  103MOL0     O14084   0.543   9.547   9.183 -0.4502 -0.1394 -0.1994
  103MOL0     C14085   0.513   9.448   9.272  0.3054  0.1013  0.8623
  103MOL0     C14086   0.387   9.379   9.236 -0.4767  0.5977 -0.0964
  103MOL0     C14087   0.381   9.308   9.093  0.5458 -0.1357 -0.7316
  103MOL0     C14088   0.235   9.279   9.052 -0.4017 -0.2949  0.8297
  103MOL0     C14089   0.223   9.188   8.930 -0.4417 -0.5508  0.0520
  103MOL0     C14090   0.077   9.163   8.899  0.3236  0.1013 -0.0738
  103MOL0     C14091   0.066   9.080   8.776  0.0176  0.0302 -0.1653
  103MOL0     C14092  -0.076   9.026   8.751 -0.8267  0.1756 -0.5551
  103MOL0     N14093  -0.073   8.936   8.633  0.4242 -0.3692 -0.3324
  103MOL0     C14094  -0.056   8.800   8.628 -0.3831  1.1098 -0.5073
  103MOL0     C14095  -0.082   8.757   8.498  0.3175 -0.0671  0.0418
  103MOL0     C14096  -0.079   8.614   8.466 -0.9163 -0.1596  0.2628
  103MOL0     C14097   0.019   8.585   8.343  0.7306 -0.4354 -0.8708
  103MOL0     C14098   0.160   8.646   8.366  0.0161  0.3613  0.4965
  103MOL0     C14099   0.250   8.621   8.238  0.0089 -0.7829 -0.8400
  103MOL0     O14100   0.373   8.688   8.269 -0.7705 -0.0793  0.0202
  103MOL0     C14101   0.487   8.662   8.195  0.7457 -0.2621 -0.2063
  103MOL0     C14102   0.495   8.590   8.073  0.3850 -1.1984 -0.2098
  103MOL0     C14103   0.619   8.562   8.015 -0.0284 -0.3611 -0.3677
  103MOL0     C14104   0.610   8.472   7.894  0.2767  0.0532 -0.2766
  103MOL0     C14105   0.743   8.616   8.064  0.4402 -1.3924 -0.0579
  103MOL0     C14106   0.875   8.600   8.006  0.5316 -0.0733  0.2228
  103MOL0     O14107   0.882   8.524   7.897  0.2043 -0.1681 -0.2519
  103MOL0     C14108   0.996   8.508   7.823 -1.0173  0.3157 -0.3548
  103MOL0     C14109   1.126   8.489   7.872  0.7113 -0.2880 -0.1498
  103MOL0     C14110   1.230   8.437   7.791 -0.3389 -0.4688  0.3002
  103MOL0     C14111   1.209   8.412   7.653  0.5019  0.1975  0.3927
  103MOL0     O14112   1.302   8.397   7.560 -0.1419 -0.5820  0.2458
  103MOL0     C14113   1.435   8.355   7.591  0.5960 -0.4141 -0.2960
  103MOL0     C14114   1.520   8.325   7.465  0.9624  0.3331  0.1350
  103MOL0     C14115   1.657   8.381   7.497  0.2349  0.1049  1.1906
  103MOL0     C14116   1.735   8.319   7.613  0.6227 -0.5572  0.5256
  103MOL0     C14117   1.872   8.386   7.614  0.1455  0.0044  0.9037
  103MOL0     C14118   1.966   8.309   7.510  0.7183  0.1718  0.4258
  103MOL0     C14119   2.121   8.326   7.543  0.1841 -0.3382  0.7308
  103MOL0     C14120   2.155   8.480   7.524  0.0899  0.5966  0.0353
  103MOL0    Cl14121   2.313   8.497   7.602  0.1753  0.4292  0.1595
  103MOL0     C14122   1.081   8.436   7.604  0.7511  0.0474  0.7451
  103MOL0     C14123   0.972   8.478   7.689  0.1008  0.3302  0.0561
  103MOL0     O14124   0.969   8.651   8.064 -0.4264 -0.4277 -0.3882
  103MOL0     C14125   0.733   8.679   8.190 -0.4795 -0.8362  0.6771
  103MOL0     C14126   0.611   8.699   8.253 -0.0964 -0.7829 -0.3953
  103MOL0     N14127  -0.117   8.876   8.432  0.5585  0.4888  0.4932
  103MOL0     N14128  -0.114   8.976   8.512  0.3517  1.0097 -0.0353
  103MOL0     C14129   0.726   9.559   9.037  0.2675  0.3120 -0.8206
  103MOL0     C14130   0.868   9.590   9.021 -1.1127 -0.4095  0.4182
  103MOL0     C14131   1.263   9.822   9.077 -0.1747  0.1444  0.1949
  103MOL0     C14132   1.360   9.735   9.031 -0.0964  0.7032 -0.2239
  103MOL0     C14133   1.497   9.768   9.031  0.5404 -0.0507  0.9535
  103MOL0     C14134   1.538   9.897   9.066 -0.7889 -0.7912 -0.6194
  103MOL0     O14135   1.668   9.945   9.073  0.1375  0.2158 -0.5862
  103MOL0     C14136   1.759   9.834   9.075 -0.1251  0.5407  0.3734
  103MOL0     C14137   1.907   9.875   9.100 -0.4805 -0.2964  0.4976
  103MOL0     C14138   1.980   9.918   8.971  0.6486 -0.8204 -0.0985
  103MOL0     C14139   2.128   9.926   8.989 -0.3051  0.1955 -0.4698
  103MOL0     C14140   2.186   9.789   8.988  0.3397 -1.0489  0.8611
  103MOL0     C14141   2.237   9.678   9.013  1.0917 -0.6694  0.6774
  103MOL0     C14142   1.437   9.984   9.109 -0.6207 -0.0029  0.6913
  103MOL0     C14143   1.297   9.955   9.108 -0.0576 -0.2254 -0.1438
  103MOL0     C14144   1.197  10.067   9.137 -0.1762  0.3767 -0.1955
  103MOL0     H14145   0.950   9.660   9.344 -0.7940 -0.4423  0.7350
  103MOL0     H14146   0.731   9.601   9.385  1.6076 -0.7086  1.0594
  103MOL0     H14147   0.493   9.499   9.367 -2.6517  0.5314  0.1168
  103MOL0     H14148   0.586   9.369   9.289  0.7892  1.0427  3.7708
  103MOL0     H14149   0.358   9.305   9.310 -1.4947  1.1903  0.1129
  103MOL0     H14150   0.311   9.458   9.236 -0.4640  0.6095  0.0983
  103MOL0     H14151   0.437   9.362   9.016 -0.4741  1.7919 -0.1842
  103MOL0     H14152   0.437   9.215   9.105  1.1088  0.3716  0.8469
  103MOL0     H14153   0.187   9.225   9.134 -2.2246 -0.4007 -0.2588
  103MOL0     H14154   0.175   9.370   9.046  1.1648  0.7041 -0.6428
  103MOL0     H14155   0.280   9.098   8.955 -1.6894 -1.2551  0.4439
  103MOL0     H14156   0.283   9.241   8.855 -1.3956 -0.2792 -0.5403
  103MOL0     H14157   0.034   9.107   8.983  0.8908  0.4752  0.4703
  103MOL0     H14158   0.018   9.254   8.883 -0.8670 -1.1661 -4.0533
  103MOL0     H14159   0.135   8.997   8.796  1.7946  1.4722  0.0406
  103MOL0     H14160   0.113   9.128   8.690 -1.7540  0.5073 -0.9063
  103MOL0     H14161  -0.115   8.962   8.831 -0.5071 -3.4726 -3.0703
  103MOL0     H14162  -0.137   9.117   8.747  2.7230  3.0369  2.5341
  103MOL0     H14163  -0.026   8.746   8.718  1.5829 -0.6768 -2.1554
  103MOL0     H14164  -0.182   8.589   8.440 -0.5260  0.0688 -1.6048
  103MOL0     H14165  -0.051   8.563   8.559  1.8058  2.2015  0.8778
  103MOL0     H14166   0.021   8.478   8.324  0.3512 -0.1868 -2.4332
  103MOL0     H14167  -0.025   8.625   8.251 -1.8238 -4.1993 -1.5231
  103MOL0     H14168   0.161   8.754   8.384  3.2209  0.0470  3.1839
  103MOL0     H14169   0.215   8.608   8.452  4.0528  2.7375 -0.7399
  103MOL0     H14170   0.272   8.514   8.239  3.1777 -0.2323 -1.0684
  103MOL0     H14171   0.211   8.648   8.140 -0.7409  2.1017  0.1402
  103MOL0     H14172   0.396   8.564   8.037  0.5290 -0.5562 -1.1054
  103MOL0     H14173   0.657   8.517   7.806  0.3814 -0.1119 -0.3044
  103MOL0     H14174   0.505   8.451   7.870  0.5961  0.3041 -2.0667
  103MOL0     H14175   0.657   8.374   7.905 -1.0705 -0.6013 -0.1775
  103MOL0     H14176   1.142   8.509   7.978  1.1877 -0.8294 -0.1159
  103MOL0     H14177   1.327   8.424   7.837 -1.0947 -1.1848  1.7766
  103MOL0     H14178   1.478   8.438   7.647  0.1186  0.2464 -0.8961
  103MOL0     H14179   1.437   8.266   7.656  1.2353  0.2545  0.6210
  103MOL0     H14180   1.527   8.217   7.449  0.9994  0.5103 -1.1991
  103MOL0     H14181   1.468   8.363   7.377 -1.3848 -1.9875  0.4087
  103MOL0     H14182   1.650   8.487   7.524  0.1686  0.1395  1.0381
  103MOL0     H14183   1.717   8.374   7.406 -3.2088  2.6290 -1.5495
  103MOL0     H14184   1.740   8.210   7.613 -0.1046 -0.5939  0.4936
  103MOL0     H14185   1.684   8.344   7.707 -2.0583 -0.6766 -0.7968
  103MOL0     H14186   1.865   8.495   7.609 -1.5074  0.0798  3.2353
  103MOL0     H14187   1.915   8.378   7.714 -0.8006 -0.2286  1.3065
  103MOL0     H14188   1.943   8.348   7.410 -1.6401  1.6994  1.4745
  103MOL0     H14189   1.949   8.202   7.520  1.0507 -0.0884 -1.4176
  103MOL0     H14190   2.167   8.260   7.468 -2.6157 -0.4827 -1.0130
  103MOL0     H14191   2.148   8.287   7.641  2.8319 -3.8174 -1.1489
  103MOL0     H14192   2.073   8.539   7.564 -2.2673 -3.2376  1.4579
  103MOL0     H14193   2.153   8.515   7.420 -1.4949  1.3625  0.2934
  103MOL0     H14194   1.069   8.433   7.496  1.4012 -1.3748  0.6845
  103MOL0     H14195   0.872   8.493   7.648 -0.2415  1.5611  1.2563
  103MOL0     H14196   0.828   8.706   8.237  0.3548  1.3961 -2.0069
  103MOL0     H14197   0.604   8.744   8.352 -1.1663 -2.7920  0.4911
  103MOL0     H14198   0.668   9.520   8.954 -2.0353 -2.3274  1.8251
  103MOL0     H14199   0.918   9.569   8.927 -0.4073 -1.8967  1.0914
  103MOL0     H14200   1.328   9.635   9.003  2.4417 -0.1791 -0.2528
  103MOL0     H14201   1.566   9.687   9.011  1.8384  0.9561  1.1995
  103MOL0     H14202   1.731   9.764   9.154  2.1341 -1.3799 -0.4018
  103MOL0     H14203   1.751   9.790   8.975 -0.3611  0.7098  0.3154
  103MOL0     H14204   1.957   9.781   9.122  1.3849  0.4802 -0.2046
  103MOL0     H14205   1.933   9.938   9.185  1.5932  1.0150 -0.9986
  103MOL0     H14206   1.950   9.851   8.890  0.2985  1.0234 -1.5651
  103MOL0     H14207   1.943  10.021   8.962  0.9082 -0.6159  1.0278
  103MOL0     H14208   2.156   9.974   9.084 -0.1296  1.2048 -1.0181
  103MOL0     H14209   2.172   9.992   8.914 -5.0975  2.5724 -1.5663
  103MOL0     H14210   2.286   9.584   9.028  1.2126 -0.5203  1.2460
  103MOL0     H14211   1.464  10.087   9.131  0.5082 -0.0993 -0.1117
  103MOL0     H14212   1.146  10.034   9.228  0.7373 -2.4038 -0.5987
  103MOL0     H14213   1.245  10.165   9.146 -2.4748  1.3814  4.3559
  103MOL0     H14214   1.122  10.083   9.059 -0.4990  0.7998  0.1940
  104MOL0     O14215   2.698   0.378   5.679  0.2787  0.2534 -0.2698
  104MOL0     C14216   2.669   0.489   5.634  0.5073  0.1783  0.0714
  104MOL0     O14217   2.759   0.594   5.628  0.1952 -0.1572 -0.6742
  104MOL0     C14218   2.889   0.561   5.604  0.0250  0.1148  0.6326
  104MOL0     C14219   2.976   0.518   5.700 -0.4569 -0.0439  0.0019
  104MOL0     C14220   3.111   0.514   5.686  0.9988 -1.0344  0.4337
  104MOL0     C14221   3.168   0.551   5.566 -0.9318  0.9094  0.1163
  104MOL0     O14222   3.292   0.518   5.517  0.5105 -0.3903  0.1095
  104MOL0     C14223   3.402   0.489   5.613  0.0493 -0.7908  0.4291
  104MOL0     C14224   3.533   0.466   5.534 -0.3835 -0.6082 -0.9479
  104MOL0     C14225   3.659   0.477   5.623  0.3301  0.2666 -0.3017
  104MOL0     C14226   3.787   0.435   5.557 -0.1171 -0.1942  0.6200
  104MOL0     C14227   3.906   0.458   5.646  0.3391 -0.2925 -0.3800
  104MOL0     C14228   4.032   0.435   5.566  0.5737  0.6933 -0.1897
  104MOL0     C14229   4.160   0.461   5.635 -0.1856  0.4366  0.0185
  104MOL0     C14230   4.271   0.399   5.547 -0.6834  1.0042  0.5865
  104MOL0     N14231   4.409   0.426   5.592 -0.7796  0.4760 -0.9410
  104MOL0     C14232   4.483   0.542   5.600  0.9964 -0.0582 -0.3800
  104MOL0     C14233   4.607   0.504   5.631  0.2604  0.3643  0.2507
  104MOL0     C14234   4.716   0.595   5.663  1.0250 -0.0280 -0.1636
  104MOL0     C14235   4.850   0.565   5.595 -0.3368 -0.2803  0.0144
  104MOL0     C14236   4.941   0.470   5.675  0.4500 -0.3899  0.1606
  104MOL0     C14237   5.019   0.542   5.783  0.0087  0.4639 -0.7763
  104MOL0     O14238   5.082   0.664   5.743  0.3064 -0.3686 -0.6260
  104MOL0     C14239   5.209   0.663   5.710 -0.0529  0.1732 -0.1720
  104MOL0     C14240   5.282   0.774   5.748  0.6235 -0.1389 -0.3128
  104MOL0     C14241   5.409   0.807   5.705 -0.2547 -0.6956  0.1146
  104MOL0     C14242   5.484   0.918   5.776  0.2873  0.2950  0.6358
  104MOL0     C14243   5.457   0.739   5.589  0.4286  0.7780  0.8961
  104MOL0     C14244   5.595   0.756   5.539  0.5928 -0.3572 -0.2601
  104MOL0     O14245   5.666   0.863   5.581 -0.7162  0.0949  0.3953
  104MOL0     C14246   5.775   0.910   5.510  0.2113  0.6301 -0.4800
  104MOL0     C14247   5.888   0.949   5.589  0.9766  1.3667  0.2648
  104MOL0     C14248   6.005   0.993   5.530  0.5374  0.4823  0.9265
  104MOL0     C14249   6.008   1.022   5.391  0.6427  0.0191 -0.0422
  104MOL0     O14250   6.114   1.071   5.323 -0.8744  0.6199 -0.0276
  104MOL0     C14251   6.220   1.133   5.398 -0.0099  1.2792 -0.1378
  104MOL0     C14252   6.316   1.195   5.296 -0.4999 -0.2390 -0.4197
  104MOL0     C14253   6.465   1.212   5.342 -0.6929 -0.6192 -0.1276
  104MOL0     C14254   6.570   1.115   5.281 -0.3804 -0.5393 -0.1480
  104MOL0     C14255   6.726   1.152   5.300  0.5110 -0.1352  0.4038
  104MOL0     C14256   6.761   1.209   5.443  0.1684 -0.2320  0.5224
  104MOL0     C14257   6.773   1.093   5.546 -0.0870 -0.1317  0.6793
  104MOL0     C14258   6.839   1.148   5.670  0.2319 -0.2058 -0.5954
  104MOL0    Cl14259   6.877   1.017   5.782 -0.0254  0.1628  0.3934
  104MOL0     C14260   5.887   1.003   5.321  0.1405  0.2079  0.2037
  104MOL0     C14261   5.778   0.936   5.376  0.4296 -1.1766 -0.4895
  104MOL0     O14262   5.627   0.686   5.445  0.6344  0.0225 -0.1400
  104MOL0     C14263   5.384   0.620   5.551 -0.4374 -0.0516  0.2820
  104MOL0     C14264   5.267   0.580   5.611  0.8912 -1.0033  0.5878
  104MOL0     N14265   4.612   0.368   5.646 -0.0287 -0.2071  0.7261
  104MOL0     N14266   4.489   0.327   5.629 -0.3776 -0.9798 -0.1133
  104MOL0     C14267   3.080   0.599   5.467  1.3761  0.2834 -0.2281
  104MOL0     C14268   2.943   0.604   5.483 -0.1922 -0.0205 -0.1851
  104MOL0     C14269   2.518   0.515   5.609 -0.8616  0.5194  0.0578
  104MOL0     C14270   2.462   0.644   5.621 -0.0637  0.1319 -0.0951
  104MOL0     C14271   2.322   0.661   5.623  0.6274 -0.2010  0.1559
  104MOL0     C14272   2.222   0.557   5.615  0.4007 -0.6473  0.0538
  104MOL0     O14273   2.093   0.583   5.630 -0.4023 -0.3513 -0.0353
  104MOL0     C14274   2.007   0.474   5.674 -0.9743  0.3151  0.4323
  104MOL0     C14275   1.907   0.519   5.786  0.7645  0.5958 -0.1838
  104MOL0     C14276   1.794   0.605   5.736  0.0905 -0.3932 -0.3406
  104MOL0     C14277   1.689   0.646   5.840  0.0606 -0.3537  0.1231
  104MOL0     C14278   1.633   0.527   5.900  0.0842  0.8838 -0.4732
  104MOL0     C14279   1.573   0.433   5.957 -0.0215 -0.3479 -0.2585
  104MOL0     C14280   2.284   0.435   5.599 -0.1852 -1.0912 -0.0053
  104MOL0     C14281   2.420   0.412   5.598 -0.3812 -0.0252 -0.4745
  104MOL0     C14282   2.457   0.269   5.561 -0.9073 -0.4177  0.2250
  104MOL0     H14283   2.950   0.500   5.804  1.3228  0.8071  0.6433
  104MOL0     H14284   3.174   0.474   5.765  0.4410  0.2156  1.5449
  104MOL0     H14285   3.370   0.398   5.664  0.4871 -1.3473 -0.2494
  104MOL0     H14286   3.421   0.571   5.682  3.2020  0.0808 -1.2530
  104MOL0     H14287   3.531   0.365   5.492  0.8254 -0.8419 -0.4703
  104MOL0     H14288   3.539   0.544   5.458 -0.1951 -1.3935 -1.7707
  104MOL0     H14289   3.670   0.578   5.662 -0.3927  0.1104  0.3504
  104MOL0     H14290   3.644   0.407   5.706  0.1449  1.2521  0.5097
  104MOL0     H14291   3.777   0.327   5.542  0.3775 -0.4824  2.1090
  104MOL0     H14292   3.795   0.488   5.462 -0.3933 -0.4918  0.4284
  104MOL0     H14293   3.908   0.400   5.739 -0.1348 -0.7659 -0.6545
  104MOL0     H14294   3.889   0.559   5.684 -1.3484 -0.2369 -1.1585
  104MOL0     H14295   4.025   0.332   5.531 -2.2501  1.3458 -1.8407
  104MOL0     H14296   4.025   0.494   5.474 -2.5663 -0.2410 -0.6387
  104MOL0     H14297   4.150   0.411   5.731 -1.9157 -0.2008 -0.4654
  104MOL0     H14298   4.178   0.569   5.641 -0.0508  0.4007  0.2842
  104MOL0     H14299   4.254   0.291   5.543 -0.0977  0.9369 -0.2995
  104MOL0     H14300   4.266   0.438   5.446 -1.1601  0.4242  0.3787
  104MOL0     H14301   4.450   0.644   5.581 -0.3708 -0.3076  0.5083
  104MOL0     H14302   4.737   0.594   5.771 -0.5102 -0.4242  0.1563
  104MOL0     H14303   4.672   0.691   5.635 -4.3371 -0.7790  3.8662
  104MOL0     H14304   4.846   0.527   5.493 -2.5370  0.6705 -0.2922
  104MOL0     H14305   4.901   0.662   5.592  1.2690 -1.0501  1.0002
  104MOL0     H14306   4.886   0.382   5.709 -0.4826 -0.0298 -0.3915
  104MOL0     H14307   5.008   0.430   5.598 -0.9748 -1.9462 -0.3313
  104MOL0     H14308   4.943   0.561   5.859  0.7750  1.9378 -0.3443
  104MOL0     H14309   5.087   0.474   5.835  0.1808  1.0708 -0.1872
  104MOL0     H14310   5.236   0.831   5.828  0.9406 -0.0010 -0.2235
  104MOL0     H14311   5.435   0.943   5.871  1.4284 -2.7405  2.1455
  104MOL0     H14312   5.493   1.003   5.708  0.2725 -0.9309 -0.9479
  104MOL0     H14313   5.581   0.887   5.814 -0.0315  0.7562  1.9050
  104MOL0     H14314   5.879   0.936   5.696  0.0193  2.3177  0.3193
  104MOL0     H14315   6.091   1.012   5.593  0.9452  0.5411  0.3573
  104MOL0     H14316   6.175   1.208   5.463  0.1387 -0.2314  1.8062
  104MOL0     H14317   6.270   1.058   5.460 -1.3671  0.3826 -0.0855
  104MOL0     H14318   6.299   1.156   5.195 -1.7150  0.9036 -0.6790
  104MOL0     H14319   6.282   1.298   5.288 -0.0834  0.1729  2.2216
  104MOL0     H14320   6.472   1.218   5.451  1.5724  1.3029 -0.2814
  104MOL0     H14321   6.496   1.311   5.306 -2.7185 -0.2596 -1.0192
  104MOL0     H14322   6.556   1.099   5.174 -2.4186  2.4289 -0.4378
  104MOL0     H14323   6.554   1.014   5.318 -3.5546 -0.2524 -0.4680
  104MOL0     H14324   6.783   1.061   5.281  0.0418 -0.4691  0.5846
  104MOL0     H14325   6.744   1.222   5.218  0.3399 -0.0118  0.4703
  104MOL0     H14326   6.693   1.289   5.474 -1.3709 -0.2420 -2.3895
  104MOL0     H14327   6.862   1.249   5.434  0.5912 -0.8352  2.1978
  104MOL0     H14328   6.851   1.020   5.521 -0.5571 -1.1034  1.9522
  104MOL0     H14329   6.682   1.034   5.558  0.1676 -0.9320 -0.9922
  104MOL0     H14330   6.771   1.212   5.726 -0.0819 -0.8172 -0.2591
  104MOL0     H14331   6.932   1.200   5.645 -0.0840 -0.8731 -3.4778
  104MOL0     H14332   5.888   1.021   5.214 -3.0081 -1.9706 -0.3213
  104MOL0     H14333   5.700   0.896   5.313 -1.1262 -2.8233  2.2782
  104MOL0     H14334   5.417   0.546   5.479  0.8666  0.1949  0.5981
  104MOL0     H14335   5.219   0.493   5.568 -0.1923  0.7819 -2.0896
  104MOL0     H14336   3.117   0.634   5.371 -0.3036  3.5965  0.2106
  104MOL0     H14337   2.881   0.642   5.403  2.4154  0.9998 -1.8407
  104MOL0     H14338   2.522   0.732   5.639 -0.2258  0.2851 -0.2917
  104MOL0     H14339   2.298   0.764   5.646 -4.0861 -1.1053  0.2831
  104MOL0     H14340   1.960   0.439   5.582 -2.1341 -1.4034  1.6201
  104MOL0     H14341   2.066   0.387   5.708  2.3709  2.2198 -0.0781
  104MOL0     H14342   1.961   0.578   5.860  2.8149  1.3124 -2.1203
  104MOL0     H14343   1.860   0.432   5.832 -0.0324  1.4712  0.6946
  104MOL0     H14344   1.842   0.698   5.702  1.8316 -0.6762  1.1790
  104MOL0     H14345   1.745   0.544   5.660 -1.6659  1.4936 -0.7950
  104MOL0     H14346   1.602   0.700   5.802  0.1465 -0.0905  0.3037
  104MOL0     H14347   1.739   0.714   5.909 -1.8703  1.8702 -0.5130
  104MOL0     H14348   1.530   0.352   6.014  1.3512  1.0049  2.9378
  104MOL0     H14349   2.223   0.345   5.594  0.0959 -1.2976  0.2236
  104MOL0     H14350   2.454   0.211   5.654  1.8686 -2.7985 -1.0173
  104MOL0     H14351   2.375   0.230   5.499 -0.7546  0.3653 -0.4768
  104MOL0     H14352   2.550   0.253   5.505 -1.4477 -0.0176 -0.8297
  105MOL0     O14353   8.374   4.318   0.902  0.4808  0.4460 -0.4290
  105MOL0     C14354   8.296   4.385   0.968 -0.5378 -0.4383  0.2359
  105MOL0     O14355   8.330   4.472   1.067  0.5032  0.6555  0.4789
  105MOL0     C14356   8.459   4.484   1.099 -0.7880 -0.3663 -0.5175
  105MOL0     C14357   8.552   4.518   1.005 -0.3197 -0.7165 -0.1174
  105MOL0     C14358   8.684   4.536   1.048 -0.1308  0.6527  0.4888
  105MOL0     C14359   8.725   4.521   1.179 -0.2972  0.0590  0.0792
  105MOL0     O14360   8.852   4.510   1.218 -1.1518 -0.8489  0.4356
  105MOL0     C14361   8.949   4.597   1.159  0.7775  0.4425  0.1202
  105MOL0     C14362   9.005   4.544   1.025  0.2345 -0.7551 -0.1094
  105MOL0     C14363   9.151   4.594   1.004  0.2598 -0.5626  0.3125
  105MOL0     C14364   9.221   4.545   0.888 -0.2122  0.7090  0.1456
  105MOL0     C14365   9.370   4.584   0.888 -0.8575 -0.3711 -0.6729
  105MOL0     C14366   9.429   4.526   0.764 -0.7282 -0.6213  0.1764
  105MOL0     C14367   9.577   4.558   0.742  0.0658 -0.2556  0.0036
  105MOL0     C14368   9.625   4.495   0.605 -0.2540 -0.5795 -0.7312
  105MOL0     N14369   9.771   4.507   0.595  0.1745  0.6824  0.8840
  105MOL0     C14370   9.854   4.406   0.544 -0.7577 -0.5779  0.1173
  105MOL0     C14371   9.980   4.455   0.547 -0.6961 -0.4043  0.2101
  105MOL0     C14372  10.108   4.378   0.519  0.2673 -0.2656  0.2450
  105MOL0     C14373  10.205   4.480   0.463 -1.0327  0.1306 -0.3021
  105MOL0     C14374  10.325   4.413   0.392  1.0249 -0.1172 -0.0578
  105MOL0     C14375  10.436   4.513   0.343 -0.1484  0.9147 -0.1145
  105MOL0     O14376  10.535   4.416   0.311 -0.0016 -0.7042 -1.1475
  105MOL0     C14377  10.666   4.450   0.312 -0.7897  0.4539 -0.7934
  105MOL0     C14378  10.752   4.337   0.295 -0.4057 -0.1534  0.7676
  105MOL0     C14379  10.893   4.364   0.283 -0.7868 -0.2349 -0.2261
  105MOL0     C14380  10.983   4.239   0.273 -0.3149  0.1073 -0.3171
  105MOL0     C14381  10.939   4.498   0.284  0.5686 -1.0315 -0.1378
  105MOL0     C14382  11.083   4.543   0.265 -0.8248  0.2332 -1.3583
  105MOL0     O14383  11.117   4.651   0.349 -0.1281 -0.2070  0.6697
  105MOL0     C14384  11.227   4.722   0.300  0.6690 -0.4404  0.3393
  105MOL0     C14385  11.208   4.846   0.238  0.0104  0.1269 -0.1921
  105MOL0     C14386  11.320   4.918   0.185  0.9151  1.1419  0.4107
  105MOL0     C14387  11.446   4.867   0.219  0.6879  0.0934  0.0136
  105MOL0     O14388  11.543   4.951   0.180  0.2391 -0.2492  0.4571
  105MOL0     C14389  11.674   4.895   0.173  0.8653 -0.1223  0.2067
  105MOL0     C14390  11.738   5.009   0.092 -1.0844 -0.2810 -0.2671
  105MOL0     C14391  11.885   4.968   0.064 -0.5565  0.2450 -0.2861
  105MOL0     C14392  11.959   5.096   0.025  0.5141 -0.6095  0.3054
  105MOL0     C14393  12.105   5.075  -0.027  0.6358 -0.5406  0.1400
  105MOL0     C14394  12.186   5.205  -0.032 -0.5854  0.3505  0.6158
  105MOL0     C14395  12.213   5.275   0.112  0.0977  0.9743  0.4955
  105MOL0     C14396  12.236   5.421   0.098  0.1066 -0.5178 -0.2177
  105MOL0    Cl14397  12.295   5.491   0.257 -0.3139 -0.5569  0.5655
  105MOL0     C14398  11.460   4.747   0.280  0.2841  0.2827  0.3113
  105MOL0     C14399  11.354   4.681   0.335  0.1786  0.4275  0.3170
  105MOL0     O14400  11.148   4.500   0.174 -0.0262 -0.4683 -0.1042
  105MOL0     C14401  10.845   4.604   0.304  0.0588  0.3670 -0.7006
  105MOL0     C14402  10.714   4.574   0.309  0.0816 -0.9802 -0.6467
  105MOL0     N14403   9.972   4.582   0.597 -0.1127 -0.1761 -0.1109
  105MOL0     N14404   9.852   4.614   0.620  0.5567  0.2091  0.5803
  105MOL0     C14405   8.626   4.501   1.274 -0.2894 -0.2994 -0.0420
  105MOL0     C14406   8.497   4.486   1.237  0.9494 -0.4002  0.5344
  105MOL0     C14407   8.152   4.397   0.926 -0.9210  0.4562  0.5332
  105MOL0     C14408   8.056   4.463   1.005 -0.8768 -0.9562 -1.1843
  105MOL0     C14409   7.926   4.484   0.977 -0.5613 -0.0140 -0.0306
  105MOL0     C14410   7.875   4.438   0.860 -1.0019  0.1014 -0.0179
  105MOL0     O14411   7.739   4.454   0.830 -0.2558 -0.4127  0.4427
  105MOL0     C14412   7.693   4.594   0.843 -0.0200  0.6136 -0.9091
  105MOL0     C14413   7.565   4.612   0.771  0.6605  0.2644  0.0976
  105MOL0     C14414   7.480   4.735   0.827 -0.2039  0.0712 -0.0648
  105MOL0     C14415   7.338   4.739   0.765  0.1221 -0.0213 -0.4455
  105MOL0     C14416   7.336   4.746   0.619  0.9583 -0.7401  0.0036
  105MOL0     C14417   7.332   4.750   0.493  0.7964  0.3577  0.2834
  105MOL0     C14418   7.961   4.355   0.771 -0.1397 -0.4179 -0.2159
  105MOL0     C14419   8.097   4.342   0.805  0.1449 -0.5686 -0.1233
  105MOL0     C14420   8.174   4.265   0.706  0.2611  0.5679  0.1908
  105MOL0     H14421   8.523   4.521   0.901 -0.6184 -0.0887 -0.0205
  105MOL0     H14422   8.755   4.551   0.966 -0.4033  1.6874  0.4226
  105MOL0     H14423   9.028   4.610   1.234  0.5310  0.3542  0.4009
  105MOL0     H14424   8.898   4.694   1.160  0.6368  0.3761 -0.4052
  105MOL0     H14425   9.007   4.435   1.035  1.3331 -0.8093 -0.7077
  105MOL0     H14426   8.964   4.595   0.938  2.8115  2.2879  0.2605
  105MOL0     H14427   9.149   4.703   0.995 -0.7636 -0.5040  1.0522
  105MOL0     H14428   9.208   4.567   1.094  0.3991  1.2315  0.8169
  105MOL0     H14429   9.210   4.436   0.884  3.0614  0.2966 -0.9604
  105MOL0     H14430   9.182   4.580   0.792  0.3757  0.3977 -0.2164
  105MOL0     H14431   9.424   4.544   0.975 -0.7623  3.4874  1.2525
  105MOL0     H14432   9.392   4.690   0.898  2.1210 -0.9248 -0.4719
  105MOL0     H14433   9.426   4.417   0.755 -1.7181 -0.6062  0.1679
  105MOL0     H14434   9.375   4.585   0.689 -2.1568 -0.2441  1.4479
  105MOL0     H14435   9.642   4.525   0.823 -0.0261  0.2273  0.2818
  105MOL0     H14436   9.585   4.667   0.745 -2.1052 -0.0095 -1.0708
  105MOL0     H14437   9.589   4.394   0.584  0.0496 -0.6645 -0.8535
  105MOL0     H14438   9.588   4.556   0.522  3.8866  0.6004 -1.9555
  105MOL0     H14439   9.815   4.311   0.506 -1.5544  0.2312 -1.1958
  105MOL0     H14440  10.076   4.304   0.445  2.5417 -0.0825 -1.0083
  105MOL0     H14441  10.139   4.321   0.607  1.1088 -1.8602 -1.0322
  105MOL0     H14442  10.156   4.538   0.386  1.4666 -1.2924 -3.1794
  105MOL0     H14443  10.246   4.544   0.542  2.6073 -0.6316 -1.3721
  105MOL0     H14444  10.369   4.335   0.455  1.3975 -0.7059 -1.0103
  105MOL0     H14445  10.282   4.357   0.308 -0.3671 -1.0201  1.2103
  105MOL0     H14446  10.403   4.568   0.254 -2.6427 -0.6744 -0.2792
  105MOL0     H14447  10.460   4.578   0.428 -1.5358  0.2580  0.8167
  105MOL0     H14448  10.719   4.235   0.281 -1.7252  0.0875  1.8421
  105MOL0     H14449  11.087   4.272   0.277 -1.4642  4.8801 -2.7702
  105MOL0     H14450  10.968   4.196   0.174  1.5356 -1.3384 -0.0192
  105MOL0     H14451  10.961   4.165   0.351 -0.2299  2.4742  2.1151
  105MOL0     H14452  11.106   4.877   0.217  0.1606  0.0052 -1.1202
  105MOL0     H14453  11.320   5.006   0.121  0.4916  1.2926  0.6095
  105MOL0     H14454  11.718   4.894   0.274  0.9444 -2.3478  0.1948
  105MOL0     H14455  11.692   4.801   0.121 -0.6273  0.4751 -1.5028
  105MOL0     H14456  11.695   5.017  -0.009 -1.2319 -0.5504 -0.2282
  105MOL0     H14457  11.735   5.099   0.154  3.4017 -1.2442  1.7631
  105MOL0     H14458  11.882   4.890  -0.012  0.3826 -1.8092  1.6665
  105MOL0     H14459  11.926   4.931   0.159 -2.1901  1.4068  0.9446
  105MOL0     H14460  11.957   5.174   0.102 -0.0560  0.2276 -0.5240
  105MOL0     H14461  11.905   5.146  -0.056  3.1111  1.9602 -0.0144
  105MOL0     H14462  12.158   5.010   0.042  0.9673  0.6423  1.0236
  105MOL0     H14463  12.100   5.041  -0.131 -1.1720  3.1664 -1.1793
  105MOL0     H14464  12.146   5.275  -0.106 -1.1386 -1.7723 -1.2023
  105MOL0     H14465  12.292   5.196  -0.057 -0.4640  0.8418  0.9266
  105MOL0     H14466  12.302   5.231   0.157 -0.4574 -0.3603  0.3429
  105MOL0     H14467  12.138   5.248   0.187  1.9005 -1.4795  1.5710
  105MOL0     H14468  12.143   5.474   0.075  0.3942 -0.1828 -0.6307
  105MOL0     H14469  12.302   5.437   0.012 -3.2138 -0.6994 -3.0315
  105MOL0     H14470  11.558   4.700   0.283  0.5089  0.7650  2.4452
  105MOL0     H14471  11.373   4.587   0.385 -1.1027  1.8904  3.8733
  105MOL0     H14472  10.877   4.704   0.334  0.3712 -0.2023  0.9738
  105MOL0     H14473  10.647   4.650   0.349 -0.6526 -1.8016 -0.2766
  105MOL0     H14474   8.664   4.501   1.375  2.1110  0.3069 -0.8824
  105MOL0     H14475   8.419   4.467   1.310  0.7968  0.8609  0.7248
  105MOL0     H14476   8.085   4.490   1.106 -1.4779  1.0016 -1.4792
  105MOL0     H14477   7.870   4.535   1.056 -0.5185  1.7427 -1.0770
  105MOL0     H14478   7.680   4.615   0.949  2.9106  2.3415 -0.7812
  105MOL0     H14479   7.765   4.667   0.805  0.8606 -0.5390 -1.5369
  105MOL0     H14480   7.505   4.521   0.780  0.6896 -0.1485 -2.8252
  105MOL0     H14481   7.584   4.626   0.664  1.9591 -2.3498 -0.0862
  105MOL0     H14482   7.477   4.721   0.936  0.8219 -1.3761 -0.1935
  105MOL0     H14483   7.525   4.832   0.808  0.7983 -0.4920 -0.6335
  105MOL0     H14484   7.278   4.825   0.796  0.2393  0.6703 -2.0370
  105MOL0     H14485   7.293   4.648   0.805 -1.8055  1.8516  1.9395
  105MOL0     H14486   7.317   4.765   0.388  2.1603  3.0178  0.3599
  105MOL0     H14487   7.911   4.306   0.689 -2.0185 -2.6186  2.0714
  105MOL0     H14488   8.208   4.166   0.737 -0.4919  0.0332 -0.6604
  105MOL0     H14489   8.128   4.263   0.607 -0.0680  2.4754  0.2694
  105MOL0     H14490   8.258   4.333   0.683 -1.0600  2.0321 -0.5092
  106MOL0     O14491   7.024   8.981   9.673  0.8665 -0.3211 -0.3962
  106MOL0     C14492   6.994   8.875   9.722 -0.1813  0.1005 -0.1542
  106MOL0     O14493   7.078   8.801   9.803  0.1465  0.2220  0.0745
  106MOL0     C14494   7.210   8.829   9.813 -0.2083 -0.3279 -0.2891
  106MOL0     C14495   7.301   8.791   9.709 -0.1422  0.9339 -0.4799
  106MOL0     C14496   7.437   8.816   9.729  0.1593 -0.3144 -0.8426
  106MOL0     C14497   7.485   8.864   9.851  0.8096 -0.2693 -0.6572
  106MOL0     O14498   7.615   8.895   9.874 -0.4035 -0.7562  0.4090
  106MOL0     C14499   7.714   8.817   9.812 -0.8347  0.0722 -0.2550
  106MOL0     C14500   7.831   8.822   9.907 -0.9453 -0.2345 -0.3039
  106MOL0     C14501   7.955   8.752   9.842 -0.1277 -0.6116 -0.1707
  106MOL0     C14502   8.080   8.776   9.928 -0.0321  0.1544  0.3315
  106MOL0     C14503   8.205   8.722   9.855  0.6637  0.0501 -0.0064
  106MOL0     C14504   8.337   8.771   9.912  1.1115  0.0442 -0.4478
  106MOL0     C14505   8.447   8.711   9.828 -0.2050 -1.1198 -0.2592
  106MOL0     C14506   8.583   8.767   9.877 -0.1386 -0.5882 -0.1941
  106MOL0     N14507   8.684   8.717   9.784  0.3985 -0.6963 -0.6705
  106MOL0     C14508   8.746   8.594   9.796 -0.2072 -0.0572 -0.1616
  106MOL0     C14509   8.827   8.581   9.688 -0.8556  0.2264  0.1561
  106MOL0     C14510   8.906   8.449   9.654 -0.0796  0.0570 -0.7270
  106MOL0     C14511   8.989   8.397   9.772 -0.1736 -0.4649 -0.0019
  106MOL0     C14512   9.108   8.326   9.716 -0.0494  0.7804  0.0227
  106MOL0     C14513   9.198   8.265   9.819 -0.0013 -0.4374 -1.2527
  106MOL0     O14514   9.291   8.361   9.875 -0.5702  0.2552 -0.3381
  106MOL0     C14515   9.394   8.322   9.946 -0.8705 -0.8484 -0.6246
  106MOL0     C14516   9.496   8.418   9.968  0.7384 -0.2506  0.2379
  106MOL0     C14517   9.612   8.396  10.035 -0.5656  0.5430  0.4174
  106MOL0     C14518   9.716   8.505  10.034 -0.4514 -0.7140  0.3583
  106MOL0     C14519   9.626   8.279  10.110  0.1540  0.5342 -0.0274
  106MOL0     C14520   9.736   8.237  10.193  0.1926 -0.1783 -0.0308
  106MOL0     O14521   9.839   8.322  10.205  0.4478 -0.2697  0.2519
  106MOL0     C14522   9.957   8.311  10.271 -0.0344  0.5859 -0.1681
  106MOL0     C14523  10.041   8.425  10.274  0.5201 -0.1397  0.0144
  106MOL0     C14524  10.159   8.419  10.355 -0.0575  0.9704 -0.2525
  106MOL0     C14525  10.206   8.299  10.407 -1.1490 -1.0348 -0.4347
  106MOL0     O14526  10.317   8.293  10.485 -0.8130  0.1573  0.0837
  106MOL0     C14527  10.394   8.413  10.503 -0.1412  0.7630 -0.4826
  106MOL0     C14528  10.526   8.378  10.575  0.0973 -0.5531 -0.1793
  106MOL0     C14529  10.618   8.307  10.485  0.7002 -0.5196 -0.6020
  106MOL0     C14530  10.747   8.247  10.543 -0.2051  0.0294 -0.1032
  106MOL0     C14531  10.845   8.175  10.446  0.3864 -0.3874  0.8321
  106MOL0     C14532  10.978   8.136  10.511 -0.3695  0.1885  0.0587
  106MOL0     C14533  11.062   8.037  10.436  0.2539  0.1466 -0.0240
  106MOL0     C14534  11.166   7.958  10.520 -0.0723  0.1537 -0.3931
  106MOL0    Cl14535  11.096   7.838  10.631 -0.2753 -0.4884 -0.3878
  106MOL0     C14536  10.122   8.193  10.402 -0.7632 -0.2792  0.0988
  106MOL0     C14537   9.999   8.196  10.340 -0.8819 -0.3225  0.9553
  106MOL0     O14538   9.721   8.132  10.265 -0.0038  0.1800  0.4534
  106MOL0     C14539   9.520   8.183  10.095  0.2598  0.8029 -1.4124
  106MOL0     C14540   9.412   8.195  10.010 -0.2504 -0.5089 -0.9217
  106MOL0     N14541   8.815   8.696   9.623 -0.2175  0.6723  0.2939
  106MOL0     N14542   8.714   8.769   9.663  0.2166 -0.2565  0.1388
  106MOL0     C14543   7.389   8.899   9.950 -0.7973  0.1096 -0.8513
  106MOL0     C14544   7.253   8.880   9.931 -0.6965 -0.1658 -1.2081
  106MOL0     C14545   6.869   8.801   9.680 -0.7298  0.3922  0.4673
  106MOL0     C14546   6.853   8.662   9.726  0.0942  0.0883 -0.1694
  106MOL0     C14547   6.729   8.594   9.698  0.2972  0.4616  0.0774
  106MOL0     C14548   6.622   8.660   9.629 -0.0405  0.6715  0.9922
  106MOL0     O14549   6.493   8.604   9.612 -0.4693  0.5171 -0.0244
  106MOL0     C14550   6.463   8.466   9.661  0.1072 -0.9089 -0.6178
  106MOL0     C14551   6.516   8.350   9.562  0.6359  0.1460  0.0442
  106MOL0     C14552   6.423   8.330   9.447 -0.3245  0.5725 -0.1617
  106MOL0     C14553   6.322   8.215   9.495 -0.1863 -0.7928  0.5859
  106MOL0     C14554   6.226   8.180   9.385 -0.7465  0.2189  1.0772
  106MOL0     C14555   6.161   8.135   9.290 -0.0234 -0.4616 -0.2865
  106MOL0     C14556   6.647   8.788   9.576 -0.0654  0.2493  0.1250
  106MOL0     C14557   6.762   8.856   9.600  0.2679  0.2075 -0.5537
  106MOL0     C14558   6.780   8.996   9.544 -0.4081 -0.1220  0.2355
  106MOL0     H14559   7.265   8.743   9.618  1.3789 -0.0381 -0.5969
  106MOL0     H14560   7.510   8.790   9.653 -0.4220  0.3818 -1.6551
  106MOL0     H14561   7.747   8.855   9.715  0.5914 -3.3882 -1.2584
  106MOL0     H14562   7.683   8.713   9.804 -2.2705  0.2953  1.6794
  106MOL0     H14563   7.856   8.927   9.923  1.8091 -0.7690 -0.6586
  106MOL0     H14564   7.811   8.761   9.996 -2.3640  1.5299  0.6496
  106MOL0     H14565   7.928   8.648   9.825 -0.5659 -0.2896 -1.6304
  106MOL0     H14566   7.981   8.782   9.740  1.3286 -0.0161  0.3441
  106MOL0     H14567   8.090   8.884   9.924 -0.3063  0.1553 -0.7079
  106MOL0     H14568   8.070   8.734  10.029  2.5471 -0.2559  0.5067
  106MOL0     H14569   8.205   8.752   9.750  1.7242  2.8980  0.7073
  106MOL0     H14570   8.198   8.613   9.851  1.4424 -0.0481  1.0453
  106MOL0     H14571   8.332   8.880   9.906  1.4739  0.1476  0.9682
  106MOL0     H14572   8.341   8.743  10.017 -0.7900  0.0924 -0.3369
  106MOL0     H14573   8.431   8.756   9.730  2.4625  3.7643  1.2101
  106MOL0     H14574   8.445   8.602   9.836 -1.4641 -0.9963  1.9882
  106MOL0     H14575   8.583   8.876   9.878  1.4683 -0.5408 -0.9495
  106MOL0     H14576   8.603   8.731   9.978 -0.7900  1.1887  0.5934
  106MOL0     H14577   8.731   8.528   9.881 -2.0960  1.0514  0.4237
  106MOL0     H14578   8.970   8.481   9.571 -0.0774 -1.5941 -1.3971
  106MOL0     H14579   8.843   8.369   9.614  1.8783 -2.0070  0.1275
  106MOL0     H14580   9.018   8.480   9.836  1.5267 -1.5972  0.7862
  106MOL0     H14581   8.924   8.331   9.832  0.5669 -0.8745  0.3663
  106MOL0     H14582   9.072   8.237   9.663 -0.5623  0.3169  1.1149
  106MOL0     H14583   9.168   8.385   9.646 -1.0673 -0.1166 -1.6774
  106MOL0     H14584   9.137   8.222   9.899  1.0532 -0.9281 -0.6895
  106MOL0     H14585   9.252   8.180   9.775 -1.7841 -1.5614 -1.3739
  106MOL0     H14586   9.485   8.516   9.923  0.0910  0.6921  2.2947
  106MOL0     H14587   9.808   8.457   9.999  1.1813  2.5231 -0.1311
  106MOL0     H14588   9.728   8.539  10.137 -0.0810 -0.0007  0.0827
  106MOL0     H14589   9.683   8.595   9.982 -1.4367  0.7625  3.3405
  106MOL0     H14590  10.003   8.512  10.222  2.4090 -1.5126 -4.0856
  106MOL0     H14591  10.208   8.515  10.370 -0.6630  1.2174  0.1438
  106MOL0     H14592  10.423   8.459  10.408 -2.2344  0.6042 -1.2626
  106MOL0     H14593  10.343   8.491  10.561  1.1048  1.5666 -0.4253
  106MOL0     H14594  10.567   8.476  10.602 -2.3783  0.0450  1.8844
  106MOL0     H14595  10.511   8.316  10.664 -2.4657  1.6803  1.1048
  106MOL0     H14596  10.656   8.381  10.414  2.4506  2.5971  3.2467
  106MOL0     H14597  10.559   8.238  10.422  0.2468 -0.7893  0.1045
  106MOL0     H14598  10.722   8.174  10.621  0.9182 -2.6672 -2.1233
  106MOL0     H14599  10.804   8.332  10.581  0.4244 -0.1947 -0.5409
  106MOL0     H14600  10.790   8.087  10.410  0.9165  0.0283 -1.0603
  106MOL0     H14601  10.856   8.243  10.361 -3.2090  0.1651  0.6590
  106MOL0     H14602  10.960   8.103  10.613 -0.7591  0.5807  0.1171
  106MOL0     H14603  11.024   8.235  10.523 -1.9514  1.4024 -2.7917
  106MOL0     H14604  11.111   8.087  10.353 -1.5606 -0.2712 -1.3931
  106MOL0     H14605  10.998   7.967  10.382  1.1832  0.2753 -1.3362
  106MOL0     H14606  11.236   8.031  10.560 -1.7225  1.1053  0.8639
  106MOL0     H14607  11.234   7.905  10.452 -2.8035  0.0553 -3.2720
  106MOL0     H14608  10.158   8.098  10.440  1.7561  1.0423  1.2350
  106MOL0     H14609   9.941   8.105  10.353 -0.4339 -0.3841  2.7966
  106MOL0     H14610   9.523   8.087  10.145 -0.0448  1.0412 -0.9313
  106MOL0     H14611   9.332   8.122  10.003 -0.0410 -0.6981 -1.3473
  106MOL0     H14612   7.416   8.951  10.041  0.6800 -2.7103  0.4324
  106MOL0     H14613   7.180   8.908  10.006  1.1516 -0.3264  0.7695
  106MOL0     H14614   6.930   8.617   9.788  1.3469  2.2519 -0.0508
  106MOL0     H14615   6.735   8.487   9.716  1.4507  0.5663  0.4134
  106MOL0     H14616   6.508   8.460   9.761  2.6810  0.6951 -1.5637
  106MOL0     H14617   6.355   8.451   9.669  0.0405 -0.8018 -1.2939
  106MOL0     H14618   6.537   8.258   9.617  2.1155  0.3179 -0.1918
  106MOL0     H14619   6.614   8.380   9.522 -0.1769  1.8344 -0.8024
  106MOL0     H14620   6.367   8.419   9.416  0.7387  0.7760 -1.6484
  106MOL0     H14621   6.484   8.300   9.361  2.6261 -0.5994  2.1526
  106MOL0     H14622   6.258   8.246   9.579 -1.2814 -1.3272 -0.0285
  106MOL0     H14623   6.373   8.122   9.522 -0.0236 -1.0048 -0.4246
  106MOL0     H14624   6.110   8.098   9.203 -0.0940  4.2670 -2.5688
  106MOL0     H14625   6.571   8.825   9.509  1.1404 -0.0836 -1.4975
  106MOL0     H14626   6.853   8.998   9.463  1.0648 -1.7914  1.4293
  106MOL0     H14627   6.692   9.024   9.484 -1.1148 -1.2208  0.7145
  106MOL0     H14628   6.785   9.074   9.620 -3.5701  0.6677 -0.1985
  107MOL0     O14629   4.252   1.087   3.445 -0.0757  0.3918 -0.0520
  107MOL0     C14630   4.272   1.067   3.326 -0.3925  0.1933  0.5537
  107MOL0     O14631   4.391   1.106   3.263 -0.6189  0.2279  0.8421
  107MOL0     C14632   4.492   1.153   3.343  0.1157 -0.2807 -0.7844
  107MOL0     C14633   4.589   1.069   3.386 -0.3550  0.2579  0.4520
  107MOL0     C14634   4.693   1.122   3.462  0.0589 -0.0885  0.2070
  107MOL0     C14635   4.689   1.254   3.518  0.6001 -0.0470 -0.2150
  107MOL0     O14636   4.782   1.287   3.606  0.3944 -0.6041 -0.2452
  107MOL0     C14637   4.852   1.410   3.598 -0.2091  0.3456  0.3977
  107MOL0     C14638   4.803   1.502   3.703  0.1453 -0.2646  0.3509
  107MOL0     C14639   4.894   1.627   3.715  0.5047  0.6213  1.0394
  107MOL0     C14640   4.854   1.693   3.855 -0.4934  0.5199 -0.3875
  107MOL0     C14641   4.957   1.801   3.883 -0.4438  0.1866 -0.6826
  107MOL0     C14642   4.948   1.885   4.020 -0.2136 -0.4398  0.5467
  107MOL0     C14643   5.073   1.967   4.065 -0.6030 -0.0732  1.0305
  107MOL0     C14644   5.104   2.099   3.989  0.2642 -0.7183 -0.4792
  107MOL0     N14645   5.005   2.194   4.024  0.1938  1.0090 -0.1107
  107MOL0     C14646   5.014   2.281   4.129  0.3303 -1.0423  0.0493
  107MOL0     C14647   4.912   2.365   4.111  1.2482 -0.6360 -0.0268
  107MOL0     C14648   4.867   2.471   4.208 -0.2465 -0.3112 -0.1415
  107MOL0     C14649   4.779   2.414   4.317 -0.4677 -0.1120 -0.2192
  107MOL0     C14650   4.661   2.333   4.253  0.1774 -0.6663 -0.9514
  107MOL0     C14651   4.546   2.297   4.346  0.5225  0.0726  0.1382
  107MOL0     O14652   4.550   2.156   4.374  0.7773 -0.0323 -0.2734
  107MOL0     C14653   4.659   2.111   4.440 -0.2985 -0.3370  0.5403
  107MOL0     C14654   4.685   2.133   4.578 -0.1651  0.6140 -0.4543
  107MOL0     C14655   4.794   2.062   4.635 -0.2330 -0.1895  0.5393
  107MOL0     C14656   4.829   2.082   4.782 -0.6190  0.2525  0.0641
  107MOL0     C14657   4.877   1.987   4.553 -0.6143  0.7010  0.4640
  107MOL0     C14658   4.993   1.908   4.612  0.1730 -0.1708 -1.0173
  107MOL0     O14659   5.120   1.927   4.547 -0.1303 -0.3134 -0.5446
  107MOL0     C14660   5.235   1.873   4.601  0.4496 -0.4263  0.1221
  107MOL0     C14661   5.254   1.864   4.741 -0.9719 -0.3564 -0.3243
  107MOL0     C14662   5.377   1.819   4.785 -0.5576  0.2479  0.4874
  107MOL0     C14663   5.475   1.775   4.700  0.0242 -0.2992  0.2733
  107MOL0     O14664   5.598   1.726   4.742  0.2325 -0.6271  0.3524
  107MOL0     C14665   5.688   1.828   4.789 -0.2046  0.4015  0.8430
  107MOL0     C14666   5.766   1.884   4.668  0.0071 -0.5533  0.6238
  107MOL0     C14667   5.826   2.019   4.708  0.4222  0.5972 -0.2437
  107MOL0     C14668   5.905   2.077   4.592  0.2095  0.5629  0.2162
  107MOL0     C14669   5.930   2.224   4.615  0.2581  0.7283  0.1451
  107MOL0     C14670   6.067   2.236   4.689  0.6186  0.3211  0.5832
  107MOL0     C14671   6.074   2.363   4.766  0.3326  0.3397 -0.5285
  107MOL0     C14672   6.213   2.392   4.818 -0.0094  0.8101 -0.1236
  107MOL0    Cl14673   6.333   2.400   4.684 -0.1102 -0.9836 -0.1393
  107MOL0     C14674   5.444   1.768   4.562 -0.0086 -0.0478 -0.3516
  107MOL0     C14675   5.333   1.832   4.511  1.0128  0.6509 -0.1900
  107MOL0     O14676   4.969   1.831   4.704 -0.1712  0.2398 -0.7222
  107MOL0     C14677   4.857   1.971   4.421  0.2205  0.9341 -0.5642
  107MOL0     C14678   4.751   2.035   4.364 -0.2250 -0.5409  0.5249
  107MOL0     N14679   4.839   2.329   3.994 -0.3909 -0.1568 -0.6566
  107MOL0     N14680   4.899   2.230   3.942  0.2696 -0.0272 -0.2564
  107MOL0     C14681   4.588   1.339   3.464 -0.8420 -0.3197 -1.0227
  107MOL0     C14682   4.491   1.286   3.378  0.5659 -0.9469  0.0008
  107MOL0     C14683   4.176   0.983   3.257  0.7550  0.0016  1.1111
  107MOL0     C14684   4.060   0.952   3.313 -0.2314  0.3075 -0.7175
  107MOL0     C14685   3.974   0.865   3.265 -0.2625  0.1330 -0.1500
  107MOL0     C14686   3.967   0.821   3.134 -0.4465  0.1727  0.8253
  107MOL0     O14687   3.870   0.734   3.081  0.1762 -0.5070  0.0394
  107MOL0     C14688   3.800   0.768   2.953 -0.0489  0.3664  0.1771
  107MOL0     C14689   3.689   0.859   2.975  0.2735 -0.0619  0.2054
  107MOL0     C14690   3.572   0.801   3.060 -0.2080  0.6338  0.3628
  107MOL0     C14691   3.465   0.901   3.059  0.6213  0.4585 -0.1297
  107MOL0     C14692   3.490   1.040   3.111 -0.3955 -0.4189  0.7424
  107MOL0     C14693   3.515   1.158   3.140 -0.6313  0.8676  0.0875
  107MOL0     C14694   4.082   0.854   3.057  0.7467  0.2747 -0.1197
  107MOL0     C14695   4.189   0.933   3.118  0.2360  0.4074  0.1708
  107MOL0     C14696   4.311   0.942   3.037 -0.9723  0.0555  0.4281
  107MOL0     H14697   4.590   0.961   3.370  1.7578  0.2153  0.5712
  107MOL0     H14698   4.767   1.050   3.494 -0.9948 -1.3160 -0.0144
  107MOL0     H14699   4.842   1.459   3.501 -3.3543  1.6173  1.2339
  107MOL0     H14700   4.960   1.391   3.601  0.0708  1.6851 -0.4849
  107MOL0     H14701   4.704   1.538   3.675  1.0106  1.1701 -1.0018
  107MOL0     H14702   4.782   1.450   3.797 -1.0678 -1.1090 -0.3561
  107MOL0     H14703   4.999   1.598   3.704 -0.1968 -1.5382 -0.6715
  107MOL0     H14704   4.873   1.698   3.634  0.3346  1.8301  2.1254
  107MOL0     H14705   4.755   1.738   3.853 -1.0813 -0.7534 -1.5647
  107MOL0     H14706   4.857   1.623   3.939 -0.3124 -2.2029 -2.4912
  107MOL0     H14707   4.945   1.874   3.803 -2.6517  1.3173  0.6094
  107MOL0     H14708   5.049   1.743   3.871 -0.1661  0.3381  0.5498
  107MOL0     H14709   4.860   1.948   4.005 -1.7438 -2.8697 -1.5931
  107MOL0     H14710   4.922   1.819   4.102 -1.1478 -0.8890 -0.0951
  107MOL0     H14711   5.156   1.894   4.065 -1.9288 -1.6505  1.6083
  107MOL0     H14712   5.070   1.993   4.172  1.5362 -1.1323  1.4112
  107MOL0     H14713   5.206   2.132   4.009 -1.0315  3.9251 -0.3807
  107MOL0     H14714   5.108   2.089   3.880 -2.4258  2.5345 -1.0250
  107MOL0     H14715   5.091   2.290   4.206  1.6200 -0.2296 -1.2896
  107MOL0     H14716   4.819   2.554   4.155 -4.6949 -2.5490  0.0088
  107MOL0     H14717   4.956   2.521   4.249 -0.1428  1.9268 -2.7668
  107MOL0     H14718   4.843   2.351   4.380 -1.4279  1.3568  2.3713
  107MOL0     H14719   4.729   2.492   4.374 -1.5088  0.0748 -1.3481
  107MOL0     H14720   4.609   2.397   4.181 -1.5248 -0.7247  0.1654
  107MOL0     H14721   4.692   2.244   4.199  3.4736 -0.5410  0.4915
  107MOL0     H14722   4.549   2.363   4.432  0.5490 -1.5154  1.4028
  107MOL0     H14723   4.454   2.328   4.295 -0.2707 -1.4696  0.5678
  107MOL0     H14724   4.626   2.205   4.633  1.9638  1.6832  0.5564
  107MOL0     H14725   4.806   2.184   4.816  0.6237  1.2644 -1.9050
  107MOL0     H14726   4.936   2.072   4.799 -0.6062  1.3228  0.7063
  107MOL0     H14727   4.786   2.003   4.844  1.2125 -2.0962 -1.4822
  107MOL0     H14728   5.180   1.895   4.814 -1.1922 -0.7645 -0.3680
  107MOL0     H14729   5.399   1.815   4.891  0.4977 -4.6871  0.3038
  107MOL0     H14730   5.631   1.897   4.852 -1.8373  0.2588 -0.3922
  107MOL0     H14731   5.759   1.772   4.850 -1.7549 -1.0046  1.4125
  107MOL0     H14732   5.841   1.814   4.631  2.6378  2.1438  0.4762
  107MOL0     H14733   5.703   1.899   4.580  1.4209  2.0236 -0.0664
  107MOL0     H14734   5.889   2.004   4.796 -0.6292  1.4158  0.6738
  107MOL0     H14735   5.741   2.085   4.728  0.3335  0.8584 -1.3932
  107MOL0     H14736   5.844   2.063   4.502  0.5070  3.5825 -0.5568
  107MOL0     H14737   6.001   2.027   4.576  0.8911  1.7145  0.6612
  107MOL0     H14738   5.943   2.271   4.517 -0.0392 -2.4238 -1.5435
  107MOL0     H14739   5.854   2.272   4.677  3.2333  2.5376  2.6414
  107MOL0     H14740   6.155   2.211   4.629  0.7748  1.6993  0.2028
  107MOL0     H14741   6.070   2.159   4.766  2.0976 -0.7380 -0.4843
  107MOL0     H14742   6.004   2.354   4.850 -0.0699 -1.1034 -0.9854
  107MOL0     H14743   6.053   2.450   4.704 -1.2941  1.0599  0.9509
  107MOL0     H14744   6.235   2.313   4.891 -0.9498  0.7488  0.1064
  107MOL0     H14745   6.224   2.487   4.871  1.4245 -0.0250  1.1481
  107MOL0     H14746   5.516   1.724   4.493  1.7099  1.5973  0.3351
  107MOL0     H14747   5.309   1.824   4.405 -2.0405  0.9027  0.3841
  107MOL0     H14748   4.920   1.918   4.349  2.8925 -0.1992  2.3756
  107MOL0     H14749   4.730   2.014   4.259 -1.9496 -1.8272  1.0860
  107MOL0     H14750   4.582   1.440   3.504 -2.6056 -0.5262 -0.6514
  107MOL0     H14751   4.411   1.353   3.348  2.0098  0.0958 -1.7209
  107MOL0     H14752   4.044   0.981   3.417  4.3302 -0.0850  0.2813
  107MOL0     H14753   3.898   0.835   3.336  1.5603  0.9723  2.2944
  107MOL0     H14754   3.870   0.816   2.885  0.1303 -1.4607 -0.9942
  107MOL0     H14755   3.756   0.677   2.912 -2.3539  1.6853 -0.4522
  107MOL0     H14756   3.648   0.867   2.874 -0.6513  0.7667  0.6271
  107MOL0     H14757   3.727   0.957   3.007  0.8283 -0.0130 -0.5877
  107MOL0     H14758   3.538   0.706   3.016  3.3897 -0.2227 -0.9352
  107MOL0     H14759   3.600   0.795   3.165  0.8330  1.4838  0.1459
  107MOL0     H14760   3.379   0.853   3.106 -0.4802  0.6407 -1.8499
  107MOL0     H14761   3.434   0.928   2.957  0.3484  1.1311  0.1232
  107MOL0     H14762   3.540   1.252   3.185 -1.1970  1.1680 -0.2168
  107MOL0     H14763   4.097   0.813   2.958 -1.8537 -0.4501 -0.2901
  107MOL0     H14764   4.313   0.876   2.950  0.4006 -0.4327  0.8084
  107MOL0     H14765   4.338   1.043   3.003  0.9363 -1.1974 -2.1831
  107MOL0     H14766   4.399   0.923   3.100 -0.8520  2.1106  0.9577
  108MOL0     O14767   6.502   9.025   6.926 -0.7499 -0.0416  0.1485
  108MOL0     C14768   6.459   8.913   6.959 -0.2670 -0.4131  0.6168
  108MOL0     O14769   6.527   8.822   7.027 -0.1335  0.1904  0.6652
  108MOL0     C14770   6.656   8.850   7.061 -0.5963 -0.3669 -0.1569
  108MOL0     C14771   6.757   8.820   6.970 -0.1587  0.5753 -0.4538
  108MOL0     C14772   6.893   8.829   7.010  0.2215 -0.3947 -1.4117
  108MOL0     C14773   6.936   8.883   7.137  0.6362 -0.3586  0.5689
  108MOL0     O14774   7.066   8.920   7.180  1.0416  0.2348 -0.4222
  108MOL0     C14775   7.173   8.856   7.104 -1.0016  0.2328 -0.5149
  108MOL0     C14776   7.295   8.887   7.186  0.6178 -0.1225  0.5003
  108MOL0     C14777   7.418   8.916   7.102  0.0521  0.4765  1.0374
  108MOL0     C14778   7.545   8.922   7.189 -0.7533  0.3954 -0.2329
  108MOL0     C14779   7.668   8.918   7.099 -0.0638 -0.4142 -0.2203
  108MOL0     C14780   7.802   8.906   7.165 -0.0618 -0.6197  0.4865
  108MOL0     C14781   7.920   8.909   7.068  0.0553  0.2228 -1.0374
  108MOL0     C14782   8.061   8.891   7.128  0.2444 -1.1397  0.3806
  108MOL0     N14783   8.170   8.862   7.028  0.7124 -0.2484 -0.7384
  108MOL0     C14784   8.204   8.731   6.986  0.0573 -0.2259  0.1100
  108MOL0     C14785   8.302   8.766   6.890  0.1005  0.2909  0.5198
  108MOL0     C14786   8.385   8.668   6.807  0.5310  0.1139 -0.7506
  108MOL0     C14787   8.535   8.699   6.821 -0.2980 -0.4613  0.0539
  108MOL0     C14788   8.623   8.568   6.807 -0.4821  0.2654  0.0533
  108MOL0     C14789   8.771   8.590   6.775 -0.6491  0.1287  0.0377
  108MOL0     O14790   8.834   8.466   6.736 -0.6128  0.0884  0.0569
  108MOL0     C14791   8.979   8.473   6.727 -0.2245 -0.6578  0.1774
  108MOL0     C14792   9.055   8.592   6.708 -0.3890 -0.5667 -0.4453
  108MOL0     C14793   9.198   8.593   6.701 -0.7174  0.1026 -0.1103
  108MOL0     C14794   9.261   8.731   6.698 -0.6607  0.1479 -0.3791
  108MOL0     C14795   9.267   8.467   6.692 -0.2654  0.8690 -0.3147
  108MOL0     C14796   9.416   8.454   6.666 -0.5269 -0.2132 -0.0999
  108MOL0     O14797   9.465   8.328   6.675 -1.2710  0.0052  0.1301
  108MOL0     C14798   9.599   8.316   6.650 -0.4668 -0.1335 -0.1162
  108MOL0     C14799   9.638   8.336   6.519 -0.6065  0.6378  0.4727
  108MOL0     C14800   9.769   8.309   6.480  0.6342  0.8981  0.6916
  108MOL0     C14801   9.869   8.281   6.575 -0.4184  0.3206  0.3456
  108MOL0     O14802   9.990   8.240   6.523  0.2529  0.1272  0.3655
  108MOL0     C14803  10.100   8.284   6.606 -0.5974 -0.7123  0.8190
  108MOL0     C14804  10.228   8.299   6.526 -0.2429 -1.0914 -0.1027
  108MOL0     C14805  10.204   8.400   6.411 -0.6334  0.4290  0.9522
  108MOL0     C14806  10.337   8.439   6.353  0.1418  1.0270  1.1077
  108MOL0     C14807  10.324   8.515   6.214 -0.2699  0.2718 -0.9002
  108MOL0     C14808  10.460   8.526   6.144  0.3187  0.5064 -0.5221
  108MOL0     C14809  10.465   8.620   6.022 -0.5663  0.2562  0.3575
  108MOL0     C14810  10.436   8.768   6.056  0.7139 -0.2231 -1.1816
  108MOL0    Cl14811  10.402   8.860   5.908 -0.1229  0.0274  0.2178
  108MOL0     C14812   9.829   8.266   6.709  0.2485  0.7171 -0.0064
  108MOL0     C14813   9.693   8.281   6.745 -0.8771  0.7265  0.6857
  108MOL0     O14814   9.481   8.556   6.640 -0.4264  0.4505  0.3178
  108MOL0     C14815   9.189   8.352   6.693  0.4635 -0.2551  0.5556
  108MOL0     C14816   9.051   8.351   6.703 -0.3684 -0.1827 -0.8905
  108MOL0     N14817   8.327   8.900   6.887  0.5470  0.1286 -0.5817
  108MOL0     N14818   8.257   8.958   6.971 -0.5967  0.2565  0.0784
  108MOL0     C14819   6.830   8.919   7.222  0.2091 -0.0665  0.4177
  108MOL0     C14820   6.696   8.897   7.185  0.1216  0.5060  0.1054
  108MOL0     C14821   6.325   8.871   6.898 -0.1237 -0.0783 -0.4750
  108MOL0     C14822   6.292   8.736   6.905 -0.0534 -0.4642 -0.0531
  108MOL0     C14823   6.174   8.685   6.864  0.0767  0.3681 -0.2188
  108MOL0     C14824   6.068   8.771   6.820 -0.2555 -0.4867  0.3958
  108MOL0     O14825   5.945   8.727   6.766 -0.3689  0.2766 -0.2637
  108MOL0     C14826   5.911   8.584   6.777  0.4973 -0.1391 -0.7165
  108MOL0     C14827   5.768   8.558   6.745 -0.8699 -0.1819  0.0877
  108MOL0     C14828   5.670   8.642   6.832  0.0626 -0.0126  0.0656
  108MOL0     C14829   5.534   8.619   6.764  0.0755  0.0757  0.2982
  108MOL0     C14830   5.471   8.487   6.782  0.5119  0.6762 -0.1798
  108MOL0     C14831   5.412   8.381   6.809  0.3735 -0.3826 -0.4484
  108MOL0     C14832   6.090   8.915   6.822 -0.6795  0.0978 -0.2997
  108MOL0     C14833   6.214   8.960   6.860  0.1306  0.6264 -0.5420
  108MOL0     C14834   6.213   9.109   6.889 -0.8197  0.3643  0.5144
  108MOL0     H14835   6.736   8.784   6.870 -2.2723  3.3883 -1.1399
  108MOL0     H14836   6.965   8.786   6.941 -0.1344 -2.2375 -0.7021
  108MOL0     H14837   7.171   8.914   7.011 -4.0172  0.4634 -0.4056
  108MOL0     H14838   7.166   8.748   7.097 -1.3735  0.1143  1.2377
  108MOL0     H14839   7.274   8.961   7.264  0.4131 -0.2772  0.5944
  108MOL0     H14840   7.307   8.799   7.251 -0.1562  1.4846  2.9663
  108MOL0     H14841   7.420   8.837   7.027  1.0261  1.8174 -0.3965
  108MOL0     H14842   7.406   9.012   7.051 -2.2513 -0.3772 -0.1818
  108MOL0     H14843   7.531   9.012   7.250 -3.7926 -1.6298  2.3625
  108MOL0     H14844   7.548   8.839   7.260 -1.6970  0.2220 -0.3818
  108MOL0     H14845   7.676   9.003   7.030  1.5223  1.3268  1.9687
  108MOL0     H14846   7.652   8.824   7.046  0.9896 -1.4375  1.1975
  108MOL0     H14847   7.818   8.993   7.230  1.1086  0.4036 -1.0968
  108MOL0     H14848   7.801   8.813   7.222 -1.7178  0.0277  1.5997
  108MOL0     H14849   7.915   9.005   7.017 -1.6712  0.6719 -0.0936
  108MOL0     H14850   7.919   8.836   6.987 -0.8073 -1.9461  0.8066
  108MOL0     H14851   8.084   8.984   7.181 -0.2055  0.2599 -1.7908
  108MOL0     H14852   8.062   8.807   7.199  0.0070 -0.5725  1.0669
  108MOL0     H14853   8.166   8.635   7.019  0.0705 -0.2488  0.0586
  108MOL0     H14854   8.355   8.684   6.703 -2.7159  0.6947  0.1684
  108MOL0     H14855   8.360   8.563   6.828  0.9719  0.5326  2.2331
  108MOL0     H14856   8.568   8.766   6.741  1.1472  0.9948  1.8049
  108MOL0     H14857   8.562   8.746   6.915  1.5505 -0.7238 -0.3128
  108MOL0     H14858   8.612   8.514   6.901 -0.0416  1.3377  0.7454
  108MOL0     H14859   8.593   8.509   6.720  0.7481  0.6931 -0.6882
  108MOL0     H14860   8.776   8.669   6.699 -0.2958  1.8491  1.7796
  108MOL0     H14861   8.817   8.628   6.866  0.2011 -2.0813  0.6025
  108MOL0     H14862   9.003   8.687   6.713  1.3762  0.4207 -0.1625
  108MOL0     H14863   9.354   8.739   6.756 -0.2151  3.1483 -1.3144
  108MOL0     H14864   9.184   8.804   6.723 -1.1630 -1.2230  2.6291
  108MOL0     H14865   9.298   8.752   6.598 -0.2477 -1.8422 -0.6839
  108MOL0     H14866   9.574   8.380   6.444  1.8432  1.3561 -1.3536
  108MOL0     H14867   9.800   8.327   6.377  2.3865 -2.4398  0.4769
  108MOL0     H14868  10.073   8.377   6.658  1.4755  0.9267 -0.8182
  108MOL0     H14869  10.120   8.211   6.685 -0.8728 -0.7506  0.8558
  108MOL0     H14870  10.305   8.327   6.600 -0.6439  1.3490 -0.5289
  108MOL0     H14871  10.252   8.199   6.489 -3.2840 -1.2060 -2.0660
  108MOL0     H14872  10.152   8.488   6.449  0.3552  0.3779  2.4800
  108MOL0     H14873  10.142   8.362   6.330 -1.4847 -2.5465  2.8632
  108MOL0     H14874  10.386   8.344   6.332 -0.6964  1.1116 -1.5913
  108MOL0     H14875  10.395   8.502   6.422  0.0880  2.6646 -0.2756
  108MOL0     H14876  10.246   8.472   6.150 -2.4601  1.0917  1.0936
  108MOL0     H14877  10.288   8.616   6.232  0.9114  0.6743 -0.6850
  108MOL0     H14878  10.498   8.427   6.116 -1.0219  0.4799 -2.5324
  108MOL0     H14879  10.524   8.570   6.221 -0.0691 -0.6534  0.4949
  108MOL0     H14880  10.399   8.582   5.943  0.1022 -0.6491  0.2218
  108MOL0     H14881  10.567   8.614   5.982 -0.4168  0.2786  0.7345
  108MOL0     H14882  10.517   8.820   6.108 -1.5135  1.6439  0.6136
  108MOL0     H14883  10.348   8.785   6.118  2.9756  2.0921  1.7040
  108MOL0     H14884   9.907   8.248   6.782 -0.6327 -0.0209  0.7862
  108MOL0     H14885   9.671   8.270   6.850  1.8741  1.0936  1.3803
  108MOL0     H14886   9.238   8.258   6.672 -1.6953 -1.4429  0.4694
  108MOL0     H14887   8.999   8.256   6.712 -0.8748  0.1217 -0.5439
  108MOL0     H14888   6.852   8.972   7.314 -0.5271  0.4726  0.2865
  108MOL0     H14889   6.611   8.931   7.242  1.0779  0.6152  1.5065
  108MOL0     H14890   6.374   8.672   6.932 -1.2424 -1.3785  1.5637
  108MOL0     H14891   6.165   8.578   6.871 -2.2101  0.3303 -2.0255
  108MOL0     H14892   5.982   8.530   6.714  2.6471  0.9090  0.6491
  108MOL0     H14893   5.925   8.557   6.883 -1.8213  3.5016  0.7229
  108MOL0     H14894   5.749   8.450   6.746 -0.8172 -0.1894  0.2422
  108MOL0     H14895   5.763   8.593   6.641 -2.7505  0.6513  0.4206
  108MOL0     H14896   5.669   8.614   6.938  1.9908 -0.2531  0.0552
  108MOL0     H14897   5.690   8.749   6.821 -0.2562  0.2385  1.6339
  108MOL0     H14898   5.544   8.628   6.655 -0.9567 -0.4905  0.1409
  108MOL0     H14899   5.468   8.701   6.793 -2.0136 -1.4306  0.0563
  108MOL0     H14900   5.364   8.286   6.828  1.9188 -0.8130  1.6107
  108MOL0     H14901   6.000   8.973   6.806 -1.4457 -0.9607 -0.0134
  108MOL0     H14902   6.308   9.150   6.853 -1.0880 -1.1653 -2.1698
  108MOL0     H14903   6.141   9.152   6.820  1.4058  0.7710 -1.7289
  108MOL0     H14904   6.195   9.144   6.991 -1.5699  2.6413 -0.3428
  109MOL0     O14905   2.948   2.341   3.595 -0.4844  0.5302 -0.2737
  109MOL0     C14906   2.876   2.284   3.678  0.3950 -0.0312  0.3365
  109MOL0     O14907   2.881   2.157   3.716  0.0976 -0.0114 -0.0710
  109MOL0     C14908   3.000   2.090   3.694  0.4453  0.3803 -1.2150
  109MOL0     C14909   3.119   2.123   3.755  0.0471  0.1829  0.6952
  109MOL0     C14910   3.233   2.044   3.748  0.2124 -0.2150 -0.4615
  109MOL0     C14911   3.237   1.927   3.669 -0.3589  0.4664 -1.0988
  109MOL0     O14912   3.344   1.840   3.657 -0.1091 -0.1563  1.0312
  109MOL0     C14913   3.450   1.854   3.744  0.0679  0.5833 -0.1197
  109MOL0     C14914   3.562   1.774   3.678  0.0970 -0.0128 -0.7409
  109MOL0     C14915   3.630   1.839   3.557 -0.2714 -0.6615  0.4605
  109MOL0     C14916   3.742   1.764   3.479 -0.3004  0.3180 -1.3272
  109MOL0     C14917   3.763   1.822   3.339  0.1456  0.1574  0.4364
  109MOL0     C14918   3.841   1.725   3.253 -0.5191  0.3446  0.6703
  109MOL0     C14919   3.872   1.781   3.107 -0.0324  0.6587  0.4547
  109MOL0     C14920   3.972   1.705   3.030 -0.7117 -0.0881  0.2085
  109MOL0     N14921   3.919   1.613   2.930 -0.5387 -0.3230 -0.3372
  109MOL0     C14922   3.847   1.501   2.955  0.6350  0.4931  0.6015
  109MOL0     C14923   3.798   1.451   2.828 -0.0956  0.6897 -0.6937
  109MOL0     C14924   3.708   1.333   2.813  0.0828 -0.2786 -0.9670
  109MOL0     C14925   3.767   1.219   2.720  0.0272  0.0552  0.4465
  109MOL0     C14926   3.886   1.150   2.798 -0.1424  0.0993  0.2040
  109MOL0     C14927   3.940   1.028   2.724  0.3981 -1.2412 -0.2320
  109MOL0     O14928   3.993   1.062   2.593  0.3755  0.2500 -0.2438
  109MOL0     C14929   4.119   1.116   2.596 -0.5470  0.0461  0.0528
  109MOL0     C14930   4.176   1.146   2.468 -0.1013  0.6600 -0.2336
  109MOL0     C14931   4.310   1.180   2.461  0.1554  0.3286  0.6490
  109MOL0     C14932   4.375   1.204   2.326 -0.7698 -0.5974 -0.2609
  109MOL0     C14933   4.387   1.184   2.582 -0.0337  0.2264 -0.0061
  109MOL0     C14934   4.523   1.233   2.583 -1.1355  0.1781 -0.1143
  109MOL0     O14935   4.616   1.172   2.499  0.5180  0.3578 -0.0035
  109MOL0     C14936   4.744   1.213   2.523  0.1619  0.4913 -0.2172
  109MOL0     C14937   4.812   1.285   2.423 -0.2285 -0.2052 -0.2828
  109MOL0     C14938   4.951   1.318   2.450  0.3021  0.0390  0.7383
  109MOL0     C14939   5.013   1.271   2.561  0.1001 -0.7623  0.0834
  109MOL0     O14940   5.149   1.297   2.564  0.6411 -0.6485 -0.0995
  109MOL0     C14941   5.235   1.224   2.651 -0.8103  0.5969 -0.1039
  109MOL0     C14942   5.386   1.243   2.625 -0.3134 -0.4992 -0.2437
  109MOL0     C14943   5.440   1.379   2.669  0.0130 -0.2667  0.4937
  109MOL0     C14944   5.597   1.383   2.687  0.4931 -1.1763 -0.2445
  109MOL0     C14945   5.647   1.516   2.679 -0.4600 -0.2620  0.6103
  109MOL0     C14946   5.578   1.616   2.771 -0.1893  0.3651  0.1486
  109MOL0     C14947   5.650   1.748   2.787  1.4452 -0.2353 -0.4927
  109MOL0     C14948   5.785   1.738   2.866 -0.3947 -0.5512  0.6951
  109MOL0    Cl14949   5.761   1.661   3.030 -0.1712  0.2269  0.4700
  109MOL0     C14950   4.943   1.199   2.657 -0.2604 -0.2798  0.2219
  109MOL0     C14951   4.805   1.167   2.644  0.0101 -0.4289 -0.1920
  109MOL0     O14952   4.546   1.341   2.632 -0.3800  0.1494 -0.3333
  109MOL0     C14953   4.328   1.167   2.705 -0.2104  0.3658  0.5333
  109MOL0     C14954   4.195   1.136   2.710 -0.0630 -0.0552 -0.4779
  109MOL0     N14955   3.843   1.541   2.737  0.5804  0.1974  0.5368
  109MOL0     N14956   3.911   1.634   2.795  0.5668 -0.3887  0.4398
  109MOL0     C14957   3.124   1.886   3.599  0.6282 -0.0013  0.1403
  109MOL0     C14958   3.001   1.973   3.620  0.0261  0.2985 -0.7977
  109MOL0     C14959   2.771   2.374   3.730 -0.5078 -0.6124 -1.2596
  109MOL0     C14960   2.754   2.501   3.682  0.3098 -0.2460  0.3928
  109MOL0     C14961   2.664   2.589   3.730 -0.3129  0.0611 -0.0374
  109MOL0     C14962   2.596   2.563   3.848  0.0600  0.2893 -0.1347
  109MOL0     O14963   2.508   2.645   3.922 -0.6771  0.0113  0.3761
  109MOL0     C14964   2.516   2.787   3.901 -0.3726 -0.0834 -0.4140
  109MOL0     C14965   2.397   2.859   3.970 -0.2435 -0.4418  0.6808
  109MOL0     C14966   2.436   2.958   4.079  0.0921  0.0383  0.3476
  109MOL0     C14967   2.319   3.030   4.161 -0.4864  0.7575  0.7824
  109MOL0     C14968   2.257   3.138   4.088  0.2488  0.5151  0.2277
  109MOL0     C14969   2.197   3.222   4.034  0.1418 -0.2375 -0.3226
  109MOL0     C14970   2.598   2.433   3.892  0.1029 -0.1706  0.7929
  109MOL0     C14971   2.679   2.340   3.835 -0.3142 -0.5295  0.9502
  109MOL0     C14972   2.682   2.212   3.911 -0.1706 -0.2515 -0.9147
  109MOL0     H14973   3.120   2.209   3.822 -1.1270  1.8024 -1.2408
  109MOL0     H14974   3.319   2.076   3.805 -0.3547 -1.1099  0.9535
  109MOL0     H14975   3.421   1.814   3.842 -2.7052 -0.4601 -1.2658
  109MOL0     H14976   3.485   1.956   3.760 -1.3767  0.9398  0.9631
  109MOL0     H14977   3.642   1.758   3.750  0.0557 -3.7444 -1.3195
  109MOL0     H14978   3.527   1.675   3.645 -1.0318 -0.1229  0.7249
  109MOL0     H14979   3.551   1.869   3.487  0.0669 -0.8165  0.0077
  109MOL0     H14980   3.678   1.932   3.588 -1.6605  0.6855 -1.1923
  109MOL0     H14981   3.834   1.755   3.537 -0.4942 -2.8428 -1.3162
  109MOL0     H14982   3.702   1.663   3.468  1.3715 -0.4189 -0.8655
  109MOL0     H14983   3.827   1.910   3.343 -0.5493  0.6688  0.5489
  109MOL0     H14984   3.667   1.838   3.288 -1.2350 -2.1285  2.1249
  109MOL0     H14985   3.932   1.686   3.299  0.1673  1.0429 -0.0766
  109MOL0     H14986   3.775   1.638   3.244 -0.9519  0.8121 -1.0964
  109MOL0     H14987   3.899   1.887   3.116  0.0231  0.6104  0.8983
  109MOL0     H14988   3.778   1.780   3.052 -0.7266 -0.8860  1.6022
  109MOL0     H14989   4.047   1.767   2.980  0.2444 -2.3026 -1.2333
  109MOL0     H14990   4.023   1.640   3.102  3.3213 -0.4676 -2.6713
  109MOL0     H14991   3.830   1.460   3.054  1.4649  1.7136  1.2695
  109MOL0     H14992   3.615   1.364   2.766 -1.4320 -2.2941  0.5305
  109MOL0     H14993   3.683   1.302   2.915  2.8811  0.7652  0.1443
  109MOL0     H14994   3.688   1.150   2.688  0.0436 -0.0825  0.6982
  109MOL0     H14995   3.797   1.269   2.628 -0.1032  2.0290  1.4316
  109MOL0     H14996   3.961   1.229   2.814 -0.8363  0.8794 -0.3031
  109MOL0     H14997   3.856   1.118   2.898 -1.4811  1.1797  0.1668
  109MOL0     H14998   4.010   0.970   2.786  1.3252 -2.1738 -2.0645
  109MOL0     H14999   3.869   0.945   2.715  2.6061 -3.2243 -0.6040
  109MOL0     H15000   4.120   1.143   2.376 -0.6558 -0.1568  0.1196
  109MOL0     H15001   4.396   1.311   2.322 -1.6999 -0.4322 -3.5252
  109MOL0     H15002   4.304   1.206   2.243 -0.4115  1.1066 -0.5588
  109MOL0     H15003   4.455   1.133   2.306 -1.8936 -2.2379  0.8092
  109MOL0     H15004   4.754   1.333   2.344 -1.1989  1.0582  1.1321
  109MOL0     H15005   5.016   1.369   2.379 -1.4186  2.2762  0.6560
  109MOL0     H15006   5.206   1.238   2.755 -2.5379  0.0398 -0.4818
  109MOL0     H15007   5.212   1.117   2.641 -3.1954  1.0316  0.2992
  109MOL0     H15008   5.434   1.161   2.679 -1.3649 -0.4183  0.8753
  109MOL0     H15009   5.418   1.233   2.521 -1.5299  1.0879 -0.8245
  109MOL0     H15010   5.390   1.417   2.759 -0.7886  1.0106 -0.4493
  109MOL0     H15011   5.410   1.451   2.592 -0.9833 -1.2013 -0.0145
  109MOL0     H15012   5.642   1.323   2.607  3.8009 -0.4137  0.8880
  109MOL0     H15013   5.628   1.339   2.782  2.0305  2.5758  1.1972
  109MOL0     H15014   5.755   1.524   2.687 -0.5177  0.0199  1.1484
  109MOL0     H15015   5.621   1.547   2.577 -0.5706 -1.6340  0.2018
  109MOL0     H15016   5.563   1.561   2.865  1.6799 -0.6360 -0.0858
  109MOL0     H15017   5.482   1.637   2.724 -1.3960  0.6479  2.5516
  109MOL0     H15018   5.581   1.817   2.836  1.7294 -1.1394  1.2602
  109MOL0     H15019   5.662   1.788   2.686  2.5848 -2.1629 -1.1820
  109MOL0     H15020   5.824   1.839   2.881 -1.1880 -0.4590  2.2901
  109MOL0     H15021   5.856   1.679   2.806  0.9942  1.4694  0.2560
  109MOL0     H15022   5.005   1.169   2.741  2.0101 -1.5665 -1.8068
  109MOL0     H15023   4.747   1.106   2.712  0.0414  0.7678  0.9457
  109MOL0     H15024   4.380   1.173   2.800 -0.3977  0.5064  0.6273
  109MOL0     H15025   4.163   1.113   2.811  2.3670  2.3723  1.0221
  109MOL0     H15026   3.130   1.801   3.531  0.4425 -0.7885  1.0732
  109MOL0     H15027   2.913   1.949   3.560 -0.0125  2.6569 -1.8072
  109MOL0     H15028   2.814   2.532   3.597 -0.7078  0.2512 -0.1672
  109MOL0     H15029   2.649   2.675   3.666 -0.1548 -0.4876 -0.8255
  109MOL0     H15030   2.605   2.837   3.940 -1.0378  2.3447 -1.8468
  109MOL0     H15031   2.515   2.818   3.796  1.7594  0.4086 -0.3223
  109MOL0     H15032   2.333   2.786   4.020 -0.2920 -1.1605 -0.3944
  109MOL0     H15033   2.332   2.893   3.889  0.9082 -2.8964 -1.4029
  109MOL0     H15034   2.496   2.906   4.154  1.8811  2.2450  0.5510
  109MOL0     H15035   2.493   3.039   4.032 -1.7538  0.7541 -0.7796
  109MOL0     H15036   2.361   3.088   4.244 -1.2657 -2.8752  4.0259
  109MOL0     H15037   2.248   2.956   4.198  0.7910  0.0911  1.9804
  109MOL0     H15038   2.132   3.298   3.995  0.2255  0.3085  0.5695
  109MOL0     H15039   2.527   2.411   3.970 -1.3235 -1.2782 -0.7433
  109MOL0     H15040   2.664   2.118   3.859 -2.8205 -0.5734  0.4291
  109MOL0     H15041   2.783   2.216   3.953  0.2702 -0.2038 -1.9494
  109MOL0     H15042   2.611   2.201   3.993  0.3891 -0.3298 -0.4385
  110MOL0     O15043   4.170   5.221   1.711 -0.2668 -0.7696  0.0695
  110MOL0     C15044   4.065   5.280   1.681  0.3172 -0.6438 -0.2785
  110MOL0     O15045   4.029   5.406   1.730 -0.0603 -0.6763  0.2507
  110MOL0     C15046   4.085   5.445   1.846 -0.3451 -0.6133 -0.0014
  110MOL0     C15047   4.020   5.404   1.957  0.2759 -0.5236 -0.1594
  110MOL0     C15048   4.065   5.445   2.083 -0.6690  0.8681  0.2400
  110MOL0     C15049   4.165   5.544   2.090 -0.3918  0.4670 -0.5784
  110MOL0     O15050   4.226   5.581   2.208  0.0714 -0.5307 -0.5120
  110MOL0     C15051   4.243   5.722   2.239  0.7345 -0.2729 -0.2412
  110MOL0     C15052   4.386   5.743   2.298 -0.5067 -0.2490  0.1063
  110MOL0     C15053   4.414   5.663   2.437  0.6134 -0.1485 -0.1199
  110MOL0     C15054   4.547   5.700   2.509  0.9022  0.0451 -1.2877
  110MOL0     C15055   4.559   5.630   2.639  0.5729 -0.1508 -0.9145
  110MOL0     C15056   4.691   5.676   2.714 -0.7562  0.3430 -0.6278
  110MOL0     C15057   4.732   5.576   2.820  0.2746  0.1977  0.2597
  110MOL0     C15058   4.815   5.625   2.937  0.7084 -0.2371  0.8047
  110MOL0     N15059   4.913   5.511   2.971  0.3108  0.2632 -0.2135
  110MOL0     C15060   4.885   5.395   3.044 -0.6744  1.0152 -0.5916
  110MOL0     C15061   5.007   5.342   3.072 -0.3274 -0.9006 -0.4517
  110MOL0     C15062   5.017   5.208   3.141  0.3108 -0.2807  0.0474
  110MOL0     C15063   4.984   5.201   3.298 -0.5776  0.9806  1.4030
  110MOL0     C15064   5.104   5.254   3.376  0.3692 -0.3210 -0.0421
  110MOL0     C15065   5.224   5.161   3.366 -0.7164 -0.3808 -0.4559
  110MOL0     O15066   5.329   5.204   3.456 -0.7550 -0.0990 -0.0102
  110MOL0     C15067   5.441   5.264   3.396 -0.5265  0.6443  0.4514
  110MOL0     C15068   5.430   5.365   3.301 -0.3741 -1.1262 -0.6546
  110MOL0     C15069   5.542   5.415   3.242 -0.0779  0.4731  0.8559
  110MOL0     C15070   5.519   5.534   3.151  0.1824 -0.5492 -0.2416
  110MOL0     C15071   5.674   5.367   3.261 -0.2574 -0.3105  0.2997
  110MOL0     C15072   5.792   5.418   3.182  0.3006 -0.4309 -0.2120
  110MOL0     O15073   5.788   5.448   3.047 -0.1372 -0.7099  0.3898
  110MOL0     C15074   5.910   5.478   2.978  0.1858  0.0433  0.3666
  110MOL0     C15075   6.043   5.425   3.011  0.1608 -0.0556 -0.5365
  110MOL0     C15076   6.148   5.448   2.926  0.9988  0.1725 -0.8462
  110MOL0     C15077   6.136   5.532   2.812  0.1414 -0.6286 -0.3885
  110MOL0     O15078   6.248   5.536   2.725  0.2070 -0.4222  0.4449
  110MOL0     C15079   6.253   5.640   2.622 -0.3346  0.4734 -0.9193
  110MOL0     C15080   6.397   5.656   2.555  0.4216  0.0091 -0.6031
  110MOL0     C15081   6.494   5.727   2.649 -0.4695  0.7667 -1.0914
  110MOL0     C15082   6.634   5.753   2.596 -0.1290 -0.2050  0.4738
  110MOL0     C15083   6.735   5.816   2.681  0.5969  0.1093 -0.0500
  110MOL0     C15084   6.867   5.816   2.610  0.4139 -0.1296 -0.4659
  110MOL0     C15085   6.967   5.899   2.689 -0.0180  0.3868 -0.0618
  110MOL0     C15086   7.047   5.992   2.602  0.4892  0.0102  0.5635
  110MOL0    Cl15087   7.145   5.910   2.472 -0.1267  0.0659 -0.1887
  110MOL0     C15088   6.017   5.606   2.803 -0.2681 -0.8344  0.7644
  110MOL0     C15089   5.903   5.571   2.878  0.6328 -0.3126 -0.0430
  110MOL0     O15090   5.891   5.430   3.247 -0.0072  0.9740 -0.2610
  110MOL0     C15091   5.685   5.263   3.352  0.5477 -0.9305  0.1722
  110MOL0     C15092   5.569   5.217   3.420  0.0438  0.8583 -1.0974
  110MOL0     N15093   5.105   5.425   3.031  0.5960 -0.0551 -0.1929
  110MOL0     N15094   5.053   5.521   2.971 -0.5190 -1.1335 -0.1851
  110MOL0     C15095   4.230   5.583   1.976 -0.4210 -0.4649  0.3432
  110MOL0     C15096   4.190   5.536   1.849  0.6925 -0.7017  1.0929
  110MOL0     C15097   3.976   5.229   1.572 -0.2635 -0.5114 -0.1737
  110MOL0     C15098   3.850   5.301   1.540  0.3381 -0.2569 -0.6716
  110MOL0     C15099   3.750   5.250   1.462 -0.3768  0.5358  0.4994
  110MOL0     C15100   3.764   5.135   1.389 -0.7237 -0.1532 -0.1325
  110MOL0     O15101   3.658   5.097   1.303 -0.1232  0.0824 -0.0788
  110MOL0     C15102   3.693   5.102   1.161 -0.0702 -0.5131  0.4493
  110MOL0     C15103   3.604   5.188   1.072  0.3772  0.0340  0.4124
  110MOL0     C15104   3.614   5.337   1.113 -0.2567  0.6754  0.3436
  110MOL0     C15105   3.532   5.428   1.022 -0.1036 -0.0757  0.5616
  110MOL0     C15106   3.391   5.399   1.043  0.8250  0.2964 -0.0363
  110MOL0     C15107   3.271   5.373   1.051  0.0307 -0.6141 -0.3887
  110MOL0     C15108   3.889   5.063   1.414 -0.0069 -0.4835 -0.0484
  110MOL0     C15109   3.989   5.106   1.507 -1.1513  0.5985 -0.0586
  110MOL0     C15110   4.115   5.012   1.521 -0.0722  0.0098 -0.1103
  110MOL0     H15111   3.928   5.348   1.961  0.6275 -1.2909 -2.0098
  110MOL0     H15112   4.031   5.403   2.177  0.8665 -1.9276 -0.3279
  110MOL0     H15113   4.165   5.746   2.312  1.0208 -0.9881  0.3202
  110MOL0     H15114   4.238   5.788   2.152 -1.7060  0.7225  0.5762
  110MOL0     H15115   4.460   5.718   2.221  1.8178  1.7373  1.5469
  110MOL0     H15116   4.404   5.850   2.311  1.1339 -0.3166 -1.2598
  110MOL0     H15117   4.338   5.683   2.513  0.4214  2.6295 -0.9267
  110MOL0     H15118   4.416   5.555   2.420  1.4724 -0.2431  0.5183
  110MOL0     H15119   4.631   5.658   2.452  0.0615 -0.6635 -2.0498
  110MOL0     H15120   4.547   5.808   2.525 -1.5294  0.0633 -1.0559
  110MOL0     H15121   4.559   5.522   2.620 -5.0205 -0.0889 -3.1431
  110MOL0     H15122   4.473   5.646   2.704 -0.1241 -2.3604 -1.2063
  110MOL0     H15123   4.776   5.691   2.647 -1.2687  0.2549 -1.3134
  110MOL0     H15124   4.674   5.776   2.754  0.1136 -0.3408  1.5727
  110MOL0     H15125   4.789   5.502   2.763  3.5575  0.7046  2.6144
  110MOL0     H15126   4.654   5.514   2.865 -0.9214  0.8308 -0.8692
  110MOL0     H15127   4.872   5.713   2.908 -0.2784 -0.7224 -3.1134
  110MOL0     H15128   4.749   5.645   3.022 -0.4642  2.4161 -0.6245
  110MOL0     H15129   4.789   5.356   3.075  0.2030  1.2973  2.9001
  110MOL0     H15130   5.118   5.167   3.127  0.3904 -1.0178  2.3344
  110MOL0     H15131   4.943   5.147   3.088 -0.2735  2.0543 -1.9880
  110MOL0     H15132   4.893   5.255   3.327 -0.5522  2.1530 -0.5312
  110MOL0     H15133   4.975   5.094   3.315  3.9968 -0.0798 -1.1790
  110MOL0     H15134   5.133   5.354   3.342 -0.4520  0.4926  1.5756
  110MOL0     H15135   5.072   5.266   3.480 -1.5719 -0.2106 -0.6137
  110MOL0     H15136   5.200   5.057   3.389 -1.7215  0.0049  0.3567
  110MOL0     H15137   5.262   5.158   3.264 -0.8304  2.1841 -0.6421
  110MOL0     H15138   5.330   5.401   3.278 -0.1373  1.0690  1.4132
  110MOL0     H15139   5.530   5.496   3.049 -1.0759 -1.3747 -0.0899
  110MOL0     H15140   5.592   5.613   3.171 -2.4701  1.3835  2.8520
  110MOL0     H15141   5.420   5.578   3.165  0.7798  1.1005 -0.9837
  110MOL0     H15142   6.060   5.365   3.100  0.4666  0.6600 -0.1050
  110MOL0     H15143   6.246   5.410   2.952 -0.6275 -1.7106  3.3336
  110MOL0     H15144   6.186   5.604   2.543  0.1288  1.0365 -1.5768
  110MOL0     H15145   6.209   5.734   2.656  0.8482  0.1985  1.6146
  110MOL0     H15146   6.416   5.554   2.521  0.7475 -1.0921  2.5535
  110MOL0     H15147   6.395   5.711   2.461  0.0411  2.0089  0.5005
  110MOL0     H15148   6.497   5.661   2.736  0.9772  1.1303 -0.8520
  110MOL0     H15149   6.461   5.826   2.682  2.4931  1.0506  1.4403
  110MOL0     H15150   6.626   5.813   2.505  1.4668  1.4904  1.3770
  110MOL0     H15151   6.671   5.651   2.582  0.1656 -0.2472  1.4675
  110MOL0     H15152   6.704   5.918   2.704 -0.6473  0.1381 -1.6456
  110MOL0     H15153   6.740   5.752   2.770 -2.1894 -2.1916 -1.3468
  110MOL0     H15154   6.863   5.862   2.511  0.1998  0.1610 -0.3223
  110MOL0     H15155   6.902   5.712   2.604 -0.3504 -0.3551 -1.2094
  110MOL0     H15156   7.037   5.837   2.746 -1.2891 -0.5180  0.5562
  110MOL0     H15157   6.918   5.953   2.770  0.3720 -2.1597  2.0270
  110MOL0     H15158   7.127   6.038   2.661  0.1403  0.4020  0.7427
  110MOL0     H15159   6.993   6.082   2.572  2.6755  1.7930  1.5955
  110MOL0     H15160   6.013   5.667   2.713  0.2922  0.3571  1.5284
  110MOL0     H15161   5.803   5.611   2.864 -0.4331 -0.5426  4.9993
  110MOL0     H15162   5.784   5.219   3.361  0.1719 -2.0473 -0.9617
  110MOL0     H15163   5.578   5.137   3.492  1.0329  2.1383  0.2328
  110MOL0     H15164   4.316   5.649   1.980 -1.8977  1.5204  0.9112
  110MOL0     H15165   4.240   5.555   1.755 -2.9379 -1.3777 -1.1927
  110MOL0     H15166   3.820   5.386   1.600 -4.1208 -1.6893 -0.4651
  110MOL0     H15167   3.651   5.294   1.465  0.6954  3.0400  1.6069
  110MOL0     H15168   3.799   5.125   1.146 -0.3128  2.5938  2.6921
  110MOL0     H15169   3.692   4.998   1.126  0.2017 -0.4247  0.1789
  110MOL0     H15170   3.503   5.146   1.076 -0.3162  1.3863 -1.4808
  110MOL0     H15171   3.638   5.173   0.969 -0.4035 -1.8848  0.3812
  110MOL0     H15172   3.587   5.337   1.219 -0.3898 -3.6731  0.4740
  110MOL0     H15173   3.719   5.366   1.109 -0.2861  0.6688 -1.0821
  110MOL0     H15174   3.558   5.399   0.920 -0.8273  0.5298  0.1964
  110MOL0     H15175   3.562   5.532   1.029  2.2708 -0.5002 -1.6661
  110MOL0     H15176   3.168   5.351   1.030 -0.0130 -1.0442  0.2498
  110MOL0     H15177   3.909   4.968   1.366 -0.5661 -1.8512  2.2558
  110MOL0     H15178   4.207   5.062   1.491 -2.0052  2.5037 -2.3855
  110MOL0     H15179   4.140   5.002   1.627 -0.2337  0.3058 -0.0448
  110MOL0     H15180   4.108   4.912   1.477 -0.9633 -1.5869  3.3127
  111MOL0     O15181   6.945   5.335   8.069  0.5806 -0.1024  0.4741
  111MOL0     C15182   6.909   5.442   8.024  0.7188 -0.0599  0.3051
  111MOL0     O15183   6.984   5.556   8.037  0.2285  0.0677 -0.2112
  111MOL0     C15184   7.096   5.565   8.116 -0.8243  0.1409  0.8023
  111MOL0     C15185   7.201   5.471   8.148  0.3064 -0.5067 -0.0510
  111MOL0     C15186   7.319   5.511   8.217  0.0968  1.2862 -0.0143
  111MOL0     C15187   7.332   5.641   8.264  0.1917 -1.3463 -0.8903
  111MOL0     O15188   7.435   5.682   8.343 -0.4261  0.2665 -0.7575
  111MOL0     C15189   7.501   5.581   8.420  0.5333  0.5102 -0.2805
  111MOL0     C15190   7.593   5.651   8.509 -0.2225  0.1554 -0.6220
  111MOL0     C15191   7.715   5.570   8.562  0.0744 -0.1188 -0.0211
  111MOL0     C15192   7.661   5.450   8.648  0.6634 -0.4474  0.3266
  111MOL0     C15193   7.756   5.334   8.672 -0.4531 -0.5102  0.9616
  111MOL0     C15194   7.892   5.382   8.720 -0.3764 -0.2950  1.1952
  111MOL0     C15195   7.978   5.265   8.770  0.6535  0.6031 -0.2629
  111MOL0     C15196   8.036   5.174   8.661  0.2505  0.4890  0.3663
  111MOL0     N15197   8.143   5.261   8.588  0.9664  0.1397 -0.0179
  111MOL0     C15198   8.273   5.281   8.632 -0.0025  0.2903  0.8067
  111MOL0     C15199   8.332   5.327   8.522 -0.2314  0.1413 -0.2097
  111MOL0     C15200   8.478   5.364   8.510 -0.1833  0.1612  0.0290
  111MOL0     C15201   8.512   5.508   8.515  1.1957  0.0392 -0.6933
  111MOL0     C15202   8.480   5.569   8.652  0.1505 -0.3691 -0.0974
  111MOL0     C15203   8.582   5.668   8.695  0.9414 -0.7532  0.1895
  111MOL0     O15204   8.703   5.602   8.733  0.2297  0.1197 -1.0014
  111MOL0     C15205   8.815   5.688   8.725  0.4377  1.1902  0.9999
  111MOL0     C15206   8.854   5.762   8.838  0.5237  0.2328  0.0969
  111MOL0     C15207   8.955   5.857   8.830  0.4316  0.0582 -0.3123
  111MOL0     C15208   8.983   5.942   8.955 -0.0149 -0.1808 -0.2362
  111MOL0     C15209   9.042   5.858   8.711  0.7768 -0.3472 -0.4481
  111MOL0     C15210   9.161   5.947   8.699 -0.8149 -0.3137 -0.4738
  111MOL0     O15211   9.217   5.992   8.815 -0.2676  0.1297 -0.0439
  111MOL0     C15212   9.342   6.041   8.801  0.0863 -0.4869  0.3774
  111MOL0     C15213   9.356   6.177   8.835 -0.4454  0.2992 -0.1561
  111MOL0     C15214   9.484   6.228   8.857  0.4097 -0.1547  0.1820
  111MOL0     C15215   9.598   6.149   8.835  0.2446 -0.3180  0.1561
  111MOL0     O15216   9.723   6.208   8.830  0.1933  0.2791 -0.3413
  111MOL0     C15217   9.789   6.184   8.708 -0.2190  0.5122  0.1679
  111MOL0     C15218   9.917   6.258   8.711 -0.2797 -0.4503  0.1695
  111MOL0     C15219   9.996   6.234   8.588  0.3371  0.4918  0.0718
  111MOL0     C15220  10.128   6.316   8.588  0.7933  0.2260  0.2407
  111MOL0     C15221  10.169   6.353   8.446  0.0403 -0.1778 -0.2775
  111MOL0     C15222  10.298   6.441   8.450  0.1534  0.0078 -0.7196
  111MOL0     C15223  10.358   6.447   8.320 -1.0276 -0.4656  0.3240
  111MOL0     C15224  10.499   6.502   8.323  0.9887  0.0327  0.2099
  111MOL0    Cl15225  10.561   6.513   8.146  0.0037 -0.0911 -0.0762
  111MOL0     C15226   9.586   6.013   8.808  0.6351  0.3759 -0.2256
  111MOL0     C15227   9.451   5.958   8.791 -0.3201  0.3036 -0.1975
  111MOL0     O15228   9.195   5.977   8.586  0.1084  0.4221  0.6314
  111MOL0     C15229   9.003   5.779   8.603  0.2983 -0.0798 -0.1723
  111MOL0     C15230   8.893   5.694   8.612 -0.9300 -1.0464  0.4823
  111MOL0     N15231   8.238   5.334   8.413  0.6609  0.2206 -0.4160
  111MOL0     N15232   8.121   5.305   8.465 -0.5386  0.1585  0.7988
  111MOL0     C15233   7.228   5.731   8.231 -0.2961  0.4135  0.0308
  111MOL0     C15234   7.120   5.695   8.160 -0.5810  0.7078  0.4830
  111MOL0     C15235   6.775   5.463   7.952  0.2293  0.2602  0.1524
  111MOL0     C15236   6.715   5.592   7.965 -0.6275  0.6908 -1.0228
  111MOL0     C15237   6.587   5.616   7.932 -1.1092 -0.1530  0.1099
  111MOL0     C15238   6.519   5.514   7.861 -0.9824  0.0118  0.0191
  111MOL0     O15239   6.391   5.513   7.807  0.0550 -0.5682  0.2602
  111MOL0     C15240   6.298   5.626   7.837  0.9701  0.1166  1.0734
  111MOL0     C15241   6.155   5.580   7.821 -0.0772 -0.6989  0.1532
  111MOL0     C15242   6.060   5.715   7.820  0.5955 -0.6711 -0.2206
  111MOL0     C15243   5.913   5.690   7.820  0.1684  0.2147 -0.0647
  111MOL0     C15244   5.822   5.783   7.751 -0.1554 -0.7474 -0.5792
  111MOL0     C15245   5.753   5.867   7.694  0.2665  0.1115  0.0768
  111MOL0     C15246   6.578   5.389   7.834 -0.0385  0.1925  0.7166
  111MOL0     C15247   6.703   5.360   7.886  1.0720  1.1217 -0.9336
  111MOL0     C15248   6.764   5.227   7.872  0.0021  0.8582  0.0401
  111MOL0     H15249   7.196   5.365   8.128 -0.9167 -0.9302  2.2317
  111MOL0     H15250   7.393   5.435   8.242  0.1647  0.9988 -1.0357
  111MOL0     H15251   7.569   5.511   8.370  1.9093  2.0821 -0.6907
  111MOL0     H15252   7.431   5.522   8.479 -0.5059  3.2736  1.4558
  111MOL0     H15253   7.650   5.728   8.457  3.1258 -2.0662 -0.6191
  111MOL0     H15254   7.533   5.697   8.588 -2.0440 -0.5138 -1.5644
  111MOL0     H15255   7.767   5.521   8.480  1.9402  1.0282  0.4198
  111MOL0     H15256   7.780   5.635   8.621 -0.3401 -0.5104  0.8922
  111MOL0     H15257   7.625   5.492   8.742  2.6499  0.0925  0.9094
  111MOL0     H15258   7.568   5.420   8.600 -1.3712  3.2103  1.5274
  111MOL0     H15259   7.771   5.285   8.575  0.9123 -0.3239  1.0609
  111MOL0     H15260   7.715   5.265   8.746 -2.0119  0.8668  1.4514
  111MOL0     H15261   7.944   5.446   8.648 -0.5699  0.5060  1.7551
  111MOL0     H15262   7.861   5.449   8.800 -0.6456  1.3317 -0.2299
  111MOL0     H15263   7.915   5.193   8.823  0.0156  0.5221 -1.0970
  111MOL0     H15264   8.051   5.303   8.841 -0.1472  3.9549 -1.0641
  111MOL0     H15265   8.080   5.089   8.714 -0.2295 -1.2436 -1.8352
  111MOL0     H15266   7.961   5.135   8.592 -0.7622 -1.0171  2.2267
  111MOL0     H15267   8.316   5.279   8.731  2.1548  3.0421  0.0213
  111MOL0     H15268   8.506   5.321   8.413 -2.3974 -0.5162 -0.3647
  111MOL0     H15269   8.542   5.310   8.580 -1.4824 -0.8161  0.4951
  111MOL0     H15270   8.620   5.518   8.506  0.9548  3.6368 -0.9085
  111MOL0     H15271   8.462   5.565   8.436 -0.0848  1.0871  0.7961
  111MOL0     H15272   8.382   5.615   8.636 -1.0289 -3.2989 -2.1814
  111MOL0     H15273   8.454   5.503   8.735  0.4818 -0.7975 -0.3299
  111MOL0     H15274   8.598   5.740   8.614 -2.1154 -2.4622 -2.1750
  111MOL0     H15275   8.550   5.726   8.782  3.3437 -0.5274  0.9889
  111MOL0     H15276   8.801   5.756   8.933 -0.7548  0.3614 -0.5781
  111MOL0     H15277   9.069   5.907   9.012 -1.0972 -0.5577  1.2221
  111MOL0     H15278   8.907   5.943   9.034  0.8704  0.0839  0.6315
  111MOL0     H15279   8.987   6.050   8.936 -3.4855  0.4782  1.9068
  111MOL0     H15280   9.263   6.223   8.866 -1.2490 -1.3696 -0.0086
  111MOL0     H15281   9.487   6.325   8.905 -0.7896  0.5713 -1.1170
  111MOL0     H15282   9.817   6.085   8.673  3.0413  1.6506 -0.8218
  111MOL0     H15283   9.728   6.221   8.625  0.9323  0.7219 -0.6102
  111MOL0     H15284   9.905   6.365   8.730  1.1761  0.0499 -1.4283
  111MOL0     H15285   9.970   6.220   8.800  0.5101 -1.7072 -0.8041
  111MOL0     H15286   9.933   6.257   8.502 -1.1298 -3.5755 -0.1666
  111MOL0     H15287  10.021   6.128   8.578 -0.7201  0.1897  0.4548
  111MOL0     H15288  10.208   6.276   8.650  1.1203  0.7838  0.1826
  111MOL0     H15289  10.115   6.417   8.628 -0.1163  0.1883  0.0714
  111MOL0     H15290  10.186   6.266   8.382  0.4324  0.2891 -0.8165
  111MOL0     H15291  10.104   6.425   8.395  2.2966  0.7887 -1.9660
  111MOL0     H15292  10.367   6.391   8.518 -1.6280 -4.0625 -1.5929
  111MOL0     H15293  10.287   6.539   8.497  1.0787 -0.0790 -0.2964
  111MOL0     H15294  10.294   6.510   8.257  0.1943  0.6498  0.1566
  111MOL0     H15295  10.360   6.349   8.271  1.2285 -0.3829  0.1477
  111MOL0     H15296  10.575   6.450   8.383  1.3063  0.4594  0.1775
  111MOL0     H15297  10.490   6.603   8.363 -1.3206  0.4759 -1.2623
  111MOL0     H15298   9.674   5.951   8.797  1.4041  0.5144  3.8112
  111MOL0     H15299   9.441   5.855   8.760  2.2032 -0.7057  2.0074
  111MOL0     H15300   9.053   5.774   8.507 -1.7931  0.6729 -1.3467
  111MOL0     H15301   8.870   5.624   8.532 -0.5366 -0.6077 -0.0252
  111MOL0     H15302   7.217   5.828   8.278  0.7065  0.0104  1.1620
  111MOL0     H15303   7.041   5.767   8.139  0.9352  1.9025 -1.5359
  111MOL0     H15304   6.768   5.662   8.029  3.0811  0.0998 -3.1686
  111MOL0     H15305   6.535   5.711   7.944 -3.4949 -1.5533  1.7519
  111MOL0     H15306   6.309   5.674   7.934  0.8760 -0.8090  1.5619
  111MOL0     H15307   6.318   5.706   7.766  1.0671 -0.3005  0.6210
  111MOL0     H15308   6.134   5.501   7.894  2.4098 -4.2546 -2.6259
  111MOL0     H15309   6.157   5.533   7.722  0.9305 -0.1789 -0.0856
  111MOL0     H15310   6.084   5.788   7.898  0.0302 -0.2894 -0.3914
  111MOL0     H15311   6.085   5.756   7.722  0.0885  0.8686  0.2713
  111MOL0     H15312   5.876   5.679   7.923  1.6973 -1.7618  0.3242
  111MOL0     H15313   5.909   5.589   7.778  1.0805  0.6579 -1.2728
  111MOL0     H15314   5.695   5.935   7.636 -0.7880 -0.7204  0.1201
  111MOL0     H15315   6.532   5.315   7.770  3.6824 -2.5469  0.8800
  111MOL0     H15316   6.711   5.157   7.807  1.1959  1.7104 -1.9458
  111MOL0     H15317   6.863   5.229   7.826  0.0306  2.6006  0.0999
  111MOL0     H15318   6.777   5.183   7.970 -0.0863  0.4890 -0.1131
  112MOL0     O15319   9.803   0.282   8.650  0.2831  0.5317 -0.2572
  112MOL0     C15320   9.725   0.376   8.647  0.4907 -0.2690 -0.0390
  112MOL0     O15321   9.705   0.459   8.540 -0.2631  0.3800  0.3819
  112MOL0     C15322   9.786   0.424   8.433  0.2072 -0.3191  0.7117
  112MOL0     C15323   9.741   0.346   8.326 -0.1106  0.0342  0.5292
  112MOL0     C15324   9.819   0.311   8.214 -0.0424  0.3738 -0.5415
  112MOL0     C15325   9.939   0.377   8.196  1.0845 -0.3623 -0.0322
  112MOL0     O15326  10.018   0.366   8.080 -0.1227 -0.2819 -0.0374
  112MOL0     C15327   9.994   0.269   7.970 -0.5762  0.1261  0.5134
  112MOL0     C15328  10.123   0.270   7.890 -0.3056 -0.5166 -0.2413
  112MOL0     C15329  10.240   0.210   7.962 -0.5224 -0.3920  0.4851
  112MOL0     C15330  10.375   0.215   7.882 -0.8661  0.0429 -0.1127
  112MOL0     C15331  10.477   0.120   7.959  0.3840  0.1772 -0.0399
  112MOL0     C15332  10.628   0.167   7.931  0.1758  0.2277 -0.0015
  112MOL0     C15333  10.715   0.090   8.034  0.0981  0.0797  0.3095
  112MOL0     C15334  10.860   0.141   8.034  0.3795  0.0751 -0.7838
  112MOL0     N15335  10.947   0.092   8.146 -0.7942  0.4541  0.2728
  112MOL0     C15336  10.921   0.069   8.280 -0.7442 -0.0106 -0.0004
  112MOL0     C15337  11.032   0.024   8.333  0.1840  0.4181  0.7560
  112MOL0     C15338  11.067  -0.023   8.473 -0.2678 -0.9631  0.6699
  112MOL0     C15339  11.077   0.106   8.552  0.8957 -0.6842  0.2607
  112MOL0     C15340  11.137   0.080   8.695 -0.1497  0.0553 -0.1021
  112MOL0     C15341  11.289   0.092   8.708 -0.0837 -0.4687  0.0387
  112MOL0     O15342  11.336   0.225   8.686 -0.5100  0.3530 -0.3282
  112MOL0     C15343  11.470   0.244   8.671  0.4872 -0.1338 -0.2258
  112MOL0     C15344  11.571   0.145   8.703  0.2173  0.0917 -0.0479
  112MOL0     C15345  11.707   0.173   8.695  0.2999  0.6553  0.7089
  112MOL0     C15346  11.809   0.061   8.720  0.6933  0.4155 -0.1196
  112MOL0     C15347  11.746   0.305   8.659  0.5048  0.6174 -0.5211
  112MOL0     C15348  11.891   0.352   8.651 -0.7433 -0.3486 -0.2696
  112MOL0     O15349  11.978   0.281   8.738  0.3605 -0.2084 -0.6687
  112MOL0     C15350  12.110   0.281   8.719 -0.5327  0.5093 -0.8351
  112MOL0     C15351  12.187   0.381   8.756 -0.1423 -0.1840  0.0653
  112MOL0     C15352  12.324   0.391   8.725 -0.7430  0.4454 -0.4610
  112MOL0     C15353  12.391   0.293   8.648  0.4563  0.2158 -0.5763
  112MOL0     O15354  12.525   0.310   8.627 -0.4496 -0.1380 -0.3828
  112MOL0     C15355  12.601   0.190   8.595  0.8602  0.6931  0.3653
  112MOL0     C15356  12.751   0.204   8.622  0.5764  0.1053 -0.4474
  112MOL0     C15357  12.835   0.076   8.577 -1.0931  0.3276 -1.3192
  112MOL0     C15358  12.983   0.087   8.632 -0.3773 -0.4595  0.3975
  112MOL0     C15359  13.058  -0.050   8.616  0.4039 -0.3744 -0.5061
  112MOL0     C15360  13.108  -0.072   8.478 -0.0423  0.1142  0.5260
  112MOL0     C15361  13.234   0.001   8.447  0.2231 -0.2283 -0.6181
  112MOL0     C15362  13.322  -0.057   8.336  0.0774 -0.1348  0.1756
  112MOL0    Cl15363  13.431   0.066   8.269 -0.1097  0.5888  0.0442
  112MOL0     C15364  12.312   0.181   8.610  0.3824  0.2679  0.3554
  112MOL0     C15365  12.179   0.176   8.650 -0.0557 -0.2995  0.5402
  112MOL0     O15366  11.925   0.448   8.583  0.0064 -0.0414 -0.0089
  112MOL0     C15367  11.650   0.400   8.624 -0.5693  0.0185 -0.7391
  112MOL0     C15368  11.519   0.370   8.632 -1.2794 -0.0263 -0.4299
  112MOL0     N15369  11.131   0.040   8.235  0.6055 -0.2273 -1.1429
  112MOL0     N15370  11.085   0.078   8.125 -0.2032 -0.5321 -0.0439
  112MOL0     C15371   9.983   0.467   8.292 -0.1251 -0.0890 -0.4205
  112MOL0     C15372   9.913   0.487   8.420 -0.2748 -0.4417  0.1741
  112MOL0     C15373   9.644   0.412   8.764 -0.3108 -0.9614 -0.8768
  112MOL0     C15374   9.595   0.542   8.778  0.0283 -0.5982  1.0210
  112MOL0     C15375   9.509   0.585   8.881  0.0717 -0.1871 -0.0808
  112MOL0     C15376   9.485   0.506   8.997  0.0595  0.9132 -0.3290
  112MOL0     O15377   9.389   0.530   9.090  0.1873  0.0172 -0.0366
  112MOL0     C15378   9.316   0.649   9.078 -0.6499  1.1656  0.3675
  112MOL0     C15379   9.408   0.767   9.124  0.6997 -0.1841 -0.4333
  112MOL0     C15380   9.357   0.911   9.079 -0.0793 -0.2841 -0.9181
  112MOL0     C15381   9.216   0.936   9.118  0.6654  0.0878 -0.9161
  112MOL0     C15382   9.197   0.949   9.262 -0.2789  0.3210 -0.1887
  112MOL0     C15383   9.171   0.950   9.379  0.5147  0.1718  0.3662
  112MOL0     C15384   9.535   0.373   8.989  0.5421 -1.0893 -0.1655
  112MOL0     C15385   9.613   0.329   8.873 -0.4387 -0.0777 -0.5041
  112MOL0     C15386   9.664   0.184   8.886 -0.1668  1.3777 -0.1950
  112MOL0     H15387   9.646   0.294   8.318 -0.8694  1.5144 -0.6000
  112MOL0     H15388   9.776   0.241   8.144  0.2392  0.6490 -0.9981
  112MOL0     H15389   9.912   0.309   7.909 -1.5974 -2.0944  0.3463
  112MOL0     H15390   9.979   0.169   8.012 -3.2252  0.7290  1.1848
  112MOL0     H15391  10.105   0.225   7.792 -2.2359  0.5699 -0.4395
  112MOL0     H15392  10.153   0.373   7.865 -0.8020 -0.6325 -1.3813
  112MOL0     H15393  10.250   0.259   8.059  0.6917  2.0944 -0.8105
  112MOL0     H15394  10.218   0.104   7.982  3.0708 -1.0114  2.0997
  112MOL0     H15395  10.366   0.206   7.774 -1.8661  3.0844 -0.3677
  112MOL0     H15396  10.422   0.313   7.888  1.3441 -0.9958  1.0059
  112MOL0     H15397  10.459   0.017   7.926 -0.7444  1.0799 -2.5002
  112MOL0     H15398  10.451   0.106   8.064 -1.9653 -1.8630 -0.7868
  112MOL0     H15399  10.662   0.136   7.832  1.4832 -3.0984  1.3411
  112MOL0     H15400  10.634   0.276   7.943  0.3513  0.2000  0.1673
  112MOL0     H15401  10.713  -0.019   8.019 -2.1264  0.3081 -1.4662
  112MOL0     H15402  10.681   0.107   8.136 -0.9951 -1.7413  0.2855
  112MOL0     H15403  10.911   0.109   7.944  1.1895 -3.2468  0.7166
  112MOL0     H15404  10.858   0.251   8.034  0.6580  0.0805 -0.8677
  112MOL0     H15405  10.829   0.081   8.336  0.6396  4.1433  1.7960
  112MOL0     H15406  11.166  -0.068   8.468 -0.8287 -2.0862 -1.6694
  112MOL0     H15407  11.005  -0.103   8.515  0.9958 -2.5097 -0.3014
  112MOL0     H15408  11.139   0.177   8.497 -0.7631 -0.1557 -1.0349
  112MOL0     H15409  10.984   0.163   8.564  1.3624  0.1081  0.1428
  112MOL0     H15410  11.096   0.152   8.767  1.1264 -0.7826  1.5148
  112MOL0     H15411  11.094  -0.016   8.726 -1.7562  0.7213 -0.1632
  112MOL0     H15412  11.313   0.061   8.810 -0.9904  1.1705  0.7925
  112MOL0     H15413  11.342   0.026   8.639  2.6333  1.5323  0.0053
  112MOL0     H15414  11.536   0.045   8.727 -0.6059  0.8658  2.1898
  112MOL0     H15415  11.863   0.046   8.626 -1.3578  0.6633 -1.4082
  112MOL0     H15416  11.748  -0.028   8.737 -1.9809  1.7735 -1.9354
  112MOL0     H15417  11.873   0.093   8.802 -0.4196  2.8407 -0.1073
  112MOL0     H15418  12.144   0.463   8.812  2.6957  0.5917  1.3156
  112MOL0     H15419  12.384   0.475   8.757 -1.7309 -0.2214  3.6200
  112MOL0     H15420  12.571   0.103   8.653  1.6200  2.1158  3.0499
  112MOL0     H15421  12.591   0.169   8.488 -2.3409 -1.1399  0.9037
  112MOL0     H15422  12.782   0.293   8.566 -1.8805  0.7024 -0.9972
  112MOL0     H15423  12.760   0.217   8.730  0.7105  0.7724 -0.5290
  112MOL0     H15424  12.833   0.060   8.469 -3.1135 -2.7501 -0.9365
  112MOL0     H15425  12.795  -0.010   8.632  0.5322  0.3075 -0.1072
  112MOL0     H15426  12.986   0.130   8.732  1.8939 -0.3526  0.3203
  112MOL0     H15427  13.036   0.164   8.576 -0.7231  1.7669  2.9449
  112MOL0     H15428  13.140  -0.062   8.687  0.9533  0.2863 -1.0023
  112MOL0     H15429  12.988  -0.129   8.643  0.0119  0.1183 -0.0619
  112MOL0     H15430  13.036  -0.042   8.401  0.8963  3.1799  0.6935
  112MOL0     H15431  13.125  -0.179   8.464 -0.2844 -0.0297  1.2833
  112MOL0     H15432  13.308   0.008   8.528  0.7194 -0.5707 -1.0405
  112MOL0     H15433  13.207   0.103   8.416 -1.6416 -0.7023 -0.6318
  112MOL0     H15434  13.271  -0.095   8.247 -0.7907  1.8703 -0.2345
  112MOL0     H15435  13.379  -0.143   8.374 -0.0745  0.3379  1.5381
  112MOL0     H15436  12.362   0.097   8.563  0.4762  0.4781  0.0753
  112MOL0     H15437  12.095   0.108   8.635 -3.7839  3.7402  0.9715
  112MOL0     H15438  11.682   0.499   8.595  0.9368  0.0731  0.9450
  112MOL0     H15439  11.448   0.445   8.598  0.3016  1.2453 -1.1103
  112MOL0     H15440  10.079   0.514   8.274  0.3262 -0.3147  1.2460
  112MOL0     H15441   9.953   0.559   8.491  1.5424 -0.2886 -0.9322
  112MOL0     H15442   9.626   0.619   8.708  3.1415 -3.4759 -1.0855
  112MOL0     H15443   9.457   0.680   8.868 -2.4873 -1.2040  1.8134
  112MOL0     H15444   9.288   0.676   8.976  3.7502 -0.9650 -1.6885
  112MOL0     H15445   9.222   0.638   9.133 -0.2894  1.1614  0.9918
  112MOL0     H15446   9.512   0.749   9.093  0.1939 -1.4769 -1.5020
  112MOL0     H15447   9.418   0.768   9.233 -0.9355  0.5110 -0.2600
  112MOL0     H15448   9.427   0.981   9.125  1.2906 -1.6274 -0.8924
  112MOL0     H15449   9.362   0.923   8.971 -2.8324  1.7961 -0.9253
  112MOL0     H15450   9.148   0.856   9.086 -0.5039 -0.2784  2.1781
  112MOL0     H15451   9.188   1.025   9.060 -2.3196 -0.4325 -0.4559
  112MOL0     H15452   9.156   0.941   9.485 -1.4879  0.0321  0.1187
  112MOL0     H15453   9.513   0.301   9.068  0.0598 -0.5919  0.1550
  112MOL0     H15454   9.668   0.125   8.794  1.4486  1.1889 -0.0302
  112MOL0     H15455   9.765   0.177   8.927  0.8757  0.9964 -2.6316
  112MOL0     H15456   9.598   0.131   8.956 -1.7646  2.4769 -0.7955
  113MOL0     O15457   9.807   9.618   1.513 -0.0003 -0.0347 -0.2897
  113MOL0     C15458   9.689   9.650   1.520  0.0709 -0.2182  0.8984
  113MOL0     O15459   9.597   9.583   1.592 -0.4356  0.5802 -0.0306
  113MOL0     C15460   9.648   9.490   1.685  1.0909  0.5819 -0.2417
  113MOL0     C15461   9.601   9.507   1.813 -0.2431  0.3692 -0.5341
  113MOL0     C15462   9.639   9.406   1.911  0.3087 -0.7288  0.1275
  113MOL0     C15463   9.700   9.286   1.878 -0.5075  0.8638  0.0523
  113MOL0     O15464   9.735   9.191   1.971 -0.0440 -0.4836  0.3107
  113MOL0     C15465   9.654   9.190   2.090  0.1507 -0.1371  0.1114
  113MOL0     C15466   9.708   9.071   2.174  0.0381 -0.0643 -0.2356
  113MOL0     C15467   9.673   8.937   2.110  0.5631  0.0896 -0.0860
  113MOL0     C15468   9.529   8.894   2.141  0.7512 -0.3666  0.7987
  113MOL0     C15469   9.487   8.756   2.074  0.1676 -0.2758  0.7287
  113MOL0     C15470   9.595   8.655   2.107 -0.2365  0.1132  0.0719
  113MOL0     C15471   9.534   8.518   2.053  0.3378 -0.8839 -0.0614
  113MOL0     C15472   9.640   8.408   2.051  0.4815  0.1330  0.3560
  113MOL0     N15473   9.705   8.396   2.184  0.5469 -0.6805 -0.1930
  113MOL0     C15474   9.675   8.292   2.268 -0.0783  0.2662  0.5948
  113MOL0     C15475   9.771   8.305   2.363  0.4404  0.7894 -0.2186
  113MOL0     C15476   9.788   8.223   2.483  0.0551 -0.4509  0.3978
  113MOL0     C15477   9.905   8.131   2.479 -0.1668 -0.9771  0.4107
  113MOL0     C15478   9.886   8.028   2.360  0.0949 -0.0247 -0.3088
  113MOL0     C15479   9.999   7.931   2.348 -0.5298  0.5685  0.0310
  113MOL0     O15480  10.124   7.990   2.375 -0.8016  0.1209  0.1289
  113MOL0     C15481  10.234   7.928   2.319 -0.1175  0.3219  0.0884
  113MOL0     C15482  10.331   7.998   2.249  0.4548 -0.4182  0.5571
  113MOL0     C15483  10.443   7.934   2.193 -0.2895  0.7779 -0.8958
  113MOL0     C15484  10.536   8.029   2.116 -0.4236 -0.2198 -0.2708
  113MOL0     C15485  10.456   7.792   2.208 -0.5688 -0.8620 -0.3587
  113MOL0     C15486  10.566   7.709   2.150  0.0277  1.0272  0.4733
  113MOL0     O15487  10.693   7.772   2.132 -0.0701  0.0249  0.1000
  113MOL0     C15488  10.790   7.686   2.083 -0.7062 -0.1041  0.1142
  113MOL0     C15489  10.841   7.588   2.159 -0.2884 -0.5895 -0.5722
  113MOL0     C15490  10.947   7.511   2.112  0.2164  0.2948  0.5185
  113MOL0     C15491  11.004   7.534   1.992  0.3396 -0.1198  0.5831
  113MOL0     O15492  11.120   7.474   1.938  0.6157  0.5796 -0.6463
  113MOL0     C15493  11.199   7.408   2.040 -0.6850  0.8872  0.7301
  113MOL0     C15494  11.335   7.348   1.983  0.3839 -0.4229  0.3906
  113MOL0     C15495  11.315   7.244   1.874 -0.1100  0.0576 -0.4771
  113MOL0     C15496  11.244   7.117   1.922  0.6601  0.6719  0.0890
  113MOL0     C15497  11.215   7.025   1.793  0.7143 -0.2026  0.0095
  113MOL0     C15498  11.112   6.915   1.824  0.2223 -0.5962 -0.3643
  113MOL0     C15499  11.094   6.840   1.693  0.1663  0.0216  0.5071
  113MOL0     C15500  11.058   6.689   1.726  0.0326  0.5725  0.7604
  113MOL0    Cl15501  11.204   6.597   1.763 -0.4885  0.1520  0.4164
  113MOL0     C15502  10.950   7.631   1.911  0.4310 -0.0447 -0.1406
  113MOL0     C15503  10.836   7.702   1.956  0.0543  0.5351 -1.0781
  113MOL0     O15504  10.546   7.586   2.134  0.5131 -0.1870 -0.2545
  113MOL0     C15505  10.352   7.721   2.277  0.4380 -0.6145 -0.3796
  113MOL0     C15506  10.244   7.786   2.337  0.1438 -0.3708 -0.1722
  113MOL0     N15507   9.855   8.402   2.326  0.3362 -0.0632  0.2792
  113MOL0     N15508   9.822   8.460   2.214  0.2119 -0.4157 -0.7000
  113MOL0     C15509   9.746   9.274   1.743 -0.0672  0.5659  0.7368
  113MOL0     C15510   9.725   9.374   1.650  0.9570 -0.1938  0.6648
  113MOL0     C15511   9.652   9.785   1.450  0.4955 -0.5854 -0.5668
  113MOL0     C15512   9.514   9.821   1.456  0.2632 -0.6584 -0.1297
  113MOL0     C15513   9.468   9.937   1.400  0.4872  0.3477  0.7414
  113MOL0     C15514   9.553  10.022   1.334 -0.1743  0.0013 -0.8683
  113MOL0     O15515   9.494  10.125   1.282 -0.4103 -0.1566 -0.0934
  113MOL0     C15516   9.524  10.143   1.141 -0.8372 -0.3611  0.4833
  113MOL0     C15517   9.439  10.243   1.065  0.8604 -0.3235 -0.1670
  113MOL0     C15518   9.437  10.379   1.140  0.0001 -0.4120  0.1658
  113MOL0     C15519   9.576  10.455   1.155 -0.0592  1.0749 -0.0307
  113MOL0     C15520   9.632  10.493   1.033 -0.7739 -0.2293 -0.0499
  113MOL0     C15521   9.656  10.527   0.921 -0.6546 -0.4281 -0.3766
  113MOL0     C15522   9.691   9.987   1.324  0.4195 -0.6499 -0.5865
  113MOL0     C15523   9.739   9.865   1.381 -1.0514  0.1607  0.4891
  113MOL0     C15524   9.887   9.835   1.362  0.0086  0.6877  0.1332
  113MOL0     H15525   9.541   9.595   1.831 -0.4545  0.1066  0.0488
  113MOL0     H15526   9.598   9.424   2.010  2.4420  1.5886  0.7294
  113MOL0     H15527   9.547   9.186   2.067  0.6307 -2.2308 -2.2826
  113MOL0     H15528   9.666   9.283   2.146 -2.1274  1.6935 -2.1639
  113MOL0     H15529   9.816   9.084   2.185 -0.2715  0.6926  2.9479
  113MOL0     H15530   9.669   9.076   2.276 -2.2677 -1.0850 -0.9967
  113MOL0     H15531   9.677   8.948   2.001 -2.0705 -0.5987 -0.3148
  113MOL0     H15532   9.756   8.873   2.140  0.3225  0.5336  1.6224
  113MOL0     H15533   9.519   8.896   2.250 -0.0943 -0.9521  0.7411
  113MOL0     H15534   9.460   8.973   2.109  0.2820 -1.0880 -0.0001
  113MOL0     H15535   9.493   8.770   1.966 -1.6675  0.1368  0.6521
  113MOL0     H15536   9.383   8.736   2.102 -1.2367  0.2068 -3.3999
  113MOL0     H15537   9.694   8.679   2.065  0.6432  1.5731  2.7027
  113MOL0     H15538   9.612   8.654   2.215 -1.3201  0.3804  0.2551
  113MOL0     H15539   9.485   8.525   1.955  0.1616 -3.6082 -0.2443
  113MOL0     H15540   9.456   8.491   2.125  0.0596  1.9345  0.8137
  113MOL0     H15541   9.610   8.310   2.013  0.3348  0.7164 -1.1039
  113MOL0     H15542   9.716   8.428   1.974  1.3926 -1.2795  0.8455
  113MOL0     H15543   9.589   8.226   2.262 -0.9465  1.4841 -1.9563
  113MOL0     H15544   9.692   8.175   2.504  0.2583 -0.6523  0.8719
  113MOL0     H15545   9.803   8.285   2.572 -1.0530 -1.4646  1.3158
  113MOL0     H15546   9.991   8.194   2.455 -1.1309  0.1031 -0.4056
  113MOL0     H15547   9.916   8.080   2.575  0.9797  2.2784  2.1662
  113MOL0     H15548   9.791   7.977   2.376 -0.5546  0.8662 -1.2102
  113MOL0     H15549   9.881   8.083   2.265  3.5095 -0.1448 -0.6710
  113MOL0     H15550   9.990   7.846   2.416  1.5038  0.1373 -0.1523
  113MOL0     H15551   9.992   7.888   2.247 -0.1293  0.4549  0.0481
  113MOL0     H15552  10.313   8.103   2.232  0.8087 -0.6040 -1.1852
  113MOL0     H15553  10.543   8.025   2.007 -1.5434 -0.5027 -0.3430
  113MOL0     H15554  10.640   8.010   2.146  0.5072  3.0504 -0.9987
  113MOL0     H15555  10.514   8.133   2.143  3.5690  0.8489 -0.4278
  113MOL0     H15556  10.798   7.565   2.256  0.4694 -0.7732 -0.2735
  113MOL0     H15557  10.971   7.427   2.176 -0.8081 -3.6799 -3.6935
  113MOL0     H15558  11.228   7.478   2.119  1.5867  0.1480  0.6479
  113MOL0     H15559  11.141   7.327   2.086 -2.9289  1.3718 -1.0739
  113MOL0     H15560  11.388   7.428   1.932  1.2491 -2.8788 -2.9000
  113MOL0     H15561  11.393   7.297   2.061 -2.9402 -0.5205  3.0609
  113MOL0     H15562  11.416   7.224   1.836 -0.2106  1.6782 -1.6807
  113MOL0     H15563  11.253   7.290   1.797 -1.9559  0.5594  1.2252
  113MOL0     H15564  11.151   7.145   1.973 -0.3190 -0.3069 -1.0833
  113MOL0     H15565  11.303   7.065   1.998 -0.7331  0.7932  1.3011
  113MOL0     H15566  11.160   7.083   1.719 -0.6514 -0.5909  0.6758
  113MOL0     H15567  11.304   6.992   1.739  0.9378  2.2830 -1.2831
  113MOL0     H15568  11.019   6.960   1.860  1.0089  1.1145 -0.3480
  113MOL0     H15569  11.153   6.851   1.903  1.6443  3.3462  2.4792
  113MOL0     H15570  11.184   6.845   1.631  1.1317 -0.5751  1.7874
  113MOL0     H15571  11.008   6.878   1.637 -0.3901  1.6613  2.3274
  113MOL0     H15572  11.009   6.642   1.641  2.8590 -0.3194 -0.4959
  113MOL0     H15573  10.995   6.682   1.815 -2.8036 -3.5960 -1.2545
  113MOL0     H15574  10.993   7.654   1.813 -2.0856 -0.7290 -1.4862
  113MOL0     H15575  10.798   7.785   1.896 -1.7325 -0.3407 -1.1953
  113MOL0     H15576  10.332   7.615   2.288  0.5012 -0.3692  3.8164
  113MOL0     H15577  10.172   7.733   2.399  2.2679 -0.2787  2.5616
  113MOL0     H15578   9.800   9.182   1.727 -1.1817  0.1086 -0.6836
  113MOL0     H15579   9.754   9.353   1.547 -2.1234 -3.2224  0.2223
  113MOL0     H15580   9.438   9.759   1.504 -0.8078  0.5251 -0.2416
  113MOL0     H15581   9.362   9.958   1.395  0.1849  0.4075  4.5358
  113MOL0     H15582   9.630  10.170   1.135 -0.9249 -0.2433 -1.0949
  113MOL0     H15583   9.513  10.043   1.098 -0.6604  0.4329 -1.5530
  113MOL0     H15584   9.340  10.200   1.048  0.7698 -0.5794  0.9374
  113MOL0     H15585   9.465  10.265   0.961 -1.8134  0.3703 -0.7698
  113MOL0     H15586   9.376  10.452   1.086  1.3805  2.1603  1.8512
  113MOL0     H15587   9.383  10.361   1.233 -0.5958 -0.2970 -0.1539
  113MOL0     H15588   9.639  10.391   1.218 -0.6024 -0.2767 -0.8165
  113MOL0     H15589   9.556  10.540   1.222 -1.4753  0.9414 -0.2560
  113MOL0     H15590   9.692  10.559   0.825 -0.0649 -1.2291 -0.4366
  113MOL0     H15591   9.758  10.063   1.287 -1.3834  0.5169 -1.5672
  113MOL0     H15592   9.928   9.825   1.463 -1.7563 -3.0904  0.6486
  113MOL0     H15593   9.902   9.741   1.308 -0.5777  0.1699  0.8532
  113MOL0     H15594   9.938   9.914   1.306  0.1660 -0.3327 -1.2068
  114MOL0     O15595   2.190   8.890   2.271  0.6018  0.3481 -0.4752
  114MOL0     C15596   2.112   8.988   2.283 -0.2883  0.0506  0.5241
  114MOL0     O15597   2.138   9.112   2.223  1.0112  0.2280  0.4338
  114MOL0     C15598   2.248   9.123   2.140  0.8128 -0.0057 -0.2183
  114MOL0     C15599   2.364   9.176   2.191 -0.1713  0.3957  0.0643
  114MOL0     C15600   2.477   9.181   2.106  0.2498 -0.1115 -0.0820
  114MOL0     C15601   2.472   9.128   1.981  0.2112 -0.1340 -0.7945
  114MOL0     O15602   2.593   9.113   1.917  0.0096 -0.3755 -0.6910
  114MOL0     C15603   2.590   9.075   1.779 -0.2150 -0.2199  0.2973
  114MOL0     C15604   2.725   9.061   1.710 -0.3278 -0.0360 -0.3120
  114MOL0     C15605   2.795   9.197   1.700 -0.2347 -0.7264 -0.1814
  114MOL0     C15606   2.927   9.196   1.629 -0.6097  0.3096  0.3645
  114MOL0     C15607   2.989   9.337   1.630  0.0168  0.2532 -0.2257
  114MOL0     C15608   3.126   9.350   1.557  0.4101 -0.7448 -0.6353
  114MOL0     C15609   3.108   9.336   1.410  0.0065 -0.1044  0.1823
  114MOL0     C15610   3.196   9.413   1.317 -0.1737 -0.1094 -0.5251
  114MOL0     N15611   3.329   9.444   1.375  0.1463 -0.3958  0.3735
  114MOL0     C15612   3.428   9.353   1.363 -1.3699 -0.8991  0.1828
  114MOL0     C15613   3.538   9.418   1.410  0.1978 -0.0053 -0.4449
  114MOL0     C15614   3.675   9.363   1.417  0.3144  0.3996  0.1044
  114MOL0     C15615   3.765   9.446   1.315 -0.0849  0.0989 -0.8425
  114MOL0     C15616   3.920   9.418   1.326  0.3488  0.4333 -0.0117
  114MOL0     C15617   3.995   9.496   1.432  0.1706 -0.1869  0.6997
  114MOL0     O15618   4.129   9.460   1.427 -0.3372 -0.6623  0.1975
  114MOL0     C15619   4.213   9.509   1.325 -0.3072  0.0040 -0.0357
  114MOL0     C15620   4.350   9.479   1.344  0.5858 -0.4033 -0.3159
  114MOL0     C15621   4.446   9.516   1.253  0.6930 -0.3339  0.6716
  114MOL0     C15622   4.589   9.479   1.279  0.4602  0.3669  0.7115
  114MOL0     C15623   4.400   9.580   1.132  0.0663  0.0843 -0.5202
  114MOL0     C15624   4.502   9.624   1.026  0.4601  0.2229  0.5154
  114MOL0     O15625   4.466   9.734   0.949 -0.9441 -0.3428 -0.0665
  114MOL0     C15626   4.536   9.754   0.833 -0.3035 -0.7554 -0.1785
  114MOL0     C15627   4.594   9.666   0.745 -0.5761 -0.1519 -0.6908
  114MOL0     C15628   4.666   9.716   0.636  0.0286 -0.3280  0.3363
  114MOL0     C15629   4.674   9.855   0.607  0.1617  0.3735 -0.2286
  114MOL0     O15630   4.758   9.890   0.505 -0.1985 -0.7731 -0.2993
  114MOL0     C15631   4.785  10.027   0.476  0.3806  0.2862 -0.7842
  114MOL0     C15632   4.896  10.072   0.561 -0.1601  0.0556 -0.0742
  114MOL0     C15633   4.954  10.204   0.514 -1.0825  0.0393  0.0045
  114MOL0     C15634   5.020  10.284   0.628 -0.1371  0.0924  0.9052
  114MOL0     C15635   5.103  10.393   0.560 -0.7520  0.3404 -0.3231
  114MOL0     C15636   5.161  10.493   0.668  0.8002 -0.3634 -0.7186
  114MOL0     C15637   5.168  10.641   0.621 -1.2863 -0.5164 -0.9228
  114MOL0     C15638   5.292  10.656   0.529 -0.3028  0.3431 -0.2757
  114MOL0    Cl15639   5.308  10.834   0.489  0.0824  0.1518 -0.3620
  114MOL0     C15640   4.601   9.944   0.686 -0.3957  0.4867  0.5009
  114MOL0     C15641   4.536   9.891   0.795  0.8005 -0.0004 -0.3007
  114MOL0     O15642   4.609   9.561   1.009 -0.2505 -0.7384 -0.3299
  114MOL0     C15643   4.265   9.618   1.121  0.4606 -0.5704  0.5641
  114MOL0     C15644   4.177   9.587   1.216  0.3123  0.0898 -0.2617
  114MOL0     N15645   3.502   9.547   1.458  0.7699 -0.0207  0.0387
  114MOL0     N15646   3.378   9.553   1.428 -0.2657  0.6254  0.2180
  114MOL0     C15647   2.351   9.079   1.935  0.3535  1.1116  1.0496
  114MOL0     C15648   2.240   9.078   2.011 -1.2736 -0.2129 -0.6168
  114MOL0     C15649   1.989   8.949   2.360 -0.4807 -0.4726 -0.4055
  114MOL0     C15650   1.995   8.842   2.454  0.5098  0.2467 -0.2238
  114MOL0     C15651   1.888   8.799   2.527  0.2306 -0.0758  0.2232
  114MOL0     C15652   1.773   8.871   2.526  0.4024 -0.0807  0.0804
  114MOL0     O15653   1.675   8.814   2.609  0.9470  0.9175 -0.5434
  114MOL0     C15654   1.568   8.900   2.655 -0.7705  0.9129 -0.3114
  114MOL0     C15655   1.453   8.884   2.563 -0.3667  0.7508  0.3502
  114MOL0     C15656   1.340   8.957   2.625 -1.1040 -0.3286  0.7730
  114MOL0     C15657   1.219   8.951   2.537 -0.8027 -0.3373 -0.5703
  114MOL0     C15658   1.221   9.028   2.414  0.1066 -0.2517  0.0546
  114MOL0     C15659   1.222   9.097   2.319 -0.2132 -0.4694  0.2989
  114MOL0     C15660   1.769   8.994   2.444  0.4932 -0.7929 -0.3256
  114MOL0     C15661   1.872   9.026   2.359  0.0891 -0.1076  0.0182
  114MOL0     C15662   1.855   9.153   2.272 -0.6346 -0.5745  0.9412
  114MOL0     H15663   2.362   9.220   2.290 -2.1365 -1.1596  0.7956
  114MOL0     H15664   2.568   9.226   2.145 -0.8210  2.7841 -0.6566
  114MOL0     H15665   2.526   9.151   1.733  0.8212  0.1704 -0.5209
  114MOL0     H15666   2.544   8.977   1.762 -0.0309 -0.3854  0.7341
  114MOL0     H15667   2.790   8.982   1.749 -1.0958 -0.5666 -0.0712
  114MOL0     H15668   2.697   9.031   1.608  2.2467 -0.7503 -0.8757
  114MOL0     H15669   2.725   9.268   1.655 -1.6290 -1.9840 -0.0764
  114MOL0     H15670   2.821   9.231   1.800  0.5456  3.4785 -1.6103
  114MOL0     H15671   2.998   9.127   1.676  1.0887  1.4069 -0.4786
  114MOL0     H15672   2.912   9.175   1.523  0.6188  3.8428 -0.6498
  114MOL0     H15673   3.002   9.370   1.734 -1.5417  0.3579 -0.0505
  114MOL0     H15674   2.910   9.399   1.589 -1.9172  0.5273  3.4703
  114MOL0     H15675   3.154   9.451   1.586  0.1602 -1.1430  1.1146
  114MOL0     H15676   3.201   9.277   1.591  3.6446  2.1384 -1.0882
  114MOL0     H15677   3.014   9.386   1.389  0.8448  1.8965  0.9865
  114MOL0     H15678   3.117   9.230   1.384  1.1739 -0.5771  2.2176
  114MOL0     H15679   3.204   9.354   1.225 -1.7318 -0.9661 -0.1584
  114MOL0     H15680   3.151   9.510   1.296  0.3761  0.0093 -1.1655
  114MOL0     H15681   3.438   9.249   1.332  3.1674 -1.1899  1.9335
  114MOL0     H15682   3.676   9.260   1.382 -1.8189  0.4376 -0.1475
  114MOL0     H15683   3.720   9.366   1.517 -0.1489  0.6874  0.3081
  114MOL0     H15684   3.725   9.428   1.215 -0.9459  2.7931 -1.0750
  114MOL0     H15685   3.754   9.550   1.346 -2.2912 -1.1774  3.4857
  114MOL0     H15686   3.942   9.313   1.346  0.5878  0.5057  0.1038
  114MOL0     H15687   3.947   9.440   1.222 -2.6883  2.0177 -0.5871
  114MOL0     H15688   3.981   9.604   1.415 -1.4724 -0.4307  0.2890
  114MOL0     H15689   3.957   9.469   1.531  0.5386 -1.3295  0.5442
  114MOL0     H15690   4.378   9.427   1.435  0.8218  1.8513  0.9691
  114MOL0     H15691   4.597   9.428   1.376  0.5494  0.9226  1.0058
  114MOL0     H15692   4.652   9.567   1.292  0.5601  0.0088  3.1132
  114MOL0     H15693   4.620   9.408   1.202 -2.6193 -0.9385  0.5562
  114MOL0     H15694   4.579   9.562   0.771 -0.9417  0.3635  1.3093
  114MOL0     H15695   4.728   9.658   0.568 -0.4069 -1.2102  0.6822
  114MOL0     H15696   4.813  10.022   0.370  2.7215 -3.1442 -0.1618
  114MOL0     H15697   4.703  10.097   0.493  0.5614 -0.0035  1.5154
  114MOL0     H15698   4.865  10.077   0.665 -0.4198 -0.9180 -0.0922
  114MOL0     H15699   4.962   9.985   0.565 -2.5476 -1.8422  0.6414
  114MOL0     H15700   4.882  10.280   0.480  3.2739  5.4726  1.3455
  114MOL0     H15701   5.023  10.188   0.431 -1.9416  2.5390 -1.2900
  114MOL0     H15702   5.078  10.222   0.697  1.5091  1.1677  0.5648
  114MOL0     H15703   4.940  10.330   0.686  0.3796 -0.3026  1.9554
  114MOL0     H15704   5.181  10.360   0.491 -0.8918 -0.7441  0.0332
  114MOL0     H15705   5.028  10.451   0.505 -2.0298 -0.4292  0.5672
  114MOL0     H15706   5.250  10.444   0.707 -0.0899 -3.4167 -2.2011
  114MOL0     H15707   5.088  10.493   0.749  0.3740  3.0928 -0.9467
  114MOL0     H15708   5.184  10.706   0.707 -1.4291 -1.1484 -0.4095
  114MOL0     H15709   5.080  10.684   0.572 -0.6125  1.0223 -0.8047
  114MOL0     H15710   5.278  10.598   0.437 -2.2779  0.4219 -0.0646
  114MOL0     H15711   5.383  10.632   0.585 -1.9724 -3.1698  1.2102
  114MOL0     H15712   4.609  10.050   0.668 -0.6680  0.2518 -1.1485
  114MOL0     H15713   4.484   9.950   0.869 -2.0587 -1.2919 -1.1401
  114MOL0     H15714   4.222   9.681   1.044  0.9480  0.0540  0.7967
  114MOL0     H15715   4.078   9.620   1.187  0.3726 -0.7259 -1.4530
  114MOL0     H15716   2.343   9.034   1.836  3.6854  2.3724  0.0731
  114MOL0     H15717   2.155   9.026   1.966 -1.6984 -0.1254  0.0689
  114MOL0     H15718   2.090   8.791   2.471 -0.5383 -1.1037  2.0198
  114MOL0     H15719   1.891   8.706   2.584 -1.3786  0.3551  1.0751
  114MOL0     H15720   1.559   8.877   2.762 -2.4968  2.3055 -0.1103
  114MOL0     H15721   1.608   9.002   2.650  1.8280  0.1396  2.1183
  114MOL0     H15722   1.436   8.776   2.562 -0.9936  0.8214  1.7525
  114MOL0     H15723   1.482   8.923   2.465  0.1126  1.0124  0.5890
  114MOL0     H15724   1.313   8.904   2.716 -1.4559 -0.6044  0.5105
  114MOL0     H15725   1.371   9.060   2.650  0.1581 -0.3046 -0.7595
  114MOL0     H15726   1.133   8.990   2.591 -0.9549 -1.8605  0.3642
  114MOL0     H15727   1.198   8.845   2.516 -3.5021  0.2314 -1.1313
  114MOL0     H15728   1.221   9.165   2.237 -0.4961 -0.3877  0.3710
  114MOL0     H15729   1.690   9.068   2.447  1.1763 -0.0561  0.0835
  114MOL0     H15730   1.916   9.237   2.305 -0.3814 -0.2251 -0.3594
  114MOL0     H15731   1.871   9.134   2.166 -1.1800 -0.8442  0.9013
  114MOL0     H15732   1.752   9.190   2.274 -1.2895 -2.0505 -1.3730
  115MOL0     O15733   7.680   8.862   1.572 -0.5706  0.6876 -0.7811
  115MOL0     C15734   7.649   8.816   1.676 -0.1069  0.3267  0.4431
  115MOL0     O15735   7.709   8.843   1.789  0.4613 -0.0585 -1.8364
  115MOL0     C15736   7.808   8.935   1.798 -1.3874 -1.0387 -0.7239
  115MOL0     C15737   7.903   8.903   1.894 -0.5874  0.3463 -0.0398
  115MOL0     C15738   8.013   8.991   1.912  0.1129 -0.5345  0.2670
  115MOL0     C15739   8.026   9.106   1.834 -0.2860 -0.7573  0.1331
  115MOL0     O15740   8.150   9.160   1.856 -0.3572 -0.1206  0.9888
  115MOL0     C15741   8.223   9.226   1.744  0.1407  0.2439 -0.3308
  115MOL0     C15742   8.366   9.257   1.784 -0.2382 -0.3766  0.1976
  115MOL0     C15743   8.378   9.357   1.901  0.0895 -1.1351  0.7461
  115MOL0     C15744   8.266   9.463   1.889 -0.0034 -0.5743  0.0851
  115MOL0     C15745   8.277   9.565   2.007 -0.4191 -0.0764 -0.2149
  115MOL0     C15746   8.395   9.660   1.994 -0.4398  0.3097  0.9110
  115MOL0     C15747   8.421   9.762   2.118  0.3755  0.5784 -0.0105
  115MOL0     C15748   8.569   9.807   2.116  0.1100 -0.8602 -0.1330
  115MOL0     N15749   8.590   9.938   2.183  0.7621 -0.3533 -0.2107
  115MOL0     C15750   8.635   9.941   2.319 -0.0775 -0.1228 -0.1422
  115MOL0     C15751   8.653  10.069   2.346  0.6394 -0.2637 -0.0080
  115MOL0     C15752   8.716  10.119   2.468  0.8943 -0.4768 -0.2275
  115MOL0     C15753   8.703  10.036   2.603 -0.2647 -0.1835  0.0788
  115MOL0     C15754   8.821   9.943   2.621 -0.4779 -0.2227 -0.6644
  115MOL0     C15755   8.822   9.874   2.755  0.3382 -0.8768  0.0038
  115MOL0     O15756   8.813   9.729   2.732 -0.4481  0.0138 -0.5473
  115MOL0     C15757   8.684   9.689   2.689 -0.1108  0.0240 -0.4533
  115MOL0     C15758   8.676   9.613   2.571 -0.3665  0.3775  0.4187
  115MOL0     C15759   8.561   9.569   2.524  0.7906  0.5844 -0.4279
  115MOL0     C15760   8.558   9.480   2.406  0.4686  0.6001 -0.2674
  115MOL0     C15761   8.439   9.606   2.586 -0.0342  0.5705 -1.1080
  115MOL0     C15762   8.293   9.567   2.539  0.5998  0.4049 -0.5655
  115MOL0     O15763   8.182   9.598   2.622  0.6799  0.0964 -0.2546
  115MOL0     C15764   8.054   9.546   2.608 -0.2008 -0.4004  0.0040
  115MOL0     C15765   8.026   9.428   2.534  0.1547 -0.4844 -0.2309
  115MOL0     C15766   7.894   9.377   2.543 -0.3529  0.6923  0.0312
  115MOL0     C15767   7.791   9.445   2.607 -0.3617  0.2663 -0.1664
  115MOL0     O15768   7.674   9.379   2.619 -0.1008 -0.1142 -0.8203
  115MOL0     C15769   7.684   9.247   2.676  0.4452  0.2510  0.0508
  115MOL0     C15770   7.563   9.215   2.760  1.1759  0.0533  0.3875
  115MOL0     C15771   7.552   9.306   2.880 -0.4008 -0.2672 -0.6058
  115MOL0     C15772   7.434   9.263   2.955 -0.3520 -0.5446  0.0025
  115MOL0     C15773   7.404   9.371   3.060  1.3201  0.4883  0.4731
  115MOL0     C15774   7.279   9.332   3.151  0.0731  0.0199 -0.2697
  115MOL0     C15775   7.231   9.461   3.228 -0.3799  0.1458  0.0809
  115MOL0     C15776   7.106   9.438   3.305  0.4127  0.4226 -0.3778
  115MOL0    Cl15777   7.067   9.598   3.386 -0.4176  0.4555  0.3969
  115MOL0     C15778   7.827   9.562   2.684 -0.4330  0.3229  0.5412
  115MOL0     C15779   7.952   9.616   2.678 -0.9420  0.2799  0.4283
  115MOL0     O15780   8.275   9.521   2.430  0.1632  0.2791 -0.4004
  115MOL0     C15781   8.453   9.676   2.708 -0.0716 -0.2979 -0.5093
  115MOL0     C15782   8.569   9.718   2.759  0.0724  0.6401 -0.4270
  115MOL0     N15783   8.604  10.141   2.232 -0.1926 -0.8405 -0.2610
  115MOL0     N15784   8.569  10.064   2.137  0.0285  0.0270  0.5627
  115MOL0     C15785   7.923   9.150   1.748  1.2934  0.3306 -0.8078
  115MOL0     C15786   7.822   9.058   1.730  0.3725 -0.7431  0.3607
  115MOL0     C15787   7.531   8.724   1.690 -0.5391  0.4444 -0.5205
  115MOL0     C15788   7.520   8.641   1.810 -0.5806  1.1312 -0.0694
  115MOL0     C15789   7.410   8.571   1.846  1.2464 -0.4891  0.1477
  115MOL0     C15790   7.299   8.575   1.757  0.3621  0.7784 -0.5655
  115MOL0     O15791   7.179   8.530   1.808 -0.2988  0.0355 -0.0964
  115MOL0     C15792   7.101   8.444   1.732  0.8359 -0.2935  0.3554
  115MOL0     C15793   7.015   8.368   1.831  0.1188  0.7394 -0.8234
  115MOL0     C15794   6.914   8.274   1.756  0.3099  0.1481  1.1945
  115MOL0     C15795   6.846   8.191   1.858  0.1747 -0.5651 -0.7012
  115MOL0     C15796   6.732   8.263   1.924  0.0205  0.2276  0.0852
  115MOL0     C15797   6.632   8.315   1.968  0.7185  0.7515  0.8540
  115MOL0     C15798   7.310   8.635   1.639 -0.6219  0.6602  0.3631
  115MOL0     C15799   7.418   8.728   1.609 -0.1158 -0.2016  0.0176
  115MOL0     C15800   7.401   8.807   1.482 -0.8470 -0.2196  0.7788
  115MOL0     H15801   7.892   8.814   1.954  2.8461  0.3141  0.7428
  115MOL0     H15802   8.089   8.974   1.987 -0.8456 -1.0070  1.1515
  115MOL0     H15803   8.172   9.315   1.707 -0.8542  0.0960  0.6311
  115MOL0     H15804   8.221   9.153   1.663 -0.3790 -0.3362  0.1925
  115MOL0     H15805   8.422   9.166   1.805 -1.4361 -1.5950 -1.5217
  115MOL0     H15806   8.403   9.306   1.693  0.2377 -0.7511  0.1854
  115MOL0     H15807   8.387   9.306   1.997 -2.3114  1.1337  2.3371
  115MOL0     H15808   8.474   9.406   1.888  0.2220 -1.1799  1.5229
  115MOL0     H15809   8.276   9.512   1.792  1.8308 -1.9953 -0.5041
  115MOL0     H15810   8.169   9.413   1.897  0.5268 -1.7178 -0.3232
  115MOL0     H15811   8.296   9.501   2.093 -0.4670 -1.8109 -1.4483
  115MOL0     H15812   8.186   9.623   2.022  0.2867  0.9176  0.3885
  115MOL0     H15813   8.486   9.599   1.986 -0.5847  0.3545 -2.5226
  115MOL0     H15814   8.377   9.712   1.900  0.9771  0.7158  0.8296
  115MOL0     H15815   8.398   9.717   2.215  0.2576  2.8112  1.0372
  115MOL0     H15816   8.357   9.848   2.097  0.0689  0.1144 -1.0635
  115MOL0     H15817   8.631   9.737   2.171 -0.1045 -0.4549  0.6445
  115MOL0     H15818   8.601   9.810   2.012 -0.1282  2.2742 -0.2216
  115MOL0     H15819   8.649   9.857   2.385 -0.8028 -1.7165 -1.9224
  115MOL0     H15820   8.674  10.218   2.487  0.9698 -0.3122 -0.9084
  115MOL0     H15821   8.819  10.150   2.449  0.8313  2.4653  3.0654
  115MOL0     H15822   8.699  10.111   2.683  2.4368  2.7358 -2.2089
  115MOL0     H15823   8.606   9.987   2.593 -1.7728  2.9468 -3.3442
  115MOL0     H15824   8.826   9.870   2.540  2.4415  0.0404 -0.8486
  115MOL0     H15825   8.911  10.006   2.622 -2.2418  2.4475  0.4770
  115MOL0     H15826   8.918   9.890   2.805  0.3326  0.9526 -0.4857
  115MOL0     H15827   8.746   9.919   2.819  0.6517  2.0923 -1.4944
  115MOL0     H15828   8.769   9.591   2.520  1.1849 -3.2116  4.2609
  115MOL0     H15829   8.497   9.390   2.419  1.3217 -0.4453 -2.8346
  115MOL0     H15830   8.655   9.439   2.378  0.0142 -1.0684  0.4689
  115MOL0     H15831   8.507   9.529   2.322  1.3328 -0.3105 -1.3445
  115MOL0     H15832   8.099   9.374   2.475  0.8361 -0.8241  0.8921
  115MOL0     H15833   7.874   9.281   2.496 -0.0208  1.2627 -1.3177
  115MOL0     H15834   7.689   9.183   2.588 -3.0173  0.3425 -0.3464
  115MOL0     H15835   7.777   9.230   2.733 -0.2462 -1.8040  0.6520
  115MOL0     H15836   7.471   9.221   2.701  0.8243 -1.0180  0.7917
  115MOL0     H15837   7.566   9.111   2.795 -1.1597 -0.1246  0.2280
  115MOL0     H15838   7.533   9.410   2.850 -0.4593 -0.3027 -0.6909
  115MOL0     H15839   7.641   9.306   2.943  0.7392  1.0562 -2.1281
  115MOL0     H15840   7.458   9.171   3.009 -0.6891 -1.1183 -0.7984
  115MOL0     H15841   7.338   9.238   2.908 -0.6515 -3.4763  1.8994
  115MOL0     H15842   7.488   9.385   3.128 -0.8585 -0.4094  3.6359
  115MOL0     H15843   7.376   9.459   3.001  1.7722  0.4319  0.1737
  115MOL0     H15844   7.294   9.254   3.225  1.6330  1.7227  1.3138
  115MOL0     H15845   7.190   9.308   3.093 -2.7580  1.9885  2.9407
  115MOL0     H15846   7.205   9.532   3.149 -1.0348 -2.0548 -1.7936
  115MOL0     H15847   7.312   9.498   3.291  0.8807 -0.4971 -1.1206
  115MOL0     H15848   7.129   9.359   3.378 -1.8162 -1.0056 -1.1010
  115MOL0     H15849   7.019   9.411   3.245  2.1144  1.4297 -3.5380
  115MOL0     H15850   7.756   9.622   2.740  0.6002  1.5204  0.5890
  115MOL0     H15851   7.979   9.703   2.737 -1.5188  0.7938 -0.0541
  115MOL0     H15852   8.360   9.698   2.759 -0.2487  0.7215 -1.2382
  115MOL0     H15853   8.569   9.782   2.847  0.0528 -0.9844  0.8222
  115MOL0     H15854   7.932   9.238   1.685 -1.2878  0.0902 -1.6054
  115MOL0     H15855   7.747   9.087   1.656  1.4206  2.0148  0.2652
  115MOL0     H15856   7.603   8.632   1.879  0.0416  0.7111 -0.8572
  115MOL0     H15857   7.407   8.512   1.937  0.3425 -1.5093 -0.5079
  115MOL0     H15858   7.035   8.488   1.656 -1.5333 -4.6241 -0.4611
  115MOL0     H15859   7.159   8.377   1.668  2.4952  1.3488  0.0571
  115MOL0     H15860   6.950   8.436   1.888 -0.8099  0.9176 -2.0411
  115MOL0     H15861   7.080   8.312   1.899  1.4814  1.1802 -1.7180
  115MOL0     H15862   6.847   8.339   1.700  1.3415  2.1445  2.1940
  115MOL0     H15863   6.961   8.201   1.688 -1.8288 -1.9829  1.8646
  115MOL0     H15864   6.906   8.140   1.933  0.1214 -0.8169 -0.8280
  115MOL0     H15865   6.793   8.117   1.796 -2.2492  0.6362 -0.2017
  115MOL0     H15866   6.547   8.350   2.023 -1.2067 -1.7399 -0.3362
  115MOL0     H15867   7.221   8.633   1.578 -0.9824  3.0503  0.6875
  115MOL0     H15868   7.469   8.762   1.411 -1.2332  1.2920 -0.6124
  115MOL0     H15869   7.298   8.808   1.445 -1.0744  1.6933  1.3135
  115MOL0     H15870   7.427   8.910   1.509  1.4866 -0.2771 -1.0444
  116MOL0     O15871   7.192  11.300   3.646  0.0980 -0.2993 -0.1544
  116MOL0     C15872   7.092  11.267   3.708  0.6583 -0.0712  0.3145
  116MOL0     O15873   7.074  11.157   3.791 -0.1012  0.3770 -0.0968
  116MOL0     C15874   7.170  11.069   3.829  0.4872 -0.7435  0.1048
  116MOL0     C15875   7.311  11.081   3.821  0.0107  0.5873  0.9847
  116MOL0     C15876   7.396  10.988   3.887  0.4579  0.5301  0.8259
  116MOL0     C15877   7.343  10.872   3.942 -0.2273 -0.6780  0.2170
  116MOL0     O15878   7.428  10.787   4.007 -0.1899  0.0664 -0.2969
  116MOL0     C15879   7.417  10.753   4.149  0.7308  0.3529  0.6417
  116MOL0     C15880   7.517  10.632   4.188 -1.2756 -0.9525 -0.9283
  116MOL0     C15881   7.650  10.684   4.176  0.5738 -0.5197 -0.1802
  116MOL0     C15882   7.747  10.573   4.181 -0.1260  0.4394 -0.4034
  116MOL0     C15883   7.894  10.625   4.193 -0.0970 -0.2795 -0.3124
  116MOL0     C15884   7.983  10.500   4.220  0.5569 -0.2082  0.0125
  116MOL0     C15885   8.102  10.526   4.308  0.3799  0.5061 -0.3237
  116MOL0     C15886   8.198  10.635   4.248 -0.1569 -0.2052 -0.5170
  116MOL0     N15887   8.305  10.654   4.351 -0.1079  0.1872 -0.5444
  116MOL0     C15888   8.305  10.737   4.457 -0.2601 -0.1461 -0.3876
  116MOL0     C15889   8.433  10.750   4.489 -0.4324 -0.5246 -0.0617
  116MOL0     C15890   8.478  10.815   4.613  0.5843 -0.1505  0.4466
  116MOL0     C15891   8.484  10.964   4.589 -0.1742  0.2144  0.2188
  116MOL0     C15892   8.582  11.001   4.475  0.1436 -0.6817  0.5344
  116MOL0     C15893   8.728  10.955   4.506 -0.2976  0.4788 -0.8962
  116MOL0     O15894   8.804  10.970   4.379 -0.1422  0.5373 -0.1710
  116MOL0     C15895   8.939  10.955   4.383  0.0197 -0.4109  0.3472
  116MOL0     C15896   9.013  10.914   4.494  0.5646  0.1389  0.0133
  116MOL0     C15897   9.146  10.892   4.483 -0.3384 -0.0897  0.7145
  116MOL0     C15898   9.222  10.833   4.599  0.8539 -0.1789  0.1556
  116MOL0     C15899   9.219  10.931   4.370 -0.5386  0.4805  0.2976
  116MOL0     C15900   9.370  10.946   4.360 -0.6043 -0.0117  0.3230
  116MOL0     O15901   9.466  10.916   4.457  0.3014 -0.5866  0.5539
  116MOL0     C15902   9.597  10.962   4.436 -0.4042 -0.0514 -0.1859
  116MOL0     C15903   9.662  11.031   4.538  0.5838 -1.1702 -0.4002
  116MOL0     C15904   9.795  11.080   4.522 -0.8330 -0.4985 -0.9541
  116MOL0     C15905   9.867  11.050   4.407 -0.1097  0.1508  0.9477
  116MOL0     O15906   9.995  11.088   4.394  0.6675 -1.9149 -1.1918
  116MOL0     C15907  10.037  11.116   4.254  0.8305 -0.1464 -1.3270
  116MOL0     C15908  10.186  11.153   4.247 -0.5492  0.0392 -0.2549
  116MOL0     C15909  10.244  11.224   4.377  1.1291  0.9473  0.7357
  116MOL0     C15910  10.341  11.327   4.329 -0.6573 -0.3682 -0.9579
  116MOL0     C15911  10.477  11.274   4.274  0.7682  0.2618  0.2151
  116MOL0     C15912  10.552  11.206   4.387  0.2138  0.4847  0.1173
  116MOL0     C15913  10.706  11.198   4.355  0.0779  0.2166 -1.3418
  116MOL0     C15914  10.764  11.119   4.481  0.0808 -0.5027  0.3829
  116MOL0    Cl15915  10.947  11.135   4.454  0.0057 -0.4209  0.2711
  116MOL0     C15916   9.797  10.979   4.309  0.0908  0.8905 -0.4359
  116MOL0     C15917   9.670  10.941   4.315  0.4109  0.3308  0.2501
  116MOL0     O15918   9.402  10.999   4.253  0.3759 -0.7418 -0.1134
  116MOL0     C15919   9.137  10.965   4.261  0.1462 -0.2895  0.4816
  116MOL0     C15920   9.003  10.983   4.267  0.6753  0.2613  0.5399
  116MOL0     N15921   8.511  10.673   4.409  0.4991 -0.3811  0.3057
  116MOL0     N15922   8.430  10.621   4.322 -0.4026  0.5085 -0.9812
  116MOL0     C15923   7.203  10.855   3.942 -0.7728  0.2814  0.0247
  116MOL0     C15924   7.122  10.948   3.883  0.7232  0.0372 -1.0416
  116MOL0     C15925   6.966  11.324   3.673 -0.3831 -0.3747 -0.5924
  116MOL0     C15926   6.882  11.361   3.780 -0.3679  0.7598 -0.1211
  116MOL0     C15927   6.763  11.427   3.760  0.4445 -0.6429 -0.4549
  116MOL0     C15928   6.729  11.460   3.623  0.0637  0.3341  0.0112
  116MOL0     O15929   6.624  11.551   3.599  0.5309  0.0674 -0.0456
  116MOL0     C15930   6.505  11.553   3.686 -0.0550 -0.0922 -0.5596
  116MOL0     C15931   6.364  11.552   3.618 -0.0340 -0.0031  0.4596
  116MOL0     C15932   6.342  11.413   3.560 -0.1221 -1.3400  1.1519
  116MOL0     C15933   6.202  11.391   3.495  0.6168  0.4467  0.9026
  116MOL0     C15934   6.097  11.407   3.589  1.0607 -0.1380  0.0983
  116MOL0     C15935   6.002  11.415   3.672  0.1268  0.7073 -0.4796
  116MOL0     C15936   6.801  11.425   3.514  0.0975  0.5351 -0.3346
  116MOL0     C15937   6.919  11.353   3.538 -0.4103 -0.3029  0.1596
  116MOL0     C15938   6.992  11.313   3.423  0.2188  0.1191  0.3082
  116MOL0     H15939   7.364  11.160   3.771  0.2071 -0.4050 -0.4279
  116MOL0     H15940   7.500  11.013   3.874  0.3281  0.2641 -0.9603
  116MOL0     H15941   7.318  10.717   4.180  1.2780 -0.3993  1.5528
  116MOL0     H15942   7.440  10.840   4.211 -1.3188  0.2663  1.6084
  116MOL0     H15943   7.500  10.603   4.292  3.2775 -0.4944  0.1589
  116MOL0     H15944   7.505  10.541   4.128  0.1919 -3.1874  1.9498
  116MOL0     H15945   7.662  10.751   4.090 -0.2829  1.5952  1.2572
  116MOL0     H15946   7.661  10.749   4.264 -3.2292  0.0807  0.0463
  116MOL0     H15947   7.721  10.505   4.262  1.4861  1.3410  0.9463
  116MOL0     H15948   7.741  10.514   4.090 -0.1492  0.2848 -0.3011
  116MOL0     H15949   7.896  10.694   4.278 -2.3386 -0.1806 -0.2631
  116MOL0     H15950   7.929  10.692   4.114  0.3651  1.8098  1.5640
  116MOL0     H15951   7.920  10.424   4.267  0.9711  0.1362  1.1624
  116MOL0     H15952   8.025  10.478   4.122  0.8290  1.3558 -0.2579
  116MOL0     H15953   8.170  10.441   4.321  4.8824  3.4906 -2.0222
  116MOL0     H15954   8.072  10.562   4.406  5.2540 -0.7696  1.9109
  116MOL0     H15955   8.232  10.605   4.148 -0.8377 -0.5721 -0.6454
  116MOL0     H15956   8.144  10.729   4.235  0.1714  0.6338  3.0492
  116MOL0     H15957   8.218  10.795   4.489 -2.2657 -0.9550 -3.8490
  116MOL0     H15958   8.571  10.769   4.648  2.2244  0.8275 -2.3581
  116MOL0     H15959   8.402  10.805   4.691  0.1141  0.4188  0.0601
  116MOL0     H15960   8.385  11.003   4.564 -1.1635 -1.7788  0.7785
  116MOL0     H15961   8.514  11.019   4.678  2.5258  1.3550 -1.2601
  116MOL0     H15962   8.548  10.944   4.388  1.0359 -0.8970  0.3132
  116MOL0     H15963   8.581  11.109   4.460  2.3476 -0.5298  1.1384
  116MOL0     H15964   8.771  11.020   4.583 -1.4859 -2.0486  2.1518
  116MOL0     H15965   8.726  10.854   4.547 -1.1833  0.4683 -0.9472
  116MOL0     H15966   8.957  10.892   4.584  0.0594  0.8449 -0.1186
  116MOL0     H15967   9.162  10.787   4.678  1.3565  1.7010  1.7133
  116MOL0     H15968   9.283  10.899   4.661 -0.4747 -1.7682  3.3789
  116MOL0     H15969   9.282  10.748   4.566  2.2233  0.5968  0.5783
  116MOL0     H15970   9.609  11.057   4.629 -0.0355 -1.2243 -0.7441
  116MOL0     H15971   9.831  11.136   4.608 -0.6255 -1.7626 -0.1922
  116MOL0     H15972  10.040  11.024   4.195  3.0031  0.3200 -2.0427
  116MOL0     H15973   9.980  11.199   4.211  2.0028  2.0907  1.1162
  116MOL0     H15974  10.244  11.061   4.241  1.6296  1.0677  2.6385
  116MOL0     H15975  10.218  11.205   4.157  0.3666 -0.0366  0.0161
  116MOL0     H15976  10.285  11.150   4.447  0.9282 -1.8647 -1.9015
  116MOL0     H15977  10.164  11.278   4.427  0.0728  0.3614 -0.2743
  116MOL0     H15978  10.367  11.387   4.416 -3.3048 -1.2413  0.5346
  116MOL0     H15979  10.291  11.397   4.262 -1.1543 -1.3397 -1.6244
  116MOL0     H15980  10.460  11.205   4.191  1.4123 -0.5642  0.7519
  116MOL0     H15981  10.530  11.361   4.234 -1.3615  1.0023 -1.1469
  116MOL0     H15982  10.519  11.102   4.398 -0.6968  0.6835 -0.6097
  116MOL0     H15983  10.532  11.258   4.481 -0.7487  0.6054 -0.1468
  116MOL0     H15984  10.744  11.300   4.341  1.3794  0.4473  2.6807
  116MOL0     H15985  10.726  11.141   4.263  2.4069 -0.0480 -0.7428
  116MOL0     H15986  10.742  11.013   4.492  0.2166 -0.5364  0.3347
  116MOL0     H15987  10.733  11.171   4.573  1.7085 -1.5158  1.5558
  116MOL0     H15988   9.848  10.951   4.217  0.7110 -2.4208  0.7791
  116MOL0     H15989   9.616  10.895   4.233  1.4281  2.2339 -1.5773
  116MOL0     H15990   9.165  10.988   4.158 -0.4965  2.3034  0.8265
  116MOL0     H15991   8.957  11.022   4.177 -1.1416 -2.2317  0.2812
  116MOL0     H15992   7.166  10.763   3.986  1.5678  0.2252  2.0986
  116MOL0     H15993   7.015  10.935   3.896  0.8362 -1.4583 -1.4105
  116MOL0     H15994   6.913  11.329   3.879 -3.1462 -1.9192  0.0326
  116MOL0     H15995   6.709  11.468   3.845 -0.9865 -1.5007 -0.9255
  116MOL0     H15996   6.512  11.466   3.753  0.2252  1.1919  1.1454
  116MOL0     H15997   6.514  11.638   3.754  0.4885 -0.0321 -0.7014
  116MOL0     H15998   6.350  11.629   3.541  0.8777  0.3742  0.6557
  116MOL0     H15999   6.284  11.574   3.689 -2.2557  1.5630 -2.2826
  116MOL0     H16000   6.414  11.396   3.480 -1.7511 -3.7096  0.0748
  116MOL0     H16001   6.355  11.335   3.635  0.5717 -2.1415  0.2354
  116MOL0     H16002   6.208  11.288   3.458  0.1499  0.5855  0.4367
  116MOL0     H16003   6.173  11.453   3.410 -1.0489 -0.9736  0.3671
  116MOL0     H16004   5.905  11.420   3.716 -0.6379  2.0591 -2.2435
  116MOL0     H16005   6.783  11.466   3.416 -3.0829 -2.7437 -1.3587
  116MOL0     H16006   6.932  11.332   3.334 -0.1740  0.6681  0.6873
  116MOL0     H16007   7.089  11.363   3.415  0.1764  0.4322  1.4852
  116MOL0     H16008   7.013  11.206   3.434 -1.3276 -0.3871 -1.2507
  117MOL0     O16009   2.691   3.431   7.592  0.2317 -1.0741  0.3733
  117MOL0     C16010   2.618   3.381   7.503 -0.5734  0.2695  0.1411
  117MOL0     O16011   2.665   3.317   7.395  0.7682 -0.3791 -0.1014
  117MOL0     C16012   2.796   3.289   7.389 -1.0146  0.2577 -0.3828
  117MOL0     C16013   2.862   3.191   7.477  0.4782  0.1846 -0.1523
  117MOL0     C16014   3.000   3.159   7.463  0.8565 -0.7105 -0.2220
  117MOL0     C16015   3.073   3.220   7.360  0.4720  0.8971 -0.5376
  117MOL0     O16016   3.197   3.178   7.333  0.0139  0.2688  0.0320
  117MOL0     C16017   3.299   3.244   7.403 -0.8808 -0.3794  0.4097
  117MOL0     C16018   3.338   3.142   7.514 -0.2011  0.2615  0.2681
  117MOL0     C16019   3.475   3.172   7.576 -0.5345 -1.0100  0.2262
  117MOL0     C16020   3.479   3.321   7.635  0.2307  0.0446 -0.1454
  117MOL0     C16021   3.617   3.366   7.687  0.6481 -0.4699 -0.0904
  117MOL0     C16022   3.735   3.334   7.589  0.1200  0.2207 -0.0038
  117MOL0     C16023   3.876   3.365   7.644  0.2842 -0.5858 -0.2642
  117MOL0     C16024   3.982   3.329   7.541 -0.1306  0.1172 -0.4559
  117MOL0     N16025   4.103   3.276   7.597 -0.8851  0.1515 -0.3104
  117MOL0     C16026   4.178   3.163   7.556  1.0841  0.2710  0.4011
  117MOL0     C16027   4.304   3.162   7.604 -0.2844  0.0774 -0.4052
  117MOL0     C16028   4.406   3.060   7.587 -0.3389  1.2606  0.2909
  117MOL0     C16029   4.542   3.125   7.558  0.5177  0.2629  0.1179
  117MOL0     C16030   4.637   3.012   7.571 -0.5128 -0.2420  0.6780
  117MOL0     C16031   4.777   3.065   7.532 -0.2408 -0.5694 -0.0489
  117MOL0     O16032   4.867   2.959   7.552  0.2227  0.7796  0.3464
  117MOL0     C16033   5.003   2.979   7.558  0.0718 -0.1158  0.7891
  117MOL0     C16034   5.085   2.875   7.598 -0.4645 -0.5962  0.6713
  117MOL0     C16035   5.224   2.886   7.606 -0.4945  0.7890 -0.6466
  117MOL0     C16036   5.305   2.762   7.661 -0.3879  0.1077  0.6001
  117MOL0     C16037   5.285   3.009   7.578  0.3680  0.7667 -0.5817
  117MOL0     C16038   5.438   3.035   7.582  0.6848 -0.8339  1.0571
  117MOL0     O16039   5.481   3.160   7.537  0.4434 -0.5443  0.3781
  117MOL0     C16040   5.612   3.185   7.517 -0.7069  0.1652  0.0020
  117MOL0     C16041   5.677   3.285   7.593 -0.6088  0.2166  0.6767
  117MOL0     C16042   5.815   3.309   7.580 -0.0555  0.4500  0.6905
  117MOL0     C16043   5.902   3.228   7.505 -0.2852  0.2257  0.1216
  117MOL0     O16044   6.040   3.257   7.510 -0.3785 -0.0003  0.0980
  117MOL0     C16045   6.127   3.198   7.414  0.4437 -0.6747  0.3169
  117MOL0     C16046   6.271   3.207   7.457 -0.2020 -0.9010 -0.3054
  117MOL0     C16047   6.366   3.128   7.368 -0.7231 -0.3297  0.6036
  117MOL0     C16048   6.512   3.170   7.398 -0.0724 -0.0129  0.5723
  117MOL0     C16049   6.566   3.123   7.536 -0.0797  0.1062 -0.1346
  117MOL0     C16050   6.707   3.191   7.547  0.2668 -0.3671  0.4282
  117MOL0     C16051   6.746   3.248   7.689  0.1552 -0.4059 -0.3152
  117MOL0     C16052   6.775   3.150   7.797 -0.4083 -0.3014  0.2262
  117MOL0    Cl16053   6.636   3.077   7.873  0.1083  0.1609 -0.0537
  117MOL0     C16054   5.836   3.128   7.427 -0.2371 -0.6195 -0.1466
  117MOL0     C16055   5.700   3.106   7.433  0.0106 -0.4983 -0.0309
  117MOL0     O16056   5.515   2.947   7.621 -0.1636 -0.3032 -0.4706
  117MOL0     C16057   5.208   3.118   7.543 -0.6807 -0.0041  0.0227
  117MOL0     C16058   5.064   3.105   7.531 -0.4509 -0.3859 -0.2343
  117MOL0     N16059   4.309   3.271   7.684  0.1714 -0.2374  0.4067
  117MOL0     N16060   4.193   3.337   7.673  0.3046 -0.0992  0.2455
  117MOL0     C16061   3.012   3.303   7.268  0.9076 -0.5230 -0.6896
  117MOL0     C16062   2.880   3.339   7.282 -0.0432  0.5001 -0.3495
  117MOL0     C16063   2.473   3.384   7.527  0.3498  0.1482  0.2174
  117MOL0     C16064   2.415   3.335   7.645  0.4769 -0.2448  0.3335
  117MOL0     C16065   2.277   3.329   7.668 -0.2747  0.2151  0.8059
  117MOL0     C16066   2.181   3.383   7.577 -0.3705  0.2210 -0.7977
  117MOL0     O16067   2.046   3.401   7.595  0.3135  0.2913 -0.0366
  117MOL0     C16068   1.984   3.333   7.705 -0.0213  0.2977 -0.1455
  117MOL0     C16069   1.834   3.309   7.665 -0.0300  0.1556  0.2531
  117MOL0     C16070   1.749   3.265   7.790  0.4886  0.5796  0.5549
  117MOL0     C16071   1.604   3.247   7.746  0.6576 -0.1018 -0.5868
  117MOL0     C16072   1.521   3.201   7.857 -0.1460 -0.4123  0.2853
  117MOL0     C16073   1.450   3.172   7.955  0.0133  0.2320 -0.0600
  117MOL0     C16074   2.241   3.423   7.462  0.0844 -0.3763  0.1097
  117MOL0     C16075   2.383   3.424   7.434 -0.6763 -0.6066 -0.4724
  117MOL0     C16076   2.420   3.492   7.299  0.0933  0.1444  0.0047
  117MOL0     H16077   2.798   3.137   7.545  0.4792  0.5390  0.1341
  117MOL0     H16078   3.038   3.084   7.531 -2.9900 -1.0575  1.8390
  117MOL0     H16079   3.263   3.337   7.448 -0.7515 -0.8964  1.6486
  117MOL0     H16080   3.383   3.258   7.335 -3.4365  1.8072 -2.5694
  117MOL0     H16081   3.254   3.139   7.583 -1.8547 -0.8907 -1.6917
  117MOL0     H16082   3.330   3.041   7.474  0.9512 -0.3997  1.6158
  117MOL0     H16083   3.486   3.099   7.657  2.0536 -1.2801 -0.2975
  117MOL0     H16084   3.547   3.155   7.495 -0.1334 -0.5283  0.4707
  117MOL0     H16085   3.442   3.391   7.560  2.7459  0.5136 -1.0599
  117MOL0     H16086   3.410   3.330   7.719  2.0762  1.4366  1.3170
  117MOL0     H16087   3.645   3.321   7.782 -1.2996 -1.3104  0.1353
  117MOL0     H16088   3.604   3.473   7.705 -0.9351 -0.7735  0.6916
  117MOL0     H16089   3.740   3.226   7.567 -0.4429  0.1351  0.2566
  117MOL0     H16090   3.730   3.389   7.494  0.0385 -0.6745 -0.5326
  117MOL0     H16091   3.885   3.308   7.737 -2.7863 -0.7719  0.0043
  117MOL0     H16092   3.870   3.471   7.672  0.2933 -0.6660  0.0388
  117MOL0     H16093   3.948   3.261   7.462  0.5457  0.5695 -1.1552
  117MOL0     H16094   4.011   3.428   7.505  1.5426  0.2943  1.1852
  117MOL0     H16095   4.131   3.085   7.498 -1.3480 -0.5037  3.1605
  117MOL0     H16096   4.391   2.991   7.503  0.5185  0.9015  0.4239
  117MOL0     H16097   4.415   3.004   7.681  0.0618  1.8491  0.6145
  117MOL0     H16098   4.547   3.155   7.453 -0.3571 -0.8149 -0.2563
  117MOL0     H16099   4.560   3.216   7.615 -0.7172  1.4372 -1.2846
  117MOL0     H16100   4.629   2.987   7.677 -0.4956 -0.3030  0.6650
  117MOL0     H16101   4.609   2.924   7.512  2.8018 -1.6980  1.0297
  117MOL0     H16102   4.781   3.098   7.428  3.7527  0.8852  0.3650
  117MOL0     H16103   4.793   3.156   7.591 -0.6652 -0.4306 -0.1432
  117MOL0     H16104   5.022   2.793   7.629 -2.0211 -0.1125 -1.0462
  117MOL0     H16105   5.244   2.672   7.670  0.0014 -0.2616 -0.4170
  117MOL0     H16106   5.337   2.797   7.760  1.1278 -0.8012  0.4461
  117MOL0     H16107   5.388   2.731   7.597 -1.8657 -0.0581 -1.3233
  117MOL0     H16108   5.619   3.335   7.670 -1.3677  0.1787  0.1353
  117MOL0     H16109   5.857   3.386   7.644 -0.0876  0.9741  0.0848
  117MOL0     H16110   6.107   3.091   7.404 -0.3836 -0.9457  3.6692
  117MOL0     H16111   6.110   3.252   7.320 -2.0854  1.3539  1.7935
  117MOL0     H16112   6.304   3.312   7.460  1.2991 -1.3721  1.1492
  117MOL0     H16113   6.294   3.166   7.555  3.1212  0.3624 -0.4175
  117MOL0     H16114   6.349   3.153   7.263 -0.1759  0.3393  0.6724
  117MOL0     H16115   6.354   3.021   7.388 -0.7102 -0.0374  2.3217
  117MOL0     H16116   6.508   3.278   7.411 -2.2849  0.1614 -1.1001
  117MOL0     H16117   6.576   3.141   7.314  3.4754 -0.2133  3.1320
  117MOL0     H16118   6.508   3.163   7.620  2.6565  1.0689  1.4138
  117MOL0     H16119   6.563   3.015   7.551 -0.7262  0.3049  1.4577
  117MOL0     H16120   6.728   3.270   7.475 -0.6101 -1.1126 -0.6848
  117MOL0     H16121   6.775   3.107   7.528  0.0325  0.1279 -3.3009
  117MOL0     H16122   6.659   3.303   7.726  0.7786 -0.1262  0.7583
  117MOL0     H16123   6.821   3.327   7.682  0.8284 -1.1498 -2.5425
  117MOL0     H16124   6.828   3.201   7.878  0.0247 -1.2310  0.5469
  117MOL0     H16125   6.833   3.059   7.779 -0.0033 -0.3478  1.6549
  117MOL0     H16126   5.893   3.054   7.371  0.9642  1.6332 -2.1211
  117MOL0     H16127   5.662   3.020   7.379 -1.8359  0.5024 -0.4144
  117MOL0     H16128   5.255   3.212   7.516 -2.0431  1.0273  1.0554
  117MOL0     H16129   5.017   3.193   7.489 -0.8965 -1.3904 -1.9122
  117MOL0     H16130   3.059   3.338   7.177 -0.4788  2.5724 -0.3297
  117MOL0     H16131   2.828   3.407   7.216 -2.2024 -0.9253 -0.2028
  117MOL0     H16132   2.481   3.286   7.716  2.0131  0.7773 -0.3573
  117MOL0     H16133   2.249   3.285   7.762 -0.4162  1.2081  1.2464
  117MOL0     H16134   2.029   3.239   7.736 -0.9745  0.1470  0.8776
  117MOL0     H16135   1.986   3.398   7.793 -1.3491  2.5597 -1.6643
  117MOL0     H16136   1.828   3.237   7.582 -1.1581 -0.0210  0.4704
  117MOL0     H16137   1.798   3.404   7.627 -0.3558 -0.3761 -0.8205
  117MOL0     H16138   1.783   3.169   7.831 -3.0990 -0.5518  1.1738
  117MOL0     H16139   1.749   3.333   7.876 -1.8555  0.8532  0.4037
  117MOL0     H16140   1.614   3.169   7.669  2.0124 -0.1710 -0.3706
  117MOL0     H16141   1.554   3.341   7.720 -1.1019  0.5372  4.2158
  117MOL0     H16142   1.386   3.172   8.041  1.4670  1.7125  1.0852
  117MOL0     H16143   2.174   3.464   7.387  0.9657  0.1575 -0.3929
  117MOL0     H16144   2.330   3.509   7.240 -2.6174 -2.9791  2.9090
  117MOL0     H16145   2.461   3.592   7.316 -1.1879  0.9446 -1.3538
  117MOL0     H16146   2.486   3.429   7.238 -1.7329 -1.4667 -0.4023
  118MOL0     O16147   2.917   3.995  10.626 -0.2925  0.4333 -0.0951
  118MOL0     C16148   2.949   4.105  10.673 -0.0272  0.7275 -0.1477
  118MOL0     O16149   3.076   4.148  10.713 -0.1372 -0.6850  0.1422
  118MOL0     C16150   3.195   4.084  10.685  0.3424  0.5584  0.3043
  118MOL0     C16151   3.297   4.109  10.773 -0.0759 -0.8059  0.3593
  118MOL0     C16152   3.424   4.062  10.743  0.0675 -0.4464 -0.3742
  118MOL0     C16153   3.454   3.978  10.630  1.0284 -0.6656  0.1640
  118MOL0     O16154   3.585   3.947  10.601  0.4861  0.4816  0.0473
  118MOL0     C16155   3.616   3.827  10.672  0.2699 -0.4317 -0.1702
  118MOL0     C16156   3.769   3.790  10.665  0.0704  0.2441  0.9327
  118MOL0     C16157   3.847   3.905  10.729 -0.0236  0.7741  0.0019
  118MOL0     C16158   3.984   3.909  10.665  0.7075 -0.1761  0.4265
  118MOL0     C16159   4.090   3.993  10.733 -0.6501 -0.2478 -0.6578
  118MOL0     C16160   4.224   3.976  10.677 -0.3446  0.6522  0.4144
  118MOL0     C16161   4.334   4.059  10.737 -0.0923 -0.9785  0.0795
  118MOL0     C16162   4.467   4.032  10.665 -0.4148 -0.0942 -0.4715
  118MOL0     N16163   4.462   4.090  10.527 -0.3075  0.3334 -0.5424
  118MOL0     C16164   4.458   4.008  10.416  0.3695  0.2359 -0.2748
  118MOL0     C16165   4.460   4.094  10.312 -0.3416 -0.2985 -0.0370
  118MOL0     C16166   4.446   4.063  10.162 -0.3452 -0.4277  0.3978
  118MOL0     C16167   4.580   4.026  10.095 -0.2763 -0.5131  0.4928
  118MOL0     C16168   4.585   4.081   9.949 -0.1025  0.5831 -0.4726
  118MOL0     C16169   4.693   4.011   9.868 -0.1501  1.0895  0.1664
  118MOL0     O16170   4.820   4.040   9.927 -0.0392 -0.7781 -0.0312
  118MOL0     C16171   4.931   4.002   9.854 -0.2385 -1.0680  0.6519
  118MOL0     C16172   5.044   4.066   9.890 -0.4949  0.4990 -0.6122
  118MOL0     C16173   5.170   4.037   9.834 -0.0461 -0.2409  1.1067
  118MOL0     C16174   5.286   4.132   9.869 -0.7637  0.7099 -0.2043
  118MOL0     C16175   5.188   3.937   9.736 -0.4787  0.2301 -0.0868
  118MOL0     C16176   5.323   3.899   9.679 -0.0798 -0.6249  0.0745
  118MOL0     O16177   5.325   3.778   9.619  0.0832 -0.7386  0.6009
  118MOL0     C16178   5.419   3.750   9.521 -0.6260 -0.6049 -1.0722
  118MOL0     C16179   5.514   3.828   9.460 -0.5360  0.1624  0.0798
  118MOL0     C16180   5.601   3.776   9.364 -0.6212  0.1978 -0.5390
  118MOL0     C16181   5.584   3.647   9.319  0.1699  0.1391  0.0321
  118MOL0     O16182   5.684   3.602   9.236  0.5878 -0.1726 -0.0450
  118MOL0     C16183   5.673   3.488   9.157  0.1010  0.4057 -0.0712
  118MOL0     C16184   5.760   3.480   9.038 -1.0179 -0.3298  0.3818
  118MOL0     C16185   5.903   3.438   9.086 -0.4032 -0.6382 -0.4212
  118MOL0     C16186   5.999   3.447   8.966  0.6044  0.8922 -0.3109
  118MOL0     C16187   6.136   3.389   8.989 -0.5937  0.3008  0.9330
  118MOL0     C16188   6.234   3.458   9.089 -1.0655 -0.1062  0.6361
  118MOL0     C16189   6.361   3.368   9.116  1.3008  0.2666  0.8165
  118MOL0     C16190   6.443   3.403   9.241 -0.0367 -0.0484 -0.3002
  118MOL0    Cl16191   6.448   3.585   9.260 -0.2037  0.1751  0.5488
  118MOL0     C16192   5.487   3.571   9.377  0.0264 -0.3027  0.1226
  118MOL0     C16193   5.403   3.622   9.476 -0.0888 -0.2765  0.3217
  118MOL0     O16194   5.419   3.982   9.682 -0.1688  0.4697  0.3189
  118MOL0     C16195   5.064   3.875   9.696 -0.9328  0.7330  0.0393
  118MOL0     C16196   4.943   3.908   9.752  0.0756  0.2129  0.7331
  118MOL0     N16197   4.460   4.222  10.356  0.3051  0.3278  0.6492
  118MOL0     N16198   4.450   4.224  10.491 -0.6484  0.6590  0.6321
  118MOL0     C16199   3.347   3.950  10.546  0.7857 -0.5029 -0.4169
  118MOL0     C16200   3.219   4.002  10.572 -0.0208 -0.6473 -0.6191
  118MOL0     C16201   2.838   4.199  10.684 -0.5646  0.3654 -0.0787
  118MOL0     C16202   2.711   4.167  10.743  0.1117  0.1645  0.1035
  118MOL0     C16203   2.623   4.265  10.782  0.3019 -0.6902  0.4246
  118MOL0     C16204   2.645   4.395  10.754  0.0997 -0.3305  0.4615
  118MOL0     O16205   2.534   4.480  10.797  0.2369  0.2450  0.4993
  118MOL0     C16206   2.527   4.617  10.758  0.2577 -0.6582 -0.0652
  118MOL0     C16207   2.427   4.699  10.826 -0.0247 -0.0690 -0.5946
  118MOL0     C16208   2.290   4.634  10.821 -0.1617 -0.0390  0.4363
  118MOL0     C16209   2.179   4.683  10.909 -0.9585 -0.1637 -0.6715
  118MOL0     C16210   2.043   4.642  10.871 -1.2507 -0.3087  0.2246
  118MOL0     C16211   1.938   4.629  10.815 -0.9246 -0.5543 -0.0232
  118MOL0     C16212   2.759   4.430  10.679 -0.3618 -0.5359  0.2883
  118MOL0     C16213   2.858   4.335  10.649 -0.5284 -0.6386  0.2668
  118MOL0     C16214   2.985   4.382  10.577  0.0091 -0.4617 -0.2904
  118MOL0     H16215   3.296   4.177  10.858  1.1328  2.3553 -1.9496
  118MOL0     H16216   3.500   4.102  10.810  0.0627  1.9077 -1.6708
  118MOL0     H16217   3.552   3.746  10.637 -2.9638  1.8124  0.1341
  118MOL0     H16218   3.590   3.845  10.777 -1.6157  0.0905 -0.6872
  118MOL0     H16219   3.796   3.697  10.715 -1.0591  0.1203  1.3330
  118MOL0     H16220   3.782   3.772  10.557  0.4290  1.3492  0.7802
  118MOL0     H16221   3.796   3.999  10.708 -0.3100 -0.1558 -4.4391
  118MOL0     H16222   3.858   3.882  10.835 -1.0356  1.8978  0.3761
  118MOL0     H16223   4.015   3.804  10.678  0.1198 -0.4447 -0.2517
  118MOL0     H16224   3.978   3.938  10.559 -0.1262  2.3086  1.0929
  118MOL0     H16225   4.098   3.969  10.839  1.1628  3.8774  0.3730
  118MOL0     H16226   4.065   4.100  10.736  1.0415  0.2547  3.9596
  118MOL0     H16227   4.241   3.868  10.678  0.5282  0.7815 -0.0701
  118MOL0     H16228   4.210   4.015  10.576 -0.5511  4.6901  1.8111
  118MOL0     H16229   4.352   4.037  10.842 -0.9318 -2.2218 -0.0265
  118MOL0     H16230   4.311   4.166  10.737  1.4346 -0.6063  1.6839
  118MOL0     H16231   4.542   4.086  10.723  1.8451 -2.0043 -1.4342
  118MOL0     H16232   4.490   3.925  10.657  0.4099  0.0908 -0.6393
  118MOL0     H16233   4.472   3.901  10.405 -1.1864 -0.0263  0.0117
  118MOL0     H16234   4.398   4.153  10.122  1.4901  1.6989  2.6187
  118MOL0     H16235   4.367   3.987  10.160 -0.5040 -0.2736  0.8394
  118MOL0     H16236   4.669   4.058  10.149  0.1312 -1.2166  0.2528
  118MOL0     H16237   4.589   3.917  10.091  3.2728 -0.4026  1.9305
  118MOL0     H16238   4.492   4.062   9.895 -0.3458 -1.7100  0.6390
  118MOL0     H16239   4.611   4.187   9.942 -0.8321  0.9842  1.8947
  118MOL0     H16240   4.683   3.903   9.882  1.3929  0.6597 -1.5853
  118MOL0     H16241   4.684   4.040   9.763 -2.7339  0.2980  0.1022
  118MOL0     H16242   5.044   4.145   9.963  1.7431 -0.7019  0.8072
  118MOL0     H16243   5.361   4.089   9.936 -1.6627  0.3878  0.6247
  118MOL0     H16244   5.247   4.205   9.941 -0.3360  0.5808  0.1649
  118MOL0     H16245   5.319   4.194   9.785 -2.6161 -0.5292 -1.9170
  118MOL0     H16246   5.529   3.934   9.479  0.5968 -0.1606  1.0820
  118MOL0     H16247   5.683   3.837   9.327  0.1346  0.4810  1.4777
  118MOL0     H16248   5.690   3.404   9.225  0.3948  2.1217  2.1045
  118MOL0     H16249   5.569   3.474   9.125  0.9601 -1.9564 -2.1000
  118MOL0     H16250   5.720   3.404   8.969 -0.0164 -1.5047  1.0626
  118MOL0     H16251   5.766   3.579   8.991 -3.4164 -1.3950 -2.5371
  118MOL0     H16252   5.893   3.330   9.104 -2.9337 -0.9195 -2.7707
  118MOL0     H16253   5.933   3.488   9.178 -0.4304 -1.4561  0.0457
  118MOL0     H16254   6.011   3.545   8.920  3.2447  0.2291 -1.1961
  118MOL0     H16255   5.955   3.384   8.888  1.1549  2.8623 -2.3001
  118MOL0     H16256   6.127   3.285   9.021  1.4134 -0.1245  0.2621
  118MOL0     H16257   6.177   3.386   8.887 -1.4648 -3.7292  0.5597
  118MOL0     H16258   6.187   3.472   9.187  0.4471  0.0811  1.3733
  118MOL0     H16259   6.281   3.548   9.049  1.6355 -1.8981 -0.5506
  118MOL0     H16260   6.424   3.380   9.028  1.5475  0.5051  1.0237
  118MOL0     H16261   6.325   3.265   9.115 -0.2556  0.7709  1.5755
  118MOL0     H16262   6.546   3.368   9.226  0.3876  1.1930 -0.3995
  118MOL0     H16263   6.409   3.358   9.335  2.8666 -0.3658  0.6960
  118MOL0     H16264   5.496   3.466   9.351  3.2619  0.3201 -1.8586
  118MOL0     H16265   5.334   3.546   9.514 -0.1373 -2.3328 -3.3853
  118MOL0     H16266   5.069   3.803   9.615 -1.1195 -0.2108  0.8594
  118MOL0     H16267   4.853   3.858   9.717  0.4766 -2.0950  2.7329
  118MOL0     H16268   3.364   3.885  10.461  0.6708 -1.4664  0.2752
  118MOL0     H16269   3.140   3.981  10.501  1.6195 -0.6850 -2.5524
  118MOL0     H16270   2.690   4.068  10.783 -0.2678  0.4536  0.6298
  118MOL0     H16271   2.528   4.245  10.831 -0.1932 -0.9897 -0.6209
  118MOL0     H16272   2.622   4.667  10.780  1.3356 -2.2224 -0.9845
  118MOL0     H16273   2.513   4.631  10.650  0.4371 -1.6225 -0.2190
  118MOL0     H16274   2.409   4.789  10.766  2.2001 -0.4727 -1.9727
  118MOL0     H16275   2.456   4.730  10.926  1.9041 -1.8626 -0.5508
  118MOL0     H16276   2.254   4.639  10.717  3.6247 -0.5579 -1.0611
  118MOL0     H16277   2.300   4.529  10.852 -3.1415 -0.3785  0.5993
  118MOL0     H16278   2.179   4.792  10.892  2.2358  0.1988  0.9467
  118MOL0     H16279   2.202   4.665  11.014 -0.4252  0.1100 -0.7379
  118MOL0     H16280   1.836   4.617  10.785 -0.7021  0.5714 -1.2962
  118MOL0     H16281   2.765   4.531  10.639 -2.5905  0.3908  2.0929
  118MOL0     H16282   3.070   4.379  10.646 -0.3572  0.3827  0.1996
  118MOL0     H16283   2.997   4.303  10.501  0.8394 -1.3660  0.7474
  118MOL0     H16284   2.967   4.482  10.538  0.6128  0.7230  2.3120
  119MOL0     O16285   1.285   7.106   4.340  0.6366  0.2679  0.4367
  119MOL0     C16286   1.196   7.191   4.344  0.1634 -0.2417 -0.9324
  119MOL0     O16287   1.211   7.318   4.384 -0.5256  0.2916  0.4482
  119MOL0     C16288   1.338   7.375   4.410  0.2955  0.1126  0.1976
  119MOL0     C16289   1.360   7.441   4.533  0.0925 -0.2942  0.6831
  119MOL0     C16290   1.485   7.501   4.568  0.5603  0.1076  0.3410
  119MOL0     C16291   1.581   7.498   4.473 -0.7960  0.4057  0.3185
  119MOL0     O16292   1.688   7.579   4.500  0.2205 -0.4242  0.4027
  119MOL0     C16293   1.811   7.499   4.519 -0.3278  0.4278 -0.1665
  119MOL0     C16294   1.909   7.613   4.565  0.5691  0.6550  0.5817
  119MOL0     C16295   2.044   7.563   4.624 -0.0838  0.9215 -0.5074
  119MOL0     C16296   2.043   7.489   4.762  0.4102 -0.3657 -0.5220
  119MOL0     C16297   2.180   7.425   4.799  0.3388  0.1455 -0.3248
  119MOL0     C16298   2.301   7.518   4.773  0.1164  0.3037 -0.4106
  119MOL0     C16299   2.429   7.464   4.824  1.2688 -0.1320  0.5249
  119MOL0     C16300   2.489   7.372   4.723 -0.6285  0.7054 -0.2038
  119MOL0     N16301   2.615   7.338   4.788 -0.6691  0.2017  0.6771
  119MOL0     C16302   2.742   7.385   4.771 -0.2199 -0.2985  0.4083
  119MOL0     C16303   2.811   7.338   4.883 -0.6667  0.1672 -0.2108
  119MOL0     C16304   2.956   7.372   4.894  1.3595 -0.0843  0.0003
  119MOL0     C16305   3.040   7.283   4.799  1.1102 -0.1666  0.4691
  119MOL0     C16306   3.186   7.294   4.837  0.1655  0.5990 -0.7525
  119MOL0     C16307   3.252   7.422   4.777 -0.2754  0.2662 -0.3632
  119MOL0     O16308   3.392   7.419   4.814 -0.4788 -0.0332 -0.4563
  119MOL0     C16309   3.472   7.318   4.771 -0.1110 -0.1119  0.0109
  119MOL0     C16310   3.573   7.272   4.843 -0.0706 -0.0385 -0.7962
  119MOL0     C16311   3.671   7.173   4.805 -1.0396  0.1096 -1.1272
  119MOL0     C16312   3.784   7.146   4.904 -0.3210 -0.7350 -0.6389
  119MOL0     C16313   3.656   7.104   4.678 -0.3494 -0.6520  0.4115
  119MOL0     C16314   3.736   6.992   4.622 -0.3070 -0.0475  0.0403
  119MOL0     O16315   3.826   6.935   4.704  0.3984  0.4903  0.1275
  119MOL0     C16316   3.930   6.868   4.647  0.6364  0.0160  0.0846
  119MOL0     C16317   3.975   6.762   4.727 -0.0657 -0.1672 -0.6864
  119MOL0     C16318   4.095   6.686   4.692  0.3020  0.3950 -0.0279
  119MOL0     C16319   4.168   6.731   4.581 -0.2404  0.7321 -0.5892
  119MOL0     O16320   4.295   6.679   4.551 -0.1436  0.1757  0.3103
  119MOL0     C16321   4.331   6.552   4.610 -0.6364  0.3282 -0.7828
  119MOL0     C16322   4.473   6.506   4.565  0.5410 -0.9285  0.4348
  119MOL0     C16323   4.542   6.377   4.622  0.3002  0.9596 -0.9749
  119MOL0     C16324   4.596   6.404   4.766 -0.3054  0.1047  0.1355
  119MOL0     C16325   4.748   6.442   4.776  1.1471 -0.6268  0.0614
  119MOL0     C16326   4.842   6.332   4.745  0.6419 -0.1359 -0.0386
  119MOL0     C16327   4.984   6.387   4.731  0.6148 -0.6862  0.5360
  119MOL0     C16328   5.071   6.305   4.635 -0.1899  0.4223  0.1168
  119MOL0    Cl16329   5.108   6.145   4.712 -0.0691 -0.3303 -0.1442
  119MOL0     C16330   4.119   6.839   4.504 -0.3808  0.1551 -0.9760
  119MOL0     C16331   4.008   6.910   4.539  0.2537  0.0764  0.1818
  119MOL0     O16332   3.720   6.965   4.503 -0.8188 -0.0772  0.5595
  119MOL0     C16333   3.549   7.154   4.605  1.0734 -0.0107  0.1710
  119MOL0     C16334   3.461   7.257   4.646 -0.6425  0.5896 -0.0448
  119MOL0     N16335   2.731   7.246   4.947 -0.3847  0.6730  0.7506
  119MOL0     N16336   2.621   7.242   4.889 -0.2581  0.6892 -0.2153
  119MOL0     C16337   1.569   7.432   4.355  0.3755  0.7065  0.2002
  119MOL0     C16338   1.445   7.375   4.329  0.5058  0.3563  0.0703
  119MOL0     C16339   1.056   7.154   4.304  0.0168  0.5150  0.9911
  119MOL0     C16340   0.962   7.256   4.286  0.5035 -0.4622 -0.1532
  119MOL0     C16341   0.834   7.226   4.240 -0.2882  0.1575  0.2939
  119MOL0     C16342   0.787   7.096   4.213 -0.0727  0.2057 -0.3212
  119MOL0     O16343   0.659   7.077   4.173 -1.0993 -0.7924 -0.3874
  119MOL0     C16344   0.595   6.951   4.202 -0.9996  0.2807  0.0842
  119MOL0     C16345   0.444   6.981   4.170 -0.2921  0.2710  0.1745
  119MOL0     C16346   0.392   7.089   4.269  0.5814 -0.0346 -0.0413
  119MOL0     C16347   0.243   7.065   4.321 -0.1894  0.4529  0.2534
  119MOL0     C16348   0.159   7.034   4.203 -0.2653  0.0422  0.3964
  119MOL0     C16349   0.075   7.020   4.107 -0.1186  0.5140  0.1995
  119MOL0     C16350   0.875   6.984   4.239 -0.0261  0.7538  0.4050
  119MOL0     C16351   1.005   7.013   4.298 -0.4233  0.5332  0.2573
  119MOL0     C16352   1.081   6.890   4.332 -0.9739  0.4294 -1.3057
  119MOL0     H16353   1.270   7.445   4.593  0.8626 -0.7802  1.9317
  119MOL0     H16354   1.499   7.560   4.659 -0.3968  2.6266 -1.0435
  119MOL0     H16355   1.853   7.446   4.433 -2.5431  0.3999 -1.3356
  119MOL0     H16356   1.792   7.422   4.594 -1.9222  1.5345  0.6215
  119MOL0     H16357   1.935   7.668   4.474  1.0171 -0.2050  0.1802
  119MOL0     H16358   1.868   7.693   4.628 -1.4688  0.5860 -0.5705
  119MOL0     H16359   2.086   7.489   4.554  2.2093  1.2005  0.4902
  119MOL0     H16360   2.111   7.648   4.636 -0.2981  0.9141  0.8566
  119MOL0     H16361   2.007   7.558   4.839 -1.8126 -0.2515 -1.5872
  119MOL0     H16362   1.966   7.412   4.770 -0.7072  0.8083  0.5697
  119MOL0     H16363   2.198   7.328   4.751  0.2557  1.0372 -2.2550
  119MOL0     H16364   2.175   7.405   4.906  2.1248  0.6665 -0.1166
  119MOL0     H16365   2.316   7.558   4.673  2.0775  0.3428 -0.1437
  119MOL0     H16366   2.284   7.610   4.829  1.6118  1.4470 -1.7534
  119MOL0     H16367   2.408   7.407   4.915 -2.4327 -0.3746 -0.3189
  119MOL0     H16368   2.494   7.547   4.854  1.1353  0.8288 -1.6215
  119MOL0     H16369   2.430   7.282   4.706  2.7636 -1.8474  0.5450
  119MOL0     H16370   2.517   7.422   4.630  2.0028  0.5943  0.4670
  119MOL0     H16371   2.784   7.454   4.699 -1.1026 -2.7366 -2.6426
  119MOL0     H16372   2.990   7.361   4.997  0.1009 -1.7845  0.2745
  119MOL0     H16373   2.968   7.480   4.879 -1.5313  0.1984 -0.9203
  119MOL0     H16374   3.000   7.181   4.801 -2.0607  0.8853 -1.6257
  119MOL0     H16375   3.022   7.312   4.695 -0.7169 -0.2023  0.7467
  119MOL0     H16376   3.200   7.286   4.945  0.7866 -0.0362 -0.8751
  119MOL0     H16377   3.235   7.211   4.786  0.0644 -0.4733  0.8267
  119MOL0     H16378   3.242   7.429   4.668  1.2454  0.0516 -0.5256
  119MOL0     H16379   3.200   7.509   4.817  0.0594  0.9859 -1.4477
  119MOL0     H16380   3.583   7.315   4.942 -0.8934 -1.5654 -0.0087
  119MOL0     H16381   3.754   7.056   4.959  0.0040 -1.4886 -1.6549
  119MOL0     H16382   3.804   7.222   4.979  0.6119 -1.8767  0.3033
  119MOL0     H16383   3.878   7.130   4.851  0.6086  2.8832 -0.3616
  119MOL0     H16384   3.929   6.736   4.822 -0.8522 -3.5741 -1.8721
  119MOL0     H16385   4.126   6.608   4.761 -3.0706 -0.1661  1.0504
  119MOL0     H16386   4.335   6.572   4.718  1.5960  1.3188 -1.0072
  119MOL0     H16387   4.259   6.469   4.605 -1.9613  1.2915  1.0355
  119MOL0     H16388   4.484   6.492   4.457  0.3279  0.0060  0.2866
  119MOL0     H16389   4.537   6.593   4.579 -1.4573  0.6878  0.0859
  119MOL0     H16390   4.626   6.341   4.562  0.1361 -0.0668 -0.6255
  119MOL0     H16391   4.474   6.291   4.612  0.7469  0.3633  0.7516
  119MOL0     H16392   4.574   6.316   4.828  1.2149  1.1254  2.2429
  119MOL0     H16393   4.547   6.487   4.816  2.3182  1.4801  0.5828
  119MOL0     H16394   4.763   6.518   4.699 -1.7875  0.1673  0.1583
  119MOL0     H16395   4.768   6.484   4.875  0.4486 -0.5187  0.1625
  119MOL0     H16396   4.815   6.264   4.663  2.3808  0.2079 -0.9392
  119MOL0     H16397   4.853   6.262   4.829  2.7892  1.2077  0.8742
  119MOL0     H16398   5.036   6.396   4.827  2.1340 -0.0263 -0.3174
  119MOL0     H16399   4.988   6.494   4.708  0.7813 -0.5211  1.2994
  119MOL0     H16400   5.166   6.356   4.622  0.5663 -0.7464  0.8513
  119MOL0     H16401   5.020   6.279   4.541  3.7799 -4.8537 -1.1031
  119MOL0     H16402   4.175   6.891   4.427 -3.4723  2.2835 -1.9948
  119MOL0     H16403   3.986   7.002   4.485 -0.9735 -1.4256 -2.0647
  119MOL0     H16404   3.528   7.099   4.514  5.4536 -1.4211 -0.2573
  119MOL0     H16405   3.383   7.296   4.583 -0.6081  2.7705  1.1757
  119MOL0     H16406   1.643   7.431   4.275  2.0485 -1.8943  1.6204
  119MOL0     H16407   1.441   7.321   4.235 -0.6297  0.6821 -0.0840
  119MOL0     H16408   0.988   7.358   4.312  2.9761 -0.8394 -0.8271
  119MOL0     H16409   0.752   7.297   4.233 -1.2140 -0.9595 -0.6455
  119MOL0     H16410   0.626   6.860   4.150 -0.1343 -1.8460  3.9432
  119MOL0     H16411   0.618   6.916   4.303  0.1677  0.3432 -0.1432
  119MOL0     H16412   0.381   6.894   4.192  2.5989 -1.8453  0.6426
  119MOL0     H16413   0.435   7.012   4.065 -0.6217 -0.4947 -0.0330
  119MOL0     H16414   0.459   7.090   4.355  0.3984 -1.2110  0.1389
  119MOL0     H16415   0.395   7.185   4.218 -2.5612  0.2964  0.2188
  119MOL0     H16416   0.202   7.157   4.364 -0.8582 -0.0827  0.7826
  119MOL0     H16417   0.244   6.986   4.397 -1.4728 -1.6551 -1.7726
  119MOL0     H16418  -0.001   7.003   4.033 -1.4706  0.3200  1.6002
  119MOL0     H16419   0.848   6.882   4.213  2.5389 -0.8083  3.2507
  119MOL0     H16420   1.128   6.910   4.429  1.6328  0.9068 -2.5798
  119MOL0     H16421   1.018   6.801   4.339 -1.5242  0.9317  1.8250
  119MOL0     H16422   1.152   6.865   4.253  0.3979 -2.4327  0.6396
  120MOL0     O16423   1.040   0.150   7.712  0.1252 -0.0226  0.1398
  120MOL0     C16424   0.941   0.215   7.712  0.3785 -0.2926  0.4459
  120MOL0     O16425   0.928   0.335   7.650 -0.1931 -0.2192  0.0959
  120MOL0     C16426   1.034   0.397   7.597  0.0510  0.1717  1.3004
  120MOL0     C16427   1.036   0.428   7.462  0.2317 -0.4383  1.2827
  120MOL0     C16428   1.151   0.474   7.397 -0.7027 -0.9985  0.3198
  120MOL0     C16429   1.256   0.511   7.474 -0.6219 -0.2040 -1.1253
  120MOL0     O16430   1.358   0.588   7.427 -0.2352  0.5256 -0.0400
  120MOL0     C16431   1.349   0.720   7.471 -0.1244  0.0906 -0.3825
  120MOL0     C16432   1.422   0.797   7.367  0.2273 -0.5516  0.4194
  120MOL0     C16433   1.574   0.780   7.353  0.0178 -0.6309 -0.6624
  120MOL0     C16434   1.639   0.905   7.282 -0.3337  1.3781  0.1995
  120MOL0     C16435   1.794   0.870   7.255  0.8413 -0.1101 -1.2128
  120MOL0     C16436   1.826   0.771   7.135 -0.4456 -0.1211 -0.7959
  120MOL0     C16437   1.983   0.736   7.138  1.3318 -0.1941 -0.0797
  120MOL0     C16438   1.998   0.672   7.000  0.6210 -0.1084 -0.0326
  120MOL0     N16439   2.133   0.634   6.970  0.5193  0.0158 -0.0683
  120MOL0     C16440   2.171   0.506   6.947 -0.4782  0.2672  0.0045
  120MOL0     C16441   2.307   0.511   6.942 -0.0204  0.3876  0.2374
  120MOL0     C16442   2.397   0.388   6.940  0.0996  0.2969 -0.1391
  120MOL0     C16443   2.512   0.397   6.840 -0.3330  0.3523 -0.7314
  120MOL0     C16444   2.618   0.499   6.880  0.6625  0.4818 -0.2320
  120MOL0     C16445   2.736   0.487   6.788 -0.9983 -0.9263 -0.2419
  120MOL0     O16446   2.816   0.375   6.822 -0.5137  0.5495 -0.4046
  120MOL0     C16447   2.944   0.358   6.781  0.4166 -0.0133  0.0884
  120MOL0     C16448   2.991   0.415   6.659 -0.5177 -1.3312 -0.4789
  120MOL0     C16449   3.127   0.397   6.618 -0.8214  0.6400  0.0767
  120MOL0     C16450   3.165   0.463   6.481  0.3869  0.3162 -0.6611
  120MOL0     C16451   3.208   0.309   6.695  0.9108  0.5295 -0.3752
  120MOL0     C16452   3.357   0.293   6.672 -0.5917  1.0396 -0.8329
  120MOL0     O16453   3.427   0.208   6.758 -0.1562 -0.0062  0.5957
  120MOL0     C16454   3.567   0.227   6.757  0.9011  0.8029  0.1917
  120MOL0     C16455   3.647   0.137   6.686 -0.0199 -0.1897 -0.9763
  120MOL0     C16456   3.783   0.152   6.689 -0.2969 -0.3421  0.4666
  120MOL0     C16457   3.842   0.250   6.761 -0.1431 -0.1931 -0.3083
  120MOL0     O16458   3.975   0.266   6.758  0.5209 -0.3539  0.2207
  120MOL0     C16459   4.053   0.320   6.870  0.7347 -0.6495 -0.5814
  120MOL0     C16460   4.190   0.270   6.860  0.0246 -0.3855 -0.2436
  120MOL0     C16461   4.284   0.367   6.945  0.1252  0.1429  0.5052
  120MOL0     C16462   4.423   0.319   6.937  0.2978 -0.2361  0.5846
  120MOL0     C16463   4.519   0.427   6.980  0.2687 -0.4677 -0.3518
  120MOL0     C16464   4.665   0.377   6.972 -0.1876  0.0409  0.2799
  120MOL0     C16465   4.760   0.500   6.974  0.1322 -0.5914  0.9711
  120MOL0     C16466   4.902   0.474   7.039  0.1248  0.0444 -0.3377
  120MOL0    Cl16467   5.021   0.600   6.983  0.1423  0.0078 -0.0175
  120MOL0     C16468   3.763   0.328   6.854 -0.0147  0.4752  1.1532
  120MOL0     C16469   3.624   0.327   6.836  0.8256  0.4452 -0.5734
  120MOL0     O16470   3.405   0.357   6.586  0.0943  0.2265  0.3712
  120MOL0     C16471   3.153   0.235   6.808  0.2393  0.6808 -0.0191
  120MOL0     C16472   3.025   0.269   6.845 -0.2087  0.6444  0.2576
  120MOL0     N16473   2.350   0.644   6.954  0.4489  0.0607  0.5726
  120MOL0     N16474   2.242   0.717   6.961 -0.3753 -0.1805  0.7507
  120MOL0     C16475   1.254   0.495   7.618  1.2009 -0.0929  0.4380
  120MOL0     C16476   1.140   0.430   7.675  0.0185  0.1003 -0.2906
  120MOL0     C16477   0.824   0.139   7.773  0.2366  1.2380  0.2739
  120MOL0     C16478   0.844   0.037   7.861 -0.9215  0.4969  0.4776
  120MOL0     C16479   0.734  -0.038   7.914  0.0080 -0.2247 -0.6476
  120MOL0     C16480   0.604  -0.003   7.878 -0.4059  0.3669  0.6056
  120MOL0     O16481   0.491  -0.059   7.930  0.0505 -0.5285 -0.5041
  120MOL0     C16482   0.503  -0.172   8.024  0.1922 -0.4703  0.7804
  120MOL0     C16483   0.376  -0.213   8.088  0.3899  0.0082 -0.7657
  120MOL0     C16484   0.274  -0.276   7.988  0.6061 -0.2582 -0.1527
  120MOL0     C16485   0.125  -0.275   8.039 -0.4525 -0.8145  0.6378
  120MOL0     C16486   0.021  -0.309   7.943 -0.4305 -0.5397 -0.9520
  120MOL0     C16487  -0.049  -0.350   7.862  0.1932 -0.3617  0.4652
  120MOL0     C16488   0.580   0.105   7.795  0.0083 -0.5767 -0.4807
  120MOL0     C16489   0.689   0.178   7.743  0.0271  0.2414 -0.3956
  120MOL0     C16490   0.660   0.289   7.649  0.3300  0.1164  0.8880
  120MOL0     H16491   0.947   0.405   7.404  1.0688  0.0752 -0.2569
  120MOL0     H16492   1.153   0.485   7.289 -2.0345 -1.5748  0.2079
  120MOL0     H16493   1.391   0.732   7.571  0.0633 -0.9188 -0.3341
  120MOL0     H16494   1.243   0.748   7.480 -0.1241 -0.6360  2.8275
  120MOL0     H16495   1.374   0.795   7.269 -0.5876 -0.0331  0.7933
  120MOL0     H16496   1.406   0.904   7.384 -0.6989 -0.5394 -0.4506
  120MOL0     H16497   1.605   0.778   7.458 -0.7323  1.6048 -0.3386
  120MOL0     H16498   1.607   0.689   7.304  0.2637  0.0122 -1.7224
  120MOL0     H16499   1.576   0.928   7.195 -4.0236 -1.7205  1.7586
  120MOL0     H16500   1.626   0.990   7.350  1.2696 -0.6565  3.2751
  120MOL0     H16501   1.837   0.842   7.352 -0.9241  0.4060 -0.2276
  120MOL0     H16502   1.845   0.963   7.227  2.0873 -0.5514 -0.4592
  120MOL0     H16503   1.763   0.682   7.147 -1.0818 -0.0204 -3.0269
  120MOL0     H16504   1.795   0.818   7.041 -1.0252  1.6679  0.2471
  120MOL0     H16505   2.000   0.661   7.216  0.8145 -1.2819 -0.9793
  120MOL0     H16506   2.039   0.830   7.142  3.1346 -1.1470 -1.6143
  120MOL0     H16507   1.934   0.584   6.990 -1.0622  0.9082  1.2091
  120MOL0     H16508   1.964   0.742   6.923 -1.7280 -0.1770  0.8767
  120MOL0     H16509   2.108   0.418   6.940 -1.0137  0.7425 -1.9227
  120MOL0     H16510   2.344   0.294   6.921 -0.0248 -0.2288  2.4961
  120MOL0     H16511   2.430   0.381   7.044  3.2012  2.7885 -0.7944
  120MOL0     H16512   2.557   0.299   6.858 -1.2439  0.0294 -0.0820
  120MOL0     H16513   2.478   0.409   6.737  0.2647  0.5703 -0.9059
  120MOL0     H16514   2.583   0.601   6.862  0.7971  0.5330 -0.1993
  120MOL0     H16515   2.645   0.482   6.984  0.3252 -1.5563 -0.4233
  120MOL0     H16516   2.711   0.475   6.683  2.6682 -5.3522 -0.9277
  120MOL0     H16517   2.788   0.581   6.810 -1.4702 -0.6999 -0.0921
  120MOL0     H16518   2.924   0.486   6.613  0.2275  1.9729  2.9772
  120MOL0     H16519   3.252   0.530   6.487 -1.1424  2.2668  1.5510
  120MOL0     H16520   3.081   0.517   6.435 -0.6046  2.0311  2.8147
  120MOL0     H16521   3.207   0.391   6.410  2.3579 -0.3484  1.0654
  120MOL0     H16522   3.603   0.055   6.629 -1.4164 -1.3354  1.5880
  120MOL0     H16523   3.841   0.082   6.629 -2.2547 -0.9498 -0.7838
  120MOL0     H16524   4.048   0.428   6.861 -0.6418 -0.3649  2.3694
  120MOL0     H16525   3.995   0.291   6.958  0.4323  2.0558  0.1934
  120MOL0     H16526   4.198   0.168   6.900 -1.0087 -0.8930 -1.2783
  120MOL0     H16527   4.216   0.260   6.755  2.6101  2.0631  0.0368
  120MOL0     H16528   4.254   0.370   7.050 -0.1507  3.2634  0.4519
  120MOL0     H16529   4.270   0.473   6.919  2.3047  0.2878 -0.2534
  120MOL0     H16530   4.451   0.295   6.834 -2.6566  1.6542 -0.8142
  120MOL0     H16531   4.429   0.228   6.997 -1.9708 -2.3205 -2.0601
  120MOL0     H16532   4.522   0.508   6.906 -0.2859 -1.1943 -1.1885
  120MOL0     H16533   4.492   0.466   7.078 -2.0350 -1.7273 -0.4357
  120MOL0     H16534   4.677   0.313   6.884 -2.8324 -1.7333  1.1073
  120MOL0     H16535   4.688   0.312   7.057  1.2413  0.5067  0.2845
  120MOL0     H16536   4.706   0.585   7.018 -0.9519 -0.4601 -0.5256
  120MOL0     H16537   4.774   0.526   6.869 -1.9950 -1.2499  0.4828
  120MOL0     H16538   4.947   0.377   7.016  1.5602  0.4492  0.6272
  120MOL0     H16539   4.885   0.474   7.147 -0.0755  2.1560 -0.3356
  120MOL0     H16540   3.800   0.406   6.919  2.2442 -0.3115  0.9202
  120MOL0     H16541   3.564   0.404   6.882  1.9220  1.0075 -0.0757
  120MOL0     H16542   3.208   0.160   6.865 -1.2998 -0.7339 -0.3436
  120MOL0     H16543   2.982   0.229   6.936  1.4825 -1.0964  0.3435
  120MOL0     H16544   1.327   0.519   7.694 -0.0119 -0.1400  1.6588
  120MOL0     H16545   1.137   0.403   7.780  1.9690 -2.8646 -0.8620
  120MOL0     H16546   0.943  -0.001   7.886 -2.3496 -3.3695  1.0320
  120MOL0     H16547   0.753  -0.119   7.984 -0.7962 -0.4843 -0.7204
  120MOL0     H16548   0.526  -0.252   7.953  0.3491 -2.6830  3.1849
  120MOL0     H16549   0.581  -0.159   8.099 -1.3982  1.1495  2.2496
  120MOL0     H16550   0.341  -0.120   8.132  2.3050  0.7279 -0.6812
  120MOL0     H16551   0.398  -0.284   8.169  1.0832  0.1711 -0.8065
  120MOL0     H16552   0.286  -0.216   7.897  1.3590  0.1379  0.1944
  120MOL0     H16553   0.296  -0.382   7.972 -0.4300 -0.3290 -1.3295
  120MOL0     H16554   0.108  -0.174   8.075  1.6265 -0.5522  1.0418
  120MOL0     H16555   0.118  -0.340   8.127  3.8680 -1.9933  0.3444
  120MOL0     H16556  -0.122  -0.382   7.790 -0.7565  0.3992  1.0723
  120MOL0     H16557   0.483   0.152   7.778  0.3786 -0.0847 -1.2681
  120MOL0     H16558   0.681   0.379   7.707  1.3471 -0.5346  1.5738
  120MOL0     H16559   0.712   0.277   7.554  1.1442 -0.5917  1.4045
  120MOL0     H16560   0.553   0.299   7.632  0.6945  3.5225 -0.0623
  121MOL0     O16561  11.150   1.923   1.847  0.1942 -0.0210 -0.3485
  121MOL0     C16562  11.113   1.816   1.905 -0.3492  0.3464  0.8192
  121MOL0     O16563  11.180   1.753   2.005 -0.0961 -0.4577 -0.2892
  121MOL0     C16564  11.263   1.830   2.081 -0.0697 -0.0292  0.0589
  121MOL0     C16565  11.383   1.887   2.026  0.2360  0.8851 -0.2248
  121MOL0     C16566  11.468   1.970   2.094  0.3861  0.3329  0.4814
  121MOL0     C16567  11.448   1.995   2.231 -0.4865  0.3136  0.5990
  121MOL0     O16568  11.532   2.067   2.306  0.3579 -0.4639 -0.3375
  121MOL0     C16569  11.550   2.023   2.443  1.4638  0.0274 -0.2918
  121MOL0     C16570  11.667   2.101   2.509  0.3757 -0.3502 -1.0786
  121MOL0     C16571  11.798   2.048   2.460  0.6266 -0.4802 -0.5762
  121MOL0     C16572  11.906   2.083   2.558 -1.3365 -0.4239  0.1504
  121MOL0     C16573  12.044   2.055   2.504  0.3560 -0.3095 -0.3378
  121MOL0     C16574  12.154   2.124   2.579 -0.1761 -0.0943  0.6842
  121MOL0     C16575  12.175   2.074   2.720 -0.1065 -0.4618  0.8438
  121MOL0     C16576  12.286   2.151   2.797  0.0704  0.1056 -1.0155
  121MOL0     N16577  12.421   2.112   2.754  0.2696  0.1093 -0.3662
  121MOL0     C16578  12.485   1.988   2.750  0.2338  0.5177 -0.9332
  121MOL0     C16579  12.607   2.009   2.706 -0.0801 -0.1131  0.0139
  121MOL0     C16580  12.708   1.905   2.687 -0.3277 -0.6757 -0.3867
  121MOL0     C16581  12.839   1.930   2.760 -0.3418  0.2368 -0.4573
  121MOL0     C16582  12.953   1.848   2.711 -0.0995  0.7361  0.2688
  121MOL0     C16583  13.090   1.896   2.755 -0.3756  0.1166  0.7747
  121MOL0     O16584  13.189   1.825   2.678 -0.4362  0.4674 -0.4204
  121MOL0     C16585  13.323   1.857   2.691  0.4513  0.2296 -0.1363
  121MOL0     C16586  13.386   1.940   2.784 -0.6575 -1.0153  0.3458
  121MOL0     C16587  13.531   1.955   2.792 -0.1749  0.4724 -0.0671
  121MOL0     C16588  13.595   2.034   2.909 -0.4259  0.5013  0.2487
  121MOL0     C16589  13.614   1.887   2.699  0.0587 -0.5907  0.2255
  121MOL0     C16590  13.764   1.903   2.689  0.4535 -0.0624  0.4371
  121MOL0     O16591  13.814   1.903   2.559 -0.3182 -0.0356 -0.1389
  121MOL0     C16592  13.949   1.885   2.545 -0.6343  0.3333  0.1306
  121MOL0     C16593  14.029   1.988   2.568  0.5112 -0.0961 -1.1015
  121MOL0     C16594  14.163   1.988   2.544 -0.0611 -0.3886  0.4371
  121MOL0     C16595  14.226   1.876   2.491 -0.0260 -0.5207 -0.2945
  121MOL0     O16596  14.357   1.869   2.452 -0.0323  0.2303 -0.2116
  121MOL0     C16597  14.437   1.968   2.511 -0.0292  0.1739  0.7324
  121MOL0     C16598  14.581   1.937   2.481  0.1187  0.0209 -0.2306
  121MOL0     C16599  14.611   1.972   2.333 -0.0205  0.1298 -0.7877
  121MOL0     C16600  14.765   1.963   2.320  0.5557  0.6184 -0.2684
  121MOL0     C16601  14.809   1.954   2.171  0.1807  0.8333  0.6606
  121MOL0     C16602  14.968   1.926   2.166  0.9642 -0.6480 -0.7066
  121MOL0     C16603  15.004   1.782   2.186  0.2927  0.9006 -0.3511
  121MOL0     C16604  15.131   1.730   2.111 -0.2257 -0.2752  0.2785
  121MOL0    Cl16605  15.283   1.793   2.185  0.4544  0.2131  0.2352
  121MOL0     C16606  14.144   1.762   2.473 -0.5260 -0.1729 -0.1609
  121MOL0     C16607  14.006   1.765   2.494  0.5255  0.1133  0.9959
  121MOL0     O16608  13.833   1.915   2.787 -0.9248  0.3932  0.0839
  121MOL0     C16609  13.553   1.808   2.602  0.9931 -0.3614 -0.0022
  121MOL0     C16610  13.410   1.789   2.603  0.3770 -0.0387 -0.7638
  121MOL0     N16611  12.621   2.147   2.675  0.1000 -0.8220 -0.6149
  121MOL0     N16612  12.510   2.204   2.724 -0.2127 -0.2548  0.0993
  121MOL0     C16613  11.325   1.948   2.284  0.6926  0.6282 -0.3089
  121MOL0     C16614  11.238   1.857   2.217 -0.4771  0.3926  1.0274
  121MOL0     C16615  10.990   1.757   1.846  0.0794 -0.0263 -0.4279
  121MOL0     C16616  10.942   1.807   1.723 -0.1485 -0.2188 -1.0617
  121MOL0     C16617  10.831   1.761   1.658  0.5086 -0.5143 -0.2818
  121MOL0     C16618  10.759   1.651   1.719  0.1910  0.1140  0.6322
  121MOL0     O16619  10.644   1.598   1.679 -0.4876  0.3272  0.2358
  121MOL0     C16620  10.578   1.672   1.573 -0.2264 -0.6687  0.7122
  121MOL0     C16621  10.462   1.602   1.514  0.3017 -0.1894  0.7343
  121MOL0     C16622  10.403   1.492   1.594 -0.0079 -0.2031 -0.1239
  121MOL0     C16623  10.282   1.435   1.519 -0.3033  1.2842  0.3006
  121MOL0     C16624  10.317   1.341   1.413 -0.0585  0.1537 -0.8833
  121MOL0     C16625  10.337   1.268   1.320 -0.1006  0.2014  0.4932
  121MOL0     C16626  10.803   1.605   1.839  0.0944  0.0196 -0.5421
  121MOL0     C16627  10.921   1.647   1.903  0.1137  0.0441 -0.3730
  121MOL0     C16628  10.952   1.589   2.041 -0.0422 -0.9744  0.2146
  121MOL0     H16629  11.403   1.858   1.924 -1.0679 -1.6130  0.1554
  121MOL0     H16630  11.565   1.990   2.048 -0.0404 -1.5773 -1.4590
  121MOL0     H16631  11.572   1.916   2.439  2.4716  0.2556 -2.6704
  121MOL0     H16632  11.460   2.035   2.504  1.6693  2.0879 -0.3229
  121MOL0     H16633  11.650   2.209   2.500 -1.7517 -0.4950  0.4836
  121MOL0     H16634  11.657   2.080   2.616 -1.3389  2.1045 -0.6808
  121MOL0     H16635  11.790   1.943   2.432 -2.1270 -0.2319 -0.9700
  121MOL0     H16636  11.824   2.109   2.372  2.6271 -0.2437  0.1234
  121MOL0     H16637  11.906   2.187   2.593  0.1480 -1.5307  3.9391
  121MOL0     H16638  11.892   2.018   2.644  1.4760 -0.2635  0.8191
  121MOL0     H16639  12.050   2.096   2.403  0.6706 -2.3389 -1.1800
  121MOL0     H16640  12.056   1.947   2.498  1.0151 -0.2036 -1.2391
  121MOL0     H16641  12.252   2.107   2.533  0.3591 -1.6342  2.2491
  121MOL0     H16642  12.134   2.231   2.583 -0.1391 -0.0661  0.2058
  121MOL0     H16643  12.193   1.966   2.714  2.3254 -0.0244 -2.0530
  121MOL0     H16644  12.075   2.087   2.762 -1.5045 -2.0231 -1.7352
  121MOL0     H16645  12.269   2.259   2.792 -0.2175  0.1732  0.8365
  121MOL0     H16646  12.277   2.118   2.901  1.7773  1.2428 -0.4767
  121MOL0     H16647  12.439   1.892   2.768 -0.8206  0.8862 -1.5689
  121MOL0     H16648  12.731   1.903   2.580 -1.9117  0.6427 -0.7784
  121MOL0     H16649  12.661   1.809   2.713 -2.5777  1.0604  2.5974
  121MOL0     H16650  12.863   2.036   2.749 -0.2417  0.2160 -0.4452
  121MOL0     H16651  12.819   1.904   2.864 -0.8508 -1.3137 -0.9121
  121MOL0     H16652  12.930   1.746   2.744 -1.9260  1.5369  1.6505
  121MOL0     H16653  12.953   1.846   2.601  2.1378 -0.5005  0.2306
  121MOL0     H16654  13.113   1.999   2.728  2.6747 -0.6398 -0.0232
  121MOL0     H16655  13.101   1.894   2.864  1.6469 -0.7439  0.6098
  121MOL0     H16656  13.330   1.999   2.856  0.6864  0.6782  0.0703
  121MOL0     H16657  13.519   2.048   2.987 -0.1419  0.8036  0.4709
  121MOL0     H16658  13.659   2.115   2.875  1.4105 -1.0796 -0.2166
  121MOL0     H16659  13.660   1.965   2.963 -0.3883  1.2498  1.1727
  121MOL0     H16660  13.998   2.082   2.614  0.7148  0.5350 -2.2139
  121MOL0     H16661  14.224   2.075   2.569  3.2504 -2.3657 -0.1753
  121MOL0     H16662  14.412   2.064   2.466 -0.2208 -0.1596  0.1135
  121MOL0     H16663  14.409   1.958   2.616 -0.4422 -4.4096  0.4245
  121MOL0     H16664  14.645   1.990   2.552  1.8876 -4.0907  1.5920
  121MOL0     H16665  14.596   1.829   2.492 -1.0622 -0.3460 -1.9131
  121MOL0     H16666  14.572   2.071   2.308 -1.7798 -0.1636  0.5617
  121MOL0     H16667  14.561   1.900   2.268 -2.6064  1.8944 -0.8968
  121MOL0     H16668  14.800   1.871   2.366 -0.7880  0.6196  0.8360
  121MOL0     H16669  14.810   2.048   2.373  0.0245 -1.0938  3.2280
  121MOL0     H16670  14.758   1.871   2.121  0.1312  3.0354 -3.3315
  121MOL0     H16671  14.768   2.042   2.122 -2.5681  0.4522  2.0591
  121MOL0     H16672  15.015   1.996   2.236  0.8156 -1.3819  0.1509
  121MOL0     H16673  14.995   1.958   2.065  0.2108 -0.8159 -0.9636
  121MOL0     H16674  14.917   1.721   2.162  1.8971 -2.4977  1.7945
  121MOL0     H16675  15.012   1.754   2.291 -2.5821 -2.6789 -0.8951
  121MOL0     H16676  15.118   1.766   2.008 -0.8025  1.1998  0.8414
  121MOL0     H16677  15.134   1.621   2.104  1.5595 -0.1638 -1.7372
  121MOL0     H16678  14.179   1.669   2.430 -2.6512 -0.7267 -0.8272
  121MOL0     H16679  13.943   1.684   2.462 -1.0097  1.2936  0.9315
  121MOL0     H16680  13.620   1.755   2.534  0.3293 -0.0335 -0.9157
  121MOL0     H16681  13.359   1.723   2.534  0.6926 -0.3710 -0.6786
  121MOL0     H16682  11.274   1.977   2.376 -0.6682 -0.7838 -0.5619
  121MOL0     H16683  11.159   1.806   2.272  0.8286 -1.7207  1.0497
  121MOL0     H16684  10.993   1.889   1.674  2.0337  0.6287  2.3000
  121MOL0     H16685  10.794   1.819   1.573 -1.6554  1.3029  1.7557
  121MOL0     H16686  10.539   1.766   1.612 -2.3782 -1.6419  1.0513
  121MOL0     H16687  10.645   1.689   1.489 -1.8835  1.4946 -0.2423
  121MOL0     H16688  10.486   1.569   1.413 -0.6715 -3.4384  1.4685
  121MOL0     H16689  10.378   1.672   1.506 -0.2114 -0.9554 -1.2808
  121MOL0     H16690  10.468   1.407   1.619  0.6315  0.7837  1.7625
  121MOL0     H16691  10.357   1.530   1.686 -4.1455  0.2294 -2.1463
  121MOL0     H16692  10.221   1.512   1.470  0.4045  0.9811 -1.1141
  121MOL0     H16693  10.211   1.386   1.586 -0.8017  2.3317  0.5574
  121MOL0     H16694  10.361   1.209   1.234  0.6880  1.3940 -0.1450
  121MOL0     H16695  10.749   1.520   1.879 -1.0631  1.7350  1.7814
  121MOL0     H16696  10.887   1.504   2.062  0.7861 -2.4343 -2.6603
  121MOL0     H16697  11.056   1.553   2.039  0.2493 -0.1184 -1.7496
  121MOL0     H16698  10.954   1.675   2.109 -3.0134  0.1461 -0.9398
  122MOL0     O16699   5.071   9.876   8.499  0.7161 -0.1388 -0.1191
  122MOL0     C16700   5.089   9.898   8.385 -0.6536 -0.6482 -0.2403
  122MOL0     O16701   5.019   9.989   8.312  0.0701 -0.2696 -0.1204
  122MOL0     C16702   4.926  10.064   8.383  0.4812  0.9615  0.3635
  122MOL0     C16703   4.971  10.166   8.467 -0.2489 -0.2564 -0.3688
  122MOL0     C16704   4.870  10.237   8.530 -0.2760  0.2998 -0.1623
  122MOL0     C16705   4.731  10.207   8.527 -0.4799  0.1586 -0.2671
  122MOL0     O16706   4.645  10.288   8.593  1.0947  0.4492  0.7588
  122MOL0     C16707   4.535  10.222   8.658  0.6451 -0.3840  0.2737
  122MOL0     C16708   4.454  10.328   8.731 -0.6066  0.1292  0.2616
  122MOL0     C16709   4.341  10.271   8.806 -0.7246  0.5177 -0.1154
  122MOL0     C16710   4.236  10.377   8.830  0.1027  1.0260  0.2627
  122MOL0     C16711   4.120  10.326   8.923  0.0324 -0.6206  0.8410
  122MOL0     C16712   4.070  10.424   9.016 -0.6613  0.0546  0.2127
  122MOL0     C16713   3.987  10.342   9.123  0.0203 -0.1781  0.3506
  122MOL0     C16714   3.912  10.428   9.227 -0.5271  0.0536 -0.5470
  122MOL0     N16715   4.010  10.485   9.327 -0.5699 -0.4593  0.4928
  122MOL0     C16716   4.111  10.566   9.294 -0.3406 -0.7265  0.3839
  122MOL0     C16717   4.189  10.563   9.404  0.1508  0.6204  0.1515
  122MOL0     C16718   4.322  10.630   9.404 -0.1726 -0.9037 -0.7888
  122MOL0     C16719   4.433  10.566   9.489 -0.2029 -0.1406 -0.2618
  122MOL0     C16720   4.569  10.626   9.447  0.4546  0.0497 -0.2570
  122MOL0     C16721   4.673  10.573   9.545 -0.1317  0.6726  1.1781
  122MOL0     O16722   4.811  10.619   9.533  0.3771 -1.0340 -0.1203
  122MOL0     C16723   4.829  10.745   9.601 -0.1389  0.6745  0.7069
  122MOL0     C16724   4.964  10.771   9.608 -0.2312 -0.8572  0.1793
  122MOL0     C16725   5.014  10.887   9.665 -0.4302  0.2997 -0.6766
  122MOL0     C16726   5.170  10.902   9.660 -0.5219 -0.6428 -0.0612
  122MOL0     C16727   4.925  10.991   9.705  1.0087  0.7726 -0.5851
  122MOL0     C16728   4.965  11.126   9.742 -0.6454  0.8912  0.1751
  122MOL0     O16729   4.864  11.223   9.739  0.1837 -0.6163 -0.0927
  122MOL0     C16730   4.891  11.353   9.725  0.7895  0.4033 -0.4304
  122MOL0     C16731   4.803  11.439   9.796  0.2009  1.2309  1.0498
  122MOL0     C16732   4.827  11.578   9.788 -0.1755  0.2877  0.3256
  122MOL0     C16733   4.932  11.637   9.721 -0.0512 -0.4869 -0.0942
  122MOL0     O16734   4.942  11.774   9.737  0.4616  0.0996  0.7025
  122MOL0     C16735   5.064  11.831   9.739 -0.8523 -0.9877  0.1772
  122MOL0     C16736   5.047  11.948   9.840  0.1250  0.0373 -0.1766
  122MOL0     C16737   5.028  11.896   9.985 -0.0429 -0.2596 -0.3385
  122MOL0     C16738   4.995  12.022  10.082 -0.3262 -0.9177 -0.3122
  122MOL0     C16739   4.873  12.014  10.181 -0.3572  0.4979  0.5713
  122MOL0     C16740   4.743  12.029  10.103 -0.9201 -0.2919  0.2577
  122MOL0     C16741   4.624  12.025  10.192 -0.3104 -0.0966 -0.5630
  122MOL0     C16742   4.504  12.071  10.105  0.4139  0.7042 -0.3030
  122MOL0    Cl16743   4.352  12.084  10.201 -0.0644  0.1652 -0.7041
  122MOL0     C16744   5.015  11.547   9.650 -0.2170  0.0544  0.6676
  122MOL0     C16745   4.992  11.405   9.649  0.2028 -1.0886  0.7351
  122MOL0     O16746   5.089  11.145   9.766  0.9886 -0.2812  0.0266
  122MOL0     C16747   4.784  10.957   9.703  0.0867  0.0174  0.8093
  122MOL0     C16748   4.739  10.836   9.652  0.3023  0.3515 -0.0841
  122MOL0     N16749   4.130  10.476   9.501  0.5980  0.0215 -0.0221
  122MOL0     N16750   4.022  10.435   9.453  0.1939  0.9360  0.5497
  122MOL0     C16751   4.691  10.101   8.451 -0.4841  0.7915  0.4565
  122MOL0     C16752   4.788  10.034   8.364 -0.1749 -0.3112 -0.0066
  122MOL0     C16753   5.168   9.799   8.298 -0.1860 -0.5615 -0.5323
  122MOL0     C16754   5.147   9.803   8.158  0.2614 -0.6404  0.4138
  122MOL0     C16755   5.221   9.735   8.070 -0.2884  0.7949  0.0350
  122MOL0     C16756   5.312   9.637   8.118 -0.0142 -0.4494 -0.1599
  122MOL0     O16757   5.399   9.564   8.034 -0.0466 -0.5667 -0.3133
  122MOL0     C16758   5.434   9.618   7.906  0.5205  0.5889  0.8855
  122MOL0     C16759   5.552   9.553   7.836 -0.4682  0.4215 -0.3705
  122MOL0     C16760   5.677   9.540   7.930 -0.3585  0.4291 -0.5205
  122MOL0     C16761   5.778   9.441   7.872 -0.2280  0.2225 -0.2228
  122MOL0     C16762   5.842   9.498   7.749 -0.4513  0.1187 -0.1898
  122MOL0     C16763   5.903   9.536   7.652 -0.0070 -0.2393  0.0802
  122MOL0     C16764   5.327   9.622   8.252  0.6080  1.4144 -0.1560
  122MOL0     C16765   5.250   9.701   8.351  0.1862  0.0537  0.7663
  122MOL0     C16766   5.286   9.685   8.493 -0.1143  0.4470  0.1059
  122MOL0     H16767   5.075  10.195   8.479 -0.8165  1.1545  1.8020
  122MOL0     H16768   4.904  10.326   8.583 -0.1353  0.6372 -0.8097
  122MOL0     H16769   4.569  10.146   8.728 -2.5993 -0.4620  1.9438
  122MOL0     H16770   4.465  10.179   8.586  0.3995  0.2178  0.1461
  122MOL0     H16771   4.522  10.388   8.793 -1.3566  0.3214  0.9145
  122MOL0     H16772   4.409  10.405   8.667  0.6276  0.2914 -0.4350
  122MOL0     H16773   4.286  10.191   8.757 -0.3077 -1.4693  2.4245
  122MOL0     H16774   4.379  10.239   8.904 -0.6714 -1.2037 -0.6663
  122MOL0     H16775   4.287  10.465   8.870  0.8455  1.6937 -1.9866
  122MOL0     H16776   4.193  10.421   8.739  0.4024  0.5503 -0.1161
  122MOL0     H16777   4.169  10.243   8.976  0.0954 -0.7111  0.6422
  122MOL0     H16778   4.044  10.280   8.860 -0.2804  1.6868 -0.6040
  122MOL0     H16779   4.153  10.477   9.063 -0.6949 -0.4826  0.8879
  122MOL0     H16780   3.997  10.499   8.982  0.3092  1.7286  1.6539
  122MOL0     H16781   4.061  10.277   9.172  0.4420 -2.8375 -3.4175
  122MOL0     H16782   3.912  10.287   9.066 -0.2080  0.1693  0.3105
  122MOL0     H16783   3.847  10.504   9.182  0.3863  2.3241  1.6857
  122MOL0     H16784   3.850  10.361   9.288  2.7728 -0.4207  2.6435
  122MOL0     H16785   4.140  10.619   9.204  1.4194  0.5901  1.6472
  122MOL0     H16786   4.310  10.733   9.440 -1.5832 -1.2701 -0.1604
  122MOL0     H16787   4.357  10.637   9.300  1.3074  3.1029 -0.2270
  122MOL0     H16788   4.404  10.596   9.590 -1.0887  3.8106 -1.4870
  122MOL0     H16789   4.435  10.457   9.483  0.0579 -0.3197  2.1878
  122MOL0     H16790   4.596  10.609   9.342  0.4633  1.0034 -0.4197
  122MOL0     H16791   4.559  10.735   9.456  0.5159  0.0694 -0.4210
  122MOL0     H16792   4.638  10.580   9.649 -0.8069 -0.6389  1.0682
  122MOL0     H16793   4.667  10.464   9.531 -0.0303  0.9195 -1.1911
  122MOL0     H16794   5.036  10.702   9.565  1.0295  0.6695 -0.2418
  122MOL0     H16795   5.220  10.805   9.665 -2.2058 -1.4969  1.5696
  122MOL0     H16796   5.210  10.966   9.739 -0.4470  1.0892 -1.4493
  122MOL0     H16797   5.189  10.944   9.561 -0.5202 -1.6213 -0.4902
  122MOL0     H16798   4.723  11.393   9.853  0.1726  0.7443  0.6200
  122MOL0     H16799   4.757  11.641   9.842 -1.0464 -0.4048  0.0292
  122MOL0     H16800   5.152  11.769   9.762  0.0225  0.0365 -0.3125
  122MOL0     H16801   5.085  11.882   9.645 -2.3072 -0.2655  0.2154
  122MOL0     H16802   5.127  12.023   9.838  1.0430 -0.9213 -1.4434
  122MOL0     H16803   4.968  12.013   9.801  2.5220  1.1453 -3.7393
  122MOL0     H16804   5.122  11.845  10.008  0.9794  0.3891 -2.7475
  122MOL0     H16805   4.949  11.820   9.990  0.6516 -0.9395  0.6180
  122MOL0     H16806   4.981  12.107  10.014  2.2754  0.0717  0.2662
  122MOL0     H16807   5.087  12.034  10.139  2.3673 -0.7707 -4.3112
  122MOL0     H16808   4.881  11.927  10.246 -2.0813  1.0375  1.5658
  122MOL0     H16809   4.885  12.100  10.248  1.4818  0.8638 -0.1505
  122MOL0     H16810   4.737  11.941  10.038 -0.0229 -1.9231  2.2542
  122MOL0     H16811   4.740  12.126  10.053  1.3044 -0.4698 -0.3188
  122MOL0     H16812   4.642  12.088  10.279 -0.0131  0.1251 -0.7850
  122MOL0     H16813   4.615  11.922  10.228  2.0088  0.1613  0.9485
  122MOL0     H16814   4.492  11.993  10.030  2.0197 -1.2747  1.3485
  122MOL0     H16815   4.526  12.167  10.057  1.0963  0.2239 -0.9656
  122MOL0     H16816   5.095  11.596   9.596 -1.9861  1.4614 -0.8191
  122MOL0     H16817   5.064  11.339   9.602 -0.8862 -1.6636 -0.1845
  122MOL0     H16818   4.704  11.012   9.751 -0.6239 -1.3368  1.2117
  122MOL0     H16819   4.633  10.813   9.663  0.9538 -3.2216 -0.2201
  122MOL0     H16820   4.589  10.065   8.442 -0.5815  1.4762 -1.8784
  122MOL0     H16821   4.757   9.950   8.303  1.3551 -0.0145 -1.2489
  122MOL0     H16822   5.075   9.874   8.118  2.7757  0.2420 -3.0450
  122MOL0     H16823   5.190   9.735   7.966 -2.0095  0.1916  0.5219
  122MOL0     H16824   5.346   9.632   7.842 -0.0121 -1.9261  0.9966
  122MOL0     H16825   5.477   9.716   7.929 -0.8479  1.0567  1.5830
  122MOL0     H16826   5.583   9.613   7.751  1.5970  3.1634  2.1037
  122MOL0     H16827   5.532   9.450   7.805 -2.2491  0.1526  1.4844
  122MOL0     H16828   5.726   9.638   7.933 -1.4717  0.9889 -0.1916
  122MOL0     H16829   5.646   9.508   8.030  1.2923 -0.6764 -0.3240
  122MOL0     H16830   5.736   9.347   7.835 -1.4844  1.7056 -2.8034
  122MOL0     H16831   5.855   9.423   7.948 -0.4165 -0.1491 -0.1171
  122MOL0     H16832   5.952   9.574   7.564 -1.2671  1.4134  0.0344
  122MOL0     H16833   5.411   9.566   8.291  1.9350  3.8068  0.6604
  122MOL0     H16834   5.355   9.600   8.496 -0.5631  0.0913  0.7125
  122MOL0     H16835   5.330   9.778   8.528  0.1933  0.5301 -0.4858
  122MOL0     H16836   5.203   9.669   8.562 -0.4325  1.0956 -0.1200
  123MOL0     O16837   2.595   9.845   5.497  0.0515  0.0625 -0.0871
  123MOL0     C16838   2.517   9.936   5.501  0.2693 -0.1762 -0.6723
  123MOL0     O16839   2.559  10.063   5.492  0.9857 -0.9394 -0.1237
  123MOL0     C16840   2.677  10.097   5.426 -0.2487 -0.7187 -0.1021
  123MOL0     C16841   2.694  10.079   5.288 -0.3396  0.1282 -0.4754
  123MOL0     C16842   2.808  10.129   5.223  0.3674  0.8914  0.0879
  123MOL0     C16843   2.916  10.196   5.302  0.6995 -0.1348  0.4815
  123MOL0     O16844   3.027  10.230   5.225 -0.3689 -0.0787 -0.0122
  123MOL0     C16845   3.121  10.317   5.286  0.1398  0.9595 -0.3671
  123MOL0     C16846   3.222  10.346   5.173  0.0663 -1.1552  0.1396
  123MOL0     C16847   3.191  10.433   5.058  0.3463 -0.5614 -0.1894
  123MOL0     C16848   3.162  10.580   5.095  0.1736 -0.8452 -0.3087
  123MOL0     C16849   3.186  10.671   4.962 -0.6454 -0.3647  0.0467
  123MOL0     C16850   3.081  10.634   4.856  0.3031  0.3103 -0.4716
  123MOL0     C16851   3.097  10.701   4.726  0.2969  0.7317 -0.0960
  123MOL0     C16852   2.977  10.655   4.640 -0.3775 -0.4932  1.3215
  123MOL0     N16853   2.981  10.729   4.506  0.1454 -0.3283 -0.5779
  123MOL0     C16854   3.089  10.735   4.424 -1.4581 -0.0339  0.4803
  123MOL0     C16855   3.042  10.810   4.318 -1.4809  0.4813 -0.2838
  123MOL0     C16856   3.136  10.840   4.212  0.5107 -1.0890 -0.2466
  123MOL0     C16857   3.223  10.964   4.258 -0.0540 -0.2255  0.2836
  123MOL0     C16858   3.348  10.980   4.163 -0.2636 -0.2859  0.2013
  123MOL0     C16859   3.464  10.900   4.226  0.1315  0.1397  0.1704
  123MOL0     O16860   3.581  10.904   4.146  0.2452  0.4036  0.7517
  123MOL0     C16861   3.672  11.011   4.155 -0.4157  0.5027 -0.1584
  123MOL0     C16862   3.798  10.998   4.095 -0.6242  0.5054  1.1578
  123MOL0     C16863   3.891  11.105   4.088 -0.9396 -0.5285  0.2181
  123MOL0     C16864   4.019  11.085   4.016  0.1825 -0.0541  0.5495
  123MOL0     C16865   3.856  11.229   4.147  0.3996 -0.2853  0.8934
  123MOL0     C16866   3.932  11.364   4.127  0.3310 -1.0642 -0.2278
  123MOL0     O16867   3.877  11.478   4.185  0.1550 -0.7239  1.0220
  123MOL0     C16868   3.908  11.595   4.119 -0.9993  0.1948 -0.4458
  123MOL0     C16869   4.001  11.690   4.178  0.4032  0.1936 -0.1656
  123MOL0     C16870   4.025  11.811   4.111  1.0671  0.4167  0.3586
  123MOL0     C16871   3.962  11.835   3.984  0.4157  0.3538  0.2800
  123MOL0     O16872   3.994  11.951   3.931 -0.5345  0.0971 -0.3633
  123MOL0     C16873   3.972  11.990   3.799 -0.0398  0.1259  0.0390
  123MOL0     C16874   4.039  12.132   3.788 -0.4328 -0.0902  0.4609
  123MOL0     C16875   4.186  12.125   3.731 -0.1920 -0.0886  0.0113
  123MOL0     C16876   4.275  12.244   3.764  0.5805 -0.4118  0.2934
  123MOL0     C16877   4.413  12.221   3.689  0.0854  0.2644 -0.0495
  123MOL0     C16878   4.528  12.313   3.710 -0.5086  0.2647 -0.3537
  123MOL0     C16879   4.556  12.347   3.855 -0.5576  0.0094 -0.2023
  123MOL0     C16880   4.679  12.427   3.873 -0.2770  0.4911  0.1539
  123MOL0    Cl16881   4.680  12.496   4.043  0.4448  0.4800  0.0281
  123MOL0     C16882   3.878  11.742   3.930 -1.1198  0.4744 -0.1280
  123MOL0     C16883   3.852  11.625   3.995  0.2007  0.0957 -1.2332
  123MOL0     O16884   4.037  11.367   4.065 -0.0515 -0.2622 -0.1345
  123MOL0     C16885   3.737  11.233   4.228 -0.1585 -0.1353  0.8971
  123MOL0     C16886   3.644  11.132   4.227  0.1825  0.2009  0.0306
  123MOL0     N16887   2.913  10.846   4.344 -0.2670 -0.1100 -0.1589
  123MOL0     N16888   2.882  10.798   4.457  0.8992  0.5858  0.9778
  123MOL0     C16889   2.889  10.223   5.434 -0.1823  0.2381  0.2666
  123MOL0     C16890   2.773  10.173   5.496  0.2056  0.1764  0.3874
  123MOL0     C16891   2.369   9.914   5.541 -0.6364  0.7636  0.4330
  123MOL0     C16892   2.290  10.019   5.579  0.2057 -0.9018  0.1145
  123MOL0     C16893   2.163   9.999   5.634 -1.0803 -0.4625  0.6953
  123MOL0     C16894   2.106   9.873   5.640  0.1985  0.5707 -0.1529
  123MOL0     O16895   1.985   9.838   5.702 -0.9349  0.5208 -0.0243
  123MOL0     C16896   1.894   9.944   5.737  0.4163 -0.1803  0.1551
  123MOL0     C16897   1.779   9.877   5.821  0.1784  0.1737 -0.8332
  123MOL0     C16898   1.675   9.988   5.862  0.4515 -0.3324 -1.0047
  123MOL0     C16899   1.559   9.939   5.947  0.3524 -1.2076  0.1358
  123MOL0     C16900   1.483   9.847   5.870  0.3923  0.2776  0.4855
  123MOL0     C16901   1.417   9.771   5.798  0.9553  0.0460 -1.1180
  123MOL0     C16902   2.182   9.767   5.586  0.5755  0.5884 -1.1637
  123MOL0     C16903   2.308   9.785   5.541 -0.5804 -0.3038  0.0965
  123MOL0     C16904   2.375   9.662   5.484  0.2675  0.0135 -0.4925
  123MOL0     H16905   2.616  10.025   5.235 -0.0268 -0.6406 -0.1669
  123MOL0     H16906   2.815  10.108   5.117 -0.3479  0.7966  0.0530
  123MOL0     H16907   3.168  10.266   5.370 -2.1417 -0.4081  0.1538
  123MOL0     H16908   3.078  10.410   5.324  1.9290  1.6552  0.0701
  123MOL0     H16909   3.306  10.396   5.222 -0.0351 -1.6468  0.8262
  123MOL0     H16910   3.257  10.250   5.133 -1.9969 -1.1248 -1.9393
  123MOL0     H16911   3.281  10.428   4.996  0.2141 -0.9770 -0.3535
  123MOL0     H16912   3.100  10.395   5.012 -0.8744  1.9928 -0.0362
  123MOL0     H16913   3.058  10.595   5.124  0.2724 -0.5726 -0.0955
  123MOL0     H16914   3.228  10.609   5.177 -0.1979  0.5968 -0.5017
  123MOL0     H16915   3.283  10.642   4.919 -1.5468  0.0273 -2.3766
  123MOL0     H16916   3.177  10.777   4.984  1.1229  0.3606 -2.3675
  123MOL0     H16917   3.080  10.527   4.834  0.5708  0.1129  0.4363
  123MOL0     H16918   2.987  10.662   4.904 -0.5481 -0.8493 -1.4258
  123MOL0     H16919   3.189  10.658   4.686 -0.2659 -2.1077  1.3650
  123MOL0     H16920   3.104  10.809   4.740 -0.1748  0.7117  0.3449
  123MOL0     H16921   2.985  10.549   4.616 -1.7911 -0.6762  1.5528
  123MOL0     H16922   2.876  10.667   4.680 -1.2873  1.6763 -1.2856
  123MOL0     H16923   3.188  10.692   4.438 -0.9479  0.8648 -0.2663
  123MOL0     H16924   3.079  10.866   4.122  1.8326  2.1594 -0.3138
  123MOL0     H16925   3.191  10.747   4.198  0.2942 -1.3828  0.7960
  123MOL0     H16926   3.163  11.055   4.250  0.4445  0.2253  1.4887
  123MOL0     H16927   3.256  10.955   4.362 -1.7288  0.8616  0.9460
  123MOL0     H16928   3.320  10.947   4.062  0.5033  0.5015 -0.2777
  123MOL0     H16929   3.368  11.088   4.167 -0.4855 -0.0781 -2.4355
  123MOL0     H16930   3.487  10.920   4.331  2.6225 -2.0537  0.1266
  123MOL0     H16931   3.439  10.794   4.221  0.4004 -0.0141  1.6232
  123MOL0     H16932   3.828  10.902   4.055 -1.7519  1.5405 -2.6157
  123MOL0     H16933   4.102  11.140   4.063  1.3799 -2.1417  1.0041
  123MOL0     H16934   4.016  11.116   3.911 -1.3926  1.8686  1.0962
  123MOL0     H16935   4.057  10.984   4.031  1.0282  0.1282 -0.2443
  123MOL0     H16936   4.048  11.674   4.275 -2.9835 -1.9415  1.2821
  123MOL0     H16937   4.099  11.871   4.163  3.2438 -2.2511  0.5968
  123MOL0     H16938   4.023  11.919   3.733  0.7879  1.5879 -0.9692
  123MOL0     H16939   3.872  12.001   3.757  1.0079 -0.6436 -2.8978
  123MOL0     H16940   3.991  12.201   3.718  0.6477  0.1088 -0.0961
  123MOL0     H16941   4.022  12.180   3.885 -0.7822  0.2605  0.2248
  123MOL0     H16942   4.174  12.119   3.622 -2.7748  0.2154  0.2138
  123MOL0     H16943   4.231  12.035   3.772 -0.7679 -0.8981 -1.0984
  123MOL0     H16944   4.301  12.255   3.870  2.5681 -0.4179 -0.1476
  123MOL0     H16945   4.229  12.335   3.724  3.7639  1.0483 -0.4326
  123MOL0     H16946   4.452  12.122   3.717  1.6671  0.9736  0.3632
  123MOL0     H16947   4.385  12.208   3.584 -1.1071 -1.6080  0.4536
  123MOL0     H16948   4.512  12.406   3.656  0.7530  1.0136  0.5034
  123MOL0     H16949   4.616  12.265   3.666  2.1827  1.5859  3.0953
  123MOL0     H16950   4.572  12.256   3.914  2.4832 -0.0124 -0.8772
  123MOL0     H16951   4.469  12.398   3.897  0.1610  1.6313 -0.5947
  123MOL0     H16952   4.692  12.510   3.804  4.3916  1.2964  1.6316
  123MOL0     H16953   4.764  12.358   3.868  1.1396  1.9108  2.6918
  123MOL0     H16954   3.844  11.758   3.828 -0.1467 -1.9026 -0.9004
  123MOL0     H16955   3.787  11.552   3.948 -0.8536  1.4804 -2.0050
  123MOL0     H16956   3.721  11.325   4.283 -0.7311  0.3909 -0.1139
  123MOL0     H16957   3.563  11.142   4.300 -0.1029 -2.6507  0.1901
  123MOL0     H16958   2.967  10.283   5.481  0.6198 -0.1554 -0.5406
  123MOL0     H16959   2.763  10.200   5.601 -1.3148  1.7214 -0.1183
  123MOL0     H16960   2.329  10.120   5.575 -3.0786  0.4479 -1.0210
  123MOL0     H16961   2.122  10.093   5.672 -2.7869 -0.6336 -0.5871
  123MOL0     H16962   1.939  10.029   5.790 -0.8618  0.2955  0.5179
  123MOL0     H16963   1.859   9.985   5.643 -0.0764 -2.0619 -0.5359
  123MOL0     H16964   1.825   9.835   5.911 -1.1025 -0.2279 -0.3584
  123MOL0     H16965   1.732   9.792   5.772 -0.1775 -0.0710 -0.0683
  123MOL0     H16966   1.725  10.075   5.907 -0.5728 -0.3737  0.2583
  123MOL0     H16967   1.628  10.026   5.771 -3.1189 -1.0467  0.3838
  123MOL0     H16968   1.498  10.030   5.956  4.2921  1.6347  0.8645
  123MOL0     H16969   1.589   9.896   6.043 -1.4927 -1.7063  0.5243
  123MOL0     H16970   1.369   9.697   5.738 -1.5122  0.2375  0.4676
  123MOL0     H16971   2.143   9.666   5.589  0.0916  0.7996  0.4888
  123MOL0     H16972   2.461   9.629   5.543  0.9478  0.1756 -1.3749
  123MOL0     H16973   2.311   9.573   5.482 -0.4257  0.5155 -1.0718
  123MOL0     H16974   2.407   9.688   5.383  0.6329 -3.9151 -1.5566
  124MOL0     O16975   3.685   2.160   7.729 -0.0132  0.0042 -0.6981
  124MOL0     C16976   3.674   2.154   7.849  0.8167 -0.1288 -0.1766
  124MOL0     O16977   3.768   2.092   7.938  0.5476  0.1441  0.7634
  124MOL0     C16978   3.875   2.044   7.875 -0.5011  0.3409 -0.0261
  124MOL0     C16979   3.870   1.924   7.802 -0.5210  0.0608 -0.7978
  124MOL0     C16980   3.989   1.872   7.756 -0.0477 -0.0965  0.9612
  124MOL0     C16981   4.110   1.939   7.766 -0.5746  0.0912 -0.3817
  124MOL0     O16982   4.217   1.879   7.714  0.2271 -0.4977  0.0222
  124MOL0     C16983   4.341   1.892   7.782  0.6070 -0.7905  0.5582
  124MOL0     C16984   4.452   1.815   7.736  0.0943  0.5108  0.4152
  124MOL0     C16985   4.526   1.887   7.630 -0.3504  0.1931 -0.0923
  124MOL0     C16986   4.610   1.806   7.546  0.1482  0.4053  0.2510
  124MOL0     C16987   4.759   1.856   7.532  0.0433 -0.6475 -0.3519
  124MOL0     C16988   4.816   1.807   7.396  0.3148  0.0858  0.7826
  124MOL0     C16989   4.965   1.790   7.401 -1.3948  0.7001 -0.1544
  124MOL0     C16990   5.014   1.722   7.270  0.1921 -0.2563  0.1298
  124MOL0     N16991   5.162   1.719   7.254  0.0695  0.2480  0.0315
  124MOL0     C16992   5.242   1.605   7.265  1.0818  0.2190 -0.7349
  124MOL0     C16993   5.363   1.647   7.267  0.1422 -0.5364 -0.8938
  124MOL0     C16994   5.480   1.553   7.278 -0.5199  0.5142 -0.0660
  124MOL0     C16995   5.506   1.483   7.413 -0.9248 -0.6612 -0.0851
  124MOL0     C16996   5.516   1.578   7.538  0.0225  0.2280  0.0713
  124MOL0     C16997   5.635   1.666   7.532  1.0567 -0.3648 -0.6255
  124MOL0     O16998   5.747   1.574   7.563  0.2100  0.0405  0.2237
  124MOL0     C16999   5.868   1.635   7.585  0.2987  0.3965  0.8464
  124MOL0     C17000   5.968   1.559   7.647 -0.3100  0.1793  0.3496
  124MOL0     C17001   6.098   1.612   7.667 -0.7292 -0.7074 -0.2007
  124MOL0     C17002   6.196   1.528   7.752 -0.3742 -0.3356  0.5503
  124MOL0     C17003   6.129   1.748   7.628  0.0478 -0.0791 -0.8734
  124MOL0     C17004   6.261   1.817   7.636  0.4753 -0.3209  0.2410
  124MOL0     O17005   6.263   1.955   7.642  0.1133  0.0778  0.5845
  124MOL0     C17006   6.387   2.013   7.634 -0.1335  0.3715  0.4816
  124MOL0     C17007   6.404   2.114   7.542  0.1288 -0.4095 -0.1056
  124MOL0     C17008   6.530   2.168   7.520  0.2612  0.2973  0.2797
  124MOL0     C17009   6.647   2.127   7.592 -0.7630 -0.0399 -0.5502
  124MOL0     O17010   6.770   2.174   7.553 -0.2174  0.4491 -0.1821
  124MOL0     C17011   6.892   2.120   7.606 -0.2471 -0.2812 -0.2620
  124MOL0     C17012   7.001   2.158   7.502 -0.2293 -0.9171  0.1242
  124MOL0     C17013   7.076   2.280   7.554 -0.3475  0.3935  0.1880
  124MOL0     C17014   7.202   2.318   7.470  0.0179 -0.6591  0.1843
  124MOL0     C17015   7.293   2.422   7.551 -0.0847  1.1627 -0.4942
  124MOL0     C17016   7.419   2.430   7.463  0.7680 -0.0251  0.2947
  124MOL0     C17017   7.537   2.509   7.521  0.1843  0.3873  0.4032
  124MOL0     C17018   7.640   2.558   7.430  0.0850 -0.1185  0.4710
  124MOL0    Cl17019   7.584   2.683   7.315  0.0513 -0.6673 -0.3597
  124MOL0     C17020   6.625   2.039   7.700  0.0643  0.6925  0.2507
  124MOL0     C17021   6.500   1.977   7.712 -0.5359 -0.6212  0.2109
  124MOL0     O17022   6.353   1.746   7.659 -0.7238 -0.0236  0.4672
  124MOL0     C17023   6.030   1.828   7.578  0.6132 -0.1417 -0.7898
  124MOL0     C17024   5.898   1.772   7.564  0.6714 -0.9315  0.3732
  124MOL0     N17025   5.355   1.787   7.261 -0.9092  0.8574 -0.2454
  124MOL0     N17026   5.233   1.832   7.242 -0.2432 -1.1330 -0.0393
  124MOL0     C17027   4.114   2.067   7.838  0.1269  0.4006 -0.4459
  124MOL0     C17028   3.995   2.110   7.888  0.2363  0.2261  0.3914
  124MOL0     C17029   3.563   2.217   7.920 -1.0036 -0.1073  0.3239
  124MOL0     C17030   3.598   2.279   8.043  0.4122  0.6412 -0.2050
  124MOL0     C17031   3.498   2.339   8.121 -0.2233 -0.6129  0.2182
  124MOL0     C17032   3.371   2.344   8.069 -0.3675 -0.6587  0.4839
  124MOL0     O17033   3.265   2.401   8.132 -0.0563  0.1441  0.6151
  124MOL0     C17034   3.265   2.424   8.274 -0.6894 -0.8446  0.3193
  124MOL0     C17035   3.236   2.296   8.343 -0.2045 -0.2465 -1.2560
  124MOL0     C17036   3.184   2.342   8.484 -0.5620  0.2687  0.8525
  124MOL0     C17037   3.155   2.222   8.567  0.3183  0.0551  0.5095
  124MOL0     C17038   3.047   2.143   8.518  0.5454 -0.2205 -0.1445
  124MOL0     C17039   2.969   2.071   8.457  0.1656  1.2356  0.7140
  124MOL0     C17040   3.335   2.272   7.951 -0.6974 -0.0157  0.1866
  124MOL0     C17041   3.428   2.208   7.873  1.1484  0.1243  0.4927
  124MOL0     C17042   3.383   2.138   7.747  0.1549 -1.0605 -0.0678
  124MOL0     H17043   3.780   1.865   7.787  1.1329 -2.5388 -1.0752
  124MOL0     H17044   3.991   1.779   7.700  1.4338  1.0221 -0.9346
  124MOL0     H17045   4.320   1.855   7.883 -0.7684  1.1953  1.0694
  124MOL0     H17046   4.368   1.998   7.788  0.6533 -0.6301 -1.6966
  124MOL0     H17047   4.515   1.789   7.822  1.7940 -0.0458 -0.9379
  124MOL0     H17048   4.435   1.720   7.685  1.9011 -0.5159  1.6081
  124MOL0     H17049   4.449   1.942   7.575  0.4128  0.8660 -0.5308
  124MOL0     H17050   4.590   1.961   7.680 -1.1666  0.6361  0.3103
  124MOL0     H17051   4.620   1.700   7.570  3.4676  0.4103 -0.5643
  124MOL0     H17052   4.563   1.809   7.447  3.1682  0.3361 -1.2993
  124MOL0     H17053   4.808   1.809   7.618  2.3291 -0.4753 -1.4950
  124MOL0     H17054   4.770   1.964   7.540  1.8183 -0.6994 -1.5159
  124MOL0     H17055   4.779   1.708   7.371  2.2477 -0.7060  0.8936
  124MOL0     H17056   4.784   1.873   7.315  0.9698 -0.0537  0.4114
  124MOL0     H17057   4.990   1.739   7.495  1.3035  0.7830 -0.7510
  124MOL0     H17058   5.012   1.889   7.404 -1.6018  1.1211 -4.3079
  124MOL0     H17059   4.964   1.625   7.263  0.8746 -0.7010  1.2483
  124MOL0     H17060   4.968   1.779   7.188 -3.4957 -0.7269  1.6416
  124MOL0     H17061   5.219   1.500   7.281 -1.4981  0.4144 -2.6284
  124MOL0     H17062   5.571   1.599   7.241 -1.2111  1.3388 -0.7899
  124MOL0     H17063   5.462   1.466   7.214  0.7838  0.0911  0.1184
  124MOL0     H17064   5.417   1.421   7.428 -0.7915 -0.8439 -0.0485
  124MOL0     H17065   5.591   1.414   7.418 -1.5229 -1.4054 -0.0900
  124MOL0     H17066   5.423   1.635   7.543 -0.6052 -0.1546 -3.6394
  124MOL0     H17067   5.515   1.513   7.626 -0.9842 -0.5734 -0.5059
  124MOL0     H17068   5.640   1.706   7.431 -0.1520  2.5141  0.3618
  124MOL0     H17069   5.636   1.750   7.602  1.3350 -1.0133  0.1755
  124MOL0     H17070   5.952   1.454   7.668  1.4306 -0.9608 -3.1798
  124MOL0     H17071   6.261   1.586   7.818  0.4396 -0.2240 -0.3342
  124MOL0     H17072   6.262   1.468   7.689  0.6434  0.9212  0.3717
  124MOL0     H17073   6.139   1.464   7.821 -1.1578 -0.7422 -0.4518
  124MOL0     H17074   6.327   2.139   7.470  1.0456  0.8447 -0.7054
  124MOL0     H17075   6.542   2.241   7.441  2.7408 -0.2805  0.0290
  124MOL0     H17076   6.901   2.164   7.705 -0.5510  0.8578 -0.7286
  124MOL0     H17077   6.890   2.012   7.624 -0.1080 -0.3273 -0.5230
  124MOL0     H17078   7.075   2.080   7.482 -0.3792 -0.6920 -1.4080
  124MOL0     H17079   6.950   2.193   7.412  1.0633  1.9243  0.3843
  124MOL0     H17080   7.115   2.263   7.655  1.5283 -3.1218 -0.9663
  124MOL0     H17081   7.011   2.368   7.562 -2.3475 -1.0126 -0.0875
  124MOL0     H17082   7.167   2.366   7.379 -2.8932  0.5981  1.8243
  124MOL0     H17083   7.260   2.229   7.445  0.8961 -0.3232  0.9599
  124MOL0     H17084   7.251   2.521   7.572  4.6576  3.4231 -0.3725
  124MOL0     H17085   7.317   2.371   7.645  0.8623  1.2535 -0.6837
  124MOL0     H17086   7.395   2.491   7.375  0.0967  0.0590  0.5296
  124MOL0     H17087   7.463   2.332   7.440  1.6367  0.7867 -1.8144
  124MOL0     H17088   7.578   2.442   7.598  0.2323 -1.0679 -0.8461
  124MOL0     H17089   7.491   2.590   7.579 -1.1871 -0.0241 -0.0618
  124MOL0     H17090   7.687   2.470   7.387  3.5012  1.3804  0.7920
  124MOL0     H17091   7.712   2.614   7.491  1.1110 -1.7029  0.7910
  124MOL0     H17092   6.706   1.997   7.758  2.1504 -1.9594 -4.1079
  124MOL0     H17093   6.492   1.900   7.789 -2.0525 -1.2759 -0.5717
  124MOL0     H17094   6.039   1.933   7.552 -0.5052  0.0469 -0.4920
  124MOL0     H17095   5.830   1.847   7.528  2.4659 -0.0061 -1.2416
  124MOL0     H17096   4.209   2.118   7.849  0.8163 -0.8252 -0.4354
  124MOL0     H17097   3.999   2.193   7.957 -1.4468 -0.9289  1.9680
  124MOL0     H17098   3.704   2.280   8.066  0.7593 -1.6788 -1.3699
  124MOL0     H17099   3.516   2.380   8.220  0.5221  0.7454 -0.4553
  124MOL0     H17100   3.356   2.468   8.317  0.1383 -2.0604 -0.1504
  124MOL0     H17101   3.185   2.498   8.287  2.9134  3.3526  0.7790
  124MOL0     H17102   3.311   2.217   8.359 -2.7326 -2.3475  1.4180
  124MOL0     H17103   3.164   2.244   8.279 -0.2505  0.7353 -2.0363
  124MOL0     H17104   3.260   2.398   8.540 -1.3631 -0.0316  2.2880
  124MOL0     H17105   3.088   2.391   8.470 -1.7469 -1.9765  0.6185
  124MOL0     H17106   3.127   2.257   8.667  0.0853  0.2697  0.3736
  124MOL0     H17107   3.250   2.170   8.579  0.0359 -0.3410  1.0922
  124MOL0     H17108   2.908   2.003   8.399  1.5716  2.3425 -2.2413
  124MOL0     H17109   3.232   2.270   7.919 -0.3638 -0.0552 -0.9302
  124MOL0     H17110   3.444   2.049   7.731  0.5975 -0.5364 -1.4315
  124MOL0     H17111   3.277   2.114   7.750 -0.2917  0.7012  2.8284
  124MOL0     H17112   3.397   2.203   7.660 -1.3822 -0.4528  0.1106
  125MOL0     O17113   4.470   6.927   0.607 -0.0951  0.3054 -0.2439
  125MOL0     C17114   4.404   6.944   0.704  0.2195 -0.2880 -0.0852
  125MOL0     O17115   4.451   6.945   0.840 -0.1711  0.2112 -0.4389
  125MOL0     C17116   4.585   6.913   0.858  0.2696  0.5886  0.0809
  125MOL0     C17117   4.668   6.977   0.950 -0.3936  0.2035  0.1656
  125MOL0     C17118   4.807   6.939   0.963  0.4961 -0.3490  0.4091
  125MOL0     C17119   4.864   6.830   0.893  0.0658  0.6310 -0.3454
  125MOL0     O17120   4.995   6.789   0.889  0.9294 -0.2262  0.0931
  125MOL0     C17121   5.086   6.854   0.988  0.5472 -0.6571  0.4818
  125MOL0     C17122   5.226   6.808   0.977 -0.1725 -0.7026  0.1710
  125MOL0     C17123   5.325   6.861   1.077 -0.2409  0.6658 -0.2336
  125MOL0     C17124   5.441   6.766   1.104  0.4401  0.2397 -0.3134
  125MOL0     C17125   5.483   6.786   1.249 -0.6422  1.0548 -0.8955
  125MOL0     C17126   5.602   6.691   1.280 -0.2352 -0.4677  0.1407
  125MOL0     C17127   5.663   6.706   1.421  0.5663 -0.0209  0.0686
  125MOL0     C17128   5.711   6.856   1.457  0.1890 -0.0441  0.2187
  125MOL0     N17129   5.818   6.893   1.369 -0.3281 -0.3998 -0.0765
  125MOL0     C17130   5.939   6.817   1.358  0.3983 -0.1892  0.2718
  125MOL0     C17131   6.003   6.870   1.249 -0.2949 -0.0647 -0.5148
  125MOL0     C17132   6.144   6.818   1.202  0.3881 -0.5145 -0.5703
  125MOL0     C17133   6.265   6.917   1.228  0.0020 -0.9244 -0.0698
  125MOL0     C17134   6.389   6.870   1.176 -0.8711 -0.2909  0.5919
  125MOL0     C17135   6.399   6.874   1.028 -0.9175  0.2588 -0.4020
  125MOL0     O17136   6.518   6.812   0.989 -0.1811 -0.7433 -0.2371
  125MOL0     C17137   6.649   6.853   1.026  0.6101 -0.9092 -0.1727
  125MOL0     C17138   6.743   6.757   1.038  0.6567 -0.1360  0.4534
  125MOL0     C17139   6.878   6.787   1.074 -0.3275 -0.3712  0.8345
  125MOL0     C17140   6.969   6.671   1.090 -0.1607 -0.3258  0.2090
  125MOL0     C17141   6.923   6.915   1.083  0.5944 -0.3833  0.1560
  125MOL0     C17142   7.065   6.961   1.115  0.0071 -0.4478  0.0452
  125MOL0     O17143   7.090   7.099   1.106  0.2611 -0.2954  0.3497
  125MOL0     C17144   7.225   7.138   1.099  0.3737  0.7401  0.1432
  125MOL0     C17145   7.284   7.169   0.978  0.6659 -0.1969 -0.2472
  125MOL0     C17146   7.422   7.198   0.981  0.1466 -0.4933  0.1652
  125MOL0     C17147   7.506   7.195   1.098 -0.4623  0.0346  0.3479
  125MOL0     O17148   7.635   7.223   1.065 -0.5920  0.2969  0.2473
  125MOL0     C17149   7.728   7.214   1.173  1.0147  0.0745 -1.2048
  125MOL0     C17150   7.723   7.319   1.282 -0.3671 -0.7099 -0.7435
  125MOL0     C17151   7.777   7.261   1.415 -0.0730  0.7217  0.0319
  125MOL0     C17152   7.928   7.278   1.420 -0.4737  0.2333 -0.2426
  125MOL0     C17153   7.987   7.420   1.400 -1.0066  0.3762  0.8457
  125MOL0     C17154   8.139   7.421   1.433 -0.7457 -0.4617  0.5011
  125MOL0     C17155   8.203   7.555   1.400 -0.3199 -0.9138 -0.6566
  125MOL0     C17156   8.341   7.551   1.337 -0.2664  0.7124 -1.1137
  125MOL0    Cl17157   8.386   7.718   1.295 -0.2219 -0.1787 -0.1396
  125MOL0     C17158   7.447   7.136   1.209 -1.2511  0.7736  0.0578
  125MOL0     C17159   7.310   7.110   1.205 -0.4686 -0.4221 -0.7558
  125MOL0     O17160   7.130   6.885   1.183  0.2015 -0.3481 -0.4755
  125MOL0     C17161   6.823   7.015   1.065  0.4513 -0.8297  0.3635
  125MOL0     C17162   6.689   6.982   1.032  0.1390  0.3712  0.2140
  125MOL0     N17163   5.931   6.976   1.202  0.9080 -0.1501  0.2899
  125MOL0     N17164   5.831   6.991   1.269 -0.2406 -0.4813  0.1592
  125MOL0     C17165   4.777   6.759   0.819  0.0171  0.7009 -0.8395
  125MOL0     C17166   4.639   6.796   0.800 -0.6159  0.1665 -0.0638
  125MOL0     C17167   4.260   6.975   0.681 -0.0455  1.5366 -0.0553
  125MOL0     C17168   4.182   7.019   0.792 -0.5719 -0.3100  0.9841
  125MOL0     C17169   4.049   7.050   0.776 -0.2262 -0.0264  0.0167
  125MOL0     C17170   3.970   7.023   0.659  0.0981  1.3533 -0.3595
  125MOL0     O17171   3.831   7.045   0.642 -0.7469 -0.1933 -0.4666
  125MOL0     C17172   3.763   7.073   0.756  0.9308 -0.6805  0.0799
  125MOL0     C17173   3.614   7.093   0.715 -1.0686 -0.5453 -0.4659
  125MOL0     C17174   3.519   7.088   0.831  0.0745  0.4433  0.1326
  125MOL0     C17175   3.383   7.034   0.790 -1.0290 -0.2380 -0.3507
  125MOL0     C17176   3.283   7.031   0.897 -0.3191 -0.4675  0.2665
  125MOL0     C17177   3.209   7.018   0.989 -0.0686  0.4805  0.5410
  125MOL0     C17178   4.047   6.975   0.555  0.4853 -0.2454 -0.0601
  125MOL0     C17179   4.188   6.970   0.558  0.7391 -0.4624  0.8901
  125MOL0     C17180   4.262   6.932   0.428 -0.0767  1.0822 -0.7881
  125MOL0     H17181   4.629   7.061   1.005  0.0181  0.4590  0.0697
  125MOL0     H17182   4.868   6.996   1.033 -1.0488  0.0603  1.4686
  125MOL0     H17183   5.039   6.827   1.083 -1.8038 -1.3426 -0.7897
  125MOL0     H17184   5.081   6.960   0.961  0.6353 -0.1245  2.4024
  125MOL0     H17185   5.223   6.699   0.990  2.2559 -0.5885  2.5126
  125MOL0     H17186   5.256   6.828   0.874 -2.8635 -2.6179 -1.1009
  125MOL0     H17187   5.365   6.961   1.055 -1.3093  0.7189 -2.2542
  125MOL0     H17188   5.263   6.874   1.166  1.9240  1.3288  1.2314
  125MOL0     H17189   5.403   6.665   1.085  0.0244  0.6851 -2.0295
  125MOL0     H17190   5.521   6.799   1.037 -1.8919  3.5576 -1.7373
  125MOL0     H17191   5.402   6.770   1.321  0.4952  1.6213  0.5767
  125MOL0     H17192   5.516   6.889   1.263  2.6332  0.0144  0.2029
  125MOL0     H17193   5.576   6.587   1.258  2.1845 -1.5171  1.8705
  125MOL0     H17194   5.689   6.710   1.217 -0.2810  0.1758  0.2570
  125MOL0     H17195   5.750   6.642   1.437  0.1196  0.0036  3.1822
  125MOL0     H17196   5.593   6.660   1.491  1.5988 -0.1892  1.0025
  125MOL0     H17197   5.624   6.923   1.451 -0.5396 -1.0455 -0.8426
  125MOL0     H17198   5.747   6.864   1.560 -0.5337 -2.5853  0.7441
  125MOL0     H17199   5.974   6.731   1.413  1.6556  0.0985 -0.0484
  125MOL0     H17200   6.137   6.798   1.095  1.4022 -2.4552 -0.3195
  125MOL0     H17201   6.159   6.722   1.252 -0.4225  0.6996  2.1789
  125MOL0     H17202   6.233   7.012   1.183 -0.7307 -1.4478 -0.6894
  125MOL0     H17203   6.272   6.932   1.336  1.6594 -0.9802 -0.1547
  125MOL0     H17204   6.473   6.930   1.213 -0.8767 -1.0297  1.8762
  125MOL0     H17205   6.397   6.764   1.202 -1.2539 -0.2371  0.9433
  125MOL0     H17206   6.316   6.823   0.977 -0.5673  0.2336 -0.9518
  125MOL0     H17207   6.397   6.979   0.995  1.7908  1.1370  1.8572
  125MOL0     H17208   6.704   6.657   1.031 -3.4259  1.1931  1.6531
  125MOL0     H17209   7.071   6.684   1.053  0.5102 -1.2869  1.6254
  125MOL0     H17210   6.921   6.581   1.051 -1.1619  0.7798 -1.2559
  125MOL0     H17211   6.983   6.664   1.199  4.3702  1.6123 -0.0138
  125MOL0     H17212   7.222   7.170   0.889  0.0341 -0.8557  0.1809
  125MOL0     H17213   7.464   7.238   0.889  1.8880 -1.0144  0.7040
  125MOL0     H17214   7.720   7.112   1.212  1.8354  0.1053 -0.9489
  125MOL0     H17215   7.829   7.230   1.133  1.4437 -1.7000 -0.9148
  125MOL0     H17216   7.773   7.412   1.254 -0.7604 -0.1766  0.2886
  125MOL0     H17217   7.617   7.336   1.302 -1.4494 -3.3184 -3.3975
  125MOL0     H17218   7.764   7.152   1.421  0.6251  0.4952 -1.9989
  125MOL0     H17219   7.726   7.306   1.501 -0.9792 -0.6681  0.2536
  125MOL0     H17220   7.965   7.208   1.344  1.7872 -3.1760  3.5935
  125MOL0     H17221   7.956   7.233   1.516 -3.9446 -0.6459  0.4912
  125MOL0     H17222   7.975   7.459   1.298  0.0334  0.9924  0.9508
  125MOL0     H17223   7.926   7.492   1.455 -2.3804  0.0827 -0.2164
  125MOL0     H17224   8.195   7.348   1.373  0.2008  0.4720  0.2179
  125MOL0     H17225   8.145   7.408   1.541 -1.7196 -1.2741  0.4664
  125MOL0     H17226   8.218   7.606   1.495 -0.3640 -3.2739  0.6797
  125MOL0     H17227   8.135   7.618   1.342 -1.0171  1.8607  2.8253
  125MOL0     H17228   8.334   7.480   1.255  1.1900  1.3310 -1.8005
  125MOL0     H17229   8.415   7.522   1.413  0.2233  0.1388 -1.8042
  125MOL0     H17230   7.509   7.117   1.297  0.1984  0.1701 -1.0432
  125MOL0     H17231   7.269   7.065   1.295  1.9132  0.0292  0.6382
  125MOL0     H17232   6.853   7.119   1.074 -1.1928 -0.2822 -0.1176
  125MOL0     H17233   6.615   7.061   1.023 -0.6626 -0.5435 -2.1052
  125MOL0     H17234   4.814   6.675   0.762  0.6319  1.2069 -1.1937
  125MOL0     H17235   4.577   6.727   0.744  0.2055 -1.2633  0.7495
  125MOL0     H17236   4.235   7.041   0.885  0.3579 -0.5059  0.5086
  125MOL0     H17237   3.999   7.092   0.863  0.1962 -0.9671  0.7369
  125MOL0     H17238   3.781   6.995   0.831  2.0206 -0.7017 -0.1823
  125MOL0     H17239   3.781   7.175   0.793  0.7884  0.6463 -3.1658
  125MOL0     H17240   3.580   7.039   0.626  0.4548 -2.0000 -0.2215
  125MOL0     H17241   3.619   7.197   0.684 -2.4099 -0.7470 -1.4083
  125MOL0     H17242   3.564   7.025   0.909  0.7252  1.8623  0.9372
  125MOL0     H17243   3.517   7.187   0.878 -0.5591  0.4876  0.0167
  125MOL0     H17244   3.387   6.939   0.736  1.0823  0.1202 -0.9123
  125MOL0     H17245   3.343   7.098   0.711  0.6926 -0.4849 -1.4762
  125MOL0     H17246   3.160   7.028   1.084  2.8523  0.8124  2.1160
  125MOL0     H17247   4.006   6.954   0.457  1.7087  4.1011 -1.7072
  125MOL0     H17248   4.351   6.992   0.408  1.1762 -0.3339  0.2981
  125MOL0     H17249   4.286   6.825   0.430 -0.1390  1.0573 -1.2214
  125MOL0     H17250   4.197   6.946   0.341  1.8392  0.3114 -2.4333
  126MOL0     O17251   3.582   7.591   6.980  0.2380 -0.3794  0.3365
  126MOL0     C17252   3.600   7.567   6.858 -0.3797  0.4182 -0.0888
  126MOL0     O17253   3.721   7.534   6.805 -0.0650  0.3248  0.1120
  126MOL0     C17254   3.824   7.571   6.882 -0.1264  0.0654  0.6494
  126MOL0     C17255   3.889   7.486   6.974 -0.4018 -0.4116 -0.6418
  126MOL0     C17256   3.990   7.536   7.061 -0.1267  0.0587  0.2733
  126MOL0     C17257   4.035   7.669   7.038 -0.1688  0.1873  1.0803
  126MOL0     O17258   4.137   7.744   7.097 -0.7250 -0.3388 -0.0125
  126MOL0     C17259   4.203   7.677   7.203 -1.0711  0.3195 -0.4200
  126MOL0     C17260   4.336   7.737   7.246 -0.3520  0.2023 -0.3174
  126MOL0     C17261   4.439   7.731   7.132  0.1170 -0.5645 -0.0891
  126MOL0     C17262   4.455   7.587   7.078  0.0829 -0.7906  0.1319
  126MOL0     C17263   4.565   7.589   6.978  0.3040  0.3287  0.2313
  126MOL0     C17264   4.568   7.453   6.919 -0.7944  0.0202  0.0227
  126MOL0     C17265   4.687   7.452   6.824 -0.3642  0.2490 -0.3690
  126MOL0     C17266   4.699   7.316   6.759 -0.2057  0.1256  0.5679
  126MOL0     N17267   4.752   7.212   6.847  0.2214  0.0268 -0.2302
  126MOL0     C17268   4.845   7.234   6.945 -0.6898 -0.0285 -0.3006
  126MOL0     C17269   4.880   7.114   7.003  0.0658 -0.0359 -0.0659
  126MOL0     C17270   4.983   7.096   7.103 -0.0865  0.4234  0.0087
  126MOL0     C17271   4.995   6.959   7.164  0.5802  0.0744  0.3102
  126MOL0     C17272   5.087   6.950   7.291  0.6153 -0.1100 -0.7952
  126MOL0     C17273   5.131   6.811   7.319  0.2262 -0.4604 -0.2243
  126MOL0     O17274   5.240   6.783   7.231 -0.7106 -0.0388 -0.0280
  126MOL0     C17275   5.316   6.667   7.244 -1.6821 -0.4483 -0.4525
  126MOL0     C17276   5.294   6.561   7.332  0.4181 -0.3298  0.1498
  126MOL0     C17277   5.391   6.459   7.341  0.2069  0.2883 -0.3291
  126MOL0     C17278   5.352   6.345   7.437  0.5375 -0.2241  0.8793
  126MOL0     C17279   5.508   6.457   7.261  0.4365 -0.2141 -0.1854
  126MOL0     C17280   5.610   6.346   7.255 -0.9183  0.3220 -0.6820
  126MOL0     O17281   5.572   6.226   7.297  0.1671 -0.3897  0.4081
  126MOL0     C17282   5.656   6.124   7.291 -0.0524  0.2520  0.4235
  126MOL0     C17283   5.739   6.110   7.406 -0.1250  1.1550  1.1377
  126MOL0     C17284   5.826   6.000   7.415 -0.3306 -0.4319 -0.2778
  126MOL0     C17285   5.817   5.892   7.327  0.5873 -0.0312 -0.1004
  126MOL0     O17286   5.891   5.781   7.333 -0.2166  0.6961  0.5913
  126MOL0     C17287   6.005   5.777   7.428 -0.0120  0.0979  0.0051
  126MOL0     C17288   6.116   5.680   7.378  0.0882  0.4955 -0.3762
  126MOL0     C17289   6.257   5.702   7.438  0.3981 -0.1542  0.6815
  126MOL0     C17290   6.358   5.637   7.348 -0.0196 -0.3180  0.5398
  126MOL0     C17291   6.492   5.611   7.426  0.6305 -0.2024  0.1115
  126MOL0     C17292   6.601   5.557   7.328 -0.1694  0.1392 -0.2431
  126MOL0     C17293   6.718   5.499   7.415  0.3693 -0.1416  0.2562
  126MOL0     C17294   6.808   5.605   7.469 -0.1346 -0.5704 -1.1370
  126MOL0    Cl17295   6.877   5.706   7.351 -0.2129  0.2917 -0.2178
  126MOL0     C17296   5.718   5.900   7.223 -0.6856 -0.8881 -0.3350
  126MOL0     C17297   5.637   6.011   7.202 -0.2427  0.2983 -0.0964
  126MOL0     O17298   5.719   6.372   7.207 -0.1338  0.0012 -0.2520
  126MOL0     C17299   5.525   6.564   7.172 -0.4989  0.3169  0.3207
  126MOL0     C17300   5.436   6.663   7.167  0.1243 -0.6013  0.2142
  126MOL0     N17301   4.812   7.017   6.930 -1.3827 -0.6743  0.2417
  126MOL0     N17302   4.734   7.081   6.840  0.4405  0.4768 -0.1800
  126MOL0     C17303   3.984   7.747   6.935  0.0447 -0.6777  0.1300
  126MOL0     C17304   3.871   7.700   6.864 -0.0410 -0.3702  0.9328
  126MOL0     C17305   3.489   7.567   6.759 -0.0953 -0.0982 -0.6882
  126MOL0     C17306   3.482   7.467   6.663  0.4496  0.6437 -0.1818
  126MOL0     C17307   3.385   7.461   6.564  0.2026 -0.1714 -0.1909
  126MOL0     C17308   3.293   7.573   6.565  0.0862  0.9116  0.6683
  126MOL0     O17309   3.197   7.569   6.469 -0.5830 -0.4852  0.6964
  126MOL0     C17310   3.202   7.684   6.380  0.5624 -0.3448  0.2646
  126MOL0     C17311   3.080   7.653   6.292 -0.2822  0.7085  0.6605
  126MOL0     C17312   3.093   7.732   6.162  0.7541  0.8731  0.6317
  126MOL0     C17313   2.963   7.739   6.076 -0.4007  0.4865  0.0204
  126MOL0     C17314   2.944   7.610   6.009  0.3096  0.4691 -0.1213
  126MOL0     C17315   2.926   7.505   5.955  0.1438  0.4436 -0.0878
  126MOL0     C17316   3.284   7.665   6.668  0.1237 -0.0325 -0.0664
  126MOL0     C17317   3.382   7.671   6.763 -0.0618  0.0595 -0.2605
  126MOL0     C17318   3.357   7.766   6.877 -0.3982 -0.1309  0.0627
  126MOL0     H17319   3.853   7.383   6.976  2.5764 -1.5498  0.0943
  126MOL0     H17320   4.049   7.467   7.121  0.0865 -0.7398 -0.8205
  126MOL0     H17321   4.212   7.568   7.192  2.7421  0.5233 -0.7803
  126MOL0     H17322   4.132   7.687   7.285 -0.6912  1.0980 -0.1777
  126MOL0     H17323   4.329   7.841   7.279 -0.1484  0.5313 -1.2825
  126MOL0     H17324   4.370   7.667   7.323 -1.4660 -0.6740 -0.5902
  126MOL0     H17325   4.420   7.804   7.053  0.1210  0.0059  0.4291
  126MOL0     H17326   4.539   7.763   7.164 -0.8794  2.5146  0.3358
  126MOL0     H17327   4.463   7.512   7.157 -2.9408 -1.3616  0.0262
  126MOL0     H17328   4.364   7.576   7.019 -0.4383 -2.8761  1.2171
  126MOL0     H17329   4.657   7.612   7.034 -0.4622 -0.9194  2.0892
  126MOL0     H17330   4.551   7.673   6.910 -1.2580  3.0986  3.6290
  126MOL0     H17331   4.592   7.378   6.994  1.9879 -0.0921 -0.8570
  126MOL0     H17332   4.475   7.432   6.865 -0.8884  0.5147 -0.0174
  126MOL0     H17333   4.775   7.496   6.871  0.2192 -1.3616  0.1269
  126MOL0     H17334   4.665   7.523   6.744  2.4922  1.1686 -0.4351
  126MOL0     H17335   4.607   7.288   6.706 -0.8623 -0.1651  1.8158
  126MOL0     H17336   4.770   7.328   6.676  0.3322  0.7091  1.1013
  126MOL0     H17337   4.891   7.329   6.973 -1.8133  0.7726 -1.1047
  126MOL0     H17338   4.959   7.161   7.187  0.8380  3.5706 -1.9957
  126MOL0     H17339   5.084   7.127   7.072  0.4098 -0.5674  0.5693
  126MOL0     H17340   4.894   6.926   7.187  1.5069 -3.7349 -0.4641
  126MOL0     H17341   5.037   6.890   7.090 -0.1208 -1.1374  1.0188
  126MOL0     H17342   5.171   7.015   7.267  1.7488 -1.3030 -0.1541
  126MOL0     H17343   5.040   6.993   7.381 -0.2168 -0.3654 -1.0948
  126MOL0     H17344   5.163   6.805   7.423  1.1008  1.2060 -0.3742
  126MOL0     H17345   5.049   6.743   7.292 -0.1182 -0.0566 -0.1981
  126MOL0     H17346   5.198   6.547   7.381  0.4951  0.2749  0.4779
  126MOL0     H17347   5.284   6.376   7.517  2.4770  1.0909  2.0851
  126MOL0     H17348   5.442   6.306   7.484  0.3045 -1.2469  0.5044
  126MOL0     H17349   5.302   6.263   7.384  1.3723  0.0063 -0.2986
  126MOL0     H17350   5.731   6.178   7.490 -0.7328  2.9179 -0.2726
  126MOL0     H17351   5.891   6.005   7.503 -2.2467  0.2919  1.1773
  126MOL0     H17352   6.049   5.877   7.432  1.7732 -0.3589 -3.6861
  126MOL0     H17353   5.970   5.744   7.526  1.0783  0.9075  0.6824
  126MOL0     H17354   6.075   5.584   7.410  3.5061 -0.3437  2.0835
  126MOL0     H17355   6.116   5.684   7.268 -0.7574  0.8620 -0.3643
  126MOL0     H17356   6.264   5.657   7.537 -2.3760 -0.2985  0.8915
  126MOL0     H17357   6.285   5.808   7.436 -0.6478  0.1514 -1.6705
  126MOL0     H17358   6.388   5.708   7.270  0.8625 -2.1140 -0.8563
  126MOL0     H17359   6.317   5.552   7.293 -1.5553 -0.3952  1.7603
  126MOL0     H17360   6.528   5.698   7.480 -0.7308 -0.5043  1.5948
  126MOL0     H17361   6.470   5.531   7.497 -2.4973  0.9423  0.5807
  126MOL0     H17362   6.633   5.646   7.272  1.9141  1.2200  2.4294
  126MOL0     H17363   6.569   5.483   7.254  0.1675 -0.5594  0.3046
  126MOL0     H17364   6.786   5.450   7.344  1.4991  0.9461  0.5447
  126MOL0     H17365   6.692   5.422   7.488  0.1852 -1.3495 -1.0418
  126MOL0     H17366   6.882   5.555   7.533 -1.5184  0.3256  1.2873
  126MOL0     H17367   6.759   5.674   7.538 -1.2734 -2.4053 -0.0444
  126MOL0     H17368   5.715   5.822   7.148 -2.2050 -0.5895 -0.6322
  126MOL0     H17369   5.565   6.014   7.121 -0.0395 -2.3018 -0.4400
  126MOL0     H17370   5.609   6.569   7.105  0.0046  0.1148  0.9290
  126MOL0     H17371   5.461   6.744   7.099 -1.1200  1.1802  1.7314
  126MOL0     H17372   4.020   7.848   6.915  0.2546 -0.5131  1.2691
  126MOL0     H17373   3.819   7.751   6.784  0.6816 -1.2319 -0.1188
  126MOL0     H17374   3.551   7.384   6.657 -1.6620 -1.3137  0.9753
  126MOL0     H17375   3.374   7.399   6.476  0.7918  2.5663 -2.3314
  126MOL0     H17376   3.190   7.785   6.419  1.2236  1.2952 -3.3491
  126MOL0     H17377   3.297   7.675   6.326 -0.6035 -0.0219 -1.9418
  126MOL0     H17378   2.980   7.663   6.335 -0.5358 -0.1709  0.3112
  126MOL0     H17379   3.098   7.549   6.261 -1.7242  0.6085  0.0626
  126MOL0     H17380   3.121   7.832   6.196  0.1300  0.2155  3.3267
  126MOL0     H17381   3.185   7.704   6.110  0.6460  2.6159 -0.5894
  126MOL0     H17382   2.954   7.820   6.004  1.4323  0.6410 -0.0744
  126MOL0     H17383   2.883   7.748   6.150 -0.3563 -0.6378  0.2248
  126MOL0     H17384   2.912   7.410   5.909 -0.5392 -0.0015  0.9864
  126MOL0     H17385   3.195   7.727   6.668 -1.6354 -2.3930 -1.0061
  126MOL0     H17386   3.440   7.836   6.887 -1.4236  0.8856  1.9528
  126MOL0     H17387   3.260   7.816   6.885  0.3801  1.7988 -1.7690
  126MOL0     H17388   3.359   7.704   6.967 -2.1954  1.4961  1.3040
  127MOL0     O17389   9.280   5.996   1.568 -0.4118 -0.8565 -0.0707
  127MOL0     C17390   9.300   5.969   1.690  0.5134  0.0445  1.1496
  127MOL0     O17391   9.420   5.932   1.744 -0.1308  0.0652  0.5638
  127MOL0     C17392   9.531   5.941   1.667 -0.5824  0.0991 -0.3484
  127MOL0     C17393   9.602   6.053   1.689  0.4801  0.2374  0.1236
  127MOL0     C17394   9.734   6.051   1.628 -0.3061 -0.0605 -0.1745
  127MOL0     C17395   9.776   5.959   1.539 -0.4261  0.2864  0.2765
  127MOL0     O17396   9.897   5.982   1.471  0.5298  0.2117  0.0869
  127MOL0     C17397   9.983   5.869   1.451 -1.0137  0.2150 -0.2286
  127MOL0     C17398  10.074   5.880   1.574  0.2087 -0.2695  0.0229
  127MOL0     C17399  10.173   5.770   1.571  1.0484 -0.4144  1.1023
  127MOL0     C17400  10.288   5.808   1.666 -0.0868 -0.0955  0.4300
  127MOL0     C17401  10.401   5.707   1.655 -0.5354  0.4448 -0.3668
  127MOL0     C17402  10.526   5.754   1.732 -1.1525 -0.7561 -0.2502
  127MOL0     C17403  10.635   5.649   1.709 -0.4937 -0.2217 -0.1071
  127MOL0     C17404  10.764   5.658   1.792  0.1087  0.0640 -0.5184
  127MOL0     N17405  10.836   5.530   1.789 -0.0603 -0.4597 -0.2530
  127MOL0     C17406  10.785   5.408   1.834 -0.6910  0.1524  0.5950
  127MOL0     C17407  10.900   5.326   1.825  0.3914  0.2613  0.8502
  127MOL0     C17408  10.896   5.184   1.877 -0.2985  0.2482 -0.2070
  127MOL0     C17409  11.032   5.109   1.883  0.4915  0.5185 -0.0886
  127MOL0     C17410  11.133   5.143   1.990 -0.0341 -0.0960  0.3031
  127MOL0     C17411  11.128   5.053   2.109  0.4059  0.2022  0.4086
  127MOL0     O17412  11.218   5.081   2.220 -0.0686  0.0311  0.2994
  127MOL0     C17413  11.206   5.012   2.340 -0.8328 -0.3950 -0.4903
  127MOL0     C17414  11.141   4.890   2.352  1.0072 -0.1069  0.4551
  127MOL0     C17415  11.144   4.818   2.470  0.2830 -0.6212  0.3872
  127MOL0     C17416  11.071   4.682   2.477 -0.7291 -0.6369  1.2846
  127MOL0     C17417  11.214   4.879   2.581 -0.6137  0.4460 -0.6431
  127MOL0     C17418  11.223   4.824   2.731  0.6844  0.5634  0.2568
  127MOL0     O17419  11.148   4.709   2.759  0.0107  0.1186 -0.3242
  127MOL0     C17420  11.150   4.640   2.886  0.7138 -0.6290  0.3677
  127MOL0     C17421  11.053   4.545   2.908  0.0512  0.6778  0.3405
  127MOL0     C17422  11.036   4.483   3.032 -0.0767  0.6913  0.1824
  127MOL0     C17423  11.136   4.487   3.125 -0.1496  0.7585  0.2432
  127MOL0     O17424  11.122   4.412   3.243 -0.3015  0.1100  0.3685
  127MOL0     C17425  11.176   4.452   3.370 -0.2810 -0.1307 -0.1049
  127MOL0     C17426  11.104   4.381   3.481  1.3387  0.3317 -0.6756
  127MOL0     C17427  10.956   4.418   3.481  0.5008 -0.9198  0.3079
  127MOL0     C17428  10.871   4.294   3.480  0.1432 -0.1766 -0.8839
  127MOL0     C17429  10.726   4.328   3.492 -0.1606  0.2670  0.1819
  127MOL0     C17430  10.644   4.203   3.531 -0.5483 -0.6540 -0.7412
  127MOL0     C17431  10.620   4.096   3.420  0.5685  0.4765 -0.5488
  127MOL0     C17432  10.562   4.151   3.293  0.1685 -0.5763  0.3651
  127MOL0    Cl17433  10.426   4.255   3.313  0.1370 -0.0556  0.3891
  127MOL0     C17434  11.243   4.566   3.097 -0.8010 -0.4087  0.1224
  127MOL0     C17435  11.251   4.651   2.980 -0.4004  0.7513 -0.0767
  127MOL0     O17436  11.309   4.873   2.799  0.7341 -0.8387  0.2524
  127MOL0     C17437  11.292   4.994   2.557 -0.1094  0.3056  0.0410
  127MOL0     C17438  11.285   5.060   2.441  0.2001 -0.2932 -0.1274
  127MOL0     N17439  11.004   5.401   1.767  0.2910  0.1109 -0.0872
  127MOL0     N17440  10.962   5.521   1.742  0.5484  0.8662 -0.0903
  127MOL0     C17441   9.695   5.849   1.512 -0.2727  0.0171 -0.8439
  127MOL0     C17442   9.574   5.840   1.580  0.0756 -0.5088 -0.1506
  127MOL0     C17443   9.180   5.961   1.778 -0.4043 -0.1352  0.1681
  127MOL0     C17444   9.197   5.949   1.914 -0.2468  0.2945  0.4513
  127MOL0     C17445   9.105   5.939   2.010  0.7808  0.8798 -0.5590
  127MOL0     C17446   8.970   5.958   1.971  0.0306  0.0560  0.2018
  127MOL0     O17447   8.878   5.953   2.071  0.0374 -0.2809  0.1209
  127MOL0     C17448   8.735   5.971   2.057 -0.2815  0.0901 -0.2055
  127MOL0     C17449   8.652   5.837   2.057 -0.0983 -0.4730 -0.4568
  127MOL0     C17450   8.650   5.760   2.192  1.1129  0.9167 -1.0859
  127MOL0     C17451   8.546   5.636   2.190 -0.0105 -0.7904  0.3530
  127MOL0     C17452   8.509   5.609   2.328  0.8688 -0.3295  0.5202
  127MOL0     C17453   8.488   5.607   2.446 -0.2004  0.6852 -0.0694
  127MOL0     C17454   8.944   5.975   1.833 -0.1178  0.1092  0.1797
  127MOL0     C17455   9.048   5.981   1.738  1.2946  0.7689 -0.7039
  127MOL0     C17456   8.994   6.003   1.598  0.3758  0.0254  0.1697
  127MOL0     H17457   9.578   6.128   1.764 -0.6191 -0.0864  0.1103
  127MOL0     H17458   9.803   6.126   1.664 -2.9726  0.2037  5.2610
  127MOL0     H17459  10.037   5.865   1.356  3.2546 -0.4850  1.9885
  127MOL0     H17460   9.929   5.774   1.444 -0.5719 -0.3672  2.8712
  127MOL0     H17461  10.126   5.976   1.572  2.0840 -1.1187  2.5658
  127MOL0     H17462  10.021   5.871   1.670 -0.1742  1.3967 -0.0126
  127MOL0     H17463  10.123   5.677   1.600  2.0523 -1.2525  0.2556
  127MOL0     H17464  10.218   5.762   1.471 -1.1862 -0.4411  0.0494
  127MOL0     H17465  10.336   5.902   1.637  1.2061 -1.3852 -1.9248
  127MOL0     H17466  10.257   5.819   1.770 -0.5522  0.8080  0.2009
  127MOL0     H17467  10.427   5.695   1.550  1.3403  1.8788 -0.1100
  127MOL0     H17468  10.371   5.610   1.696  1.2826 -0.2279 -0.5366
  127MOL0     H17469  10.565   5.849   1.695  1.8610 -1.7619  0.1345
  127MOL0     H17470  10.499   5.768   1.837 -0.5355 -2.4694  0.1596
  127MOL0     H17471  10.660   5.645   1.602  0.9066 -1.7310  0.2518
  127MOL0     H17472  10.594   5.552   1.739 -0.2739  0.1506  1.4909
  127MOL0     H17473  10.819   5.749   1.765 -1.9950  1.5879  0.0247
  127MOL0     H17474  10.723   5.663   1.893  1.1353  1.7734 -0.1341
  127MOL0     H17475  10.681   5.393   1.864 -1.9334  0.1471 -3.2282
  127MOL0     H17476  10.833   5.129   1.807 -1.1561 -0.5490  1.1395
  127MOL0     H17477  10.841   5.182   1.972 -1.0979 -2.3652 -0.6336
  127MOL0     H17478  11.005   5.003   1.885  0.0405  0.5752 -1.9009
  127MOL0     H17479  11.078   5.119   1.785 -0.7017  0.1218 -0.7101
  127MOL0     H17480  11.226   5.143   1.932 -1.2667  1.8003 -1.8461
  127MOL0     H17481  11.123   5.246   2.024  0.8955  0.3146 -0.6239
  127MOL0     H17482  11.029   5.050   2.155 -0.3958  1.2446 -1.1684
  127MOL0     H17483  11.152   4.953   2.071  1.5176  1.3803 -2.2590
  127MOL0     H17484  11.096   4.851   2.261  0.7849  1.6050 -0.2118
  127MOL0     H17485  10.972   4.692   2.521 -1.5981 -1.1680 -0.4531
  127MOL0     H17486  11.133   4.604   2.521  1.4257 -0.5157 -1.2533
  127MOL0     H17487  11.042   4.658   2.374  2.4051  0.6835 -0.0629
  127MOL0     H17488  10.982   4.534   2.827  0.8675  2.8080 -0.7237
  127MOL0     H17489  10.948   4.423   3.053  0.6362 -0.8588 -1.0754
  127MOL0     H17490  11.284   4.435   3.369 -0.0127  1.4049 -0.4384
  127MOL0     H17491  11.179   4.561   3.383  0.0067  0.1932 -2.3928
  127MOL0     H17492  11.113   4.274   3.462 -0.2491  0.4610 -2.4762
  127MOL0     H17493  11.158   4.404   3.573  0.6820  2.1940 -0.7116
  127MOL0     H17494  10.918   4.475   3.396 -1.0336 -1.8749  0.3133
  127MOL0     H17495  10.930   4.457   3.580  1.0811 -0.4594  0.2818
  127MOL0     H17496  10.913   4.228   3.556 -1.6842  0.2464  0.5621
  127MOL0     H17497  10.880   4.241   3.384 -2.8218 -0.7564 -0.9324
  127MOL0     H17498  10.703   4.401   3.569 -0.8110  0.4516 -0.1815
  127MOL0     H17499  10.695   4.371   3.396 -1.0768 -2.1382 -0.7009
  127MOL0     H17500  10.550   4.234   3.576 -0.0320 -0.2416  0.0662
  127MOL0     H17501  10.698   4.157   3.614  0.1904 -1.0057 -1.3977
  127MOL0     H17502  10.567   4.014   3.467  1.2053  0.7087  0.6124
  127MOL0     H17503  10.713   4.044   3.397 -0.7853 -2.1824 -0.4241
  127MOL0     H17504  10.527   4.073   3.225 -0.9237  0.1559  0.0530
  127MOL0     H17505  10.629   4.216   3.237 -2.2112  2.0270  0.2897
  127MOL0     H17506  11.330   4.568   3.162 -1.3388 -1.9732  0.9429
  127MOL0     H17507  11.335   4.718   2.969 -1.3435  2.0964  0.5601
  127MOL0     H17508  11.361   5.026   2.634  1.0834 -1.5718 -0.1627
  127MOL0     H17509  11.339   5.154   2.435 -1.4480  0.8214  1.5134
  127MOL0     H17510   9.728   5.764   1.452  1.4007 -0.0934  0.1570
  127MOL0     H17511   9.510   5.754   1.564 -2.6202  1.2085  0.6492
  127MOL0     H17512   9.296   5.935   1.954 -0.1447 -1.2649 -0.2763
  127MOL0     H17513   9.124   5.919   2.115 -2.7322 -1.9618 -0.2953
  127MOL0     H17514   8.696   6.040   2.132 -1.6531 -2.3534  1.4589
  127MOL0     H17515   8.710   6.011   1.959  1.2431 -0.8598 -1.0350
  127MOL0     H17516   8.689   5.771   1.978  0.5997 -1.0741  0.3534
  127MOL0     H17517   8.552   5.862   2.022 -0.7267 -1.9073  0.2416
  127MOL0     H17518   8.746   5.723   2.227  0.6098  0.6573  0.0909
  127MOL0     H17519   8.623   5.829   2.272 -0.9080 -0.7247 -0.2548
  127MOL0     H17520   8.591   5.547   2.146  2.7812 -1.1151  3.4677
  127MOL0     H17521   8.458   5.672   2.135  0.2076 -1.0679 -0.1907
  127MOL0     H17522   8.461   5.612   2.550  0.6142 -1.2554  0.2660
  127MOL0     H17523   8.843   6.000   1.802 -0.2792 -0.3666  0.3230
  127MOL0     H17524   8.885   6.007   1.593  0.3428 -1.7804 -2.9389
  127MOL0     H17525   9.031   6.091   1.544  4.1217 -1.1700  0.5381
  127MOL0     H17526   9.013   5.912   1.540  0.9152 -0.4842  1.1259
  128MOL0     O17527   6.739   0.205  10.156 -0.0399 -0.8458 -0.5178
  128MOL0     C17528   6.677   0.297  10.107 -0.4251 -0.0679  0.2766
  128MOL0     O17529   6.718   0.364   9.998  0.5933 -0.1297  1.0135
  128MOL0     C17530   6.851   0.368   9.946  1.2207 -0.4678 -0.5020
  128MOL0     C17531   6.957   0.390  10.035  0.1013 -0.9279 -0.2410
  128MOL0     C17532   7.086   0.418   9.984  0.7474  0.4075 -0.4643
  128MOL0     C17533   7.107   0.398   9.846  0.0160 -0.5947 -0.3669
  128MOL0     O17534   7.232   0.398   9.785 -0.1553 -0.3557 -0.6559
  128MOL0     C17535   7.349   0.431   9.861 -0.2339 -0.2460 -0.4282
  128MOL0     C17536   7.478   0.402   9.787  0.9331  0.5214 -0.5836
  128MOL0     C17537   7.557   0.272   9.830 -0.9761 -0.5005 -0.2363
  128MOL0     C17538   7.618   0.294   9.972  0.0732 -0.0577 -0.4858
  128MOL0     C17539   7.701   0.170  10.018 -0.7709 -0.8373  0.1528
  128MOL0     C17540   7.830   0.144   9.949  1.1615  0.2520  0.1777
  128MOL0     C17541   7.931   0.094  10.048  0.0622 -0.4321 -0.4845
  128MOL0     C17542   7.905  -0.041  10.116 -0.4295 -0.4297  0.4218
  128MOL0     N17543   8.025  -0.087  10.190  0.4847 -0.4305  0.6251
  128MOL0     C17544   8.093  -0.200  10.166  0.4852  0.1315 -0.1517
  128MOL0     C17545   8.159  -0.232  10.281 -0.6798  0.0843  0.0697
  128MOL0     C17546   8.245  -0.351  10.312 -0.6297 -0.0980  1.0845
  128MOL0     C17547   8.369  -0.319  10.402  0.2524 -0.8221  0.0045
  128MOL0     C17548   8.448  -0.448  10.423  0.3369 -0.2274 -0.6798
  128MOL0     C17549   8.585  -0.414  10.468  0.0847 -0.0900  0.0668
  128MOL0     O17550   8.650  -0.544  10.494 -0.2172 -0.2232 -0.2611
  128MOL0     C17551   8.786  -0.543  10.534 -0.1401 -0.3233 -0.1624
  128MOL0     C17552   8.837  -0.666  10.556  0.1412 -0.2192 -0.1448
  128MOL0     C17553   8.971  -0.687  10.580 -0.8225  0.1699  0.0590
  128MOL0     C17554   9.017  -0.832  10.586 -0.9571 -0.1549  0.4066
  128MOL0     C17555   9.052  -0.572  10.584  0.1561  0.2455 -0.3490
  128MOL0     C17556   9.198  -0.567  10.622  0.6083  0.1978  0.5213
  128MOL0     O17557   9.264  -0.451  10.582 -0.0672  0.5886  1.1223
  128MOL0     C17558   9.399  -0.440  10.606  0.2531 -0.0058  0.1408
  128MOL0     C17559   9.489  -0.511  10.685  0.2603  0.1827 -0.4407
  128MOL0     C17560   9.628  -0.479  10.693  0.4778 -0.4283  0.2766
  128MOL0     C17561   9.672  -0.362  10.621 -0.3547  0.9649 -0.0878
  128MOL0     O17562   9.798  -0.311  10.616  0.5562 -0.6416 -0.0452
  128MOL0     C17563   9.908  -0.390  10.673 -0.1793  0.1144 -0.1198
  128MOL0     C17564  10.033  -0.378  10.602  0.1624  0.3404  0.0228
  128MOL0     C17565  10.008  -0.426  10.460  0.8706 -0.6024 -0.2904
  128MOL0     C17566  10.123  -0.407  10.367 -0.5433 -0.2256 -1.2860
  128MOL0     C17567  10.079  -0.474  10.237  0.8614 -0.5565  0.3542
  128MOL0     C17568  10.179  -0.475  10.127  0.4753  0.2720  0.4610
  128MOL0     C17569  10.117  -0.566  10.022 -0.2288  0.1750  0.6975
  128MOL0     C17570  10.215  -0.595   9.914 -0.0155 -0.4173 -0.3432
  128MOL0    Cl17571  10.131  -0.697   9.786 -0.1532 -0.3110 -0.4245
  128MOL0     C17572   9.578  -0.288  10.550  0.0291 -0.5107 -2.2024
  128MOL0     C17573   9.446  -0.326  10.539  0.4529  1.3550 -0.1189
  128MOL0     O17574   9.255  -0.668  10.660 -0.4401 -0.2007 -0.8933
  128MOL0     C17575   8.997  -0.442  10.560  0.2157 -0.2032 -0.0722
  128MOL0     C17576   8.864  -0.429  10.538  1.2247  0.1800 -0.1303
  128MOL0     N17577   8.131  -0.127  10.373 -0.0805  0.5014  0.9483
  128MOL0     N17578   8.048  -0.046  10.314  0.5781 -1.1705 -0.1397
  128MOL0     C17579   7.001   0.374   9.761  0.3883  0.1883 -0.5711
  128MOL0     C17580   6.872   0.365   9.806  0.5064 -0.1847 -1.2355
  128MOL0     C17581   6.547   0.335  10.158 -0.1914  0.2416  0.7054
  128MOL0     C17582   6.489   0.458  10.115 -1.2086 -0.1839 -0.5790
  128MOL0     C17583   6.367   0.495  10.161 -0.1235 -0.4509  0.0919
  128MOL0     C17584   6.300   0.420  10.252 -0.2787 -0.5104 -1.7309
  128MOL0     O17585   6.175   0.470  10.278  0.0113 -0.1713  0.0981
  128MOL0     C17586   6.082   0.389  10.339 -0.5963  0.0024 -0.4678
  128MOL0     C17587   5.942   0.436  10.312 -0.1892 -0.0651 -0.9489
  128MOL0     C17588   5.906   0.458  10.159  0.4448  0.4309 -0.0897
  128MOL0     C17589   5.949   0.340  10.073  0.5173 -0.7670  0.7018
  128MOL0     C17590   5.869   0.332   9.950  0.0259 -0.0504 -0.7281
  128MOL0     C17591   5.787   0.313   9.866  0.2750 -0.6599 -0.0036
  128MOL0     C17592   6.352   0.309  10.308  0.3709  0.5213 -0.5936
  128MOL0     C17593   6.469   0.259  10.258 -0.6334 -0.1963  0.5656
  128MOL0     C17594   6.517   0.131  10.311 -0.3735  0.6399 -0.4465
  128MOL0     H17595   6.943   0.383  10.143  0.2799  0.3595 -0.1134
  128MOL0     H17596   7.168   0.445  10.051  0.0995 -0.2101  0.6151
  128MOL0     H17597   7.355   0.385   9.960 -1.2161 -0.0562 -0.2675
  128MOL0     H17598   7.338   0.539   9.868  0.1196 -0.3350  2.7676
  128MOL0     H17599   7.461   0.392   9.679 -0.5527 -2.7001 -0.1791
  128MOL0     H17600   7.542   0.489   9.804  0.5653  1.1800 -2.3640
  128MOL0     H17601   7.496   0.182   9.836 -1.6580 -0.0582 -0.4413
  128MOL0     H17602   7.642   0.256   9.764 -0.2564  1.6089  0.0963
  128MOL0     H17603   7.688   0.378   9.971 -0.7226  0.6366  0.3221
  128MOL0     H17604   7.543   0.317  10.049  1.6147  1.0226  0.7655
  128MOL0     H17605   7.636   0.082  10.016  0.0161 -1.4728  1.5276
  128MOL0     H17606   7.732   0.194  10.120 -1.2942 -0.6262  0.2628
  128MOL0     H17607   7.811   0.069   9.872  2.6786 -1.3108  1.2369
  128MOL0     H17608   7.869   0.236   9.904 -0.6614  1.2954  0.6421
  128MOL0     H17609   7.947   0.166  10.129  1.0932 -2.8826  1.6640
  128MOL0     H17610   8.015   0.081   9.979 -0.2332 -1.3829 -0.6794
  128MOL0     H17611   7.818  -0.050  10.182 -0.7186 -1.4094 -0.0705
  128MOL0     H17612   7.888  -0.112  10.034  3.6972  1.1131 -2.0834
  128MOL0     H17613   8.089  -0.264  10.079  0.5002  0.9440 -0.7648
  128MOL0     H17614   8.270  -0.398  10.216 -1.9146 -1.7292  1.4826
  128MOL0     H17615   8.186  -0.429  10.361  0.8920 -1.0720  1.4071
  128MOL0     H17616   8.434  -0.250  10.347 -0.8651  1.4232  1.3507
  128MOL0     H17617   8.336  -0.276  10.497  2.7699 -0.4321  0.7771
  128MOL0     H17618   8.389  -0.505  10.497 -1.3193  0.7562 -1.1862
  128MOL0     H17619   8.447  -0.492  10.323 -2.1438  4.8666 -3.3058
  128MOL0     H17620   8.642  -0.359  10.393 -0.5789 -0.7504 -0.9531
  128MOL0     H17621   8.579  -0.362  10.564 -0.1601 -0.7809  0.4330
  128MOL0     H17622   8.776  -0.756  10.558 -0.9707  0.5047  1.5776
  128MOL0     H17623   9.012  -0.861  10.692 -2.1569  3.5275  1.5294
  128MOL0     H17624   9.117  -0.848  10.544  0.1353  4.9398  0.4039
  128MOL0     H17625   8.947  -0.893  10.529 -0.2627 -0.6391  0.0645
  128MOL0     H17626   9.464  -0.598  10.745  1.7505  0.8942  1.2745
  128MOL0     H17627   9.689  -0.523  10.772  1.3935 -0.2510 -0.3205
  128MOL0     H17628   9.931  -0.351  10.772  1.7434 -0.4072 -0.3254
  128MOL0     H17629   9.879  -0.496  10.681  0.6111 -0.1018 -0.0331
  128MOL0     H17630  10.066  -0.274  10.594 -1.0640  0.7256 -0.1170
  128MOL0     H17631  10.105  -0.436  10.661  0.0520  0.7347  0.5528
  128MOL0     H17632   9.928  -0.364  10.419 -1.9943 -2.0408  2.6610
  128MOL0     H17633   9.967  -0.528  10.467 -1.2479  0.3122  2.6013
  128MOL0     H17634  10.208  -0.451  10.420 -1.3916 -0.5224 -0.1242
  128MOL0     H17635  10.141  -0.299  10.362  0.6814 -0.2880  0.6302
  128MOL0     H17636  10.050  -0.576  10.262 -0.2284 -0.0238  1.3901
  128MOL0     H17637   9.992  -0.423  10.194 -0.0041 -0.9728  1.5651
  128MOL0     H17638  10.273  -0.517  10.164 -0.0290 -1.0048  0.3143
  128MOL0     H17639  10.207  -0.380  10.080  0.2760 -0.9327 -2.3053
  128MOL0     H17640  10.027  -0.523   9.978 -0.2220 -0.2151  0.2970
  128MOL0     H17641  10.086  -0.664  10.059  0.9832 -0.9588 -1.1351
  128MOL0     H17642  10.284  -0.667   9.960  1.8143 -0.1021 -2.4310
  128MOL0     H17643  10.266  -0.508   9.872  0.3291  0.3919  1.6553
  128MOL0     H17644   9.609  -0.196  10.501 -2.3457  1.6710  0.0920
  128MOL0     H17645   9.376  -0.267  10.481 -0.3901 -0.9230 -1.5000
  128MOL0     H17646   9.055  -0.353  10.586  1.8605 -1.6380  1.4565
  128MOL0     H17647   8.812  -0.335  10.522 -1.8487 -1.7980 -3.3156
  128MOL0     H17648   7.027   0.363   9.656  3.0923  1.8751 -0.1710
  128MOL0     H17649   6.783   0.358   9.744 -1.2457 -0.1435  1.1578
  128MOL0     H17650   6.558   0.520  10.060  1.5228  0.8595  3.5732
  128MOL0     H17651   6.328   0.592  10.129  0.4865 -0.9490 -2.3830
  128MOL0     H17652   6.088   0.283  10.313 -4.2959 -0.3220 -0.5315
  128MOL0     H17653   6.112   0.396  10.444 -0.8413 -0.7654 -0.3404
  128MOL0     H17654   5.925   0.526  10.371 -2.8541  0.1754 -1.9238
  128MOL0     H17655   5.875   0.357  10.348 -2.3674  0.8935 -2.6804
  128MOL0     H17656   5.798   0.469  10.150  0.3469 -0.9792 -1.1037
  128MOL0     H17657   5.942   0.554  10.123 -0.7191  0.4554 -1.2745
  128MOL0     H17658   5.933   0.250  10.134 -1.1252  1.5275  3.9739
  128MOL0     H17659   6.054   0.338  10.042 -0.3976 -0.3280 -2.9396
  128MOL0     H17660   5.715   0.302   9.787 -0.5249  1.9673  0.2590
  128MOL0     H17661   6.297   0.249  10.380  2.2763  0.8446  1.2427
  128MOL0     H17662   6.441   0.063  10.351  0.4130 -1.5978 -2.5631
  128MOL0     H17663   6.567   0.072  10.235  1.0102  0.6091  0.4486
  128MOL0     H17664   6.584   0.140  10.397  0.0602 -3.8010 -0.1093
  129MOL0     O17665   9.094  10.155   9.655 -0.0175 -0.6214 -0.3617
  129MOL0     C17666   9.061  10.237   9.741  0.5524  0.4009 -0.0237
  129MOL0     O17667   9.134  10.350   9.779 -0.3501 -0.1116 -0.0429
  129MOL0     C17668   9.252  10.396   9.737 -0.8465 -0.4119  1.1661
  129MOL0     C17669   9.351  10.436   9.831 -0.3199  0.2611  0.5072
  129MOL0     C17670   9.477  10.479   9.783 -0.3177  0.5685 -0.1860
  129MOL0     C17671   9.510  10.476   9.646 -0.5805  0.6913 -0.2453
  129MOL0     O17672   9.632  10.502   9.598  0.2801  0.7785  0.3811
  129MOL0     C17673   9.731  10.398   9.604  1.0196 -0.8872  0.3087
  129MOL0     C17674   9.808  10.398   9.730 -0.3599  0.4918  0.2134
  129MOL0     C17675   9.942  10.327   9.717 -0.7879  0.5196  0.0087
  129MOL0     C17676  10.005  10.295   9.859 -0.2247 -0.2221  0.0422
  129MOL0     C17677  10.148  10.231   9.852  0.3391  0.0935 -0.1166
  129MOL0     C17678  10.208  10.183   9.990  0.5296 -0.6277  0.4531
  129MOL0     C17679  10.304  10.076   9.957 -0.8285 -0.4996 -0.1520
  129MOL0     C17680  10.450  10.121   9.921  0.2938  0.1946 -0.7712
  129MOL0     N17681  10.524  10.176  10.041  0.2244  0.0559  0.5298
  129MOL0     C17682  10.535  10.115  10.166 -0.3498  0.3697  0.2753
  129MOL0     C17683  10.591  10.218  10.241 -0.3672  0.1871  0.3426
  129MOL0     C17684  10.648  10.202  10.380 -0.2029  0.1281 -0.0382
  129MOL0     C17685  10.789  10.152  10.382  0.2761  0.7074  0.2371
  129MOL0     C17686  10.884  10.270  10.341 -0.4720  0.5469  0.2282
  129MOL0     C17687  11.037  10.245  10.371 -0.1629 -0.2530  0.3622
  129MOL0     O17688  11.087  10.134  10.296 -0.2403  0.4495 -0.0733
  129MOL0     C17689  11.217  10.089  10.316  0.7355  0.2195  0.7857
  129MOL0     C17690  11.251   9.974  10.249 -0.4386  0.1179 -0.0554
  129MOL0     C17691  11.377   9.915  10.248 -0.7842 -0.4512 -0.2503
  129MOL0     C17692  11.401   9.794  10.159  0.4208 -0.8722  0.0696
  129MOL0     C17693  11.479   9.977  10.325  0.3204  0.5222  0.2837
  129MOL0     C17694  11.619   9.931  10.331  0.2167 -1.8351 -0.2068
  129MOL0     O17695  11.681   9.958  10.451  0.0376 -0.3138  0.6645
  129MOL0     C17696  11.807   9.917  10.480 -0.2851  0.6490 -0.1875
  129MOL0     C17697  11.882   9.986  10.566 -0.1481 -0.7731  0.6451
  129MOL0     C17698  12.001   9.952  10.607 -0.9386 -0.3900 -0.7462
  129MOL0     C17699  12.061   9.829  10.564 -0.1675  0.5048  0.4050
  129MOL0     O17700  12.189   9.804  10.606 -0.1935  0.4430  0.0411
  129MOL0     C17701  12.259   9.695  10.546 -0.0271  0.2344 -0.1062
  129MOL0     C17702  12.301   9.711  10.394 -0.7250  0.1074  0.1147
  129MOL0     C17703  12.388   9.836  10.383 -0.2015 -0.3349  0.3376
  129MOL0     C17704  12.447   9.862  10.246 -0.1802 -0.0722  0.2842
  129MOL0     C17705  12.564   9.770  10.211 -0.3899  0.4486 -0.5083
  129MOL0     C17706  12.593   9.749  10.063 -0.0225 -0.2656 -0.3683
  129MOL0     C17707  12.695   9.860  10.021 -0.1976  0.5890 -0.3374
  129MOL0     C17708  12.704   9.872   9.872  0.1661  0.9255  0.3670
  129MOL0    Cl17709  12.830   9.986   9.851  0.2523  0.0259 -0.0024
  129MOL0     C17710  11.983   9.741  10.487  0.1933  0.5184  0.0725
  129MOL0     C17711  11.865   9.794  10.446  0.2996  0.5268  0.0440
  129MOL0     O17712  11.676   9.895  10.232 -0.5350 -0.1538  0.4992
  129MOL0     C17713  11.443  10.096  10.386 -0.2952 -0.1655 -0.0792
  129MOL0     C17714  11.320  10.155  10.384  1.1636 -0.4858 -0.0412
  129MOL0     N17715  10.612  10.330  10.160 -0.2218 -0.3171  0.2857
  129MOL0     N17716  10.564  10.301  10.039 -0.3951  0.4768 -0.0668
  129MOL0     C17717   9.414  10.443   9.551  0.5050  0.1069 -0.4767
  129MOL0     C17718   9.286  10.400   9.593  0.1102  0.5016  0.1065
  129MOL0     C17719   8.934  10.213   9.809  0.4837  0.2560  0.4046
  129MOL0     C17720   8.921  10.280   9.937  0.0257  0.2937  0.5600
  129MOL0     C17721   8.800  10.271  10.007 -0.2554  0.3773 -0.3610
  129MOL0     C17722   8.693  10.196   9.966  0.4169  0.7363  0.0601
  129MOL0     O17723   8.575  10.198  10.033 -0.6946  0.1819 -0.0375
  129MOL0     C17724   8.478  10.094  10.015  0.1013 -0.0040  0.4931
  129MOL0     C17725   8.364  10.139   9.920 -0.0323 -0.6308  0.2502
  129MOL0     C17726   8.272  10.227   9.999 -0.2769 -0.1350 -0.3212
  129MOL0     C17727   8.187  10.318   9.903 -0.9656  0.8102  0.5688
  129MOL0     C17728   8.106  10.244   9.797 -0.3307 -0.3151 -0.3111
  129MOL0     C17729   8.039  10.180   9.728 -0.4508 -0.2860  0.3870
  129MOL0     C17730   8.707  10.121   9.849  0.0612  0.1680  0.1749
  129MOL0     C17731   8.827  10.125   9.771  0.9491  0.7924  0.3373
  129MOL0     C17732   8.825  10.048   9.635  0.2376  0.6019  0.7652
  129MOL0     H17733   9.343  10.421   9.938 -1.1528 -2.3306  0.1742
  129MOL0     H17734   9.554  10.506   9.854  2.7289  0.9691 -3.3846
  129MOL0     H17735   9.805  10.424   9.528 -1.0802 -1.3172 -2.0308
  129MOL0     H17736   9.681  10.303   9.586 -1.6370  0.5853 -0.7229
  129MOL0     H17737   9.842  10.498   9.758 -1.0131  0.7071  0.2414
  129MOL0     H17738   9.755  10.353   9.815  3.0153 -1.2252  1.6011
  129MOL0     H17739   9.927  10.236   9.660 -0.4689  0.7647 -0.4679
  129MOL0     H17740  10.005  10.399   9.663 -2.3951  1.3315 -0.8454
  129MOL0     H17741  10.015  10.393   9.907 -1.5386 -0.5048  0.9421
  129MOL0     H17742   9.940  10.234   9.922 -1.0418  0.1463 -0.4300
  129MOL0     H17743  10.222  10.310   9.834 -0.0330  0.2917 -0.8099
  129MOL0     H17744  10.145  10.154   9.774 -1.0091  0.5542 -0.5601
  129MOL0     H17745  10.257  10.264  10.045 -1.1238  0.7901 -0.0810
  129MOL0     H17746  10.132  10.140  10.055  0.2112 -1.2986 -0.3368
  129MOL0     H17747  10.276  10.020   9.867  1.9188 -0.6464 -1.0025
  129MOL0     H17748  10.299  10.002  10.037 -0.2071  1.3130  1.6507
  129MOL0     H17749  10.503  10.029   9.898 -1.4878 -1.0890  0.0291
  129MOL0     H17750  10.448  10.188   9.834  1.2473 -1.3631 -2.0624
  129MOL0     H17751  10.502  10.013  10.187  0.2199 -0.0570 -0.8184
  129MOL0     H17752  10.584  10.135  10.437  0.0619 -0.0662  0.0311
  129MOL0     H17753  10.644  10.300  10.428  3.0244  0.5170 -0.3077
  129MOL0     H17754  10.810  10.115  10.483 -1.3433 -2.3795 -0.4302
  129MOL0     H17755  10.807  10.070  10.312  3.1757  0.7528  0.7916
  129MOL0     H17756  10.870  10.285  10.234 -1.5465  1.6368  0.5042
  129MOL0     H17757  10.863  10.364  10.393  2.4042  1.3975  0.0539
  129MOL0     H17758  11.092  10.339  10.356 -1.3351  1.1339  3.7068
  129MOL0     H17759  11.058  10.225  10.477  0.2007  0.6032  0.4603
  129MOL0     H17760  11.179   9.924  10.186  3.0567 -1.7651 -2.8963
  129MOL0     H17761  11.478   9.818  10.085  0.7921 -1.5972  0.2031
  129MOL0     H17762  11.308   9.765  10.109 -0.1352 -2.5326  1.9439
  129MOL0     H17763  11.427   9.706  10.219  0.5951 -2.1167 -1.7133
  129MOL0     H17764  11.839  10.076  10.608 -1.3571 -0.9742 -0.1337
  129MOL0     H17765  12.063  10.021  10.663 -0.5170 -1.3220 -0.0316
  129MOL0     H17766  12.356   9.688  10.596  0.3281  2.3140 -0.4070
  129MOL0     H17767  12.215   9.596  10.561  2.3963 -1.2325 -1.8946
  129MOL0     H17768  12.356   9.621  10.364 -0.3211  0.7493 -1.1141
  129MOL0     H17769  12.212   9.723  10.331 -0.2762 -2.9206 -1.2861
  129MOL0     H17770  12.468   9.845  10.456 -0.1150 -0.0376  0.2056
  129MOL0     H17771  12.323   9.914  10.423 -0.4210 -1.8816  3.2979
  129MOL0     H17772  12.484   9.965  10.246  0.1603 -0.1717  1.6821
  129MOL0     H17773  12.372   9.860  10.167  0.6166 -0.7147 -0.4600
  129MOL0     H17774  12.651   9.795  10.272  0.0471  0.8234 -1.2832
  129MOL0     H17775  12.556   9.671  10.256 -0.7377 -0.8584 -3.2439
  129MOL0     H17776  12.502   9.774  10.009  0.1184 -1.4341 -1.1635
  129MOL0     H17777  12.622   9.649  10.031  1.2739 -0.3732  0.9934
  129MOL0     H17778  12.794   9.831  10.057 -0.2465  0.1037 -0.5766
  129MOL0     H17779  12.674   9.960  10.058  1.0803  2.0070 -3.1205
  129MOL0     H17780  12.611   9.914   9.832  1.4387  2.6035 -0.9492
  129MOL0     H17781  12.729   9.776   9.826  3.8982  1.1689  1.5558
  129MOL0     H17782  12.011   9.645  10.445 -1.8892  0.2229 -0.7676
  129MOL0     H17783  11.814   9.730  10.375  1.3368 -0.5834  0.2652
  129MOL0     H17784  11.520  10.161  10.427  3.8832 -1.6492 -4.5794
  129MOL0     H17785  11.301  10.250  10.432 -0.0679 -1.3626  1.2836
  129MOL0     H17786   9.447  10.434   9.448  1.0618 -0.1224 -0.2805
  129MOL0     H17787   9.202  10.374   9.529 -1.9755 -1.0500  3.2145
  129MOL0     H17788   9.001  10.341   9.978  1.1352 -1.1866  0.7306
  129MOL0     H17789   8.785  10.324  10.100  1.9702 -0.0667  0.3078
  129MOL0     H17790   8.524   9.997   9.990 -1.0440 -0.3507 -0.3469
  129MOL0     H17791   8.428  10.058  10.106  1.9162 -3.4503  0.3266
  129MOL0     H17792   8.308  10.053   9.883  1.0314 -1.2912  0.1307
  129MOL0     H17793   8.397  10.196   9.833 -0.3320  1.6707  1.5658
  129MOL0     H17794   8.212  10.168  10.070 -0.4321  0.1791 -0.1893
  129MOL0     H17795   8.333  10.293  10.062 -1.0142  1.5438 -1.2977
  129MOL0     H17796   8.261  10.373   9.844 -1.8048  1.8957  0.4901
  129MOL0     H17797   8.130  10.391   9.961 -1.4516  0.4149  0.5956
  129MOL0     H17798   7.983  10.116   9.663 -1.2407 -0.5738  1.3245
  129MOL0     H17799   8.627  10.057   9.813 -1.6231  2.3371 -0.1489
  129MOL0     H17800   8.726  10.011   9.607  0.9567 -0.1696 -0.9297
  129MOL0     H17801   8.857  10.107   9.548  3.2430  0.1942  1.4781
  129MOL0     H17802   8.891   9.961   9.643 -0.1723  0.1540 -0.5462
  130MOL0     O17803   0.669   0.060   9.432  0.3434 -0.3227 -0.0193
  130MOL0     C17804   0.649  -0.049   9.480 -0.3054 -0.0444  0.8179
  130MOL0     O17805   0.748  -0.140   9.511 -0.1025 -0.0496  0.3445
  130MOL0     C17806   0.882  -0.123   9.477  0.6321  0.2990  0.2527
  130MOL0     C17807   0.933  -0.067   9.356 -0.0780  0.2845 -0.6174
  130MOL0     C17808   1.072  -0.043   9.345  0.1320 -0.0924  0.0183
  130MOL0     C17809   1.156  -0.080   9.444  0.3037 -0.0368  0.7563
  130MOL0     O17810   1.290  -0.062   9.417 -0.4541  0.5429  0.2964
  130MOL0     C17811   1.382  -0.101   9.520  0.0994 -0.7942  0.5459
  130MOL0     C17812   1.391  -0.249   9.515  0.0495 -0.6122 -0.2644
  130MOL0     C17813   1.504  -0.289   9.423  0.4210  0.3332 -0.3090
  130MOL0     C17814   1.525  -0.440   9.425  0.1628 -0.0292 -0.0844
  130MOL0     C17815   1.640  -0.493   9.341 -0.3712  0.2620  0.3626
  130MOL0     C17816   1.777  -0.482   9.408 -0.6790  0.4642  0.0187
  130MOL0     C17817   1.899  -0.488   9.314 -0.9731 -0.0701  0.1671
  130MOL0     C17818   1.904  -0.620   9.229  0.4278  0.4055  0.1308
  130MOL0     N17819   2.019  -0.623   9.136 -0.7988 -0.7356  0.4338
  130MOL0     C17820   2.148  -0.603   9.163 -0.1036 -0.1397  0.0870
  130MOL0     C17821   2.206  -0.604   9.043 -0.0702 -0.0253 -0.3127
  130MOL0     C17822   2.350  -0.600   9.002 -0.0704 -0.4414  0.8035
  130MOL0     C17823   2.399  -0.729   8.945 -0.1442  0.1826 -0.5376
  130MOL0     C17824   2.534  -0.730   8.882 -0.1036  0.6751  0.5997
  130MOL0     C17825   2.559  -0.871   8.822  0.5864  0.2508  0.7583
  130MOL0     O17826   2.682  -0.868   8.760  0.0048  0.4117 -0.4988
  130MOL0     C17827   2.752  -0.986   8.739  0.0379  0.2028 -1.0772
  130MOL0     C17828   2.889  -0.971   8.715  0.5690  0.4324 -0.9914
  130MOL0     C17829   2.976  -1.082   8.698 -0.0975  0.1676  0.0898
  130MOL0     C17830   3.130  -1.052   8.668  1.2332  0.3002 -0.2421
  130MOL0     C17831   2.918  -1.208   8.674  0.3866  0.5611  0.8035
  130MOL0     C17832   3.000  -1.333   8.640  0.0315 -0.7603 -0.3320
  130MOL0     O17833   2.936  -1.454   8.609  0.0466  0.8598  0.9310
  130MOL0     C17834   3.014  -1.567   8.611  0.0397  0.2539  0.0654
  130MOL0     C17835   3.072  -1.625   8.496  0.3007  0.1623 -0.1143
  130MOL0     C17836   3.154  -1.742   8.499 -0.0842 -0.1081  0.0574
  130MOL0     C17837   3.178  -1.805   8.623 -0.0915  0.6718  0.0905
  130MOL0     O17838   3.267  -1.914   8.621  0.5033  0.1012  0.4038
  130MOL0     C17839   3.303  -1.973   8.749  0.3933 -0.2215 -0.5811
  130MOL0     C17840   3.422  -2.059   8.721 -0.5445 -0.0988  0.3406
  130MOL0     C17841   3.479  -2.106   8.852  0.1444  0.0031 -0.3651
  130MOL0     C17842   3.596  -2.206   8.827  0.3025  1.0321  0.0843
  130MOL0     C17843   3.669  -2.270   8.948  0.8312 -0.4736  0.4296
  130MOL0     C17844   3.712  -2.177   9.056 -0.3474 -0.5244 -0.0379
  130MOL0     C17845   3.776  -2.249   9.170  0.0155  0.6543 -0.3209
  130MOL0     C17846   3.802  -2.157   9.283 -0.0727 -0.3175 -0.8528
  130MOL0    Cl17847   3.655  -2.115   9.386 -0.2186  0.1174 -0.6251
  130MOL0     C17848   3.126  -1.746   8.734 -0.1383 -1.4730 -0.2616
  130MOL0     C17849   3.038  -1.636   8.726 -0.1041  0.7165  0.7819
  130MOL0     O17850   3.121  -1.323   8.649 -0.5086 -1.4300  0.2903
  130MOL0     C17851   2.782  -1.220   8.701 -0.0347 -0.4412  0.2733
  130MOL0     C17852   2.697  -1.113   8.736 -0.2554  0.3202 -0.1423
  130MOL0     N17853   2.116  -0.628   8.944  0.2526  0.0980  0.1119
  130MOL0     N17854   2.006  -0.642   9.001  0.2354 -0.4065  0.1020
  130MOL0     C17855   1.106  -0.143   9.553 -1.0169  0.6627  0.0337
  130MOL0     C17856   0.971  -0.166   9.573  0.4932  0.3160 -0.0996
  130MOL0     C17857   0.515  -0.082   9.512  0.2856  0.7524  0.5167
  130MOL0     C17858   0.485  -0.219   9.528 -0.4759  0.6721  0.6303
  130MOL0     C17859   0.353  -0.263   9.549 -0.7197 -0.1845 -0.2238
  130MOL0     C17860   0.251  -0.172   9.554  0.5470 -0.1711 -0.2431
  130MOL0     O17861   0.114  -0.205   9.582 -0.4453  0.1169 -0.8553
  130MOL0     C17862   0.069  -0.342   9.606 -0.1614  0.0151 -1.3038
  130MOL0     C17863   0.012  -0.413   9.485  0.0938  0.8799  0.3991
  130MOL0     C17864  -0.111  -0.347   9.422  0.3373 -0.4293  0.1901
  130MOL0     C17865  -0.240  -0.362   9.507  0.3220 -0.2241 -0.4972
  130MOL0     C17866  -0.352  -0.299   9.443  0.4892  0.5414  0.7873
  130MOL0     C17867  -0.444  -0.245   9.382 -0.4108  0.1046  0.2720
  130MOL0     C17868   0.281  -0.042   9.546 -0.1121 -0.0161  0.0590
  130MOL0     C17869   0.409   0.010   9.522 -0.0470  0.8567 -0.1465
  130MOL0     C17870   0.418   0.154   9.513  0.0940 -1.4808 -1.0873
  130MOL0     H17871   0.865  -0.048   9.273  0.8326 -1.2561 -1.7665
  130MOL0     H17872   1.114  -0.008   9.251 -1.0529  0.6416 -0.2660
  130MOL0     H17873   1.345  -0.070   9.618 -2.4784  1.1544 -0.9216
  130MOL0     H17874   1.473  -0.044   9.499 -2.0040  1.8681 -2.2317
  130MOL0     H17875   1.417  -0.267   9.620 -0.8930  1.4388  0.3908
  130MOL0     H17876   1.299  -0.304   9.495  1.5712 -2.7681 -1.7620
  130MOL0     H17877   1.484  -0.250   9.322 -0.1316 -1.4900 -0.9330
  130MOL0     H17878   1.596  -0.242   9.459  1.3588 -1.4156 -0.3208
  130MOL0     H17879   1.555  -0.474   9.525 -0.7470 -1.4784 -0.2929
  130MOL0     H17880   1.431  -0.493   9.410  0.1117 -0.3367  1.1791
  130MOL0     H17881   1.636  -0.438   9.247 -1.9800 -0.1081  0.1848
  130MOL0     H17882   1.629  -0.600   9.325  1.0234  0.0131  0.8741
  130MOL0     H17883   1.784  -0.392   9.469 -1.7706 -0.9373  2.3957
  130MOL0     H17884   1.790  -0.562   9.482  1.2090  1.1768  0.5057
  130MOL0     H17885   1.991  -0.475   9.372 -0.2898 -2.9481 -0.1069
  130MOL0     H17886   1.887  -0.402   9.248  0.6132  0.5272  0.6129
  130MOL0     H17887   1.912  -0.703   9.300 -0.2089  0.3195  0.1042
  130MOL0     H17888   1.815  -0.648   9.172  0.7310 -2.4602  0.9182
  130MOL0     H17889   2.193  -0.587   9.260  2.5926 -3.6452 -0.3814
  130MOL0     H17890   2.410  -0.580   9.091  0.3762 -3.1138  1.1973
  130MOL0     H17891   2.361  -0.520   8.928 -1.9743  0.0742  1.0376
  130MOL0     H17892   2.394  -0.809   9.020 -0.9256  0.1394 -0.6266
  130MOL0     H17893   2.334  -0.755   8.862  2.3202  1.4271 -3.0324
  130MOL0     H17894   2.533  -0.658   8.799 -2.2106 -0.7435 -0.7126
  130MOL0     H17895   2.619  -0.701   8.944  1.2263  1.4177 -1.4721
  130MOL0     H17896   2.549  -0.953   8.894  0.6902  0.2375  0.7584
  130MOL0     H17897   2.482  -0.898   8.749  1.7758 -2.9634  0.5427
  130MOL0     H17898   2.943  -0.877   8.719  1.7619 -0.1961 -1.6740
  130MOL0     H17899   3.202  -1.086   8.743 -0.1135  0.5232  1.2118
  130MOL0     H17900   3.144  -0.944   8.678 -1.5663  0.6242  1.3666
  130MOL0     H17901   3.156  -1.078   8.565  1.9220  2.6794 -0.7499
  130MOL0     H17902   3.049  -1.577   8.402 -1.0659 -0.2490 -0.0140
  130MOL0     H17903   3.197  -1.784   8.409 -1.6101 -1.2753 -0.1444
  130MOL0     H17904   3.331  -1.898   8.823  0.8966 -1.0458  0.0852
  130MOL0     H17905   3.229  -2.036   8.798  0.0141  0.6896  0.0465
  130MOL0     H17906   3.388  -2.146   8.664  0.3549 -0.6331  0.5897
  130MOL0     H17907   3.501  -2.003   8.670 -0.7062  0.4395  0.6671
  130MOL0     H17908   3.405  -2.165   8.906  0.1467 -0.1493 -0.5264
  130MOL0     H17909   3.512  -2.032   8.925 -0.1566 -2.3212  2.2654
  130MOL0     H17910   3.677  -2.158   8.771  2.9841  0.0619  2.8633
  130MOL0     H17911   3.549  -2.287   8.769  0.4585 -0.0200  1.3832
  130MOL0     H17912   3.603  -2.348   8.989 -2.4367  2.4396  1.2488
  130MOL0     H17913   3.758  -2.314   8.902 -1.1662 -1.7991 -2.4656
  130MOL0     H17914   3.625  -2.121   9.091  1.1329  2.2604 -0.4836
  130MOL0     H17915   3.778  -2.102   9.010 -0.7464 -0.3858 -0.3857
  130MOL0     H17916   3.873  -2.288   9.136 -0.5700 -0.6928 -0.5175
  130MOL0     H17917   3.722  -2.336   9.207  0.1471  0.4905 -0.5095
  130MOL0     H17918   3.829  -2.058   9.246 -1.8229 -0.5986 -3.0994
  130MOL0     H17919   3.873  -2.206   9.351 -0.7213 -0.5288 -0.3155
  130MOL0     H17920   3.141  -1.778   8.837 -1.1676  0.9045  0.7234
  130MOL0     H17921   2.985  -1.594   8.811  0.9978  0.5374  1.5848
  130MOL0     H17922   2.725  -1.311   8.683  2.6155 -1.8777 -1.7156
  130MOL0     H17923   2.591  -1.137   8.744 -0.6385  0.2653 -3.6991
  130MOL0     H17924   1.169  -0.180   9.633 -1.1750  2.3357  0.9687
  130MOL0     H17925   0.939  -0.215   9.664  1.0365  0.3952  0.1355
  130MOL0     H17926   0.564  -0.288   9.502 -2.3118 -1.5282  0.5467
  130MOL0     H17927   0.332  -0.370   9.550 -0.2889 -0.2709  0.2795
  130MOL0     H17928   0.149  -0.400   9.652  1.8863  3.4172 -0.1928
  130MOL0     H17929  -0.016  -0.337   9.674  0.4924 -1.8363 -0.2891
  130MOL0     H17930  -0.008  -0.520   9.495  2.4505  0.2305 -1.1339
  130MOL0     H17931   0.094  -0.417   9.413  1.1783 -0.6648  1.6287
  130MOL0     H17932  -0.084  -0.242   9.407 -0.4648 -0.4195 -1.4545
  130MOL0     H17933  -0.126  -0.400   9.327 -2.5410  3.1862 -1.6356
  130MOL0     H17934  -0.215  -0.316   9.602  0.2666  1.8581 -1.4336
  130MOL0     H17935  -0.252  -0.471   9.518  1.9742 -0.4708 -0.8410
  130MOL0     H17936  -0.526  -0.181   9.356 -0.9032 -0.9410 -0.8299
  130MOL0     H17937   0.189   0.017   9.544  0.7572  1.5784  2.5773
  130MOL0     H17938   0.337   0.200   9.570  0.5083 -0.0505 -1.5926
  130MOL0     H17939   0.516   0.185   9.551 -0.7905 -0.0294  0.1430
  130MOL0     H17940   0.409   0.194   9.411  1.6009  1.2012 -0.2799
  131MOL0     O17941   8.897   4.737   7.192  0.2340 -0.6534  0.5264
  131MOL0     C17942   8.826   4.839   7.207  0.1871 -0.0136  0.8785
  131MOL0     O17943   8.874   4.965   7.249  0.0999 -0.2268 -0.1204
  131MOL0     C17944   9.007   4.967   7.266 -0.8190  0.2194  0.6059
  131MOL0     C17945   9.090   4.967   7.156 -0.2497 -0.4888  0.3710
  131MOL0     C17946   9.230   4.961   7.167  0.2694  0.4438 -0.4451
  131MOL0     C17947   9.279   4.966   7.293  0.2746  0.4153 -0.2894
  131MOL0     O17948   9.409   4.972   7.325  0.1097  0.4628 -1.0574
  131MOL0     C17949   9.502   4.957   7.221 -0.2621 -0.2040 -0.6634
  131MOL0     C17950   9.647   4.964   7.269 -1.0566  0.4320  0.7159
  131MOL0     C17951   9.678   5.095   7.331  0.6120  0.2287  0.1246
  131MOL0     C17952   9.822   5.109   7.376 -0.2203 -1.2416  0.1362
  131MOL0     C17953   9.926   5.128   7.267  0.3567  0.4164 -0.4431
  131MOL0     C17954  10.070   5.103   7.331  0.2419 -0.2558  0.0080
  131MOL0     C17955  10.182   5.109   7.224  0.2573  0.9294  0.4242
  131MOL0     C17956  10.322   5.106   7.290 -0.2171  0.8694  0.1899
  131MOL0     N17957  10.334   4.976   7.364  0.4935 -0.3590  0.3180
  131MOL0     C17958  10.369   4.860   7.308 -1.0558  0.7440  0.2306
  131MOL0     C17959  10.399   4.784   7.414  0.2003 -1.0572  0.5077
  131MOL0     C17960  10.462   4.643   7.390  0.8447  0.3733  1.2400
  131MOL0     C17961  10.611   4.664   7.374 -1.0855  0.1027  0.4107
  131MOL0     C17962  10.676   4.525   7.351  0.6889 -0.2216 -0.2463
  131MOL0     C17963  10.823   4.522   7.328 -0.1093 -0.4905  0.0089
  131MOL0     O17964  10.897   4.576   7.436 -1.2815  0.0868 -0.5289
  131MOL0     C17965  11.037   4.581   7.422  0.2363 -0.2899 -0.1438
  131MOL0     C17966  11.117   4.532   7.312 -0.7409 -0.1029  0.4687
  131MOL0     C17967  11.257   4.523   7.323 -0.6753 -0.1782 -0.8766
  131MOL0     C17968  11.331   4.437   7.229  0.4527  1.0921 -0.0042
  131MOL0     C17969  11.310   4.588   7.438 -0.9824  1.2772  0.3092
  131MOL0     C17970  11.461   4.580   7.463 -0.0385 -0.0743  0.0483
  131MOL0     O17971  11.508   4.540   7.592 -0.3281 -0.2919 -0.3471
  131MOL0     C17972  11.638   4.565   7.626  0.9064 -0.3504  0.1042
  131MOL0     C17973  11.753   4.551   7.547  0.9470  0.4940  0.4911
  131MOL0     C17974  11.881   4.576   7.611  0.1306  0.3531 -0.0850
  131MOL0     C17975  11.886   4.609   7.742 -0.0057  0.6824 -0.4889
  131MOL0     O17976  12.011   4.620   7.780 -0.9889  0.3564  0.3395
  131MOL0     C17977  12.048   4.689   7.900 -0.0792 -0.6401  0.5064
  131MOL0     C17978  12.195   4.712   7.902 -0.2917  0.2365 -0.4363
  131MOL0     C17979  12.260   4.772   7.772 -0.4143 -0.4154 -0.1584
  131MOL0     C17980  12.415   4.755   7.775 -0.0206  0.2266 -0.5314
  131MOL0     C17981  12.476   4.768   7.632 -0.0664 -0.0544 -0.2590
  131MOL0     C17982  12.633   4.766   7.645 -0.7463  0.8450  0.5180
  131MOL0     C17983  12.703   4.756   7.512 -0.9852 -0.1851 -0.1474
  131MOL0     C17984  12.849   4.709   7.533  0.0416 -0.4721 -0.0753
  131MOL0    Cl17985  12.919   4.811   7.659  0.4688  0.7173  0.2946
  131MOL0     C17986  11.775   4.625   7.821  0.3124  0.7598  0.6673
  131MOL0     C17987  11.648   4.600   7.767 -0.0924 -0.2273  0.1508
  131MOL0     O17988  11.533   4.632   7.381  0.5012 -0.2159 -0.2388
  131MOL0     C17989  11.237   4.652   7.537 -0.1210  0.2029  0.3411
  131MOL0     C17990  11.100   4.638   7.530  0.4972  0.7335 -0.6890
  131MOL0     N17991  10.384   4.849   7.529  0.2287 -1.0513  0.1675
  131MOL0     N17992  10.327   4.968   7.500  0.3843 -0.7919  0.0954
  131MOL0     C17993   9.197   4.962   7.407  0.3722  0.2808 -0.6353
  131MOL0     C17994   9.056   4.962   7.396 -0.8573  0.3304  0.3462
  131MOL0     C17995   8.683   4.825   7.155 -0.4004  0.1184  0.2058
  131MOL0     C17996   8.605   4.947   7.146 -1.0403  0.5913  0.6767
  131MOL0     C17997   8.467   4.934   7.120  0.0238  0.2415 -0.2785
  131MOL0     C17998   8.404   4.809   7.093 -0.3473 -0.0585  0.1932
  131MOL0     O17999   8.268   4.798   7.075  0.2161  0.2990 -0.0460
  131MOL0     C18000   8.207   4.762   7.198 -0.0495  0.7038  0.3565
  131MOL0     C18001   8.055   4.750   7.188 -1.1988 -0.4973  0.2562
  131MOL0     C18002   7.987   4.723   7.315 -0.5505  0.1852 -0.6030
  131MOL0     C18003   7.839   4.686   7.296 -0.3513  0.2152  0.1942
  131MOL0     C18004   7.766   4.671   7.426  0.2056  0.2974 -0.2129
  131MOL0     C18005   7.699   4.659   7.526  0.7522  0.0855  0.4379
  131MOL0     C18006   8.489   4.702   7.075  0.3861  0.2092 -0.2635
  131MOL0     C18007   8.621   4.697   7.129  0.2270 -0.2427 -0.2937
  131MOL0     C18008   8.689   4.562   7.138 -0.2199  0.2231 -0.0743
  131MOL0     H18009   9.036   4.947   7.063  3.6306 -0.4376 -2.0997
  131MOL0     H18010   9.286   4.955   7.074 -1.7466  0.6686 -1.7166
  131MOL0     H18011   9.483   5.037   7.149 -1.0393  0.8184  0.6300
  131MOL0     H18012   9.486   4.859   7.174  0.3340 -0.3843 -0.5038
  131MOL0     H18013   9.677   4.884   7.337 -0.3560  1.8778  2.1755
  131MOL0     H18014   9.708   4.954   7.179 -0.7419 -4.3518  1.1965
  131MOL0     H18015   9.652   5.175   7.260 -0.0863  1.6269  1.8760
  131MOL0     H18016   9.612   5.111   7.417  0.9348  2.3944  0.0350
  131MOL0     H18017   9.832   5.203   7.432 -0.4986 -0.5692 -0.9311
  131MOL0     H18018   9.847   5.030   7.449  1.6295 -1.8833 -1.1129
  131MOL0     H18019   9.919   5.231   7.231  0.1083 -0.0929 -1.9429
  131MOL0     H18020   9.912   5.055   7.186  0.2925 -0.0325 -0.0329
  131MOL0     H18021  10.090   5.185   7.400 -2.1495  2.1079 -1.8902
  131MOL0     H18022  10.064   5.014   7.395 -0.2283  0.2653  0.7069
  131MOL0     H18023  10.173   5.197   7.159 -0.0324  0.4651 -0.1681
  131MOL0     H18024  10.176   5.021   7.160  0.5023  0.4554  1.0414
  131MOL0     H18025  10.406   5.107   7.221  2.0899 -1.0132  2.7643
  131MOL0     H18026  10.332   5.187   7.364  1.9371  0.4483  0.4008
  131MOL0     H18027  10.378   4.849   7.201 -0.0265 -2.7767  0.5353
  131MOL0     H18028  10.404   4.599   7.308 -2.4527  3.2988  1.7935
  131MOL0     H18029  10.439   4.571   7.469  1.9031  0.4201  1.6084
  131MOL0     H18030  10.636   4.726   7.287  1.2908  1.9786  2.2898
  131MOL0     H18031  10.656   4.704   7.465  0.7856  2.8705 -1.5909
  131MOL0     H18032  10.664   4.468   7.444  0.1172 -2.6831 -1.7667
  131MOL0     H18033  10.630   4.467   7.272 -1.2164  1.5660 -0.5467
  131MOL0     H18034  10.838   4.414   7.330 -2.4309 -0.9966 -2.7250
  131MOL0     H18035  10.851   4.550   7.226  0.0016  1.6236  0.5690
  131MOL0     H18036  11.063   4.483   7.231 -0.3035 -2.3466  1.4559
  131MOL0     H18037  11.411   4.488   7.176 -0.9614  3.4147 -0.0486
  131MOL0     H18038  11.261   4.401   7.153  0.4073  1.1698  0.0004
  131MOL0     H18039  11.360   4.350   7.288 -0.0451  1.8781  1.4611
  131MOL0     H18040  11.754   4.516   7.444  0.5363  0.2234  0.5750
  131MOL0     H18041  11.971   4.551   7.556 -0.1345 -0.0075 -0.3564
  131MOL0     H18042  12.002   4.788   7.890  1.1544 -0.0678  0.3391
  131MOL0     H18043  12.017   4.638   7.991 -0.6760 -0.5535  0.3563
  131MOL0     H18044  12.208   4.788   7.980  1.5718  0.5377 -0.9807
  131MOL0     H18045  12.243   4.619   7.935  0.5682  1.3334  1.6512
  131MOL0     H18046  12.240   4.879   7.756  1.6991 -0.0301 -0.4028
  131MOL0     H18047  12.219   4.721   7.685 -0.6014  0.7874 -0.8015
  131MOL0     H18048  12.443   4.656   7.810  1.9724  0.6065 -0.9087
  131MOL0     H18049  12.460   4.820   7.850  0.4350 -0.0902 -0.5297
  131MOL0     H18050  12.451   4.689   7.561  0.9360 -0.0445 -0.6462
  131MOL0     H18051  12.441   4.863   7.589  1.2731  1.8341  2.5575
  131MOL0     H18052  12.659   4.679   7.705 -0.5303  0.1233 -0.5824
  131MOL0     H18053  12.662   4.854   7.702 -1.8580  0.6623  1.4045
  131MOL0     H18054  12.703   4.853   7.462  1.1639 -2.0637 -4.3435
  131MOL0     H18055  12.655   4.679   7.450 -1.7971 -1.3235  1.7842
  131MOL0     H18056  12.907   4.721   7.442  0.9262 -1.3036  0.3635
  131MOL0     H18057  12.860   4.602   7.552  0.3162 -0.5961 -0.9100
  131MOL0     H18058  11.786   4.636   7.928  1.7339 -1.2388  0.7789
  131MOL0     H18059  11.562   4.600   7.833 -2.0567  0.9222 -2.2610
  131MOL0     H18060  11.275   4.699   7.627  0.4422  2.0362 -0.7870
  131MOL0     H18061  11.041   4.685   7.608  0.7032 -1.1883  0.6765
  131MOL0     H18062   9.250   4.969   7.502 -1.9379  1.4761  0.6612
  131MOL0     H18063   8.993   4.939   7.481  0.9713 -1.4820  1.3139
  131MOL0     H18064   8.643   5.046   7.168 -0.6263  0.9407 -1.3890
  131MOL0     H18065   8.401   5.019   7.110  0.9638  0.8917 -1.1698
  131MOL0     H18066   8.250   4.667   7.230  0.9418  0.8768 -0.4224
  131MOL0     H18067   8.245   4.818   7.285 -0.8682  1.0203  0.5214
  131MOL0     H18068   8.034   4.669   7.117  0.0751 -0.9851  0.4212
  131MOL0     H18069   8.005   4.838   7.145  0.2515  0.0286 -0.4339
  131MOL0     H18070   8.041   4.640   7.361 -1.5271 -1.4110 -2.1654
  131MOL0     H18071   7.984   4.816   7.372 -1.6719 -0.9711  1.3071
  131MOL0     H18072   7.822   4.589   7.248  0.7399 -0.3301  0.8661
  131MOL0     H18073   7.786   4.759   7.233 -1.1380  2.3590  3.1288
  131MOL0     H18074   7.651   4.636   7.619 -1.8511 -2.7474 -1.4078
  131MOL0     H18075   8.455   4.610   7.029  0.9026  0.5629 -1.3854
  131MOL0     H18076   8.625   4.475   7.157  2.0907 -1.9910 -1.7966
  131MOL0     H18077   8.739   4.532   7.045  0.6849  2.2909 -0.3139
  131MOL0     H18078   8.759   4.555   7.222 -1.2626 -0.1999  0.7834
  132MOL0     O18079   6.039   3.116  10.684 -0.4667  0.8552  0.0626
  132MOL0     C18080   6.093   3.116  10.576 -0.0628 -0.2172 -0.1328
  132MOL0     O18081   6.044   3.052  10.466 -0.1037  0.1251  0.0925
  132MOL0     C18082   5.909   3.038  10.461  0.0210  0.8873  0.6008
  132MOL0     C18083   5.832   2.962  10.547  0.2257  0.2613  0.7750
  132MOL0     C18084   5.694   2.958  10.533 -0.2677  1.2123  0.3551
  132MOL0     C18085   5.622   3.017  10.431 -0.0098 -0.5906  0.4435
  132MOL0     O18086   5.486   3.005  10.418  0.6580  0.1385  0.1451
  132MOL0     C18087   5.411   3.004  10.543 -0.3539 -0.2552 -0.6901
  132MOL0     C18088   5.259   3.001  10.517  0.2875 -1.4351 -0.9985
  132MOL0     C18089   5.221   2.854  10.465  0.8494 -0.2819  0.1795
  132MOL0     C18090   5.071   2.866  10.414 -0.9228 -0.3070  0.2291
  132MOL0     C18091   5.035   2.742  10.327 -0.3391 -0.4609  0.1213
  132MOL0     C18092   4.904   2.771  10.250  0.0419  0.0105 -0.0378
  132MOL0     C18093   4.842   2.661  10.159 -0.2576  0.1289 -0.0829
  132MOL0     C18094   4.828   2.521  10.221  0.3343 -0.0333  0.3386
  132MOL0     N18095   4.728   2.513  10.329 -0.4095  0.3043  0.4335
  132MOL0     C18096   4.598   2.483  10.302 -0.5162  1.2684  0.6567
  132MOL0     C18097   4.543   2.482  10.424 -0.6453 -0.0324 -0.0376
  132MOL0     C18098   4.405   2.441  10.450  0.2860 -0.1205 -0.5804
  132MOL0     C18099   4.312   2.564  10.450  0.5460  0.5282  0.1280
  132MOL0     C18100   4.322   2.632  10.585  0.2744  0.4552  0.6749
  132MOL0     C18101   4.252   2.764  10.574 -0.1377 -1.2041 -0.1991
  132MOL0     O18102   4.294   2.860  10.675  0.1514 -0.5728  0.6895
  132MOL0     C18103   4.419   2.920  10.692  0.0874 -1.2296 -0.2034
  132MOL0     C18104   4.423   3.022  10.794 -0.1287  0.2816 -0.2072
  132MOL0     C18105   4.542   3.102  10.816 -0.0774  0.9746 -0.3101
  132MOL0     C18106   4.531   3.193  10.939  0.4810 -0.0120  0.2307
  132MOL0     C18107   4.652   3.080  10.733 -0.6447 -0.8769 -0.1191
  132MOL0     C18108   4.770   3.168  10.735 -0.3504  0.3196 -0.2571
  132MOL0     O18109   4.861   3.149  10.635 -0.1384  0.7431 -0.0224
  132MOL0     C18110   4.955   3.251  10.610 -0.3764  0.0146 -0.5500
  132MOL0     C18111   5.038   3.312  10.706  0.3501  0.8898 -0.3286
  132MOL0     C18112   5.127   3.412  10.671  0.7282  0.8347 -1.1103
  132MOL0     C18113   5.137   3.451  10.536 -0.3457 -0.2611 -0.7395
  132MOL0     O18114   5.219   3.554  10.486  0.2355  0.5101  0.5385
  132MOL0     C18115   5.362   3.551  10.536  0.6228  0.0279 -0.2375
  132MOL0     C18116   5.425   3.409  10.507 -0.1618 -0.3298 -0.6359
  132MOL0     C18117   5.565   3.389  10.549  0.2741 -0.7433  0.7066
  132MOL0     C18118   5.657   3.490  10.483  0.1506 -0.4633  0.3204
  132MOL0     C18119   5.795   3.461  10.522  0.2533  0.0093 -0.9154
  132MOL0     C18120   5.883   3.550  10.439 -0.4031 -0.3495 -0.0338
  132MOL0     C18121   6.030   3.511  10.458 -0.1373 -0.1344  0.0429
  132MOL0     C18122   6.117   3.618  10.387  0.1647 -0.3247 -0.2132
  132MOL0    Cl18123   6.145   3.582  10.211  0.1665  0.3376 -0.1022
  132MOL0     C18124   5.047   3.400  10.449 -1.0177  0.0788  0.1041
  132MOL0     C18125   4.963   3.291  10.474 -0.0167 -0.7880 -0.0672
  132MOL0     O18126   4.773   3.262  10.813  0.3610  0.3755  0.6737
  132MOL0     C18127   4.638   2.980  10.632  0.0075  0.4323  0.2849
  132MOL0     C18128   4.528   2.902  10.617 -0.5125 -0.8444  0.6104
  132MOL0     N18129   4.638   2.513  10.522 -0.0396  0.2763 -0.0609
  132MOL0     N18130   4.750   2.529  10.462 -0.1097  0.0567  0.7590
  132MOL0     C18131   5.698   3.077  10.329 -0.5766 -0.8538  0.0920
  132MOL0     C18132   5.843   3.086  10.347  0.3407  0.0928  0.2194
  132MOL0     C18133   6.231   3.171  10.554  0.0264  0.2122 -0.7144
  132MOL0     C18134   6.288   3.170  10.427 -0.1439  0.2943  0.3068
  132MOL0     C18135   6.415   3.224  10.392  0.2403  0.8276 -0.8484
  132MOL0     C18136   6.493   3.273  10.494  0.3535  0.0544  0.5415
  132MOL0     O18137   6.620   3.296  10.463 -0.5371  0.2015  0.0302
  132MOL0     C18138   6.708   3.335  10.572 -0.7854 -0.5687 -0.2859
  132MOL0     C18139   6.856   3.319  10.530 -0.4113 -0.0408 -0.5739
  132MOL0     C18140   6.886   3.419  10.421  0.6115  0.6505 -0.1210
  132MOL0     C18141   7.030   3.403  10.378 -0.6313  0.4973  0.3042
  132MOL0     C18142   7.061   3.500  10.277 -0.5897  0.0024 -1.0020
  132MOL0     C18143   7.098   3.570  10.180  0.7329  0.4877 -0.0778
  132MOL0     C18144   6.439   3.286  10.626  0.7176  0.0508  0.0122
  132MOL0     C18145   6.311   3.237  10.656  0.3105  0.7865 -0.5714
  132MOL0     C18146   6.258   3.271  10.791  0.5379 -0.0133  0.3094
  132MOL0     H18147   5.885   2.906  10.623  1.8438 -2.3136 -2.0490
  132MOL0     H18148   5.642   2.905  10.612 -2.8014  3.6193  0.4605
  132MOL0     H18149   5.441   3.092  10.601  2.2923  0.0447 -2.3606
  132MOL0     H18150   5.438   2.911  10.593 -0.3102  0.6152  0.9881
  132MOL0     H18151   5.193   3.037  10.597  1.1990  1.6832 -1.4856
  132MOL0     H18152   5.243   3.072  10.435 -2.0984  1.0507  1.3971
  132MOL0     H18153   5.288   2.827  10.383  0.4968 -0.2976 -0.1065
  132MOL0     H18154   5.236   2.773  10.538  2.8547 -0.9978 -0.9444
  132MOL0     H18155   5.010   2.871  10.504 -0.3534  0.2043  0.5991
  132MOL0     H18156   5.050   2.959  10.359  0.0780 -0.1144  0.1522
  132MOL0     H18157   5.024   2.657  10.395  0.0241 -0.9549 -0.4356
  132MOL0     H18158   5.113   2.718  10.254  0.9748  3.8334 -0.2028
  132MOL0     H18159   4.830   2.787  10.329  1.6259  0.7213  1.3616
  132MOL0     H18160   4.908   2.868  10.199 -0.6991  2.2755  3.8273
  132MOL0     H18161   4.902   2.648  10.068  0.9594  4.8294 -0.2303
  132MOL0     H18162   4.741   2.692  10.130 -0.3509  0.0932  0.2032
  132MOL0     H18163   4.796   2.458  10.138  1.5272 -0.8575  0.4772
  132MOL0     H18164   4.919   2.477  10.263 -0.4996 -1.0855  1.0793
  132MOL0     H18165   4.550   2.469  10.206  0.0284  0.4625  0.4948
  132MOL0     H18166   4.409   2.395  10.550  2.5037  0.8666 -0.1518
  132MOL0     H18167   4.377   2.364  10.377 -0.1588 -0.6987  0.1755
  132MOL0     H18168   4.347   2.629  10.369  1.1905  0.3113  0.2294
  132MOL0     H18169   4.206   2.539  10.439  0.2367  0.9406  1.8781
  132MOL0     H18170   4.280   2.569  10.663  0.9446 -2.4663 -1.1684
  132MOL0     H18171   4.426   2.653  10.610  0.9654  0.9234 -2.1851
  132MOL0     H18172   4.272   2.806  10.475  3.3046 -0.7643  0.5610
  132MOL0     H18173   4.144   2.755  10.587 -0.3371  1.3352  0.4776
  132MOL0     H18174   4.333   3.050  10.847 -1.8530 -0.1673 -2.7490
  132MOL0     H18175   4.554   3.298  10.921 -1.6170  0.8841  2.3317
  132MOL0     H18176   4.602   3.158  11.014  1.9676  1.2386 -0.5265
  132MOL0     H18177   4.430   3.190  10.979  1.3328 -1.9706  2.4729
  132MOL0     H18178   5.042   3.280  10.809 -1.1751  0.6153 -0.3362
  132MOL0     H18179   5.184   3.442  10.758  2.6737  1.4485 -2.5238
  132MOL0     H18180   5.400   3.632  10.472 -3.7621  0.7358 -2.3236
  132MOL0     H18181   5.382   3.580  10.639  0.7791 -2.7314  0.5926
  132MOL0     H18182   5.372   3.334  10.566  2.8737 -2.0537  0.1071
  132MOL0     H18183   5.422   3.392  10.399  0.6236 -1.7596 -0.4602
  132MOL0     H18184   5.597   3.290  10.517  1.0842 -1.1642  2.6426
  132MOL0     H18185   5.582   3.398  10.657  3.2401  0.5735  0.2491
  132MOL0     H18186   5.630   3.596  10.490 -3.0333 -1.1520  0.0705
  132MOL0     H18187   5.651   3.477  10.375  2.0531 -0.6396  0.1966
  132MOL0     H18188   5.811   3.486  10.627  0.5544 -0.2450 -0.9001
  132MOL0     H18189   5.826   3.357  10.508  1.6289  0.0723  1.1428
  132MOL0     H18190   5.857   3.651  10.471 -2.4635  0.0612 -2.6823
  132MOL0     H18191   5.859   3.544  10.332 -1.1634 -2.9579  0.2104
  132MOL0     H18192   6.042   3.415  10.406  0.6962 -0.2580  0.4451
  132MOL0     H18193   6.058   3.506  10.564 -0.8098 -2.4792  0.1766
  132MOL0     H18194   6.207   3.622  10.448  0.4166  3.1831 -0.6372
  132MOL0     H18195   6.088   3.722  10.402 -0.5478 -0.6145  0.5062
  132MOL0     H18196   5.044   3.422  10.343 -0.8081 -1.9132 -0.3484
  132MOL0     H18197   4.901   3.243  10.400  0.5169 -1.4209 -0.1120
  132MOL0     H18198   4.718   2.969  10.559 -1.1248  3.9950 -1.7218
  132MOL0     H18199   4.538   2.818  10.549 -0.2106  0.2474 -0.7337
  132MOL0     H18200   5.649   3.128  10.247  1.1272  1.4121  0.3776
  132MOL0     H18201   5.903   3.140  10.274  1.2505  0.0809  0.9405
  132MOL0     H18202   6.230   3.135  10.343  0.0785 -0.4575  0.4601
  132MOL0     H18203   6.457   3.198  10.295 -0.6392 -0.7480 -0.8345
  132MOL0     H18204   6.691   3.439  10.604  0.8346 -0.2311 -0.4309
  132MOL0     H18205   6.693   3.270  10.659  1.8073 -1.0062 -0.0819
  132MOL0     H18206   6.870   3.218  10.490  3.0581  0.2695 -0.4315
  132MOL0     H18207   6.921   3.334  10.616 -0.2148 -1.2110 -0.4999
  132MOL0     H18208   6.827   3.402  10.330  1.0617  3.4944 -1.0524
  132MOL0     H18209   6.872   3.522  10.456 -0.3992  0.7809 -0.8569
  132MOL0     H18210   7.051   3.302  10.342 -2.1003  0.4315 -0.4323
  132MOL0     H18211   7.097   3.422  10.463 -1.9053  0.7664  1.2676
  132MOL0     H18212   7.115   3.632  10.094 -1.2185  0.5888 -0.4334
  132MOL0     H18213   6.497   3.332  10.706  2.7095 -1.2811 -0.5765
  132MOL0     H18214   6.346   3.310  10.843  1.5598 -1.5390 -0.2228
  132MOL0     H18215   6.171   3.337  10.780  0.3325  0.1402  2.3760
  132MOL0     H18216   6.220   3.184  10.845  0.8668  0.2560  0.9905
  133MOL0     O18217   1.430   5.791   1.366  0.0735 -0.5545  0.2849
  133MOL0     C18218   1.413   5.910   1.377 -0.4389 -0.5303 -0.7234
  133MOL0     O18219   1.507   6.001   1.431  0.0290  0.9755  0.0878
  133MOL0     C18220   1.610   5.964   1.516  0.1951 -0.3956 -0.1032
  133MOL0     C18221   1.702   5.869   1.482 -0.3363 -0.0963  0.5072
  133MOL0     C18222   1.825   5.860   1.545  0.2749 -0.1608  0.3084
  133MOL0     C18223   1.855   5.939   1.653 -0.1797  0.5951 -0.0413
  133MOL0     O18224   1.974   5.931   1.716  0.3822  0.3565 -0.6054
  133MOL0     C18225   2.013   6.039   1.800 -0.1746 -0.3553 -0.2892
  133MOL0     C18226   2.152   6.018   1.862  0.5120  0.5989 -0.3099
  133MOL0     C18227   2.255   6.002   1.747 -0.3003 -0.5000  0.2469
  133MOL0     C18228   2.279   6.140   1.678 -0.4408  0.1962 -0.7236
  133MOL0     C18229   2.361   6.130   1.554  0.8081  0.0680 -0.1585
  133MOL0     C18230   2.501   6.078   1.579  0.4671 -0.7982  0.1825
  133MOL0     C18231   2.593   6.077   1.459 -0.1264  0.8373 -0.6787
  133MOL0     C18232   2.613   6.218   1.398 -0.0878 -0.3565  0.2625
  133MOL0     N18233   2.684   6.205   1.273 -0.3814 -0.2820 -0.5933
  133MOL0     C18234   2.647   6.116   1.178  0.3945 -0.0713  0.1593
  133MOL0     C18235   2.745   6.122   1.092 -0.3966  0.0880  0.7656
  133MOL0     C18236   2.714   6.057   0.955  0.3869  0.3218 -0.0487
  133MOL0     C18237   2.775   5.914   0.947 -0.3904  0.1453 -0.7503
  133MOL0     C18238   2.911   5.895   1.013 -0.9785  0.4200 -0.6345
  133MOL0     C18239   3.028   5.959   0.937  0.6701  0.3057 -0.3267
  133MOL0     O18240   3.147   5.880   0.956 -0.0782  0.8026  0.2372
  133MOL0     C18241   3.267   5.907   0.894 -0.3731 -0.1754  0.1523
  133MOL0     C18242   3.378   5.833   0.940 -0.9654  0.3439 -0.5745
  133MOL0     C18243   3.511   5.880   0.906 -0.4806  0.1527 -0.0654
  133MOL0     C18244   3.627   5.809   0.977  0.9083  0.2550 -0.1701
  133MOL0     C18245   3.529   5.984   0.808 -0.4437 -0.5596  0.5121
  133MOL0     C18246   3.658   6.019   0.754 -0.5592  0.0252 -0.5896
  133MOL0     O18247   3.658   6.062   0.625  0.0383  0.1332  0.2585
  133MOL0     C18248   3.779   6.083   0.557  0.0873 -0.2798  0.1685
  133MOL0     C18249   3.889   6.146   0.620  0.1527  0.6014 -0.3440
  133MOL0     C18250   4.006   6.164   0.541  0.3289  0.1880  0.7183
  133MOL0     C18251   4.018   6.120   0.407  0.2107 -0.0064  0.8808
  133MOL0     O18252   4.137   6.140   0.342 -0.4254 -0.3577  0.3572
  133MOL0     C18253   4.181   6.030   0.268 -0.0512 -0.7497  0.1656
  133MOL0     C18254   4.334   6.058   0.245  0.1236  1.0384 -0.3253
  133MOL0     C18255   4.404   5.933   0.207  0.0258 -0.0083 -0.2190
  133MOL0     C18256   4.557   5.958   0.223  1.4091  0.2823 -0.7495
  133MOL0     C18257   4.625   5.823   0.197  0.0670  0.2448  0.4600
  133MOL0     C18258   4.765   5.834   0.250 -0.4144 -0.4406  0.4557
  133MOL0     C18259   4.850   5.707   0.195  0.1677 -0.0854 -0.1598
  133MOL0     C18260   4.974   5.700   0.288  0.3174 -0.3744  0.3106
  133MOL0    Cl18261   5.054   5.855   0.324  0.1167 -0.3352 -0.1537
  133MOL0     C18262   3.900   6.066   0.345 -0.1327  0.0512  0.2674
  133MOL0     C18263   3.781   6.058   0.416  0.4161  0.2491 -0.2646
  133MOL0     O18264   3.759   6.001   0.821 -0.1915  0.3092 -0.0156
  133MOL0     C18265   3.415   6.055   0.761 -0.2274  0.7413  0.7685
  133MOL0     C18266   3.285   6.019   0.810  0.2673  0.2195 -0.9759
  133MOL0     N18267   2.845   6.206   1.134  0.5816  0.3041  0.3445
  133MOL0     N18268   2.809   6.252   1.245  0.1836 -0.0438  0.6009
  133MOL0     C18269   1.750   6.029   1.695 -0.4451 -0.6733 -0.9421
  133MOL0     C18270   1.633   6.047   1.623  0.1934  0.8384  0.2475
  133MOL0     C18271   1.289   5.966   1.315  0.1326  0.5252  0.2469
  133MOL0     C18272   1.264   6.104   1.318 -0.0006  0.8461  0.2773
  133MOL0     C18273   1.148   6.163   1.269 -0.1300 -0.1043  1.1536
  133MOL0     C18274   1.046   6.086   1.206 -1.0932  1.2565 -0.2981
  133MOL0     O18275   0.924   6.140   1.172  0.6102 -0.6215  0.2043
  133MOL0     C18276   0.870   6.093   1.053  0.3355  0.3172 -0.6903
  133MOL0     C18277   0.734   6.164   1.043  1.8182 -0.2632 -0.1859
  133MOL0     C18278   0.626   6.119   1.144 -0.0169  0.0835  0.4788
  133MOL0     C18279   0.593   5.970   1.147  0.2484 -0.0818 -0.8357
  133MOL0     C18280   0.563   5.929   1.012 -0.1927 -0.3521  0.3570
  133MOL0     C18281   0.557   5.923   0.884 -0.1677  0.3569 -0.0241
  133MOL0     C18282   1.079   5.950   1.183  0.4976 -0.6583 -0.3823
  133MOL0     C18283   1.191   5.886   1.239 -0.3299 -0.3384  0.4601
  133MOL0     C18284   1.206   5.742   1.209  0.0422  0.8182 -0.2723
  133MOL0     H18285   1.703   5.808   1.393 -0.3735  0.2109  0.2954
  133MOL0     H18286   1.898   5.782   1.525 -0.1921 -0.3272 -0.8073
  133MOL0     H18287   1.946   6.052   1.886  1.4150  1.6521  0.7017
  133MOL0     H18288   2.019   6.131   1.741 -1.5445  1.1299  1.7442
  133MOL0     H18289   2.184   6.106   1.919  1.0187  0.1398  0.1394
  133MOL0     H18290   2.152   5.926   1.922 -0.6910  1.7502  1.5655
  133MOL0     H18291   2.347   5.952   1.781  0.4555  1.4389  1.1684
  133MOL0     H18292   2.217   5.933   1.670 -1.2679 -2.2047  2.1686
  133MOL0     H18293   2.184   6.182   1.645 -0.7959  1.7704  2.0810
  133MOL0     H18294   2.330   6.214   1.740 -1.7047 -0.0538  0.6651
  133MOL0     H18295   2.362   6.231   1.512 -2.4999 -0.4157 -1.7259
  133MOL0     H18296   2.317   6.057   1.486  0.8592 -0.7321  0.6527
  133MOL0     H18297   2.540   6.143   1.659 -0.8109 -0.1148  0.2802
  133MOL0     H18298   2.495   5.975   1.615 -0.4339 -1.5554 -1.9793
  133MOL0     H18299   2.550   6.000   1.393  0.5656  0.6218 -0.8918
  133MOL0     H18300   2.690   6.043   1.498  0.8248  4.5056  0.5046
  133MOL0     H18301   2.522   6.278   1.387  0.8980  2.4393  4.7676
  133MOL0     H18302   2.680   6.278   1.460 -1.1108  0.2164  0.8350
  133MOL0     H18303   2.552   6.063   1.170  0.7729 -0.6354 -0.7921
  133MOL0     H18304   2.750   6.130   0.881 -1.4580  1.7789  0.4088
  133MOL0     H18305   2.611   6.073   0.922  0.3200  4.0500  1.4034
  133MOL0     H18306   2.703   5.854   1.003 -1.2850  2.1466  0.3332
  133MOL0     H18307   2.777   5.883   0.842  1.5154  0.9359 -0.9938
  133MOL0     H18308   2.907   5.917   1.120  1.4447 -0.6898 -0.2471
  133MOL0     H18309   2.930   5.787   1.004  0.0718  0.5025  0.3563
  133MOL0     H18310   2.995   5.964   0.833  0.4628 -1.0205 -0.3396
  133MOL0     H18311   3.045   6.062   0.971 -2.4028  1.6318 -2.3575
  133MOL0     H18312   3.381   5.740   0.996 -1.8642  1.4114  1.3502
  133MOL0     H18313   3.701   5.878   1.018  2.4029  2.6180 -5.8002
  133MOL0     H18314   3.682   5.742   0.910  1.8370 -1.3572  2.0933
  133MOL0     H18315   3.580   5.746   1.053 -1.6516  2.2868  0.1157
  133MOL0     H18316   3.877   6.186   0.720 -3.1675 -0.8950 -0.0095
  133MOL0     H18317   4.089   6.224   0.577  0.3044  1.4753 -1.1926
  133MOL0     H18318   4.172   5.945   0.335 -0.0872 -0.1852  0.8816
  133MOL0     H18319   4.125   6.017   0.174  0.2453 -2.3109  0.1878
  133MOL0     H18320   4.338   6.129   0.163  0.0890 -1.6884 -2.8373
  133MOL0     H18321   4.368   6.098   0.341  1.0655  0.1292 -0.2630
  133MOL0     H18322   4.394   5.904   0.102  2.1946 -1.0575 -0.1853
  133MOL0     H18323   4.384   5.851   0.276  1.4470 -0.7439 -0.6496
  133MOL0     H18324   4.570   5.974   0.331 -0.2355 -0.9007 -0.3316
  133MOL0     H18325   4.595   6.049   0.177 -0.8083  1.2987 -0.6868
  133MOL0     H18326   4.571   5.746   0.253  0.3083 -0.1947  0.0907
  133MOL0     H18327   4.613   5.800   0.090 -2.9430  0.6117  0.6258
  133MOL0     H18328   4.758   5.827   0.359 -0.8101 -1.8564  0.3607
  133MOL0     H18329   4.818   5.924   0.217  0.4264 -1.0402  0.1204
  133MOL0     H18330   4.873   5.724   0.089 -2.3967  0.3962 -0.7299
  133MOL0     H18331   4.801   5.610   0.203  0.0009  0.1187  2.0235
  133MOL0     H18332   5.047   5.628   0.250 -0.6337 -1.7371  0.9618
  133MOL0     H18333   4.943   5.668   0.388 -0.2055  0.9490  0.5967
  133MOL0     H18334   3.888   6.049   0.239  0.3167  0.5911  0.1324
  133MOL0     H18335   3.695   6.019   0.363 -0.4198  3.5267 -1.5625
  133MOL0     H18336   3.441   6.133   0.691  2.2108 -0.2189  0.4940
  133MOL0     H18337   3.195   6.078   0.796 -0.8767  0.1056  3.8893
  133MOL0     H18338   1.763   6.092   1.783 -0.5929 -1.1895 -0.5461
  133MOL0     H18339   1.570   6.133   1.641  1.1485  1.4800  0.6183
  133MOL0     H18340   1.339   6.161   1.373 -0.7181  0.4908  1.6842
  133MOL0     H18341   1.131   6.269   1.289  0.2477  0.9970 -3.3251
  133MOL0     H18342   0.932   6.131   0.972  0.6401 -0.0911 -0.6534
  133MOL0     H18343   0.857   5.984   1.055  2.1607  0.0476 -1.7066
  133MOL0     H18344   0.687   6.137   0.948 -0.7318  0.2149  0.8696
  133MOL0     H18345   0.738   6.273   1.039 -1.1739 -0.1054 -1.1292
  133MOL0     H18346   0.662   6.136   1.246  2.9494 -3.0371  0.1056
  133MOL0     H18347   0.535   6.175   1.120 -1.6631 -1.4052  2.8618
  133MOL0     H18348   0.501   5.965   1.206  0.7840 -2.4491 -0.1029
  133MOL0     H18349   0.669   5.909   1.195  0.2524 -0.7389 -1.6587
  133MOL0     H18350   0.561   5.922   0.777 -2.1456 -0.2898 -0.1300
  133MOL0     H18351   1.001   5.886   1.141 -1.0007 -2.0819  3.9106
  133MOL0     H18352   1.293   5.725   1.146  0.3891 -1.7199  0.7549
  133MOL0     H18353   1.218   5.681   1.299  0.4400 -0.7024 -1.3222
  133MOL0     H18354   1.123   5.700   1.151 -0.1633 -0.1159  0.6644
  134MOL0     O18355   5.942   2.203   2.759  0.0687  0.4973 -0.2281
  134MOL0     C18356   5.940   2.107   2.682 -0.2223 -0.1872 -0.0335
  134MOL0     O18357   6.040   2.027   2.649 -0.2781  0.7911 -0.6032
  134MOL0     C18358   6.153   2.049   2.717 -0.0659  0.0332  0.4688
  134MOL0     C18359   6.267   2.085   2.632 -0.3549 -0.2007 -0.6748
  134MOL0     C18360   6.393   2.099   2.692 -0.0622  0.2441 -0.1415
  134MOL0     C18361   6.408   2.077   2.827  0.0553 -0.4225 -0.8051
  134MOL0     O18362   6.533   2.092   2.875 -0.0377  0.0663  0.2334
  134MOL0     C18363   6.556   2.083   3.013 -0.4363  0.3808  0.4045
  134MOL0     C18364   6.707   2.104   3.030  0.2242 -0.3156 -0.2411
  134MOL0     C18365   6.751   2.043   3.162 -0.3587  0.5369  0.3582
  134MOL0     C18366   6.902   2.037   3.179  0.0998 -0.4171 -0.3236
  134MOL0     C18367   6.950   1.961   3.306  0.6156  0.0241 -0.1742
  134MOL0     C18368   7.097   1.946   3.307 -0.4343 -0.0703 -0.0008
  134MOL0     C18369   7.164   1.900   3.437  0.1778 -0.2666 -0.3507
  134MOL0     C18370   7.319   1.877   3.425  0.4753  0.0149 -0.1311
  134MOL0     N18371   7.398   1.927   3.534 -1.0066  0.1295 -0.6220
  134MOL0     C18372   7.463   1.853   3.639 -0.5204 -0.7701  0.6803
  134MOL0     C18373   7.507   1.949   3.723  0.3494 -0.3799 -0.6067
  134MOL0     C18374   7.590   1.912   3.843 -0.4103 -0.4601 -0.0193
  134MOL0     C18375   7.698   2.018   3.870 -0.0807  0.0747 -0.0750
  134MOL0     C18376   7.782   1.984   3.998 -0.7327 -0.1049 -0.1246
  134MOL0     C18377   7.880   2.090   4.038  0.0137 -0.4226 -0.2816
  134MOL0     O18378   7.957   2.028   4.141 -0.2410  0.1814  0.0067
  134MOL0     C18379   8.089   2.055   4.151 -0.4176 -0.5362 -0.1902
  134MOL0     C18380   8.164   1.967   4.226 -0.8052 -0.1324  0.3441
  134MOL0     C18381   8.303   1.985   4.256  0.2996  0.4098 -0.3611
  134MOL0     C18382   8.378   1.888   4.349 -0.5304  0.7344 -0.0623
  134MOL0     C18383   8.369   2.110   4.206  0.7489  0.0383  0.6704
  134MOL0     C18384   8.515   2.148   4.231  0.8817 -0.4867  0.8304
  134MOL0     O18385   8.543   2.280   4.251  0.1287 -0.3951 -0.0783
  134MOL0     C18386   8.669   2.326   4.242 -0.4518  0.2760  0.4828
  134MOL0     C18387   8.683   2.450   4.179 -0.9583 -0.1028  0.6764
  134MOL0     C18388   8.803   2.521   4.173  0.1499 -0.0501  0.4906
  134MOL0     C18389   8.915   2.476   4.248 -0.5174 -0.8601  0.2260
  134MOL0     O18390   9.028   2.556   4.267  0.1191 -0.4706  0.1997
  134MOL0     C18391   9.057   2.662   4.183  0.4455  0.4814 -0.0930
  134MOL0     C18392   9.203   2.698   4.179 -1.4999  0.7305 -0.4686
  134MOL0     C18393   9.269   2.749   4.311  0.1092 -0.4068  0.2308
  134MOL0     C18394   9.418   2.779   4.305  0.5240 -0.2911 -0.5228
  134MOL0     C18395   9.447   2.870   4.428 -0.4612 -0.0951  0.2108
  134MOL0     C18396   9.607   2.874   4.425 -0.0869 -0.3527 -0.1453
  134MOL0     C18397   9.649   2.950   4.547 -0.8671  0.5923 -0.5661
  134MOL0     C18398   9.804   2.936   4.560 -0.3380 -0.2856  0.1823
  134MOL0    Cl18399   9.879   3.033   4.436  0.2032  0.2774 -0.3796
  134MOL0     C18400   8.906   2.344   4.305 -0.7948 -0.6811  0.7811
  134MOL0     C18401   8.784   2.276   4.308  0.4164  0.4842  0.2152
  134MOL0     O18402   8.592   2.054   4.223 -0.1053 -0.1122 -0.1225
  134MOL0     C18403   8.288   2.194   4.128 -0.5146 -0.3668 -0.3014
  134MOL0     C18404   8.156   2.166   4.100 -0.2290 -0.3984 -0.0137
  134MOL0     N18405   7.475   2.079   3.669 -0.0525 -0.0498  0.0157
  134MOL0     N18406   7.404   2.060   3.560  0.0532 -0.1654 -0.0439
  134MOL0     C18407   6.302   2.036   2.909 -0.0154  0.1592 -0.4782
  134MOL0     C18408   6.184   2.010   2.850  0.6621 -0.1064 -0.4995
  134MOL0     C18409   5.830   2.115   2.578 -0.3334  0.7620 -0.2293
  134MOL0     C18410   5.855   2.057   2.453 -0.3313 -1.0293  0.5219
  134MOL0     C18411   5.755   2.047   2.358 -0.6827  0.5309  0.2536
  134MOL0     C18412   5.622   2.087   2.382 -0.5410  0.2289 -0.1388
  134MOL0     O18413   5.538   2.102   2.277  0.3599  0.4195 -0.2441
  134MOL0     C18414   5.400   2.093   2.302  0.0748 -0.5755  0.2658
  134MOL0     C18415   5.366   1.946   2.335 -0.1920  1.0741 -0.1030
  134MOL0     C18416   5.221   1.925   2.369 -0.2555  0.0376  0.4390
  134MOL0     C18417   5.139   1.881   2.242 -0.0881  0.0102 -0.0313
  134MOL0     C18418   4.997   1.852   2.266  0.5042 -0.2405  0.1905
  134MOL0     C18419   4.881   1.817   2.286 -0.5424 -0.2538 -0.3546
  134MOL0     C18420   5.591   2.131   2.510  0.0009  0.1273 -0.1090
  134MOL0     C18421   5.692   2.147   2.606 -0.1705 -0.1322 -0.6606
  134MOL0     C18422   5.646   2.189   2.745  0.2792  0.1031 -0.7690
  134MOL0     H18423   6.253   2.094   2.525 -1.9601 -1.4475 -0.6051
  134MOL0     H18424   6.471   2.121   2.621 -1.2595  3.7923 -0.5608
  134MOL0     H18425   6.530   1.984   3.053 -0.2346  0.8147  1.6278
  134MOL0     H18426   6.505   2.158   3.073 -0.9594 -0.4837  1.0742
  134MOL0     H18427   6.765   2.052   2.953  1.7195  0.7432  0.1289
  134MOL0     H18428   6.736   2.210   3.027 -0.2308 -0.1649  0.4017
  134MOL0     H18429   6.705   2.095   3.246  1.4223  2.0191  0.4850
  134MOL0     H18430   6.721   1.938   3.154 -2.2438  1.0790  0.0557
  134MOL0     H18431   6.957   1.989   3.098  3.0568  2.0957 -0.0037
  134MOL0     H18432   6.943   2.138   3.175  0.0579 -0.3668  0.4216
  134MOL0     H18433   6.913   1.858   3.300 -0.2880  0.3106  0.3486
  134MOL0     H18434   6.918   2.010   3.399  1.6624 -0.4979  0.4859
  134MOL0     H18435   7.109   1.872   3.229  1.4544  0.1719  0.0036
  134MOL0     H18436   7.147   2.038   3.274  1.5697 -1.1178  0.0201
  134MOL0     H18437   7.129   1.801   3.467 -3.2398  0.4721 -1.4157
  134MOL0     H18438   7.144   1.979   3.511 -1.3797 -0.2346 -0.7866
  134MOL0     H18439   7.332   1.770   3.406 -1.1531 -0.3537  0.7189
  134MOL0     H18440   7.353   1.925   3.333 -0.1942  3.2261  1.1750
  134MOL0     H18441   7.484   1.747   3.649  0.5086 -0.5221  1.4172
  134MOL0     H18442   7.646   1.822   3.818  1.1867  1.1105 -2.6037
  134MOL0     H18443   7.534   1.905   3.936  1.1654 -2.4907  0.8456
  134MOL0     H18444   7.763   2.033   3.783 -0.8845  2.6086 -0.3245
  134MOL0     H18445   7.641   2.106   3.900  0.3366  0.4881 -0.4610
  134MOL0     H18446   7.719   1.977   4.087  1.2431  0.1939  1.3702
  134MOL0     H18447   7.831   1.887   3.990  3.9599  2.0628 -1.4745
  134MOL0     H18448   7.936   2.102   3.945  0.2141  1.5357  0.0572
  134MOL0     H18449   7.842   2.181   4.085  0.8735  0.7999 -1.8338
  134MOL0     H18450   8.114   1.879   4.265 -0.8853 -0.2153  0.0589
  134MOL0     H18451   8.313   1.815   4.397  3.5805 -2.4203  1.3685
  134MOL0     H18452   8.442   1.951   4.412 -0.8372  3.4323 -2.2512
  134MOL0     H18453   8.445   1.824   4.289  0.4107  1.2460  0.4189
  134MOL0     H18454   8.595   2.500   4.140 -0.3445 -0.1496 -0.8305
  134MOL0     H18455   8.806   2.618   4.124  0.2066 -0.2013  0.1966
  134MOL0     H18456   9.024   2.638   4.081 -0.5045 -1.4974  0.6258
  134MOL0     H18457   8.999   2.752   4.205 -1.9873 -1.0713  0.2288
  134MOL0     H18458   9.261   2.611   4.148 -1.7333  0.4156 -0.0245
  134MOL0     H18459   9.218   2.774   4.102 -2.2199 -1.5427 -3.0090
  134MOL0     H18460   9.253   2.677   4.392 -0.2016 -2.0712 -1.2441
  134MOL0     H18461   9.226   2.847   4.336 -2.2665 -1.6325  1.2553
  134MOL0     H18462   9.448   2.824   4.210 -1.0750  0.9934 -0.4591
  134MOL0     H18463   9.479   2.689   4.320  1.3311 -0.1034 -2.3883
  134MOL0     H18464   9.402   2.968   4.410 -1.3048 -0.5274 -0.0702
  134MOL0     H18465   9.411   2.827   4.521  0.2045  0.1170  0.5784
  134MOL0     H18466   9.654   2.918   4.337  0.3954 -1.4046 -0.4305
  134MOL0     H18467   9.646   2.773   4.442 -1.0404 -1.5839 -4.3063
  134MOL0     H18468   9.591   2.913   4.631 -1.5537  2.0062 -0.3886
  134MOL0     H18469   9.620   3.054   4.532 -2.3196  0.1413 -1.0287
  134MOL0     H18470   9.855   2.841   4.545  0.3908  0.2224 -0.6673
  134MOL0     H18471   9.836   2.966   4.660  0.4047  0.3935 -0.2457
  134MOL0     H18472   8.992   2.294   4.349 -1.1034 -0.5347  1.5760
  134MOL0     H18473   8.782   2.180   4.359 -0.5564  2.3922  4.1651
  134MOL0     H18474   8.327   2.282   4.076 -1.9010  1.3301  1.3922
  134MOL0     H18475   8.091   2.236   4.048 -1.2369 -0.8291  0.6262
  134MOL0     H18476   6.317   2.018   3.015 -0.6422  1.4085 -0.1601
  134MOL0     H18477   6.097   1.979   2.908  0.5155  2.0047  0.5382
  134MOL0     H18478   5.957   2.046   2.418 -0.5040  0.4553 -0.5464
  134MOL0     H18479   5.773   2.028   2.253 -0.5859 -1.2608  0.5605
  134MOL0     H18480   5.357   2.165   2.372 -0.7754 -0.5553 -0.2615
  134MOL0     H18481   5.337   2.113   2.215 -1.1279 -2.6804  0.5702
  134MOL0     H18482   5.439   1.907   2.407  0.6611 -1.8406 -2.3425
  134MOL0     H18483   5.406   1.886   2.253  2.6067 -0.7531  2.3813
  134MOL0     H18484   5.209   1.858   2.454  0.4324  1.5289  1.7543
  134MOL0     H18485   5.179   2.022   2.398  0.0973 -0.6084  3.4134
  134MOL0     H18486   5.187   1.789   2.209  0.1722  0.2640 -0.3788
  134MOL0     H18487   5.151   1.961   2.168 -0.7764  2.2163  2.0868
  134MOL0     H18488   4.776   1.800   2.276 -0.6497  1.5462 -3.7219
  134MOL0     H18489   5.486   2.147   2.533 -0.2368 -1.6568  0.1964
  134MOL0     H18490   5.708   2.147   2.826 -1.6275 -1.9945 -0.2966
  134MOL0     H18491   5.624   2.296   2.752 -1.7216 -0.2401 -1.1724
  134MOL0     H18492   5.552   2.138   2.767  0.0597  1.9007  3.4276
  135MOL0     O18493   6.488   9.986   9.307  0.0763 -0.2808  0.1934
  135MOL0     C18494   6.489   9.863   9.294  0.4444 -0.5940 -0.0258
  135MOL0     O18495   6.600   9.794   9.256 -0.0847  0.7110  0.3487
  135MOL0     C18496   6.722   9.859   9.249  0.4125 -0.0041  0.2505
  135MOL0     C18497   6.776   9.895   9.122  0.2964  0.4119  0.2387
  135MOL0     C18498   6.884   9.978   9.109 -0.1412 -0.0663 -0.8485
  135MOL0     C18499   6.938  10.041   9.222  0.4857  0.2103  0.5196
  135MOL0     O18500   7.041  10.136   9.219  0.2048 -0.0539  0.0037
  135MOL0     C18501   7.150  10.094   9.143 -0.6061 -0.3970 -0.1958
  135MOL0     C18502   7.240  10.221   9.113 -0.4420 -0.0922 -0.7623
  135MOL0     C18503   7.382  10.174   9.058  0.6462  0.0514 -1.0513
  135MOL0     C18504   7.465  10.303   9.032  0.5149  0.2542  0.0122
  135MOL0     C18505   7.605  10.264   8.990 -0.3998  0.1354  0.2952
  135MOL0     C18506   7.695  10.380   8.946 -0.6029 -0.3359 -0.4100
  135MOL0     C18507   7.811  10.317   8.867  0.5863 -0.5201  0.1046
  135MOL0     C18508   7.919  10.429   8.853 -0.2400 -0.2338 -0.5859
  135MOL0     N18509   8.021  10.381   8.764 -0.1839 -0.8115  0.9737
  135MOL0     C18510   8.012  10.348   8.626 -0.3679 -0.2419 -0.0470
  135MOL0     C18511   8.137  10.316   8.599 -0.3732  0.6348 -0.1717
  135MOL0     C18512   8.181  10.254   8.464 -0.5872 -0.1809 -1.1256
  135MOL0     C18513   8.331  10.256   8.438  0.6136 -0.2156  0.7084
  135MOL0     C18514   8.402  10.141   8.520 -0.1474  0.0269  0.8836
  135MOL0     C18515   8.534  10.184   8.580  0.1420  0.6807 -0.2240
  135MOL0     O18516   8.631  10.201   8.473 -0.3324  0.0699 -0.4894
  135MOL0     C18517   8.756  10.193   8.518 -0.6973 -0.0866  1.0278
  135MOL0     C18518   8.855  10.108   8.459  0.5098 -0.3678  0.3281
  135MOL0     C18519   8.989  10.116   8.510 -0.5091 -0.0142  0.7562
  135MOL0     C18520   9.085  10.009   8.447  0.4842 -0.3397  0.1829
  135MOL0     C18521   9.024  10.203   8.616 -0.2928  0.5678  0.1798
  135MOL0     C18522   9.155  10.207   8.680 -0.6486  0.0482  0.3792
  135MOL0     O18523   9.260  10.161   8.616  0.1064 -0.5752 -0.2351
  135MOL0     C18524   9.377  10.157   8.679 -0.9194  0.0851 -0.7477
  135MOL0     C18525   9.432  10.278   8.736  0.5007  0.2227 -0.2449
  135MOL0     C18526   9.544  10.274   8.817  0.7614 -0.1465  1.3998
  135MOL0     C18527   9.616  10.155   8.832 -0.2765 -0.0477 -0.2936
  135MOL0     O18528   9.733  10.149   8.908  0.6864 -0.8217 -0.3793
  135MOL0     C18529   9.834  10.246   8.900  0.8916 -0.3068 -0.1671
  135MOL0     C18530   9.906  10.233   8.771 -0.4763 -0.0281 -0.0986
  135MOL0     C18531  10.028  10.321   8.746  0.4826  0.1137 -0.1186
  135MOL0     C18532  10.121  10.343   8.867  0.7893 -0.9942  0.2024
  135MOL0     C18533  10.241  10.422   8.822 -0.1209  0.3302  0.5809
  135MOL0     C18534  10.326  10.437   8.949 -0.0524  0.1060 -0.2809
  135MOL0     C18535  10.462  10.510   8.929 -0.2903  0.2146  0.4867
  135MOL0     C18536  10.526  10.578   9.048  0.2661  0.5048  0.8260
  135MOL0    Cl18537  10.445  10.744   9.062  0.6286 -0.0653  0.0291
  135MOL0     C18538   9.558  10.041   8.776 -0.0435 -0.6934  0.1673
  135MOL0     C18539   9.444  10.034   8.705 -0.0957 -0.1619  0.1218
  135MOL0     O18540   9.151  10.242   8.797 -0.1806 -0.2102  0.4075
  135MOL0     C18541   8.922  10.285   8.668 -0.6139 -0.2352  0.7076
  135MOL0     C18542   8.795  10.290   8.610  0.1101  0.1942 -0.8014
  135MOL0     N18543   8.218  10.335   8.706  0.2824  0.1681 -0.5331
  135MOL0     N18544   8.151  10.363   8.807  0.5496  0.3314 -0.2419
  135MOL0     C18545   6.885  10.016   9.348 -1.5526 -0.3989  0.4794
  135MOL0     C18546   6.780   9.922   9.363  0.8061  1.0914 -0.2044
  135MOL0     C18547   6.361   9.788   9.320 -0.2273 -0.1459  0.1187
  135MOL0     C18548   6.350   9.659   9.271  0.0716 -0.4763  0.7424
  135MOL0     C18549   6.234   9.581   9.287 -0.4129 -0.1814  1.1118
  135MOL0     C18550   6.123   9.650   9.345  0.3639 -0.5720  0.1464
  135MOL0     O18551   6.011   9.569   9.359 -0.2200 -0.2065  0.0039
  135MOL0     C18552   5.883   9.630   9.392 -0.6564 -0.8051  0.1897
  135MOL0     C18553   5.774   9.519   9.398  0.3329  0.8154 -0.4886
  135MOL0     C18554   5.790   9.424   9.521 -0.7751 -0.6275 -0.7559
  135MOL0     C18555   5.653   9.378   9.584 -0.2025 -0.1944  0.4298
  135MOL0     C18556   5.586   9.492   9.648 -0.7848  0.4249 -0.3030
  135MOL0     C18557   5.554   9.591   9.714  0.6003 -0.1693  0.0972
  135MOL0     C18558   6.129   9.783   9.392 -0.0414  0.1430 -0.2992
  135MOL0     C18559   6.247   9.853   9.384  0.0581  0.0691 -0.2306
  135MOL0     C18560   6.233  10.000   9.428 -0.1690  0.5991  0.1622
  135MOL0     H18561   6.725   9.846   9.040 -2.3130  0.4362  1.7321
  135MOL0     H18562   6.923   9.983   9.008 -0.8113 -1.9346 -1.2371
  135MOL0     H18563   7.129  10.035   9.053  2.4141 -0.9410 -0.6255
  135MOL0     H18564   7.210  10.023   9.200 -2.4192 -0.8272  1.2847
  135MOL0     H18565   7.193  10.284   9.037 -1.4988 -1.1967 -1.0514
  135MOL0     H18566   7.251  10.275   9.207 -1.0783  1.0596 -1.3254
  135MOL0     H18567   7.425  10.104   9.131 -0.6437  0.9458  0.6356
  135MOL0     H18568   7.366  10.125   8.962  0.9644 -1.7087 -0.2505
  135MOL0     H18569   7.413  10.350   8.948 -0.9507 -3.7488 -1.5945
  135MOL0     H18570   7.479  10.373   9.115  3.4290  1.6424 -1.4747
  135MOL0     H18571   7.600  10.189   8.910 -3.7142 -2.7499  2.8593
  135MOL0     H18572   7.654  10.217   9.077 -0.1138 -1.6386 -0.7670
  135MOL0     H18573   7.641  10.456   8.890 -1.6999 -0.2718  0.6885
  135MOL0     H18574   7.722  10.436   9.036 -0.4514  0.8289 -1.1588
  135MOL0     H18575   7.778  10.302   8.764 -0.0598  0.3647  0.1760
  135MOL0     H18576   7.854  10.224   8.906 -1.3755 -2.5250 -2.1740
  135MOL0     H18577   7.882  10.519   8.804 -1.1037 -1.1199 -1.6188
  135MOL0     H18578   7.962  10.462   8.947  2.4035 -2.2045 -0.9831
  135MOL0     H18579   7.932  10.347   8.553  0.7619 -0.5429 -1.3102
  135MOL0     H18580   8.146  10.309   8.377 -1.0383 -3.5573 -3.2895
  135MOL0     H18581   8.142  10.153   8.449  0.2784 -0.5709 -0.8750
  135MOL0     H18582   8.346  10.229   8.333  0.9749 -1.3121  1.0264
  135MOL0     H18583   8.365  10.359   8.449 -1.9750  1.8806 -5.7521
  135MOL0     H18584   8.332  10.109   8.597 -0.1588  1.4870  1.5024
  135MOL0     H18585   8.414  10.053   8.456  0.0994  0.6566  0.0378
  135MOL0     H18586   8.530  10.274   8.642  0.4709 -0.8521  2.1431
  135MOL0     H18587   8.563  10.103   8.647 -0.3103  1.0981  0.4919
  135MOL0     H18588   8.826  10.042   8.377  1.1285 -0.3681  0.1077
  135MOL0     H18589   9.130   9.951   8.528  0.3057  1.4382  1.6258
  135MOL0     H18590   9.170  10.056   8.395  0.2066 -0.6765 -0.5921
  135MOL0     H18591   9.022   9.945   8.385 -1.0384 -0.2448  1.5627
  135MOL0     H18592   9.377  10.371   8.731 -1.7174 -0.8440  1.9977
  135MOL0     H18593   9.581  10.365   8.863 -0.8496  1.5498 -0.4532
  135MOL0     H18594   9.790  10.346   8.908  0.2038 -0.6784  0.8885
  135MOL0     H18595   9.898  10.232   8.988  0.0409 -2.8866  0.1187
  135MOL0     H18596   9.934  10.127   8.765  0.1570  0.1920 -1.6584
  135MOL0     H18597   9.833  10.255   8.692  0.3403  0.9337 -0.6129
  135MOL0     H18598   9.983  10.419   8.728 -2.2338 -1.4014 -2.2481
  135MOL0     H18599  10.070  10.275   8.657  0.2447 -0.2433 -0.0442
  135MOL0     H18600  10.153  10.245   8.903  2.5072 -0.0815  1.3060
  135MOL0     H18601  10.066  10.379   8.955 -0.8327 -1.6400 -0.5145
  135MOL0     H18602  10.289  10.370   8.739 -0.5056  0.3926  0.3156
  135MOL0     H18603  10.218  10.518   8.776 -2.1313 -0.4096 -0.0844
  135MOL0     H18604  10.352  10.344   8.999  1.4360  0.2108 -0.8214
  135MOL0     H18605  10.263  10.491   9.021 -2.4039  0.5319 -2.5156
  135MOL0     H18606  10.443  10.592   8.859 -0.9545  0.4801  0.9680
  135MOL0     H18607  10.525  10.436   8.878 -0.4186 -0.1907  0.9080
  135MOL0     H18608  10.634  10.584   9.036  0.6953 -1.9595  2.6363
  135MOL0     H18609  10.508  10.518   9.138  4.3233 -1.3157  0.6418
  135MOL0     H18610   9.607   9.947   8.799 -1.5357 -1.1123  1.8149
  135MOL0     H18611   9.408   9.940   8.665 -0.1054  0.2619 -0.8802
  135MOL0     H18612   8.937  10.319   8.770  1.3422 -0.7985  0.6440
  135MOL0     H18613   8.721  10.353   8.659 -1.9143 -2.0559 -0.7267
  135MOL0     H18614   6.932  10.070   9.429  1.1457 -1.5119 -0.2254
  135MOL0     H18615   6.746   9.895   9.463  2.2185 -1.2469 -0.2848
  135MOL0     H18616   6.432   9.617   9.214 -0.1167 -0.1443  0.2258
  135MOL0     H18617   6.233   9.478   9.256 -1.0255  0.4126 -1.0051
  135MOL0     H18618   5.895   9.693   9.481  0.3026  0.2058 -0.6380
  135MOL0     H18619   5.857   9.696   9.309 -0.1038 -1.9950 -0.9610
  135MOL0     H18620   5.785   9.457   9.309  0.2105 -1.6571  1.1175
  135MOL0     H18621   5.674   9.563   9.403  0.1634  0.3304  1.6757
  135MOL0     H18622   5.857   9.341   9.495  0.5613  0.2245 -0.0788
  135MOL0     H18623   5.836   9.479   9.603 -5.0925  1.1074  0.7937
  135MOL0     H18624   5.676   9.296   9.652 -0.3082 -1.0412 -0.5438
  135MOL0     H18625   5.593   9.335   9.504 -0.6396  4.4070 -2.0826
  135MOL0     H18626   5.511   9.675   9.765 -3.2048 -1.1960 -1.0469
  135MOL0     H18627   6.044   9.836   9.436  0.2974  1.1172 -0.7886
  135MOL0     H18628   6.216  10.059   9.337 -0.0969  2.6288  1.3878
  135MOL0     H18629   6.158  10.003   9.508 -0.4212 -0.5020 -0.0197
  135MOL0     H18630   6.324  10.043   9.471 -1.2255  3.4063 -0.1858
  136MOL0     O18631   8.654   9.095   0.737  0.9009 -0.6445 -0.5888
  136MOL0     C18632   8.629   9.216   0.725  0.0439  0.4814 -0.2956
  136MOL0     O18633   8.698   9.301   0.640  0.0768  0.4071  0.5512
  136MOL0     C18634   8.818   9.248   0.589  0.5861 -1.1102  0.2091
  136MOL0     C18635   8.826   9.204   0.462  0.5727 -0.9442  0.0130
  136MOL0     C18636   8.937   9.158   0.399  1.3425  1.2861 -0.5356
  136MOL0     C18637   9.051   9.141   0.473 -0.0335  0.4864 -1.4620
  136MOL0     O18638   9.157   9.077   0.413 -0.3902  0.4122 -0.0481
  136MOL0     C18639   9.249   9.170   0.354 -0.8665  0.2348 -0.2925
  136MOL0     C18640   9.371   9.091   0.300  0.1729  0.1838 -0.7164
  136MOL0     C18641   9.475   9.045   0.405  0.4850 -0.2508 -0.5619
  136MOL0     C18642   9.589   9.138   0.439  0.2974 -0.2585 -0.2627
  136MOL0     C18643   9.679   9.071   0.544  0.7106 -0.1338 -0.3799
  136MOL0     C18644   9.804   9.151   0.575 -0.1749 -0.1824  0.6190
  136MOL0     C18645   9.766   9.279   0.651 -0.3380 -0.0224 -0.1145
  136MOL0     C18646   9.888   9.361   0.684  0.0736  0.0513  0.4150
  136MOL0     N18647   9.939   9.438   0.559 -0.2089  0.9385 -0.0892
  136MOL0     C18648   9.880   9.549   0.505  0.5153  0.1047 -0.2654
  136MOL0     C18649   9.955   9.584   0.403  0.2039 -0.1404  0.0871
  136MOL0     C18650   9.930   9.714   0.321 -0.5475  0.8176  0.6590
  136MOL0     C18651   9.976   9.835   0.401 -0.0625  0.2657  0.3068
  136MOL0     C18652   9.959   9.964   0.325 -0.1114 -0.0263 -0.6109
  136MOL0     C18653  10.006  10.092   0.390 -0.9358 -0.5145  0.1077
  136MOL0     O18654  10.140  10.064   0.439  0.2067 -0.3603 -0.6255
  136MOL0     C18655  10.211  10.164   0.509  0.1961 -0.6411 -0.2760
  136MOL0     C18656  10.169  10.292   0.535  0.4194  0.4628  0.7969
  136MOL0     C18657  10.248  10.374   0.629  1.5696  1.0442  0.4710
  136MOL0     C18658  10.191  10.517   0.637 -0.9991 -0.0600 -1.1651
  136MOL0     C18659  10.366  10.323   0.684  0.1442 -0.2250  0.4731
  136MOL0     C18660  10.450  10.403   0.780 -0.1686  0.3601  0.1688
  136MOL0     O18661  10.525  10.341   0.879  0.2269  0.1761  0.8148
  136MOL0     C18662  10.599  10.406   0.977  0.4178 -0.2906 -0.3892
  136MOL0     C18663  10.720  10.350   1.020  0.0082  0.3256  0.1676
  136MOL0     C18664  10.797  10.408   1.121  0.4934  0.3380 -0.5993
  136MOL0     C18665  10.743  10.511   1.189 -0.1768 -0.3900  0.4077
  136MOL0     O18666  10.804  10.573   1.296  0.1598 -0.7083 -0.2645
  136MOL0     C18667  10.918  10.514   1.355  0.2561  0.7185  0.0263
  136MOL0     C18668  11.051  10.540   1.285 -0.3545 -0.4279  0.0097
  136MOL0     C18669  11.068  10.691   1.248  0.1955  0.4992  0.6416
  136MOL0     C18670  11.108  10.791   1.364 -1.8930  0.6742  0.4490
  136MOL0     C18671  11.116  10.942   1.348  0.7509 -0.2238  0.9664
  136MOL0     C18672  11.152  10.998   1.486 -0.0260  0.1091  0.0058
  136MOL0     C18673  11.138  11.148   1.478 -0.1289 -0.6848  0.3506
  136MOL0     C18674  11.154  11.206   1.614 -0.4578  0.2137  0.5040
  136MOL0    Cl18675  11.151  11.387   1.600  0.2429 -0.3938  0.0880
  136MOL0     C18676  10.609  10.566   1.162 -0.3612  0.5513 -0.0801
  136MOL0     C18677  10.542  10.509   1.056  0.0598  0.4450 -0.0531
  136MOL0     O18678  10.464  10.521   0.746 -0.6997  0.2279 -0.6874
  136MOL0     C18679  10.401  10.193   0.658 -0.1023  0.1174  0.7345
  136MOL0     C18680  10.329  10.120   0.562 -1.2902  0.2264 -0.0136
  136MOL0     N18681  10.068   9.508   0.410 -0.8492 -0.5545 -0.3975
  136MOL0     N18682  10.064   9.424   0.511  0.5072  0.1187  0.7238
  136MOL0     C18683   9.051   9.180   0.608  0.2089 -0.2919  0.3634
  136MOL0     C18684   8.939   9.251   0.662 -0.4715 -0.1848 -0.5259
  136MOL0     C18685   8.508   9.269   0.793 -0.0767  0.3364  0.5411
  136MOL0     C18686   8.397   9.185   0.800  1.0523  0.1401  0.5241
  136MOL0     C18687   8.284   9.222   0.873 -0.6789  0.2849 -0.0758
  136MOL0     C18688   8.277   9.357   0.913  0.5540  0.3950  0.7494
  136MOL0     O18689   8.161   9.390   0.976  0.2059  0.4432 -0.5569
  136MOL0     C18690   8.140   9.519   1.054 -0.6863  1.2965 -0.1164
  136MOL0     C18691   8.096   9.635   0.969  0.2196  0.0062 -0.0626
  136MOL0     C18692   7.953   9.612   0.910 -0.4555  0.4490  1.1054
  136MOL0     C18693   7.936   9.507   0.804  0.1419  0.5901  1.5135
  136MOL0     C18694   8.013   9.555   0.687  0.2808  0.5550 -0.3896
  136MOL0     C18695   8.091   9.594   0.602 -0.1226  0.4871  0.4161
  136MOL0     C18696   8.379   9.444   0.889 -0.5293 -1.0228  0.3522
  136MOL0     C18697   8.502   9.401   0.843 -0.9255  0.0526 -0.7057
  136MOL0     C18698   8.621   9.497   0.846  0.1235  0.2468  0.1735
  136MOL0     H18699   8.742   9.212   0.394 -0.5808 -2.1925  1.2443
  136MOL0     H18700   8.934   9.126   0.295 -1.9755 -1.6070  0.2590
  136MOL0     H18701   9.276   9.248   0.426 -4.1468 -0.0709  1.4431
  136MOL0     H18702   9.202   9.227   0.273  2.4168  2.4853 -0.8433
  136MOL0     H18703   9.343   9.002   0.242  2.2321 -1.6387  0.8900
  136MOL0     H18704   9.425   9.148   0.225  1.5094 -2.1065 -1.6159
  136MOL0     H18705   9.420   9.028   0.498 -0.3041 -2.2582 -1.3560
  136MOL0     H18706   9.512   8.949   0.369  0.9368 -0.8501  1.3947
  136MOL0     H18707   9.656   9.149   0.353 -1.8132  0.2469 -1.9126
  136MOL0     H18708   9.541   9.234   0.463 -1.6703 -1.7491  2.1811
  136MOL0     H18709   9.705   8.971   0.508 -1.1656  0.6819 -4.6969
  136MOL0     H18710   9.627   9.059   0.639  1.4843 -1.0364 -0.0621
  136MOL0     H18711   9.869   9.089   0.636  0.1994  0.2361  0.6497
  136MOL0     H18712   9.858   9.167   0.482  0.0226 -0.8099  0.6219
  136MOL0     H18713   9.713   9.249   0.742 -1.3620 -0.6630 -0.8995
  136MOL0     H18714   9.704   9.340   0.585  0.9205 -0.3115 -1.6100
  136MOL0     H18715   9.860   9.442   0.752  1.5867  1.9745 -1.1347
  136MOL0     H18716   9.967   9.306   0.735 -0.5775 -0.8049  0.5292
  136MOL0     H18717   9.782   9.589   0.527 -0.0632 -2.1472  1.6646
  136MOL0     H18718   9.833   9.741   0.280  0.6788  3.4367 -0.8090
  136MOL0     H18719   9.990   9.703   0.230 -1.6978  0.9282 -0.1236
  136MOL0     H18720   9.911   9.840   0.489  2.0669  0.5117  1.9684
  136MOL0     H18721  10.078   9.805   0.429  0.6574  0.0653 -2.2956
  136MOL0     H18722  10.006   9.952   0.227  2.0244 -0.3204  0.3882
  136MOL0     H18723   9.853   9.992   0.321  0.1201  1.0252  0.2540
  136MOL0     H18724  10.020  10.165   0.310 -0.9229 -1.5745 -0.8876
  136MOL0     H18725   9.940  10.132   0.467  1.3413 -0.2137  2.0415
  136MOL0     H18726  10.083  10.330   0.481 -0.8641  0.1066  2.4975
  136MOL0     H18727  10.264  10.577   0.583 -0.3665  1.9944  1.7876
  136MOL0     H18728  10.190  10.544   0.743 -0.7322 -1.3783 -0.8062
  136MOL0     H18729  10.092  10.527   0.590 -0.3607  0.3060 -2.4859
  136MOL0     H18730  10.746  10.255   0.976  0.6776  0.7286 -0.3323
  136MOL0     H18731  10.883  10.354   1.159 -1.8707 -2.5679  1.0695
  136MOL0     H18732  10.927  10.557   1.456 -1.4874 -0.0093  0.5445
  136MOL0     H18733  10.908  10.407   1.372  2.3699  0.4378 -0.3007
  136MOL0     H18734  11.130  10.506   1.352 -1.7022 -0.6886  1.5166
  136MOL0     H18735  11.041  10.485   1.190  1.2337 -1.1838  0.2427
  136MOL0     H18736  10.977  10.738   1.208 -0.8659  0.0803  2.4241
  136MOL0     H18737  11.146  10.708   1.173  1.2384  2.9123  2.1445
  136MOL0     H18738  11.203  10.760   1.410 -0.9100  2.0773 -0.5905
  136MOL0     H18739  11.032  10.773   1.441 -0.7811 -0.7399  1.2873
  136MOL0     H18740  11.184  10.967   1.267 -1.4253 -0.6760 -1.1329
  136MOL0     H18741  11.011  10.970   1.335  0.1736 -2.0062  1.4845
  136MOL0     H18742  11.253  10.968   1.517  0.5249  1.4146 -0.4733
  136MOL0     H18743  11.075  10.966   1.557  0.3182  2.7528  1.7128
  136MOL0     H18744  11.047  11.189   1.431 -1.0038 -0.7617  1.9102
  136MOL0     H18745  11.215  11.191   1.413 -0.2857 -1.6836 -0.5322
  136MOL0     H18746  11.244  11.156   1.652  0.2209 -1.5541 -3.0398
  136MOL0     H18747  11.074  11.173   1.682 -1.6191 -0.8865 -1.2874
  136MOL0     H18748  10.576  10.645   1.229  0.5393 -0.3571  1.5081
  136MOL0     H18749  10.449  10.550   1.017 -0.7014 -1.6900 -0.6062
  136MOL0     H18750  10.480  10.131   0.700 -1.7406 -1.3804  1.7298
  136MOL0     H18751  10.377  10.025   0.544  1.4602  0.7375  3.3724
  136MOL0     H18752   9.143   9.154   0.660 -1.1295 -2.3625  1.8514
  136MOL0     H18753   8.952   9.313   0.750 -2.0126  2.8617 -2.2587
  136MOL0     H18754   8.409   9.085   0.759  5.6663 -0.2463  2.3104
  136MOL0     H18755   8.200   9.155   0.886  1.5475 -2.5518  0.7115
  136MOL0     H18756   8.070   9.494   1.134  1.3796 -0.3294  1.2901
  136MOL0     H18757   8.241   9.535   1.093  0.6303 -0.6579 -2.4112
  136MOL0     H18758   8.175   9.656   0.896  2.1604 -0.4027  1.8321
  136MOL0     H18759   8.078   9.720   1.035  1.6346  0.8859 -0.7681
  136MOL0     H18760   7.887   9.590   0.994 -0.8498  0.5453  0.8244
  136MOL0     H18761   7.908   9.703   0.869 -3.0600 -0.6495  1.3445
  136MOL0     H18762   7.829   9.501   0.781 -0.2909  1.1044  3.3164
  136MOL0     H18763   7.975   9.408   0.830  0.8687  0.7826  1.1935
  136MOL0     H18764   8.145   9.643   0.524  1.1525 -1.4722  0.0274
  136MOL0     H18765   8.367   9.540   0.940 -2.3282 -1.6113  1.1276
  136MOL0     H18766   8.604   9.554   0.938 -0.0134  1.4079 -0.5530
  136MOL0     H18767   8.716   9.446   0.866 -0.2613  0.7226  3.7557
  136MOL0     H18768   8.621   9.559   0.756 -1.4523 -0.8017 -0.6016
  137MOL0     O18769   4.757   2.789   9.702 -0.3423 -0.1856 -0.3118
  137MOL0     C18770   4.689   2.740   9.614  0.2677 -0.2110  0.3800
  137MOL0     O18771   4.731   2.723   9.488  0.1119 -0.1984  0.0641
  137MOL0     C18772   4.862   2.740   9.450  0.0222  0.3764 -0.5659
  137MOL0     C18773   4.891   2.796   9.327 -1.1336  0.1489  0.4751
  137MOL0     C18774   5.026   2.802   9.285 -0.0819  0.0237  0.2564
  137MOL0     C18775   5.135   2.753   9.361 -0.1152 -0.4930 -0.5497
  137MOL0     O18776   5.268   2.743   9.312  0.2319 -0.1363 -0.7148
  137MOL0     C18777   5.311   2.816   9.195 -0.1540  0.2359  0.0968
  137MOL0     C18778   5.467   2.809   9.178 -0.1504  0.1178 -0.0483
  137MOL0     C18779   5.516   2.663   9.181 -0.3146 -0.6389 -0.2112
  137MOL0     C18780   5.661   2.680   9.149  0.7247 -0.2064  0.8721
  137MOL0     C18781   5.730   2.549   9.121 -0.5149 -0.1471  0.4430
  137MOL0     C18782   5.771   2.484   9.251  0.2212 -0.8059  0.1795
  137MOL0     C18783   5.860   2.367   9.241 -0.5210  0.0132 -0.0125
  137MOL0     C18784   5.873   2.282   9.368  0.1306  0.7647  0.1817
  137MOL0     N18785   5.993   2.198   9.368  0.6255  0.4172  0.0759
  137MOL0     C18786   6.034   2.114   9.270  0.1675  0.3455 -0.2307
  137MOL0     C18787   6.160   2.083   9.301 -0.6783  0.4305  0.1656
  137MOL0     C18788   6.260   2.009   9.219 -0.7592 -0.2433  0.1375
  137MOL0     C18789   6.384   1.981   9.305 -0.7060  0.1789  1.2954
  137MOL0     C18790   6.508   1.933   9.217  0.5673  0.0458  1.3170
  137MOL0     C18791   6.636   1.902   9.299  0.3847 -0.3831  0.8733
  137MOL0     O18792   6.602   1.808   9.397 -0.5540 -0.3781 -0.9789
  137MOL0     C18793   6.703   1.759   9.475  0.0782  0.2569 -0.0863
  137MOL0     C18794   6.823   1.814   9.506 -0.5868 -0.3365  0.3378
  137MOL0     C18795   6.913   1.759   9.593 -0.7737  0.5440 -0.5620
  137MOL0     C18796   7.038   1.841   9.630 -0.2641 -0.3451  0.3860
  137MOL0     C18797   6.887   1.627   9.648 -0.5555  0.1709  0.7071
  137MOL0     C18798   6.978   1.548   9.734 -0.0779 -0.1524 -0.7202
  137MOL0     O18799   7.101   1.601   9.749  0.4369 -0.5442 -0.5471
  137MOL0     C18800   7.194   1.534   9.828  0.7393  0.5692 -0.7671
  137MOL0     C18801   7.161   1.482   9.955  1.2307 -0.6452 -0.5209
  137MOL0     C18802   7.256   1.416  10.026 -0.1470  0.5142 -0.6714
  137MOL0     C18803   7.383   1.399   9.979 -0.2224 -0.0784 -0.3869
  137MOL0     O18804   7.461   1.326  10.064  0.4024 -0.6352 -0.3671
  137MOL0     C18805   7.519   1.206  10.020  0.9481  0.1654 -0.0550
  137MOL0     C18806   7.587   1.157  10.141 -0.4913 -1.0907 -1.0179
  137MOL0     C18807   7.706   1.071  10.103  0.4294  0.1303  0.7735
  137MOL0     C18808   7.836   1.136  10.075  0.0080  0.3079  0.0915
  137MOL0     C18809   7.948   1.040  10.069 -0.3023 -0.4028 -0.1733
  137MOL0     C18810   7.948   0.978   9.932  0.3518  0.5713  0.9593
  137MOL0     C18811   8.081   0.900   9.902  0.2581  0.1230 -0.0075
  137MOL0     C18812   8.045   0.789   9.797  0.1150  0.5624 -0.3585
  137MOL0    Cl18813   7.958   0.842   9.655  0.0052  0.2142 -0.1142
  137MOL0     C18814   7.424   1.456   9.858 -0.2475 -0.3371  1.0476
  137MOL0     C18815   7.327   1.529   9.782 -0.4563  0.5020 -0.3745
  137MOL0     O18816   6.935   1.444   9.787 -0.4630  0.0928 -0.6115
  137MOL0     C18817   6.764   1.564   9.610 -0.1160  0.9140 -0.6945
  137MOL0     C18818   6.668   1.627   9.527 -0.4401 -0.7145  0.2194
  137MOL0     N18819   6.195   2.157   9.412 -0.8400 -0.1682 -0.6474
  137MOL0     N18820   6.094   2.223   9.453 -0.5457 -0.1649  0.0901
  137MOL0     C18821   5.100   2.686   9.477  0.1130  0.0802 -0.1117
  137MOL0     C18822   4.965   2.675   9.528 -0.3288 -0.5287 -0.0259
  137MOL0     C18823   4.543   2.708   9.645  0.0760 -0.8740  0.6398
  137MOL0     C18824   4.451   2.684   9.541  0.2171  0.5112 -0.7042
  137MOL0     C18825   4.315   2.667   9.561  0.0523  0.0961  0.3671
  137MOL0     C18826   4.262   2.671   9.688 -0.0846  0.6786  0.1122
  137MOL0     O18827   4.126   2.669   9.699  0.5338 -0.4111  0.1237
  137MOL0     C18828   4.051   2.670   9.823 -0.0102 -0.5661  0.5152
  137MOL0     C18829   3.904   2.619   9.803  0.1132  0.2473  0.2437
  137MOL0     C18830   3.841   2.548   9.917  0.1644 -0.3239  0.0894
  137MOL0     C18831   3.843   2.619  10.048  0.4864  0.0238 -0.2104
  137MOL0     C18832   3.757   2.739  10.038 -0.1534  0.1631  0.5591
  137MOL0     C18833   3.689   2.837  10.019 -0.0963  0.0921 -0.3420
  137MOL0     C18834   4.351   2.679   9.797 -0.7073  0.4910  0.4053
  137MOL0     C18835   4.490   2.692   9.774  0.2441  1.0470 -0.1878
  137MOL0     C18836   4.576   2.691   9.896 -0.2166  0.2463 -0.7539
  137MOL0     H18837   4.818   2.841   9.260 -0.7546  0.2561  0.1245
  137MOL0     H18838   5.043   2.848   9.188 -0.5063  0.7843  0.5340
  137MOL0     H18839   5.285   2.923   9.197 -2.7926 -0.1788 -3.2511
  137MOL0     H18840   5.260   2.780   9.105  2.0223 -0.8306 -0.7964
  137MOL0     H18841   5.487   2.858   9.082 -0.1508  1.9997  0.8635
  137MOL0     H18842   5.509   2.858   9.266 -2.0557 -2.3048  2.3910
  137MOL0     H18843   5.512   2.619   9.281  0.5499  2.7827  1.4618
  137MOL0     H18844   5.466   2.599   9.107  1.9051 -0.4199 -2.0011
  137MOL0     H18845   5.673   2.739   9.059  2.9269 -0.1455  1.1391
  137MOL0     H18846   5.719   2.726   9.230  1.4294  2.3863 -0.9715
  137MOL0     H18847   5.826   2.577   9.077 -1.1124  3.1283  0.9276
  137MOL0     H18848   5.663   2.483   9.065 -0.2691 -2.3176  2.5588
  137MOL0     H18849   5.822   2.559   9.313  0.9066 -2.5395  1.8116
  137MOL0     H18850   5.679   2.465   9.307 -1.0830  2.4062 -0.6334
  137MOL0     H18851   5.958   2.411   9.220  0.6814  0.0218  4.4688
  137MOL0     H18852   5.822   2.318   9.151 -1.9941  0.1452  0.5207
  137MOL0     H18853   5.887   2.350   9.453 -0.0808 -2.1774  2.7862
  137MOL0     H18854   5.788   2.215   9.387 -0.6568  1.0950 -1.9095
  137MOL0     H18855   5.980   2.085   9.181  4.0607 -1.0998 -2.3402
  137MOL0     H18856   6.294   2.079   9.142 -2.4677 -0.0294 -0.4531
  137MOL0     H18857   6.225   1.915   9.175  0.4638 -0.0401 -1.3587
  137MOL0     H18858   6.423   2.071   9.352  4.0979 -1.4894  1.0669
  137MOL0     H18859   6.361   1.900   9.375  1.4831 -1.7812 -0.0833
  137MOL0     H18860   6.478   1.836   9.175  0.9231  1.0307 -1.4002
  137MOL0     H18861   6.535   2.000   9.135  1.7936  0.5106  2.0729
  137MOL0     H18862   6.711   1.868   9.226  0.5899  3.3621 -0.9192
  137MOL0     H18863   6.660   1.999   9.343 -0.7602  0.5408 -0.4635
  137MOL0     H18864   6.842   1.914   9.469  1.9314 -1.3951 -1.4849
  137MOL0     H18865   7.052   1.917   9.552  1.6565 -2.6286 -1.6552
  137MOL0     H18866   7.133   1.788   9.621  0.2557  0.2223  2.1774
  137MOL0     H18867   7.026   1.884   9.729  4.0561 -2.4129  2.0500
  137MOL0     H18868   7.066   1.494  10.007  1.7608 -2.1861  0.9094
  137MOL0     H18869   7.243   1.367  10.123  2.3069 -0.1567 -0.6298
  137MOL0     H18870   7.446   1.134   9.981  1.4766 -0.5940  0.3210
  137MOL0     H18871   7.587   1.229   9.937  0.4142  0.9535 -0.2776
  137MOL0     H18872   7.627   1.246  10.190 -1.8137 -1.4895  0.8688
  137MOL0     H18873   7.521   1.109  10.214 -0.5938 -2.6042 -2.0542
  137MOL0     H18874   7.679   1.000  10.024  0.4750 -1.5219  2.1838
  137MOL0     H18875   7.719   1.012  10.194 -1.4906 -1.8515 -0.1390
  137MOL0     H18876   7.846   1.202  10.162 -2.4117  0.5221  0.2997
  137MOL0     H18877   7.833   1.202   9.988  1.2014  0.4125  0.1164
  137MOL0     H18878   8.045   1.089  10.084 -0.4993  0.0796 -0.4682
  137MOL0     H18879   7.949   0.952  10.135  2.9465 -1.0363 -0.8566
  137MOL0     H18880   7.929   1.055   9.856 -0.1285  0.1390  0.6418
  137MOL0     H18881   7.869   0.903   9.938  0.5792  0.4420  4.6200
  137MOL0     H18882   8.119   0.852   9.993  2.1907 -1.1732 -1.3868
  137MOL0     H18883   8.159   0.970   9.869 -0.2236 -0.1355 -1.8368
  137MOL0     H18884   7.991   0.722   9.864 -1.1546 -0.6221 -2.4362
  137MOL0     H18885   8.140   0.739   9.775  0.2242  0.7146 -0.2328
  137MOL0     H18886   7.528   1.441   9.833 -0.5453 -4.3656  1.5312
  137MOL0     H18887   7.367   1.570   9.690  3.0336  0.5737  0.9829
  137MOL0     H18888   6.740   1.463   9.640 -1.7137  0.8466 -2.0179
  137MOL0     H18889   6.578   1.578   9.490  0.5104 -0.9530 -1.9153
  137MOL0     H18890   5.176   2.633   9.534  1.3581 -0.2627 -2.0046
  137MOL0     H18891   4.948   2.628   9.625  0.3837  1.0519  0.9072
  137MOL0     H18892   4.488   2.687   9.439  1.6521 -3.1048 -0.4396
  137MOL0     H18893   4.247   2.634   9.483 -0.8504  0.8425  0.8201
  137MOL0     H18894   4.107   2.605   9.891  0.8754 -0.6685 -0.2847
  137MOL0     H18895   4.046   2.767   9.872  1.9876 -0.6992  1.0924
  137MOL0     H18896   3.908   2.551   9.717  0.8914  2.4671 -1.5863
  137MOL0     H18897   3.844   2.704   9.770  0.4533 -0.0124 -1.1181
  137MOL0     H18898   3.736   2.534   9.889 -0.9061 -0.0481  3.5003
  137MOL0     H18899   3.901   2.457   9.921  1.5711  0.5809  0.4559
  137MOL0     H18900   3.947   2.646  10.069  0.7659 -0.9342 -0.3153
  137MOL0     H18901   3.813   2.549  10.126  0.1207  0.5919  0.1640
  137MOL0     H18902   3.632   2.927  10.026 -1.4239 -0.6548 -1.1101
  137MOL0     H18903   4.311   2.666   9.897  1.1528 -0.5838  1.0509
  137MOL0     H18904   4.526   2.647   9.982  1.2918  0.3440  0.2124
  137MOL0     H18905   4.659   2.622   9.873  0.3438  1.2949 -2.0098
  137MOL0     H18906   4.616   2.790   9.917  1.5246 -0.3032 -1.3049
  138MOL0     O18907  11.050   9.251   4.739 -0.5627  0.2106  0.2653
  138MOL0     C18908  11.039   9.327   4.834 -0.0925 -0.8110  0.4445
  138MOL0     O18909  10.925   9.407   4.854 -0.2021 -0.6858  0.0136
  138MOL0     C18910  10.808   9.377   4.792  0.2808  0.0557  0.6428
  138MOL0     C18911  10.796   9.365   4.655 -0.0007  0.3398 -0.3124
  138MOL0     C18912  10.676   9.330   4.596  0.2743 -0.4784  0.7859
  138MOL0     C18913  10.552   9.329   4.662  0.5201  0.2181 -0.1842
  138MOL0     O18914  10.432   9.292   4.602  0.1131 -0.7598  0.4164
  138MOL0     C18915  10.319   9.283   4.688  0.2372 -0.5865  0.4962
  138MOL0     C18916  10.189   9.237   4.609  0.5124 -0.4378  0.7621
  138MOL0     C18917  10.081   9.158   4.689  0.3799 -0.2308 -0.2383
  138MOL0     C18918  10.014   9.246   4.792 -0.5548  0.3487 -0.0857
  138MOL0     C18919   9.913   9.161   4.869 -0.0630  0.2816 -0.9622
  138MOL0     C18920   9.783   9.142   4.794  0.7318  0.2269  0.1970
  138MOL0     C18921   9.688   9.046   4.861  0.3593  0.3703  0.5562
  138MOL0     C18922   9.540   9.045   4.822 -0.0906  0.3143  0.2653
  138MOL0     N18923   9.461   8.955   4.902  0.5636  0.6667  0.2483
  138MOL0     C18924   9.489   8.828   4.937  0.9574  0.4555  1.1641
  138MOL0     C18925   9.374   8.790   4.988  1.2957 -0.7362 -0.4229
  138MOL0     C18926   9.353   8.651   5.037 -0.1210  0.2558  0.1083
  138MOL0     C18927   9.390   8.662   5.193  0.2645  0.1062  0.4963
  138MOL0     C18928   9.492   8.557   5.230 -0.6576  0.3104 -0.0197
  138MOL0     C18929   9.634   8.570   5.177 -0.3215 -0.7963  0.0153
  138MOL0     O18930   9.656   8.714   5.187  0.3368  0.2886 -0.3419
  138MOL0     C18931   9.773   8.773   5.146  0.1548 -0.6471  0.3455
  138MOL0     C18932   9.813   8.897   5.201 -0.0472 -0.4062  0.3594
  138MOL0     C18933   9.935   8.957   5.181 -0.2750  0.0814  0.1916
  138MOL0     C18934   9.955   9.082   5.266 -0.1782 -0.1714  0.2084
  138MOL0     C18935  10.032   8.893   5.096  0.0520 -0.2636 -0.1446
  138MOL0     C18936  10.172   8.925   5.092  0.1810 -0.2025 -0.0679
  138MOL0     O18937  10.258   8.832   5.047 -0.0945  0.3823 -0.3240
  138MOL0     C18938  10.390   8.866   5.024  0.0761  0.4571 -0.1491
  138MOL0     C18939  10.476   8.757   5.048 -0.1865 -0.2524 -0.3856
  138MOL0     C18940  10.614   8.766   5.017  0.0257 -0.8129  0.8731
  138MOL0     C18941  10.666   8.883   4.962 -0.2550  0.1285  1.4142
  138MOL0     O18942  10.801   8.871   4.939  0.6634  0.5906 -0.3030
  138MOL0     C18943  10.868   8.989   4.985  0.4997  0.7401 -0.3158
  138MOL0     C18944  11.013   8.974   4.968  0.4055  1.4338 -0.8083
  138MOL0     C18945  11.083   8.848   5.039 -1.5854 -0.2449 -0.5906
  138MOL0     C18946  11.232   8.864   5.070 -0.1759 -0.0958 -0.2427
  138MOL0     C18947  11.269   8.974   5.167 -0.0810 -0.3454 -0.3975
  138MOL0     C18948  11.428   8.979   5.185  0.0892  0.3219  0.6607
  138MOL0     C18949  11.454   9.090   5.291 -0.1890 -0.3282  0.0762
  138MOL0     C18950  11.598   9.131   5.304 -0.0288  0.2696 -0.7430
  138MOL0    Cl18951  11.690   9.009   5.396 -0.3462 -0.0651  0.3319
  138MOL0     C18952  10.581   8.989   4.927  0.1442  0.8451 -0.4367
  138MOL0     C18953  10.442   8.978   4.958  0.7601 -0.5945  1.0734
  138MOL0     O18954  10.209   9.037   5.126 -0.2721 -0.1777  0.0878
  138MOL0     C18955   9.987   8.777   5.025 -0.3779 -0.4643 -0.1923
  138MOL0     C18956   9.862   8.722   5.051  0.4603  0.4408  0.1795
  138MOL0     N18957   9.283   8.897   4.988  0.1271  0.1264 -0.2215
  138MOL0     N18958   9.333   8.988   4.922 -0.7674 -0.5510  0.0395
  138MOL0     C18959  10.565   9.364   4.803  0.4914  0.0034 -0.1974
  138MOL0     C18960  10.688   9.394   4.865  0.3510 -0.5871  0.4218
  138MOL0     C18961  11.154   9.337   4.933  0.3118 -0.4576  0.0403
  138MOL0     C18962  11.136   9.431   5.038  0.1436 -0.0402  1.0168
  138MOL0     C18963  11.244   9.472   5.117 -0.7475  1.4068 -0.8814
  138MOL0     C18964  11.370   9.404   5.105  0.4608 -0.7315 -0.4851
  138MOL0     O18965  11.472   9.433   5.190 -0.1356  0.1820 -0.1137
  138MOL0     C18966  11.528   9.560   5.165  0.6955 -0.4531 -0.4583
  138MOL0     C18967  11.599   9.610   5.297  0.2059  0.2918  0.0389
  138MOL0     C18968  11.512   9.599   5.423  0.0171 -0.0542  0.0743
  138MOL0     C18969  11.590   9.662   5.540  0.1994 -0.5917 -0.7729
  138MOL0     C18970  11.712   9.588   5.577 -0.7243 -0.4024 -0.6381
  138MOL0     C18971  11.815   9.527   5.599 -0.7765 -0.3753 -0.2388
  138MOL0     C18972  11.380   9.300   5.024 -0.2758 -0.7172 -0.2848
  138MOL0     C18973  11.281   9.272   4.924  0.7260 -0.0831  0.3187
  138MOL0     C18974  11.312   9.168   4.830 -0.7672  0.3755 -0.0044
  138MOL0     H18975  10.882   9.362   4.589  0.0739 -0.3048 -0.1909
  138MOL0     H18976  10.676   9.309   4.489  0.9817 -0.4482  0.7793
  138MOL0     H18977  10.305   9.380   4.736 -0.4153 -0.0188 -0.7858
  138MOL0     H18978  10.347   9.207   4.762  0.1504  0.5517  1.7413
  138MOL0     H18979  10.144   9.326   4.564 -2.1702 -1.0012  2.1172
  138MOL0     H18980  10.213   9.167   4.529  0.6563  1.1588 -0.6497
  138MOL0     H18981  10.001   9.128   4.620 -0.2748  0.4320  0.2156
  138MOL0     H18982  10.126   9.078   4.748 -0.5455  1.3674  2.8814
  138MOL0     H18983  10.086   9.295   4.859 -0.9042  1.6049 -0.5861
  138MOL0     H18984   9.966   9.327   4.736  1.9954  2.0511 -0.0001
  138MOL0     H18985   9.884   9.222   4.955 -0.8514 -0.5349 -0.6328
  138MOL0     H18986   9.948   9.063   4.899 -2.0231  0.2697  1.5969
  138MOL0     H18987   9.738   9.241   4.807 -1.1979 -0.6698  0.7847
  138MOL0     H18988   9.799   9.126   4.687 -0.1337 -2.2065  0.3658
  138MOL0     H18989   9.706   9.061   4.968 -0.2338 -2.4000  1.1117
  138MOL0     H18990   9.728   8.950   4.827  1.0914  0.9651 -0.3227
  138MOL0     H18991   9.498   9.144   4.842 -0.7651 -0.3096  2.1663
  138MOL0     H18992   9.542   9.026   4.715  2.5953  2.1301 -0.0999
  138MOL0     H18993   9.578   8.769   4.917 -0.5681 -1.4639 -0.3336
  138MOL0     H18994   9.410   8.580   4.977  0.2469  1.2131 -0.7035
  138MOL0     H18995   9.249   8.618   5.029 -0.1246  0.3667 -0.2952
  138MOL0     H18996   9.433   8.757   5.224 -3.3551  2.1403 -0.2389
  138MOL0     H18997   9.301   8.648   5.255  0.3642  0.2469  0.6668
  138MOL0     H18998   9.491   8.557   5.339  0.0830 -1.1657  0.0127
  138MOL0     H18999   9.452   8.461   5.196  1.6871 -0.8385  0.2613
  138MOL0     H19000   9.705   8.515   5.239  1.5010  1.3840 -0.0152
  138MOL0     H19001   9.630   8.525   5.077 -1.1135 -2.5237  0.7962
  138MOL0     H19002   9.745   8.933   5.278 -1.8298 -2.1477 -0.3050
  138MOL0     H19003   9.883   9.092   5.347 -1.5338 -0.3519 -0.9469
  138MOL0     H19004   9.958   9.170   5.201  1.3694 -0.3931 -0.0796
  138MOL0     H19005  10.050   9.076   5.320 -0.6006 -1.5447  0.8254
  138MOL0     H19006  10.427   8.679   5.105 -1.0025  0.3335 -0.2642
  138MOL0     H19007  10.683   8.693   5.059  0.5092  0.5478  2.5782
  138MOL0     H19008  10.839   9.084   4.940  1.7267  1.4124  0.2460
  138MOL0     H19009  10.854   8.998   5.093  5.2719  0.2273  0.5792
  138MOL0     H19010  11.032   8.961   4.861  2.7595 -1.0159 -0.2109
  138MOL0     H19011  11.061   9.066   5.001  0.0925  1.5329 -0.6164
  138MOL0     H19012  11.082   8.769   4.962 -5.3796  0.5562 -1.5828
  138MOL0     H19013  11.028   8.820   5.129 -0.2885 -1.9536 -0.2605
  138MOL0     H19014  11.294   8.882   4.981 -0.6242 -1.1866 -0.7825
  138MOL0     H19015  11.277   8.769   5.100 -0.9426 -0.6856 -0.9163
  138MOL0     H19016  11.244   9.074   5.132 -2.3575  0.0012  1.9503
  138MOL0     H19017  11.222   8.962   5.265  0.8931 -0.2533  0.1021
  138MOL0     H19018  11.480   9.010   5.094 -0.2852 -2.3853 -0.5640
  138MOL0     H19019  11.458   8.883   5.228 -0.1617  1.0920  2.7084
  138MOL0     H19020  11.425   9.056   5.391  2.0370 -2.6031  0.0488
  138MOL0     H19021  11.400   9.181   5.266  2.0917  0.9173 -0.5863
  138MOL0     H19022  11.602   9.228   5.355 -2.1528 -0.6467  1.3520
  138MOL0     H19023  11.652   9.146   5.210  1.2603 -0.6174 -0.1735
  138MOL0     H19024  10.614   9.073   4.866  2.7526  0.0223 -0.2990
  138MOL0     H19025  10.380   9.064   4.936 -1.0325 -2.0646  0.1101
  138MOL0     H19026  10.056   8.713   4.970  1.3373 -0.4443  1.8017
  138MOL0     H19027   9.838   8.628   5.002  0.2265 -0.8573  2.6407
  138MOL0     H19028  10.481   9.364   4.871  0.4792 -2.8395 -0.0780
  138MOL0     H19029  10.708   9.419   4.968  3.0347 -2.5082  0.4713
  138MOL0     H19030  11.048   9.492   5.058  0.4043  0.6326  0.1915
  138MOL0     H19031  11.235   9.550   5.192  2.3412  2.0313 -1.0240
  138MOL0     H19032  11.601   9.561   5.084  0.5665  1.9935 -0.6320
  138MOL0     H19033  11.447   9.626   5.133 -1.4401 -0.6549  3.8303
  138MOL0     H19034  11.610   9.718   5.287  0.1011  0.3196  0.2317
  138MOL0     H19035  11.688   9.549   5.314 -1.3377 -2.0947  0.1186
  138MOL0     H19036  11.413   9.643   5.405  0.7343  0.4229 -3.3080
  138MOL0     H19037  11.492   9.496   5.455 -2.2659  0.9122  2.1259
  138MOL0     H19038  11.524   9.672   5.627 -1.1699 -0.2097 -1.8196
  138MOL0     H19039  11.624   9.763   5.515  1.2199  0.2467  3.2429
  138MOL0     H19040  11.911   9.478   5.598 -1.1377 -1.0959 -0.8682
  138MOL0     H19041  11.472   9.243   5.028 -0.6122 -1.2525 -0.0170
  138MOL0     H19042  11.259   9.074   4.849 -0.5318 -0.5031 -3.0849
  138MOL0     H19043  11.286   9.203   4.729 -1.0414 -2.0533 -0.8422
  138MOL0     H19044  11.419   9.148   4.835 -0.8619 -0.0686  0.3011
  139MOL0     O19045   9.445   8.796   9.935  0.2705 -0.1891  0.0225
  139MOL0     C19046   9.438   8.908   9.887 -0.5302  0.3218  0.0218
  139MOL0     O19047   9.524   9.011   9.901 -0.0960  0.1262  0.2369
  139MOL0     C19048   9.603   8.994  10.002  0.0929 -0.0172 -0.0444
  139MOL0     C19049   9.560   9.040  10.130  0.0136  0.1603 -0.4281
  139MOL0     C19050   9.633   8.990  10.241  0.5183 -0.4910 -0.5986
  139MOL0     C19051   9.750   8.924  10.229  0.4871  0.9431 -0.1361
  139MOL0     O19052   9.826   8.892  10.341 -0.6703 -0.9093  0.0563
  139MOL0     C19053   9.783   8.792  10.435 -0.0200  0.2467 -0.1793
  139MOL0     C19054   9.897   8.712  10.504 -0.1080 -0.0295  0.2282
  139MOL0     C19055   9.984   8.798  10.600 -1.3433 -0.4811  0.1463
  139MOL0     C19056  10.080   8.705  10.688 -0.1209  0.3724  0.3808
  139MOL0     C19057  10.178   8.788  10.769 -0.6335  0.0880 -0.0994
  139MOL0     C19058  10.129   8.893  10.871  0.4503 -0.3061  0.1146
  139MOL0     C19059  10.001   8.842  10.953  0.3420 -0.9717 -0.8293
  139MOL0     C19060  10.027   8.739  11.059  0.4728  0.0758  0.2282
  139MOL0     N19061  10.093   8.799  11.172  0.0679 -0.0513 -0.1538
  139MOL0     C19062  10.203   8.745  11.221 -0.1138  0.1415  0.6442
  139MOL0     C19063  10.233   8.814  11.335 -0.1519 -0.2750  0.4691
  139MOL0     C19064  10.339   8.767  11.433  0.6102 -0.4489  0.8966
  139MOL0     C19065  10.476   8.752  11.368  0.1742  0.0708  0.5725
  139MOL0     C19066  10.555   8.889  11.343 -0.2855 -0.6194 -0.4911
  139MOL0     C19067  10.703   8.869  11.308 -0.0207 -0.3784 -0.5263
  139MOL0     O19068  10.761   8.998  11.284  0.6087  0.2273 -0.3874
  139MOL0     C19069  10.891   9.005  11.315  0.0817 -0.8905 -0.8716
  139MOL0     C19070  10.990   9.026  11.215  0.0546 -0.6907  0.0523
  139MOL0     C19071  11.117   9.057  11.252  0.0330 -0.0792 -0.6169
  139MOL0     C19072  11.211   9.060  11.136 -0.1627 -0.2040 -0.5794
  139MOL0     C19073  11.144   9.099  11.385 -0.4438  0.3262  0.0802
  139MOL0     C19074  11.286   9.124  11.439  0.2520  0.1911  0.4741
  139MOL0     O19075  11.293   9.208  11.544  0.6848 -0.4001 -0.1632
  139MOL0     C19076  11.421   9.213  11.598 -0.3541  0.7780 -0.4815
  139MOL0     C19077  11.483   9.105  11.663  0.2663 -0.3551  0.5006
  139MOL0     C19078  11.610   9.114  11.712 -0.0477 -0.4709 -0.7138
  139MOL0     C19079  11.684   9.230  11.720 -0.8893  0.4850 -0.2805
  139MOL0     O19080  11.819   9.230  11.764  0.5010  0.7324  0.4169
  139MOL0     C19081  11.867   9.356  11.807  0.0593  0.4288 -0.8063
  139MOL0     C19082  12.009   9.337  11.864 -1.1639 -0.2339  0.2020
  139MOL0     C19083  12.006   9.258  11.994 -0.8047 -0.2544 -0.0367
  139MOL0     C19084  12.145   9.237  12.055 -0.0835 -0.0119  0.0938
  139MOL0     C19085  12.135   9.134  12.168  0.0536  0.0287 -0.3126
  139MOL0     C19086  12.266   9.127  12.249  0.2631  0.3098  0.2667
  139MOL0     C19087  12.269   9.010  12.353  0.5074  0.1076  0.2784
  139MOL0     C19088  12.178   9.030  12.474 -0.2732 -0.0806 -0.1067
  139MOL0    Cl19089  12.198   9.195  12.545 -0.1698 -0.6378  0.4210
  139MOL0     C19090  11.622   9.343  11.655 -0.1296 -0.5847 -1.1497
  139MOL0     C19091  11.500   9.329  11.592 -0.4704 -0.4612  0.0977
  139MOL0     O19092  11.381   9.065  11.379  0.2244 -1.0667  0.1749
  139MOL0     C19093  11.047   9.073  11.484  0.0079  0.1406 -0.3439
  139MOL0     C19094  10.924   9.031  11.447  0.2014 -0.1254 -0.1721
  139MOL0     N19095  10.138   8.924  11.344 -0.2235  0.5320 -0.3266
  139MOL0     N19096  10.052   8.909  11.243 -0.5520 -0.3197 -0.8097
  139MOL0     C19097   9.805   8.897  10.103 -0.0455 -0.9214  0.1955
  139MOL0     C19098   9.730   8.938   9.992  0.0292 -0.6461 -0.0575
  139MOL0     C19099   9.330   8.923   9.785  0.1607 -0.4095  0.1907
  139MOL0     C19100   9.343   9.043   9.710 -0.2952 -0.3730  0.5873
  139MOL0     C19101   9.255   9.073   9.608 -0.2375 -0.7480 -0.2520
  139MOL0     C19102   9.151   8.991   9.578 -0.3528 -0.8125  0.2657
  139MOL0     O19103   9.075   9.026   9.464 -0.0315  0.4317  0.4873
  139MOL0     C19104   8.953   8.955   9.456 -0.8224  0.1034  0.3728
  139MOL0     C19105   8.900   8.971   9.318  0.4831 -0.1880 -0.2392
  139MOL0     C19106   8.988   8.881   9.223  0.3121  0.6945 -0.6422
  139MOL0     C19107   8.937   8.878   9.083  0.6556 -1.3320  0.1324
  139MOL0     C19108   8.907   9.007   9.021 -0.4493  0.0980  0.6116
  139MOL0     C19109   8.895   9.119   8.979  0.3763 -0.4319  0.0934
  139MOL0     C19110   9.131   8.877   9.658  0.3689  0.3319 -0.5045
  139MOL0     C19111   9.214   8.845   9.763  0.9618 -0.7934  0.1421
  139MOL0     C19112   9.175   8.721   9.843 -0.7817 -0.2148 -0.3951
  139MOL0     H19113   9.468   9.096  10.137  1.2209  2.0727  1.7038
  139MOL0     H19114   9.593   9.014  10.339 -2.5738 -1.5242 -1.5106
  139MOL0     H19115   9.714   8.720  10.391 -1.3773  1.8128 -0.7004
  139MOL0     H19116   9.732   8.847  10.514  2.2902  1.3241  0.6389
  139MOL0     H19117   9.859   8.622  10.554  1.5764 -0.0129  1.6600
  139MOL0     H19118   9.951   8.657  10.426  0.6645  0.3375  0.4906
  139MOL0     H19119  10.047   8.863  10.539  1.6775 -2.8718  0.4656
  139MOL0     H19120   9.929   8.863  10.668 -1.0721  0.3209 -0.3925
  139MOL0     H19121  10.024   8.641  10.757  1.9152 -1.8156  0.1542
  139MOL0     H19122  10.144   8.647  10.621  0.6511  1.8868 -0.2369
  139MOL0     H19123  10.227   8.856  10.699 -0.4459  1.0626  0.9487
  139MOL0     H19124  10.248   8.719  10.816 -1.3745  0.7899  2.1741
  139MOL0     H19125  10.207   8.926  10.941 -1.4403  2.0099  1.2908
  139MOL0     H19126  10.094   8.980  10.815 -1.2856 -0.8938  0.2289
  139MOL0     H19127   9.916   8.815  10.889 -0.1669 -0.5667 -0.3322
  139MOL0     H19128   9.967   8.926  11.014  2.0886 -0.4290 -0.5474
  139MOL0     H19129   9.927   8.698  11.078  0.0371 -0.2984 -2.3936
  139MOL0     H19130  10.084   8.657  11.013 -1.2952 -0.2547 -1.5516
  139MOL0     H19131  10.247   8.657  11.174  2.6634  3.1410 -2.9432
  139MOL0     H19132  10.305   8.667  11.462 -1.9565  0.1925  0.3880
  139MOL0     H19133  10.341   8.830  11.522 -2.9480 -0.9648  1.5008
  139MOL0     H19134  10.537   8.680  11.422 -0.7210 -2.8338 -2.0118
  139MOL0     H19135  10.461   8.710  11.268 -0.5081  0.3349  0.5611
  139MOL0     H19136  10.501   8.958  11.277  2.8088  1.3757 -1.1674
  139MOL0     H19137  10.562   8.941  11.439  3.3047 -2.1804  0.2657
  139MOL0     H19138  10.744   8.819  11.396 -1.7322  2.2145  1.9414
  139MOL0     H19139  10.708   8.796  11.227  2.1975  0.4533 -1.2088
  139MOL0     H19140  10.963   9.009  11.111  2.4661  0.2315 -0.7760
  139MOL0     H19141  11.154   9.074  11.044  0.4905 -1.5608 -1.2103
  139MOL0     H19142  11.261   8.962  11.139 -0.9972 -0.6424  1.9193
  139MOL0     H19143  11.279   9.141  11.159 -0.1643  0.1713 -1.8418
  139MOL0     H19144  11.438   9.006  11.665  0.7545 -0.6664 -1.5521
  139MOL0     H19145  11.648   9.019  11.748 -1.0901 -0.3804  0.7098
  139MOL0     H19146  11.860   9.427  11.725  3.8610  0.4993 -1.2572
  139MOL0     H19147  11.805   9.396  11.888 -1.0256 -1.5488 -0.6059
  139MOL0     H19148  12.079   9.286  11.797 -2.2579 -0.5018 -0.7738
  139MOL0     H19149  12.053   9.436  11.880 -1.5878 -0.3962  2.8031
  139MOL0     H19150  11.975   9.155  11.973  0.5963 -0.4284 -1.3923
  139MOL0     H19151  11.945   9.309  12.069 -0.3728 -0.6229  0.5745
  139MOL0     H19152  12.184   9.329  12.099 -0.6771  0.4353 -0.2884
  139MOL0     H19153  12.212   9.204  11.975  1.6250  0.4443  1.2913
  139MOL0     H19154  12.058   9.165  12.240 -0.7611 -0.0674 -1.1356
  139MOL0     H19155  12.113   9.035  12.130 -0.5419 -0.1913  0.5610
  139MOL0     H19156  12.288   9.214  12.311  0.3518  0.0717  0.5701
  139MOL0     H19157  12.351   9.113  12.181  0.0525 -0.7157  0.1945
  139MOL0     H19158  12.375   9.010  12.381  0.5122  3.1590  0.6177
  139MOL0     H19159  12.244   8.918  12.299  1.5215  0.3087 -0.5624
  139MOL0     H19160  12.200   8.952  12.548  0.4767 -1.7316 -1.9672
  139MOL0     H19161  12.075   9.017  12.439 -0.1907 -0.0847 -0.3477
  139MOL0     H19162  11.677   9.436  11.644 -0.3160 -0.0759  1.4487
  139MOL0     H19163  11.459   9.411  11.534  1.5474  0.5714  0.0223
  139MOL0     H19164  11.063   9.093  11.590 -0.6076  0.2408 -0.2653
  139MOL0     H19165  10.848   9.015  11.523  0.3611 -2.6794 -0.4663
  139MOL0     H19166   9.904   8.852  10.103  1.5033  2.0718  3.1098
  139MOL0     H19167   9.775   8.918   9.895 -1.9385 -1.1484 -0.9221
  139MOL0     H19168   9.427   9.109   9.727 -0.8820  0.3424  0.7756
  139MOL0     H19169   9.266   9.167   9.554 -0.7265 -1.6178 -1.9331
  139MOL0     H19170   8.957   8.848   9.475  1.3586 -0.2235 -1.4586
  139MOL0     H19171   8.882   8.991   9.531 -0.4363 -1.3682  1.4743
  139MOL0     H19172   8.895   9.078   9.295 -1.9511 -0.2731 -0.4359
  139MOL0     H19173   8.794   8.943   9.325  0.3419  0.5553  0.9877
  139MOL0     H19174   9.096   8.900   9.227  0.2268  1.0844  0.0291
  139MOL0     H19175   8.977   8.778   9.260 -1.7731  1.1205  0.0659
  139MOL0     H19176   8.849   8.814   9.067 -1.0597  1.1580 -0.9123
  139MOL0     H19177   9.018   8.827   9.029  2.3945 -0.6103  1.9198
  139MOL0     H19178   8.897   9.222   8.950 -0.3704 -0.2131  0.8122
  139MOL0     H19179   9.038   8.821   9.647 -0.9253  1.6182  2.6626
  139MOL0     H19180   9.208   8.733   9.947  1.8303 -1.7098 -0.9567
  139MOL0     H19181   9.067   8.705   9.849 -0.6325 -1.2605 -0.3814
  139MOL0     H19182   9.238   8.644   9.798  0.7798  0.3294  0.7569
  140MOL0     O19183   4.650   0.997   7.902 -0.3794 -0.1032 -0.2120
  140MOL0     C19184   4.605   0.883   7.876 -0.0666 -0.2239 -0.1240
  140MOL0     O19185   4.680   0.778   7.843  0.0285  0.3834  0.9448
  140MOL0     C19186   4.815   0.786   7.817 -0.5629  0.5418 -0.2719
  140MOL0     C19187   4.882   0.664   7.827 -0.0267  1.0676  0.2365
  140MOL0     C19188   5.015   0.656   7.807 -0.3160 -0.2130  0.7139
  140MOL0     C19189   5.092   0.766   7.770  0.1689 -0.2871  0.8101
  140MOL0     O19190   5.220   0.766   7.751  0.0859  0.7426  0.2303
  140MOL0     C19191   5.253   0.742   7.610 -0.1101  0.3228 -0.2827
  140MOL0     C19192   5.309   0.605   7.589  0.4984 -0.2687 -0.3354
  140MOL0     C19193   5.452   0.604   7.652  1.0798 -0.1917  0.3031
  140MOL0     C19194   5.531   0.498   7.578 -0.0544  0.2658  0.0457
  140MOL0     C19195   5.680   0.486   7.624 -0.3449 -0.1739 -0.2022
  140MOL0     C19196   5.734   0.360   7.567  0.1731  0.1976 -0.2270
  140MOL0     C19197   5.886   0.324   7.610  0.6508  0.7085 -0.1010
  140MOL0     C19198   5.980   0.386   7.517 -0.6652 -0.6434  1.1427
  140MOL0     N19199   6.102   0.302   7.539  0.3942 -0.4114  0.1651
  140MOL0     C19200   6.188   0.321   7.640 -0.7164  1.1660 -0.3120
  140MOL0     C19201   6.295   0.247   7.610  0.0659  0.0769  0.1095
  140MOL0     C19202   6.422   0.226   7.686  0.3977 -0.2189 -0.2728
  140MOL0     C19203   6.557   0.214   7.608  0.7647  0.0410  0.3285
  140MOL0     C19204   6.666   0.187   7.710 -0.2501  0.4340  0.1988
  140MOL0     C19205   6.791   0.142   7.633 -0.2608  0.1564  0.2121
  140MOL0     O19206   6.848   0.245   7.555  0.5365 -0.2816  0.0103
  140MOL0     C19207   6.966   0.221   7.492  0.8298 -0.6373 -0.7159
  140MOL0     C19208   7.017   0.329   7.420 -0.1510 -0.4088  0.3137
  140MOL0     C19209   7.124   0.321   7.339 -0.0845 -0.3851 -0.2093
  140MOL0     C19210   7.164   0.454   7.272 -0.3610 -0.1181  0.6277
  140MOL0     C19211   7.191   0.200   7.316  0.2567 -0.0733  0.4740
  140MOL0     C19212   7.301   0.184   7.226  0.0611  0.6312 -0.0081
  140MOL0     O19213   7.412   0.116   7.280 -1.0654  0.0622 -0.5197
  140MOL0     C19214   7.509   0.073   7.199  0.3780 -0.9117 -0.6959
  140MOL0     C19215   7.587   0.170   7.129  0.5490  0.3012 -0.3751
  140MOL0     C19216   7.697   0.125   7.050  0.3342  0.5382  0.4915
  140MOL0     C19217   7.721  -0.015   7.038  0.7538 -0.4083 -0.7528
  140MOL0     O19218   7.810  -0.063   6.946 -1.0582 -0.2360  0.2027
  140MOL0     C19219   7.864   0.029   6.845  0.4852  0.4683 -0.8099
  140MOL0     C19220   7.952  -0.043   6.752  0.1261 -0.8317  0.4075
  140MOL0     C19221   7.977   0.021   6.614  0.1268 -0.0342  1.1292
  140MOL0     C19222   8.088  -0.053   6.535  0.8170 -0.0494 -0.3708
  140MOL0     C19223   8.107  -0.004   6.392  0.4608 -0.2950 -0.8894
  140MOL0     C19224   8.150   0.139   6.384 -0.7296  0.0335  0.7888
  140MOL0     C19225   8.178   0.180   6.245  0.5052 -0.2776  0.7164
  140MOL0     C19226   8.052   0.258   6.192  0.1436  0.4732  0.2213
  140MOL0    Cl19227   7.921   0.160   6.116  0.4160 -0.3052 -0.0254
  140MOL0     C19228   7.651  -0.110   7.111 -0.4692  0.3004 -0.3992
  140MOL0     C19229   7.542  -0.062   7.191 -0.0574 -0.1572 -0.0060
  140MOL0     O19230   7.297   0.232   7.118  0.5425  0.0525 -0.2200
  140MOL0     C19231   7.142   0.092   7.385 -0.3248 -1.0510 -0.2985
  140MOL0     C19232   7.035   0.098   7.475 -1.0924  0.1959  1.0865
  140MOL0     N19233   6.270   0.194   7.481 -0.2802 -0.7052 -0.7470
  140MOL0     N19234   6.153   0.231   7.442 -0.6540  0.2722  0.2939
  140MOL0     C19235   5.033   0.889   7.766  0.2640 -1.0399 -0.3267
  140MOL0     C19236   4.895   0.898   7.780  0.0604  0.2074 -1.0501
  140MOL0     C19237   4.460   0.883   7.866  0.1298  0.5636 -0.3595
  140MOL0     C19238   4.407   0.830   7.749 -0.2641 -0.0276  0.3261
  140MOL0     C19239   4.269   0.817   7.740  0.7609 -0.1259 -0.0360
  140MOL0     C19240   4.181   0.848   7.841  0.2875 -1.1302  0.1552
  140MOL0     O19241   4.058   0.798   7.831  0.0625  0.6342  0.0351
  140MOL0     C19242   3.985   0.770   7.948  0.1783  0.3249 -0.3917
  140MOL0     C19243   3.900   0.644   7.924  0.1431  0.5364 -0.4139
  140MOL0     C19244   3.792   0.681   7.820  0.0128 -0.1296 -0.3020
  140MOL0     C19245   3.707   0.561   7.778  0.0895  0.4077 -0.7856
  140MOL0     C19246   3.788   0.454   7.713 -0.4646  0.1093 -0.2887
  140MOL0     C19247   3.842   0.352   7.676 -0.8872 -0.1307 -0.2429
  140MOL0     C19248   4.235   0.913   7.950  0.4039  0.8541  0.2063
  140MOL0     C19249   4.376   0.926   7.968  0.4137 -0.4973  0.2292
  140MOL0     C19250   4.419   0.996   8.099  0.8571 -0.9906  0.1482
  140MOL0     H19251   4.821   0.579   7.853 -0.3278  0.8625 -1.1148
  140MOL0     H19252   5.059   0.557   7.799 -0.3054 -0.0766 -1.7911
  140MOL0     H19253   5.324   0.817   7.572 -0.4544  0.8168  0.0274
  140MOL0     H19254   5.173   0.747   7.536  1.3815 -1.1312 -2.1143
  140MOL0     H19255   5.239   0.534   7.633  0.8656  0.3916  1.3787
  140MOL0     H19256   5.313   0.585   7.481  2.5045 -2.4495  0.0827
  140MOL0     H19257   5.497   0.704   7.644 -0.6500  0.6019  0.0167
  140MOL0     H19258   5.435   0.571   7.755 -5.3134 -0.1363 -0.3545
  140MOL0     H19259   5.477   0.404   7.592 -0.2469  0.3698  0.0022
  140MOL0     H19260   5.528   0.514   7.470  1.8460 -2.3421 -0.5123
  140MOL0     H19261   5.686   0.494   7.732  1.2849  2.0880 -0.3962
  140MOL0     H19262   5.740   0.566   7.580  0.9233 -1.0138 -0.0241
  140MOL0     H19263   5.672   0.278   7.604 -1.9518  1.8897  0.1583
  140MOL0     H19264   5.736   0.379   7.460 -0.2783  1.2529 -0.0595
  140MOL0     H19265   5.892   0.216   7.596 -1.3959  0.6572 -0.8530
  140MOL0     H19266   5.899   0.343   7.717 -0.7098  0.8050  0.0602
  140MOL0     H19267   5.960   0.366   7.412  1.2398 -1.0930  0.8173
  140MOL0     H19268   5.984   0.496   7.524  0.0137 -0.3845 -1.9229
  140MOL0     H19269   6.169   0.379   7.730 -1.0617 -0.1872  0.5220
  140MOL0     H19270   6.417   0.131   7.740 -0.2302 -0.7741 -1.2685
  140MOL0     H19271   6.434   0.313   7.751  0.6277  0.5876 -1.3606
  140MOL0     H19272   6.541   0.142   7.527  0.5681  0.0691  0.3411
  140MOL0     H19273   6.581   0.303   7.548  1.1332 -1.0028 -1.1298
  140MOL0     H19274   6.673   0.272   7.779 -1.0747 -0.1986  1.0898
  140MOL0     H19275   6.643   0.109   7.783 -2.8082  1.9564  1.1696
  140MOL0     H19276   6.866   0.117   7.708 -1.0077  1.0221  1.2822
  140MOL0     H19277   6.770   0.051   7.575 -2.3796  1.2205 -0.8006
  140MOL0     H19278   6.977   0.427   7.445 -0.2248 -0.3400 -0.0738
  140MOL0     H19279   7.098   0.475   7.188 -0.1766 -1.0934  0.2170
  140MOL0     H19280   7.266   0.440   7.235  0.0190 -0.7852  1.8716
  140MOL0     H19281   7.167   0.540   7.340 -1.5019 -0.0370  0.5828
  140MOL0     H19282   7.565   0.276   7.133  3.1425  0.8979 -0.0408
  140MOL0     H19283   7.752   0.201   6.996 -0.1647  2.3390  2.3898
  140MOL0     H19284   7.773   0.050   6.788 -0.2034 -2.5946 -1.0162
  140MOL0     H19285   7.909   0.116   6.895  1.9341 -0.2458 -0.8232
  140MOL0     H19286   8.052  -0.060   6.793  0.4937 -2.2785 -0.9876
  140MOL0     H19287   7.900  -0.136   6.732 -1.4340  0.1324 -0.1937
  140MOL0     H19288   8.019   0.120   6.633  2.0732 -0.5910  0.0502
  140MOL0     H19289   7.882   0.018   6.559  0.0091 -0.1248  1.3389
  140MOL0     H19290   8.071  -0.161   6.541  0.2777  0.0895  0.9380
  140MOL0     H19291   8.183  -0.030   6.585  0.8599 -1.5839  0.3141
  140MOL0     H19292   8.167  -0.079   6.341 -0.9231 -2.1585  0.1271
  140MOL0     H19293   8.007  -0.010   6.348 -0.6327  1.4834  1.1368
  140MOL0     H19294   8.240   0.152   6.444 -1.6760 -0.5644  2.4097
  140MOL0     H19295   8.083   0.204   6.442 -0.0339  0.7307  0.8257
  140MOL0     H19296   8.204   0.087   6.193 -0.2663 -0.7146  1.0945
  140MOL0     H19297   8.267   0.244   6.235  0.5725 -0.2305  1.5300
  140MOL0     H19298   8.083   0.337   6.123 -1.1844  1.1444  0.3514
  140MOL0     H19299   8.018   0.313   6.281  1.3820  0.7400  0.5563
  140MOL0     H19300   7.663  -0.218   7.110  0.6712  0.3883  1.0508
  140MOL0     H19301   7.471  -0.133   7.232  1.1545 -1.1612  0.4010
  140MOL0     H19302   7.200   0.000   7.382  0.4616 -0.6243  0.9336
  140MOL0     H19303   7.015   0.005   7.528  0.5053 -1.2103 -0.6268
  140MOL0     H19304   5.089   0.981   7.756 -2.8438  1.3341  2.1399
  140MOL0     H19305   4.853   0.998   7.774 -0.3035  0.0407 -1.2989
  140MOL0     H19306   4.475   0.807   7.668 -1.8529 -1.9084 -0.5599
  140MOL0     H19307   4.221   0.801   7.644  1.1840  1.0553 -0.4669
  140MOL0     H19308   4.047   0.757   8.037  0.8712  1.1104 -0.7502
  140MOL0     H19309   3.920   0.858   7.954 -3.6182 -2.1653 -1.6699
  140MOL0     H19310   3.840   0.604   8.006 -0.1658 -3.7096 -2.4302
  140MOL0     H19311   3.967   0.563   7.894 -0.5175 -0.2253  0.1272
  140MOL0     H19312   3.721   0.752   7.863 -0.3770 -2.2082  2.8818
  140MOL0     H19313   3.838   0.737   7.739 -2.4256  5.1429  1.4772
  140MOL0     H19314   3.631   0.587   7.704 -1.2092  1.1863  0.7509
  140MOL0     H19315   3.658   0.520   7.866 -1.1235  0.2754 -1.5060
  140MOL0     H19316   3.885   0.257   7.648 -3.3406 -1.4620  0.2206
  140MOL0     H19317   4.170   0.943   8.031 -1.3097  0.0418 -0.8269
  140MOL0     H19318   4.344   1.007   8.179  0.9328  1.5393 -0.0539
  140MOL0     H19319   4.507   0.945   8.140  0.0817 -1.8675  0.7720
  140MOL0     H19320   4.447   1.097   8.070 -0.8033  0.1797  2.3101
  141MOL0     O19321   2.621   9.360   2.355  0.5189 -0.0032  0.1493
  141MOL0     C19322   2.568   9.419   2.450 -0.2205 -0.4207 -0.1773
  141MOL0     O19323   2.612   9.423   2.579 -0.0000  0.9410 -0.2851
  141MOL0     C19324   2.726   9.357   2.611 -0.3060 -0.0341 -0.0342
  141MOL0     C19325   2.842   9.430   2.616 -0.2010  0.2929  0.2888
  141MOL0     C19326   2.958   9.374   2.666  0.2492  0.5834  0.6699
  141MOL0     C19327   2.966   9.252   2.727 -0.0309  0.3790 -0.0671
  141MOL0     O19328   3.073   9.198   2.792 -0.0414  0.9871  0.6670
  141MOL0     C19329   3.076   9.223   2.934 -0.5431  0.0594  0.0245
  141MOL0     C19330   3.172   9.140   3.020 -0.0045 -0.4656  0.3082
  141MOL0     C19331   3.322   9.157   2.981  1.5560 -0.1509 -0.0306
  141MOL0     C19332   3.412   9.056   3.055 -0.0494  0.2219 -0.2774
  141MOL0     C19333   3.562   9.096   3.044  0.5039 -0.4068 -0.4234
  141MOL0     C19334   3.609   9.088   2.894 -0.6790 -0.7772 -0.3215
  141MOL0     C19335   3.755   9.136   2.863 -0.2253 -0.2328  0.0682
  141MOL0     C19336   3.864   9.032   2.904  0.3199 -0.9341  0.4599
  141MOL0     N19337   3.995   9.069   2.848 -0.1178 -0.3242 -0.2892
  141MOL0     C19338   4.025   9.059   2.716 -0.4829  0.0447  0.4853
  141MOL0     C19339   4.143   9.126   2.712 -0.3169 -0.2981  0.2226
  141MOL0     C19340   4.213   9.150   2.577 -0.2407  0.1880 -0.0323
  141MOL0     C19341   4.337   9.056   2.571  0.0579 -0.3143 -0.1065
  141MOL0     C19342   4.289   8.921   2.526  0.2491 -0.4991  0.2400
  141MOL0     C19343   4.402   8.837   2.483 -0.3532  0.9361  0.1709
  141MOL0     O19344   4.455   8.889   2.355  0.1658 -0.3016 -0.6689
  141MOL0     C19345   4.591   8.895   2.350 -0.6457  0.7282 -0.2372
  141MOL0     C19346   4.673   8.976   2.437 -0.3857  0.5582  0.2005
  141MOL0     C19347   4.812   8.976   2.433  0.8897  0.1767 -0.2532
  141MOL0     C19348   4.878   9.065   2.533 -0.6751  0.5566  0.4809
  141MOL0     C19349   4.878   8.896   2.334  0.2603 -0.8908  0.0082
  141MOL0     C19350   5.028   8.900   2.314 -0.3444 -0.1882 -0.2338
  141MOL0     O19351   5.086   8.788   2.250  0.3615 -0.5516  0.4683
  141MOL0     C19352   5.222   8.765   2.243  0.3915 -0.5922 -0.1931
  141MOL0     C19353   5.260   8.667   2.149  0.6946 -0.4672  0.8079
  141MOL0     C19354   5.400   8.642   2.126  0.7783  0.0910 -0.1855
  141MOL0     C19355   5.494   8.714   2.201  0.7834  0.1689 -0.0281
  141MOL0     O19356   5.634   8.686   2.171 -0.0411 -0.4281 -0.4707
  141MOL0     C19357   5.665   8.619   2.044 -0.5123 -0.0677 -0.0443
  141MOL0     C19358   5.818   8.621   2.030  0.3668  0.7297 -0.8832
  141MOL0     C19359   5.871   8.766   2.001  1.1065 -0.6329  0.0791
  141MOL0     C19360   5.838   8.814   1.862 -0.9937 -0.6566  0.4029
  141MOL0     C19361   5.908   8.951   1.841 -0.0258  0.0183  0.6650
  141MOL0     C19362   5.890   9.016   1.708 -0.1406 -0.3973 -0.3350
  141MOL0     C19363   5.967   8.963   1.588  0.0709 -0.3360  0.2685
  141MOL0     C19364   5.935   9.046   1.466  0.4792  0.0812  0.4806
  141MOL0    Cl19365   6.014   9.204   1.489  0.0018 -0.3009 -0.5961
  141MOL0     C19366   5.453   8.802   2.296  0.7526 -0.4457  0.2855
  141MOL0     C19367   5.319   8.827   2.318  0.7444 -1.3734  0.6747
  141MOL0     O19368   5.086   8.998   2.356 -0.2732  0.3150 -0.4476
  141MOL0     C19369   4.793   8.822   2.251 -0.3005  0.8496  0.3639
  141MOL0     C19370   4.656   8.816   2.256 -0.5445  0.9289  0.3579
  141MOL0     N19371   4.185   9.170   2.838  1.2187  0.4383 -0.0509
  141MOL0     N19372   4.087   9.148   2.917  0.1939  0.5501 -0.0398
  141MOL0     C19373   2.843   9.175   2.726 -0.2792 -1.0805  0.8626
  141MOL0     C19374   2.727   9.232   2.662 -0.3927  0.1654  0.3088
  141MOL0     C19375   2.430   9.480   2.430  0.3002  0.3220  0.0759
  141MOL0     C19376   2.414   9.541   2.303  0.4764 -0.4423  0.2794
  141MOL0     C19377   2.281   9.592   2.272 -0.9248 -0.7346 -0.0824
  141MOL0     C19378   2.167   9.574   2.347  1.2240 -0.8639 -0.2747
  141MOL0     O19379   2.041   9.615   2.306 -0.3257  0.2948  0.0172
  141MOL0     C19380   1.994   9.550   2.185  0.1539 -0.6506 -0.0648
  141MOL0     C19381   1.848   9.574   2.166  0.5575 -0.6737  0.4907
  141MOL0     C19382   1.803   9.525   2.032 -0.1555  0.5307  0.8011
  141MOL0     C19383   1.654   9.554   2.032  0.5928  0.0157 -0.1350
  141MOL0     C19384   1.632   9.690   1.994 -0.9528 -0.2794  0.0268
  141MOL0     C19385   1.632   9.812   1.977  0.9004  0.0790 -0.5783
  141MOL0     C19386   2.185   9.514   2.467 -0.6226  0.6173  0.5549
  141MOL0     C19387   2.313   9.469   2.515 -0.1745 -0.4568 -0.2552
  141MOL0     C19388   2.317   9.427   2.659 -0.3991 -0.1135 -0.3294
  141MOL0     H19389   2.845   9.534   2.585 -0.1644  0.3167  0.3694
  141MOL0     H19390   3.052   9.427   2.667  0.3937  0.7255  5.8893
  141MOL0     H19391   2.975   9.217   2.975 -1.2396 -2.0699 -1.8510
  141MOL0     H19392   3.110   9.327   2.939  1.3541 -0.4977 -0.2995
  141MOL0     H19393   3.166   9.159   3.128  1.4338  3.2290 -0.1101
  141MOL0     H19394   3.140   9.038   2.995  0.9460 -0.7812  0.3121
  141MOL0     H19395   3.326   9.140   2.873  1.0504 -0.5097  0.0021
  141MOL0     H19396   3.353   9.260   3.001 -0.7483  0.5246  0.3850
  141MOL0     H19397   3.389   9.050   3.162  0.0652 -1.3824 -0.3191
  141MOL0     H19398   3.397   8.954   3.019  0.3676 -0.9463  2.5955
  141MOL0     H19399   3.618   9.024   3.105  3.2049  2.1313  0.3485
  141MOL0     H19400   3.584   9.194   3.088  0.5633 -0.9019  0.6689
  141MOL0     H19401   3.598   8.987   2.851  2.2169 -0.9593 -0.8621
  141MOL0     H19402   3.547   9.160   2.840  0.2948 -0.6119 -1.2511
  141MOL0     H19403   3.775   9.232   2.911  0.7602  2.3282 -4.8276
  141MOL0     H19404   3.773   9.167   2.760  0.3718  0.9754  0.5162
  141MOL0     H19405   3.866   9.031   3.013 -0.6242 -3.0536  0.5153
  141MOL0     H19406   3.834   8.934   2.864 -1.6224 -0.8952  1.7200
  141MOL0     H19407   3.977   9.001   2.638  2.7859  0.0058 -1.7072
  141MOL0     H19408   4.234   9.255   2.558  2.4508 -0.7154 -2.9638
  141MOL0     H19409   4.147   9.134   2.491 -1.5203  0.8897  0.7934
  141MOL0     H19410   4.403   9.099   2.495 -0.7014  1.3784  0.1487
  141MOL0     H19411   4.378   9.040   2.671 -0.7063  1.6262  0.5737
  141MOL0     H19412   4.242   8.872   2.612  1.5474  2.0340  2.5394
  141MOL0     H19413   4.213   8.916   2.447 -0.3007  0.0423  0.7290
  141MOL0     H19414   4.484   8.838   2.555  0.7400 -3.2673 -0.7449
  141MOL0     H19415   4.370   8.733   2.472 -1.5372  0.9877  2.5059
  141MOL0     H19416   4.620   9.033   2.514  2.0187  0.9584  1.6612
  141MOL0     H19417   4.804   9.110   2.599 -0.8005  0.3589  0.4761
  141MOL0     H19418   4.929   9.150   2.487  1.3128  0.2674  1.9639
  141MOL0     H19419   4.950   9.008   2.594  1.7098  3.2338  0.3717
  141MOL0     H19420   5.181   8.621   2.090  1.3945 -0.9589  0.2527
  141MOL0     H19421   5.412   8.557   2.059  0.7454 -1.6840  1.9460
  141MOL0     H19422   5.633   8.514   2.041  0.2968 -0.2951 -1.2331
  141MOL0     H19423   5.623   8.674   1.960 -5.3439  1.0056  2.6733
  141MOL0     H19424   5.870   8.578   2.116  1.2365  0.1646 -1.6809
  141MOL0     H19425   5.840   8.558   1.943 -1.9842 -0.3326 -0.7957
  141MOL0     H19426   5.976   8.771   2.029  1.5005 -0.8920 -1.2852
  141MOL0     H19427   5.817   8.841   2.060 -0.9139 -0.9875 -1.2068
  141MOL0     H19428   5.735   8.837   1.833 -0.8581 -0.7956 -0.1954
  141MOL0     H19429   5.880   8.746   1.788 -3.3898 -0.3151 -1.3791
  141MOL0     H19430   5.870   9.020   1.917  0.9131  0.0170  1.1483
  141MOL0     H19431   6.010   8.948   1.880  0.5616  4.3929  0.0029
  141MOL0     H19432   5.919   9.121   1.711 -1.2719 -0.0106 -1.8773
  141MOL0     H19433   5.783   9.022   1.685 -1.0176  0.2908  3.2890
  141MOL0     H19434   5.928   8.862   1.572 -1.0682 -0.1769  1.7718
  141MOL0     H19435   6.076   8.957   1.596 -0.0651 -0.8547  2.5454
  141MOL0     H19436   5.830   9.063   1.441  0.7583  0.5804 -0.3953
  141MOL0     H19437   5.983   8.992   1.384  0.3019  0.4134  0.1558
  141MOL0     H19438   5.532   8.850   2.353 -0.2867  0.9135  0.6405
  141MOL0     H19439   5.289   8.890   2.401 -1.0531 -1.4713  0.1461
  141MOL0     H19440   4.844   8.762   2.177  0.0522  0.7008  0.7237
  141MOL0     H19441   4.601   8.775   2.172  0.1971  1.0143 -0.1843
  141MOL0     H19442   2.846   9.073   2.761 -0.6715 -0.7206  1.9921
  141MOL0     H19443   2.637   9.175   2.643  0.8769 -1.7919 -0.1312
  141MOL0     H19444   2.499   9.552   2.237  2.9487 -0.6166  3.2243
  141MOL0     H19445   2.271   9.637   2.174  0.4695  1.5383  0.7563
  141MOL0     H19446   2.049   9.601   2.106  1.4236  1.1497  1.8696
  141MOL0     H19447   2.018   9.444   2.179  0.6757 -0.4388 -4.0745
  141MOL0     H19448   1.853   9.683   2.166  2.8605 -0.7320  1.4852
  141MOL0     H19449   1.787   9.538   2.250 -1.0755 -2.2006 -1.2392
  141MOL0     H19450   1.855   9.580   1.954 -0.3816 -0.5065 -0.1060
  141MOL0     H19451   1.826   9.419   2.015 -3.1610 -0.9836  4.5451
  141MOL0     H19452   1.605   9.528   2.126 -0.9602 -1.0982 -1.2080
  141MOL0     H19453   1.605   9.495   1.954  3.1155 -3.3121  0.6294
  141MOL0     H19454   1.651   9.916   1.963 -0.1714  0.5033  0.9029
  141MOL0     H19455   2.099   9.507   2.533  0.1207 -4.6579  1.3804
  141MOL0     H19456   2.235   9.468   2.718  1.0468  1.3559  0.7513
  141MOL0     H19457   2.318   9.318   2.663  1.7177 -0.2736 -2.6609
  141MOL0     H19458   2.411   9.459   2.706 -0.5703 -0.3978  0.2118
  142MOL0     O19459   9.108   6.128   2.306 -0.1262 -0.3376  0.2446
  142MOL0     C19460   9.031   6.214   2.256  0.2692  0.9893 -0.1051
  142MOL0     O19461   9.064   6.323   2.194  0.1167 -0.7403  0.9785
  142MOL0     C19462   9.193   6.333   2.149 -0.5779  1.6156 -0.6833
  142MOL0     C19463   9.292   6.417   2.214  0.3681  0.0969 -0.1271
  142MOL0     C19464   9.427   6.424   2.165 -0.5823  0.5519 -0.0983
  142MOL0     C19465   9.458   6.353   2.047 -0.3856 -0.2671  0.0771
  142MOL0     O19466   9.581   6.348   1.987  0.4398  0.3757  0.0504
  142MOL0     C19467   9.666   6.467   1.999  0.1671  0.5726  0.8991
  142MOL0     C19468   9.774   6.466   1.890 -1.2636  0.2936 -0.4439
  142MOL0     C19469   9.871   6.344   1.901  0.2860  0.3215  0.5318
  142MOL0     C19470  10.005   6.372   1.852  0.2515  0.3479 -0.7198
  142MOL0     C19471  10.073   6.235   1.825 -0.5762 -0.3567  0.8387
  142MOL0     C19472  10.126   6.171   1.951 -0.7258 -0.2971 -0.1631
  142MOL0     C19473  10.185   6.033   1.904 -0.0708 -0.6730  0.1827
  142MOL0     C19474  10.297   5.978   1.988 -0.4819  0.2716  0.7228
  142MOL0     N19475  10.424   6.054   1.974  0.0272  0.5085 -0.4127
  142MOL0     C19476  10.465   6.152   2.058 -0.1479  0.0963  0.1653
  142MOL0     C19477  10.587   6.188   2.017 -0.0867 -0.1063 -0.6483
  142MOL0     C19478  10.674   6.295   2.072  0.0820 -0.4924 -0.1307
  142MOL0     C19479  10.718   6.260   2.211  0.7748  0.1231 -0.3734
  142MOL0     C19480  10.784   6.370   2.286 -0.2020  0.4919  0.4066
  142MOL0     C19481  10.923   6.421   2.243  0.4434 -0.8649  0.1542
  142MOL0     O19482  11.012   6.317   2.220  0.2478 -0.2655 -0.6362
  142MOL0     C19483  11.147   6.342   2.200  0.4817 -0.6888  0.7404
  142MOL0     C19484  11.197   6.459   2.140 -0.3448  0.2868  0.4398
  142MOL0     C19485  11.336   6.485   2.128 -0.0918 -0.7223  0.5904
  142MOL0     C19486  11.368   6.634   2.094 -0.3696  0.7331 -0.2811
  142MOL0     C19487  11.426   6.382   2.166  0.3420 -0.4451  0.3471
  142MOL0     C19488  11.568   6.412   2.159 -0.3025 -0.4204  0.4007
  142MOL0     O19489  11.638   6.340   2.250 -0.2701 -0.9063 -0.5557
  142MOL0     C19490  11.774   6.352   2.271  0.3444  0.4360  0.3563
  142MOL0     C19491  11.817   6.316   2.405  0.5289 -0.3461 -0.8680
  142MOL0     C19492  11.952   6.322   2.440 -0.6931  0.1117  0.1280
  142MOL0     C19493  12.042   6.371   2.348  0.5866 -0.0938  0.0402
  142MOL0     O19494  12.176   6.383   2.366 -0.2756  0.7236 -0.5789
  142MOL0     C19495  12.222   6.395   2.505 -0.0078 -0.7754  0.3955
  142MOL0     C19496  12.353   6.463   2.511 -0.1583  0.1345 -0.5114
  142MOL0     C19497  12.407   6.442   2.656  0.2395 -0.5191  0.2366
  142MOL0     C19498  12.510   6.546   2.681  0.6155  0.1262  0.1015
  142MOL0     C19499  12.606   6.498   2.796 -0.0479  0.1834  0.4633
  142MOL0     C19500  12.730   6.582   2.789 -0.0662 -1.2372 -0.9260
  142MOL0     C19501  12.828   6.540   2.905 -0.5244  0.3477  0.0724
  142MOL0     C19502  12.957   6.616   2.901  0.3667 -0.7616  0.4283
  142MOL0    Cl19503  13.076   6.532   3.012  0.1797 -0.0733 -0.0473
  142MOL0     C19504  12.003   6.395   2.215  0.5289 -0.6077 -0.3156
  142MOL0     C19505  11.868   6.396   2.182  0.2381  0.6939 -0.2732
  142MOL0     O19506  11.615   6.479   2.067  0.4339 -0.5179 -0.1610
  142MOL0     C19507  11.372   6.261   2.219  0.9361 -0.0897  0.2496
  142MOL0     C19508  11.234   6.247   2.253  0.0330  0.2494  0.7428
  142MOL0     N19509  10.626   6.109   1.911  0.4392  0.0174  0.4471
  142MOL0     N19510  10.524   6.037   1.881 -0.4967 -0.2500  0.6183
  142MOL0     C19511   9.364   6.265   1.994  0.3670  0.0643 -0.0485
  142MOL0     C19512   9.233   6.263   2.035 -0.0441  1.0721  0.2214
  142MOL0     C19513   8.882   6.201   2.294 -0.3730  0.2599 -0.3586
  142MOL0     C19514   8.796   6.310   2.263 -0.5506 -0.3047 -0.2029
  142MOL0     C19515   8.660   6.302   2.279  0.0019 -0.1971  0.0314
  142MOL0     C19516   8.603   6.196   2.344  0.4764 -0.2599  0.5829
  142MOL0     O19517   8.465   6.188   2.354  0.9316 -0.8301 -0.7758
  142MOL0     C19518   8.399   6.080   2.285 -0.4725  0.4056 -0.6493
  142MOL0     C19519   8.369   6.121   2.148 -0.4690 -0.8064  1.3139
  142MOL0     C19520   8.302   6.259   2.140 -0.4436 -0.4844 -0.8983
  142MOL0     C19521   8.171   6.281   2.216 -0.5272  0.4104 -0.3796
  142MOL0     C19522   8.069   6.174   2.186  0.2019  0.4176 -0.1631
  142MOL0     C19523   7.986   6.081   2.171  0.3708 -0.3057 -0.2595
  142MOL0     C19524   8.690   6.097   2.397  0.0907 -0.4034 -0.3358
  142MOL0     C19525   8.827   6.095   2.380 -0.2307 -0.2315  0.7656
  142MOL0     C19526   8.899   5.975   2.442  0.3810 -0.1648 -0.0683
  142MOL0     H19527   9.260   6.479   2.296 -0.1205 -0.1210 -0.1515
  142MOL0     H19528   9.505   6.479   2.217 -2.1493  5.0885 -2.0642
  142MOL0     H19529   9.713   6.454   2.096 -0.7343  1.4841  1.4744
  142MOL0     H19530   9.607   6.559   1.993  1.8917  1.9049  3.1044
  142MOL0     H19531   9.724   6.470   1.793 -1.4889  2.9773 -0.2981
  142MOL0     H19532   9.830   6.558   1.905 -0.5867 -0.2308  0.3460
  142MOL0     H19533   9.882   6.312   2.005 -0.4328 -2.1525 -0.0762
  142MOL0     H19534   9.828   6.256   1.852  2.0278 -1.0629  1.3669
  142MOL0     H19535   9.996   6.433   1.762 -1.9325 -1.1228 -1.5798
  142MOL0     H19536  10.057   6.424   1.933 -0.2945  0.8063 -0.6593
  142MOL0     H19537  10.152   6.269   1.756 -2.4276  1.6361 -0.4509
  142MOL0     H19538  10.008   6.164   1.773  0.2913 -1.4924  1.2702
  142MOL0     H19539  10.208   6.234   1.987  1.3589 -1.5358 -2.4021
  142MOL0     H19540  10.043   6.172   2.021 -0.6653  1.7540 -0.0582
  142MOL0     H19541  10.230   6.039   1.804  2.3841  1.7079  1.2992
  142MOL0     H19542  10.099   5.965   1.900 -2.8001  2.5752 -1.5603
  142MOL0     H19543  10.263   5.978   2.092 -0.8606  3.0061  0.6662
  142MOL0     H19544  10.322   5.880   1.947 -0.1852  0.5205  0.3041
  142MOL0     H19545  10.401   6.195   2.134 -0.3826 -3.0098  1.8843
  142MOL0     H19546  10.632   6.395   2.066 -1.0182 -0.9425 -0.1762
  142MOL0     H19547  10.766   6.302   2.012  0.1618 -0.9342 -0.0701
  142MOL0     H19548  10.640   6.220   2.277  2.7508 -0.1721  1.9239
  142MOL0     H19549  10.792   6.180   2.201  2.5306  1.9173 -3.3664
  142MOL0     H19550  10.715   6.455   2.284  0.0388  0.6938 -2.0288
  142MOL0     H19551  10.791   6.329   2.387  0.9344 -2.0291 -0.6202
  142MOL0     H19552  10.923   6.490   2.158  0.6376 -0.2781  0.6260
  142MOL0     H19553  10.963   6.487   2.321  1.0465 -1.1539  0.0972
  142MOL0     H19554  11.123   6.532   2.108  0.3739  0.8253 -0.0319
  142MOL0     H19555  11.439   6.645   2.012  0.4612  1.1788  0.4841
  142MOL0     H19556  11.404   6.685   2.184 -1.2551  2.0062 -0.6172
  142MOL0     H19557  11.275   6.686   2.070 -0.5989  2.0370  2.9550
  142MOL0     H19558  11.750   6.281   2.483  1.6781 -1.1770 -0.2245
  142MOL0     H19559  11.981   6.283   2.537 -3.1893 -0.4324  0.7294
  142MOL0     H19560  12.146   6.445   2.565 -0.6392  0.4596 -1.3467
  142MOL0     H19561  12.238   6.295   2.547  1.9605 -0.4165  0.6029
  142MOL0     H19562  12.426   6.420   2.442 -0.0063 -1.3611  0.5322
  142MOL0     H19563  12.341   6.570   2.493 -1.2750  0.5915  2.4059
  142MOL0     H19564  12.450   6.342   2.657 -1.0817 -1.1336 -0.9731
  142MOL0     H19565  12.327   6.456   2.729  0.7620 -0.8372  0.8818
  142MOL0     H19566  12.459   6.639   2.707  1.3679  0.1476  1.5738
  142MOL0     H19567  12.558   6.566   2.585 -1.4452  4.0052 -0.3324
  142MOL0     H19568  12.560   6.493   2.895  0.0946  2.5601  0.7137
  142MOL0     H19569  12.637   6.394   2.787 -0.0945  0.2533 -0.5608
  142MOL0     H19570  12.707   6.689   2.795  2.2003 -0.6866 -1.0519
  142MOL0     H19571  12.774   6.566   2.690  1.1425 -0.8521 -0.4726
  142MOL0     H19572  12.843   6.432   2.914  0.9863  0.0994 -3.5875
  142MOL0     H19573  12.776   6.572   2.995  0.7392 -0.0215  0.9690
  142MOL0     H19574  12.943   6.719   2.936  0.1739 -1.1909  1.6658
  142MOL0     H19575  12.996   6.621   2.799 -0.1930  0.7555  0.2698
  142MOL0     H19576  12.077   6.438   2.148 -0.5924  0.4942 -0.8781
  142MOL0     H19577  11.839   6.416   2.079  1.3105 -0.8825 -0.9334
  142MOL0     H19578  11.436   6.180   2.254  0.1168 -1.0898 -0.5134
  142MOL0     H19579  11.192   6.170   2.316  0.4846  0.2495  1.0463
  142MOL0     H19580   9.379   6.204   1.906  1.3580 -0.6586  0.6081
  142MOL0     H19581   9.154   6.206   1.987 -0.9771 -0.2279  3.0607
  142MOL0     H19582   8.818   6.400   2.207 -2.1980 -0.3349 -0.9510
  142MOL0     H19583   8.600   6.384   2.241 -1.3592 -2.0546 -2.0120
  142MOL0     H19584   8.465   5.993   2.299  1.6813  1.7995 -1.5578
  142MOL0     H19585   8.299   6.052   2.319  0.3216 -2.9814 -0.7076
  142MOL0     H19586   8.312   6.041   2.099  2.5964 -1.6466 -1.2120
  142MOL0     H19587   8.466   6.142   2.101 -1.6229  0.6132 -0.5972
  142MOL0     H19588   8.376   6.335   2.167 -1.3995 -0.1070  0.7757
  142MOL0     H19589   8.283   6.286   2.036  0.4672 -2.2053 -1.5571
  142MOL0     H19590   8.115   6.370   2.188  2.4803  1.4512 -4.0162
  142MOL0     H19591   8.180   6.276   2.324  0.1681 -1.5291 -0.4867
  142MOL0     H19592   7.929   5.994   2.142  0.7486 -0.4960 -0.4401
  142MOL0     H19593   8.650   6.013   2.452 -0.3976 -0.0830 -0.1979
  142MOL0     H19594   8.837   5.900   2.492 -2.3998  2.1734  0.2990
  142MOL0     H19595   8.942   5.923   2.356 -1.8844 -0.6133 -1.0080
  142MOL0     H19596   8.971   6.008   2.516  1.4767  0.9640 -1.5673
  143MOL0     O19597   4.782   1.059   8.863 -0.5094  0.6677  0.2098
  143MOL0     C19598   4.824   1.084   8.975 -1.1636  0.5369  0.3059
  143MOL0     O19599   4.957   1.088   9.014  0.0588  0.1181  0.3598
  143MOL0     C19600   5.063   1.084   8.923  0.0576 -0.0709 -0.4922
  143MOL0     C19601   5.179   1.034   8.975 -1.0218  0.0067 -0.1862
  143MOL0     C19602   5.298   1.032   8.896  0.3756  0.3683 -0.0082
  143MOL0     C19603   5.292   1.080   8.768 -0.8905 -0.3632 -0.6734
  143MOL0     O19604   5.393   1.084   8.684  0.1146  0.3530 -0.6621
  143MOL0     C19605   5.532   1.064   8.726 -0.0100  0.0077 -0.9688
  143MOL0     C19606   5.626   1.068   8.609 -0.0273  0.1918  0.0702
  143MOL0     C19607   5.597   0.963   8.499 -0.3538 -0.2534 -0.8149
  143MOL0     C19608   5.678   0.995   8.376  0.2255 -0.2317  0.2111
  143MOL0     C19609   5.721   0.884   8.275 -0.8958  0.5322 -1.0443
  143MOL0     C19610   5.813   0.773   8.340  0.4864  0.8083  0.2927
  143MOL0     C19611   5.937   0.735   8.258 -0.3779  0.1495 -0.0531
  143MOL0     C19612   5.917   0.723   8.108  0.3850  0.4976 -0.1245
  143MOL0     N19613   6.030   0.664   8.040 -0.2793  0.0370  0.6551
  143MOL0     C19614   6.152   0.720   8.049 -0.0413 -0.6163  0.5147
  143MOL0     C19615   6.213   0.671   7.940 -0.6205 -0.3345 -0.9199
  143MOL0     C19616   6.352   0.714   7.890  0.9180 -0.9830 -0.5092
  143MOL0     C19617   6.473   0.659   7.974 -0.2516 -0.3028 -0.3676
  143MOL0     C19618   6.605   0.705   7.906 -0.2978 -0.1733  0.7370
  143MOL0     C19619   6.726   0.666   7.994 -0.0771  0.3382  0.5096
  143MOL0     O19620   6.752   0.524   7.986  0.3624 -0.1711 -0.0397
  143MOL0     C19621   6.880   0.489   7.963 -0.0388 -0.0083 -0.4662
  143MOL0     C19622   6.985   0.530   8.050  0.7933  1.2241  0.3348
  143MOL0     C19623   7.126   0.503   8.008  1.0583  0.5712 -0.2366
  143MOL0     C19624   7.237   0.511   8.120 -0.3004  0.2003  0.3929
  143MOL0     C19625   7.155   0.436   7.881  0.3175  0.5348 -0.6397
  143MOL0     C19626   7.290   0.399   7.847  0.6933  0.3878 -0.1277
  143MOL0     O19627   7.300   0.299   7.751 -0.4439 -0.1578 -0.7052
  143MOL0     C19628   7.423   0.260   7.701 -0.5572 -0.5253 -0.0294
  143MOL0     C19629   7.467   0.295   7.573 -0.7366  0.4636  0.5977
  143MOL0     C19630   7.587   0.246   7.520  0.5484 -0.1527  0.2429
  143MOL0     C19631   7.669   0.159   7.597 -0.3491  0.2698 -1.1452
  143MOL0     O19632   7.783   0.096   7.558 -0.2099  0.1748  0.2302
  143MOL0     C19633   7.818   0.082   7.424  0.3787 -0.2981 -0.6774
  143MOL0     C19634   7.960   0.027   7.408  0.2296 -1.0012  0.7469
  143MOL0     C19635   7.990  -0.020   7.266 -0.5581  0.1466 -0.0362
  143MOL0     C19636   8.143  -0.050   7.251 -0.1316 -0.0906 -0.3939
  143MOL0     C19637   8.176  -0.112   7.113 -0.4100  0.5774 -0.1370
  143MOL0     C19638   8.332  -0.134   7.098 -1.0244  1.0909  0.2402
  143MOL0     C19639   8.351  -0.211   6.962  0.1432  0.2983  0.3768
  143MOL0     C19640   8.488  -0.177   6.915 -0.1842 -0.1869  0.1820
  143MOL0    Cl19641   8.491  -0.029   6.821  0.3524  0.1976 -0.1410
  143MOL0     C19642   7.630   0.133   7.728  0.4962 -0.3242 -0.0980
  143MOL0     C19643   7.500   0.175   7.771 -1.0280  0.1592 -0.7484
  143MOL0     O19644   7.385   0.450   7.901 -0.1972 -0.0796  0.4157
  143MOL0     C19645   7.045   0.416   7.792  0.3971  0.4627 -0.2043
  143MOL0     C19646   6.912   0.435   7.840 -0.0843  0.9689  0.6890
  143MOL0     N19647   6.124   0.581   7.869  0.0325 -1.2265 -0.3858
  143MOL0     N19648   6.015   0.575   7.935 -0.1331 -0.3034  0.0420
  143MOL0     C19649   5.173   1.133   8.714  0.2402  0.0171 -0.4234
  143MOL0     C19650   5.061   1.140   8.796 -0.1698  0.1640  0.3882
  143MOL0     C19651   4.721   1.069   9.088  0.2806 -0.6736 -0.7012
  143MOL0     C19652   4.769   1.061   9.217  0.5462 -0.1257 -0.4513
  143MOL0     C19653   4.684   1.052   9.326 -0.6706  0.4017 -0.5206
  143MOL0     C19654   4.548   1.051   9.303 -0.7777 -0.7304 -0.2054
  143MOL0     O19655   4.458   1.046   9.408  0.1929  0.4686  0.1122
  143MOL0     C19656   4.499   0.990   9.538 -0.2479  0.6911  0.3572
  143MOL0     C19657   4.380   0.994   9.639 -0.6418  0.3461 -1.7006
  143MOL0     C19658   4.276   1.108   9.612 -0.1074 -0.3168 -0.0314
  143MOL0     C19659   4.157   1.058   9.527 -0.3603  0.7700 -0.2575
  143MOL0     C19660   4.053   1.161   9.542 -0.7827 -0.1605  0.3261
  143MOL0     C19661   3.958   1.233   9.545  0.4875  0.0234  0.3795
  143MOL0     C19662   4.495   1.059   9.172  0.0976 -0.0483 -0.1810
  143MOL0     C19663   4.584   1.076   9.066  0.6402 -0.4724  0.3032
  143MOL0     C19664   4.531   1.114   8.931  0.0037  0.2717  0.3739
  143MOL0     H19665   5.184   0.985   9.071 -1.6913 -0.4966 -0.4023
  143MOL0     H19666   5.393   0.989   8.927  0.5814 -0.0025 -1.0983
  143MOL0     H19667   5.537   0.963   8.768 -2.3670  0.0097 -0.5573
  143MOL0     H19668   5.568   1.139   8.797  2.2160 -1.3910 -0.5116
  143MOL0     H19669   5.611   1.163   8.557  1.1680 -0.9818 -2.5897
  143MOL0     H19670   5.730   1.065   8.645  0.3837 -0.5723 -1.1008
  143MOL0     H19671   5.633   0.874   8.551  3.7419  2.9515  2.4632
  143MOL0     H19672   5.489   0.955   8.478 -0.6577  1.4940 -0.0841
  143MOL0     H19673   5.639   1.081   8.321 -1.5943 -0.5156  0.9935
  143MOL0     H19674   5.778   1.026   8.407 -0.3578  1.5236  0.4687
  143MOL0     H19675   5.779   0.923   8.191 -1.3734 -1.3782 -2.3394
  143MOL0     H19676   5.638   0.825   8.234 -0.4411 -3.8305  3.3541
  143MOL0     H19677   5.832   0.780   8.448 -0.5031  1.8766  0.4197
  143MOL0     H19678   5.751   0.683   8.349  0.7061  0.2334 -2.8600
  143MOL0     H19679   5.965   0.637   8.295 -0.3649  0.1677 -0.0152
  143MOL0     H19680   6.014   0.808   8.286 -0.5454 -0.3415  1.8111
  143MOL0     H19681   5.829   0.659   8.094 -0.0821  1.3320 -1.1271
  143MOL0     H19682   5.891   0.822   8.068 -0.7955 -0.5520 -2.1144
  143MOL0     H19683   6.170   0.808   8.110  1.6993  0.6147 -1.6393
  143MOL0     H19684   6.353   0.822   7.905 -2.4035 -0.9261 -0.0510
  143MOL0     H19685   6.363   0.685   7.785 -2.7799 -0.2259 -1.2264
  143MOL0     H19686   6.474   0.709   8.072 -1.5705 -0.0806 -0.4439
  143MOL0     H19687   6.478   0.551   7.995 -1.0353 -0.6146 -1.6878
  143MOL0     H19688   6.625   0.662   7.807  1.4644  0.1482  0.9164
  143MOL0     H19689   6.595   0.813   7.896 -2.1669 -0.3321  0.4648
  143MOL0     H19690   6.814   0.725   7.966  0.8118 -1.3443 -0.3582
  143MOL0     H19691   6.712   0.702   8.096  1.6195  0.4209  0.7377
  143MOL0     H19692   6.956   0.562   8.150  0.8077  1.2510  0.3301
  143MOL0     H19693   7.183   0.526   8.214 -2.2713 -0.2118 -0.6124
  143MOL0     H19694   7.321   0.581   8.109  2.2401 -2.2715  2.6233
  143MOL0     H19695   7.286   0.414   8.113 -1.6583 -0.4941  0.1316
  143MOL0     H19696   7.410   0.363   7.509  1.4889  1.4619 -0.4455
  143MOL0     H19697   7.636   0.275   7.428 -1.4861 -0.9383 -1.1454
  143MOL0     H19698   7.750   0.012   7.374 -0.2983  1.0197 -1.6492
  143MOL0     H19699   7.802   0.175   7.370 -2.0109 -1.1125 -1.4863
  143MOL0     H19700   8.021   0.108   7.448 -0.9849  0.0122  0.6167
  143MOL0     H19701   7.977  -0.064   7.466 -0.4406 -3.2552 -2.3198
  143MOL0     H19702   7.959   0.060   7.198 -3.0143  1.3566  2.3027
  143MOL0     H19703   7.931  -0.110   7.249  1.6699 -0.9749 -2.6703
  143MOL0     H19704   8.177  -0.120   7.329  2.2194  0.4880 -0.8371
  143MOL0     H19705   8.199   0.040   7.274  0.7401  0.1141 -2.9816
  143MOL0     H19706   8.129  -0.210   7.100  2.3363 -0.7375 -0.7319
  143MOL0     H19707   8.136  -0.048   7.033  1.5780  3.2171  0.8397
  143MOL0     H19708   8.372  -0.197   7.177  1.2835  0.7087 -1.1232
  143MOL0     H19709   8.387  -0.039   7.097 -1.0403  1.2987  4.0799
  143MOL0     H19710   8.290  -0.192   6.873  2.2259  0.6033 -1.0692
  143MOL0     H19711   8.344  -0.319   6.982  0.3339 -0.1563 -1.7729
  143MOL0     H19712   8.536  -0.252   6.852  1.4998 -0.4885  1.7515
  143MOL0     H19713   8.558  -0.179   7.000 -1.9261  0.5526  1.7066
  143MOL0     H19714   7.694   0.063   7.781 -0.4913  0.0919  1.7311
  143MOL0     H19715   7.474   0.143   7.872  0.9875  3.2993  0.9538
  143MOL0     H19716   7.070   0.372   7.695  0.0262 -1.2163  0.4233
  143MOL0     H19717   6.841   0.410   7.762  1.8049 -1.0527 -0.5016
  143MOL0     H19718   5.175   1.172   8.613  2.5188 -0.4707 -0.6211
  143MOL0     H19719   4.968   1.175   8.752 -1.4780 -2.8561  0.4934
  143MOL0     H19720   4.873   1.051   9.246  0.5746 -2.0987 -1.0624
  143MOL0     H19721   4.725   1.052   9.426  1.6521  1.8156 -1.3889
  143MOL0     H19722   4.537   0.887   9.536 -1.6122  0.1135  1.6004
  143MOL0     H19723   4.581   1.052   9.573 -1.2336  1.1906  1.9009
  143MOL0     H19724   4.426   1.017   9.736  2.2979  0.6164 -3.0390
  143MOL0     H19725   4.330   0.897   9.650 -0.4158  0.3687 -0.3095
  143MOL0     H19726   4.223   1.127   9.706 -0.5439  0.2269 -0.3870
  143MOL0     H19727   4.332   1.189   9.565  0.4891 -1.3365 -1.1252
  143MOL0     H19728   4.114   0.967   9.572 -1.4350  1.9046  1.0852
  143MOL0     H19729   4.184   1.050   9.421 -3.4033  1.3723 -1.2012
  143MOL0     H19730   3.872   1.294   9.527  0.9336  0.5416 -0.0185
  143MOL0     H19731   4.387   1.070   9.170  0.1959  1.3167  0.5987
  143MOL0     H19732   4.590   1.191   8.880  1.1072 -1.2783 -0.7892
  143MOL0     H19733   4.522   1.023   8.870  3.8672 -0.7145  1.0090
  143MOL0     H19734   4.431   1.158   8.934  0.6928  1.8904  0.5842
  144MOL0     O19735  10.175   3.626   0.285 -1.0102  0.4399  0.0249
  144MOL0     C19736  10.199   3.656   0.405  0.8415 -0.0774  0.2380
  144MOL0     O19737  10.263   3.585   0.498  0.0208  0.6487  0.6825
  144MOL0     C19738  10.351   3.486   0.455 -0.1574  0.8035 -0.0318
  144MOL0     C19739  10.460   3.522   0.376 -0.6070 -0.2538 -0.6244
  144MOL0     C19740  10.544   3.414   0.335  0.2556  0.1475  0.0413
  144MOL0     C19741  10.542   3.288   0.390 -0.0054 -0.6600 -0.0175
  144MOL0     O19742  10.650   3.208   0.361  0.1287 -0.0553  0.0511
  144MOL0     C19743  10.709   3.142   0.477 -0.5230 -0.1898  0.2370
  144MOL0     C19744  10.753   3.240   0.587  0.0035  0.7033  0.3954
  144MOL0     C19745  10.807   3.166   0.708 -0.1156 -0.1805  0.3043
  144MOL0     C19746  10.841   3.258   0.821  0.1369  0.8021 -0.3105
  144MOL0     C19747  10.880   3.168   0.937 -0.3197 -0.0895 -0.0001
  144MOL0     C19748  10.958   3.258   1.038  0.0459 -0.4648 -0.4556
  144MOL0     C19749  10.975   3.187   1.171 -0.5520 -1.1328  0.3078
  144MOL0     C19750  11.025   3.282   1.278 -0.1659 -0.3658 -1.2066
  144MOL0     N19751  11.173   3.321   1.264  0.0583  0.4029 -0.2879
  144MOL0     C19752  11.282   3.260   1.309 -1.0040  1.0114 -0.9323
  144MOL0     C19753  11.387   3.343   1.285 -0.6428  0.7365 -0.2350
  144MOL0     C19754  11.522   3.321   1.336 -0.3389  0.2068 -0.4657
  144MOL0     C19755  11.610   3.282   1.218 -0.5616  0.0975  0.3846
  144MOL0     C19756  11.754   3.331   1.221 -0.4150  0.3891 -0.2850
  144MOL0     C19757  11.778   3.489   1.248  0.8565  0.5105  0.3439
  144MOL0     O19758  11.907   3.511   1.261  0.0609  0.0610 -0.3743
  144MOL0     C19759  11.978   3.561   1.150  0.2955  0.6019 -0.0853
  144MOL0     C19760  11.949   3.549   1.014 -1.1647  0.7036  0.2067
  144MOL0     C19761  12.045   3.594   0.917  0.1764 -0.4801 -0.8222
  144MOL0     C19762  12.018   3.556   0.783 -0.3007  0.7548  0.0942
  144MOL0     C19763  12.152   3.667   0.959  0.2102  0.1678  0.3545
  144MOL0     C19764  12.239   3.744   0.865  0.0419 -0.6141  0.0510
  144MOL0     O19765  12.368   3.768   0.912  0.1600  0.0016 -0.1718
  144MOL0     C19766  12.468   3.833   0.845 -0.3131  0.3978 -0.2229
  144MOL0     C19767  12.498   3.797   0.718  0.2176 -0.4507 -1.1979
  144MOL0     C19768  12.611   3.855   0.654  0.9771 -0.0806  0.4774
  144MOL0     C19769  12.695   3.938   0.720 -0.5458  0.3302  0.8141
  144MOL0     O19770  12.811   3.997   0.673 -0.1841  0.0057  0.2151
  144MOL0     C19771  12.911   3.898   0.645  0.4097  0.4478 -0.1835
  144MOL0     C19772  13.044   3.978   0.619  0.0987 -0.0719 -0.2150
  144MOL0     C19773  13.150   3.865   0.596  0.4233  0.7453 -0.5482
  144MOL0     C19774  13.296   3.914   0.594  0.6471 -0.3280 -0.2207
  144MOL0     C19775  13.373   3.819   0.511 -0.4448  0.3473  0.8656
  144MOL0     C19776  13.520   3.879   0.501  0.2857 -0.2496 -0.6659
  144MOL0     C19777  13.607   3.830   0.389 -0.0400 -0.3236  0.1838
  144MOL0     C19778  13.633   3.681   0.396  0.3519 -0.6155  0.3243
  144MOL0    Cl19779  13.707   3.619   0.245  0.2755 -0.1909 -0.4102
  144MOL0     C19780  12.664   3.977   0.850  0.0749 -0.0143  0.1050
  144MOL0     C19781  12.556   3.918   0.914 -0.0688  0.3016  0.4851
  144MOL0     O19782  12.193   3.792   0.763 -0.5246  0.3425 -0.2906
  144MOL0     C19783  12.180   3.679   1.093  0.3065 -0.4785  0.3981
  144MOL0     C19784  12.095   3.619   1.187  0.2398 -0.3879  0.5607
  144MOL0     N19785  11.341   3.448   1.219  0.2602  0.5957  0.0294
  144MOL0     N19786  11.211   3.442   1.212  0.7001  0.9140  0.3609
  144MOL0     C19787  10.434   3.262   0.482  0.5307 -0.1430 -0.0412
  144MOL0     C19788  10.329   3.357   0.503 -0.0694  0.0734 -0.1140
  144MOL0     C19789  10.125   3.771   0.466  0.0027  0.1539  0.3435
  144MOL0     C19790  10.085   3.769   0.596  0.4919 -2.0540  0.3977
  144MOL0     C19791  10.013   3.882   0.655  0.6533 -0.1271  0.2408
  144MOL0     C19792   9.993   4.001   0.580  0.3813  0.0691  0.2857
  144MOL0     O19793   9.936   4.121   0.621  0.6814  0.0676  0.7068
  144MOL0     C19794   9.896   4.127   0.759  0.5157  0.1655  0.1526
  144MOL0     C19795   9.756   4.053   0.760 -0.7439 -0.1421  0.4176
  144MOL0     C19796   9.648   4.132   0.694 -0.2135  0.8673 -0.0735
  144MOL0     C19797   9.518   4.064   0.702  0.7237  0.0075 -0.3006
  144MOL0     C19798   9.413   4.149   0.636  0.6325 -0.2565  0.8106
  144MOL0     C19799   9.330   4.209   0.567  0.1264  0.0611 -0.1250
  144MOL0     C19800  10.027   3.998   0.447 -0.6306  0.2142 -0.0186
  144MOL0     C19801  10.096   3.894   0.387 -0.1314  0.9024  0.5475
  144MOL0     C19802  10.139   3.914   0.246 -0.1342 -0.1200  0.0020
  144MOL0     H19803  10.471   3.624   0.342  0.7060  0.9160  2.8736
  144MOL0     H19804  10.609   3.436   0.250 -0.2405 -0.9430 -0.6445
  144MOL0     H19805  10.802   3.095   0.444 -1.6821 -2.0566 -0.5391
  144MOL0     H19806  10.647   3.065   0.524  0.6581 -0.4408  1.4405
  144MOL0     H19807  10.827   3.304   0.538 -0.8252 -0.4759 -2.6957
  144MOL0     H19808  10.665   3.299   0.610 -1.4684 -1.2181 -0.0152
  144MOL0     H19809  10.738   3.090   0.745  0.1286 -0.1751  0.7832
  144MOL0     H19810  10.897   3.113   0.676 -0.1948  0.1284 -0.4509
  144MOL0     H19811  10.915   3.332   0.789  0.2633  3.1290  4.4853
  144MOL0     H19812  10.747   3.310   0.838 -2.1813 -2.1446 -2.8143
  144MOL0     H19813  10.938   3.080   0.909 -0.5420  0.2763 -1.7184
  144MOL0     H19814  10.784   3.141   0.984 -1.7426  3.2860 -0.6706
  144MOL0     H19815  11.061   3.274   1.004 -0.1777 -0.9145 -1.3712
  144MOL0     H19816  10.904   3.352   1.049  0.2509 -0.4091  0.1291
  144MOL0     H19817  11.050   3.110   1.152 -0.8387 -1.3828  0.1889
  144MOL0     H19818  10.879   3.149   1.209 -0.2845 -0.5947  1.5821
  144MOL0     H19819  10.962   3.371   1.277  1.2809  0.8007  1.1413
  144MOL0     H19820  11.014   3.222   1.370 -0.8768 -1.4815 -1.9949
  144MOL0     H19821  11.290   3.165   1.360  3.4557  0.0762 -2.9263
  144MOL0     H19822  11.521   3.250   1.420  1.9167 -0.2944 -0.7963
  144MOL0     H19823  11.556   3.412   1.386 -0.4471  0.4996 -0.9215
  144MOL0     H19824  11.606   3.174   1.197  1.9506  0.2754 -1.4797
  144MOL0     H19825  11.569   3.322   1.125  0.3772  2.1519  0.8119
  144MOL0     H19826  11.805   3.279   1.302 -2.9986  0.1627  1.3100
  144MOL0     H19827  11.810   3.292   1.135  0.6593  0.8322  0.1935
  144MOL0     H19828  11.729   3.540   1.164 -0.1779 -1.7661 -0.5187
  144MOL0     H19829  11.728   3.517   1.341 -1.3397  1.8182 -1.1540
  144MOL0     H19830  11.866   3.485   0.985 -0.4694  0.3755 -1.1360
  144MOL0     H19831  11.985   3.451   0.784 -0.9299  0.8942 -1.6945
  144MOL0     H19832  12.109   3.562   0.723 -0.1385  0.7472  0.3428
  144MOL0     H19833  11.938   3.614   0.736  0.7337  1.7429 -0.4875
  144MOL0     H19834  12.427   3.734   0.666  0.0346  1.7504 -3.8748
  144MOL0     H19835  12.627   3.831   0.549  0.3868  1.1527  0.0951
  144MOL0     H19836  12.913   3.832   0.732 -1.3524  2.4415  1.4849
  144MOL0     H19837  12.883   3.845   0.553 -1.6177 -0.0197  0.6382
  144MOL0     H19838  13.053   4.038   0.528 -0.0523 -1.5124 -1.2091
  144MOL0     H19839  13.071   4.039   0.706 -0.0674 -0.4022  0.0695
  144MOL0     H19840  13.127   3.804   0.508 -3.6368 -0.2527  1.0046
  144MOL0     H19841  13.133   3.786   0.669  2.1787  0.7244 -0.1057
  144MOL0     H19842  13.329   3.920   0.698 -0.7587 -1.0606  0.2924
  144MOL0     H19843  13.300   4.016   0.554  2.3901 -0.8577 -1.4983
  144MOL0     H19844  13.376   3.718   0.553 -1.4452 -0.1923 -0.2870
  144MOL0     H19845  13.325   3.801   0.414 -0.5699  1.1313  0.7778
  144MOL0     H19846  13.570   3.866   0.597 -1.0073  1.3228  0.2675
  144MOL0     H19847  13.511   3.988   0.499  1.6401 -0.0220  1.6601
  144MOL0     H19848  13.707   3.873   0.384 -0.3052  0.6906  2.2592
  144MOL0     H19849  13.563   3.859   0.293  0.1853 -0.2322  0.1069
  144MOL0     H19850  13.539   3.627   0.413 -0.4354  0.6344  0.0814
  144MOL0     H19851  13.689   3.664   0.489  0.2536 -1.1717  0.2846
  144MOL0     H19852  12.733   4.044   0.901  2.4887  0.2505 -3.1740
  144MOL0     H19853  12.531   3.923   1.019 -0.4566 -1.3754  0.4957
  144MOL0     H19854  12.273   3.728   1.118  0.9413 -1.5063  0.0880
  144MOL0     H19855  12.118   3.640   1.291  2.7849  1.7230 -0.2958
  144MOL0     H19856  10.423   3.166   0.532  1.4802 -0.8493 -1.1363
  144MOL0     H19857  10.245   3.332   0.568 -0.8271  1.4977 -0.5098
  144MOL0     H19858  10.105   3.686   0.663 -0.7443 -1.3672  1.6554
  144MOL0     H19859   9.980   3.879   0.758 -1.3526  0.1843 -0.3650
  144MOL0     H19860   9.973   4.089   0.826  0.4800  1.1783  0.7819
  144MOL0     H19861   9.893   4.234   0.782  0.8292  0.1041  0.4932
  144MOL0     H19862   9.719   4.038   0.862  0.2837  0.5271  0.9014
  144MOL0     H19863   9.760   3.948   0.729 -3.7024 -0.6843  1.5495
  144MOL0     H19864   9.636   4.230   0.742  0.3882  0.6102  0.6398
  144MOL0     H19865   9.678   4.136   0.589  0.6847 -0.9677  0.0674
  144MOL0     H19866   9.489   4.045   0.805 -0.1587  0.5332 -0.4486
  144MOL0     H19867   9.517   3.970   0.645 -2.6933 -0.5381  0.4647
  144MOL0     H19868   9.258   4.272   0.518 -1.3143 -0.2876  1.4177
  144MOL0     H19869  10.002   4.087   0.391 -0.5729  2.3855  3.0927
  144MOL0     H19870  10.071   3.866   0.175 -0.1218 -1.0115  0.5728
  144MOL0     H19871  10.140   4.022   0.226 -2.1406 -0.2325 -1.0069
  144MOL0     H19872  10.240   3.879   0.224 -1.0050 -3.5751  0.8841
  145MOL0     O19873   4.508   8.063   6.358 -0.0896  0.2160 -0.0085
  145MOL0     C19874   4.419   8.038   6.277  0.8571  0.3360 -0.0920
  145MOL0     O19875   4.422   7.940   6.177 -0.5153  0.0911  0.6898
  145MOL0     C19876   4.539   7.884   6.134  0.3562  0.7341  0.0969
  145MOL0     C19877   4.676   7.931   6.161  0.7347  0.3731 -0.7827
  145MOL0     C19878   4.784   7.861   6.108  0.4802 -0.2927  0.2610
  145MOL0     C19879   4.774   7.752   6.017 -0.4963  0.3386 -0.2394
  145MOL0     O19880   4.879   7.685   5.961 -0.3373  0.5746  0.5536
  145MOL0     C19881   4.868   7.594   5.847  0.1849 -0.2546  0.5676
  145MOL0     C19882   4.845   7.671   5.716  0.3025  0.1500  0.4152
  145MOL0     C19883   4.841   7.568   5.597 -0.2244 -0.6034  0.2028
  145MOL0     C19884   4.854   7.656   5.477 -0.5051 -0.8093  0.4710
  145MOL0     C19885   4.859   7.578   5.345 -0.0793  0.6497 -0.6780
  145MOL0     C19886   4.827   7.661   5.223 -0.1752 -0.5432 -0.2564
  145MOL0     C19887   4.821   7.585   5.093  0.3904 -0.1411 -0.0442
  145MOL0     C19888   4.949   7.526   5.041  0.1756 -0.3169 -0.4104
  145MOL0     N19889   5.059   7.619   5.039  0.0826  0.3960  0.4327
  145MOL0     C19890   5.148   7.649   5.140  0.0865  0.1205  0.3097
  145MOL0     C19891   5.246   7.719   5.084 -0.7535  0.4729 -0.6760
  145MOL0     C19892   5.354   7.803   5.159  0.4137  0.2694  0.5294
  145MOL0     C19893   5.304   7.946   5.161  0.4035  0.6657 -0.6060
  145MOL0     C19894   5.360   8.042   5.275  0.2545  0.2366  0.6667
  145MOL0     C19895   5.514   8.081   5.264 -0.1563  0.2786  0.5130
  145MOL0     O19896   5.584   7.957   5.264  0.3302  0.2268  0.0229
  145MOL0     C19897   5.702   7.946   5.340  0.5402  0.5589  0.2702
  145MOL0     C19898   5.706   7.986   5.476 -0.3653  0.1598 -1.4078
  145MOL0     C19899   5.827   7.966   5.551  0.5127  0.5941  1.0934
  145MOL0     C19900   5.813   8.010   5.698 -0.5250 -0.2168  0.2564
  145MOL0     C19901   5.941   7.905   5.493 -0.4357  0.0924  0.0242
  145MOL0     C19902   6.069   7.885   5.566  0.2682  1.6203  0.5595
  145MOL0     O19903   6.160   7.815   5.482 -0.3945 -0.5524  0.9203
  145MOL0     C19904   6.290   7.803   5.514 -0.2238 -0.7230 -0.4767
  145MOL0     C19905   6.374   7.902   5.471  0.6557  0.1801 -0.7153
  145MOL0     C19906   6.515   7.903   5.479  0.7999  0.3431  0.2447
  145MOL0     C19907   6.573   7.790   5.539 -0.2352  0.1034 -0.1586
  145MOL0     O19908   6.707   7.762   5.568  1.0731 -0.0138 -0.8154
  145MOL0     C19909   6.797   7.864   5.517  0.1957  0.3518  0.3095
  145MOL0     C19910   6.939   7.813   5.533  0.0096 -0.1702  0.6111
  145MOL0     C19911   7.040   7.876   5.432  0.0627  0.6158  1.1194
  145MOL0     C19912   7.183   7.853   5.456 -0.8548 -0.2723  0.0560
  145MOL0     C19913   7.279   7.884   5.341 -0.2229  0.4996  0.0928
  145MOL0     C19914   7.419   7.848   5.375  0.0593  0.0457 -0.9025
  145MOL0     C19915   7.519   7.856   5.260  0.0312 -0.2586 -0.6548
  145MOL0     C19916   7.652   7.807   5.312  0.1693  0.3578  0.0645
  145MOL0    Cl19917   7.769   7.835   5.178  0.3871  0.1860  0.1390
  145MOL0     C19918   6.492   7.692   5.597 -0.0948 -0.2785  0.5121
  145MOL0     C19919   6.348   7.692   5.580 -0.4388 -0.2953  0.6990
  145MOL0     O19920   6.094   7.930   5.678  0.3819 -0.5137 -0.0205
  145MOL0     C19921   5.935   7.887   5.350 -0.4921  0.5732  0.0350
  145MOL0     C19922   5.822   7.903   5.277  0.3688  0.5723 -0.4616
  145MOL0     N19923   5.221   7.731   4.952 -1.2111  0.1987  0.4516
  145MOL0     N19924   5.117   7.664   4.930 -0.1140  0.3000 -0.0356
  145MOL0     C19925   4.636   7.710   5.992 -0.6366 -0.4024 -0.3518
  145MOL0     C19926   4.526   7.776   6.045  0.3132  0.2964  0.5217
  145MOL0     C19927   4.280   8.101   6.296 -0.0577 -0.5717  0.2687
  145MOL0     C19928   4.248   8.140   6.428  0.1883 -0.1604 -0.1651
  145MOL0     C19929   4.137   8.224   6.457 -0.1596  1.0850  0.0856
  145MOL0     C19930   4.038   8.235   6.363  0.2643  0.4814 -0.4411
  145MOL0     O19931   3.923   8.295   6.408  0.2608  0.7527  0.3170
  145MOL0     C19932   3.826   8.344   6.313 -0.4440  0.1519 -0.3647
  145MOL0     C19933   3.710   8.400   6.385  0.2451 -0.2804  0.0142
  145MOL0     C19934   3.578   8.421   6.309 -0.6118 -0.5320  0.1667
  145MOL0     C19935   3.582   8.521   6.194 -0.1171 -0.5316 -0.2338
  145MOL0     C19936   3.458   8.519   6.123 -0.5625 -1.0587 -0.0643
  145MOL0     C19937   3.356   8.495   6.061 -0.1435  0.6158  0.2039
  145MOL0     C19938   4.054   8.181   6.239  0.0583 -0.1323  0.2421
  145MOL0     C19939   4.174   8.123   6.198 -0.8262 -0.4629  0.4317
  145MOL0     C19940   4.184   8.082   6.042 -0.8036  0.5078 -0.6977
  145MOL0     H19941   4.692   8.020   6.221  0.9559 -0.4356  0.3968
  145MOL0     H19942   4.879   7.912   6.116 -0.9269  2.8002 -1.0532
  145MOL0     H19943   4.783   7.525   5.858  1.8466 -2.6661 -0.8124
  145MOL0     H19944   4.956   7.530   5.844 -0.6319 -1.3993 -0.6150
  145MOL0     H19945   4.756   7.733   5.725  0.2020 -0.2900  3.2449
  145MOL0     H19946   4.936   7.731   5.706  2.1333 -2.6045 -0.6687
  145MOL0     H19947   4.929   7.505   5.611  0.5317  0.7735  2.2598
  145MOL0     H19948   4.747   7.513   5.600 -1.8482  1.9927  0.9662
  145MOL0     H19949   4.762   7.716   5.477 -0.6628 -0.9906 -1.5908
  145MOL0     H19950   4.927   7.737   5.471 -0.9942 -0.3772  0.1909
  145MOL0     H19951   4.784   7.498   5.352 -1.5654  2.1384  1.7634
  145MOL0     H19952   4.956   7.528   5.350  0.3660  1.4341 -1.1850
  145MOL0     H19953   4.729   7.709   5.236 -0.0220 -0.4970  0.8485
  145MOL0     H19954   4.896   7.745   5.212  1.0742 -1.6653 -1.3741
  145MOL0     H19955   4.793   7.656   5.014  4.4695  1.2511 -0.4831
  145MOL0     H19956   4.744   7.507   5.101  0.7372 -0.3965  0.9502
  145MOL0     H19957   4.984   7.443   5.102  0.2762 -0.0644 -0.1214
  145MOL0     H19958   4.936   7.480   4.943 -1.5248 -0.2921 -0.2279
  145MOL0     H19959   5.133   7.636   5.246 -2.3676 -2.1006 -0.1880
  145MOL0     H19960   5.452   7.797   5.111  0.1577 -0.5417  0.0832
  145MOL0     H19961   5.366   7.758   5.259  0.5892 -2.8113 -0.7517
  145MOL0     H19962   5.333   7.993   5.067  0.6729  1.6413 -0.0503
  145MOL0     H19963   5.194   7.953   5.159  0.4886  3.2863 -3.4359
  145MOL0     H19964   5.311   8.139   5.268  1.9905  1.2009  1.1017
  145MOL0     H19965   5.343   7.998   5.374  1.8448 -2.9495 -0.3463
  145MOL0     H19966   5.548   8.132   5.174  2.7088 -2.3113 -0.0401
  145MOL0     H19967   5.538   8.150   5.345  3.0724  1.4286 -1.2237
  145MOL0     H19968   5.611   8.015   5.520  0.5712  2.6687 -0.8600
  145MOL0     H19969   5.851   7.930   5.762  2.1499  1.1350  0.5116
  145MOL0     H19970   5.712   8.038   5.731  0.5658  2.6432  1.5533
  145MOL0     H19971   5.875   8.099   5.715 -1.7300  1.0585 -1.5328
  145MOL0     H19972   6.330   7.981   5.412 -1.0926 -1.3101 -1.5049
  145MOL0     H19973   6.575   7.984   5.438 -0.9367  0.9865 -1.1939
  145MOL0     H19974   6.762   7.862   5.413 -1.6870 -1.7021  0.8944
  145MOL0     H19975   6.788   7.959   5.570 -1.5143  1.1097 -1.2174
  145MOL0     H19976   6.976   7.829   5.635  1.4743 -4.0022  0.8089
  145MOL0     H19977   6.948   7.706   5.517  0.8755 -0.0967  0.5673
  145MOL0     H19978   7.033   7.984   5.420  0.9792  0.4883 -1.0604
  145MOL0     H19979   7.015   7.830   5.336 -0.5445  0.8239  1.1735
  145MOL0     H19980   7.188   7.746   5.481 -0.8967 -0.1813  0.4558
  145MOL0     H19981   7.216   7.909   5.544  0.2470  0.5849 -0.8680
  145MOL0     H19982   7.243   7.828   5.254 -1.0945 -0.2383  0.9041
  145MOL0     H19983   7.262   7.986   5.307 -3.8156 -0.9064 -3.1663
  145MOL0     H19984   7.431   7.745   5.410  0.3766  0.4715  0.2724
  145MOL0     H19985   7.439   7.917   5.457 -1.6065  0.8480 -1.1273
  145MOL0     H19986   7.529   7.960   5.226  0.0749  0.8191  2.3312
  145MOL0     H19987   7.488   7.787   5.181 -2.0928 -0.8333  0.6245
  145MOL0     H19988   7.646   7.700   5.334 -2.1980 -0.0181 -2.0039
  145MOL0     H19989   7.676   7.873   5.397  0.2766  2.1055 -1.2685
  145MOL0     H19990   6.530   7.602   5.645  0.5591  0.6069  1.6958
  145MOL0     H19991   6.290   7.604   5.606  0.9029 -1.3146  0.3473
  145MOL0     H19992   6.028   7.869   5.297  0.1902 -1.7889  1.8435
  145MOL0     H19993   5.821   7.885   5.170 -1.4709  2.1576 -0.7719
  145MOL0     H19994   4.607   7.630   5.925 -1.4523 -1.0777  0.7701
  145MOL0     H19995   4.434   7.736   6.004  1.7933 -0.8923 -1.8435
  145MOL0     H19996   4.308   8.112   6.514 -2.5154 -1.7549  1.3519
  145MOL0     H19997   4.123   8.258   6.559 -0.3330 -0.2803  0.5326
  145MOL0     H19998   3.880   8.420   6.255  0.5707 -0.9376 -0.8996
  145MOL0     H19999   3.795   8.262   6.248  3.1211 -0.5077 -1.4859
  145MOL0     H20000   3.753   8.494   6.421  1.5306 -1.1249  0.7915
  145MOL0     H20001   3.688   8.339   6.473 -1.5808  1.2852  0.7000
  145MOL0     H20002   3.547   8.325   6.266  1.8640 -0.6818 -1.4952
  145MOL0     H20003   3.498   8.435   6.382 -1.4649  0.7128 -0.9652
  145MOL0     H20004   3.665   8.501   6.126 -1.0906  2.6360 -2.6468
  145MOL0     H20005   3.597   8.618   6.244 -0.9754 -0.1242 -0.7382
  145MOL0     H20006   3.258   8.487   6.018 -0.6475  0.6926  1.3040
  145MOL0     H20007   3.972   8.182   6.167 -1.3904 -0.4862  1.8259
  145MOL0     H20008   4.286   8.107   6.013 -1.1920 -0.8794 -3.6394
  145MOL0     H20009   4.167   7.974   6.036 -1.5981  0.5668  0.2589
  145MOL0     H20010   4.108   8.133   5.981 -1.4855 -3.3645 -3.4662
  146MOL0     O20011   1.087  10.584   9.657  0.5516 -0.1249 -0.1676
  146MOL0     C20012   1.040  10.684   9.719 -0.4265 -0.4938  0.7556
  146MOL0     O20013   1.099  10.769   9.806 -0.6940  0.3432 -0.5785
  146MOL0     C20014   1.230  10.786   9.835 -0.8144  0.6316 -0.0812
  146MOL0     C20015   1.257  10.829   9.970  0.1577 -0.1128 -0.3376
  146MOL0     C20016   1.387  10.853  10.004 -0.0325 -1.0270  0.3099
  146MOL0     C20017   1.493  10.823   9.916 -0.0024 -0.2212 -0.2125
  146MOL0     O20018   1.616  10.851   9.976 -0.7098 -0.3288 -0.3596
  146MOL0     C20019   1.663  10.760  10.078 -0.0588 -0.2292 -0.5284
  146MOL0     C20020   1.811  10.782  10.117  0.2723  0.2843  0.8101
  146MOL0     C20021   1.909  10.776   9.998  0.1427  0.0446  0.1906
  146MOL0     C20022   2.039  10.795  10.064 -0.8553  0.1720  0.1179
  146MOL0     C20023   2.166  10.795   9.975 -0.0259  0.0288 -0.5202
  146MOL0     C20024   2.191  10.925   9.904 -0.2301 -0.3278  1.1978
  146MOL0     C20025   2.307  10.902   9.803  1.0306 -0.1203 -0.1288
  146MOL0     C20026   2.274  10.814   9.684 -1.4213 -0.2912  0.6497
  146MOL0     N20027   2.367  10.819   9.572  1.0675  0.4382 -0.5549
  146MOL0     C20028   2.503  10.789   9.585  0.5764 -0.1925  0.8834
  146MOL0     C20029   2.554  10.792   9.457  0.2853  0.5333 -0.4039
  146MOL0     C20030   2.699  10.772   9.429 -0.1770 -0.0474  0.1338
  146MOL0     C20031   2.729  10.772   9.280  0.1968 -0.1662  0.3732
  146MOL0     C20032   2.874  10.729   9.239 -0.0674 -0.3937 -0.6660
  146MOL0     C20033   2.891  10.738   9.089 -0.6345 -0.1830  0.1771
  146MOL0     O20034   3.032  10.735   9.059 -0.1505 -0.2704 -0.4680
  146MOL0     C20035   3.068  10.777   8.936 -0.1520 -0.9338 -0.2935
  146MOL0     C20036   2.986  10.779   8.820 -0.1840  0.2186  0.9143
  146MOL0     C20037   3.033  10.832   8.694 -0.1658 -0.4257 -0.9881
  146MOL0     C20038   2.940  10.818   8.577  0.8925 -0.0826  0.3940
  146MOL0     C20039   3.167  10.875   8.682 -0.2875  0.4797 -0.7031
  146MOL0     C20040   3.221  10.942   8.562 -0.4189 -0.4883  0.8303
  146MOL0     O20041   3.354  10.934   8.532 -1.0666 -0.1004  0.0690
  146MOL0     C20042   3.406  11.012   8.425  0.6031  0.5098 -0.3946
  146MOL0     C20043   3.400  10.941   8.301 -0.3914  0.2104 -0.8811
  146MOL0     C20044   3.449  10.993   8.185 -0.4990 -0.3648 -0.4652
  146MOL0     C20045   3.488  11.129   8.183 -0.8269  0.1062  0.6234
  146MOL0     O20046   3.542  11.187   8.072 -0.3484  0.6035  0.1324
  146MOL0     C20047   3.600  11.102   7.973 -0.2123  0.5321 -0.1539
  146MOL0     C20048   3.668  11.175   7.860  0.9040  0.5877 -0.3986
  146MOL0     C20049   3.569  11.271   7.786 -0.5263  0.8537 -0.1637
  146MOL0     C20050   3.645  11.319   7.654  1.0452  0.0904  0.6269
  146MOL0     C20051   3.550  11.408   7.565 -0.8684 -0.8677 -0.4860
  146MOL0     C20052   3.525  11.543   7.631  0.2283 -0.5063  0.2233
  146MOL0     C20053   3.446  11.636   7.553  0.3277  0.5754 -0.0682
  146MOL0     C20054   3.393  11.752   7.638 -0.3535  0.8599 -0.1897
  146MOL0    Cl20055   3.304  11.859   7.541 -0.3279 -0.1165 -0.3827
  146MOL0     C20056   3.480  11.198   8.300  0.0911 -0.1522 -0.4471
  146MOL0     C20057   3.438  11.145   8.426  0.5660  1.2878 -0.5016
  146MOL0     O20058   3.145  11.020   8.511  0.3119 -0.3516 -0.8296
  146MOL0     C20059   3.247  10.863   8.797  0.0021 -0.4585  0.3076
  146MOL0     C20060   3.198  10.822   8.920  0.9830 -0.1647  0.3300
  146MOL0     N20061   2.452  10.826   9.374  1.1065 -0.0302  0.4606
  146MOL0     N20062   2.341  10.844   9.443  0.8287  0.0047 -0.3568
  146MOL0     C20063   1.465  10.768   9.787 -0.5093 -0.1667  0.6736
  146MOL0     C20064   1.335  10.751   9.748 -0.7468  0.3558  0.2140
  146MOL0     C20065   0.898  10.716   9.697 -0.1223 -0.2289  0.4126
  146MOL0     C20066   0.835  10.646   9.594 -0.3464  0.9048  0.1910
  146MOL0     C20067   0.709  10.683   9.557 -0.5183 -0.0525 -0.2305
  146MOL0     C20068   0.635  10.781   9.615 -0.1946 -0.5682  0.3536
  146MOL0     O20069   0.504  10.812   9.581 -0.2036 -0.6426 -0.1871
  146MOL0     C20070   0.418  10.721   9.511  0.6938  0.1419 -0.5466
  146MOL0     C20071   0.374  10.599   9.594  0.1099 -0.0220  0.1617
  146MOL0     C20072   0.329  10.487   9.500 -0.1239  0.0179  0.6637
  146MOL0     C20073   0.280  10.366   9.579 -0.2736 -0.4129 -0.2684
  146MOL0     C20074   0.220  10.261   9.494  0.5423  0.8431  0.7380
  146MOL0     C20075   0.177  10.157   9.441  0.2844 -0.4619  0.2363
  146MOL0     C20076   0.696  10.854   9.711  0.4153  0.5460  0.8698
  146MOL0     C20077   0.825  10.837   9.752  0.0666  0.3364 -0.6198
  146MOL0     C20078   0.870  10.927   9.871  0.5164 -0.0286 -0.5039
  146MOL0     H20079   1.179  10.852  10.042  0.3578 -1.0666  0.2090
  146MOL0     H20080   1.411  10.902  10.097 -0.7075  1.8009 -0.8852
  146MOL0     H20081   1.659  10.660  10.033  1.2368 -0.4542 -0.1935
  146MOL0     H20082   1.593  10.766  10.161  0.7559 -2.1049  0.3473
  146MOL0     H20083   1.813  10.872  10.179 -0.4829 -1.2122  3.1163
  146MOL0     H20084   1.834  10.703  10.189 -0.6977 -1.9422 -1.1746
  146MOL0     H20085   1.893  10.681   9.947 -1.9235 -0.3870  1.5443
  146MOL0     H20086   1.890  10.860   9.931 -0.7477 -0.8659 -0.7245
  146MOL0     H20087   2.036  10.894  10.112  0.5041  0.5245 -0.4720
  146MOL0     H20088   2.046  10.729  10.151 -0.2557  2.6169  2.0508
  146MOL0     H20089   2.155  10.719   9.897  1.0300 -1.4816  0.7443
  146MOL0     H20090   2.244  10.774  10.049 -2.6410  0.9207  2.7466
  146MOL0     H20091   2.100  10.967   9.860  0.8104  3.9475  2.6788
  146MOL0     H20092   2.225  10.996   9.980  2.4405  1.5661 -1.5226
  146MOL0     H20093   2.376  10.837   9.857 -0.5325 -1.8767 -0.1470
  146MOL0     H20094   2.356  10.995   9.771 -0.6034  0.7803 -0.1457
  146MOL0     H20095   2.295  10.718   9.732  2.5471  0.8658  1.5595
  146MOL0     H20096   2.172  10.831   9.647 -1.4418 -0.2383  0.7307
  146MOL0     H20097   2.564  10.771   9.672 -0.0185  1.4250  1.6792
  146MOL0     H20098   2.721  10.675   9.475  1.1912  0.7867  1.3300
  146MOL0     H20099   2.765  10.834   9.489  3.2037 -3.9568  0.8778
  146MOL0     H20100   2.666  10.699   9.228  1.1020  0.8654 -2.3694
  146MOL0     H20101   2.705  10.874   9.250 -1.6424 -0.5599  0.3950
  146MOL0     H20102   2.943  10.792   9.296 -2.8787  2.4520 -0.1409
  146MOL0     H20103   2.891  10.623   9.261  3.1616 -0.7909 -4.1123
  146MOL0     H20104   2.841  10.661   9.029  3.8154 -1.1231 -2.8052
  146MOL0     H20105   2.857  10.837   9.059  1.2158  0.8791  1.3883
  146MOL0     H20106   2.880  10.761   8.824 -0.3315  1.1573  2.1094
  146MOL0     H20107   2.985  10.788   8.482 -1.9692  2.2177 -1.9019
  146MOL0     H20108   2.890  10.914   8.561  2.3603  0.4990 -0.9881
  146MOL0     H20109   2.861  10.743   8.591  1.8348 -1.3973 -0.9971
  146MOL0     H20110   3.368  10.837   8.298  0.4549 -0.1375  1.0062
  146MOL0     H20111   3.452  10.926   8.100 -1.2648 -1.1963  0.1515
  146MOL0     H20112   3.676  11.037   8.017  0.6909 -0.2957 -2.7480
  146MOL0     H20113   3.523  11.036   7.933  0.4247 -0.1212 -0.3313
  146MOL0     H20114   3.749  11.234   7.902  0.1715 -0.3084  2.5306
  146MOL0     H20115   3.711  11.098   7.796  0.4966  0.1012 -0.0963
  146MOL0     H20116   3.560  11.359   7.850 -0.3407 -0.0964  1.1934
  146MOL0     H20117   3.476  11.216   7.768 -0.2541 -0.5311  2.2633
  146MOL0     H20118   3.700  11.238   7.604 -0.6239 -2.3953  2.5565
  146MOL0     H20119   3.721  11.385   7.696  0.0290  1.2757  0.6390
  146MOL0     H20120   3.584  11.417   7.461  0.8188 -1.6425 -0.0388
  146MOL0     H20121   3.454  11.356   7.568 -2.7493  2.3202  0.3355
  146MOL0     H20122   3.622  11.587   7.657 -0.3361  0.4727  0.7630
  146MOL0     H20123   3.477  11.528   7.728 -0.1366 -0.3323  0.0717
  146MOL0     H20124   3.359  11.580   7.515  0.2162 -0.1210  1.1423
  146MOL0     H20125   3.499  11.664   7.462  0.0581  3.9275  0.6792
  146MOL0     H20126   3.472  11.794   7.702 -0.1261 -0.5418  0.4662
  146MOL0     H20127   3.325  11.709   7.711 -0.9947  2.8466  0.4501
  146MOL0     H20128   3.516  11.299   8.288 -0.1749 -0.1653 -1.3846
  146MOL0     H20129   3.426  11.219   8.505 -3.6985 -0.0820  0.4329
  146MOL0     H20130   3.354  10.877   8.787 -0.1781  0.6712 -0.1585
  146MOL0     H20131   3.250  10.837   9.014 -0.0201  0.2325  0.8453
  146MOL0     H20132   1.549  10.740   9.723 -0.6018  1.7535 -0.3574
  146MOL0     H20133   1.327  10.692   9.657  0.3779 -3.7163  2.4763
  146MOL0     H20134   0.869  10.562   9.533 -1.9794 -0.3419  0.9307
  146MOL0     H20135   0.658  10.636   9.473 -1.7896 -0.6866  0.8571
  146MOL0     H20136   0.322  10.769   9.487  1.1308  1.0811 -0.4518
  146MOL0     H20137   0.456  10.693   9.412 -0.3021 -2.2619 -0.3263
  146MOL0     H20138   0.282  10.621   9.650 -0.9776 -2.6122 -0.4426
  146MOL0     H20139   0.453  10.560   9.658  0.4986  1.1224  0.3996
  146MOL0     H20140   0.253  10.528   9.433  0.7970  0.4510 -0.1400
  146MOL0     H20141   0.417  10.464   9.440 -0.6434 -1.9124  0.5398
  146MOL0     H20142   0.203  10.402   9.648 -0.7993 -0.1337 -0.9810
  146MOL0     H20143   0.361  10.323   9.638 -0.9567 -1.1515  0.1480
  146MOL0     H20144   0.152  10.056   9.413 -1.9940  0.4464 -1.2961
  146MOL0     H20145   0.648  10.941   9.755 -1.3172 -0.1615  0.4744
  146MOL0     H20146   0.793  10.984   9.924  0.2001 -3.4098  3.1091
  146MOL0     H20147   0.929  10.874   9.946  0.5896  1.0652  0.2315
  146MOL0     H20148   0.927  11.010   9.828 -2.5349  2.5110 -0.0061
  147MOL0     O20149   4.351   7.273   9.790 -0.3751 -0.2540  0.1792
  147MOL0     C20150   4.332   7.234   9.904  0.7318 -0.1456 -0.4129
  147MOL0     O20151   4.431   7.181   9.994 -0.1454 -0.4149  0.1632
  147MOL0     C20152   4.560   7.184   9.948  0.4645  0.4055  0.1411
  147MOL0     C20153   4.608   7.077   9.875  0.2878  0.4562 -0.1597
  147MOL0     C20154   4.745   7.064   9.833 -0.7170  0.1731 -0.1455
  147MOL0     C20155   4.835   7.172   9.855 -0.2842 -0.1132 -0.7088
  147MOL0     O20156   4.968   7.183   9.813  0.1517  0.4123 -0.7115
  147MOL0     C20157   5.015   7.067   9.746 -0.4847  0.2240  0.4793
  147MOL0     C20158   5.156   7.104   9.716  1.2365  0.2836 -0.2510
  147MOL0     C20159   5.239   6.993   9.670 -0.9861 -0.9835 -0.0955
  147MOL0     C20160   5.382   7.047   9.652  0.1752 -0.1509 -0.4216
  147MOL0     C20161   5.461   7.000   9.536  0.3766  0.2950 -0.1327
  147MOL0     C20162   5.586   7.091   9.500 -0.2971  0.3152  0.4195
  147MOL0     C20163   5.675   7.025   9.393  0.4427  0.0023 -0.1411
  147MOL0     C20164   5.792   7.117   9.357  0.4288 -0.1345 -0.8892
  147MOL0     N20165   5.866   7.072   9.238  0.2295 -0.4802  0.2920
  147MOL0     C20166   5.985   7.005   9.236  0.1051  1.2429  0.3161
  147MOL0     C20167   6.016   6.990   9.103 -0.3353 -1.4175  0.4635
  147MOL0     C20168   6.128   6.908   9.042 -0.3375  1.1846  0.2182
  147MOL0     C20169   6.173   6.944   8.898 -0.3536  0.6667 -1.0492
  147MOL0     C20170   6.259   6.829   8.846  0.0910 -0.0156 -0.1416
  147MOL0     C20171   6.320   6.848   8.716 -0.7563 -0.0704  0.0262
  147MOL0     O20172   6.462   6.870   8.727 -0.5791  0.1211 -0.5347
  147MOL0     C20173   6.547   6.763   8.744 -0.8482  0.7050 -0.1121
  147MOL0     C20174   6.684   6.792   8.739  0.3673 -0.2395 -0.8896
  147MOL0     C20175   6.779   6.690   8.752 -0.9932  0.1558 -0.6639
  147MOL0     C20176   6.921   6.736   8.747 -0.2948 -0.9349 -0.0943
  147MOL0     C20177   6.741   6.559   8.778  0.6039 -0.0429  0.3389
  147MOL0     C20178   6.834   6.458   8.812 -0.4534 -0.4073  1.2215
  147MOL0     O20179   6.926   6.487   8.908 -0.4605  0.6243 -0.3043
  147MOL0     C20180   7.018   6.404   8.961  0.2496 -0.1643 -0.6060
  147MOL0     C20181   7.121   6.362   8.881 -0.6582 -0.1685  0.7926
  147MOL0     C20182   7.218   6.285   8.925 -0.0772 -0.1470  0.2488
  147MOL0     C20183   7.213   6.238   9.055  0.0157 -0.3672  0.9942
  147MOL0     O20184   7.320   6.151   9.083 -0.1217 -0.3467 -0.2736
  147MOL0     C20185   7.328   6.099   9.215  0.5245  0.2664 -0.1892
  147MOL0     C20186   7.441   5.995   9.214 -0.6634 -0.8052 -0.6068
  147MOL0     C20187   7.445   5.922   9.345 -0.7271  0.3855 -0.1421
  147MOL0     C20188   7.540   5.791   9.329 -0.4875 -0.7272 -0.2199
  147MOL0     C20189   7.521   5.705   9.458  0.5130  0.3675  0.0900
  147MOL0     C20190   7.616   5.590   9.437 -0.6688  0.8684 -0.4565
  147MOL0     C20191   7.671   5.538   9.572 -0.9355  0.4775 -0.6252
  147MOL0     C20192   7.733   5.402   9.548  0.2183  0.5598 -0.1851
  147MOL0    Cl20193   7.862   5.416   9.423  0.0539  0.1577 -0.0434
  147MOL0     C20194   7.115   6.279   9.148  0.5182 -0.0125 -0.1893
  147MOL0     C20195   7.015   6.360   9.102  0.0253 -0.7246 -0.0586
  147MOL0     O20196   6.828   6.352   8.750  0.0166  0.2629  0.3357
  147MOL0     C20197   6.611   6.526   8.799  0.1458 -1.0718  0.4135
  147MOL0     C20198   6.514   6.632   8.778 -0.0831  0.4198  0.4369
  147MOL0     N20199   5.918   7.060   9.030  0.5408  0.2074 -0.8025
  147MOL0     N20200   5.830   7.104   9.108 -0.0808 -0.4755 -0.4537
  147MOL0     C20201   4.783   7.289   9.918  0.5910  0.6917 -0.2625
  147MOL0     C20202   4.652   7.286   9.976  0.1181  0.1240 -0.2017
  147MOL0     C20203   4.193   7.241   9.956 -0.1849 -1.2243  0.1551
  147MOL0     C20204   4.172   7.218  10.090  0.3792  0.1623  0.1476
  147MOL0     C20205   4.055   7.232  10.153  0.4668 -0.7738 -0.0379
  147MOL0     C20206   3.942   7.267  10.082 -0.4446 -0.7324  0.0739
  147MOL0     O20207   3.832   7.284  10.161  0.4131 -0.2786 -0.5344
  147MOL0     C20208   3.701   7.304  10.098 -0.0000 -0.3698 -0.5493
  147MOL0     C20209   3.608   7.258  10.210  0.8403  0.3136 -0.2614
  147MOL0     C20210   3.606   7.357  10.326 -0.0347 -0.3149 -0.6471
  147MOL0     C20211   3.476   7.334  10.417  0.3934 -0.0417  0.7065
  147MOL0     C20212   3.472   7.197  10.470 -0.1660 -1.1210 -0.3093
  147MOL0     C20213   3.469   7.089  10.513 -0.2595  0.3908 -0.4954
  147MOL0     C20214   3.953   7.275   9.944  0.0941 -0.1615  0.5336
  147MOL0     C20215   4.076   7.278   9.874 -0.2023 -0.0959 -1.2709
  147MOL0     C20216   4.073   7.281   9.727  0.3162  0.1635  0.6108
  147MOL0     H20217   4.537   6.997   9.856  1.5836 -1.4869  2.4961
  147MOL0     H20218   4.783   6.969   9.797 -0.6279  0.5554 -1.0835
  147MOL0     H20219   4.964   7.049   9.651  0.3659 -1.4139  0.2987
  147MOL0     H20220   5.013   6.975   9.806 -0.8014 -0.3421 -0.3807
  147MOL0     H20221   5.151   7.178   9.635 -0.0009  0.2131 -0.2614
  147MOL0     H20222   5.199   7.152   9.805  3.0818 -0.5478 -0.6488
  147MOL0     H20223   5.251   6.911   9.741  3.7451  2.5182  3.8147
  147MOL0     H20224   5.202   6.953   9.575  1.0142 -0.4858 -1.1188
  147MOL0     H20225   5.387   7.156   9.654 -2.3777  0.0607  2.2350
  147MOL0     H20226   5.436   7.023   9.744  0.2495  0.5791 -0.2715
  147MOL0     H20227   5.401   6.991   9.446 -0.9785 -0.1058  0.7764
  147MOL0     H20228   5.498   6.898   9.551  0.2213 -0.6726 -4.8824
  147MOL0     H20229   5.543   7.187   9.470  2.4320  1.5558  0.2175
  147MOL0     H20230   5.649   7.102   9.589  0.7691 -0.8646 -0.1575
  147MOL0     H20231   5.616   7.004   9.303  0.8722 -1.4524 -0.1202
  147MOL0     H20232   5.713   6.928   9.427 -2.1746 -0.8344  0.5579
  147MOL0     H20233   5.754   7.217   9.335  1.5083  1.2908  2.9985
  147MOL0     H20234   5.864   7.122   9.439  0.8961 -1.5328 -1.1676
  147MOL0     H20235   6.026   6.956   9.323 -1.9471 -2.1163 -0.4126
  147MOL0     H20236   6.082   6.809   9.039  1.1513  0.4537  0.6233
  147MOL0     H20237   6.210   6.895   9.112 -1.1259 -0.0198  0.9695
  147MOL0     H20238   6.083   6.949   8.835 -0.4569  2.9923 -0.7914
  147MOL0     H20239   6.217   7.043   8.886 -1.7230  1.1086 -3.0896
  147MOL0     H20240   6.335   6.821   8.925 -0.6296  2.8376  0.9618
  147MOL0     H20241   6.201   6.739   8.824  1.8616 -0.9456 -1.1574
  147MOL0     H20242   6.308   6.762   8.649 -0.9938 -0.4045  0.4885
  147MOL0     H20243   6.277   6.938   8.671  0.5727 -0.1121 -1.3825
  147MOL0     H20244   6.718   6.892   8.718 -0.4985  0.0888 -0.7644
  147MOL0     H20245   6.999   6.687   8.806  0.1458 -0.2377 -0.0816
  147MOL0     H20246   6.911   6.842   8.774 -0.8052 -0.6228 -1.4230
  147MOL0     H20247   6.948   6.734   8.641  0.5707  0.6859  0.0552
  147MOL0     H20248   7.114   6.385   8.775 -2.6646  1.3246  1.1963
  147MOL0     H20249   7.301   6.253   8.863 -1.6954 -0.7984 -1.6972
  147MOL0     H20250   7.353   6.181   9.283  1.4843  0.5721 -0.8876
  147MOL0     H20251   7.234   6.045   9.229  2.1453 -2.7280  0.0213
  147MOL0     H20252   7.421   5.920   9.137 -0.7347 -1.4606  0.0357
  147MOL0     H20253   7.534   6.047   9.192 -0.2540 -1.7363 -1.1560
  147MOL0     H20254   7.350   5.885   9.384  0.7162 -0.4899  2.8322
  147MOL0     H20255   7.485   5.998   9.413  2.4621 -1.8612  0.7325
  147MOL0     H20256   7.642   5.827   9.315 -1.1465  3.5270  3.6405
  147MOL0     H20257   7.502   5.724   9.251 -0.6512  0.2822 -1.0331
  147MOL0     H20258   7.557   5.760   9.545  1.0324 -1.9837  1.4494
  147MOL0     H20259   7.419   5.667   9.471  0.4673 -0.0795 -1.3385
  147MOL0     H20260   7.702   5.613   9.374  0.4807 -1.3278  0.2198
  147MOL0     H20261   7.557   5.510   9.392 -0.5699  0.9592 -0.7523
  147MOL0     H20262   7.587   5.523   9.640 -0.2525 -0.2836  0.0756
  147MOL0     H20263   7.740   5.606   9.623 -0.8842 -1.1931  1.6792
  147MOL0     H20264   7.652   5.328   9.540 -0.7692  1.0429  3.5375
  147MOL0     H20265   7.780   5.376   9.643  0.1373  2.0010  0.2726
  147MOL0     H20266   7.110   6.250   9.253 -1.5690 -0.4102 -0.3667
  147MOL0     H20267   6.934   6.399   9.162  1.1467  0.0103  1.0374
  147MOL0     H20268   6.584   6.428   8.838 -0.7519 -0.0641  2.4669
  147MOL0     H20269   6.411   6.605   8.799 -0.2506  0.0699 -0.7447
  147MOL0     H20270   4.841   7.381   9.920  0.6777  0.7021 -2.0393
  147MOL0     H20271   4.624   7.371  10.039  0.1621  1.4764 -1.9374
  147MOL0     H20272   4.252   7.203  10.162 -0.4942  0.5292  1.2173
  147MOL0     H20273   4.053   7.220  10.261  1.5481 -0.7875 -0.0146
  147MOL0     H20274   3.685   7.407  10.065  1.0835 -0.4783 -1.4887
  147MOL0     H20275   3.692   7.221  10.028  1.8639 -0.0296 -1.2541
  147MOL0     H20276   3.636   7.154  10.231  1.8355 -0.0235 -2.9362
  147MOL0     H20277   3.506   7.254  10.171  0.2707 -1.1311  1.2236
  147MOL0     H20278   3.701   7.338  10.376 -1.6778 -1.5900  2.2483
  147MOL0     H20279   3.599   7.461  10.292  2.3077  0.8638  2.0470
  147MOL0     H20280   3.392   7.354  10.349  1.6739 -0.2535 -1.0090
  147MOL0     H20281   3.465   7.412  10.493  0.5523  1.2956 -0.5893
  147MOL0     H20282   3.468   6.984  10.535 -1.9546  0.8473  2.1187
  147MOL0     H20283   3.860   7.280   9.887  0.7083 -2.5785 -0.8464
  147MOL0     H20284   4.124   7.372   9.692 -1.8309  0.8661 -0.8587
  147MOL0     H20285   4.122   7.189   9.693 -0.8900  0.3650 -1.8861
  147MOL0     H20286   3.973   7.288   9.685  0.1017  1.4668  1.2694
  148MOL0     O20287   8.817   7.022   3.627  1.0101  0.2026 -0.4367
  148MOL0     C20288   8.757   6.928   3.574 -0.6790 -0.6909 -0.4336
  148MOL0     O20289   8.818   6.832   3.496 -0.0053 -0.6655  0.3562
  148MOL0     C20290   8.950   6.807   3.486 -0.2121 -0.8610  0.9069
  148MOL0     C20291   8.995   6.739   3.372  0.5186  0.4608 -0.3000
  148MOL0     C20292   9.127   6.698   3.365 -0.3668  0.0808 -0.1499
  148MOL0     C20293   9.212   6.741   3.460  0.2860 -0.4925 -0.2964
  148MOL0     O20294   9.348   6.724   3.451  0.2136  0.1485 -0.0695
  148MOL0     C20295   9.415   6.637   3.361 -0.2781  0.5661 -0.3956
  148MOL0     C20296   9.567   6.664   3.370  0.2144  1.1576 -0.1243
  148MOL0     C20297   9.632   6.564   3.272  0.8218  0.7761 -1.0770
  148MOL0     C20298   9.778   6.518   3.308  0.8486  0.2146 -1.0618
  148MOL0     C20299   9.839   6.410   3.217 -0.5022 -0.5400 -0.0578
  148MOL0     C20300   9.949   6.342   3.300  0.0680  0.0462 -0.5555
  148MOL0     C20301  10.065   6.428   3.322  0.2192 -0.4251 -0.0983
  148MOL0     C20302  10.174   6.349   3.396 -0.5477 -0.1266  0.1592
  148MOL0     N20303  10.295   6.426   3.432  0.6340 -0.3035  0.3028
  148MOL0     C20304  10.418   6.409   3.389 -0.5121 -0.0784 -0.0126
  148MOL0     C20305  10.489   6.478   3.468 -0.5793 -0.4734 -1.0532
  148MOL0     C20306  10.632   6.487   3.457 -0.5325  0.9864 -0.2983
  148MOL0     C20307  10.686   6.627   3.441  0.0931 -0.9491  1.0156
  148MOL0     C20308  10.838   6.621   3.409  0.9737 -0.4234 -0.5165
  148MOL0     C20309  10.897   6.762   3.427 -0.1925  1.0754  0.3797
  148MOL0     O20310  10.973   6.770   3.545 -0.5831  0.0650  0.6426
  148MOL0     C20311  11.060   6.873   3.567  0.1212 -0.1142  0.6652
  148MOL0     C20312  11.037   7.002   3.515  0.6757 -0.1017 -0.0194
  148MOL0     C20313  11.125   7.116   3.543  0.2179  0.5192  0.5834
  148MOL0     C20314  11.069   7.252   3.503 -1.0325 -0.8252 -0.6213
  148MOL0     C20315  11.237   7.097   3.622  0.3142 -0.3022 -0.4333
  148MOL0     C20316  11.327   7.206   3.665 -1.0063 -0.2996  0.4785
  148MOL0     O20317  11.381   7.199   3.783  0.5834 -0.0670  0.2016
  148MOL0     C20318  11.492   7.278   3.810  0.5563 -0.0102 -0.8857
  148MOL0     C20319  11.474   7.418   3.811  0.3594  0.9897  0.2679
  148MOL0     C20320  11.570   7.501   3.870  1.2141  0.3437  0.1831
  148MOL0     C20321  11.684   7.447   3.939  0.1411 -0.5813 -0.5229
  148MOL0     O20322  11.787   7.519   4.003  0.5909  0.0426  0.0103
  148MOL0     C20323  11.808   7.652   3.965 -0.3276 -0.0573 -0.4353
  148MOL0     C20324  11.935   7.706   4.034 -0.4169 -0.8416  0.5459
  148MOL0     C20325  12.065   7.752   3.953  0.0435 -0.4346 -0.4032
  148MOL0     C20326  12.173   7.808   4.036 -0.0991  0.4981  0.1331
  148MOL0     C20327  12.303   7.835   3.953  0.8311 -0.1397 -1.0449
  148MOL0     C20328  12.418   7.887   4.044  0.3632 -0.8314 -0.5168
  148MOL0     C20329  12.555   7.914   3.977 -0.9373 -0.2072 -0.9974
  148MOL0     C20330  12.563   8.034   3.898 -0.1376 -0.4599 -0.5188
  148MOL0    Cl20331  12.541   8.177   4.001  0.0658 -0.3410 -0.0892
  148MOL0     C20332  11.695   7.311   3.943 -0.2429 -0.1051  0.3257
  148MOL0     C20333  11.601   7.224   3.887 -0.1097 -0.0667 -0.3895
  148MOL0     O20334  11.350   7.297   3.585 -0.2677 -0.0008  0.1238
  148MOL0     C20335  11.258   6.960   3.668 -0.7443 -0.9044 -0.0966
  148MOL0     C20336  11.174   6.850   3.642  0.3753 -0.2407  0.1460
  148MOL0     N20337  10.405   6.547   3.563  0.5598  0.3017  0.6202
  148MOL0     N20338  10.294   6.503   3.547  0.0681 -0.6515  0.0563
  148MOL0     C20339   9.171   6.809   3.575  0.5513 -0.5850  0.4003
  148MOL0     C20340   9.036   6.826   3.591 -0.0713  0.0525 -0.0653
  148MOL0     C20341   8.603   6.917   3.571  0.7302 -0.0566 -1.0836
  148MOL0     C20342   8.548   6.800   3.510 -0.4394 -0.8963 -0.5420
  148MOL0     C20343   8.415   6.780   3.528  1.0004  1.0635  0.5145
  148MOL0     C20344   8.335   6.872   3.604 -0.1945  0.5315 -0.2104
  148MOL0     O20345   8.206   6.852   3.632 -0.0891  0.4667 -0.4461
  148MOL0     C20346   8.139   6.732   3.595 -0.2673 -1.9883 -0.1792
  148MOL0     C20347   7.988   6.744   3.620  0.2041 -0.8181  0.1935
  148MOL0     C20348   7.971   6.771   3.763 -0.2475 -0.0196 -0.4017
  148MOL0     C20349   7.819   6.755   3.807 -0.8040 -0.2968 -0.9401
  148MOL0     C20350   7.726   6.849   3.740  0.3269 -0.5463 -0.1312
  148MOL0     C20351   7.645   6.941   3.707  0.6066 -0.2546  0.1064
  148MOL0     C20352   8.389   6.984   3.653 -0.1021  0.4233  0.4903
  148MOL0     C20353   8.524   7.010   3.644 -0.2672 -0.3074  0.1394
  148MOL0     C20354   8.574   7.145   3.695  0.1865 -0.3266 -0.3389
  148MOL0     H20355   8.927   6.710   3.292 -1.2599 -1.0676  1.6461
  148MOL0     H20356   9.159   6.626   3.290 -2.4240  2.1102 -3.2037
  148MOL0     H20357   9.379   6.663   3.260  0.0978 -0.8671 -0.9268
  148MOL0     H20358   9.399   6.534   3.394 -1.3708  0.9289  0.2682
  148MOL0     H20359   9.588   6.766   3.336  3.2413 -0.7074 -4.9284
  148MOL0     H20360   9.612   6.640   3.467  3.1997 -2.6710 -2.1868
  148MOL0     H20361   9.578   6.469   3.270 -0.7148  1.6208 -2.8502
  148MOL0     H20362   9.631   6.605   3.171  1.6272  1.5399 -0.7862
  148MOL0     H20363   9.842   6.606   3.313  0.0142  0.8075 -0.4579
  148MOL0     H20364   9.774   6.471   3.407  0.9040  2.8260  0.2596
  148MOL0     H20365   9.886   6.459   3.131  3.0019 -1.1567  1.3399
  148MOL0     H20366   9.762   6.341   3.179  0.4631 -2.0736  0.6486
  148MOL0     H20367   9.908   6.300   3.393 -1.8845  1.6759 -0.6184
  148MOL0     H20368   9.978   6.259   3.236 -2.1671 -0.4498 -1.0014
  148MOL0     H20369  10.048   6.519   3.380  2.0175  0.4342 -0.8210
  148MOL0     H20370  10.095   6.477   3.229  0.5166  0.1105  0.2755
  148MOL0     H20371  10.130   6.280   3.470 -0.2248  0.1407  0.6074
  148MOL0     H20372  10.201   6.277   3.318 -1.0210  0.9140 -0.9810
  148MOL0     H20373  10.457   6.349   3.307  2.5968  0.8983  0.6014
  148MOL0     H20374  10.677   6.421   3.382  2.0782  3.4055 -1.0529
  148MOL0     H20375  10.677   6.452   3.550 -0.1568  1.0210 -0.4620
  148MOL0     H20376  10.634   6.671   3.355  1.8956 -0.5694  0.0838
  148MOL0     H20377  10.661   6.690   3.527  0.2737 -0.0351  0.4016
  148MOL0     H20378  10.882   6.542   3.471  2.1618  0.3036 -0.4190
  148MOL0     H20379  10.840   6.589   3.304 -1.0186 -1.6660 -0.2376
  148MOL0     H20380  10.948   6.796   3.336 -3.2862  1.2098 -1.4468
  148MOL0     H20381  10.818   6.837   3.433 -1.1163  0.1270  0.3097
  148MOL0     H20382  10.949   7.022   3.455  1.4609 -1.3395 -1.6336
  148MOL0     H20383  11.136   7.290   3.425  2.8264 -3.3276  1.1441
  148MOL0     H20384  11.070   7.319   3.590 -1.3404  1.3992 -2.2372
  148MOL0     H20385  10.969   7.251   3.460 -0.8669  1.1038 -1.1549
  148MOL0     H20386  11.385   7.460   3.764 -0.0698  0.1507  0.3089
  148MOL0     H20387  11.552   7.607   3.860  1.0010  0.3771  0.8580
  148MOL0     H20388  11.814   7.662   3.856 -1.2277  0.9350 -0.4160
  148MOL0     H20389  11.717   7.702   3.999  0.7358  2.3155 -0.7883
  148MOL0     H20390  11.911   7.804   4.078  2.5227 -0.0225  0.6033
  148MOL0     H20391  11.974   7.646   4.117 -0.0563 -2.0555 -0.4787
  148MOL0     H20392  12.025   7.836   3.896 -3.5849  1.3379  4.1638
  148MOL0     H20393  12.093   7.674   3.881 -1.5315  0.4635 -2.0636
  148MOL0     H20394  12.190   7.732   4.114 -0.3167  1.8550  1.5639
  148MOL0     H20395  12.138   7.895   4.093 -1.1948  0.4971 -0.5062
  148MOL0     H20396  12.339   7.742   3.906  0.2508 -1.2912  0.6996
  148MOL0     H20397  12.273   7.912   3.881 -0.5194  0.1513 -0.2135
  148MOL0     H20398  12.428   7.815   4.126 -0.9009 -0.4893 -0.0224
  148MOL0     H20399  12.393   7.977   4.101  3.1593  0.2259 -0.8252
  148MOL0     H20400  12.588   7.833   3.911 -1.1556 -1.1662  0.0547
  148MOL0     H20401  12.632   7.915   4.055  0.3820 -1.5575 -2.2028
  148MOL0     H20402  12.486   8.024   3.822 -1.4801 -0.8917  0.8374
  148MOL0     H20403  12.656   8.039   3.841  0.7268 -0.4370  0.8227
  148MOL0     H20404  11.770   7.275   4.013  1.6440  0.2938 -1.4040
  148MOL0     H20405  11.609   7.118   3.907 -1.1829 -0.7829 -3.2939
  148MOL0     H20406  11.336   6.932   3.738 -0.5579 -0.1538  0.0067
  148MOL0     H20407  11.187   6.752   3.687 -1.5384 -0.6023  0.0144
  148MOL0     H20408   9.235   6.818   3.662 -0.1097 -1.3562  0.9815
  148MOL0     H20409   9.002   6.853   3.691  1.0289 -1.6009  0.8055
  148MOL0     H20410   8.618   6.731   3.464  0.1148 -0.8317  0.1763
  148MOL0     H20411   8.377   6.692   3.476 -0.8462 -0.2041  3.7087
  148MOL0     H20412   8.151   6.706   3.489  0.4045 -0.6012 -0.4686
  148MOL0     H20413   8.175   6.645   3.650 -2.4079 -2.3351  0.7678
  148MOL0     H20414   7.936   6.652   3.592 -0.0918 -0.4312 -0.5515
  148MOL0     H20415   7.945   6.831   3.569  0.0435  0.1525  1.9212
  148MOL0     H20416   8.030   6.699   3.821  0.5394  0.7372 -0.2293
  148MOL0     H20417   8.008   6.868   3.798  1.1182 -1.0704  1.2301
  148MOL0     H20418   7.815   6.785   3.912  0.3195  2.4661 -1.6065
  148MOL0     H20419   7.797   6.648   3.796  1.9081 -1.2907  1.8707
  148MOL0     H20420   7.585   7.030   3.695  1.8512  1.3529  4.0905
  148MOL0     H20421   8.326   7.053   3.709 -1.0792  0.0445 -0.1198
  148MOL0     H20422   8.646   7.135   3.776  3.1805 -1.0355 -2.8942
  148MOL0     H20423   8.622   7.192   3.609 -1.2451  1.1206 -0.3925
  148MOL0     H20424   8.481   7.199   3.717 -0.4594 -1.2483 -0.6951
  149MOL0     O20425   7.232   2.828   3.833 -0.0114  0.2831  0.2851
  149MOL0     C20426   7.164   2.927   3.858 -0.0535  0.1255 -0.1381
  149MOL0     O20427   7.197   3.055   3.814 -0.3187 -0.0038 -0.4180
  149MOL0     C20428   7.325   3.082   3.772 -0.0319 -0.2111 -1.1507
  149MOL0     C20429   7.350   3.090   3.636 -0.1941  0.6606  0.5128
  149MOL0     C20430   7.475   3.122   3.593 -0.0302  0.3312 -0.2749
  149MOL0     C20431   7.578   3.155   3.678 -0.0114  0.7599 -0.7793
  149MOL0     O20432   7.691   3.212   3.640  0.1250  0.0359  0.2437
  149MOL0     C20433   7.709   3.275   3.513  0.4655 -0.2985 -0.4345
  149MOL0     C20434   7.781   3.407   3.513  0.0271 -0.1893  0.0856
  149MOL0     C20435   7.928   3.385   3.542  0.2498 -0.0111 -0.0685
  149MOL0     C20436   8.019   3.512   3.558 -0.6071 -0.5430 -0.1475
  149MOL0     C20437   8.155   3.468   3.519  0.1052 -0.2337  0.0164
  149MOL0     C20438   8.257   3.563   3.587 -0.9862  0.8778 -0.5945
  149MOL0     C20439   8.379   3.580   3.501  0.2996  0.1345 -0.4362
  149MOL0     C20440   8.491   3.646   3.579 -0.4502  0.0119 -0.0915
  149MOL0     N20441   8.551   3.545   3.675 -0.3493 -0.0809 -0.2878
  149MOL0     C20442   8.680   3.519   3.665 -0.7327  0.6255  0.3522
  149MOL0     C20443   8.708   3.467   3.784 -0.2930  0.1599  1.1211
  149MOL0     C20444   8.853   3.425   3.811  0.6590 -0.0708 -0.2601
  149MOL0     C20445   8.876   3.273   3.795 -0.1380 -0.0452  0.6357
  149MOL0     C20446   8.951   3.228   3.665  0.4857  0.0058 -0.1177
  149MOL0     C20447   9.093   3.264   3.686 -0.7561 -0.6039  0.0856
  149MOL0     O20448   9.185   3.231   3.586  0.3533  0.0887  0.2638
  149MOL0     C20449   9.302   3.292   3.593  0.7434 -0.2599  0.0321
  149MOL0     C20450   9.337   3.385   3.494 -0.4101  0.2048 -0.0905
  149MOL0     C20451   9.462   3.448   3.498  0.3157 -0.0081 -0.5295
  149MOL0     C20452   9.488   3.538   3.383  0.1767 -0.0855 -0.9927
  149MOL0     C20453   9.554   3.422   3.596 -1.3846  0.1763  0.1452
  149MOL0     C20454   9.692   3.480   3.614  0.8944 -0.1026  0.0037
  149MOL0     O20455   9.750   3.459   3.739 -0.4852 -0.3951 -0.4187
  149MOL0     C20456   9.886   3.451   3.749 -0.2111  0.5454 -0.0177
  149MOL0     C20457   9.959   3.339   3.711  0.0664 -0.0611 -0.0744
  149MOL0     C20458  10.102   3.329   3.724 -0.1787 -0.4949  0.0993
  149MOL0     C20459  10.175   3.435   3.780 -0.3815  0.0568 -0.9770
  149MOL0     O20460  10.314   3.445   3.782  0.4373 -0.6142  0.2981
  149MOL0     C20461  10.378   3.318   3.810 -0.7352 -1.3217 -0.2517
  149MOL0     C20462  10.524   3.336   3.842  0.2259 -0.1770  0.5835
  149MOL0     C20463  10.540   3.429   3.968  0.2075 -0.0445  0.2565
  149MOL0     C20464  10.679   3.483   4.014  0.1081  0.0034 -0.3883
  149MOL0     C20465  10.759   3.543   3.900  1.0329  0.1125  0.3357
  149MOL0     C20466  10.912   3.576   3.926 -0.1263  0.1947  0.2035
  149MOL0     C20467  10.924   3.710   4.000 -0.3685 -0.0609  0.3842
  149MOL0     C20468  11.070   3.742   4.043 -0.7866 -0.8259 -0.8416
  149MOL0    Cl20469  11.167   3.807   3.909 -0.3776  0.3172 -0.0819
  149MOL0     C20470  10.098   3.547   3.823 -0.3552  0.4154  0.9128
  149MOL0     C20471   9.957   3.556   3.804  0.0063 -1.2826  0.1173
  149MOL0     O20472   9.734   3.562   3.530  0.7025 -0.0325 -0.4984
  149MOL0     C20473   9.518   3.319   3.691 -0.1893 -0.4219 -0.3196
  149MOL0     C20474   9.391   3.263   3.700  0.3672 -0.5180 -0.2889
  149MOL0     N20475   8.603   3.462   3.867 -0.3522  0.0119  0.3367
  149MOL0     N20476   8.502   3.515   3.802  0.2323  0.0818 -0.2626
  149MOL0     C20477   7.562   3.135   3.813 -0.1923 -1.0698 -0.1699
  149MOL0     C20478   7.439   3.105   3.864 -0.4411 -1.1067 -0.1513
  149MOL0     C20479   7.038   2.921   3.938  0.0858  0.6171  0.1208
  149MOL0     C20480   6.970   3.045   3.954  0.6623  0.8884  0.1150
  149MOL0     C20481   6.853   3.051   4.029  0.7928  0.4018  0.3055
  149MOL0     C20482   6.807   2.935   4.089  0.4503 -0.1961  0.2702
  149MOL0     O20483   6.701   2.956   4.172 -0.0349  0.8608 -0.1350
  149MOL0     C20484   6.649   2.836   4.240 -0.0611 -0.0282 -0.2258
  149MOL0     C20485   6.529   2.877   4.321  0.5206  1.0096  0.1478
  149MOL0     C20486   6.418   2.922   4.220  0.3674 -0.1500  0.3666
  149MOL0     C20487   6.273   2.938   4.267  0.4316  0.4699  0.4860
  149MOL0     C20488   6.219   2.811   4.325  0.1492  0.2671 -0.1116
  149MOL0     C20489   6.177   2.718   4.390 -0.3439 -0.1444  0.5790
  149MOL0     C20490   6.864   2.811   4.071 -0.4486  0.0349  0.4557
  149MOL0     C20491   6.978   2.801   3.988 -0.3593 -0.0078  0.5153
  149MOL0     C20492   7.034   2.668   3.951  0.2679 -0.5709  0.4537
  149MOL0     H20493   7.273   3.075   3.561  0.9121 -2.0421 -0.2118
  149MOL0     H20494   7.495   3.135   3.487 -1.8295  1.9221 -0.4727
  149MOL0     H20495   7.610   3.304   3.475  0.4804 -2.3099 -2.2079
  149MOL0     H20496   7.754   3.205   3.442 -2.8369 -0.6649 -2.3685
  149MOL0     H20497   7.757   3.466   3.424 -0.2289  4.4799  2.9301
  149MOL0     H20498   7.734   3.464   3.594  0.9453 -0.3352  0.7360
  149MOL0     H20499   7.939   3.315   3.626 -1.5444  0.6694  0.7725
  149MOL0     H20500   7.968   3.326   3.458  2.4702  0.7851  0.3721
  149MOL0     H20501   7.985   3.597   3.499 -0.6805 -0.4580  0.0151
  149MOL0     H20502   8.018   3.535   3.665 -0.0528 -0.6153 -0.1251
  149MOL0     H20503   8.161   3.475   3.410  2.1580 -0.8863  0.0301
  149MOL0     H20504   8.174   3.368   3.559  0.4332  0.2808  1.1677
  149MOL0     H20505   8.210   3.659   3.611 -2.3855  0.0423  0.1651
  149MOL0     H20506   8.287   3.517   3.681 -1.2046 -3.6543 -2.4961
  149MOL0     H20507   8.355   3.647   3.418  3.0348  0.8531 -0.7202
  149MOL0     H20508   8.405   3.484   3.456 -1.7161 -1.5206  1.7090
  149MOL0     H20509   8.558   3.683   3.501 -1.0255 -1.6326 -1.4239
  149MOL0     H20510   8.458   3.732   3.638  0.8803  0.6350 -0.1997
  149MOL0     H20511   8.744   3.535   3.579 -3.3019  1.3813 -1.5539
  149MOL0     H20512   8.875   3.437   3.917  1.4297 -3.4440  0.0745
  149MOL0     H20513   8.930   3.485   3.762  1.9431 -0.4552  1.2203
  149MOL0     H20514   8.931   3.239   3.883 -2.2316 -1.5555  1.4443
  149MOL0     H20515   8.780   3.225   3.812  0.1417  0.4723  4.6516
  149MOL0     H20516   8.944   3.120   3.648 -0.6835  0.2384 -1.3183
  149MOL0     H20517   8.911   3.268   3.571  0.4632  0.7325  0.1891
  149MOL0     H20518   9.108   3.372   3.697  0.2814 -0.6115 -1.0095
  149MOL0     H20519   9.120   3.207   3.776  0.6581  1.1106  0.8104
  149MOL0     H20520   9.263   3.406   3.418 -0.3098  1.9789  0.2414
  149MOL0     H20521   9.397   3.541   3.323 -2.4083  3.9318  2.5087
  149MOL0     H20522   9.576   3.515   3.322  2.2110  0.3409  1.5832
  149MOL0     H20523   9.489   3.640   3.422  2.4279 -0.4072 -0.0321
  149MOL0     H20524   9.900   3.253   3.683 -0.5511 -1.0897  3.9001
  149MOL0     H20525  10.149   3.236   3.692  0.0853 -1.2250  2.3977
  149MOL0     H20526  10.338   3.274   3.901  2.9293 -1.8825  1.2677
  149MOL0     H20527  10.360   3.253   3.723  0.2184 -0.6348 -0.9946
  149MOL0     H20528  10.565   3.237   3.864  1.3886 -0.2844 -1.7252
  149MOL0     H20529  10.575   3.382   3.757  1.4608 -1.9257  0.3137
  149MOL0     H20530  10.501   3.368   4.051 -0.4233  0.0294  0.0247
  149MOL0     H20531  10.478   3.517   3.948  0.5291 -0.2647 -1.9331
  149MOL0     H20532  10.740   3.403   4.058  0.9364  1.3445  0.9886
  149MOL0     H20533  10.665   3.552   4.097  0.4761  1.1530 -1.2514
  149MOL0     H20534  10.745   3.477   3.814 -1.7653  3.1071 -1.7446
  149MOL0     H20535  10.708   3.635   3.871  2.2819  0.5113 -0.6471
  149MOL0     H20536  10.975   3.589   3.837  1.2978  1.1917  1.3146
  149MOL0     H20537  10.954   3.495   3.987  0.9679 -0.0506 -0.8308
  149MOL0     H20538  10.865   3.700   4.091 -1.4765 -1.2330 -0.4180
  149MOL0     H20539  10.879   3.786   3.935 -0.7240 -1.2256 -0.7731
  149MOL0     H20540  11.110   3.662   4.105  2.1049  1.2876  0.2341
  149MOL0     H20541  11.060   3.826   4.112 -0.2376  1.1514 -3.0117
  149MOL0     H20542  10.157   3.629   3.864 -1.2752  1.7556 -0.3291
  149MOL0     H20543   9.905   3.641   3.846  3.5459  0.6799  0.9448
  149MOL0     H20544   9.589   3.286   3.766  2.0231 -0.1010 -2.1750
  149MOL0     H20545   9.362   3.190   3.775  0.3702 -1.1838 -0.9147
  149MOL0     H20546   7.642   3.144   3.886 -1.9913 -1.3131  1.9347
  149MOL0     H20547   7.427   3.092   3.971  0.9523 -2.9870 -0.1593
  149MOL0     H20548   7.015   3.140   3.927  1.2990  0.8036  0.8572
  149MOL0     H20549   6.796   3.144   4.027 -1.1282 -0.7152 -1.1172
  149MOL0     H20550   6.627   2.767   4.158 -2.5683  0.1271  0.2232
  149MOL0     H20551   6.724   2.790   4.305  0.6355  1.8523  0.3556
  149MOL0     H20552   6.547   2.958   4.392  0.9370  0.8035  0.2850
  149MOL0     H20553   6.500   2.786   4.375  1.7719  1.1336  1.0926
  149MOL0     H20554   6.442   3.020   4.177 -1.5030  0.5512  0.8644
  149MOL0     H20555   6.413   2.853   4.135  1.1501  0.0742  0.1244
  149MOL0     H20556   6.222   2.992   4.186 -0.7513  0.2000  1.0326
  149MOL0     H20557   6.266   3.011   4.348  0.8412  2.5175 -1.2030
  149MOL0     H20558   6.146   2.637   4.453  0.2960 -0.3713  0.6166
  149MOL0     H20559   6.829   2.717   4.114  0.8803 -1.5747 -1.7381
  149MOL0     H20560   6.997   2.580   4.005  2.4730 -0.7527  1.7832
  149MOL0     H20561   7.016   2.660   3.844 -2.5841  3.5111  0.3923
  149MOL0     H20562   7.138   2.646   3.979 -0.4727 -2.2316  2.1779
  150MOL0     O20563   5.062   7.663   7.667  0.7441 -0.0826  0.0048
  150MOL0     C20564   5.065   7.721   7.780 -0.8412  0.5894  0.3079
  150MOL0     O20565   5.178   7.747   7.849 -0.0989 -0.4954 -0.3495
  150MOL0     C20566   5.298   7.710   7.800 -0.1033  1.1217 -0.1725
  150MOL0     C20567   5.397   7.796   7.818 -0.3353  0.4950  0.4964
  150MOL0     C20568   5.527   7.764   7.782 -0.4959  0.7947 -0.3220
  150MOL0     C20569   5.560   7.649   7.716  0.6525  0.2535  0.5994
  150MOL0     O20570   5.690   7.636   7.683  0.1368  0.1806 -0.0909
  150MOL0     C20571   5.725   7.529   7.600  0.0236  1.4567  0.0531
  150MOL0     C20572   5.872   7.543   7.564  0.2506  1.0629  0.7361
  150MOL0     C20573   5.965   7.525   7.679 -0.5437  0.0050  1.2602
  150MOL0     C20574   5.962   7.386   7.744  0.3573 -0.6389 -0.8798
  150MOL0     C20575   6.045   7.284   7.663 -0.1557  0.0812 -1.1463
  150MOL0     C20576   6.011   7.142   7.707  0.8031  0.7249  0.4713
  150MOL0     C20577   6.101   7.042   7.625 -0.4661 -0.6064  0.1011
  150MOL0     C20578   6.075   7.047   7.475  0.6767  0.1106  0.7053
  150MOL0     N20579   6.099   6.910   7.429  0.0662 -0.8090 -0.6050
  150MOL0     C20580   6.002   6.811   7.411 -0.1125  0.1854  0.2307
  150MOL0     C20581   6.068   6.695   7.391 -0.3943  1.1750 -0.5704
  150MOL0     C20582   6.020   6.558   7.357  0.1106  0.4311  0.2997
  150MOL0     C20583   6.019   6.510   7.220 -0.6630 -0.3183  0.3978
  150MOL0     C20584   6.152   6.481   7.157  0.1522 -0.0813  0.3392
  150MOL0     C20585   6.229   6.362   7.220  1.0942 -0.3477  0.3527
  150MOL0     O20586   6.127   6.264   7.243 -0.4075  0.6199  0.2229
  150MOL0     C20587   6.124   6.158   7.160  0.1915  0.0879 -0.0883
  150MOL0     C20588   6.016   6.130   7.084  0.6657  0.3159  0.2963
  150MOL0     C20589   6.003   6.016   7.008 -0.0133  0.1709  0.3123
  150MOL0     C20590   5.882   6.000   6.917 -0.2223 -0.4259  0.4344
  150MOL0     C20591   6.110   5.917   7.011  0.0486 -0.2736  0.6035
  150MOL0     C20592   6.109   5.798   6.919  0.6034 -0.4446 -0.1342
  150MOL0     O20593   6.194   5.704   6.970 -0.7068 -0.1065 -0.9028
  150MOL0     C20594   6.254   5.614   6.885  0.2733  0.1561 -0.0039
  150MOL0     C20595   6.174   5.538   6.793  0.0452  0.0760 -0.1655
  150MOL0     C20596   6.242   5.457   6.705  0.8619  0.6723 -0.0341
  150MOL0     C20597   6.387   5.444   6.700  0.5692 -0.0387 -0.0468
  150MOL0     O20598   6.447   5.362   6.606  0.4180 -0.2134 -0.3524
  150MOL0     C20599   6.376   5.319   6.491 -0.1724 -0.0705  1.0132
  150MOL0     C20600   6.465   5.238   6.399  0.6891  0.4994  0.6180
  150MOL0     C20601   6.596   5.314   6.348  0.3650 -0.4916  1.2146
  150MOL0     C20602   6.698   5.215   6.280 -0.3802  0.7774 -0.2220
  150MOL0     C20603   6.824   5.286   6.222  0.3936  0.2692  0.2412
  150MOL0     C20604   6.890   5.175   6.130 -0.4895 -0.0025  0.3126
  150MOL0     C20605   7.033   5.214   6.086  0.3593 -0.2620 -0.9176
  150MOL0     C20606   7.128   5.097   6.095  0.0241  0.1086 -0.2026
  150MOL0    Cl20607   7.087   5.009   5.950 -0.0517 -0.2242 -0.5919
  150MOL0     C20608   6.455   5.510   6.800  0.5818  0.4679 -0.0575
  150MOL0     C20609   6.387   5.591   6.895  0.3331 -0.9877 -0.1867
  150MOL0     O20610   6.065   5.804   6.806 -0.1286  0.0108  0.6615
  150MOL0     C20611   6.229   5.954   7.077 -0.4646  1.1384  0.1360
  150MOL0     C20612   6.234   6.066   7.166  0.3106 -0.5146 -0.5028
  150MOL0     N20613   6.203   6.724   7.394 -0.0350 -0.0577  0.1664
  150MOL0     N20614   6.220   6.853   7.417 -0.6775 -0.4961 -0.0711
  150MOL0     C20615   5.459   7.559   7.694 -0.0658 -0.1712  0.4097
  150MOL0     C20616   5.330   7.585   7.731  0.0986  0.0491 -1.3961
  150MOL0     C20617   4.935   7.748   7.849 -0.2391 -0.6004 -0.3745
  150MOL0     C20618   4.934   7.768   7.987 -0.4653 -0.0284  0.0404
  150MOL0     C20619   4.819   7.815   8.058 -0.6404 -0.5694 -0.4336
  150MOL0     C20620   4.699   7.818   7.991  0.0369 -0.4901 -0.6701
  150MOL0     O20621   4.576   7.849   8.055 -0.6624 -0.7842  0.2840
  150MOL0     C20622   4.578   7.824   8.200  0.3639 -0.3843 -0.4491
  150MOL0     C20623   4.442   7.827   8.250  0.2863 -0.1268 -0.5373
  150MOL0     C20624   4.385   7.965   8.207  0.1638  0.6011  0.2933
  150MOL0     C20625   4.228   7.976   8.239 -0.7668  0.7847 -0.2918
  150MOL0     C20626   4.203   7.977   8.382 -0.7471 -1.0591 -0.0216
  150MOL0     C20627   4.182   7.979   8.504 -0.6021  0.2285  0.5379
  150MOL0     C20628   4.695   7.808   7.857 -0.0304 -0.3232 -0.0661
  150MOL0     C20629   4.816   7.778   7.780  0.3802  0.4139 -0.1200
  150MOL0     C20630   4.799   7.771   7.630  0.9355 -0.0700  0.2610
  150MOL0     H20631   5.380   7.892   7.866  3.6184  2.5420 -1.6843
  150MOL0     H20632   5.606   7.837   7.796  1.4800 -1.3669  0.6089
  150MOL0     H20633   5.666   7.542   7.509  0.4835 -0.5866 -0.5834
  150MOL0     H20634   5.695   7.434   7.647  0.6188  1.2871  0.0926
  150MOL0     H20635   5.894   7.470   7.486 -0.4103 -0.6432  2.0777
  150MOL0     H20636   5.894   7.639   7.517  3.4954 -0.2530 -0.7331
  150MOL0     H20637   6.064   7.558   7.646 -1.6863  5.1612  2.1206
  150MOL0     H20638   5.933   7.591   7.760 -0.3078 -1.0530  2.2361
  150MOL0     H20639   6.002   7.393   7.845 -0.6407  0.9884 -0.5585
  150MOL0     H20640   5.860   7.350   7.760  0.2857  0.0734  0.3702
  150MOL0     H20641   6.148   7.316   7.678 -0.0644 -1.0197  0.9955
  150MOL0     H20642   6.016   7.309   7.560  1.4399  2.5175 -1.0800
  150MOL0     H20643   6.047   7.143   7.811  0.2570  2.1517  0.6659
  150MOL0     H20644   5.904   7.129   7.691  0.6862  2.2920 -0.1729
  150MOL0     H20645   6.079   6.942   7.662  0.7091 -1.1823 -0.6965
  150MOL0     H20646   6.209   7.056   7.637 -0.2586 -0.6091 -1.4888
  150MOL0     H20647   5.967   7.066   7.466  0.4201 -0.7656  1.7852
  150MOL0     H20648   6.138   7.120   7.424 -2.4046  1.2234 -1.8166
  150MOL0     H20649   5.895   6.821   7.418 -0.1796 -0.8814  0.8961
  150MOL0     H20650   5.918   6.546   7.395  0.2634 -0.8288  0.3507
  150MOL0     H20651   6.074   6.487   7.420 -0.0757 -0.0519 -0.0875
  150MOL0     H20652   5.968   6.413   7.228  2.5444 -2.4381 -2.1900
  150MOL0     H20653   5.962   6.589   7.171  1.9298  0.2206 -1.9900
  150MOL0     H20654   6.134   6.456   7.052 -3.2978  0.3756  0.7068
  150MOL0     H20655   6.224   6.563   7.165 -1.7706  1.5978  1.5377
  150MOL0     H20656   6.314   6.345   7.154  0.8840  0.7283 -0.2194
  150MOL0     H20657   6.256   6.403   7.317 -2.5684 -1.9015  2.2575
  150MOL0     H20658   5.939   6.206   7.074  1.9119  2.1155  3.1089
  150MOL0     H20659   5.798   6.033   6.978 -0.4371 -1.8324  0.9423
  150MOL0     H20660   5.856   5.901   6.878  1.1067 -0.2153 -1.1098
  150MOL0     H20661   5.881   6.068   6.831 -0.6486 -0.8187  0.1221
  150MOL0     H20662   6.067   5.554   6.781  0.0794 -1.0924 -2.9991
  150MOL0     H20663   6.189   5.411   6.623  3.0068 -1.0915 -0.5246
  150MOL0     H20664   6.290   5.258   6.522 -2.7942  2.7364 -0.2508
  150MOL0     H20665   6.343   5.397   6.422 -0.7989 -0.3852  0.9533
  150MOL0     H20666   6.491   5.145   6.450  0.7015  0.9467  1.4451
  150MOL0     H20667   6.398   5.211   6.316 -2.8540 -0.0329  3.3797
  150MOL0     H20668   6.651   5.372   6.423 -0.1793  0.0899  1.1733
  150MOL0     H20669   6.558   5.387   6.276 -1.2743 -2.0552  0.4433
  150MOL0     H20670   6.646   5.149   6.210 -1.3187  1.6821 -0.3955
  150MOL0     H20671   6.731   5.153   6.364 -1.8931  0.9885  0.5653
  150MOL0     H20672   6.807   5.376   6.163 -1.4337  0.6581  1.2665
  150MOL0     H20673   6.885   5.314   6.309  1.5921 -0.9655 -0.1689
  150MOL0     H20674   6.824   5.170   6.043 -0.1707 -0.7513  0.1033
  150MOL0     H20675   6.889   5.074   6.172 -1.8148  0.0139  0.3528
  150MOL0     H20676   7.083   5.291   6.147  0.0172 -1.0663  0.4310
  150MOL0     H20677   7.033   5.255   5.985 -2.3722 -0.5462 -1.0847
  150MOL0     H20678   7.107   5.029   6.179 -0.9162 -1.8156 -1.9247
  150MOL0     H20679   7.229   5.138   6.083 -0.6823  1.3825 -2.2633
  150MOL0     H20680   6.563   5.509   6.788  0.4692 -0.3399 -1.1344
  150MOL0     H20681   6.446   5.635   6.974 -1.0715 -0.4895  0.6080
  150MOL0     H20682   6.313   5.886   7.069 -0.6919  0.6715  1.4287
  150MOL0     H20683   6.309   6.082   7.243 -1.6647 -0.2564  1.4873
  150MOL0     H20684   5.468   7.469   7.634 -0.9415  1.3308 -2.1692
  150MOL0     H20685   5.264   7.499   7.731  1.5566 -1.1368 -0.5750
  150MOL0     H20686   5.026   7.760   8.044 -1.1313 -0.2335  1.1262
  150MOL0     H20687   4.822   7.828   8.166 -0.6198 -1.0527 -0.3744
  150MOL0     H20688   4.631   7.731   8.222  2.8065  1.3035  1.5042
  150MOL0     H20689   4.635   7.903   8.251  1.4042 -0.8681 -0.8417
  150MOL0     H20690   4.437   7.813   8.358 -0.3027  1.7749 -0.2763
  150MOL0     H20691   4.378   7.747   8.212  1.6919 -1.2670 -0.5748
  150MOL0     H20692   4.440   8.035   8.271 -1.3716  1.5657  0.6270
  150MOL0     H20693   4.403   7.979   8.100 -1.2923  1.9442  0.1815
  150MOL0     H20694   4.181   7.891   8.190  3.9506 -1.4417 -1.5647
  150MOL0     H20695   4.185   8.071   8.205  0.1202  1.4526  0.3881
  150MOL0     H20696   4.152   7.967   8.607 -1.4112 -0.7723  0.2043
  150MOL0     H20697   4.600   7.821   7.806 -0.8308 -2.5685  0.7319
  150MOL0     H20698   4.694   7.757   7.603  0.9846 -1.9773  0.8632
  150MOL0     H20699   4.832   7.866   7.588  0.3661  0.9659  2.0690
  150MOL0     H20700   4.849   7.686   7.582  0.4532 -1.4249  2.0225
  151MOL0     O20701   7.160  10.601  10.096  0.5853  0.5040  0.1313
  151MOL0     C20702   7.189  10.578  10.208  0.5437  0.1852 -0.5341
  151MOL0     O20703   7.312  10.531  10.250 -0.4214 -0.5475 -0.1550
  151MOL0     C20704   7.420  10.527  10.168  0.5885 -0.0655  0.1584
  151MOL0     C20705   7.521  10.445  10.219  0.1691  0.4689  0.2315
  151MOL0     C20706   7.634  10.413  10.145 -0.0162  0.8949  0.2962
  151MOL0     C20707   7.649  10.469  10.016 -0.1699 -0.1598 -0.0919
  151MOL0     O20708   7.772  10.436   9.958  0.4091 -0.5508 -0.0895
  151MOL0     C20709   7.813  10.503   9.833  0.4341 -0.5540  0.2329
  151MOL0     C20710   7.924  10.599   9.886  0.3157  0.1262 -0.2188
  151MOL0     C20711   7.997  10.678   9.774  0.3902 -0.1427  0.3267
  151MOL0     C20712   8.104  10.601   9.705 -0.0203 -0.6601 -0.6159
  151MOL0     C20713   8.174  10.694   9.598 -0.6595  0.8271  0.0303
  151MOL0     C20714   8.291  10.623   9.529 -0.9064  0.5196  0.6023
  151MOL0     C20715   8.358  10.704   9.416 -0.1682 -0.4665  0.0585
  151MOL0     C20716   8.469  10.806   9.463  0.3799 -0.5338  0.2098
  151MOL0     N20717   8.578  10.739   9.551 -0.3301  0.0698 -0.2039
  151MOL0     C20718   8.647  10.626   9.508  0.1981  0.6792  0.9552
  151MOL0     C20719   8.729  10.594   9.608 -0.1300 -0.0741 -1.0821
  151MOL0     C20720   8.840  10.495   9.605 -0.4490  0.1958  0.6931
  151MOL0     C20721   8.924  10.489   9.468 -0.1992 -1.2985 -0.3799
  151MOL0     C20722   9.018  10.622   9.456  0.2125  0.5198  0.0865
  151MOL0     C20723   8.949  10.762   9.472 -0.5588  0.4731 -0.1554
  151MOL0     O20724   9.032  10.872   9.448 -0.2519 -0.2318 -0.0941
  151MOL0     C20725   8.983  10.998   9.441 -0.2194  0.0593  0.5183
  151MOL0     C20726   8.865  11.033   9.494 -0.2913  1.1695 -0.5254
  151MOL0     C20727   8.810  11.162   9.485 -0.5206 -0.2531 -1.0205
  151MOL0     C20728   8.698  11.201   9.578  0.2019 -0.0232  0.3713
  151MOL0     C20729   8.882  11.262   9.414 -0.8846  0.4876 -0.6750
  151MOL0     C20730   8.854  11.406   9.409 -0.3794  0.6470 -0.4709
  151MOL0     O20731   8.950  11.493   9.357 -0.3069  0.5428  0.1482
  151MOL0     C20732   8.923  11.622   9.350  0.7757 -0.6060 -0.7120
  151MOL0     C20733   8.925  11.704   9.463 -0.8919 -0.7020  0.0956
  151MOL0     C20734   8.890  11.843   9.460 -0.2800 -0.1194 -0.1488
  151MOL0     C20735   8.848  11.903   9.343 -0.1898 -0.6289  0.2016
  151MOL0     O20736   8.807  12.031   9.321  0.0837  0.4328 -0.0638
  151MOL0     C20737   8.793  12.108   9.433 -0.0053  0.0448  0.1149
  151MOL0     C20738   8.755  12.249   9.390  0.6742  1.0267  0.0216
  151MOL0     C20739   8.693  12.343   9.493 -0.1297  0.3455  0.2464
  151MOL0     C20740   8.800  12.382   9.589  0.4583  0.5128  0.3153
  151MOL0     C20741   8.753  12.474   9.697 -0.0177  1.1838 -0.2684
  151MOL0     C20742   8.766  12.624   9.667 -0.0040 -0.4689 -0.3963
  151MOL0     C20743   8.722  12.709   9.771  0.0249  0.4107  0.0238
  151MOL0     C20744   8.732  12.862   9.763 -0.3056  0.6372 -0.0092
  151MOL0    Cl20745   8.900  12.910   9.733 -0.1851  0.5135 -0.0242
  151MOL0     C20746   8.863  11.826   9.227 -0.3774 -0.5199 -0.5227
  151MOL0     C20747   8.886  11.690   9.232  0.3192  0.0307 -0.1497
  151MOL0     O20748   8.738  11.439   9.438 -0.5252 -0.3724  0.1030
  151MOL0     C20749   9.008  11.223   9.361  0.0480  0.2865 -0.2260
  151MOL0     C20750   9.057  11.091   9.367 -0.5022 -1.2756 -0.4801
  151MOL0     N20751   8.703  10.684   9.710  0.1978  0.1914 -0.3682
  151MOL0     N20752   8.616  10.767   9.675 -0.5780  0.3328 -0.4137
  151MOL0     C20753   7.550  10.547   9.964  0.2568  0.6132 -0.2950
  151MOL0     C20754   7.440  10.588  10.044 -0.3376 -0.3959 -0.1672
  151MOL0     C20755   7.081  10.609  10.304 -0.6736 -0.4004 -0.2810
  151MOL0     C20756   6.946  10.600  10.266 -0.6134  0.7027 -0.0946
  151MOL0     C20757   6.843  10.622  10.353 -0.4805 -0.7900 -0.3693
  151MOL0     C20758   6.867  10.660  10.484  0.5769  0.1060  0.3513
  151MOL0     O20759   6.749  10.669  10.558  0.1643 -0.3364  0.0828
  151MOL0     C20760   6.729  10.705  10.702 -0.5493  0.2328 -0.3034
  151MOL0     C20761   6.589  10.758  10.731  0.8863 -0.4976  0.0548
  151MOL0     C20762   6.519  10.842  10.618  0.3010  0.0728 -0.5839
  151MOL0     C20763   6.393  10.905  10.669  0.9411  0.5772  0.2377
  151MOL0     C20764   6.293  10.813  10.714  0.1107  0.2544  0.1877
  151MOL0     C20765   6.197  10.751  10.756  0.6607 -0.0829  0.2666
  151MOL0     C20766   6.995  10.681  10.525 -0.4337  0.7070  0.1535
  151MOL0     C20767   7.103  10.655  10.434  0.1876 -0.8320 -0.0022
  151MOL0     C20768   7.239  10.688  10.480 -0.4155 -0.6029 -0.0766
  151MOL0     H20769   7.509  10.399  10.317  2.6288 -3.2873 -1.0059
  151MOL0     H20770   7.708  10.347  10.189  3.2222  1.6465 -3.4857
  151MOL0     H20771   7.735  10.560   9.783  1.7265  2.5164  1.4866
  151MOL0     H20772   7.859  10.434   9.762 -1.2878 -0.2336 -1.2542
  151MOL0     H20773   7.887  10.673   9.958  2.6170 -0.1196  1.3213
  151MOL0     H20774   8.002  10.539   9.934  0.7194  1.6150  1.1037
  151MOL0     H20775   7.928  10.711   9.696 -0.6430  2.9366  2.3544
  151MOL0     H20776   8.043  10.763   9.825 -0.7536 -0.0770  1.2943
  151MOL0     H20777   8.179  10.564   9.776  0.5574 -1.5897 -1.6997
  151MOL0     H20778   8.060  10.517   9.653  0.3066 -0.7937 -0.6780
  151MOL0     H20779   8.215  10.777   9.655  0.2280  0.3468  0.1098
  151MOL0     H20780   8.109  10.726   9.515 -0.7795 -1.8979 -1.0238
  151MOL0     H20781   8.368  10.593   9.601  0.2987  2.5726  0.2374
  151MOL0     H20782   8.243  10.540   9.477  1.4942 -0.1702 -0.6721
  151MOL0     H20783   8.282  10.752   9.354 -1.0531 -1.4209  0.3749
  151MOL0     H20784   8.398  10.630   9.345 -1.1763 -1.6910  0.7326
  151MOL0     H20785   8.525  10.850   9.380 -0.7210  0.4958 -0.0172
  151MOL0     H20786   8.433  10.896   9.513 -0.9389 -1.2580  0.6071
  151MOL0     H20787   8.644  10.586   9.407  4.4458  0.0892  0.8694
  151MOL0     H20788   8.788  10.402   9.631  0.5505 -0.1945  1.3909
  151MOL0     H20789   8.911  10.499   9.688 -0.5872 -1.2419  0.9138
  151MOL0     H20790   8.994  10.406   9.481 -0.0670 -1.0426  0.6568
  151MOL0     H20791   8.854  10.475   9.385  1.6747  0.0687 -2.3282
  151MOL0     H20792   9.093  10.630   9.535 -0.8678  0.7714  1.1152
  151MOL0     H20793   9.071  10.620   9.360 -0.8302  0.6125 -0.5006
  151MOL0     H20794   8.873  10.766   9.393  0.8408 -2.8162 -1.8861
  151MOL0     H20795   8.907  10.764   9.573  1.9421  3.5919  0.9674
  151MOL0     H20796   8.819  10.958   9.557 -0.4249 -0.4903 -2.4896
  151MOL0     H20797   8.659  11.113   9.630  0.8967  1.3045  3.3306
  151MOL0     H20798   8.618  11.247   9.520 -2.4048 -3.0592  1.2386
  151MOL0     H20799   8.742  11.273   9.647 -0.9746  1.9418 -0.8594
  151MOL0     H20800   8.964  11.656   9.553 -3.3413  0.5161  1.9020
  151MOL0     H20801   8.903  11.897   9.553  2.3474 -2.5980  1.0709
  151MOL0     H20802   8.714  12.064   9.494  2.7700 -2.6731  2.0859
  151MOL0     H20803   8.886  12.103   9.491  0.4056 -1.9221 -0.6205
  151MOL0     H20804   8.847  12.288   9.346  1.8313  0.2584  1.6498
  151MOL0     H20805   8.673  12.238   9.318 -0.3738 -0.6797  1.3973
  151MOL0     H20806   8.618  12.293   9.555 -0.6905 -0.5390 -1.1002
  151MOL0     H20807   8.651  12.436   9.451  0.6322  0.1852 -0.9174
  151MOL0     H20808   8.890  12.429   9.549 -1.2499  2.2559 -1.6619
  151MOL0     H20809   8.835  12.284   9.624 -3.3629 -1.5618 -1.1064
  151MOL0     H20810   8.647  12.456   9.720  0.5391 -0.5780  1.1974
  151MOL0     H20811   8.805  12.448   9.790  1.3539 -3.5779 -2.0951
  151MOL0     H20812   8.701  12.652   9.584  0.8307  1.5705 -0.4405
  151MOL0     H20813   8.870  12.650   9.645 -0.2804 -0.2859 -1.5706
  151MOL0     H20814   8.784  12.676   9.855  2.4506  1.7220 -1.1518
  151MOL0     H20815   8.620  12.677   9.795  0.0692  0.1646 -0.1088
  151MOL0     H20816   8.691  12.899   9.857  0.1002 -1.3098  0.9925
  151MOL0     H20817   8.672  12.902   9.681 -0.7962  1.4101  0.7082
  151MOL0     H20818   8.843  11.890   9.142 -2.5015  0.3175  0.5247
  151MOL0     H20819   8.890  11.619   9.149  0.3301 -1.4956  1.1039
  151MOL0     H20820   9.069  11.292   9.302 -1.2724  0.3132 -1.6247
  151MOL0     H20821   9.153  11.063   9.327  0.0150  1.0632 -1.0510
  151MOL0     H20822   7.555  10.590   9.865  3.4804  1.4813  0.1483
  151MOL0     H20823   7.369  10.654   9.996  1.3506  1.0316 -0.8252
  151MOL0     H20824   6.917  10.567  10.166 -1.2968 -1.6059  0.8009
  151MOL0     H20825   6.740  10.605  10.324 -0.8713  0.2836  0.3376
  151MOL0     H20826   6.754  10.622  10.768 -0.1320  1.3480  0.9979
  151MOL0     H20827   6.800  10.784  10.729  0.3252 -0.1993 -1.2806
  151MOL0     H20828   6.613  10.830  10.810  0.4837  0.9064 -1.0611
  151MOL0     H20829   6.525  10.678  10.769  0.9337 -1.0591 -1.0239
  151MOL0     H20830   6.581  10.929  10.594 -1.4457  1.4117 -0.5201
  151MOL0     H20831   6.511  10.782  10.527  0.7288 -0.5718 -0.2055
  151MOL0     H20832   6.334  10.970  10.604 -1.8278 -2.2530 -0.3174
  151MOL0     H20833   6.424  10.965  10.754  1.8438  2.1410 -1.1285
  151MOL0     H20834   6.108  10.703  10.791  1.1759 -1.6331 -0.4203
  151MOL0     H20835   7.026  10.696  10.628  0.4887  0.3269 -0.0679
  151MOL0     H20836   7.229  10.736  10.578 -0.3613  2.1790 -1.3320
  151MOL0     H20837   7.293  10.594  10.496 -1.7774 -1.5111 -0.5995
  151MOL0     H20838   7.280  10.751  10.401 -3.4836  1.6448 -0.0799
  152MOL0     O20839   2.438   9.439   0.145  0.5551 -0.0576  0.2165
  152MOL0     C20840   2.448   9.530   0.225 -0.0493 -0.2621  0.2575
  152MOL0     O20841   2.562   9.609   0.225  0.3302  0.1195 -1.2684
  152MOL0     C20842   2.654   9.594   0.120 -0.1126 -0.0915 -0.0554
  152MOL0     C20843   2.618   9.607  -0.008 -0.1134 -0.1472  0.1951
  152MOL0     C20844   2.715   9.593  -0.109  0.3403 -0.2863  0.1251
  152MOL0     C20845   2.845   9.562  -0.082 -0.1840 -0.4926 -0.4950
  152MOL0     O20846   2.922   9.539  -0.190  0.1534 -0.3628  0.3578
  152MOL0     C20847   3.000   9.422  -0.194  0.6003  0.8569 -0.0024
  152MOL0     C20848   3.121   9.442  -0.290 -0.3081 -0.1296 -0.7117
  152MOL0     C20849   3.075   9.471  -0.431  0.4492  0.9050 -0.1489
  152MOL0     C20850   3.199   9.495  -0.524 -0.5381  0.2141 -1.3740
  152MOL0     C20851   3.174   9.524  -0.667 -0.1276  0.7644  0.0725
  152MOL0     C20852   3.295   9.572  -0.745 -1.0822  0.0506  0.0757
  152MOL0     C20853   3.370   9.692  -0.688 -0.7674 -0.5214 -0.5033
  152MOL0     C20854   3.457   9.757  -0.792  0.0213 -0.1777 -0.7932
  152MOL0     N20855   3.565   9.669  -0.836 -0.4390  0.2163  0.0858
  152MOL0     C20856   3.564   9.599  -0.950 -0.5948 -0.3890  0.5909
  152MOL0     C20857   3.679   9.530  -0.952 -0.3244 -0.5072  0.4665
  152MOL0     C20858   3.724   9.444  -1.072 -0.0615  0.0180  0.2379
  152MOL0     C20859   3.876   9.428  -1.078 -0.5430  0.1091 -0.1483
  152MOL0     C20860   3.917   9.369  -1.213  1.3535  0.2480 -0.3998
  152MOL0     C20861   4.068   9.372  -1.229  0.4157 -0.0881 -0.0210
  152MOL0     O20862   4.104   9.395  -1.352 -0.1799 -0.1476  0.3342
  152MOL0     C20863   4.238   9.421  -1.385 -0.2449 -0.3215 -0.8504
  152MOL0     C20864   4.269   9.441  -1.520 -0.1414 -0.7049 -0.5290
  152MOL0     C20865   4.395   9.457  -1.568  0.0729 -0.2086  0.3047
  152MOL0     C20866   4.406   9.456  -1.727 -0.2009  0.3442  0.5715
  152MOL0     C20867   4.504   9.473  -1.478 -0.8220  0.1004 -0.0602
  152MOL0     C20868   4.641   9.487  -1.525 -0.9193  0.9216  0.4024
  152MOL0     O20869   4.671   9.429  -1.647  0.2108  0.6334 -1.0322
  152MOL0     C20870   4.794   9.447  -1.712 -0.0690  0.7730 -0.4858
  152MOL0     C20871   4.918   9.412  -1.653 -0.1529  0.5161  0.2376
  152MOL0     C20872   5.037   9.441  -1.720 -0.2893  0.2415 -0.0136
  152MOL0     C20873   5.037   9.491  -1.849 -0.2368 -0.4828  0.4802
  152MOL0     O20874   5.152   9.488  -1.925  0.7446  0.3735  0.1395
  152MOL0     C20875   5.275   9.548  -1.890  0.5088  1.2094 -0.0511
  152MOL0     C20876   5.272   9.692  -1.949  0.4886 -0.3461 -0.5252
  152MOL0     C20877   5.414   9.755  -1.942 -0.0724  0.3362  0.0869
  152MOL0     C20878   5.403   9.894  -1.978 -0.6023 -0.8064  0.1207
  152MOL0     C20879   5.535   9.969  -1.986  0.9434  0.5686  0.1324
  152MOL0     C20880   5.658   9.902  -1.922 -0.1548 -0.3326 -0.4350
  152MOL0     C20881   5.780   9.994  -1.919 -0.6927  0.0188 -0.2345
  152MOL0     C20882   5.831  10.034  -1.778 -0.4060  0.1140  0.5970
  152MOL0    Cl20883   5.912   9.892  -1.702 -0.1789 -0.2211 -0.2699
  152MOL0     C20884   4.911   9.528  -1.901  0.2280 -0.0754  0.5148
  152MOL0     C20885   4.792   9.505  -1.834  0.6115  0.2696 -0.4703
  152MOL0     O20886   4.729   9.539  -1.447  0.2411 -0.0800 -0.7539
  152MOL0     C20887   4.472   9.469  -1.335 -0.0642  0.2294 -0.4081
  152MOL0     C20888   4.341   9.436  -1.293  0.1081 -0.1531  0.4168
  152MOL0     N20889   3.749   9.557  -0.835  0.0497  0.5616 -0.3269
  152MOL0     N20890   3.675   9.640  -0.767  0.0965  0.2193 -0.9395
  152MOL0     C20891   2.886   9.565   0.058  0.2216  0.3761  0.1111
  152MOL0     C20892   2.785   9.577   0.159  0.1367 -0.1219  0.7722
  152MOL0     C20893   2.356   9.560   0.342 -0.0771  0.8562 -0.3459
  152MOL0     C20894   2.390   9.658   0.432  0.1051  0.9397  1.6849
  152MOL0     C20895   2.304   9.691   0.541  0.4069 -0.2417 -0.2844
  152MOL0     C20896   2.183   9.627   0.552  0.1139 -0.0670 -0.1196
  152MOL0     O20897   2.101   9.670   0.653  0.6548 -0.5416 -0.8863
  152MOL0     C20898   1.966   9.615   0.668 -1.0645 -0.4540  0.2724
  152MOL0     C20899   1.892   9.698   0.770 -0.0620  0.6766 -0.1381
  152MOL0     C20900   1.844   9.837   0.733 -0.2652 -0.5902 -0.9309
  152MOL0     C20901   1.741   9.848   0.618  0.0193 -0.2017 -0.1181
  152MOL0     C20902   1.625   9.762   0.633  0.2697  0.2296 -0.4861
  152MOL0     C20903   1.528   9.690   0.665 -0.2403  0.6671 -0.4540
  152MOL0     C20904   2.151   9.524   0.473  0.2564  0.0955  0.2737
  152MOL0     C20905   2.230   9.490   0.366 -1.0960  0.7968  0.3141
  152MOL0     C20906   2.200   9.358   0.294  0.9155  0.0665  0.9952
  152MOL0     H20907   2.517   9.619  -0.047  0.5604 -0.2764 -1.6949
  152MOL0     H20908   2.689   9.600  -0.214 -2.1725  2.3976  0.8108
  152MOL0     H20909   2.949   9.331  -0.227  0.0333  1.3437 -0.4981
  152MOL0     H20910   3.026   9.398  -0.091 -1.2649 -2.1360 -0.0985
  152MOL0     H20911   3.181   9.527  -0.257  1.5858 -1.5837 -0.2061
  152MOL0     H20912   3.185   9.354  -0.282  2.2826  1.7924  1.7165
  152MOL0     H20913   3.032   9.382  -0.477  2.3329 -0.6585  0.9705
  152MOL0     H20914   3.005   9.555  -0.435  0.3560  0.7812 -2.6390
  152MOL0     H20915   3.242   9.583  -0.475 -2.0396 -0.2050  0.8346
  152MOL0     H20916   3.264   9.408  -0.515 -0.9675 -0.1070 -1.3612
  152MOL0     H20917   3.089   9.591  -0.682 -1.0278 -0.4383 -0.3613
  152MOL0     H20918   3.147   9.433  -0.721  0.8992  1.4707 -1.6916
  152MOL0     H20919   3.369   9.492  -0.755 -1.1172  0.1356 -0.9867
  152MOL0     H20920   3.257   9.599  -0.844 -0.5292  0.7676  0.0507
  152MOL0     H20921   3.430   9.661  -0.602  2.2195  1.5697 -1.6801
  152MOL0     H20922   3.297   9.761  -0.645  1.8792  2.5441 -0.5898
  152MOL0     H20923   3.396   9.784  -0.879  1.2235 -4.0227 -3.0822
  152MOL0     H20924   3.499   9.847  -0.747 -3.1709  1.0902 -0.0384
  152MOL0     H20925   3.494   9.596  -1.033 -0.0936  3.5321 -0.1683
  152MOL0     H20926   3.685   9.482  -1.167  0.1065  0.5321  0.3661
  152MOL0     H20927   3.688   9.343  -1.051 -1.9972  0.9638  1.7304
  152MOL0     H20928   3.917   9.529  -1.063 -1.4058  0.2862  1.1928
  152MOL0     H20929   3.912   9.357  -1.003 -4.0251 -0.3518  1.2509
  152MOL0     H20930   3.880   9.266  -1.219  0.3104  0.4516  1.7765
  152MOL0     H20931   3.861   9.431  -1.283 -0.1961 -1.6804 -0.9523
  152MOL0     H20932   4.094   9.452  -1.159 -0.1290 -2.0896  2.6467
  152MOL0     H20933   4.115   9.283  -1.185 -0.0669  0.5738  1.9647
  152MOL0     H20934   4.195   9.429  -1.598 -0.0247 -0.8255 -0.6212
  152MOL0     H20935   4.473   9.530  -1.770  0.0937  0.2161  0.8084
  152MOL0     H20936   4.309   9.475  -1.775  0.1549 -2.6924 -1.7181
  152MOL0     H20937   4.441   9.357  -1.760  1.3780  0.3482  2.0890
  152MOL0     H20938   4.915   9.371  -1.553  0.0762 -0.8706 -0.3046
  152MOL0     H20939   5.126   9.414  -1.665 -0.8938 -0.2204  0.7702
  152MOL0     H20940   5.295   9.542  -1.783  3.2952  1.1403 -0.5029
  152MOL0     H20941   5.362   9.497  -1.932  1.2025  1.4102  1.0914
  152MOL0     H20942   5.251   9.684  -2.056 -0.0948  0.8991 -0.5253
  152MOL0     H20943   5.203   9.757  -1.895  1.9423  0.5352  0.3502
  152MOL0     H20944   5.481   9.706  -2.014 -1.0807  0.3010 -0.8566
  152MOL0     H20945   5.453   9.733  -1.842  3.1084 -4.8889 -1.9134
  152MOL0     H20946   5.361   9.952  -1.895  0.8787 -0.2746  0.5460
  152MOL0     H20947   5.338   9.898  -2.065 -1.5554  0.1395  0.8433
  152MOL0     H20948   5.555   9.981  -2.093 -0.0871 -1.8391 -0.3894
  152MOL0     H20949   5.519  10.070  -1.947 -0.5199 -0.2198  1.7112
  152MOL0     H20950   5.686   9.807  -1.967  0.8556  0.6741 -2.0117
  152MOL0     H20951   5.621   9.885  -1.820  3.4677 -1.3608  0.8681
  152MOL0     H20952   5.752  10.082  -1.978 -0.1885 -0.7333 -1.6557
  152MOL0     H20953   5.863   9.946  -1.973 -0.5905  0.8866 -0.8668
  152MOL0     H20954   5.754  10.077  -1.713 -0.5784  1.0873 -0.2300
  152MOL0     H20955   5.905  10.111  -1.805  0.7460 -1.6459 -1.5910
  152MOL0     H20956   4.902   9.575  -1.999  0.3329  0.9187  0.9755
  152MOL0     H20957   4.703   9.535  -1.889  0.2453 -1.1542 -0.6915
  152MOL0     H20958   4.550   9.465  -1.260 -0.7210  0.0500  0.2680
  152MOL0     H20959   4.322   9.409  -1.190 -0.9150  4.5604  1.7146
  152MOL0     H20960   2.990   9.538   0.073  0.2698 -0.9215 -2.1100
  152MOL0     H20961   2.815   9.574   0.263 -1.5985 -1.3868  1.2884
  152MOL0     H20962   2.485   9.709   0.420  1.3172 -1.0410  2.4667
  152MOL0     H20963   2.355   9.754   0.614  1.9414 -0.3962 -1.1599
  152MOL0     H20964   1.920   9.629   0.570 -1.8396  0.8520  0.7950
  152MOL0     H20965   1.970   9.512   0.706  0.7684 -0.3218  0.5437
  152MOL0     H20966   1.961   9.721   0.851 -0.5877 -0.4178  0.6378
  152MOL0     H20967   1.808   9.651   0.822  0.1113  1.6056  1.0157
  152MOL0     H20968   1.795   9.897   0.810  2.4297  3.6438 -2.2234
  152MOL0     H20969   1.917   9.911   0.701 -0.4461  0.2304  0.4817
  152MOL0     H20970   1.792   9.834   0.523  0.3676 -0.5027  0.1070
  152MOL0     H20971   1.705   9.951   0.619 -0.5490 -0.3961 -0.3832
  152MOL0     H20972   1.463   9.608   0.686  4.4034 -2.6192  3.1424
  152MOL0     H20973   2.061   9.467   0.492  0.7359 -0.2534  1.6805
  152MOL0     H20974   2.109   9.310   0.329  0.2990  0.6772  0.2738
  152MOL0     H20975   2.179   9.372   0.187  2.9144  0.1519  0.5714
  152MOL0     H20976   2.280   9.285   0.309  0.3619 -0.6225  0.6418
  153MOL0     O20977  10.501   0.537   1.534 -0.0611 -0.3180  0.7362
  153MOL0     C20978  10.408   0.575   1.601 -0.8085  0.1246  0.4021
  153MOL0     O20979  10.431   0.647   1.707 -0.7797  0.3783  0.4375
  153MOL0     C20980  10.559   0.676   1.749 -0.0778  0.0526 -0.1506
  153MOL0     C20981  10.618   0.798   1.739 -0.2336 -0.6203 -0.5224
  153MOL0     C20982  10.746   0.821   1.782 -0.0135  0.6218 -0.4661
  153MOL0     C20983  10.823   0.718   1.842  0.5933 -0.6263  1.0680
  153MOL0     O20984  10.954   0.755   1.881  0.1841  0.1869 -0.2013
  153MOL0     C20985  11.005   0.674   1.978 -0.5291 -0.4246  0.1993
  153MOL0     C20986  11.138   0.707   2.051  0.5162  0.4724 -0.6083
  153MOL0     C20987  11.253   0.712   1.949  0.6168  0.3859 -0.9835
  153MOL0     C20988  11.384   0.717   2.038  0.3299  0.8103  0.1100
  153MOL0     C20989  11.509   0.739   1.938  0.2630  1.5829 -0.6239
  153MOL0     C20990  11.633   0.763   2.022  0.4939 -0.1546 -0.1680
  153MOL0     C20991  11.688   0.643   2.096 -0.2467 -0.6266  0.7306
  153MOL0     C20992  11.656   0.651   2.245 -0.3671  0.0047  0.3216
  153MOL0     N20993  11.733   0.752   2.328 -0.1549  0.5493  0.0541
  153MOL0     C20994  11.692   0.877   2.342 -0.3233 -1.0708  0.3931
  153MOL0     C20995  11.789   0.928   2.428  0.6994  0.6336 -0.1941
  153MOL0     C20996  11.808   1.072   2.474  0.2446 -0.5692 -0.1328
  153MOL0     C20997  11.917   1.137   2.401 -0.0888 -0.3930 -0.0978
  153MOL0     C20998  11.967   1.269   2.454  0.2999 -0.4168  0.2007
  153MOL0     C20999  11.866   1.375   2.413 -0.3552 -0.2141 -0.1779
  153MOL0     O21000  11.895   1.501   2.469 -0.4937 -0.5430 -0.0030
  153MOL0     C21001  11.991   1.577   2.409 -0.0585  0.2799 -0.8675
  153MOL0     C21002  12.103   1.611   2.477 -0.1989  0.0997  0.2364
  153MOL0     C21003  12.198   1.710   2.428 -0.2482 -0.2336 -0.3358
  153MOL0     C21004  12.294   1.761   2.529  0.4865 -0.0222  0.3694
  153MOL0     C21005  12.196   1.746   2.295  0.2670 -0.1593  0.2189
  153MOL0     C21006  12.297   1.838   2.222  0.0893  0.1357 -0.4933
  153MOL0     O21007  12.409   1.876   2.293 -0.1013  0.5584 -0.3787
  153MOL0     C21008  12.517   1.945   2.246  1.3283 -0.0540 -0.4331
  153MOL0     C21009  12.578   2.024   2.345 -0.5512 -0.1401 -0.3047
  153MOL0     C21010  12.690   2.094   2.299 -0.5568 -0.1480 -0.2065
  153MOL0     C21011  12.736   2.085   2.172 -0.1929  0.4733  0.5035
  153MOL0     O21012  12.840   2.168   2.136 -0.2930  0.2279 -0.9065
  153MOL0     C21013  12.968   2.101   2.104  0.0930 -0.3931 -0.1275
  153MOL0     C21014  13.071   2.204   2.041  0.0244 -0.1068  0.4262
  153MOL0     C21015  13.120   2.305   2.147  0.1332 -0.1105  0.4825
  153MOL0     C21016  13.243   2.385   2.113  0.0484 -0.4401 -0.6508
  153MOL0     C21017  13.300   2.447   2.236  0.0397  0.4078  0.5066
  153MOL0     C21018  13.383   2.576   2.199 -0.4398  0.3692  0.0087
  153MOL0     C21019  13.480   2.633   2.303  0.4420  0.2598  0.4383
  153MOL0     C21020  13.409   2.725   2.409 -0.6045 -0.0490 -0.3358
  153MOL0    Cl21021  13.535   2.821   2.486  0.1853 -0.2539 -0.1314
  153MOL0     C21022  12.689   1.987   2.087  0.4258  0.7450  0.3038
  153MOL0     C21023  12.572   1.918   2.124  0.5334  0.1376  0.0800
  153MOL0     O21024  12.270   1.861   2.108  0.0039 -0.2139  0.4652
  153MOL0     C21025  12.078   1.703   2.219  0.9369  0.1204  0.2352
  153MOL0     C21026  11.983   1.621   2.281  0.7600  0.3722  0.9064
  153MOL0     N21027  11.870   0.827   2.468 -0.8622  0.2715 -0.3778
  153MOL0     N21028  11.838   0.714   2.410 -0.6688  0.2010 -0.0386
  153MOL0     C21029  10.766   0.587   1.858 -0.0841  0.4407  0.2132
  153MOL0     C21030  10.635   0.573   1.807 -0.1799  0.6698 -0.5902
  153MOL0     C21031  10.267   0.533   1.566  0.3244  0.3905 -0.3388
  153MOL0     C21032  10.175   0.516   1.675  0.4408 -0.0576 -0.3300
  153MOL0     C21033  10.051   0.472   1.659 -0.4584 -0.7816  0.2800
  153MOL0     C21034  10.008   0.434   1.536  0.0635 -0.2142  0.3559
  153MOL0     O21035   9.875   0.402   1.536 -0.7609  0.2078 -0.6084
  153MOL0     C21036   9.804   0.430   1.416 -0.8449  0.3455 -0.3322
  153MOL0     C21037   9.808   0.310   1.325 -0.0026 -0.5806  0.6648
  153MOL0     C21038   9.736   0.193   1.389 -0.8335 -0.2192 -0.0161
  153MOL0     C21039   9.747   0.070   1.308 -0.4346  0.1577 -0.2866
  153MOL0     C21040   9.643  -0.023   1.329  0.7751  0.4195 -0.2276
  153MOL0     C21041   9.550  -0.097   1.346  0.7307 -0.1433  0.2924
  153MOL0     C21042  10.091   0.448   1.422 -0.5896 -0.3678 -0.3156
  153MOL0     C21043  10.223   0.499   1.441 -0.1940 -0.7787  0.4501
  153MOL0     C21044  10.305   0.490   1.314  0.0628  0.2353  0.2885
  153MOL0     H21045  10.557   0.873   1.688 -1.3385 -0.7307  0.5662
  153MOL0     H21046  10.786   0.922   1.770  0.8769  0.6618  2.0859
  153MOL0     H21047  11.020   0.585   1.916 -0.4205  2.5305 -4.4551
  153MOL0     H21048  10.931   0.665   2.058  1.4249 -0.5495  2.0713
  153MOL0     H21049  11.121   0.799   2.108 -1.8714 -0.1172 -0.2488
  153MOL0     H21050  11.148   0.624   2.122  0.6144  0.4235 -0.6797
  153MOL0     H21051  11.243   0.627   1.881  2.6511 -1.4443  0.8316
  153MOL0     H21052  11.243   0.799   1.884 -1.0492 -0.8151 -2.4135
  153MOL0     H21053  11.375   0.802   2.107 -1.8999  1.6038 -1.0469
  153MOL0     H21054  11.382   0.625   2.096  0.7721  1.2825  0.8898
  153MOL0     H21055  11.485   0.819   1.867 -2.5347  3.2421  1.9256
  153MOL0     H21056  11.537   0.648   1.885 -1.1714 -0.7472  2.2970
  153MOL0     H21057  11.704   0.796   1.945  0.4079  3.0843  0.9774
  153MOL0     H21058  11.612   0.850   2.085 -0.9117  0.2927 -1.1877
  153MOL0     H21059  11.797   0.646   2.088 -0.1260 -0.0713  2.3066
  153MOL0     H21060  11.651   0.548   2.057  3.3488 -1.2046 -1.7923
  153MOL0     H21061  11.548   0.660   2.261 -0.6915  0.5691 -1.9099
  153MOL0     H21062  11.674   0.557   2.299 -2.7928 -0.9798 -0.4448
  153MOL0     H21063  11.605   0.924   2.298  1.2054 -0.6768 -2.4764
  153MOL0     H21064  11.823   1.073   2.582 -2.0580 -1.9073  0.2560
  153MOL0     H21065  11.715   1.126   2.453  0.9820  0.3926 -1.0424
  153MOL0     H21066  12.003   1.069   2.391  1.0780  1.3042 -3.4292
  153MOL0     H21067  11.867   1.140   2.303 -1.6380 -2.7130  0.5270
  153MOL0     H21068  11.989   1.274   2.561  0.0650  0.8377  0.2024
  153MOL0     H21069  12.068   1.275   2.412 -0.3602 -1.8193 -1.6929
  153MOL0     H21070  11.869   1.380   2.303  0.6224  1.7439 -0.1015
  153MOL0     H21071  11.765   1.343   2.441  0.6370 -1.3748  2.3960
  153MOL0     H21072  12.111   1.575   2.579  1.9463  1.9325  0.7836
  153MOL0     H21073  12.391   1.711   2.529  0.9870  0.9340  0.5824
  153MOL0     H21074  12.243   1.744   2.625 -0.4349  0.3591 -0.0354
  153MOL0     H21075  12.309   1.869   2.521 -1.6723  0.4333  1.4875
  153MOL0     H21076  12.537   2.044   2.443 -0.5845 -0.2754 -0.2905
  153MOL0     H21077  12.736   2.164   2.369  2.1299 -0.8495 -1.1323
  153MOL0     H21078  13.013   2.062   2.196  1.2451  0.2425 -0.3937
  153MOL0     H21079  12.952   2.030   2.022  1.3838 -1.3254  0.3971
  153MOL0     H21080  13.158   2.147   2.006 -0.2091 -0.0232 -0.2882
  153MOL0     H21081  13.030   2.257   1.955  0.8454  1.5961  1.0431
  153MOL0     H21082  13.146   2.255   2.241 -2.2021 -2.2351  0.1076
  153MOL0     H21083  13.029   2.361   2.170 -1.0755 -1.8009  0.0388
  153MOL0     H21084  13.224   2.466   2.042  1.5147  0.0659 -0.5203
  153MOL0     H21085  13.310   2.317   2.058 -1.5139 -0.9990 -1.9305
  153MOL0     H21086  13.229   2.465   2.317 -0.9305 -2.1838  0.3139
  153MOL0     H21087  13.373   2.373   2.270 -1.4736 -1.8440 -0.8696
  153MOL0     H21088  13.322   2.655   2.155 -0.3879 -0.7324 -2.1481
  153MOL0     H21089  13.439   2.551   2.108 -1.6022  0.8781 -0.8655
  153MOL0     H21090  13.553   2.702   2.259 -0.0237  0.8974  0.6432
  153MOL0     H21091  13.540   2.552   2.345 -3.1700 -1.2330  3.2229
  153MOL0     H21092  13.359   2.663   2.485  0.0946  0.1412  0.2894
  153MOL0     H21093  13.337   2.788   2.357 -1.5848 -0.7566  0.1309
  153MOL0     H21094  12.733   1.969   1.989  1.8014  1.4779  0.7667
  153MOL0     H21095  12.524   1.844   2.062 -0.7339 -3.9202  5.2087
  153MOL0     H21096  12.055   1.734   2.118  1.5391  1.5312  0.5063
  153MOL0     H21097  11.902   1.607   2.211  1.5779 -0.5022  0.1008
  153MOL0     H21098  10.825   0.504   1.896  0.5451  0.7333 -0.1098
  153MOL0     H21099  10.585   0.477   1.817 -1.9133  1.3061 -2.4837
  153MOL0     H21100  10.203   0.550   1.774 -1.0963  0.4159 -0.0279
  153MOL0     H21101   9.987   0.461   1.746  1.6549  0.1357  2.0477
  153MOL0     H21102   9.699   0.452   1.440 -0.6140  0.0999  0.9378
  153MOL0     H21103   9.855   0.507   1.358 -2.8302  1.6688 -0.4278
  153MOL0     H21104   9.908   0.271   1.302 -0.7872 -0.8461 -2.7836
  153MOL0     H21105   9.754   0.342   1.235  1.0839  0.1197  0.2438
  153MOL0     H21106   9.778   0.164   1.486 -3.1634 -2.5767  0.4195
  153MOL0     H21107   9.634   0.223   1.412 -0.2097  2.8560 -0.8243
  153MOL0     H21108   9.840   0.022   1.341 -0.5919 -2.0069 -2.7154
  153MOL0     H21109   9.752   0.104   1.205  0.9610  4.5094  1.0145
  153MOL0     H21110   9.470  -0.165   1.369 -1.3648  2.3236  0.7070
  153MOL0     H21111  10.063   0.419   1.322  2.0002  0.6920 -1.4314
  153MOL0     H21112  10.247   0.486   1.221  2.0338  2.3842 -1.1549
  153MOL0     H21113  10.374   0.575   1.310  0.6266 -0.2256 -0.1046
  153MOL0     H21114  10.355   0.393   1.309 -1.1534 -0.4507  1.1484
  154MOL0     O21115   0.552   7.546   7.708 -0.3877  0.2895 -0.0771
  154MOL0     C21116   0.466   7.452   7.699 -0.5022 -0.2067 -0.0500
  154MOL0     O21117   0.498   7.325   7.671  0.0693 -0.3460 -0.3072
  154MOL0     C21118   0.626   7.305   7.628 -0.3342  0.6903  0.0107
  154MOL0     C21119   0.718   7.292   7.731 -0.4640 -0.3950 -0.0665
  154MOL0     C21120   0.856   7.293   7.687  0.8801  0.2905 -0.2405
  154MOL0     C21121   0.903   7.291   7.552 -0.1255  0.9528 -0.1500
  154MOL0     O21122   1.034   7.295   7.505  0.4865  0.5528  0.9388
  154MOL0     C21123   1.131   7.344   7.596  0.5367  0.3898  0.8450
  154MOL0     C21124   1.274   7.335   7.531  0.6470 -1.5708 -0.0951
  154MOL0     C21125   1.300   7.197   7.482  1.3558 -0.0200 -0.2723
  154MOL0     C21126   1.450   7.170   7.459 -0.2468 -0.4938  0.4779
  154MOL0     C21127   1.471   7.038   7.401 -0.0182  0.2169  0.0158
  154MOL0     C21128   1.432   6.911   7.486  0.1682 -1.2758 -0.1069
  154MOL0     C21129   1.520   6.795   7.433 -0.1439 -0.5803  1.1040
  154MOL0     C21130   1.491   6.666   7.507  0.0119 -0.0462 -0.0121
  154MOL0     N21131   1.511   6.667   7.652  0.5508 -0.4740  0.2358
  154MOL0     C21132   1.639   6.667   7.704  0.1698 -0.5689 -0.5570
  154MOL0     C21133   1.613   6.704   7.830 -1.1566 -0.0458  0.6843
  154MOL0     C21134   1.713   6.750   7.928  0.0617 -0.4236 -0.2533
  154MOL0     C21135   1.652   6.733   8.076 -0.0985 -0.8969  0.7940
  154MOL0     C21136   1.753   6.776   8.188 -0.4573  0.0253 -0.1508
  154MOL0     C21137   1.807   6.921   8.177  0.8026  0.8323  0.5909
  154MOL0     O21138   1.928   6.957   8.246 -0.3699 -0.0917 -0.6403
  154MOL0     C21139   2.050   6.948   8.178 -0.1075 -0.0576 -0.4732
  154MOL0     C21140   2.081   6.856   8.078  0.0953 -0.0033  0.3191
  154MOL0     C21141   2.204   6.842   8.009 -0.0302 -0.4779 -0.2045
  154MOL0     C21142   2.216   6.731   7.906 -0.5060  0.2344  0.3371
  154MOL0     C21143   2.301   6.941   8.035 -0.3540 -0.5739  0.5018
  154MOL0     C21144   2.428   6.942   7.964 -0.3714 -1.3583 -0.1365
  154MOL0     O21145   2.471   7.064   7.905 -0.5162 -0.1148  0.0230
  154MOL0     C21146   2.562   7.057   7.800 -0.4919  0.5422 -0.3033
  154MOL0     C21147   2.662   7.149   7.793 -0.6197  0.0473  0.1628
  154MOL0     C21148   2.752   7.157   7.674  0.6748 -0.3643 -0.2998
  154MOL0     C21149   2.740   7.066   7.567  0.1799 -0.6413  0.2413
  154MOL0     O21150   2.829   7.056   7.462 -1.0507  0.3754  0.1047
  154MOL0     C21151   2.960   7.099   7.477 -0.3148 -0.0017  0.5727
  154MOL0     C21152   2.984   7.237   7.408 -0.4130 -0.2023  0.1267
  154MOL0     C21153   2.979   7.235   7.261 -1.2593  0.0048  0.6135
  154MOL0     C21154   3.001   7.375   7.212  0.4979  0.4994  0.2753
  154MOL0     C21155   2.980   7.390   7.065 -0.3696  0.0815  0.4890
  154MOL0     C21156   3.048   7.519   7.012  0.6167  0.3927 -0.6435
  154MOL0     C21157   2.986   7.642   7.074  0.4577  0.6487 -0.2010
  154MOL0     C21158   2.893   7.698   6.978 -0.0666 -0.1294  0.5914
  154MOL0    Cl21159   2.977   7.777   6.836 -0.4181  0.1785 -0.5907
  154MOL0     C21160   2.636   6.977   7.573 -0.1711 -0.3659  0.2539
  154MOL0     C21161   2.554   6.972   7.691  0.2840 -0.0388  0.6277
  154MOL0     O21162   2.485   6.840   7.950  0.1193 -0.4120 -0.0147
  154MOL0     C21163   2.273   7.041   8.131 -0.3006 -0.8058 -0.4295
  154MOL0     C21164   2.151   7.043   8.203  0.4215  0.1093  0.0982
  154MOL0     N21165   1.479   6.702   7.854  0.8325 -0.0894  0.2802
  154MOL0     N21166   1.414   6.680   7.748  0.2866 -0.0029  0.7671
  154MOL0     C21167   0.803   7.306   7.460  0.2952  0.8956  0.6998
  154MOL0     C21168   0.666   7.318   7.495  0.4122 -0.5940  0.2503
  154MOL0     C21169   0.328   7.474   7.759  0.4916 -0.5312  0.7937
  154MOL0     C21170   0.255   7.360   7.811  0.3781 -0.0914  0.5509
  154MOL0     C21171   0.128   7.379   7.862 -0.1183 -0.3990 -0.2404
  154MOL0     C21172   0.065   7.505   7.869  0.3436 -0.1302  0.8370
  154MOL0     O21173  -0.059   7.510   7.915 -0.4626  0.0015 -0.4386
  154MOL0     C21174  -0.128   7.635   7.920 -0.2067  0.6422  1.0754
  154MOL0     C21175  -0.262   7.597   7.969 -0.3432  0.0584 -0.5491
  154MOL0     C21176  -0.269   7.558   8.116 -0.5775  0.4560  0.5010
  154MOL0     C21177  -0.243   7.408   8.133 -0.8468  0.5356  0.4595
  154MOL0     C21178  -0.285   7.355   8.260  0.1416  0.4373 -0.9466
  154MOL0     C21179  -0.320   7.296   8.364 -0.2128  0.2440 -0.0607
  154MOL0     C21180   0.144   7.619   7.829  0.5259 -0.6306  0.4644
  154MOL0     C21181   0.271   7.608   7.772  0.2485  1.0195  0.9965
  154MOL0     C21182   0.348   7.738   7.748 -0.7277  0.5691  0.5690
  154MOL0     H21183   0.684   7.308   7.833 -0.5125 -0.0659 -0.1336
  154MOL0     H21184   0.932   7.292   7.764 -1.0273 -0.8240  1.7281
  154MOL0     H21185   1.135   7.284   7.687  0.0433 -0.1439  0.5261
  154MOL0     H21186   1.097   7.444   7.623 -0.3509  0.5799 -0.8210
  154MOL0     H21187   1.281   7.413   7.455  0.2551  0.8053  2.1583
  154MOL0     H21188   1.348   7.367   7.606 -1.3031  3.5316  0.0777
  154MOL0     H21189   1.261   7.125   7.555  1.4099  2.4341  2.3562
  154MOL0     H21190   1.240   7.185   7.391 -1.0546  0.3558  1.1656
  154MOL0     H21191   1.484   7.244   7.386 -3.6678  0.5344 -0.2643
  154MOL0     H21192   1.507   7.189   7.550  1.5657  2.2903 -1.0702
  154MOL0     H21193   1.577   7.036   7.375  0.5113  1.6204  1.8120
  154MOL0     H21194   1.420   7.024   7.305 -0.5077  0.1330  0.2854
  154MOL0     H21195   1.456   6.937   7.590 -0.3720  0.5745 -0.4141
  154MOL0     H21196   1.325   6.887   7.482  0.0159 -0.9418  1.3930
  154MOL0     H21197   1.628   6.813   7.441 -0.1962  0.6164 -0.3900
  154MOL0     H21198   1.494   6.776   7.328  0.1811 -1.0327  1.1006
  154MOL0     H21199   1.387   6.640   7.488 -0.1903  0.5649  0.2366
  154MOL0     H21200   1.536   6.583   7.452  1.8365 -1.3573  3.2103
  154MOL0     H21201   1.731   6.665   7.646  1.7567 -0.6647  1.8153
  154MOL0     H21202   1.729   6.854   7.898  0.9986 -0.3382  0.4887
  154MOL0     H21203   1.808   6.697   7.923  0.2482 -0.0444 -0.7566
  154MOL0     H21204   1.555   6.785   8.077 -0.1237 -0.9048 -0.3241
  154MOL0     H21205   1.616   6.634   8.108 -1.1745 -0.0238  2.4751
  154MOL0     H21206   1.718   6.773   8.291  1.2643 -1.5498  0.4497
  154MOL0     H21207   1.832   6.700   8.196 -1.4649 -0.8956  1.4486
  154MOL0     H21208   1.806   6.962   8.075  0.4231  1.6701  0.9259
  154MOL0     H21209   1.731   6.985   8.222  0.0961  0.7693 -0.4656
  154MOL0     H21210   2.013   6.775   8.053 -0.0131 -0.1363  1.0127
  154MOL0     H21211   2.247   6.637   7.952  0.2890 -1.0841 -2.6886
  154MOL0     H21212   2.288   6.762   7.830 -1.2665  2.0726  0.3206
  154MOL0     H21213   2.121   6.720   7.853 -0.3826  2.8158 -0.5793
  154MOL0     H21214   2.683   7.231   7.860 -1.4775  1.8553 -1.6691
  154MOL0     H21215   2.826   7.235   7.682 -0.0246  0.1483  1.8977
  154MOL0     H21216   2.979   7.113   7.584  1.8986 -1.0480  0.3658
  154MOL0     H21217   3.029   7.024   7.438 -1.2041 -1.1041  1.0473
  154MOL0     H21218   2.917   7.313   7.448 -0.5845 -1.4814  2.4480
  154MOL0     H21219   3.080   7.257   7.455 -2.8871  2.2269  4.8816
  154MOL0     H21220   2.885   7.202   7.216 -1.7969  1.6549  0.4797
  154MOL0     H21221   3.056   7.169   7.220 -0.3693  1.4896 -0.2119
  154MOL0     H21222   3.105   7.403   7.234  0.3419  0.3722  1.2239
  154MOL0     H21223   2.924   7.435   7.260 -2.1890 -1.0596 -1.8036
  154MOL0     H21224   3.021   7.296   7.028 -3.4572 -1.3406  0.3711
  154MOL0     H21225   2.876   7.399   7.032 -0.2587  0.0135  0.1140
  154MOL0     H21226   3.040   7.528   6.903 -0.0966  0.9905 -0.5497
  154MOL0     H21227   3.156   7.515   7.028  0.5935  1.9106  0.0971
  154MOL0     H21228   3.060   7.721   7.088  0.5257  0.9376 -1.9304
  154MOL0     H21229   2.936   7.619   7.169  0.7586 -0.4515 -0.2871
  154MOL0     H21230   2.838   7.771   7.038  0.4179 -0.2219  1.1554
  154MOL0     H21231   2.827   7.621   6.935  1.4097 -0.6219 -0.9108
  154MOL0     H21232   2.628   6.914   7.485  1.8374  3.1688 -2.6995
  154MOL0     H21233   2.476   6.896   7.689 -0.4159  0.6801  0.3275
  154MOL0     H21234   2.342   7.123   8.145 -0.9578 -0.5368  1.5366
  154MOL0     H21235   2.118   7.108   8.283 -0.9158 -1.0244  0.5186
  154MOL0     H21236   0.824   7.301   7.354  0.5636  2.0836  0.6873
  154MOL0     H21237   0.595   7.339   7.415 -1.1769 -0.0334  1.7308
  154MOL0     H21238   0.288   7.257   7.820  3.1052  0.8429  2.5765
  154MOL0     H21239   0.072   7.293   7.897 -1.4331 -0.4216 -2.2178
  154MOL0     H21240  -0.071   7.711   7.975  1.3314 -0.2784  0.7976
  154MOL0     H21241  -0.131   7.671   7.817  2.3004  0.0301  0.7225
  154MOL0     H21242  -0.313   7.522   7.909  0.4793 -1.3135  0.4152
  154MOL0     H21243  -0.320   7.689   7.964 -1.9310 -0.9796 -3.0253
  154MOL0     H21244  -0.188   7.612   8.167 -1.2522  2.5363 -0.5448
  154MOL0     H21245  -0.357   7.596   8.168 -1.0347 -1.7385  1.4503
  154MOL0     H21246  -0.136   7.383   8.130 -1.5472 -2.8740 -1.4225
  154MOL0     H21247  -0.295   7.362   8.048  0.3547  0.5120 -0.2794
  154MOL0     H21248  -0.351   7.253   8.457 -1.2115  2.0147  0.4699
  154MOL0     H21249   0.105   7.720   7.828 -0.9633 -1.1558 -0.9621
  154MOL0     H21250   0.442   7.741   7.803 -0.5546 -0.8311  0.4026
  154MOL0     H21251   0.354   7.753   7.640  1.3419  1.6334  0.7945
  154MOL0     H21252   0.285   7.821   7.782 -1.0273  0.0164  1.3885
  155MOL0     O21253   8.316   4.337   7.102  0.0890 -0.1307  0.8333
  155MOL0     C21254   8.295   4.225   7.059 -1.3403  0.1129 -0.2761
  155MOL0     O21255   8.391   4.143   7.014  0.1128 -0.1680  0.2132
  155MOL0     C21256   8.507   4.200   6.967 -0.4703 -0.2553 -0.4038
  155MOL0     C21257   8.509   4.269   6.846 -0.9073 -0.6784  0.0103
  155MOL0     C21258   8.622   4.325   6.793  0.0443  0.8196  0.0579
  155MOL0     C21259   8.743   4.322   6.866 -0.5292  0.5839 -0.1606
  155MOL0     O21260   8.853   4.374   6.804 -0.0135 -0.2924 -0.3214
  155MOL0     C21261   8.963   4.404   6.888 -0.7439  0.0410 -0.5132
  155MOL0     C21262   9.074   4.455   6.793 -0.6521  0.2865  0.3079
  155MOL0     C21263   9.187   4.515   6.870 -0.5634 -0.0656 -0.0377
  155MOL0     C21264   9.289   4.586   6.777 -0.1619 -0.2406  0.0695
  155MOL0     C21265   9.249   4.730   6.739 -0.0915 -1.0143 -0.9997
  155MOL0     C21266   9.353   4.803   6.643  0.2192  0.3400  0.9099
  155MOL0     C21267   9.282   4.927   6.577 -0.8609  0.6425 -0.7743
  155MOL0     C21268   9.375   5.024   6.510 -0.1806  0.6276  0.4638
  155MOL0     N21269   9.445   4.960   6.398  0.4178 -0.3734  0.2521
  155MOL0     C21270   9.586   4.962   6.384 -0.7143  0.3045  0.8477
  155MOL0     C21271   9.612   4.908   6.269 -0.8507  0.1875  0.3233
  155MOL0     C21272   9.754   4.874   6.236  0.1140  0.0646  0.6137
  155MOL0     C21273   9.786   4.921   6.092 -0.2750  0.4190  0.2388
  155MOL0     C21274   9.941   4.891   6.046 -0.1880  0.2779  0.6883
  155MOL0     C21275  10.051   4.921   6.149 -0.0586 -0.5575  0.2991
  155MOL0     O21276  10.181   4.938   6.087  0.3233  0.0655 -0.3073
  155MOL0     C21277  10.298   4.915   6.162  1.1892 -0.4706 -0.2623
  155MOL0     C21278  10.406   4.996   6.123 -0.7763  0.7067 -0.5199
  155MOL0     C21279  10.538   4.987   6.180 -0.2149  0.0780 -0.0163
  155MOL0     C21280  10.648   5.084   6.145  0.3596 -0.1018  0.0805
  155MOL0     C21281  10.554   4.879   6.275 -1.6350  0.2970 -0.6478
  155MOL0     C21282  10.691   4.849   6.334 -0.9076  1.5059 -0.2058
  155MOL0     O21283  10.688   4.782   6.456  0.7809 -0.0013  1.1042
  155MOL0     C21284  10.786   4.760   6.547 -0.4382  0.1937  0.1194
  155MOL0     C21285  10.752   4.706   6.676 -0.7409 -0.0023 -0.1075
  155MOL0     C21286  10.856   4.674   6.771  0.4582 -0.4700 -0.0098
  155MOL0     C21287  10.991   4.696   6.736 -0.9185  0.7472  0.1916
  155MOL0     O21288  11.089   4.655   6.832 -0.0614 -0.1025  0.7679
  155MOL0     C21289  11.228   4.665   6.794  0.7827  0.0369  0.6385
  155MOL0     C21290  11.307   4.609   6.912  0.0134  0.2675 -0.0376
  155MOL0     C21291  11.454   4.576   6.886  0.4296 -0.0537 -0.1740
  155MOL0     C21292  11.552   4.700   6.882 -0.1159  0.3327 -0.0482
  155MOL0     C21293  11.669   4.677   6.972 -0.8715  0.5842 -0.4076
  155MOL0     C21294  11.743   4.801   7.012 -0.1838 -0.3839  0.2564
  155MOL0     C21295  11.795   4.893   6.897 -0.0417 -0.9627  0.7595
  155MOL0     C21296  11.898   4.995   6.954  0.0159 -0.3941 -0.3673
  155MOL0    Cl21297  11.809   5.104   7.058  0.4439  0.5089 -0.1375
  155MOL0     C21298  11.028   4.756   6.610  1.1264  0.8219 -0.7902
  155MOL0     C21299  10.924   4.778   6.524  0.1713  0.2160 -0.0869
  155MOL0     O21300  10.795   4.882   6.278  0.1569 -0.1490 -0.1656
  155MOL0     C21301  10.444   4.802   6.313 -0.5364  0.3158 -0.4052
  155MOL0     C21302  10.317   4.817   6.258  0.0209 -0.6100  0.1009
  155MOL0     N21303   9.497   4.887   6.204 -0.1774  0.4795 -0.2871
  155MOL0     N21304   9.397   4.926   6.277  0.0582  0.5969  0.8493
  155MOL0     C21305   8.747   4.258   6.996  0.1962  0.5140  0.5744
  155MOL0     C21306   8.626   4.199   7.050 -0.1494 -0.5782  0.8435
  155MOL0     C21307   8.160   4.151   7.086 -0.6522  0.3291 -0.5423
  155MOL0     C21308   8.178   4.015   7.125  0.5452  0.0947  0.2578
  155MOL0     C21309   8.066   3.942   7.159 -0.5640  0.2841  0.6557
  155MOL0     C21310   7.940   4.004   7.166  0.3699 -0.1606  0.3416
  155MOL0     O21311   7.840   3.914   7.196  0.1947  0.4405  0.9471
  155MOL0     C21312   7.773   3.869   7.082 -0.3959 -0.2851 -0.6129
  155MOL0     C21313   7.699   3.734   7.107 -0.6176  0.5911 -0.0672
  155MOL0     C21314   7.794   3.611   7.110 -0.6805 -0.2862  0.4060
  155MOL0     C21315   7.710   3.483   7.087 -0.3868 -0.4064 -0.2704
  155MOL0     C21316   7.802   3.368   7.105  0.1647 -0.7239 -0.9401
  155MOL0     C21317   7.877   3.271   7.100  0.1424  0.3063  0.5711
  155MOL0     C21318   7.926   4.141   7.132  0.0387  0.3023 -0.1132
  155MOL0     C21319   8.038   4.217   7.088 -0.1381 -0.0132 -0.3874
  155MOL0     C21320   8.016   4.362   7.065  0.7077  0.1447  0.4760
  155MOL0     H21321   8.409   4.273   6.803 -1.1075  0.6534  0.5561
  155MOL0     H21322   8.639   4.351   6.689  0.3175 -2.2910 -0.7575
  155MOL0     H21323   8.997   4.311   6.934 -0.4283  0.5493  0.3175
  155MOL0     H21324   8.937   4.470   6.971 -2.0695 -1.5933  0.4263
  155MOL0     H21325   9.112   4.375   6.729  0.0252  0.7406  0.1315
  155MOL0     H21326   9.047   4.534   6.723  3.4465 -1.3317 -3.5487
  155MOL0     H21327   9.165   4.589   6.947  2.0302  3.4101 -2.3166
  155MOL0     H21328   9.240   4.429   6.912  2.1439  1.8499  0.7538
  155MOL0     H21329   9.382   4.597   6.832  1.0040  1.4404 -2.0762
  155MOL0     H21330   9.308   4.527   6.686  0.9770 -2.4731  1.6692
  155MOL0     H21331   9.240   4.792   6.829 -0.6530  0.6281 -2.1471
  155MOL0     H21332   9.153   4.732   6.685  0.8503  0.7276 -2.7355
  155MOL0     H21333   9.436   4.836   6.706  0.3594 -2.2914  2.2484
  155MOL0     H21334   9.380   4.732   6.565  0.1690  1.7498 -0.4332
  155MOL0     H21335   9.246   4.990   6.659  0.9847  4.3646 -2.6184
  155MOL0     H21336   9.200   4.905   6.508 -0.9932  0.7853 -0.6627
  155MOL0     H21337   9.315   5.110   6.478 -2.4962 -1.0432  0.0922
  155MOL0     H21338   9.454   5.063   6.575  2.6132 -2.4648 -0.7831
  155MOL0     H21339   9.664   4.974   6.458 -0.0956  1.9639 -0.0281
  155MOL0     H21340   9.784   4.770   6.251 -0.4444  0.1192  2.3688
  155MOL0     H21341   9.822   4.937   6.295 -0.7453 -0.5055  2.2837
  155MOL0     H21342   9.714   4.879   6.022  0.2135 -1.1922  0.6696
  155MOL0     H21343   9.765   5.029   6.086 -1.6991  0.1946  0.7458
  155MOL0     H21344   9.949   4.786   6.015  2.8988 -0.0355  2.2740
  155MOL0     H21345   9.953   4.954   5.957 -0.6557 -0.5903 -0.0152
  155MOL0     H21346  10.036   5.013   6.206  0.5704  0.8648 -1.7146
  155MOL0     H21347  10.059   4.834   6.215 -1.3623  0.7018  2.2275
  155MOL0     H21348  10.388   5.069   6.045  0.8284  2.6225  0.8139
  155MOL0     H21349  10.713   5.051   6.063 -0.6065 -0.3762 -0.5938
  155MOL0     H21350  10.700   5.102   6.239 -2.4597 -0.7143  1.9019
  155MOL0     H21351  10.601   5.179   6.117  0.0440  0.0019  0.9183
  155MOL0     H21352  10.650   4.682   6.706 -1.2115  2.2407  0.2422
  155MOL0     H21353  10.827   4.630   6.866 -0.7465  0.0585 -0.1152
  155MOL0     H21354  11.239   4.622   6.694  1.7178 -0.2025  0.8339
  155MOL0     H21355  11.245   4.772   6.780 -0.2950 -0.0651 -2.0553
  155MOL0     H21356  11.304   4.676   6.998 -2.1783  0.0973  0.0849
  155MOL0     H21357  11.248   4.521   6.940  0.6772 -0.1698  0.0007
  155MOL0     H21358  11.460   4.518   6.793  2.9435 -0.4735  0.1847
  155MOL0     H21359  11.492   4.502   6.957  0.0958 -0.5584 -0.5138
  155MOL0     H21360  11.499   4.793   6.905 -0.4347  0.0185  0.5184
  155MOL0     H21361  11.577   4.699   6.775 -0.6942  0.6411 -0.1901
  155MOL0     H21362  11.629   4.640   7.067 -0.9511 -0.5540 -0.8661
  155MOL0     H21363  11.726   4.595   6.928 -1.9714 -0.4556  0.0339
  155MOL0     H21364  11.832   4.779   7.072 -0.1218  0.4513  0.4827
  155MOL0     H21365  11.675   4.846   7.085 -1.9300 -4.0274  1.0902
  155MOL0     H21366  11.717   4.947   6.843  0.7958 -0.2404  0.2307
  155MOL0     H21367  11.848   4.833   6.822  1.3086  1.1290 -0.0503
  155MOL0     H21368  11.951   5.057   6.881  1.6751 -0.7655  0.4833
  155MOL0     H21369  11.977   4.949   7.014  0.5472  2.2707  1.1060
  155MOL0     H21370  11.128   4.773   6.572  2.1390 -1.4490  0.6549
  155MOL0     H21371  10.966   4.812   6.429  1.0396 -3.1374 -1.0346
  155MOL0     H21372  10.459   4.716   6.378 -1.6300 -1.8648 -2.8381
  155MOL0     H21373  10.238   4.744   6.274  0.5790 -0.5648  3.8933
  155MOL0     H21374   8.834   4.238   7.058  0.9050 -0.1705 -0.5957
  155MOL0     H21375   8.617   4.147   7.144  0.8659 -0.7756  0.8428
  155MOL0     H21376   8.274   3.967   7.114  0.8097  0.1323  2.1415
  155MOL0     H21377   8.079   3.838   7.187  1.6900  0.1219 -0.7654
  155MOL0     H21378   7.704   3.947   7.050  1.1345  1.0700 -0.7148
  155MOL0     H21379   7.852   3.857   7.008 -0.1819  0.1361 -0.4525
  155MOL0     H21380   7.623   3.729   7.028 -0.7763 -0.3850  0.1288
  155MOL0     H21381   7.643   3.752   7.199 -0.2188  1.5063 -0.0007
  155MOL0     H21382   7.872   3.624   7.034 -2.0063 -0.7235 -1.0850
  155MOL0     H21383   7.849   3.608   7.205  0.1103  0.8832  0.0047
  155MOL0     H21384   7.673   3.498   6.985 -0.1868  3.2818  0.0557
  155MOL0     H21385   7.625   3.470   7.155 -0.9640  0.2886 -0.8321
  155MOL0     H21386   7.951   3.194   7.103  0.3653  0.4471 -0.7088
  155MOL0     H21387   7.829   4.186   7.149  1.3294  2.3991  2.6726
  155MOL0     H21388   8.000   4.425   7.153  0.0244  1.4082 -0.5201
  155MOL0     H21389   8.101   4.411   7.016  1.2132  2.0591  3.0564
  155MOL0     H21390   7.935   4.381   6.994  0.0465  0.9045  1.4150
  156MOL0     O21391   2.626   9.600  10.487 -0.6812  0.0932  0.3538
  156MOL0     C21392   2.650   9.664  10.384  0.7635 -0.2787 -0.4707
  156MOL0     O21393   2.558   9.703  10.296  0.1585  0.5551  0.4410
  156MOL0     C21394   2.438   9.643  10.305  0.3050 -0.6649 -0.0669
  156MOL0     C21395   2.328   9.731  10.327  0.5697  0.7124 -0.4405
  156MOL0     C21396   2.198   9.681  10.324  0.4510 -0.4942  0.1811
  156MOL0     C21397   2.167   9.551  10.295 -0.2877 -0.4538  0.1443
  156MOL0     O21398   2.037   9.517  10.312 -0.0324 -0.3037 -0.1713
  156MOL0     C21399   2.003   9.378  10.282  0.4954 -0.3140  0.2335
  156MOL0     C21400   1.850   9.363  10.304  0.3323  0.2790  0.1139
  156MOL0     C21401   1.768   9.439  10.199  0.2579  0.1614 -0.4718
  156MOL0     C21402   1.617   9.426  10.225 -0.9400 -0.5758 -0.4782
  156MOL0     C21403   1.522   9.516  10.160  0.0147  0.2610 -0.1202
  156MOL0     C21404   1.551   9.521  10.003  0.3021  0.4775  0.0291
  156MOL0     C21405   1.465   9.414   9.942  0.0397 -0.4422  0.5271
  156MOL0     C21406   1.494   9.396   9.792 -0.3812 -0.3642  0.3794
  156MOL0     N21407   1.631   9.348   9.765 -0.7201 -0.0358  0.0221
  156MOL0     C21408   1.706   9.243   9.826 -0.3633  0.0481 -0.2518
  156MOL0     C21409   1.830   9.252   9.768  0.2773  0.3758 -0.6860
  156MOL0     C21410   1.945   9.150   9.779  0.6757  0.2472 -0.0313
  156MOL0     C21411   2.029   9.193   9.898  0.1436 -0.3397 -0.3446
  156MOL0     C21412   2.143   9.083   9.909  0.5777 -0.2437 -0.5149
  156MOL0     C21413   2.244   9.125  10.018 -0.6122 -0.0315  0.1001
  156MOL0     O21414   2.325   9.238   9.985  0.0770 -0.2951 -0.0009
  156MOL0     C21415   2.460   9.215   9.963  0.7317 -0.7336 -0.6114
  156MOL0     C21416   2.540   9.201  10.077  0.3371 -0.1573 -0.6570
  156MOL0     C21417   2.676   9.184  10.063 -0.7997 -0.8750 -0.4182
  156MOL0     C21418   2.760   9.171  10.193  0.1719  0.0121  0.0897
  156MOL0     C21419   2.739   9.188   9.932  0.9666  0.7238  0.1316
  156MOL0     C21420   2.882   9.156   9.912 -0.2192  0.1840 -0.5929
  156MOL0     O21421   2.932   9.191   9.793  0.2824  0.4116 -0.0573
  156MOL0     C21422   3.052   9.139   9.754 -0.2434 -0.1024  0.6679
  156MOL0     C21423   3.116   9.016   9.794  0.3739 -0.8461 -0.0110
  156MOL0     C21424   3.242   8.977   9.736  0.5441  0.4649  1.2211
  156MOL0     C21425   3.289   9.051   9.633 -0.9540  0.3474  0.3357
  156MOL0     O21426   3.396   9.008   9.561  0.3969 -0.0010  0.8287
  156MOL0     C21427   3.370   8.891   9.485 -0.5584 -0.6666  0.3560
  156MOL0     C21428   3.504   8.854   9.401 -0.1513  0.2094  0.0774
  156MOL0     C21429   3.644   8.881   9.466 -0.0439 -0.2829  0.1789
  156MOL0     C21430   3.644   8.789   9.597 -0.0832  0.3388  0.2929
  156MOL0     C21431   3.782   8.769   9.652  0.5636  0.4301  0.3377
  156MOL0     C21432   3.795   8.668   9.771  0.5382  0.1006  0.1780
  156MOL0     C21433   3.941   8.635   9.805  0.1570  0.0870  0.6667
  156MOL0     C21434   3.993   8.737   9.894  0.0902 -0.2462 -0.2211
  156MOL0    Cl21435   4.160   8.681   9.921  0.3599 -0.1509  0.3909
  156MOL0     C21436   3.224   9.160   9.581  0.4056  0.6559 -0.0136
  156MOL0     C21437   3.110   9.205   9.643 -0.1221 -0.6495  0.3032
  156MOL0     O21438   2.943   9.089   9.998 -0.2838 -0.8683 -0.0069
  156MOL0     C21439   2.656   9.211   9.821 -1.0757 -0.4738  0.0113
  156MOL0     C21440   2.514   9.227   9.837 -0.4363  0.0351 -0.5543
  156MOL0     N21441   1.832   9.363   9.681  0.7624  0.2373 -0.2393
  156MOL0     N21442   1.722   9.427   9.694 -0.3673 -0.4549  0.0377
  156MOL0     C21443   2.280   9.464  10.271  0.4508 -0.2099 -0.1263
  156MOL0     C21444   2.414   9.509  10.278  0.2428 -0.4043  0.2980
  156MOL0     C21445   2.784   9.717  10.365 -0.5737 -0.4700 -0.1346
  156MOL0     C21446   2.803   9.841  10.286 -0.9078  0.7807  0.4325
  156MOL0     C21447   2.925   9.901  10.269 -0.5629 -0.2897  0.0683
  156MOL0     C21448   3.039   9.838  10.312 -0.7404  0.1474 -0.3257
  156MOL0     O21449   3.169   9.885  10.308 -0.2524 -0.0640  0.2990
  156MOL0     C21450   3.220   9.966  10.198 -0.0102 -0.0431 -0.2030
  156MOL0     C21451   3.374   9.962  10.212  0.9544  0.2957 -0.4819
  156MOL0     C21452   3.441   9.828  10.164  0.3556 -0.0453 -1.0195
  156MOL0     C21453   3.455   9.824  10.017 -0.3184 -0.6688  0.2239
  156MOL0     C21454   3.565   9.905   9.963  0.1074  0.1660  0.8642
  156MOL0     C21455   3.658   9.972   9.929 -0.1018 -0.5889  0.7060
  156MOL0     C21456   3.028   9.710  10.373  0.0959 -0.6851 -1.2788
  156MOL0     C21457   2.901   9.649  10.395  0.9147 -1.1503 -0.4467
  156MOL0     C21458   2.907   9.518  10.462  0.2927 -0.8454 -0.6305
  156MOL0     H21459   2.338   9.839  10.337  0.0549  0.7518 -0.3313
  156MOL0     H21460   2.111   9.744  10.336 -1.8371 -3.2947 -0.4506
  156MOL0     H21461   2.053   9.301  10.341 -0.9894 -0.3005  1.5884
  156MOL0     H21462   2.016   9.348  10.178 -1.3249 -0.3032 -0.0416
  156MOL0     H21463   1.823   9.257  10.301 -0.3929  0.4824 -1.1343
  156MOL0     H21464   1.822   9.408  10.400 -0.6439  3.0750 -1.3837
  156MOL0     H21465   1.790   9.546  10.198 -1.0703  0.4478 -1.0521
  156MOL0     H21466   1.792   9.400  10.100  2.0372  1.1845 -0.4950
  156MOL0     H21467   1.588   9.322  10.205 -1.0028 -0.8613  0.9672
  156MOL0     H21468   1.598   9.437  10.333  1.1508  0.9158 -0.2002
  156MOL0     H21469   1.530   9.616  10.204  1.3630 -0.3761  1.1699
  156MOL0     H21470   1.420   9.482  10.180  1.0290 -1.1614  3.2561
  156MOL0     H21471   1.523   9.618   9.961 -1.3816  0.3219  0.7007
  156MOL0     H21472   1.654   9.507   9.968 -0.4373  0.0502 -2.1279
  156MOL0     H21473   1.360   9.435   9.964  0.7116  0.9913  2.6432
  156MOL0     H21474   1.485   9.319   9.992  0.9944  0.5055  2.0216
  156MOL0     H21475   1.430   9.312   9.763  2.1339 -2.7771  1.3669
  156MOL0     H21476   1.482   9.484   9.728  1.3368  0.3306  0.9735
  156MOL0     H21477   1.666   9.168   9.893 -2.4728  2.3468  1.2696
  156MOL0     H21478   1.991   9.141   9.680 -0.8810  1.4410 -0.9234
  156MOL0     H21479   1.905   9.051   9.802 -0.2271  0.9424  1.5448
  156MOL0     H21480   2.079   9.288   9.880 -1.5804  0.4089 -1.3915
  156MOL0     H21481   1.963   9.203   9.985  2.4813  0.6308  1.4287
  156MOL0     H21482   2.099   8.985   9.925  0.1131 -0.4837 -2.8816
  156MOL0     H21483   2.187   9.075   9.809 -0.3470 -0.0887 -0.9431
  156MOL0     H21484   2.189   9.144  10.111  0.6199 -0.1304  0.8715
  156MOL0     H21485   2.317   9.048  10.044  0.3271  0.5878 -0.6671
  156MOL0     H21486   2.498   9.187  10.176  0.0600 -0.6766 -0.8472
  156MOL0     H21487   2.703   9.211  10.277 -0.5913 -4.2699  1.8882
  156MOL0     H21488   2.861   9.215  10.190 -0.5042  1.7256  1.1740
  156MOL0     H21489   2.774   9.064  10.211  0.0886  0.1567  1.0562
  156MOL0     H21490   3.085   8.954   9.877  0.0723 -2.8656 -1.5458
  156MOL0     H21491   3.293   8.891   9.779  0.5047 -1.1726 -1.7501
  156MOL0     H21492   3.330   8.815   9.553 -0.1341 -0.0229  1.3379
  156MOL0     H21493   3.298   8.917   9.407 -0.2741  0.8439  0.5774
  156MOL0     H21494   3.491   8.748   9.378  0.0086  0.2059  0.0061
  156MOL0     H21495   3.502   8.906   9.305  1.0230  0.4675  0.1865
  156MOL0     H21496   3.660   8.982   9.505  3.6882 -0.2838 -1.0116
  156MOL0     H21497   3.725   8.861   9.395 -0.4668  1.1316 -0.7333
  156MOL0     H21498   3.594   8.693   9.583 -0.9599  0.8875 -0.4182
  156MOL0     H21499   3.582   8.841   9.670 -0.9842  0.2809 -0.4178
  156MOL0     H21500   3.842   8.735   9.568 -0.1761 -1.1950  0.4411
  156MOL0     H21501   3.821   8.865   9.687  0.8338 -0.0321  1.3349
  156MOL0     H21502   3.734   8.582   9.740  0.2134  0.4899 -0.2742
  156MOL0     H21503   3.748   8.716   9.857 -0.5219  0.3880 -0.5357
  156MOL0     H21504   4.006   8.611   9.719 -1.2003  0.6398 -0.5580
  156MOL0     H21505   3.949   8.537   9.854 -1.3017 -0.3900  0.0078
  156MOL0     H21506   3.940   8.751   9.989  2.2196 -0.0136  0.9811
  156MOL0     H21507   3.989   8.832   9.841 -2.6665 -0.2525 -0.1868
  156MOL0     H21508   3.261   9.209   9.492 -1.0788 -1.3739 -1.8725
  156MOL0     H21509   3.077   9.305   9.620 -0.8595 -0.6648  1.2602
  156MOL0     H21510   2.692   9.203   9.719 -0.1469  0.7433  0.2264
  156MOL0     H21511   2.452   9.238   9.749 -0.2108  0.5891 -0.6505
  156MOL0     H21512   2.264   9.359  10.250  0.4455  0.0167 -1.2978
  156MOL0     H21513   2.501   9.444  10.278  0.3360 -0.2925  1.2661
  156MOL0     H21514   2.724   9.901  10.242 -1.2726 -1.1459 -1.7425
  156MOL0     H21515   2.936   9.998  10.222  0.4605  0.2095  1.2875
  156MOL0     H21516   3.191   9.938  10.096 -1.2663 -0.1415  0.1685
  156MOL0     H21517   3.197  10.071  10.216  1.1816  0.3522 -0.8532
  156MOL0     H21518   3.400   9.981  10.317  3.4362 -2.2000 -0.5455
  156MOL0     H21519   3.416  10.048  10.159  0.4440 -0.1388 -1.6249
  156MOL0     H21520   3.542   9.826  10.206 -0.4489  0.6298  1.0919
  156MOL0     H21521   3.380   9.743  10.197 -0.1187  0.8436  0.5260
  156MOL0     H21522   3.361   9.864   9.978 -2.1977 -2.8024  2.2646
  156MOL0     H21523   3.460   9.718   9.989 -1.4304 -0.9169  0.9007
  156MOL0     H21524   3.740  10.033   9.897 -0.8750  0.0880 -0.0385
  156MOL0     H21525   3.118   9.655  10.400 -2.2989 -3.7727  1.2636
  156MOL0     H21526   3.003   9.466  10.458  0.4627 -0.5884 -0.0485
  156MOL0     H21527   2.887   9.528  10.569  1.2166  0.5813 -0.5697
  156MOL0     H21528   2.839   9.448  10.411 -0.4610 -1.9826  1.7803
  157MOL0     O21529   8.011   3.750   6.253 -0.1783 -0.0195 -0.6090
  157MOL0     C21530   7.921   3.827   6.277 -0.5047 -0.2844 -0.2906
  157MOL0     O21531   7.945   3.964   6.274  0.6196  1.1492  0.0899
  157MOL0     C21532   8.059   4.001   6.210 -0.2330 -0.4750 -0.3359
  157MOL0     C21533   8.174   4.006   6.292  0.4233  0.1917  0.6747
  157MOL0     C21534   8.300   4.045   6.229  0.0388  0.2260  0.9706
  157MOL0     C21535   8.299   4.068   6.088  0.6250 -0.4373  0.7187
  157MOL0     O21536   8.420   4.106   6.040  0.0173 -0.2528 -0.7539
  157MOL0     C21537   8.430   4.155   5.910  0.5911  0.2425  1.0374
  157MOL0     C21538   8.575   4.195   5.873  0.0206  0.3102  0.0092
  157MOL0     C21539   8.621   4.303   5.961  0.0311 -0.4660 -0.2607
  157MOL0     C21540   8.767   4.359   5.944 -0.2960  0.5444 -0.3232
  157MOL0     C21541   8.866   4.244   5.955  0.4145  0.0741  0.4933
  157MOL0     C21542   8.982   4.290   6.035  0.2198  0.5341 -0.6435
  157MOL0     C21543   9.102   4.202   6.006  0.2831  0.2329 -0.6761
  157MOL0     C21544   9.230   4.260   6.064 -0.2241  0.3153  0.4425
  157MOL0     N21545   9.345   4.169   6.060 -0.0736 -1.4062  0.6932
  157MOL0     C21546   9.399   4.104   6.169 -0.0588 -0.4973 -0.3506
  157MOL0     C21547   9.515   4.048   6.121  0.4038 -0.3000 -0.0363
  157MOL0     C21548   9.613   3.963   6.193 -0.0795 -0.0395  0.8579
  157MOL0     C21549   9.565   3.812   6.182 -0.8699 -0.6296  0.2287
  157MOL0     C21550   9.542   3.747   6.046  0.5734  0.2475  0.4458
  157MOL0     C21551   9.674   3.746   5.965 -0.4089 -0.2095  1.0459
  157MOL0     O21552   9.783   3.679   6.036 -0.4367  0.0362  0.1420
  157MOL0     C21553   9.900   3.650   5.968  0.0506  0.6752 -0.0437
  157MOL0     C21554   9.927   3.662   5.834 -0.6253 -0.6075  0.4136
  157MOL0     C21555  10.063   3.636   5.787 -0.8520  0.9297 -0.0610
  157MOL0     C21556  10.088   3.646   5.641  0.1954 -0.6817  0.4398
  157MOL0     C21557  10.177   3.606   5.871  0.1810  0.1076  0.3885
  157MOL0     C21558  10.319   3.581   5.835 -1.0922 -0.8017 -1.0656
  157MOL0     O21559  10.393   3.560   5.952  0.0743  0.0130  0.3935
  157MOL0     C21560  10.525   3.584   5.942  0.2622  0.8635  0.1853
  157MOL0     C21561  10.609   3.470   5.944 -0.7778  0.6001 -0.4325
  157MOL0     C21562  10.745   3.489   5.928  0.1613  0.3249 -0.0781
  157MOL0     C21563  10.809   3.617   5.908  0.1393  0.5855  0.2236
  157MOL0     O21564  10.947   3.616   5.897 -0.0404  0.4862  0.3248
  157MOL0     C21565  11.008   3.738   5.868 -0.3198  0.0389  0.1831
  157MOL0     C21566  11.157   3.721   5.820 -0.6140 -0.1294 -0.2125
  157MOL0     C21567  11.255   3.819   5.881 -0.3619 -0.5874 -0.0995
  157MOL0     C21568  11.392   3.804   5.827 -0.2660  0.4809  0.2646
  157MOL0     C21569  11.488   3.886   5.901  0.0010 -0.1771 -1.2821
  157MOL0     C21570  11.635   3.872   5.852  1.0411 -0.0639 -0.3455
  157MOL0     C21571  11.717   3.987   5.908 -0.2243  0.2264 -0.9923
  157MOL0     C21572  11.860   3.987   5.863  0.0977 -0.6924  0.8034
  157MOL0    Cl21573  11.950   3.839   5.911  0.2092 -0.2209 -0.0703
  157MOL0     C21574  10.723   3.730   5.906  0.4343  0.1074 -0.3605
  157MOL0     C21575  10.582   3.711   5.910 -0.0744  0.4979 -0.4412
  157MOL0     O21576  10.360   3.621   5.725  0.1208 -0.2511  0.1176
  157MOL0     C21577  10.142   3.610   6.013  0.0318 -0.2281  0.1421
  157MOL0     C21578  10.013   3.625   6.054  0.5189 -0.4736  0.5372
  157MOL0     N21579   9.530   4.074   5.990  0.3558  0.2445  0.5940
  157MOL0     N21580   9.433   4.155   5.952 -0.1975 -0.5040 -0.6828
  157MOL0     C21581   8.178   4.052   6.016  0.0688 -0.8839  0.1951
  157MOL0     C21582   8.061   4.024   6.077  0.7481 -0.6430  0.4313
  157MOL0     C21583   7.802   3.763   6.329 -0.5951  0.1103 -0.5597
  157MOL0     C21584   7.696   3.849   6.362 -0.3961  0.4403  0.3752
  157MOL0     C21585   7.578   3.806   6.408 -0.2846 -0.1901 -0.2428
  157MOL0     C21586   7.548   3.673   6.431 -0.4590 -0.4799  0.0401
  157MOL0     O21587   7.428   3.628   6.463  0.1817 -0.3829  0.3768
  157MOL0     C21588   7.328   3.709   6.518  0.0030  0.4565 -0.3806
  157MOL0     C21589   7.229   3.771   6.413  0.6875 -0.4307 -0.0198
  157MOL0     C21590   7.150   3.863   6.500  0.1324 -0.4816  0.3379
  157MOL0     C21591   7.029   3.925   6.423  0.2498  0.1282  0.5049
  157MOL0     C21592   6.948   3.840   6.331  0.5051  0.0154  0.5104
  157MOL0     C21593   6.875   3.771   6.256 -0.2332  0.6503  0.2877
  157MOL0     C21594   7.647   3.579   6.408 -0.2656 -0.0876  0.3440
  157MOL0     C21595   7.772   3.628   6.361  0.0737  0.1720  0.9711
  157MOL0     C21596   7.879   3.524   6.361  0.0612  0.8429 -0.4542
  157MOL0     H21597   8.182   3.973   6.395 -2.6803 -3.6726 -0.0611
  157MOL0     H21598   8.385   4.052   6.296  0.5462  0.7938  0.2902
  157MOL0     H21599   8.351   4.228   5.888  0.9073  0.1549 -0.5112
  157MOL0     H21600   8.406   4.069   5.846  1.1363 -0.8412  2.2552
  157MOL0     H21601   8.641   4.107   5.870 -0.7002 -0.2082 -1.5899
  157MOL0     H21602   8.576   4.226   5.768 -1.7998  0.8799  0.1226
  157MOL0     H21603   8.546   4.382   5.953 -2.6814 -2.4196  2.8701
  157MOL0     H21604   8.609   4.269   6.065 -0.1310  1.4896  0.4017
  157MOL0     H21605   8.773   4.417   5.851 -1.6438  1.2203 -0.0134
  157MOL0     H21606   8.795   4.426   6.026  0.3760 -0.2916  0.1449
  157MOL0     H21607   8.900   4.222   5.853 -0.6372  0.1924  0.1034
  157MOL0     H21608   8.818   4.158   6.002  2.0212  0.2028  2.5140
  157MOL0     H21609   9.003   4.396   6.017  2.1350  0.0923 -1.2927
  157MOL0     H21610   8.949   4.289   6.139 -0.5118 -1.6766 -0.8347
  157MOL0     H21611   9.111   4.197   5.897 -0.6649 -0.9944 -0.7223
  157MOL0     H21612   9.087   4.100   6.044  2.4575  0.3788  0.7314
  157MOL0     H21613   9.246   4.344   5.997 -4.0226  1.5138  0.7986
  157MOL0     H21614   9.215   4.294   6.167  3.2968  2.1550  0.4900
  157MOL0     H21615   9.354   4.104   6.267 -0.8995 -1.5495 -0.7229
  157MOL0     H21616   9.625   3.991   6.298 -1.2767 -2.8346  1.8289
  157MOL0     H21617   9.707   3.976   6.138 -0.4080  1.7367  0.6542
  157MOL0     H21618   9.633   3.752   6.243  2.4093 -0.1429 -2.6343
  157MOL0     H21619   9.466   3.808   6.229 -1.5367 -0.5824 -1.1309
  157MOL0     H21620   9.505   3.646   6.061 -1.8580  1.2247  1.4692
  157MOL0     H21621   9.468   3.794   5.981  0.2938  1.3946  1.5596
  157MOL0     H21622   9.657   3.697   5.869  0.5889  0.0900  0.7009
  157MOL0     H21623   9.707   3.845   5.933  1.9482 -1.7280 -1.6729
  157MOL0     H21624   9.849   3.673   5.760  0.9230  1.3359 -1.0458
  157MOL0     H21625  10.001   3.610   5.585 -2.4449 -0.9782  4.3433
  157MOL0     H21626  10.162   3.578   5.598 -1.1472  0.6379 -4.6623
  157MOL0     H21627  10.110   3.751   5.619  1.5069 -0.5781  2.0562
  157MOL0     H21628  10.575   3.367   5.953 -1.3148  0.5175 -2.7226
  157MOL0     H21629  10.799   3.395   5.936  0.3291  0.3400 -0.9275
  157MOL0     H21630  10.956   3.794   5.790  0.5010 -1.4707 -1.5312
  157MOL0     H21631  11.017   3.789   5.964 -0.7243 -0.2352  0.3708
  157MOL0     H21632  11.203   3.624   5.840  1.4708  0.1876 -2.8910
  157MOL0     H21633  11.158   3.729   5.711 -0.5341  1.2790 -0.1192
  157MOL0     H21634  11.249   3.812   5.990 -0.1027  1.8267  0.1216
  157MOL0     H21635  11.237   3.920   5.844  2.8661  1.9044  4.1352
  157MOL0     H21636  11.392   3.837   5.723  1.2760 -3.4390 -1.1812
  157MOL0     H21637  11.421   3.699   5.837  2.0421  1.1697  1.5980
  157MOL0     H21638  11.449   3.988   5.901 -0.0898 -0.0189  2.9755
  157MOL0     H21639  11.487   3.844   6.003  0.0712  0.0822 -1.1757
  157MOL0     H21640  11.640   3.879   5.743  0.7692 -0.3553 -0.3775
  157MOL0     H21641  11.678   3.776   5.881 -0.8561 -0.6284  0.7233
  157MOL0     H21642  11.718   3.983   6.017  0.8965  1.4966 -0.9285
  157MOL0     H21643  11.684   4.087   5.877  0.2861  0.7400  0.0558
  157MOL0     H21644  11.920   4.076   5.886 -1.9767  1.6125 -1.8481
  157MOL0     H21645  11.852   3.997   5.754 -6.7250  1.6515  1.0196
  157MOL0     H21646  10.766   3.829   5.912  2.1577 -0.6879  2.0832
  157MOL0     H21647  10.513   3.795   5.902  0.3504  0.9237  0.2907
  157MOL0     H21648  10.216   3.607   6.092 -0.4209  0.5300  0.6098
  157MOL0     H21649  10.000   3.626   6.162 -2.3463 -0.4799  0.2586
  157MOL0     H21650   8.190   4.057   5.908 -1.8921  1.5195 -0.0005
  157MOL0     H21651   7.973   4.020   6.013 -0.0217  0.3467  1.3936
  157MOL0     H21652   7.717   3.953   6.338  2.1020 -0.7265 -3.2587
  157MOL0     H21653   7.499   3.879   6.425  0.1781  0.1277  0.6272
  157MOL0     H21654   7.269   3.644   6.584 -4.4621  3.9722 -0.3896
  157MOL0     H21655   7.366   3.781   6.591  0.7107 -0.3700  0.0739
  157MOL0     H21656   7.157   3.697   6.378 -1.6292 -0.4010  4.1150
  157MOL0     H21657   7.282   3.817   6.330  0.1153  1.5899  0.6774
  157MOL0     H21658   7.113   3.807   6.586  0.3563  0.1068  0.8256
  157MOL0     H21659   7.211   3.949   6.531 -2.6106  2.2261 -1.2546
  157MOL0     H21660   7.069   3.999   6.353 -1.2054  0.3918 -0.0932
  157MOL0     H21661   6.972   3.985   6.494  2.0320  4.8292 -1.6174
  157MOL0     H21662   6.807   3.711   6.199  0.2652 -0.7232  1.0813
  157MOL0     H21663   7.620   3.475   6.423 -0.4464 -0.4500 -2.0845
  157MOL0     H21664   7.940   3.542   6.450 -0.8966  3.5211 -0.2312
  157MOL0     H21665   7.835   3.425   6.380  1.2539  0.1451 -1.2000
  157MOL0     H21666   7.931   3.505   6.267 -0.7310  0.6703 -0.8685
  158MOL0     O21667   9.899  10.970   6.108  0.3902 -0.0503 -0.5969
  158MOL0     C21668   9.846  10.897   6.191 -0.5506 -1.0051 -0.3939
  158MOL0     O21669   9.904  10.871   6.306 -0.1663  0.1120  0.8299
  158MOL0     C21670  10.026  10.919   6.350  0.1163 -0.8819  0.0415
  158MOL0     C21671  10.076  11.046   6.338 -0.3320  0.3762 -0.0188
  158MOL0     C21672  10.206  11.080   6.389  0.7064 -0.1986 -0.9350
  158MOL0     C21673  10.283  10.981   6.450  0.0149 -0.3319 -0.5038
  158MOL0     O21674  10.419  11.015   6.477  1.0400 -0.0333 -0.5619
  158MOL0     C21675  10.490  10.909   6.548  0.3249  0.0265 -0.1255
  158MOL0     C21676  10.641  10.955   6.558 -0.1133  0.5131 -0.0056
  158MOL0     C21677  10.714  10.956   6.422 -0.2776  0.5298  0.6817
  158MOL0     C21678  10.859  10.986   6.432  0.6494  0.5355 -0.2656
  158MOL0     C21679  10.930  11.037   6.315  0.3107 -0.3288  0.4280
  158MOL0     C21680  11.082  11.023   6.334 -0.3868 -0.4176 -0.1129
  158MOL0     C21681  11.165  11.066   6.216 -0.2349  0.0954  0.0786
  158MOL0     C21682  11.293  10.980   6.210 -0.3972 -0.0983 -0.2207
  158MOL0     N21683  11.407  11.012   6.308  0.5684 -0.5865  0.2932
  158MOL0     C21684  11.489  11.126   6.301  0.3882  0.0006  0.5065
  158MOL0     C21685  11.561  11.133   6.415  0.1610 -0.5727 -0.1651
  158MOL0     C21686  11.646  11.253   6.456  0.3328  0.1487 -0.4685
  158MOL0     C21687  11.790  11.222   6.453  0.0159  0.0599 -0.2596
  158MOL0     C21688  11.829  11.155   6.580 -0.0629 -0.5609 -0.3178
  158MOL0     C21689  11.978  11.117   6.567 -0.1546 -0.0653 -0.2572
  158MOL0     O21690  12.003  11.021   6.466  0.7084  0.9918 -0.6933
  158MOL0     C21691  12.132  11.002   6.421  0.5461  0.1685  0.0043
  158MOL0     C21692  12.247  11.062   6.479 -0.3570 -0.4698 -0.3945
  158MOL0     C21693  12.372  11.047   6.421  0.2868  0.1125 -0.2788
  158MOL0     C21694  12.478  11.140   6.468  0.1242 -0.0091 -0.0026
  158MOL0     C21695  12.387  10.955   6.309  0.9963  0.6322  0.0992
  158MOL0     C21696  12.518  10.939   6.245  0.2826 -0.4401 -0.6651
  158MOL0     O21697  12.632  10.934   6.314 -0.1335 -0.5441 -0.0165
  158MOL0     C21698  12.753  10.942   6.256 -0.3873 -0.3510 -0.1669
  158MOL0     C21699  12.832  10.825   6.232  0.0578  0.4462  0.4223
  158MOL0     C21700  12.962  10.843   6.187 -0.6970  0.0961  0.1394
  158MOL0     C21701  13.017  10.969   6.156  0.4545  0.4750 -0.2768
  158MOL0     O21702  13.149  10.976   6.134 -0.8592 -0.7992  0.3104
  158MOL0     C21703  13.196  11.082   6.043 -0.1280  0.8920  0.2344
  158MOL0     C21704  13.327  11.038   5.973 -0.6419  0.6487 -0.6876
  158MOL0     C21705  13.293  10.933   5.870 -0.8799  0.7163 -0.8317
  158MOL0     C21706  13.419  10.865   5.819  0.2001 -0.2310  0.0257
  158MOL0     C21707  13.449  10.910   5.671 -0.4058  0.4577 -0.8342
  158MOL0     C21708  13.549  10.823   5.603  1.2738 -0.7141  0.8116
  158MOL0     C21709  13.623  10.900   5.491  0.3503  0.7169  0.0282
  158MOL0     C21710  13.713  10.795   5.415  0.1345 -0.2702 -0.3417
  158MOL0    Cl21711  13.698  10.795   5.242 -0.2177 -0.4624  0.2528
  158MOL0     C21712  12.930  11.080   6.164 -0.4792 -0.3722 -0.4187
  158MOL0     C21713  12.801  11.063   6.218  0.1118  0.6298 -0.1273
  158MOL0     O21714  12.504  10.943   6.122 -0.4360  0.0502 -0.2162
  158MOL0     C21715  12.276  10.895   6.257  0.2157 -0.4791 -0.6717
  158MOL0     C21716  12.153  10.915   6.317  0.8116  1.2035  0.4589
  158MOL0     N21717  11.531  11.022   6.485 -0.5673 -0.5513  0.4437
  158MOL0     N21718  11.441  10.949   6.429  0.0060  0.0764 -0.5850
  158MOL0     C21719  10.226  10.852   6.471  0.4509  0.2067  0.0728
  158MOL0     C21720  10.093  10.829   6.433  0.1125 -1.0762  0.9168
  158MOL0     C21721   9.717  10.834   6.168  0.5356  0.0806  0.6289
  158MOL0     C21722   9.680  10.731   6.249  1.2882 -0.1591 -0.1692
  158MOL0     C21723   9.554  10.675   6.236  0.0521 -0.1113 -0.2004
  158MOL0     C21724   9.461  10.719   6.144  0.1843  1.0360  0.5051
  158MOL0     O21725   9.330  10.669   6.139 -0.5212 -0.1345 -0.4223
  158MOL0     C21726   9.311  10.542   6.207  0.1009 -0.5399 -0.4042
  158MOL0     C21727   9.187  10.466   6.161 -0.0534  0.0764 -0.1891
  158MOL0     C21728   9.072  10.515   6.241  0.1704  0.4937 -0.0396
  158MOL0     C21729   8.945  10.440   6.199  0.8410  0.3352  0.3468
  158MOL0     C21730   8.946  10.296   6.234  0.3153 -0.0557  0.4328
  158MOL0     C21731   8.941  10.183   6.274  0.8482  0.9223 -0.2017
  158MOL0     C21732   9.492  10.825   6.059 -0.0532  0.3879  0.3443
  158MOL0     C21733   9.617  10.886   6.076  0.2531  0.1447  0.8507
  158MOL0     C21734   9.639  11.008   5.985 -0.2641  0.1654 -0.6440
  158MOL0     H21735  10.004  11.118   6.301 -1.5123 -0.5595  0.3849
  158MOL0     H21736  10.245  11.182   6.389  1.0384 -0.1387  3.1296
  158MOL0     H21737  10.483  10.815   6.492 -0.3650  0.9174 -1.6074
  158MOL0     H21738  10.460  10.893   6.652 -0.5532 -0.6440 -0.4715
  158MOL0     H21739  10.644  11.050   6.612  0.5540 -0.5261  1.8468
  158MOL0     H21740  10.692  10.884   6.623 -1.2813 -0.3610 -0.0012
  158MOL0     H21741  10.690  10.861   6.374 -0.7584  1.7022 -1.5082
  158MOL0     H21742  10.671  11.037   6.362  3.2604 -0.1368 -3.1830
  158MOL0     H21743  10.872  11.048   6.522 -1.2111 -2.0427  1.9430
  158MOL0     H21744  10.913  10.900   6.472 -0.6903 -0.9377 -1.5038
  158MOL0     H21745  10.903  11.143   6.310 -2.4981 -0.9695 -0.1511
  158MOL0     H21746  10.890  10.993   6.223 -0.3881 -2.3700  1.6470
  158MOL0     H21747  11.120  11.076   6.422 -0.4816 -0.6406  0.0652
  158MOL0     H21748  11.098  10.916   6.350 -0.3343 -0.5687 -1.1304
  158MOL0     H21749  11.184  11.174   6.215  2.7618 -0.3097 -2.0677
  158MOL0     H21750  11.111  11.047   6.123  3.1943  0.5131 -2.1876
  158MOL0     H21751  11.266  10.875   6.224  1.1572 -0.5078 -0.0322
  158MOL0     H21752  11.334  10.980   6.109 -0.1105 -1.2331 -0.1241
  158MOL0     H21753  11.492  11.193   6.216  0.0185 -1.4167 -0.6724
  158MOL0     H21754  11.624  11.289   6.557 -0.6055 -1.6398  0.0219
  158MOL0     H21755  11.640  11.344   6.396  4.2264  1.2989  0.6304
  158MOL0     H21756  11.819  11.156   6.371 -0.2037 -0.6434  0.2179
  158MOL0     H21757  11.849  11.311   6.430 -0.1325  0.4815  0.9025
  158MOL0     H21758  11.814  11.225   6.663  1.6146 -0.6883  0.1174
  158MOL0     H21759  11.770  11.065   6.599  1.6014 -1.5037  0.6197
  158MOL0     H21760  12.036  11.208   6.551 -1.5758  0.5947 -1.8386
  158MOL0     H21761  12.015  11.083   6.665  2.6525  0.9893 -0.8670
  158MOL0     H21762  12.242  11.115   6.573 -0.5597 -3.6305  1.5088
  158MOL0     H21763  12.528  11.188   6.384 -1.1790  1.2323 -0.1019
  158MOL0     H21764  12.547  11.087   6.534  0.2871  2.1413  1.6369
  158MOL0     H21765  12.437  11.228   6.518  0.3509 -0.3789  0.8540
  158MOL0     H21766  12.799  10.723   6.247 -0.1524 -0.1693 -3.3026
  158MOL0     H21767  13.026  10.757   6.166  0.5801  1.2550 -0.8733
  158MOL0     H21768  13.129  11.109   5.960 -0.3307  0.9667  0.4218
  158MOL0     H21769  13.213  11.173   6.101 -1.2683  0.4886  1.2355
  158MOL0     H21770  13.380  11.127   5.938 -0.2743  1.0356  0.8012
  158MOL0     H21771  13.388  10.995   6.053 -1.5044  0.1114 -0.2976
  158MOL0     H21772  13.230  10.961   5.785 -1.9488 -0.8545 -0.5854
  158MOL0     H21773  13.224  10.867   5.924  0.1660  0.0916 -0.2093
  158MOL0     H21774  13.395  10.759   5.832  1.0043 -0.3494  0.5676
  158MOL0     H21775  13.507  10.876   5.883 -0.0435  0.3820  0.2653
  158MOL0     H21776  13.358  10.923   5.613 -0.4927 -1.7348 -1.2850
  158MOL0     H21777  13.503  11.005   5.677 -2.5313  2.0413 -4.3380
  158MOL0     H21778  13.502  10.733   5.561 -1.2868  0.0612  1.8569
  158MOL0     H21779  13.626  10.795   5.676  0.1894  1.3406  2.8314
  158MOL0     H21780  13.694  10.968   5.539 -0.7167  1.4726  0.5852
  158MOL0     H21781  13.554  10.957   5.427 -0.7620  0.6976  1.1541
  158MOL0     H21782  13.695  10.690   5.438 -2.9297  0.5723  1.6874
  158MOL0     H21783  13.812  10.834   5.444  0.3354  0.4322 -1.8943
  158MOL0     H21784  12.960  11.183   6.149  0.2493 -0.4612  0.3820
  158MOL0     H21785  12.744  11.154   6.232  1.8432  1.8736 -0.8041
  158MOL0     H21786  12.281  10.832   6.169 -2.0275 -0.0673 -1.1608
  158MOL0     H21787  12.070  10.859   6.275  1.1989 -0.8057  2.2168
  158MOL0     H21788  10.277  10.777   6.530 -2.2019 -1.3346  0.5712
  158MOL0     H21789  10.036  10.738   6.451 -1.6964 -0.6267 -1.8549
  158MOL0     H21790   9.744  10.679   6.319  1.0560  0.9173  0.8749
  158MOL0     H21791   9.536  10.586   6.295  1.5514 -1.4627 -1.6935
  158MOL0     H21792   9.394  10.474   6.185  1.0859  0.3465  0.4696
  158MOL0     H21793   9.310  10.561   6.315 -0.6014  3.2733 -0.9140
  158MOL0     H21794   9.220  10.365   6.189  3.2550  0.9427 -0.5848
  158MOL0     H21795   9.160  10.470   6.055 -0.5665 -0.5863 -0.0935
  158MOL0     H21796   9.099  10.499   6.345  3.5152  1.4101 -0.6514
  158MOL0     H21797   9.067  10.623   6.224  0.5081  0.5183  0.0118
  158MOL0     H21798   8.931  10.454   6.091  1.6467 -1.6855 -0.0623
  158MOL0     H21799   8.861  10.480   6.256  1.6039 -0.2055  1.8877
  158MOL0     H21800   8.951  10.081   6.305  1.8893  1.6544  2.0684
  158MOL0     H21801   9.426  10.864   5.982 -0.6754 -0.3997  0.4520
  158MOL0     H21802   9.642  11.097   6.048 -0.5460 -0.0594 -0.3058
  158MOL0     H21803   9.737  11.000   5.938  0.9009  0.2221  1.6535
  158MOL0     H21804   9.558  11.028   5.914  1.0616 -0.8305 -2.5242
  159MOL0     O21805   7.752   1.361   8.219  0.0982 -0.1119 -0.1883
  159MOL0     C21806   7.703   1.262   8.164 -0.8618  0.0197 -0.4502
  159MOL0     O21807   7.637   1.157   8.228  0.1386  1.1404  0.3884
  159MOL0     C21808   7.661   1.147   8.365  0.1067 -0.7099  0.1709
  159MOL0     C21809   7.738   1.042   8.417  0.0084 -0.0419 -0.6876
  159MOL0     C21810   7.769   1.038   8.557 -0.4451  0.2617 -0.6147
  159MOL0     C21811   7.727   1.142   8.648  0.0119 -0.3527  0.3201
  159MOL0     O21812   7.738   1.135   8.782 -0.2559  0.2566  0.5464
  159MOL0     C21813   7.876   1.139   8.832  0.3701  0.0534  0.5302
  159MOL0     C21814   7.904   1.280   8.882 -0.1802  0.4942 -0.6230
  159MOL0     C21815   7.996   1.290   8.997  0.3840  0.2272  0.2142
  159MOL0     C21816   8.020   1.436   9.041 -0.0269  0.7369  0.8352
  159MOL0     C21817   8.078   1.441   9.178 -0.7795 -0.3842  0.2654
  159MOL0     C21818   8.089   1.583   9.231 -0.8841  0.2540  0.1739
  159MOL0     C21819   8.158   1.577   9.378  0.2330  0.4014  1.0252
  159MOL0     C21820   8.243   1.703   9.412  0.1887 -0.7800  0.2044
  159MOL0     N21821   8.289   1.703   9.550  0.6351  0.0189 -0.9951
  159MOL0     C21822   8.213   1.753   9.652 -0.2943  0.2042 -0.3903
  159MOL0     C21823   8.280   1.713   9.761 -0.6681 -0.1190 -0.3678
  159MOL0     C21824   8.257   1.728   9.909  0.6293  0.2114 -0.1741
  159MOL0     C21825   8.271   1.870   9.971  0.0925  0.0546  0.6660
  159MOL0     C21826   8.242   1.873  10.120 -0.2559  0.2827 -0.5905
  159MOL0     C21827   8.261   2.013  10.184  0.2026 -0.5841  0.3799
  159MOL0     O21828   8.174   2.118  10.129 -0.2220 -0.1149  0.7211
  159MOL0     C21829   8.169   2.236  10.194  0.1336  1.0247  0.7738
  159MOL0     C21830   8.261   2.297  10.281 -0.6671  0.5851  0.1932
  159MOL0     C21831   8.241   2.422  10.339  1.1452  0.7172 -0.2898
  159MOL0     C21832   8.348   2.466  10.436 -0.1393 -0.2291  0.1857
  159MOL0     C21833   8.119   2.495  10.317 -0.5241  0.5592 -0.6971
  159MOL0     C21834   8.092   2.631  10.379  0.6610  0.8462 -0.0183
  159MOL0     O21835   7.959   2.682  10.364 -0.1820 -0.1226  0.9225
  159MOL0     C21836   7.926   2.808  10.409  0.2046  0.5160 -0.8294
  159MOL0     C21837   7.808   2.827  10.469  0.1336  0.0295 -0.6462
  159MOL0     C21838   7.770   2.952  10.529 -0.0742 -0.6467  0.6599
  159MOL0     C21839   7.860   3.065  10.521 -0.5272 -0.1145  0.5947
  159MOL0     O21840   7.824   3.195  10.564  0.1187  0.0359 -0.2270
  159MOL0     C21841   7.693   3.207  10.627 -0.4678  0.4022  0.1018
  159MOL0     C21842   7.640   3.357  10.627 -0.2762  0.6995 -0.6165
  159MOL0     C21843   7.731   3.450  10.708  0.2891 -0.2137  0.4312
  159MOL0     C21844   7.659   3.583  10.764 -0.5978  0.2069  0.5116
  159MOL0     C21845   7.754   3.670  10.849  0.2593 -0.4070  0.4922
  159MOL0     C21846   7.683   3.798  10.896 -0.1810 -0.1042 -0.0199
  159MOL0     C21847   7.676   3.904  10.786 -0.2097  0.3057  0.0437
  159MOL0     C21848   7.590   4.031  10.823  0.5935  0.2374 -0.7819
  159MOL0    Cl21849   7.654   4.131  10.952  0.0412  0.2875 -0.2581
  159MOL0     C21850   7.977   3.045  10.453  0.1744 -0.5113  0.2955
  159MOL0     C21851   8.014   2.919  10.401 -0.9428  0.3290  0.2492
  159MOL0     O21852   8.185   2.688  10.439  0.0692  0.3626 -0.2282
  159MOL0     C21853   8.023   2.428  10.236 -0.1231  0.3212 -0.0762
  159MOL0     C21854   8.048   2.304  10.178  0.2481 -0.6826 -0.6235
  159MOL0     N21855   8.395   1.635   9.723 -0.1670  0.3187 -0.0987
  159MOL0     N21856   8.397   1.638   9.591 -0.0246 -0.5295 -0.9397
  159MOL0     C21857   7.650   1.247   8.593  0.3556  0.0935  0.5801
  159MOL0     C21858   7.613   1.251   8.453  0.2915 -0.3103  0.3002
  159MOL0     C21859   7.701   1.248   8.009 -0.3192 -0.5123  0.2206
  159MOL0     C21860   7.641   1.137   7.950 -0.1873 -0.2350  0.2380
  159MOL0     C21861   7.611   1.134   7.813 -0.4986  0.4831 -0.4210
  159MOL0     C21862   7.653   1.237   7.726  1.1509  0.7268 -0.2611
  159MOL0     O21863   7.635   1.228   7.588 -0.3379 -0.0274  0.4633
  159MOL0     C21864   7.548   1.120   7.538  0.0211 -0.3931 -0.0360
  159MOL0     C21865   7.531   1.152   7.391  0.3849 -0.4116  0.1783
  159MOL0     C21866   7.432   1.049   7.328  0.3890  0.0978  0.3217
  159MOL0     C21867   7.297   1.058   7.395 -0.1280  0.0087  0.1177
  159MOL0     C21868   7.202   0.967   7.330  0.5986 -0.3971  0.6942
  159MOL0     C21869   7.128   0.889   7.273  0.1606 -0.4190  0.0684
  159MOL0     C21870   7.726   1.341   7.779 -0.1855  0.6341 -0.1995
  159MOL0     C21871   7.753   1.348   7.916  0.2978 -0.0154  0.4290
  159MOL0     C21872   7.828   1.474   7.950 -0.3882  0.4154  0.2669
  159MOL0     H21873   7.759   0.966   8.343 -0.4422 -1.0301  0.1755
  159MOL0     H21874   7.833   0.960   8.597  0.8914  1.6237 -0.0111
  159MOL0     H21875   7.943   1.122   8.747  2.3619  0.1887  2.0161
  159MOL0     H21876   7.903   1.071   8.913  0.5081  0.2255  0.6279
  159MOL0     H21877   7.950   1.342   8.804 -0.8348  4.0974  1.6308
  159MOL0     H21878   7.812   1.332   8.912  0.4449  1.3645 -0.1722
  159MOL0     H21879   7.944   1.235   9.075 -3.0706  1.5507 -0.9775
  159MOL0     H21880   8.086   1.237   8.965  0.9642  2.5529 -2.4893
  159MOL0     H21881   8.090   1.480   8.969 -0.3704 -2.7856 -1.9410
  159MOL0     H21882   7.925   1.490   9.045 -2.1319 -2.7343  1.6322
  159MOL0     H21883   8.168   1.377   9.182 -0.5988 -0.1266  0.4081
  159MOL0     H21884   8.019   1.387   9.253  0.7651 -1.2517  0.9195
  159MOL0     H21885   8.152   1.633   9.156 -1.1623  0.9968  0.4238
  159MOL0     H21886   7.993   1.634   9.243 -1.1320  0.3298 -1.7167
  159MOL0     H21887   8.229   1.494   9.390  2.5325  1.7203 -2.0265
  159MOL0     H21888   8.071   1.579   9.443  0.1182  0.2322  0.8756
  159MOL0     H21889   8.331   1.714   9.349  0.0076  0.8290  0.2054
  159MOL0     H21890   8.186   1.795   9.397  1.4636  0.3760  2.0520
  159MOL0     H21891   8.114   1.793   9.637  0.1514  0.4532 -3.3569
  159MOL0     H21892   8.320   1.659   9.966 -1.2607 -1.5280 -0.0594
  159MOL0     H21893   8.157   1.688   9.928  1.4089 -2.6281 -1.4542
  159MOL0     H21894   8.377   1.895   9.956  0.9642 -1.8944  2.9205
  159MOL0     H21895   8.202   1.935   9.917 -1.4610 -2.0619 -0.0213
  159MOL0     H21896   8.137   1.844  10.134 -0.3905  0.5479 -1.0220
  159MOL0     H21897   8.306   1.806  10.178 -2.1542 -2.3931 -1.3807
  159MOL0     H21898   8.247   2.006  10.293 -1.3956 -0.4628  0.2027
  159MOL0     H21899   8.360   2.049  10.157 -0.6006  1.2817 -0.2745
  159MOL0     H21900   8.359   2.252  10.285 -0.3592  0.5109 -3.8304
  159MOL0     H21901   8.392   2.561  10.402  2.5121 -0.5556  2.3196
  159MOL0     H21902   8.425   2.389  10.449 -0.0895  0.0431  1.7215
  159MOL0     H21903   8.308   2.489  10.535  0.9383  0.9945  0.3716
  159MOL0     H21904   7.744   2.739  10.471  0.5641 -0.2650  0.7647
  159MOL0     H21905   7.670   2.957  10.570  0.0216  1.3785  0.7355
  159MOL0     H21906   7.613   3.157  10.573 -1.5626  0.7493  1.3549
  159MOL0     H21907   7.697   3.165  10.728 -2.1840  1.7835  0.7920
  159MOL0     H21908   7.641   3.388  10.522  2.3467  0.9218 -0.5784
  159MOL0     H21909   7.537   3.363  10.666 -0.8557  0.6400 -2.0647
  159MOL0     H21910   7.823   3.477  10.656  2.3752  0.6436  4.2240
  159MOL0     H21911   7.760   3.399  10.801 -1.3308  1.8996  2.2144
  159MOL0     H21912   7.570   3.547  10.817  0.2033 -2.9368 -0.0871
  159MOL0     H21913   7.632   3.641  10.676 -0.3405 -0.5548 -0.0797
  159MOL0     H21914   7.786   3.615  10.938 -0.3040 -2.4029 -0.4666
  159MOL0     H21915   7.842   3.690  10.786  1.0847 -1.2846  1.3304
  159MOL0     H21916   7.732   3.832  10.988 -1.8849 -0.8570  1.2349
  159MOL0     H21917   7.581   3.767  10.924  0.8545 -2.6991  1.2579
  159MOL0     H21918   7.635   3.855  10.697  0.6560 -2.1003  0.8676
  159MOL0     H21919   7.774   3.942  10.757 -0.8108  0.7697 -1.4727
  159MOL0     H21920   7.493   3.994  10.856  1.2382 -0.3751  0.4797
  159MOL0     H21921   7.581   4.105  10.743 -0.7337  0.0584 -0.8214
  159MOL0     H21922   8.041   3.131  10.433 -3.0585  1.8109 -0.9138
  159MOL0     H21923   8.100   2.912  10.335  0.0914  4.3151  0.8853
  159MOL0     H21924   7.931   2.480  10.209  0.7848  2.1128  0.1106
  159MOL0     H21925   7.975   2.258  10.113 -1.4369 -0.9865  1.3732
  159MOL0     H21926   7.622   1.330   8.656  3.8067  1.4651  0.5071
  159MOL0     H21927   7.544   1.323   8.410 -0.6562 -0.6676  1.1737
  159MOL0     H21928   7.613   1.053   8.012  1.7509  0.0620  1.6186
  159MOL0     H21929   7.568   1.038   7.786  1.7671 -0.7242 -0.0002
  159MOL0     H21930   7.596   1.022   7.547 -2.4719 -1.7326 -0.4632
  159MOL0     H21931   7.455   1.125   7.595 -0.8417 -0.0385 -1.4289
  159MOL0     H21932   7.629   1.138   7.344  1.0196  2.8400  0.2949
  159MOL0     H21933   7.503   1.257   7.378 -0.4195 -0.6355  0.0722
  159MOL0     H21934   7.424   1.073   7.221  1.4607 -0.1027  0.1817
  159MOL0     H21935   7.471   0.947   7.336 -3.1317 -1.5542 -1.3885
  159MOL0     H21936   7.265   1.162   7.393 -3.4974 -0.8810 -2.7715
  159MOL0     H21937   7.313   1.025   7.498  1.6342 -2.2665 -0.8026
  159MOL0     H21938   7.053   0.831   7.223 -2.3638  1.8184  0.9650
  159MOL0     H21939   7.764   1.414   7.708  3.3380 -2.1696 -1.4697
  159MOL0     H21940   7.787   1.535   8.031  2.2596  0.8689  1.3699
  159MOL0     H21941   7.929   1.438   7.974 -1.3684 -0.9132  2.7815
  159MOL0     H21942   7.840   1.537   7.861  0.6061 -0.0631  0.0404
  160MOL0     O21943   2.802   7.166   6.885  0.2507  0.5668  0.0996
  160MOL0     C21944   2.723   7.093   6.949 -0.1671 -0.0031 -0.2547
  160MOL0     O21945   2.755   7.003   7.043  0.1844 -0.6822 -0.2414
  160MOL0     C21946   2.876   6.932   7.050  0.0562 -0.5196  0.0446
  160MOL0     C21947   2.969   6.908   6.948  0.9057 -0.4511  0.6090
  160MOL0     C21948   3.092   6.850   6.980 -0.0636  0.9281 -0.6668
  160MOL0     C21949   3.126   6.816   7.117 -0.6455 -0.1761  1.0143
  160MOL0     O21950   3.231   6.737   7.146 -0.2944  0.5429 -0.6481
  160MOL0     C21951   3.343   6.721   7.049 -0.3110  0.2545 -0.0208
  160MOL0     C21952   3.462   6.661   7.125 -0.3859 -1.2165  0.5458
  160MOL0     C21953   3.571   6.622   7.013  0.0919 -0.0061  0.1653
  160MOL0     C21954   3.654   6.741   6.967 -0.6963  0.4185 -0.2063
  160MOL0     C21955   3.765   6.707   6.873 -0.0051 -0.3912  0.2269
  160MOL0     C21956   3.731   6.737   6.732 -0.6395  0.3281  0.1164
  160MOL0     C21957   3.841   6.690   6.634  0.6526 -0.2664  0.3449
  160MOL0     C21958   3.959   6.790   6.637 -0.3942  0.1312  0.5625
  160MOL0     N21959   4.068   6.729   6.557  0.1122 -0.1239  0.3686
  160MOL0     C21960   4.177   6.668   6.609 -0.2473 -0.4127  0.0898
  160MOL0     C21961   4.259   6.640   6.503 -0.2503 -0.2122  0.6748
  160MOL0     C21962   4.393   6.575   6.524 -1.2940 -0.5792  0.0293
  160MOL0     C21963   4.459   6.534   6.391 -0.5824 -0.4736 -0.0040
  160MOL0     C21964   4.607   6.516   6.411  0.4802  0.8892 -0.3701
  160MOL0     C21965   4.668   6.447   6.288  0.3145 -0.0731  0.0388
  160MOL0     O21966   4.813   6.462   6.280  0.2119  0.0445  0.1861
  160MOL0     C21967   4.879   6.451   6.164  0.0592 -0.0268  0.5718
  160MOL0     C21968   4.821   6.403   6.047  0.4480  0.0648  0.2434
  160MOL0     C21969   4.880   6.402   5.924  0.2723  0.4364 -0.2612
  160MOL0     C21970   4.790   6.376   5.810  0.4011  0.8511  0.4948
  160MOL0     C21971   5.025   6.404   5.924 -0.1140  0.0837  0.0847
  160MOL0     C21972   5.108   6.366   5.807 -0.5106 -0.1033 -0.3599
  160MOL0     O21973   5.248   6.374   5.821  0.0270 -0.3737  0.1870
  160MOL0     C21974   5.320   6.313   5.725 -0.3703  1.1946 -0.5006
  160MOL0     C21975   5.385   6.392   5.633  0.3940 -0.6588 -0.0442
  160MOL0     C21976   5.468   6.345   5.534 -0.1095 -0.1620 -0.0038
  160MOL0     C21977   5.498   6.217   5.529  0.1033  0.1977 -0.4701
  160MOL0     O21978   5.589   6.170   5.437  0.4356 -0.0837 -0.2264
  160MOL0     C21979   5.692   6.252   5.383 -0.8883  0.1801 -0.3665
  160MOL0     C21980   5.811   6.156   5.365  0.2400  0.0031 -0.2678
  160MOL0     C21981   5.921   6.229   5.286  0.4411 -0.7454  0.1101
  160MOL0     C21982   6.019   6.122   5.260 -0.9102 -0.1386  0.4921
  160MOL0     C21983   6.154   6.159   5.209 -0.5538 -0.1898 -0.0109
  160MOL0     C21984   6.226   6.064   5.113 -1.3687  1.0894 -0.2395
  160MOL0     C21985   6.355   6.134   5.065  0.0274  0.3465 -0.5214
  160MOL0     C21986   6.391   6.124   4.918 -0.6815  0.6836  0.0028
  160MOL0    Cl21987   6.554   6.172   4.896  0.0455  0.0733 -0.1027
  160MOL0     C21988   5.437   6.131   5.615  0.8987  0.3171 -0.0724
  160MOL0     C21989   5.344   6.172   5.717  0.6959 -0.0874 -0.1481
  160MOL0     O21990   5.050   6.331   5.704 -0.7106 -0.0384 -0.0411
  160MOL0     C21991   5.089   6.431   6.047 -0.3300 -0.6357 -0.0026
  160MOL0     C21992   5.014   6.457   6.166 -0.3472 -0.6912  0.5295
  160MOL0     N21993   4.196   6.684   6.387  0.0868  0.1924 -0.4590
  160MOL0     N21994   4.084   6.741   6.419 -0.1243  0.5385 -0.6911
  160MOL0     C21995   3.035   6.842   7.213 -0.2297 -0.8103  0.0504
  160MOL0     C21996   2.909   6.897   7.182  0.3226 -0.5989 -0.7787
  160MOL0     C21997   2.577   7.107   6.916  0.6951  0.0421 -0.1398
  160MOL0     C21998   2.492   6.996   6.936 -0.0969  0.7695  0.0710
  160MOL0     C21999   2.354   6.997   6.900  0.5482 -0.0350  0.7424
  160MOL0     C22000   2.291   7.116   6.866  0.4737 -0.0237 -0.1759
  160MOL0     O22001   2.155   7.110   6.843  0.2134  0.3163 -0.2685
  160MOL0     C22002   2.079   7.223   6.866  0.1613 -0.2945  0.4394
  160MOL0     C22003   1.943   7.199   6.798  0.2603  0.0996 -0.0700
  160MOL0     C22004   1.940   7.182   6.651  0.3044  0.3459 -0.1941
  160MOL0     C22005   1.800   7.215   6.593  0.7858 -0.0717  0.4849
  160MOL0     C22006   1.700   7.105   6.637  0.1378  0.1015  0.2623
  160MOL0     C22007   1.623   7.020   6.677 -0.4768 -0.0500  0.0780
  160MOL0     C22008   2.376   7.228   6.851  0.6580  0.0898 -0.1647
  160MOL0     C22009   2.514   7.228   6.878 -0.3053 -0.0700  0.5972
  160MOL0     C22010   2.589   7.358   6.852 -0.6554  0.5798  0.4742
  160MOL0     H22011   2.951   6.937   6.845 -0.4323 -0.0535  0.9339
  160MOL0     H22012   3.165   6.823   6.905  0.9753  0.2454  0.5433
  160MOL0     H22013   3.375   6.815   7.004 -0.5504  1.2283  1.7726
  160MOL0     H22014   3.310   6.647   6.974 -1.3526 -0.8738  1.4753
  160MOL0     H22015   3.509   6.739   7.185 -0.7607 -2.2640  2.2637
  160MOL0     H22016   3.433   6.583   7.195 -0.5411 -1.0496  0.6674
  160MOL0     H22017   3.637   6.544   7.051 -0.0018 -1.7518 -2.9941
  160MOL0     H22018   3.521   6.572   6.930  1.2909  0.9157 -1.1597
  160MOL0     H22019   3.584   6.821   6.940 -1.5186  0.2003  1.1889
  160MOL0     H22020   3.701   6.780   7.058 -0.0673 -0.0248 -0.3349
  160MOL0     H22021   3.789   6.601   6.885  0.5682 -0.0157  2.8029
  160MOL0     H22022   3.848   6.766   6.913 -0.0983 -0.1846  0.1133
  160MOL0     H22023   3.643   6.677   6.706 -0.3463 -0.5231  1.0503
  160MOL0     H22024   3.712   6.843   6.716 -1.2183  0.4700  1.5792
  160MOL0     H22025   3.798   6.700   6.533 -1.5003  0.2109  1.2511
  160MOL0     H22026   3.877   6.588   6.649  0.4898 -0.5336 -0.9037
  160MOL0     H22027   3.930   6.894   6.619  0.9782  0.7410  1.6329
  160MOL0     H22028   3.999   6.791   6.739 -2.1016 -0.8575  1.2843
  160MOL0     H22029   4.197   6.662   6.715 -1.5605  0.1685  0.3900
  160MOL0     H22030   4.383   6.492   6.595 -1.6782 -0.2546  0.3606
  160MOL0     H22031   4.468   6.643   6.564  0.1379 -2.0683 -0.0122
  160MOL0     H22032   4.421   6.444   6.342  1.5498 -2.8298  2.4067
  160MOL0     H22033   4.449   6.611   6.314 -1.6900 -0.6387 -0.0482
  160MOL0     H22034   4.661   6.610   6.425  1.0797  0.4326  0.4880
  160MOL0     H22035   4.622   6.455   6.500  0.0896  1.0202 -0.2150
  160MOL0     H22036   4.631   6.345   6.295 -2.2525  0.7608 -0.4489
  160MOL0     H22037   4.624   6.496   6.201 -0.3311 -2.3677 -0.9818
  160MOL0     H22038   4.713   6.392   6.038  0.5137  0.6265 -1.7016
  160MOL0     H22039   4.685   6.396   5.829 -0.7237 -2.2573 -1.6790
  160MOL0     H22040   4.801   6.271   5.782  0.2243  0.8122  0.5738
  160MOL0     H22041   4.823   6.442   5.729  0.3890  2.4708  1.7544
  160MOL0     H22042   5.362   6.496   5.615  0.6845 -0.0788  2.5372
  160MOL0     H22043   5.513   6.415   5.464  1.1415  0.1242  1.0654
  160MOL0     H22044   5.669   6.311   5.294 -0.7532  0.5276 -0.1755
  160MOL0     H22045   5.723   6.323   5.461  0.6886  0.1543 -0.9238
  160MOL0     H22046   5.849   6.126   5.463 -2.3946 -0.4394  0.7078
  160MOL0     H22047   5.780   6.065   5.313 -1.4685  1.3923 -1.8078
  160MOL0     H22048   5.966   6.314   5.338  0.2173 -1.0989  0.8978
  160MOL0     H22049   5.879   6.272   5.195 -1.3542  0.8464  1.6194
  160MOL0     H22050   5.976   6.064   5.177  1.0918  2.4856 -2.6150
  160MOL0     H22051   6.039   6.069   5.353 -0.1320 -0.1577  0.3165
  160MOL0     H22052   6.145   6.258   5.162  2.7630  1.1670  1.8667
  160MOL0     H22053   6.215   6.174   5.298 -1.0227  0.5938  0.1884
  160MOL0     H22054   6.156   6.028   5.037 -0.9797 -1.2846  0.4335
  160MOL0     H22055   6.252   5.977   5.175  0.9074  3.3549  2.2299
  160MOL0     H22056   6.438   6.090   5.120  0.1686 -2.5296 -2.7699
  160MOL0     H22057   6.349   6.240   5.089 -2.6287 -0.4914  3.4719
  160MOL0     H22058   6.320   6.172   4.849  0.7236  0.7006 -1.5169
  160MOL0     H22059   6.372   6.020   4.890  1.1652 -0.0971  1.4675
  160MOL0     H22060   5.443   6.025   5.590  1.8297  0.5299 -0.8275
  160MOL0     H22061   5.294   6.093   5.772  3.0834 -2.1398 -0.7475
  160MOL0     H22062   5.197   6.430   6.056 -0.1173  1.1665 -1.6416
  160MOL0     H22063   5.065   6.469   6.261 -0.5667 -2.6564  0.9331
  160MOL0     H22064   3.056   6.799   7.311  1.7233 -0.4486 -0.1723
  160MOL0     H22065   2.843   6.924   7.264  0.0604 -1.9757 -0.4993
  160MOL0     H22066   2.541   6.906   6.971  0.0080  0.4717 -0.7977
  160MOL0     H22067   2.295   6.909   6.921  2.9600 -2.5869 -2.2298
  160MOL0     H22068   2.085   7.249   6.972  0.5442  0.0348  0.3419
  160MOL0     H22069   2.125   7.311   6.819  0.4898 -0.7907 -0.1956
  160MOL0     H22070   1.878   7.285   6.817  1.4901  0.9871  0.2479
  160MOL0     H22071   1.895   7.116   6.850 -3.2650  2.4024  0.7755
  160MOL0     H22072   2.003   7.261   6.608  1.0094 -0.5649 -0.8861
  160MOL0     H22073   1.972   7.078   6.636 -1.7787 -1.7320  6.5308
  160MOL0     H22074   1.802   7.218   6.484 -0.9595  1.0988  0.4473
  160MOL0     H22075   1.763   7.316   6.614 -1.6332 -0.3591 -1.8445
  160MOL0     H22076   1.560   6.937   6.701 -0.0924 -0.9184 -1.7270
  160MOL0     H22077   2.328   7.320   6.818 -0.8004 -0.5198  0.1464
  160MOL0     H22078   2.653   7.347   6.763  0.0957  0.2647  1.0448
  160MOL0     H22079   2.535   7.451   6.833 -0.1808  0.5714 -1.1081
  160MOL0     H22080   2.658   7.374   6.935  1.5128 -1.8098 -0.7387
  161MOL0     O22081   4.573   2.255   2.475  0.1994 -0.9495 -0.1548
  161MOL0     C22082   4.583   2.372   2.519 -0.1411 -0.0171 -0.2726
  161MOL0     O22083   4.668   2.467   2.473  0.0927 -0.2122 -0.1993
  161MOL0     C22084   4.769   2.428   2.397  0.6583  0.4458 -0.2415
  161MOL0     C22085   4.774   2.462   2.270  0.4231 -0.5173  0.2249
  161MOL0     C22086   4.886   2.443   2.188  0.4750  0.7586  0.3959
  161MOL0     C22087   4.999   2.374   2.243 -0.1751 -0.4580 -0.3061
  161MOL0     O22088   5.119   2.355   2.179  0.0247  0.5678 -0.2914
  161MOL0     C22089   5.138   2.371   2.036 -0.1494 -0.9240 -0.3721
  161MOL0     C22090   5.257   2.292   1.974 -0.4423 -0.0807  0.6930
  161MOL0     C22091   5.387   2.383   1.975 -0.4915 -0.0244  0.3420
  161MOL0     C22092   5.453   2.391   2.107  1.0031 -0.6693 -0.9507
  161MOL0     C22093   5.578   2.478   2.081 -0.2961  0.0668 -0.2981
  161MOL0     C22094   5.657   2.516   2.207 -0.1637 -0.2926  0.3676
  161MOL0     C22095   5.698   2.401   2.292 -0.4835  0.6677 -0.0033
  161MOL0     C22096   5.786   2.460   2.409  0.8932  0.1336  0.0616
  161MOL0     N22097   5.923   2.470   2.356 -0.1512 -0.1977 -0.1917
  161MOL0     C22098   6.007   2.363   2.326  0.5829  0.9032  0.2499
  161MOL0     C22099   6.126   2.420   2.304  0.5042  0.1173  0.6104
  161MOL0     C22100   6.240   2.328   2.259  0.5413 -0.9256  0.0595
  161MOL0     C22101   6.374   2.358   2.334  0.7864 -0.1576  1.0929
  161MOL0     C22102   6.483   2.269   2.279 -0.0778  0.4628 -0.6319
  161MOL0     C22103   6.623   2.293   2.326 -0.2578 -0.2121 -0.0789
  161MOL0     O22104   6.616   2.277   2.469  0.0659 -1.0241 -0.2445
  161MOL0     C22105   6.738   2.276   2.534 -0.5133 -0.7820  0.3421
  161MOL0     C22106   6.863   2.317   2.474 -0.4343 -0.8609  0.0116
  161MOL0     C22107   6.982   2.316   2.540 -0.1746 -0.5097 -0.3896
  161MOL0     C22108   7.105   2.350   2.468  0.5096  0.4190  0.8286
  161MOL0     C22109   6.991   2.279   2.681 -0.9852 -0.1092 -0.0273
  161MOL0     C22110   7.119   2.289   2.764 -0.2046 -0.7132 -1.3465
  161MOL0     O22111   7.240   2.328   2.705  0.1600 -0.6946 -0.0883
  161MOL0     C22112   7.347   2.342   2.778 -0.6094  0.7712 -0.4198
  161MOL0     C22113   7.466   2.282   2.737 -0.0299 -0.1046 -0.1723
  161MOL0     C22114   7.588   2.305   2.798  0.0288 -0.2326 -0.1308
  161MOL0     C22115   7.594   2.395   2.906  0.8930  0.5497 -0.8921
  161MOL0     O22116   7.721   2.412   2.964  0.7479 -0.0777 -0.0838
  161MOL0     C22117   7.759   2.543   2.991 -0.2587  0.3461  0.6788
  161MOL0     C22118   7.902   2.575   2.946 -0.0705 -1.2422 -0.9082
  161MOL0     C22119   7.926   2.541   2.794  0.4209  0.1020  0.0200
  161MOL0     C22120   8.050   2.618   2.732 -0.2632  0.1535 -0.0237
  161MOL0     C22121   8.042   2.603   2.579 -0.3892  0.0661 -0.5784
  161MOL0     C22122   7.939   2.695   2.518  0.2196  0.0117 -0.3721
  161MOL0     C22123   8.004   2.836   2.497  0.7287 -0.9091  0.1383
  161MOL0     C22124   7.920   2.933   2.410  0.2491 -0.3247 -0.3974
  161MOL0    Cl22125   7.744   2.937   2.467  0.3432 -0.3885  0.3727
  161MOL0     C22126   7.474   2.457   2.955 -0.2954 -0.1721  0.7436
  161MOL0     C22127   7.353   2.424   2.888  0.6583 -0.5205 -0.7341
  161MOL0     O22128   7.110   2.265   2.882  0.0079 -0.2705 -0.0325
  161MOL0     C22129   6.870   2.239   2.738 -0.4835  0.2204  0.0425
  161MOL0     C22130   6.744   2.239   2.669  0.1633  0.3289  0.2927
  161MOL0     N22131   6.111   2.565   2.300 -0.3469  1.1511  0.1417
  161MOL0     N22132   5.991   2.583   2.340  0.3121 -0.5576 -0.8230
  161MOL0     C22133   4.990   2.337   2.379  0.4885 -0.1821  0.5237
  161MOL0     C22134   4.883   2.365   2.455 -0.6068  0.1927 -0.1893
  161MOL0     C22135   4.487   2.418   2.619 -0.0913 -0.1112 -0.0113
  161MOL0     C22136   4.532   2.422   2.752 -0.0478 -0.3614 -0.0205
  161MOL0     C22137   4.437   2.452   2.857 -0.2918  0.7124 -0.5941
  161MOL0     C22138   4.297   2.454   2.824  0.8829  0.0842 -0.6293
  161MOL0     O22139   4.193   2.475   2.911 -0.3511 -0.4936 -0.2493
  161MOL0     C22140   4.175   2.367   2.997 -0.6425  0.3216 -0.7699
  161MOL0     C22141   4.025   2.354   3.040 -0.2791  0.4612 -0.0746
  161MOL0     C22142   3.913   2.336   2.929 -0.5076 -0.6932 -0.0796
  161MOL0     C22143   3.875   2.469   2.852  0.1453 -0.1777  0.1806
  161MOL0     C22144   3.797   2.437   2.736 -0.3674 -0.5853 -0.2966
  161MOL0     C22145   3.724   2.412   2.646 -0.7153 -0.0691 -0.2520
  161MOL0     C22146   4.259   2.443   2.695  0.1881 -0.2782  0.4697
  161MOL0     C22147   4.354   2.427   2.589  0.2382 -0.0651  0.3707
  161MOL0     C22148   4.296   2.432   2.453  0.1078  0.3367 -0.5818
  161MOL0     H22149   4.677   2.496   2.234  0.2240  1.2608  2.2795
  161MOL0     H22150   4.894   2.478   2.085  1.7258  0.1758  0.2725
  161MOL0     H22151   5.131   2.477   2.010 -2.6848 -0.9641 -0.1276
  161MOL0     H22152   5.047   2.331   1.991 -1.0328  1.2026 -0.6307
  161MOL0     H22153   5.261   2.192   2.019 -1.3875 -0.5094 -0.1504
  161MOL0     H22154   5.245   2.267   1.868  0.6426  0.1910  0.4888
  161MOL0     H22155   5.462   2.338   1.909 -0.8050  0.6038 -0.4716
  161MOL0     H22156   5.356   2.477   1.929 -0.0165 -0.2779 -0.5333
  161MOL0     H22157   5.391   2.443   2.181  1.5550 -1.1209 -0.1545
  161MOL0     H22158   5.481   2.292   2.143 -0.4950 -0.3045  1.4469
  161MOL0     H22159   5.565   2.574   2.030 -1.1239  0.6547  0.9590
  161MOL0     H22160   5.640   2.416   2.016 -1.3116 -0.4119 -0.8237
  161MOL0     H22161   5.742   2.581   2.188 -0.7419 -0.1430 -1.9573
  161MOL0     H22162   5.586   2.572   2.269  1.1959 -0.7781  2.4826
  161MOL0     H22163   5.751   2.326   2.232 -1.6180  0.8763 -1.3088
  161MOL0     H22164   5.608   2.358   2.338  0.5336  1.0040  2.4518
  161MOL0     H22165   5.753   2.556   2.450 -3.1827  0.5785 -3.5834
  161MOL0     H22166   5.770   2.389   2.490 -3.9131  1.5516  0.6504
  161MOL0     H22167   5.993   2.256   2.326  1.1147  0.8330  0.1752
  161MOL0     H22168   6.248   2.350   2.152  0.8765 -1.3053  0.0034
  161MOL0     H22169   6.207   2.224   2.266 -2.4794 -0.0070  0.9057
  161MOL0     H22170   6.402   2.463   2.321  0.2605 -0.1957 -0.4487
  161MOL0     H22171   6.368   2.342   2.442  0.7028  0.8184  1.2470
  161MOL0     H22172   6.462   2.170   2.319 -0.7414  0.5899 -0.6646
  161MOL0     H22173   6.477   2.272   2.170 -2.0391 -0.0706 -0.5700
  161MOL0     H22174   6.692   2.223   2.278 -2.7332 -3.8256  1.1865
  161MOL0     H22175   6.661   2.393   2.305  1.3360 -1.1865 -2.2043
  161MOL0     H22176   6.858   2.371   2.380 -1.6385 -0.1753  0.4341
  161MOL0     H22177   7.159   2.434   2.514 -0.9086  0.8659  1.7286
  161MOL0     H22178   7.076   2.385   2.368  1.7900  2.2837  1.0540
  161MOL0     H22179   7.173   2.265   2.462 -1.6554 -1.3047 -0.6752
  161MOL0     H22180   7.467   2.218   2.649 -1.8415 -1.6102  0.8184
  161MOL0     H22181   7.683   2.269   2.760 -0.2157  0.6896 -1.6771
  161MOL0     H22182   7.698   2.618   2.941  2.5448  1.7924 -0.7955
  161MOL0     H22183   7.751   2.545   3.100  0.6932 -3.9818  0.9973
  161MOL0     H22184   7.911   2.681   2.970 -0.9269 -1.1429 -0.9956
  161MOL0     H22185   7.970   2.508   3.000  0.7428 -0.2063 -0.6109
  161MOL0     H22186   7.833   2.585   2.758 -0.8559  2.7078  5.4848
  161MOL0     H22187   7.916   2.435   2.767 -1.4140  0.3657 -0.4877
  161MOL0     H22188   8.138   2.563   2.765 -0.0523 -1.6104 -3.1080
  161MOL0     H22189   8.045   2.722   2.766 -1.2475 -0.4595  1.8409
  161MOL0     H22190   8.142   2.615   2.537 -0.3025 -0.7236 -0.6100
  161MOL0     H22191   8.009   2.502   2.555  1.1693 -0.9014  1.1920
  161MOL0     H22192   7.856   2.703   2.589  0.7506  0.3755  0.2111
  161MOL0     H22193   7.909   2.653   2.422  1.1830 -0.7026 -0.3763
  161MOL0     H22194   8.099   2.823   2.445 -0.1056  1.0300 -2.0462
  161MOL0     H22195   8.027   2.892   2.588 -3.2283  5.5361 -2.1087
  161MOL0     H22196   7.925   2.912   2.302  0.1926  0.4810 -0.5643
  161MOL0     H22197   7.972   3.030   2.408  4.1162 -2.2368 -0.7837
  161MOL0     H22198   7.465   2.529   3.036 -1.8493  0.7867 -0.2276
  161MOL0     H22199   7.264   2.479   2.915  0.0221 -1.3235 -1.1744
  161MOL0     H22200   6.866   2.194   2.837  2.0456 -2.0703 -0.7870
  161MOL0     H22201   6.666   2.218   2.742  1.7700 -1.4602  1.6128
  161MOL0     H22202   5.074   2.286   2.424  0.6167 -0.8765 -0.4608
  161MOL0     H22203   4.895   2.337   2.559  1.1473  0.6079 -0.2459
  161MOL0     H22204   4.639   2.411   2.768 -0.1012 -0.5169  0.2431
  161MOL0     H22205   4.471   2.454   2.960  0.7288 -1.0225 -0.8621
  161MOL0     H22206   4.200   2.274   2.944 -2.8602 -0.6829 -0.1699
  161MOL0     H22207   4.244   2.376   3.082  0.1461 -4.0031 -0.6993
  161MOL0     H22208   4.010   2.446   3.098 -1.6244 -0.1385  0.5901
  161MOL0     H22209   4.021   2.268   3.107 -1.8260  0.5122 -0.0643
  161MOL0     H22210   3.935   2.253   2.861 -0.8555 -0.3455 -0.6229
  161MOL0     H22211   3.822   2.308   2.981 -2.6106  2.7661 -1.5682
  161MOL0     H22212   3.964   2.522   2.814  0.2563 -0.1043  0.5356
  161MOL0     H22213   3.831   2.549   2.913 -0.0150  0.2913 -0.5398
  161MOL0     H22214   3.677   2.366   2.561  3.2742 -2.0096 -1.6139
  161MOL0     H22215   4.158   2.456   2.656  0.0158 -2.0447  0.2253
  161MOL0     H22216   4.304   2.332   2.408 -3.0030  0.3742 -1.4429
  161MOL0     H22217   4.192   2.461   2.437  0.2027 -0.0980 -2.1985
  161MOL0     H22218   4.356   2.504   2.397 -0.7568  0.5389 -1.2747
  162MOL0     O22219   0.442   0.756   7.616 -0.2480 -0.1801 -0.6558
  162MOL0     C22220   0.478   0.660   7.682 -0.1542 -0.6320  0.1228
  162MOL0     O22221   0.597   0.664   7.742 -0.9315  0.7579  0.2711
  162MOL0     C22222   0.696   0.749   7.693 -0.3189  0.4599  0.2030
  162MOL0     C22223   0.826   0.701   7.655  0.2813  0.0720  0.1433
  162MOL0     C22224   0.918   0.792   7.600 -0.3751  0.1572  1.3352
  162MOL0     C22225   0.894   0.932   7.588  0.6623  0.2952  0.1836
  162MOL0     O22226   0.989   1.022   7.546 -0.5451  0.1476  0.3254
  162MOL0     C22227   1.061   1.092   7.651 -1.6534  0.4344  0.3919
  162MOL0     C22228   1.147   1.203   7.595  0.3216 -0.2671 -0.1891
  162MOL0     C22229   1.253   1.154   7.495 -0.3190  0.9156 -0.1629
  162MOL0     C22230   1.330   1.274   7.438  0.0711 -0.2871  0.1753
  162MOL0     C22231   1.475   1.252   7.485 -1.0789 -0.1035  0.0209
  162MOL0     C22232   1.582   1.369   7.473 -0.4275  0.0720  0.1607
  162MOL0     C22233   1.726   1.316   7.504 -0.5348  0.0495 -0.3548
  162MOL0     C22234   1.800   1.265   7.373  0.4491 -0.3058 -0.6763
  162MOL0     N22235   1.921   1.208   7.410  0.7111 -0.1472 -0.2121
  162MOL0     C22236   2.035   1.277   7.433  0.1669 -0.4847 -0.0108
  162MOL0     C22237   2.124   1.192   7.483  1.1935 -0.2007 -0.0473
  162MOL0     C22238   2.266   1.225   7.515 -0.1460 -0.3319  0.0049
  162MOL0     C22239   2.346   1.095   7.518  0.5479 -0.3181 -0.1916
  162MOL0     C22240   2.487   1.105   7.577 -0.2664 -0.6194  0.2796
  162MOL0     C22241   2.586   1.177   7.483  0.2977 -0.2072  0.4782
  162MOL0     O22242   2.714   1.170   7.537 -0.0910 -0.1215 -0.5690
  162MOL0     C22243   2.821   1.185   7.455  0.0479 -0.7760  0.1937
  162MOL0     C22244   2.939   1.167   7.511  0.0197  0.0224  1.0369
  162MOL0     C22245   3.060   1.181   7.434  0.8402 -0.0338  0.3022
  162MOL0     C22246   3.182   1.153   7.519  0.0611 -0.3630  0.3230
  162MOL0     C22247   3.058   1.206   7.295 -0.1994  0.5006 -0.3982
  162MOL0     C22248   3.181   1.234   7.201 -0.0559  0.0425 -0.4026
  162MOL0     O22249   3.170   1.216   7.065  0.5570  0.1742  0.2750
  162MOL0     C22250   3.279   1.212   6.980  0.1561 -0.0800  0.0140
  162MOL0     C22251   3.401   1.281   7.005 -0.3030  0.8532 -0.4529
  162MOL0     C22252   3.514   1.269   6.925  0.1826 -0.0186 -0.2626
  162MOL0     C22253   3.508   1.190   6.813 -0.5082  0.3215 -0.1401
  162MOL0     O22254   3.614   1.156   6.729 -0.0922 -0.6011 -0.3151
  162MOL0     C22255   3.746   1.136   6.779  0.6156 -0.7782  0.2103
  162MOL0     C22256   3.832   1.065   6.676  0.8556  0.9191  0.2930
  162MOL0     C22257   3.976   1.081   6.701 -0.2742 -0.4582  0.9131
  162MOL0     C22258   4.061   1.042   6.575 -0.7049 -0.1760  0.4933
  162MOL0     C22259   4.210   1.066   6.586  0.3436 -0.5262  0.1038
  162MOL0     C22260   4.281   1.017   6.459 -0.1802 -0.1388 -0.2995
  162MOL0     C22261   4.408   0.942   6.479  0.8917  0.2833  0.1584
  162MOL0     C22262   4.468   0.916   6.339  0.8856  0.5882 -0.0453
  162MOL0    Cl22263   4.625   0.827   6.362  0.0627  0.3698 -0.3787
  162MOL0     C22264   3.385   1.124   6.782 -0.2694  0.1637 -0.6051
  162MOL0     C22265   3.270   1.138   6.864 -0.2434  1.5171  0.5616
  162MOL0     O22266   3.282   1.273   7.267  0.1496  0.1053  0.2903
  162MOL0     C22267   2.935   1.220   7.238  0.4050  0.1257  1.1781
  162MOL0     C22268   2.816   1.209   7.312  0.7630  0.5335  0.0190
  162MOL0     N22269   2.047   1.071   7.498 -0.2425 -0.4420 -0.3693
  162MOL0     N22270   1.930   1.080   7.450 -0.3358  0.0648  0.1996
  162MOL0     C22271   0.777   0.978   7.649 -0.4900 -0.1866 -1.2100
  162MOL0     C22272   0.682   0.892   7.707 -0.1528  0.5056  0.0237
  162MOL0     C22273   0.388   0.550   7.705  0.1599 -0.4554  0.2351
  162MOL0     C22274   0.289   0.522   7.602 -1.3731  0.2645 -0.2103
  162MOL0     C22275   0.202   0.419   7.622  0.6514 -0.4944  0.7678
  162MOL0     C22276   0.192   0.347   7.736  0.7489 -0.3726 -0.0426
  162MOL0     O22277   0.107   0.240   7.743 -0.4748  0.0652  0.1817
  162MOL0     C22278   0.073   0.198   7.872  0.3831  0.2740 -0.2825
  162MOL0     C22279  -0.015   0.073   7.863  0.5361  0.3112  0.1326
  162MOL0     C22280  -0.155   0.093   7.798 -0.8414 -0.1755  0.3713
  162MOL0     C22281  -0.229  -0.038   7.787  0.6192 -0.0537 -0.4265
  162MOL0     C22282  -0.357  -0.006   7.715 -0.1845 -0.4401  0.1382
  162MOL0     C22283  -0.451   0.017   7.647 -0.5070 -0.0213  0.1222
  162MOL0     C22284   0.284   0.382   7.839 -0.2091 -0.6327  0.2647
  162MOL0     C22285   0.377   0.487   7.828 -0.3624  0.1677  1.0474
  162MOL0     C22286   0.446   0.507   7.958  0.5942  0.5077  0.1445
  162MOL0     H22287   0.852   0.595   7.657 -0.6579 -0.1806 -0.2921
  162MOL0     H22288   1.003   0.748   7.549 -2.8575 -2.1302 -1.1761
  162MOL0     H22289   1.125   1.016   7.696  1.0905  3.3958  1.8084
  162MOL0     H22290   0.987   1.119   7.727 -1.7051  0.4664  0.3301
  162MOL0     H22291   1.080   1.281   7.558  1.5694  0.9330  0.0008
  162MOL0     H22292   1.207   1.249   7.674 -1.8121  0.8026  0.9155
  162MOL0     H22293   1.315   1.078   7.543 -0.4518 -0.1798 -1.6774
  162MOL0     H22294   1.205   1.103   7.411  0.8518 -0.4533 -0.0356
  162MOL0     H22295   1.332   1.272   7.329 -0.0265 -2.0552  0.1750
  162MOL0     H22296   1.289   1.369   7.473  1.4955  0.7489 -0.8683
  162MOL0     H22297   1.518   1.157   7.454  0.3966 -0.2777  2.3792
  162MOL0     H22298   1.478   1.234   7.592  2.2811 -1.0894 -0.1104
  162MOL0     H22299   1.580   1.401   7.368 -2.5595 -2.7773 -0.7822
  162MOL0     H22300   1.550   1.446   7.543 -0.5515 -0.1437  0.3425
  162MOL0     H22301   1.716   1.235   7.577  0.4398  1.7440  1.8091
  162MOL0     H22302   1.787   1.390   7.557 -0.5233 -1.7400  2.3175
  162MOL0     H22303   1.736   1.193   7.321  0.6646 -1.1798  0.2496
  162MOL0     H22304   1.805   1.347   7.300 -0.1596  1.6974  1.3910
  162MOL0     H22305   2.052   1.384   7.422  0.1785  0.0667  3.8798
  162MOL0     H22306   2.269   1.285   7.607  1.3706 -0.1863 -0.1177
  162MOL0     H22307   2.303   1.284   7.431 -0.1346  0.9656  0.8899
  162MOL0     H22308   2.290   1.025   7.581  2.5314 -0.2975  1.7319
  162MOL0     H22309   2.347   1.062   7.414  0.9263  0.0066 -0.2897
  162MOL0     H22310   2.485   1.143   7.680 -1.8012 -2.1961  0.8796
  162MOL0     H22311   2.533   1.006   7.579  0.2543 -0.3748  0.8810
  162MOL0     H22312   2.598   1.114   7.394  3.0323  1.4331 -0.4537
  162MOL0     H22313   2.570   1.283   7.460 -3.9436 -0.8267 -0.1695
  162MOL0     H22314   2.947   1.120   7.609 -0.1571 -3.4367 -0.4663
  162MOL0     H22315   3.213   1.048   7.512 -1.4811 -0.8662  0.6268
  162MOL0     H22316   3.161   1.162   7.627  2.5596  1.8348  0.7187
  162MOL0     H22317   3.262   1.220   7.486 -1.5819  1.4276 -0.1880
  162MOL0     H22318   3.419   1.344   7.092  1.1761 -1.8409  1.3204
  162MOL0     H22319   3.606   1.322   6.948 -0.2963  0.0950  1.5895
  162MOL0     H22320   3.785   1.234   6.809 -2.5410  0.7255 -0.0815
  162MOL0     H22321   3.741   1.075   6.869  2.8623  0.9916  1.6316
  162MOL0     H22322   3.826   0.956   6.690  1.8486  0.5610 -1.6906
  162MOL0     H22323   3.806   1.080   6.571  0.7521  1.0779  0.3418
  162MOL0     H22324   4.016   1.020   6.781  1.1275 -0.0769  0.5301
  162MOL0     H22325   3.971   1.183   6.740 -4.6272 -0.5392  1.0931
  162MOL0     H22326   4.035   1.100   6.486 -0.5717 -2.3651 -1.0706
  162MOL0     H22327   4.033   0.938   6.553  4.2554 -1.4111 -1.4100
  162MOL0     H22328   4.220   1.173   6.606 -0.2415 -0.5124  0.3582
  162MOL0     H22329   4.240   1.014   6.678 -1.8861 -0.2624  1.0526
  162MOL0     H22330   4.296   1.108   6.401 -1.1467  0.2272 -0.0022
  162MOL0     H22331   4.213   0.952   6.403  0.8092 -0.8260 -0.7277
  162MOL0     H22332   4.391   0.846   6.527  2.1357  1.5735  3.4898
  162MOL0     H22333   4.480   0.998   6.539  1.6133  0.6932 -1.0370
  162MOL0     H22334   4.475   1.011   6.286  2.8175  0.7113  0.3557
  162MOL0     H22335   4.411   0.848   6.275 -0.9100  3.5401 -1.7829
  162MOL0     H22336   3.391   1.057   6.696 -1.9699 -0.8613  0.0222
  162MOL0     H22337   3.178   1.084   6.846 -1.7015  2.9870  3.0786
  162MOL0     H22338   2.921   1.239   7.132  1.2860  0.0447  1.0377
  162MOL0     H22339   2.727   1.233   7.256  1.0737  2.3177  0.2466
  162MOL0     H22340   0.764   1.086   7.651  0.4923 -0.0607 -1.0853
  162MOL0     H22341   0.589   0.926   7.751  0.6960  0.8476  1.6252
  162MOL0     H22342   0.294   0.575   7.507 -0.4605  0.5080 -0.0349
  162MOL0     H22343   0.141   0.383   7.539 -0.3663  0.8665  0.8879
  162MOL0     H22344   0.158   0.179   7.938  1.4005  0.2166 -1.5719
  162MOL0     H22345   0.009   0.276   7.915 -1.0597 -2.3778  2.8666
  162MOL0     H22346  -0.040   0.034   7.962  0.9395  1.3565  0.6678
  162MOL0     H22347   0.037  -0.001   7.803 -0.2600  0.1555 -0.3762
  162MOL0     H22348  -0.207   0.168   7.857 -1.2660 -0.2084  0.0483
  162MOL0     H22349  -0.133   0.132   7.698  0.2083 -0.7182  0.3727
  162MOL0     H22350  -0.255  -0.075   7.887  0.3994 -1.9262 -1.1247
  162MOL0     H22351  -0.172  -0.112   7.730 -2.8827 -1.3974 -2.5771
  162MOL0     H22352  -0.525   0.040   7.572 -0.4308 -1.0691 -0.3032
  162MOL0     H22353   0.292   0.327   7.932 -0.3253  1.8062  1.8041
  162MOL0     H22354   0.495   0.423   8.009 -1.5306 -0.1728  1.1643
  162MOL0     H22355   0.518   0.590   7.947  1.0759 -0.2259 -3.6359
  162MOL0     H22356   0.379   0.543   8.036  1.5307  0.5775  0.9462
  163MOL0     O22357   1.845   4.454   8.882 -0.1387  0.0658  0.1623
  163MOL0     C22358   1.811   4.562   8.932  0.5129  0.2042 -0.0789
  163MOL0     O22359   1.885   4.676   8.930 -0.7180  0.2525 -0.3405
  163MOL0     C22360   2.001   4.680   8.869 -0.6480 -0.0413  0.6238
  163MOL0     C22361   2.019   4.697   8.731 -0.2179  0.1542 -0.1100
  163MOL0     C22362   2.150   4.727   8.674  0.2665 -0.0126  0.1167
  163MOL0     C22363   2.263   4.717   8.749 -0.0916 -0.2023  0.3980
  163MOL0     O22364   2.387   4.724   8.686 -0.0511  0.3055 -0.1678
  163MOL0     C22365   2.499   4.662   8.743 -0.0885  0.6119 -0.1549
  163MOL0     C22366   2.587   4.741   8.838 -0.4438  0.5784 -1.0185
  163MOL0     C22367   2.618   4.887   8.798 -0.5070  0.3823 -0.8696
  163MOL0     C22368   2.676   4.893   8.657  0.2052 -0.0267 -0.0184
  163MOL0     C22369   2.821   4.852   8.629 -0.3703 -0.0893  0.1825
  163MOL0     C22370   2.896   4.960   8.540 -0.2025  0.1820  0.2652
  163MOL0     C22371   3.011   4.908   8.464  0.4627 -0.3208  0.7478
  163MOL0     C22372   3.132   5.020   8.466  0.1252  0.1904 -0.0947
  163MOL0     N22373   3.105   5.153   8.393  0.9160 -0.0794 -0.5301
  163MOL0     C22374   3.175   5.207   8.287 -0.2801 -0.5377  0.4144
  163MOL0     C22375   3.101   5.314   8.259 -0.9482  0.0702 -0.1554
  163MOL0     C22376   3.125   5.416   8.151 -0.2354 -0.5613  0.3912
  163MOL0     C22377   3.272   5.467   8.141  0.1031 -0.5953  0.2883
  163MOL0     C22378   3.297   5.552   8.265  0.0210  0.6368  0.3831
  163MOL0     C22379   3.427   5.620   8.261 -0.1437 -0.5521 -0.1900
  163MOL0     O22380   3.527   5.526   8.277 -0.4913  0.7564  0.8018
  163MOL0     C22381   3.658   5.554   8.251 -0.5529 -0.7448  0.1886
  163MOL0     C22382   3.753   5.453   8.257  0.1078  0.0395  0.4677
  163MOL0     C22383   3.883   5.470   8.233  0.1402 -0.3133 -0.1735
  163MOL0     C22384   3.965   5.344   8.241  0.6903  0.1412 -0.0075
  163MOL0     C22385   3.943   5.602   8.209 -0.3376 -0.6242  0.2855
  163MOL0     C22386   4.090   5.620   8.164  0.7636 -0.1162 -0.5050
  163MOL0     O22387   4.132   5.751   8.165  0.5180  0.5844  0.2494
  163MOL0     C22388   4.265   5.765   8.150  0.1827 -0.2829  0.2328
  163MOL0     C22389   4.358   5.741   8.254  0.2514  0.1696  0.2349
  163MOL0     C22390   4.500   5.752   8.229 -0.4955 -0.1837  0.3777
  163MOL0     C22391   4.545   5.804   8.104 -0.0283  0.0907  0.8057
  163MOL0     O22392   4.679   5.834   8.067  0.0896  0.1735  0.2297
  163MOL0     C22393   4.787   5.818   8.162 -0.6224  0.4984  0.5172
  163MOL0     C22394   4.911   5.898   8.120 -0.3876 -0.7367 -0.3858
  163MOL0     C22395   4.873   6.048   8.108  0.5335  0.9559 -0.4027
  163MOL0     C22396   4.993   6.143   8.100 -0.2598  0.3069  0.3593
  163MOL0     C22397   5.065   6.138   7.967  0.2064 -0.6814  0.2016
  163MOL0     C22398   4.973   6.207   7.859  0.7674  0.2856 -0.3871
  163MOL0     C22399   5.052   6.227   7.725  0.2087 -0.0514  0.2348
  163MOL0     C22400   4.958   6.230   7.607  0.3442 -0.5115 -0.6551
  163MOL0    Cl22401   4.846   6.373   7.619  0.5323 -0.1265  0.3316
  163MOL0     C22402   4.452   5.826   8.001  0.1125 -0.4498 -0.0024
  163MOL0     C22403   4.316   5.804   8.025  0.3127  0.1987  0.0360
  163MOL0     O22404   4.152   5.518   8.135 -0.4672  0.6518  0.7256
  163MOL0     C22405   3.851   5.706   8.214 -0.4883 -0.1369 -0.0650
  163MOL0     C22406   3.713   5.686   8.234  0.3845  0.0329 -0.7200
  163MOL0     N22407   3.003   5.337   8.345  0.3445  0.1865  0.2242
  163MOL0     N22408   3.007   5.244   8.434 -0.5180  0.5800  0.1024
  163MOL0     C22409   2.243   4.695   8.888  0.4295 -0.3883  0.2728
  163MOL0     C22410   2.117   4.681   8.942 -0.1001  0.3247 -0.7208
  163MOL0     C22411   1.689   4.555   9.024 -0.4632 -0.2711 -0.1214
  163MOL0     C22412   1.598   4.450   9.005 -1.1049 -0.1634  0.0198
  163MOL0     C22413   1.485   4.431   9.089 -0.1599 -0.7302  0.7522
  163MOL0     C22414   1.463   4.529   9.191  0.8512  0.2886 -0.1821
  163MOL0     O22415   1.361   4.527   9.279  0.2307  0.7326 -0.3095
  163MOL0     C22416   1.297   4.407   9.307 -0.2016 -0.7595  0.2159
  163MOL0     C22417   1.160   4.451   9.367  0.1481 -0.1171  0.2645
  163MOL0     C22418   1.068   4.507   9.260 -0.5020 -0.3833  0.1488
  163MOL0     C22419   0.922   4.523   9.304 -0.3413 -0.4832 -0.4546
  163MOL0     C22420   0.897   4.648   9.376  0.1609  0.3029  0.5558
  163MOL0     C22421   0.848   4.742   9.440  0.7938 -0.2513  0.1111
  163MOL0     C22422   1.551   4.637   9.206 -0.3142  0.0556 -0.3185
  163MOL0     C22423   1.664   4.655   9.121 -0.4797 -0.2324  0.7429
  163MOL0     C22424   1.747   4.782   9.145  0.1522 -0.3648  0.9311
  163MOL0     H22425   1.930   4.697   8.669 -0.5282 -0.9111  0.3177
  163MOL0     H22426   2.159   4.753   8.569 -1.1249 -2.4222 -0.6776
  163MOL0     H22427   2.562   4.636   8.659  0.5097 -0.5623  0.6359
  163MOL0     H22428   2.470   4.570   8.795 -3.0135  0.4719 -1.8184
  163MOL0     H22429   2.542   4.750   8.937 -2.8666  0.2689 -2.0049
  163MOL0     H22430   2.688   4.706   8.860 -0.5261  1.2239  0.5223
  163MOL0     H22431   2.524   4.940   8.808 -0.2489  0.5899  0.6535
  163MOL0     H22432   2.696   4.929   8.863  1.8440 -1.8649 -2.0244
  163MOL0     H22433   2.609   4.834   8.594 -1.9242  0.4224  1.7084
  163MOL0     H22434   2.675   5.001   8.637  1.9394 -0.1494 -1.0158
  163MOL0     H22435   2.821   4.756   8.577  3.4847  0.0212 -0.3693
  163MOL0     H22436   2.888   4.848   8.715 -1.0347  0.7249  0.7470
  163MOL0     H22437   2.823   4.991   8.465 -1.2719 -0.2882  1.0824
  163MOL0     H22438   2.926   5.045   8.603  2.8500  1.4510 -2.5842
  163MOL0     H22439   2.980   4.884   8.362  4.1160  0.2737 -0.6903
  163MOL0     H22440   3.051   4.816   8.507  2.7698  1.4946  2.8336
  163MOL0     H22441   3.155   5.039   8.571  2.4473  2.1226 -0.8465
  163MOL0     H22442   3.228   4.986   8.425  0.8226  0.2555  1.4128
  163MOL0     H22443   3.260   5.165   8.235 -1.5756 -0.6356 -1.7648
  163MOL0     H22444   3.060   5.502   8.167  2.6371  1.8927 -0.3359
  163MOL0     H22445   3.110   5.375   8.050  1.8446 -1.5488  0.4278
  163MOL0     H22446   3.344   5.385   8.135 -0.0974 -0.6683 -2.4026
  163MOL0     H22447   3.277   5.516   8.043  1.0462  0.7340  0.9790
  163MOL0     H22448   3.211   5.619   8.271 -0.0830  0.6895 -1.2966
  163MOL0     H22449   3.286   5.490   8.355  1.7495 -0.1937  0.0725
  163MOL0     H22450   3.430   5.663   8.160 -0.0857 -1.1710 -0.4603
  163MOL0     H22451   3.423   5.697   8.338  0.2932 -0.8823  0.1639
  163MOL0     H22452   3.724   5.356   8.295  1.1272 -1.0981 -1.5020
  163MOL0     H22453   3.973   5.303   8.140 -2.0553 -1.0439  0.1584
  163MOL0     H22454   3.905   5.264   8.284 -0.2311  0.3156 -0.9196
  163MOL0     H22455   4.060   5.363   8.292  0.7229 -0.3544  0.1177
  163MOL0     H22456   4.322   5.708   8.351 -1.7666  4.9461  1.3732
  163MOL0     H22457   4.568   5.717   8.306  0.0766 -1.8591 -0.8337
  163MOL0     H22458   4.760   5.873   8.252 -0.0033  3.6581 -1.0736
  163MOL0     H22459   4.811   5.713   8.178 -0.6665  0.2825 -0.7249
  163MOL0     H22460   4.990   5.890   8.196 -0.5796  1.8861  0.1654
  163MOL0     H22461   4.957   5.862   8.028 -1.9582  1.9923 -2.3599
  163MOL0     H22462   4.822   6.085   8.197 -0.5588  2.3564 -1.5545
  163MOL0     H22463   4.806   6.067   8.023  1.6225 -0.4012 -1.6054
  163MOL0     H22464   5.066   6.114   8.175  0.9392 -0.2301 -0.9629
  163MOL0     H22465   4.957   6.244   8.123  1.1501  0.7851  0.5555
  163MOL0     H22466   5.162   6.187   7.983 -0.1252 -0.0799  0.3773
  163MOL0     H22467   5.085   6.034   7.937  2.5779 -1.0975  2.7991
  163MOL0     H22468   4.936   6.304   7.892 -0.2197 -0.1618 -0.1282
  163MOL0     H22469   4.881   6.149   7.844  0.9182  0.2374 -1.1525
  163MOL0     H22470   5.128   6.149   7.725 -1.3665 -1.6479  0.2960
  163MOL0     H22471   5.101   6.325   7.724 -0.0101  0.0794 -1.5720
  163MOL0     H22472   4.899   6.139   7.596 -0.8284  0.2538 -0.8683
  163MOL0     H22473   5.018   6.252   7.518  2.8566  1.0250  1.2727
  163MOL0     H22474   4.478   5.866   7.904 -1.4658  1.0441  0.1482
  163MOL0     H22475   4.252   5.820   7.939  0.5100 -3.5910 -0.9876
  163MOL0     H22476   3.881   5.811   8.213 -0.1813 -0.1892  1.6864
  163MOL0     H22477   3.642   5.767   8.250 -0.0130 -0.2955 -0.8291
  163MOL0     H22478   2.323   4.697   8.961 -1.8485  1.9228  2.9540
  163MOL0     H22479   2.097   4.686   9.048 -2.4182 -0.0311 -1.0854
  163MOL0     H22480   1.620   4.388   8.918 -1.7011 -2.1269  1.2155
  163MOL0     H22481   1.423   4.344   9.069 -0.2992 -0.7112  1.0997
  163MOL0     H22482   1.275   4.348   9.217 -0.2348 -0.0677 -0.2386
  163MOL0     H22483   1.364   4.349   9.371  0.8987 -2.7278 -2.5046
  163MOL0     H22484   1.181   4.522   9.448  0.1459 -1.2579  1.2969
  163MOL0     H22485   1.120   4.366   9.423 -2.5357  0.4026 -0.6949
  163MOL0     H22486   1.100   4.608   9.233 -0.3805  0.1188  2.0425
  163MOL0     H22487   1.087   4.437   9.179  0.9593  1.9790 -1.6713
  163MOL0     H22488   0.893   4.435   9.363  1.0683 -1.3963 -1.0653
  163MOL0     H22489   0.858   4.526   9.216 -0.8958  1.6655 -0.0349
  163MOL0     H22490   0.797   4.821   9.492  2.5409  0.5657  0.6509
  163MOL0     H22491   1.526   4.714   9.278 -1.2363  0.4310 -1.0229
  163MOL0     H22492   1.853   4.765   9.161  0.1692  1.7806  3.8626
  163MOL0     H22493   1.734   4.848   9.059 -3.8496  2.1788  3.1569
  163MOL0     H22494   1.701   4.848   9.220 -1.0721  0.3305 -0.3804
  164MOL0     O22495   5.701  11.286   6.846  0.1166 -0.2713  0.0746
  164MOL0     C22496   5.712  11.360   6.748 -0.8442 -0.2466 -0.4845
  164MOL0     O22497   5.810  11.464   6.739  0.4256 -0.4714  0.1239
  164MOL0     C22498   5.919  11.462   6.824  0.7831  0.4197 -0.7637
  164MOL0     C22499   5.997  11.347   6.843  0.9040  0.9356 -0.9403
  164MOL0     C22500   6.108  11.352   6.932  0.1975  0.1525  1.0618
  164MOL0     C22501   6.152  11.466   6.998 -0.0496 -0.2540  0.4673
  164MOL0     O22502   6.274  11.478   7.061 -0.5062  0.5847 -0.2778
  164MOL0     C22503   6.285  11.377   7.168 -0.3315 -1.1087  0.1581
  164MOL0     C22504   6.428  11.382   7.211  0.4020  0.6124  0.1480
  164MOL0     C22505   6.472  11.246   7.287 -0.2961  0.1750  0.5142
  164MOL0     C22506   6.621  11.252   7.319  0.3707 -1.3249 -0.6115
  164MOL0     C22507   6.678  11.124   7.370 -0.6153 -0.2713 -0.4312
  164MOL0     C22508   6.821  11.148   7.419 -0.1983  0.0917 -0.3264
  164MOL0     C22509   6.913  11.028   7.417  0.1012  0.8655  0.1290
  164MOL0     C22510   6.983  10.992   7.290  0.1451  0.1005 -0.3634
  164MOL0     N22511   7.084  10.882   7.299  0.2412 -0.4155 -0.8867
  164MOL0     C22512   7.199  10.900   7.367 -0.2117  0.1331 -0.5035
  164MOL0     C22513   7.255  10.774   7.362  0.1132 -0.2101  0.5973
  164MOL0     C22514   7.384  10.731   7.423  0.9567  0.2572  0.2797
  164MOL0     C22515   7.508  10.740   7.327  0.2880  0.2393 -0.2650
  164MOL0     C22516   7.510  10.645   7.203  1.0957  0.3466  0.0508
  164MOL0     C22517   7.481  10.493   7.238  0.1426 -0.0663  0.0296
  164MOL0     O22518   7.571  10.426   7.335 -0.4482 -0.1988 -0.1853
  164MOL0     C22519   7.701  10.416   7.305 -0.4256 -0.2207 -0.3436
  164MOL0     C22520   7.796  10.397   7.411 -0.5033  0.3978 -0.7805
  164MOL0     C22521   7.937  10.377   7.385  0.2918  0.2256 -0.2065
  164MOL0     C22522   8.015  10.359   7.508 -0.1724  0.1015 -0.0803
  164MOL0     C22523   7.985  10.373   7.252 -0.1899  0.7635  0.4633
  164MOL0     C22524   8.133  10.380   7.227 -0.1879  0.4953  0.0206
  164MOL0     O22525   8.179  10.375   7.093  0.9028 -0.9779 -0.3799
  164MOL0     C22526   8.313  10.389   7.060 -0.5285 -0.6929  0.0062
  164MOL0     C22527   8.366  10.500   6.998  0.5110  0.3853  0.3723
  164MOL0     C22528   8.504  10.516   6.978  0.1195  0.0100 -0.4593
  164MOL0     C22529   8.588  10.418   7.019  0.5489  0.3049  0.3070
  164MOL0     O22530   8.722  10.423   6.998  0.3664 -0.3612  0.0555
  164MOL0     C22531   8.785  10.548   6.995 -0.2619 -0.1849 -0.2436
  164MOL0     C22532   8.935  10.544   7.007 -0.4456 -0.1674  0.0811
  164MOL0     C22533   9.001  10.680   6.971  0.3732  0.2138 -0.0048
  164MOL0     C22534   9.157  10.668   6.976 -1.1379  0.1854  0.1361
  164MOL0     C22535   9.199  10.815   6.935  0.0819  0.7943 -0.4083
  164MOL0     C22536   9.345  10.810   6.903 -0.3242 -0.2164 -0.2229
  164MOL0     C22537   9.432  10.796   7.023 -0.1196  0.0299 -0.7756
  164MOL0     C22538   9.576  10.801   6.976  0.0098  0.1718 -0.4328
  164MOL0    Cl22539   9.679  10.746   7.112 -0.1145 -0.1807  0.1252
  164MOL0     C22540   8.536  10.293   7.058  0.0709  0.2889  0.2580
  164MOL0     C22541   8.401  10.284   7.078 -0.3005  0.1643 -0.3595
  164MOL0     O22542   8.211  10.408   7.316 -0.0852  0.5133  0.1130
  164MOL0     C22543   7.890  10.393   7.151 -0.5443 -0.1585 -0.2309
  164MOL0     C22544   7.758  10.411   7.173  1.2450 -0.1598 -0.1023
  164MOL0     N22545   7.173  10.692   7.284 -0.4184  0.7607 -0.2189
  164MOL0     N22546   7.068  10.757   7.251 -0.4956 -0.2175  0.2220
  164MOL0     C22547   6.089  11.580   6.955  0.3627 -0.7074  0.1971
  164MOL0     C22548   5.973  11.579   6.874 -0.0725  0.2136 -0.3043
  164MOL0     C22549   5.629  11.342   6.624  0.6695  0.3546 -0.2719
  164MOL0     C22550   5.613  11.448   6.528 -0.1844  0.5803  0.5234
  164MOL0     C22551   5.524  11.446   6.418  0.0059 -0.3486 -0.4918
  164MOL0     C22552   5.470  11.325   6.381  0.5256 -0.4344 -0.1460
  164MOL0     O22553   5.402  11.299   6.259 -0.6022 -0.3625  0.3244
  164MOL0     C22554   5.474  11.353   6.144 -0.3912  0.5005  0.0890
  164MOL0     C22555   5.399  11.341   6.015  0.3707  0.1505  0.8195
  164MOL0     C22556   5.263  11.410   6.011  0.5037  0.0429 -0.3215
  164MOL0     C22557   5.278  11.562   6.007 -0.0634  0.1631 -0.0013
  164MOL0     C22558   5.361  11.603   5.900  0.2764 -0.4918  0.7835
  164MOL0     C22559   5.415  11.650   5.804 -0.3770  0.0736  0.0099
  164MOL0     C22560   5.485  11.220   6.468 -0.5440  0.5798 -0.3692
  164MOL0     C22561   5.556  11.223   6.584 -0.4766 -0.0137 -0.4827
  164MOL0     C22562   5.545  11.106   6.677 -0.2493 -1.0567 -0.4152
  164MOL0     H22563   5.978  11.249   6.799  1.2684  0.2331  0.4131
  164MOL0     H22564   6.160  11.257   6.935  1.0224  0.5791  0.6283
  164MOL0     H22565   6.267  11.274   7.135 -0.1114 -0.8736 -0.7294
  164MOL0     H22566   6.217  11.400   7.250 -1.9555 -1.9397 -0.8868
  164MOL0     H22567   6.495  11.385   7.125  3.1167  0.6895  2.1232
  164MOL0     H22568   6.444  11.478   7.261  1.9823  0.2792  0.3342
  164MOL0     H22569   6.422  11.228   7.382 -0.8528 -1.5001 -0.0539
  164MOL0     H22570   6.448  11.155   7.230  0.1561 -0.2587  1.0074
  164MOL0     H22571   6.690  11.285   7.240  2.2824  0.4415  1.6337
  164MOL0     H22572   6.636  11.328   7.396 -2.7595  1.2621 -2.3049
  164MOL0     H22573   6.679  11.038   7.303  0.9755 -0.9997  0.4541
  164MOL0     H22574   6.624  11.085   7.458  3.6504 -1.3842  2.0000
  164MOL0     H22575   6.866  11.221   7.352 -0.3665  0.1329 -0.3934
  164MOL0     H22576   6.815  11.187   7.521 -0.5440  0.6522 -0.5584
  164MOL0     H22577   6.861  10.944   7.464 -1.5363  1.4965 -0.4822
  164MOL0     H22578   6.992  11.039   7.492  1.8166 -1.4305 -1.2277
  164MOL0     H22579   6.905  10.966   7.218 -2.0085  0.5587  1.6684
  164MOL0     H22580   7.026  11.086   7.256 -3.0618  3.0622  2.9019
  164MOL0     H22581   7.233  10.983   7.429  1.9940 -2.2581  1.7394
  164MOL0     H22582   7.373  10.626   7.451  2.5036 -0.1049 -0.3433
  164MOL0     H22583   7.418  10.784   7.512  0.1327 -1.4699  1.6896
  164MOL0     H22584   7.509  10.847   7.301  1.4574 -0.2695 -2.5089
  164MOL0     H22585   7.596  10.714   7.387 -1.6071 -2.4195  1.6000
  164MOL0     H22586   7.434  10.677   7.131 -0.1964 -2.7054 -0.0647
  164MOL0     H22587   7.606  10.658   7.153  0.5721  2.0969 -0.5826
  164MOL0     H22588   7.380  10.483   7.278  0.6393  3.0890  2.4968
  164MOL0     H22589   7.483  10.445   7.139 -2.7758 -0.4741  0.0733
  164MOL0     H22590   7.760  10.380   7.512  1.9313 -1.0091 -0.0691
  164MOL0     H22591   8.067  10.262   7.505 -3.1838 -1.7345  2.1450
  164MOL0     H22592   7.957  10.351   7.600 -0.0667  0.5509  0.0243
  164MOL0     H22593   8.084  10.442   7.528 -1.8043  1.8252 -1.2701
  164MOL0     H22594   8.293  10.577   6.974  0.9331  1.1905  1.5892
  164MOL0     H22595   8.544  10.603   6.926  3.4096 -0.5025  0.9306
  164MOL0     H22596   8.759  10.604   6.904 -2.2080  1.7389  1.3930
  164MOL0     H22597   8.755  10.608   7.081  0.3558  1.5009 -1.1433
  164MOL0     H22598   8.966  10.523   7.110  0.1144  1.0703  0.1883
  164MOL0     H22599   8.968  10.464   6.940  2.1621  0.0487  0.9760
  164MOL0     H22600   8.963  10.764   7.030  1.7635  0.7778  0.1091
  164MOL0     H22601   8.987  10.700   6.864  1.3456  1.6329  0.1068
  164MOL0     H22602   9.200  10.597   6.904  0.1439 -1.1235  2.0992
  164MOL0     H22603   9.193  10.639   7.075 -0.9870  1.8656  0.6167
  164MOL0     H22604   9.155  10.859   6.846  0.0326  0.5220 -0.5191
  164MOL0     H22605   9.172  10.878   7.020 -0.2136  1.7712 -1.2168
  164MOL0     H22606   9.368  10.912   6.870  1.2292 -0.0856  1.1594
  164MOL0     H22607   9.367  10.742   6.820 -2.2627  2.1437 -2.8953
  164MOL0     H22608   9.421  10.702   7.079  0.6293  0.4327  0.0694
  164MOL0     H22609   9.405  10.876   7.092 -1.5817 -0.0914 -1.1639
  164MOL0     H22610   9.605  10.903   6.948 -0.2065 -0.0584 -1.5492
  164MOL0     H22611   9.588  10.741   6.886  1.3872 -0.1827 -0.0320
  164MOL0     H22612   8.606  10.213   7.082  1.9864  1.8383  0.0768
  164MOL0     H22613   8.371  10.199   7.138 -2.6166 -0.8882 -2.7977
  164MOL0     H22614   7.926  10.408   7.050 -1.8198 -1.9092 -0.9983
  164MOL0     H22615   7.696  10.442   7.090  1.6648 -0.8457 -0.6784
  164MOL0     H22616   6.121  11.674   6.999 -0.3016 -0.2253 -0.3202
  164MOL0     H22617   5.914  11.670   6.865 -0.9566 -0.3360 -0.1863
  164MOL0     H22618   5.663  11.544   6.537 -1.1378  1.2805 -1.1540
  164MOL0     H22619   5.497  11.540   6.372  2.2437  1.6911  2.0548
  164MOL0     H22620   5.495  11.460   6.159 -0.6840  0.5344  0.2540
  164MOL0     H22621   5.564  11.292   6.135 -1.4128 -0.9990 -0.3471
  164MOL0     H22622   5.398  11.235   5.988 -0.0425  0.5370 -0.7929
  164MOL0     H22623   5.468  11.384   5.940  0.4119 -2.1158 -0.5302
  164MOL0     H22624   5.211  11.378   5.921  1.2978  0.0008 -0.7748
  164MOL0     H22625   5.198  11.380   6.094  0.0307 -1.2131 -1.1250
  164MOL0     H22626   5.316  11.590   6.106  1.3868 -2.5775  0.2807
  164MOL0     H22627   5.178  11.608   6.008 -0.5552 -0.8566 -0.7870
  164MOL0     H22628   5.461  11.678   5.712  0.1086  0.5319  0.3855
  164MOL0     H22629   5.443  11.124   6.440  0.9246 -0.0688 -0.4533
  164MOL0     H22630   5.465  11.135   6.746  0.1204 -0.6646 -0.1502
  164MOL0     H22631   5.509  11.020   6.619 -0.0408 -1.5433  0.1741
  164MOL0     H22632   5.637  11.079   6.729 -0.1974  1.1098  0.7164
  165MOL0     O22633   2.128   3.900   3.125  0.2669  0.5327 -0.2715
  165MOL0     C22634   2.097   3.908   3.247  0.6627  0.5817 -0.0016
  165MOL0     O22635   2.183   3.900   3.341 -0.1326  0.7137  0.3389
  165MOL0     C22636   2.310   3.853   3.311  0.3559 -0.1367  0.3849
  165MOL0     C22637   2.339   3.751   3.220 -0.5544 -0.2308  0.3581
  165MOL0     C22638   2.472   3.705   3.208  1.0700 -0.3314 -0.1851
  165MOL0     C22639   2.575   3.753   3.288  0.3142 -0.3313  0.7560
  165MOL0     O22640   2.701   3.700   3.250  0.2948 -0.0693  0.0726
  165MOL0     C22641   2.808   3.740   3.341  0.1009  0.6772  0.4867
  165MOL0     C22642   2.943   3.668   3.315 -0.4031  0.6994  0.2658
  165MOL0     C22643   3.061   3.755   3.351  0.5685 -0.1996 -0.3742
  165MOL0     C22644   3.186   3.665   3.359  0.2697 -0.4316 -0.1624
  165MOL0     C22645   3.310   3.753   3.400 -0.1392 -0.3077 -0.2816
  165MOL0     C22646   3.431   3.661   3.419 -0.1149  0.0187  0.8902
  165MOL0     C22647   3.554   3.724   3.468 -0.1536  0.2040 -1.3257
  165MOL0     C22648   3.673   3.631   3.444  0.0675  0.0758  0.7237
  165MOL0     N22649   3.804   3.711   3.429  0.1623 -0.9682 -0.4115
  165MOL0     C22650   3.855   3.815   3.503  0.4937 -0.1532 -0.6295
  165MOL0     C22651   3.949   3.866   3.426 -0.4488 -0.3878 -1.2752
  165MOL0     C22652   4.047   3.972   3.477  0.0642 -0.2383  0.6051
  165MOL0     C22653   4.169   3.904   3.539 -0.1242 -0.4643 -0.3547
  165MOL0     C22654   4.254   4.002   3.621  0.0336 -0.0688  0.1888
  165MOL0     C22655   4.373   3.933   3.682  0.2758  0.8245  0.6503
  165MOL0     O22656   4.432   3.995   3.803 -0.1636 -0.0964  0.6771
  165MOL0     C22657   4.549   3.940   3.836 -0.0695 -0.2129 -0.2480
  165MOL0     C22658   4.621   4.014   3.934 -0.2294 -0.1743  0.0696
  165MOL0     C22659   4.759   3.995   3.962 -0.7260  0.3700  0.2742
  165MOL0     C22660   4.805   4.082   4.084  0.0294  0.7332  0.3049
  165MOL0     C22661   4.828   3.894   3.895  0.7497  0.3143  0.5606
  165MOL0     C22662   4.972   3.887   3.898 -0.6058  0.6433 -0.3192
  165MOL0     O22663   5.030   3.774   3.835 -0.2057  0.0186  0.1665
  165MOL0     C22664   5.160   3.734   3.864 -0.1505 -0.4798  0.0013
  165MOL0     C22665   5.210   3.737   3.991 -1.0099  0.1391  0.0044
  165MOL0     C22666   5.333   3.682   4.024 -0.1586 -0.3149 -0.6856
  165MOL0     C22667   5.418   3.637   3.924  0.3849 -0.1940  0.0531
  165MOL0     O22668   5.539   3.588   3.966  0.2564  0.0207  0.2084
  165MOL0     C22669   5.613   3.495   3.888  0.3250 -0.1728  0.1833
  165MOL0     C22670   5.735   3.470   3.977  0.3723 -0.4481 -0.6070
  165MOL0     C22671   5.826   3.376   3.894 -0.1417 -0.0929 -0.6027
  165MOL0     C22672   5.954   3.354   3.971 -0.1822  0.0937  0.2834
  165MOL0     C22673   6.069   3.299   3.873  0.3933 -0.0872 -0.5721
  165MOL0     C22674   6.197   3.247   3.933 -0.4708 -0.1015 -0.4670
  165MOL0     C22675   6.271   3.354   4.006  0.0642  0.2609  0.1837
  165MOL0     C22676   6.379   3.313   4.107 -0.0802  0.4149  1.1479
  165MOL0    Cl22677   6.525   3.256   4.003 -0.4433 -0.4137 -0.3180
  165MOL0     C22678   5.374   3.646   3.786 -0.2047  0.7696 -0.3634
  165MOL0     C22679   5.243   3.688   3.760  0.0491  0.3686  0.0236
  165MOL0     O22680   5.037   3.985   3.935 -0.0167  0.3083  0.2558
  165MOL0     C22681   4.754   3.802   3.814  0.1678  0.7232  0.3639
  165MOL0     C22682   4.619   3.825   3.786  0.3368 -1.2891 -0.4586
  165MOL0     N22683   3.951   3.801   3.310  1.0193 -1.3570 -0.0703
  165MOL0     N22684   3.861   3.709   3.312 -0.0220  0.7572 -0.6057
  165MOL0     C22685   2.548   3.860   3.378  0.1679  0.0286  0.5090
  165MOL0     C22686   2.414   3.899   3.393  0.2061  0.1537 -0.3220
  165MOL0     C22687   1.959   3.932   3.298  0.0232  0.2569 -0.1013
  165MOL0     C22688   1.933   3.903   3.434  0.5556 -0.8479 -0.8759
  165MOL0     C22689   1.809   3.909   3.494 -0.5989  0.6175 -0.8360
  165MOL0     C22690   1.712   3.979   3.434 -0.3449  0.5292  0.2007
  165MOL0     O22691   1.596   4.004   3.504 -0.1699 -0.3164  0.8121
  165MOL0     C22692   1.501   4.112   3.460  0.8886 -0.1615  0.1600
  165MOL0     C22693   1.562   4.252   3.475  0.7726  0.4636 -0.3482
  165MOL0     C22694   1.553   4.288   3.625 -0.7377  0.2183 -0.1185
  165MOL0     C22695   1.594   4.435   3.654  0.7752  1.3747 -0.1364
  165MOL0     C22696   1.725   4.468   3.598 -0.5258 -0.0974 -0.6215
  165MOL0     C22697   1.827   4.499   3.539  0.6535 -0.9995 -0.4942
  165MOL0     C22698   1.734   4.011   3.297  0.5438 -0.3872 -0.2550
  165MOL0     C22699   1.850   3.985   3.227 -0.5085 -0.3093  0.3909
  165MOL0     C22700   1.852   4.002   3.077 -0.1856 -0.3650  0.2882
  165MOL0     H22701   2.269   3.697   3.157 -0.6879 -1.1575  1.2782
  165MOL0     H22702   2.499   3.625   3.140  1.2600  0.0159 -0.5263
  165MOL0     H22703   2.781   3.715   3.444 -1.3829 -0.2011 -0.0769
  165MOL0     H22704   2.819   3.849   3.334 -0.0027  0.6592  0.0255
  165MOL0     H22705   2.944   3.575   3.374 -1.6055  1.5964  1.7650
  165MOL0     H22706   2.947   3.639   3.210  1.5580  0.5222  0.3488
  165MOL0     H22707   3.074   3.821   3.265  0.3055  1.4331  0.8031
  165MOL0     H22708   3.037   3.812   3.441 -2.8410  0.8345 -1.7638
  165MOL0     H22709   3.171   3.588   3.435  0.0540  1.1368  1.4368
  165MOL0     H22710   3.211   3.615   3.264  0.0379 -1.2109  0.1804
  165MOL0     H22711   3.287   3.810   3.491 -0.0600  1.1084 -1.1238
  165MOL0     H22712   3.325   3.830   3.323 -0.2882  0.0744  0.0663
  165MOL0     H22713   3.411   3.578   3.487 -1.3531 -0.5814 -0.1812
  165MOL0     H22714   3.446   3.611   3.323 -2.0878  0.7230  0.1749
  165MOL0     H22715   3.548   3.762   3.571 -0.6108 -0.1539 -1.2172
  165MOL0     H22716   3.566   3.813   3.405  2.6928  0.9355  0.0805
  165MOL0     H22717   3.698   3.556   3.520  2.0646 -3.1133 -2.7333
  165MOL0     H22718   3.653   3.577   3.351  1.8984 -0.1310  0.4008
  165MOL0     H22719   3.841   3.834   3.609 -1.6529 -1.2330 -0.6691
  165MOL0     H22720   4.002   4.025   3.561 -1.8301 -2.5822  1.1732
  165MOL0     H22721   4.067   4.031   3.387 -1.3878 -0.8090 -0.1195
  165MOL0     H22722   4.138   3.821   3.603  1.9559 -1.5230 -0.6348
  165MOL0     H22723   4.227   3.857   3.459  0.1286 -0.7827  0.0114
  165MOL0     H22724   4.290   4.080   3.554  1.7213  0.7138  1.9113
  165MOL0     H22725   4.188   4.040   3.700  0.0975 -1.6606  1.0580
  165MOL0     H22726   4.329   3.834   3.699 -2.3194  1.7491 -0.2326
  165MOL0     H22727   4.429   3.944   3.589 -1.1436  1.0798 -0.2143
  165MOL0     H22728   4.564   4.090   3.986 -3.4042 -1.1598 -1.6971
  165MOL0     H22729   4.883   4.048   4.152  0.6208 -2.1048 -1.6108
  165MOL0     H22730   4.717   4.102   4.146 -0.0788  2.4581 -0.3477
  165MOL0     H22731   4.842   4.179   4.047  3.9143 -0.8063 -0.3158
  165MOL0     H22732   5.143   3.761   4.073 -1.2253  0.7677 -0.3505
  165MOL0     H22733   5.345   3.669   4.131 -0.0732  1.8324 -0.3865
  165MOL0     H22734   5.558   3.402   3.872  1.7548 -1.4396  2.0883
  165MOL0     H22735   5.648   3.540   3.795  0.2094 -1.8499 -0.6951
  165MOL0     H22736   5.781   3.563   4.012 -0.8829  0.0801 -0.3250
  165MOL0     H22737   5.711   3.415   4.068  0.4802 -1.0793 -0.9446
  165MOL0     H22738   5.849   3.416   3.795  1.8148  0.3443 -0.0196
  165MOL0     H22739   5.782   3.276   3.886  0.7220 -0.6553  1.1868
  165MOL0     H22740   5.944   3.275   4.046  0.0546 -1.4753 -1.2687
  165MOL0     H22741   5.987   3.446   4.022 -0.1421  0.4621 -0.3984
  165MOL0     H22742   6.008   3.229   3.816 -2.6726  0.5430  1.6603
  165MOL0     H22743   6.091   3.387   3.812 -0.3690  0.4300 -0.1197
  165MOL0     H22744   6.264   3.212   3.854  1.4092  2.7512 -0.2623
  165MOL0     H22745   6.169   3.159   3.992  1.5357 -2.5686 -2.9297
  165MOL0     H22746   6.203   3.423   4.058  0.1811  0.7402 -0.2904
  165MOL0     H22747   6.318   3.421   3.934 -0.5103  2.8762  2.0744
  165MOL0     H22748   6.355   3.231   4.176  0.5638  2.1780  3.5881
  165MOL0     H22749   6.394   3.403   4.166  1.7159  0.2555  0.9881
  165MOL0     H22750   5.443   3.615   3.708 -0.8240 -0.5978 -0.3928
  165MOL0     H22751   5.207   3.692   3.657  0.8444 -2.0215 -0.4230
  165MOL0     H22752   4.803   3.716   3.768 -2.7314 -2.2262  2.3427
  165MOL0     H22753   4.561   3.754   3.727  0.6976 -2.4365  0.5399
  165MOL0     H22754   2.609   3.913   3.451  0.2288 -0.0462  0.5126
  165MOL0     H22755   2.390   3.973   3.469  1.2556 -0.6938  0.8747
  165MOL0     H22756   2.016   3.868   3.494  1.5124  1.4894 -0.7367
  165MOL0     H22757   1.805   3.902   3.603  1.3855  1.1616 -0.6992
  165MOL0     H22758   1.477   4.099   3.354  0.5368 -1.7715  0.4081
  165MOL0     H22759   1.409   4.104   3.519  0.8560  2.2454  0.5250
  165MOL0     H22760   1.523   4.330   3.409 -0.0678 -0.6966 -1.2720
  165MOL0     H22761   1.665   4.254   3.439  1.4516 -3.1390  0.8989
  165MOL0     H22762   1.450   4.279   3.660 -0.9695 -0.3969 -0.9235
  165MOL0     H22763   1.623   4.218   3.673  0.6325  0.8882 -1.0792
  165MOL0     H22764   1.600   4.448   3.762  0.6826  0.3347  0.0076
  165MOL0     H22765   1.517   4.505   3.621  1.6667  1.7243 -1.5469
  165MOL0     H22766   1.918   4.520   3.486  0.7460  1.8311  0.6195
  165MOL0     H22767   1.657   4.060   3.239  1.8267  2.4719  0.2861
  165MOL0     H22768   1.926   4.078   3.052  2.5642 -2.2805  1.9616
  165MOL0     H22769   1.880   3.915   3.017 -0.0077  0.2614 -0.5539
  165MOL0     H22770   1.752   4.032   3.046  0.9471  2.8643 -0.6063
  166MOL0     O22771   1.394  11.147   2.325  0.7179 -0.0259 -0.3292
  166MOL0     C22772   1.345  11.084   2.232  0.0765  0.0548  0.3164
  166MOL0     O22773   1.408  11.017   2.134 -0.6797  0.3362  0.9070
  166MOL0     C22774   1.541  11.016   2.162  0.5672  0.1296  0.7455
  166MOL0     C22775   1.614  11.129   2.133  0.1019  0.5087 -0.0885
  166MOL0     C22776   1.756  11.114   2.141  0.3038 -0.4594 -0.3622
  166MOL0     C22777   1.811  10.994   2.189  0.1003 -0.6753 -0.2609
  166MOL0     O22778   1.949  10.990   2.201  0.5413  0.2598  0.3685
  166MOL0     C22779   2.010  10.896   2.115  0.3756 -0.0302 -0.3872
  166MOL0     C22780   2.155  10.943   2.085 -0.7002 -0.5177  0.3393
  166MOL0     C22781   2.229  10.838   2.006  0.4411 -0.1924  0.4087
  166MOL0     C22782   2.367  10.900   1.962 -0.4676  0.1965 -0.5183
  166MOL0     C22783   2.450  10.791   1.886  0.2835 -0.0119 -0.6907
  166MOL0     C22784   2.563  10.848   1.797  0.2787  0.4831  0.0876
  166MOL0     C22785   2.682  10.921   1.852  1.0055 -0.4245 -0.3683
  166MOL0     C22786   2.798  10.825   1.906  0.3999  0.1387  0.4107
  166MOL0     N22787   2.882  10.898   1.997 -0.6011 -0.2579 -0.0154
  166MOL0     C22788   2.861  10.890   2.127 -0.0277 -0.0711 -0.3360
  166MOL0     C22789   2.962  10.964   2.180  0.1493 -0.2924 -0.1310
  166MOL0     C22790   3.005  10.983   2.332  0.4141  0.3948  0.6533
  166MOL0     C22791   3.139  10.911   2.346 -0.6976 -0.2080  0.1490
  166MOL0     C22792   3.206  10.950   2.483  0.3373  0.4501 -0.0445
  166MOL0     C22793   3.331  10.860   2.504  0.0021 -0.1878  0.2422
  166MOL0     O22794   3.429  10.907   2.404  0.1497 -0.0999 -0.0571
  166MOL0     C22795   3.564  10.894   2.421  0.2210  0.1273 -0.2965
  166MOL0     C22796   3.612  10.792   2.503 -0.2225 -0.0188 -0.1279
  166MOL0     C22797   3.744  10.768   2.529  0.4531 -0.1038  0.2665
  166MOL0     C22798   3.776  10.642   2.612  0.2336 -0.5898 -0.1997
  166MOL0     C22799   3.836  10.842   2.459 -0.1233 -0.4910  0.8093
  166MOL0     C22800   3.986  10.820   2.469  0.1031  0.6881 -1.0177
  166MOL0     O22801   4.066  10.859   2.373 -0.7941  0.1244  0.1053
  166MOL0     C22802   4.199  10.837   2.395 -0.6085  0.7497  0.8234
  166MOL0     C22803   4.282  10.942   2.436 -0.3685 -0.4687 -0.3605
  166MOL0     C22804   4.424  10.924   2.455  0.3897 -0.4055 -0.1020
  166MOL0     C22805   4.470  10.788   2.452 -0.6560 -0.1513 -0.1742
  166MOL0     O22806   4.611  10.770   2.467  0.7250 -0.2253 -0.2002
  166MOL0     C22807   4.666  10.645   2.478 -0.1358  0.2833  1.3390
  166MOL0     C22808   4.800  10.663   2.561  0.2784  0.0983 -0.2229
  166MOL0     C22809   4.901  10.761   2.506 -1.0279 -0.0179  0.1531
  166MOL0     C22810   4.957  10.699   2.375  0.4188 -0.4299  0.5048
  166MOL0     C22811   5.055  10.804   2.312  0.4949  1.1322 -0.4487
  166MOL0     C22812   5.111  10.769   2.174 -0.1580  0.6362 -0.3252
  166MOL0     C22813   5.192  10.888   2.129  0.0235 -0.2026 -0.7284
  166MOL0     C22814   5.214  10.906   1.980  0.0777  0.3002  0.5531
  166MOL0    Cl22815   5.270  10.743   1.908 -0.5750 -0.0469  0.4525
  166MOL0     C22816   4.392  10.684   2.391  0.6630 -0.1907  0.1343
  166MOL0     C22817   4.258  10.715   2.358 -0.6916 -0.6254  0.5299
  166MOL0     O22818   4.023  10.759   2.575 -0.4992 -0.4122 -0.0578
  166MOL0     C22819   3.792  10.939   2.369 -0.3351 -0.8147 -0.2583
  166MOL0     C22820   3.656  10.960   2.350 -0.2640 -0.5361  0.2811
  166MOL0     N22821   3.032  11.030   2.074 -0.1719 -0.2830 -0.1700
  166MOL0     N22822   2.973  10.996   1.964 -0.2519 -0.2542 -0.9667
  166MOL0     C22823   1.730  10.881   2.218 -0.3308  0.6455  0.3319
  166MOL0     C22824   1.597  10.896   2.194 -0.6452 -0.6199  0.0579
  166MOL0     C22825   1.196  11.093   2.218 -0.2039  0.5528  0.5945
  166MOL0     C22826   1.130  11.194   2.290 -0.5244  0.8540 -0.1993
  166MOL0     C22827   0.989  11.220   2.295  0.3320  0.3341 -0.4789
  166MOL0     C22828   0.908  11.129   2.220 -0.3698 -0.1162  0.3970
  166MOL0     O22829   0.774  11.139   2.221 -0.2021  0.2610  0.0841
  166MOL0     C22830   0.719  11.037   2.308 -0.5970 -0.6559  0.2685
  166MOL0     C22831   0.574  11.073   2.344  0.5677 -1.4671 -0.1981
  166MOL0     C22832   0.478  11.105   2.221 -1.0407  0.3106  0.6381
  166MOL0     C22833   0.449  10.982   2.131 -0.3811 -0.1474 -0.5572
  166MOL0     C22834   0.371  10.878   2.200  0.5107  0.1436 -0.0005
  166MOL0     C22835   0.297  10.819   2.275  1.2819 -0.4190  0.0007
  166MOL0     C22836   0.973  11.022   2.150  0.6664  0.4442  0.1824
  166MOL0     C22837   1.116  11.008   2.137  0.1519  0.2145 -0.6017
  166MOL0     C22838   1.166  10.901   2.048 -0.3942 -0.0329  0.0278
  166MOL0     H22839   1.553  11.217   2.112 -2.4216 -1.0303  0.2718
  166MOL0     H22840   1.818  11.191   2.097  1.4687  1.0768  3.5308
  166MOL0     H22841   1.953  10.880   2.023 -0.2887 -2.0965  0.3241
  166MOL0     H22842   2.000  10.795   2.156 -0.5136 -0.2676 -1.1586
  166MOL0     H22843   2.151  11.035   2.027  3.5572 -1.3644 -1.6280
  166MOL0     H22844   2.207  10.964   2.179 -0.3706  0.7891 -0.1154
  166MOL0     H22845   2.239  10.756   2.077  0.6722  1.2653  2.1525
  166MOL0     H22846   2.172  10.809   1.918 -1.4422  3.8209  0.0427
  166MOL0     H22847   2.352  10.982   1.892 -4.0210  0.0588 -0.1187
  166MOL0     H22848   2.431  10.937   2.042 -1.5787 -0.7201  0.8488
  166MOL0     H22849   2.382  10.727   1.829  0.2198  0.3589 -1.0346
  166MOL0     H22850   2.495  10.729   1.965 -2.2109 -1.6535 -0.4295
  166MOL0     H22851   2.601  10.762   1.742  0.0945 -0.1841  0.9850
  166MOL0     H22852   2.515  10.918   1.727 -1.2525 -0.7981 -0.1940
  166MOL0     H22853   2.639  10.973   1.938 -1.5910 -1.8030 -0.7508
  166MOL0     H22854   2.728  10.988   1.779 -2.0876  0.7945 -1.3266
  166MOL0     H22855   2.755  10.737   1.954 -0.6937  0.6385  0.3857
  166MOL0     H22856   2.862  10.791   1.824  0.0962  2.4032 -0.8422
  166MOL0     H22857   2.794  10.824   2.182  1.2839 -0.7053  0.5488
  166MOL0     H22858   2.932  10.943   2.402  0.1676 -0.9365 -0.3324
  166MOL0     H22859   3.029  11.086   2.360  2.7139 -0.3736  1.7597
  166MOL0     H22860   3.119  10.804   2.336 -2.1767  0.2525 -3.6024
  166MOL0     H22861   3.200  10.955   2.267 -1.0491 -0.2722 -0.1625
  166MOL0     H22862   3.220  11.058   2.489 -1.7541  0.8906 -1.7030
  166MOL0     H22863   3.141  10.913   2.563  0.0422 -0.7499 -0.8125
  166MOL0     H22864   3.369  10.868   2.606  0.4548 -1.5316  0.1934
  166MOL0     H22865   3.305  10.755   2.488  0.3502 -0.2340 -0.0250
  166MOL0     H22866   3.541  10.735   2.563  1.3755  0.3761  2.2602
  166MOL0     H22867   3.821  10.677   2.705 -0.3625  1.0508 -0.4967
  166MOL0     H22868   3.836  10.562   2.568  1.9602 -0.4962  1.8501
  166MOL0     H22869   3.677  10.604   2.640  0.2022  0.0271  0.5496
  166MOL0     H22870   4.232  11.038   2.449 -0.4007 -0.8479  3.2694
  166MOL0     H22871   4.487  11.010   2.475  2.5255 -1.7690 -0.7001
  166MOL0     H22872   4.610  10.576   2.543 -2.2068  0.2868 -0.3344
  166MOL0     H22873   4.684  10.603   2.379 -0.3520  1.0864  0.9586
  166MOL0     H22874   4.769  10.704   2.657 -1.6874  2.2486 -1.6690
  166MOL0     H22875   4.846  10.564   2.569  1.8921  0.9301  1.3664
  166MOL0     H22876   4.983  10.767   2.579 -3.4269  1.8067  2.9208
  166MOL0     H22877   4.872  10.866   2.501  2.8189  1.1467 -0.7011
  166MOL0     H22878   4.875  10.663   2.313 -0.7679 -3.6637  3.5783
  166MOL0     H22879   5.013  10.611   2.411  1.5173 -0.1612 -0.4884
  166MOL0     H22880   5.001  10.899   2.315 -2.0884 -0.2898  0.7595
  166MOL0     H22881   5.134  10.810   2.388  0.4052 -1.3612 -0.0713
  166MOL0     H22882   5.024  10.748   2.111 -0.0487 -0.3354 -0.1667
  166MOL0     H22883   5.176  10.681   2.177 -0.8935 -0.1540 -3.5917
  166MOL0     H22884   5.290  10.892   2.177  0.3469  0.3863 -1.4077
  166MOL0     H22885   5.147  10.980   2.167  0.4055  0.7416 -2.4537
  166MOL0     H22886   5.286  10.985   1.960  1.8309 -0.4315  3.3920
  166MOL0     H22887   5.123  10.930   1.924 -0.0567 -4.0895 -1.6199
  166MOL0     H22888   4.428  10.585   2.364  2.8822  1.2204 -2.6136
  166MOL0     H22889   4.196  10.644   2.304 -2.0180  0.8422  0.0607
  166MOL0     H22890   3.854  10.991   2.296 -4.0010  3.5129 -0.7150
  166MOL0     H22891   3.623  11.042   2.286 -1.8317  2.0791  4.0680
  166MOL0     H22892   1.788  10.791   2.239  3.1254  2.6799  0.2525
  166MOL0     H22893   1.544  10.808   2.229 -2.2129  0.5936  0.8915
  166MOL0     H22894   1.189  11.268   2.344  1.7948 -1.1028  0.1193
  166MOL0     H22895   0.942  11.307   2.340  0.7740 -0.2674  1.2195
  166MOL0     H22896   0.729  10.934   2.274 -0.0376 -0.5025 -0.0446
  166MOL0     H22897   0.778  11.029   2.400 -2.0469  0.7778  1.3889
  166MOL0     H22898   0.574  11.155   2.415  0.3290 -2.6337  1.2006
  166MOL0     H22899   0.539  10.984   2.397  0.4877 -1.3473 -0.0492
  166MOL0     H22900   0.379  11.134   2.258 -1.8728 -2.7776  1.1100
  166MOL0     H22901   0.524  11.181   2.158  1.2498 -1.1001  0.5227
  166MOL0     H22902   0.544  10.952   2.086  0.2887 -0.5494  1.0684
  166MOL0     H22903   0.388  11.007   2.044 -1.5257  0.5458  0.4089
  166MOL0     H22904   0.231  10.757   2.332 -0.0465  0.2420 -0.7605
  166MOL0     H22905   0.900  10.957   2.103 -3.3157  2.0096  3.6745
  166MOL0     H22906   1.227  10.940   1.966 -2.5449  0.3423 -1.4809
  166MOL0     H22907   1.229  10.839   2.112  0.1157  2.4374  2.0599
  166MOL0     H22908   1.078  10.849   2.007  0.5133 -1.6917  0.0865
  167MOL0     O22909  10.781   9.462  10.769  0.3366  0.4269  0.2478
  167MOL0     C22910  10.786   9.341  10.736  0.5686  0.7018  0.8814
  167MOL0     O22911  10.894   9.258  10.749 -0.0103  0.4359  0.1102
  167MOL0     C22912  10.997   9.310  10.818  0.1594  0.0812 -0.4350
  167MOL0     C22913  11.115   9.341  10.748 -0.3258  0.2325 -0.2622
  167MOL0     C22914  11.220   9.401  10.818 -0.7280  0.0908 -0.3548
  167MOL0     C22915  11.219   9.429  10.959  0.4834 -0.4930 -0.1389
  167MOL0     O22916  11.337   9.470  11.013 -0.2974  0.4059 -0.2469
  167MOL0     C22917  11.326   9.523  11.147 -0.3066 -1.1346 -0.2814
  167MOL0     C22918  11.469   9.577  11.182  0.3995 -0.6857 -0.2092
  167MOL0     C22919  11.564   9.462  11.183 -0.0526  0.1271 -0.5701
  167MOL0     C22920  11.689   9.508  11.258  0.0898 -0.6698  0.0447
  167MOL0     C22921  11.813   9.419  11.241  1.4230  0.3435 -0.1801
  167MOL0     C22922  11.785   9.279  11.293 -0.5014  0.7332 -0.6783
  167MOL0     C22923  11.928   9.210  11.327  0.3181  0.8552 -0.2167
  167MOL0     C22924  11.944   9.192  11.469  0.8431 -0.5153 -0.3963
  167MOL0     N22925  12.086   9.168  11.494  0.2005  0.5046 -0.2441
  167MOL0     C22926  12.151   9.053  11.459 -1.1414  0.8576 -0.0862
  167MOL0     C22927  12.279   9.079  11.503 -0.0845 -0.0196  0.3671
  167MOL0     C22928  12.396   8.987  11.500  0.3202  0.2675 -0.1642
  167MOL0     C22929  12.429   8.976  11.350  0.3767  0.4110  0.4691
  167MOL0     C22930  12.565   8.912  11.346 -1.1620  0.1494  0.3348
  167MOL0     C22931  12.623   8.907  11.200 -0.0312 -0.9448 -0.6003
  167MOL0     O22932  12.758   8.860  11.215 -0.6659  0.1188  0.4427
  167MOL0     C22933  12.845   8.846  11.108 -0.2571 -0.1400  0.6733
  167MOL0     C22934  12.808   8.819  10.978  0.4347  0.1410 -0.0522
  167MOL0     C22935  12.905   8.815  10.871 -0.9555  0.0470  0.0926
  167MOL0     C22936  12.848   8.785  10.728  0.3377 -0.1964  0.3256
  167MOL0     C22937  13.047   8.823  10.902 -0.3323  0.0395 -0.6788
  167MOL0     C22938  13.155   8.795  10.808 -1.2539  0.7520 -0.1209
  167MOL0     O22939  13.270   8.762  10.859 -1.0962  0.1199  0.9535
  167MOL0     C22940  13.371   8.701  10.791  1.2563 -0.2587 -0.5665
  167MOL0     C22941  13.355   8.587  10.713  0.1556  0.3430  0.1292
  167MOL0     C22942  13.464   8.524  10.652  0.2157  0.0837 -0.5761
  167MOL0     C22943  13.596   8.566  10.688  0.5865  0.4924 -0.1978
  167MOL0     O22944  13.693   8.496  10.624  0.4326 -0.1979  0.0257
  167MOL0     C22945  13.822   8.553  10.609 -0.4010 -0.8901 -0.5288
  167MOL0     C22946  13.918   8.449  10.547  0.0610 -0.1912  0.3095
  167MOL0     C22947  13.877   8.423  10.405  0.3888 -0.0231  0.2834
  167MOL0     C22948  13.972   8.316  10.344 -0.0371 -0.6216  0.6454
  167MOL0     C22949  13.930   8.269  10.201  0.8399  0.2740  0.3389
  167MOL0     C22950  13.983   8.362  10.090 -0.6037  1.7139  0.7998
  167MOL0     C22951  13.951   8.299   9.952 -0.3645 -0.2955  0.3759
  167MOL0     C22952  13.939   8.400   9.830 -0.1739  0.2179 -0.5752
  167MOL0    Cl22953  13.888   8.306   9.683 -0.0841  0.2353 -0.0283
  167MOL0     C22954  13.618   8.669  10.774  0.2712 -0.3357 -0.2835
  167MOL0     C22955  13.504   8.736  10.826  0.4170  0.8325  0.4525
  167MOL0     O22956  13.134   8.801  10.688 -0.5556  0.2731  0.0285
  167MOL0     C22957  13.072   8.831  11.041  0.1467  0.7467 -0.4334
  167MOL0     C22958  12.979   8.853  11.137 -0.1170  0.2484 -0.2871
  167MOL0     N22959  12.286   9.203  11.555  0.0429 -0.2042 -0.7854
  167MOL0     N22960  12.172   9.255  11.557  0.2042  0.0801 -0.0163
  167MOL0     C22961  11.098   9.398  11.023  0.3084  1.0500 -0.1117
  167MOL0     C22962  10.990   9.328  10.962 -0.6432 -0.1555  0.3094
  167MOL0     C22963  10.659   9.282  10.682 -0.3957  1.3418  0.2787
  167MOL0     C22964  10.620   9.148  10.717 -0.2752 -0.0175  0.7684
  167MOL0     C22965  10.503   9.088  10.672  1.1320 -0.2799 -0.2276
  167MOL0     C22966  10.418   9.156  10.585 -0.0926 -0.3323  0.2476
  167MOL0     O22967  10.307   9.095  10.550  0.4430 -0.5308 -0.2461
  167MOL0     C22968  10.210   9.155  10.471 -0.5401 -0.3715 -0.4734
  167MOL0     C22969  10.229   9.124  10.318  0.9021 -0.2488 -0.3634
  167MOL0     C22970  10.365   9.153  10.250  0.3973  1.3597  0.0365
  167MOL0     C22971  10.373   9.298  10.192  0.3077  0.1615 -0.1709
  167MOL0     C22972  10.510   9.348  10.172 -0.2702  0.0524 -0.7043
  167MOL0     C22973  10.612   9.388  10.130 -0.6451 -0.0665 -0.4880
  167MOL0     C22974  10.455   9.290  10.539 -0.1779  0.2442  0.6651
  167MOL0     C22975  10.575   9.349  10.589 -0.3202 -0.2004 -0.3240
  167MOL0     C22976  10.623   9.482  10.526 -0.6125 -0.0766  0.3664
  167MOL0     H22977  11.113   9.322  10.642  1.4945  1.8154 -0.6358
  167MOL0     H22978  11.306   9.418  10.754  1.0797  0.9122  2.1332
  167MOL0     H22979  11.306   9.443  11.219  0.6848 -0.3779  0.8608
  167MOL0     H22980  11.255   9.606  11.156  0.8833 -0.2824  2.1115
  167MOL0     H22981  11.503   9.644  11.103 -2.0525 -1.3636 -1.9553
  167MOL0     H22982  11.473   9.614  11.285  4.3860  2.8401 -1.3508
  167MOL0     H22983  11.540   9.365  11.227  0.6896 -0.4949 -1.4778
  167MOL0     H22984  11.583   9.442  11.077 -1.8321 -2.8684 -0.4559
  167MOL0     H22985  11.717   9.606  11.218  0.8340  1.4783  4.9870
  167MOL0     H22986  11.657   9.514  11.363 -0.3337  0.7796 -0.1532
  167MOL0     H22987  11.885   9.473  11.304 -1.0499  3.2401  0.3826
  167MOL0     H22988  11.825   9.402  11.134 -1.8901  1.3907 -0.8217
  167MOL0     H22989  11.718   9.287  11.379  0.6708  1.9251  0.1716
  167MOL0     H22990  11.731   9.220  11.219  1.2389 -0.1083 -1.3258
  167MOL0     H22991  12.011   9.268  11.286  0.5118  0.5425 -0.2719
  167MOL0     H22992  11.943   9.110  11.285  0.6363 -0.0769  1.9886
  167MOL0     H22993  11.903   9.282  11.515  2.4576 -0.5253  1.1797
  167MOL0     H22994  11.888   9.110  11.514  0.3089 -1.0795 -2.0233
  167MOL0     H22995  12.119   8.958  11.418 -1.8630  1.2604 -0.4629
  167MOL0     H22996  12.370   8.890  11.543 -1.3700  0.5762 -0.4391
  167MOL0     H22997  12.482   9.031  11.552  0.7877  0.1349 -0.8210
  167MOL0     H22998  12.351   8.921  11.296 -1.0238  0.7056  2.1279
  167MOL0     H22999  12.439   9.069  11.293  3.1889 -1.0193 -1.6348
  167MOL0     H23000  12.636   8.973  11.404 -1.3434 -0.2881  1.0329
  167MOL0     H23001  12.573   8.812  11.390  0.4870 -0.1575 -0.5631
  167MOL0     H23002  12.565   8.837  11.138  0.3924 -3.7482  1.9167
  167MOL0     H23003  12.623   9.007  11.156  1.0223 -0.9225 -0.5724
  167MOL0     H23004  12.702   8.816  10.956  0.5826  0.0979 -0.7897
  167MOL0     H23005  12.740   8.765  10.724  0.3196  0.1291 -1.5063
  167MOL0     H23006  12.902   8.701  10.683  2.4620 -0.7074  3.5166
  167MOL0     H23007  12.858   8.871  10.662  0.7925 -1.5881 -1.5148
  167MOL0     H23008  13.256   8.563  10.676  0.1258  0.6218  0.0292
  167MOL0     H23009  13.469   8.448  10.574 -0.0270  1.8851 -2.4118
  167MOL0     H23010  13.819   8.642  10.546 -0.9242  0.6737  1.5839
  167MOL0     H23011  13.866   8.588  10.703 -0.5789  1.7536 -1.3762
  167MOL0     H23012  14.018   8.492  10.556 -0.7380  2.2665 -1.4071
  167MOL0     H23013  13.918   8.356  10.603 -3.2856  0.4657  1.6474
  167MOL0     H23014  13.896   8.512  10.344  2.6502  1.1604  2.5614
  167MOL0     H23015  13.775   8.386  10.390  0.1355  1.8168 -3.8303
  167MOL0     H23016  13.972   8.224  10.403  0.8094 -0.2572  1.2356
  167MOL0     H23017  14.079   8.337  10.345  0.0756 -1.0328  2.9531
  167MOL0     H23018  13.961   8.164  10.186  1.3726  0.1857  1.8669
  167MOL0     H23019  13.822   8.260  10.185  1.1868 -1.2949 -1.5078
  167MOL0     H23020  14.091   8.371  10.101 -0.1444 -2.5064  1.2399
  167MOL0     H23021  13.943   8.462  10.108  0.4275  2.2302  0.3086
  167MOL0     H23022  13.855   8.249   9.963  0.8512 -2.4367  2.0071
  167MOL0     H23023  14.023   8.220   9.932 -0.6396 -0.8446  1.4536
  167MOL0     H23024  14.038   8.441   9.810 -0.2948  0.8463  0.0468
  167MOL0     H23025  13.875   8.485   9.854  3.0018  2.9204 -0.9860
  167MOL0     H23026  13.714   8.705  10.809 -1.0652  1.8889  1.4207
  167MOL0     H23027  13.526   8.829  10.878 -3.6510  2.9969 -1.2418
  167MOL0     H23028  13.174   8.825  11.076 -0.2929 -1.2520  0.6405
  167MOL0     H23029  13.009   8.871  11.240  1.3439 -1.1220 -0.4408
  167MOL0     H23030  11.084   9.403  11.131  1.3229 -1.9739  0.2602
  167MOL0     H23031  10.897   9.308  11.014 -0.3357  1.7721  1.6914
  167MOL0     H23032  10.692   9.085  10.768 -0.0073 -1.4911 -1.3087
  167MOL0     H23033  10.480   8.984  10.694 -1.8755 -0.0677 -1.8376
  167MOL0     H23034  10.109   9.122  10.498 -0.7007 -0.0529 -0.6831
  167MOL0     H23035  10.206   9.263  10.487  1.7922 -0.6085  2.6002
  167MOL0     H23036  10.155   9.192  10.273  2.3677  0.7581 -1.3450
  167MOL0     H23037  10.203   9.019  10.301  1.1103 -0.1578 -1.3169
  167MOL0     H23038  10.448   9.132  10.318  0.2896  0.7691 -0.0054
  167MOL0     H23039  10.365   9.086  10.163  1.0640 -0.6147  1.4935
  167MOL0     H23040  10.326   9.359  10.270  0.3075 -0.3755  0.2596
  167MOL0     H23041  10.320   9.315  10.099  0.7590 -2.7654 -1.0583
  167MOL0     H23042  10.706   9.425  10.094  0.7421  1.1011  3.8244
  167MOL0     H23043  10.397   9.352  10.471 -0.7678 -0.9254  0.0490
  167MOL0     H23044  10.730   9.468  10.507 -0.1778 -2.6927  3.6952
  167MOL0     H23045  10.561   9.496  10.436  1.2153 -2.1485 -1.3353
  167MOL0     H23046  10.604   9.563  10.597 -0.8901 -0.6679  0.9806
  168MOL0     O23047   3.583   7.547   0.960 -0.3217  0.2260  0.0251
  168MOL0     C23048   3.505   7.643   0.973 -0.8641 -0.2964 -0.5482
  168MOL0     O23049   3.546   7.771   0.955 -0.2507  0.1231 -0.1862
  168MOL0     C23050   3.685   7.804   0.958  1.1379 -0.8047 -0.3324
  168MOL0     C23051   3.787   7.734   1.028  0.4016  0.3267 -0.4963
  168MOL0     C23052   3.918   7.760   1.009 -0.3145 -0.2847 -0.3363
  168MOL0     C23053   3.958   7.845   0.902 -0.3391  0.1084  0.0310
  168MOL0     O23054   4.094   7.861   0.866  0.3697  0.6383 -0.6094
  168MOL0     C23055   4.194   7.769   0.910  0.4650 -0.0977 -0.5060
  168MOL0     C23056   4.329   7.831   0.870  0.0076  0.0861  0.0525
  168MOL0     C23057   4.440   7.720   0.888 -0.1922 -0.3490 -0.3600
  168MOL0     C23058   4.573   7.782   0.864 -0.0689 -0.3456  0.1250
  168MOL0     C23059   4.682   7.684   0.846  0.0936 -0.2695 -0.2513
  168MOL0     C23060   4.802   7.735   0.771  0.7095  0.2877 -0.2822
  168MOL0     C23061   4.928   7.637   0.791 -0.5410  0.5637  0.1284
  168MOL0     C23062   4.984   7.628   0.937 -0.6863  0.2622  0.6191
  168MOL0     N23063   5.056   7.753   0.976  0.2433 -0.0229 -0.8240
  168MOL0     C23064   4.994   7.856   1.035 -0.8706 -0.2514 -0.6042
  168MOL0     C23065   5.084   7.960   1.024  0.4652  0.2991  0.1312
  168MOL0     C23066   5.056   8.098   1.083 -0.1705  0.1671  0.4145
  168MOL0     C23067   5.150   8.115   1.210  0.2901  0.0260  0.3134
  168MOL0     C23068   5.283   8.163   1.169 -0.8298 -0.3716 -0.5504
  168MOL0     C23069   5.369   8.178   1.291 -0.7435 -0.8007  0.0822
  168MOL0     O23070   5.508   8.192   1.259  0.6852  0.7363  0.3811
  168MOL0     C23071   5.559   8.321   1.253 -0.1309  0.6128 -0.5351
  168MOL0     C23072   5.607   8.382   1.361 -0.3553  0.1996 -0.4486
  168MOL0     C23073   5.673   8.506   1.356 -0.3202 -0.6075  0.3446
  168MOL0     C23074   5.720   8.566   1.483 -0.2817  0.3573 -0.2512
  168MOL0     C23075   5.682   8.570   1.228  0.0982  0.8921  0.3847
  168MOL0     C23076   5.755   8.697   1.191 -0.1565  0.3666  0.5855
  168MOL0     O23077   5.755   8.744   1.061  0.0613 -0.4507  0.4885
  168MOL0     C23078   5.816   8.862   1.034 -0.4197  0.2137 -0.3327
  168MOL0     C23079   5.949   8.881   1.072  1.0062 -0.1502 -0.0076
  168MOL0     C23080   6.021   9.000   1.051 -0.9415  0.0311 -0.2309
  168MOL0     C23081   5.962   9.108   0.988  1.0224  0.0625 -0.6447
  168MOL0     O23082   6.038   9.220   0.972 -0.0950  0.6929  0.1063
  168MOL0     C23083   5.982   9.344   0.929 -0.4495 -0.4635  0.2384
  168MOL0     C23084   5.993   9.363   0.784  0.0168 -0.1876  0.3290
  168MOL0     C23085   6.131   9.317   0.734 -0.3126 -0.0297 -0.2709
  168MOL0     C23086   6.159   9.336   0.594  0.5282 -1.2065  0.4505
  168MOL0     C23087   6.294   9.282   0.546 -0.2462 -1.0476 -0.9159
  168MOL0     C23088   6.286   9.128   0.529  0.5336  0.0162  0.7827
  168MOL0     C23089   6.421   9.074   0.501 -1.0802  0.0925 -0.4202
  168MOL0     C23090   6.426   8.921   0.518 -0.3907 -0.2119  0.2345
  168MOL0    Cl23091   6.587   8.859   0.487  0.2895 -0.0676 -0.5301
  168MOL0     C23092   5.827   9.089   0.942  0.1024 -0.0768  0.0924
  168MOL0     C23093   5.756   8.969   0.968 -0.5350 -0.3022  0.6017
  168MOL0     O23094   5.808   8.750   1.288 -0.2094  0.0019 -0.3098
  168MOL0     C23095   5.635   8.501   1.113 -0.3472  0.2668 -0.5342
  168MOL0     C23096   5.579   8.374   1.125 -0.5332 -0.6136 -0.4316
  168MOL0     N23097   5.189   7.917   0.952 -0.2578 -0.1274  0.6227
  168MOL0     N23098   5.173   7.792   0.924  0.8649 -0.0429 -0.3369
  168MOL0     C23099   3.861   7.922   0.838  0.2297 -0.7592 -0.4403
  168MOL0     C23100   3.722   7.901   0.859 -0.1560  0.2515  0.2626
  168MOL0     C23101   3.366   7.624   1.033  0.0664  0.4649  0.5113
  168MOL0     C23102   3.283   7.738   1.046  0.0966 -0.5921  0.8367
  168MOL0     C23103   3.158   7.736   1.102  0.3868 -0.8905 -0.2109
  168MOL0     C23104   3.108   7.618   1.153  0.3429  0.1721  0.3505
  168MOL0     O23105   2.983   7.621   1.220  0.1082  0.8135  0.2966
  168MOL0     C23106   2.868   7.704   1.180 -0.2059  0.9482  0.2042
  168MOL0     C23107   2.799   7.641   1.053  0.4141 -0.3748  0.0460
  168MOL0     C23108   2.691   7.728   0.996 -0.3069 -0.8793  0.4118
  168MOL0     C23109   2.656   7.688   0.853 -0.0798 -0.2496 -0.2594
  168MOL0     C23110   2.523   7.732   0.807 -0.1797 -0.9005 -0.0239
  168MOL0     C23111   2.409   7.760   0.773  0.3299  0.1170 -0.3744
  168MOL0     C23112   3.189   7.512   1.159  0.1256  0.3196 -0.0379
  168MOL0     C23113   3.311   7.506   1.084 -0.0627  0.3301  0.6713
  168MOL0     C23114   3.382   7.372   1.085 -0.6221 -0.2614 -0.0941
  168MOL0     H23115   3.761   7.653   1.096  3.4699  0.2403  0.7179
  168MOL0     H23116   3.981   7.691   1.064 -0.1051 -0.7909 -1.1955
  168MOL0     H23117   4.178   7.669   0.868  1.5811 -0.3088 -0.4527
  168MOL0     H23118   4.181   7.756   1.018  1.8704 -1.9591 -0.5061
  168MOL0     H23119   4.335   7.879   0.772 -0.5093  1.9402  0.8882
  168MOL0     H23120   4.349   7.914   0.939 -2.8742  0.1225  0.9399
  168MOL0     H23121   4.434   7.678   0.989 -0.5383  1.6171  0.4892
  168MOL0     H23122   4.414   7.641   0.817 -2.3259  0.3085 -0.3619
  168MOL0     H23123   4.563   7.846   0.775 -1.2322  0.8296  1.0576
  168MOL0     H23124   4.597   7.850   0.946  4.3165 -3.6913  2.0088
  168MOL0     H23125   4.648   7.603   0.780 -0.3099 -1.1912  1.0349
  168MOL0     H23126   4.713   7.644   0.943 -2.0860 -2.1251 -0.2225
  168MOL0     H23127   4.785   7.739   0.663  0.1699 -1.5206 -0.2973
  168MOL0     H23128   4.828   7.834   0.810 -3.9860  1.2329  1.0320
  168MOL0     H23129   5.004   7.655   0.715 -0.7309 -1.2288 -0.5268
  168MOL0     H23130   4.903   7.532   0.774  2.0117 -0.2513  0.8694
  168MOL0     H23131   4.901   7.611   1.006 -0.8053  1.3282  0.7654
  168MOL0     H23132   5.054   7.545   0.929 -0.1293  0.8851 -2.1710
  168MOL0     H23133   4.895   7.854   1.080 -0.1224 -1.3904  1.1098
  168MOL0     H23134   4.956   8.100   1.129 -0.4004 -0.8692 -0.0255
  168MOL0     H23135   5.070   8.185   1.018 -1.6014 -0.4551 -0.7755
  168MOL0     H23136   5.097   8.190   1.270  1.4436  0.7430  0.4654
  168MOL0     H23137   5.151   8.031   1.280 -1.1768  1.3793  2.0632
  168MOL0     H23138   5.336   8.095   1.101 -0.6448 -1.5511  0.7342
  168MOL0     H23139   5.272   8.256   1.112  4.2386 -0.1253 -1.6699
  168MOL0     H23140   5.332   8.266   1.344  1.2152 -0.2509  0.6120
  168MOL0     H23141   5.352   8.095   1.361  0.2297 -1.1952 -0.1230
  168MOL0     H23142   5.606   8.329   1.456 -0.0127 -3.1693 -2.1812
  168MOL0     H23143   5.683   8.512   1.571 -2.8955  2.2066 -0.0944
  168MOL0     H23144   5.680   8.663   1.515  1.0289  0.3314  1.6747
  168MOL0     H23145   5.828   8.581   1.493 -0.4322  0.5251  1.4634
  168MOL0     H23146   6.005   8.791   1.092 -0.6468 -1.2577 -0.1984
  168MOL0     H23147   6.129   9.000   1.063 -0.9320 -1.4664 -0.2201
  168MOL0     H23148   5.882   9.355   0.973  0.6339  5.0763  2.1092
  168MOL0     H23149   6.039   9.423   0.979 -0.9650  0.4900 -0.6447
  168MOL0     H23150   5.921   9.293   0.740  2.4672 -1.1442 -2.5568
  168MOL0     H23151   5.968   9.466   0.755 -2.7898 -0.9667 -0.3053
  168MOL0     H23152   6.156   9.215   0.764  0.2249  1.0475  3.4287
  168MOL0     H23153   6.208   9.380   0.778 -0.5012 -1.0633  1.6421
  168MOL0     H23154   6.157   9.444   0.574 -3.8842 -1.4303 -1.5732
  168MOL0     H23155   6.069   9.314   0.536 -1.0534  0.6459  2.1020
  168MOL0     H23156   6.318   9.333   0.452  0.0162 -0.0629 -0.3294
  168MOL0     H23157   6.379   9.308   0.610  0.5703 -0.8894 -2.0302
  168MOL0     H23158   6.231   9.109   0.436 -1.5917  2.6620  1.3587
  168MOL0     H23159   6.240   9.075   0.612  1.2151 -1.6406  0.1517
  168MOL0     H23160   6.488   9.112   0.578  0.3222 -0.6119 -1.2638
  168MOL0     H23161   6.454   9.097   0.400  2.5394  1.3280  0.8712
  168MOL0     H23162   6.358   8.875   0.446  0.3368 -0.6263 -0.1943
  168MOL0     H23163   6.396   8.889   0.619  0.5675 -2.2283 -0.0651
  168MOL0     H23164   5.780   9.181   0.908  0.4270  0.3745  0.8349
  168MOL0     H23165   5.655   8.963   0.928  0.8003 -1.3148 -3.0177
  168MOL0     H23166   5.655   8.544   1.016  1.9230  1.2600  0.3048
  168MOL0     H23167   5.556   8.315   1.036  0.8403 -0.2948 -1.0236
  168MOL0     H23168   3.899   8.002   0.776  2.4690 -1.4100 -0.0018
  168MOL0     H23169   3.641   7.949   0.804 -1.8516 -0.6387  1.8849
  168MOL0     H23170   3.320   7.831   1.004 -1.0542  0.6876  2.4873
  168MOL0     H23171   3.095   7.824   1.099  0.2387 -0.9607  0.6698
  168MOL0     H23172   2.791   7.706   1.257  2.2430 -0.8025  2.9068
  168MOL0     H23173   2.891   7.809   1.159 -1.9119  1.2116 -0.5351
  168MOL0     H23174   2.770   7.536   1.067  0.4505 -0.2700  0.9739
  168MOL0     H23175   2.880   7.629   0.980 -0.8316 -1.8181 -1.1763
  168MOL0     H23176   2.600   7.712   1.053  0.0286  1.9336  1.9066
  168MOL0     H23177   2.716   7.834   1.005 -1.6033 -0.0975 -3.3181
  168MOL0     H23178   2.677   7.583   0.831  2.4790  0.1753 -0.1944
  168MOL0     H23179   2.735   7.728   0.789  1.1852  0.7793  1.8206
  168MOL0     H23180   2.312   7.799   0.750  1.0657  1.7426 -0.8149
  168MOL0     H23181   3.162   7.425   1.218 -0.4063  1.3671  1.3003
  168MOL0     H23182   3.385   7.337   0.981  0.7211  0.9171 -0.4734
  168MOL0     H23183   3.484   7.378   1.123  0.6374  0.3391 -3.2551
  168MOL0     H23184   3.331   7.294   1.142  1.0235  0.3942  2.4091
  169MOL0     O23185   2.918   9.145   0.021 -0.1878 -0.7121 -0.3933
  169MOL0     C23186   2.943   9.135   0.141  0.0787 -0.4025 -0.0707
  169MOL0     O23187   3.066   9.141   0.199 -0.0088  0.2525  0.5397
  169MOL0     C23188   3.163   9.181   0.110 -0.0963 -0.4439  0.0383
  169MOL0     C23189   3.231   9.085   0.036 -0.2862  0.5277 -0.6370
  169MOL0     C23190   3.329   9.126  -0.059  0.8629  0.3203  0.1107
  169MOL0     C23191   3.363   9.259  -0.087  0.4661 -0.2178 -0.0757
  169MOL0     O23192   3.462   9.285  -0.173  0.8122  0.5128 -0.3779
  169MOL0     C23193   3.502   9.420  -0.190 -0.0227 -0.3745  0.5842
  169MOL0     C23194   3.621   9.403  -0.290  0.3047  0.2542  0.2352
  169MOL0     C23195   3.657   9.548  -0.330 -0.5766  0.1219 -0.1559
  169MOL0     C23196   3.786   9.546  -0.429  0.4002  0.1330  0.2779
  169MOL0     C23197   3.844   9.686  -0.456 -0.4345  0.4196  0.2625
  169MOL0     C23198   3.967   9.677  -0.545 -0.7827 -0.1311 -0.1845
  169MOL0     C23199   4.055   9.803  -0.520 -0.1549 -0.2997 -0.0175
  169MOL0     C23200   4.172   9.807  -0.615  0.4812  0.1006 -1.0748
  169MOL0     N23201   4.237   9.938  -0.626  0.0914 -0.5389  0.5151
  169MOL0     C23202   4.225  10.024  -0.726 -0.5164 -0.0989  0.4615
  169MOL0     C23203   4.322  10.118  -0.702 -0.2035  0.1603  0.1868
  169MOL0     C23204   4.344  10.234  -0.797 -0.4552 -0.1838 -0.2533
  169MOL0     C23205   4.360  10.181  -0.948  0.3941 -0.4182  0.2002
  169MOL0     C23206   4.403  10.283  -1.053 -0.4415  0.2157  0.2855
  169MOL0     C23207   4.410  10.205  -1.189 -0.2462  0.2334 -0.4283
  169MOL0     O23208   4.479  10.278  -1.288 -0.0996 -0.4574 -0.8118
  169MOL0     C23209   4.620  10.281  -1.295  0.0361 -0.3941 -0.1093
  169MOL0     C23210   4.710  10.231  -1.196  0.2370 -0.4007  0.5688
  169MOL0     C23211   4.840  10.279  -1.188 -0.0362 -0.3612  0.2670
  169MOL0     C23212   4.926  10.218  -1.080  0.1347 -0.8161  0.5037
  169MOL0     C23213   4.888  10.376  -1.276  0.0230  0.0509  0.1471
  169MOL0     C23214   5.032  10.415  -1.278  0.2093 -0.1593  0.0912
  169MOL0     O23215   5.056  10.531  -1.350 -0.2458 -0.3845  0.0311
  169MOL0     C23216   5.183  10.553  -1.381  0.1024  0.5514  0.2495
  169MOL0     C23217   5.289  10.554  -1.282 -0.0121 -0.0578  0.4673
  169MOL0     C23218   5.418  10.592  -1.326 -0.5148 -0.7596 -0.0151
  169MOL0     C23219   5.448  10.619  -1.465 -0.2966  0.2413 -0.1743
  169MOL0     O23220   5.570  10.658  -1.518  0.2239 -0.2227  0.1178
  169MOL0     C23221   5.682  10.674  -1.432  0.1159 -0.2329  0.2982
  169MOL0     C23222   5.802  10.717  -1.519 -0.1429  0.5557 -0.0537
  169MOL0     C23223   5.936  10.724  -1.439 -0.0120  0.8195 -0.4345
  169MOL0     C23224   6.047  10.765  -1.533 -0.8830 -0.5112 -0.1116
  169MOL0     C23225   6.178  10.712  -1.480  0.2368  0.4478 -0.0009
  169MOL0     C23226   6.304  10.770  -1.535  0.5997 -0.9098  0.4713
  169MOL0     C23227   6.438  10.737  -1.462 -0.6062 -0.1703  0.5686
  169MOL0     C23228   6.501  10.595  -1.485 -0.2262 -0.1476 -0.7478
  169MOL0    Cl23229   6.653  10.571  -1.399 -0.2371  0.0516 -0.3930
  169MOL0     C23230   5.345  10.603  -1.556 -0.5086  0.7111  0.7163
  169MOL0     C23231   5.216  10.567  -1.516 -0.5723 -0.4354  0.1248
  169MOL0     O23232   5.117  10.341  -1.221 -0.3694 -0.0409  0.0445
  169MOL0     C23233   4.800  10.434  -1.373  0.1682  0.7940  0.5700
  169MOL0     C23234   4.663  10.388  -1.381 -1.0070 -0.5374  0.6254
  169MOL0     N23235   4.388  10.078  -0.591  0.3605  0.2915 -0.6712
  169MOL0     N23236   4.334   9.976  -0.538 -0.5302  0.3478 -0.3318
  169MOL0     C23237   3.297   9.352  -0.004 -0.1531 -0.7265  0.0977
  169MOL0     C23238   3.199   9.311   0.091 -0.1734  0.3270  0.0245
  169MOL0     C23239   2.834   9.075   0.224  0.4840 -0.3086  0.0638
  169MOL0     C23240   2.863   9.006   0.350  0.2134  0.4082  0.7552
  169MOL0     C23241   2.760   8.968   0.436 -0.0049 -0.2520  0.5399
  169MOL0     C23242   2.625   8.990   0.398  0.3805 -0.0350 -0.1606
  169MOL0     O23243   2.538   8.959   0.496  0.0616  0.3438 -0.6368
  169MOL0     C23244   2.403   8.987   0.472  0.0637 -0.6335  0.2494
  169MOL0     C23245   2.309   8.945   0.579  0.1300  0.0003 -0.2154
  169MOL0     C23246   2.164   8.920   0.535 -1.0639 -1.3207 -0.4183
  169MOL0     C23247   2.074   8.866   0.642 -0.1307 -0.0738 -1.0928
  169MOL0     C23248   1.933   8.893   0.602 -0.7977 -0.1073  0.3079
  169MOL0     C23249   1.822   8.906   0.563 -0.1841  0.3483 -0.4059
  169MOL0     C23250   2.593   9.048   0.274  0.4235  0.1871 -0.2228
  169MOL0     C23251   2.697   9.095   0.189  0.0520  0.1707 -0.1474
  169MOL0     C23252   2.654   9.181   0.070 -0.2198 -0.0890 -0.0218
  169MOL0     H23253   3.210   8.981   0.058 -1.3370  1.0800  1.1183
  169MOL0     H23254   3.388   9.052  -0.113  2.2616 -0.7936  2.9584
  169MOL0     H23255   3.535   9.479  -0.103  4.9410  2.0760 -2.5172
  169MOL0     H23256   3.423   9.471  -0.245  0.1847 -0.6015  0.0673
  169MOL0     H23257   3.705   9.356  -0.238  0.9400  2.8526  1.7346
  169MOL0     H23258   3.585   9.344  -0.375 -1.0059  0.0918  0.8891
  169MOL0     H23259   3.575   9.597  -0.383  0.2372 -2.6376 -4.5074
  169MOL0     H23260   3.677   9.614  -0.246 -0.8912  0.4550 -0.3413
  169MOL0     H23261   3.860   9.478  -0.385 -1.4078 -2.2404 -0.1315
  169MOL0     H23262   3.754   9.503  -0.524  0.7249  3.5054 -1.4986
  169MOL0     H23263   3.867   9.734  -0.360  0.2727  0.4763  0.0744
  169MOL0     H23264   3.768   9.753  -0.497 -0.0784  0.2217 -0.7507
  169MOL0     H23265   4.020   9.584  -0.523 -2.8640 -1.0882  1.0570
  169MOL0     H23266   3.927   9.677  -0.647 -1.5867  1.0899  0.1035
  169MOL0     H23267   4.094   9.805  -0.418 -1.2257 -1.4468  0.4538
  169MOL0     H23268   3.989   9.889  -0.539 -1.2327 -1.5794 -2.7551
  169MOL0     H23269   4.242   9.741  -0.562 -1.8435 -1.8053 -0.2307
  169MOL0     H23270   4.154   9.764  -0.714 -0.5776  2.2507 -1.8743
  169MOL0     H23271   4.152  10.011  -0.806 -0.8353 -1.2004  0.9168
  169MOL0     H23272   4.436  10.281  -0.762 -1.5110  1.4002  0.5214
  169MOL0     H23273   4.262  10.306  -0.785 -0.6908 -0.2936 -1.1254
  169MOL0     H23274   4.432  10.098  -0.949 -2.2242 -2.8356 -1.1319
  169MOL0     H23275   4.271  10.128  -0.982 -0.1061 -0.2474  1.1855
  169MOL0     H23276   4.326  10.361  -1.061 -0.0854  0.3549 -2.6286
  169MOL0     H23277   4.503  10.314  -1.023 -0.9608 -0.8178  3.4684
  169MOL0     H23278   4.466  10.113  -1.170  1.2168  1.0759 -0.4917
  169MOL0     H23279   4.310  10.174  -1.218  0.9865 -3.7433 -1.1133
  169MOL0     H23280   4.680  10.156  -1.123  2.8967 -0.5693  1.6294
  169MOL0     H23281   4.970  10.294  -1.015  0.6853 -0.8548  0.1794
  169MOL0     H23282   5.003  10.159  -1.129  1.2261 -0.8187  2.1522
  169MOL0     H23283   4.872  10.141  -1.023 -0.1368 -1.5767 -0.7399
  169MOL0     H23284   5.278  10.533  -1.177  4.0216 -1.8928  0.7243
  169MOL0     H23285   5.491  10.604  -1.246 -4.4311  0.3225  3.8073
  169MOL0     H23286   5.655  10.763  -1.374 -2.1282 -0.7844  0.2327
  169MOL0     H23287   5.699  10.588  -1.366 -0.7540  0.0976  0.9767
  169MOL0     H23288   5.813  10.646  -1.601  1.6255  0.0332  0.5946
  169MOL0     H23289   5.783  10.816  -1.563  0.2662  1.0532  0.8566
  169MOL0     H23290   5.952  10.626  -1.394 -1.0146  0.8407  0.0066
  169MOL0     H23291   5.939  10.793  -1.354  2.0715 -0.6531  0.7769
  169MOL0     H23292   6.053  10.873  -1.551  3.3034 -0.4645  0.6491
  169MOL0     H23293   6.036  10.717  -1.631 -2.4386 -1.3244  0.4245
  169MOL0     H23294   6.182  10.742  -1.375 -1.0838 -0.5131  0.3546
  169MOL0     H23295   6.173  10.604  -1.498 -3.6279  0.8288 -2.5885
  169MOL0     H23296   6.283  10.877  -1.537  0.4018 -0.9515  0.3293
  169MOL0     H23297   6.311  10.734  -1.638 -1.0919 -4.9338  1.5546
  169MOL0     H23298   6.425  10.759  -1.356 -0.4356  1.6356  0.2479
  169MOL0     H23299   6.514  10.802  -1.507  0.0334 -1.0521  0.3585
  169MOL0     H23300   6.507  10.569  -1.591 -2.2173  0.0370 -0.9578
  169MOL0     H23301   6.430  10.527  -1.437  0.9492 -0.4171  0.6648
  169MOL0     H23302   5.366  10.609  -1.663 -1.2050 -1.4437  0.4038
  169MOL0     H23303   5.153  10.563  -1.604  0.3629  2.7974 -0.8363
  169MOL0     H23304   4.834  10.510  -1.444  2.4276 -1.1557 -0.5810
  169MOL0     H23305   4.592  10.451  -1.434  0.0441  0.2033  0.0600
  169MOL0     H23306   3.320   9.457  -0.018 -0.5347 -0.8292 -1.5438
  169MOL0     H23307   3.147   9.375   0.162  4.5340  1.8027  2.5810
  169MOL0     H23308   2.964   8.984   0.384 -0.8048 -1.1246  2.9528
  169MOL0     H23309   2.781   8.938   0.539 -0.5582  1.1104  1.0664
  169MOL0     H23310   2.386   9.095   0.472  1.8094 -0.3269 -0.4728
  169MOL0     H23311   2.378   8.947   0.374  0.4070 -0.0080 -0.1055
  169MOL0     H23312   2.301   9.019   0.660 -0.9495 -0.5613  0.2069
  169MOL0     H23313   2.338   8.850   0.624  1.4149  0.2448 -0.4870
  169MOL0     H23314   2.123   9.014   0.497 -1.5808 -1.3424  0.0854
  169MOL0     H23315   2.170   8.854   0.447 -0.0214 -1.4742 -0.2467
  169MOL0     H23316   2.091   8.923   0.734 -1.3035 -0.5017 -0.5943
  169MOL0     H23317   2.097   8.759   0.656 -0.2016  0.0652  0.1876
  169MOL0     H23318   1.727   8.922   0.517 -1.5245 -2.1363  1.2490
  169MOL0     H23319   2.490   9.064   0.241  0.9079 -0.2581 -2.0399
  169MOL0     H23320   2.647   9.132  -0.028  0.7346  2.2278 -1.3272
  169MOL0     H23321   2.553   9.220   0.082  0.3269  1.8568 -1.2470
  169MOL0     H23322   2.714   9.272   0.065 -0.8546  0.3437  0.2460
  170MOL0     O23323  11.112   0.373   2.715  1.0383 -0.8783 -0.1569
  170MOL0     C23324  11.022   0.391   2.791 -0.2209  0.2957 -0.0463
  170MOL0     O23325  11.033   0.455   2.915 -0.4722  1.0918  0.0763
  170MOL0     C23326  11.157   0.511   2.937  0.7054 -0.4081  0.7546
  170MOL0     C23327  11.259   0.436   2.989  0.4976 -0.3679  0.2701
  170MOL0     C23328  11.379   0.502   3.016 -0.2078 -0.9205  0.8286
  170MOL0     C23329  11.405   0.634   2.990  0.3845 -0.6046 -0.5004
  170MOL0     O23330  11.529   0.683   3.021  0.9768  0.5899  0.2662
  170MOL0     C23331  11.570   0.793   2.938 -0.0891  0.2749  0.1858
  170MOL0     C23332  11.713   0.763   2.905 -0.3378 -0.1782 -0.7433
  170MOL0     C23333  11.796   0.884   2.859 -1.6153  0.6411  0.4642
  170MOL0     C23334  11.950   0.859   2.875  0.0578  0.4454 -0.3641
  170MOL0     C23335  12.034   0.943   2.770  0.3987 -0.4722 -0.3123
  170MOL0     C23336  12.038   1.092   2.800 -0.8699  0.3573 -0.1476
  170MOL0     C23337  12.101   1.120   2.942 -0.3743 -0.6709  0.7332
  170MOL0     C23338  12.094   1.267   2.980  0.6373 -0.9116  0.4528
  170MOL0     N23339  12.202   1.349   2.915 -0.1464  0.1763  0.7596
  170MOL0     C23340  12.333   1.374   2.952  0.1991 -0.4828  0.6888
  170MOL0     C23341  12.374   1.447   2.847  0.5143 -0.6636  0.5555
  170MOL0     C23342  12.502   1.521   2.850 -0.9498  0.6208  0.6367
  170MOL0     C23343  12.605   1.459   2.747  0.0264 -0.6053  0.9763
  170MOL0     C23344  12.617   1.304   2.751  0.7724 -0.7430 -0.6025
  170MOL0     C23345  12.712   1.257   2.639  0.6198 -0.0964  1.0110
  170MOL0     O23346  12.820   1.352   2.617 -0.1221  0.6045 -0.0404
  170MOL0     C23347  12.928   1.345   2.707 -0.6431  0.2717 -0.1133
  170MOL0     C23348  12.946   1.257   2.810 -0.7138  0.3788 -0.1184
  170MOL0     C23349  13.058   1.261   2.896  0.2187 -0.2960 -0.5307
  170MOL0     C23350  13.047   1.160   3.007  0.9326  0.3738  0.1845
  170MOL0     C23351  13.152   1.365   2.885 -0.4666  0.9555  0.5956
  170MOL0     C23352  13.268   1.389   2.978 -0.4978  0.8272  0.0986
  170MOL0     O23353  13.350   1.499   2.956  0.0014 -0.5561 -0.6279
  170MOL0     C23354  13.477   1.522   3.009  0.2209 -0.3595 -0.4981
  170MOL0     C23355  13.562   1.615   2.946  0.5313  1.4765  0.0457
  170MOL0     C23356  13.684   1.641   3.008  0.4060 -0.0462 -0.3778
  170MOL0     C23357  13.731   1.567   3.116 -0.4682  0.3887  0.6191
  170MOL0     O23358  13.859   1.583   3.159 -0.3776 -0.0275  0.5419
  170MOL0     C23359  13.920   1.712   3.141 -0.0590 -0.9477 -0.2301
  170MOL0     C23360  14.054   1.705   3.216  0.3293 -0.0891  0.1876
  170MOL0     C23361  14.146   1.595   3.151  0.9453 -0.1131 -0.2629
  170MOL0     C23362  14.267   1.564   3.243  0.3241 -0.2802 -0.3133
  170MOL0     C23363  14.358   1.448   3.183 -0.7120 -0.3984  0.2762
  170MOL0     C23364  14.304   1.309   3.182  0.5800 -0.9445 -0.1327
  170MOL0     C23365  14.428   1.210   3.171  0.8653 -0.4021  0.2207
  170MOL0     C23366  14.497   1.191   3.036 -0.3723 -0.4576 -0.4793
  170MOL0    Cl23367  14.381   1.135   2.911 -0.3350  0.2259 -0.0044
  170MOL0     C23368  13.651   1.477   3.174  0.3910  0.1215 -0.3376
  170MOL0     C23369  13.520   1.457   3.126 -0.0330 -0.8920  0.3375
  170MOL0     O23370  13.280   1.308   3.069  0.2891 -0.5511 -0.0521
  170MOL0     C23371  13.134   1.462   2.779  0.4053 -0.7244  0.5963
  170MOL0     C23372  13.023   1.450   2.698 -0.0233 -0.4909  0.0903
  170MOL0     N23373  12.273   1.479   2.755 -0.4248 -0.0358  0.1282
  170MOL0     N23374  12.170   1.413   2.799  0.3426  0.4503 -0.6641
  170MOL0     C23375  11.302   0.713   2.938  1.0582  0.4555 -0.3027
  170MOL0     C23376  11.175   0.649   2.915 -0.2276  0.3527  0.6507
  170MOL0     C23377  10.882   0.360   2.749  0.0548 -0.1869 -0.0685
  170MOL0     C23378  10.776   0.430   2.817  0.3089  0.2476 -0.2497
  170MOL0     C23379  10.644   0.439   2.762 -0.4278 -0.9127  0.5271
  170MOL0     C23380  10.614   0.377   2.633 -1.0029  0.1819  0.1365
  170MOL0     O23381  10.503   0.393   2.557 -0.3631 -0.6506  0.1086
  170MOL0     C23382  10.381   0.449   2.624  0.5481  0.3532  0.5092
  170MOL0     C23383  10.255   0.416   2.545  0.4951 -0.2524  0.3711
  170MOL0     C23384  10.246   0.266   2.546  0.0305  0.1733  0.2205
  170MOL0     C23385  10.164   0.215   2.432  0.0004 -0.4331 -0.0076
  170MOL0     C23386  10.021   0.224   2.453 -1.1017 -0.5765  0.0258
  170MOL0     C23387   9.896   0.221   2.443  0.4061  0.5424 -0.1623
  170MOL0     C23388  10.721   0.306   2.577  0.6185  0.0520  0.0057
  170MOL0     C23389  10.848   0.285   2.632 -0.2035 -0.8841  0.7747
  170MOL0     C23390  10.950   0.212   2.541 -0.9268 -0.2045  0.0934
  170MOL0     H23391  11.244   0.332   3.016 -2.4596 -0.2848 -0.6256
  170MOL0     H23392  11.457   0.448   3.069 -0.5639 -0.8554  1.4300
  170MOL0     H23393  11.561   0.884   2.996 -0.9973 -0.0105  0.5089
  170MOL0     H23394  11.510   0.815   2.849 -1.0164  3.3537  1.4373
  170MOL0     H23395  11.761   0.724   2.995 -0.8287  1.0652  0.0897
  170MOL0     H23396  11.720   0.685   2.829  0.3249  0.3393 -1.2182
  170MOL0     H23397  11.780   0.904   2.752 -2.5084  0.9979  0.6536
  170MOL0     H23398  11.770   0.975   2.914  2.4696  2.0051  0.4670
  170MOL0     H23399  11.982   0.876   2.978 -0.6943 -0.5419  0.0516
  170MOL0     H23400  11.946   0.751   2.856  0.2747  0.2834  0.4924
  170MOL0     H23401  11.998   0.926   2.668 -3.0048 -0.2512  0.7381
  170MOL0     H23402  12.137   0.906   2.779  0.7396  0.6930  0.7373
  170MOL0     H23403  12.101   1.145   2.728 -1.1234  1.3126  0.3253
  170MOL0     H23404  11.938   1.136   2.794 -0.4716  1.3110  0.1344
  170MOL0     H23405  12.205   1.088   2.945  0.2675  0.5883 -3.1692
  170MOL0     H23406  12.047   1.067   3.021 -2.4437  0.8305  0.4083
  170MOL0     H23407  11.995   1.302   2.950  1.3473 -0.5182 -1.6071
  170MOL0     H23408  12.109   1.269   3.088 -2.2791  1.1508  0.9233
  170MOL0     H23409  12.387   1.342   3.041  0.6318 -2.6393 -0.3083
  170MOL0     H23410  12.547   1.523   2.950  1.1709 -0.6533 -0.2303
  170MOL0     H23411  12.475   1.620   2.811 -3.5115 -0.1212  0.2942
  170MOL0     H23412  12.554   1.489   2.655  0.3036  2.5696  1.7337
  170MOL0     H23413  12.702   1.506   2.764 -0.8228  1.3639  0.6293
  170MOL0     H23414  12.656   1.272   2.848 -0.5573 -1.4288 -0.2742
  170MOL0     H23415  12.517   1.261   2.741  0.1467 -0.0570  1.9503
  170MOL0     H23416  12.745   1.155   2.661 -0.6363 -0.5522  0.8623
  170MOL0     H23417  12.651   1.259   2.548  0.6420  0.5011  1.0084
  170MOL0     H23418  12.876   1.175   2.822 -2.9708  1.8584 -2.1334
  170MOL0     H23419  13.145   1.117   3.024  1.4620  0.4303 -2.3106
  170MOL0     H23420  12.979   1.077   2.984 -0.2108  1.6165 -1.1250
  170MOL0     H23421  13.007   1.212   3.094  1.0679  1.5430 -0.4253
  170MOL0     H23422  13.543   1.673   2.856  3.1478  0.7106 -1.0995
  170MOL0     H23423  13.747   1.714   2.959  1.3011 -0.2713  0.4043
  170MOL0     H23424  13.937   1.737   3.036 -0.8349 -1.4566 -0.4805
  170MOL0     H23425  13.863   1.794   3.185  1.2529 -0.6209  0.9494
  170MOL0     H23426  14.105   1.802   3.215  0.0046  0.1271  1.5947
  170MOL0     H23427  14.034   1.692   3.323  0.9929  1.0773  0.4697
  170MOL0     H23428  14.173   1.627   3.050 -2.3105 -1.6130 -1.7413
  170MOL0     H23429  14.090   1.502   3.139  1.5513 -0.5907  0.4616
  170MOL0     H23430  14.226   1.528   3.338  0.8255  0.3069  0.1339
  170MOL0     H23431  14.321   1.657   3.264  0.4724 -0.7307  1.5064
  170MOL0     H23432  14.397   1.475   3.084  2.3139 -0.4038  1.3598
  170MOL0     H23433  14.448   1.446   3.245  0.6027  0.9450 -1.4951
  170MOL0     H23434  14.222   1.295   3.111 -0.1399 -0.4468  0.5867
  170MOL0     H23435  14.260   1.293   3.281 -0.1232  0.9721 -0.1045
  170MOL0     H23436  14.391   1.107   3.184 -2.5561  0.0508 -3.8114
  170MOL0     H23437  14.512   1.242   3.233  0.3770  0.2680  0.5541
  170MOL0     H23438  14.577   1.117   3.048  0.8577  1.0105  0.5921
  170MOL0     H23439  14.553   1.278   3.001 -1.9674 -0.0381 -2.1324
  170MOL0     H23440  13.673   1.418   3.263 -0.8011 -0.7531 -0.5964
  170MOL0     H23441  13.457   1.389   3.183 -0.3222 -1.5781 -0.7657
  170MOL0     H23442  13.196   1.550   2.774  0.2495 -0.6659 -0.7570
  170MOL0     H23443  13.012   1.530   2.625 -3.3696 -0.9861 -0.0889
  170MOL0     H23444  11.321   0.815   2.907  0.3783  0.0342 -2.2610
  170MOL0     H23445  11.091   0.713   2.890  0.2659  0.8795  0.3150
  170MOL0     H23446  10.782   0.487   2.909  0.1087 -2.1131  1.2904
  170MOL0     H23447  10.576   0.501   2.820  1.1887  0.5988  0.8732
  170MOL0     H23448  10.358   0.402   2.720 -2.2580  2.5095  1.0251
  170MOL0     H23449  10.399   0.556   2.635 -0.5533  0.6039 -0.0118
  170MOL0     H23450  10.257   0.452   2.442 -1.8235  0.4251  0.5075
  170MOL0     H23451  10.171   0.466   2.592  0.3423  0.6925 -0.8620
  170MOL0     H23452  10.340   0.215   2.526 -1.4312 -1.8363 -2.0501
  170MOL0     H23453  10.208   0.233   2.644 -2.3175  2.7989  0.3090
  170MOL0     H23454  10.188   0.110   2.412  0.2093 -0.3825 -0.0225
  170MOL0     H23455  10.193   0.268   2.341 -0.2738  0.3657  0.3627
  170MOL0     H23456   9.791   0.227   2.420  0.8431  2.4804 -1.9210
  170MOL0     H23457  10.696   0.259   2.483  1.4462 -0.3117 -0.0408
  170MOL0     H23458  11.013   0.290   2.495 -0.4663 -0.4543  0.2882
  170MOL0     H23459  11.026   0.150   2.591 -2.9698 -0.3994  3.2163
  170MOL0     H23460  10.900   0.155   2.463 -0.5620  0.6510 -0.7922
  171MOL0     O23461   0.046  10.785   2.768 -0.3189 -0.4661 -0.6144
  171MOL0     C23462  -0.013  10.693   2.723  0.0697  0.1913 -0.7255
  171MOL0     O23463  -0.020  10.564   2.788 -0.2831 -1.1663 -0.2541
  171MOL0     C23464   0.070  10.544   2.884 -0.8304 -0.1169 -0.3012
  171MOL0     C23465   0.210  10.540   2.870  0.2954  0.0857  0.8527
  171MOL0     C23466   0.289  10.518   2.979 -0.2253 -0.7057  0.3049
  171MOL0     C23467   0.234  10.504   3.109  0.0653  0.4305 -0.4063
  171MOL0     O23468   0.327  10.463   3.203  0.7416  0.1836  0.4754
  171MOL0     C23469   0.266  10.422   3.330 -0.5865  0.0923 -1.3488
  171MOL0     C23470   0.368  10.365   3.427  1.1154 -0.5994  0.3540
  171MOL0     C23471   0.498  10.449   3.441 -0.0845 -0.3700  0.9484
  171MOL0     C23472   0.486  10.585   3.522 -0.5373  0.2419 -0.1590
  171MOL0     C23473   0.623  10.649   3.548  0.3293  0.1615 -0.7897
  171MOL0     C23474   0.605  10.796   3.607 -0.4532 -0.8722  0.0148
  171MOL0     C23475   0.726  10.887   3.594 -0.8292 -0.5940  0.5659
  171MOL0     C23476   0.728  10.959   3.452 -0.3297  0.3467 -0.4802
  171MOL0     N23477   0.829  11.077   3.450 -0.3143  0.1898 -0.0195
  171MOL0     C23478   0.797  11.202   3.501  0.7410 -0.2804  0.5005
  171MOL0     C23479   0.898  11.282   3.463  0.4090 -0.8150 -0.1195
  171MOL0     C23480   0.908  11.427   3.500 -0.3438 -0.4032  0.6623
  171MOL0     C23481   1.023  11.455   3.591  0.1277  1.0108 -0.5153
  171MOL0     C23482   1.044  11.614   3.598 -0.1731  0.3897  0.7005
  171MOL0     C23483   1.090  11.652   3.734 -0.0105 -0.6963 -0.5135
  171MOL0     O23484   1.200  11.577   3.785 -0.8178  0.2241  0.5043
  171MOL0     C23485   1.306  11.661   3.799  0.7541 -0.0625 -0.3689
  171MOL0     C23486   1.340  11.716   3.925 -0.1541  0.2877 -0.2712
  171MOL0     C23487   1.447  11.806   3.944 -0.0764  0.2622 -0.5969
  171MOL0     C23488   1.460  11.879   4.079 -0.1261 -0.6972 -0.5706
  171MOL0     C23489   1.545  11.816   3.837  0.3652  0.0138  0.1688
  171MOL0     C23490   1.667  11.902   3.832 -0.2728  0.4244  0.3156
  171MOL0     O23491   1.759  11.864   3.737  0.2801 -0.0538  0.2232
  171MOL0     C23492   1.823  11.975   3.696  0.0961 -0.0098 -0.8966
  171MOL0     C23493   1.955  11.990   3.730  0.5532 -0.5775  0.3421
  171MOL0     C23494   2.025  12.100   3.703 -0.4237  1.0542 -0.6834
  171MOL0     C23495   1.971  12.203   3.636 -0.5610  0.1455 -0.7529
  171MOL0     O23496   2.051  12.310   3.604  0.1817  0.4971  0.0931
  171MOL0     C23497   2.015  12.402   3.501 -0.5462  0.0300  0.1004
  171MOL0     C23498   2.143  12.491   3.465 -0.1168 -0.0569  0.6791
  171MOL0     C23499   2.261  12.408   3.429 -0.7168 -0.2772  0.0426
  171MOL0     C23500   2.361  12.493   3.342  0.9084  0.6023  0.3936
  171MOL0     C23501   2.493  12.422   3.308 -0.3849 -0.2572 -0.3219
  171MOL0     C23502   2.591  12.521   3.249 -0.7519  0.3967 -0.4209
  171MOL0     C23503   2.543  12.588   3.117 -0.2367 -0.3849 -0.2240
  171MOL0     C23504   2.554  12.504   2.988 -0.8244 -0.1581 -0.2615
  171MOL0    Cl23505   2.710  12.440   2.939  0.0815  0.0871 -0.4481
  171MOL0     C23506   1.836  12.193   3.596  0.8784  0.5897 -0.3312
  171MOL0     C23507   1.757  12.083   3.628 -0.3404 -0.0177 -0.9082
  171MOL0     O23508   1.672  11.994   3.913 -1.2236 -0.3425 -0.2777
  171MOL0     C23509   1.510  11.757   3.714 -0.5263 -0.2104 -0.3517
  171MOL0     C23510   1.390  11.698   3.694 -0.0616 -0.1574 -0.9749
  171MOL0     N23511   0.990  11.199   3.406  0.0814  0.5603 -0.0946
  171MOL0     N23512   0.945  11.076   3.390 -0.0120 -0.1387  0.7244
  171MOL0     C23513   0.099  10.528   3.131 -0.0593  0.7176  0.1295
  171MOL0     C23514   0.019  10.541   3.018 -0.6959 -0.0806  0.1085
  171MOL0     C23515  -0.102  10.721   2.607 -0.7464  0.0215  0.3254
  171MOL0     C23516  -0.041  10.777   2.495  0.7600  0.6198 -0.0081
  171MOL0     C23517  -0.108  10.799   2.376  0.2115 -0.1817  0.5501
  171MOL0     C23518  -0.246  10.770   2.368 -0.4275 -0.1723  0.1347
  171MOL0     O23519  -0.310  10.805   2.251 -0.1300 -0.3829 -0.4615
  171MOL0     C23520  -0.446  10.770   2.246 -0.1104 -0.0062 -0.4812
  171MOL0     C23521  -0.503  10.826   2.104 -0.6499  0.0568 -0.8685
  171MOL0     C23522  -0.623  10.751   2.062 -0.3259  0.3666  0.0223
  171MOL0     C23523  -0.746  10.827   2.109 -0.3422 -0.2899 -1.0617
  171MOL0     C23524  -0.864  10.758   2.063  1.0363 -0.0335 -0.5529
  171MOL0     C23525  -0.964  10.694   2.030  0.2774  0.3843 -0.0617
  171MOL0     C23526  -0.309  10.723   2.488 -0.1805 -0.7755  0.1168
  171MOL0     C23527  -0.243  10.692   2.605 -0.5126 -0.2113 -0.5076
  171MOL0     C23528  -0.316  10.649   2.732 -0.1572  0.2918  1.3187
  171MOL0     H23529   0.252  10.542   2.770 -3.8068 -2.7399 -1.2252
  171MOL0     H23530   0.397  10.512   2.981 -0.2224 -0.9536 -0.2784
  171MOL0     H23531   0.187  10.347   3.322 -1.0621  0.2825  0.9319
  171MOL0     H23532   0.226  10.506   3.387 -0.1035 -1.6577  1.8532
  171MOL0     H23533   0.331  10.346   3.528 -0.2474 -1.6518 -0.3094
  171MOL0     H23534   0.382  10.263   3.392 -0.1384 -0.8027  0.3831
  171MOL0     H23535   0.570  10.384   3.491 -0.5365 -1.4951  0.1708
  171MOL0     H23536   0.544  10.469   3.344  2.3755 -2.7331  1.4845
  171MOL0     H23537   0.414  10.645   3.465 -3.7234 -2.3824  0.7689
  171MOL0     H23538   0.437  10.546   3.611 -0.2068 -0.7842 -0.4116
  171MOL0     H23539   0.681  10.646   3.456  2.6462 -1.0807  0.6297
  171MOL0     H23540   0.684  10.599   3.624 -1.2816 -0.7239 -0.0097
  171MOL0     H23541   0.524  10.847   3.555  0.1678  1.2812  1.0583
  171MOL0     H23542   0.581  10.759   3.708 -1.2563 -2.1412 -0.6165
  171MOL0     H23543   0.824  10.840   3.611 -0.0528  0.4849 -0.7567
  171MOL0     H23544   0.729  10.968   3.667  1.3376 -0.9018  0.8915
  171MOL0     H23545   0.759  10.879   3.384  2.3439 -1.8186  2.9506
  171MOL0     H23546   0.626  10.993   3.431  0.2042  2.7606  0.4620
  171MOL0     H23547   0.710  11.228   3.561 -0.1749 -0.3161 -0.7840
  171MOL0     H23548   0.809  11.464   3.527 -0.7916 -0.4018 -0.9008
  171MOL0     H23549   0.927  11.479   3.405 -3.9934 -0.5512 -0.2789
  171MOL0     H23550   0.995  11.419   3.690  0.9811  0.6017 -0.4124
  171MOL0     H23551   1.116  11.403   3.567 -1.1240 -1.3379 -0.6104
  171MOL0     H23552   1.122  11.638   3.525 -0.6607  1.6646  0.5653
  171MOL0     H23553   0.953  11.670   3.575 -1.7743 -1.4449  2.1563
  171MOL0     H23554   1.094  11.761   3.741 -1.2941 -0.6689  0.0001
  171MOL0     H23555   1.009  11.638   3.806  0.2463 -1.7436 -0.4019
  171MOL0     H23556   1.274  11.706   4.011 -1.1280  2.5233 -0.7029
  171MOL0     H23557   1.556  11.846   4.120 -1.4776 -4.1303  0.1851
  171MOL0     H23558   1.380  11.847   4.146 -1.6783  2.2714 -0.8524
  171MOL0     H23559   1.447  11.986   4.061  1.4732 -0.4432 -0.4182
  171MOL0     H23560   2.018  11.924   3.788  1.8566  0.8644  0.6315
  171MOL0     H23561   2.132  12.107   3.720 -0.5774  0.1053  0.8028
  171MOL0     H23562   1.977  12.341   3.419 -0.9598 -1.1951  1.1754
  171MOL0     H23563   1.929  12.463   3.530 -0.5297 -0.7492  1.9755
  171MOL0     H23564   2.117  12.541   3.372 -0.6658 -2.4028 -0.5137
  171MOL0     H23565   2.172  12.559   3.546  1.5643  0.8062 -0.6171
  171MOL0     H23566   2.232  12.315   3.379 -1.0088 -0.0155 -0.2781
  171MOL0     H23567   2.313  12.390   3.524 -0.0208  1.8541  0.1076
  171MOL0     H23568   2.370  12.585   3.400  0.3426  1.4526 -0.8219
  171MOL0     H23569   2.307  12.521   3.251 -1.5906 -0.8840  1.3204
  171MOL0     H23570   2.536  12.367   3.392  5.0385 -0.8138 -3.0022
  171MOL0     H23571   2.473  12.342   3.235 -1.4660 -1.5196  1.2964
  171MOL0     H23572   2.679  12.469   3.210 -1.8351 -0.9134 -1.2257
  171MOL0     H23573   2.644  12.589   3.316  2.8965  0.4049 -3.0023
  171MOL0     H23574   2.609  12.670   3.087  0.3991 -1.2155 -1.1655
  171MOL0     H23575   2.444  12.633   3.132  0.1943 -0.3768  3.6861
  171MOL0     H23576   2.512  12.557   2.902  3.2029 -0.4543 -2.7270
  171MOL0     H23577   2.486  12.421   3.007 -0.4344 -0.0508  1.8600
  171MOL0     H23578   1.797  12.282   3.546 -3.9008 -0.6297  0.6731
  171MOL0     H23579   1.653  12.076   3.598 -1.0801  0.0076  1.4106
  171MOL0     H23580   1.571  11.763   3.625  3.2393 -3.7752  1.6293
  171MOL0     H23581   1.352  11.657   3.601 -3.1673 -1.4079  0.6870
  171MOL0     H23582   0.052  10.518   3.229  2.2810  2.1575  1.4762
  171MOL0     H23583  -0.088  10.555   3.027 -0.5872  0.2636  1.0178
  171MOL0     H23584   0.062  10.809   2.486  0.8869  0.3020  0.3141
  171MOL0     H23585  -0.060  10.834   2.286  0.2335 -2.8115 -0.5486
  171MOL0     H23586  -0.456  10.661   2.246  0.3913 -0.0585 -0.4450
  171MOL0     H23587  -0.495  10.818   2.331  2.6773  1.7690  0.2412
  171MOL0     H23588  -0.421  10.815   2.033 -0.3881 -0.3517 -0.5060
  171MOL0     H23589  -0.522  10.933   2.114  0.1232  0.2016 -0.8808
  171MOL0     H23590  -0.632  10.737   1.954  3.0456  0.2188 -0.3472
  171MOL0     H23591  -0.622  10.650   2.104 -1.6292 -1.6225 -4.1144
  171MOL0     H23592  -0.751  10.931   2.075  0.0665  0.9290  2.1759
  171MOL0     H23593  -0.739  10.842   2.218  2.6003  0.8710 -1.3080
  171MOL0     H23594  -1.044  10.623   2.020  1.1800 -1.0653  2.1332
  171MOL0     H23595  -0.416  10.715   2.500 -0.2866  2.5047  3.0832
  171MOL0     H23596  -0.267  10.568   2.786 -1.5725 -0.6748  1.2062
  171MOL0     H23597  -0.323  10.734   2.801  0.1743  1.6356 -0.2224
  171MOL0     H23598  -0.416  10.626   2.693 -0.5970  0.4361  2.3436
  172MOL0     O23599   9.025  10.531   0.908 -0.1234  0.1769  1.0358
  172MOL0     C23600   8.991  10.596   0.816  0.2450 -0.2653 -0.3287
  172MOL0     O23601   8.867  10.582   0.755  0.7318  0.8639 -0.2263
  172MOL0     C23602   8.757  10.513   0.802 -0.5138 -0.3907  1.0258
  172MOL0     C23603   8.770  10.393   0.871 -0.6517 -0.0194  0.1105
  172MOL0     C23604   8.662  10.330   0.921 -0.1298  0.4875 -0.1013
  172MOL0     C23605   8.540  10.384   0.907 -0.8686 -0.2738  0.4018
  172MOL0     O23606   8.435  10.310   0.957  0.7221  0.2749 -0.6502
  172MOL0     C23607   8.296  10.323   0.918  0.5013 -0.7998  0.9146
  172MOL0     C23608   8.221  10.411   1.018  0.7070 -0.2703  0.1948
  172MOL0     C23609   8.072  10.377   1.002 -0.7738  0.1791  0.7757
  172MOL0     C23610   7.987  10.462   1.090 -0.3723  0.2850  0.2007
  172MOL0     C23611   7.849  10.435   1.057  0.5433 -0.1469 -0.1833
  172MOL0     C23612   7.748  10.512   1.137  0.6031 -0.6567 -0.2901
  172MOL0     C23613   7.599  10.496   1.102 -0.3134  0.5147 -0.7722
  172MOL0     C23614   7.558  10.565   0.963  0.4774 -0.1955 -0.5698
  172MOL0     N23615   7.568  10.716   0.964 -0.1477 -0.4252  0.0164
  172MOL0     C23616   7.602  10.807   1.067 -0.3942 -0.1907  0.1990
  172MOL0     C23617   7.534  10.920   1.040 -0.6041  0.0536  0.5240
  172MOL0     C23618   7.536  11.050   1.121  0.2115  0.7295  0.4936
  172MOL0     C23619   7.681  11.094   1.127  0.0743  0.5970  0.3262
  172MOL0     C23620   7.689  11.232   1.168  0.3233 -1.3922 -0.8754
  172MOL0     C23621   7.833  11.285   1.166 -0.0365 -0.5809 -0.4165
  172MOL0     O23622   7.911  11.208   1.266  0.4531 -0.0684  0.4067
  172MOL0     C23623   8.046  11.225   1.264  0.1473 -0.3984  0.4220
  172MOL0     C23624   8.112  11.134   1.339 -0.6699  0.6846 -0.3199
  172MOL0     C23625   8.252  11.146   1.361 -0.2830 -1.1467  0.0284
  172MOL0     C23626   8.328  11.041   1.443  0.0463  0.8045  0.0093
  172MOL0     C23627   8.324  11.259   1.310  0.6196 -0.8293  0.4879
  172MOL0     C23628   8.464  11.289   1.331  0.2546  0.1166  0.1753
  172MOL0     O23629   8.528  11.331   1.212  0.4865  0.2020 -0.3785
  172MOL0     C23630   8.660  11.360   1.217 -0.2524 -0.1591 -0.0381
  172MOL0     C23631   8.754  11.262   1.174 -0.1172 -0.4604 -0.8752
  172MOL0     C23632   8.887  11.280   1.180 -0.1323 -0.4137 -0.3292
  172MOL0     C23633   8.929  11.409   1.198  0.2434 -0.4126  1.0590
  172MOL0     O23634   9.065  11.439   1.169  0.1492 -0.5718  0.8214
  172MOL0     C23635   9.140  11.541   1.245 -0.2897 -0.7129 -0.4213
  172MOL0     C23636   9.290  11.506   1.262  0.4182  0.4069  0.0565
  172MOL0     C23637   9.369  11.526   1.134  0.5960 -0.9116 -0.1184
  172MOL0     C23638   9.398  11.680   1.116 -0.4378  0.6561  0.1910
  172MOL0     C23639   9.442  11.715   0.978 -0.2485 -0.3457  0.3994
  172MOL0     C23640   9.500  11.853   0.971 -0.5180 -0.2263  0.6383
  172MOL0     C23641   9.571  11.885   0.835  0.4798  0.1043  0.6023
  172MOL0     C23642   9.724  11.916   0.848 -1.1274 -0.0475 -0.2446
  172MOL0    Cl23643   9.818  11.769   0.914  0.4955 -0.0559  0.0180
  172MOL0     C23644   8.837  11.503   1.248  0.4510 -0.3897 -0.5720
  172MOL0     C23645   8.702  11.478   1.272  0.1427  0.2874  0.1728
  172MOL0     O23646   8.521  11.268   1.438 -0.0229 -0.3740 -0.0193
  172MOL0     C23647   8.247  11.341   1.228 -0.2552 -0.3185  0.1980
  172MOL0     C23648   8.112  11.329   1.203  0.2190 -0.2837 -0.6555
  172MOL0     N23649   7.466  10.906   0.926  0.2581  0.1344  0.7237
  172MOL0     N23650   7.492  10.791   0.881 -0.2381  0.4247 -0.8582
  172MOL0     C23651   8.522  10.505   0.835 -0.2178  0.8193  0.7489
  172MOL0     C23652   8.635  10.573   0.795 -0.7584  0.3084  0.4743
  172MOL0     C23653   9.075  10.709   0.769 -0.4459  0.3936  0.8069
  172MOL0     C23654   9.029  10.809   0.669  0.1199  0.1399  0.2114
  172MOL0     C23655   9.096  10.926   0.632 -0.3073 -0.9833 -0.2434
  172MOL0     C23656   9.234  10.931   0.671 -0.2106 -0.9473  0.0661
  172MOL0     O23657   9.319  11.036   0.634  0.8779  0.1021 -0.3663
  172MOL0     C23658   9.255  11.154   0.578 -0.0523 -0.7181 -0.1003
  172MOL0     C23659   9.373  11.257   0.552  0.1283  0.6290 -0.1261
  172MOL0     C23660   9.454  11.296   0.674 -0.1513  0.0156  0.2042
  172MOL0     C23661   9.377  11.380   0.772  0.5030 -0.1738 -0.5262
  172MOL0     C23662   9.344  11.506   0.713 -0.0451 -0.3737 -0.1006
  172MOL0     C23663   9.327  11.620   0.675 -0.2884  0.0797  0.1461
  172MOL0     C23664   9.290  10.832   0.754 -0.3862 -0.5816  0.2122
  172MOL0     C23665   9.209  10.732   0.818 -0.2573 -0.6786  0.3697
  172MOL0     C23666   9.265  10.657   0.932 -0.1147 -0.3238  0.5032
  172MOL0     H23667   8.870  10.356   0.887 -0.2585  1.8866  2.8672
  172MOL0     H23668   8.668  10.234   0.972 -1.2690  0.6824  0.4185
  172MOL0     H23669   8.253  10.223   0.909 -0.1950 -0.3678 -1.1205
  172MOL0     H23670   8.290  10.359   0.815  4.4893  1.1294  1.1502
  172MOL0     H23671   8.255  10.391   1.120 -0.6574  1.0842  0.9717
  172MOL0     H23672   8.240  10.517   1.001  2.7132 -0.6969 -0.4702
  172MOL0     H23673   8.044  10.398   0.899 -0.1237 -2.6863 -0.0767
  172MOL0     H23674   8.054  10.270   1.008 -2.0605  0.3281 -0.0818
  172MOL0     H23675   8.013  10.422   1.189  0.2581  1.3379  0.4801
  172MOL0     H23676   8.018  10.565   1.069  0.9431 -0.1264  0.0651
  172MOL0     H23677   7.826  10.328   1.068  1.3061 -0.5441 -2.0470
  172MOL0     H23678   7.831  10.452   0.951 -1.1181  3.3381  0.5378
  172MOL0     H23679   7.734  10.468   1.236  0.1798 -0.3243 -0.2016
  172MOL0     H23680   7.777  10.618   1.137 -1.7360  0.0414  0.9550
  172MOL0     H23681   7.527  10.525   1.180 -4.0901 -1.0960 -3.3491
  172MOL0     H23682   7.585  10.389   1.082 -1.5497  1.1133 -3.5009
  172MOL0     H23683   7.630  10.526   0.890 -0.0662 -0.1900 -1.1237
  172MOL0     H23684   7.454  10.539   0.939  0.5377 -1.2258  0.2080
  172MOL0     H23685   7.665  10.785   1.153 -0.8443 -3.5041 -0.1695
  172MOL0     H23686   7.489  11.031   1.219 -1.5534  1.2140 -0.2242
  172MOL0     H23687   7.469  11.116   1.066 -1.9548 -0.5298  1.4680
  172MOL0     H23688   7.736  11.031   1.198  0.7464  3.2929  2.3773
  172MOL0     H23689   7.729  11.081   1.030 -0.1963  0.0364  0.2620
  172MOL0     H23690   7.622  11.294   1.106  0.5583  2.7001  2.4872
  172MOL0     H23691   7.663  11.255   1.272  1.6061  2.1226 -1.1823
  172MOL0     H23692   7.876  11.284   1.065  0.2279 -0.2819 -0.3106
  172MOL0     H23693   7.833  11.388   1.203  0.6151 -0.9254  0.5846
  172MOL0     H23694   8.053  11.057   1.387 -0.2623  0.7593  0.3147
  172MOL0     H23695   8.437  11.049   1.434  0.2018 -1.8267 -1.4920
  172MOL0     H23696   8.303  10.937   1.420  1.2662  0.5819 -0.3658
  172MOL0     H23697   8.312  11.055   1.550  4.1461 -0.0551  0.8943
  172MOL0     H23698   8.721  11.161   1.150  0.7062 -0.2457 -3.2209
  172MOL0     H23699   8.956  11.203   1.147 -2.5221 -2.2564 -1.3120
  172MOL0     H23700   9.116  11.641   1.206  1.0513 -0.9982 -2.0840
  172MOL0     H23701   9.091  11.541   1.343 -0.3365 -0.2324 -0.4419
  172MOL0     H23702   9.331  11.560   1.348  0.9283 -1.2117  0.8875
  172MOL0     H23703   9.280  11.402   1.296  0.5821  0.6718  0.9407
  172MOL0     H23704   9.320  11.490   1.043 -2.7907  3.7217 -0.4678
  172MOL0     H23705   9.456  11.461   1.149  0.0427 -1.9893 -1.3572
  172MOL0     H23706   9.475  11.714   1.186 -0.9354  1.3212  0.4205
  172MOL0     H23707   9.315  11.750   1.130 -0.7533  0.6488 -1.4945
  172MOL0     H23708   9.499  11.635   0.931 -2.9206 -1.0623 -1.9208
  172MOL0     H23709   9.351  11.731   0.919 -0.3581  0.6202  0.8191
  172MOL0     H23710   9.581  11.857   1.044 -1.0972 -0.3203  1.2950
  172MOL0     H23711   9.421  11.925   0.993 -1.3548 -0.8408 -0.2637
  172MOL0     H23712   9.524  11.973   0.789  1.7495  1.7625  2.3537
  172MOL0     H23713   9.572  11.799   0.768  0.3760 -1.4253  2.4926
  172MOL0     H23714   9.748  12.003   0.910  3.4211 -1.9367  1.0992
  172MOL0     H23715   9.754  11.940   0.745 -0.2936 -1.7150 -0.4217
  172MOL0     H23716   8.881  11.599   1.273 -2.1784  0.7745 -0.1622
  172MOL0     H23717   8.646  11.564   1.307  1.5845  1.6055 -0.5809
  172MOL0     H23718   8.295  11.425   1.177 -0.6459 -0.1827  0.0535
  172MOL0     H23719   8.066  11.408   1.143  0.1912 -0.5230 -0.9499
  172MOL0     H23720   8.423  10.547   0.821 -0.1886  0.7955  0.4690
  172MOL0     H23721   8.625  10.671   0.750 -0.8471 -0.2806 -0.8265
  172MOL0     H23722   8.932  10.802   0.619 -0.3213  2.9067  0.5188
  172MOL0     H23723   9.050  11.004   0.573 -0.7566 -0.7111  0.4576
  172MOL0     H23724   9.196  11.146   0.487 -0.7306  1.9525  0.0228
  172MOL0     H23725   9.173  11.194   0.638 -0.2975  0.8370 -1.4105
  172MOL0     H23726   9.322  11.343   0.508  0.6785  1.0116 -0.0205
  172MOL0     H23727   9.446  11.214   0.483 -0.8881 -1.0247 -0.2366
  172MOL0     H23728   9.496  11.205   0.718 -0.8668 -0.5028 -0.1804
  172MOL0     H23729   9.537  11.362   0.645  1.3555 -2.4345 -1.4531
  172MOL0     H23730   9.438  11.409   0.858  1.4534  3.6536 -2.2821
  172MOL0     H23731   9.281  11.332   0.793  1.2357 -1.6796 -0.4751
  172MOL0     H23732   9.309  11.722   0.647  1.3303  0.0296 -1.2115
  172MOL0     H23733   9.392  10.829   0.790 -0.3790  1.6529  0.4759
  172MOL0     H23734   9.213  10.669   1.028 -0.2941 -0.6063  0.4425
  172MOL0     H23735   9.267  10.550   0.913  1.6257  0.0724 -2.0105
  172MOL0     H23736   9.369  10.682   0.952 -0.2651  0.5873  0.2167
  173MOL0     O23737  10.407   2.609   8.747  0.3914  0.2892 -0.0412
  173MOL0     C23738  10.345   2.605   8.853  0.4141  0.2193 -0.9759
  173MOL0     O23739  10.403   2.624   8.976 -0.0229 -0.2407  0.5378
  173MOL0     C23740  10.541   2.636   8.989 -0.3344 -0.3725 -0.7926
  173MOL0     C23741  10.592   2.739   9.064  0.2677 -0.1410 -0.0996
  173MOL0     C23742  10.729   2.754   9.097 -0.0380 -0.1170  0.6216
  173MOL0     C23743  10.817   2.658   9.047 -0.9263  0.8695 -0.2392
  173MOL0     O23744  10.948   2.648   9.082 -0.2861 -0.1387  0.0009
  173MOL0     C23745  10.988   2.705   9.205 -0.1016 -0.4643 -0.0403
  173MOL0     C23746  11.120   2.644   9.246 -1.1318  0.2785 -0.8287
  173MOL0     C23747  11.229   2.652   9.140  0.0591 -0.8347 -0.0248
  173MOL0     C23748  11.347   2.547   9.163  0.1706  0.0154 -0.6998
  173MOL0     C23749  11.474   2.605   9.084  0.8516 -0.2774 -0.3607
  173MOL0     C23750  11.594   2.512   9.120 -0.2437  0.0483 -1.1540
  173MOL0     C23751  11.717   2.533   9.018 -0.1838 -0.0645  0.3250
  173MOL0     C23752  11.774   2.677   9.029 -0.8730 -0.7915  0.1240
  173MOL0     N23753  11.824   2.722   9.163  0.1850  0.9892  0.2653
  173MOL0     C23754  11.942   2.696   9.228 -0.2577  0.3402  0.4194
  173MOL0     C23755  11.934   2.750   9.350 -0.1426  0.4380 -0.0383
  173MOL0     C23756  12.040   2.778   9.445  0.3269 -0.9899  1.1381
  173MOL0     C23757  12.187   2.785   9.381  0.3252  0.9313  0.1182
  173MOL0     C23758  12.275   2.904   9.441 -0.3952  0.0332 -0.0241
  173MOL0     C23759  12.225   3.035   9.380  0.1596 -0.3412 -0.5918
  173MOL0     O23760  12.206   3.037   9.235  0.3800 -0.0775 -0.2107
  173MOL0     C23761  12.083   3.084   9.189  0.6229  0.8157 -0.3031
  173MOL0     C23762  12.020   3.198   9.245 -0.3930 -0.9522  0.3795
  173MOL0     C23763  11.895   3.229   9.197  0.5079  0.3223 -0.5560
  173MOL0     C23764  11.831   3.344   9.265 -0.3039 -0.3730 -0.5184
  173MOL0     C23765  11.830   3.154   9.091  0.5288 -0.5990 -0.0885
  173MOL0     C23766  11.707   3.200   9.029  0.5571 -0.4358 -0.7137
  173MOL0     O23767  11.685   3.343   9.018  0.3911  0.6435 -0.2174
  173MOL0     C23768  11.556   3.388   8.995 -0.0229  0.3816 -0.3581
  173MOL0     C23769  11.494   3.449   9.103 -0.5772 -0.3374 -0.2807
  173MOL0     C23770  11.362   3.484   9.088 -0.2069 -0.3871  0.1186
  173MOL0     C23771  11.293   3.481   8.969 -0.4146  0.1713  0.1359
  173MOL0     O23772  11.163   3.530   8.975 -0.7304  0.3550  0.0359
  173MOL0     C23773  11.081   3.507   8.853  0.4549 -0.2301  0.2947
  173MOL0     C23774  10.933   3.538   8.880 -1.6578  0.2268  0.4146
  173MOL0     C23775  10.879   3.447   8.990  0.5569  0.0617  0.0550
  173MOL0     C23776  10.747   3.500   9.034 -0.3921 -0.6883 -0.1818
  173MOL0     C23777  10.672   3.406   9.118  0.9460  0.2602 -0.4590
  173MOL0     C23778  10.528   3.443   9.137 -1.2358  1.4826  0.1521
  173MOL0     C23779  10.451   3.336   9.221  0.0879 -0.3318  0.2724
  173MOL0     C23780  10.336   3.398   9.301  0.3292  0.3173  0.2864
  173MOL0    Cl23781  10.208   3.436   9.190 -0.2587 -0.6282  0.4298
  173MOL0     C23782  11.362   3.428   8.863 -0.3076 -0.2992  0.6591
  173MOL0     C23783  11.493   3.386   8.875 -0.0422 -0.3616  0.5627
  173MOL0     O23784  11.622   3.117   8.999 -0.6531  0.1009  0.5793
  173MOL0     C23785  11.904   3.048   9.041  0.8617  0.9784 -0.1440
  173MOL0     C23786  12.022   3.003   9.089 -0.1749  0.7225 -0.2994
  173MOL0     N23787  11.810   2.803   9.366  0.7694  1.1363 -0.4757
  173MOL0     N23788  11.746   2.789   9.250  0.5592 -0.2650 -0.7615
  173MOL0     C23789  10.764   2.553   8.969  0.4336 -0.8140 -0.2496
  173MOL0     C23790  10.629   2.543   8.923 -0.1303  0.7635 -0.2771
  173MOL0     C23791  10.195   2.585   8.844  0.0661  0.3275 -0.5799
  173MOL0     C23792  10.136   2.565   8.713  0.3728 -0.0844  0.1805
  173MOL0     C23793   9.999   2.541   8.703 -0.2851 -0.7312  0.5599
  173MOL0     C23794   9.924   2.511   8.816  0.6397  0.2074  0.3361
  173MOL0     O23795   9.790   2.472   8.812  0.4012  0.2832 -0.0534
  173MOL0     C23796   9.728   2.456   8.680 -0.5118  0.3669  0.0613
  173MOL0     C23797   9.573   2.413   8.693  0.0376  0.6502 -0.2929
  173MOL0     C23798   9.562   2.308   8.812 -0.8413 -0.0908  0.5382
  173MOL0     C23799   9.449   2.211   8.801  0.0242 -0.2026  0.5263
  173MOL0     C23800   9.319   2.274   8.793  0.3591  0.9935 -0.0571
  173MOL0     C23801   9.207   2.329   8.790 -1.1602  0.5368 -0.4790
  173MOL0     C23802   9.979   2.518   8.939 -0.1766 -0.6288  0.0976
  173MOL0     C23803  10.112   2.555   8.952  0.4032  0.0995 -0.3957
  173MOL0     C23804  10.158   2.546   9.096  0.4065  0.6059 -0.7737
  173MOL0     H23805  10.522   2.805   9.112  1.8016  0.6468  1.1623
  173MOL0     H23806  10.763   2.839   9.156  1.0054 -1.4791  2.0440
  173MOL0     H23807  10.921   2.690   9.290  0.6053 -1.0834  0.4203
  173MOL0     H23808  11.003   2.814   9.206  2.6612 -0.6827  3.3681
  173MOL0     H23809  11.163   2.683   9.339 -1.2655  0.5532 -0.8819
  173MOL0     H23810  11.108   2.537   9.265  1.3350  0.5547  3.7171
  173MOL0     H23811  11.189   2.645   9.038  2.7238  0.2096 -1.2297
  173MOL0     H23812  11.268   2.754   9.141 -0.3873 -0.6603 -0.2803
  173MOL0     H23813  11.367   2.532   9.270 -2.0411  1.4048 -0.0283
  173MOL0     H23814  11.312   2.453   9.120 -3.4253  1.1048 -0.5258
  173MOL0     H23815  11.495   2.712   9.097  0.4955 -0.4018  1.5815
  173MOL0     H23816  11.456   2.589   8.978  0.5024 -1.1881 -0.1666
  173MOL0     H23817  11.624   2.535   9.222  1.8752  1.9920 -2.1112
  173MOL0     H23818  11.565   2.408   9.107 -0.5391 -0.0680  0.3033
  173MOL0     H23819  11.663   2.524   8.924 -1.0581 -0.7681  0.8841
  173MOL0     H23820  11.794   2.459   9.041  0.0697  0.3999  0.9936
  173MOL0     H23821  11.856   2.697   8.960 -1.0298 -1.6296 -0.3248
  173MOL0     H23822  11.701   2.753   9.000  0.8759  1.5741  1.5290
  173MOL0     H23823  12.040   2.656   9.203  0.5108  1.8388  0.8672
  173MOL0     H23824  12.031   2.708   9.528  0.3019  0.5295  2.4525
  173MOL0     H23825  12.018   2.879   9.482 -0.8628 -0.5375 -0.6228
  173MOL0     H23826  12.234   2.690   9.410 -2.1148 -1.0629 -1.9533
  173MOL0     H23827  12.187   2.784   9.272  0.1061 -1.1145  0.0990
  173MOL0     H23828  12.278   2.907   9.550 -0.5098 -0.5257  0.0014
  173MOL0     H23829  12.378   2.878   9.411 -1.2973 -1.6443 -1.9381
  173MOL0     H23830  12.126   3.059   9.420  1.0131 -3.0186  3.8147
  173MOL0     H23831  12.294   3.117   9.404  0.1106 -0.2600 -0.7237
  173MOL0     H23832  12.067   3.252   9.327  1.3795 -1.2731 -0.3700
  173MOL0     H23833  11.722   3.342   9.278 -0.5513  2.8771 -1.1489
  173MOL0     H23834  11.867   3.439   9.225 -1.9779  1.3346  1.7706
  173MOL0     H23835  11.882   3.343   9.362 -1.0735 -1.2063 -0.1089
  173MOL0     H23836  11.544   3.465   9.198 -2.2201  3.2183  0.1357
  173MOL0     H23837  11.317   3.533   9.174  0.3691  0.0965  0.1471
  173MOL0     H23838  11.112   3.577   8.775 -0.1789 -0.8490 -0.5249
  173MOL0     H23839  11.091   3.404   8.817  0.7434  0.1736 -0.7923
  173MOL0     H23840  10.921   3.645   8.902  0.6726  1.0454 -1.9154
  173MOL0     H23841  10.887   3.507   8.786  0.8920  0.9304 -1.1419
  173MOL0     H23842  10.947   3.438   9.075 -0.2938  1.7143  0.9576
  173MOL0     H23843  10.876   3.344   8.953  2.9377  0.7247 -2.2519
  173MOL0     H23844  10.681   3.514   8.948 -0.0522 -2.2917 -0.7360
  173MOL0     H23845  10.765   3.595   9.085 -1.0024 -0.8883  0.4206
  173MOL0     H23846  10.657   3.318   9.054 -0.6358  0.4762 -0.4406
  173MOL0     H23847  10.720   3.374   9.210  1.3327 -0.9600 -1.0616
  173MOL0     H23848  10.479   3.449   9.039 -1.5133  1.2445  0.2767
  173MOL0     H23849  10.537   3.540   9.187  1.4987  1.9339 -1.0388
  173MOL0     H23850  10.508   3.280   9.295  2.5363 -0.4240 -1.5673
  173MOL0     H23851  10.415   3.255   9.156  0.2977  0.9477 -1.5006
  173MOL0     H23852  10.359   3.489   9.358 -2.8475  1.4135  0.0410
  173MOL0     H23853  10.295   3.323   9.369  0.2558 -0.2884 -0.4196
  173MOL0     H23854  11.309   3.433   8.768 -0.0775  4.1404  0.5785
  173MOL0     H23855  11.534   3.348   8.782  0.8239  1.0558  0.3287
  173MOL0     H23856  11.859   2.989   8.962 -0.4065  0.5582  0.8567
  173MOL0     H23857  12.080   2.925   9.041  2.5307  2.6777 -0.4611
  173MOL0     H23858  10.826   2.474   8.927  0.9919 -0.7882  0.5047
  173MOL0     H23859  10.598   2.457   8.865 -1.6846  0.3497  1.0882
  173MOL0     H23860  10.189   2.567   8.618  0.5464  2.4752  0.2589
  173MOL0     H23861   9.953   2.527   8.606  0.8229 -0.7525  0.0268
  173MOL0     H23862   9.729   2.550   8.624 -3.0649  1.0618  1.0344
  173MOL0     H23863   9.789   2.381   8.631  1.8914  1.5588  1.0799
  173MOL0     H23864   9.553   2.363   8.598  0.1277  2.3243 -1.2354
  173MOL0     H23865   9.501   2.494   8.706  0.8902  1.8998 -2.6645
  173MOL0     H23866   9.658   2.255   8.812 -0.1341  1.1221 -0.5738
  173MOL0     H23867   9.562   2.349   8.914  1.9157 -0.6660  0.8683
  173MOL0     H23868   9.446   2.140   8.885  0.6871 -0.9396 -0.0558
  173MOL0     H23869   9.465   2.152   8.710  0.5513  2.2175 -1.0584
  173MOL0     H23870   9.115   2.382   8.772 -0.7295  1.2296 -0.7106
  173MOL0     H23871   9.920   2.499   9.028 -0.9313  1.3050  0.0604
  173MOL0     H23872  10.166   2.640   9.151 -1.4316 -1.1466  2.7797
  173MOL0     H23873  10.107   2.485   9.171  0.7422  1.7770  0.4502
  173MOL0     H23874  10.253   2.494   9.108 -0.7601 -0.9521  2.8864
  174MOL0     O23875   5.689   0.338   2.326  0.4244 -0.0597 -0.3653
  174MOL0     C23876   5.651   0.458   2.339  0.7316  0.3191  0.1250
  174MOL0     O23877   5.684   0.546   2.443 -0.2963  0.6718  0.1619
  174MOL0     C23878   5.747   0.496   2.542 -0.0079 -0.7420 -0.1886
  174MOL0     C23879   5.677   0.464   2.662 -0.3195  0.2944  0.8502
  174MOL0     C23880   5.751   0.419   2.769 -0.4583  0.4134  0.1402
  174MOL0     C23881   5.889   0.410   2.763  0.1073  0.4960  0.4067
  174MOL0     O23882   5.968   0.378   2.868 -0.1399 -0.2215  0.4657
  174MOL0     C23883   5.911   0.370   3.001  0.2268 -0.2066 -0.8110
  174MOL0     C23884   6.009   0.321   3.110  0.0592 -0.4138  1.2981
  174MOL0     C23885   6.107   0.432   3.159 -0.2638  0.1557 -0.7466
  174MOL0     C23886   6.189   0.380   3.277 -0.0104  0.4295 -0.4098
  174MOL0     C23887   6.293   0.479   3.320 -0.3518 -0.1803  0.4116
  174MOL0     C23888   6.409   0.483   3.216 -0.2632  0.7877 -0.1592
  174MOL0     C23889   6.548   0.525   3.280  1.2015 -0.1138  1.2715
  174MOL0     C23890   6.593   0.440   3.399 -0.0629 -1.1083 -0.3220
  174MOL0     N23891   6.737   0.452   3.414 -0.5773  0.8252 -1.0325
  174MOL0     C23892   6.826   0.390   3.334 -0.3361  0.5050  0.2305
  174MOL0     C23893   6.945   0.416   3.387 -0.6982  0.6070 -0.8929
  174MOL0     C23894   7.075   0.358   3.339 -0.3391 -0.6546 -0.1895
  174MOL0     C23895   7.180   0.475   3.297 -0.6321 -0.6741 -0.4627
  174MOL0     C23896   7.326   0.423   3.280 -0.2085 -0.3905  0.3251
  174MOL0     C23897   7.408   0.501   3.183 -0.0800  0.4787 -0.1302
  174MOL0     O23898   7.532   0.438   3.161 -0.0079  0.6170  0.3539
  174MOL0     C23899   7.626   0.433   3.264 -0.1926 -0.6986  0.5876
  174MOL0     C23900   7.715   0.540   3.282 -0.5676 -0.4211  0.5915
  174MOL0     C23901   7.834   0.532   3.359  0.1227 -0.2681  0.6847
  174MOL0     C23902   7.937   0.636   3.344 -0.2155 -0.0517  0.0977
  174MOL0     C23903   7.842   0.407   3.436 -0.2799 -1.0995 -0.5377
  174MOL0     C23904   7.959   0.376   3.530 -0.8727  0.7093  0.1649
  174MOL0     O23905   8.059   0.472   3.561  0.0731 -0.5699  0.2300
  174MOL0     C23906   8.172   0.432   3.641 -0.0313 -0.3020  0.5374
  174MOL0     C23907   8.298   0.459   3.586  0.1292  0.5581  0.5370
  174MOL0     C23908   8.414   0.443   3.664 -0.6493  0.5423  0.7629
  174MOL0     C23909   8.409   0.384   3.793  0.1070 -0.0790  0.0850
  174MOL0     O23910   8.518   0.361   3.874  0.9397  0.2568  0.6117
  174MOL0     C23911   8.630   0.451   3.868  0.5445  0.2038 -0.7198
  174MOL0     C23912   8.761   0.368   3.876 -0.1444 -0.3284  0.1782
  174MOL0     C23913   8.876   0.465   3.904  0.2786 -0.2397 -0.2092
  174MOL0     C23914   9.012   0.387   3.890  0.0808  0.0798  0.7066
  174MOL0     C23915   9.127   0.468   3.945 -0.5507 -0.1448  0.2849
  174MOL0     C23916   9.243   0.374   3.997 -0.1194 -0.4732  0.2499
  174MOL0     C23917   9.301   0.271   3.895  0.1596 -0.2596 -0.2178
  174MOL0     C23918   9.449   0.257   3.916 -0.2432 -0.0765  0.4929
  174MOL0    Cl23919   9.544   0.405   3.872 -0.0272 -0.0899  0.2386
  174MOL0     C23920   8.283   0.362   3.846 -0.2807 -1.3035 -0.2249
  174MOL0     C23921   8.165   0.387   3.771 -0.5549  0.6307 -0.1283
  174MOL0     O23922   7.959   0.263   3.577 -0.5506  0.4862  0.5793
  174MOL0     C23923   7.733   0.308   3.428 -0.4153  0.2838 -0.0151
  174MOL0     C23924   7.633   0.323   3.347  0.0505 -0.6490 -0.2581
  174MOL0     N23925   6.925   0.512   3.484  0.2369 -0.6057  0.6830
  174MOL0     N23926   6.802   0.526   3.508  1.0126 -0.9386 -0.1780
  174MOL0     C23927   5.954   0.443   2.649 -0.9117 -0.2183 -0.5860
  174MOL0     C23928   5.884   0.490   2.539 -0.2607  0.3856 -1.0886
  174MOL0     C23929   5.561   0.510   2.235  0.0740  0.0444 -0.5797
  174MOL0     C23930   5.485   0.412   2.168 -0.7271  0.4266 -0.1319
  174MOL0     C23931   5.417   0.439   2.051 -1.0763 -0.2732 -0.4258
  174MOL0     C23932   5.416   0.572   2.005  0.5535  0.1258  0.1685
  174MOL0     O23933   5.343   0.618   1.903 -0.0608  0.5318 -0.3864
  174MOL0     C23934   5.221   0.549   1.861  0.9249 -0.8152  0.6524
  174MOL0     C23935   5.151   0.603   1.729 -0.6166  0.2739  0.5231
  174MOL0     C23936   5.236   0.578   1.604  0.1249  0.3385 -0.3833
  174MOL0     C23937   5.174   0.587   1.469  0.0934  0.2101 -0.0568
  174MOL0     C23938   5.265   0.572   1.351  0.0456  0.1169 -0.0279
  174MOL0     C23939   5.335   0.545   1.262 -0.9038  0.0670 -0.3615
  174MOL0     C23940   5.477   0.668   2.076 -0.5855  0.2372  0.0239
  174MOL0     C23941   5.549   0.643   2.193 -0.6041  0.4936 -0.0777
  174MOL0     C23942   5.628   0.752   2.258 -0.0808  0.3982  0.5544
  174MOL0     H23943   5.568   0.462   2.664 -0.5407 -2.1326 -2.8815
  174MOL0     H23944   5.689   0.397   2.856 -0.9326  2.9726  0.5224
  174MOL0     H23945   5.835   0.291   3.001  0.1542 -0.2036  1.2286
  174MOL0     H23946   5.858   0.464   3.019  0.3736 -0.2606 -0.0533
  174MOL0     H23947   5.951   0.281   3.194 -1.7488 -1.0406 -0.1841
  174MOL0     H23948   6.069   0.241   3.065  1.1758  0.3671  1.3526
  174MOL0     H23949   6.178   0.455   3.079  3.0183  4.0303  2.7970
  174MOL0     H23950   6.049   0.521   3.183 -1.4996 -0.4301 -1.4396
  174MOL0     H23951   6.123   0.338   3.353 -0.6252 -0.6861 -1.5274
  174MOL0     H23952   6.246   0.293   3.241 -0.2560  0.0458  0.1199
  174MOL0     H23953   6.337   0.461   3.418  3.6353  2.1397 -0.7093
  174MOL0     H23954   6.259   0.583   3.315  1.2825  0.3684  0.2838
  174MOL0     H23955   6.424   0.383   3.175  1.2528 -0.7218  3.5612
  174MOL0     H23956   6.391   0.559   3.140  1.1041  2.3131  0.9840
  174MOL0     H23957   6.538   0.632   3.298 -0.9885  0.3812 -1.9615
  174MOL0     H23958   6.620   0.515   3.199  0.8929  1.2162  0.8157
  174MOL0     H23959   6.546   0.479   3.491  0.5589 -0.7800 -0.1414
  174MOL0     H23960   6.576   0.334   3.378  2.9750 -1.4968 -1.1558
  174MOL0     H23961   6.813   0.327   3.247  1.8435  1.2488 -0.7151
  174MOL0     H23962   7.057   0.294   3.252  0.9455 -0.6466 -0.4785
  174MOL0     H23963   7.119   0.293   3.415  0.5541  1.0820  0.8755
  174MOL0     H23964   7.148   0.525   3.206  0.2763  2.0964  0.6389
  174MOL0     H23965   7.183   0.547   3.379  0.3091  1.5022 -2.2990
  174MOL0     H23966   7.381   0.416   3.374 -0.1827 -3.5666  0.1778
  174MOL0     H23967   7.325   0.319   3.245  1.8069  0.0511 -1.2689
  174MOL0     H23968   7.361   0.506   3.084  0.8685 -1.5010 -0.7381
  174MOL0     H23969   7.430   0.602   3.218  1.0942  0.9041 -1.9410
  174MOL0     H23970   7.709   0.624   3.213  0.5261 -1.5914 -0.9915
  174MOL0     H23971   7.921   0.708   3.263  1.4507  1.8930  1.3847
  174MOL0     H23972   8.027   0.588   3.306 -1.4343 -1.2714 -1.3857
  174MOL0     H23973   7.953   0.696   3.435 -0.3078  0.5360 -0.2654
  174MOL0     H23974   8.303   0.485   3.481 -0.9937 -0.7054  0.1421
  174MOL0     H23975   8.509   0.450   3.612 -0.3406  0.1783  1.2699
  174MOL0     H23976   8.637   0.500   3.770 -0.8711  1.1241 -0.4094
  174MOL0     H23977   8.622   0.529   3.944  0.0272  1.0773 -1.6407
  174MOL0     H23978   8.750   0.291   3.953 -1.1386 -0.5724 -0.1896
  174MOL0     H23979   8.775   0.324   3.777 -1.9202 -0.4359 -0.0444
  174MOL0     H23980   8.863   0.497   4.008 -2.4688  0.3466 -0.6679
  174MOL0     H23981   8.882   0.542   3.827 -1.7622 -2.1922 -2.4510
  174MOL0     H23982   9.032   0.364   3.785  2.8886 -0.6013  1.3256
  174MOL0     H23983   8.998   0.297   3.950 -0.1605 -0.2957  0.0892
  174MOL0     H23984   9.172   0.529   3.866 -1.0776 -0.5296 -0.3169
  174MOL0     H23985   9.098   0.535   4.027 -0.2894 -0.0635  0.3102
  174MOL0     H23986   9.214   0.317   4.086  3.5651 -1.6809  0.8509
  174MOL0     H23987   9.325   0.436   4.033 -0.1043 -0.8701  0.9133
  174MOL0     H23988   9.266   0.296   3.794 -0.9171  0.3090  0.2791
  174MOL0     H23989   9.246   0.177   3.906  0.4345 -0.5564 -1.2516
  174MOL0     H23990   9.485   0.175   3.853 -1.5534 -1.3097  1.3029
  174MOL0     H23991   9.466   0.221   4.018  1.5032 -1.9598 -0.3968
  174MOL0     H23992   8.254   0.342   3.949 -0.0367 -2.6428 -0.3942
  174MOL0     H23993   8.069   0.368   3.820  1.3461 -0.5620  3.5210
  174MOL0     H23994   7.734   0.230   3.504 -2.9753  0.6951  0.5006
  174MOL0     H23995   7.557   0.247   3.331  2.3761 -3.5467  1.5705
  174MOL0     H23996   6.060   0.420   2.648 -1.0065 -0.6587 -1.3853
  174MOL0     H23997   5.941   0.513   2.450  0.6555 -0.5481 -0.7622
  174MOL0     H23998   5.486   0.313   2.211  1.7571  0.5418  0.2323
  174MOL0     H23999   5.359   0.361   2.003  2.2399 -1.1445 -3.4790
  174MOL0     H24000   5.243   0.444   1.844 -0.5584 -1.5142  2.6710
  174MOL0     H24001   5.150   0.558   1.944 -0.8063 -0.2120 -0.8454
  174MOL0     H24002   5.152   0.712   1.739 -1.2554  0.1979  1.4345
  174MOL0     H24003   5.047   0.573   1.716  0.0240 -1.3961 -1.1915
  174MOL0     H24004   5.323   0.645   1.615  1.5451 -1.4663 -0.0610
  174MOL0     H24005   5.275   0.477   1.620  0.5866  0.6683  0.6623
  174MOL0     H24006   5.119   0.681   1.472 -3.0144 -1.4586  2.0146
  174MOL0     H24007   5.096   0.509   1.463 -1.2866  1.0544  3.8830
  174MOL0     H24008   5.401   0.515   1.183 -0.4337  2.5990 -1.0036
  174MOL0     H24009   5.475   0.772   2.045  4.1963  0.1657 -1.3267
  174MOL0     H24010   5.645   0.841   2.196  1.3610 -0.1657  0.1038
  174MOL0     H24011   5.558   0.794   2.331 -4.4654 -0.3742 -2.7553
  174MOL0     H24012   5.724   0.719   2.297  0.4708  1.1583 -0.1270
  175MOL0     O24013   3.373  10.449   5.517 -0.4807 -0.7817 -1.0918
  175MOL0     C24014   3.322  10.379   5.604 -0.0773 -0.6577  0.3958
  175MOL0     O24015   3.384  10.288   5.688  0.0328 -0.5288 -0.4097
  175MOL0     C24016   3.516  10.260   5.658  0.0251 -0.6881  0.6313
  175MOL0     C24017   3.544  10.162   5.568 -0.1832 -0.6020  0.6939
  175MOL0     C24018   3.673  10.111   5.535  0.6417 -0.0082 -0.4302
  175MOL0     C24019   3.779  10.161   5.612  0.2066 -0.2489 -0.4933
  175MOL0     O24020   3.907  10.117   5.611  0.5368 -0.6136  0.7026
  175MOL0     C24021   3.931   9.992   5.549 -0.1313 -0.5682  0.3382
  175MOL0     C24022   4.072   9.941   5.592  0.0108 -0.4855 -0.4858
  175MOL0     C24023   4.191  10.041   5.604  0.4061  0.1421 -0.7789
  175MOL0     C24024   4.325   9.974   5.634 -0.3090 -0.3480  0.3364
  175MOL0     C24025   4.418  10.094   5.680 -0.5992  0.2327  0.4809
  175MOL0     C24026   4.558  10.038   5.665  0.3626  0.4103  0.2436
  175MOL0     C24027   4.668  10.128   5.708  1.0288 -0.3097 -0.8002
  175MOL0     C24028   4.796  10.056   5.683 -0.5771 -1.1377 -0.0060
  175MOL0     N24029   4.908  10.162   5.686  0.2010 -0.4282  1.0764
  175MOL0     C24030   4.941  10.238   5.802 -0.1046  0.2150  0.9260
  175MOL0     C24031   5.026  10.328   5.751 -0.1723 -0.3569 -1.1097
  175MOL0     C24032   5.078  10.452   5.824  0.4359  0.2386 -0.4692
  175MOL0     C24033   5.207  10.428   5.884  0.5656 -0.3188  0.1596
  175MOL0     C24034   5.309  10.492   5.801 -0.2548  0.1920 -1.1237
  175MOL0     C24035   5.450  10.452   5.840  0.0373  0.3080  0.0339
  175MOL0     O24036   5.550  10.521   5.754  0.2301 -0.0127 -0.1993
  175MOL0     C24037   5.682  10.512   5.793 -0.2828  0.7396 -0.0033
  175MOL0     C24038   5.747  10.402   5.848  0.0564 -0.3967  0.1107
  175MOL0     C24039   5.884  10.391   5.859  0.1115  0.3229 -0.1013
  175MOL0     C24040   5.928  10.257   5.922  0.0096  0.8888  0.4545
  175MOL0     C24041   5.967  10.502   5.821 -0.8759  0.6762 -0.1001
  175MOL0     C24042   6.117  10.502   5.856  0.3749 -0.7793 -0.1307
  175MOL0     O24043   6.184  10.609   5.803  0.8083  0.1233  0.6221
  175MOL0     C24044   6.324  10.614   5.826 -0.0447 -0.0441  0.0284
  175MOL0     C24045   6.386  10.513   5.762 -0.3891  0.7710  0.5457
  175MOL0     C24046   6.529  10.508   5.762  0.3800  0.1907 -0.1200
  175MOL0     C24047   6.605  10.613   5.824  0.4675  0.5573  0.7367
  175MOL0     O24048   6.754  10.612   5.820  0.5470  0.1152  0.3603
  175MOL0     C24049   6.813  10.742   5.824  0.0140 -0.2531  0.0743
  175MOL0     C24050   6.945  10.739   5.757  0.7958 -0.5916 -0.6097
  175MOL0     C24051   7.025  10.618   5.808 -0.9221  0.5607 -0.2710
  175MOL0     C24052   7.170  10.622   5.773 -0.5065  0.8754  0.1044
  175MOL0     C24053   7.215  10.579   5.626  0.3329  0.6995 -0.7042
  175MOL0     C24054   7.191  10.428   5.596  0.6714 -0.7914 -0.2031
  175MOL0     C24055   7.249  10.388   5.462  0.9193 -0.8865  0.0617
  175MOL0     C24056   7.400  10.374   5.442 -0.0621 -0.0148 -0.8196
  175MOL0    Cl24057   7.446  10.259   5.571  0.2089  0.0163  0.4869
  175MOL0     C24058   6.528  10.714   5.892 -0.6751 -0.5214  0.1686
  175MOL0     C24059   6.385  10.714   5.885 -1.2180 -0.2986  0.4754
  175MOL0     O24060   6.176  10.414   5.917  0.0743 -0.1414 -0.0940
  175MOL0     C24061   5.899  10.618   5.769  0.2616 -0.0448  0.4411
  175MOL0     C24062   5.761  10.620   5.753  0.4469 -0.7881 -1.0105
  175MOL0     N24063   5.040  10.327   5.615  0.5827  0.5924 -0.3360
  175MOL0     N24064   4.960  10.235   5.579  0.0989 -0.1731 -0.6991
  175MOL0     C24065   3.746  10.254   5.720 -0.4816  0.0660 -0.4349
  175MOL0     C24066   3.621  10.310   5.730 -0.5051  0.1321 -0.7700
  175MOL0     C24067   3.181  10.412   5.641  0.1945  0.1948  0.5997
  175MOL0     C24068   3.101  10.321   5.718 -0.5486 -0.3151 -0.2737
  175MOL0     C24069   2.972  10.343   5.757  0.9815  0.2945  0.0242
  175MOL0     C24070   2.911  10.459   5.717  0.8126  0.5532 -0.2218
  175MOL0     O24071   2.778  10.492   5.747  0.3639 -0.1779 -0.0574
  175MOL0     C24072   2.705  10.402   5.833 -0.3423  0.4726 -0.1434
  175MOL0     C24073   2.571  10.449   5.874 -0.2644 -0.0682 -0.1233
  175MOL0     C24074   2.466  10.455   5.766 -0.2274  0.7118  0.0147
  175MOL0     C24075   2.326  10.479   5.834  0.1313 -0.1000 -0.3324
  175MOL0     C24076   2.206  10.429   5.759  0.0537  0.2171  0.0022
  175MOL0     C24077   2.111  10.393   5.697  0.4298  0.7440  0.1989
  175MOL0     C24078   2.973  10.545   5.626  0.3130  0.8201 -0.1615
  175MOL0     C24079   3.105  10.523   5.592  0.3364  0.2016  0.0652
  175MOL0     C24080   3.155  10.636   5.523  0.1375 -0.1115 -0.6436
  175MOL0     H24081   3.460  10.111   5.522 -0.0266 -0.1727 -0.0719
  175MOL0     H24082   3.680  10.021   5.475  0.9000  0.9631 -1.9067
  175MOL0     H24083   3.936  10.003   5.440 -0.5288  0.5999  0.4285
  175MOL0     H24084   3.850   9.925   5.580 -1.3550  0.8567  0.3385
  175MOL0     H24085   4.069   9.887   5.687  1.2773  1.4313  0.7002
  175MOL0     H24086   4.103   9.875   5.510  2.9771  1.6065 -1.2130
  175MOL0     H24087   4.203  10.104   5.516 -0.8461  1.3018 -0.1597
  175MOL0     H24088   4.176  10.111   5.686  0.8474 -0.6180 -0.0302
  175MOL0     H24089   4.311   9.898   5.711  1.5689  0.0309  1.0860
  175MOL0     H24090   4.369   9.934   5.542 -0.8078  1.6861 -0.8461
  175MOL0     H24091   4.388  10.137   5.776 -1.9697  1.5731 -0.4780
  175MOL0     H24092   4.404  10.174   5.607 -2.9143 -0.5467 -0.0236
  175MOL0     H24093   4.558   9.953   5.734  2.7366  1.1246  1.1916
  175MOL0     H24094   4.585  10.008   5.563 -0.3128  1.7154 -0.3460
  175MOL0     H24095   4.662  10.141   5.817  3.0000  0.1245 -0.7079
  175MOL0     H24096   4.650  10.218   5.649  2.0310  0.6459  0.2935
  175MOL0     H24097   4.813   9.977   5.757 -1.3077 -0.5104  0.8532
  175MOL0     H24098   4.796  10.004   5.587  1.4925 -0.1779 -0.5760
  175MOL0     H24099   4.893  10.233   5.899 -0.2482  0.2765  0.8584
  175MOL0     H24100   5.004  10.465   5.903 -0.0243 -1.0773 -0.6495
  175MOL0     H24101   5.072  10.540   5.759 -1.6681  2.0344  1.9699
  175MOL0     H24102   5.206  10.467   5.986  1.4727 -3.2302  1.3856
  175MOL0     H24103   5.218  10.321   5.906 -1.3787 -0.8556 -1.2510
  175MOL0     H24104   5.284  10.479   5.695  0.6614  0.6096 -1.4065
  175MOL0     H24105   5.312  10.597   5.831 -0.6306 -0.0548 -0.1983
  175MOL0     H24106   5.468  10.477   5.945 -1.9965  1.6912  0.1022
  175MOL0     H24107   5.455  10.343   5.826 -0.3653  0.5224 -1.9815
  175MOL0     H24108   5.678  10.321   5.871 -1.3941 -0.1934 -3.1070
  175MOL0     H24109   6.031  10.230   5.897  0.0577 -0.9804  2.3482
  175MOL0     H24110   5.857  10.175   5.912  0.9676  0.0867  0.1119
  175MOL0     H24111   5.930  10.278   6.030 -1.8840  1.4066  0.4125
  175MOL0     H24112   6.335  10.434   5.707 -2.6295  2.8766 -0.6061
  175MOL0     H24113   6.588  10.431   5.714 -0.6552 -0.8974  0.3026
  175MOL0     H24114   6.754  10.813   5.765  2.8040  0.5770 -1.9105
  175MOL0     H24115   6.830  10.770   5.929  2.9433 -2.2971  0.2851
  175MOL0     H24116   6.929  10.729   5.649  0.4522  2.3906 -0.9277
  175MOL0     H24117   6.990  10.834   5.787 -1.3765  0.6313 -0.9659
  175MOL0     H24118   6.988  10.530   5.755 -0.0619 -0.7758  1.2614
  175MOL0     H24119   7.026  10.601   5.916 -0.0635  2.1013 -0.0055
  175MOL0     H24120   7.228  10.556   5.838  1.1075  1.1474 -1.0023
  175MOL0     H24121   7.211  10.722   5.788 -2.2417  1.5017  0.9754
  175MOL0     H24122   7.157  10.639   5.554 -0.3683  1.2757  0.3193
  175MOL0     H24123   7.322  10.601   5.618  1.2756 -2.5286  1.4936
  175MOL0     H24124   7.085  10.401   5.593  0.5260 -0.2882  0.3808
  175MOL0     H24125   7.235  10.368   5.676 -0.1999 -0.3095  0.6377
  175MOL0     H24126   7.210  10.455   5.385  3.1530  0.0401 -0.3460
  175MOL0     H24127   7.219  10.287   5.434 -0.8993 -0.1147 -0.9156
  175MOL0     H24128   7.441  10.474   5.460  1.1978  0.0158 -3.4668
  175MOL0     H24129   7.430  10.339   5.343  0.3594  0.9091 -1.0275
  175MOL0     H24130   6.582  10.801   5.928 -1.3777 -0.3418  0.8091
  175MOL0     H24131   6.327  10.799   5.922  1.5472  2.2291 -0.5964
  175MOL0     H24132   5.954  10.708   5.742  0.0264 -0.4387 -1.4490
  175MOL0     H24133   5.707  10.707   5.717  0.3775 -0.4400 -0.1061
  175MOL0     H24134   3.824  10.287   5.788  0.7811 -1.3110 -1.1602
  175MOL0     H24135   3.598  10.392   5.797  1.2056  0.8666 -1.0255
  175MOL0     H24136   3.150  10.238   5.769  0.7801  1.0216  0.7237
  175MOL0     H24137   2.926  10.264   5.814  0.8531 -0.8644 -1.6250
  175MOL0     H24138   2.688  10.311   5.773 -1.0408 -0.9418  2.0944
  175MOL0     H24139   2.758  10.391   5.927 -2.1532  2.5839  1.2357
  175MOL0     H24140   2.574  10.540   5.934  0.3092 -0.8941  1.1560
  175MOL0     H24141   2.541  10.368   5.942  2.8942 -1.5294 -0.3165
  175MOL0     H24142   2.475  10.542   5.700 -0.4648 -1.2268 -2.7325
  175MOL0     H24143   2.466  10.369   5.698  0.2730  1.4280 -0.9276
  175MOL0     H24144   2.309  10.581   5.869  0.5119 -0.8158  2.1048
  175MOL0     H24145   2.333  10.415   5.922 -0.1287 -0.7273 -0.7566
  175MOL0     H24146   2.030  10.355   5.638 -1.4101  1.3219  2.2368
  175MOL0     H24147   2.915  10.631   5.593 -1.9343 -1.8144 -3.8268
  175MOL0     H24148   3.262  10.652   5.537 -0.0769  2.7065 -1.5587
  175MOL0     H24149   3.127  10.639   5.417 -2.2815  2.6526 -0.0322
  175MOL0     H24150   3.110  10.725   5.568 -0.4198 -0.0453 -1.3115
  176MOL0     O24151  10.773   4.938   0.039 -0.1648  0.2049 -0.3623
  176MOL0     C24152  10.793   4.839  -0.022 -0.4147 -0.4218  0.2218
  176MOL0     O24153  10.706   4.737  -0.044 -0.7161 -0.5358  0.0953
  176MOL0     C24154  10.569   4.751  -0.003  0.1081 -0.0553 -1.5220
  176MOL0     C24155  10.472   4.710  -0.093  0.3655 -0.0604  0.0910
  176MOL0     C24156  10.338   4.730  -0.068 -0.0389 -0.8581  0.3044
  176MOL0     C24157  10.293   4.771   0.057  0.3869  0.2203  0.3967
  176MOL0     O24158  10.166   4.778   0.107 -0.0786  0.0463  0.5988
  176MOL0     C24159  10.060   4.793   0.011  0.5794  0.5335  0.3066
  176MOL0     C24160   9.925   4.768   0.070 -1.0111 -0.1967 -0.3332
  176MOL0     C24161   9.896   4.855   0.195  0.4067  0.2227 -0.4762
  176MOL0     C24162   9.762   4.828   0.265 -0.4348 -0.7832 -0.2691
  176MOL0     C24163   9.733   4.924   0.384  0.2977 -0.7683 -0.3354
  176MOL0     C24164   9.593   4.894   0.436 -0.2999 -0.5182 -0.2929
  176MOL0     C24165   9.472   4.956   0.363 -0.1956 -0.5674  0.3609
  176MOL0     C24166   9.478   5.110   0.329  0.7006 -0.1082 -1.2086
  176MOL0     N24167   9.483   5.205   0.451 -0.2985 -0.1602 -0.3908
  176MOL0     C24168   9.376   5.236   0.532  0.5972  0.1941  0.0352
  176MOL0     C24169   9.414   5.341   0.609 -0.3441 -0.5773  0.2676
  176MOL0     C24170   9.328   5.405   0.721  0.2422  0.2470 -0.2898
  176MOL0     C24171   9.179   5.390   0.709 -0.2958  0.0187 -0.2364
  176MOL0     C24172   9.098   5.498   0.787  0.0469  0.4291  0.5903
  176MOL0     C24173   9.132   5.534   0.928 -0.0909  0.0861  0.2365
  176MOL0     O24174   9.115   5.416   1.013 -0.2581  0.3442 -0.0177
  176MOL0     C24175   9.099   5.449   1.147 -0.0284 -0.3199 -0.2232
  176MOL0     C24176   9.019   5.374   1.226  0.8445  0.4632  0.4757
  176MOL0     C24177   8.997   5.401   1.363 -0.8032  0.7182 -0.5582
  176MOL0     C24178   8.904   5.314   1.428  0.3583 -0.4082  0.3186
  176MOL0     C24179   9.055   5.512   1.432 -0.3575  0.4543  0.5778
  176MOL0     C24180   9.033   5.549   1.577  0.0182 -0.4761 -0.0021
  176MOL0     O24181   9.010   5.449   1.662 -0.5625 -0.3170 -1.4032
  176MOL0     C24182   8.989   5.464   1.805 -0.3388  0.8314  0.3383
  176MOL0     C24183   9.008   5.583   1.868  0.5506 -0.0978  0.2606
  176MOL0     C24184   8.974   5.596   2.001 -0.9431 -0.4249 -0.2646
  176MOL0     C24185   8.921   5.493   2.077 -0.8000  0.5746 -0.6573
  176MOL0     O24186   8.917   5.517   2.210  0.2609 -0.4288  0.9448
  176MOL0     C24187   8.860   5.422   2.304  0.0518  0.4175 -0.0384
  176MOL0     C24188   8.855   5.491   2.439  0.0518  0.3764  0.3873
  176MOL0     C24189   8.985   5.516   2.512  0.3449  0.1357  0.6558
  176MOL0     C24190   9.050   5.651   2.455 -0.3295  0.0088 -0.9825
  176MOL0     C24191   9.196   5.664   2.511  0.5030 -0.3751 -0.3093
  176MOL0     C24192   9.278   5.772   2.437 -0.1747 -0.1299 -0.1591
  176MOL0     C24193   9.426   5.763   2.481 -0.5717  0.7687 -0.0754
  176MOL0     C24194   9.513   5.883   2.437 -0.7368  0.2548  0.7735
  176MOL0    Cl24195   9.668   5.886   2.524  0.0643  0.2661 -0.2831
  176MOL0     C24196   8.906   5.364   2.009  0.5747  0.1865  0.7551
  176MOL0     C24197   8.933   5.351   1.872  0.6181  0.2514  0.3607
  176MOL0     O24198   8.997   5.663   1.587 -0.5570  0.1210  0.1838
  176MOL0     C24199   9.140   5.588   1.348  0.2664  0.5756 -0.6638
  176MOL0     C24200   9.171   5.553   1.213 -0.0741  0.0172  0.2932
  176MOL0     N24201   9.551   5.374   0.572  0.7018  0.6206  0.2643
  176MOL0     N24202   9.583   5.293   0.470 -0.2050 -0.4645 -0.1549
  176MOL0     C24203  10.392   4.802   0.148 -0.4930 -0.7871 -0.4755
  176MOL0     C24204  10.528   4.795   0.123 -0.0232 -0.7580  0.3041
  176MOL0     C24205  10.928   4.825  -0.081 -0.0294  0.1290 -0.8669
  176MOL0     C24206  11.002   4.710  -0.060  0.7426 -0.9083 -1.0279
  176MOL0     C24207  11.138   4.708  -0.100 -0.4994 -0.1160 -1.0106
  176MOL0     C24208  11.207   4.820  -0.151  0.8727 -0.0608  0.3818
  176MOL0     O24209  11.335   4.813  -0.199  0.0894 -1.0532  0.2327
  176MOL0     C24210  11.425   4.718  -0.140  0.8815 -0.3413 -0.2534
  176MOL0     C24211  11.561   4.784  -0.169 -0.1814 -0.6757  0.6495
  176MOL0     C24212  11.604   4.743  -0.308 -0.3721 -0.2548 -0.1089
  176MOL0     C24213  11.755   4.780  -0.340  0.1662 -0.4445  0.2216
  176MOL0     C24214  11.767   4.925  -0.349  0.1727 -0.3243  0.1471
  176MOL0     C24215  11.775   5.047  -0.352  0.9116 -0.2057 -0.0576
  176MOL0     C24216  11.129   4.932  -0.178  0.2498  0.0203  1.4949
  176MOL0     C24217  10.989   4.931  -0.153  0.0323  0.0670  0.4407
  176MOL0     C24218  10.914   5.057  -0.197  0.4982 -0.2240  0.3871
  176MOL0     H24219  10.503   4.667  -0.188  1.5808  0.1709  0.3748
  176MOL0     H24220  10.272   4.684  -0.141  0.0136  0.3693 -0.5449
  176MOL0     H24221  10.077   4.727  -0.075  0.1718  0.6491  0.1355
  176MOL0     H24222  10.064   4.893  -0.032  2.0138 -0.9118 -3.3202
  176MOL0     H24223   9.848   4.791  -0.003 -0.4386  1.5835 -0.4261
  176MOL0     H24224   9.923   4.661   0.096  1.0972 -0.8214 -2.4191
  176MOL0     H24225   9.964   4.836   0.278 -0.0893  1.0470  0.1391
  176MOL0     H24226   9.907   4.959   0.161 -1.3942  0.2867 -1.0058
  176MOL0     H24227   9.685   4.835   0.188 -0.6620 -3.7503 -0.3964
  176MOL0     H24228   9.766   4.726   0.303  0.4323 -0.3383  0.8891
  176MOL0     H24229   9.744   5.032   0.366  2.0234 -1.3581 -3.7071
  176MOL0     H24230   9.803   4.903   0.465  0.7254  1.7457  0.0521
  176MOL0     H24231   9.592   4.786   0.453 -1.2747 -0.4877 -0.0752
  176MOL0     H24232   9.588   4.940   0.535  0.5191 -1.1567  0.0496
  176MOL0     H24233   9.379   4.946   0.421  0.2551  0.5056  1.2840
  176MOL0     H24234   9.462   4.900   0.269  2.0936 -0.9322  0.2813
  176MOL0     H24235   9.561   5.126   0.260  1.4284 -0.0687 -0.3451
  176MOL0     H24236   9.382   5.135   0.285  0.0080 -0.5766 -0.0171
  176MOL0     H24237   9.284   5.180   0.537  1.6970 -1.8102 -0.8907
  176MOL0     H24238   9.346   5.512   0.716 -2.8213  0.8140 -1.7698
  176MOL0     H24239   9.362   5.372   0.819 -1.6662 -2.1921 -0.3355
  176MOL0     H24240   9.147   5.402   0.605 -2.7551 -0.9326  0.3397
  176MOL0     H24241   9.151   5.291   0.746 -3.3316  0.6006 -0.7054
  176MOL0     H24242   9.096   5.592   0.732 -3.3366 -0.6788 -1.4785
  176MOL0     H24243   8.991   5.475   0.779  0.3683 -0.8585 -0.3235
  176MOL0     H24244   9.235   5.569   0.934  0.0399  0.4750 -2.6901
  176MOL0     H24245   9.063   5.612   0.960  0.2062 -0.2471  1.7536
  176MOL0     H24246   8.979   5.289   1.173  3.6964 -1.1034  0.6649
  176MOL0     H24247   8.869   5.232   1.365  3.0051 -1.6791  0.3581
  176MOL0     H24248   8.819   5.368   1.471  1.9588  0.8004  2.1196
  176MOL0     H24249   8.953   5.267   1.514 -0.1154 -3.2151 -0.8586
  176MOL0     H24250   9.033   5.675   1.816 -2.3438  0.9789  0.5920
  176MOL0     H24251   8.977   5.698   2.039  3.7668  0.1803 -1.6470
  176MOL0     H24252   8.757   5.395   2.281  0.6270 -1.4898 -0.5290
  176MOL0     H24253   8.924   5.333   2.299 -1.9301 -1.1382  0.7861
  176MOL0     H24254   8.810   5.591   2.439  1.0262  0.8386  1.6518
  176MOL0     H24255   8.797   5.429   2.507 -0.7304  2.9650  2.2287
  176MOL0     H24256   9.061   5.441   2.489 -0.7923 -0.6515 -0.6881
  176MOL0     H24257   8.973   5.528   2.620 -3.2500  1.2716  0.2654
  176MOL0     H24258   8.991   5.735   2.493  2.0965  0.7121  1.5813
  176MOL0     H24259   9.058   5.661   2.346  3.7887  2.7580 -0.6594
  176MOL0     H24260   9.181   5.709   2.610 -3.1014 -0.6270 -0.6195
  176MOL0     H24261   9.241   5.564   2.514  0.6907 -0.3077  2.7776
  176MOL0     H24262   9.236   5.871   2.459 -0.2327  0.3866 -2.3830
  176MOL0     H24263   9.267   5.764   2.329  4.7072  0.1192 -0.9138
  176MOL0     H24264   9.473   5.672   2.444  0.6490  0.1080  2.8440
  176MOL0     H24265   9.427   5.766   2.590  0.5040  0.3803 -0.0579
  176MOL0     H24266   9.464   5.979   2.456  0.1145  0.6429  1.0609
  176MOL0     H24267   9.529   5.880   2.329 -0.8326  4.3652  0.4962
  176MOL0     H24268   8.869   5.277   2.062  0.1257 -0.4767 -0.6027
  176MOL0     H24269   8.910   5.262   1.815  1.6149  1.8655 -2.8049
  176MOL0     H24270   9.201   5.665   1.394  0.0963 -0.5735  1.6667
  176MOL0     H24271   9.242   5.619   1.165  2.6245 -0.7704  2.9206
  176MOL0     H24272  10.357   4.843   0.242 -1.0043  0.9323 -1.3513
  176MOL0     H24273  10.605   4.831   0.191 -2.2496  2.3868  1.4340
  176MOL0     H24274  10.972   4.629   0.006  0.6543  1.3097  1.8549
  176MOL0     H24275  11.193   4.618  -0.073 -0.8481 -0.3556 -1.1020
  176MOL0     H24276  11.408   4.710  -0.033 -2.4544  3.3721 -0.2861
  176MOL0     H24277  11.414   4.620  -0.187 -0.3914 -1.7838  2.8002
  176MOL0     H24278  11.637   4.763  -0.094 -0.5683 -0.3906  1.1280
  176MOL0     H24279  11.555   4.892  -0.160  0.9325 -0.4453 -0.9503
  176MOL0     H24280  11.592   4.635  -0.319 -0.3590 -0.2531 -0.1389
  176MOL0     H24281  11.535   4.792  -0.376  0.3402  3.0755  1.3811
  176MOL0     H24282  11.785   4.732  -0.434  0.7113 -0.1779  0.2566
  176MOL0     H24283  11.823   4.742  -0.263  0.0814  0.6931  0.8821
  176MOL0     H24284  11.787   5.148  -0.386  0.0241  0.0063  0.2447
  176MOL0     H24285  11.174   5.017  -0.229  0.3665 -1.1474 -0.4705
  176MOL0     H24286  10.980   5.119  -0.259 -1.2578 -0.3464 -1.7085
  176MOL0     H24287  10.823   5.037  -0.252  0.8265 -0.5711 -0.0323
  176MOL0     H24288  10.878   5.109  -0.107  1.0042 -1.0772  1.1056
  177MOL0     O24289   0.546   6.571   4.096  0.2126  0.2121  0.1175
  177MOL0     C24290   0.526   6.593   4.214  0.1123  0.6733  0.4426
  177MOL0     O24291   0.614   6.596   4.307 -0.2895 -0.3698 -0.0129
  177MOL0     C24292   0.754   6.587   4.283 -0.4615 -0.2863 -0.6121
  177MOL0     C24293   0.823   6.521   4.378  0.2628  0.1928  0.2845
  177MOL0     C24294   0.953   6.483   4.357 -0.5023  0.4488  0.0191
  177MOL0     C24295   1.016   6.519   4.236  0.5071  0.3842  0.4945
  177MOL0     O24296   1.138   6.478   4.192  0.1084 -0.4491  0.5813
  177MOL0     C24297   1.216   6.424   4.304 -0.9808 -0.3316  0.9257
  177MOL0     C24298   1.353   6.383   4.249 -0.1330  0.7553 -0.5653
  177MOL0     C24299   1.442   6.330   4.363  0.2240  0.1144 -0.3101
  177MOL0     C24300   1.574   6.274   4.309 -0.3172  0.2706 -1.0212
  177MOL0     C24301   1.627   6.174   4.417 -0.7281 -0.6605  0.1801
  177MOL0     C24302   1.666   6.258   4.547  0.0700  0.3436  0.2675
  177MOL0     C24303   1.758   6.176   4.646 -0.0692  0.3032 -0.2238
  177MOL0     C24304   1.891   6.125   4.583  0.0281 -0.5635  0.7772
  177MOL0     N24305   1.984   6.087   4.687 -0.6928 -0.6987 -0.0713
  177MOL0     C24306   1.977   5.973   4.776 -0.2310 -0.1533 -0.5225
  177MOL0     C24307   2.080   5.990   4.859 -0.1558 -0.2737  0.3512
  177MOL0     C24308   2.111   5.898   4.963  0.1664  0.2278  0.4165
  177MOL0     C24309   2.002   5.873   5.070  0.1521  0.3553  0.0930
  177MOL0     C24310   2.049   5.762   5.165  0.0796 -0.0046  0.2319
  177MOL0     C24311   1.954   5.757   5.289 -0.1867  0.7502  0.9827
  177MOL0     O24312   1.830   5.691   5.248 -0.4865 -0.0023  0.0842
  177MOL0     C24313   1.730   5.686   5.338  0.9058  0.8787 -0.4952
  177MOL0     C24314   1.738   5.699   5.482 -0.6605 -0.8619 -0.1319
  177MOL0     C24315   1.633   5.687   5.573  0.5451  1.0122 -0.3444
  177MOL0     C24316   1.666   5.706   5.719 -0.1689  0.5294 -0.1832
  177MOL0     C24317   1.501   5.662   5.510 -0.3382 -1.1940 -0.0849
  177MOL0     C24318   1.380   5.638   5.590 -0.0482  0.1116  0.4863
  177MOL0     O24319   1.274   5.583   5.525  0.1778  0.8609 -0.2237
  177MOL0     C24320   1.159   5.539   5.586 -0.5062  0.6181 -0.3428
  177MOL0     C24321   1.084   5.421   5.548  0.4614 -0.2713 -0.3386
  177MOL0     C24322   0.970   5.380   5.610 -0.0047 -0.0240  0.7260
  177MOL0     C24323   0.913   5.447   5.717  0.0792  0.0548  0.5777
  177MOL0     O24324   0.796   5.415   5.792 -0.6979 -0.0937  1.1963
  177MOL0     C24325   0.714   5.320   5.728 -0.1368 -0.2492 -0.7588
  177MOL0     C24326   0.592   5.296   5.821  0.0173  0.4874  0.1148
  177MOL0     C24327   0.490   5.421   5.830 -0.0241 -0.2232 -0.7689
  177MOL0     C24328   0.336   5.394   5.824  0.2582  1.1534  0.3795
  177MOL0     C24329   0.264   5.342   5.945 -0.8209  0.3782 -0.6786
  177MOL0     C24330   0.233   5.467   6.031 -0.0543  0.4590  0.3002
  177MOL0     C24331   0.167   5.431   6.162 -0.2115  0.1504 -0.0091
  177MOL0     C24332   0.017   5.425   6.164  0.2884  0.1429 -0.2739
  177MOL0    Cl24333  -0.072   5.575   6.114  0.3076  0.0491  0.3913
  177MOL0     C24334   0.980   5.565   5.748 -0.8853 -0.1530  0.0455
  177MOL0     C24335   1.101   5.605   5.691 -0.4301 -0.1454 -0.0104
  177MOL0     O24336   1.383   5.652   5.715 -0.9916 -0.3593  0.9188
  177MOL0     C24337   1.497   5.645   5.371 -0.6353  0.3620 -0.2268
  177MOL0     C24338   1.611   5.654   5.288  0.1523  0.1782 -0.2372
  177MOL0     N24339   2.165   6.099   4.821 -0.1244  0.1889  0.0574
  177MOL0     N24340   2.096   6.160   4.725  0.0138  1.2168 -0.0576
  177MOL0     C24341   0.952   6.589   4.141  0.6413 -0.2604  0.1656
  177MOL0     C24342   0.819   6.625   4.161  0.6014  0.2809  0.1610
  177MOL0     C24343   0.384   6.609   4.267 -0.3113 -0.3846 -0.0878
  177MOL0     C24344   0.366   6.665   4.399 -0.3065 -0.2097  0.5217
  177MOL0     C24345   0.244   6.690   4.459  0.4896 -0.0485  0.2326
  177MOL0     C24346   0.126   6.648   4.387 -1.9497 -0.0992  0.2372
  177MOL0     O24347   0.003   6.649   4.449  0.5247 -0.4837 -0.8748
  177MOL0     C24348  -0.118   6.613   4.379  0.0631 -0.9509 -0.2375
  177MOL0     C24349  -0.233   6.664   4.461  0.1089  0.3331  0.3789
  177MOL0     C24350  -0.377   6.642   4.398 -0.0915  0.5225 -0.0088
  177MOL0     C24351  -0.500   6.652   4.495 -0.5094  0.2582  0.2948
  177MOL0     C24352  -0.499   6.574   4.622  0.4832 -0.0769  1.1332
  177MOL0     C24353  -0.500   6.513   4.725 -0.4340  0.1068  0.3864
  177MOL0     C24354   0.144   6.602   4.256  0.8013  0.7667  0.2741
  177MOL0     C24355   0.270   6.585   4.195  0.2835  0.5677  0.2394
  177MOL0     C24356   0.267   6.518   4.060  0.1586 -0.6760 -0.1526
  177MOL0     H24357   0.770   6.492   4.469 -0.1676 -1.0427 -0.3386
  177MOL0     H24358   0.978   6.416   4.438 -0.8957 -0.1335 -0.3383
  177MOL0     H24359   1.177   6.342   4.365  2.5080 -2.2094  0.9143
  177MOL0     H24360   1.234   6.506   4.374  1.4629  0.3105 -0.3694
  177MOL0     H24361   1.341   6.315   4.164  1.0207  1.0962 -1.0287
  177MOL0     H24362   1.402   6.474   4.215  1.2282 -0.0542 -0.8775
  177MOL0     H24363   1.456   6.412   4.435 -2.2716  0.4485 -0.1119
  177MOL0     H24364   1.391   6.249   4.415 -0.6570  0.2764 -0.8924
  177MOL0     H24365   1.555   6.230   4.211 -1.8550  1.3453 -1.2355
  177MOL0     H24366   1.648   6.351   4.282 -0.2604 -0.5315 -3.3320
  177MOL0     H24367   1.720   6.131   4.377  1.0298  3.4229 -0.6949
  177MOL0     H24368   1.564   6.087   4.438 -1.0273 -0.1513  1.5432
  177MOL0     H24369   1.719   6.347   4.511 -1.0029  0.3286 -1.4376
  177MOL0     H24370   1.575   6.299   4.592 -0.5695  0.3756 -1.0181
  177MOL0     H24371   1.703   6.095   4.694  2.0872 -0.5994  0.8405
  177MOL0     H24372   1.783   6.245   4.728 -0.4725 -1.6113  1.5717
  177MOL0     H24373   1.866   6.042   4.517 -1.0240  1.0864 -1.0000
  177MOL0     H24374   1.928   6.215   4.534  1.6849  0.1450  3.1440
  177MOL0     H24375   1.900   5.899   4.759 -1.2642  1.3414 -2.8323
  177MOL0     H24376   2.198   5.939   5.015  0.1395  0.8475 -0.0072
  177MOL0     H24377   2.136   5.796   4.931  0.0694  0.2659  0.2150
  177MOL0     H24378   1.997   5.971   5.119  0.3905  1.2572 -1.6391
  177MOL0     H24379   1.909   5.837   5.026 -0.2204 -1.3929  2.1411
  177MOL0     H24380   2.052   5.663   5.119 -0.8970  0.6402 -1.2725
  177MOL0     H24381   2.147   5.788   5.208 -0.6396  1.8990  0.8101
  177MOL0     H24382   2.005   5.705   5.371  0.2640  0.6214  0.6233
  177MOL0     H24383   1.935   5.859   5.325 -0.2686  2.0679 -2.4666
  177MOL0     H24384   1.832   5.704   5.536 -0.9956  2.0996  0.3282
  177MOL0     H24385   1.757   5.765   5.736 -0.8667  1.3130  0.9665
  177MOL0     H24386   1.668   5.611   5.773 -2.0026 -0.2527 -1.4041
  177MOL0     H24387   1.584   5.760   5.766 -1.1051 -0.9387 -0.0587
  177MOL0     H24388   1.111   5.368   5.457 -0.0569 -2.2489  0.5974
  177MOL0     H24389   0.933   5.294   5.556  1.7051  2.8856 -6.1107
  177MOL0     H24390   0.691   5.344   5.624 -0.3400 -0.3630 -0.7416
  177MOL0     H24391   0.768   5.225   5.722  0.0142 -0.1351 -1.2207
  177MOL0     H24392   0.538   5.205   5.792 -0.8248  1.1633 -0.4884
  177MOL0     H24393   0.634   5.283   5.921  0.6386 -0.3221 -0.2283
  177MOL0     H24394   0.514   5.491   5.748  0.9322 -1.0739 -1.2373
  177MOL0     H24395   0.511   5.483   5.918  0.2058  0.0367 -1.0007
  177MOL0     H24396   0.322   5.334   5.734  0.0625 -0.5345  1.4850
  177MOL0     H24397   0.296   5.493   5.802 -4.6124 -0.8627 -1.2638
  177MOL0     H24398   0.176   5.286   5.912  0.2681 -2.1854  0.5040
  177MOL0     H24399   0.328   5.272   6.000 -0.0324  0.8735 -0.9375
  177MOL0     H24400   0.166   5.538   5.981  0.6771  0.8211 -0.1890
  177MOL0     H24401   0.328   5.520   6.046  0.5871 -1.0303  1.7901
  177MOL0     H24402   0.194   5.505   6.237  0.7178 -0.7854  0.6175
  177MOL0     H24403   0.200   5.333   6.200  2.3173  1.3181  1.0414
  177MOL0     H24404  -0.015   5.412   6.267  1.0882 -1.7923 -0.2235
  177MOL0     H24405  -0.021   5.342   6.104  0.9045 -0.1542 -0.2642
  177MOL0     H24406   0.937   5.622   5.831  1.9895  0.4844  1.2313
  177MOL0     H24407   1.145   5.696   5.732  2.4280 -1.0050 -0.9625
  177MOL0     H24408   1.403   5.624   5.321 -0.3900 -0.0065 -0.5470
  177MOL0     H24409   1.595   5.630   5.184  0.4544  0.0897 -0.2635
  177MOL0     H24410   0.998   6.618   4.047 -0.7435  0.3266 -0.3727
  177MOL0     H24411   0.754   6.673   4.089 -0.8685  0.1069  1.3345
  177MOL0     H24412   0.456   6.698   4.449 -0.3824  0.2934  0.3310
  177MOL0     H24413   0.244   6.717   4.564 -0.1240 -1.5768  0.6509
  177MOL0     H24414  -0.119   6.661   4.280  0.4599  0.7037  0.5154
  177MOL0     H24415  -0.115   6.504   4.369  0.0251 -1.1434  1.6528
  177MOL0     H24416  -0.206   6.770   4.467  0.4946  0.2727 -0.1912
  177MOL0     H24417  -0.233   6.619   4.560 -1.0389  0.5448  0.4909
  177MOL0     H24418  -0.384   6.710   4.313 -0.4821  0.3212 -0.1442
  177MOL0     H24419  -0.388   6.538   4.364 -2.1093  0.6923 -0.0115
  177MOL0     H24420  -0.584   6.624   4.431 -0.8064  0.7531  0.4530
  177MOL0     H24421  -0.507   6.758   4.523 -0.8560 -0.1724  1.9551
  177MOL0     H24422  -0.475   6.455   4.811  1.1789  1.8494  1.1714
  177MOL0     H24423   0.059   6.577   4.193 -2.0625  5.2074  1.8177
  177MOL0     H24424   0.358   6.464   4.034  1.0662  1.3500 -1.4490
  177MOL0     H24425   0.181   6.452   4.047  0.7756 -1.1517 -2.1163
  177MOL0     H24426   0.261   6.600   3.988 -1.2452 -0.3168  0.3346
  178MOL0     O24427  11.138   2.048   0.814  0.3586  0.2229  0.7068
  178MOL0     C24428  11.084   1.959   0.749 -0.2519  0.3650 -0.7476
  178MOL0     O24429  11.119   1.916   0.627  0.1168 -0.0986  0.2500
  178MOL0     C24430  11.211   1.974   0.545  0.3821  0.6473  0.6430
  178MOL0     C24431  11.346   1.996   0.582 -0.4799 -0.6706 -0.1498
  178MOL0     C24432  11.438   2.061   0.496 -0.7686  0.6586  0.6671
  178MOL0     C24433  11.400   2.100   0.370  0.1768  0.1616 -0.2091
  178MOL0     O24434  11.500   2.166   0.301 -0.4691  0.1423  0.1398
  178MOL0     C24435  11.502   2.164   0.165 -0.1766 -0.4942 -0.1581
  178MOL0     C24436  11.620   2.240   0.107  0.0354 -0.0155 -0.1266
  178MOL0     C24437  11.760   2.197   0.163  1.0137  0.7365 -0.1206
  178MOL0     C24438  11.870   2.280   0.091  0.2497 -0.2371 -1.1000
  178MOL0     C24439  12.005   2.264   0.164 -0.7475  0.0239 -0.3895
  178MOL0     C24440  12.109   2.336   0.079 -0.2314 -0.1863  0.8502
  178MOL0     C24441  12.245   2.340   0.151 -0.5890  0.1353  0.0214
  178MOL0     C24442  12.360   2.303   0.054 -0.5559  0.6783  0.8675
  178MOL0     N24443  12.496   2.291   0.099  0.0026  0.3389 -0.7105
  178MOL0     C24444  12.614   2.271   0.027 -0.2815  0.2104  0.2806
  178MOL0     C24445  12.703   2.263   0.120 -0.3115  0.2613 -0.7226
  178MOL0     C24446  12.841   2.217   0.107 -0.2221  0.0999 -0.2686
  178MOL0     C24447  12.916   2.278  -0.010  0.1644  0.5561  0.1394
  178MOL0     C24448  13.068   2.248   0.004  0.5183 -0.6198 -0.4830
  178MOL0     C24449  13.141   2.294  -0.115 -0.7750 -0.3352  0.4075
  178MOL0     O24450  13.282   2.271  -0.112  0.6862  0.2720 -0.7263
  178MOL0     C24451  13.370   2.362  -0.047  0.0527  0.4216  1.6372
  178MOL0     C24452  13.502   2.326  -0.079  0.0103 -0.8177  0.2879
  178MOL0     C24453  13.614   2.405  -0.028 -0.3135  0.0693  0.2766
  178MOL0     C24454  13.749   2.355  -0.067 -0.9774  0.5491  0.2760
  178MOL0     C24455  13.579   2.518   0.056  1.1818 -0.9054  0.0588
  178MOL0     C24456  13.677   2.617   0.120 -0.1056 -0.2130  0.2629
  178MOL0     O24457  13.814   2.600   0.092  0.4267 -0.1130 -0.6850
  178MOL0     C24458  13.888   2.715   0.129  0.2252 -0.5502 -0.5824
  178MOL0     C24459  13.960   2.721   0.249 -0.0043 -0.8811 -0.4811
  178MOL0     C24460  14.019   2.839   0.291  0.5979  0.3982 -0.2945
  178MOL0     C24461  14.005   2.959   0.217 -0.3160 -0.3664  0.2696
  178MOL0     O24462  14.069   3.078   0.251  0.4216  0.0240  0.1065
  178MOL0     C24463  14.164   3.079   0.355  0.4653  0.0274  0.4630
  178MOL0     C24464  14.224   3.214   0.345 -0.1660 -0.2911 -0.0087
  178MOL0     C24465  14.143   3.329   0.414 -0.3368  0.4134 -0.2093
  178MOL0     C24466  14.225   3.457   0.432 -0.2979  0.0365 -0.0129
  178MOL0     C24467  14.130   3.567   0.493  0.5127  0.0162 -0.7061
  178MOL0     C24468  14.183   3.712   0.500 -0.0854  0.7380 -0.3339
  178MOL0     C24469  14.098   3.792   0.600  0.1466 -0.3420 -0.2341
  178MOL0     C24470  13.955   3.828   0.556 -0.0925 -0.0341  0.1130
  178MOL0    Cl24471  13.952   3.848   0.373  0.2470 -0.3574  0.0328
  178MOL0     C24472  13.926   2.955   0.105  0.3972  0.0687  0.8662
  178MOL0     C24473  13.871   2.836   0.056  0.0622  0.2944 -0.1814
  178MOL0     O24474  13.636   2.692   0.202  0.3268 -0.1781 -0.4435
  178MOL0     C24475  13.438   2.544   0.087 -0.2300  0.0354 -0.3795
  178MOL0     C24476  13.338   2.473   0.033 -0.1085  0.2155 -0.3406
  178MOL0     N24477  12.645   2.294   0.242  0.3405 -0.7935  0.1078
  178MOL0     N24478  12.522   2.310   0.231  0.2983 -0.5836 -0.0756
  178MOL0     C24479  11.262   2.073   0.329 -0.4832 -0.0856  0.2639
  178MOL0     C24480  11.172   2.015   0.412  0.0225 -0.8117 -0.6656
  178MOL0     C24481  10.965   1.904   0.817  0.1439 -0.7319 -0.0460
  178MOL0     C24482  10.857   1.857   0.740 -0.1473 -0.0352 -0.0684
  178MOL0     C24483  10.736   1.814   0.795  0.6711  0.3058  0.3076
  178MOL0     C24484  10.719   1.820   0.933  0.0141 -0.1982 -0.1566
  178MOL0     O24485  10.617   1.758   0.995 -0.0493  0.2557 -0.0899
  178MOL0     C24486  10.486   1.739   0.938 -0.9716  0.3335  0.6956
  178MOL0     C24487  10.445   1.603   0.890  0.0240  0.7326 -0.4060
  178MOL0     C24488  10.421   1.507   1.007 -0.6638  0.5037  0.3553
  178MOL0     C24489  10.444   1.358   0.980  0.2146 -0.0528  0.0783
  178MOL0     C24490  10.313   1.296   0.945  0.3906 -0.4865  1.2592
  178MOL0     C24491  10.202   1.255   0.929 -0.1023  0.6431 -0.2414
  178MOL0     C24492  10.825   1.855   1.011  0.4012  0.5375 -0.1907
  178MOL0     C24493  10.943   1.902   0.961  0.0002  0.5019 -0.0121
  178MOL0     C24494  11.054   1.937   1.063  0.6160  0.1174  0.1542
  178MOL0     H24495  11.377   1.964   0.681  2.7575  1.6533 -0.2634
  178MOL0     H24496  11.539   2.084   0.527 -0.1342 -1.8057  0.6710
  178MOL0     H24497  11.404   2.194   0.127  0.0034 -3.3547 -3.3532
  178MOL0     H24498  11.511   2.058   0.137  0.4808 -0.7615  1.0143
  178MOL0     H24499  11.616   2.205   0.003 -0.6374 -0.6837  0.1175
  178MOL0     H24500  11.607   2.348   0.108  2.1423  0.2708  0.3713
  178MOL0     H24501  11.739   2.204   0.270 -3.3928 -1.2825 -0.6113
  178MOL0     H24502  11.782   2.090   0.148 -1.1880  0.2418 -0.1025
  178MOL0     H24503  11.884   2.244  -0.011  0.2583  0.8459 -1.4950
  178MOL0     H24504  11.849   2.388   0.093  1.3887  0.1111 -3.9155
  178MOL0     H24505  12.033   2.158   0.173  0.3051  0.3420  0.3830
  178MOL0     H24506  12.005   2.308   0.265  0.1908  1.4487 -0.9788
  178MOL0     H24507  12.120   2.275  -0.011  2.2085  0.5800  0.5710
  178MOL0     H24508  12.075   2.437   0.053 -0.2328  0.2524  2.4310
  178MOL0     H24509  12.251   2.277   0.240 -0.1210 -0.3204 -0.3239
  178MOL0     H24510  12.257   2.444   0.184 -1.1195  1.1211 -2.6176
  178MOL0     H24511  12.331   2.206   0.012  1.5224  0.9029 -1.3262
  178MOL0     H24512  12.345   2.363  -0.036 -0.2821  0.0902  0.4243
  178MOL0     H24513  12.628   2.244  -0.077  0.1559  1.5208 -0.0296
  178MOL0     H24514  12.834   2.108   0.101 -1.8317  0.1471  0.2460
  178MOL0     H24515  12.899   2.233   0.199  0.6919  0.3346 -0.8763
  178MOL0     H24516  12.884   2.250  -0.110 -0.6799 -0.6755  0.7247
  178MOL0     H24517  12.911   2.386   0.004 -1.4180  0.3244  1.7159
  178MOL0     H24518  13.099   2.303   0.093 -2.1607 -0.7822  0.6424
  178MOL0     H24519  13.089   2.144   0.030  2.6628 -0.2834 -0.6543
  178MOL0     H24520  13.110   2.235  -0.202 -1.1800 -3.1461  2.3241
  178MOL0     H24521  13.118   2.401  -0.122 -1.0603 -0.3837  0.5889
  178MOL0     H24522  13.523   2.238  -0.140 -1.2891 -1.9246  1.3647
  178MOL0     H24523  13.798   2.421  -0.139  2.6421 -0.6185  1.4750
  178MOL0     H24524  13.748   2.260  -0.121 -0.9984  0.8915 -0.3308
  178MOL0     H24525  13.813   2.342   0.020 -1.9790 -0.5144  0.8880
  178MOL0     H24526  13.978   2.627   0.300  1.0925 -0.9155 -0.9139
  178MOL0     H24527  14.081   2.840   0.380  0.1153  1.8797  0.0555
  178MOL0     H24528  14.130   3.060   0.457  1.4853 -1.1115  0.6114
  178MOL0     H24529  14.240   3.008   0.324  0.3129  0.6004 -1.3294
  178MOL0     H24530  14.314   3.207   0.407 -1.0792  0.3136  1.4420
  178MOL0     H24531  14.261   3.241   0.246  1.2982 -2.7202 -0.2016
  178MOL0     H24532  14.106   3.300   0.512  0.0155  1.7798  0.3515
  178MOL0     H24533  14.051   3.351   0.360 -1.4415  1.3762  1.9535
  178MOL0     H24534  14.267   3.497   0.339  0.1328  2.3174  1.0845
  178MOL0     H24535  14.309   3.446   0.501 -2.1194 -0.2607  2.2441
  178MOL0     H24536  14.046   3.576   0.424 -1.2597  0.9337  1.4551
  178MOL0     H24537  14.097   3.540   0.593  0.1267  2.1334 -0.2165
  178MOL0     H24538  14.183   3.762   0.403 -1.8395 -0.9739 -1.2881
  178MOL0     H24539  14.285   3.724   0.538  0.6549 -2.4680 -0.9691
  178MOL0     H24540  14.159   3.881   0.615  1.8679 -0.6507 -4.2097
  178MOL0     H24541  14.081   3.735   0.693  2.5697 -4.2818 -1.9157
  178MOL0     H24542  13.920   3.920   0.605 -2.4836 -0.0148 -1.5105
  178MOL0     H24543  13.885   3.746   0.571 -1.8567  1.1595 -1.2142
  178MOL0     H24544  13.908   3.046   0.048 -2.1026  0.9812  2.9292
  178MOL0     H24545  13.833   2.838  -0.045  2.4169 -0.6570 -1.1456
  178MOL0     H24546  13.415   2.628   0.152  0.5620  0.1230 -0.2036
  178MOL0     H24547  13.235   2.499   0.055 -0.6690 -2.0368  0.0109
  178MOL0     H24548  11.223   2.113   0.236 -0.4146  1.2975  0.8092
  178MOL0     H24549  11.070   2.003   0.378 -0.0924 -4.3304  0.5349
  178MOL0     H24550  10.861   1.857   0.631  1.6686  0.8892 -0.0432
  178MOL0     H24551  10.657   1.775   0.732  1.2374 -1.1334  0.4542
  178MOL0     H24552  10.419   1.784   1.013  1.3051  2.5888  1.5064
  178MOL0     H24553  10.476   1.802   0.849  2.0992 -0.0727 -0.0241
  178MOL0     H24554  10.522   1.571   0.820 -1.9178 -0.1932 -2.2163
  178MOL0     H24555  10.353   1.613   0.832  0.9651 -2.1343 -2.6065
  178MOL0     H24556  10.482   1.538   1.093 -0.5386  1.9903 -0.2348
  178MOL0     H24557  10.316   1.520   1.034 -0.3580 -1.1433  2.6484
  178MOL0     H24558  10.484   1.310   1.070 -1.1769 -1.9186 -0.2222
  178MOL0     H24559  10.509   1.354   0.893  1.3171 -0.9385  0.9184
  178MOL0     H24560  10.115   1.195   0.913  0.8059 -1.3141  1.7616
  178MOL0     H24561  10.817   1.841   1.118 -3.9998 -0.2509 -0.4080
  178MOL0     H24562  11.031   1.907   1.166 -2.8522  1.1075 -0.1951
  178MOL0     H24563  11.145   1.886   1.029  0.7760  0.4991  0.0027
  178MOL0     H24564  11.067   2.045   1.054  0.0220  0.0672 -1.8360
  179MOL0     O24565   3.190   9.839   7.548 -0.1327 -0.5060  0.2664
  179MOL0     C24566   3.153   9.854   7.663  0.2445  0.1000  0.1581
  179MOL0     O24567   3.226   9.856   7.773  1.1130  0.1621 -0.5625
  179MOL0     C24568   3.343   9.790   7.778  0.0082 -0.3418  0.1618
  179MOL0     C24569   3.456   9.837   7.713 -1.5037 -0.4736 -0.0578
  179MOL0     C24570   3.581   9.772   7.723  0.3877 -0.2852 -0.6024
  179MOL0     C24571   3.596   9.663   7.809 -0.3584 -0.6399  0.0430
  179MOL0     O24572   3.729   9.629   7.843 -0.1364 -0.0101  0.0495
  179MOL0     C24573   3.746   9.503   7.904 -0.9677  0.4965  0.5326
  179MOL0     C24574   3.877   9.511   7.975 -0.2417  0.3431  0.0333
  179MOL0     C24575   3.993   9.493   7.874 -0.3650 -0.3932 -0.3937
  179MOL0     C24576   4.134   9.481   7.949  0.2333  0.3473  0.1698
  179MOL0     C24577   4.163   9.337   8.001  0.3243 -0.7282  0.4992
  179MOL0     C24578   4.313   9.328   8.035  0.2115  0.0466  0.1433
  179MOL0     C24579   4.386   9.309   7.898  0.1056  1.2355  0.1633
  179MOL0     C24580   4.539   9.306   7.915  0.9897 -0.4195 -0.1007
  179MOL0     N24581   4.611   9.305   7.787  0.7340 -0.2330 -0.0904
  179MOL0     C24582   4.714   9.227   7.742 -0.0649 -0.3056 -0.1037
  179MOL0     C24583   4.711   9.247   7.611  0.2689  0.8880  0.2081
  179MOL0     C24584   4.792   9.184   7.506  0.4049  0.4667  0.8766
  179MOL0     C24585   4.734   9.045   7.468 -0.7232  0.4649 -0.1405
  179MOL0     C24586   4.768   8.937   7.575 -0.1342  0.2048 -0.2594
  179MOL0     C24587   4.918   8.882   7.560  1.0351  0.2940 -0.5545
  179MOL0     O24588   4.962   8.869   7.426  0.2580 -0.3392 -0.6394
  179MOL0     C24589   5.088   8.822   7.404  0.4623 -0.4711  0.4583
  179MOL0     C24590   5.125   8.810   7.267 -0.4157 -0.3377 -0.6430
  179MOL0     C24591   5.247   8.754   7.231 -0.7299  0.2409 -0.3692
  179MOL0     C24592   5.275   8.730   7.080  0.1242 -0.2946 -0.6103
  179MOL0     C24593   5.334   8.705   7.334 -0.7630  0.0713 -0.4252
  179MOL0     C24594   5.466   8.632   7.309 -0.3644 -0.4854  0.5389
  179MOL0     O24595   5.519   8.577   7.417  0.7880  0.6828 -0.4982
  179MOL0     C24596   5.650   8.535   7.441 -0.0476 -0.5167 -0.0421
  179MOL0     C24597   5.728   8.591   7.547 -0.1447 -0.2479  0.4729
  179MOL0     C24598   5.857   8.546   7.582  0.8278  0.2228  0.5986
  179MOL0     C24599   5.911   8.439   7.507 -1.3033 -0.4656 -0.3294
  179MOL0     O24600   6.046   8.386   7.527 -0.2264 -0.8672 -0.2508
  179MOL0     C24601   6.130   8.439   7.628 -0.1981  0.6665  0.7498
  179MOL0     C24602   6.269   8.381   7.631 -0.2358 -0.4311  0.1593
  179MOL0     C24603   6.261   8.236   7.680 -0.5329  0.4084  0.4221
  179MOL0     C24604   6.396   8.168   7.672 -1.5695  0.0773  0.2810
  179MOL0     C24605   6.497   8.207   7.783  0.2973  0.5081 -0.0038
  179MOL0     C24606   6.642   8.181   7.739 -0.0799  0.4830 -0.1640
  179MOL0     C24607   6.746   8.220   7.841  0.1139 -0.4658  0.0671
  179MOL0     C24608   6.884   8.235   7.773  0.3499  0.4893 -0.2535
  179MOL0    Cl24609   6.963   8.085   7.714 -0.2304  0.0154  0.1143
  179MOL0     C24610   5.842   8.403   7.391 -0.7437 -0.1551 -0.0907
  179MOL0     C24611   5.714   8.441   7.362 -0.0227 -0.0783 -0.6173
  179MOL0     O24612   5.526   8.640   7.201 -0.0998  0.3249  0.0697
  179MOL0     C24613   5.301   8.719   7.474  1.1515 -0.3325 -0.1813
  179MOL0     C24614   5.174   8.770   7.501  0.0484 -0.0841 -0.2197
  179MOL0     N24615   4.623   9.351   7.579 -0.1054 -0.2222  0.4931
  179MOL0     N24616   4.568   9.389   7.689 -0.6958  0.3352 -0.1001
  179MOL0     C24617   3.481   9.608   7.864  0.0836  0.1476 -0.8018
  179MOL0     C24618   3.359   9.668   7.844 -0.1705 -0.4285 -0.3113
  179MOL0     C24619   3.007   9.845   7.691  0.0591 -0.1217  0.1758
  179MOL0     C24620   2.953   9.764   7.789  0.1164 -0.3166 -0.8136
  179MOL0     C24621   2.819   9.780   7.822  0.2954  0.2817  0.2470
  179MOL0     C24622   2.737   9.872   7.755 -0.0446 -0.1810  0.3090
  179MOL0     O24623   2.602   9.863   7.788  0.2105  0.1753 -0.0541
  179MOL0     C24624   2.514   9.965   7.746  0.5690 -0.0198 -0.3123
  179MOL0     C24625   2.446   9.925   7.612  0.5908  0.0723  0.3654
  179MOL0     C24626   2.345  10.034   7.555 -0.9368 -0.2232  0.3980
  179MOL0     C24627   2.418  10.149   7.485 -0.5481 -0.4518 -0.4394
  179MOL0     C24628   2.487  10.099   7.362  0.4227 -0.8767 -0.3044
  179MOL0     C24629   2.549  10.060   7.259  0.3812 -0.2217  0.1236
  179MOL0     C24630   2.785   9.942   7.643 -0.4886  0.2499  0.2584
  179MOL0     C24631   2.926   9.932   7.613  0.6316 -0.5806  0.2556
  179MOL0     C24632   2.971  10.014   7.496 -0.1898  0.8351 -0.5731
  179MOL0     H24633   3.454   9.926   7.652  0.2321 -2.2184 -2.8924
  179MOL0     H24634   3.669   9.810   7.671 -0.1405  0.6351 -0.8413
  179MOL0     H24635   3.740   9.416   7.838  1.5056  1.5188 -1.2447
  179MOL0     H24636   3.669   9.477   7.977  0.9076 -1.3569  1.9915
  179MOL0     H24637   3.884   9.600   8.038  2.4765  0.3482 -0.1335
  179MOL0     H24638   3.889   9.431   8.048 -2.7780 -0.0946  0.0529
  179MOL0     H24639   3.987   9.401   7.816  1.0004 -0.7260 -0.0522
  179MOL0     H24640   3.992   9.582   7.809 -0.9428 -1.1982 -1.5127
  179MOL0     H24641   4.212   9.516   7.880 -0.8345  0.7133 -0.8910
  179MOL0     H24642   4.124   9.557   8.028 -3.2950  1.2121 -0.8917
  179MOL0     H24643   4.126   9.277   7.917  1.5370  0.6801 -1.1244
  179MOL0     H24644   4.102   9.318   8.090 -1.3892  2.0013  0.0291
  179MOL0     H24645   4.346   9.422   8.081  0.5389 -0.3073  0.6480
  179MOL0     H24646   4.340   9.256   8.114 -0.0747  1.7442  1.8717
  179MOL0     H24647   4.356   9.386   7.827 -0.3604 -1.1819 -2.4731
  179MOL0     H24648   4.355   9.212   7.858  1.6502  0.9978 -0.5172
  179MOL0     H24649   4.570   9.391   7.975  0.4987  0.3038 -0.8368
  179MOL0     H24650   4.570   9.219   7.974 -0.0246  0.1270  1.2863
  179MOL0     H24651   4.775   9.158   7.800  1.7035  1.9894  0.9412
  179MOL0     H24652   4.897   9.170   7.533  1.1190 -1.6604 -2.3632
  179MOL0     H24653   4.791   9.250   7.418  2.9864  1.4708  1.5075
  179MOL0     H24654   4.626   9.060   7.454 -0.4887  3.1668  0.3107
  179MOL0     H24655   4.783   9.016   7.375  2.7474  0.2073  1.5833
  179MOL0     H24656   4.749   8.973   7.676 -0.7350 -0.8518  0.0318
  179MOL0     H24657   4.697   8.853   7.567 -2.2398  1.8222  0.3901
  179MOL0     H24658   4.973   8.953   7.622 -1.1825  1.2590  0.4147
  179MOL0     H24659   4.920   8.781   7.601 -0.2688  1.2760  2.1104
  179MOL0     H24660   5.055   8.855   7.198  2.0869  3.4678 -0.9641
  179MOL0     H24661   5.320   8.631   7.073  1.0483  0.1454 -1.0036
  179MOL0     H24662   5.335   8.810   7.037 -0.9979  1.4722  0.9295
  179MOL0     H24663   5.179   8.731   7.027  0.1177  0.8921 -0.6058
  179MOL0     H24664   5.675   8.663   7.609  0.1774  0.5718 -0.1910
  179MOL0     H24665   5.896   8.586   7.675 -1.9888  0.7466  1.6549
  179MOL0     H24666   6.145   8.548   7.621  0.5269  0.5999  1.1695
  179MOL0     H24667   6.079   8.412   7.721 -0.9983 -0.9367 -0.1130
  179MOL0     H24668   6.311   8.385   7.530  1.6146 -0.0855  0.8876
  179MOL0     H24669   6.327   8.446   7.697  0.5356  3.2531 -3.6789
  179MOL0     H24670   6.183   8.187   7.622  1.4677  0.1222 -2.2415
  179MOL0     H24671   6.237   8.230   7.786  0.5302  0.6903  0.6929
  179MOL0     H24672   6.438   8.194   7.574  3.3048 -0.7433  1.9004
  179MOL0     H24673   6.396   8.059   7.673  1.8274 -0.0284  1.4461
  179MOL0     H24674   6.478   8.310   7.812  1.6658  0.3498  1.5339
  179MOL0     H24675   6.483   8.143   7.871  1.7291 -0.3544 -0.3715
  179MOL0     H24676   6.658   8.229   7.642  2.6226 -2.9281 -1.5843
  179MOL0     H24677   6.662   8.075   7.724 -0.4091  0.5845 -1.4197
  179MOL0     H24678   6.755   8.150   7.925  3.2389 -2.3095 -1.6396
  179MOL0     H24679   6.716   8.313   7.890 -1.5255 -0.2299 -1.2798
  179MOL0     H24680   6.938   8.275   7.860 -0.1204  1.0956 -0.2338
  179MOL0     H24681   6.879   8.298   7.684 -4.6308 -2.7502 -2.7158
  179MOL0     H24682   5.888   8.330   7.325 -1.3750  0.4114 -1.1860
  179MOL0     H24683   5.653   8.397   7.284 -1.6988  1.8728 -0.4969
  179MOL0     H24684   5.364   8.691   7.558 -0.5345  0.5297  1.4538
  179MOL0     H24685   5.139   8.765   7.604 -1.5586 -1.0473 -0.7691
  179MOL0     H24686   3.488   9.517   7.924  2.0958  0.5852 -0.3030
  179MOL0     H24687   3.274   9.619   7.892  0.3457 -2.3226 -1.2241
  179MOL0     H24688   3.022   9.720   7.861 -0.5207  1.8300  1.2320
  179MOL0     H24689   2.776   9.721   7.902 -4.2035  0.7108 -1.5898
  179MOL0     H24690   2.434   9.985   7.817 -0.7076  0.5413 -1.8491
  179MOL0     H24691   2.565  10.062   7.742  1.1315 -0.1365  2.2693
  179MOL0     H24692   2.408   9.823   7.623  1.5157 -0.4891 -1.2840
  179MOL0     H24693   2.532   9.923   7.544  0.6447  2.6217  0.2695
  179MOL0     H24694   2.283   9.979   7.484 -1.9365  2.2132 -0.7335
  179MOL0     H24695   2.277  10.070   7.632 -1.3153  0.0200 -0.0483
  179MOL0     H24696   2.487  10.198   7.555 -2.2318 -0.1481  1.0884
  179MOL0     H24697   2.349  10.230   7.459 -2.1646 -2.1765 -1.8388
  179MOL0     H24698   2.608  10.024   7.177 -1.1661  0.7375 -1.5103
  179MOL0     H24699   2.717  10.006   7.588 -1.3085  1.0808  2.1484
  179MOL0     H24700   2.899  10.094   7.475 -1.6324 -0.3435 -0.2498
  179MOL0     H24701   3.067  10.060   7.523  1.1839 -1.6664 -0.8297
  179MOL0     H24702   2.982   9.959   7.402 -0.7302  2.6717 -1.7742
  180MOL0     O24703   9.253  10.755   8.940 -0.4963 -0.0188  0.3079
  180MOL0     C24704   9.174  10.792   9.025 -0.8616  0.5612 -1.0154
  180MOL0     O24705   9.200  10.832   9.149 -0.5476  0.0355  0.3149
  180MOL0     C24706   9.326  10.841   9.200  0.8062  0.7321  1.0559
  180MOL0     C24707   9.426  10.917   9.141 -0.1892 -0.7259 -0.3044
  180MOL0     C24708   9.561  10.915   9.186 -0.8055  0.4470  0.2167
  180MOL0     C24709   9.586  10.849   9.305  0.0406 -0.1412 -0.5002
  180MOL0     O24710   9.717  10.853   9.338  0.5164  1.1496  0.0528
  180MOL0     C24711   9.758  10.765   9.444 -0.3086  0.0951 -0.8498
  180MOL0     C24712   9.909  10.754   9.476 -0.2107  0.0375  0.1038
  180MOL0     C24713   9.977  10.889   9.468 -0.1104 -0.5363  0.1301
  180MOL0     C24714  10.127  10.874   9.506  0.7418  0.8811 -0.0446
  180MOL0     C24715  10.208  10.999   9.478 -0.7151 -0.3252  0.5660
  180MOL0     C24716  10.335  10.990   9.553 -0.4538 -0.0386 -0.6828
  180MOL0     C24717  10.406  11.122   9.554 -0.0080 -0.5262 -0.4398
  180MOL0     C24718  10.543  11.118   9.615 -0.1917  0.0622  0.0216
  180MOL0     N24719  10.615  11.251   9.610 -0.0850  0.8219  0.3529
  180MOL0     C24720  10.616  11.333   9.497  0.2692 -0.0575 -0.8576
  180MOL0     C24721  10.652  11.462   9.540  0.7393  0.7419  0.0680
  180MOL0     C24722  10.661  11.591   9.466  0.9721  0.2696 -0.3545
  180MOL0     C24723  10.750  11.599   9.348  0.3858  0.2728  0.0167
  180MOL0     C24724  10.809  11.745   9.338 -0.2350 -0.0588  0.6695
  180MOL0     C24725  10.870  11.768   9.199  0.5215 -0.1933  0.4017
  180MOL0     O24726  10.898  11.907   9.182  0.1680 -0.5890 -0.2834
  180MOL0     C24727  11.014  11.958   9.230 -0.2227  0.3175 -0.5543
  180MOL0     C24728  11.030  12.097   9.215  0.9147  0.3928  1.2004
  180MOL0     C24729  11.144  12.164   9.246 -0.5930 -0.1747 -0.4733
  180MOL0     C24730  11.159  12.319   9.216 -0.2392 -0.3223  0.3920
  180MOL0     C24731  11.249  12.083   9.303 -0.4367  0.1942  0.7424
  180MOL0     C24732  11.372  12.154   9.349  0.7406  0.2702  1.1875
  180MOL0     O24733  11.380  12.169   9.486 -0.1879  0.4220 -0.0568
  180MOL0     C24734  11.500  12.219   9.542 -0.5396  0.1322 -0.4094
  180MOL0     C24735  11.622  12.232   9.483 -0.4824  0.6563  0.5239
  180MOL0     C24736  11.733  12.257   9.560  0.1922  0.1586  1.1066
  180MOL0     C24737  11.722  12.287   9.692  0.1185 -0.2627  0.4836
  180MOL0     O24738  11.843  12.304   9.752  0.5928 -0.2372 -0.4056
  180MOL0     C24739  11.857  12.244   9.882  0.3566 -0.0235 -0.2664
  180MOL0     C24740  12.001  12.260   9.936 -0.2401 -0.2885  0.8671
  180MOL0     C24741  12.029  12.405   9.986  0.9358 -0.6702  0.4388
  180MOL0     C24742  12.176  12.434  10.013 -0.0343  0.0055 -0.4448
  180MOL0     C24743  12.213  12.572  10.076 -0.2944  0.0184 -0.1714
  180MOL0     C24744  12.363  12.573  10.093 -0.3848  0.8807 -0.2485
  180MOL0     C24745  12.431  12.708  10.127 -0.0424 -0.6061 -0.6721
  180MOL0     C24746  12.508  12.771  10.018 -0.5683  0.0592 -0.2516
  180MOL0    Cl24747  12.617  12.887  10.086 -0.3417  0.0693  0.4776
  180MOL0     C24748  11.601  12.277   9.755  0.1787  0.2446  0.1153
  180MOL0     C24749  11.487  12.238   9.685  0.2789  0.4866  0.2303
  180MOL0     O24750  11.459  12.165   9.265  0.1690  0.2325  0.2791
  180MOL0     C24751  11.235  11.947   9.319  0.0172 -0.2553  0.1606
  180MOL0     C24752  11.115  11.888   9.302 -0.6967 -0.3927 -0.3096
  180MOL0     N24753  10.673  11.452   9.677  0.8246  0.8308  0.3391
  180MOL0     N24754  10.639  11.328   9.720  0.5974  0.0378  0.0167
  180MOL0     C24755   9.481  10.786   9.377 -0.7513 -0.5880 -0.4206
  180MOL0     C24756   9.352  10.789   9.332 -0.1031 -0.3386  0.5765
  180MOL0     C24757   9.028  10.786   8.997 -0.0590 -0.5987  0.4845
  180MOL0     C24758   8.940  10.854   9.092  0.2349  0.9039 -0.0976
  180MOL0     C24759   8.810  10.862   9.078 -0.0950  0.1018  0.5143
  180MOL0     C24760   8.739  10.792   8.980  0.5302  0.4463  0.1936
  180MOL0     O24761   8.599  10.806   8.975 -0.0815 -0.0189 -0.5026
  180MOL0     C24762   8.533  10.716   9.059  0.3772  0.3667 -0.1003
  180MOL0     C24763   8.535  10.571   9.013  0.1863  0.5212 -0.2381
  180MOL0     C24764   8.444  10.491   9.116 -0.1482 -0.0383  0.3316
  180MOL0     C24765   8.417  10.351   9.066 -0.3529  0.8182  0.6209
  180MOL0     C24766   8.344  10.253   9.147  0.2282 -0.7362 -0.6976
  180MOL0     C24767   8.277  10.188   9.219 -0.9602  0.2277 -0.1926
  180MOL0     C24768   8.823  10.725   8.878  0.2731 -1.1405 -0.3012
  180MOL0     C24769   8.963  10.720   8.888 -0.6598  0.1950 -0.5997
  180MOL0     C24770   9.032  10.620   8.791  0.6975 -0.7249  0.7859
  180MOL0     H24771   9.412  10.981   9.054  2.4106 -1.7830 -1.6100
  180MOL0     H24772   9.644  10.959   9.133 -0.8865  0.9378  0.4903
  180MOL0     H24773   9.725  10.663   9.425  3.0806 -1.9895  3.1294
  180MOL0     H24774   9.704  10.797   9.533 -0.7832 -0.9675 -0.7386
  180MOL0     H24775   9.908  10.708   9.576 -1.4748  0.8498  0.4974
  180MOL0     H24776   9.963  10.688   9.407 -4.6520 -0.4633 -3.3183
  180MOL0     H24777   9.984  10.930   9.367  0.6920  1.8401  1.0666
  180MOL0     H24778   9.923  10.961   9.530 -1.4375 -0.4869 -1.0367
  180MOL0     H24779  10.125  10.858   9.614 -0.6967  0.5210 -0.1106
  180MOL0     H24780  10.168  10.785   9.459  0.2182 -0.0950  1.2895
  180MOL0     H24781  10.154  11.093   9.494 -2.9471 -1.2131 -1.0832
  180MOL0     H24782  10.232  10.994   9.371 -0.1721 -3.1003  0.7382
  180MOL0     H24783  10.324  10.958   9.656  3.1494 -2.9600 -0.9758
  180MOL0     H24784  10.405  10.915   9.514  0.9342  1.5048 -1.3196
  180MOL0     H24785  10.349  11.191   9.617  2.6217 -0.3431  1.9466
  180MOL0     H24786  10.414  11.150   9.448 -2.0798 -1.9500 -1.0473
  180MOL0     H24787  10.530  11.081   9.718  0.9234  0.6440  0.3886
  180MOL0     H24788  10.600  11.042   9.560 -0.3390  1.5187 -2.2263
  180MOL0     H24789  10.596  11.304   9.395  1.2750 -1.7173 -0.6140
  180MOL0     H24790  10.684  11.667   9.541  0.5027 -1.4009  1.5808
  180MOL0     H24791  10.559  11.612   9.433  0.8184 -1.9684 -1.4912
  180MOL0     H24792  10.835  11.530   9.351  0.1359  0.0013  2.6581
  180MOL0     H24793  10.697  11.574   9.255 -0.7617  2.4640  0.0338
  180MOL0     H24794  10.736  11.820   9.367  1.0613  0.6655  2.2095
  180MOL0     H24795  10.880  11.759   9.420  0.6068  2.4011 -0.3992
  180MOL0     H24796  10.952  11.695   9.192  0.4358 -0.2671  0.1899
  180MOL0     H24797  10.801  11.744   9.119  0.9825 -0.0200 -0.0518
  180MOL0     H24798  10.948  12.145   9.164  0.1328 -1.0131  1.0786
  180MOL0     H24799  11.076  12.364   9.161  0.2428 -1.1217 -1.0442
  180MOL0     H24800  11.252  12.340   9.162 -0.2944 -1.0206  0.0106
  180MOL0     H24801  11.171  12.368   9.313 -0.6217 -0.7452  0.6583
  180MOL0     H24802  11.645  12.221   9.377  2.9640  2.5499  0.9488
  180MOL0     H24803  11.821  12.283   9.502 -0.0185 -0.9975  0.2378
  180MOL0     H24804  11.782  12.281   9.951 -0.9959 -1.5158 -0.8642
  180MOL0     H24805  11.830  12.138   9.882  0.2044 -0.0185  1.8241
  180MOL0     H24806  12.031  12.185  10.010  3.6531  0.1680 -0.0151
  180MOL0     H24807  12.067  12.234   9.852 -0.0200  2.2062  0.1805
  180MOL0     H24808  11.966  12.427  10.072  0.1859  0.3963 -0.3596
  180MOL0     H24809  11.998  12.479   9.911  0.4654 -1.7810 -0.5121
  180MOL0     H24810  12.231  12.423   9.919 -0.7355 -0.0210 -0.8606
  180MOL0     H24811  12.209  12.362  10.089 -2.4258  1.0002  1.6830
  180MOL0     H24812  12.183  12.651  10.006 -1.2631  0.5646  0.8487
  180MOL0     H24813  12.158  12.592  10.168  3.3728  0.8021  2.0689
  180MOL0     H24814  12.409  12.541   9.999  1.8355  0.7219  0.8253
  180MOL0     H24815  12.386  12.504  10.175 -1.6634  1.4455  0.6145
  180MOL0     H24816  12.489  12.698  10.219 -1.4623  0.0066  0.3467
  180MOL0     H24817  12.349  12.780  10.140  0.4898  0.6400 -3.5213
  180MOL0     H24818  12.437  12.821   9.951 -0.8162  2.4255  1.6253
  180MOL0     H24819  12.569  12.699   9.962 -1.3565 -3.1840  2.7231
  180MOL0     H24820  11.597  12.305   9.860  0.9516 -1.6627  0.7026
  180MOL0     H24821  11.396  12.212   9.738  0.1491 -1.7935 -0.9762
  180MOL0     H24822  11.310  11.897   9.378  2.7517  2.7601 -0.4995
  180MOL0     H24823  11.080  11.791   9.335 -1.2645  0.1168  0.6178
  180MOL0     H24824   9.489  10.733   9.471  1.2434  0.8247  0.2961
  180MOL0     H24825   9.270  10.743   9.386 -0.1427  0.2358  1.0232
  180MOL0     H24826   8.984  10.906   9.176 -0.4409  0.4415  0.5563
  180MOL0     H24827   8.764  10.921   9.157 -0.3871 -1.6249  1.6886
  180MOL0     H24828   8.583  10.727   9.156  0.6578  1.0655 -0.3153
  180MOL0     H24829   8.430  10.750   9.072  0.0799 -0.7209  0.5558
  180MOL0     H24830   8.642  10.548   9.023  0.4865  1.8329 -0.2721
  180MOL0     H24831   8.493  10.553   8.914  0.1925 -1.3945  0.0729
  180MOL0     H24832   8.499  10.478   9.210  1.7692  3.1392 -0.1807
  180MOL0     H24833   8.345  10.533   9.136  1.0898  3.2105  0.2000
  180MOL0     H24834   8.513  10.305   9.040 -0.9575  0.4449 -1.0849
  180MOL0     H24835   8.362  10.355   8.972 -0.8820  0.6360  0.9207
  180MOL0     H24836   8.215  10.131   9.285 -0.5688 -0.0042 -0.0181
  180MOL0     H24837   8.764  10.687   8.795 -0.9992  0.5390 -0.2066
  180MOL0     H24838   8.961  10.557   8.737  0.2664  0.0670  0.4098
  180MOL0     H24839   9.096  10.672   8.719  1.4362  0.2307  2.0801
  180MOL0     H24840   9.095  10.562   8.858  0.2303 -0.9832  1.0082
  181MOL0     O24841   1.269   2.901   8.091  0.0489 -0.0401  0.6269
  181MOL0     C24842   1.190   2.814   8.128  0.3749  0.3697 -0.0694
  181MOL0     O24843   1.214   2.723   8.223  0.0963 -0.4802  0.1748
  181MOL0     C24844   1.336   2.729   8.282 -0.3283 -0.3447 -0.1688
  181MOL0     C24845   1.437   2.626   8.259  0.2272  0.0123 -0.4188
  181MOL0     C24846   1.556   2.624   8.338  0.2725  0.1320 -0.2373
  181MOL0     C24847   1.591   2.721   8.429  0.5548  0.4546 -0.8614
  181MOL0     O24848   1.710   2.721   8.493  0.0946  0.4914  0.0669
  181MOL0     C24849   1.833   2.698   8.423  0.9689 -0.1276 -0.5310
  181MOL0     C24850   1.941   2.757   8.513  0.6594 -0.0538  0.2390
  181MOL0     C24851   1.952   2.706   8.656 -0.1275  0.2754  0.3602
  181MOL0     C24852   2.063   2.776   8.742 -0.2469 -1.0108 -0.2332
  181MOL0     C24853   2.047   2.930   8.739  0.8513 -0.1036 -1.0528
  181MOL0     C24854   2.138   2.997   8.849  0.4427 -0.3864  0.3474
  181MOL0     C24855   2.126   3.156   8.846  0.1064 -0.3216  0.5141
  181MOL0     C24856   2.189   3.212   8.976 -0.3486  0.5799 -0.2363
  181MOL0     N24857   2.340   3.200   8.984  0.3965 -0.1156  1.0182
  181MOL0     C24858   2.413   3.165   9.090 -0.3410 -0.0800 -0.2318
  181MOL0     C24859   2.541   3.163   9.055  0.4949 -0.6111 -0.0238
  181MOL0     C24860   2.646   3.123   9.150  0.0744  0.1995  0.1517
  181MOL0     C24861   2.724   3.252   9.183  0.0815 -0.7653 -0.6093
  181MOL0     C24862   2.747   3.278   9.334  0.0671  0.2660 -0.2805
  181MOL0     C24863   2.833   3.399   9.348  0.0616 -0.2320 -0.5487
  181MOL0     O24864   2.776   3.521   9.281  0.6953  0.5046  1.0108
  181MOL0     C24865   2.850   3.634   9.282 -0.3772 -0.8178 -0.2682
  181MOL0     C24866   2.983   3.634   9.319 -0.1510 -0.3915 -0.0007
  181MOL0     C24867   3.064   3.754   9.312 -0.1725  0.3535  0.4997
  181MOL0     C24868   3.204   3.742   9.360  0.8322 -0.0283  0.1354
  181MOL0     C24869   3.006   3.871   9.252  0.5801 -1.0706 -0.0712
  181MOL0     C24870   3.077   4.006   9.229 -1.3354  1.6503 -0.5375
  181MOL0     O24871   2.997   4.116   9.219  0.2293 -0.4287 -0.1881
  181MOL0     C24872   3.061   4.239   9.183 -0.1972 -0.0057  0.4609
  181MOL0     C24873   3.083   4.336   9.283  1.3485 -0.1107  0.1761
  181MOL0     C24874   3.173   4.442   9.284  0.1227 -0.6712 -0.3492
  181MOL0     C24875   3.236   4.461   9.163 -0.4736  0.2251 -0.0914
  181MOL0     O24876   3.329   4.558   9.158  0.1741  0.6925 -0.6125
  181MOL0     C24877   3.466   4.514   9.128  1.3070  0.0706  0.5216
  181MOL0     C24878   3.570   4.579   9.226  0.0475  0.4584 -0.2764
  181MOL0     C24879   3.542   4.536   9.377  0.2340 -1.7539 -0.4154
  181MOL0     C24880   3.661   4.595   9.460 -0.4325  0.2604  0.1786
  181MOL0     C24881   3.607   4.598   9.602 -0.0359 -0.4352  0.0105
  181MOL0     C24882   3.710   4.646   9.703 -0.3904 -0.5661  0.6537
  181MOL0     C24883   3.828   4.553   9.736 -0.7084 -0.0082  0.2392
  181MOL0     C24884   3.787   4.412   9.797  0.7532 -0.3244 -0.2340
  181MOL0    Cl24885   3.684   4.442   9.937 -0.3436 -0.4884 -0.1383
  181MOL0     C24886   3.220   4.380   9.052  0.3721  0.4574  0.2447
  181MOL0     C24887   3.135   4.263   9.064  0.2307  0.1844  0.3044
  181MOL0     O24888   3.203   4.006   9.233  0.2912  0.8506 -0.1549
  181MOL0     C24889   2.870   3.860   9.212 -0.1207  0.5335 -0.2542
  181MOL0     C24890   2.789   3.749   9.227 -0.3393  0.7606 -0.4632
  181MOL0     N24891   2.552   3.212   8.924 -0.3024  1.1216  0.2840
  181MOL0     N24892   2.428   3.224   8.876 -0.2307 -0.5489 -0.4877
  181MOL0     C24893   1.500   2.825   8.447  0.7535  0.2820  0.4795
  181MOL0     C24894   1.381   2.831   8.380  0.0728 -0.5270 -0.3946
  181MOL0     C24895   1.054   2.808   8.064  1.1220 -0.2571 -0.0437
  181MOL0     C24896   0.948   2.761   8.143  0.0432 -1.0560 -0.4074
  181MOL0     C24897   0.824   2.742   8.087  0.5351  0.4836  0.1648
  181MOL0     C24898   0.794   2.759   7.953  1.3310 -0.2521  0.6317
  181MOL0     O24899   0.665   2.726   7.904 -0.0205  0.3120  0.3334
  181MOL0     C24900   0.645   2.706   7.758  0.1182  0.0947 -0.1188
  181MOL0     C24901   0.503   2.644   7.722  0.2259  0.5109  0.4499
  181MOL0     C24902   0.464   2.660   7.568 -0.5047  0.1208 -0.4538
  181MOL0     C24903   0.317   2.703   7.560  0.3269 -0.4707 -0.5151
  181MOL0     C24904   0.284   2.675   7.418 -0.3499  0.7723  0.2851
  181MOL0     C24905   0.267   2.634   7.309 -0.0650  0.5800  0.4106
  181MOL0     C24906   0.896   2.805   7.871 -0.2989  0.2049  0.1869
  181MOL0     C24907   1.022   2.840   7.927  0.1160 -0.2582 -0.3199
  181MOL0     C24908   1.135   2.865   7.828  0.2422 -0.6308 -0.6807
  181MOL0     H24909   1.421   2.555   8.179 -0.2329  2.1859 -2.3575
  181MOL0     H24910   1.628   2.543   8.340  0.8175  0.5880  2.5381
  181MOL0     H24911   1.830   2.759   8.331  0.3626  0.0022 -0.4307
  181MOL0     H24912   1.859   2.595   8.399 -1.9545 -0.9457 -0.5511
  181MOL0     H24913   2.033   2.733   8.459 -0.2116  2.7580 -2.8641
  181MOL0     H24914   1.931   2.865   8.524 -0.3438 -0.2926  2.0766
  181MOL0     H24915   1.862   2.706   8.718  0.8528 -0.4247  1.8511
  181MOL0     H24916   1.979   2.601   8.643  1.4131  0.6520  0.2436
  181MOL0     H24917   2.057   2.743   8.846 -0.7628 -1.0284 -0.2695
  181MOL0     H24918   2.166   2.752   8.712  0.8334  1.6346  1.0799
  181MOL0     H24919   1.942   2.956   8.746  1.0071  0.3767 -0.4614
  181MOL0     H24920   2.081   2.971   8.644 -0.8776  0.5212 -1.4328
  181MOL0     H24921   2.095   2.962   8.943 -1.2992  1.5309  0.3326
  181MOL0     H24922   2.240   2.961   8.833  1.0611  1.1114  0.7376
  181MOL0     H24923   2.021   3.182   8.861  0.5557  3.2672 -1.4291
  181MOL0     H24924   2.169   3.205   8.758 -2.7508 -1.4588 -1.6579
  181MOL0     H24925   2.169   3.319   8.970 -1.7658  0.2970 -0.9437
  181MOL0     H24926   2.146   3.163   9.064 -0.9811 -1.1163 -1.4237
  181MOL0     H24927   2.380   3.150   9.192 -1.2894 -0.2165 -0.5531
  181MOL0     H24928   2.706   3.047   9.099 -0.8387  1.4634 -3.1103
  181MOL0     H24929   2.600   3.074   9.236  0.6891 -0.8340 -0.0923
  181MOL0     H24930   2.822   3.256   9.134  0.2253  1.3317 -0.2603
  181MOL0     H24931   2.672   3.338   9.141  2.0167  1.0170  0.4583
  181MOL0     H24932   2.650   3.296   9.380 -0.9720 -0.2711 -2.1192
  181MOL0     H24933   2.790   3.189   9.382 -0.6357  0.5139  0.8383
  181MOL0     H24934   2.864   3.426   9.449  4.5454 -0.5303 -1.6163
  181MOL0     H24935   2.927   3.372   9.298  0.5410  0.7454 -0.2023
  181MOL0     H24936   3.030   3.551   9.370 -0.3620 -1.9957 -2.2836
  181MOL0     H24937   3.273   3.760   9.277  0.3950  0.8613 -0.0510
  181MOL0     H24938   3.230   3.654   9.418  0.3558  1.2391  2.4140
  181MOL0     H24939   3.225   3.826   9.427 -0.5588  1.1304 -0.8002
  181MOL0     H24940   3.028   4.312   9.373  2.0917  0.5687  0.8264
  181MOL0     H24941   3.191   4.503   9.372  0.0486  0.2912 -0.9879
  181MOL0     H24942   3.474   4.406   9.140  0.1456 -0.2181 -1.0554
  181MOL0     H24943   3.485   4.545   9.025 -0.6862 -0.2783  0.0179
  181MOL0     H24944   3.671   4.551   9.194 -0.2607  0.4776 -1.3059
  181MOL0     H24945   3.569   4.688   9.221 -0.6639  0.5155  0.8636
  181MOL0     H24946   3.527   4.429   9.397  0.5494 -1.5144  1.2345
  181MOL0     H24947   3.449   4.585   9.407 -0.3878 -2.1940 -1.5445
  181MOL0     H24948   3.692   4.694   9.427  0.8863  0.0661  0.7350
  181MOL0     H24949   3.746   4.527   9.448 -0.0538  0.9894 -1.4634
  181MOL0     H24950   3.529   4.675   9.610  0.5593  0.0172  1.9282
  181MOL0     H24951   3.560   4.504   9.633 -0.1298  0.3208  2.3020
  181MOL0     H24952   3.659   4.675   9.795 -2.0275 -2.7346  0.5201
  181MOL0     H24953   3.754   4.739   9.666 -0.4598  0.3773  2.8155
  181MOL0     H24954   3.883   4.599   9.818 -0.5528 -1.2445  0.8478
  181MOL0     H24955   3.897   4.527   9.655  0.2675 -0.9976  1.3457
  181MOL0     H24956   3.878   4.362   9.832  0.2151 -0.6255  0.7873
  181MOL0     H24957   3.734   4.355   9.721  1.9652  0.5374 -1.7799
  181MOL0     H24958   3.278   4.397   8.962 -1.0479 -1.6940 -1.1567
  181MOL0     H24959   3.148   4.194   8.981  1.1253 -1.0562  1.4390
  181MOL0     H24960   2.836   3.952   9.164 -1.4116  1.0873  1.5853
  181MOL0     H24961   2.689   3.750   9.186 -0.2654 -2.4998 -0.9837
  181MOL0     H24962   1.522   2.913   8.506  0.9096  2.1923 -2.2165
  181MOL0     H24963   1.310   2.905   8.414  1.3554  0.4766  0.1506
  181MOL0     H24964   0.976   2.738   8.245  0.4544 -1.7651 -0.6804
  181MOL0     H24965   0.750   2.692   8.150  0.1679  1.0138  0.1607
  181MOL0     H24966   0.660   2.802   7.710 -0.9326  0.3681  0.0892
  181MOL0     H24967   0.723   2.643   7.715  1.6729  1.5806  0.4081
  181MOL0     H24968   0.432   2.702   7.781 -1.1183 -0.9847  0.3624
  181MOL0     H24969   0.490   2.540   7.753 -2.1896  1.1152  1.6914
  181MOL0     H24970   0.536   2.725   7.516 -2.3702  0.8792 -2.2364
  181MOL0     H24971   0.471   2.559   7.528  3.5145 -0.8200  2.0458
  181MOL0     H24972   0.303   2.808   7.585  0.2360 -0.5129 -0.3862
  181MOL0     H24973   0.244   2.652   7.623 -2.1293  1.6063 -1.5229
  181MOL0     H24974   0.288   2.589   7.214  1.1628  0.8290  0.5477
  181MOL0     H24975   0.871   2.805   7.765 -2.4565 -3.0339  0.5196
  181MOL0     H24976   1.088   2.905   7.737 -0.8614 -1.0879 -0.3280
  181MOL0     H24977   1.208   2.938   7.865 -0.3994  0.3830 -1.3610
  181MOL0     H24978   1.199   2.784   7.790  2.9474  2.4291 -3.2600
  182MOL0     O24979   8.553  11.270   8.004 -0.1261  0.1651 -0.8368
  182MOL0     C24980   8.503  11.349   8.083 -0.5274  0.0848  0.7057
  182MOL0     O24981   8.533  11.479   8.071 -0.1400  0.1312 -0.3807
  182MOL0     C24982   8.625  11.519   7.976  0.3694 -1.0312 -0.1974
  182MOL0     C24983   8.590  11.629   7.896  0.5007  0.2011  0.3820
  182MOL0     C24984   8.680  11.681   7.797 -0.0713  0.0808  1.0743
  182MOL0     C24985   8.807  11.621   7.774  0.8770  0.8563 -0.0127
  182MOL0     O24986   8.897  11.671   7.684 -0.8625 -0.1288 -0.7046
  182MOL0     C24987   8.850  11.761   7.585  0.6411 -0.8891  0.9249
  182MOL0     C24988   8.958  11.790   7.485 -0.4027 -0.8616 -0.6113
  182MOL0     C24989   9.007  11.665   7.416  0.7911  0.6091 -0.5030
  182MOL0     C24990   9.097  11.686   7.299 -0.8587 -0.2832  0.0705
  182MOL0     C24991   9.235  11.744   7.343 -0.1851 -0.2261 -0.0599
  182MOL0     C24992   9.328  11.742   7.221 -0.8991  0.1141  0.6576
  182MOL0     C24993   9.470  11.781   7.270 -0.4265  0.4776  0.1941
  182MOL0     C24994   9.560  11.744   7.155  0.7354  0.8925 -0.8969
  182MOL0     N24995   9.703  11.735   7.199  0.7504  0.3761  0.4084
  182MOL0     C24996   9.766  11.617   7.223 -0.3604  0.0577 -0.9352
  182MOL0     C24997   9.891  11.652   7.248 -0.3374 -0.1978 -0.2199
  182MOL0     C24998   9.999  11.554   7.283 -0.4716  0.8514  0.0935
  182MOL0     C24999  10.132  11.597   7.220  0.1870  1.2663  0.4861
  182MOL0     C25000  10.121  11.570   7.069  0.1874 -1.0481  0.0367
  182MOL0     C25001  10.223  11.659   6.991 -0.3418 -0.5387  0.0403
  182MOL0     O25002  10.341  11.581   7.034 -0.1503  0.0825 -0.0589
  182MOL0     C25003  10.473  11.629   7.018  0.2630  0.7320  0.3587
  182MOL0     C25004  10.498  11.761   6.981 -0.6937 -0.3923  0.5091
  182MOL0     C25005  10.626  11.809   6.951 -0.3292  0.0219  0.7111
  182MOL0     C25006  10.642  11.956   6.902 -0.5302  0.2514  0.7186
  182MOL0     C25007  10.737  11.721   6.975 -0.3245 -0.5470  0.8037
  182MOL0     C25008  10.881  11.763   6.959  0.0551 -0.4013  0.4040
  182MOL0     O25009  10.976  11.660   6.968 -0.0835  0.5073 -0.4353
  182MOL0     C25010  11.110  11.688   6.940 -0.0092  0.3590 -0.0164
  182MOL0     C25011  11.195  11.652   7.048 -0.2112  0.5834 -0.4208
  182MOL0     C25012  11.333  11.688   7.043  0.7262 -0.5335 -0.8471
  182MOL0     C25013  11.379  11.752   6.934  0.7239  0.3425  0.7337
  182MOL0     O25014  11.508  11.785   6.920  0.0258  0.0568 -0.1693
  182MOL0     C25015  11.563  11.855   7.029 -0.9945 -0.2054  0.2887
  182MOL0     C25016  11.698  11.909   7.000 -0.3549  0.4555  0.0342
  182MOL0     C25017  11.699  12.011   6.894 -0.3907 -0.2232  1.0076
  182MOL0     C25018  11.829  12.090   6.879  0.0270 -0.0970 -0.4087
  182MOL0     C25019  11.811  12.223   6.798  0.1354 -0.0562 -0.6061
  182MOL0     C25020  11.949  12.281   6.764 -0.0787  0.0505 -0.1243
  182MOL0     C25021  12.039  12.318   6.887  0.1897  0.0310 -0.3288
  182MOL0     C25022  12.181  12.316   6.852 -0.9022 -0.1501 -0.1873
  182MOL0    Cl25023  12.194  12.447   6.743  0.4469 -0.0952  0.0732
  182MOL0     C25024  11.291  11.777   6.826 -1.6047 -0.8019 -0.3642
  182MOL0     C25025  11.156  11.751   6.831  1.0104  0.4703 -0.0634
  182MOL0     O25026  10.909  11.885   6.936 -0.7867  0.3102 -0.2506
  182MOL0     C25027  10.715  11.591   7.026 -0.6879  0.3701 -0.7890
  182MOL0     C25028  10.582  11.550   7.053 -0.6119 -0.4473 -0.2507
  182MOL0     N25029   9.898  11.791   7.244 -0.2492  0.3146 -0.4510
  182MOL0     N25030   9.783  11.843   7.229 -0.0190  0.1100 -1.0215
  182MOL0     C25031   8.841  11.512   7.857  0.0675  0.3096 -0.4414
  182MOL0     C25032   8.755  11.462   7.952 -0.2192 -1.3056  0.4892
  182MOL0     C25033   8.399  11.303   8.188 -0.0030  0.5072  0.0695
  182MOL0     C25034   8.353  11.393   8.281 -0.3846 -0.1509  0.4696
  182MOL0     C25035   8.252  11.378   8.376  0.0132  0.2789  0.8204
  182MOL0     C25036   8.183  11.252   8.372  0.8144  0.5496 -0.5032
  182MOL0     O25037   8.073  11.225   8.457 -0.5346 -0.0208  0.5517
  182MOL0     C25038   7.966  11.319   8.471 -0.7218 -1.3466  0.7523
  182MOL0     C25039   7.829  11.251   8.492 -0.0914  0.1034  0.4111
  182MOL0     C25040   7.816  11.170   8.621  0.6599  0.1561  0.2953
  182MOL0     C25041   7.672  11.165   8.667  0.6458 -0.4679 -0.0825
  182MOL0     C25042   7.577  11.079   8.590  0.1267 -0.6864  0.1511
  182MOL0     C25043   7.494  11.021   8.520 -0.2984  0.1141 -0.3824
  182MOL0     C25044   8.224  11.155   8.284  0.1882 -0.0170 -0.2079
  182MOL0     C25045   8.336  11.174   8.194 -0.6298 -0.2034  0.0156
  182MOL0     C25046   8.387  11.054   8.117 -0.2500  0.8518  0.2358
  182MOL0     H25047   8.488  11.664   7.904  0.2169 -0.6763  0.5841
  182MOL0     H25048   8.655  11.763   7.731  0.7392  0.1428  0.8330
  182MOL0     H25049   8.815  11.854   7.631  0.3526  0.1039 -1.1530
  182MOL0     H25050   8.769  11.714   7.528  0.4505 -1.6467  1.8087
  182MOL0     H25051   8.937  11.867   7.410 -1.7080 -0.8434 -0.2547
  182MOL0     H25052   9.041  11.836   7.540  0.2687  0.0895 -2.3103
  182MOL0     H25053   9.060  11.601   7.488 -1.0494  0.3549  0.6936
  182MOL0     H25054   8.924  11.598   7.390  2.6300 -0.8976 -2.9370
  182MOL0     H25055   9.134  11.592   7.256 -2.4817 -0.5629 -0.7701
  182MOL0     H25056   9.035  11.733   7.223 -0.1165  0.2502 -0.2138
  182MOL0     H25057   9.290  11.689   7.419  1.3707  3.9346  2.1902
  182MOL0     H25058   9.217  11.847   7.376  0.1675 -0.2933  0.3610
  182MOL0     H25059   9.328  11.638   7.186  2.2994 -0.3552  1.7765
  182MOL0     H25060   9.302  11.799   7.131  4.0100  0.4923 -0.7961
  182MOL0     H25061   9.491  11.720   7.359 -0.9447 -2.7244 -1.7083
  182MOL0     H25062   9.464  11.887   7.297 -0.6771  0.6612 -0.5509
  182MOL0     H25063   9.535  11.649   7.108 -0.2976 -0.5012  2.2422
  182MOL0     H25064   9.548  11.826   7.083  0.9240  0.4246 -1.4681
  182MOL0     H25065   9.724  11.517   7.224 -0.3889  0.0504  0.6428
  182MOL0     H25066   9.970  11.452   7.258 -0.0734  0.3376  1.6699
  182MOL0     H25067  10.011  11.554   7.391  0.2484  0.4583  0.0245
  182MOL0     H25068  10.150  11.702   7.247  2.5509  0.8481  0.7558
  182MOL0     H25069  10.214  11.541   7.265  0.5422  1.2104 -0.2236
  182MOL0     H25070  10.149  11.470   7.032  4.2192  0.2021 -0.8584
  182MOL0     H25071  10.028  11.603   7.023  0.5834  2.0549  1.2742
  182MOL0     H25072  10.211  11.661   6.883  1.5285  0.2839 -0.1925
  182MOL0     H25073  10.222  11.764   7.024 -1.2508  0.7814 -3.7470
  182MOL0     H25074  10.410  11.825   6.973 -0.5560 -0.1630  0.7944
  182MOL0     H25075  10.546  12.007   6.894 -0.5920 -0.1456 -2.1639
  182MOL0     H25076  10.690  11.957   6.804 -3.9889  1.7727 -1.1167
  182MOL0     H25077  10.700  12.006   6.980 -0.0822 -0.7282  1.0298
  182MOL0     H25078  11.155  11.592   7.129  0.4929 -0.3941 -0.7624
  182MOL0     H25079  11.400  11.667   7.126  2.2720 -2.7309 -2.5379
  182MOL0     H25080  11.497  11.938   7.058 -1.4810  0.5454 -2.6969
  182MOL0     H25081  11.566  11.795   7.121 -0.6284  0.3884  0.6716
  182MOL0     H25082  11.735  11.950   7.094  0.5203  3.0443 -1.3403
  182MOL0     H25083  11.764  11.825   6.977 -3.1310 -1.7333 -0.4370
  182MOL0     H25084  11.625  12.087   6.922 -1.5382 -2.0522  3.3457
  182MOL0     H25085  11.669  11.969   6.798  1.8996 -1.4564  0.7630
  182MOL0     H25086  11.903  12.027   6.829 -0.0588 -0.2220 -0.3767
  182MOL0     H25087  11.867  12.120   6.978  2.0205  2.5605 -1.8395
  182MOL0     H25088  11.758  12.203   6.704 -0.1762  0.0375 -0.4532
  182MOL0     H25089  11.753  12.294   6.857  0.8416  0.8190 -0.9438
  182MOL0     H25090  11.926  12.370   6.705  0.0335  0.8662  1.0264
  182MOL0     H25091  12.008  12.223   6.692  0.0143 -0.2137  0.1621
  182MOL0     H25092  12.018  12.246   6.967  0.9281 -3.2042 -2.7937
  182MOL0     H25093  12.002  12.414   6.924 -0.9858 -0.1038 -1.0829
  182MOL0     H25094  12.215  12.224   6.804  1.0863 -0.1805  1.1480
  182MOL0     H25095  12.251  12.319   6.937  1.8182  0.2420 -2.3001
  182MOL0     H25096  11.338  11.798   6.730 -3.2222 -0.8195 -1.1870
  182MOL0     H25097  11.096  11.775   6.743  0.3368 -2.0217 -0.3782
  182MOL0     H25098  10.793  11.522   7.056  0.9549  3.0543  1.6060
  182MOL0     H25099  10.578  11.448   7.091 -0.5707 -0.5116 -0.4172
  182MOL0     H25100   8.933  11.456   7.842  1.0198  1.4360  0.8921
  182MOL0     H25101   8.778  11.375   8.013  1.8342 -0.7464  0.6010
  182MOL0     H25102   8.392  11.494   8.273 -3.9303  1.6940  3.3316
  182MOL0     H25103   8.213  11.463   8.431  0.2663  0.3606  0.8750
  182MOL0     H25104   7.993  11.391   8.549  0.0741 -0.3419 -0.4317
  182MOL0     H25105   7.959  11.369   8.375  1.0227  3.6678  2.8857
  182MOL0     H25106   7.802  11.190   8.405 -1.2412  1.3136 -0.1243
  182MOL0     H25107   7.765  11.340   8.493  1.0828  1.0646 -2.0182
  182MOL0     H25108   7.838  11.065   8.603 -0.9492 -0.3164  0.9432
  182MOL0     H25109   7.873  11.224   8.697 -2.2497  0.7532  2.1750
  182MOL0     H25110   7.620  11.261   8.664 -1.0454 -1.3817 -1.8219
  182MOL0     H25111   7.672  11.134   8.772  4.0833 -1.3587 -0.2156
  182MOL0     H25112   7.434  10.992   8.436 -1.0889  3.9390 -1.3177
  182MOL0     H25113   8.179  11.057   8.291  1.6412 -0.6755  0.3773
  182MOL0     H25114   8.323  10.966   8.130  0.1707  0.5304  0.1674
  182MOL0     H25115   8.405  11.080   8.012 -3.3813  0.5582 -0.4672
  182MOL0     H25116   8.480  11.014   8.161 -0.3294 -2.2996 -2.0719
  183MOL0     O25117   5.107   8.119  11.362 -0.2410  0.0933  0.4279
  183MOL0     C25118   5.005   8.180  11.332 -0.4457 -0.2224  0.3051
  183MOL0     O25119   4.998   8.286  11.250 -0.2965 -0.3135 -0.2203
  183MOL0     C25120   5.117   8.344  11.217 -0.9362  0.2044 -0.0350
  183MOL0     C25121   5.207   8.277  11.133  0.8200  0.0803 -0.3174
  183MOL0     C25122   5.324   8.343  11.093 -0.3582  0.4089  0.2262
  183MOL0     C25123   5.358   8.476  11.128  0.5242  0.7293 -0.3078
  183MOL0     O25124   5.471   8.548  11.103  0.5863  0.2007 -0.9382
  183MOL0     C25125   5.569   8.483  11.015  0.2500  0.8704  0.8845
  183MOL0     C25126   5.539   8.509  10.870 -0.1744 -0.5169 -0.6853
  183MOL0     C25127   5.619   8.415  10.779 -0.5909 -0.5012  0.7477
  183MOL0     C25128   5.611   8.453  10.627 -1.2630 -0.2179  0.7164
  183MOL0     C25129   5.657   8.349  10.529  0.0650 -0.1107 -0.1709
  183MOL0     C25130   5.674   8.403  10.386  0.5330  0.4128 -0.3860
  183MOL0     C25131   5.779   8.335  10.300 -0.7930  0.1107  0.7096
  183MOL0     C25132   5.924   8.351  10.353  0.0400  0.5474  0.3108
  183MOL0     N25133   6.023   8.276  10.280 -0.4439 -0.1263  0.1312
  183MOL0     C25134   6.089   8.172  10.334  0.0351  0.3243  0.6556
  183MOL0     C25135   6.177   8.137  10.240 -0.1729 -0.9678 -0.6338
  183MOL0     C25136   6.255   8.008  10.250  0.9237  0.5102  0.9566
  183MOL0     C25137   6.369   8.026  10.344 -0.4644  0.6456  0.3811
  183MOL0     C25138   6.449   7.896  10.351  0.4403  0.5735 -0.9581
  183MOL0     C25139   6.577   7.916  10.430  0.3624 -0.9133  0.2205
  183MOL0     O25140   6.550   7.952  10.561 -0.2319  0.2933 -0.0434
  183MOL0     C25141   6.596   8.066  10.620  0.0486 -0.3209 -0.4851
  183MOL0     C25142   6.691   8.154  10.564  0.0063  0.1386  0.7445
  183MOL0     C25143   6.738   8.270  10.632  0.6278  0.8441  1.0296
  183MOL0     C25144   6.842   8.347  10.565  0.6288 -0.0873  0.4293
  183MOL0     C25145   6.690   8.297  10.759  0.0719  0.6754  0.0403
  183MOL0     C25146   6.713   8.425  10.828  0.4225  0.5464 -0.2836
  183MOL0     O25147   6.848   8.445  10.856  0.4066 -0.0170  0.1979
  183MOL0     C25148   6.896   8.559  10.921  0.0323  0.7185  0.9932
  183MOL0     C25149   6.826   8.673  10.963  0.9566 -0.0979 -0.6320
  183MOL0     C25150   6.883   8.780  11.031  0.2087 -0.2058 -1.0386
  183MOL0     C25151   7.015   8.778  11.055  0.6519  0.0311  0.4225
  183MOL0     O25152   7.074   8.874  11.133  0.4193  0.4761  0.5028
  183MOL0     C25153   7.023   8.933  11.245  0.1737 -0.0901 -0.1716
  183MOL0     C25154   7.137   8.937  11.339  0.1438 -0.1520  0.1534
  183MOL0     C25155   7.187   8.800  11.386  0.1755  0.4339  0.1085
  183MOL0     C25156   7.316   8.805  11.472 -0.5790 -0.4124 -0.6198
  183MOL0     C25157   7.305   8.857  11.614 -0.4621  0.2353 -0.4089
  183MOL0     C25158   7.440   8.875  11.680 -0.7860  0.3098  0.0665
  183MOL0     C25159   7.524   8.997  11.622  1.1394  0.5440  0.3685
  183MOL0     C25160   7.675   8.971  11.657  0.2515 -0.0882  0.4389
  183MOL0    Cl25161   7.782   9.101  11.577 -0.6910 -0.2050 -0.4380
  183MOL0     C25162   7.093   8.669  11.008  0.3151  0.5383  0.6655
  183MOL0     C25163   7.034   8.559  10.945 -0.6153  0.3288 -0.4989
  183MOL0     O25164   6.616   8.494  10.865  0.1486  0.1207  0.7383
  183MOL0     C25165   6.594   8.210  10.817  0.0187  0.5125 -0.2967
  183MOL0     C25166   6.548   8.098  10.743  0.0339  1.0622 -0.0998
  183MOL0     N25167   6.171   8.223  10.132  0.2045  0.4868  0.3202
  183MOL0     N25168   6.065   8.294  10.148 -0.4312 -0.1850  0.4887
  183MOL0     C25169   5.267   8.536  11.212 -0.0166 -0.4469 -0.9265
  183MOL0     C25170   5.146   8.478  11.251 -0.1437  0.0138 -0.2738
  183MOL0     C25171   4.867   8.159  11.392  0.7165  0.4284 -0.0956
  183MOL0     C25172   4.756   8.237  11.344 -0.5594  0.8047 -0.0704
  183MOL0     C25173   4.625   8.204  11.372 -0.0136 -0.1628  0.2269
  183MOL0     C25174   4.594   8.105  11.463 -0.1496 -0.6952 -0.4412
  183MOL0     O25175   4.461   8.106  11.501  0.2549  0.4659  0.2494
  183MOL0     C25176   4.415   8.040  11.623  0.1071  0.1917  0.0955
  183MOL0     C25177   4.267   8.052  11.657 -0.9194 -0.0258 -0.5872
  183MOL0     C25178   4.219   7.984  11.786  0.8455  0.3105 -0.2630
  183MOL0     C25179   4.072   8.018  11.818  0.0423 -0.1793  0.1957
  183MOL0     C25180   3.980   7.978  11.711 -0.1632 -0.2564  0.1439
  183MOL0     C25181   3.895   7.956  11.624 -0.0535 -0.5925  0.3086
  183MOL0     C25182   4.702   8.035  11.525  0.5049  0.3550  0.2911
  183MOL0     C25183   4.838   8.052  11.481  0.2503  0.0439  0.7750
  183MOL0     C25184   4.943   7.966  11.552  0.3836  0.3937 -0.2700
  183MOL0     H25185   5.200   8.172  11.105  2.3857 -0.2366  0.3464
  183MOL0     H25186   5.393   8.278  11.040  2.5163  2.9577  0.5444
  183MOL0     H25187   5.570   8.374  11.029  0.7544  0.4142 -2.1432
  183MOL0     H25188   5.673   8.513  11.032  2.1116 -2.3850 -3.0630
  183MOL0     H25189   5.433   8.485  10.856 -0.4548 -0.2076  0.7588
  183MOL0     H25190   5.560   8.615  10.855  0.3529 -0.4770  0.2574
  183MOL0     H25191   5.721   8.417  10.818 -0.4835 -0.5921  0.4706
  183MOL0     H25192   5.590   8.309  10.780  0.4045 -0.7763  1.3179
  183MOL0     H25193   5.509   8.482  10.601 -0.8575  0.8651  0.3052
  183MOL0     H25194   5.668   8.545  10.614  0.0737 -0.8446  1.8742
  183MOL0     H25195   5.576   8.276  10.524 -0.4835  0.3970  0.8311
  183MOL0     H25196   5.745   8.289  10.554 -1.4267 -2.8402 -1.1358
  183MOL0     H25197   5.580   8.393  10.330  1.6086  0.5194 -2.3159
  183MOL0     H25198   5.692   8.511  10.392  3.8291 -0.0825  0.3205
  183MOL0     H25199   5.770   8.387  10.204 -1.7903  0.6235  1.0690
  183MOL0     H25200   5.763   8.228  10.288  0.5024 -0.2493  1.8545
  183MOL0     H25201   5.952   8.457  10.353 -0.2564  0.6263  0.8722
  183MOL0     H25202   5.924   8.314  10.456 -2.3498 -0.1541  0.1064
  183MOL0     H25203   6.077   8.127  10.432 -2.1792  1.6366  1.0459
  183MOL0     H25204   6.292   7.985  10.149  2.4139 -1.5134  1.8917
  183MOL0     H25205   6.192   7.923  10.278 -1.5847  0.3817 -3.9598
  183MOL0     H25206   6.439   8.101  10.306 -0.7830  0.2337 -1.0802
  183MOL0     H25207   6.327   8.044  10.443 -0.0624 -2.0558  1.1091
  183MOL0     H25208   6.389   7.814  10.394 -0.6815  2.5653  1.5421
  183MOL0     H25209   6.476   7.863  10.251  0.2106  0.4761 -0.9891
  183MOL0     H25210   6.630   7.821  10.444 -0.4635 -1.1998  1.5665
  183MOL0     H25211   6.649   7.980  10.378  2.5751 -1.2249  2.6491
  183MOL0     H25212   6.742   8.136  10.470  0.3578  0.2673  0.9103
  183MOL0     H25213   6.935   8.348  10.622 -0.0541  1.7825  1.5830
  183MOL0     H25214   6.803   8.448  10.551 -0.0456 -0.2395  1.1895
  183MOL0     H25215   6.864   8.304  10.466  1.1479  3.3412 -1.0793
  183MOL0     H25216   6.718   8.671  10.957  0.8502  0.9609  0.6047
  183MOL0     H25217   6.825   8.870  11.052  1.8194  0.9169 -1.2104
  183MOL0     H25218   6.975   9.030  11.233  1.6199  0.8953  1.5010
  183MOL0     H25219   6.952   8.863  11.291 -0.1910  0.1997 -0.2849
  183MOL0     H25220   7.218   8.996  11.296 -1.7847  2.6799  0.0805
  183MOL0     H25221   7.108   9.002  11.423 -0.1390 -3.2390  2.6113
  183MOL0     H25222   7.221   8.747  11.297 -1.5207  0.3377 -0.5176
  183MOL0     H25223   7.106   8.745  11.436  0.9247 -1.3165 -0.5085
  183MOL0     H25224   7.385   8.869  11.417 -0.5817  1.4379  1.3842
  183MOL0     H25225   7.349   8.701  11.468 -1.0276 -0.5511 -0.7569
  183MOL0     H25226   7.260   8.956  11.614 -0.2738  0.3250 -0.1177
  183MOL0     H25227   7.246   8.791  11.678  0.4525 -0.7538 -0.5471
  183MOL0     H25228   7.488   8.779  11.660 -0.1634  0.9463 -1.6541
  183MOL0     H25229   7.428   8.883  11.789 -1.1464  1.2214 -0.0344
  183MOL0     H25230   7.495   9.092  11.666 -1.0673  0.6038 -1.0269
  183MOL0     H25231   7.513   9.013  11.514 -0.1759 -0.2676  0.3619
  183MOL0     H25232   7.703   8.872  11.620  1.2859  0.2608  0.2401
  183MOL0     H25233   7.691   8.976  11.765  1.3149 -1.9989  0.4102
  183MOL0     H25234   7.199   8.656  11.024  0.1913 -0.8656  0.4910
  183MOL0     H25235   7.095   8.471  10.927  0.5665  0.9576  0.3081
  183MOL0     H25236   6.559   8.231  10.917  2.5728  1.8852  0.4024
  183MOL0     H25237   6.480   8.025  10.784 -1.4595  1.8362 -1.0869
  183MOL0     H25238   5.297   8.636  11.238  2.4996 -1.8090  2.0059
  183MOL0     H25239   5.073   8.536  11.307 -2.8243 -2.5363 -0.8750
  183MOL0     H25240   4.769   8.320  11.274 -0.1654 -0.4185 -1.5041
  183MOL0     H25241   4.539   8.255  11.330 -0.6750 -0.9492  0.6003
  183MOL0     H25242   4.437   7.933  11.626  0.8842  0.3550  0.5274
  183MOL0     H25243   4.472   8.074  11.710 -0.5783 -0.1783  0.6935
  183MOL0     H25244   4.202   8.015  11.576 -2.1976 -0.8988  0.7773
  183MOL0     H25245   4.252   8.159  11.669  0.0335 -0.1621  2.4464
  183MOL0     H25246   4.228   7.875  11.779  1.9920  0.3298  0.6817
  183MOL0     H25247   4.278   8.011  11.874 -0.7292 -1.4501  1.4088
  183MOL0     H25248   4.072   8.127  11.827  1.0513 -0.2543  1.4057
  183MOL0     H25249   4.043   7.976  11.915  1.3313  1.2579  1.2489
  183MOL0     H25250   3.818   7.934  11.553  3.6287  0.1866 -4.4288
  183MOL0     H25251   4.685   7.970  11.610  1.8502  2.4384  2.2528
  183MOL0     H25252   4.888   7.901  11.621  0.8013 -0.3588 -0.6338
  183MOL0     H25253   4.992   7.906  11.475  0.0610 -0.2038 -0.0177
  183MOL0     H25254   5.021   8.029  11.595  1.9581 -0.3317 -1.9407
  184MOL0     O25255   8.494   1.598   6.820  0.1605  1.0711 -0.1001
  184MOL0     C25256   8.435   1.707   6.823  0.4574  0.5324 -0.6631
  184MOL0     O25257   8.503   1.824   6.798  0.7366  0.3007  0.0854
  184MOL0     C25258   8.637   1.817   6.783 -1.0267  0.4366  0.0743
  184MOL0     C25259   8.716   1.897   6.860  0.7204 -0.5543  0.1678
  184MOL0     C25260   8.854   1.892   6.839  0.3769  1.2757 -0.1487
  184MOL0     C25261   8.922   1.811   6.743  1.3819  0.5983 -0.5259
  184MOL0     O25262   9.054   1.819   6.730 -0.7892  0.1861 -0.4221
  184MOL0     C25263   9.109   1.743   6.616 -0.6399  0.7343 -0.6289
  184MOL0     C25264   9.260   1.733   6.619 -0.2958 -0.5132  0.3152
  184MOL0     C25265   9.319   1.863   6.564  0.0111 -0.3166  0.7421
  184MOL0     C25266   9.465   1.879   6.614 -0.1724 -0.0783 -0.0368
  184MOL0     C25267   9.520   2.017   6.581  0.0219 -0.8758  0.6433
  184MOL0     C25268   9.665   2.040   6.635  0.0517  0.5775  0.2766
  184MOL0     C25269   9.701   2.184   6.607 -0.2431 -0.3818 -0.1686
  184MOL0     C25270   9.854   2.195   6.620 -0.5958 -0.5028  0.8912
  184MOL0     N25271   9.934   2.144   6.510 -0.7688 -0.2125 -0.7851
  184MOL0     C25272  10.004   2.030   6.507 -0.5520 -0.0317 -0.9016
  184MOL0     C25273  10.095   2.039   6.405  0.3497  0.9929  0.0914
  184MOL0     C25274  10.188   1.923   6.374 -0.0758 -0.1728  0.1042
  184MOL0     C25275  10.327   1.968   6.324  0.3477 -0.2599  0.3094
  184MOL0     C25276  10.387   2.083   6.407 -0.0615  0.5226  0.7065
  184MOL0     C25277  10.528   2.118   6.348 -0.0691  0.6887 -1.4835
  184MOL0     O25278  10.608   1.997   6.347  0.3696  0.3610 -0.3612
  184MOL0     C25279  10.748   2.000   6.336  0.1459  0.3266 -0.0007
  184MOL0     C25280  10.821   2.112   6.298 -0.4644  0.4405 -0.3095
  184MOL0     C25281  10.966   2.102   6.282 -0.1674  1.1044 -0.3087
  184MOL0     C25282  11.042   2.232   6.260 -0.7798  0.1722 -0.1005
  184MOL0     C25283  11.032   1.976   6.303  0.3677  0.4444  0.2439
  184MOL0     C25284  11.176   1.950   6.292 -0.7194  0.0496  0.7366
  184MOL0     O25285  11.210   1.820   6.279  0.1168 -0.1276  0.1760
  184MOL0     C25286  11.339   1.762   6.287  0.4929 -0.7166 -0.1910
  184MOL0     C25287  11.351   1.626   6.236 -0.0836  0.4472 -0.1979
  184MOL0     C25288  11.474   1.557   6.237 -0.9656 -0.0642  0.7262
  184MOL0     C25289  11.584   1.631   6.280  0.0467  0.1453 -0.3841
  184MOL0     O25290  11.704   1.574   6.294  0.4789  0.1986  0.9677
  184MOL0     C25291  11.717   1.433   6.282  0.0446  0.0270  0.5409
  184MOL0     C25292  11.860   1.383   6.301 -0.5466 -0.2367  0.5460
  184MOL0     C25293  11.950   1.427   6.179 -0.8584  0.2422 -0.8349
  184MOL0     C25294  12.046   1.323   6.139  0.0111 -0.3153 -0.2306
  184MOL0     C25295  12.143   1.373   6.026 -0.1036  0.0980 -0.5121
  184MOL0     C25296  12.286   1.323   6.058 -0.7541 -0.0344 -0.8581
  184MOL0     C25297  12.381   1.326   5.943  0.2704  0.2076  0.5839
  184MOL0     C25298  12.491   1.229   5.958 -1.0045  0.2833 -0.8950
  184MOL0    Cl25299  12.589   1.272   6.109 -0.1098  0.4011 -0.0715
  184MOL0     C25300  11.575   1.760   6.325 -0.4020  0.2867  0.3704
  184MOL0     C25301  11.453   1.826   6.334 -0.6219 -0.5733 -0.0550
  184MOL0     O25302  11.254   2.042   6.311  0.1773  0.3319  0.6923
  184MOL0     C25303  10.953   1.864   6.334 -1.3745 -0.3281  1.0228
  184MOL0     C25304  10.812   1.870   6.351 -0.2893  0.8086  0.5360
  184MOL0     N25305  10.073   2.167   6.344 -0.3837  0.1695 -0.2509
  184MOL0     N25306   9.997   2.227   6.421  0.7668 -0.0396 -0.0989
  184MOL0     C25307   8.832   1.748   6.657 -0.4137 -0.3550 -0.1654
  184MOL0     C25308   8.694   1.737   6.682  0.1967 -0.5521 -0.5100
  184MOL0     C25309   8.285   1.708   6.834 -0.4812  0.3883 -1.4643
  184MOL0     C25310   8.220   1.797   6.748  0.2119  0.4735  0.1789
  184MOL0     C25311   8.084   1.815   6.753  0.4894  0.2011  0.6503
  184MOL0     C25312   7.999   1.744   6.845  0.2465  0.1393  0.8897
  184MOL0     O25313   7.861   1.760   6.837  0.1028 -0.7568 -0.1698
  184MOL0     C25314   7.785   1.663   6.908 -0.3535 -0.2260 -0.2894
  184MOL0     C25315   7.636   1.687   6.881 -0.2485  0.7573 -0.4763
  184MOL0     C25316   7.602   1.830   6.948  0.7192 -0.1827  0.2341
  184MOL0     C25317   7.463   1.889   6.921  0.1229 -0.5773  0.3711
  184MOL0     C25318   7.355   1.786   6.930 -0.0892  0.6427 -0.2086
  184MOL0     C25319   7.267   1.706   6.957  0.4015 -0.1907 -0.3548
  184MOL0     C25320   8.058   1.645   6.917 -0.6188  0.5575 -0.3602
  184MOL0     C25321   8.204   1.627   6.916 -1.5949  0.3766 -0.8463
  184MOL0     C25322   8.266   1.534   7.019  0.0513 -0.2893 -0.7615
  184MOL0     H25323   8.676   1.964   6.935  0.3513  0.4656 -0.8943
  184MOL0     H25324   8.914   1.960   6.899  2.4827 -0.4884 -0.1204
  184MOL0     H25325   9.074   1.776   6.518 -2.4239 -2.5473 -1.2270
  184MOL0     H25326   9.071   1.643   6.640 -0.1576  0.5172 -0.7537
  184MOL0     H25327   9.291   1.715   6.722 -0.7234 -1.5853  0.2692
  184MOL0     H25328   9.312   1.661   6.555  0.5356  0.8822 -0.6439
  184MOL0     H25329   9.317   1.863   6.455  0.9208  0.7950  0.7040
  184MOL0     H25330   9.259   1.951   6.590  3.0013  2.1011  0.0955
  184MOL0     H25331   9.475   1.857   6.720  1.5444  2.9813  0.5474
  184MOL0     H25332   9.536   1.805   6.576  0.3598  0.4145 -0.0170
  184MOL0     H25333   9.457   2.081   6.643 -0.2061  0.3847 -0.8314
  184MOL0     H25334   9.510   2.038   6.474 -0.8840 -1.6768  0.5571
  184MOL0     H25335   9.679   2.019   6.741 -0.1128 -0.8709  0.0271
  184MOL0     H25336   9.738   1.988   6.573  0.1610  1.3623 -0.2628
  184MOL0     H25337   9.658   2.248   6.684  1.8308 -0.5846  1.2425
  184MOL0     H25338   9.663   2.209   6.507  1.4090 -0.1717 -0.7869
  184MOL0     H25339   9.881   2.301   6.622 -0.0077 -0.6325  0.0562
  184MOL0     H25340   9.891   2.154   6.715 -1.2363  0.9429  1.7968
  184MOL0     H25341  10.003   1.945   6.574  0.4354  1.5518  1.2324
  184MOL0     H25342  10.129   1.858   6.308 -0.1340 -0.1557  0.1395
  184MOL0     H25343  10.205   1.864   6.465  0.8853  0.0373  0.0713
  184MOL0     H25344  10.383   1.875   6.311  2.2337  0.8907 -0.1458
  184MOL0     H25345  10.320   2.006   6.222  2.4953 -0.1188  0.1777
  184MOL0     H25346  10.325   2.172   6.400  0.8094  1.1662  0.9149
  184MOL0     H25347  10.382   2.057   6.513  0.9314 -2.2807  0.1696
  184MOL0     H25348  10.523   2.155   6.246 -2.7673  0.3903 -1.5143
  184MOL0     H25349  10.577   2.182   6.423 -1.2868 -0.0575  0.0104
  184MOL0     H25350  10.774   2.210   6.289  2.1106  1.8460  0.6658
  184MOL0     H25351  10.971   2.315   6.259  1.1195  1.9108  1.1250
  184MOL0     H25352  11.100   2.230   6.167 -0.2099 -0.7965  0.2722
  184MOL0     H25353  11.110   2.252   6.343  2.1287  1.3338 -2.5632
  184MOL0     H25354  11.263   1.577   6.195  0.4938 -1.6179  0.9269
  184MOL0     H25355  11.471   1.453   6.207 -0.6415 -0.1191  0.8717
  184MOL0     H25356  11.646   1.391   6.354 -3.3873  2.7959 -0.9185
  184MOL0     H25357  11.678   1.409   6.182 -1.6362  2.5395  0.5052
  184MOL0     H25358  11.913   1.408   6.393 -0.1541  0.1667  0.2116
  184MOL0     H25359  11.850   1.275   6.312 -2.5114 -0.5775 -3.0303
  184MOL0     H25360  12.003   1.518   6.209  0.1155 -1.4189  2.9790
  184MOL0     H25361  11.888   1.449   6.092  0.6628  1.7857 -1.5846
  184MOL0     H25362  11.982   1.235   6.121 -0.1144 -0.0206 -1.3227
  184MOL0     H25363  12.096   1.296   6.232 -2.5761  1.1416  1.7058
  184MOL0     H25364  12.100   1.344   5.930  0.0446 -1.3718 -0.1630
  184MOL0     H25365  12.140   1.482   6.020  3.1114  0.3464  0.5862
  184MOL0     H25366  12.279   1.221   6.097 -0.3493 -0.3679 -1.6368
  184MOL0     H25367  12.321   1.396   6.132  2.7141 -2.4083  0.0808
  184MOL0     H25368  12.427   1.424   5.927  0.8576 -0.1091  0.2883
  184MOL0     H25369  12.332   1.301   5.849 -0.2872  0.8871  0.6873
  184MOL0     H25370  12.551   1.231   5.866 -2.0834 -2.1693 -1.7369
  184MOL0     H25371  12.454   1.127   5.969  0.1898 -0.4926 -3.2478
  184MOL0     H25372  11.667   1.806   6.362  0.8871 -1.6541 -0.2765
  184MOL0     H25373  11.450   1.931   6.363  1.6863 -1.1132  2.5407
  184MOL0     H25374  10.992   1.763   6.340 -0.5907 -0.1759 -0.8790
  184MOL0     H25375  10.754   1.779   6.363  1.4903 -0.5766 -0.8616
  184MOL0     H25376   8.859   1.697   6.565 -3.1170 -1.3928 -0.4727
  184MOL0     H25377   8.638   1.685   6.605 -1.8672 -1.5093  1.4991
  184MOL0     H25378   8.286   1.853   6.683 -0.5490  0.9419 -0.1997
  184MOL0     H25379   8.024   1.876   6.687 -0.5859 -0.0443  1.3781
  184MOL0     H25380   7.797   1.562   6.868 -1.9510  0.3962 -2.5300
  184MOL0     H25381   7.807   1.669   7.015 -3.1432 -2.2508  0.5253
  184MOL0     H25382   7.576   1.609   6.930 -0.2755  0.6560 -0.6705
  184MOL0     H25383   7.610   1.685   6.775 -0.3611 -0.1852 -0.4415
  184MOL0     H25384   7.617   1.816   7.056  3.3805  2.8482  0.3995
  184MOL0     H25385   7.676   1.905   6.921  0.4087  0.9220  2.2164
  184MOL0     H25386   7.458   1.942   6.825  0.6619  1.5087  1.4389
  184MOL0     H25387   7.443   1.961   7.000 -3.8560 -2.1903  1.0463
  184MOL0     H25388   7.195   1.635   6.991  0.8473 -0.6757 -0.4118
  184MOL0     H25389   8.006   1.578   6.985 -0.6949  1.5792  0.6262
  184MOL0     H25390   8.313   1.449   6.969  0.8014 -0.6387  0.4903
  184MOL0     H25391   8.348   1.578   7.077 -1.5675 -2.6313  3.7936
  184MOL0     H25392   8.201   1.498   7.099  2.0433 -1.0709  0.5898
  185MOL0     O25393   3.947   9.795   8.707  0.4813  0.1346  0.6488
  185MOL0     C25394   3.945   9.905   8.771  0.7353  0.5650  0.1465
  185MOL0     O25395   4.061   9.973   8.803 -0.5152  0.0214 -0.2518
  185MOL0     C25396   4.192   9.921   8.782 -0.5550  0.6998 -0.7765
  185MOL0     C25397   4.244   9.880   8.656 -0.1783 -0.4683  0.0084
  185MOL0     C25398   4.382   9.853   8.643  0.5393 -0.0617 -0.4671
  185MOL0     C25399   4.462   9.844   8.752  0.5923 -0.5262  0.4364
  185MOL0     O25400   4.586   9.788   8.748  0.1108 -0.0871  0.4486
  185MOL0     C25401   4.639   9.753   8.620  1.0063 -0.2471  0.1956
  185MOL0     C25402   4.773   9.682   8.638  0.0881  0.6408 -0.1508
  185MOL0     C25403   4.850   9.650   8.503  0.5734 -0.3218 -0.2899
  185MOL0     C25404   4.788   9.539   8.428 -0.0739  0.2842  0.2072
  185MOL0     C25405   4.856   9.505   8.300 -0.0300  0.3825 -1.1430
  185MOL0     C25406   4.795   9.381   8.233  0.3069  0.6475 -0.2443
  185MOL0     C25407   4.869   9.342   8.103  0.4362  0.6642 -0.0309
  185MOL0     C25408   4.984   9.244   8.132  0.0461 -0.3709  0.0612
  185MOL0     N25409   5.029   9.194   7.998 -0.0291 -0.2759 -0.2263
  185MOL0     C25410   5.117   9.250   7.907 -0.0287  0.8315  0.2904
  185MOL0     C25411   5.135   9.150   7.817 -0.2250 -0.3780 -0.2076
  185MOL0     C25412   5.236   9.163   7.704 -0.2248  0.4316 -0.4635
  185MOL0     C25413   5.384   9.154   7.765 -0.7974  0.8023 -0.7217
  185MOL0     C25414   5.401   9.020   7.847  0.3557  0.3623  0.2023
  185MOL0     C25415   5.549   8.978   7.866 -0.5531 -0.5683 -0.4461
  185MOL0     O25416   5.556   8.841   7.919 -0.1049 -0.6285 -0.4615
  185MOL0     C25417   5.685   8.789   7.931  1.1553 -1.0802  0.1969
  185MOL0     C25418   5.692   8.658   7.975  0.3430  0.0743  0.2257
  185MOL0     C25419   5.813   8.589   7.984  0.3548  0.1685  0.0012
  185MOL0     C25420   5.799   8.447   8.027 -0.4184  0.3026  0.2386
  185MOL0     C25421   5.932   8.657   7.970 -0.2488  0.1838 -0.0576
  185MOL0     C25422   6.070   8.600   7.998 -0.5041  0.3386  0.5680
  185MOL0     O25423   6.174   8.687   7.972  0.5933 -0.0227 -0.6375
  185MOL0     C25424   6.308   8.652   7.953 -0.0513  0.2521  0.0863
  185MOL0     C25425   6.367   8.542   8.017  0.2705 -0.3889 -0.6098
  185MOL0     C25426   6.505   8.519   7.994  0.2837  0.3127  1.4694
  185MOL0     C25427   6.578   8.611   7.906  0.1823 -0.7060 -0.5712
  185MOL0     O25428   6.707   8.591   7.885 -0.3084  0.1920  0.2516
  185MOL0     C25429   6.785   8.713   7.869  0.3226  0.2000 -0.2480
  185MOL0     C25430   6.922   8.709   7.935  0.3780  0.7740 -0.5951
  185MOL0     C25431   6.997   8.595   7.861 -0.4834  0.5718  0.1118
  185MOL0     C25432   7.138   8.584   7.912  0.0154 -0.1080  0.3542
  185MOL0     C25433   7.190   8.447   7.894 -0.2608  0.0758 -0.4699
  185MOL0     C25434   7.337   8.452   7.936 -0.5634 -0.4062  0.0540
  185MOL0     C25435   7.412   8.323   7.923  0.2092 -0.2562  0.6937
  185MOL0     C25436   7.373   8.203   8.017  1.0405  0.0135  0.6818
  185MOL0    Cl25437   7.466   8.067   7.961  0.0946  0.4227  0.1410
  185MOL0     C25438   6.505   8.711   7.837  0.4711 -0.4573  0.2230
  185MOL0     C25439   6.369   8.730   7.867 -0.1324 -0.6579  0.5303
  185MOL0     O25440   6.078   8.481   8.023 -0.5583 -0.4393 -0.0296
  185MOL0     C25441   5.924   8.789   7.927  0.0466  0.5933 -0.3064
  185MOL0     C25442   5.806   8.853   7.905 -0.0956  0.1750 -0.1676
  185MOL0     N25443   5.055   9.045   7.858  0.7152 -0.3417  0.2618
  185MOL0     N25444   4.990   9.075   7.960  0.0703  0.0860  0.2223
  185MOL0     C25445   4.410   9.867   8.886  0.0121  0.3312 -0.6454
  185MOL0     C25446   4.273   9.906   8.899  0.0905  0.1037  0.8921
  185MOL0     C25447   3.822   9.958   8.828  0.2214  0.8248 -0.1103
  185MOL0     C25448   3.827  10.033   8.950  0.3745  0.4347  0.2980
  185MOL0     C25449   3.710  10.077   9.021 -0.1098 -0.4434 -0.4961
  185MOL0     C25450   3.586  10.033   8.981 -0.0935  0.2050  1.1900
  185MOL0     O25451   3.477  10.089   9.054 -0.4174  0.5085 -0.1025
  185MOL0     C25452   3.340  10.053   9.028  0.3898  0.1090 -0.6081
  185MOL0     C25453   3.301   9.907   9.084 -0.5309 -0.3310 -1.0770
  185MOL0     C25454   3.180   9.840   9.022  0.9002  0.4873  0.7866
  185MOL0     C25455   3.147   9.713   9.097 -0.0190  0.4801  0.1484
  185MOL0     C25456   3.257   9.618   9.079  0.2671  0.3535  0.0599
  185MOL0     C25457   3.342   9.535   9.076 -0.4233  0.2733 -0.4408
  185MOL0     C25458   3.578   9.949   8.866 -0.5205  0.1141  0.2847
  185MOL0     C25459   3.694   9.924   8.783 -0.5145  0.3397  0.4709
  185MOL0     C25460   3.668   9.851   8.651  0.3576  0.3903 -0.6343
  185MOL0     H25461   4.188   9.878   8.563  0.2690 -0.6948 -0.2601
  185MOL0     H25462   4.425   9.825   8.548  0.2435 -1.6434 -0.1675
  185MOL0     H25463   4.657   9.847   8.567 -0.1256 -1.1551 -1.8870
  185MOL0     H25464   4.572   9.685   8.567 -1.0216  2.3800 -0.7970
  185MOL0     H25465   4.834   9.730   8.715  1.7935  0.0821 -1.0807
  185MOL0     H25466   4.757   9.582   8.678  0.4494  0.9408  0.7755
  185MOL0     H25467   4.853   9.737   8.436 -2.0027 -0.1783 -0.3342
  185MOL0     H25468   4.956   9.633   8.523  0.2114 -1.1341  1.0816
  185MOL0     H25469   4.772   9.451   8.490 -2.3522  1.5298  1.5515
  185MOL0     H25470   4.686   9.571   8.401 -1.1976 -2.9422  0.1658
  185MOL0     H25471   4.957   9.484   8.336 -0.3505  0.1017 -0.3773
  185MOL0     H25472   4.871   9.584   8.227  3.6344  1.8021  0.8720
  185MOL0     H25473   4.786   9.297   8.302 -1.5364  0.8293 -0.2133
  185MOL0     H25474   4.691   9.405   8.209  0.4893  0.7893 -0.9088
  185MOL0     H25475   4.887   9.436   8.052 -1.1835  1.6582  1.1342
  185MOL0     H25476   4.803   9.279   8.043 -1.3018  1.1639  1.2607
  185MOL0     H25477   5.066   9.293   8.185  1.9069 -2.5938 -0.6058
  185MOL0     H25478   4.948   9.157   8.188  0.8222 -1.3889 -0.9715
  185MOL0     H25479   5.165   9.348   7.903  0.1545  0.8635  2.3487
  185MOL0     H25480   5.231   9.261   7.655 -5.1428 -0.4575 -2.3821
  185MOL0     H25481   5.211   9.083   7.634  0.7969  1.5261 -2.1409
  185MOL0     H25482   5.457   9.157   7.684 -0.0770 -0.4763 -0.1597
  185MOL0     H25483   5.400   9.242   7.828 -0.1771  0.3307 -0.1894
  185MOL0     H25484   5.346   9.016   7.941  0.0689 -1.6927 -0.0120
  185MOL0     H25485   5.353   8.941   7.788 -1.5733  0.0572  2.0918
  185MOL0     H25486   5.598   8.984   7.769 -0.5419  1.4060 -0.3601
  185MOL0     H25487   5.597   9.052   7.931 -2.4046  0.1374  0.1903
  185MOL0     H25488   5.597   8.613   8.001 -0.0127 -0.0442 -1.1644
  185MOL0     H25489   5.826   8.437   8.132  1.1191  2.0458  0.0602
  185MOL0     H25490   5.863   8.391   7.959  1.7110  2.1883  0.5696
  185MOL0     H25491   5.702   8.396   8.023  0.4246 -1.6731  2.4642
  185MOL0     H25492   6.322   8.467   8.081  1.6132 -2.1729 -1.6691
  185MOL0     H25493   6.559   8.440   8.045  0.6864  0.9168  1.9940
  185MOL0     H25494   6.803   8.717   7.762  1.5029 -0.5016 -0.0892
  185MOL0     H25495   6.731   8.801   7.907  2.8014  1.6526  0.1198
  185MOL0     H25496   6.954   8.813   7.931 -0.1110  1.2193  3.3247
  185MOL0     H25497   6.905   8.686   8.041 -1.0592  0.8188 -0.7945
  185MOL0     H25498   6.995   8.624   7.756  1.5054  2.5343  0.5358
  185MOL0     H25499   6.940   8.504   7.882  1.0908 -0.2175  1.1177
  185MOL0     H25500   7.139   8.608   8.019 -1.4113 -1.2939  0.6750
  185MOL0     H25501   7.197   8.649   7.848 -1.5484  0.7657 -0.2584
  185MOL0     H25502   7.144   8.375   7.961  3.7455 -2.0471  0.2822
  185MOL0     H25503   7.184   8.403   7.794  1.2471 -1.8300  0.2144
  185MOL0     H25504   7.350   8.485   8.040  1.5381 -0.2400 -0.2152
  185MOL0     H25505   7.395   8.523   7.877  0.7342 -1.2045  0.3379
  185MOL0     H25506   7.514   8.343   7.959  0.1559 -1.3744  1.5006
  185MOL0     H25507   7.411   8.290   7.819  2.0779  0.1103  0.5256
  185MOL0     H25508   7.270   8.169   8.003  1.8022 -1.3447 -2.4720
  185MOL0     H25509   7.400   8.216   8.122  2.7856  1.7000  0.0984
  185MOL0     H25510   6.563   8.779   7.775  0.2878 -1.8747 -1.5825
  185MOL0     H25511   6.329   8.815   7.813  1.2150 -1.3719 -1.7569
  185MOL0     H25512   6.014   8.847   7.907 -0.7130  1.5467 -1.0718
  185MOL0     H25513   5.826   8.956   7.877  3.4941 -0.2647  0.2972
  185MOL0     H25514   4.481   9.850   8.966  1.2544  0.7103 -1.6270
  185MOL0     H25515   4.238   9.922   9.000  0.2515 -1.4333  1.2244
  185MOL0     H25516   3.922  10.078   8.978  0.0900  0.0197  2.0497
  185MOL0     H25517   3.733  10.138   9.108  2.3477 -2.9149  0.7536
  185MOL0     H25518   3.283  10.122   9.090  2.5952 -0.7510  2.6478
  185MOL0     H25519   3.310  10.059   8.923 -0.8126  0.7385 -0.2446
  185MOL0     H25520   3.272   9.917   9.189  0.0403  0.9463 -1.0285
  185MOL0     H25521   3.396   9.854   9.071  0.6878  1.1171  1.1109
  185MOL0     H25522   3.094   9.908   9.020 -0.0838 -0.7328 -0.1659
  185MOL0     H25523   3.201   9.822   8.916 -0.3635 -0.8758  0.7452
  185MOL0     H25524   3.059   9.664   9.054  1.7034 -1.7488 -1.0273
  185MOL0     H25525   3.126   9.732   9.202 -0.9555  1.4013 -0.1814
  185MOL0     H25526   3.419   9.460   9.075 -1.0934 -0.4593  0.7352
  185MOL0     H25527   3.478   9.917   8.838 -0.3066 -0.6556  0.3575
  185MOL0     H25528   3.744   9.878   8.577  1.3878  0.9864  0.5955
  185MOL0     H25529   3.665   9.743   8.667  0.2504  0.7133  1.8694
  185MOL0     H25530   3.570   9.878   8.611  0.1800  0.6944 -0.0025
  186MOL0     O25531   8.951   6.405   6.998  0.1334  0.2760 -0.3612
  186MOL0     C25532   8.934   6.488   6.909  0.3334  0.0847 -0.2514
  186MOL0     O25533   9.033   6.558   6.858 -0.7681 -0.4482 -0.1724
  186MOL0     C25534   9.162   6.532   6.898 -0.2588 -0.3518  0.2017
  186MOL0     C25535   9.223   6.631   6.977 -0.6322 -0.3397  0.0345
  186MOL0     C25536   9.352   6.605   7.010  0.8250 -0.1808  0.7133
  186MOL0     C25537   9.425   6.492   6.974 -0.3483 -0.4958  1.1489
  186MOL0     O25538   9.556   6.494   7.015  0.1552 -0.4974 -0.2261
  186MOL0     C25539   9.646   6.384   6.980 -0.4220  0.9356 -1.0532
  186MOL0     C25540   9.639   6.254   7.074 -0.7381  0.4127  0.3548
  186MOL0     C25541   9.678   6.128   6.998 -0.3034 -1.0137  0.4965
  186MOL0     C25542   9.818   6.139   6.959  0.6239  0.2200  0.5136
  186MOL0     C25543   9.863   5.993   6.930 -0.6010 -0.3225  0.6912
  186MOL0     C25544   9.995   5.977   6.861  0.0873 -0.4000 -0.2293
  186MOL0     C25545  10.109   6.034   6.945 -0.2560 -0.4318 -0.6461
  186MOL0     C25546  10.239   5.976   6.892  0.1187  0.3323 -0.4368
  186MOL0     N25547  10.355   6.017   6.976 -0.1288  0.0187  0.4910
  186MOL0     C25548  10.428   6.128   6.949 -0.8482  0.4097 -0.1073
  186MOL0     C25549  10.528   6.131   7.044 -0.1646 -1.0440  0.8091
  186MOL0     C25550  10.631   6.235   7.044 -0.2162 -0.2998  0.0623
  186MOL0     C25551  10.664   6.269   6.895  0.2005 -0.8968 -0.5289
  186MOL0     C25552  10.721   6.158   6.801  0.4497  0.9821 -0.1976
  186MOL0     C25553  10.862   6.102   6.842  0.3773 -0.2226  0.6181
  186MOL0     O25554  10.957   6.190   6.771 -0.9784 -0.7994  0.3284
  186MOL0     C25555  11.088   6.185   6.796 -1.2520 -0.0100  0.3004
  186MOL0     C25556  11.170   6.260   6.713  0.6646  0.6769 -0.6056
  186MOL0     C25557  11.311   6.253   6.720 -0.2490 -0.4909 -0.2760
  186MOL0     C25558  11.390   6.348   6.629  0.5210 -0.7423 -0.0870
  186MOL0     C25559  11.375   6.167   6.821  0.2012 -0.2483 -0.1002
  186MOL0     C25560  11.517   6.158   6.844 -0.4315 -0.8681  0.2079
  186MOL0     O25561  11.554   6.047   6.911 -0.1606  0.3546  0.4072
  186MOL0     C25562  11.685   6.040   6.943 -0.2129  0.0222 -0.4185
  186MOL0     C25563  11.781   5.995   6.850  0.3288  1.2848  0.0566
  186MOL0     C25564  11.921   6.012   6.875  0.5225  0.2444  0.3894
  186MOL0     C25565  11.967   6.057   6.997 -0.7053  0.3360  0.4640
  186MOL0     O25566  12.095   6.042   7.023 -0.3642 -0.1848  0.1856
  186MOL0     C25567  12.130   6.012   7.157 -0.0455 -0.5818  0.2841
  186MOL0     C25568  12.239   5.903   7.168  0.9094 -0.0375 -0.3575
  186MOL0     C25569  12.367   5.957   7.115 -0.6211  0.0212 -0.3223
  186MOL0     C25570  12.483   5.868   7.137 -0.4323  0.2719 -0.4565
  186MOL0     C25571  12.604   5.936   7.069 -0.5138  0.0168  0.0638
  186MOL0     C25572  12.732   5.853   7.075 -0.7632  0.3529  0.7679
  186MOL0     C25573  12.838   5.928   6.997 -0.6886  0.1544 -0.3100
  186MOL0     C25574  12.981   5.864   7.019 -0.0285  0.5228  1.0412
  186MOL0    Cl25575  13.033   5.907   7.186 -0.3412  0.0293  0.0678
  186MOL0     C25576  11.874   6.112   7.086 -1.0389 -0.3646 -1.1271
  186MOL0     C25577  11.735   6.104   7.060  0.0466  0.7062 -0.3713
  186MOL0     O25578  11.588   6.250   6.802  1.0884 -0.1309 -0.2812
  186MOL0     C25579  11.293   6.078   6.889  0.0563  0.0670  0.4768
  186MOL0     C25580  11.156   6.093   6.874  0.4066  0.6598 -0.2334
  186MOL0     N25581  10.506   6.025   7.128 -0.2037 -0.1228  0.4190
  186MOL0     N25582  10.408   5.949   7.087 -0.2892 -0.0633  0.7460
  186MOL0     C25583   9.361   6.388   6.896 -0.3235  0.2740 -0.1070
  186MOL0     C25584   9.233   6.414   6.853  0.3457 -0.8754  0.0808
  186MOL0     C25585   8.806   6.531   6.853 -0.3796 -0.0109  0.0362
  186MOL0     C25586   8.808   6.637   6.758  0.2062 -0.1399 -0.2118
  186MOL0     C25587   8.699   6.674   6.687 -0.5003  0.1421  0.1169
  186MOL0     C25588   8.580   6.606   6.707  0.2949  0.0378  0.4276
  186MOL0     O25589   8.469   6.654   6.643  0.5229  0.1830 -0.5569
  186MOL0     C25590   8.336   6.607   6.670 -0.0244 -0.0517  0.0194
  186MOL0     C25591   8.238   6.718   6.624  0.3236 -0.1377 -0.5392
  186MOL0     C25592   8.097   6.664   6.634 -0.6486 -0.5769 -0.1255
  186MOL0     C25593   7.994   6.771   6.588  1.4505 -0.2991  0.3348
  186MOL0     C25594   7.858   6.741   6.628  0.0377 -0.2011 -0.5744
  186MOL0     C25595   7.743   6.715   6.654  1.4104 -0.2619 -0.4338
  186MOL0     C25596   8.569   6.512   6.811  0.7838  0.4281  0.1474
  186MOL0     C25597   8.676   6.472   6.887 -0.6136 -0.9158 -0.4376
  186MOL0     C25598   8.650   6.371   6.993  0.1118 -0.1990  0.0780
  186MOL0     H25599   9.173   6.718   7.019  2.9829  0.4285  3.3532
  186MOL0     H25600   9.401   6.673   7.078  0.1057 -1.3259  2.4408
  186MOL0     H25601   9.752   6.411   6.994  0.1482 -2.1559  2.2386
  186MOL0     H25602   9.630   6.356   6.876 -2.0393  2.5793 -1.2877
  186MOL0     H25603   9.707   6.264   7.160  0.4929  0.4099 -0.5834
  186MOL0     H25604   9.536   6.234   7.102 -0.4186  0.2975  1.5064
  186MOL0     H25605   9.648   6.039   7.053  1.2294 -1.7798  0.1263
  186MOL0     H25606   9.615   6.117   6.909 -0.9908 -3.0611  1.1813
  186MOL0     H25607   9.819   6.192   6.863 -1.8518 -0.4945  0.0232
  186MOL0     H25608   9.877   6.191   7.035 -1.7932  1.1584  1.8649
  186MOL0     H25609   9.793   5.957   6.855  0.4579 -1.3714  0.1806
  186MOL0     H25610   9.863   5.930   7.019  0.6861  0.0769  1.0010
  186MOL0     H25611  10.020   5.871   6.846 -0.9724 -0.8751  1.1596
  186MOL0     H25612  10.002   6.030   6.766 -2.0379 -0.5727 -0.5118
  186MOL0     H25613  10.091   6.001   7.048 -0.2371 -1.9836 -1.1206
  186MOL0     H25614  10.109   6.144   6.948 -1.7194 -0.4084 -0.8739
  186MOL0     H25615  10.239   5.869   6.873  1.8085  0.6354 -2.5644
  186MOL0     H25616  10.249   6.027   6.795 -1.0527 -0.4073 -0.9722
  186MOL0     H25617  10.409   6.199   6.870  1.7445 -0.3446 -1.5233
  186MOL0     H25618  10.722   6.205   7.097 -0.2021 -0.1950  0.0965
  186MOL0     H25619  10.586   6.319   7.098 -1.1383 -0.2485 -0.7606
  186MOL0     H25620  10.572   6.314   6.856  0.8005  0.4388 -0.4503
  186MOL0     H25621  10.742   6.345   6.904  0.0131 -0.8709  1.0377
  186MOL0     H25622  10.647   6.077   6.794  2.4552 -0.9196 -0.4343
  186MOL0     H25623  10.731   6.194   6.698  1.9966  1.0089 -0.0603
  186MOL0     H25624  10.868   6.098   6.952 -3.6724 -0.5497  0.9920
  186MOL0     H25625  10.871   5.999   6.807 -3.6141 -0.7704  0.6617
  186MOL0     H25626  11.129   6.334   6.645 -1.2227  3.1034  2.9011
  186MOL0     H25627  11.483   6.306   6.591  1.2250  0.1381  0.6231
  186MOL0     H25628  11.415   6.440   6.683 -1.7734  0.2778 -0.6259
  186MOL0     H25629  11.321   6.367   6.546 -1.7753  0.8131  2.0290
  186MOL0     H25630  11.748   5.974   6.749 -3.9582 -0.9862  1.6809
  186MOL0     H25631  11.989   5.984   6.795 -1.5218 -1.6697 -0.7815
  186MOL0     H25632  12.151   6.107   7.208 -1.9010 -0.3086  0.6120
  186MOL0     H25633  12.044   5.970   7.211  2.3494 -1.9014  3.3825
  186MOL0     H25634  12.236   5.891   7.276 -3.4563 -0.3702 -0.3421
  186MOL0     H25635  12.212   5.812   7.113 -0.3042  0.2601 -0.2892
  186MOL0     H25636  12.392   6.054   7.160  2.1663 -1.4254  1.5395
  186MOL0     H25637  12.347   5.966   7.008  0.8813  1.4450 -0.5291
  186MOL0     H25638  12.461   5.771   7.093 -0.5255 -0.4575  1.1491
  186MOL0     H25639  12.509   5.856   7.242  4.2611  0.1896 -1.3851
  186MOL0     H25640  12.575   5.966   6.968  1.0229  0.7063 -0.2093
  186MOL0     H25641  12.624   6.034   7.113  2.7985 -0.0640 -1.0224
  186MOL0     H25642  12.712   5.755   7.032 -0.5342  0.7666 -0.2979
  186MOL0     H25643  12.767   5.829   7.176  3.0191 -1.9624 -0.8731
  186MOL0     H25644  12.839   6.033   7.026 -0.7402 -0.3484  1.6307
  186MOL0     H25645  12.810   5.936   6.892 -2.3673  1.0633  0.1768
  186MOL0     H25646  13.050   5.901   6.943 -1.8069 -0.2949 -1.0769
  186MOL0     H25647  12.978   5.756   7.001 -1.3627  0.6289  0.4617
  186MOL0     H25648  11.906   6.163   7.176 -0.8221  2.5126 -2.7294
  186MOL0     H25649  11.668   6.165   7.120  0.0887  0.6838 -0.3015
  186MOL0     H25650  11.332   5.998   6.951  1.5220  0.7650  0.5063
  186MOL0     H25651  11.093   6.017   6.920  0.7250 -1.5470 -3.1873
  186MOL0     H25652   9.406   6.295   6.865 -0.7241  0.2346 -0.5741
  186MOL0     H25653   9.176   6.345   6.792 -0.5187 -0.2357  0.1460
  186MOL0     H25654   8.897   6.698   6.751  0.1603  0.0667  0.8652
  186MOL0     H25655   8.684   6.761   6.622 -0.3443 -1.3798 -2.0774
  186MOL0     H25656   8.314   6.523   6.603  0.3969  1.5665 -2.2604
  186MOL0     H25657   8.312   6.582   6.774  1.1441 -0.3157  0.2349
  186MOL0     H25658   8.251   6.740   6.518  0.1575  0.7515 -0.3836
  186MOL0     H25659   8.254   6.811   6.679  0.5702 -0.6250  0.2325
  186MOL0     H25660   8.084   6.571   6.577  1.5375  0.1356 -1.9338
  186MOL0     H25661   8.078   6.639   6.739  2.7211 -1.1466  0.4727
  186MOL0     H25662   7.998   6.778   6.479 -1.5088  1.3416  0.2280
  186MOL0     H25663   8.014   6.868   6.632 -2.5711  0.5409  0.7337
  186MOL0     H25664   7.647   6.673   6.675  1.5001 -0.8469 -1.1237
  186MOL0     H25665   8.471   6.469   6.827  1.0721 -0.3347 -0.0558
  186MOL0     H25666   8.646   6.271   6.949 -0.5733 -0.5322  0.8698
  186MOL0     H25667   8.725   6.365   7.073 -0.3420 -0.9118  0.4589
  186MOL0     H25668   8.557   6.386   7.049 -0.2874  1.0338 -0.8743
  187MOL0     O25669   4.387   4.292  10.992 -0.2198  0.3851  0.8077
  187MOL0     C25670   4.341   4.390  11.054  0.2321  0.9547 -0.0694
  187MOL0     O25671   4.413   4.500  11.085  0.1446  0.6127  0.3490
  187MOL0     C25672   4.550   4.485  11.098 -0.1574  0.5815  0.1114
  187MOL0     C25673   4.640   4.492  10.992  1.0713  0.1895 -0.0588
  187MOL0     C25674   4.774   4.474  11.009  0.1445 -0.5416  0.0546
  187MOL0     C25675   4.826   4.474  11.139 -0.9986  0.6002 -0.2060
  187MOL0     O25676   4.963   4.489  11.161 -0.2834 -0.5026  0.8561
  187MOL0     C25677   5.038   4.377  11.104  0.9554 -0.9128 -0.0074
  187MOL0     C25678   5.183   4.412  11.111 -0.0746  0.1239 -0.1696
  187MOL0     C25679   5.210   4.515  10.999 -0.4781 -0.4335 -0.0384
  187MOL0     C25680   5.367   4.549  10.992  0.1605  0.6248  0.3703
  187MOL0     C25681   5.382   4.657  10.879  0.5710  0.4026  0.0763
  187MOL0     C25682   5.531   4.705  10.872 -0.7548  0.1675 -0.2161
  187MOL0     C25683   5.624   4.591  10.835  0.2708  0.1227  1.0896
  187MOL0     C25684   5.767   4.635  10.829 -0.5044  0.0119  0.1112
  187MOL0     N25685   5.843   4.511  10.829 -0.0609  0.4323  0.0947
  187MOL0     C25686   5.823   4.399  10.753  1.7996  0.1718  0.2441
  187MOL0     C25687   5.924   4.319  10.769  0.1938 -0.1032 -0.6176
  187MOL0     C25688   5.953   4.193  10.694  0.2784  0.7181  0.1213
  187MOL0     C25689   6.041   4.212  10.567  0.2383  0.7518 -0.6452
  187MOL0     C25690   5.982   4.314  10.472 -0.1999 -0.7526 -0.6120
  187MOL0     C25691   6.010   4.473  10.504 -0.0164  0.2172 -0.2035
  187MOL0     O25692   6.150   4.492  10.535 -0.3129  0.7367  0.0935
  187MOL0     C25693   6.183   4.624  10.541 -0.1237 -0.3225  0.5993
  187MOL0     C25694   6.230   4.668  10.665 -0.0803  0.0198 -0.1222
  187MOL0     C25695   6.266   4.803  10.678 -0.0996 -0.4016 -0.3544
  187MOL0     C25696   6.331   4.832  10.814 -0.1113 -0.4647 -0.7581
  187MOL0     C25697   6.270   4.894  10.573  0.3436  0.9411 -0.3409
  187MOL0     C25698   6.287   5.044  10.589  0.4382  0.3116 -0.2457
  187MOL0     O25699   6.315   5.109  10.472  0.2232 -0.0960 -0.0568
  187MOL0     C25700   6.343   5.247  10.488 -0.0860  0.2523  0.8551
  187MOL0     C25701   6.433   5.301  10.577 -0.3525 -0.0185  0.4075
  187MOL0     C25702   6.475   5.434  10.573  0.0949  1.1655  0.6037
  187MOL0     C25703   6.435   5.518  10.471 -1.3854  0.3508 -0.1764
  187MOL0     O25704   6.492   5.641  10.472 -0.4336 -0.4486  0.3820
  187MOL0     C25705   6.429   5.742  10.397  0.1445 -0.3280  0.0627
  187MOL0     C25706   6.513   5.869  10.402  0.1193 -0.2248  0.2477
  187MOL0     C25707   6.443   5.970  10.310  0.2174  0.7714  0.1489
  187MOL0     C25708   6.536   6.100  10.309  1.1357  0.2787 -0.2676
  187MOL0     C25709   6.473   6.226  10.243  0.2862 -0.5158  0.8575
  187MOL0     C25710   6.340   6.270  10.309 -0.1612  0.4533  0.0682
  187MOL0     C25711   6.275   6.382  10.223 -0.2832  0.8856  0.1604
  187MOL0     C25712   6.153   6.422  10.304  0.1044 -0.0885 -1.0045
  187MOL0    Cl25713   6.018   6.476  10.197 -0.0050 -0.2606 -0.4574
  187MOL0     C25714   6.332   5.473  10.380 -0.4207 -0.4739 -0.5627
  187MOL0     C25715   6.302   5.337  10.388 -0.3251  0.1755  0.0124
  187MOL0     O25716   6.266   5.092  10.699 -0.0193 -0.3425 -0.6540
  187MOL0     C25717   6.240   4.844  10.442 -0.6448  1.0083 -0.4147
  187MOL0     C25718   6.192   4.714  10.430  0.7620 -0.2696 -0.0064
  187MOL0     N25719   6.015   4.379  10.856  0.5156  0.1037 -0.0608
  187MOL0     N25720   5.965   4.493  10.882  0.4097 -0.2189  0.1871
  187MOL0     C25721   4.738   4.469  11.251 -0.0871  0.2714  0.0711
  187MOL0     C25722   4.604   4.480  11.232  0.2622 -0.1802  0.1182
  187MOL0     C25723   4.196   4.400  11.086 -0.4524  0.2943 -0.4620
  187MOL0     C25724   4.131   4.517  11.049 -0.8411 -0.3516 -1.1273
  187MOL0     C25725   3.995   4.541  11.077 -0.1061  0.0363  0.4180
  187MOL0     C25726   3.910   4.440  11.124 -0.2642  0.6305  0.3307
  187MOL0     O25727   3.774   4.448  11.140 -0.0069 -0.0128  0.1994
  187MOL0     C25728   3.709   4.572  11.114 -0.3503  0.2117  0.7330
  187MOL0     C25729   3.555   4.561  11.090  0.0585  0.3136 -0.1822
  187MOL0     C25730   3.487   4.464  11.185  0.1683 -0.3494  0.4274
  187MOL0     C25731   3.335   4.464  11.185 -0.1551  0.2239  0.6333
  187MOL0     C25732   3.290   4.460  11.047 -0.3373  0.1608 -0.3450
  187MOL0     C25733   3.258   4.448  10.931  0.6506  0.2400 -0.2939
  187MOL0     C25734   3.975   4.318  11.166 -0.2491 -0.8874  0.0473
  187MOL0     C25735   4.118   4.300  11.145 -0.0026  0.6169 -0.0352
  187MOL0     C25736   4.182   4.175  11.200 -0.0810 -0.4648 -0.5133
  187MOL0     H25737   4.606   4.508  10.890  0.6032  0.8421  0.1879
  187MOL0     H25738   4.842   4.480  10.925  0.9850  0.6889  0.7807
  187MOL0     H25739   5.001   4.351  11.005  0.7921  0.4730 -0.3273
  187MOL0     H25740   5.022   4.289  11.167  0.7263 -1.5792 -0.9715
  187MOL0     H25741   5.214   4.451  11.208  3.4038  0.1319 -1.1560
  187MOL0     H25742   5.238   4.320  11.092 -0.6777 -0.0161 -1.3249
  187MOL0     H25743   5.179   4.472  10.903  0.7848 -0.0169 -0.6545
  187MOL0     H25744   5.149   4.603  11.019  1.3023  0.9040 -0.1466
  187MOL0     H25745   5.394   4.586  11.091 -0.2665 -0.3742  0.8767
  187MOL0     H25746   5.415   4.455  10.966  1.8566  2.1405 -2.4903
  187MOL0     H25747   5.307   4.735  10.894 -1.6339 -1.3424 -1.1699
  187MOL0     H25748   5.353   4.624  10.778  1.1776  2.0689 -0.6814
  187MOL0     H25749   5.544   4.792  10.806  0.1299  1.3215  1.4075
  187MOL0     H25750   5.569   4.724  10.973 -1.8533 -4.4225  1.2889
  187MOL0     H25751   5.597   4.563  10.732  1.9809  1.2606  0.2775
  187MOL0     H25752   5.622   4.506  10.903 -0.1640 -0.8214 -0.0606
  187MOL0     H25753   5.796   4.699  10.745 -2.2444  3.5561  2.0023
  187MOL0     H25754   5.785   4.689  10.922 -0.4553  1.0631 -0.4913
  187MOL0     H25755   5.740   4.378  10.686  0.4550  3.9560  0.4863
  187MOL0     H25756   5.859   4.163  10.648  0.9005 -0.2003 -0.6015
  187MOL0     H25757   5.997   4.113  10.754 -1.7181 -0.7398 -0.2560
  187MOL0     H25758   6.142   4.244  10.597 -0.3636  2.4857 -0.3431
  187MOL0     H25759   6.056   4.112  10.526  1.2773 -0.0507  1.5314
  187MOL0     H25760   6.025   4.301  10.372  1.3402 -0.9702  0.0660
  187MOL0     H25761   5.872   4.308  10.473 -0.4090  1.7556 -1.3779
  187MOL0     H25762   5.984   4.536  10.418  2.0267  2.0475  0.4175
  187MOL0     H25763   5.951   4.515  10.585 -1.7800 -0.2042 -1.2292
  187MOL0     H25764   6.218   4.597  10.746 -4.0896 -1.5334 -1.8019
  187MOL0     H25765   6.431   4.876  10.803  0.4415 -1.5689 -0.3290
  187MOL0     H25766   6.350   4.742  10.872  0.1957 -1.1906 -1.9409
  187MOL0     H25767   6.256   4.886  10.872  0.2995 -1.0987  0.3954
  187MOL0     H25768   6.486   5.240  10.650 -0.9717 -0.2321  0.6868
  187MOL0     H25769   6.551   5.447  10.649 -1.1748  0.5249  2.0337
  187MOL0     H25770   6.427   5.713  10.291  2.2248 -0.4878  0.0212
  187MOL0     H25771   6.330   5.755  10.442 -0.5907 -3.1177 -0.5838
  187MOL0     H25772   6.511   5.900  10.507  0.6014 -1.8600  0.7682
  187MOL0     H25773   6.619   5.855  10.377  0.5181  0.3881  1.5235
  187MOL0     H25774   6.342   5.989  10.348  0.9440 -0.9110  3.2397
  187MOL0     H25775   6.426   5.927  10.210  1.1572 -1.8200  1.0318
  187MOL0     H25776   6.630   6.076  10.258 -0.2361 -1.3286 -2.2072
  187MOL0     H25777   6.564   6.122  10.412 -2.7961 -3.1553  1.8053
  187MOL0     H25778   6.538   6.314  10.242 -2.2250  1.4815 -1.0630
  187MOL0     H25779   6.451   6.191  10.141 -0.6742 -0.3857  1.0118
  187MOL0     H25780   6.344   6.294  10.415 -4.2566 -1.7062  0.9432
  187MOL0     H25781   6.275   6.182  10.307  0.1973  0.0480  2.6038
  187MOL0     H25782   6.240   6.330  10.133  1.8574 -0.5120  0.0568
  187MOL0     H25783   6.345   6.464  10.202  0.8087 -0.2656 -0.8374
  187MOL0     H25784   6.182   6.508  10.364 -0.3374  0.5635 -1.7138
  187MOL0     H25785   6.102   6.341  10.357  1.3945  0.1160  0.5922
  187MOL0     H25786   6.272   5.533  10.312  1.9317  2.7590 -0.0361
  187MOL0     H25787   6.242   5.292  10.310  0.5331 -1.0059  0.0126
  187MOL0     H25788   6.239   4.918  10.363  0.3976  3.1184  1.4455
  187MOL0     H25789   6.156   4.670  10.337  0.7187 -0.0265 -0.1036
  187MOL0     H25790   4.766   4.452  11.355  1.3310 -0.7832 -0.4542
  187MOL0     H25791   4.527   4.492  11.307  1.3781  0.6044  1.1789
  187MOL0     H25792   4.197   4.597  11.017  0.3273 -1.0782 -0.6234
  187MOL0     H25793   3.960   4.641  11.053 -0.7258 -0.6533 -1.7669
  187MOL0     H25794   3.720   4.647  11.192  0.4699 -0.5481  1.3585
  187MOL0     H25795   3.739   4.624  11.022 -0.8732  2.9920  2.0323
  187MOL0     H25796   3.538   4.531  10.987 -3.1765 -2.4182  0.9432
  187MOL0     H25797   3.506   4.659  11.098  0.7687  0.6516  0.1211
  187MOL0     H25798   3.523   4.365  11.157 -1.0400 -0.1243 -2.2176
  187MOL0     H25799   3.519   4.474  11.289  1.6788 -0.9725  0.0466
  187MOL0     H25800   3.288   4.545  11.242  0.0727  0.9109 -0.1505
  187MOL0     H25801   3.301   4.371  11.233 -3.1518  0.8804 -0.0071
  187MOL0     H25802   3.220   4.435  10.831 -3.1051  0.8793  0.8732
  187MOL0     H25803   3.911   4.243  11.212 -0.0953  0.0394  1.9085
  187MOL0     H25804   4.276   4.195  11.252  0.1565 -1.9603 -0.3349
  187MOL0     H25805   4.117   4.119  11.268  1.6150 -2.0404 -0.1085
  187MOL0     H25806   4.209   4.102  11.123 -1.7869 -2.1336  0.3867
  188MOL0     O25807   9.456   3.522   2.559 -0.2445 -0.1402  0.6379
  188MOL0     C25808   9.370   3.447   2.520 -0.4271  0.9255  0.6839
  188MOL0     O25809   9.387   3.308   2.500 -0.0086  0.1526 -0.3705
  188MOL0     C25810   9.504   3.237   2.510  0.3142 -0.6680  0.5532
  188MOL0     C25811   9.507   3.128   2.421  0.2769 -0.6750  0.4311
  188MOL0     C25812   9.625   3.060   2.404  0.4450 -0.8046  0.6911
  188MOL0     C25813   9.738   3.096   2.479 -0.1626  0.6073 -0.5217
  188MOL0     O25814   9.854   3.025   2.473  0.1050  0.2848  0.3223
  188MOL0     C25815   9.849   2.889   2.429  0.0564 -1.0574  0.1663
  188MOL0     C25816   9.967   2.827   2.490  0.4941  0.6006 -0.5543
  188MOL0     C25817  10.107   2.880   2.458  0.2658 -0.5209 -0.0817
  188MOL0     C25818  10.151   3.004   2.544  0.0620  0.7497 -0.1394
  188MOL0     C25819  10.239   3.089   2.450 -0.1523  0.6094 -0.3578
  188MOL0     C25820  10.287   3.216   2.519 -0.5321  0.3622 -0.0462
  188MOL0     C25821  10.396   3.280   2.432  0.7901 -0.1985 -0.1542
  188MOL0     C25822  10.335   3.319   2.297 -0.1288 -0.1734 -1.0061
  188MOL0     N25823  10.430   3.395   2.218  0.2284  0.5251  0.3699
  188MOL0     C25824  10.483   3.523   2.236  0.0379  0.8820 -0.3098
  188MOL0     C25825  10.572   3.541   2.134 -0.3876 -0.5521  0.0717
  188MOL0     C25826  10.654   3.662   2.100 -0.2064 -0.0187 -0.6201
  188MOL0     C25827  10.775   3.670   2.193  0.1157 -0.0617  0.0965
  188MOL0     C25828  10.881   3.565   2.175  0.8384 -0.4327  0.5967
  188MOL0     C25829  10.914   3.534   2.037 -0.5808 -0.1516 -0.1305
  188MOL0     O25830  11.013   3.424   2.034 -0.7018 -0.2019  0.5462
  188MOL0     C25831  11.135   3.461   1.975  0.6342 -0.4225 -0.2487
  188MOL0     C25832  11.165   3.412   1.852 -0.1743 -0.7556  0.1352
  188MOL0     C25833  11.290   3.432   1.798 -0.0268 -0.2556  0.7034
  188MOL0     C25834  11.304   3.369   1.664 -0.1920  0.1759 -0.2363
  188MOL0     C25835  11.389   3.504   1.873  0.5399  0.8855 -0.7047
  188MOL0     C25836  11.535   3.525   1.826  0.0386 -0.0525 -0.4509
  188MOL0     O25837  11.611   3.620   1.905  0.7190 -0.5336  0.6510
  188MOL0     C25838  11.745   3.628   1.880 -0.2940  0.1747 -0.0560
  188MOL0     C25839  11.837   3.520   1.866 -0.3674 -0.5883  0.6547
  188MOL0     C25840  11.978   3.541   1.835  0.3862 -0.2384  0.4054
  188MOL0     C25841  12.021   3.675   1.837 -0.2510 -0.3099 -0.6105
  188MOL0     O25842  12.144   3.710   1.802 -1.0317  0.6927 -0.0962
  188MOL0     C25843  12.253   3.613   1.823  0.1936 -0.3443 -0.4498
  188MOL0     C25844  12.391   3.668   1.836 -0.4978 -0.4270  0.1705
  188MOL0     C25845  12.415   3.738   1.967  0.2089 -0.5112 -0.0572
  188MOL0     C25846  12.429   3.640   2.087 -0.1068  0.3525  0.3987
  188MOL0     C25847  12.438   3.714   2.224 -0.7531 -0.4796  0.4462
  188MOL0     C25848  12.575   3.759   2.270 -0.7559  0.0534 -0.0915
  188MOL0     C25849  12.670   3.652   2.307  0.1397  0.1587  0.6048
  188MOL0     C25850  12.807   3.708   2.362  0.2633  0.2308 -0.8612
  188MOL0    Cl25851  12.883   3.825   2.255 -0.2793 -0.4492 -0.1408
  188MOL0     C25852  11.938   3.780   1.865  0.0035 -0.3755 -0.3555
  188MOL0     C25853  11.803   3.760   1.871 -0.7419  1.1888  0.9923
  188MOL0     O25854  11.571   3.472   1.726 -0.2072  0.1219  0.4324
  188MOL0     C25855  11.361   3.556   2.003  0.1051  0.7406 -0.2224
  188MOL0     C25856  11.236   3.528   2.057  0.6837 -1.0673  0.3477
  188MOL0     N25857  10.571   3.430   2.066 -0.8536 -0.1973 -0.5307
  188MOL0     N25858  10.496   3.346   2.112  0.5031 -0.0188 -0.2522
  188MOL0     C25859   9.729   3.195   2.577 -0.7924 -0.2958  0.0914
  188MOL0     C25860   9.609   3.269   2.594  0.6145  0.2811  0.5831
  188MOL0     C25861   9.237   3.512   2.491  0.5834 -0.1217  0.0269
  188MOL0     C25862   9.187   3.605   2.584  0.1656  0.0590 -0.0956
  188MOL0     C25863   9.060   3.668   2.565  0.9618  0.1842  0.4081
  188MOL0     C25864   8.980   3.636   2.460 -0.2415 -0.1410  0.0126
  188MOL0     O25865   8.858   3.711   2.443  0.0792 -0.3874  0.3110
  188MOL0     C25866   8.823   3.749   2.309  0.2788 -0.1546 -0.2898
  188MOL0     C25867   8.684   3.819   2.299  0.5384 -0.2783 -0.9567
  188MOL0     C25868   8.688   3.950   2.372 -0.2741  0.3250  0.1382
  188MOL0     C25869   8.544   3.988   2.423  0.1017 -0.0087  0.6071
  188MOL0     C25870   8.475   4.051   2.308 -0.0528 -0.8626 -0.2469
  188MOL0     C25871   8.406   4.091   2.220 -0.5514  0.1381 -0.1172
  188MOL0     C25872   9.025   3.533   2.374 -0.4210 -0.1706  0.1571
  188MOL0     C25873   9.151   3.472   2.389  0.6000 -0.1484  0.7397
  188MOL0     C25874   9.205   3.377   2.286  0.0610  0.2297 -0.2279
  188MOL0     H25875   9.412   3.117   2.369 -1.3583  2.1077  2.5760
  188MOL0     H25876   9.616   2.976   2.336 -0.6910  0.1835 -0.4476
  188MOL0     H25877   9.860   2.881   2.321  1.7950  2.9853 -0.1605
  188MOL0     H25878   9.758   2.840   2.466 -0.7052  0.4285  0.3379
  188MOL0     H25879   9.948   2.824   2.598  1.7290  0.5093 -0.3190
  188MOL0     H25880   9.958   2.722   2.460 -1.1939  0.0281  1.6808
  188MOL0     H25881  10.179   2.801   2.483 -1.0964 -1.7171  0.1560
  188MOL0     H25882  10.122   2.882   2.350  1.6216 -2.2997  0.0176
  188MOL0     H25883  10.071   3.072   2.573 -0.2473  0.1313  0.4806
  188MOL0     H25884  10.201   2.977   2.637 -1.1278  2.4175  1.0328
  188MOL0     H25885  10.188   3.114   2.357  2.3069 -0.6636 -2.1751
  188MOL0     H25886  10.327   3.025   2.433  0.9675  1.2422  2.4942
  188MOL0     H25887  10.207   3.291   2.524 -0.2411  0.6959 -0.3971
  188MOL0     H25888  10.323   3.199   2.621  1.3388  0.7045 -0.6135
  188MOL0     H25889  10.480   3.210   2.429  0.9471 -0.1009  1.1973
  188MOL0     H25890  10.426   3.362   2.498  0.2861  0.3192 -0.5529
  188MOL0     H25891  10.295   3.244   2.228  1.3623  0.4611 -2.6603
  188MOL0     H25892  10.263   3.399   2.318  4.5297  4.1250  0.6679
  188MOL0     H25893  10.460   3.587   2.320  0.8372 -1.1923  1.6035
  188MOL0     H25894  10.588   3.746   2.127  2.6066  0.9759  4.5639
  188MOL0     H25895  10.684   3.663   1.995  3.3215 -2.6447  0.1899
  188MOL0     H25896  10.805   3.774   2.178 -0.1955  0.3010  1.7887
  188MOL0     H25897  10.735   3.677   2.295  1.1128  0.9056  0.4395
  188MOL0     H25898  10.965   3.579   2.243  0.4811 -2.7024  1.5969
  188MOL0     H25899  10.842   3.472   2.217 -1.5824 -0.1060 -0.7685
  188MOL0     H25900  10.834   3.485   1.980 -2.5584  1.3763  1.1945
  188MOL0     H25901  10.942   3.629   1.990 -0.1140  0.4586  1.3311
  188MOL0     H25902  11.087   3.362   1.794 -0.5220  1.5993 -1.5827
  188MOL0     H25903  11.212   3.342   1.611  0.3307  0.9953 -1.6149
  188MOL0     H25904  11.362   3.277   1.670 -1.6515 -0.6814  1.6064
  188MOL0     H25905  11.363   3.441   1.606  2.0786  0.5160  2.3183
  188MOL0     H25906  11.802   3.417   1.878 -1.5680 -0.5433 -1.8727
  188MOL0     H25907  12.054   3.465   1.821  3.0948  2.0372  1.7961
  188MOL0     H25908  12.241   3.554   1.915  1.7747  2.1693  1.5223
  188MOL0     H25909  12.250   3.544   1.739 -0.0544 -1.7074  0.6324
  188MOL0     H25910  12.465   3.588   1.830 -1.5833 -1.3746 -1.2000
  188MOL0     H25911  12.397   3.738   1.752 -1.8399 -0.4248  0.0548
  188MOL0     H25912  12.331   3.805   1.988  0.6920  0.0889 -0.0014
  188MOL0     H25913  12.504   3.800   1.955  0.6240 -1.0221  0.3682
  188MOL0     H25914  12.518   3.579   2.069 -2.5561 -3.4514 -0.1071
  188MOL0     H25915  12.343   3.573   2.098 -0.2303  0.4248 -0.0890
  188MOL0     H25916  12.380   3.807   2.221  0.7471  0.7637  4.2365
  188MOL0     H25917  12.392   3.653   2.302 -0.4197 -0.7191  0.4548
  188MOL0     H25918  12.560   3.822   2.358  0.8343  2.6670 -1.5654
  188MOL0     H25919  12.621   3.826   2.197  0.3916  1.3911  1.7764
  188MOL0     H25920  12.693   3.589   2.221  2.5523  0.7027  0.7976
  188MOL0     H25921  12.632   3.584   2.384  1.2120 -2.0589 -0.7627
  188MOL0     H25922  12.877   3.628   2.388 -1.3984 -1.0624 -0.1521
  188MOL0     H25923  12.787   3.750   2.462  1.3834  0.1371 -0.5847
  188MOL0     H25924  11.975   3.881   1.846  0.9526 -0.9683 -1.8387
  188MOL0     H25925  11.728   3.839   1.863 -3.1004 -1.0854 -3.4680
  188MOL0     H25926  11.430   3.612   2.064  1.3635 -2.3655  1.4629
  188MOL0     H25927  11.204   3.561   2.156 -0.3570 -2.2699  0.4466
  188MOL0     H25928   9.813   3.227   2.639 -1.1658 -2.8295  2.0944
  188MOL0     H25929   9.611   3.358   2.656 -0.0513 -0.0159  1.0461
  188MOL0     H25930   9.249   3.644   2.665  2.2386 -0.9806 -1.0846
  188MOL0     H25931   9.034   3.747   2.634  1.7591 -0.5066  1.5224
  188MOL0     H25932   8.891   3.823   2.264 -1.3275  1.3658 -0.3537
  188MOL0     H25933   8.820   3.662   2.243  2.6913  0.2905 -1.0776
  188MOL0     H25934   8.614   3.758   2.357  1.2876  1.4971  2.0214
  188MOL0     H25935   8.657   3.819   2.193  1.0195 -2.8311 -1.1429
  188MOL0     H25936   8.746   3.933   2.463  1.6250  2.2278 -0.6086
  188MOL0     H25937   8.732   4.022   2.302 -0.3640 -0.7161 -1.0162
  188MOL0     H25938   8.564   4.062   2.501 -2.1541  0.6423  0.6361
  188MOL0     H25939   8.494   3.904   2.473 -1.7878 -1.8724 -3.8880
  188MOL0     H25940   8.351   4.122   2.133  1.6151  2.2483 -0.8537
  188MOL0     H25941   8.966   3.488   2.295 -1.4855  0.3321  0.6487
  188MOL0     H25942   9.134   3.366   2.204 -0.3971  0.3477  0.1522
  188MOL0     H25943   9.299   3.418   2.248  0.2373 -0.0332 -0.0760
  188MOL0     H25944   9.221   3.277   2.326  0.1784 -0.4418 -1.8723
  189MOL0     O25945   7.276   1.393   0.352  0.9059  0.1242 -0.4786
  189MOL0     C25946   7.216   1.290   0.316  0.1120 -1.0547  0.9608
  189MOL0     O25947   7.286   1.173   0.299 -0.6485 -0.1134  0.2163
  189MOL0     C25948   7.425   1.160   0.321 -0.4454  0.2164  0.2300
  189MOL0     C25949   7.491   1.060   0.252 -0.0477 -0.6321 -0.2379
  189MOL0     C25950   7.626   1.031   0.283 -0.9139  0.7608  0.7850
  189MOL0     C25951   7.689   1.092   0.388 -0.0825 -0.2269 -0.3660
  189MOL0     O25952   7.817   1.054   0.405 -0.5705  0.8376 -0.3042
  189MOL0     C25953   7.880   1.061   0.534 -0.0675 -0.7202  0.4854
  189MOL0     C25954   8.015   0.980   0.528  0.8201  0.8474  0.4859
  189MOL0     C25955   8.113   1.020   0.415 -0.1498  0.1720 -0.3228
  189MOL0     C25956   8.252   0.967   0.419  0.6473  0.5687 -0.2572
  189MOL0     C25957   8.344   1.024   0.313 -0.1316  0.0912  0.1525
  189MOL0     C25958   8.478   0.952   0.338  0.1752  0.1048 -0.7748
  189MOL0     C25959   8.582   1.026   0.253  0.0269 -0.0954 -0.3354
  189MOL0     C25960   8.709   0.932   0.264 -0.3020 -0.1217  0.4427
  189MOL0     N25961   8.827   0.998   0.218 -0.7735 -0.8656  0.1500
  189MOL0     C25962   8.875   1.000   0.088  0.4726  0.3179 -0.2355
  189MOL0     C25963   9.003   1.024   0.109 -0.4780  0.1322  0.3154
  189MOL0     C25964   9.117   1.024   0.018  0.2531  0.8506 -0.7563
  189MOL0     C25965   9.124   0.886  -0.050  0.1009 -0.0250 -0.3287
  189MOL0     C25966   9.241   0.872  -0.143 -0.1546 -0.0755  0.2940
  189MOL0     C25967   9.260   0.996  -0.246  0.1015 -0.6106  0.5181
  189MOL0     O25968   9.371   0.962  -0.334 -0.1139 -0.3438 -0.0063
  189MOL0     C25969   9.401   1.039  -0.443  0.1520 -0.5569  0.1436
  189MOL0     C25970   9.493   0.988  -0.529  0.1199 -0.2016  0.5158
  189MOL0     C25971   9.534   1.061  -0.642 -0.2785  0.1519 -0.0726
  189MOL0     C25972   9.638   1.006  -0.730  0.6606 -0.9159 -1.0133
  189MOL0     C25973   9.471   1.185  -0.674  0.3341  0.3339 -0.1563
  189MOL0     C25974   9.494   1.267  -0.795  0.8680 -1.0298 -0.3718
  189MOL0     O25975   9.485   1.399  -0.779  0.4322 -0.3944  0.1929
  189MOL0     C25976   9.498   1.471  -0.897  0.5428 -0.2475  0.3052
  189MOL0     C25977   9.622   1.522  -0.926  0.6690 -0.4548 -0.5607
  189MOL0     C25978   9.639   1.595  -1.040  0.3731 -0.0379  0.4423
  189MOL0     C25979   9.536   1.627  -1.135 -0.7938 -0.3261 -0.4628
  189MOL0     O25980   9.557   1.698  -1.250  0.4539 -0.4657 -0.4554
  189MOL0     C25981   9.669   1.659  -1.338  0.1601  0.3951 -0.3795
  189MOL0     C25982   9.615   1.628  -1.480 -0.3212 -0.2649  0.1776
  189MOL0     C25983   9.543   1.484  -1.476 -0.4217  0.0823 -0.4003
  189MOL0     C25984   9.473   1.458  -1.617  0.6167 -0.3313 -0.0141
  189MOL0     C25985   9.414   1.320  -1.610  0.3798 -0.0176  0.0787
  189MOL0     C25986   9.286   1.324  -1.521  0.2612  0.0289 -0.4752
  189MOL0     C25987   9.192   1.206  -1.518  0.4230  0.4507 -0.6522
  189MOL0     C25988   9.057   1.219  -1.444  0.1201 -0.6841 -0.4635
  189MOL0    Cl25989   9.081   1.279  -1.269  0.1073 -0.2142 -0.0896
  189MOL0     C25990   9.404   1.585  -1.100 -0.2177  0.9114 -0.3195
  189MOL0     C25991   9.387   1.513  -0.979  0.2672  0.2682  0.7158
  189MOL0     O25992   9.506   1.207  -0.902  0.0018  0.0945  0.0836
  189MOL0     C25993   9.377   1.236  -0.580 -0.0023 -0.8351 -1.0009
  189MOL0     C25994   9.351   1.170  -0.462  0.0806  0.6555 -0.7117
  189MOL0     N25995   9.035   1.047   0.241 -0.4136  0.0059 -0.8266
  189MOL0     N25996   8.925   1.047   0.307 -0.2778  0.2124  0.0196
  189MOL0     C25997   7.630   1.193   0.461  1.1382 -0.2877  0.5172
  189MOL0     C25998   7.498   1.222   0.426 -0.1994  0.3802 -0.5850
  189MOL0     C25999   7.067   1.299   0.287 -0.1955 -0.0392 -0.5692
  189MOL0     C26000   7.004   1.425   0.291  0.9238  0.5182 -0.0625
  189MOL0     C26001   6.865   1.435   0.268 -0.8761  0.3852 -0.8863
  189MOL0     C26002   6.786   1.319   0.240 -0.2304  0.2007 -0.4460
  189MOL0     O26003   6.652   1.315   0.200 -0.5731  0.5372 -0.7891
  189MOL0     C26004   6.578   1.434   0.197 -0.7917 -0.6202 -0.0778
  189MOL0     C26005   6.432   1.421   0.208 -1.3490  0.6000  0.8974
  189MOL0     C26006   6.368   1.555   0.177 -0.9267  0.2215  0.8518
  189MOL0     C26007   6.222   1.551   0.140  0.5550 -0.0587 -0.1498
  189MOL0     C26008   6.181   1.692   0.125 -0.2672 -0.5207  0.3440
  189MOL0     C26009   6.129   1.799   0.120  0.6074 -0.4523  0.6289
  189MOL0     C26010   6.849   1.202   0.245  0.5581 -0.2528 -0.4636
  189MOL0     C26011   6.989   1.181   0.260  0.8618  0.2533 -0.4611
  189MOL0     C26012   7.028   1.034   0.281 -0.3552 -0.6367 -0.1377
  189MOL0     H26013   7.438   1.021   0.165 -1.0045  3.6433 -1.8040
  189MOL0     H26014   7.699   0.976   0.224  1.6791  0.5579  3.9289
  189MOL0     H26015   7.802   1.022   0.599 -1.4472 -0.0595 -0.7199
  189MOL0     H26016   7.892   1.167   0.558  0.5669  0.4193 -3.9120
  189MOL0     H26017   8.069   0.976   0.623  1.8020  1.7699 -0.0128
  189MOL0     H26018   7.974   0.883   0.498 -4.9593  3.0819 -0.0978
  189MOL0     H26019   8.075   0.987   0.318  0.6160 -1.3116 -0.1498
  189MOL0     H26020   8.127   1.128   0.403  0.8706 -0.2204 -3.7693
  189MOL0     H26021   8.294   0.988   0.518  1.3687 -1.5190 -0.0790
  189MOL0     H26022   8.252   0.858   0.412 -2.8125  0.4147  0.5166
  189MOL0     H26023   8.350   1.133   0.323  2.3113 -0.1282  1.9404
  189MOL0     H26024   8.302   0.999   0.215  1.2484 -0.4847 -0.3218
  189MOL0     H26025   8.508   0.957   0.443  1.4442  1.2620 -1.1707
  189MOL0     H26026   8.466   0.848   0.306  1.0847 -1.2351  2.7710
  189MOL0     H26027   8.614   1.119   0.300  0.7672 -0.4977 -0.0149
  189MOL0     H26028   8.547   1.041   0.151  0.2969 -0.4208 -0.4770
  189MOL0     H26029   8.741   0.902   0.364  3.4566 -0.4987 -0.7261
  189MOL0     H26030   8.695   0.846   0.198  0.3543  2.9700 -4.2068
  189MOL0     H26031   8.832   0.969  -0.006  1.1401  0.3907 -0.5724
  189MOL0     H26032   9.212   1.033   0.072 -0.1999 -3.5912  1.2399
  189MOL0     H26033   9.104   1.106  -0.053 -1.4824  0.9763 -0.3511
  189MOL0     H26034   9.132   0.810   0.028  4.0757  1.2500  0.7302
  189MOL0     H26035   9.031   0.869  -0.106 -0.6239  2.6301 -0.0457
  189MOL0     H26036   9.324   0.864  -0.072  0.0035  1.8429  0.3840
  189MOL0     H26037   9.242   0.780  -0.201 -0.9667  0.3542 -0.4268
  189MOL0     H26038   9.161   1.004  -0.291 -0.6588 -0.9220  2.0806
  189MOL0     H26039   9.283   1.092  -0.198  2.0076 -1.4419  1.4076
  189MOL0     H26040   9.539   0.892  -0.506  0.1406  0.1231  1.9300
  189MOL0     H26041   9.697   1.092  -0.765  1.1169  0.4339  2.5945
  189MOL0     H26042   9.590   0.948  -0.809 -3.9197  0.5358  0.4002
  189MOL0     H26043   9.701   0.935  -0.676 -1.8395 -1.9298  0.7859
  189MOL0     H26044   9.701   1.493  -0.857 -0.2239 -0.1929  0.6145
  189MOL0     H26045   9.734   1.642  -1.062  1.3526 -1.5079  1.3775
  189MOL0     H26046   9.735   1.746  -1.336  1.8024 -0.7712  3.3493
  189MOL0     H26047   9.718   1.572  -1.293 -0.7604  0.9581  1.8185
  189MOL0     H26048   9.548   1.707  -1.514 -0.1665 -0.3826 -0.4108
  189MOL0     H26049   9.694   1.620  -1.555 -0.4150  0.8181 -0.0603
  189MOL0     H26050   9.473   1.479  -1.392 -0.4229 -1.2134 -0.4677
  189MOL0     H26051   9.620   1.410  -1.455 -0.3745  0.0123 -0.8237
  189MOL0     H26052   9.539   1.458  -1.704 -0.6847  0.2822 -1.0432
  189MOL0     H26053   9.399   1.539  -1.629 -0.5787 -1.7126 -3.1280
  189MOL0     H26054   9.390   1.299  -1.715  1.8078 -1.6071  0.0293
  189MOL0     H26055   9.483   1.243  -1.576 -1.0659 -1.7199 -0.7096
  189MOL0     H26056   9.223   1.411  -1.546  1.9141  1.9769  1.7026
  189MOL0     H26057   9.311   1.333  -1.415  1.1733 -0.1480 -0.6693
  189MOL0     H26058   9.245   1.130  -1.459 -0.2201  1.0588  0.7718
  189MOL0     H26059   9.172   1.163  -1.616 -0.4679 -0.5781 -0.0467
  189MOL0     H26060   8.995   1.128  -1.452 -0.1711 -0.6791  1.3027
  189MOL0     H26061   8.996   1.296  -1.492 -4.1935 -1.9439  2.3469
  189MOL0     H26062   9.315   1.616  -1.154 -3.2098 -0.2388  3.5092
  189MOL0     H26063   9.290   1.474  -0.949  0.4453 -0.2746  0.5969
  189MOL0     H26064   9.321   1.322  -0.615  2.5888  1.3427 -0.2380
  189MOL0     H26065   9.279   1.218  -0.396  2.7142  0.4954  2.5270
  189MOL0     H26066   7.674   1.257   0.537 -1.8798  2.0106  0.5639
  189MOL0     H26067   7.447   1.298   0.485  2.2960  2.7201 -1.2160
  189MOL0     H26068   7.059   1.511   0.327  0.3039  0.7258  0.4211
  189MOL0     H26069   6.821   1.534   0.273 -1.4843  0.0422  2.5858
  189MOL0     H26070   6.608   1.500   0.280 -0.8255 -1.1305  0.3467
  189MOL0     H26071   6.608   1.478   0.102 -3.0906 -1.4932 -1.2738
  189MOL0     H26072   6.406   1.381   0.307 -0.2036 -0.4372  0.8014
  189MOL0     H26073   6.412   1.352   0.126 -2.3458  0.7580  0.9930
  189MOL0     H26074   6.386   1.618   0.265 -0.2403 -1.3417  1.8822
  189MOL0     H26075   6.405   1.605   0.086 -0.1135  0.6387  1.4011
  189MOL0     H26076   6.169   1.501   0.221 -0.8981 -0.9486 -1.5965
  189MOL0     H26077   6.190   1.499   0.050  2.6121 -1.4545 -0.1496
  189MOL0     H26078   6.082   1.895   0.122  0.1014 -0.6962  0.6304
  189MOL0     H26079   6.787   1.113   0.236  1.6591 -0.8319 -3.4000
  189MOL0     H26080   7.096   1.026   0.366  0.3539 -1.4020 -0.7552
  189MOL0     H26081   6.944   0.970   0.309  0.4950 -0.3983  3.4016
  189MOL0     H26082   7.070   0.986   0.192 -3.4706 -2.1239 -0.9698
  190MOL0     O26083   3.397   4.894   6.178  0.2818  0.3290  0.3108
  190MOL0     C26084   3.407   5.015   6.178 -0.5048  0.0887 -0.6915
  190MOL0     O26085   3.521   5.083   6.147 -0.1880  0.3245 -0.5348
  190MOL0     C26086   3.632   5.011   6.117 -0.3496  0.2506  0.1757
  190MOL0     C26087   3.647   4.924   6.004 -0.1439 -0.2033 -0.6542
  190MOL0     C26088   3.756   4.840   5.992  0.6054 -0.2768 -0.0645
  190MOL0     C26089   3.853   4.838   6.083  0.5134  0.4096 -0.4177
  190MOL0     O26090   3.954   4.749   6.063 -0.5802  0.1247 -0.2912
  190MOL0     C26091   4.028   4.764   5.941  0.6317 -0.5858 -0.4386
  190MOL0     C26092   4.072   4.903   5.902  0.4434 -0.1754 -0.2825
  190MOL0     C26093   4.143   4.973   6.018 -0.1801  0.6948  0.7867
  190MOL0     C26094   4.239   5.086   5.965 -0.3324 -0.1794 -0.3797
  190MOL0     C26095   4.324   5.135   6.077 -0.6667  0.1150  0.0111
  190MOL0     C26096   4.433   5.237   6.035 -0.6693 -0.1114 -0.3100
  190MOL0     C26097   4.530   5.289   6.142  0.3959  0.4386  0.4307
  190MOL0     C26098   4.608   5.178   6.207 -0.4457  0.3857  0.1566
  190MOL0     N26099   4.690   5.094   6.116 -0.7489 -0.2611 -0.3968
  190MOL0     C26100   4.809   5.137   6.058 -0.1735  0.4111 -0.6492
  190MOL0     C26101   4.849   5.027   5.991 -1.2308 -0.1229  0.0008
  190MOL0     C26102   4.966   5.028   5.894  0.0711 -0.5678 -0.5920
  190MOL0     C26103   5.103   4.992   5.951 -0.7454  0.4151 -0.2471
  190MOL0     C26104   5.216   5.018   5.845  0.8462 -0.4578  0.5381
  190MOL0     C26105   5.339   4.955   5.891 -0.1483  0.0104  0.0596
  190MOL0     O26106   5.449   5.009   5.810 -0.0474 -0.3698 -0.5488
  190MOL0     C26107   5.572   4.954   5.807 -0.3317  0.2492 -0.1227
  190MOL0     C26108   5.617   4.851   5.894  0.6187 -0.2489  0.2496
  190MOL0     C26109   5.744   4.801   5.856 -0.0542  0.0146 -0.4281
  190MOL0     C26110   5.780   4.665   5.913 -1.0341 -0.1819 -0.3887
  190MOL0     C26111   5.838   4.870   5.769  0.6981  0.2823  0.4722
  190MOL0     C26112   5.977   4.818   5.745  1.0024  0.8241 -0.3474
  190MOL0     O26113   6.030   4.854   5.623 -0.3775  0.2344 -0.2105
  190MOL0     C26114   6.154   4.812   5.576  0.0703 -0.2709  0.7351
  190MOL0     C26115   6.223   4.699   5.623  0.1603 -0.2288 -0.2189
  190MOL0     C26116   6.349   4.664   5.576 -0.1145  0.0895 -0.8897
  190MOL0     C26117   6.405   4.742   5.472  0.0170  0.0182  0.0239
  190MOL0     O26118   6.533   4.721   5.421  0.4291  0.2239 -0.0935
  190MOL0     C26119   6.598   4.597   5.457 -0.1161 -0.5365  0.1869
  190MOL0     C26120   6.728   4.591   5.374 -0.6827 -0.6958  0.3748
  190MOL0     C26121   6.802   4.729   5.356  0.1932  0.3696 -0.8700
  190MOL0     C26122   6.904   4.712   5.247  0.2153 -0.1822  0.5215
  190MOL0     C26123   6.998   4.836   5.228 -0.1416  0.6529  0.7847
  190MOL0     C26124   7.127   4.844   5.313 -0.2757  0.4193 -0.5361
  190MOL0     C26125   7.183   4.976   5.288 -0.7853 -0.6586  0.0679
  190MOL0     C26126   7.322   4.987   5.357  0.4488  0.4231  0.7900
  190MOL0    Cl26127   7.456   4.910   5.265  0.0963 -0.0148 -0.1312
  190MOL0     C26128   6.346   4.859   5.429 -0.4857  0.7830  0.0669
  190MOL0     C26129   6.218   4.889   5.479  0.5988  0.1019  0.4335
  190MOL0     O26130   6.038   4.756   5.835 -0.2072  0.8679  0.3712
  190MOL0     C26131   5.793   4.976   5.691  1.1023  0.9218 -0.1065
  190MOL0     C26132   5.658   5.010   5.709 -0.5043  0.1164  1.0378
  190MOL0     N26133   4.762   4.916   6.010  0.3026  0.5264  0.4898
  190MOL0     N26134   4.668   4.960   6.083 -0.4323 -0.1266  0.1456
  190MOL0     C26135   3.844   4.926   6.194  0.2109 -0.7791 -0.8492
  190MOL0     C26136   3.732   5.005   6.211  0.3065 -0.5325 -0.8183
  190MOL0     C26137   3.283   5.093   6.206 -0.6737 -0.6351 -0.0340
  190MOL0     C26138   3.300   5.229   6.239  0.6113  0.5537 -0.4912
  190MOL0     C26139   3.195   5.308   6.265  0.1516 -0.1281  0.1772
  190MOL0     C26140   3.065   5.263   6.267  0.0207  0.3844  0.2684
  190MOL0     O26141   2.970   5.362   6.293  0.4517  0.1618  0.9483
  190MOL0     C26142   2.837   5.321   6.302 -0.8338 -0.6085  0.2571
  190MOL0     C26143   2.747   5.438   6.357  0.0625 -0.6482  0.1713
  190MOL0     C26144   2.806   5.510   6.483 -0.9797  0.0679  0.1881
  190MOL0     C26145   2.825   5.423   6.603  0.0973 -0.1684  0.0824
  190MOL0     C26146   2.879   5.495   6.720  0.6784  0.2726 -0.6718
  190MOL0     C26147   2.925   5.551   6.820  0.4978 -0.3348 -0.5855
  190MOL0     C26148   3.048   5.130   6.239 -0.3983 -0.2744 -0.1946
  190MOL0     C26149   3.155   5.046   6.208  0.7656 -0.0747 -0.3416
  190MOL0     C26150   3.120   4.904   6.178 -0.5726 -1.6752  0.7827
  190MOL0     H26151   3.573   4.924   5.924 -0.9718 -0.4452  0.0979
  190MOL0     H26152   3.771   4.773   5.909 -2.5917  2.3147 -3.0534
  190MOL0     H26153   3.975   4.722   5.855 -0.9966  0.3442  0.0631
  190MOL0     H26154   4.120   4.708   5.963  0.5147 -0.3117  0.8348
  190MOL0     H26155   4.133   4.914   5.812 -0.2512  0.4190 -0.6960
  190MOL0     H26156   3.979   4.957   5.880  0.9532  0.5207 -0.7951
  190MOL0     H26157   4.076   5.022   6.090  0.6076  1.3349  1.1140
  190MOL0     H26158   4.209   4.904   6.072 -0.6856 -0.1319  0.3597
  190MOL0     H26159   4.307   5.040   5.893  1.1624  0.0979  0.8134
  190MOL0     H26160   4.203   5.177   5.916 -1.6596 -0.0822  0.7231
  190MOL0     H26161   4.373   5.048   6.122 -3.0005 -1.1234  0.3015
  190MOL0     H26162   4.255   5.177   6.152  0.8595  1.4864  0.7201
  190MOL0     H26163   4.506   5.197   5.964  1.3870  0.5157  1.3695
  190MOL0     H26164   4.384   5.331   6.005 -0.0608  1.1961  2.5145
  190MOL0     H26165   4.471   5.348   6.212 -3.4197  2.1467 -3.7153
  190MOL0     H26166   4.597   5.358   6.090  0.5227  1.6057  2.0540
  190MOL0     H26167   4.652   5.221   6.298  2.5384 -3.0538  0.5691
  190MOL0     H26168   4.533   5.113   6.254 -0.3315  1.0711  1.3533
  190MOL0     H26169   4.856   5.235   6.054 -4.4371  2.8081  1.5487
  190MOL0     H26170   4.971   5.131   5.858 -1.6913 -0.7039 -1.3521
  190MOL0     H26171   4.945   4.952   5.818 -2.2480 -0.6745  0.0689
  190MOL0     H26172   5.125   5.039   6.047  0.9193 -2.8825  1.1348
  190MOL0     H26173   5.093   4.884   5.965  2.7016 -0.0591 -0.5180
  190MOL0     H26174   5.190   4.986   5.744  0.0901  0.9042  0.2742
  190MOL0     H26175   5.227   5.125   5.828 -1.4468 -0.5375 -2.2127
  190MOL0     H26176   5.350   4.968   5.999 -0.0025 -2.5221  0.4095
  190MOL0     H26177   5.334   4.846   5.884 -1.6175 -0.2600  3.2483
  190MOL0     H26178   5.554   4.793   5.960  2.4571 -1.4811  1.0204
  190MOL0     H26179   5.691   4.607   5.937 -0.5856 -0.0808  1.7793
  190MOL0     H26180   5.835   4.675   6.007 -1.6322 -1.0842  0.0680
  190MOL0     H26181   5.832   4.603   5.839 -1.0268 -3.2781  2.0300
  190MOL0     H26182   6.186   4.639   5.705  0.3275  0.6212  0.4899
  190MOL0     H26183   6.400   4.580   5.622  1.0681  1.8584  1.2548
  190MOL0     H26184   6.619   4.595   5.564  0.0011 -0.8153  0.1605
  190MOL0     H26185   6.535   4.512   5.430 -0.5755  0.1426 -0.9840
  190MOL0     H26186   6.797   4.516   5.412  0.8754 -0.8367 -2.5003
  190MOL0     H26187   6.700   4.566   5.271 -0.2507  0.7336 -0.1189
  190MOL0     H26188   6.854   4.734   5.452  1.1561 -1.6902 -1.2181
  190MOL0     H26189   6.738   4.814   5.329 -0.6019 -0.2899 -1.1196
  190MOL0     H26190   6.856   4.698   5.149  0.7815  0.0455  0.2074
  190MOL0     H26191   6.969   4.626   5.265 -1.3994 -1.9229 -1.3756
  190MOL0     H26192   7.035   4.829   5.125  2.0417 -2.8004  1.6142
  190MOL0     H26193   6.948   4.929   5.257  2.9137  2.6482  0.1520
  190MOL0     H26194   7.201   4.766   5.291 -1.8526 -0.7360 -1.9905
  190MOL0     H26195   7.102   4.838   5.419  0.1414  0.7879 -0.4138
  190MOL0     H26196   7.114   5.051   5.329  2.2827  1.5821  1.4960
  190MOL0     H26197   7.205   4.987   5.182  1.0505  2.8544  0.6780
  190MOL0     H26198   7.316   4.936   5.454 -1.6890  1.7994  1.4589
  190MOL0     H26199   7.355   5.088   5.383  1.6094  0.2923 -0.1014
  190MOL0     H26200   6.405   4.921   5.363 -0.1459  1.8331  1.3116
  190MOL0     H26201   6.169   4.983   5.454 -0.1112  0.2894  2.3164
  190MOL0     H26202   5.856   5.017   5.614  3.7896 -1.8065  0.4394
  190MOL0     H26203   5.620   5.089   5.646 -0.4395 -0.6482  0.0216
  190MOL0     H26204   3.920   4.927   6.271 -0.8450 -2.4245  0.2643
  190MOL0     H26205   3.716   5.064   6.300 -1.0801  0.2224 -1.5294
  190MOL0     H26206   3.401   5.269   6.246 -0.2159  2.5673  0.9748
  190MOL0     H26207   3.206   5.413   6.290  0.4883  0.0533 -0.7215
  190MOL0     H26208   2.781   5.274   6.220 -1.8326 -0.0795  0.6144
  190MOL0     H26209   2.829   5.245   6.381  0.2813 -1.5089 -0.4564
  190MOL0     H26210   2.644   5.402   6.366 -0.5138  0.8709 -0.0667
  190MOL0     H26211   2.752   5.520   6.285  0.5295  0.1971  1.1477
  190MOL0     H26212   2.901   5.556   6.453 -1.2613 -0.9201 -2.5812
  190MOL0     H26213   2.729   5.583   6.509 -1.0955 -0.5446  1.6407
  190MOL0     H26214   2.900   5.346   6.585 -0.7101 -0.7333 -0.9280
  190MOL0     H26215   2.732   5.378   6.640  0.7754 -0.8283  1.0496
  190MOL0     H26216   2.961   5.596   6.910  0.4446  2.5547 -1.8788
  190MOL0     H26217   2.948   5.088   6.236 -1.3815  1.7861  1.2243
  190MOL0     H26218   3.165   4.843   6.257  1.3897 -0.8692  0.3712
  190MOL0     H26219   3.014   4.888   6.160 -0.1256 -0.9857 -3.6153
  190MOL0     H26220   3.177   4.883   6.086  0.5735  0.2667  0.9950
  191MOL0     O26221   8.028   1.661   4.397 -0.1823 -0.2424  0.2447
  191MOL0     C26222   7.986   1.560   4.349 -0.4544 -0.1509 -1.4699
  191MOL0     O26223   8.042   1.443   4.341  0.2224 -0.4790 -0.1944
  191MOL0     C26224   8.174   1.424   4.344 -0.5392 -0.2532  0.4295
  191MOL0     C26225   8.229   1.316   4.417  0.5783  0.4768  0.0411
  191MOL0     C26226   8.360   1.296   4.421  0.0642 -0.1180  0.5794
  191MOL0     C26227   8.447   1.367   4.347 -0.2791  0.2265  0.3830
  191MOL0     O26228   8.578   1.311   4.341 -0.0447  0.5588 -0.0537
  191MOL0     C26229   8.679   1.372   4.275 -0.5670 -0.5233 -0.0302
  191MOL0     C26230   8.803   1.280   4.288  0.2545 -0.8726  0.3237
  191MOL0     C26231   8.926   1.305   4.204  0.2550 -0.1302 -0.0334
  191MOL0     C26232   8.989   1.442   4.235  0.5754  0.5031  0.1942
  191MOL0     C26233   9.119   1.473   4.171 -0.3897  0.3512  0.0449
  191MOL0     C26234   9.190   1.585   4.246 -0.2653  0.1076 -0.7678
  191MOL0     C26235   9.319   1.631   4.187 -0.1420 -0.0132  0.4840
  191MOL0     C26236   9.377   1.736   4.276  1.2116  0.1970  0.0033
  191MOL0     N26237   9.485   1.803   4.206  0.4262  0.1157  0.7729
  191MOL0     C26238   9.468   1.900   4.108 -0.1284  0.3164  0.5756
  191MOL0     C26239   9.589   1.906   4.045 -0.3325  0.1395 -0.2555
  191MOL0     C26240   9.634   2.003   3.937  0.0699 -0.9244 -0.1693
  191MOL0     C26241   9.728   2.121   3.990  0.1674  0.1908 -0.0374
  191MOL0     C26242   9.868   2.067   4.017 -0.2245  0.3090 -0.5614
  191MOL0     C26243   9.972   2.181   4.003  0.2187 -0.0102 -0.4809
  191MOL0     O26244  10.103   2.144   4.027  0.0518 -0.0163 -0.4134
  191MOL0     C26245  10.206   2.216   3.974 -0.4609 -0.2605 -0.1403
  191MOL0     C26246  10.202   2.358   3.978 -0.3517 -0.0680 -0.6057
  191MOL0     C26247  10.313   2.430   3.943  0.1047 -0.6495 -0.2724
  191MOL0     C26248  10.294   2.576   3.979 -1.0018 -0.7074 -1.0947
  191MOL0     C26249  10.434   2.374   3.899 -0.2769  0.5630 -0.0933
  191MOL0     C26250  10.565   2.433   3.874  0.2975 -0.3879 -0.1567
  191MOL0     O26251  10.671   2.353   3.885  0.2646  0.2073 -0.8715
  191MOL0     C26252  10.791   2.395   3.828 -0.0529 -0.9193  0.4924
  191MOL0     C26253  10.908   2.421   3.906  0.4785  0.8503  0.3842
  191MOL0     C26254  11.034   2.440   3.851 -0.6456 -0.9309  0.0647
  191MOL0     C26255  11.043   2.458   3.712 -0.4569 -0.5495  0.1012
  191MOL0     O26256  11.166   2.499   3.662 -0.3402 -0.4863 -0.1680
  191MOL0     C26257  11.179   2.571   3.534 -0.4731  0.1339  0.6704
  191MOL0     C26258  11.140   2.716   3.556  1.2958 -0.3129  0.8752
  191MOL0     C26259  11.231   2.805   3.477  0.1393 -0.1779  0.1838
  191MOL0     C26260  11.181   2.945   3.469 -0.2318  0.4147 -0.0994
  191MOL0     C26261  11.265   3.028   3.374 -0.5714 -0.5189  0.7713
  191MOL0     C26262  11.404   3.062   3.435 -0.0893  0.2345  0.0111
  191MOL0     C26263  11.477   3.184   3.359  0.1360  0.0525  0.1715
  191MOL0     C26264  11.620   3.198   3.395 -0.1220  0.2861  0.4202
  191MOL0    Cl26265  11.702   3.058   3.311 -0.3251 -0.2347  0.0340
  191MOL0     C26266  10.932   2.426   3.633 -0.4711  0.0149  0.2197
  191MOL0     C26267  10.807   2.391   3.685 -0.9826  0.1050 -0.5842
  191MOL0     O26268  10.569   2.550   3.835  0.7345 -0.1045  0.6417
  191MOL0     C26269  10.430   2.236   3.893  0.2502  0.4041  0.2255
  191MOL0     C26270  10.325   2.151   3.933 -0.0936 -0.7963 -0.4144
  191MOL0     N26271   9.677   1.812   4.107 -0.1746 -0.2652 -0.6549
  191MOL0     N26272   9.610   1.761   4.205 -1.0362  0.4713 -0.4147
  191MOL0     C26273   8.401   1.476   4.274  0.0217  0.2242  0.2223
  191MOL0     C26274   8.265   1.514   4.281  0.1327  0.6815  0.4017
  191MOL0     C26275   7.841   1.569   4.315  0.0653 -0.4916 -0.1907
  191MOL0     C26276   7.797   1.680   4.241 -0.2231  0.4326  0.2724
  191MOL0     C26277   7.663   1.691   4.202  0.3390  0.7151 -0.0110
  191MOL0     C26278   7.570   1.592   4.236 -0.1331  0.0856 -0.3739
  191MOL0     O26279   7.440   1.615   4.193  0.1232  0.5854 -0.3113
  191MOL0     C26280   7.327   1.535   4.232 -0.0291 -0.1841  0.0882
  191MOL0     C26281   7.191   1.609   4.214 -0.2139 -0.3538 -0.3332
  191MOL0     C26282   7.172   1.721   4.318  0.1604 -0.3577 -0.2149
  191MOL0     C26283   7.079   1.686   4.428  0.0880  0.9785 -0.3067
  191MOL0     C26284   6.936   1.681   4.385 -1.1513  0.0387  0.3084
  191MOL0     C26285   6.818   1.690   4.358 -0.2168 -0.2475 -0.1171
  191MOL0     C26286   7.608   1.473   4.311 -0.1660  0.2395 -0.1105
  191MOL0     C26287   7.745   1.463   4.338 -0.8860 -0.1226 -0.4508
  191MOL0     C26288   7.793   1.337   4.414  0.3806 -0.3105  0.1048
  191MOL0     H26289   8.159   1.247   4.464 -0.8732  0.3959 -2.0738
  191MOL0     H26290   8.411   1.214   4.471 -1.4757 -1.2968  0.2777
  191MOL0     H26291   8.707   1.472   4.309  1.5097 -0.8590 -0.6161
  191MOL0     H26292   8.651   1.381   4.169 -0.8873 -1.6797 -0.0551
  191MOL0     H26293   8.825   1.273   4.395  0.5254  1.6136  0.4989
  191MOL0     H26294   8.774   1.178   4.259  0.1557 -1.7017  3.1251
  191MOL0     H26295   8.995   1.222   4.223 -0.5379 -0.9755 -0.7968
  191MOL0     H26296   8.902   1.301   4.097  3.2247 -1.9306 -0.7665
  191MOL0     H26297   8.924   1.526   4.210  2.0103  1.3952 -0.6906
  191MOL0     H26298   8.999   1.448   4.344 -1.9408  2.4145  0.4143
  191MOL0     H26299   9.089   1.511   4.073 -0.2408  2.4898  0.7545
  191MOL0     H26300   9.178   1.382   4.162  2.3918  1.7240  2.4896
  191MOL0     H26301   9.117   1.663   4.268 -1.2570 -1.1053  0.3705
  191MOL0     H26302   9.207   1.534   4.341 -0.7411  1.6191  0.1682
  191MOL0     H26303   9.302   1.682   4.092 -0.9117 -0.1566  0.5366
  191MOL0     H26304   9.383   1.543   4.180 -0.0200  0.1580 -0.9689
  191MOL0     H26305   9.292   1.803   4.290  2.0115  0.7320  2.8689
  191MOL0     H26306   9.398   1.699   4.376 -1.9725 -0.4395  0.5316
  191MOL0     H26307   9.378   1.961   4.103 -2.3611 -2.7529  0.3372
  191MOL0     H26308   9.558   2.056   3.880  4.0005  1.1787 -4.0914
  191MOL0     H26309   9.684   1.934   3.868  0.9510 -0.8015  0.3211
  191MOL0     H26310   9.736   2.209   3.926  3.1072  0.3905  0.4376
  191MOL0     H26311   9.680   2.158   4.081 -0.7768  3.5246 -1.7518
  191MOL0     H26312   9.890   2.020   4.113 -0.1936 -0.1440 -0.7877
  191MOL0     H26313   9.883   1.991   3.940  3.0065 -0.0564  0.3080
  191MOL0     H26314   9.946   2.218   3.903 -1.8701  1.0352  0.3791
  191MOL0     H26315   9.939   2.266   4.063 -0.4868  0.1722 -1.1052
  191MOL0     H26316  10.121   2.414   4.023 -0.9952 -1.3227 -0.1663
  191MOL0     H26317  10.265   2.592   4.084 -0.4820 -1.7765 -0.7708
  191MOL0     H26318  10.215   2.617   3.915 -1.8988 -1.3895 -0.4537
  191MOL0     H26319  10.388   2.632   3.970 -0.0568 -1.7161  1.5124
  191MOL0     H26320  10.913   2.410   4.014 -3.5531 -1.8523  0.4881
  191MOL0     H26321  11.127   2.450   3.905 -0.7615  0.2816  0.0670
  191MOL0     H26322  11.280   2.581   3.492 -1.6269  3.0992 -1.8063
  191MOL0     H26323  11.123   2.527   3.451 -0.6375  0.5367  0.5622
  191MOL0     H26324  11.035   2.731   3.530  0.9990 -3.7328 -0.4159
  191MOL0     H26325  11.158   2.736   3.662 -0.6615 -0.6810  1.2988
  191MOL0     H26326  11.241   2.770   3.374 -0.0360 -2.4460  0.8726
  191MOL0     H26327  11.332   2.802   3.519  0.8773 -5.3640 -1.2123
  191MOL0     H26328  11.181   2.986   3.570  2.7601 -1.8140  0.9576
  191MOL0     H26329  11.078   2.937   3.436 -0.0730 -3.4880 -0.1354
  191MOL0     H26330  11.267   2.979   3.276 -1.8076  1.5902 -0.3923
  191MOL0     H26331  11.213   3.122   3.354  0.7470 -0.0367 -0.5819
  191MOL0     H26332  11.467   2.972   3.428  0.3459  0.1812  3.0120
  191MOL0     H26333  11.404   3.086   3.542  1.2932  1.5906 -0.2626
  191MOL0     H26334  11.423   3.269   3.402  1.1324 -0.8755  3.5831
  191MOL0     H26335  11.467   3.187   3.251  1.5521  0.3863  0.0241
  191MOL0     H26336  11.640   3.195   3.502  2.5674  0.8386  0.0038
  191MOL0     H26337  11.665   3.291   3.360  0.5645 -0.1664  0.0779
  191MOL0     H26338  10.954   2.431   3.527  2.0086  0.7581  0.7016
  191MOL0     H26339  10.726   2.362   3.619 -1.9377  1.4198 -0.0415
  191MOL0     H26340  10.515   2.171   3.871 -0.3334 -0.6201  0.8756
  191MOL0     H26341  10.328   2.043   3.941 -1.7745 -0.9871 -1.8514
  191MOL0     H26342   8.471   1.542   4.223  2.0702 -3.0292 -1.4815
  191MOL0     H26343   8.228   1.608   4.241  0.6675  2.3418  3.4791
  191MOL0     H26344   7.862   1.766   4.229  0.0654  0.4524  1.8316
  191MOL0     H26345   7.612   1.764   4.141 -0.0289 -0.5547 -1.3000
  191MOL0     H26346   7.322   1.444   4.171  0.0438  0.4313 -0.8535
  191MOL0     H26347   7.340   1.506   4.336  3.5444  2.7468  0.6673
  191MOL0     H26348   7.115   1.530   4.212 -1.3607  0.7320 -1.0732
  191MOL0     H26349   7.193   1.651   4.113  1.4263 -1.9081 -1.0069
  191MOL0     H26350   7.267   1.727   4.372  0.2654 -0.6292 -0.3651
  191MOL0     H26351   7.144   1.816   4.271  0.5028 -0.1378  0.0245
  191MOL0     H26352   7.085   1.753   4.514 -1.4727  1.7634 -0.7675
  191MOL0     H26353   7.094   1.584   4.464 -0.5297  0.1500 -2.2675
  191MOL0     H26354   6.715   1.708   4.334 -0.5036  0.9183  1.7860
  191MOL0     H26355   7.544   1.390   4.338  1.1154 -0.1572  1.9001
  191MOL0     H26356   7.714   1.278   4.462  0.8069 -1.3235 -0.4149
  191MOL0     H26357   7.832   1.268   4.340 -1.4428 -0.3627 -0.8704
  191MOL0     H26358   7.867   1.362   4.491 -1.6694  1.0481  1.7849
  192MOL0     O26359   9.549   2.713   2.335 -0.5143  0.7520 -0.0159
  192MOL0     C26360   9.545   2.596   2.299  0.4286 -0.5723  0.6193
  192MOL0     O26361   9.652   2.517   2.275  0.0956 -0.1869  0.0834
  192MOL0     C26362   9.772   2.576   2.229  0.3533  0.5093  0.0724
  192MOL0     C26363   9.773   2.677   2.131 -0.7735 -0.3740  0.1494
  192MOL0     C26364   9.897   2.732   2.090 -0.1349 -0.2751 -0.4884
  192MOL0     C26365  10.022   2.677   2.133  0.6220 -0.2216 -0.2743
  192MOL0     O26366  10.147   2.723   2.104 -0.1547 -0.1577 -0.1500
  192MOL0     C26367  10.157   2.858   2.053 -0.2463 -0.4731  0.2655
  192MOL0     C26368  10.307   2.896   2.035  1.0519  0.4424  0.7853
  192MOL0     C26369  10.396   2.882   2.157 -0.0000  0.6895  0.1324
  192MOL0     C26370  10.534   2.952   2.124  0.0134 -0.1684  0.2187
  192MOL0     C26371  10.604   2.883   2.007  0.8555 -0.0018 -0.3302
  192MOL0     C26372  10.737   2.938   1.975  0.0214  0.5523 -0.8537
  192MOL0     C26373  10.736   3.088   1.931 -0.3063  0.0129 -0.2861
  192MOL0     C26374  10.880   3.137   1.911  1.1045  0.0183  0.1654
  192MOL0     N26375  10.938   3.099   1.781 -0.4604  0.0214 -0.5387
  192MOL0     C26376  11.047   3.021   1.775  0.3874  0.0410 -0.2781
  192MOL0     C26377  11.105   3.045   1.654 -0.4406  0.2553  0.0501
  192MOL0     C26378  11.247   3.008   1.609 -0.5280 -0.3590 -0.6635
  192MOL0     C26379  11.250   2.869   1.546  0.4715  0.1219 -0.3666
  192MOL0     C26380  11.350   2.771   1.615  1.0475  0.1213  0.5377
  192MOL0     C26381  11.485   2.793   1.567 -0.2482 -0.3099  0.0390
  192MOL0     O26382  11.499   2.770   1.425 -0.4425  0.4741  0.0451
  192MOL0     C26383  11.598   2.831   1.361 -0.3974 -0.5165 -0.0779
  192MOL0     C26384  11.613   2.793   1.224  0.1826  1.0922 -0.3864
  192MOL0     C26385  11.719   2.832   1.139 -0.4203  0.2130 -0.4422
  192MOL0     C26386  11.715   2.760   1.005  0.1046  0.4991 -0.1034
  192MOL0     C26387  11.805   2.935   1.192 -0.1204  0.0223 -0.8731
  192MOL0     C26388  11.915   2.994   1.119 -0.0055  0.5577 -0.2370
  192MOL0     O26389  12.011   3.065   1.190  0.3494 -0.2728  0.2322
  192MOL0     C26390  12.121   3.117   1.118  1.0386 -0.3470  0.1321
  192MOL0     C26391  12.246   3.086   1.178  0.5647  0.6175  0.0861
  192MOL0     C26392  12.363   3.137   1.115 -0.3066  0.0764 -0.2936
  192MOL0     C26393  12.360   3.227   1.004  0.2977 -0.4694  0.0710
  192MOL0     O26394  12.468   3.272   0.935 -0.4290  0.4194 -0.1055
  192MOL0     C26395  12.470   3.414   0.928  0.2588 -0.4014 -0.6470
  192MOL0     C26396  12.598   3.467   0.859 -0.0334  0.1260 -0.6626
  192MOL0     C26397  12.711   3.468   0.954  0.0958 -1.1086  0.2459
  192MOL0     C26398  12.833   3.542   0.901 -0.5403  0.2013 -0.0040
  192MOL0     C26399  12.944   3.545   1.007 -0.0505 -0.6265  0.0304
  192MOL0     C26400  13.059   3.625   0.949  0.3491  0.0725  0.0434
  192MOL0     C26401  13.161   3.677   1.048 -0.5892  0.1958 -0.9421
  192MOL0     C26402  13.284   3.747   0.987 -0.1767 -0.2160 -0.7646
  192MOL0    Cl26403  13.389   3.641   0.895 -0.1832  0.3998 -0.0703
  192MOL0     C26404  12.231   3.272   0.961  0.0934  0.0586  0.9990
  192MOL0     C26405  12.116   3.219   1.021  0.6455  0.0784  1.0199
  192MOL0     O26406  11.924   2.963   1.004 -0.3078 -0.1931  0.2791
  192MOL0     C26407  11.796   2.966   1.329  0.2249 -0.0530 -0.0061
  192MOL0     C26408  11.694   2.916   1.410 -0.4852 -0.1784 -0.1242
  192MOL0     N26409  11.017   3.121   1.592  0.3127 -0.7380  0.7914
  192MOL0     N26410  10.912   3.158   1.666  0.5713  0.2778  0.1706
  192MOL0     C26411  10.017   2.575   2.223  1.4069  0.8539  0.5451
  192MOL0     C26412   9.893   2.523   2.272 -0.3901 -0.7359  0.0825
  192MOL0     C26413   9.411   2.546   2.274 -0.0675  0.3416 -1.1442
  192MOL0     C26414   9.305   2.639   2.282 -0.2282 -0.0094 -0.8631
  192MOL0     C26415   9.174   2.606   2.288 -0.4382  0.3463 -0.1124
  192MOL0     C26416   9.144   2.473   2.285 -0.6169  0.6937  0.4771
  192MOL0     O26417   9.018   2.417   2.297  0.3145  0.7336 -0.7910
  192MOL0     C26418   8.894   2.487   2.292  0.2888 -0.3031 -0.7064
  192MOL0     C26419   8.855   2.554   2.422  0.1342  0.1687 -0.2667
  192MOL0     C26420   8.728   2.624   2.409  0.1983  0.2808  0.0860
  192MOL0     C26421   8.673   2.668   2.547 -0.1145  0.7160  0.1610
  192MOL0     C26422   8.538   2.730   2.543 -1.2135  0.3095  0.5556
  192MOL0     C26423   8.436   2.789   2.528  0.4970  1.2102  0.0680
  192MOL0     C26424   9.247   2.375   2.280  0.5646 -0.9396  0.8046
  192MOL0     C26425   9.380   2.411   2.263  0.2629  1.0080  0.0947
  192MOL0     C26426   9.483   2.301   2.261 -0.4140  0.2201 -0.2944
  192MOL0     H26427   9.677   2.706   2.088 -0.0953  1.6279 -0.1041
  192MOL0     H26428   9.905   2.809   2.013 -0.8187 -2.6523 -3.0900
  192MOL0     H26429  10.119   2.929   2.126 -2.1353 -2.6732  1.5461
  192MOL0     H26430  10.113   2.878   1.955  1.4131  0.9440 -0.2312
  192MOL0     H26431  10.351   2.829   1.961  0.4278  1.0096 -0.1299
  192MOL0     H26432  10.301   2.998   1.995  0.7148  0.8930  1.9257
  192MOL0     H26433  10.349   2.915   2.250 -0.8121 -0.9298  0.3403
  192MOL0     H26434  10.426   2.780   2.181 -2.1924  0.4353  2.0990
  192MOL0     H26435  10.510   3.052   2.087 -4.2904 -1.5103 -1.3402
  192MOL0     H26436  10.605   2.956   2.207 -1.0684  1.3551  1.1198
  192MOL0     H26437  10.536   2.886   1.921 -0.3201 -2.6571  0.3908
  192MOL0     H26438  10.604   2.775   2.027  0.5279  0.2950  1.4291
  192MOL0     H26439  10.799   2.934   2.065 -1.4256 -0.2592  0.1415
  192MOL0     H26440  10.790   2.886   1.894  0.9758 -3.2346  1.9008
  192MOL0     H26441  10.692   3.157   2.004 -1.9572  0.2065 -1.4142
  192MOL0     H26442  10.678   3.092   1.839  1.5120 -1.2861 -1.5481
  192MOL0     H26443  10.873   3.246   1.915  1.3255  0.0090  0.8509
  192MOL0     H26444  10.946   3.107   1.993  0.2814 -0.0901  0.7996
  192MOL0     H26445  11.095   2.971   1.859 -1.8058  0.0014  1.0178
  192MOL0     H26446  11.317   3.015   1.693 -0.6016 -2.7484 -0.3360
  192MOL0     H26447  11.290   3.086   1.546  4.0368 -0.0935  2.2894
  192MOL0     H26448  11.148   2.829   1.545 -0.4564  2.3161  0.4032
  192MOL0     H26449  11.287   2.891   1.445  2.9518  0.3882  0.5121
  192MOL0     H26450  11.336   2.783   1.722 -1.2861  1.7999  0.1121
  192MOL0     H26451  11.321   2.668   1.594 -0.8324  0.9622 -1.3383
  192MOL0     H26452  11.507   2.897   1.594 -1.2404  0.0915 -0.6265
  192MOL0     H26453  11.555   2.727   1.620  2.5534  0.8514 -1.9661
  192MOL0     H26454  11.542   2.721   1.183  2.4588 -1.1904 -0.5317
  192MOL0     H26455  11.647   2.675   1.001  1.6663 -0.7694 -1.7884
  192MOL0     H26456  11.818   2.723   0.996 -0.3275 -1.0853  1.1036
  192MOL0     H26457  11.680   2.828   0.927  0.2254  2.7984  1.7358
  192MOL0     H26458  12.253   3.023   1.265  1.1386  0.9318  0.2746
  192MOL0     H26459  12.453   3.106   1.167  0.4731  3.7142  0.8413
  192MOL0     H26460  12.385   3.450   0.868 -0.3954 -0.8179  0.0204
  192MOL0     H26461  12.449   3.468   1.020 -1.3789 -0.3452 -1.0133
  192MOL0     H26462  12.615   3.396   0.777 -1.8428 -2.1451  0.7962
  192MOL0     H26463  12.572   3.566   0.821  0.4859  0.8524  0.7913
  192MOL0     H26464  12.734   3.368   0.993  2.4842 -0.5014  0.5679
  192MOL0     H26465  12.676   3.521   1.042  0.6619  0.9987 -0.7340
  192MOL0     H26466  12.812   3.639   0.855 -0.1345 -0.0711 -0.7788
  192MOL0     H26467  12.866   3.468   0.828  2.0471  1.4388 -0.1784
  192MOL0     H26468  12.905   3.584   1.102  0.5511  0.6097 -0.2166
  192MOL0     H26469  12.974   3.443   1.033 -1.8605 -1.3172 -0.4119
  192MOL0     H26470  13.019   3.710   0.892 -0.1124  0.9066  1.5498
  192MOL0     H26471  13.118   3.562   0.882  0.0565  0.4104 -0.5461
  192MOL0     H26472  13.194   3.591   1.106 -0.7269 -0.9961 -2.5474
  192MOL0     H26473  13.108   3.751   1.108 -0.8005  2.4798 -3.6944
  192MOL0     H26474  13.335   3.799   1.069  1.3092  0.0187 -1.7862
  192MOL0     H26475  13.241   3.823   0.922  1.8048  2.4834  0.8581
  192MOL0     H26476  12.233   3.337   0.874  0.7645 -0.5331  0.5584
  192MOL0     H26477  12.021   3.257   0.983  1.1399  1.1909  0.8731
  192MOL0     H26478  11.860   3.041   1.374  0.4027  1.1554 -2.1434
  192MOL0     H26479  11.688   2.961   1.509  3.5682 -2.9554  1.6723
  192MOL0     H26480  10.111   2.533   2.256 -0.5123 -2.6274  2.2123
  192MOL0     H26481   9.887   2.450   2.353 -1.0193 -0.2735  0.4638
  192MOL0     H26482   9.319   2.747   2.284 -0.9997  0.0907 -0.5611
  192MOL0     H26483   9.096   2.680   2.298 -2.5980 -1.7286 -0.7855
  192MOL0     H26484   8.891   2.561   2.210  0.1980  0.6528  0.1412
  192MOL0     H26485   8.807   2.423   2.276  1.3516 -2.0834  0.3947
  192MOL0     H26486   8.939   2.621   2.444  0.4062 -0.7253  1.6864
  192MOL0     H26487   8.851   2.479   2.502 -2.6917  2.6953  2.2181
  192MOL0     H26488   8.745   2.716   2.352  0.3089 -0.1383 -0.5709
  192MOL0     H26489   8.665   2.554   2.354  1.5634  0.6834 -2.1123
  192MOL0     H26490   8.739   2.740   2.595 -1.0454  1.8749 -0.2629
  192MOL0     H26491   8.673   2.573   2.602  2.0655  1.3606  1.3893
  192MOL0     H26492   8.345   2.843   2.513  0.7833  2.2046  1.6965
  192MOL0     H26493   9.209   2.274   2.291 -2.0328 -0.1191  0.1509
  192MOL0     H26494   9.551   2.303   2.348  1.9296  0.2952 -2.0341
  192MOL0     H26495   9.431   2.205   2.257 -1.7135  0.9307 -0.7294
  192MOL0     H26496   9.556   2.310   2.180 -0.5556 -0.2852 -0.4807
  193MOL0     O26497   6.961   5.783  10.833  0.0005  0.5133 -0.4500
  193MOL0     C26498   6.922   5.781  10.949 -0.5167 -0.4930  0.0636
  193MOL0     O26499   7.010   5.736  11.049  0.0111  0.4674 -0.0203
  193MOL0     C26500   7.106   5.641  11.028 -0.6278  0.1642 -0.3228
  193MOL0     C26501   7.206   5.623  11.127 -0.3541  0.0392 -0.8444
  193MOL0     C26502   7.313   5.535  11.095 -0.6489  1.1352 -0.2172
  193MOL0     C26503   7.317   5.466  10.972  0.5829  0.5516 -0.6324
  193MOL0     O26504   7.432   5.404  10.955  0.4706  0.4829 -0.1289
  193MOL0     C26505   7.480   5.351  10.833 -0.6574 -0.2320 -0.0673
  193MOL0     C26506   7.619   5.295  10.870 -0.8245  0.5522  0.1690
  193MOL0     C26507   7.608   5.148  10.920 -0.1075  0.1407 -0.4701
  193MOL0     C26508   7.553   5.037  10.826  0.5316 -1.2748 -0.5369
  193MOL0     C26509   7.662   4.980  10.728 -0.4532  0.2858 -0.1316
  193MOL0     C26510   7.623   4.842  10.688 -0.1701  0.9051 -0.4166
  193MOL0     C26511   7.735   4.759  10.621 -1.0369  1.0167 -0.3193
  193MOL0     C26512   7.689   4.625  10.544 -0.4328 -0.6073  0.4224
  193MOL0     N26513   7.793   4.583  10.445 -0.3103  0.4535 -0.2755
  193MOL0     C26514   7.889   4.482  10.457 -0.6148 -0.7999 -0.2490
  193MOL0     C26515   7.954   4.483  10.342 -0.6461 -0.2413  0.4864
  193MOL0     C26516   8.065   4.383  10.296  0.3706 -0.0147 -0.3126
  193MOL0     C26517   7.989   4.264  10.235  0.4588 -0.2613 -0.2842
  193MOL0     C26518   7.915   4.170  10.341 -0.0380  0.3042 -0.0184
  193MOL0     C26519   7.875   4.034  10.278 -0.0585  0.9152  0.1823
  193MOL0     O26520   7.821   3.936  10.368  0.5177 -0.3578  0.3618
  193MOL0     C26521   7.753   3.836  10.304  0.8241 -0.1717 -0.1389
  193MOL0     C26522   7.755   3.791  10.172  0.0515  0.6165 -0.4024
  193MOL0     C26523   7.703   3.671  10.127  0.2778 -0.3110 -0.0393
  193MOL0     C26524   7.708   3.645   9.982 -0.5077  0.1202 -0.1361
  193MOL0     C26525   7.625   3.589  10.216 -0.7552  0.3803  0.2983
  193MOL0     C26526   7.551   3.468  10.169 -0.1885  0.1657 -0.8189
  193MOL0     O26527   7.551   3.362  10.260 -0.3633  0.0940  0.8579
  193MOL0     C26528   7.498   3.242  10.222 -0.5801  0.1610 -0.1258
  193MOL0     C26529   7.371   3.225  10.174  0.2302  0.1153  0.4377
  193MOL0     C26530   7.315   3.100  10.154 -0.5075 -0.6398 -0.5289
  193MOL0     C26531   7.391   2.985  10.163 -0.7900  0.2056 -0.9203
  193MOL0     O26532   7.343   2.863  10.126 -0.2086  0.2640  0.1261
  193MOL0     C26533   7.225   2.859  10.041  0.1628 -0.1633 -0.0633
  193MOL0     C26534   7.206   2.729   9.967  0.1531 -0.5375 -0.4433
  193MOL0     C26535   7.185   2.618  10.063  0.8692  0.5015 -1.0745
  193MOL0     C26536   7.138   2.488   9.997  0.4362  0.4886 -0.3530
  193MOL0     C26537   7.159   2.363  10.080  0.3232  1.2254  0.2520
  193MOL0     C26538   7.090   2.243  10.004  0.4923 -0.0521  0.4239
  193MOL0     C26539   7.085   2.120  10.102  0.8721 -0.5331 -0.2501
  193MOL0     C26540   6.971   2.130  10.205  0.2468 -0.0038 -0.1696
  193MOL0    Cl26541   6.816   2.147  10.133  0.1998 -0.0490  0.2471
  193MOL0     C26542   7.520   2.995  10.217 -0.2979  0.4428 -0.1841
  193MOL0     C26543   7.571   3.124  10.255 -0.3714  0.2610  0.2725
  193MOL0     O26544   7.507   3.468  10.057 -0.0003 -0.0762  0.3304
  193MOL0     C26545   7.621   3.638  10.348 -0.0324  0.8690 -0.5031
  193MOL0     C26546   7.680   3.754  10.385  0.1539 -0.4427 -0.0081
  193MOL0     N26547   7.897   4.578  10.260  0.2314  0.2332  0.4489
  193MOL0     N26548   7.810   4.648  10.325  0.8304  0.6766  0.1890
  193MOL0     C26549   7.209   5.472  10.887  0.1605  0.3953  0.4301
  193MOL0     C26550   7.108   5.560  10.908 -0.1176  0.1998  0.1620
  193MOL0     C26551   6.796   5.836  10.996  0.1903 -0.4377  0.1565
  193MOL0     C26552   6.803   5.933  11.097 -0.4272  0.4359 -0.3165
  193MOL0     C26553   6.691   5.996  11.138  0.3140  0.5592  0.1939
  193MOL0     C26554   6.569   5.976  11.075  0.0213 -0.0668  0.5043
  193MOL0     O26555   6.466   6.041  11.122  0.2334  0.0990 -0.4226
  193MOL0     C26556   6.336   5.978  11.123  0.8390 -1.3436  0.2958
  193MOL0     C26557   6.242   6.028  11.008 -0.4128 -0.4328 -0.5424
  193MOL0     C26558   6.099   5.968  11.031 -0.3171 -0.1529 -0.1522
  193MOL0     C26559   6.003   6.028  10.934 -0.0404  0.9042 -0.7338
  193MOL0     C26560   5.882   5.941  10.933  0.1669 -0.7304  0.1038
  193MOL0     C26561   5.788   5.872  10.914  0.5232  0.2760 -0.8205
  193MOL0     C26562   6.558   5.875  10.972 -0.1700  0.3649 -0.2823
  193MOL0     C26563   6.669   5.803  10.932 -0.3064 -0.3483  0.6172
  193MOL0     C26564   6.664   5.700  10.820  0.8816  0.5843  0.3355
  193MOL0     H26565   7.210   5.682  11.217 -0.3219 -0.9600 -0.1742
  193MOL0     H26566   7.395   5.522  11.165 -2.6013  2.5738  2.5408
  193MOL0     H26567   7.486   5.423  10.751 -2.9343  2.3050  1.7908
  193MOL0     H26568   7.415   5.268  10.803 -1.1137 -0.3703  1.2335
  193MOL0     H26569   7.673   5.298  10.776 -0.2734  2.6826  0.5018
  193MOL0     H26570   7.667   5.361  10.942  0.7399  1.4501 -1.6261
  193MOL0     H26571   7.707   5.122  10.959 -1.6068 -0.2448  3.5583
  193MOL0     H26572   7.543   5.142  11.007  1.4112 -2.2690  0.6141
  193MOL0     H26573   7.523   4.955  10.892 -2.7374  1.9543  2.4683
  193MOL0     H26574   7.465   5.065  10.767  0.0286  0.4551  0.9695
  193MOL0     H26575   7.760   4.973  10.777  0.8523 -0.6108 -2.7078
  193MOL0     H26576   7.680   5.035  10.636 -0.9868 -1.1245 -1.1116
  193MOL0     H26577   7.593   4.785  10.776 -0.3959 -1.0241 -1.6920
  193MOL0     H26578   7.539   4.856  10.620  1.3452 -1.3286 -2.9235
  193MOL0     H26579   7.814   4.733  10.691  1.9005  0.3841 -3.6218
  193MOL0     H26580   7.780   4.823  10.546 -0.2021  0.2558 -0.4739
  193MOL0     H26581   7.678   4.544  10.618  1.1951 -2.3239 -1.1173
  193MOL0     H26582   7.589   4.639  10.502 -0.7431  0.0230  1.3362
  193MOL0     H26583   7.918   4.417  10.539  2.2604  0.6473 -0.0160
  193MOL0     H26584   8.128   4.359  10.382 -0.2473  0.2946  0.2340
  193MOL0     H26585   8.130   4.432  10.223 -1.2273  1.9576 -0.4987
  193MOL0     H26586   7.919   4.306  10.162  0.6699  1.1539  0.2908
  193MOL0     H26587   8.064   4.206  10.180  1.0432  0.6273 -0.4406
  193MOL0     H26588   7.983   4.141  10.421  2.8934 -1.1570 -2.7863
  193MOL0     H26589   7.829   4.222  10.385 -1.0807 -1.3421 -0.0370
  193MOL0     H26590   7.802   4.058  10.201  0.3301 -0.2297 -0.5735
  193MOL0     H26591   7.961   3.987  10.230 -2.5535 -1.6030 -2.2176
  193MOL0     H26592   7.807   3.859  10.105 -1.7589  0.8112 -1.6856
  193MOL0     H26593   7.629   3.694   9.924 -0.1058  0.5542 -0.3285
  193MOL0     H26594   7.703   3.537   9.968 -4.7725 -0.0437  1.3592
  193MOL0     H26595   7.800   3.690   9.943 -0.9174  1.0468 -0.0611
  193MOL0     H26596   7.308   3.312  10.153  0.8356  0.4620  0.0230
  193MOL0     H26597   7.207   3.094  10.141 -0.4443 -2.3699 -0.4994
  193MOL0     H26598   7.144   2.875  10.113 -1.7900  0.5821 -2.2785
  193MOL0     H26599   7.236   2.936   9.964 -2.1293 -0.8372 -1.1671
  193MOL0     H26600   7.120   2.756   9.907  2.1232  3.8634 -1.6776
  193MOL0     H26601   7.282   2.704   9.893  1.4261  1.2862  0.1621
  193MOL0     H26602   7.097   2.646  10.121  2.7567 -0.1306  2.3429
  193MOL0     H26603   7.276   2.614  10.122  0.4958  1.1570 -0.4447
  193MOL0     H26604   7.200   2.474   9.908  4.0214  1.7063  1.7497
  193MOL0     H26605   7.039   2.509   9.957 -0.6423 -2.4944  0.4787
  193MOL0     H26606   7.265   2.346  10.098  0.5432  1.7786 -0.4502
  193MOL0     H26607   7.107   2.381  10.174  0.1051 -2.5101  0.9706
  193MOL0     H26608   7.152   2.205   9.922  1.2695  1.0855  0.4614
  193MOL0     H26609   6.989   2.269   9.971  1.0275  0.7452 -0.6261
  193MOL0     H26610   7.185   2.115  10.144 -0.7490  0.1772  4.2498
  193MOL0     H26611   7.061   2.036  10.037 -1.3702  0.8040 -1.3171
  193MOL0     H26612   6.985   2.222  10.262 -0.5631 -0.9104  1.5551
  193MOL0     H26613   6.975   2.035  10.258  1.9187 -0.8354 -1.6799
  193MOL0     H26614   7.574   2.901  10.231 -2.7214 -0.8064  1.4316
  193MOL0     H26615   7.659   3.117  10.318 -0.9818 -2.6135  0.9336
  193MOL0     H26616   7.574   3.574  10.422  0.8293 -1.9365 -2.2666
  193MOL0     H26617   7.655   3.780  10.487 -2.1296 -1.5195 -0.2369
  193MOL0     H26618   7.207   5.413  10.796  2.2980  0.2526  0.4139
  193MOL0     H26619   7.029   5.559  10.833 -0.0460 -1.3248  0.0793
  193MOL0     H26620   6.890   5.936  11.162 -0.7868 -1.0121  0.2728
  193MOL0     H26621   6.679   6.059  11.226 -1.9353  3.8644 -2.2440
  193MOL0     H26622   6.351   5.870  11.115 -0.6411 -1.6234  0.9035
  193MOL0     H26623   6.292   6.000  11.221  0.8042 -2.4010  0.5266
  193MOL0     H26624   6.276   6.008  10.906 -1.8720 -0.5588 -1.0260
  193MOL0     H26625   6.230   6.136  11.023 -0.3112 -0.5597  0.5543
  193MOL0     H26626   6.112   5.860  11.019  2.5092 -0.1095  1.5458
  193MOL0     H26627   6.066   5.974  11.136 -0.7180 -2.4584 -0.1013
  193MOL0     H26628   6.040   6.031  10.832  0.1191  0.5313 -0.6879
  193MOL0     H26629   5.973   6.129  10.966 -0.6322  0.0866  1.5252
  193MOL0     H26630   5.700   5.816  10.892 -0.5871  1.0293  1.3665
  193MOL0     H26631   6.464   5.856  10.921 -0.7650  2.0592  0.1174
  193MOL0     H26632   6.565   5.709  10.773 -0.0568 -0.2248  2.0865
  193MOL0     H26633   6.735   5.727  10.741  2.4930  1.0715  1.8870
  193MOL0     H26634   6.677   5.597  10.854  1.9161  0.1326 -1.2853
  194MOL0     O26635   2.811  10.026   5.788  0.4148 -0.9013  0.3549
  194MOL0     C26636   2.762   9.916   5.775  0.3747 -0.5901  0.4615
  194MOL0     O26637   2.814   9.820   5.699 -0.6487 -0.1077  0.1049
  194MOL0     C26638   2.915   9.830   5.604 -0.3223 -0.0942 -0.4994
  194MOL0     C26639   3.031   9.901   5.632 -0.8401 -0.6653  0.6532
  194MOL0     C26640   3.141   9.907   5.543 -0.3972  0.5823  0.2316
  194MOL0     C26641   3.126   9.851   5.415 -0.3640 -0.5004  0.8147
  194MOL0     O26642   3.232   9.857   5.329 -0.3468  0.3452  0.2432
  194MOL0     C26643   3.249   9.977   5.257 -0.1459 -0.4035  0.0888
  194MOL0     C26644   3.363   9.970   5.162 -0.0277  0.6160  0.0657
  194MOL0     C26645   3.505   9.972   5.232  0.1879 -0.6706  0.1411
  194MOL0     C26646   3.633   9.963   5.148  0.1918  0.0005  0.3256
  194MOL0     C26647   3.761   9.955   5.239  0.2722  0.4015  1.0938
  194MOL0     C26648   3.872   9.897   5.151  0.3400  0.3914  0.6834
  194MOL0     C26649   3.921  10.006   5.048  0.3283 -0.3750  0.1693
  194MOL0     C26650   4.056   9.968   4.982 -0.6641 -0.3097 -0.4078
  194MOL0     N26651   4.176   9.999   5.068  0.1275  0.2513 -0.8907
  194MOL0     C26652   4.208  10.114   5.125 -0.0618  0.6054  0.1999
  194MOL0     C26653   4.312  10.087   5.204 -0.0250 -0.8043 -0.5514
  194MOL0     C26654   4.383  10.190   5.293 -0.7095  0.0777 -0.7702
  194MOL0     C26655   4.504  10.247   5.228  1.2187  0.1224 -0.3354
  194MOL0     C26656   4.633  10.219   5.304 -0.4155 -0.1261  0.4938
  194MOL0     C26657   4.747  10.306   5.267  0.0633 -0.0539 -0.3559
  194MOL0     O26658   4.784  10.291   5.136  0.7583 -0.6880 -0.1723
  194MOL0     C26659   4.917  10.306   5.101  0.2318 -0.9931  0.1178
  194MOL0     C26660   5.017  10.384   5.173  0.1906  0.3501  0.3550
  194MOL0     C26661   5.149  10.379   5.123 -0.2023  0.4346  0.3056
  194MOL0     C26662   5.246  10.462   5.207  0.3886  0.1509  0.4224
  194MOL0     C26663   5.186  10.308   5.006  0.7621  0.9754  0.3078
  194MOL0     C26664   5.328  10.301   4.952  0.5665 -0.0454 -0.5089
  194MOL0     O26665   5.398  10.414   4.971  0.6250  0.9057  0.0054
  194MOL0     C26666   5.535  10.439   4.954 -0.3133  0.3827  0.3266
  194MOL0     C26667   5.573  10.549   5.029 -0.0368  0.4009  0.1723
  194MOL0     C26668   5.703  10.586   5.032  0.1318  1.0014 -0.8842
  194MOL0     C26669   5.807  10.515   4.965 -0.1157 -0.2748 -0.2570
  194MOL0     O26670   5.935  10.562   4.969  0.5172 -0.6928 -0.2867
  194MOL0     C26671   6.043  10.469   4.958 -0.1959  0.0689 -0.8116
  194MOL0     C26672   6.165  10.549   4.952  0.9100  0.1531  0.4558
  194MOL0     C26673   6.204  10.612   5.084 -0.0981  0.2246 -0.3268
  194MOL0     C26674   6.346  10.669   5.073  0.0879  0.2097  0.8684
  194MOL0     C26675   6.368  10.812   5.023 -0.2302  0.8782 -0.2094
  194MOL0     C26676   6.516  10.835   5.015 -0.9765  0.5115  0.0827
  194MOL0     C26677   6.555  10.972   4.960 -0.7574  0.1288 -0.6981
  194MOL0     C26678   6.712  10.983   4.944 -0.1795  0.2962  0.4943
  194MOL0    Cl26679   6.766  10.895   4.794 -0.4983  0.1608 -0.1340
  194MOL0     C26680   5.775  10.389   4.911  0.3547 -0.0796  0.6018
  194MOL0     C26681   5.635  10.349   4.900  0.5920 -0.5851  0.7829
  194MOL0     O26682   5.370  10.197   4.905  0.1091  0.4090  0.3281
  194MOL0     C26683   5.087  10.244   4.934 -0.5174  0.6263 -0.7784
  194MOL0     C26684   4.957  10.247   4.978  1.2673  0.3614 -0.5376
  194MOL0     N26685   4.349   9.954   5.196  0.0359 -0.0355  0.5040
  194MOL0     N26686   4.267   9.910   5.112  0.2214  0.6956 -0.0678
  194MOL0     C26687   2.997   9.792   5.377  0.2725 -0.6144 -0.5953
  194MOL0     C26688   2.899   9.774   5.474  0.2514 -0.0756  0.0730
  194MOL0     C26689   2.640   9.891   5.852  0.1093  0.3503 -0.1466
  194MOL0     C26690   2.564   9.782   5.809  0.3717 -0.0076 -0.4489
  194MOL0     C26691   2.448   9.732   5.877  0.3997 -0.4305 -0.3269
  194MOL0     C26692   2.418   9.795   5.998  0.4041  0.3558  0.4967
  194MOL0     O26693   2.310   9.752   6.073  0.4373 -0.2089  0.4861
  194MOL0     C26694   2.187   9.737   6.004  0.0692  0.7217 -0.3878
  194MOL0     C26695   2.066   9.745   6.102 -0.1361 -0.1449 -0.1564
  194MOL0     C26696   2.057   9.872   6.190  0.7179  0.0389  0.4017
  194MOL0     C26697   2.009  10.008   6.127  0.2679  0.6888  0.3899
  194MOL0     C26698   2.109  10.060   6.035 -0.3327 -0.0605  0.9514
  194MOL0     C26699   2.197  10.106   5.964 -0.0547 -0.4263 -0.0758
  194MOL0     C26700   2.495   9.900   6.047  0.2987 -0.4030 -0.1288
  194MOL0     C26701   2.602   9.954   5.981  0.6949 -0.3046  0.1649
  194MOL0     C26702   2.667  10.073   6.046 -1.1630  0.3080 -0.5952
  194MOL0     H26703   3.048   9.947   5.729 -0.2313  0.3514  0.0822
  194MOL0     H26704   3.231   9.952   5.584 -0.3690  0.9878 -0.2793
  194MOL0     H26705   3.270  10.058   5.326  0.1831  0.1476 -0.6468
  194MOL0     H26706   3.166   9.992   5.187  0.5419 -0.4625 -0.7626
  194MOL0     H26707   3.355   9.888   5.091  2.3898  1.1339 -0.8955
  194MOL0     H26708   3.356  10.053   5.091  2.7236  0.0318 -1.0292
  194MOL0     H26709   3.508  10.073   5.275  0.2300 -0.7327  0.2812
  194MOL0     H26710   3.503   9.896   5.310 -0.3231  0.6828  1.5140
  194MOL0     H26711   3.623   9.866   5.099 -2.4244  0.1570  0.3966
  194MOL0     H26712   3.646  10.039   5.071 -1.3296 -0.0442 -0.0080
  194MOL0     H26713   3.748   9.878   5.316  0.8112 -2.7452 -1.6999
  194MOL0     H26714   3.792  10.050   5.283 -0.0561 -1.0922  4.8739
  194MOL0     H26715   3.963   9.882   5.209 -0.0122  0.3306  1.2302
  194MOL0     H26716   3.841   9.807   5.098 -3.5581  1.9611 -0.0317
  194MOL0     H26717   3.929  10.103   5.098 -1.4520 -0.8259  1.4261
  194MOL0     H26718   3.843  10.017   4.972  2.9299  2.2676 -2.4290
  194MOL0     H26719   4.055   9.860   4.964 -1.9422 -0.0846 -1.7562
  194MOL0     H26720   4.063  10.019   4.886 -1.7789 -3.6017 -2.3916
  194MOL0     H26721   4.166  10.214   5.128  0.4927  0.8430  0.1852
  194MOL0     H26722   4.412  10.147   5.389 -0.2390  3.2317  0.6353
  194MOL0     H26723   4.306  10.266   5.310 -2.5950 -2.0634  0.8424
  194MOL0     H26724   4.514  10.209   5.126 -1.5750 -0.4557 -0.4717
  194MOL0     H26725   4.487  10.355   5.230  1.5480  0.1691  0.0383
  194MOL0     H26726   4.605  10.254   5.404 -2.4185 -0.2698  0.0256
  194MOL0     H26727   4.662  10.114   5.308 -0.9521 -0.2351  1.9071
  194MOL0     H26728   4.723  10.411   5.285 -1.2365 -0.3410 -0.2810
  194MOL0     H26729   4.828  10.272   5.331  0.2015 -1.3706 -1.1928
  194MOL0     H26730   5.003  10.444   5.262  1.2880 -0.9442  1.4357
  194MOL0     H26731   5.204  10.483   5.306 -1.5462 -3.9765  0.6699
  194MOL0     H26732   5.260  10.555   5.152 -0.8520  0.0540 -0.0880
  194MOL0     H26733   5.348  10.424   5.219  0.4180  0.5965  1.6734
  194MOL0     H26734   5.496  10.612   5.074  0.3951  1.2913 -0.2982
  194MOL0     H26735   5.725  10.677   5.087 -0.5285  0.0757  1.0190
  194MOL0     H26736   6.050  10.403   5.045 -0.3332 -0.1635 -0.9780
  194MOL0     H26737   6.043  10.411   4.865  0.7479 -0.5553 -0.4433
  194MOL0     H26738   6.245  10.484   4.916 -0.2666 -2.3961  2.1403
  194MOL0     H26739   6.147  10.631   4.883 -0.2240  1.3132  2.0473
  194MOL0     H26740   6.210  10.530   5.156 -1.7411  0.8953  0.6247
  194MOL0     H26741   6.125  10.681   5.114 -1.3932 -1.3392  0.0198
  194MOL0     H26742   6.409  10.613   5.004  0.0411  1.6974 -0.4562
  194MOL0     H26743   6.400  10.654   5.167  3.9518 -2.2640 -1.5147
  194MOL0     H26744   6.332  10.822   4.920 -2.1489 -1.8087  0.0912
  194MOL0     H26745   6.318  10.879   5.094 -1.0019  0.0781  0.0197
  194MOL0     H26746   6.569  10.758   4.957 -0.6833 -0.3531  1.4453
  194MOL0     H26747   6.553  10.829   5.118 -1.8399  3.5715  0.6431
  194MOL0     H26748   6.518  11.044   5.033  3.9569 -0.2276  2.5281
  194MOL0     H26749   6.507  10.988   4.863 -1.3159 -0.4898 -0.5307
  194MOL0     H26750   6.760  10.943   5.033  2.8275  1.4189 -0.5129
  194MOL0     H26751   6.751  11.084   4.926 -0.8023  1.0123  2.8336
  194MOL0     H26752   5.851  10.322   4.873  3.4160  2.0539  2.4347
  194MOL0     H26753   5.603  10.256   4.855  0.9946 -0.8480  1.0326
  194MOL0     H26754   5.117  10.178   4.854 -0.8410 -1.5133  0.7780
  194MOL0     H26755   4.891  10.187   4.917  1.7454  2.1762 -2.9964
  194MOL0     H26756   2.983   9.749   5.278  1.3220  3.0274 -2.5057
  194MOL0     H26757   2.814   9.712   5.450 -0.5463  1.6689 -1.8814
  194MOL0     H26758   2.595   9.724   5.722 -2.8500 -0.6562 -1.2730
  194MOL0     H26759   2.393   9.646   5.842 -2.9075  0.8734  1.2186
  194MOL0     H26760   2.185   9.817   5.930  1.8572  1.6848  0.5434
  194MOL0     H26761   2.182   9.638   5.957  0.2041  0.5536 -0.0598
  194MOL0     H26762   2.085   9.661   6.169  1.0535  1.4883  1.6925
  194MOL0     H26763   1.970   9.728   6.053 -0.9814  1.9361  0.6461
  194MOL0     H26764   1.983   9.852   6.267 -0.8278  1.0241 -0.7631
  194MOL0     H26765   2.154   9.894   6.236  0.8388  5.2265 -1.6517
  194MOL0     H26766   1.990  10.079   6.208 -1.4037 -1.1799  1.7276
  194MOL0     H26767   1.913   9.983   6.080  0.4425 -2.9063  1.6195
  194MOL0     H26768   2.278  10.149   5.908 -0.8488 -0.2969 -1.1645
  194MOL0     H26769   2.455   9.945   6.138  1.1567  0.9248 -0.3869
  194MOL0     H26770   2.773  10.049   6.054 -0.7689  2.3844  1.4154
  194MOL0     H26771   2.654  10.165   5.988 -1.6399 -0.3109 -1.5084
  194MOL0     H26772   2.633  10.083   6.149  0.4951 -0.3198  0.0472
  195MOL0     O26773   2.959   5.864   7.496 -0.9940 -0.1167 -1.3903
  195MOL0     C26774   2.874   5.937   7.539  0.1208 -0.2876  1.6232
  195MOL0     O26775   2.903   6.062   7.589 -0.4444  0.1279 -0.2954
  195MOL0     C26776   3.038   6.099   7.593  0.1963 -1.2320 -0.3556
  195MOL0     C26777   3.120   6.110   7.483  0.8120  0.8381  0.5502
  195MOL0     C26778   3.247   6.159   7.488 -0.1876  0.2848  0.2840
  195MOL0     C26779   3.297   6.223   7.605  0.3303  0.1086 -0.6996
  195MOL0     O26780   3.419   6.278   7.619 -0.1220 -0.6202  0.1125
  195MOL0     C26781   3.498   6.291   7.498 -0.5543  0.2406  0.4870
  195MOL0     C26782   3.628   6.371   7.526  1.6403  0.6448  0.6989
  195MOL0     C26783   3.679   6.424   7.397  0.8953 -0.2154 -0.2059
  195MOL0     C26784   3.804   6.511   7.419  0.1585  0.2027  0.0150
  195MOL0     C26785   3.843   6.573   7.289  0.0652  0.5012  0.2260
  195MOL0     C26786   3.985   6.613   7.296  0.6977 -0.7610 -0.0863
  195MOL0     C26787   4.017   6.720   7.180  0.3528  0.0001  1.1800
  195MOL0     C26788   4.155   6.755   7.138 -0.3517  0.1179  1.1888
  195MOL0     N26789   4.216   6.631   7.087  0.5167 -0.0432 -0.3307
  195MOL0     C26790   4.357   6.612   7.084  0.2757 -0.0228  0.7067
  195MOL0     C26791   4.375   6.509   7.003  0.8825 -0.4279  0.6008
  195MOL0     C26792   4.500   6.447   6.959  0.4582  0.7766 -0.2309
  195MOL0     C26793   4.569   6.514   6.849 -0.6033  0.3957  0.4714
  195MOL0     C26794   4.621   6.653   6.878 -0.0844 -0.1186  0.1401
  195MOL0     C26795   4.713   6.714   6.764  0.6357  0.5171 -0.1784
  195MOL0     O26796   4.792   6.604   6.714 -0.5657  0.2181 -0.3696
  195MOL0     C26797   4.931   6.607   6.749  0.3942  0.1617  0.3951
  195MOL0     C26798   5.009   6.516   6.677 -0.1134 -0.3178 -0.8098
  195MOL0     C26799   5.142   6.501   6.704 -0.3726 -0.2479 -0.2161
  195MOL0     C26800   5.217   6.412   6.603 -0.4645 -0.5914 -0.0798
  195MOL0     C26801   5.211   6.582   6.800 -0.2287 -0.5737 -0.2506
  195MOL0     C26802   5.356   6.594   6.812  0.2177  1.1632 -0.3527
  195MOL0     O26803   5.427   6.474   6.781 -0.3498  0.1264 -0.0228
  195MOL0     C26804   5.565   6.495   6.788  0.2235  0.4159  0.5481
  195MOL0     C26805   5.640   6.421   6.877  0.1411 -0.5024 -0.1411
  195MOL0     C26806   5.781   6.417   6.862 -0.5040  0.5518  0.1511
  195MOL0     C26807   5.850   6.495   6.770 -0.0437 -0.3553 -0.0371
  195MOL0     O26808   5.986   6.506   6.749 -0.9901  0.0971  1.1131
  195MOL0     C26809   6.062   6.383   6.778 -0.0077  0.3457  0.5498
  195MOL0     C26810   6.207   6.418   6.780  0.4539 -0.6008 -0.6001
  195MOL0     C26811   6.286   6.292   6.797 -0.9837 -1.3894  0.1520
  195MOL0     C26812   6.432   6.337   6.824  0.1221  0.2324  0.0252
  195MOL0     C26813   6.509   6.214   6.852  0.6484 -0.4420  0.5502
  195MOL0     C26814   6.546   6.132   6.724  0.1663 -0.3491 -0.8525
  195MOL0     C26815   6.595   5.987   6.745  0.3090  0.4097  0.0395
  195MOL0     C26816   6.718   5.969   6.834 -0.2019  0.2724 -0.2406
  195MOL0    Cl26817   6.745   5.793   6.842 -0.0088 -0.1172  0.1588
  195MOL0     C26818   5.769   6.581   6.697  0.8135 -0.8495  0.0404
  195MOL0     C26819   5.628   6.577   6.694 -0.5804 -0.1763 -0.1089
  195MOL0     O26820   5.400   6.698   6.856 -0.5459  0.4805 -0.4362
  195MOL0     C26821   5.126   6.663   6.887 -0.2534  0.0040  0.4600
  195MOL0     C26822   4.991   6.680   6.854 -0.9895 -0.1327 -0.7044
  195MOL0     N26823   4.246   6.462   6.966  0.3345 -0.0687  0.4947
  195MOL0     N26824   4.155   6.536   7.010  0.0876 -0.1416 -0.4569
  195MOL0     C26825   3.217   6.233   7.717  0.1312 -0.0380  0.1902
  195MOL0     C26826   3.088   6.175   7.711  0.7411 -0.3181  0.4866
  195MOL0     C26827   2.731   5.888   7.523  0.1296  0.0676  1.0720
  195MOL0     C26828   2.707   5.752   7.481 -0.1000  0.2843  0.5955
  195MOL0     C26829   2.575   5.701   7.470  0.0963 -0.0143  0.9113
  195MOL0     C26830   2.461   5.781   7.494  0.3390  0.3970 -0.9047
  195MOL0     O26831   2.333   5.731   7.475 -0.3488 -0.2464  0.6587
  195MOL0     C26832   2.232   5.766   7.567 -0.5065  0.4344  0.1548
  195MOL0     C26833   2.098   5.701   7.533 -0.2343 -0.4721  0.1437
  195MOL0     C26834   2.025   5.747   7.410  0.7647 -0.3421  0.4277
  195MOL0     C26835   1.877   5.703   7.398 -0.0908 -0.0763 -0.5766
  195MOL0     C26836   1.790   5.763   7.500  0.0038  0.3473 -0.5918
  195MOL0     C26837   1.733   5.820   7.594 -0.6650  0.5039  0.1073
  195MOL0     C26838   2.487   5.914   7.525 -0.2475 -0.6628 -0.7027
  195MOL0     C26839   2.614   5.970   7.532  0.0660 -0.6436 -0.0883
  195MOL0     C26840   2.619   6.113   7.564  0.0353  0.1897 -0.5634
  195MOL0     H26841   3.084   6.059   7.395  0.3658  2.1624 -0.0522
  195MOL0     H26842   3.304   6.151   7.396 -0.9317 -0.2521 -0.1441
  195MOL0     H26843   3.435   6.333   7.419 -0.5093  2.3537  1.5155
  195MOL0     H26844   3.530   6.190   7.469 -0.2644  0.6090 -0.5112
  195MOL0     H26845   3.593   6.453   7.589 -0.7483 -0.7342  1.3180
  195MOL0     H26846   3.697   6.312   7.586  0.4834  1.0399  2.4983
  195MOL0     H26847   3.701   6.337   7.336 -0.8875 -1.5481  0.9536
  195MOL0     H26848   3.606   6.491   7.350 -0.7426 -2.2148 -0.6609
  195MOL0     H26849   3.781   6.590   7.492  0.3932 -0.2592  0.6017
  195MOL0     H26850   3.885   6.450   7.460 -0.3662  1.0641  2.5458
  195MOL0     H26851   3.783   6.663   7.273 -0.5071 -0.0518 -0.8276
  195MOL0     H26852   3.816   6.510   7.204 -2.9219  2.3833 -0.3836
  195MOL0     H26853   4.012   6.664   7.388  1.9802 -0.3205 -0.6810
  195MOL0     H26854   4.057   6.530   7.293  1.6686 -0.0106  1.3541
  195MOL0     H26855   3.967   6.814   7.205 -0.7050 -0.1717 -0.1450
  195MOL0     H26856   3.963   6.682   7.092  0.7136  0.7524  0.6200
  195MOL0     H26857   4.158   6.822   7.051 -2.6199 -1.1650 -0.0049
  195MOL0     H26858   4.202   6.810   7.220 -1.9463  0.2665  2.0436
  195MOL0     H26859   4.437   6.675   7.123  0.9770  0.8196 -1.8520
  195MOL0     H26860   4.468   6.347   6.930  0.0002  0.4491  1.3233
  195MOL0     H26861   4.575   6.446   7.040  0.0324 -3.4786  0.2977
  195MOL0     H26862   4.653   6.454   6.814 -1.7099 -0.7605 -0.3007
  195MOL0     H26863   4.497   6.521   6.767  0.1717 -1.6223 -0.4514
  195MOL0     H26864   4.532   6.715   6.888  1.0149  1.5244  0.0547
  195MOL0     H26865   4.680   6.653   6.970 -2.6439 -3.4819  2.0174
  195MOL0     H26866   4.642   6.754   6.690  0.8919  1.7745  0.2371
  195MOL0     H26867   4.762   6.804   6.802  0.8506 -0.0673  0.9533
  195MOL0     H26868   4.952   6.457   6.606 -3.7084 -1.9519  2.9860
  195MOL0     H26869   5.162   6.385   6.512  3.9038  0.8720 -3.5352
  195MOL0     H26870   5.245   6.325   6.664  0.0220  0.7800  1.7183
  195MOL0     H26871   5.299   6.467   6.555  0.8550 -1.5114  1.0339
  195MOL0     H26872   5.579   6.360   6.943 -2.2788 -0.2787 -2.0052
  195MOL0     H26873   5.834   6.355   6.933  0.0994  1.8331  0.8594
  195MOL0     H26874   6.038   6.350   6.879  0.5562 -2.2624 -0.1146
  195MOL0     H26875   6.048   6.309   6.699 -0.3583  0.3381  0.6166
  195MOL0     H26876   6.238   6.471   6.690  1.2906 -0.5082 -0.2634
  195MOL0     H26877   6.216   6.481   6.868 -2.7586  0.3102 -0.7853
  195MOL0     H26878   6.283   6.231   6.706 -1.6749 -2.5152  0.9150
  195MOL0     H26879   6.241   6.235   6.878  0.0352  0.3285  2.0265
  195MOL0     H26880   6.433   6.406   6.909  0.8999 -0.2911  0.4479
  195MOL0     H26881   6.474   6.390   6.738  0.9100 -0.0156  0.2508
  195MOL0     H26882   6.594   6.248   6.912  0.6003  1.7983 -0.5462
  195MOL0     H26883   6.449   6.162   6.927  0.4993 -0.4203  0.4473
  195MOL0     H26884   6.628   6.181   6.671  0.9149 -1.2172 -0.5265
  195MOL0     H26885   6.455   6.114   6.666  2.0294 -3.1941 -3.1640
  195MOL0     H26886   6.623   5.953   6.645 -1.2465 -0.4111 -0.1410
  195MOL0     H26887   6.511   5.922   6.769 -0.5147  0.7484 -1.7579
  195MOL0     H26888   6.700   6.017   6.931  1.3323 -1.0124  0.7228
  195MOL0     H26889   6.803   6.023   6.793 -0.0054  0.2035  0.0702
  195MOL0     H26890   5.827   6.630   6.620  1.6527 -1.0652  0.5288
  195MOL0     H26891   5.570   6.621   6.614 -0.8704 -0.6860 -0.1862
  195MOL0     H26892   5.166   6.739   6.953 -0.0300 -0.1558  0.5082
  195MOL0     H26893   4.932   6.745   6.918 -0.4256 -0.4791  0.1921
  195MOL0     H26894   3.253   6.290   7.802  1.3424  0.3185 -0.5340
  195MOL0     H26895   3.014   6.195   7.788 -0.4489 -0.3466 -0.5929
  195MOL0     H26896   2.792   5.690   7.455 -0.1534  0.4358  0.0610
  195MOL0     H26897   2.551   5.603   7.431  0.0388 -0.5190  2.1925
  195MOL0     H26898   2.264   5.739   7.668  0.1188 -0.0972 -0.1740
  195MOL0     H26899   2.220   5.874   7.571  1.2603  0.6070  1.8206
  195MOL0     H26900   2.032   5.720   7.618 -1.1848 -0.5969 -0.5420
  195MOL0     H26901   2.115   5.593   7.528 -2.4488 -0.8950  0.5149
  195MOL0     H26902   2.037   5.856   7.412  0.1124 -0.2855  1.4342
  195MOL0     H26903   2.075   5.712   7.319 -1.1705  1.3515 -1.3903
  195MOL0     H26904   1.862   5.595   7.406 -1.4455  0.1933  1.3768
  195MOL0     H26905   1.839   5.736   7.301  0.2128 -0.1083 -0.7059
  195MOL0     H26906   1.682   5.888   7.659 -0.5460  2.0155 -1.3065
  195MOL0     H26907   2.397   5.972   7.540  1.2412  0.7680  5.1542
  195MOL0     H26908   2.664   6.157   7.474  0.9902 -2.1535 -1.3233
  195MOL0     H26909   2.515   6.144   7.577 -0.8676 -2.4723 -0.8494
  195MOL0     H26910   2.669   6.135   7.658  0.8908  0.6156 -1.1063
  196MOL0     O26911   4.825   4.156   7.143 -0.5391 -0.1022 -0.5738
  196MOL0     C26912   4.758   4.262   7.147 -0.4330  0.1633 -0.5444
  196MOL0     O26913   4.810   4.387   7.183  0.2801  0.2274  0.3960
  196MOL0     C26914   4.939   4.414   7.209 -0.3606 -0.1578 -0.5655
  196MOL0     C26915   4.994   4.521   7.142  0.1658 -0.0635  0.0454
  196MOL0     C26916   5.126   4.563   7.167  0.1858 -0.6165  1.0087
  196MOL0     C26917   5.204   4.500   7.266 -0.2835 -0.1646  0.3996
  196MOL0     O26918   5.334   4.536   7.288  0.1624  0.0887  0.5819
  196MOL0     C26919   5.412   4.554   7.167 -0.0280 -0.3145  0.7303
  196MOL0     C26920   5.563   4.548   7.206  0.0297  0.7129  0.7045
  196MOL0     C26921   5.617   4.401   7.199 -0.7213 -0.0766 -0.5673
  196MOL0     C26922   5.768   4.403   7.242 -0.1463 -0.2275 -0.1678
  196MOL0     C26923   5.824   4.266   7.260 -0.2708 -0.4325 -0.0008
  196MOL0     C26924   5.980   4.254   7.273 -0.0617 -0.6698 -0.3399
  196MOL0     C26925   6.015   4.263   7.422  0.2811 -0.6184 -1.3265
  196MOL0     C26926   6.162   4.240   7.447 -0.2572 -0.1054 -0.5116
  196MOL0     N26927   6.192   4.232   7.597  0.3221  0.2705  0.2082
  196MOL0     C26928   6.125   4.139   7.677  0.2726 -0.0837 -0.3256
  196MOL0     C26929   6.186   4.157   7.797  0.2830  0.0789 -0.8951
  196MOL0     C26930   6.164   4.072   7.919 -0.8989 -0.2567  0.6096
  196MOL0     C26931   6.176   4.150   8.047  0.3112  0.3089 -0.0673
  196MOL0     C26932   6.042   4.190   8.109  0.0041  0.3283  0.2269
  196MOL0     C26933   5.969   4.313   8.042 -0.5481  0.6761 -0.5720
  196MOL0     O26934   5.836   4.346   8.094 -0.8188 -0.1035  0.4692
  196MOL0     C26935   5.735   4.254   8.083 -0.4119 -0.6315 -0.0175
  196MOL0     C26936   5.728   4.137   8.010 -0.6835  0.1172 -0.4862
  196MOL0     C26937   5.615   4.060   8.005 -0.1389  0.7532  1.1595
  196MOL0     C26938   5.616   3.951   7.906  0.0348 -0.0855  0.3140
  196MOL0     C26939   5.501   4.100   8.080  0.5313  0.1873  0.9989
  196MOL0     C26940   5.379   4.014   8.083  0.0970 -0.0873 -0.3999
  196MOL0     O26941   5.285   4.048   8.180 -0.6573 -0.4161  0.6597
  196MOL0     C26942   5.159   3.995   8.191 -0.6516 -0.5277  0.8491
  196MOL0     C26943   5.085   3.924   8.087  0.2941 -0.1659 -0.7965
  196MOL0     C26944   4.971   3.855   8.122 -0.2247 -0.3457 -0.3468
  196MOL0     C26945   4.913   3.877   8.253  0.1435  0.0757 -0.5698
  196MOL0     O26946   4.792   3.819   8.282 -0.2924 -0.2063  0.2744
  196MOL0     C26947   4.736   3.699   8.225  0.5073  1.3304 -0.7476
  196MOL0     C26948   4.592   3.688   8.269 -0.9193  0.7029  0.9872
  196MOL0     C26949   4.569   3.691   8.421 -0.1830  0.4856  0.6692
  196MOL0     C26950   4.418   3.669   8.468 -0.7688  0.1402  0.2770
  196MOL0     C26951   4.405   3.668   8.622  0.6770 -0.4971 -0.2313
  196MOL0     C26952   4.257   3.658   8.652  1.1595 -0.2517  0.1596
  196MOL0     C26953   4.232   3.694   8.800 -0.7422  0.1225  0.6718
  196MOL0     C26954   4.090   3.666   8.854 -0.3396  0.7470  0.0457
  196MOL0    Cl26955   4.059   3.489   8.879 -0.2991  0.3840  0.1313
  196MOL0     C26956   4.981   3.955   8.345  0.7522 -0.4494  0.1530
  196MOL0     C26957   5.102   4.010   8.315 -0.2540 -0.6603  0.1103
  196MOL0     O26958   5.367   3.921   8.006 -0.0044  0.7804 -0.1270
  196MOL0     C26959   5.503   4.223   8.144 -0.4625  1.1596 -0.1046
  196MOL0     C26960   5.620   4.295   8.150 -0.1900 -0.3653  0.1551
  196MOL0     N26961   6.278   4.256   7.784 -0.0827  0.6427 -0.3440
  196MOL0     N26962   6.286   4.298   7.668 -1.2854 -0.0778  0.5219
  196MOL0     C26963   5.146   4.393   7.330 -0.2839 -0.6706  0.3365
  196MOL0     C26964   5.017   4.353   7.303  0.2193  0.7356  0.0329
  196MOL0     C26965   4.610   4.251   7.128  1.1012  0.6040 -0.3910
  196MOL0     C26966   4.529   4.368   7.149 -0.7090 -0.6936 -0.5863
  196MOL0     C26967   4.389   4.362   7.146  0.0846  0.1336 -1.3329
  196MOL0     C26968   4.322   4.244   7.125  0.2653  0.3328 -1.3857
  196MOL0     O26969   4.187   4.225   7.109 -0.1400  0.0129  0.5397
  196MOL0     C26970   4.095   4.326   7.151  0.4709  0.2384  0.3815
  196MOL0     C26971   3.952   4.268   7.140 -0.2294 -0.1193  0.5250
  196MOL0     C26972   3.934   4.144   7.234 -0.1384 -0.2251  0.2175
  196MOL0     C26973   3.779   4.128   7.261  0.6286  0.7195  0.2224
  196MOL0     C26974   3.707   4.070   7.144  0.9350  0.2178  0.1419
  196MOL0     C26975   3.642   4.006   7.053 -0.5536 -0.1055  0.1350
  196MOL0     C26976   4.393   4.132   7.091  0.1783 -0.1100  0.3781
  196MOL0     C26977   4.537   4.137   7.098  0.5927  0.1718 -0.4898
  196MOL0     C26978   4.601   4.015   7.038  0.1253  0.4780  0.0602
  196MOL0     H26979   4.940   4.568   7.061 -0.3221  0.9724  0.9463
  196MOL0     H26980   5.166   4.650   7.116 -1.5673  2.3096  4.1553
  196MOL0     H26981   5.392   4.653   7.126 -1.3314 -0.7852  0.1720
  196MOL0     H26982   5.387   4.481   7.089 -3.0241  0.4784  0.8181
  196MOL0     H26983   5.610   4.606   7.126  0.3574 -0.8628 -0.3070
  196MOL0     H26984   5.577   4.596   7.303  1.6473  4.7203 -1.2734
  196MOL0     H26985   5.578   4.335   7.277  2.2328 -0.8714  0.4013
  196MOL0     H26986   5.606   4.358   7.100  1.4745  2.2148 -1.9387
  196MOL0     H26987   5.823   4.454   7.163 -0.8886  0.0767 -0.5053
  196MOL0     H26988   5.784   4.458   7.335 -1.2759  2.0646 -1.2557
  196MOL0     H26989   5.783   4.210   7.176  1.3687 -2.3939  0.4294
  196MOL0     H26990   5.779   4.224   7.350  0.6235 -1.5822 -0.0660
  196MOL0     H26991   6.009   4.152   7.245 -2.1054 -1.1229 -1.0090
  196MOL0     H26992   6.026   4.331   7.211  0.2296 -0.6691 -0.1216
  196MOL0     H26993   5.967   4.178   7.471 -0.6207 -0.1067 -1.3069
  196MOL0     H26994   5.981   4.354   7.473  2.3223  0.4189 -1.7072
  196MOL0     H26995   6.199   4.147   7.405 -0.1839 -1.2422  1.9031
  196MOL0     H26996   6.217   4.327   7.408  0.0777 -1.2572 -2.7402
  196MOL0     H26997   6.048   4.069   7.645 -0.0317 -0.8617  1.9233
  196MOL0     H26998   6.244   3.998   7.919 -0.4221  0.2097 -1.2146
  196MOL0     H26999   6.075   4.008   7.926  0.9166 -2.7372  2.8146
  196MOL0     H27000   6.230   4.089   8.120 -1.4115  0.5021  1.4531
  196MOL0     H27001   6.238   4.239   8.032 -0.1697  0.6715  0.0369
  196MOL0     H27002   5.980   4.101   8.103 -0.5154  0.7564 -3.3974
  196MOL0     H27003   6.050   4.201   8.217  0.9624 -0.0937  0.2118
  196MOL0     H27004   6.031   4.403   8.037 -1.1934  1.0973 -1.1200
  196MOL0     H27005   5.947   4.286   7.938 -0.5231  0.5538 -0.5456
  196MOL0     H27006   5.817   4.111   7.954 -0.4264 -1.1235  0.4559
  196MOL0     H27007   5.593   3.858   7.958 -0.6482 -0.0646  0.0553
  196MOL0     H27008   5.713   3.945   7.855  0.0498  0.6962  0.2405
  196MOL0     H27009   5.546   3.969   7.823 -0.0730 -0.8405  0.2363
  196MOL0     H27010   5.121   3.913   7.985  1.6298 -2.1273 -0.1596
  196MOL0     H27011   4.911   3.790   8.059 -0.3012  0.1319 -0.7671
  196MOL0     H27012   4.731   3.703   8.116 -0.5735 -0.1199 -0.7750
  196MOL0     H27013   4.796   3.612   8.252 -2.8844 -1.9601 -2.9268
  196MOL0     H27014   4.529   3.764   8.221 -1.4692  0.0845  0.7217
  196MOL0     H27015   4.564   3.585   8.246  2.6509 -0.9918  3.3790
  196MOL0     H27016   4.610   3.783   8.463  1.7837  0.5891 -1.3338
  196MOL0     H27017   4.626   3.613   8.473 -1.1140  0.9118  2.4280
  196MOL0     H27018   4.390   3.567   8.439 -1.0578  0.0392  0.8975
  196MOL0     H27019   4.344   3.735   8.423 -0.0719  0.1960 -0.8331
  196MOL0     H27020   4.475   3.593   8.660  0.3053 -0.0543  1.4049
  196MOL0     H27021   4.449   3.763   8.653  0.2419 -0.3789  0.0252
  196MOL0     H27022   4.229   3.553   8.638 -0.5904  0.3110 -0.9028
  196MOL0     H27023   4.194   3.718   8.586 -1.6541 -0.0424  2.8098
  196MOL0     H27024   4.250   3.800   8.821 -0.0211 -0.4847  3.6996
  196MOL0     H27025   4.309   3.645   8.861 -1.1879 -0.2684  0.9263
  196MOL0     H27026   4.027   3.710   8.775 -0.0567  1.3461  0.1460
  196MOL0     H27027   4.085   3.719   8.949 -0.9069 -1.1233  1.1024
  196MOL0     H27028   4.947   3.973   8.447 -0.5288 -0.0901 -0.3229
  196MOL0     H27029   5.162   4.063   8.388 -0.6848  3.0321 -1.9636
  196MOL0     H27030   5.416   4.256   8.201 -0.7722  1.1694 -0.5745
  196MOL0     H27031   5.613   4.385   8.210 -0.5148 -0.7267  0.6683
  196MOL0     H27032   5.208   4.344   7.404  0.0851 -0.2300  0.3245
  196MOL0     H27033   4.977   4.263   7.349 -0.3270  0.4024 -1.0409
  196MOL0     H27034   4.570   4.468   7.165  0.3015 -1.2623  0.5152
  196MOL0     H27035   4.331   4.452   7.169  3.0387  1.8445 -0.0597
  196MOL0     H27036   4.119   4.359   7.253  1.9124  0.6950 -0.0829
  196MOL0     H27037   4.103   4.407   7.078 -0.4593 -1.7780 -2.0923
  196MOL0     H27038   3.943   4.234   7.037 -1.0813  0.6283  0.3436
  196MOL0     H27039   3.884   4.352   7.156  0.7646  0.8244 -0.1101
  196MOL0     H27040   3.976   4.057   7.183 -1.0452  0.4258 -1.7515
  196MOL0     H27041   3.991   4.174   7.323 -0.6219  1.4443  0.0098
  196MOL0     H27042   3.725   4.218   7.291  0.0552  1.2048 -2.0662
  196MOL0     H27043   3.775   4.053   7.340  3.9794  0.3399  0.1831
  196MOL0     H27044   3.575   3.949   6.992  0.4166 -0.1357 -0.9475
  196MOL0     H27045   4.344   4.036   7.077 -0.0723  0.0132  0.4011
  196MOL0     H27046   4.687   4.039   6.976  0.5602 -0.0049  0.4665
  196MOL0     H27047   4.640   3.960   7.124  0.6434  2.7794  1.3995
  196MOL0     H27048   4.526   3.950   6.993 -0.7380  0.3099  1.6526
  197MOL0     O27049   9.646   2.227   1.302 -0.5126  0.6899 -0.0581
  197MOL0     C27050   9.614   2.322   1.367  0.7790  0.1710  0.1046
  197MOL0     O27051   9.694   2.388   1.448 -1.1489 -0.0101 -0.1723
  197MOL0     C27052   9.830   2.373   1.426  0.9468  0.3970 -0.5972
  197MOL0     C27053   9.908   2.303   1.520 -0.5166 -0.6846  0.0275
  197MOL0     C27054  10.050   2.327   1.504 -0.6928 -0.0077 -0.3165
  197MOL0     C27055  10.104   2.386   1.386  0.0474 -0.0846  1.0084
  197MOL0     O27056  10.242   2.391   1.379 -0.1422 -0.4563 -0.9428
  197MOL0     C27057  10.292   2.469   1.266  0.2977  0.1586 -0.5246
  197MOL0     C27058  10.442   2.497   1.299  0.3001 -0.0446  0.1126
  197MOL0     C27059  10.529   2.367   1.312  0.8108 -0.0173  0.5592
  197MOL0     C27060  10.682   2.382   1.329  0.3803 -1.2529  0.1922
  197MOL0     C27061  10.743   2.249   1.354  0.7575  0.0111 -0.3059
  197MOL0     C27062  10.896   2.270   1.364  0.3161  0.3741  0.1716
  197MOL0     C27063  10.958   2.129   1.403 -0.1286 -0.1172 -0.0681
  197MOL0     C27064  11.110   2.142   1.384  0.3066  0.0360 -0.1109
  197MOL0     N27065  11.165   2.224   1.485 -0.3371 -1.0410 -0.0502
  197MOL0     C27066  11.227   2.187   1.601 -0.5513 -0.2047  0.1804
  197MOL0     C27067  11.277   2.304   1.655 -0.4564  0.2856  0.7525
  197MOL0     C27068  11.338   2.319   1.796 -0.3524  0.3034 -0.1688
  197MOL0     C27069  11.488   2.307   1.796 -0.0498  0.4159 -0.2349
  197MOL0     C27070  11.547   2.439   1.767  0.9395 -0.6553  0.2687
  197MOL0     C27071  11.697   2.421   1.752  0.5286 -0.2891  0.4613
  197MOL0     O27072  11.767   2.542   1.719 -0.2337 -0.2200 -0.1973
  197MOL0     C27073  11.864   2.552   1.618  0.1450 -0.2117  0.0918
  197MOL0     C27074  11.929   2.451   1.565  0.2464  0.0512 -0.2846
  197MOL0     C27075  12.017   2.456   1.455 -0.2154 -0.2420  0.5212
  197MOL0     C27076  12.079   2.329   1.404 -0.0168 -0.0049 -0.4032
  197MOL0     C27077  12.049   2.580   1.392  0.1154  0.8659 -0.2442
  197MOL0     C27078  12.137   2.606   1.276  0.2625  0.3075 -0.7063
  197MOL0     O27079  12.162   2.739   1.261  0.1322  0.5544 -0.0940
  197MOL0     C27080  12.249   2.757   1.160  0.3616 -0.0010  0.4669
  197MOL0     C27081  12.385   2.742   1.181  0.2638  0.9909  0.2924
  197MOL0     C27082  12.482   2.764   1.077  0.7945 -0.2341 -1.0880
  197MOL0     C27083  12.445   2.802   0.948  0.4625 -0.4892  0.0181
  197MOL0     O27084  12.537   2.822   0.851  0.0429 -0.2049 -0.6319
  197MOL0     C27085  12.518   2.955   0.799  0.1795  0.0151  0.4249
  197MOL0     C27086  12.649   3.010   0.732 -0.3189  0.6515 -0.3159
  197MOL0     C27087  12.770   3.023   0.830  0.4087  0.1334 -0.0989
  197MOL0     C27088  12.894   3.105   0.778  0.2833 -0.6537  0.0537
  197MOL0     C27089  13.008   3.112   0.879  0.3178  0.0994 -1.5131
  197MOL0     C27090  13.141   3.148   0.803 -0.1717  0.3748 -0.4594
  197MOL0     C27091  13.142   3.282   0.732 -0.1231  1.0729 -0.3451
  197MOL0     C27092  13.256   3.294   0.633 -0.4198 -0.6538 -0.0282
  197MOL0    Cl27093  13.254   3.462   0.564 -0.1261 -0.0924 -0.0007
  197MOL0     C27094  12.304   2.811   0.928  0.8035 -0.3711 -0.1095
  197MOL0     C27095  12.212   2.780   1.029  1.2120 -0.6507  0.5047
  197MOL0     O27096  12.185   2.516   1.212  0.4702 -0.4513 -0.0327
  197MOL0     C27097  11.990   2.691   1.462 -0.1383 -0.5746  0.0579
  197MOL0     C27098  11.895   2.678   1.562  0.3438  0.2187 -0.1475
  197MOL0     N27099  11.250   2.409   1.564 -1.1648  0.8339  0.4568
  197MOL0     N27100  11.173   2.361   1.467 -0.5462 -0.0447 -0.5123
  197MOL0     C27101  10.017   2.438   1.287 -0.2036  0.1551 -0.3669
  197MOL0     C27102   9.881   2.446   1.311  0.8755  0.0795 -0.0026
  197MOL0     C27103   9.467   2.350   1.361 -0.6106 -1.3222 -0.2757
  197MOL0     C27104   9.384   2.261   1.300 -0.5335  0.0055 -0.2605
  197MOL0     C27105   9.249   2.263   1.294 -0.0804 -0.2816  0.0998
  197MOL0     C27106   9.183   2.372   1.358 -0.3544 -0.4636 -0.0189
  197MOL0     O27107   9.044   2.364   1.372 -0.0627  0.7490  0.1294
  197MOL0     C27108   8.963   2.288   1.282 -1.1669 -0.6719  0.1152
  197MOL0     C27109   8.826   2.353   1.282  0.0884 -0.1858  0.0636
  197MOL0     C27110   8.827   2.494   1.224 -0.2953  0.3181 -0.2444
  197MOL0     C27111   8.684   2.557   1.246 -0.8644 -0.4623 -0.9911
  197MOL0     C27112   8.678   2.649   1.364  0.7280  0.9821  0.2857
  197MOL0     C27113   8.667   2.715   1.457  0.5485  0.9577 -0.4874
  197MOL0     C27114   9.259   2.469   1.418 -0.0658  0.1657 -0.3182
  197MOL0     C27115   9.401   2.461   1.427  0.3111  0.2694 -0.9416
  197MOL0     C27116   9.475   2.566   1.502  0.1304  0.3778  0.1462
  197MOL0     H27117   9.854   2.246   1.593 -1.3046 -0.0310 -0.0286
  197MOL0     H27118  10.121   2.274   1.566  1.3349  1.4108 -1.3257
  197MOL0     H27119  10.238   2.563   1.253  0.8589  0.6587  0.5588
  197MOL0     H27120  10.286   2.399   1.183 -1.9644  0.0206 -0.2992
  197MOL0     H27121  10.487   2.561   1.222  1.3491 -1.5502 -0.5811
  197MOL0     H27122  10.435   2.562   1.387  0.5499  0.6400 -0.3585
  197MOL0     H27123  10.496   2.319   1.405 -0.8337  0.5059  0.2768
  197MOL0     H27124  10.498   2.300   1.231  2.7831  1.8843 -1.9514
  197MOL0     H27125  10.722   2.427   1.238  0.8899  0.5891  1.2826
  197MOL0     H27126  10.699   2.451   1.412  1.1047  0.6088 -1.4302
  197MOL0     H27127  10.717   2.175   1.277 -0.8903  0.7441 -0.5102
  197MOL0     H27128  10.700   2.214   1.449 -0.9532 -0.7963 -1.3190
  197MOL0     H27129  10.931   2.300   1.265  2.0405 -1.6067  0.1053
  197MOL0     H27130  10.914   2.342   1.445 -3.3029 -1.1796  2.6179
  197MOL0     H27131  10.921   2.061   1.326 -0.9093  1.0367 -0.7572
  197MOL0     H27132  10.929   2.092   1.501 -0.4316  0.2233 -0.0258
  197MOL0     H27133  11.144   2.040   1.403  0.1550  0.1915  1.0314
  197MOL0     H27134  11.143   2.163   1.282  1.6555  0.8413  0.4732
  197MOL0     H27135  11.232   2.087   1.644 -0.7608 -0.7257 -0.9786
  197MOL0     H27136  11.292   2.249   1.865  2.0045 -0.6146  0.5779
  197MOL0     H27137  11.325   2.420   1.836 -1.6975  0.4273 -0.8736
  197MOL0     H27138  11.520   2.273   1.895  0.8113 -2.8774 -1.5198
  197MOL0     H27139  11.535   2.231   1.734  2.4450  0.8424  1.0163
  197MOL0     H27140  11.513   2.475   1.670  0.6356 -2.2756 -0.2485
  197MOL0     H27141  11.527   2.518   1.841  3.1942 -0.7308  1.0661
  197MOL0     H27142  11.733   2.379   1.846  0.4352  0.7851  0.9847
  197MOL0     H27143  11.713   2.337   1.684 -0.1022 -0.0423 -0.0099
  197MOL0     H27144  11.912   2.361   1.623  0.4198 -0.2318 -0.6629
  197MOL0     H27145  12.017   2.250   1.448 -0.4957  0.7107  0.2365
  197MOL0     H27146  12.182   2.321   1.440  0.6624  1.4875 -1.8730
  197MOL0     H27147  12.079   2.320   1.295 -0.9936 -0.5256 -0.3668
  197MOL0     H27148  12.415   2.716   1.282  2.9083  0.9801 -0.4169
  197MOL0     H27149  12.585   2.743   1.106  0.1295 -1.8648  0.2936
  197MOL0     H27150  12.436   2.954   0.726 -0.5793 -0.5375  1.2642
  197MOL0     H27151  12.484   3.019   0.880 -1.4248 -0.3083  0.0432
  197MOL0     H27152  12.679   2.954   0.643  0.9966 -1.3100  1.2760
  197MOL0     H27153  12.618   3.113   0.712  0.7279  1.0170 -0.1097
  197MOL0     H27154  12.795   2.919   0.855 -2.5687 -0.3927  1.0283
  197MOL0     H27155  12.741   3.075   0.922  2.1472  1.7478 -0.3958
  197MOL0     H27156  12.858   3.208   0.770 -0.0494 -0.7070  0.7398
  197MOL0     H27157  12.922   3.064   0.680 -3.5176 -0.6445 -1.2050
  197MOL0     H27158  12.994   3.186   0.959  1.6870  1.8754 -2.8197
  197MOL0     H27159  13.016   3.016   0.930  1.0584  1.8517  1.9450
  197MOL0     H27160  13.162   3.074   0.725  2.3335  1.2466 -0.7197
  197MOL0     H27161  13.220   3.142   0.878 -1.4349  1.7592  1.0462
  197MOL0     H27162  13.155   3.363   0.804 -0.7420  0.2250  0.7643
  197MOL0     H27163  13.058   3.299   0.663 -0.0528  0.1836 -0.6706
  197MOL0     H27164  13.249   3.225   0.548  1.2179 -0.7010 -0.1596
  197MOL0     H27165  13.353   3.280   0.681  0.0082  0.5109 -0.5055
  197MOL0     H27166  12.274   2.843   0.828 -2.1426  1.8312  1.3049
  197MOL0     H27167  12.109   2.793   0.999  2.1391 -1.0395 -3.4144
  197MOL0     H27168  12.021   2.787   1.422 -0.8103 -0.6951 -0.7740
  197MOL0     H27169  11.834   2.758   1.603  1.6489  1.2352 -0.1151
  197MOL0     H27170  10.048   2.470   1.188 -0.0191 -1.0298 -0.7133
  197MOL0     H27171   9.806   2.490   1.246 -1.6106 -0.3741  2.3678
  197MOL0     H27172   9.421   2.171   1.253 -0.8789  0.2125 -0.9491
  197MOL0     H27173   9.202   2.176   1.248 -0.8893 -0.1035  0.5668
  197MOL0     H27174   9.006   2.296   1.182 -1.7251 -0.0634 -0.0894
  197MOL0     H27175   8.968   2.183   1.312  1.2330 -0.6195  0.0672
  197MOL0     H27176   8.793   2.344   1.386  1.3135 -0.3768  0.4574
  197MOL0     H27177   8.762   2.300   1.210 -1.1883 -0.7184  1.5182
  197MOL0     H27178   8.905   2.554   1.270 -1.4329  0.0573  2.1634
  197MOL0     H27179   8.840   2.490   1.115 -2.6161 -2.4285 -0.5534
  197MOL0     H27180   8.612   2.476   1.259 -0.6383 -0.1336  3.9195
  197MOL0     H27181   8.642   2.617   1.165 -5.0589  1.4761  2.2819
  197MOL0     H27182   8.635   2.766   1.546  1.4320  1.9287 -0.7169
  197MOL0     H27183   9.203   2.544   1.472 -0.1779 -0.6587  0.7557
  197MOL0     H27184   9.557   2.605   1.441  0.5079  0.0050  0.4062
  197MOL0     H27185   9.412   2.652   1.527  1.2212  1.2057  0.1479
  197MOL0     H27186   9.510   2.520   1.596 -2.2509 -0.3162  0.7530
  198MOL0     O27187   9.399   8.678   5.717 -0.3109 -0.1293  0.2433
  198MOL0     C27188   9.315   8.757   5.687 -0.2575  0.2103  0.2297
  198MOL0     O27189   9.351   8.879   5.623  0.6034  0.2449  0.0310
  198MOL0     C27190   9.479   8.922   5.623  0.3321  0.3801 -0.4187
  198MOL0     C27191   9.515   9.040   5.701 -0.2199  0.9217  0.0728
  198MOL0     C27192   9.644   9.077   5.731 -0.4853  0.5451 -0.5853
  198MOL0     C27193   9.753   9.001   5.679  0.0733  0.2431  0.1645
  198MOL0     O27194   9.884   9.045   5.713 -0.4063 -0.4373  0.3286
  198MOL0     C27195   9.994   8.966   5.664 -0.1058 -0.9805 -0.2231
  198MOL0     C27196  10.117   9.020   5.734 -0.4153 -0.0993 -1.1625
  198MOL0     C27197  10.159   9.159   5.679  0.3981 -0.5919  0.2387
  198MOL0     C27198  10.286   9.207   5.757 -0.1476  0.6511 -0.0722
  198MOL0     C27199  10.301   9.357   5.763  0.3528  0.2815 -0.6443
  198MOL0     C27200  10.270   9.425   5.633 -0.1871  0.1605  1.4676
  198MOL0     C27201  10.348   9.375   5.501  1.1195 -0.5606 -0.5898
  198MOL0     C27202  10.462   9.479   5.460  0.0567 -0.3730  1.0168
  198MOL0     N27203  10.558   9.499   5.573  0.4779  0.5612 -0.0486
  198MOL0     C27204  10.629   9.396   5.628  0.1577  0.0057 -0.5030
  198MOL0     C27205  10.679   9.449   5.741  0.2586 -0.2318 -0.6853
  198MOL0     C27206  10.755   9.370   5.843  0.0497 -0.7167  0.6596
  198MOL0     C27207  10.698   9.241   5.909  0.7189 -0.6901  0.4384
  198MOL0     C27208  10.815   9.177   5.988  0.1011 -0.4656  0.3930
  198MOL0     C27209  10.758   9.095   6.100 -0.3683  0.8511 -1.1188
  198MOL0     O27210  10.871   9.005   6.130 -0.1716 -0.2523 -0.1254
  198MOL0     C27211  10.991   9.044   6.178 -0.4462 -0.1123  0.2789
  198MOL0     C27212  11.012   9.158   6.262 -0.4037 -0.4547 -0.2034
  198MOL0     C27213  11.139   9.211   6.296  0.1603 -0.5603 -0.3321
  198MOL0     C27214  11.146   9.332   6.397  0.0180 -0.3455 -0.6244
  198MOL0     C27215  11.254   9.135   6.260  0.3135  1.3203 -0.5177
  198MOL0     C27216  11.389   9.180   6.280  0.1574  0.3435  0.0447
  198MOL0     O27217  11.406   9.316   6.263 -0.4403 -0.1146  1.0073
  198MOL0     C27218  11.512   9.373   6.321 -0.1414 -0.0212 -0.4782
  198MOL0     C27219  11.493   9.470   6.422 -0.2959 -0.1894  0.0608
  198MOL0     C27220  11.605   9.545   6.471  0.3376  0.3921  0.9285
  198MOL0     C27221  11.734   9.524   6.426 -0.0131 -0.5529 -1.5821
  198MOL0     O27222  11.850   9.582   6.481 -0.1133  0.1139  0.6979
  198MOL0     C27223  11.842   9.691   6.566 -0.3652  0.2241  0.6118
  198MOL0     C27224  11.972   9.768   6.552 -0.4410  0.1897 -0.0402
  198MOL0     C27225  12.069   9.703   6.655 -0.7190 -0.8275  0.6353
  198MOL0     C27226  12.100   9.556   6.632  0.0773  0.4816 -0.0488
  198MOL0     C27227  12.195   9.501   6.745 -0.4798 -0.2762  0.4530
  198MOL0     C27228  12.263   9.371   6.726 -0.9335  0.0366  0.4892
  198MOL0     C27229  12.394   9.388   6.645  0.4592  0.4683  0.5236
  198MOL0     C27230  12.467   9.252   6.630  1.0081 -0.9580  0.7314
  198MOL0    Cl27231  12.602   9.253   6.517 -0.2324  0.3108  0.5533
  198MOL0     C27232  11.746   9.443   6.322  0.1645 -0.0754 -0.5377
  198MOL0     C27233  11.646   9.357   6.275  0.3716 -0.8713  0.4610
  198MOL0     O27234  11.475   9.096   6.286  0.2841 -0.4765 -0.1974
  198MOL0     C27235  11.229   9.021   6.179  0.4122  1.1018  0.4238
  198MOL0     C27236  11.102   8.972   6.135  0.3999  0.7146 -0.5580
  198MOL0     N27237  10.654   9.584   5.739 -0.0552  0.5652 -0.1834
  198MOL0     N27238  10.580   9.615   5.638 -0.1507  0.6383  0.0047
  198MOL0     C27239   9.718   8.882   5.603  0.1953  0.4223  0.7245
  198MOL0     C27240   9.584   8.843   5.564  0.7340 -0.9865 -0.3692
  198MOL0     C27241   9.166   8.734   5.709  0.5130  0.3903 -0.0015
  198MOL0     C27242   9.072   8.833   5.668 -0.0782 -0.3397 -0.2919
  198MOL0     C27243   8.937   8.821   5.685  0.1652  0.4567  0.0493
  198MOL0     C27244   8.878   8.707   5.739 -0.1896 -0.5895 -0.5798
  198MOL0     O27245   8.744   8.686   5.765  0.3498 -0.6793 -0.5593
  198MOL0     C27246   8.650   8.795   5.732 -0.1879  0.2349  0.0548
  198MOL0     C27247   8.511   8.772   5.788 -1.1138 -0.0157  0.0158
  198MOL0     C27248   8.503   8.760   5.936  0.4414 -0.1771 -0.8926
  198MOL0     C27249   8.381   8.689   5.994 -0.1236  0.6685  0.0812
  198MOL0     C27250   8.290   8.794   6.043 -0.1748 -0.0319 -0.1672
  198MOL0     C27251   8.228   8.887   6.098  0.2144  0.5246  0.1263
  198MOL0     C27252   8.967   8.614   5.786  0.1410 -0.1273 -0.5702
  198MOL0     C27253   9.109   8.624   5.781  0.8136 -0.3887 -0.3416
  198MOL0     C27254   9.177   8.514   5.855  0.1664 -0.0075 -0.0756
  198MOL0     H27255   9.432   9.093   5.747 -1.2722 -1.2498  0.8217
  198MOL0     H27256   9.670   9.169   5.783 -1.2545 -0.2646  1.3411
  198MOL0     H27257   9.990   8.976   5.555 -2.1391  0.5110 -0.0733
  198MOL0     H27258   9.969   8.867   5.701  1.2559 -0.9109  0.9612
  198MOL0     H27259  10.108   9.024   5.843  1.6620  0.3192 -0.9545
  198MOL0     H27260  10.199   8.947   5.729  0.6135  0.6747  2.0875
  198MOL0     H27261  10.180   9.156   5.572  0.1510  1.6661  0.0646
  198MOL0     H27262  10.075   9.228   5.695  0.6456  0.6495 -3.0180
  198MOL0     H27263  10.288   9.168   5.859  2.8072  0.8435  0.0194
  198MOL0     H27264  10.375   9.168   5.708  0.1244  3.1262 -1.7644
  198MOL0     H27265  10.406   9.378   5.788  0.0432  2.8210 -1.1743
  198MOL0     H27266  10.241   9.403   5.843  0.7756  2.1226 -1.3412
  198MOL0     H27267  10.163   9.423   5.610  0.4032  2.0688 -2.0899
  198MOL0     H27268  10.292   9.532   5.638 -0.1580  0.1313  2.0348
  198MOL0     H27269  10.282   9.363   5.416  1.5825  0.1361 -1.0569
  198MOL0     H27270  10.393   9.278   5.523  0.7518 -0.5271  0.3768
  198MOL0     H27271  10.508   9.424   5.377 -1.9550  1.0046 -1.1564
  198MOL0     H27272  10.429   9.580   5.431 -1.1478 -0.8767  0.5445
  198MOL0     H27273  10.642   9.295   5.593  1.4489 -0.2390  0.6051
  198MOL0     H27274  10.777   9.443   5.921 -1.0361  1.2024 -0.7612
  198MOL0     H27275  10.854   9.353   5.799 -0.7429  0.8135 -1.8680
  198MOL0     H27276  10.624   9.278   5.980  2.5497  2.9592  0.6512
  198MOL0     H27277  10.656   9.164   5.843 -2.0321 -1.2282  2.6253
  198MOL0     H27278  10.871   9.113   5.919 -0.0619 -0.0459 -0.1368
  198MOL0     H27279  10.888   9.250   6.024 -0.2929  0.1998 -0.1403
  198MOL0     H27280  10.724   9.155   6.185  1.9862  0.7350 -0.0116
  198MOL0     H27281  10.672   9.033   6.071 -0.2665 -0.0880  0.4542
  198MOL0     H27282  10.925   9.214   6.296  0.0428 -1.4341  2.9274
  198MOL0     H27283  11.070   9.335   6.476  1.6620 -1.6911  1.0930
  198MOL0     H27284  11.149   9.425   6.339  3.0569  0.1436  0.1544
  198MOL0     H27285  11.234   9.324   6.462 -1.4361 -0.7736  1.3865
  198MOL0     H27286  11.387   9.485   6.441 -0.5121 -1.7775  0.2370
  198MOL0     H27287  11.592   9.612   6.555  1.2437  0.9324  0.6533
  198MOL0     H27288  11.769   9.762   6.525  0.0897 -0.1586 -0.9591
  198MOL0     H27289  11.825   9.664   6.670 -0.4275  0.2630  0.6121
  198MOL0     H27290  12.008   9.772   6.449 -2.0139  0.1776 -0.6265
  198MOL0     H27291  11.950   9.869   6.587 -2.1357 -0.0938 -0.1653
  198MOL0     H27292  12.029   9.720   6.755  0.1735  1.3069  0.6740
  198MOL0     H27293  12.164   9.755   6.644 -1.2576 -0.3373 -3.4870
  198MOL0     H27294  12.147   9.548   6.533  0.5900  2.1140  0.0382
  198MOL0     H27295  12.006   9.501   6.639  0.1898  0.1902 -0.7352
  198MOL0     H27296  12.257   9.585   6.777 -1.8990  0.7429  0.6217
  198MOL0     H27297  12.130   9.485   6.832 -1.7145 -0.7850 -0.5254
  198MOL0     H27298  12.191   9.306   6.676 -2.8809  1.4321  1.3370
  198MOL0     H27299  12.292   9.319   6.818 -0.3115 -2.5472 -1.0744
  198MOL0     H27300  12.463   9.454   6.698 -0.7300  1.8831  0.3660
  198MOL0     H27301  12.371   9.422   6.543  3.0649 -1.0190 -0.6521
  198MOL0     H27302  12.391   9.183   6.591 -1.4669  2.3749 -0.7916
  198MOL0     H27303  12.493   9.215   6.730  0.4223 -1.5004  0.6955
  198MOL0     H27304  11.847   9.447   6.282 -0.0181 -0.3854 -1.0426
  198MOL0     H27305  11.675   9.301   6.187  0.5370 -0.2447  0.1071
  198MOL0     H27306  11.311   8.959   6.142  1.2014  1.3180  1.7646
  198MOL0     H27307  11.088   8.893   6.062 -0.3089  0.9713 -0.7005
  198MOL0     H27308   9.805   8.826   5.568  0.5295  2.6780 -2.5324
  198MOL0     H27309   9.572   8.755   5.501 -3.6481 -1.5456  0.8803
  198MOL0     H27310   9.103   8.926   5.621 -0.0007  0.9369  2.1424
  198MOL0     H27311   8.870   8.896   5.644  0.8389  1.1910  0.2793
  198MOL0     H27312   8.688   8.886   5.780  1.4025 -0.8624  0.9943
  198MOL0     H27313   8.646   8.815   5.625  1.4430 -0.1134 -0.0939
  198MOL0     H27314   8.470   8.681   5.743 -0.7886  0.3066 -0.9582
  198MOL0     H27315   8.437   8.843   5.749 -1.0994 -0.0682 -0.1055
  198MOL0     H27316   8.584   8.691   5.962 -0.4822 -0.9250  0.0732
  198MOL0     H27317   8.511   8.860   5.981 -1.0687 -0.6404  0.5155
  198MOL0     H27318   8.407   8.622   6.076 -0.5639  1.9071  1.2738
  198MOL0     H27319   8.342   8.628   5.912  0.6104  2.7872 -1.9596
  198MOL0     H27320   8.186   8.966   6.156 -1.0038 -0.6111  0.8469
  198MOL0     H27321   8.923   8.522   5.825  0.1963 -1.6664 -3.8041
  198MOL0     H27322   9.129   8.486   5.949  0.3434 -0.2967 -0.0707
  198MOL0     H27323   9.196   8.425   5.795  3.2455  0.3627  0.1398
  198MOL0     H27324   9.278   8.546   5.884 -0.7618  2.8887  0.2564
  199MOL0     O27325   5.184   7.096   0.644  0.5375  0.2338 -0.0076
  199MOL0     C27326   5.090   7.159   0.598  0.4889  0.0193  0.0719
  199MOL0     O27327   5.083   7.196   0.469 -0.5203 -1.0151  0.7013
  199MOL0     C27328   5.177   7.137   0.383  0.9850 -0.3611 -1.1913
  199MOL0     C27329   5.305   7.164   0.398  0.9283 -0.2810 -0.5181
  199MOL0     C27330   5.398   7.101   0.315  0.5335  0.3595  0.2421
  199MOL0     C27331   5.355   7.014   0.209 -0.9231 -0.0415  0.9891
  199MOL0     O27332   5.442   6.950   0.118  0.9910 -0.4707 -0.0988
  199MOL0     C27333   5.578   6.983   0.135  0.4142 -0.1540 -0.0385
  199MOL0     C27334   5.655   6.882   0.048 -0.7365  0.3051 -0.6225
  199MOL0     C27335   5.805   6.900   0.088 -0.2467 -0.5891 -0.6154
  199MOL0     C27336   5.892   6.946  -0.032  0.4754 -0.8081 -0.3378
  199MOL0     C27337   6.032   7.002   0.012  0.1426 -0.0018 -0.1367
  199MOL0     C27338   6.080   7.080  -0.109 -0.4619  0.3134  0.6784
  199MOL0     C27339   6.210   7.165  -0.084  0.4302  0.5068  0.1604
  199MOL0     C27340   6.318   7.093  -0.000 -0.5519  0.4307  0.6895
  199MOL0     N27341   6.435   7.184   0.022 -0.0703 -0.6774  0.0489
  199MOL0     C27342   6.425   7.314   0.075 -0.7533  0.9399 -0.7269
  199MOL0     C27343   6.550   7.361   0.051  0.4134 -0.5165  0.0228
  199MOL0     C27344   6.612   7.496   0.059 -0.5563 -0.8371 -0.1574
  199MOL0     C27345   6.517   7.618   0.082 -0.4132 -0.5662  0.4447
  199MOL0     C27346   6.595   7.752   0.050  0.1282 -0.4147 -0.6248
  199MOL0     C27347   6.701   7.777   0.162 -0.0342 -0.3247  0.3607
  199MOL0     O27348   6.789   7.889   0.117  0.0323  0.7646  0.2344
  199MOL0     C27349   6.889   7.916   0.202 -0.4750 -0.7789 -0.1261
  199MOL0     C27350   6.950   8.043   0.186 -0.3133 -0.2269  0.1107
  199MOL0     C27351   7.063   8.087   0.261 -1.0304 -1.3781  0.7188
  199MOL0     C27352   7.116   8.224   0.233 -0.9822 -0.5154  0.4608
  199MOL0     C27353   7.121   8.001   0.364  1.6557  0.9627  0.6069
  199MOL0     C27354   7.228   8.037   0.465 -0.4376  0.1420 -0.3882
  199MOL0     O27355   7.309   7.945   0.528 -0.4956  0.4748  0.9811
  199MOL0     C27356   7.378   7.985   0.644 -0.8040 -0.6908 -0.2151
  199MOL0     C27357   7.322   7.940   0.763 -0.0166 -1.3972 -0.2610
  199MOL0     C27358   7.375   7.970   0.890 -0.8068  0.3670  0.1874
  199MOL0     C27359   7.499   8.040   0.898 -0.1126 -0.0448  0.7604
  199MOL0     O27360   7.548   8.045   1.030  0.2529 -0.3944 -0.7793
  199MOL0     C27361   7.679   8.101   1.055  0.9467  0.1737 -0.2307
  199MOL0     C27362   7.731   8.079   1.199 -0.2206  0.3976 -0.3466
  199MOL0     C27363   7.884   8.061   1.217  0.1772  0.0525  0.6131
  199MOL0     C27364   7.911   8.002   1.360  0.9049  0.1925 -0.2523
  199MOL0     C27365   8.061   8.009   1.391 -0.6835  0.3112  0.1690
  199MOL0     C27366   8.111   7.936   1.511  0.0942  0.0544 -0.2207
  199MOL0     C27367   8.040   7.947   1.644  0.2869  0.4641  0.5693
  199MOL0     C27368   8.137   7.885   1.743 -0.1100  0.1438  0.3645
  199MOL0    Cl27369   8.168   7.715   1.717 -0.4335  0.2095 -0.1055
  199MOL0     C27370   7.552   8.088   0.779 -0.1490  0.4425  0.0183
  199MOL0     C27371   7.491   8.073   0.655 -0.7176  1.1425  0.3272
  199MOL0     O27372   7.229   8.157   0.500 -0.0990 -0.5354 -0.2943
  199MOL0     C27373   7.068   7.869   0.367 -0.7735 -0.1391  0.1894
  199MOL0     C27374   6.953   7.835   0.298  0.3432  0.0862 -0.1466
  199MOL0     N27375   6.636   7.266   0.013 -0.3158 -0.2261  0.1566
  199MOL0     N27376   6.570   7.157  -0.013  0.6415 -0.1727 -1.2341
  199MOL0     C27377   5.220   6.991   0.194 -0.2320  0.0443  0.1632
  199MOL0     C27378   5.129   7.050   0.284 -0.1341 -0.5774 -0.5412
  199MOL0     C27379   4.980   7.206   0.685  0.4932  0.4581 -0.1946
  199MOL0     C27380   4.853   7.219   0.625 -0.9068  0.4720  0.7804
  199MOL0     C27381   4.742   7.259   0.698 -0.4778 -0.2565  0.0406
  199MOL0     C27382   4.754   7.295   0.835 -0.1402 -0.3803 -0.1438
  199MOL0     O27383   4.647   7.332   0.908  0.6107  0.4194 -0.0186
  199MOL0     C27384   4.517   7.345   0.849  0.7782  0.4922  0.2396
  199MOL0     C27385   4.425   7.345   0.974  0.0180  0.0880 -0.0320
  199MOL0     C27386   4.283   7.363   0.939 -0.0750 -0.0940 -0.0419
  199MOL0     C27387   4.208   7.404   1.064 -0.1633  0.6889  0.1581
  199MOL0     C27388   4.065   7.422   1.050  0.8221 -0.3912 -0.0226
  199MOL0     C27389   3.942   7.423   1.069  0.1428  0.0392  0.6701
  199MOL0     C27390   4.881   7.292   0.896 -0.1645 -0.2705  0.2180
  199MOL0     C27391   4.992   7.241   0.825  0.0653 -0.1887  0.6972
  199MOL0     C27392   5.123   7.224   0.906 -0.0865  0.0789  0.3344
  199MOL0     H27393   5.339   7.214   0.488  0.9608 -2.9555  1.0780
  199MOL0     H27394   5.501   7.127   0.336  1.5644 -2.0104 -1.4122
  199MOL0     H27395   5.603   6.970   0.241 -1.0389 -0.6213  0.2664
  199MOL0     H27396   5.596   7.086   0.104  1.1900 -0.4065 -0.4450
  199MOL0     H27397   5.627   6.777   0.066  3.3535 -1.5391 -3.5127
  199MOL0     H27398   5.635   6.895  -0.058 -0.4319  0.6250 -0.6411
  199MOL0     H27399   5.812   6.963   0.178  2.2205  1.0342 -1.8475
  199MOL0     H27400   5.854   6.806   0.117 -0.7767  0.1133  3.1834
  199MOL0     H27401   5.912   6.876  -0.114  1.7425 -0.6757 -0.1701
  199MOL0     H27402   5.828   7.023  -0.075 -1.1282  0.3654  3.6732
  199MOL0     H27403   6.101   6.921   0.038  1.7272  1.4256  0.3126
  199MOL0     H27404   6.029   7.057   0.107 -0.4760 -0.9501  0.4197
  199MOL0     H27405   6.107   7.014  -0.192 -1.8904  1.3969 -0.7191
  199MOL0     H27406   6.001   7.140  -0.154 -0.8368 -1.2098 -0.7747
  199MOL0     H27407   6.181   7.249  -0.021 -1.2013 -1.1946  1.8284
  199MOL0     H27408   6.258   7.209  -0.172 -0.0762  1.5957  0.4076
  199MOL0     H27409   6.276   7.063   0.096  2.4541  0.4146  2.1332
  199MOL0     H27410   6.355   7.005  -0.054  0.0346  0.3069  1.2791
  199MOL0     H27411   6.345   7.379   0.108 -1.1491  0.6124 -1.0436
  199MOL0     H27412   6.675   7.515  -0.028 -0.0427 -0.7768  0.2230
  199MOL0     H27413   6.675   7.487   0.148 -0.4135 -0.1386 -0.1817
  199MOL0     H27414   6.435   7.611   0.010 -0.3823 -1.4073  0.4778
  199MOL0     H27415   6.479   7.613   0.185  0.7719 -2.2528  0.8635
  199MOL0     H27416   6.653   7.741  -0.043  0.2899  4.9596 -1.4800
  199MOL0     H27417   6.531   7.840   0.046 -0.9068 -1.1753 -1.2715
  199MOL0     H27418   6.655   7.811   0.255  0.9240 -0.4966  0.9114
  199MOL0     H27419   6.754   7.684   0.185  2.4299  1.2245  1.4348
  199MOL0     H27420   6.909   8.109   0.110  0.6800  1.1625  0.7327
  199MOL0     H27421   7.225   8.224   0.242 -0.7185 -1.1635 -1.9830
  199MOL0     H27422   7.069   8.306   0.288 -0.3604  0.5910 -0.6216
  199MOL0     H27423   7.091   8.244   0.128  2.5416 -2.4163 -0.9001
  199MOL0     H27424   7.249   7.859   0.754 -0.8866 -0.5149 -1.4699
  199MOL0     H27425   7.328   7.934   0.981 -0.0513 -0.6929  0.1596
  199MOL0     H27426   7.746   8.045   0.990 -1.1556 -0.5091 -1.9437
  199MOL0     H27427   7.678   8.209   1.036  2.7191  0.6200  1.8141
  199MOL0     H27428   7.702   8.164   1.261 -0.1968  0.6347 -0.6545
  199MOL0     H27429   7.684   7.990   1.241  0.3190 -0.2272 -1.0520
  199MOL0     H27430   7.939   8.155   1.202 -1.9821  1.2860 -0.0352
  199MOL0     H27431   7.923   8.002   1.134 -0.4536  1.4161 -0.7240
  199MOL0     H27432   7.878   7.898   1.360 -0.6625  0.6611  0.3896
  199MOL0     H27433   7.853   8.050   1.439 -0.2356 -2.0452  0.3456
  199MOL0     H27434   8.127   7.975   1.310  1.2612 -0.0552  1.8188
  199MOL0     H27435   8.082   8.116   1.398 -1.8581  0.5303  0.5483
  199MOL0     H27436   8.218   7.954   1.524 -0.4284  3.7659  0.1329
  199MOL0     H27437   8.087   7.831   1.492  1.1861 -1.0927  3.8350
  199MOL0     H27438   7.947   7.891   1.633  1.5691 -1.8702  0.8638
  199MOL0     H27439   8.020   8.051   1.673  0.5890 -0.3492  4.2137
  199MOL0     H27440   8.108   7.905   1.847  0.5701 -1.0188  0.7967
  199MOL0     H27441   8.226   7.948   1.739  0.7227 -1.0489 -0.7510
  199MOL0     H27442   7.652   8.128   0.786  1.5569 -3.7185  3.4849
  199MOL0     H27443   7.551   8.100   0.569 -1.1550  0.2101 -0.2944
  199MOL0     H27444   7.117   7.799   0.435 -0.4357 -1.8043 -1.6870
  199MOL0     H27445   6.919   7.732   0.298  1.2555 -0.2387  1.2304
  199MOL0     H27446   5.185   6.919   0.121 -0.6089  2.0593 -1.7555
  199MOL0     H27447   5.022   7.032   0.278 -0.2327  0.4128 -4.8534
  199MOL0     H27448   4.838   7.190   0.521 -1.8011 -0.4016  1.1389
  199MOL0     H27449   4.645   7.261   0.650  0.1809 -1.0506 -1.3764
  199MOL0     H27450   4.509   7.435   0.787  3.2844 -0.8208 -2.1958
  199MOL0     H27451   4.489   7.256   0.793 -0.8896  0.8455  0.4664
  199MOL0     H27452   4.451   7.430   1.037  0.2553 -1.5943  2.2965
  199MOL0     H27453   4.453   7.258   1.034  0.1901  0.6157  0.6678
  199MOL0     H27454   4.268   7.447   0.871  1.3212  1.7881  1.8329
  199MOL0     H27455   4.235   7.275   0.896  0.0780 -0.8530  1.2700
  199MOL0     H27456   4.243   7.496   1.112 -0.4817  1.4934 -1.0724
  199MOL0     H27457   4.224   7.326   1.139 -2.3626  0.6713  0.6805
  199MOL0     H27458   3.836   7.417   1.060  0.3911 -2.0822 -2.9226
  199MOL0     H27459   4.893   7.325   0.998  4.4737  2.5063 -0.9437
  199MOL0     H27460   5.174   7.128   0.896  2.7739  1.6054 -0.8718
  199MOL0     H27461   5.198   7.300   0.883  1.7785 -0.8700  2.7726
  199MOL0     H27462   5.105   7.228   1.014  0.5171 -2.2487  0.5832
  200MOL0     O27463  11.226   7.180   7.387  0.4229  0.4646  0.5306
  200MOL0     C27464  11.157   7.169   7.495  0.5106  0.7570  0.1198
  200MOL0     O27465  11.211   7.116   7.609  0.6144 -0.1318  0.8549
  200MOL0     C27466  11.341   7.074   7.607  0.4067  0.1352  0.1657
  200MOL0     C27467  11.368   6.946   7.647  0.5624  0.9090  0.3768
  200MOL0     C27468  11.495   6.889   7.646 -0.5264  0.2109 -0.6016
  200MOL0     C27469  11.611   6.962   7.611  0.4218  0.0461  1.1070
  200MOL0     O27470  11.742   6.920   7.615 -0.4527 -0.0939  0.1495
  200MOL0     C27471  11.765   6.797   7.684 -0.7717  0.4025  1.3721
  200MOL0     C27472  11.917   6.780   7.728 -1.0116 -0.5677 -0.2027
  200MOL0     C27473  11.969   6.891   7.826  0.1347 -0.1517 -0.4952
  200MOL0     C27474  11.954   6.842   7.976  0.1763  0.1303  0.0036
  200MOL0     C27475  12.035   6.933   8.068 -0.0198 -0.3114  0.0073
  200MOL0     C27476  11.969   7.073   8.074  0.2952  0.0849 -0.0026
  200MOL0     C27477  12.010   7.157   8.193  0.2142  0.1338 -0.0477
  200MOL0     C27478  12.157   7.211   8.155  0.2698 -0.3120  0.6247
  200MOL0     N27479  12.208   7.301   8.255  0.0242 -0.1387 -0.2276
  200MOL0     C27480  12.333   7.285   8.313  0.5944 -0.5744 -0.1862
  200MOL0     C27481  12.326   7.379   8.407 -0.3831 -0.2701  0.1615
  200MOL0     C27482  12.433   7.404   8.503  0.1828  0.6403 -0.1080
  200MOL0     C27483  12.543   7.498   8.458 -0.0839  0.5772  0.1317
  200MOL0     C27484  12.486   7.632   8.417  0.8493  1.1317  0.0573
  200MOL0     C27485  12.607   7.721   8.379  0.5911  0.8184  0.2369
  200MOL0     O27486  12.697   7.678   8.282 -0.2808 -0.3543  0.3601
  200MOL0     C27487  12.828   7.723   8.302  0.7271 -0.2981  0.5634
  200MOL0     C27488  12.862   7.856   8.283  0.4906  0.3848  0.5127
  200MOL0     C27489  12.995   7.903   8.298  0.5723 -0.1839 -0.0711
  200MOL0     C27490  13.039   8.044   8.251 -1.1296  0.2385 -0.0746
  200MOL0     C27491  13.090   7.815   8.342  0.2132  1.4796 -0.4290
  200MOL0     C27492  13.228   7.856   8.368  0.7996 -0.3544 -0.0096
  200MOL0     O27493  13.239   7.954   8.461  0.2095  0.1694 -0.4632
  200MOL0     C27494  13.363   7.987   8.499 -0.2969 -0.1069 -0.5312
  200MOL0     C27495  13.415   7.951   8.628  0.3486  0.5985  0.5379
  200MOL0     C27496  13.545   7.985   8.657 -0.2426 -0.2679  0.4547
  200MOL0     C27497  13.628   8.051   8.562  0.0684  0.3591  0.1226
  200MOL0     O27498  13.760   8.066   8.595  0.0169 -0.3661 -0.3941
  200MOL0     C27499  13.852   8.134   8.513 -0.3459  0.1977 -0.8601
  200MOL0     C27500  13.972   8.160   8.597  0.1838  0.9193  0.0338
  200MOL0     C27501  14.048   8.027   8.645 -0.0507 -0.4390 -1.0222
  200MOL0     C27502  14.164   8.065   8.731 -1.0682  0.2897  0.0972
  200MOL0     C27503  14.206   7.939   8.817  0.8877  0.7076 -0.0423
  200MOL0     C27504  14.274   7.828   8.733  0.8930  0.0899 -0.4735
  200MOL0     C27505  14.269   7.698   8.816 -0.4593 -0.0591 -0.0495
  200MOL0     C27506  14.327   7.576   8.757  1.1683 -0.4536  0.2435
  200MOL0    Cl27507  14.508   7.570   8.795  0.6578 -0.1617 -0.2541
  200MOL0     C27508  13.560   8.105   8.448 -0.7605 -0.2730 -0.5055
  200MOL0     C27509  13.430   8.083   8.418  0.3663 -0.0063  0.4121
  200MOL0     O27510  13.316   7.788   8.321  0.4291  0.6765  0.5315
  200MOL0     C27511  13.051   7.673   8.366 -0.4766 -0.0792 -0.2026
  200MOL0     C27512  12.923   7.632   8.340 -0.5001  0.2961  0.5156
  200MOL0     N27513  12.203   7.456   8.397 -0.3019 -0.1848 -0.4719
  200MOL0     N27514  12.139   7.409   8.297  0.6967  0.2459  0.1511
  200MOL0     C27515  11.579   7.097   7.572 -0.9355 -0.4893  0.8076
  200MOL0     C27516  11.450   7.142   7.561  0.3975 -1.1207 -0.7001
  200MOL0     C27517  11.017   7.231   7.488 -0.2115  0.2864 -0.0092
  200MOL0     C27518  10.966   7.262   7.357 -0.6754 -1.3282 -1.0526
  200MOL0     C27519  10.842   7.316   7.345  0.5577 -0.3657 -0.5682
  200MOL0     C27520  10.763   7.334   7.454  0.0108  0.1574 -0.6789
  200MOL0     O27521  10.632   7.382   7.449  0.1600 -0.3224 -0.9165
  200MOL0     C27522  10.558   7.401   7.328 -0.3621 -1.0245  0.4532
  200MOL0     C27523  10.519   7.277   7.268  0.6975  0.7889  0.8124
  200MOL0     C27524  10.421   7.298   7.151  0.1654  0.0432 -0.4023
  200MOL0     C27525  10.381   7.163   7.086  0.3422 -0.3536 -0.3082
  200MOL0     C27526  10.248   7.189   7.032 -0.6699  0.3358  0.3944
  200MOL0     C27527  10.138   7.208   6.983  0.2374 -0.5413  0.0426
  200MOL0     C27528  10.817   7.309   7.580 -0.4165 -0.2447 -0.2994
  200MOL0     C27529  10.940   7.250   7.600 -1.1772 -0.1678 -0.1156
  200MOL0     C27530  10.979   7.193   7.731  0.5661  0.1233 -0.9582
  200MOL0     H27531  11.286   6.881   7.677  0.7165  0.8149  0.5997
  200MOL0     H27532  11.512   6.786   7.675 -0.4591  0.3628 -0.0956
  200MOL0     H27533  11.743   6.715   7.614  0.8601  0.5937  0.5707
  200MOL0     H27534  11.702   6.785   7.773 -1.4356 -4.1429  0.5537
  200MOL0     H27535  11.937   6.687   7.783 -2.3188 -0.0169  1.2479
  200MOL0     H27536  11.980   6.790   7.638 -1.3248  0.6813 -0.2970
  200MOL0     H27537  12.074   6.921   7.816  0.1399  2.3571  4.1769
  200MOL0     H27538  11.906   6.978   7.804 -1.8423 -1.6033 -0.9106
  200MOL0     H27539  11.852   6.838   8.015  0.9888  2.7688  2.7479
  200MOL0     H27540  11.994   6.742   7.994 -0.1056 -0.0855 -0.5380
  200MOL0     H27541  12.136   6.945   8.030 -0.4837 -2.0075 -1.9045
  200MOL0     H27542  12.032   6.881   8.164 -0.5554 -2.8199 -1.2746
  200MOL0     H27543  11.976   7.139   7.987 -1.7794  1.8275  1.0444
  200MOL0     H27544  11.860   7.066   8.073  0.0707  2.5566  0.4245
  200MOL0     H27545  12.014   7.097   8.285 -2.4432  0.8702  0.6246
  200MOL0     H27546  11.943   7.242   8.205  0.5208  0.2307  1.0170
  200MOL0     H27547  12.222   7.123   8.156  0.4936 -0.1581  0.1736
  200MOL0     H27548  12.146   7.267   8.062  0.2571 -0.9380  0.2427
  200MOL0     H27549  12.400   7.199   8.307  0.3133 -0.7467 -0.8939
  200MOL0     H27550  12.470   7.303   8.525 -0.9881  0.1385 -0.3752
  200MOL0     H27551  12.381   7.451   8.586  0.2875  0.2514  0.1834
  200MOL0     H27552  12.616   7.512   8.537  1.2916 -0.3315 -0.9307
  200MOL0     H27553  12.589   7.453   8.369 -0.4357  0.0025  0.2314
  200MOL0     H27554  12.418   7.621   8.331  1.7634  0.8960 -0.6506
  200MOL0     H27555  12.433   7.678   8.501 -3.0317 -2.1917 -0.2426
  200MOL0     H27556  12.561   7.812   8.339 -0.8012  0.3730  0.7706
  200MOL0     H27557  12.654   7.746   8.475 -1.7698  0.9453  1.4163
  200MOL0     H27558  12.790   7.927   8.244 -2.1316 -2.3562 -0.0633
  200MOL0     H27559  12.964   8.085   8.183 -1.1131  0.6492  0.1545
  200MOL0     H27560  13.128   8.037   8.188 -3.6990  2.9499 -4.5078
  200MOL0     H27561  13.053   8.112   8.336  1.8351  0.4207 -0.6055
  200MOL0     H27562  13.344   7.894   8.688  0.4068 -0.4545 -0.3611
  200MOL0     H27563  13.572   7.947   8.754 -2.9635 -3.2415  0.2206
  200MOL0     H27564  13.877   8.086   8.418  0.9730 -0.0849 -0.3853
  200MOL0     H27565  13.806   8.229   8.487  0.6899  1.5243  1.8214
  200MOL0     H27566  14.048   8.217   8.542  3.3244 -2.3722  0.5158
  200MOL0     H27567  13.943   8.221   8.683 -0.2833  2.1213 -0.9555
  200MOL0     H27568  14.080   7.967   8.559  2.5055 -0.1791 -0.3315
  200MOL0     H27569  13.992   7.959   8.709 -1.2703  0.0423 -1.5526
  200MOL0     H27570  14.145   8.154   8.792 -2.8702 -0.2093  0.3143
  200MOL0     H27571  14.253   8.090   8.671  3.9431 -4.6011  4.4142
  200MOL0     H27572  14.277   7.974   8.893  1.0121  0.9840 -0.2814
  200MOL0     H27573  14.114   7.913   8.871 -0.6323  2.7906 -1.4924
  200MOL0     H27574  14.379   7.852   8.712  0.3849  2.5365 -0.5173
  200MOL0     H27575  14.224   7.813   8.637 -0.7555  2.3525 -0.0426
  200MOL0     H27576  14.165   7.685   8.849 -1.2190  3.1784 -0.8439
  200MOL0     H27577  14.306   7.714   8.918 -2.9459  1.0296  0.7748
  200MOL0     H27578  14.314   7.581   8.649 -1.1966 -3.8398  0.2215
  200MOL0     H27579  14.285   7.482   8.794 -0.3067  0.2771  0.5235
  200MOL0     H27580  13.616   8.177   8.389 -0.6084  0.9022  1.0170
  200MOL0     H27581  13.374   8.126   8.335 -2.2852 -3.6284  0.0794
  200MOL0     H27582  13.121   7.607   8.416 -1.5446 -1.5517 -0.5854
  200MOL0     H27583  12.901   7.527   8.350 -2.0230  0.2879 -1.9685
  200MOL0     H27584  11.662   7.165   7.554 -0.6084 -1.0839 -0.0343
  200MOL0     H27585  11.442   7.243   7.522 -1.7115 -0.4209  1.3426
  200MOL0     H27586  11.017   7.237   7.265 -0.5450 -2.6268 -0.6508
  200MOL0     H27587  10.804   7.339   7.246  1.1641 -0.1084 -0.7444
  200MOL0     H27588  10.473   7.465   7.351 -0.2413 -0.5122 -0.4779
  200MOL0     H27589  10.620   7.461   7.261  0.3509 -0.4215  1.6211
  200MOL0     H27590  10.479   7.217   7.351 -0.7207  2.8719  1.7081
  200MOL0     H27591  10.605   7.222   7.229  0.8233  0.7552  1.1321
  200MOL0     H27592  10.337   7.357   7.189 -3.0712 -1.4788 -4.5671
  200MOL0     H27593  10.457   7.357   7.066 -0.0017 -1.3560 -1.4854
  200MOL0     H27594  10.377   7.080   7.157 -2.3933  0.0189  0.0629
  200MOL0     H27595  10.455   7.138   7.009  0.2340  2.9607 -1.6572
  200MOL0     H27596  10.041   7.227   6.943 -0.0878  0.5367  1.2593
  200MOL0     H27597  10.763   7.339   7.669 -0.1900  0.5569 -0.4185
  200MOL0     H27598  11.072   7.238   7.767 -1.0056 -0.2214  4.4683
  200MOL0     H27599  10.897   7.214   7.800 -0.8624 -1.4723 -2.0973
  200MOL0     H27600  10.981   7.084   7.730 -3.9125 -0.2733  2.4088
  201MOL0     O27601   1.274   9.335   9.067  0.6716  0.5279 -0.0706
  201MOL0     C27602   1.218   9.334   8.954  0.3078 -0.1119 -0.0683
  201MOL0     O27603   1.276   9.377   8.842 -0.6762  0.1400  0.2387
  201MOL0     C27604   1.411   9.430   8.841 -0.1221  0.2176 -0.2584
  201MOL0     C27605   1.430   9.521   8.743 -0.4679  0.5477  0.7776
  201MOL0     C27606   1.557   9.568   8.713 -0.1897  0.4754  0.0132
  201MOL0     C27607   1.659   9.531   8.797  0.4237  0.6202  0.6706
  201MOL0     O27608   1.777   9.586   8.754  0.7328 -0.7105  0.3814
  201MOL0     C27609   1.897   9.527   8.783 -0.4660  0.1349  0.4492
  201MOL0     C27610   2.004   9.568   8.676  0.7913  0.5872 -0.2120
  201MOL0     C27611   2.125   9.473   8.682  0.2980  0.6782 -0.6026
  201MOL0     C27612   2.104   9.338   8.618 -0.3088 -0.1862  0.1269
  201MOL0     C27613   2.214   9.232   8.644  0.7288 -0.6653  0.0811
  201MOL0     C27614   2.341   9.252   8.556  0.4018 -0.2885  0.2098
  201MOL0     C27615   2.440   9.135   8.564  0.3308  0.3355  0.3242
  201MOL0     C27616   2.389   8.999   8.539 -0.1375 -0.1044 -0.2198
  201MOL0     N27617   2.491   8.894   8.528  0.1498  0.2075  0.0897
  201MOL0     C27618   2.584   8.866   8.424  0.4019 -0.0321  0.0229
  201MOL0     C27619   2.669   8.769   8.477  0.1069 -0.5271 -0.2145
  201MOL0     C27620   2.789   8.721   8.406 -0.1320 -0.8465  0.6793
  201MOL0     C27621   2.838   8.591   8.468  0.0870 -0.0916  0.9686
  201MOL0     C27622   2.969   8.533   8.406  0.6073 -0.1060 -0.2922
  201MOL0     C27623   3.021   8.421   8.501  0.0015  0.2999  0.1302
  201MOL0     O27624   3.097   8.476   8.618 -0.2762 -0.1303 -0.0126
  201MOL0     C27625   3.128   8.371   8.712  0.3086  0.0347  0.4367
  201MOL0     C27626   3.096   8.398   8.844  0.0306 -0.2069  0.0907
  201MOL0     C27627   3.104   8.293   8.940  0.1555  0.3831  0.5218
  201MOL0     C27628   3.041   8.313   9.077  0.7540  0.1936  0.9201
  201MOL0     C27629   3.156   8.170   8.899  1.0102  0.4192 -0.0085
  201MOL0     C27630   3.178   8.048   8.988  0.2165  0.9520 -0.4945
  201MOL0     O27631   3.256   7.947   8.942  0.1661 -0.3296 -0.1572
  201MOL0     C27632   3.282   7.846   9.033 -0.5535  0.0625  0.1096
  201MOL0     C27633   3.413   7.789   9.018  0.2801  0.0652 -0.7011
  201MOL0     C27634   3.453   7.688   9.104 -0.7841 -0.5241  0.6872
  201MOL0     C27635   3.370   7.632   9.198 -0.1114 -0.0902 -0.0710
  201MOL0     O27636   3.424   7.543   9.285  0.2749  0.4058 -0.2454
  201MOL0     C27637   3.465   7.410   9.246  0.8144  0.4056  0.2852
  201MOL0     C27638   3.596   7.358   9.304  0.7554  0.1153  0.2852
  201MOL0     C27639   3.697   7.476   9.318  0.3149  0.3005  0.3014
  201MOL0     C27640   3.840   7.423   9.353 -0.4080  0.9529  0.1790
  201MOL0     C27641   3.940   7.544   9.351  0.2270  1.2267 -0.5609
  201MOL0     C27642   4.079   7.514   9.393 -0.2661  0.7587  0.4356
  201MOL0     C27643   4.139   7.441   9.269  0.7429  0.0418 -0.0147
  201MOL0     C27644   4.288   7.426   9.301  0.5202  0.7032 -0.0752
  201MOL0    Cl27645   4.371   7.585   9.284 -0.4385 -0.3500  0.1133
  201MOL0     C27646   3.236   7.680   9.208 -0.5194 -0.6390 -1.1240
  201MOL0     C27647   3.197   7.785   9.128 -0.1467 -1.3526  0.3258
  201MOL0     O27648   3.118   8.049   9.092 -0.4567 -0.1888 -0.0082
  201MOL0     C27649   3.205   8.151   8.771 -0.1074 -0.1380 -0.7935
  201MOL0     C27650   3.190   8.248   8.675  0.3154 -0.5239 -0.0542
  201MOL0     N27651   2.613   8.726   8.593 -0.0451 -0.6710  0.0557
  201MOL0     N27652   2.518   8.805   8.630 -0.1888 -0.3823  0.2355
  201MOL0     C27653   1.645   9.436   8.902  0.7682  0.0931  0.0536
  201MOL0     C27654   1.522   9.382   8.917  0.6186  0.5645 -1.0947
  201MOL0     C27655   1.075   9.297   8.949  0.2569  0.7970  0.6710
  201MOL0     C27656   1.018   9.293   8.819  0.1903 -0.0070  0.2858
  201MOL0     C27657   0.886   9.264   8.786  0.4005  0.0379  0.3421
  201MOL0     C27658   0.798   9.232   8.884  0.3673  0.4136 -0.5281
  201MOL0     O27659   0.674   9.199   8.844  0.6499 -0.2157  0.2970
  201MOL0     C27660   0.642   9.064   8.868  0.6754  1.1546 -0.2044
  201MOL0     C27661   0.546   9.019   8.760  0.0182  0.4868 -0.1292
  201MOL0     C27662   0.485   8.885   8.812 -0.3239 -1.0646  0.4373
  201MOL0     C27663   0.384   8.838   8.705 -0.5255 -0.3055 -0.3191
  201MOL0     C27664   0.284   8.731   8.752 -1.4008  0.0884 -0.0019
  201MOL0     C27665   0.219   8.637   8.780 -0.3385 -0.2796 -0.0688
  201MOL0     C27666   0.848   9.226   9.015  0.0713 -0.3718 -0.4135
  201MOL0     C27667   0.978   9.264   9.055 -0.8889  0.5348  0.5954
  201MOL0     C27668   1.010   9.285   9.205  0.0145 -0.4806  0.3740
  201MOL0     H27669   1.340   9.563   8.701 -2.0342 -1.4313  1.9330
  201MOL0     H27670   1.584   9.640   8.636  1.5694  0.5270  0.6412
  201MOL0     H27671   1.896   9.419   8.799 -1.1376  0.3608  2.2436
  201MOL0     H27672   1.928   9.568   8.880 -0.3150  0.2578  0.3491
  201MOL0     H27673   1.959   9.561   8.576  0.6580 -0.7708 -0.0747
  201MOL0     H27674   2.040   9.668   8.703  0.8476 -0.1971  3.1013
  201MOL0     H27675   2.199   9.514   8.612  2.0362 -1.4552 -0.1113
  201MOL0     H27676   2.170   9.471   8.782 -1.5538  1.3772  0.2969
  201MOL0     H27677   2.011   9.297   8.659 -0.5013  1.0062  0.9437
  201MOL0     H27678   2.094   9.354   8.511  0.9156  0.2125  0.0619
  201MOL0     H27679   2.164   9.137   8.624 -0.0667 -0.3125  0.3699
  201MOL0     H27680   2.258   9.233   8.744  2.0223 -2.2082 -0.4291
  201MOL0     H27681   2.307   9.261   8.453  1.6174  0.9538 -0.1093
  201MOL0     H27682   2.392   9.344   8.584 -1.0995  1.6766 -2.9527
  201MOL0     H27683   2.490   9.131   8.661  0.1783  0.9771  0.4315
  201MOL0     H27684   2.511   9.149   8.482 -2.9888  0.3960 -2.7916
  201MOL0     H27685   2.316   8.968   8.614 -0.7947 -0.4763 -0.9964
  201MOL0     H27686   2.330   8.995   8.447 -2.9468 -0.8409  1.4950
  201MOL0     H27687   2.606   8.916   8.330  2.6325  0.2404  0.6402
  201MOL0     H27688   2.860   8.801   8.428 -1.6314  0.0970  2.2609
  201MOL0     H27689   2.781   8.717   8.297 -0.4680  2.2130  0.5171
  201MOL0     H27690   2.875   8.616   8.568 -0.4840  2.7231  0.5680
  201MOL0     H27691   2.756   8.519   8.464 -0.2456  0.2777  1.0119
  201MOL0     H27692   2.959   8.500   8.302  1.6667  0.1705 -0.4895
  201MOL0     H27693   3.047   8.609   8.406 -0.3343  0.8954  0.3820
  201MOL0     H27694   2.936   8.359   8.532 -2.0298  0.8462 -3.7816
  201MOL0     H27695   3.092   8.369   8.436  1.8161  1.7436  0.8796
  201MOL0     H27696   3.054   8.491   8.879 -0.6724  0.0879 -1.4402
  201MOL0     H27697   3.002   8.414   9.094  1.7189  0.8329 -0.4495
  201MOL0     H27698   3.113   8.297   9.158 -0.6896  0.8887  2.3818
  201MOL0     H27699   2.957   8.247   9.100  0.7664  0.6883  2.4954
  201MOL0     H27700   3.483   7.832   8.947 -1.8573  1.5987 -1.9874
  201MOL0     H27701   3.556   7.654   9.101 -1.1260 -1.5522 -1.3709
  201MOL0     H27702   3.381   7.340   9.252  0.3176  1.0211  0.7016
  201MOL0     H27703   3.484   7.419   9.139  1.3632 -1.1224  0.2380
  201MOL0     H27704   3.564   7.316   9.400  2.9985 -0.4163  0.8483
  201MOL0     H27705   3.637   7.275   9.247 -0.9950 -0.6619  0.0971
  201MOL0     H27706   3.664   7.543   9.398 -1.6917 -1.6229  1.1928
  201MOL0     H27707   3.701   7.537   9.227 -0.1887  0.2106  0.2152
  201MOL0     H27708   3.869   7.349   9.278 -2.0261 -1.0615  1.4497
  201MOL0     H27709   3.846   7.374   9.451 -0.5120  0.6506  0.0344
  201MOL0     H27710   3.942   7.571   9.245 -1.6177 -0.2733 -1.0283
  201MOL0     H27711   3.906   7.633   9.405  0.9466  1.6277 -0.7626
  201MOL0     H27712   4.069   7.457   9.486  1.3803  2.0245  1.4490
  201MOL0     H27713   4.142   7.599   9.418  1.5717 -0.6390  0.7713
  201MOL0     H27714   4.127   7.494   9.174  2.6566  0.3467 -0.1141
  201MOL0     H27715   4.087   7.345   9.269 -1.7271  1.2666  1.4021
  201MOL0     H27716   4.332   7.349   9.236  0.1586  0.9751 -0.6477
  201MOL0     H27717   4.308   7.388   9.402  2.0230  0.0942 -0.5693
  201MOL0     H27718   3.163   7.631   9.272 -0.4896 -0.6612 -1.1075
  201MOL0     H27719   3.091   7.807   9.133 -0.0752 -1.3013  2.2471
  201MOL0     H27720   3.250   8.054   8.751  0.6287  0.2327 -0.9847
  201MOL0     H27721   3.228   8.225   8.576 -0.8783 -1.2925 -0.3657
  201MOL0     H27722   1.734   9.410   8.960  1.6401  0.8445 -0.9085
  201MOL0     H27723   1.513   9.317   9.003  1.5334 -0.2486 -1.5869
  201MOL0     H27724   1.076   9.301   8.728 -2.1118  1.3386 -1.1618
  201MOL0     H27725   0.858   9.257   8.682 -0.4869 -0.0409  0.5709
  201MOL0     H27726   0.732   9.005   8.849  0.3132  0.4663  0.1654
  201MOL0     H27727   0.607   9.044   8.970  0.7359 -1.1534 -0.5791
  201MOL0     H27728   0.610   9.006   8.672  1.0869  1.1696  0.5157
  201MOL0     H27729   0.468   9.091   8.736 -0.6971 -0.6066 -1.1747
  201MOL0     H27730   0.566   8.812   8.822  0.9917  0.6153  3.2415
  201MOL0     H27731   0.436   8.919   8.904  0.2133  0.6428  0.1335
  201MOL0     H27732   0.438   8.816   8.613  0.3277 -0.5417  0.2316
  201MOL0     H27733   0.318   8.920   8.676  0.6348  0.3877 -1.0408
  201MOL0     H27734   0.169   8.546   8.808 -0.3834 -0.2992 -0.2157
  201MOL0     H27735   0.772   9.197   9.088 -1.3776  3.2372 -0.3065
  201MOL0     H27736   0.929   9.238   9.261 -0.0293 -0.7976  0.0481
  201MOL0     H27737   1.107   9.248   9.239 -0.2746 -3.1749 -1.4396
  201MOL0     H27738   1.012   9.393   9.224  1.6603  0.2303 -2.9582
  202MOL0     O27739   7.761   1.343  10.482 -0.1703  0.4790  0.1261
  202MOL0     C27740   7.698   1.239  10.495 -0.2346  0.0328  0.2967
  202MOL0     O27741   7.562   1.233  10.519  0.5505  1.4627  0.7309
  202MOL0     C27742   7.505   1.355  10.514  0.3008 -0.8763  0.0988
  202MOL0     C27743   7.478   1.434  10.394 -0.5632 -1.0972 -0.3543
  202MOL0     C27744   7.415   1.559  10.408  0.0882  0.4714 -0.2041
  202MOL0     C27745   7.380   1.613  10.528 -0.1253 -0.0111  0.2642
  202MOL0     O27746   7.320   1.739  10.519 -0.1179 -0.2940 -0.0813
  202MOL0     C27747   7.234   1.768  10.628 -0.5477  0.7538 -0.1884
  202MOL0     C27748   7.127   1.868  10.594  0.0877  0.2004 -0.5080
  202MOL0     C27749   7.200   1.997  10.580  0.1210 -0.8524 -0.2499
  202MOL0     C27750   7.121   2.122  10.549  1.1048  0.4040 -0.3507
  202MOL0     C27751   7.195   2.245  10.515 -0.4483 -0.0274  0.2755
  202MOL0     C27752   7.089   2.355  10.506  1.2632  0.1305  0.7587
  202MOL0     C27753   7.140   2.489  10.440  0.3564  0.7485 -0.6749
  202MOL0     C27754   7.228   2.580  10.537  0.0504  0.4423  0.4115
  202MOL0     N27755   7.276   2.707  10.491 -0.5318 -0.2160  0.0320
  202MOL0     C27756   7.203   2.819  10.521  0.4872 -0.0202  0.6051
  202MOL0     C27757   7.281   2.924  10.495  0.4132 -0.2929 -0.0821
  202MOL0     C27758   7.244   3.072  10.521  0.6621  0.5368  0.3910
  202MOL0     C27759   7.301   3.117  10.655  0.4273 -0.0345  0.3092
  202MOL0     C27760   7.246   3.259  10.669 -0.3903 -0.2528  0.3348
  202MOL0     C27761   7.262   3.313  10.808 -0.3480 -0.4628 -0.1850
  202MOL0     O27762   7.390   3.278  10.865 -0.2925 -0.4168  0.3383
  202MOL0     C27763   7.452   3.355  10.963  0.3456  0.3882  0.8530
  202MOL0     C27764   7.562   3.294  11.014 -0.2238 -0.1241  0.0057
  202MOL0     C27765   7.618   3.344  11.135 -0.9007 -0.4205  0.5327
  202MOL0     C27766   7.713   3.251  11.201 -0.3443 -0.1491 -0.0534
  202MOL0     C27767   7.582   3.471  11.189 -0.1976 -0.5296 -0.2350
  202MOL0     C27768   7.635   3.542  11.316  0.5607  0.4231 -0.6139
  202MOL0     O27769   7.602   3.667  11.330  0.4421 -0.3649  0.0159
  202MOL0     C27770   7.649   3.751  11.425  0.3484  0.8659 -0.8133
  202MOL0     C27771   7.726   3.721  11.541 -0.4141  0.1541 -1.0117
  202MOL0     C27772   7.738   3.814  11.642 -0.1080  1.1948 -0.3605
  202MOL0     C27773   7.706   3.948  11.628 -0.0680  0.2974 -0.7631
  202MOL0     O27774   7.728   4.044  11.724  0.2102  0.8002 -0.6227
  202MOL0     C27775   7.849   4.030  11.804  0.2675 -0.3242 -0.3104
  202MOL0     C27776   7.987   4.069  11.738 -0.7871  0.1711  0.1430
  202MOL0     C27777   7.979   4.222  11.699  0.0163  0.5868  0.8949
  202MOL0     C27778   7.992   4.226  11.548  0.2114  0.1547 -0.2259
  202MOL0     C27779   7.941   4.359  11.500  0.3797 -0.2623 -0.0930
  202MOL0     C27780   7.954   4.381  11.354 -0.0544 -0.0325  0.6154
  202MOL0     C27781   7.906   4.516  11.307  0.6286 -0.9684 -0.2470
  202MOL0     C27782   7.950   4.542  11.158  0.3463 -0.5265 -0.3253
  202MOL0    Cl27783   7.841   4.422  11.065 -0.0582  0.0584  0.5772
  202MOL0     C27784   7.642   3.988  11.512 -0.1537 -1.0328 -0.8218
  202MOL0     C27785   7.615   3.888  11.418  0.1462  0.0882 -0.6571
  202MOL0     O27786   7.692   3.479  11.401  0.0233  0.3631  0.3876
  202MOL0     C27787   7.478   3.539  11.115 -0.7749  0.2554  0.2255
  202MOL0     C27788   7.413   3.483  11.006  0.3726 -0.0585  0.3117
  202MOL0     N27789   7.407   2.874  10.461  0.6110  0.1958  0.1617
  202MOL0     N27790   7.404   2.746  10.464  1.1242 -0.7658  0.6804
  202MOL0     C27791   7.419   1.541  10.645  0.7344  0.4052  0.6119
  202MOL0     C27792   7.478   1.412  10.633  0.7427  0.0972 -0.4155
  202MOL0     C27793   7.775   1.112  10.507  0.4344  0.4558  0.3187
  202MOL0     C27794   7.898   1.110  10.444 -0.4897 -0.2558  0.3934
  202MOL0     C27795   7.986   1.001  10.465  0.0540  0.6208 -0.1731
  202MOL0     C27796   7.949   0.900  10.563  0.5725 -0.0854  0.4418
  202MOL0     O27797   8.030   0.797  10.608 -0.2585  0.7715 -0.0976
  202MOL0     C27798   8.174   0.794  10.565 -0.6921  0.3502  0.8452
  202MOL0     C27799   8.237   0.659  10.588  0.4929  0.0808 -0.0227
  202MOL0     C27800   8.328   0.612  10.471 -0.6228 -0.0378 -0.4100
  202MOL0     C27801   8.379   0.467  10.487  0.4846  1.1383 -0.2216
  202MOL0     C27802   8.275   0.366  10.495 -0.0801 -0.6337 -0.6607
  202MOL0     C27803   8.174   0.305  10.489  0.1250  0.0920 -0.0346
  202MOL0     C27804   7.820   0.899  10.607  0.2821  0.2175  0.6861
  202MOL0     C27805   7.725   0.995  10.576  0.2318 -0.3540  0.4843
  202MOL0     C27806   7.582   0.984  10.640 -0.3648 -0.0649  0.1678
  202MOL0     H27807   7.512   1.399  10.297  2.9906  3.7759 -1.2339
  202MOL0     H27808   7.391   1.599  10.310 -0.3222 -1.1355 -0.8015
  202MOL0     H27809   7.295   1.808  10.710  1.1810 -1.6292 -0.2098
  202MOL0     H27810   7.192   1.681  10.679  1.3514 -0.5004 -0.6366
  202MOL0     H27811   7.077   1.833  10.504 -0.4644  1.3221 -0.6496
  202MOL0     H27812   7.060   1.883  10.679  0.6213 -0.0328 -0.0414
  202MOL0     H27813   7.260   2.013  10.670 -0.5977 -1.0369  0.2751
  202MOL0     H27814   7.273   1.994  10.499  0.9874  1.2462  0.3881
  202MOL0     H27815   7.057   2.096  10.464 -1.5025  1.1908  1.2358
  202MOL0     H27816   7.056   2.136  10.636  0.6857 -1.5378 -0.3101
  202MOL0     H27817   7.259   2.229  10.428  2.5954 -0.9358  2.4994
  202MOL0     H27818   7.261   2.273  10.597 -0.8429  1.1944  0.2037
  202MOL0     H27819   7.006   2.315  10.446  1.0883  2.3325 -0.5616
  202MOL0     H27820   7.045   2.383  10.603  0.5255 -1.9903  1.1135
  202MOL0     H27821   7.056   2.549  10.404  1.0901  0.1729 -3.5532
  202MOL0     H27822   7.203   2.470  10.353  0.8452 -0.6109 -0.0563
  202MOL0     H27823   7.170   2.592  10.629 -0.2982 -0.3310  0.3033
  202MOL0     H27824   7.318   2.520  10.550 -1.2317 -1.2691  1.8641
  202MOL0     H27825   7.099   2.812  10.552 -0.0119  0.9185 -0.7586
  202MOL0     H27826   7.135   3.068  10.525  0.6951 -1.9402  0.4476
  202MOL0     H27827   7.281   3.145  10.448 -1.4288  2.0143  0.7285
  202MOL0     H27828   7.274   3.052  10.738 -2.7926 -0.1014 -0.6563
  202MOL0     H27829   7.410   3.124  10.654  0.3157  2.3439  0.7564
  202MOL0     H27830   7.299   3.325  10.600  0.3669 -1.9934 -0.8133
  202MOL0     H27831   7.142   3.250  10.635 -0.7594  2.0550  0.6953
  202MOL0     H27832   7.249   3.422  10.800  0.2346 -0.4843 -1.6522
  202MOL0     H27833   7.184   3.271  10.872 -0.5629  0.1795 -0.0097
  202MOL0     H27834   7.583   3.198  10.969  0.2691  0.8905 -2.0931
  202MOL0     H27835   7.786   3.305  11.262  0.4092 -1.4527  0.2325
  202MOL0     H27836   7.761   3.179  11.134 -0.3775 -0.9172  0.7260
  202MOL0     H27837   7.653   3.188  11.268 -0.7846 -0.6190 -0.8761
  202MOL0     H27838   7.763   3.621  11.562  1.0445  0.7448 -0.6044
  202MOL0     H27839   7.795   3.777  11.727  1.1912  1.1746 -1.1992
  202MOL0     H27840   7.834   4.099  11.887  5.3559  0.5683  0.1699
  202MOL0     H27841   7.863   3.928  11.842  2.7689 -0.6127 -1.7644
  202MOL0     H27842   8.064   4.063  11.815 -1.4836  0.1976  0.8644
  202MOL0     H27843   8.016   4.003  11.656  0.7615 -0.8774  1.4777
  202MOL0     H27844   8.056   4.280  11.750 -0.5682  0.9195  1.4118
  202MOL0     H27845   7.887   4.268  11.737 -0.9521 -0.0668 -0.5272
  202MOL0     H27846   7.929   4.143  11.512 -0.5052 -0.9529  3.2002
  202MOL0     H27847   8.098   4.211  11.526 -0.2650  0.7227 -3.2528
  202MOL0     H27848   7.835   4.360  11.524 -0.3565  0.0536 -3.0439
  202MOL0     H27849   7.995   4.437  11.554 -0.6996  0.6034 -0.2428
  202MOL0     H27850   7.901   4.300  11.302  1.8260 -0.8894 -0.0424
  202MOL0     H27851   8.061   4.385  11.331 -0.5392 -0.1735 -1.9701
  202MOL0     H27852   7.941   4.595  11.374 -0.2311 -0.7532 -0.0507
  202MOL0     H27853   7.797   4.514  11.307  0.5651  0.5892 -1.1767
  202MOL0     H27854   8.053   4.516  11.130  1.0513  0.8891  0.7932
  202MOL0     H27855   7.937   4.648  11.132  1.9660 -0.5464 -1.3520
  202MOL0     H27856   7.604   4.088  11.494  1.1679 -0.6817 -1.8497
  202MOL0     H27857   7.563   3.916  11.327 -2.3506 -1.0921  0.3140
  202MOL0     H27858   7.456   3.639  11.150  0.2786  1.2542 -1.8004
  202MOL0     H27859   7.327   3.541  10.975 -0.1533 -0.7708  0.4209
  202MOL0     H27860   7.409   1.584  10.744 -1.8060 -2.2590  1.6499
  202MOL0     H27861   7.504   1.360  10.724 -1.7786  0.3006  0.4936
  202MOL0     H27862   7.929   1.190  10.378  0.4017 -1.3538 -0.5795
  202MOL0     H27863   8.076   1.002  10.405 -1.2899  0.3580 -2.3110
  202MOL0     H27864   8.177   0.809  10.457  2.9392  0.8271  0.8921
  202MOL0     H27865   8.234   0.875  10.607 -1.1300  2.2606 -1.9988
  202MOL0     H27866   8.163   0.584  10.617 -1.0415  0.2217 -3.1970
  202MOL0     H27867   8.309   0.665  10.671  0.8152 -0.2218 -0.2793
  202MOL0     H27868   8.274   0.619  10.376  0.9417  0.4160 -1.3110
  202MOL0     H27869   8.416   0.677  10.473  1.2348 -2.4242  0.8072
  202MOL0     H27870   8.447   0.456  10.572  1.6733 -3.2567 -1.4689
  202MOL0     H27871   8.426   0.434  10.394 -2.1095  2.2753 -2.0648
  202MOL0     H27872   8.082   0.258  10.460  0.2476  0.8192 -1.7091
  202MOL0     H27873   7.781   0.811  10.656  2.4814  0.9077  3.9903
  202MOL0     H27874   7.566   0.883  10.679  0.5396 -1.0837 -1.9304
  202MOL0     H27875   7.566   1.059  10.717 -1.6324  1.0055 -1.0915
  202MOL0     H27876   7.505   1.003  10.565 -1.1010  1.4469  1.2570
  203MOL0     O27877   8.512   6.095   1.761 -0.1589  0.0815 -0.0530
  203MOL0     C27878   8.446   6.198   1.776 -0.1724  0.0578  0.8210
  203MOL0     O27879   8.498   6.328   1.794  0.1248  0.5836 -0.0526
  203MOL0     C27880   8.626   6.356   1.778  0.1016 -1.4745 -0.8367
  203MOL0     C27881   8.666   6.425   1.665  0.3265  0.1277 -0.0754
  203MOL0     C27882   8.794   6.461   1.634  0.0212 -0.1157 -0.0699
  203MOL0     C27883   8.895   6.420   1.718  0.0017  0.3382  0.8399
  203MOL0     O27884   9.024   6.461   1.687 -0.0011  0.1751  0.6028
  203MOL0     C27885   9.134   6.442   1.779 -0.2407  0.0549  0.5466
  203MOL0     C27886   9.264   6.517   1.735 -0.1180 -0.0343 -0.8611
  203MOL0     C27887   9.313   6.471   1.596 -0.0345  0.7502 -0.4311
  203MOL0     C27888   9.395   6.339   1.600 -0.3494  0.3242  0.2566
  203MOL0     C27889   9.431   6.289   1.463  0.8433  0.0579 -0.7200
  203MOL0     C27890   9.542   6.360   1.396 -0.0093 -0.1381  0.1136
  203MOL0     C27891   9.604   6.267   1.295  0.3692 -0.1680 -0.3883
  203MOL0     C27892   9.721   6.337   1.234 -0.7992 -0.4853 -0.2709
  203MOL0     N27893   9.802   6.267   1.140  0.2058 -0.0116  0.7142
  203MOL0     C27894   9.874   6.155   1.172  0.5185 -0.4121 -0.2587
  203MOL0     C27895   9.954   6.139   1.065 -0.2374 -0.0210  0.3517
  203MOL0     C27896  10.041   6.020   1.049  0.4480  0.3612 -0.7463
  203MOL0     C27897  10.170   6.030   1.129 -0.3590 -0.4718 -0.0289
  203MOL0     C27898  10.279   6.115   1.059 -0.5811  0.3499  0.4021
  203MOL0     C27899  10.413   6.094   1.128 -0.0670 -0.1645 -0.1646
  203MOL0     O27900  10.526   6.126   1.045 -0.0810 -0.6990  0.0329
  203MOL0     C27901  10.616   6.212   1.097 -0.1245  0.0780 -1.0460
  203MOL0     C27902  10.586   6.353   1.115  0.0769  0.4779  0.3799
  203MOL0     C27903  10.683   6.447   1.155 -0.5488 -0.5640 -0.3633
  203MOL0     C27904  10.635   6.593   1.168  0.9362 -0.0347 -0.5133
  203MOL0     C27905  10.812   6.403   1.197  0.3412  0.1236  0.4475
  203MOL0     C27906  10.920   6.487   1.254 -0.1972  0.0528 -0.8470
  203MOL0     O27907  11.050   6.458   1.237  0.1204 -0.5983  0.6299
  203MOL0     C27908  11.144   6.525   1.302 -0.6169 -0.4982 -0.7519
  203MOL0     C27909  11.212   6.460   1.404 -0.3821  0.2246  0.1979
  203MOL0     C27910  11.318   6.528   1.464  0.1498 -0.1012  0.1713
  203MOL0     C27911  11.352   6.658   1.430 -0.2200 -0.7323 -0.0345
  203MOL0     O27912  11.473   6.712   1.475  0.2159 -0.0114  0.4818
  203MOL0     C27913  11.503   6.701   1.617  0.1163 -0.2529  0.6709
  203MOL0     C27914  11.609   6.816   1.641 -0.2149  0.4100  0.5953
  203MOL0     C27915  11.613   6.863   1.786  0.2159 -0.1339 -1.3889
  203MOL0     C27916  11.716   6.974   1.802 -0.2281 -0.5083  0.9021
  203MOL0     C27917  11.709   7.025   1.942 -1.2002 -0.6697 -0.3212
  203MOL0     C27918  11.825   7.108   1.989 -0.1865 -0.3973  0.1447
  203MOL0     C27919  11.852   7.225   1.890 -0.4838 -0.3028  0.7404
  203MOL0     C27920  11.933   7.343   1.950  0.0379 -0.0791 -0.7977
  203MOL0    Cl27921  12.100   7.293   1.997  0.3786  0.4616  0.2672
  203MOL0     C27922  11.284   6.721   1.331 -0.0738 -0.0278  0.1391
  203MOL0     C27923  11.176   6.659   1.270 -0.7753  0.2461  0.0727
  203MOL0     O27924  10.885   6.585   1.313  0.2141  1.1241 -0.3619
  203MOL0     C27925  10.843   6.269   1.172 -0.1714 -0.0294 -0.9098
  203MOL0     C27926  10.751   6.176   1.113  1.2061  0.2428  0.3178
  203MOL0     N27927   9.944   6.245   0.983  0.0161 -0.5607 -0.2497
  203MOL0     N27928   9.854   6.326   1.028 -0.2158  0.4007 -0.0230
  203MOL0     C27929   8.864   6.347   1.830 -1.0389  0.2206 -1.0566
  203MOL0     C27930   8.730   6.313   1.867 -0.3357  0.2981 -0.5272
  203MOL0     C27931   8.294   6.193   1.789 -0.8264  1.2873  0.0589
  203MOL0     C27932   8.219   6.307   1.777  0.2085 -0.1040  0.5960
  203MOL0     C27933   8.078   6.298   1.762  0.2245  0.4100 -0.4576
  203MOL0     C27934   8.004   6.183   1.785  0.3983 -0.4153 -0.8080
  203MOL0     O27935   7.871   6.196   1.775 -0.7326 -0.4386  0.6033
  203MOL0     C27936   7.783   6.087   1.816  0.1487  1.1462 -0.2668
  203MOL0     C27937   7.638   6.102   1.774 -0.3886 -1.0289  0.3083
  203MOL0     C27938   7.629   6.126   1.622  0.3152 -0.5834  0.6775
  203MOL0     C27939   7.486   6.105   1.568 -0.7602 -0.4235  0.5307
  203MOL0     C27940   7.509   6.125   1.427 -0.3422 -0.0900  0.0528
  203MOL0     C27941   7.529   6.134   1.303  0.6179 -0.1608 -0.4995
  203MOL0     C27942   8.082   6.070   1.818 -0.8016 -0.3735  0.8943
  203MOL0     C27943   8.226   6.070   1.812 -0.3979  0.2608  0.3185
  203MOL0     C27944   8.296   5.932   1.827 -0.0108 -0.6352  0.4147
  203MOL0     H27945   8.587   6.459   1.599  0.9699 -2.2710 -2.2470
  203MOL0     H27946   8.805   6.513   1.540  0.4546  0.9292  0.5410
  203MOL0     H27947   9.154   6.334   1.782  1.2712  0.3370  1.3980
  203MOL0     H27948   9.104   6.469   1.881  1.6721  0.4439  1.0401
  203MOL0     H27949   9.244   6.624   1.733  0.0126 -0.0181 -2.1305
  203MOL0     H27950   9.339   6.504   1.814 -0.1790  2.5289 -0.3152
  203MOL0     H27951   9.231   6.471   1.524 -1.2038 -1.1450  0.8178
  203MOL0     H27952   9.394   6.528   1.551  1.6242 -1.1644 -0.0560
  203MOL0     H27953   9.484   6.351   1.662 -1.3308 -1.1018  2.0735
  203MOL0     H27954   9.333   6.267   1.654  0.4619  1.4739  2.8709
  203MOL0     H27955   9.342   6.287   1.399  0.3186  1.0962 -0.0401
  203MOL0     H27956   9.451   6.184   1.488 -0.0300 -0.1979 -1.0462
  203MOL0     H27957   9.516   6.455   1.348 -0.6513 -1.0596 -1.4397
  203MOL0     H27958   9.615   6.376   1.476  1.0650  0.0462 -0.8706
  203MOL0     H27959   9.528   6.250   1.217 -2.3063  0.2916  1.9568
  203MOL0     H27960   9.639   6.171   1.333  0.6616 -0.7177 -1.9519
  203MOL0     H27961   9.680   6.415   1.169 -0.3659 -0.9369 -1.0988
  203MOL0     H27962   9.788   6.385   1.305  0.6235 -1.6191 -0.8063
  203MOL0     H27963   9.863   6.085   1.254 -3.1799 -2.2273 -2.0869
  203MOL0     H27964  10.063   6.005   0.943 -0.5630  2.2119 -1.2581
  203MOL0     H27965   9.999   5.926   1.087 -0.0031  0.7340 -0.3084
  203MOL0     H27966  10.146   6.087   1.219 -2.2911 -0.0390 -0.7706
  203MOL0     H27967  10.206   5.927   1.138  1.3634  0.0554 -0.4444
  203MOL0     H27968  10.284   6.075   0.957  0.3280 -1.0172  0.9608
  203MOL0     H27969  10.261   6.222   1.072  0.3736  0.8997 -2.2180
  203MOL0     H27970  10.414   6.169   1.208 -0.0403  1.3115 -1.5081
  203MOL0     H27971  10.431   5.999   1.178  1.3839  1.7519  3.3801
  203MOL0     H27972  10.486   6.384   1.087 -0.5137 -0.5253  1.3322
  203MOL0     H27973  10.703   6.662   1.117  3.0055 -1.0270  0.7689
  203MOL0     H27974  10.644   6.612   1.276  0.3011 -1.5641 -0.1705
  203MOL0     H27975  10.532   6.612   1.137  1.0825  4.0039  0.8443
  203MOL0     H27976  11.187   6.359   1.434  2.7840 -0.0180  2.5782
  203MOL0     H27977  11.374   6.474   1.540  0.9969  0.9454  0.3106
  203MOL0     H27978  11.431   6.729   1.694 -0.2751 -0.4191  0.3671
  203MOL0     H27979  11.536   6.599   1.641 -0.1058 -0.5341 -0.1927
  203MOL0     H27980  11.706   6.775   1.613 -0.0407  2.4216 -2.1440
  203MOL0     H27981  11.607   6.894   1.564 -0.1053  0.7619  0.9461
  203MOL0     H27982  11.636   6.792   1.865  0.8384 -0.5003 -1.8958
  203MOL0     H27983  11.516   6.914   1.798 -0.2119 -0.9307 -1.3998
  203MOL0     H27984  11.701   7.062   1.739 -1.3262  0.1509  2.0137
  203MOL0     H27985  11.814   6.930   1.785  0.3930  1.2199 -0.1094
  203MOL0     H27986  11.617   7.081   1.960 -0.2108  1.4047 -1.3967
  203MOL0     H27987  11.708   6.933   2.001 -0.7376 -1.3942 -1.4008
  203MOL0     H27988  11.910   7.039   1.989  2.0538  2.2086  0.6544
  203MOL0     H27989  11.798   7.143   2.089 -0.7124  0.0866 -0.1647
  203MOL0     H27990  11.759   7.265   1.848  0.0953 -0.7539 -1.0591
  203MOL0     H27991  11.909   7.180   1.808 -1.3777 -0.7865  0.3753
  203MOL0     H27992  11.882   7.376   2.041 -0.6806  0.4121 -1.3669
  203MOL0     H27993  11.932   7.418   1.871 -2.3375  2.1668  1.1549
  203MOL0     H27994  11.299   6.821   1.291  0.6815 -0.2509 -0.1666
  203MOL0     H27995  11.113   6.698   1.190 -0.3367 -1.9169 -1.4219
  203MOL0     H27996  10.943   6.232   1.190  0.9076  3.0435  0.1129
  203MOL0     H27997  10.775   6.074   1.085 -3.3368 -1.1591  0.7835
  203MOL0     H27998   8.941   6.317   1.899 -1.0890 -0.5658 -1.3282
  203MOL0     H27999   8.724   6.263   1.963  1.4529  0.9054 -0.0606
  203MOL0     H28000   8.259   6.407   1.768 -0.5715  0.1725  0.0920
  203MOL0     H28001   8.021   6.386   1.733 -0.4663  0.0661 -0.1552
  203MOL0     H28002   7.812   5.992   1.769  1.2277  1.1027  0.4484
  203MOL0     H28003   7.778   6.073   1.924 -1.7957 -1.3386 -0.5657
  203MOL0     H28004   7.582   6.183   1.821 -0.5622 -0.5386 -0.7165
  203MOL0     H28005   7.585   6.007   1.790 -2.1583 -0.2094 -0.4272
  203MOL0     H28006   7.669   6.224   1.595  1.1802 -0.5912  1.8325
  203MOL0     H28007   7.695   6.056   1.571  0.1533  0.5903 -1.2019
  203MOL0     H28008   7.412   6.166   1.620 -1.5604 -0.6200 -0.3730
  203MOL0     H28009   7.462   5.998   1.570  0.6980 -0.7937 -0.2705
  203MOL0     H28010   7.518   6.142   1.197  0.8892  0.0725 -0.5098
  203MOL0     H28011   8.036   5.975   1.841 -0.6002 -0.4903  0.8159
  203MOL0     H28012   8.326   5.903   1.726  0.1955  0.0378  0.2793
  203MOL0     H28013   8.385   5.940   1.890 -0.7619  1.7694  1.2972
  203MOL0     H28014   8.236   5.852   1.870 -0.5110 -0.1342  0.6585
  204MOL0     O28015   7.487   8.360   3.785 -0.4441  0.0767 -0.4071
  204MOL0     C28016   7.415   8.309   3.698 -0.2188  0.2738  0.1862
  204MOL0     O28017   7.445   8.190   3.629 -1.0923  0.6265  0.6173
  204MOL0     C28018   7.576   8.153   3.646 -0.6370  0.1876 -0.4692
  204MOL0     C28019   7.671   8.197   3.549 -0.4092  0.3835 -0.8300
  204MOL0     C28020   7.794   8.135   3.550 -0.1250  0.2483  0.5078
  204MOL0     C28021   7.817   8.033   3.641  0.3226  0.2097 -0.1378
  204MOL0     O28022   7.929   7.957   3.639 -0.4017  0.6833 -0.3657
  204MOL0     C28023   7.965   7.900   3.509 -0.1526  0.2574  0.0948
  204MOL0     C28024   8.009   7.762   3.513  0.0803  1.0972  0.6320
  204MOL0     C28025   8.122   7.736   3.607 -0.3473 -1.0474  0.5391
  204MOL0     C28026   8.191   7.600   3.585  0.5519 -0.5758  0.4236
  204MOL0     C28027   8.326   7.595   3.660 -0.1000 -0.5547 -0.3952
  204MOL0     C28028   8.399   7.463   3.636  0.0225 -0.1627  0.8129
  204MOL0     C28029   8.422   7.427   3.488  0.2977  0.6728 -0.8228
  204MOL0     C28030   8.485   7.523   3.402 -0.4300 -0.0443  0.2180
  204MOL0     N28031   8.626   7.542   3.439 -0.1145  0.6917  0.4006
  204MOL0     C28032   8.740   7.475   3.396  0.5658 -0.0270 -0.3452
  204MOL0     C28033   8.835   7.518   3.482 -0.2342  0.8955  1.0710
  204MOL0     C28034   8.976   7.470   3.487 -0.5802  0.1954 -0.3948
  204MOL0     C28035   8.995   7.350   3.580 -0.2698 -0.6473 -0.5757
  204MOL0     C28036   9.130   7.283   3.544 -0.1510  0.4112 -0.0154
  204MOL0     C28037   9.151   7.174   3.655 -0.2247  0.0866  0.3694
  204MOL0     O28038   9.262   7.096   3.619 -0.3140 -0.0057 -0.4508
  204MOL0     C28039   9.392   7.138   3.639 -0.0181  0.3104  0.9369
  204MOL0     C28040   9.498   7.049   3.610 -0.2605  0.1646  0.4057
  204MOL0     C28041   9.631   7.077   3.632  0.1587 -0.8510 -0.3912
  204MOL0     C28042   9.745   6.983   3.605  0.3646 -0.1059 -0.1978
  204MOL0     C28043   9.659   7.203   3.689  0.1402  0.4404 -0.5453
  204MOL0     C28044   9.795   7.240   3.726 -0.0903  0.0942 -0.1187
  204MOL0     O28045   9.824   7.367   3.690  0.2344 -0.3840  0.7151
  204MOL0     C28046   9.946   7.425   3.727 -0.1845  0.4674  0.3565
  204MOL0     C28047   9.990   7.515   3.632 -0.0472  0.3003  0.8709
  204MOL0     C28048  10.108   7.582   3.649 -0.1751 -0.1795 -0.2856
  204MOL0     C28049  10.198   7.557   3.751  0.3134  0.2773 -0.2050
  204MOL0     O28050  10.323   7.620   3.767 -0.3652 -0.7752  0.6389
  204MOL0     C28051  10.405   7.652   3.647 -1.0768  0.7317 -0.5200
  204MOL0     C28052  10.551   7.625   3.682  0.6608  1.2414  0.7178
  204MOL0     C28053  10.577   7.482   3.706  1.0698  0.8170  0.4003
  204MOL0     C28054  10.724   7.453   3.741  0.8893  0.1104 -0.3523
  204MOL0     C28055  10.739   7.307   3.786 -0.6211 -0.0791  0.0576
  204MOL0     C28056  10.883   7.295   3.831 -0.1951 -1.1197  0.7863
  204MOL0     C28057  10.917   7.155   3.867  0.0167  0.2197 -0.4641
  204MOL0     C28058  11.045   7.137   3.949  0.5431 -0.6088 -0.9068
  204MOL0    Cl28059  11.066   6.968   4.001 -0.2508  0.4957 -0.8258
  204MOL0     C28060  10.157   7.457   3.845 -0.0740 -0.1897  1.0577
  204MOL0     C28061  10.035   7.391   3.832 -0.4401 -0.3074  0.5569
  204MOL0     O28062   9.873   7.157   3.777 -0.0601  0.0304 -0.3848
  204MOL0     C28063   9.557   7.303   3.701  0.9557 -0.4108  0.9709
  204MOL0     C28064   9.422   7.271   3.678 -0.3624  0.5813  0.1654
  204MOL0     N28065   8.783   7.608   3.576 -1.0868 -0.4245  1.0355
  204MOL0     N28066   8.658   7.619   3.546 -0.0325  0.2358 -0.6502
  204MOL0     C28067   7.729   8.010   3.749 -0.5406  0.2091  0.0233
  204MOL0     C28068   7.612   8.078   3.761  0.3195  0.2846  0.0132
  204MOL0     C28069   7.303   8.391   3.659  0.4360 -0.5268 -0.4100
  204MOL0     C28070   7.232   8.460   3.756  0.4138 -0.1095  0.1550
  204MOL0     C28071   7.118   8.530   3.725  0.0234 -0.5823  0.5946
  204MOL0     C28072   7.079   8.551   3.589 -0.1611  0.0225 -0.1612
  204MOL0     O28073   6.968   8.613   3.541 -0.0626 -0.0582  0.2766
  204MOL0     C28074   6.897   8.708   3.623  0.2059 -0.9927 -0.4289
  204MOL0     C28075   6.740   8.684   3.602  0.2797  0.4190  0.3911
  204MOL0     C28076   6.698   8.637   3.467 -0.0367 -0.0504  0.2186
  204MOL0     C28077   6.633   8.754   3.397 -0.0704 -0.6496  0.3273
  204MOL0     C28078   6.625   8.745   3.257  1.0658  1.5180  0.9764
  204MOL0     C28079   6.610   8.742   3.132 -0.3315  0.1200 -0.2128
  204MOL0     C28080   7.148   8.479   3.489 -0.1900 -0.0514  0.5146
  204MOL0     C28081   7.264   8.407   3.521 -0.9720 -0.0687  0.9427
  204MOL0     C28082   7.339   8.343   3.402  0.4614  0.0151  0.7824
  204MOL0     H28083   7.652   8.272   3.473 -0.4862  0.9617 -0.2507
  204MOL0     H28084   7.877   8.141   3.480  1.6671 -0.0156  2.5009
  204MOL0     H28085   8.046   7.965   3.477 -0.3284  0.7220  0.5720
  204MOL0     H28086   7.874   7.915   3.450 -0.0718  2.8445  0.5054
  204MOL0     H28087   7.936   7.688   3.547  1.0513  0.6170  1.7493
  204MOL0     H28088   8.030   7.737   3.408 -3.2803  0.0571  0.0659
  204MOL0     H28089   8.196   7.815   3.592 -1.2252 -0.0256  1.4160
  204MOL0     H28090   8.089   7.755   3.710 -0.7503  1.4342  0.0205
  204MOL0     H28091   8.122   7.518   3.607 -0.7177  0.7622  1.6333
  204MOL0     H28092   8.216   7.596   3.478  1.9699 -1.5243  0.7670
  204MOL0     H28093   8.302   7.608   3.766  0.7949  1.9709 -0.4366
  204MOL0     H28094   8.379   7.684   3.624 -0.4044 -0.4386 -0.5573
  204MOL0     H28095   8.502   7.468   3.673  1.0537 -0.9587 -1.7052
  204MOL0     H28096   8.350   7.382   3.690 -0.5215  0.1789  0.8303
  204MOL0     H28097   8.323   7.409   3.444  0.1944 -2.4263  0.3994
  204MOL0     H28098   8.477   7.334   3.476  3.4232  2.1671  0.8512
  204MOL0     H28099   8.483   7.477   3.302 -0.2511 -1.7322  0.9513
  204MOL0     H28100   8.436   7.620   3.408  0.7349  0.4536  2.4048
  204MOL0     H28101   8.745   7.404   3.315  1.1512  2.3016 -2.4766
  204MOL0     H28102   9.040   7.550   3.525 -1.4345  0.1951  1.1159
  204MOL0     H28103   9.008   7.449   3.384 -2.5262 -2.0194 -0.6251
  204MOL0     H28104   9.008   7.389   3.682  1.6885  0.6277 -1.2727
  204MOL0     H28105   8.915   7.277   3.569  3.0095 -4.2631 -2.8380
  204MOL0     H28106   9.131   7.233   3.447 -0.6958  0.4405 -0.0360
  204MOL0     H28107   9.205   7.361   3.532  1.2775 -0.4562  2.3811
  204MOL0     H28108   9.163   7.216   3.755  1.7134 -1.4412  0.8391
  204MOL0     H28109   9.057   7.121   3.676 -0.2545  0.3763  1.0086
  204MOL0     H28110   9.481   6.949   3.574 -2.0739  1.0091 -1.2208
  204MOL0     H28111   9.785   6.941   3.698  2.9525 -0.2631 -1.3037
  204MOL0     H28112   9.827   7.025   3.546  0.2400  2.2697  1.1827
  204MOL0     H28113   9.713   6.897   3.545  2.8980 -2.1348  1.1718
  204MOL0     H28114   9.927   7.527   3.544 -1.0118  1.7884  1.7246
  204MOL0     H28115  10.135   7.664   3.584  1.0539  2.6954  3.4681
  204MOL0     H28116  10.373   7.596   3.558 -0.2533  0.3551 -0.5914
  204MOL0     H28117  10.394   7.758   3.623 -0.5179  0.6416 -1.1991
  204MOL0     H28118  10.617   7.658   3.601  0.0175  0.9398  0.0614
  204MOL0     H28119  10.582   7.689   3.766  2.8108  0.0368  0.9003
  204MOL0     H28120  10.553   7.443   3.606 -1.0729  1.1325  0.7617
  204MOL0     H28121  10.514   7.459   3.792 -1.1745  2.2468 -0.7727
  204MOL0     H28122  10.757   7.520   3.821  1.0977  2.8895 -2.5933
  204MOL0     H28123  10.796   7.484   3.664  2.2920  1.4461  1.4138
  204MOL0     H28124  10.675   7.284   3.872  0.6513  1.3519  1.4541
  204MOL0     H28125  10.718   7.228   3.713 -1.1040 -0.5748  0.7223
  204MOL0     H28126  10.899   7.355   3.921 -0.4754 -3.5625  2.5529
  204MOL0     H28127  10.958   7.337   3.763 -1.0189  0.9159  1.0727
  204MOL0     H28128  10.922   7.092   3.777 -1.8409 -0.3308 -0.2283
  204MOL0     H28129  10.837   7.115   3.930  0.9454 -1.3172 -0.1997
  204MOL0     H28130  11.034   7.197   4.040 -2.0429 -1.3335 -0.6668
  204MOL0     H28131  11.133   7.170   3.894  1.5588 -1.2562  0.2638
  204MOL0     H28132  10.227   7.426   3.922  2.0967 -1.2755 -1.2092
  204MOL0     H28133  10.005   7.318   3.907 -1.0285 -1.8144 -1.0558
  204MOL0     H28134   9.582   7.406   3.728  2.3233 -0.5037  0.1577
  204MOL0     H28135   9.343   7.344   3.693 -1.0472  0.0511 -0.7351
  204MOL0     H28136   7.751   7.936   3.827  2.2941  2.4109  1.5227
  204MOL0     H28137   7.536   8.056   3.835  0.0771  3.4692  0.8575
  204MOL0     H28138   7.257   8.457   3.862 -0.7863  1.0093  0.4847
  204MOL0     H28139   7.065   8.585   3.803  0.0429  0.8576 -0.3654
  204MOL0     H28140   6.918   8.708   3.730 -2.5053  1.1056  0.2183
  204MOL0     H28141   6.917   8.808   3.585 -1.0342  0.1044  1.5991
  204MOL0     H28142   6.680   8.770   3.631 -1.0444  0.0453 -1.0966
  204MOL0     H28143   6.708   8.610   3.676  1.2042 -0.5823 -0.1856
  204MOL0     H28144   6.778   8.602   3.401  0.2266  1.7574 -0.4668
  204MOL0     H28145   6.632   8.551   3.478  1.3535 -1.2461 -0.4675
  204MOL0     H28146   6.683   8.849   3.416 -1.1287  0.4152 -1.8847
  204MOL0     H28147   6.533   8.766   3.440  0.0934 -1.1899  0.8696
  204MOL0     H28148   6.572   8.751   3.032  0.5535 -0.8378 -0.6482
  204MOL0     H28149   7.122   8.496   3.385  0.4399 -0.0673  0.3493
  204MOL0     H28150   7.319   8.384   3.303  2.8007 -0.7926 -0.0789
  204MOL0     H28151   7.447   8.351   3.414  0.3111  0.7709  1.7448
  204MOL0     H28152   7.297   8.242   3.409 -4.0541  1.5930 -0.3207
  205MOL0     O28153   0.808  10.012   5.871  0.5935 -0.1446 -0.4652
  205MOL0     C28154   0.761   9.966   5.980  0.4089  0.4646  0.0529
  205MOL0     O28155   0.824   9.978   6.102 -0.0933  0.7352  0.2280
  205MOL0     C28156   0.946  10.043   6.102 -0.4333 -0.1701  0.1035
  205MOL0     C28157   0.948  10.182   6.062 -0.3420  0.2388  0.5426
  205MOL0     C28158   1.065  10.251   6.054  0.0648 -0.2243  0.8621
  205MOL0     C28159   1.187  10.206   6.102  0.3754  0.1525 -0.2522
  205MOL0     O28160   1.303  10.287   6.108 -0.1052 -0.2007  0.1459
  205MOL0     C28161   1.316  10.417   6.052  0.1920  0.4568  0.0477
  205MOL0     C28162   1.456  10.466   6.062  0.6829  0.6450 -0.5960
  205MOL0     C28163   1.562  10.381   5.989 -0.3857 -0.9145 -0.2396
  205MOL0     C28164   1.701  10.438   6.017 -0.3035  0.4233 -0.5297
  205MOL0     C28165   1.822  10.350   6.004 -1.0762 -0.2275 -0.0320
  205MOL0     C28166   1.954  10.398   6.087 -0.6744 -0.0100  0.4232
  205MOL0     C28167   1.985  10.544   6.045  0.0486  0.8897 -1.0253
  205MOL0     C28168   2.090  10.608   6.141 -0.8530  0.1441 -0.2549
  205MOL0     N28169   2.225  10.545   6.148  0.1210  0.2177 -0.0284
  205MOL0     C28170   2.250  10.424   6.212 -0.1131 -1.0690  1.0216
  205MOL0     C28171   2.382  10.419   6.238 -0.4654 -0.9424 -0.7510
  205MOL0     C28172   2.449  10.292   6.288  0.2096 -0.3751 -0.1383
  205MOL0     C28173   2.599  10.290   6.330  0.1833  0.5428  0.6758
  205MOL0     C28174   2.638  10.388   6.445  0.1212  0.7431  0.3218
  205MOL0     C28175   2.767  10.349   6.524 -0.0230  0.2376  0.4466
  205MOL0     O28176   2.881  10.411   6.454  0.3030  0.1157 -0.1084
  205MOL0     C28177   3.005  10.375   6.515  1.9094  0.3515  0.9543
  205MOL0     C28178   3.031  10.301   6.633 -0.3777 -0.6026  0.0854
  205MOL0     C28179   3.159  10.308   6.692 -0.5647 -1.1066 -0.4668
  205MOL0     C28180   3.181  10.243   6.831 -0.0685  0.0445 -0.4541
  205MOL0     C28181   3.261  10.372   6.632 -0.5693  0.0059  0.6056
  205MOL0     C28182   3.391  10.368   6.692 -0.5539  0.2153  0.4655
  205MOL0     O28183   3.488  10.288   6.639 -0.1031 -0.0277  0.0491
  205MOL0     C28184   3.610  10.272   6.708 -0.5259 -0.1519 -0.7804
  205MOL0     C28185   3.604  10.199   6.830 -0.3823  0.2295  0.1746
  205MOL0     C28186   3.718  10.191   6.911 -0.8159  0.2238  0.0954
  205MOL0     C28187   3.849  10.233   6.870 -0.1699  0.0497 -0.9996
  205MOL0     O28188   3.966  10.205   6.944 -0.5921 -0.0696 -0.6344
  205MOL0     C28189   3.964  10.114   7.059 -0.6349 -0.1768 -0.4019
  205MOL0     C28190   4.097  10.102   7.143 -1.1213  0.0396  1.2267
  205MOL0     C28191   4.148  10.240   7.186 -0.5359 -0.4786  1.0814
  205MOL0     C28192   4.284  10.236   7.257  0.3067  0.5030 -0.1907
  205MOL0     C28193   4.326  10.377   7.296 -0.3660  0.1321  1.0841
  205MOL0     C28194   4.467  10.386   7.357  0.2794  0.0128  0.0779
  205MOL0     C28195   4.509  10.538   7.345 -0.2948  1.0518  0.5081
  205MOL0     C28196   4.633  10.580   7.433  0.3703  0.5931  0.3275
  205MOL0    Cl28197   4.770  10.472   7.422 -0.1325 -0.0236  0.3235
  205MOL0     C28198   3.856  10.292   6.748  0.4495 -0.5352 -0.6322
  205MOL0     C28199   3.736  10.315   6.667 -0.3601  0.4233 -0.3325
  205MOL0     O28200   3.408  10.448   6.779 -0.1467 -0.1623 -0.3422
  205MOL0     C28201   3.241  10.439   6.513  0.3483  0.4593  0.0573
  205MOL0     C28202   3.115  10.441   6.453  0.2241 -0.4901 -0.0001
  205MOL0     N28203   2.438  10.536   6.185  0.1865  0.5888  0.2757
  205MOL0     N28204   2.346  10.609   6.145 -0.1362 -0.1079  0.0038
  205MOL0     C28205   1.186  10.070   6.149 -0.3626 -0.0787  0.7335
  205MOL0     C28206   1.061   9.996   6.154  0.3501 -0.1907 -0.6091
  205MOL0     C28207   0.636   9.889   5.981 -0.0552  0.1123  0.0852
  205MOL0     C28208   0.572   9.860   6.110 -0.4869  0.0617 -0.2823
  205MOL0     C28209   0.446   9.793   6.113 -0.6388  0.0655 -0.0600
  205MOL0     C28210   0.380   9.772   6.001 -0.4153  0.1390  0.4676
  205MOL0     O28211   0.254   9.729   5.982 -0.6823 -0.2028 -0.8011
  205MOL0     C28212   0.154   9.717   6.084 -0.5223  0.1279  0.1203
  205MOL0     C28213   0.073   9.589   6.066 -0.4754  0.6104  0.3334
  205MOL0     C28214  -0.037   9.601   5.954  0.6286 -0.3059  0.8250
  205MOL0     C28215  -0.143   9.489   5.950  1.0995 -0.7715  0.2418
  205MOL0     C28216  -0.243   9.510   5.843  0.8855  0.1026  0.0064
  205MOL0     C28217  -0.314   9.515   5.751  0.2126 -0.1464  0.1068
  205MOL0     C28218   0.452   9.782   5.879 -0.0741  0.1727  0.2486
  205MOL0     C28219   0.585   9.825   5.870  0.9657  0.1007 -0.1004
  205MOL0     C28220   0.651   9.814   5.730  0.4210 -0.0396 -0.0218
  205MOL0     H28221   0.850  10.223   6.041 -0.5126 -1.2312 -1.9434
  205MOL0     H28222   1.058  10.345   6.000 -1.6256 -2.3248 -2.9983
  205MOL0     H28223   1.258  10.487   6.112  1.6603  2.8798 -1.1752
  205MOL0     H28224   1.283  10.413   5.947 -2.4219  1.4236  0.7647
  205MOL0     H28225   1.454  10.563   6.011  0.2205  0.8893 -0.1178
  205MOL0     H28226   1.479  10.486   6.167  0.9315 -1.4962 -0.1959
  205MOL0     H28227   1.550  10.281   6.032 -1.3017 -1.4438 -1.6352
  205MOL0     H28228   1.532  10.377   5.884 -1.7205 -2.2665  0.1671
  205MOL0     H28229   1.705  10.530   5.959  1.3265  0.2054 -0.7998
  205MOL0     H28230   1.701  10.472   6.121  1.2517  1.8823 -0.9613
  205MOL0     H28231   1.847  10.343   5.898 -2.2728  2.5853 -0.5970
  205MOL0     H28232   1.800  10.253   6.049 -0.6634 -0.2052  0.2365
  205MOL0     H28233   1.931  10.391   6.193  2.0385  0.2733  1.0752
  205MOL0     H28234   2.038  10.331   6.067 -0.9172 -0.0338 -0.6139
  205MOL0     H28235   1.894  10.604   6.045  0.9103  2.3367  1.0767
  205MOL0     H28236   2.022  10.556   5.943  0.2511  2.2372 -0.8191
  205MOL0     H28237   2.096  10.712   6.108 -1.8264 -0.3257 -2.0234
  205MOL0     H28238   2.062  10.622   6.246  0.3860 -0.0742  0.1141
  205MOL0     H28239   2.173  10.354   6.242 -0.8927  0.1334  1.8967
  205MOL0     H28240   2.435  10.221   6.206 -0.1445  0.2675 -0.6450
  205MOL0     H28241   2.391  10.260   6.375 -0.1617  0.8911  0.1034
  205MOL0     H28242   2.629  10.186   6.348  0.4605  0.8048  1.8550
  205MOL0     H28243   2.662  10.325   6.248  1.9814 -1.5711  1.0658
  205MOL0     H28244   2.668  10.482   6.399 -0.4016 -0.1883 -2.0640
  205MOL0     H28245   2.551  10.407   6.510  0.9260  1.0908  1.3277
  205MOL0     H28246   2.760  10.395   6.623  0.7073 -0.6524  0.9281
  205MOL0     H28247   2.791  10.243   6.537  3.4625  1.0824  2.1948
  205MOL0     H28248   2.949  10.254   6.686  0.6514 -2.1335  0.3594
  205MOL0     H28249   3.112  10.158   6.833 -1.5307  1.2088  0.0515
  205MOL0     H28250   3.146  10.305   6.914 -1.2883 -1.5539  0.2796
  205MOL0     H28251   3.279  10.195   6.845  0.3838  0.2449 -2.5692
  205MOL0     H28252   3.509  10.164   6.869 -0.7882 -2.0328 -2.4347
  205MOL0     H28253   3.711  10.155   7.013 -2.0988  0.1631  0.0038
  205MOL0     H28254   3.887  10.142   7.131 -0.9356  0.0045 -0.7879
  205MOL0     H28255   3.940  10.014   7.021  0.0234 -1.3120  1.9865
  205MOL0     H28256   4.078  10.052   7.239  0.1669 -0.2455  1.3481
  205MOL0     H28257   4.170  10.047   7.082  0.9879  2.6750  1.1951
  205MOL0     H28258   4.068  10.275   7.253  0.1565 -1.6057  2.5512
  205MOL0     H28259   4.137  10.305   7.099  3.5216 -0.5756  0.3191
  205MOL0     H28260   4.352  10.187   7.185 -2.0735 -1.8930 -0.9521
  205MOL0     H28261   4.284  10.186   7.354  2.1395  0.7762 -0.0060
  205MOL0     H28262   4.325  10.421   7.196  1.4353 -0.5722  0.7043
  205MOL0     H28263   4.251  10.426   7.358 -2.9740 -1.5757 -0.4773
  205MOL0     H28264   4.543  10.318   7.316 -0.5443 -1.4796  0.9414
  205MOL0     H28265   4.440  10.355   7.458  2.1145  0.2540  0.6724
  205MOL0     H28266   4.421  10.595   7.380 -0.3945  2.2238 -1.5177
  205MOL0     H28267   4.532  10.557   7.240  0.3895 -0.5365  0.3551
  205MOL0     H28268   4.598  10.590   7.537 -4.6590 -0.4167 -0.9687
  205MOL0     H28269   4.677  10.672   7.396 -1.6194  2.3670  2.0852
  205MOL0     H28270   3.954  10.305   6.703  0.8922  0.0297  0.4504
  205MOL0     H28271   3.745  10.353   6.566 -1.8192 -3.4576 -2.1186
  205MOL0     H28272   3.327  10.472   6.455 -0.0477 -1.1497 -1.5301
  205MOL0     H28273   3.100  10.489   6.357 -0.2616  2.8292  1.5661
  205MOL0     H28274   1.280  10.028   6.186  0.3989  2.2945  1.6603
  205MOL0     H28275   1.060   9.895   6.195  0.0261 -0.2367 -0.7315
  205MOL0     H28276   0.618   9.883   6.206 -0.3215 -0.7430 -0.1629
  205MOL0     H28277   0.396   9.777   6.208  1.0850 -2.0521  0.5757
  205MOL0     H28278   0.203   9.715   6.181  1.2834 -0.5760 -0.7586
  205MOL0     H28279   0.085   9.802   6.079 -0.5191  0.2112  1.2621
  205MOL0     H28280   0.032   9.556   6.162 -0.8713 -0.3223 -0.1527
  205MOL0     H28281   0.125   9.495   6.047 -0.1479  0.3544  2.2900
  205MOL0     H28282  -0.083   9.700   5.960 -1.1919 -1.0032 -0.7722
  205MOL0     H28283   0.013   9.597   5.857  2.5055  0.3448  1.7163
  205MOL0     H28284  -0.192   9.481   6.048 -1.1700 -0.2878 -0.7760
  205MOL0     H28285  -0.097   9.391   5.934  0.6124 -0.7991 -1.1188
  205MOL0     H28286  -0.377   9.515   5.664  1.8864 -0.5832 -1.1562
  205MOL0     H28287   0.388   9.756   5.795  0.9926  0.4783 -0.6871
  205MOL0     H28288   0.653   9.909   5.676 -2.1241 -0.5968 -1.2590
  205MOL0     H28289   0.750   9.769   5.723  1.0485  1.4629 -1.4614
  205MOL0     H28290   0.579   9.752   5.676 -0.1105  0.8588 -0.3773
  206MOL0     O28291  10.793   8.041   6.753 -0.1374 -0.3846 -0.1360
  206MOL0     C28292  10.830   7.959   6.840  0.6541  0.1841  0.6154
  206MOL0     O28293  10.957   7.907   6.854 -1.1402 -0.1939  0.1794
  206MOL0     C28294  11.059   7.972   6.778 -0.0435 -0.2088 -0.8879
  206MOL0     C28295  11.099   8.110   6.787  0.2606  0.5114  0.2313
  206MOL0     C28296  11.204   8.165   6.713 -0.3879  0.5340  0.0967
  206MOL0     C28297  11.269   8.085   6.613 -0.1400 -0.7450 -0.2460
  206MOL0     O28298  11.352   8.144   6.521  0.0468  0.1819 -1.0713
  206MOL0     C28299  11.492   8.122   6.531 -0.7514 -0.3575 -0.5676
  206MOL0     C28300  11.566   8.197   6.416 -0.1055  0.1914 -0.1956
  206MOL0     C28301  11.514   8.342   6.410  0.9066 -0.3886 -0.4826
  206MOL0     C28302  11.568   8.394   6.285  0.2493 -0.8071  0.2632
  206MOL0     C28303  11.507   8.535   6.256  0.1500  0.1610  0.0582
  206MOL0     C28304  11.528   8.592   6.112 -0.3814  1.0770 -0.0407
  206MOL0     C28305  11.499   8.735   6.108  0.5564 -0.0475  0.0602
  206MOL0     C28306  11.620   8.823   6.162 -0.4117 -0.5776  0.1649
  206MOL0     N28307  11.745   8.802   6.089  0.4200 -0.0237  0.5418
  206MOL0     C28308  11.868   8.825   6.147  0.5867 -0.2837 -0.3987
  206MOL0     C28309  11.958   8.789   6.045  0.2799 -0.7520  0.0373
  206MOL0     C28310  12.101   8.780   6.056 -0.0962  0.5888  0.2063
  206MOL0     C28311  12.145   8.635   6.034 -0.2210 -0.6777  0.1150
  206MOL0     C28312  12.303   8.632   6.018  0.3794 -1.3841  0.5159
  206MOL0     C28313  12.337   8.509   5.941 -0.7825  0.5478  0.2435
  206MOL0     O28314  12.486   8.503   5.928  1.3502  0.2463  0.7774
  206MOL0     C28315  12.557   8.385   5.908 -0.2562 -1.3517  0.0425
  206MOL0     C28316  12.486   8.264   5.891  0.0331  0.2902  0.5058
  206MOL0     C28317  12.557   8.142   5.876  0.4146 -0.1088  0.0496
  206MOL0     C28318  12.473   8.012   5.869  0.6500 -0.3309  0.8147
  206MOL0     C28319  12.699   8.144   5.877  0.2647  0.1419  0.2758
  206MOL0     C28320  12.783   8.026   5.842 -0.5744 -0.2125 -0.4176
  206MOL0     O28321  12.915   8.037   5.881 -0.0909  0.7202 -0.5872
  206MOL0     C28322  12.987   7.925   5.865  0.0113  0.2680  0.0206
  206MOL0     C28323  12.968   7.827   5.963 -0.3619 -0.4913 -0.6189
  206MOL0     C28324  13.060   7.720   5.969 -0.4208  0.2785  0.3013
  206MOL0     C28325  13.157   7.699   5.872 -0.2119 -0.3273 -0.2103
  206MOL0     O28326  13.235   7.581   5.867 -0.2227 -0.4984  0.3683
  206MOL0     C28327  13.162   7.453   5.868 -0.3629  0.0007 -0.2208
  206MOL0     C28328  13.263   7.352   5.936  0.4330  0.2550 -0.1333
  206MOL0     C28329  13.212   7.202   5.954  1.1603 -1.0100  0.3035
  206MOL0     C28330  13.085   7.215   6.041 -0.7396  0.2327 -0.6692
  206MOL0     C28331  13.038   7.090   6.114  0.4974 -0.2651  0.3365
  206MOL0     C28332  13.138   7.015   6.202 -0.1970 -0.7099  0.1956
  206MOL0     C28333  13.076   6.887   6.257  0.3633  0.6420 -0.2009
  206MOL0     C28334  13.164   6.810   6.353  0.0545  0.2510 -0.4442
  206MOL0    Cl28335  13.290   6.707   6.271 -0.1577  0.5509  0.1143
  206MOL0     C28336  13.177   7.800   5.778  0.1949 -0.3079  0.5598
  206MOL0     C28337  13.091   7.912   5.776  0.0773 -0.7034 -0.1676
  206MOL0     O28338  12.741   7.931   5.776  0.3815 -0.2994  1.3107
  206MOL0     C28339  12.766   8.263   5.906 -0.3383 -0.3574  0.9160
  206MOL0     C28340  12.692   8.384   5.927 -0.7998  0.7742  0.1677
  206MOL0     N28341  11.887   8.765   5.934  0.0876  0.7404  0.3801
  206MOL0     N28342  11.760   8.782   5.955  0.0085  0.1886  0.1778
  206MOL0     C28343  11.245   7.948   6.615 -0.0180 -0.3975 -0.9011
  206MOL0     C28344  11.142   7.895   6.694  0.3429 -0.0934 -0.4799
  206MOL0     C28345  10.726   7.915   6.931  0.1423  1.1829  0.7167
  206MOL0     C28346  10.746   7.785   6.984 -0.9003 -1.1077 -0.0610
  206MOL0     C28347  10.648   7.721   7.056  0.6039 -0.9732 -0.1581
  206MOL0     C28348  10.518   7.779   7.081 -0.2823  0.0226 -0.2575
  206MOL0     O28349  10.426   7.717   7.154 -0.2676  0.3220  0.0822
  206MOL0     C28350  10.294   7.751   7.132  0.6013  0.1097 -0.5844
  206MOL0     C28351  10.198   7.668   7.200  0.4291  0.3946  0.5180
  206MOL0     C28352  10.120   7.550   7.123  0.2107 -0.2143 -0.4205
  206MOL0     C28353  10.017   7.487   7.229 -1.7377  0.3607  0.1650
  206MOL0     C28354  10.078   7.419   7.343  0.2781  0.1356  0.3933
  206MOL0     C28355  10.124   7.357   7.435 -0.2431 -0.0683 -0.6321
  206MOL0     C28356  10.508   7.908   7.027 -0.0291 -0.1297 -0.6978
  206MOL0     C28357  10.604   7.981   6.958 -0.7996  0.5120  0.7800
  206MOL0     C28358  10.555   8.114   6.909 -0.5650  0.4741  0.4060
  206MOL0     H28359  11.041   8.180   6.847 -0.6614 -0.7456  0.8690
  206MOL0     H28360  11.229   8.270   6.723 -1.0059  0.6609  0.3733
  206MOL0     H28361  11.517   8.016   6.526 -4.7364 -1.5250  0.4822
  206MOL0     H28362  11.525   8.156   6.630  2.8526 -1.4626 -1.2618
  206MOL0     H28363  11.671   8.213   6.443  0.8684  0.3488 -3.6423
  206MOL0     H28364  11.557   8.145   6.320 -1.1408  0.0472 -0.0246
  206MOL0     H28365  11.407   8.336   6.389  0.4619 -1.1594  1.7705
  206MOL0     H28366  11.541   8.409   6.493  0.9816  0.0782 -0.8788
  206MOL0     H28367  11.674   8.420   6.296 -0.2975  1.8197 -0.0462
  206MOL0     H28368  11.549   8.329   6.199 -0.3697  1.1435 -1.1534
  206MOL0     H28369  11.561   8.604   6.322  0.0400  1.4849 -1.1847
  206MOL0     H28370  11.398   8.536   6.264  0.0415  0.3384 -1.2774
  206MOL0     H28371  11.630   8.576   6.075 -1.0555 -1.0787 -1.1279
  206MOL0     H28372  11.466   8.526   6.050  1.6116 -1.4603  0.4939
  206MOL0     H28373  11.410   8.748   6.170 -0.5185 -3.6729 -0.4833
  206MOL0     H28374  11.463   8.769   6.010 -2.9832 -0.5386  1.0566
  206MOL0     H28375  11.604   8.931   6.157  0.6267 -0.4203  0.0260
  206MOL0     H28376  11.638   8.800   6.267 -0.4581 -1.5259 -0.0243
  206MOL0     H28377  11.893   8.846   6.251  0.7117 -2.0113 -0.0526
  206MOL0     H28378  12.128   8.821   6.154  0.3861 -1.0753  0.8155
  206MOL0     H28379  12.147   8.848   5.985 -1.3094  0.9645 -0.2476
  206MOL0     H28380  12.119   8.587   6.129  1.9389 -2.2839 -0.0053
  206MOL0     H28381  12.098   8.591   5.946 -0.3403  2.4619 -1.5330
  206MOL0     H28382  12.338   8.714   5.955  2.8225 -0.3648  2.9789
  206MOL0     H28383  12.352   8.629   6.116 -1.0486  2.7289  1.5424
  206MOL0     H28384  12.300   8.420   5.993  0.6114  0.2869  0.8204
  206MOL0     H28385  12.283   8.509   5.846 -0.4596 -2.5113 -0.0291
  206MOL0     H28386  12.378   8.259   5.881  0.0423  1.8949 -0.9397
  206MOL0     H28387  12.496   7.957   5.778  2.3506  1.8980 -0.1909
  206MOL0     H28388  12.367   8.038   5.872  0.9384  1.0419 -0.0068
  206MOL0     H28389  12.498   7.951   5.956 -0.7602 -0.5745  1.0593
  206MOL0     H28390  12.880   7.829   6.026 -0.8806 -2.3054 -1.2273
  206MOL0     H28391  13.039   7.651   6.051  0.2385  0.6451  0.7918
  206MOL0     H28392  13.072   7.461   5.930  0.3147  0.1073  0.7765
  206MOL0     H28393  13.146   7.422   5.765  0.5015  0.7093 -0.5850
  206MOL0     H28394  13.355   7.352   5.877  0.5918 -1.7606  0.0563
  206MOL0     H28395  13.288   7.387   6.037 -1.1461  2.2683 -0.3704
  206MOL0     H28396  13.298   7.160   6.007  0.0319  0.7252  3.7569
  206MOL0     H28397  13.191   7.151   5.859 -0.4202  1.2105 -0.6138
  206MOL0     H28398  12.999   7.249   5.982 -1.9548 -0.8630  0.4284
  206MOL0     H28399  13.101   7.286   6.123  1.4677 -1.8755  0.8503
  206MOL0     H28400  12.952   7.123   6.172  0.4447  0.7217 -0.2897
  206MOL0     H28401  13.000   7.012   6.047  0.2085 -0.4797  0.7434
  206MOL0     H28402  13.171   7.080   6.283 -3.6448 -0.3736  1.5229
  206MOL0     H28403  13.227   6.984   6.147 -0.4756 -1.3734  0.1031
  206MOL0     H28404  13.039   6.829   6.172  1.9176  0.1626 -0.5897
  206MOL0     H28405  12.985   6.913   6.311  0.5934  0.4432  0.2912
  206MOL0     H28406  13.112   6.737   6.415 -0.4271 -1.7692 -3.0593
  206MOL0     H28407  13.209   6.879   6.425  0.6643  1.0094 -1.5096
  206MOL0     H28408  13.247   7.795   5.694 -2.2776 -1.1992 -1.5895
  206MOL0     H28409  13.101   7.989   5.700  3.6967 -0.8405 -0.0103
  206MOL0     H28410  12.874   8.271   5.900 -0.2560 -1.4998  0.5843
  206MOL0     H28411  12.747   8.471   5.961 -0.5194  0.0382  1.6884
  206MOL0     H28412  11.301   7.883   6.548 -0.9753 -1.3789 -0.7748
  206MOL0     H28413  11.126   7.788   6.699 -2.5856  0.2970 -0.2607
  206MOL0     H28414  10.831   7.720   6.966  1.2499  0.8307  2.3573
  206MOL0     H28415  10.673   7.629   7.108  0.1929 -0.1061  1.6450
  206MOL0     H28416  10.286   7.855   7.166  2.4176 -0.1657  0.8498
  206MOL0     H28417  10.268   7.749   7.026 -1.5880  0.9705 -0.1299
  206MOL0     H28418  10.121   7.735   7.239  0.7792  0.6435  0.7988
  206MOL0     H28419  10.259   7.637   7.286  2.1149  1.8104 -0.1034
  206MOL0     H28420  10.059   7.588   7.041 -0.1067  0.3016  0.0472
  206MOL0     H28421  10.191   7.475   7.086  1.4915 -0.1708  1.7926
  206MOL0     H28422   9.979   7.399   7.175  0.2679 -2.2408  2.6501
  206MOL0     H28423   9.940   7.557   7.261 -0.7809  2.0450 -1.0515
  206MOL0     H28424  10.163   7.303   7.519  0.4237  1.1902 -0.1039
  206MOL0     H28425  10.415   7.961   7.045 -0.5422 -1.4771  0.9459
  206MOL0     H28426  10.524   8.095   6.806  1.7000  0.2602 -0.3081
  206MOL0     H28427  10.469   8.153   6.963 -0.5960  0.0896  0.6401
  206MOL0     H28428  10.637   8.186   6.918  1.0749 -1.3887  1.1245
  207MOL0     O28429   9.453   7.536   5.439  0.1683 -0.5436 -0.4829
  207MOL0     C28430   9.399   7.623   5.378 -0.0576  0.3954  0.8943
  207MOL0     O28431   9.471   7.714   5.305  0.0062  0.3644  0.5241
  207MOL0     C28432   9.604   7.695   5.286 -0.8575 -0.1939 -0.7455
  207MOL0     C28433   9.644   7.594   5.193  0.5322 -0.0138  0.3847
  207MOL0     C28434   9.778   7.571   5.172 -0.3731  0.1076 -0.3789
  207MOL0     C28435   9.878   7.631   5.246  0.2790 -0.4838 -0.1861
  207MOL0     O28436  10.006   7.599   5.228 -0.2496  0.3674 -0.3553
  207MOL0     C28437  10.090   7.603   5.341  0.2191 -0.1126  0.7269
  207MOL0     C28438  10.225   7.561   5.279  0.0597  0.0507 -0.7600
  207MOL0     C28439  10.326   7.575   5.395  0.3627 -0.1192 -0.1299
  207MOL0     C28440  10.467   7.529   5.346  0.1833  0.1705 -0.5321
  207MOL0     C28441  10.576   7.603   5.421 -0.6747  0.5015 -0.3969
  207MOL0     C28442  10.715   7.559   5.373  0.0031 -0.3320 -0.2134
  207MOL0     C28443  10.821   7.641   5.445 -0.4413 -0.4802  0.0177
  207MOL0     C28444  10.956   7.606   5.385  0.6747  0.1547  0.5530
  207MOL0     N28445  11.074   7.678   5.427 -0.3390  0.1452  0.0729
  207MOL0     C28446  11.161   7.756   5.354 -0.6485  0.7980 -0.1216
  207MOL0     C28447  11.244   7.812   5.448 -0.3752  0.3199 -0.5842
  207MOL0     C28448  11.357   7.905   5.417 -0.9579 -0.3608  0.1529
  207MOL0     C28449  11.484   7.816   5.399  0.5544 -0.1416  0.1026
  207MOL0     C28450  11.610   7.902   5.393 -0.3542  0.2709 -0.0701
  207MOL0     C28451  11.722   7.818   5.344  0.0099  0.2287  0.4026
  207MOL0     O28452  11.840   7.896   5.314 -0.6646  0.2164 -0.2978
  207MOL0     C28453  11.961   7.828   5.297 -0.5033 -0.8046  0.2579
  207MOL0     C28454  11.975   7.690   5.296  0.1945  0.6077  0.9077
  207MOL0     C28455  12.096   7.620   5.289 -0.2910  0.2199  0.7486
  207MOL0     C28456  12.100   7.464   5.297  0.8880  0.5018  0.5477
  207MOL0     C28457  12.218   7.699   5.278 -0.3208 -0.3215  0.0419
  207MOL0     C28458  12.361   7.635   5.270 -0.1595 -0.3927 -0.0875
  207MOL0     O28459  12.457   7.730   5.243  0.1533 -0.4565 -0.3358
  207MOL0     C28460  12.576   7.684   5.200  0.2425 -0.8306 -0.0960
  207MOL0     C28461  12.596   7.584   5.107 -0.1387 -0.0017  0.6337
  207MOL0     C28462  12.720   7.544   5.055  0.0343 -0.1131 -0.3673
  207MOL0     C28463  12.834   7.615   5.106 -0.1106 -0.0681  0.7152
  207MOL0     O28464  12.959   7.577   5.074 -0.1060 -0.3927 -0.3273
  207MOL0     C28465  12.989   7.592   4.937  0.0016  0.1540  0.0780
  207MOL0     C28466  13.099   7.700   4.927  0.3603  0.0244  0.3052
  207MOL0     C28467  13.052   7.849   4.942  0.3243  0.0147  0.3804
  207MOL0     C28468  12.958   7.895   4.836  0.5015  0.5636 -0.2351
  207MOL0     C28469  12.891   8.023   4.858 -0.9178 -0.6379  0.0100
  207MOL0     C28470  12.791   8.034   4.977 -0.2259 -0.2522 -0.6683
  207MOL0     C28471  12.690   8.149   4.956  0.0046 -0.6155  0.3704
  207MOL0     C28472  12.600   8.162   5.085  0.9717  0.7097  0.0566
  207MOL0    Cl28473  12.467   8.042   5.079  0.3165  0.1757  0.2941
  207MOL0     C28474  12.819   7.710   5.209  0.2943  0.6830  0.0542
  207MOL0     C28475  12.689   7.740   5.246 -0.3743 -0.1844  0.0300
  207MOL0     O28476  12.379   7.522   5.307  0.4520  0.1490  0.8828
  207MOL0     C28477  12.199   7.836   5.251 -0.0734 -0.6964 -0.6534
  207MOL0     C28478  12.074   7.902   5.265 -0.6435  0.6355  0.0418
  207MOL0     N28479  11.210   7.759   5.574 -0.0901 -0.2427  0.0045
  207MOL0     N28480  11.116   7.675   5.556  0.2855  0.2187 -0.7237
  207MOL0     C28481   9.837   7.723   5.346  0.2491  0.9516  0.9634
  207MOL0     C28482   9.703   7.749   5.365 -0.1558 -0.1494 -0.1379
  207MOL0     C28483   9.246   7.633   5.385  0.4581  0.4592  0.4022
  207MOL0     C28484   9.174   7.731   5.314 -0.9079  0.2163  0.5086
  207MOL0     C28485   9.034   7.737   5.322 -0.2693  0.5403  0.0848
  207MOL0     C28486   8.962   7.664   5.417  0.2599 -0.4243 -0.7472
  207MOL0     O28487   8.835   7.675   5.442 -0.1014 -0.0163 -0.5273
  207MOL0     C28488   8.760   7.592   5.355 -0.0951 -0.3696  0.9048
  207MOL0     C28489   8.710   7.681   5.248  0.3574 -1.8011  0.4252
  207MOL0     C28490   8.616   7.791   5.304 -0.0302 -0.0383  0.0658
  207MOL0     C28491   8.538   7.869   5.193  0.4887 -0.1655  0.0346
  207MOL0     C28492   8.480   7.791   5.083 -0.1341  0.1273 -1.3646
  207MOL0     C28493   8.442   7.728   4.991 -0.5078 -0.2153  0.3775
  207MOL0     C28494   9.031   7.581   5.506 -0.1655  0.4374  0.2592
  207MOL0     C28495   9.171   7.557   5.480 -0.1420  0.1387 -0.6855
  207MOL0     C28496   9.213   7.454   5.576  0.1416  0.7828 -0.5093
  207MOL0     H28497   9.563   7.533   5.155 -2.2008  1.2178  3.6657
  207MOL0     H28498   9.805   7.487   5.107 -0.2149 -0.6588  0.6540
  207MOL0     H28499  10.050   7.526   5.408 -1.1801  0.1340  0.2187
  207MOL0     H28500  10.094   7.697   5.398 -0.5539  0.3871 -0.0267
  207MOL0     H28501  10.224   7.457   5.246 -0.3718 -0.1044 -0.2718
  207MOL0     H28502  10.248   7.632   5.198  1.3734 -0.7322 -1.1076
  207MOL0     H28503  10.320   7.681   5.421 -0.3775 -0.0179 -0.6908
  207MOL0     H28504  10.300   7.520   5.486  0.6038  0.3409  0.2206
  207MOL0     H28505  10.483   7.421   5.356 -2.8783 -0.3260  0.1996
  207MOL0     H28506  10.485   7.546   5.239  1.9546  1.4045 -0.0857
  207MOL0     H28507  10.562   7.577   5.526 -1.0623  0.7432 -0.3882
  207MOL0     H28508  10.563   7.710   5.401 -1.5082 -0.2429 -4.9618
  207MOL0     H28509  10.721   7.458   5.415 -2.6723 -2.2684 -3.8294
  207MOL0     H28510  10.731   7.547   5.265 -1.0835  3.1937 -0.8962
  207MOL0     H28511  10.810   7.616   5.551  0.4231  1.2092  0.5514
  207MOL0     H28512  10.800   7.747   5.427  0.3469 -0.5982 -1.8675
  207MOL0     H28513  10.980   7.500   5.398  0.2716 -0.3331 -2.1489
  207MOL0     H28514  10.949   7.624   5.277 -4.8526 -0.1276  0.5790
  207MOL0     H28515  11.167   7.783   5.249  0.0668  0.1850 -0.2534
  207MOL0     H28516  11.359   7.979   5.498 -0.1242 -0.2827  0.0668
  207MOL0     H28517  11.334   7.959   5.324  0.0335 -0.4974 -0.1771
  207MOL0     H28518  11.498   7.745   5.481 -1.2178 -0.4299  0.1999
  207MOL0     H28519  11.473   7.765   5.304 -0.2875  0.7466 -0.2924
  207MOL0     H28520  11.599   7.987   5.325  1.6804 -0.5660 -1.5192
  207MOL0     H28521  11.641   7.932   5.494  0.5086 -0.3734 -0.1430
  207MOL0     H28522  11.739   7.738   5.418  0.8120  0.3618  0.3665
  207MOL0     H28523  11.688   7.777   5.248  0.1417 -1.2163  0.9433
  207MOL0     H28524  11.884   7.632   5.292 -0.2466  1.1171  2.5736
  207MOL0     H28525  12.000   7.421   5.293  0.4678  1.2968  1.8412
  207MOL0     H28526  12.135   7.440   5.398 -0.7502  0.8850  1.2451
  207MOL0     H28527  12.163   7.418   5.220 -0.7171  1.4609 -1.4486
  207MOL0     H28528  12.513   7.532   5.060  0.8321 -1.5976  0.6241
  207MOL0     H28529  12.734   7.463   4.983 -2.4950 -0.7010 -0.2894
  207MOL0     H28530  13.021   7.498   4.892  3.2661  1.5967 -0.8869
  207MOL0     H28531  12.903   7.625   4.878  1.6382  1.3833 -1.7556
  207MOL0     H28532  13.167   7.672   5.007 -0.1443 -2.4861 -0.0548
  207MOL0     H28533  13.151   7.678   4.833  0.5826 -1.4686  0.7558
  207MOL0     H28534  13.140   7.913   4.955  0.1103 -0.2779  4.8622
  207MOL0     H28535  12.993   7.868   5.032  0.3916  0.6125  0.3035
  207MOL0     H28536  12.871   7.830   4.822 -0.0643  0.5914  2.5968
  207MOL0     H28537  13.011   7.898   4.740 -1.0304 -0.0948 -1.1469
  207MOL0     H28538  12.963   8.103   4.875  1.6173 -1.9693 -3.3227
  207MOL0     H28539  12.842   8.047   4.763 -1.6290  1.0570  0.7568
  207MOL0     H28540  12.838   8.047   5.075  0.7610  0.1665 -1.1838
  207MOL0     H28541  12.747   7.934   4.986  0.8741 -0.8907 -1.9514
  207MOL0     H28542  12.631   8.139   4.865 -1.9944  3.4686  1.0294
  207MOL0     H28543  12.743   8.244   4.960 -1.2872  0.0924  1.5709
  207MOL0     H28544  12.554   8.261   5.088 -1.1965 -0.0530 -3.0097
  207MOL0     H28545  12.643   8.150   5.185 -0.6497  0.5306  0.7581
  207MOL0     H28546  12.896   7.763   5.264  0.8122  0.6676 -0.6457
  207MOL0     H28547  12.684   7.805   5.333 -1.0229  0.1997 -0.2896
  207MOL0     H28548  12.278   7.909   5.232 -1.3367  2.0657  3.3225
  207MOL0     H28549  12.059   8.009   5.258  0.2642  0.6756 -4.2808
  207MOL0     H28550   9.905   7.779   5.409 -0.0344  4.3335 -1.4758
  207MOL0     H28551   9.670   7.808   5.450  1.1612 -1.6627  1.5123
  207MOL0     H28552   9.216   7.800   5.242 -0.5273 -0.9503 -0.4295
  207MOL0     H28553   8.990   7.812   5.258  0.6265  0.8108 -0.2247
  207MOL0     H28554   8.815   7.503   5.323  0.0926 -0.1614  0.6507
  207MOL0     H28555   8.675   7.551   5.411  0.8779 -2.3219  1.0456
  207MOL0     H28556   8.650   7.615   5.185 -2.2544  0.3262  0.4470
  207MOL0     H28557   8.793   7.717   5.187 -0.5339 -0.8362 -0.2601
  207MOL0     H28558   8.546   7.749   5.377 -1.5676  1.7544 -0.3087
  207MOL0     H28559   8.673   7.869   5.355  0.5076 -1.8360  2.3842
  207MOL0     H28560   8.605   7.934   5.137 -0.5248  0.2704 -0.7176
  207MOL0     H28561   8.453   7.928   5.228  0.7760  0.4158 -0.2365
  207MOL0     H28562   8.413   7.663   4.910  1.2187  0.0063 -0.4872
  207MOL0     H28563   8.974   7.523   5.579 -0.6976  0.6539  0.0251
  207MOL0     H28564   9.306   7.473   5.630 -0.3310  1.6617  0.0161
  207MOL0     H28565   9.135   7.418   5.643  0.9313 -1.1919 -0.6003
  207MOL0     H28566   9.230   7.361   5.521 -1.2787 -1.0365  1.9542
  208MOL0     O28567   8.221   7.572   8.844 -0.2168  0.9418  0.5826
  208MOL0     C28568   8.289   7.587   8.746 -0.3621  1.0678 -0.0103
  208MOL0     O28569   8.418   7.636   8.742  0.5118 -0.2039 -0.8188
  208MOL0     C28570   8.486   7.634   8.863  0.2081 -0.5087 -0.3675
  208MOL0     C28571   8.549   7.521   8.913 -0.4712  0.1701 -0.3719
  208MOL0     C28572   8.610   7.520   9.042  0.7782  0.0077  0.5294
  208MOL0     C28573   8.621   7.636   9.118 -0.3729  0.4157  0.3490
  208MOL0     O28574   8.687   7.621   9.241  0.0742 -0.6234 -0.2983
  208MOL0     C28575   8.766   7.736   9.281  0.0155  0.5302 -0.7169
  208MOL0     C28576   8.864   7.706   9.396  0.2122  0.2169 -0.3194
  208MOL0     C28577   8.958   7.601   9.342 -0.0468 -0.2855  0.6903
  208MOL0     C28578   9.045   7.561   9.453 -0.5086 -0.4356 -0.0412
  208MOL0     C28579   9.160   7.473   9.397  0.1079 -0.1959 -0.6666
  208MOL0     C28580   9.240   7.416   9.506 -0.0679  0.4697 -0.6297
  208MOL0     C28581   9.364   7.339   9.448  0.2107  0.2509 -0.6266
  208MOL0     C28582   9.461   7.310   9.559 -0.4112  0.1365  0.3000
  208MOL0     N28583   9.582   7.240   9.520  0.1137 -0.5213  0.1974
  208MOL0     C28584   9.713   7.282   9.538  0.3239 -0.2517 -0.3352
  208MOL0     C28585   9.789   7.193   9.490 -0.5646  0.6114  0.1796
  208MOL0     C28586   9.946   7.185   9.518  0.0742 -0.4045 -0.0032
  208MOL0     C28587   9.990   7.236   9.663 -0.7549  1.0255  0.6761
  208MOL0     C28588  10.129   7.174   9.676  0.0036 -0.5026  0.0630
  208MOL0     C28589  10.182   7.188   9.821 -0.2044 -0.4607  0.3284
  208MOL0     O28590  10.308   7.118   9.827 -0.9229  0.6933  0.0037
  208MOL0     C28591  10.428   7.190   9.810  0.1951  0.9092  0.3479
  208MOL0     C28592  10.488   7.187   9.681 -0.2704  0.0167  0.0210
  208MOL0     C28593  10.602   7.261   9.656 -1.4226  1.4861  0.6218
  208MOL0     C28594  10.664   7.247   9.521  0.1091 -0.2567  0.6074
  208MOL0     C28595  10.668   7.339   9.760 -0.0347  0.4287 -0.4901
  208MOL0     C28596  10.796   7.414   9.743 -0.5191  0.4853 -0.1123
  208MOL0     O28597  10.847   7.463   9.852  0.2293  0.3501 -0.1453
  208MOL0     C28598  10.975   7.511   9.840  0.5730  0.1932 -0.0744
  208MOL0     C28599  10.995   7.652   9.835 -0.6837 -0.8451  0.0728
  208MOL0     C28600  11.124   7.693   9.829 -0.6235  0.1987 -0.5908
  208MOL0     C28601  11.234   7.607   9.832  0.0780 -0.2881 -0.9004
  208MOL0     O28602  11.352   7.670   9.850 -0.0033  0.1029  0.5742
  208MOL0     C28603  11.476   7.595   9.853  0.3699 -0.7253 -0.1826
  208MOL0     C28604  11.594   7.694   9.846 -0.2297  0.1211  0.8058
  208MOL0     C28605  11.714   7.647   9.920  0.1059  0.3668  0.0059
  208MOL0     C28606  11.821   7.757   9.937  0.7003 -0.0600 -0.1839
  208MOL0     C28607  11.959   7.711   9.981 -0.6708  0.2273  0.7552
  208MOL0     C28608  12.050   7.832  10.008  0.5712  0.2904  0.3326
  208MOL0     C28609  12.194   7.787  10.003 -0.0394 -0.0365 -0.5324
  208MOL0     C28610  12.276   7.900  10.064  1.1331  0.3696  0.6051
  208MOL0    Cl28611  12.300   8.040   9.947  0.1957 -0.2332 -0.5636
  208MOL0     C28612  11.215   7.474   9.847  0.5566 -0.5369 -0.6127
  208MOL0     C28613  11.085   7.422   9.848 -0.5261  0.7283  0.1200
  208MOL0     O28614  10.853   7.431   9.628 -0.5212  0.7823  0.5691
  208MOL0     C28615  10.605   7.341   9.884 -0.1164  0.3202 -1.1563
  208MOL0     C28616  10.487   7.263   9.914 -0.3573 -0.0444 -0.6339
  208MOL0     N28617   9.711   7.084   9.448 -0.6480 -0.3056  0.9250
  208MOL0     N28618   9.586   7.117   9.454  0.0855 -0.5608  0.2239
  208MOL0     C28619   8.556   7.744   9.061 -0.4971  0.4088 -0.1053
  208MOL0     C28620   8.482   7.747   8.942  0.6620 -0.8483  0.3163
  208MOL0     C28621   8.228   7.553   8.616  0.1664 -0.5064 -0.2316
  208MOL0     C28622   8.101   7.491   8.613 -0.5366 -0.9229 -0.0684
  208MOL0     C28623   8.025   7.460   8.502 -0.3210 -0.3602  0.3525
  208MOL0     C28624   8.095   7.471   8.380 -0.4062 -1.2424 -0.1829
  208MOL0     O28625   8.033   7.453   8.259 -0.8687 -0.3472  0.2469
  208MOL0     C28626   7.943   7.346   8.250  0.0840  0.3858 -0.5573
  208MOL0     C28627   8.011   7.208   8.264  0.0552  0.0878 -0.1646
  208MOL0     C28628   7.911   7.095   8.231 -0.1202 -0.8674 -0.1951
  208MOL0     C28629   7.909   7.046   8.093 -0.1152  0.5105 -0.2573
  208MOL0     C28630   7.897   7.136   7.980  0.6543  0.1285 -0.0393
  208MOL0     C28631   7.867   7.212   7.888  0.5118 -0.1681  0.0453
  208MOL0     C28632   8.218   7.527   8.374 -0.4688 -0.2046 -0.2613
  208MOL0     C28633   8.280   7.578   8.491 -0.0658  0.0623  0.7289
  208MOL0     C28634   8.413   7.640   8.470 -0.2369  0.4004  0.1218
  208MOL0     H28635   8.541   7.425   8.862  0.2751  1.4908 -3.1341
  208MOL0     H28636   8.649   7.423   9.073 -0.4169 -0.9789 -0.9218
  208MOL0     H28637   8.703   7.810   9.330  0.5764 -0.9282  2.5094
  208MOL0     H28638   8.836   7.776   9.207 -0.4272 -1.4204 -2.2602
  208MOL0     H28639   8.917   7.797   9.423  1.8722 -0.0529 -2.3938
  208MOL0     H28640   8.810   7.665   9.482  1.5071 -2.1090 -0.5198
  208MOL0     H28641   8.908   7.517   9.293 -0.1900  0.1933 -0.0013
  208MOL0     H28642   9.020   7.626   9.255 -0.5257  2.7669  1.1105
  208MOL0     H28643   9.088   7.651   9.498  0.1222 -1.1997  0.9299
  208MOL0     H28644   8.990   7.507   9.531 -0.7211 -1.1414 -0.6656
  208MOL0     H28645   9.219   7.523   9.319  0.7029  0.0944 -0.0382
  208MOL0     H28646   9.116   7.383   9.353  0.0805 -0.2615 -0.5071
  208MOL0     H28647   9.281   7.497   9.568 -1.5063 -1.9051  3.8665
  208MOL0     H28648   9.181   7.359   9.578  1.5957  2.5851  2.6833
  208MOL0     H28649   9.408   7.413   9.380 -0.0682 -0.1870 -1.2904
  208MOL0     H28650   9.332   7.248   9.395  1.1384 -1.5053  1.6778
  208MOL0     H28651   9.476   7.409   9.603 -2.5579  0.8835 -0.4761
  208MOL0     H28652   9.414   7.251   9.638 -0.8305 -0.8154 -0.6291
  208MOL0     H28653   9.745   7.380   9.573 -1.6584  0.6012 -0.8084
  208MOL0     H28654   9.999   7.247   9.446 -0.4023 -2.1376 -1.9283
  208MOL0     H28655   9.976   7.081   9.505  1.6199 -0.0497  0.5769
  208MOL0     H28656   9.985   7.345   9.674 -0.6192  0.9322  1.7211
  208MOL0     H28657   9.924   7.187   9.735 -1.1807  1.1957  0.4069
  208MOL0     H28658  10.141   7.066   9.663 -0.8075 -0.8591  1.8799
  208MOL0     H28659  10.195   7.225   9.606 -0.4758 -0.3265 -0.2719
  208MOL0     H28660  10.209   7.292   9.845  1.6829 -0.8921  0.2451
  208MOL0     H28661  10.122   7.140   9.899  0.4637 -1.6673  0.1218
  208MOL0     H28662  10.437   7.131   9.603 -0.3721  1.3967 -0.9451
  208MOL0     H28663  10.770   7.223   9.529  0.2322  0.2822  0.6440
  208MOL0     H28664  10.653   7.346   9.475 -2.1327 -0.4182  0.6727
  208MOL0     H28665  10.614   7.170   9.463  0.7646 -0.8904  0.8608
  208MOL0     H28666  10.911   7.717   9.859  0.3341  0.4037  0.3640
  208MOL0     H28667  11.136   7.799   9.813 -3.0495  0.5119 -0.6115
  208MOL0     H28668  11.479   7.543   9.949 -2.0038  1.9072  1.4905
  208MOL0     H28669  11.480   7.536   9.761 -2.0710  3.4274 -3.2996
  208MOL0     H28670  11.615   7.697   9.739  1.9514 -0.6757  1.1574
  208MOL0     H28671  11.568   7.792   9.886 -1.1643  0.8897 -1.5215
  208MOL0     H28672  11.764   7.564   9.870 -3.1061 -3.1884  2.1721
  208MOL0     H28673  11.689   7.607  10.019 -1.3408  2.7098  0.6703
  208MOL0     H28674  11.780   7.838   9.999 -2.7608  0.8968 -3.3452
  208MOL0     H28675  11.827   7.802   9.838  0.4094  0.6816  0.1216
  208MOL0     H28676  11.952   7.646  10.069 -1.2340 -0.0478  0.5144
  208MOL0     H28677  12.008   7.652   9.903  1.7181  0.9633  1.5945
  208MOL0     H28678  12.020   7.871  10.106  0.5963  2.5789 -0.5159
  208MOL0     H28679  12.033   7.925   9.953 -1.3257 -1.2513 -1.8560
  208MOL0     H28680  12.220   7.751   9.903 -0.2218 -0.1529 -0.5379
  208MOL0     H28681  12.206   7.705  10.074 -0.1275 -1.7125 -2.3775
  208MOL0     H28682  12.377   7.866  10.089  1.3775 -0.2307 -1.0911
  208MOL0     H28683  12.221   7.932  10.153 -2.0310  1.2161 -1.4530
  208MOL0     H28684  11.298   7.405   9.860  1.6017  0.1973 -2.8214
  208MOL0     H28685  11.071   7.315   9.860  2.7478 -0.1026 -2.1697
  208MOL0     H28686  10.645   7.397   9.967 -2.5230 -2.2682  2.0141
  208MOL0     H28687  10.435   7.268  10.010  1.5487  0.0139  0.4519
  208MOL0     H28688   8.554   7.833   9.124  0.1392  1.2491 -1.2302
  208MOL0     H28689   8.431   7.837   8.908  1.8249 -0.4402 -0.4078
  208MOL0     H28690   8.054   7.480   8.710 -1.2342 -2.1450 -0.5161
  208MOL0     H28691   7.927   7.414   8.505 -0.2887 -0.4228  0.4313
  208MOL0     H28692   7.859   7.354   8.319  0.8684 -0.3080  0.5259
  208MOL0     H28693   7.905   7.369   8.150  1.0862  1.2347 -0.7624
  208MOL0     H28694   8.032   7.198   8.371  1.5766  0.8281 -0.3743
  208MOL0     H28695   8.105   7.198   8.210  0.4583 -0.6920  0.6466
  208MOL0     H28696   7.928   7.007   8.294 -1.8507 -1.1670 -0.0825
  208MOL0     H28697   7.810   7.125   8.261 -0.3938 -0.8128 -1.1555
  208MOL0     H28698   7.832   6.968   8.090 -1.1041  1.1810  3.1910
  208MOL0     H28699   8.006   7.001   8.071 -0.9237  0.4397 -4.4219
  208MOL0     H28700   7.823   7.279   7.816 -0.7421 -1.2317 -0.2158
  208MOL0     H28701   8.274   7.541   8.281 -1.3640  1.6926 -0.5649
  208MOL0     H28702   8.491   7.576   8.513 -0.6723 -1.3165 -1.5258
  208MOL0     H28703   8.430   7.679   8.369 -1.6439  0.1939 -0.2075
  208MOL0     H28704   8.419   7.739   8.517  1.4944  0.1054  0.6097
  209MOL0     O28705   4.286   5.527   0.542  0.7059 -0.2656 -0.6249
  209MOL0     C28706   4.215   5.611   0.492  0.6720  0.5803 -0.8641
  209MOL0     O28707   4.220   5.750   0.514  0.2935 -0.1525 -0.3331
  209MOL0     C28708   4.328   5.804   0.574 -0.5975  0.3950 -0.2038
  209MOL0     C28709   4.455   5.749   0.549  0.7578  0.3585 -0.4267
  209MOL0     C28710   4.563   5.819   0.587 -0.4423  0.1757  0.6675
  209MOL0     C28711   4.559   5.951   0.639 -0.7113  0.3593 -0.2391
  209MOL0     O28712   4.671   6.004   0.709  0.3120  0.2553  0.1585
  209MOL0     C28713   4.797   5.969   0.647  0.1383 -0.3408 -0.8120
  209MOL0     C28714   4.903   6.062   0.701  0.4673 -0.1694  0.4393
  209MOL0     C28715   5.040   6.025   0.643 -0.3679 -0.4723  0.5511
  209MOL0     C28716   5.117   5.918   0.726  0.4441  0.4941 -0.3318
  209MOL0     C28717   5.240   5.856   0.651  0.4906 -0.0606 -0.2391
  209MOL0     C28718   5.333   5.778   0.744 -0.5009  0.1670  0.4596
  209MOL0     C28719   5.287   5.632   0.780 -0.0243  0.0632 -0.2024
  209MOL0     C28720   5.304   5.516   0.672  0.2023 -0.2897 -0.6764
  209MOL0     N28721   5.442   5.481   0.673  0.3365  0.1133 -0.5087
  209MOL0     C28722   5.494   5.416   0.781 -0.4487  0.3642  0.3606
  209MOL0     C28723   5.617   5.372   0.743  0.1758  0.0384  0.0063
  209MOL0     C28724   5.694   5.279   0.838  0.5830  0.1597  0.1192
  209MOL0     C28725   5.695   5.323   0.982  0.4214 -0.7156  1.2961
  209MOL0     C28726   5.789   5.235   1.069  0.6116 -0.1077  0.7339
  209MOL0     C28727   5.807   5.302   1.210  0.6570  0.9348  0.7769
  209MOL0     O28728   5.884   5.425   1.190  0.2186  0.7448  0.0475
  209MOL0     C28729   6.019   5.416   1.219 -0.2260  0.8033  0.3243
  209MOL0     C28730   6.108   5.504   1.156 -1.4044 -0.2451 -0.3759
  209MOL0     C28731   6.241   5.522   1.187  0.0992  0.2231 -0.2334
  209MOL0     C28732   6.313   5.628   1.119  0.0686  0.1683  0.4831
  209MOL0     C28733   6.297   5.428   1.275  0.0028 -0.6699  0.6239
  209MOL0     C28734   6.443   5.417   1.306  0.5264  0.7443  0.1034
  209MOL0     O28735   6.514   5.531   1.290  0.7580 -0.4871  0.2466
  209MOL0     C28736   6.643   5.529   1.331 -0.0639  0.3122 -0.8956
  209MOL0     C28737   6.751   5.525   1.244 -0.5799 -0.7726  0.2800
  209MOL0     C28738   6.884   5.514   1.290  0.1144  0.2264 -0.2121
  209MOL0     C28739   6.916   5.507   1.431 -0.0672  0.0035  0.5683
  209MOL0     O28740   7.051   5.507   1.487  0.2476  0.3988 -0.4416
  209MOL0     C28741   7.134   5.394   1.438 -0.2018  0.2589 -0.0771
  209MOL0     C28742   7.279   5.436   1.466  0.1793  1.7438 -0.4185
  209MOL0     C28743   7.379   5.374   1.367  0.1928  0.1326 -0.0807
  209MOL0     C28744   7.514   5.431   1.386 -0.1139 -0.5728  0.0957
  209MOL0     C28745   7.576   5.393   1.525  0.4622 -0.3217  0.9232
  209MOL0     C28746   7.736   5.381   1.510  0.0358 -0.3075  0.2540
  209MOL0     C28747   7.808   5.376   1.640 -0.0964 -0.5294 -0.2332
  209MOL0     C28748   7.965   5.381   1.620  0.2256  0.2890 -0.0429
  209MOL0    Cl28749   8.024   5.217   1.580  0.4496  0.2448 -0.2286
  209MOL0     C28750   6.799   5.518   1.514 -0.1828 -1.0122  0.0633
  209MOL0     C28751   6.671   5.527   1.467 -0.0354 -0.2234 -1.0232
  209MOL0     O28752   6.493   5.311   1.327 -0.5573  0.2812  0.5383
  209MOL0     C28753   6.218   5.328   1.322 -0.4762  0.0868 -0.2462
  209MOL0     C28754   6.077   5.327   1.309 -0.7379 -0.3585  0.0679
  209MOL0     N28755   5.632   5.414   0.609  0.1867  0.0803 -0.2737
  209MOL0     N28756   5.524   5.476   0.569 -0.0051  0.7058 -0.0405
  209MOL0     C28757   4.432   6.003   0.664  0.7881  0.5031  0.1847
  209MOL0     C28758   4.317   5.935   0.628  0.6075 -0.3513  0.3094
  209MOL0     C28759   4.105   5.556   0.407  0.3517 -0.5552 -0.1693
  209MOL0     C28760   4.041   5.444   0.462 -0.7991  0.9001  0.5961
  209MOL0     C28761   3.927   5.391   0.393 -0.4105  0.9759 -0.9993
  209MOL0     C28762   3.870   5.444   0.280 -0.8194  0.5087  0.2162
  209MOL0     O28763   3.746   5.404   0.250 -0.2239 -0.7612 -0.2630
  209MOL0     C28764   3.677   5.481   0.143 -0.3833  0.5607  0.2325
  209MOL0     C28765   3.538   5.420   0.123  0.2437  0.0130  0.8076
  209MOL0     C28766   3.444   5.438   0.247  0.0641 -0.5873  0.4459
  209MOL0     C28767   3.299   5.373   0.229 -1.1507 -0.2114  0.2386
  209MOL0     C28768   3.233   5.454   0.121 -0.4763 -0.6659 -0.4238
  209MOL0     C28769   3.201   5.512   0.015  0.7535  0.6514 -0.0035
  209MOL0     C28770   3.944   5.550   0.223  0.0179 -0.6784 -1.2883
  209MOL0     C28771   4.062   5.603   0.284  0.1254 -0.4386 -0.1915
  209MOL0     C28772   4.138   5.690   0.181  0.3422 -0.3131 -0.1390
  209MOL0     H28773   4.473   5.661   0.488  3.1730  0.3296  0.2126
  209MOL0     H28774   4.659   5.770   0.575 -0.9183 -0.0866 -4.3180
  209MOL0     H28775   4.799   5.969   0.538  2.6404 -0.5026 -0.8209
  209MOL0     H28776   4.817   5.865   0.677 -1.8140 -0.2706  0.9378
  209MOL0     H28777   4.882   6.166   0.673 -0.4734 -0.2364  0.8463
  209MOL0     H28778   4.889   6.063   0.809 -1.5058 -2.1169  0.2834
  209MOL0     H28779   5.039   5.998   0.537 -1.1089  2.5600 -0.2899
  209MOL0     H28780   5.097   6.118   0.643 -2.2689  0.8031  3.0366
  209MOL0     H28781   5.143   5.961   0.823 -1.2229  1.1567 -0.1525
  209MOL0     H28782   5.050   5.838   0.760  1.6230  0.0072  0.9331
  209MOL0     H28783   5.303   5.939   0.619  0.1056  0.8284  1.2134
  209MOL0     H28784   5.205   5.801   0.563 -0.7350  0.5164 -0.1401
  209MOL0     H28785   5.422   5.749   0.687  0.4722 -0.2774  2.1296
  209MOL0     H28786   5.369   5.832   0.832 -0.8482 -0.5884  1.0810
  209MOL0     H28787   5.180   5.649   0.799 -0.1194 -0.5841 -0.1443
  209MOL0     H28788   5.339   5.608   0.873 -2.3889 -0.0772  1.1841
  209MOL0     H28789   5.249   5.427   0.703 -0.7447  0.9288  1.3363
  209MOL0     H28790   5.268   5.549   0.574  3.4962  2.2074 -1.2428
  209MOL0     H28791   5.442   5.394   0.874 -2.2982  1.1993 -0.4104
  209MOL0     H28792   5.797   5.266   0.802  0.6830 -3.2729  1.3067
  209MOL0     H28793   5.654   5.177   0.836  1.4675 -0.1955 -0.8065
  209MOL0     H28794   5.732   5.425   0.973  0.1021 -0.7990 -2.8839
  209MOL0     H28795   5.594   5.315   1.023 -0.0847  3.1656  1.1041
  209MOL0     H28796   5.747   5.134   1.073 -0.3354  0.0688 -2.2017
  209MOL0     H28797   5.886   5.219   1.021  0.2876 -3.3578  0.9145
  209MOL0     H28798   5.704   5.322   1.240 -0.7005 -2.3476 -1.1703
  209MOL0     H28799   5.857   5.231   1.276 -1.8504 -0.2383  1.5349
  209MOL0     H28800   6.073   5.570   1.077 -0.4677  1.4163  0.5563
  209MOL0     H28801   6.252   5.697   1.061 -0.7165  0.2215  1.3532
  209MOL0     H28802   6.384   5.582   1.050  1.2879  2.4257  0.1582
  209MOL0     H28803   6.367   5.695   1.187 -0.9091  0.8996  0.5641
  209MOL0     H28804   6.746   5.545   1.138 -3.1071  2.1923  0.8279
  209MOL0     H28805   6.963   5.508   1.215 -1.8893 -0.6693 -2.4006
  209MOL0     H28806   7.115   5.304   1.498 -2.6301 -0.3454 -1.6374
  209MOL0     H28807   7.119   5.371   1.333 -1.2674 -0.4476  0.2151
  209MOL0     H28808   7.290   5.544   1.453  0.0507  1.7363 -0.5876
  209MOL0     H28809   7.309   5.408   1.568  1.5736  2.7754 -0.5238
  209MOL0     H28810   7.353   5.396   1.263  2.9500  2.4742 -0.4108
  209MOL0     H28811   7.381   5.265   1.376 -0.1925  0.1643  0.4383
  209MOL0     H28812   7.516   5.539   1.368  2.7362 -0.4247  0.8517
  209MOL0     H28813   7.576   5.383   1.309 -0.0949  2.1763 -1.7446
  209MOL0     H28814   7.553   5.469   1.600  0.9672  0.1004  0.6616
  209MOL0     H28815   7.535   5.298   1.561  0.4384 -0.3200  0.9001
  209MOL0     H28816   7.770   5.463   1.446 -1.2634 -0.5408 -0.7620
  209MOL0     H28817   7.773   5.286   1.469  0.0173 -0.6517  1.0180
  209MOL0     H28818   7.793   5.281   1.691 -2.2076 -0.8633 -1.3370
  209MOL0     H28819   7.779   5.456   1.709 -0.3688  1.0940 -2.1292
  209MOL0     H28820   8.012   5.417   1.712 -0.6405  0.7528  0.2295
  209MOL0     H28821   7.992   5.456   1.544 -1.4086  0.9643  0.0138
  209MOL0     H28822   6.817   5.527   1.621  0.4585 -0.2565 -0.1030
  209MOL0     H28823   6.593   5.536   1.541 -0.7109 -1.0504 -1.6143
  209MOL0     H28824   6.264   5.253   1.386  1.7011  1.4131 -0.1543
  209MOL0     H28825   6.023   5.257   1.371 -0.8358  0.3999  0.8651
  209MOL0     H28826   4.430   6.097   0.718  3.4309 -0.5923  2.4131
  209MOL0     H28827   4.216   5.967   0.655  0.4536  2.0735 -2.5977
  209MOL0     H28828   4.073   5.401   0.556 -0.0777  0.3392  0.1089
  209MOL0     H28829   3.872   5.308   0.438  0.1142  0.7287 -0.8156
  209MOL0     H28830   3.658   5.586   0.166 -1.6487  0.6807 -1.1757
  209MOL0     H28831   3.738   5.482   0.053 -1.0195  0.8477 -0.2091
  209MOL0     H28832   3.551   5.315   0.098  0.0602 -0.0305  0.8974
  209MOL0     H28833   3.492   5.473   0.039 -1.1274 -0.2580  1.3711
  209MOL0     H28834   3.492   5.394   0.335 -2.0043 -1.7106  1.0644
  209MOL0     H28835   3.436   5.545   0.269 -0.2795 -0.1840 -1.4602
  209MOL0     H28836   3.240   5.383   0.320 -1.2506  2.9898 -0.0649
  209MOL0     H28837   3.308   5.265   0.212 -0.7974 -0.3435  1.2063
  209MOL0     H28838   3.177   5.561  -0.078 -1.1365 -0.0610  0.0659
  209MOL0     H28839   3.908   5.607   0.138 -0.0267  3.6056  1.3083
  209MOL0     H28840   4.163   5.633   0.091 -0.0668  0.0185 -0.4686
  209MOL0     H28841   4.076   5.771   0.142 -0.3290 -1.0692 -0.6815
  209MOL0     H28842   4.230   5.729   0.225 -1.0605  1.0002  1.7996
  210MOL0     O28843   0.179   9.165   5.974 -0.2497  0.2656  0.1716
  210MOL0     C28844   0.194   9.188   5.854  0.3152  0.3779 -0.0922
  210MOL0     O28845   0.306   9.216   5.791 -0.5297 -0.4065  0.4792
  210MOL0     C28846   0.410   9.246   5.863 -0.1989 -0.1202 -0.0905
  210MOL0     C28847   0.425   9.381   5.913 -0.4838 -0.5446  0.5517
  210MOL0     C28848   0.540   9.410   5.980  0.2660  0.3417  0.5524
  210MOL0     C28849   0.641   9.317   6.000 -0.3270 -0.3920  0.6889
  210MOL0     O28850   0.758   9.354   6.062 -0.1944 -0.7320  0.1792
  210MOL0     C28851   0.753   9.481   6.129 -0.9285 -0.1055 -0.3240
  210MOL0     C28852   0.884   9.495   6.205 -0.8639 -0.3360  0.3812
  210MOL0     C28853   0.916   9.635   6.261 -0.7693 -0.6232  0.1209
  210MOL0     C28854   1.066   9.639   6.316 -1.0148  0.4277  0.1903
  210MOL0     C28855   1.183   9.629   6.214  0.0220 -0.0950 -0.1501
  210MOL0     C28856   1.316   9.608   6.290 -0.2283 -1.1780 -0.0097
  210MOL0     C28857   1.442   9.588   6.208  0.3704 -0.4014 -0.4803
  210MOL0     C28858   1.564   9.589   6.294  0.3678 -0.2126 -0.5616
  210MOL0     N28859   1.591   9.717   6.367  0.1213 -0.0007 -0.2131
  210MOL0     C28860   1.609   9.735   6.505 -0.6211  0.0956  0.1405
  210MOL0     C28861   1.641   9.862   6.512 -0.1165  0.6913  0.1823
  210MOL0     C28862   1.677   9.930   6.640 -0.4073  0.3500  0.1686
  210MOL0     C28863   1.819   9.982   6.646 -0.0236  0.2184 -0.1698
  210MOL0     C28864   1.920   9.918   6.566 -0.5625  0.0534  0.0443
  210MOL0     C28865   2.058   9.989   6.582  0.9933  1.2188  0.9378
  210MOL0     O28866   2.152   9.916   6.504 -0.5792 -0.3511 -0.0981
  210MOL0     C28867   2.283   9.934   6.528  0.1359 -0.2208  0.0168
  210MOL0     C28868   2.336  10.008   6.626 -0.3485 -0.3331 -0.8574
  210MOL0     C28869   2.478  10.027   6.641 -0.1070 -0.1628  0.0725
  210MOL0     C28870   2.528  10.113   6.754 -0.5302  0.9944 -0.3927
  210MOL0     C28871   2.567   9.960   6.551 -0.3793 -0.1466  0.2181
  210MOL0     C28872   2.719   9.959   6.570  0.0008  0.4706  0.6145
  210MOL0     O28873   2.789   9.893   6.462  0.2774 -0.0792  0.5028
  210MOL0     C28874   2.923   9.893   6.487  0.3613  0.4211 -0.0716
  210MOL0     C28875   2.978   9.775   6.523 -1.2765 -0.5672 -0.2798
  210MOL0     C28876   3.119   9.778   6.515 -0.7644  0.8457 -0.3565
  210MOL0     C28877   3.200   9.880   6.476 -0.3671 -0.4558 -0.7431
  210MOL0     O28878   3.331   9.884   6.446 -0.1082  0.1689 -0.7462
  210MOL0     C28879   3.403   9.754   6.443  0.7218 -0.4706 -0.2539
  210MOL0     C28880   3.549   9.797   6.413  0.4764 -0.2226  0.3287
  210MOL0     C28881   3.628   9.849   6.536 -0.7684  0.5784  0.4467
  210MOL0     C28882   3.778   9.854   6.495  0.1074  0.1058  0.5583
  210MOL0     C28883   3.853   9.961   6.580 -0.4030  0.5001 -0.4688
  210MOL0     C28884   4.005   9.958   6.550 -0.6813  0.7318  0.2134
  210MOL0     C28885   4.087  10.068   6.617  0.5997  1.1537  0.0807
  210MOL0     C28886   4.225  10.009   6.657  0.5128 -0.2977  0.8361
  210MOL0    Cl28887   4.335   9.983   6.517 -0.0323 -0.1725  0.0283
  210MOL0     C28888   3.136  10.002   6.435 -0.4702  0.0641 -0.1621
  210MOL0     C28889   2.999  10.008   6.445  0.3504  1.0322  0.1901
  210MOL0     O28890   2.778  10.022   6.658  0.3521 -0.5995  0.6562
  210MOL0     C28891   2.504   9.889   6.451 -0.7154  0.3213  0.1024
  210MOL0     C28892   2.366   9.866   6.439  0.0890  0.1112  0.3085
  210MOL0     N28893   1.627   9.924   6.386 -0.3957 -0.3060  0.1366
  210MOL0     N28894   1.601   9.832   6.297 -0.2397 -0.9222  0.5839
  210MOL0     C28895   0.619   9.185   5.960  0.8399  0.0729  0.0357
  210MOL0     C28896   0.504   9.148   5.888 -0.5912  0.4777 -1.0682
  210MOL0     C28897   0.083   9.196   5.764  1.0808  0.6935  0.2893
  210MOL0     C28898   0.057   9.310   5.693  0.0569 -0.3907  0.2086
  210MOL0     C28899  -0.045   9.332   5.606  0.4082 -0.3528  0.1708
  210MOL0     C28900  -0.139   9.233   5.592 -0.2056 -0.1760 -0.3049
  210MOL0     O28901  -0.244   9.268   5.518  0.1641 -0.4347 -0.0210
  210MOL0     C28902  -0.362   9.179   5.528 -0.7932 -0.5708  0.4746
  210MOL0     C28903  -0.477   9.237   5.454  0.1803  0.2539  0.5930
  210MOL0     C28904  -0.443   9.244   5.312  1.0413  0.0494  0.6513
  210MOL0     C28905  -0.531   9.335   5.230 -0.1722 -1.1763  0.1606
  210MOL0     C28906  -0.668   9.288   5.211 -0.6976 -0.1882  0.4948
  210MOL0     C28907  -0.779   9.239   5.182 -0.9822 -0.5221 -0.0065
  210MOL0     C28908  -0.124   9.113   5.659  0.2290 -0.1552 -0.0577
  210MOL0     C28909  -0.017   9.091   5.749 -0.4049  0.3322  0.3146
  210MOL0     C28910  -0.009   8.964   5.824 -0.3531  0.6054 -0.1751
  210MOL0     H28911   0.356   9.464   5.902 -0.7197 -1.0711 -3.4352
  210MOL0     H28912   0.546   9.514   6.012 -0.4208  0.8349 -0.8226
  210MOL0     H28913   0.680   9.482   6.211 -0.6059  0.4637 -0.0395
  210MOL0     H28914   0.741   9.565   6.061 -0.4126  1.7476  1.7421
  210MOL0     H28915   0.902   9.418   6.280 -0.9935 -0.3157  0.4342
  210MOL0     H28916   0.969   9.482   6.137 -0.3994  0.9058  0.6944
  210MOL0     H28917   0.902   9.702   6.176 -3.6001 -1.1958  0.0195
  210MOL0     H28918   0.841   9.675   6.329  0.6334  3.8209 -0.6226
  210MOL0     H28919   1.079   9.737   6.363 -2.2640  1.8835 -2.2830
  210MOL0     H28920   1.072   9.561   6.392  0.3724  0.3573  0.0280
  210MOL0     H28921   1.198   9.720   6.155  1.0339  0.4224  0.8686
  210MOL0     H28922   1.158   9.551   6.142 -1.0941 -1.1244  1.2968
  210MOL0     H28923   1.332   9.692   6.358  0.5277 -1.2699 -0.0617
  210MOL0     H28924   1.318   9.520   6.355 -1.3184 -1.5664 -0.4782
  210MOL0     H28925   1.465   9.670   6.140 -0.6819 -1.0104 -1.6201
  210MOL0     H28926   1.423   9.496   6.151  0.0395 -0.7225  0.1341
  210MOL0     H28927   1.556   9.507   6.365  1.5881 -0.4051 -0.6241
  210MOL0     H28928   1.649   9.580   6.226  0.2236  0.7746 -0.8935
  210MOL0     H28929   1.604   9.661   6.585  1.2031 -0.7752 -0.4940
  210MOL0     H28930   1.660   9.856   6.719  1.8693 -0.8034 -0.3568
  210MOL0     H28931   1.603  10.009   6.660 -2.7345 -1.9198  1.1237
  210MOL0     H28932   1.818  10.085   6.609  3.3870  1.6238  3.0029
  210MOL0     H28933   1.848   9.978   6.751  0.8479 -1.7105 -0.4374
  210MOL0     H28934   1.931   9.813   6.591  0.9432 -0.0716 -1.0618
  210MOL0     H28935   1.890   9.923   6.461  0.1753  0.9772 -0.1320
  210MOL0     H28936   2.065  10.097   6.565  0.3520  1.4091  1.8566
  210MOL0     H28937   2.077   9.984   6.689  1.3772 -0.4885  0.8086
  210MOL0     H28938   2.271  10.065   6.691 -1.2019 -2.2151  0.0243
  210MOL0     H28939   2.596  10.187   6.711  0.5026  0.0115 -0.5166
  210MOL0     H28940   2.588  10.049   6.819 -0.2854 -0.9391 -2.3995
  210MOL0     H28941   2.445  10.159   6.808 -1.7771 -1.7589  0.2419
  210MOL0     H28942   2.920   9.690   6.558  0.2985 -1.4532  0.2727
  210MOL0     H28943   3.170   9.689   6.550 -2.1824  0.1029 -0.0975
  210MOL0     H28944   3.396   9.697   6.536  0.9254  0.3841  0.3047
  210MOL0     H28945   3.374   9.690   6.360  1.7111  1.6307 -2.3158
  210MOL0     H28946   3.601   9.710   6.372 -1.0355 -0.8547 -0.3272
  210MOL0     H28947   3.550   9.871   6.331 -1.3032 -1.6723 -1.0838
  210MOL0     H28948   3.620   9.788   6.627  4.1929 -1.1645 -0.0004
  210MOL0     H28949   3.603   9.951   6.569  2.0993  1.2272  0.8367
  210MOL0     H28950   3.784   9.882   6.389 -1.8124 -1.3908 -0.0100
  210MOL0     H28951   3.825   9.756   6.496  0.2741  0.1904  1.3508
  210MOL0     H28952   3.809  10.060   6.561 -2.9529 -0.7865 -1.7455
  210MOL0     H28953   3.832   9.929   6.683 -2.2853  3.1162  0.0815
  210MOL0     H28954   4.025   9.965   6.443  0.8652 -0.7731  0.3653
  210MOL0     H28955   4.038   9.857   6.575 -0.0595  1.5243  3.0288
  210MOL0     H28956   4.035  10.107   6.704 -2.3097  0.0470 -1.0539
  210MOL0     H28957   4.099  10.157   6.554  0.0723  1.6431  0.6609
  210MOL0     H28958   4.200   9.915   6.708 -0.0101  0.6703  2.4326
  210MOL0     H28959   4.269  10.077   6.730 -1.7483  0.8406  1.2302
  210MOL0     H28960   3.192  10.092   6.410 -1.1347  0.6445  0.4073
  210MOL0     H28961   2.952  10.099   6.410  1.7746  1.3011 -1.1446
  210MOL0     H28962   2.560   9.834   6.375  0.6802  2.1921 -0.2790
  210MOL0     H28963   2.325   9.807   6.357  2.8100 -1.9269  0.2747
  210MOL0     H28964   0.695   9.109   5.977  0.3022 -0.5369 -0.2538
  210MOL0     H28965   0.499   9.056   5.831  1.0331  1.0669 -2.2187
  210MOL0     H28966   0.124   9.394   5.708  1.0203 -1.1497  0.3157
  210MOL0     H28967  -0.059   9.424   5.551  1.5396 -1.0861 -1.4490
  210MOL0     H28968  -0.331   9.079   5.496  1.9477 -0.3972  2.2532
  210MOL0     H28969  -0.391   9.167   5.633  0.1604 -6.1323  0.4239
  210MOL0     H28970  -0.495   9.337   5.493 -0.4903  0.0932  0.7093
  210MOL0     H28971  -0.569   9.180   5.471  0.5350 -0.0477  1.6345
  210MOL0     H28972  -0.337   9.267   5.298  2.1894 -3.5064  2.3180
  210MOL0     H28973  -0.456   9.140   5.279  0.3708  0.9548 -2.1547
  210MOL0     H28974  -0.489   9.362   5.133  2.3648  0.7189  1.6533
  210MOL0     H28975  -0.534   9.429   5.286  1.0422 -0.4576 -0.9334
  210MOL0     H28976  -0.875   9.207   5.144 -1.7043  1.9670 -0.4693
  210MOL0     H28977  -0.198   9.034   5.655 -0.7156  0.6303  1.0594
  210MOL0     H28978   0.057   8.893   5.773  0.3176  0.7896  0.4134
  210MOL0     H28979   0.027   8.966   5.928  1.6095 -0.7806 -0.7475
  210MOL0     H28980  -0.108   8.919   5.830 -0.1648  0.2134  0.1389
  211MOL0     O28981   7.579   9.688   9.278 -0.0601  0.7777  0.0814
  211MOL0     C28982   7.510   9.790   9.289 -0.9054  0.9866 -0.2899
  211MOL0     O28983   7.552   9.909   9.258 -0.2859  0.1117 -0.2691
  211MOL0     C28984   7.676   9.928   9.216  0.5675  0.2061  0.2233
  211MOL0     C28985   7.701   9.944   9.083  0.3061  0.2190  0.4626
  211MOL0     C28986   7.835   9.958   9.038  0.9398  0.8274 -0.0123
  211MOL0     C28987   7.944   9.973   9.119  0.9187 -0.3988 -1.0516
  211MOL0     O28988   8.080   9.967   9.082  0.0642  0.3406 -0.3886
  211MOL0     C28989   8.108   9.966   8.946  0.6156 -0.0167 -0.0461
  211MOL0     C28990   8.242  10.024   8.906  0.3523  1.0690  0.1475
  211MOL0     C28991   8.354   9.950   8.971  0.1107  0.5502  0.0445
  211MOL0     C28992   8.493  10.010   8.913  0.8979 -0.3601  0.4629
  211MOL0     C28993   8.604   9.924   8.964 -0.0425  0.1193  0.4942
  211MOL0     C28994   8.730   9.970   8.888  0.4343  0.0495  1.0050
  211MOL0     C28995   8.854   9.893   8.929 -0.1822  0.2811 -0.8905
  211MOL0     C28996   8.974   9.938   8.846 -0.4671 -0.5342  0.2174
  211MOL0     N28997   9.105   9.906   8.910 -0.9012  0.5780 -0.1248
  211MOL0     C28998   9.166   9.984   8.999  0.4698 -0.3695  0.0573
  211MOL0     C28999   9.295   9.937   9.008 -0.2866  1.1116  0.0235
  211MOL0     C29000   9.412   9.994   9.098 -0.1147 -0.2661  0.3440
  211MOL0     C29001   9.390   9.964   9.249 -0.5004  0.1629  0.2709
  211MOL0     C29002   9.499  10.044   9.322 -0.3664 -0.9695 -1.1816
  211MOL0     C29003   9.504  10.002   9.470 -0.8703 -0.1431  0.0978
  211MOL0     O29004   9.578   9.882   9.491  0.2377  0.6469  0.7755
  211MOL0     C29005   9.714   9.900   9.501  0.8307 -0.3258 -0.4547
  211MOL0     C29006   9.796   9.864   9.394 -0.1209  0.9296  0.6590
  211MOL0     C29007   9.933   9.884   9.415  0.2262  1.1017  0.4948
  211MOL0     C29008  10.022   9.843   9.303  0.4947 -0.7908 -0.2147
  211MOL0     C29009   9.990   9.935   9.536  1.3136  0.3919  0.1964
  211MOL0     C29010  10.130   9.919   9.565 -0.7272  0.3829  0.1709
  211MOL0     O29011  10.225   9.990   9.492  0.1905 -0.3233  0.7946
  211MOL0     C29012  10.357   9.967   9.516 -0.1941  0.3836 -0.0730
  211MOL0     C29013  10.420   9.857   9.459  0.6094 -0.7513  0.0425
  211MOL0     C29014  10.559   9.849   9.460  0.5087 -0.6019  0.2238
  211MOL0     C29015  10.638   9.951   9.525 -0.6635  0.4393  0.7058
  211MOL0     O29016  10.777   9.941   9.518  0.7491 -0.9413  0.0119
  211MOL0     C29017  10.829   9.844   9.425  0.2322  0.5111 -0.2446
  211MOL0     C29018  10.987   9.847   9.427 -0.1690 -0.1528  0.2147
  211MOL0     C29019  11.035   9.980   9.355 -0.6214  0.3311  0.2404
  211MOL0     C29020  11.185   9.987   9.319  0.3973  0.2477 -0.6031
  211MOL0     C29021  11.223  10.102   9.226 -1.1058 -0.0526 -0.2184
  211MOL0     C29022  11.206  10.051   9.078 -0.1972  0.3184 -0.7890
  211MOL0     C29023  11.242  10.158   8.982  0.1712  0.1592  0.5051
  211MOL0     C29024  11.196  10.119   8.829  0.0305 -0.2033 -0.2636
  211MOL0    Cl29025  11.209  10.259   8.720  0.1595  0.0501 -0.3580
  211MOL0     C29026  10.571  10.063   9.578  0.0399 -0.4103 -0.3016
  211MOL0     C29027  10.429  10.070   9.580  0.0937  0.1586  0.4363
  211MOL0     O29028  10.158   9.860   9.667  0.2103  0.2048  0.2002
  211MOL0     C29029   9.901   9.967   9.643  0.6566  0.4598 -0.4449
  211MOL0     C29030   9.758   9.953   9.619 -0.3225  0.2103 -0.6888
  211MOL0     N29031   9.305   9.819   8.940 -0.0082  0.1172 -0.6411
  211MOL0     N29032   9.201   9.810   8.867 -0.0472  0.2780 -0.0428
  211MOL0     C29033   7.913   9.958   9.260 -0.3546 -0.0834 -0.8307
  211MOL0     C29034   7.785   9.934   9.300  0.3281  0.1434 -0.1267
  211MOL0     C29035   7.380   9.801   9.359 -0.0212 -0.0115 -0.6906
  211MOL0     C29036   7.342   9.925   9.414 -0.1517 -0.8440 -0.2984
  211MOL0     C29037   7.225   9.937   9.485  0.0339  0.2844  0.4866
  211MOL0     C29038   7.146   9.830   9.513  0.1129 -0.5764 -0.8876
  211MOL0     O29039   7.044   9.868   9.598 -0.2482  0.4770 -0.0881
  211MOL0     C29040   6.942   9.778   9.634  0.0432 -0.2596  0.3650
  211MOL0     C29041   6.987   9.693   9.756  0.1149 -0.0077 -0.0192
  211MOL0     C29042   6.862   9.622   9.819 -0.6263 -0.5764 -0.1472
  211MOL0     C29043   6.789   9.527   9.732  0.4202 -0.5960  0.0834
  211MOL0     C29044   6.865   9.415   9.683 -0.5346  0.1999  0.4467
  211MOL0     C29045   6.918   9.310   9.644 -0.5345 -0.9672 -0.5931
  211MOL0     C29046   7.178   9.709   9.458  0.1304 -0.3553 -0.4946
  211MOL0     C29047   7.294   9.686   9.380  0.0372 -1.2337 -0.3547
  211MOL0     C29048   7.318   9.543   9.337 -0.0801  0.1719  0.8732
  211MOL0     H29049   7.620   9.931   9.013  1.4857  0.1044 -0.9186
  211MOL0     H29050   7.846   9.944   8.931  0.6077  0.5020 -0.0052
  211MOL0     H29051   8.034  10.027   8.894  0.7199 -0.9522 -1.3295
  211MOL0     H29052   8.107   9.859   8.923 -0.5450  0.2417 -1.3000
  211MOL0     H29053   8.246  10.012   8.798  0.0128  1.2157  0.1147
  211MOL0     H29054   8.241  10.130   8.933  0.4133  0.6838  1.7540
  211MOL0     H29055   8.349   9.970   9.079  0.2053  1.2411 -0.0748
  211MOL0     H29056   8.354   9.841   8.963  0.9848  0.5776 -0.4514
  211MOL0     H29057   8.469  10.015   8.807  0.9443  3.7290  0.4783
  211MOL0     H29058   8.499  10.118   8.930  1.3340 -0.4222  0.7315
  211MOL0     H29059   8.585   9.817   8.957 -2.5119  0.6108 -2.3975
  211MOL0     H29060   8.624   9.950   9.069  1.6489 -1.8197  0.6987
  211MOL0     H29061   8.719   9.956   8.780  0.9114  2.3052  0.6072
  211MOL0     H29062   8.743  10.077   8.907  1.1090 -0.0895  1.3627
  211MOL0     H29063   8.842   9.785   8.919 -0.9516  0.2808 -0.0616
  211MOL0     H29064   8.874   9.922   9.033 -0.6218 -1.8289 -0.1826
  211MOL0     H29065   8.969   9.888   8.749 -1.4279 -0.0988  0.0295
  211MOL0     H29066   8.968  10.041   8.811  0.4312 -0.3938  0.4570
  211MOL0     H29067   9.107  10.065   9.042 -0.7953 -0.5771 -1.2083
  211MOL0     H29068   9.426  10.102   9.082  2.2077 -0.4947  0.4560
  211MOL0     H29069   9.508   9.948   9.072 -0.2360 -0.2936 -0.0704
  211MOL0     H29070   9.286   9.987   9.274 -1.2330 -0.0432 -2.2332
  211MOL0     H29071   9.402   9.859   9.278  1.6236  0.7314  1.6395
  211MOL0     H29072   9.602  10.028   9.288  1.4555  1.8969  2.3398
  211MOL0     H29073   9.476  10.151   9.327  2.6253 -0.2882  0.0555
  211MOL0     H29074   9.555  10.088   9.514 -1.6269  0.5636 -0.3605
  211MOL0     H29075   9.405   9.999   9.517 -1.0229  0.7651 -0.1530
  211MOL0     H29076   9.757   9.817   9.304  0.6606  2.2286 -0.4211
  211MOL0     H29077  10.100   9.916   9.279 -0.6966 -0.7095 -4.7896
  211MOL0     H29078   9.969   9.833   9.208 -0.1181  0.1727  0.0156
  211MOL0     H29079  10.078   9.751   9.326  0.2380 -1.1156 -0.8555
  211MOL0     H29080  10.361   9.783   9.404 -0.5359 -1.9417  2.6983
  211MOL0     H29081  10.583   9.754   9.412 -2.2051 -0.8395 -0.8487
  211MOL0     H29082  10.803   9.745   9.462 -0.5263  0.2090 -1.5458
  211MOL0     H29083  10.791   9.849   9.323 -2.0248 -2.9179  0.2739
  211MOL0     H29084  11.024   9.846   9.529  1.7941  0.9741 -0.4261
  211MOL0     H29085  11.027   9.757   9.380  1.5584  1.4959 -1.7336
  211MOL0     H29086  11.013  10.064   9.422  1.6711 -0.9882  2.8250
  211MOL0     H29087  10.973   9.998   9.266 -0.4976 -0.0726  0.0698
  211MOL0     H29088  11.205   9.890   9.273 -3.3571 -1.8183  1.6447
  211MOL0     H29089  11.244   9.989   9.411  2.2770 -2.6179 -1.6036
  211MOL0     H29090  11.168  10.193   9.251  2.0664  1.7956  0.5999
  211MOL0     H29091  11.330  10.124   9.232 -1.1350  0.4757 -1.4113
  211MOL0     H29092  11.106  10.015   9.051 -0.7494  0.2013  1.2318
  211MOL0     H29093  11.270   9.965   9.056  0.2649 -0.0003  1.5302
  211MOL0     H29094  11.351  10.158   8.980  0.1905 -1.4022  0.4945
  211MOL0     H29095  11.204  10.259   9.001  1.0031  1.5255 -3.8947
  211MOL0     H29096  11.096  10.077   8.842 -0.6699  2.2107  5.1675
  211MOL0     H29097  11.266  10.044   8.790  1.7139  1.6232 -0.8938
  211MOL0     H29098  10.639  10.141   9.612  1.3020 -0.1650 -3.1070
  211MOL0     H29099  10.379  10.161   9.614 -4.9986 -2.2600  0.4331
  211MOL0     H29100   9.942   9.995   9.739 -0.3722 -2.1757  0.8827
  211MOL0     H29101   9.697   9.987   9.702  0.3027 -0.4155  0.0392
  211MOL0     H29102   7.991   9.958   9.336 -1.8834 -1.1489  0.8389
  211MOL0     H29103   7.770   9.931   9.408 -1.1093 -0.7624 -0.3293
  211MOL0     H29104   7.401  10.015   9.402 -2.3255  0.8358  0.6715
  211MOL0     H29105   7.214  10.039   9.522  2.4650  0.3582  1.1699
  211MOL0     H29106   6.849   9.831   9.656  1.4878  2.6009 -0.0279
  211MOL0     H29107   6.920   9.716   9.547  1.7419  0.2737 -0.4668
  211MOL0     H29108   7.046   9.751   9.827 -0.8473  0.7713  0.1590
  211MOL0     H29109   7.060   9.621   9.717  1.7973  1.9401 -0.6154
  211MOL0     H29110   6.895   9.559   9.903 -2.3698 -0.9581  0.2960
  211MOL0     H29111   6.794   9.696   9.862  1.8134  0.2714  2.5910
  211MOL0     H29112   6.749   9.592   9.654  0.9939  2.2954  2.0343
  211MOL0     H29113   6.706   9.481   9.787 -0.9061 -0.5135 -1.7609
  211MOL0     H29114   6.961   9.219   9.610 -2.1369 -2.6702  1.6365
  211MOL0     H29115   7.120   9.619   9.469  0.3002 -0.9353 -3.4544
  211MOL0     H29116   7.246   9.475   9.383 -0.0956 -0.0768  0.4834
  211MOL0     H29117   7.305   9.541   9.228 -1.3496  0.2193  1.0077
  211MOL0     H29118   7.422   9.516   9.356  0.4288  0.9074 -0.7131
  212MOL0     O29119   9.370   3.180   9.397 -0.1240  0.6613 -0.6025
  212MOL0     C29120   9.258   3.220   9.421  0.0155  0.8219 -0.6923
  212MOL0     O29121   9.226   3.334   9.497 -0.5047  0.2007 -0.4612
  212MOL0     C29122   9.325   3.412   9.551 -0.8625 -0.5693  0.4346
  212MOL0     C29123   9.385   3.515   9.470 -1.0350 -0.2385  0.4171
  212MOL0     C29124   9.494   3.587   9.523  0.0831 -0.6117 -0.7942
  212MOL0     C29125   9.544   3.565   9.656  1.2240 -0.1828  0.0206
  212MOL0     O29126   9.654   3.633   9.703  0.3890 -0.0292  0.1218
  212MOL0     C29127   9.760   3.642   9.602  0.5059 -0.1321 -0.9065
  212MOL0     C29128   9.894   3.658   9.687  0.4635 -0.2698 -0.4157
  212MOL0     C29129  10.002   3.695   9.592  0.0425  0.4836  0.1598
  212MOL0     C29130  10.135   3.712   9.667 -0.0062  0.2494  0.0874
  212MOL0     C29131  10.246   3.740   9.562  0.1517 -0.8656 -0.4641
  212MOL0     C29132  10.378   3.763   9.641  0.2373  0.1604 -0.2324
  212MOL0     C29133  10.496   3.809   9.557  0.0617 -0.6846 -0.5938
  212MOL0     C29134  10.551   3.696   9.462  0.3451 -0.4434  0.1527
  212MOL0     N29135  10.687   3.740   9.416  0.4169 -0.1684 -0.0765
  212MOL0     C29136  10.810   3.663   9.420  0.0225  0.4695  0.5173
  212MOL0     C29137  10.898   3.743   9.356 -0.8859  0.2405  0.1036
  212MOL0     C29138  11.035   3.700   9.311 -0.4841  0.0870  0.4263
  212MOL0     C29139  11.089   3.786   9.191 -0.1836 -0.3077 -0.3156
  212MOL0     C29140  11.146   3.918   9.234  0.5115 -0.0803 -0.2239
  212MOL0     C29141  11.269   3.905   9.331 -0.5459  0.1727 -0.2206
  212MOL0     O29142  11.382   3.850   9.252 -0.0024 -0.1348 -0.2461
  212MOL0     C29143  11.507   3.856   9.301 -0.0500  0.6762 -0.0089
  212MOL0     C29144  11.601   3.802   9.218  0.0889 -0.6781 -0.2228
  212MOL0     C29145  11.737   3.796   9.251 -0.0188 -0.1526 -0.0347
  212MOL0     C29146  11.829   3.724   9.149 -0.0697 -0.2679  0.0319
  212MOL0     C29147  11.783   3.870   9.366  0.4518 -0.1395  0.6192
  212MOL0     C29148  11.920   3.920   9.394  0.3205 -0.4799  0.0591
  212MOL0     O29149  12.014   3.894   9.297  0.1577 -0.4762 -0.6496
  212MOL0     C29150  12.144   3.941   9.314  0.3828  0.7708  0.6687
  212MOL0     C29151  12.244   3.842   9.328  0.1856 -0.5340  0.3024
  212MOL0     C29152  12.375   3.882   9.356 -0.1097  0.5261 -0.5775
  212MOL0     C29153  12.410   4.013   9.340  0.1422  0.1515 -0.3314
  212MOL0     O29154  12.540   4.058   9.352 -0.0175 -0.4319 -0.2866
  212MOL0     C29155  12.637   3.974   9.424  0.0595 -0.1867  0.1615
  212MOL0     C29156  12.774   4.053   9.419  0.0814  0.1644  0.5112
  212MOL0     C29157  12.841   4.035   9.289 -0.4454 -0.0159  0.5171
  212MOL0     C29158  12.964   4.132   9.272  0.5193 -0.7459 -0.0721
  212MOL0     C29159  13.086   4.089   9.346  0.0872  0.4509  0.4543
  212MOL0     C29160  13.211   4.156   9.289  0.1709  0.2220  0.4043
  212MOL0     C29161  13.199   4.309   9.289 -0.3275  0.5281 -0.2929
  212MOL0     C29162  13.336   4.360   9.257 -0.1844 -0.3430  0.2833
  212MOL0    Cl29163  13.351   4.536   9.288 -0.1378  0.3295 -0.0951
  212MOL0     C29164  12.314   4.112   9.314  0.5973 -0.3383  0.1192
  212MOL0     C29165  12.180   4.075   9.304  0.2727  0.4959 -0.1894
  212MOL0     O29166  11.933   3.992   9.495  0.1519 -0.4417 -0.5006
  212MOL0     C29167  11.680   3.912   9.458 -0.2569 -0.4062  0.0757
  212MOL0     C29168  11.548   3.904   9.428 -0.5904 -0.2461 -0.0991
  212MOL0     N29169  10.832   3.863   9.313 -0.5804  0.3373 -0.3886
  212MOL0     N29170  10.714   3.860   9.362  1.2539 -0.3090  0.1755
  212MOL0     C29171   9.457   3.496   9.742 -0.3183 -0.2060 -0.1879
  212MOL0     C29172   9.358   3.414   9.688  0.0543  0.4987  0.4717
  212MOL0     C29173   9.142   3.142   9.376  0.9104 -0.4071  0.7072
  212MOL0     C29174   9.017   3.150   9.438 -0.4844  0.1424  0.1764
  212MOL0     C29175   8.908   3.077   9.401  0.5363  0.0449  0.6837
  212MOL0     C29176   8.906   2.987   9.300  0.2635  0.9020  0.3290
  212MOL0     O29177   8.800   2.908   9.264  0.7146 -0.4619  0.2146
  212MOL0     C29178   8.661   2.943   9.298 -0.5407 -0.7119  0.5939
  212MOL0     C29179   8.562   2.849   9.250 -0.4085  0.0829 -0.8260
  212MOL0     C29180   8.572   2.828   9.101 -0.2484  0.3349 -0.2834
  212MOL0     C29181   8.446   2.751   9.049 -0.5508 -0.7249  0.4183
  212MOL0     C29182   8.428   2.775   8.905 -0.2433 -0.0067  0.3097
  212MOL0     C29183   8.411   2.780   8.783  0.0101 -0.0078 -0.4670
  212MOL0     C29184   9.029   2.976   9.230 -0.1079 -0.2189  0.0068
  212MOL0     C29185   9.140   3.052   9.260  0.3676 -0.7674  0.4748
  212MOL0     C29186   9.245   3.042   9.156  0.2726  0.5342  0.7847
  212MOL0     H29187   9.362   3.527   9.365  2.9806  0.7529 -0.5123
  212MOL0     H29188   9.548   3.651   9.454  0.9971 -1.6857 -1.1026
  212MOL0     H29189   9.740   3.726   9.534  2.6678  2.1204  1.0277
  212MOL0     H29190   9.761   3.556   9.534  0.0069 -2.3164  1.6933
  212MOL0     H29191   9.884   3.749   9.746  1.2618 -0.7266  0.4379
  212MOL0     H29192   9.927   3.568   9.739 -3.0154 -0.6650  1.4192
  212MOL0     H29193  10.018   3.612   9.522  0.1348  0.4656  0.2022
  212MOL0     H29194   9.963   3.776   9.529 -2.4636 -1.8098 -1.4693
  212MOL0     H29195  10.128   3.786   9.748  2.2544  1.1212 -0.4405
  212MOL0     H29196  10.164   3.614   9.704 -1.2792  0.3290  1.4062
  212MOL0     H29197  10.223   3.834   9.511  2.0514 -1.0097 -1.7020
  212MOL0     H29198  10.254   3.655   9.494  1.7466 -1.6320  0.6109
  212MOL0     H29199  10.344   3.843   9.708 -0.9355  0.6195 -1.3386
  212MOL0     H29200  10.404   3.670   9.694  1.1916  1.3559  1.4991
  212MOL0     H29201  10.569   3.843   9.632 -1.8839  2.2672  0.1102
  212MOL0     H29202  10.466   3.901   9.506  2.1856  0.5212  0.1845
  212MOL0     H29203  10.565   3.597   9.505  1.0435  0.3128  1.7848
  212MOL0     H29204  10.479   3.686   9.380  0.5817 -1.8381  0.0973
  212MOL0     H29205  10.823   3.560   9.450 -1.2598 -0.3851 -1.6464
  212MOL0     H29206  11.030   3.603   9.261 -1.7339  1.2992 -2.0105
  212MOL0     H29207  11.116   3.699   9.384  0.2428  1.2244 -0.3247
  212MOL0     H29208  11.167   3.743   9.128  1.5275  2.4670 -0.2909
  212MOL0     H29209  11.011   3.803   9.117 -0.4811 -1.1881 -0.2093
  212MOL0     H29210  11.172   3.981   9.148 -4.8231  0.6942 -1.5988
  212MOL0     H29211  11.070   3.980   9.282 -1.6047 -1.7416 -1.2819
  212MOL0     H29212  11.296   4.008   9.358 -0.3209  0.6440 -2.1254
  212MOL0     H29213  11.253   3.855   9.427 -1.2512 -0.3767 -0.6219
  212MOL0     H29214  11.568   3.767   9.121 -0.5565 -1.6742  0.3426
  212MOL0     H29215  11.875   3.809   9.097 -0.1351  0.7895  1.6351
  212MOL0     H29216  11.787   3.654   9.076 -1.4188 -0.6482  1.1327
  212MOL0     H29217  11.911   3.681   9.208  0.3322  0.7571  0.2387
  212MOL0     H29218  12.216   3.738   9.336 -0.0062 -0.5517 -0.4621
  212MOL0     H29219  12.453   3.810   9.380 -1.8149 -1.8214 -1.6919
  212MOL0     H29220  12.601   3.954   9.526 -1.0434 -0.9535 -0.3517
  212MOL0     H29221  12.655   3.874   9.382 -0.1609  0.2621 -1.0262
  212MOL0     H29222  12.756   4.159   9.437  1.2850  0.1555  2.0410
  212MOL0     H29223  12.836   4.022   9.504  0.8096  0.7043  0.1933
  212MOL0     H29224  12.763   4.063   9.217 -0.8314 -0.2170  0.8469
  212MOL0     H29225  12.867   3.929   9.278 -0.0155  0.3195 -2.6614
  212MOL0     H29226  12.935   4.233   9.303 -0.6916 -1.6123  1.7781
  212MOL0     H29227  12.986   4.136   9.165  2.6425  1.2013  0.3787
  212MOL0     H29228  13.066   4.090   9.454 -0.2446 -3.7746  0.6274
  212MOL0     H29229  13.106   3.982   9.336 -1.1345  0.3145 -0.7642
  212MOL0     H29230  13.232   4.116   9.190  0.7280  2.1903 -0.3062
  212MOL0     H29231  13.294   4.125   9.354 -0.1419  1.5733  1.4863
  212MOL0     H29232  13.170   4.338   9.390  0.2990 -1.0560  0.3589
  212MOL0     H29233  13.124   4.337   9.214 -0.3858 -1.5616 -1.0733
  212MOL0     H29234  13.360   4.346   9.151  0.9323 -1.3155  0.6415
  212MOL0     H29235  13.414   4.313   9.317 -0.6226 -0.7382  0.5508
  212MOL0     H29236  12.344   4.216   9.309  0.7644 -0.4343 -1.1762
  212MOL0     H29237  12.105   4.153   9.294 -0.1128  0.0529 -0.8052
  212MOL0     H29238  11.706   3.950   9.555  0.0102 -1.4384  0.4241
  212MOL0     H29239  11.470   3.947   9.490 -1.7904 -2.4834  0.0301
  212MOL0     H29240   9.459   3.510   9.850 -2.6768  0.0824 -0.1379
  212MOL0     H29241   9.315   3.343   9.759  2.0980  0.6514  1.9263
  212MOL0     H29242   9.002   3.209   9.528  0.5440 -1.0020  1.1378
  212MOL0     H29243   8.815   3.086   9.457 -1.0914 -0.1002 -1.8104
  212MOL0     H29244   8.657   2.957   9.407 -0.5212 -1.0878  0.6459
  212MOL0     H29245   8.631   3.039   9.256  2.0487  0.3081  0.8953
  212MOL0     H29246   8.463   2.891   9.269 -0.4588 -0.7819  1.0215
  212MOL0     H29247   8.574   2.753   9.302 -0.9946  0.3778 -0.1334
  212MOL0     H29248   8.554   2.926   9.056 -1.0872 -0.3957 -1.5997
  212MOL0     H29249   8.665   2.775   9.079 -0.7054 -2.3016  3.2484
  212MOL0     H29250   8.358   2.789   9.102 -1.7642 -0.0267 -1.9308
  212MOL0     H29251   8.450   2.644   9.070  1.2754 -0.6283  0.7443
  212MOL0     H29252   8.384   2.798   8.680 -4.3865 -1.0257  0.3033
  212MOL0     H29253   9.033   2.901   9.152 -0.5358 -2.1126  1.7361
  212MOL0     H29254   9.277   2.940   9.132  3.0465  1.7081 -1.0824
  212MOL0     H29255   9.199   3.079   9.064  2.5971 -0.5737 -0.9383
  212MOL0     H29256   9.333   3.105   9.169 -0.1151  0.7539  2.5814
  213MOL0     O29257  11.119  10.063   8.372  0.0962  0.2608  0.1091
  213MOL0     C29258  11.069   9.955   8.358  0.5943 -0.5655  0.0725
  213MOL0     O29259  11.139   9.831   8.371 -0.1026 -0.3754  0.0877
  213MOL0     C29260  11.272   9.848   8.384 -0.4485  0.6749 -0.0162
  213MOL0     C29261  11.353   9.817   8.276 -0.0221  0.0793 -0.8861
  213MOL0     C29262  11.488   9.829   8.281 -0.2083 -0.2298 -0.3082
  213MOL0     C29263  11.549   9.884   8.395  0.5927  1.1144  0.8053
  213MOL0     O29264  11.685   9.906   8.397 -0.4691  0.4802 -0.2727
  213MOL0     C29265  11.773   9.862   8.298 -0.3851 -0.6883  0.0087
  213MOL0     C29266  11.924   9.884   8.325 -0.4733  0.1894  0.3254
  213MOL0     C29267  12.008   9.844   8.202 -0.5170  0.5031  0.5333
  213MOL0     C29268  12.081   9.710   8.214 -0.7983 -0.7974  1.6238
  213MOL0     C29269  11.984   9.601   8.209 -0.9546  0.2995  0.5326
  213MOL0     C29270  11.913   9.592   8.075 -0.5107 -1.3206  0.0893
  213MOL0     C29271  11.885   9.448   8.025  0.0500  0.3712 -0.0815
  213MOL0     C29272  11.780   9.387   8.113  0.0575 -0.1017  0.7597
  213MOL0     N29273  11.642   9.433   8.087  0.0083  0.0042 -1.1414
  213MOL0     C29274  11.563   9.392   7.984  0.6916 -0.1636  0.6648
  213MOL0     C29275  11.442   9.441   8.013 -0.0510  0.2479 -0.4514
  213MOL0     C29276  11.316   9.429   7.928  0.1322  0.2955 -0.1716
  213MOL0     C29277  11.283   9.281   7.887 -0.1222 -0.1252 -0.1582
  213MOL0     C29278  11.152   9.264   7.814 -0.5706 -0.2650 -0.3836
  213MOL0     C29279  11.028   9.285   7.896 -0.1923 -0.1189 -0.7177
  213MOL0     O29280  11.039   9.203   8.014  1.0241  0.0028 -0.2812
  213MOL0     C29281  11.039   9.065   8.007  0.6304 -0.3786  0.3927
  213MOL0     C29282  10.992   8.990   7.895 -0.1454  1.2317 -0.6362
  213MOL0     C29283  10.994   8.847   7.896  1.2950  0.0058 -0.9634
  213MOL0     C29284  10.936   8.787   7.777 -0.4157 -0.9933  0.8380
  213MOL0     C29285  11.042   8.774   8.010  0.0999  0.4351 -0.7947
  213MOL0     C29286  11.062   8.630   8.011  0.3706 -1.1359  0.2185
  213MOL0     O29287  11.032   8.565   8.129 -0.2617 -0.2182 -0.2041
  213MOL0     C29288  11.081   8.436   8.152 -0.5389 -0.0885  0.3205
  213MOL0     C29289  10.999   8.350   8.223  0.4713  0.1538 -0.6846
  213MOL0     C29290  11.031   8.224   8.260  0.7958 -0.1834  0.2422
  213MOL0     C29291  11.157   8.176   8.231 -0.4600  0.1151  0.5251
  213MOL0     O29292  11.180   8.050   8.270  0.1413 -0.4749 -0.6474
  213MOL0     C29293  11.305   7.989   8.244 -0.2564  0.1120  0.1917
  213MOL0     C29294  11.308   7.858   8.326  0.2655 -0.0508  0.2527
  213MOL0     C29295  11.432   7.790   8.288 -0.4268  1.1317  0.4958
  213MOL0     C29296  11.457   7.658   8.375 -0.6464  0.1563  0.0323
  213MOL0     C29297  11.604   7.612   8.354 -0.0381 -0.6148  0.4403
  213MOL0     C29298  11.641   7.589   8.197 -0.0885 -0.4893  0.7197
  213MOL0     C29299  11.784   7.541   8.182 -0.3109  0.4074 -1.0374
  213MOL0     C29300  11.901   7.642   8.210  0.5411 -0.3042 -0.4488
  213MOL0    Cl29301  11.877   7.779   8.101 -0.0885 -0.4404 -0.0314
  213MOL0     C29302  11.244   8.258   8.152  0.3454  0.8621 -0.8282
  213MOL0     C29303  11.205   8.386   8.101  0.4944  0.8055 -0.2810
  213MOL0     O29304  11.090   8.581   7.895  0.0165  0.0875  0.1128
  213MOL0     C29305  11.096   8.849   8.116 -0.3361  0.4561 -0.0492
  213MOL0     C29306  11.100   8.992   8.113 -0.2184 -0.0347 -1.2148
  213MOL0     N29307  11.455   9.521   8.124  0.6522 -0.5426  0.2046
  213MOL0     N29308  11.580   9.511   8.174 -0.5183  0.6661  0.7165
  213MOL0     C29309  11.468   9.927   8.502  0.2504 -0.3839 -0.4377
  213MOL0     C29310  11.328   9.899   8.500 -0.3847 -0.4520 -0.3324
  213MOL0     C29311  10.924   9.944   8.314  0.5543 -0.1211 -0.1887
  213MOL0     C29312  10.871   9.823   8.260 -1.1005 -0.2776  0.9659
  213MOL0     C29313  10.736   9.815   8.223 -0.4709  0.1656 -0.1525
  213MOL0     C29314  10.655   9.928   8.233 -0.4808  0.4516  0.3292
  213MOL0     O29315  10.526   9.923   8.175 -0.1303 -0.3695 -0.1993
  213MOL0     C29316  10.443  10.043   8.187  0.0860 -0.3620 -0.4003
  213MOL0     C29317  10.307  10.012   8.121  0.1959  0.7222  0.0068
  213MOL0     C29318  10.208  10.129   8.135  0.0233 -0.6278  0.6539
  213MOL0     C29319  10.070  10.101   8.072  0.5374 -0.2064  0.0301
  213MOL0     C29320  10.079  10.075   7.934  0.3705  0.0731  0.1937
  213MOL0     C29321  10.107  10.075   7.814 -0.2650  0.1569 -0.2767
  213MOL0     C29322  10.704  10.049   8.281  0.0927  0.4640 -1.1365
  213MOL0     C29323  10.838  10.061   8.326  0.6528 -0.5029 -0.7396
  213MOL0     C29324  10.872  10.202   8.388 -1.0017 -0.0770  0.0907
  213MOL0     H29325  11.314   9.768   8.187 -0.8081 -1.2190  0.1390
  213MOL0     H29326  11.548   9.808   8.193  1.9891 -0.5705  1.1933
  213MOL0     H29327  11.736   9.904   8.204 -0.0735 -0.7212 -0.1314
  213MOL0     H29328  11.755   9.754   8.291  0.4663 -0.8155 -0.3356
  213MOL0     H29329  11.941   9.986   8.360 -0.9256 -0.2692  2.0039
  213MOL0     H29330  11.937   9.828   8.418 -1.4121  0.1166  0.4188
  213MOL0     H29331  11.933   9.853   8.123  2.9918 -0.0030 -3.1311
  213MOL0     H29332  12.081   9.923   8.180  1.5397 -0.7965  2.2834
  213MOL0     H29333  12.164   9.697   8.143 -2.2665 -2.4792  0.1366
  213MOL0     H29334  12.133   9.721   8.310  1.7596  0.2143  0.2307
  213MOL0     H29335  11.919   9.601   8.297  0.0709  2.2860  1.3523
  213MOL0     H29336  12.051   9.514   8.215  3.5507  3.3727 -0.1154
  213MOL0     H29337  11.826   9.658   8.072  1.4876  1.6167  1.3551
  213MOL0     H29338  11.988   9.631   8.006 -1.0217  0.8475  0.6737
  213MOL0     H29339  11.972   9.383   8.034  0.6611  1.3520  1.5546
  213MOL0     H29340  11.855   9.447   7.920 -1.7437  2.2641  0.3366
  213MOL0     H29341  11.777   9.278   8.100 -2.0559  0.2145 -2.6809
  213MOL0     H29342  11.808   9.407   8.217  0.7913  2.9526  0.0730
  213MOL0     H29343  11.594   9.348   7.890 -1.8789  0.9059 -0.7693
  213MOL0     H29344  11.337   9.480   7.834  0.7852  1.2582  0.4805
  213MOL0     H29345  11.239   9.476   7.990 -0.1059  0.1914 -0.3828
  213MOL0     H29346  11.352   9.246   7.809 -1.1488 -1.1153 -0.6516
  213MOL0     H29347  11.298   9.215   7.972 -1.3910 -3.6590 -2.4553
  213MOL0     H29348  11.157   9.339   7.735 -0.8951  1.5190  1.2217
  213MOL0     H29349  11.145   9.172   7.756 -0.2828  0.9805 -2.5067
  213MOL0     H29350  11.028   9.391   7.921  3.6405 -0.1515  0.1615
  213MOL0     H29351  10.941   9.263   7.835  2.9642 -2.3962 -4.9604
  213MOL0     H29352  10.951   9.040   7.808  1.2421 -1.0306 -2.7258
  213MOL0     H29353  10.858   8.847   7.729  1.3931 -0.1901 -1.2147
  213MOL0     H29354  10.890   8.688   7.789  1.2096 -2.0791 -1.2091
  213MOL0     H29355  11.019   8.772   7.708  0.0065 -0.6804  1.2711
  213MOL0     H29356  10.901   8.395   8.238  0.8173  0.7180 -0.0883
  213MOL0     H29357  10.957   8.163   8.310 -0.2670 -1.2660 -2.4797
  213MOL0     H29358  11.317   7.982   8.136 -2.4529  0.2334 -0.0981
  213MOL0     H29359  11.392   8.047   8.276 -1.3136  1.5821  0.4629
  213MOL0     H29360  11.317   7.893   8.429  1.7090 -0.0499  0.1428
  213MOL0     H29361  11.225   7.790   8.305  2.6548 -2.5055 -2.1816
  213MOL0     H29362  11.528   7.841   8.293  0.2038  0.0576 -0.0797
  213MOL0     H29363  11.409   7.758   8.186  0.9429  1.1578  0.1668
  213MOL0     H29364  11.398   7.568   8.353  1.9036 -2.0131  1.4912
  213MOL0     H29365  11.441   7.680   8.481  3.0532 -3.6390  1.6445
  213MOL0     H29366  11.664   7.693   8.396  0.2943 -0.0307 -1.1031
  213MOL0     H29367  11.625   7.523   8.414 -0.8144 -2.1947 -1.5177
  213MOL0     H29368  11.633   7.682   8.138 -0.3195 -0.8793  0.1235
  213MOL0     H29369  11.561   7.531   8.150  0.3597 -0.1708 -0.4973
  213MOL0     H29370  11.794   7.498   8.082 -1.0707  0.2531 -1.0514
  213MOL0     H29371  11.802   7.446   8.235 -0.0178 -0.1001 -2.0217
  213MOL0     H29372  11.992   7.590   8.180  1.7420 -0.9694  3.6768
  213MOL0     H29373  11.913   7.678   8.313  2.1837  0.6511 -0.9327
  213MOL0     H29374  11.340   8.224   8.117  1.0945  0.0137  1.8190
  213MOL0     H29375  11.255   8.453   8.032 -0.8047  1.0385 -1.0289
  213MOL0     H29376  11.137   8.798   8.203 -2.1708  0.8880  1.1467
  213MOL0     H29377  11.140   9.043   8.199  0.0408  0.8438 -1.8438
  213MOL0     H29378  11.518   9.983   8.580  0.0520 -0.9079  0.0711
  213MOL0     H29379  11.265   9.928   8.584 -0.0732  1.0235 -0.5762
  213MOL0     H29380  10.934   9.736   8.245 -0.2617  0.3904  0.5135
  213MOL0     H29381  10.703   9.730   8.164 -1.5643  0.2991  0.2372
  213MOL0     H29382  10.430  10.074   8.291 -0.1691  0.3843 -0.6490
  213MOL0     H29383  10.477  10.135   8.139 -0.6521  0.6396  0.9356
  213MOL0     H29384  10.268   9.917   8.156 -1.3674  1.5224  0.5149
  213MOL0     H29385  10.328   9.998   8.014 -0.1059  0.9212 -0.0824
  213MOL0     H29386  10.204  10.167   8.238 -1.5017  0.0934  0.3676
  213MOL0     H29387  10.242  10.211   8.071 -0.5972 -3.6962 -4.0256
  213MOL0     H29388   9.998  10.181   8.091 -1.6182 -1.9712 -0.3020
  213MOL0     H29389  10.023  10.016   8.122  0.2562 -0.8478 -1.3007
  213MOL0     H29390  10.139  10.083   7.712  0.3098 -1.2627 -0.2297
  213MOL0     H29391  10.632  10.129   8.297 -0.5985 -0.0572 -1.5504
  213MOL0     H29392  10.962  10.249   8.348 -1.4829  0.1047 -0.8066
  213MOL0     H29393  10.782  10.261   8.367 -0.1343  0.6449 -1.8730
  213MOL0     H29394  10.891  10.185   8.494  2.1249  1.6949 -0.0775
  214MOL0     O29395   3.586   5.460   7.797 -0.0720  0.4697 -0.9576
  214MOL0     C29396   3.652   5.376   7.858  0.0873  0.2131 -0.5759
  214MOL0     O29397   3.791   5.368   7.865 -0.1195  0.0370  0.1386
  214MOL0     C29398   3.861   5.460   7.792 -0.2466  0.6447  0.5584
  214MOL0     C29399   3.968   5.519   7.836  0.3986  0.4210 -0.1243
  214MOL0     C29400   4.053   5.599   7.761 -0.0608 -0.2081  0.3695
  214MOL0     C29401   4.034   5.626   7.628  0.1384  0.5324 -0.1194
  214MOL0     O29402   4.125   5.699   7.555  0.3362  0.0053  0.2330
  214MOL0     C29403   4.118   5.681   7.413 -0.2202 -0.3706 -0.1598
  214MOL0     C29404   4.224   5.741   7.332  0.0999  0.5725  0.5830
  214MOL0     C29405   4.360   5.668   7.359  0.6150  0.2750 -0.1692
  214MOL0     C29406   4.480   5.747   7.303  0.3541 -0.0477 -0.0711
  214MOL0     C29407   4.611   5.674   7.307  0.5157  0.2029  0.0310
  214MOL0     C29408   4.699   5.687   7.426  0.2123  0.5009 -0.2114
  214MOL0     C29409   4.818   5.601   7.416  0.4859 -0.0725  0.5666
  214MOL0     C29410   4.906   5.604   7.536  0.6206  0.7759  0.5801
  214MOL0     N29411   4.997   5.727   7.542  0.0875 -0.3247  0.9635
  214MOL0     C29412   5.127   5.744   7.494  0.0465 -0.4483  0.8794
  214MOL0     C29413   5.172   5.856   7.547 -0.4293  0.2362 -0.2832
  214MOL0     C29414   5.310   5.920   7.534 -0.4879  0.3174 -0.7222
  214MOL0     C29415   5.406   5.899   7.659  0.0767  0.7387  0.1643
  214MOL0     C29416   5.339   5.948   7.786 -0.1231 -0.6945  0.3981
  214MOL0     C29417   5.420   5.941   7.916  0.5192  0.0056 -0.1792
  214MOL0     O29418   5.518   6.047   7.925  0.7874  0.5951  0.5846
  214MOL0     C29419   5.638   6.028   7.982 -1.0803 -0.2625  0.1362
  214MOL0     C29420   5.655   5.932   8.078 -1.1335 -0.4682 -0.5921
  214MOL0     C29421   5.789   5.906   8.125 -0.2336  0.4360  0.1324
  214MOL0     C29422   5.796   5.792   8.224  0.1999 -0.2303  0.6157
  214MOL0     C29423   5.901   5.973   8.064 -0.5870  0.0065 -0.2272
  214MOL0     C29424   6.045   5.948   8.113  0.1276 -0.8682 -0.0294
  214MOL0     O29425   6.062   5.860   8.219  0.0536 -0.0005 -0.1083
  214MOL0     C29426   6.185   5.802   8.236 -0.1477 -0.1631  0.1267
  214MOL0     C29427   6.190   5.668   8.220  0.0319 -0.0823  0.7822
  214MOL0     C29428   6.310   5.599   8.245  0.1223 -0.1450  0.6444
  214MOL0     C29429   6.430   5.671   8.261 -0.6264  0.5131 -0.4805
  214MOL0     O29430   6.552   5.614   8.287  0.3750  0.4299  0.0589
  214MOL0     C29431   6.563   5.474   8.311  0.7387 -0.0684 -0.4105
  214MOL0     C29432   6.713   5.448   8.322  0.8065  0.1506  0.7828
  214MOL0     C29433   6.779   5.519   8.443 -0.7087  0.6364  0.3442
  214MOL0     C29434   6.926   5.480   8.452  0.3211 -0.2009 -0.4620
  214MOL0     C29435   6.996   5.531   8.577  0.5429 -0.1237 -0.4986
  214MOL0     C29436   7.144   5.506   8.564  1.0814 -0.2613  0.9563
  214MOL0     C29437   7.217   5.516   8.695  0.2918  0.6036  0.2686
  214MOL0     C29438   7.234   5.666   8.739  0.0725  0.0628  0.9323
  214MOL0    Cl29439   7.362   5.676   8.856 -0.6560 -0.3091  0.0365
  214MOL0     C29440   6.421   5.809   8.258  0.0483 -0.4611 -0.4450
  214MOL0     C29441   6.298   5.875   8.250 -0.6111  0.0894 -0.4819
  214MOL0     O29442   6.134   6.010   8.058 -0.7870 -0.2326 -0.0904
  214MOL0     C29443   5.873   6.080   7.970  0.4132 -0.4614 -0.6197
  214MOL0     C29444   5.746   6.101   7.919  0.4615  0.0889 -0.0272
  214MOL0     N29445   5.068   5.920   7.613 -0.3490 -0.6829  0.1586
  214MOL0     N29446   4.973   5.836   7.618 -0.6295 -0.2701  0.1435
  214MOL0     C29447   3.913   5.572   7.575 -0.4504  0.1172  1.2731
  214MOL0     C29448   3.832   5.487   7.655 -0.6447 -0.2660  0.5946
  214MOL0     C29449   3.584   5.267   7.933  0.6423 -0.4144  0.2892
  214MOL0     C29450   3.649   5.216   8.042  0.7915 -0.1512 -0.4433
  214MOL0     C29451   3.593   5.111   8.114 -0.5612 -0.0363  0.8933
  214MOL0     C29452   3.467   5.056   8.080 -1.1988 -0.5597 -0.2545
  214MOL0     O29453   3.407   4.962   8.161  0.1316  0.5477 -0.3081
  214MOL0     C29454   3.328   4.860   8.087  0.4134 -0.3259 -0.6948
  214MOL0     C29455   3.418   4.764   8.002  0.4593  0.9213  0.1533
  214MOL0     C29456   3.548   4.715   8.080 -0.1893 -0.9984  0.7884
  214MOL0     C29457   3.585   4.574   8.029 -0.8194  1.6611  0.0272
  214MOL0     C29458   3.626   4.576   7.891 -0.0303 -0.6247  0.3067
  214MOL0     C29459   3.653   4.588   7.768 -0.0121 -0.0875 -0.1631
  214MOL0     C29460   3.388   5.125   7.983  0.1773 -0.0806 -0.3467
  214MOL0     C29461   3.449   5.222   7.902  1.1151 -0.3229  0.9049
  214MOL0     C29462   3.368   5.276   7.782 -0.6916 -0.3362  0.3332
  214MOL0     H29463   3.997   5.483   7.934 -1.0737 -0.0307  0.1566
  214MOL0     H29464   4.142   5.633   7.813 -0.3992  0.4823  0.5124
  214MOL0     H29465   4.028   5.734   7.381 -1.2582 -1.9884 -0.0421
  214MOL0     H29466   4.119   5.574   7.391  2.7455  0.0730 -3.0037
  214MOL0     H29467   4.208   5.751   7.224 -2.8412  2.4660  1.0969
  214MOL0     H29468   4.240   5.845   7.360  1.2045  0.3903  0.7101
  214MOL0     H29469   4.367   5.655   7.468 -0.9979 -1.6635 -0.2361
  214MOL0     H29470   4.358   5.567   7.317 -1.3082  0.2442 -0.0674
  214MOL0     H29471   4.457   5.782   7.201  0.4322  1.0772  0.2865
  214MOL0     H29472   4.485   5.839   7.362  0.5247 -1.1141  1.6230
  214MOL0     H29473   4.677   5.700   7.223  1.6887  1.1531  1.2129
  214MOL0     H29474   4.594   5.566   7.308  4.2597 -0.6282  4.2020
  214MOL0     H29475   4.719   5.794   7.431 -3.3418  1.3600 -1.2940
  214MOL0     H29476   4.643   5.658   7.515  0.5723  0.0486 -0.1290
  214MOL0     H29477   4.873   5.642   7.330 -1.0432 -0.1888 -0.5174
  214MOL0     H29478   4.792   5.497   7.393 -0.0783 -0.1750  1.6346
  214MOL0     H29479   4.843   5.602   7.626  1.1717  0.2924  0.9667
  214MOL0     H29480   4.971   5.516   7.536 -1.1482 -0.6175 -0.3855
  214MOL0     H29481   5.194   5.673   7.447  1.1235 -0.3809  2.2383
  214MOL0     H29482   5.285   6.027   7.531 -2.4883 -0.0638  0.6770
  214MOL0     H29483   5.370   5.891   7.447  2.3103  1.7333  0.5871
  214MOL0     H29484   5.435   5.795   7.677  1.7812  1.5475  2.5442
  214MOL0     H29485   5.497   5.956   7.638 -0.3454  0.6977 -2.1128
  214MOL0     H29486   5.313   6.053   7.770  1.8538  0.2025  2.4642
  214MOL0     H29487   5.243   5.896   7.797 -0.3195 -0.1361  1.5244
  214MOL0     H29488   5.354   5.958   8.002  0.2334  1.6673 -0.6842
  214MOL0     H29489   5.450   5.836   7.927 -0.6192 -0.5602 -2.0009
  214MOL0     H29490   5.577   5.861   8.104 -0.6474 -1.8203 -2.5711
  214MOL0     H29491   5.838   5.812   8.323 -0.7261 -0.1957  1.0148
  214MOL0     H29492   5.855   5.714   8.175  1.3449  0.2699  1.1480
  214MOL0     H29493   5.694   5.758   8.246  0.9289 -2.5775  0.6115
  214MOL0     H29494   6.098   5.613   8.208  0.4837 -0.2387 -2.9933
  214MOL0     H29495   6.305   5.490   8.247 -0.9161 -0.1269  0.0212
  214MOL0     H29496   6.513   5.467   8.408  1.4543 -0.0714 -0.0280
  214MOL0     H29497   6.519   5.409   8.236 -0.2691 -1.2715  1.1652
  214MOL0     H29498   6.736   5.341   8.325 -1.1489 -0.2949  1.3960
  214MOL0     H29499   6.759   5.483   8.229  2.1358  1.1482  1.7775
  214MOL0     H29500   6.734   5.484   8.536 -0.3113 -0.1644  0.2445
  214MOL0     H29501   6.782   5.628   8.430  1.6871  0.4316 -1.4825
  214MOL0     H29502   6.987   5.520   8.370  0.8969 -2.9093 -1.4494
  214MOL0     H29503   6.929   5.372   8.466  0.3718 -0.0854  0.5047
  214MOL0     H29504   6.969   5.636   8.591 -0.8011 -0.6168  0.8301
  214MOL0     H29505   6.956   5.479   8.665  1.1143  0.6525  0.2449
  214MOL0     H29506   7.180   5.568   8.482 -1.9242 -0.9071 -1.0280
  214MOL0     H29507   7.147   5.403   8.529 -0.8177 -0.2866  0.7346
  214MOL0     H29508   7.314   5.471   8.673 -0.1709 -0.6294  0.7208
  214MOL0     H29509   7.157   5.464   8.770 -0.6271  0.5590 -0.4677
  214MOL0     H29510   7.138   5.696   8.783 -0.7862 -0.4049 -0.5566
  214MOL0     H29511   7.261   5.733   8.657 -0.5104 -1.7489 -0.8347
  214MOL0     H29512   6.509   5.871   8.275 -0.4701  0.0971  0.2344
  214MOL0     H29513   6.301   5.983   8.249  0.9659  0.0587 -0.5159
  214MOL0     H29514   5.956   6.132   7.922  2.4219 -1.7125  1.3148
  214MOL0     H29515   5.719   6.170   7.841 -0.5421 -1.9830 -1.6110
  214MOL0     H29516   3.890   5.592   7.471  2.8264  2.0775  0.7671
  214MOL0     H29517   3.745   5.450   7.603 -0.3653  0.3492 -0.3324
  214MOL0     H29518   3.745   5.250   8.080 -0.4393 -0.8146  3.7882
  214MOL0     H29519   3.651   5.076   8.199  1.0063 -2.1255 -0.9146
  214MOL0     H29520   3.267   4.806   8.159 -0.5100  1.8619  0.2394
  214MOL0     H29521   3.257   4.897   8.014  0.6820 -1.9602 -1.8441
  214MOL0     H29522   3.449   4.816   7.911  3.0517  0.2385  0.5642
  214MOL0     H29523   3.364   4.673   7.975  0.9996 -0.4295  3.0999
  214MOL0     H29524   3.634   4.781   8.073  2.1246 -3.9397 -2.3395
  214MOL0     H29525   3.524   4.700   8.185  2.0209 -0.3401  1.4356
  214MOL0     H29526   3.495   4.512   8.044  0.4877 -0.0051  1.3896
  214MOL0     H29527   3.669   4.538   8.088  0.0231  0.7970 -1.6237
  214MOL0     H29528   3.683   4.598   7.665 -0.1359 -2.7323 -0.5377
  214MOL0     H29529   3.281   5.107   7.976  0.5053 -2.7228  0.4328
  214MOL0     H29530   3.311   5.365   7.811 -0.2550  0.1360 -0.2307
  214MOL0     H29531   3.427   5.313   7.697 -0.3449  0.8647  1.0768
  214MOL0     H29532   3.307   5.199   7.734 -0.7876  0.2621 -0.5291
  215MOL0     O29533   6.016   2.888   0.665  0.4430 -0.0992 -0.1407
  215MOL0     C29534   5.923   2.887   0.748 -0.1630  0.4872 -0.4475
  215MOL0     O29535   5.922   2.829   0.870  0.6478  0.3053  0.1122
  215MOL0     C29536   6.036   2.815   0.926 -0.2222 -0.4370 -0.3716
  215MOL0     C29537   6.079   2.683   0.948 -0.4728 -0.9137 -0.7251
  215MOL0     C29538   6.211   2.658   0.995  0.6022  0.4301  0.9875
  215MOL0     C29539   6.281   2.767   1.047 -0.4660  0.2325 -0.3805
  215MOL0     O29540   6.414   2.739   1.085  0.1191  0.0132 -0.1202
  215MOL0     C29541   6.518   2.841   1.055  0.6449 -0.8187 -0.1630
  215MOL0     C29542   6.657   2.779   1.082  0.5873 -0.2510 -0.2206
  215MOL0     C29543   6.760   2.817   0.981  0.5673  0.2068 -0.4079
  215MOL0     C29544   6.898   2.757   1.021  0.3514  1.2093  0.2959
  215MOL0     C29545   7.011   2.821   0.935 -0.2176 -0.1025 -0.6179
  215MOL0     C29546   6.977   2.801   0.786 -0.5044 -0.4442  0.7172
  215MOL0     C29547   7.103   2.825   0.702 -0.2187 -0.0005 -0.7768
  215MOL0     C29548   7.084   2.776   0.560 -0.0876  0.1320 -0.0791
  215MOL0     N29549   6.995   2.880   0.491 -0.0684  0.3615  0.2771
  215MOL0     C29550   6.859   2.851   0.450  0.5602 -0.1007 -0.4741
  215MOL0     C29551   6.839   2.946   0.359 -0.6493  0.4347  0.1971
  215MOL0     C29552   6.699   2.952   0.289 -0.4937  0.9380 -0.2777
  215MOL0     C29553   6.622   3.077   0.331  0.5098 -0.4038 -0.8811
  215MOL0     C29554   6.690   3.204   0.274  0.0465 -0.2614  0.6595
  215MOL0     C29555   6.607   3.330   0.293 -0.3916  0.2922  0.3319
  215MOL0     O29556   6.671   3.448   0.244 -0.3735  0.4059  0.5140
  215MOL0     C29557   6.657   3.488   0.113 -0.2464 -0.3142  0.2477
  215MOL0     C29558   6.563   3.429   0.030  0.3587 -0.2089 -0.1871
  215MOL0     C29559   6.530   3.476  -0.099 -0.3297 -0.0983 -0.3396
  215MOL0     C29560   6.419   3.412  -0.174 -0.4095  0.1015  0.2225
  215MOL0     C29561   6.612   3.578  -0.146 -0.2405 -0.0752  0.6724
  215MOL0     C29562   6.633   3.606  -0.291  0.1756  0.4591 -0.0668
  215MOL0     O29563   6.736   3.690  -0.321 -0.4381  0.8942  0.0055
  215MOL0     C29564   6.753   3.748  -0.447 -0.4290  0.2979  0.0196
  215MOL0     C29565   6.809   3.877  -0.448 -0.3966 -0.7978  0.2499
  215MOL0     C29566   6.827   3.945  -0.575  0.5112  0.6299 -1.0203
  215MOL0     C29567   6.801   3.883  -0.696 -0.0932  0.3085 -0.6021
  215MOL0     O29568   6.815   3.950  -0.815 -0.0746 -0.5914 -0.4476
  215MOL0     C29569   6.931   3.901  -0.896  0.4790 -0.0939  0.5973
  215MOL0     C29570   6.895   3.903  -1.044 -0.1713  0.0668  0.3162
  215MOL0     C29571   6.771   3.823  -1.072  0.2598  0.2060 -0.8009
  215MOL0     C29572   6.751   3.792  -1.221  0.3692 -0.2150  0.1667
  215MOL0     C29573   6.728   3.639  -1.245 -0.4931  0.0892 -0.5728
  215MOL0     C29574   6.582   3.602  -1.225 -0.2679 -0.3920  0.0455
  215MOL0     C29575   6.554   3.450  -1.238  0.1228 -0.0036  0.0355
  215MOL0     C29576   6.520   3.406  -1.381  0.1289 -0.2935 -0.3206
  215MOL0    Cl29577   6.518   3.220  -1.377 -0.3115 -0.0055 -0.1599
  215MOL0     C29578   6.774   3.742  -0.689  0.4538  0.0534  0.2151
  215MOL0     C29579   6.731   3.684  -0.571 -0.6643  0.2416 -0.6161
  215MOL0     O29580   6.560   3.545  -0.367 -0.4498 -0.2746 -0.0916
  215MOL0     C29581   6.698   3.649  -0.059  0.3149  0.2035  0.2863
  215MOL0     C29582   6.718   3.603   0.069 -0.4943  0.2374  0.5421
  215MOL0     N29583   6.949   3.022   0.351 -0.3399 -0.7594  0.7844
  215MOL0     N29584   7.034   2.993   0.439 -0.0102  0.7622 -0.6727
  215MOL0     C29585   6.230   2.889   1.046 -0.0766  1.0557  1.2573
  215MOL0     C29586   6.111   2.920   0.981 -0.5406 -0.4733 -0.0911
  215MOL0     C29587   5.795   2.944   0.709 -0.3236  0.3488 -0.4754
  215MOL0     C29588   5.780   2.954   0.567  0.4531 -0.6309  0.8632
  215MOL0     C29589   5.655   2.978   0.513 -0.7354 -0.4347 -0.5990
  215MOL0     C29590   5.550   3.022   0.596  0.5122  1.0065 -0.0567
  215MOL0     O29591   5.436   3.081   0.543 -0.2097 -0.1399  0.2504
  215MOL0     C29592   5.399   3.056   0.408  0.1077  0.2683  1.0485
  215MOL0     C29593   5.440   3.177   0.313  0.2977 -0.0840 -0.4702
  215MOL0     C29594   5.411   3.316   0.362  0.5387 -0.3602  0.8924
  215MOL0     C29595   5.454   3.418   0.250  0.0539  1.0623 -0.9303
  215MOL0     C29596   5.337   3.436   0.167  0.6324 -0.2888  0.2150
  215MOL0     C29597   5.229   3.439   0.111  0.9802 -0.0069  0.1925
  215MOL0     C29598   5.565   3.015   0.733  0.1938 -0.0714 -0.3998
  215MOL0     C29599   5.685   2.979   0.793  0.0862  0.8542  0.3061
  215MOL0     C29600   5.696   2.984   0.944 -0.2552  0.0806 -0.6090
  215MOL0     H29601   6.015   2.596   0.939  0.9801 -1.9917 -1.0401
  215MOL0     H29602   6.256   2.560   0.996  1.0203  0.4987 -2.0824
  215MOL0     H29603   6.505   2.938   1.103 -0.1413 -2.6452  3.7535
  215MOL0     H29604   6.507   2.852   0.947 -1.9057  0.4080  0.1345
  215MOL0     H29605   6.698   2.818   1.175 -0.5371  1.2284 -0.3182
  215MOL0     H29606   6.651   2.670   1.091  1.4916 -0.2813  0.1275
  215MOL0     H29607   6.741   2.790   0.877  1.7038  1.6992 -1.0471
  215MOL0     H29608   6.761   2.926   0.994 -2.4173  0.1281  1.2664
  215MOL0     H29609   6.918   2.772   1.128  0.1924  0.5525  0.4221
  215MOL0     H29610   6.893   2.648   1.010  0.9051  1.1246  0.7689
  215MOL0     H29611   7.102   2.765   0.960 -0.1517 -0.3774 -1.4573
  215MOL0     H29612   7.017   2.927   0.961 -0.5370 -0.1088 -0.5186
  215MOL0     H29613   6.931   2.702   0.773 -1.8187 -0.0704  2.2091
  215MOL0     H29614   6.901   2.868   0.746  0.8940 -0.5921 -2.4966
  215MOL0     H29615   7.181   2.773   0.757 -2.2398  1.4142  3.9654
  215MOL0     H29616   7.131   2.931   0.698 -1.4547  0.3609 -0.4306
  215MOL0     H29617   7.184   2.782   0.516  1.3108 -1.3532  2.7000
  215MOL0     H29618   7.045   2.676   0.538 -1.2515  0.6261 -0.3577
  215MOL0     H29619   6.796   2.769   0.484  0.3236 -0.2272 -1.1890
  215MOL0     H29620   6.643   2.864   0.324 -1.0006  1.2201 -0.3731
  215MOL0     H29621   6.706   2.943   0.180  0.3704 -2.9652 -0.0536
  215MOL0     H29622   6.521   3.060   0.291  0.2929  0.7615 -0.8539
  215MOL0     H29623   6.618   3.079   0.440  0.1059  0.0292 -0.8999
  215MOL0     H29624   6.789   3.207   0.319  0.2300  2.2770  0.2174
  215MOL0     H29625   6.713   3.193   0.168  2.3637 -2.0872  1.2810
  215MOL0     H29626   6.500   3.313   0.278 -0.3037 -2.0277  1.8290
  215MOL0     H29627   6.609   3.346   0.401 -1.5189  0.3941  0.3520
  215MOL0     H29628   6.513   3.339   0.065  2.7352 -2.2359 -1.6283
  215MOL0     H29629   6.458   3.324  -0.227 -0.4944 -0.7463  1.5116
  215MOL0     H29630   6.363   3.472  -0.246 -0.0237  0.7924  0.4916
  215MOL0     H29631   6.349   3.381  -0.096  1.2591  0.8773  2.1475
  215MOL0     H29632   6.829   3.932  -0.356  0.6188 -1.3629  0.3740
  215MOL0     H29633   6.855   4.050  -0.572 -0.7395  0.9656 -0.1462
  215MOL0     H29634   7.020   3.961  -0.877 -0.4799  1.6242 -0.1411
  215MOL0     H29635   6.954   3.797  -0.872 -1.8245 -1.5221 -2.6587
  215MOL0     H29636   6.889   4.009  -1.071  0.5211  0.8305  2.8581
  215MOL0     H29637   6.972   3.853  -1.103  1.5234  0.8333  1.7842
  215MOL0     H29638   6.680   3.864  -1.029  0.2735  0.2438 -0.8091
  215MOL0     H29639   6.792   3.727  -1.024 -1.1971 -1.0050 -2.4358
  215MOL0     H29640   6.845   3.816  -1.272 -1.7447  2.9494 -2.6926
  215MOL0     H29641   6.674   3.858  -1.260  0.4315 -0.4138 -0.3098
  215MOL0     H29642   6.758   3.614  -1.347 -3.2520 -0.4684 -1.3095
  215MOL0     H29643   6.785   3.581  -1.172 -0.3767  0.2924 -0.5004
  215MOL0     H29644   6.521   3.661  -1.294 -1.3817  1.0993  2.1888
  215MOL0     H29645   6.552   3.634  -1.125  2.2984  1.8658  0.2168
  215MOL0     H29646   6.470   3.420  -1.176  0.8384 -2.0797  0.0665
  215MOL0     H29647   6.642   3.393  -1.206  0.8148  0.3311 -1.1737
  215MOL0     H29648   6.600   3.445  -1.444 -2.1164  2.7274 -1.5266
  215MOL0     H29649   6.426   3.450  -1.414  0.5124  0.2775 -0.6516
  215MOL0     H29650   6.758   3.694  -0.786  0.0030 -1.9078  1.2062
  215MOL0     H29651   6.679   3.589  -0.564  1.3258 -0.9120 -0.7378
  215MOL0     H29652   6.748   3.740  -0.089 -1.3044  0.2068 -2.8001
  215MOL0     H29653   6.775   3.669   0.133 -1.4731  1.5878  0.0660
  215MOL0     H29654   6.276   2.972   1.099  0.7940  0.4817  1.4241
  215MOL0     H29655   6.079   3.024   0.976 -1.2059 -0.7062 -0.9673
  215MOL0     H29656   5.855   2.939   0.490 -0.2138  4.1185 -1.0986
  215MOL0     H29657   5.657   3.000   0.407 -1.1186 -2.0553 -0.9652
  215MOL0     H29658   5.432   2.963   0.361  1.5496  1.0879  0.3707
  215MOL0     H29659   5.290   3.057   0.407  0.1031  0.5287  1.4808
  215MOL0     H29660   5.386   3.165   0.219  1.7167  1.5224 -1.5562
  215MOL0     H29661   5.550   3.168   0.312  0.2842 -1.0228  1.4462
  215MOL0     H29662   5.305   3.313   0.389 -0.0213 -1.0243 -1.2249
  215MOL0     H29663   5.472   3.342   0.449  3.0555 -2.6188 -0.0526
  215MOL0     H29664   5.539   3.377   0.195  1.6397 -1.8832  3.1832
  215MOL0     H29665   5.487   3.516   0.287 -4.0878  1.6396  1.9403
  215MOL0     H29666   5.134   3.441   0.062  0.3815 -0.2189  1.3123
  215MOL0     H29667   5.482   3.044   0.797 -0.9267 -1.3409 -1.2275
  215MOL0     H29668   5.690   2.886   0.992  1.2466 -0.0279 -0.6253
  215MOL0     H29669   5.794   3.021   0.974  0.2281 -1.0594 -0.7399
  215MOL0     H29670   5.615   3.042   0.989  0.8460  0.6364  0.7205
  216MOL0     O29671   9.820   1.388   2.999 -0.0680  0.1970  1.1830
  216MOL0     C29672   9.767   1.292   2.937 -0.0129 -1.1010 -0.1474
  216MOL0     O29673   9.832   1.192   2.874 -0.2121  0.1464 -0.2088
  216MOL0     C29674   9.971   1.204   2.868 -0.0286 -0.6964  0.5608
  216MOL0     C29675  10.027   1.255   2.754  0.0500 -0.3562 -0.4435
  216MOL0     C29676  10.171   1.263   2.747 -0.0942  0.3677 -0.8909
  216MOL0     C29677  10.248   1.224   2.855  0.2201 -0.0291 -0.4833
  216MOL0     O29678  10.383   1.244   2.834 -0.7492 -0.0206 -1.3660
  216MOL0     C29679  10.471   1.204   2.946 -0.0131 -0.3107  0.4070
  216MOL0     C29680  10.610   1.275   2.937  0.0685  0.0908  0.4737
  216MOL0     C29681  10.604   1.423   2.909  0.2992  0.0694 -0.4773
  216MOL0     C29682  10.740   1.472   2.909 -0.6252  0.4480 -0.1056
  216MOL0     C29683  10.748   1.626   2.887  0.9236 -0.0055  0.1672
  216MOL0     C29684  10.889   1.690   2.919 -0.0378 -0.0110 -0.0788
  216MOL0     C29685  10.987   1.678   2.802 -0.0244  0.6178  0.3261
  216MOL0     C29686  11.110   1.604   2.846 -0.6073  0.3143  0.1871
  216MOL0     N29687  11.188   1.569   2.730  0.1345  0.0491  0.3851
  216MOL0     C29688  11.284   1.649   2.673  0.0895  0.0392  0.4894
  216MOL0     C29689  11.338   1.575   2.571  0.1799  0.2200 -0.6514
  216MOL0     C29690  11.442   1.630   2.484 -0.5147 -0.6402 -0.1844
  216MOL0     C29691  11.587   1.613   2.543  0.7949 -0.8898 -0.5610
  216MOL0     C29692  11.606   1.711   2.662  0.0441 -0.0491 -1.0575
  216MOL0     C29693  11.756   1.734   2.686  0.3423  0.1193 -0.4779
  216MOL0     O29694  11.769   1.826   2.800 -0.4966 -0.1154  0.0714
  216MOL0     C29695  11.896   1.830   2.852  0.1364  0.0883  0.2204
  216MOL0     C29696  11.919   1.914   2.960 -0.2214 -0.9648 -0.1637
  216MOL0     C29697  12.037   1.930   3.025 -0.0860 -0.5173  0.0362
  216MOL0     C29698  12.046   2.055   3.107 -0.4027  0.4077  0.0675
  216MOL0     C29699  12.155   1.853   2.987  0.3573 -0.4408  0.0184
  216MOL0     C29700  12.287   1.858   3.045  0.0631  1.2084  0.0817
  216MOL0     O29701  12.309   1.960   3.139 -0.5877  0.2230 -0.0855
  216MOL0     C29702  12.438   1.977   3.199  0.2307 -0.0179 -0.6597
  216MOL0     C29703  12.561   1.931   3.145  0.9369  0.0697 -0.5297
  216MOL0     C29704  12.678   1.965   3.209  0.0219 -0.5505  0.2201
  216MOL0     C29705  12.678   2.039   3.325  0.3044  0.8346 -0.8126
  216MOL0     O29706  12.791   2.073   3.399 -0.3402 -0.2693 -0.2624
  216MOL0     C29707  12.902   1.988   3.419 -0.1274 -0.4035  0.5206
  216MOL0     C29708  12.994   2.073   3.502  0.1918  0.5035 -0.4634
  216MOL0     C29709  13.123   2.006   3.550  0.3407  0.8265  0.4763
  216MOL0     C29710  13.214   2.095   3.635 -0.3019 -0.5783 -0.2154
  216MOL0     C29711  13.275   2.212   3.548 -0.4395  0.3481 -0.9955
  216MOL0     C29712  13.344   2.308   3.644 -0.2236  0.1521  0.3361
  216MOL0     C29713  13.442   2.409   3.575  0.1745  0.4770  0.4468
  216MOL0     C29714  13.513   2.522   3.668 -1.0227  0.3343  1.1617
  216MOL0    Cl29715  13.586   2.444   3.813 -0.4585  0.3633 -0.0899
  216MOL0     C29716  12.557   2.083   3.381  0.9337 -0.1064 -0.5563
  216MOL0     C29717  12.438   2.058   3.312 -0.3609  0.0923 -0.5965
  216MOL0     O29718  12.367   1.762   3.025  0.3178  0.4730 -0.4823
  216MOL0     C29719  12.127   1.754   2.882 -0.2718 -0.4235 -0.5759
  216MOL0     C29720  12.001   1.743   2.818 -0.8677  0.3094  0.3237
  216MOL0     N29721  11.267   1.455   2.568  0.3463  0.3776 -0.0134
  216MOL0     N29722  11.179   1.447   2.664 -0.5385  0.2713  0.2332
  216MOL0     C29723  10.189   1.166   2.969  0.2377 -0.6302  0.2933
  216MOL0     C29724  10.053   1.156   2.972 -0.1761  0.7301  0.1360
  216MOL0     C29725   9.616   1.295   2.951  0.0324 -0.4482  0.6474
  216MOL0     C29726   9.551   1.420   2.955 -0.4732  0.0272 -1.1439
  216MOL0     C29727   9.410   1.424   2.951 -0.7382 -0.5746 -0.5842
  216MOL0     C29728   9.333   1.312   2.964 -0.1342  0.3168  0.4314
  216MOL0     O29729   9.202   1.296   2.993 -0.0516  0.2466  0.2493
  216MOL0     C29730   9.122   1.417   2.977 -0.1394  0.0583  0.2062
  216MOL0     C29731   9.080   1.448   2.831  0.1363 -0.5841  0.3205
  216MOL0     C29732   8.967   1.343   2.784 -0.1350 -0.3650  0.2244
  216MOL0     C29733   8.993   1.321   2.631  0.0681  0.3988 -0.3017
  216MOL0     C29734   8.887   1.242   2.576  0.3787  0.0924  0.5019
  216MOL0     C29735   8.812   1.169   2.510 -0.1311 -0.6112 -0.4736
  216MOL0     C29736   9.391   1.190   2.967  0.1613  0.3120  0.8369
  216MOL0     C29737   9.531   1.178   2.959 -0.4776 -0.4089 -0.0348
  216MOL0     C29738   9.594   1.045   2.966  0.8635  0.5583 -0.5972
  216MOL0     H29739   9.967   1.272   2.665 -1.9238 -0.7975  0.7392
  216MOL0     H29740  10.230   1.302   2.665  1.2337 -2.5596 -1.4418
  216MOL0     H29741  10.492   1.097   2.944  1.1544 -0.1357  1.7704
  216MOL0     H29742  10.430   1.218   3.046  2.8311 -0.1871  1.6626
  216MOL0     H29743  10.664   1.248   3.028  0.9229 -2.2692 -0.6391
  216MOL0     H29744  10.661   1.232   2.850 -3.0083 -2.2350 -0.3430
  216MOL0     H29745  10.566   1.442   2.808 -0.4327  0.0613 -0.2051
  216MOL0     H29746  10.546   1.472   2.988  0.1425  0.7624 -1.0064
  216MOL0     H29747  10.792   1.435   2.998 -0.5472 -1.6726 -0.9794
  216MOL0     H29748  10.801   1.419   2.835  1.4561  0.2880  1.5896
  216MOL0     H29749  10.679   1.681   2.952  1.3364  1.2671 -0.4292
  216MOL0     H29750  10.713   1.657   2.788  0.7027 -0.5412  0.0768
  216MOL0     H29751  10.876   1.797   2.939 -1.3402  0.1227 -1.4560
  216MOL0     H29752  10.927   1.646   3.011 -2.3228  0.3434  1.1166
  216MOL0     H29753  11.008   1.783   2.778 -3.9681  1.8901  1.6422
  216MOL0     H29754  10.938   1.629   2.718 -0.0982  2.3015 -0.6597
  216MOL0     H29755  11.175   1.650   2.921  0.4557 -2.9662  1.4591
  216MOL0     H29756  11.071   1.509   2.886 -0.0067  0.6924  1.7553
  216MOL0     H29757  11.316   1.750   2.696 -0.5722  0.0177  1.5822
  216MOL0     H29758  11.418   1.735   2.461 -2.0756 -1.1371 -0.9422
  216MOL0     H29759  11.436   1.581   2.386  0.8005  1.2153 -1.2712
  216MOL0     H29760  11.598   1.509   2.574 -0.9046 -0.7413  0.6837
  216MOL0     H29761  11.663   1.631   2.467  0.7703  2.5801  0.0504
  216MOL0     H29762  11.549   1.803   2.653  0.1573 -0.0420 -1.7546
  216MOL0     H29763  11.561   1.662   2.749 -0.9117  1.7684 -0.4779
  216MOL0     H29764  11.794   1.634   2.709 -0.5201  0.1181  1.0290
  216MOL0     H29765  11.807   1.772   2.596  0.1389 -1.1130 -1.1261
  216MOL0     H29766  11.835   1.974   2.993  1.1973 -0.1941  2.3505
  216MOL0     H29767  12.107   2.127   3.053 -0.8325 -0.7175 -2.0428
  216MOL0     H29768  12.094   2.050   3.205 -4.0698  2.1253  2.1988
  216MOL0     H29769  11.952   2.109   3.126 -0.4012  0.9638 -1.3276
  216MOL0     H29770  12.568   1.881   3.049  1.6933 -0.7277 -0.0764
  216MOL0     H29771  12.777   1.940   3.172  0.5207  0.9119  0.4886
  216MOL0     H29772  12.874   1.895   3.469 -1.0671  0.1419  1.0517
  216MOL0     H29773  12.952   1.971   3.324  3.5696 -0.6356  2.3376
  216MOL0     H29774  13.014   2.166   3.448  1.1606 -0.7845 -2.4710
  216MOL0     H29775  12.944   2.107   3.593  0.9770 -1.0966  0.6018
  216MOL0     H29776  13.180   1.984   3.459 -1.0977  1.6075 -0.6506
  216MOL0     H29777  13.108   1.913   3.604  1.9782  0.3452  0.1510
  216MOL0     H29778  13.293   2.041   3.687  0.8179  1.5729  0.4722
  216MOL0     H29779  13.145   2.134   3.712  0.6824 -0.5770  0.6871
  216MOL0     H29780  13.344   2.163   3.479  2.3962 -0.9949  2.4590
  216MOL0     H29781  13.204   2.265   3.485 -0.0832 -1.2961 -2.8672
  216MOL0     H29782  13.410   2.256   3.714  2.7312  2.4864 -0.4680
  216MOL0     H29783  13.272   2.363   3.706 -0.0894 -0.8840  1.4409
  216MOL0     H29784  13.374   2.465   3.510  1.4797  1.9943  0.3193
  216MOL0     H29785  13.523   2.357   3.525  0.0444  0.7136 -0.0117
  216MOL0     H29786  13.440   2.593   3.707  1.1251  3.2370  0.2195
  216MOL0     H29787  13.595   2.567   3.611 -1.4118 -1.3610 -0.8902
  216MOL0     H29788  12.545   2.141   3.471  0.2048  1.7605 -1.8007
  216MOL0     H29789  12.347   2.105   3.346 -0.4107 -0.3832 -0.0717
  216MOL0     H29790  12.207   1.688   2.851  0.8267  1.5599 -2.2019
  216MOL0     H29791  11.993   1.657   2.752  1.5688 -1.4265  2.1264
  216MOL0     H29792  10.242   1.128   3.056  1.1750 -0.6719 -0.2800
  216MOL0     H29793  10.013   1.101   3.057 -0.6707 -1.8631 -1.6730
  216MOL0     H29794   9.609   1.511   2.953 -1.7546  0.8663 -0.9343
  216MOL0     H29795   9.376   1.527   2.954 -0.6234 -0.5481 -0.0674
  216MOL0     H29796   9.028   1.397   3.030 -1.4832 -0.5703 -2.2193
  216MOL0     H29797   9.170   1.505   3.018 -1.7103  0.8092  0.5063
  216MOL0     H29798   9.171   1.451   2.770 -0.0673  0.3559  0.0501
  216MOL0     H29799   9.043   1.550   2.818  1.0988 -0.4034 -1.1974
  216MOL0     H29800   8.971   1.253   2.847  3.2184 -0.1377  0.5372
  216MOL0     H29801   8.869   1.388   2.802 -0.4609 -0.2442 -1.6176
  216MOL0     H29802   9.090   1.271   2.623  0.9204  2.2970 -3.5743
  216MOL0     H29803   8.991   1.413   2.573 -3.3583  0.9912  0.5545
  216MOL0     H29804   8.739   1.115   2.453  0.3537  0.0032 -1.7154
  216MOL0     H29805   9.333   1.101   2.987  1.4246 -1.2383 -1.8267
  216MOL0     H29806   9.682   1.042   3.031 -0.0205 -1.1678  0.6137
  216MOL0     H29807   9.525   0.980   3.021  3.3411 -1.3947  0.4087
  216MOL0     H29808   9.619   0.998   2.870 -0.3473  1.1172 -1.2072
  217MOL0     O29809   0.080   1.442  10.233  0.1599  0.8217  0.1381
  217MOL0     C29810   0.015   1.339  10.242 -0.5850 -0.9200  0.1040
  217MOL0     O29811   0.064   1.222  10.284 -0.5467 -0.2334  0.1374
  217MOL0     C29812   0.204   1.219  10.305  0.6346 -0.0703 -0.3192
  217MOL0     C29813   0.295   1.244  10.201 -0.3362  0.0875  0.0347
  217MOL0     C29814   0.432   1.243  10.223  0.1451 -0.3415 -0.2581
  217MOL0     C29815   0.480   1.212  10.343  0.3965  0.3624 -0.0725
  217MOL0     O29816   0.617   1.216  10.376  0.1613 -0.6180  0.1476
  217MOL0     C29817   0.661   1.218  10.512 -0.6847 -0.2302 -0.3605
  217MOL0     C29818   0.811   1.215  10.504 -0.4106 -0.2704  0.2875
  217MOL0     C29819   0.877   1.087  10.453  1.3839  0.3654 -0.4229
  217MOL0     C29820   1.020   1.066  10.478 -0.1746  0.4510  0.6009
  217MOL0     C29821   1.043   0.915  10.429  0.1612  0.2041  0.0230
  217MOL0     C29822   1.192   0.868  10.453  0.3790  0.3272  0.0564
  217MOL0     C29823   1.198   0.738  10.371  0.2531  0.3545 -0.6265
  217MOL0     C29824   1.338   0.697  10.354 -0.2279 -0.4120 -0.1625
  217MOL0     N29825   1.386   0.632  10.474  0.1453 -0.5601 -0.4392
  217MOL0     C29826   1.459   0.695  10.576  0.2567  0.7183 -0.1071
  217MOL0     C29827   1.485   0.590  10.661  0.4959  0.0459 -0.0933
  217MOL0     C29828   1.540   0.593  10.796 -0.2209  0.0996  0.0042
  217MOL0     C29829   1.692   0.615  10.773  0.6691  0.0048 -0.4464
  217MOL0     C29830   1.770   0.654  10.896  1.2592  0.0731  0.3870
  217MOL0     C29831   1.908   0.706  10.879 -0.3394  0.3917  0.0391
  217MOL0     O29832   1.979   0.592  10.846 -0.2762  0.6113 -0.1315
  217MOL0     C29833   2.117   0.608  10.824 -0.3629  0.3710 -0.3395
  217MOL0     C29834   2.191   0.498  10.787 -0.0522  0.5876 -0.7188
  217MOL0     C29835   2.334   0.503  10.771  0.3341 -0.4695  0.2158
  217MOL0     C29836   2.396   0.375  10.731  0.2129 -0.6379 -0.1979
  217MOL0     C29837   2.409   0.614  10.805 -0.2052  0.0212 -0.3921
  217MOL0     C29838   2.554   0.624  10.804 -0.2211  0.5149 -0.1371
  217MOL0     O29839   2.637   0.517  10.779 -0.2707  0.0046  0.3440
  217MOL0     C29840   2.779   0.524  10.780  0.2176  0.8862 -0.1487
  217MOL0     C29841   2.860   0.432  10.850 -0.0184  0.3202 -0.9589
  217MOL0     C29842   2.999   0.447  10.869  0.0622  0.1875  1.1290
  217MOL0     C29843   3.061   0.542  10.782  0.8478  0.1494 -0.5924
  217MOL0     O29844   3.200   0.541  10.778  0.0411 -0.2910  0.5213
  217MOL0     C29845   3.261   0.584  10.656  0.2478 -0.0298  0.4989
  217MOL0     C29846   3.410   0.579  10.677 -0.2079 -0.7218 -0.2776
  217MOL0     C29847   3.470   0.629  10.548 -0.6564  0.4457  0.6925
  217MOL0     C29848   3.501   0.515  10.449 -0.2983  0.0936 -0.0631
  217MOL0     C29849   3.438   0.556  10.317 -0.1775 -0.0178  0.1578
  217MOL0     C29850   3.445   0.444  10.223  0.2379  0.4023 -0.0624
  217MOL0     C29851   3.417   0.479  10.080  0.2001 -0.3533 -1.0792
  217MOL0     C29852   3.470   0.381   9.976 -0.0048 -0.5678 -0.1113
  217MOL0    Cl29853   3.544   0.474   9.836 -0.0807  0.7173 -0.4725
  217MOL0     C29854   2.979   0.623  10.698  0.4455  0.4280 -0.2398
  217MOL0     C29855   2.840   0.616  10.700  0.7504 -0.2833 -0.2824
  217MOL0     O29856   2.591   0.735  10.829  0.1921  0.3335 -0.0616
  217MOL0     C29857   2.334   0.726  10.851  0.3606  0.7153 -0.1269
  217MOL0     C29858   2.195   0.724  10.862 -0.3018  0.2295  0.1865
  217MOL0     N29859   1.445   0.468  10.615  0.1532 -0.1867  0.5638
  217MOL0     N29860   1.375   0.498  10.509 -0.0549  0.8870 -0.0619
  217MOL0     C29861   0.394   1.179  10.450 -0.0914 -0.3581 -0.0791
  217MOL0     C29862   0.254   1.182  10.428  0.8114  0.2982  0.1491
  217MOL0     C29863  -0.126   1.333  10.202 -0.0831 -0.9520 -1.1351
  217MOL0     C29864  -0.170   1.412  10.092 -0.4964 -0.1899 -0.0862
  217MOL0     C29865  -0.300   1.403  10.042  0.2002 -0.0574  0.0892
  217MOL0     C29866  -0.392   1.315  10.108 -0.7940 -0.6420  0.5052
  217MOL0     O29867  -0.516   1.292  10.061 -0.0304 -0.2881 -0.2707
  217MOL0     C29868  -0.568   1.375   9.953 -0.1219  0.2544 -0.0881
  217MOL0     C29869  -0.702   1.332   9.891 -0.4610 -0.2007  0.7648
  217MOL0     C29870  -0.804   1.280   9.996 -0.3994  0.8582  0.1244
  217MOL0     C29871  -0.934   1.236   9.936 -0.2597  0.0806 -0.3732
  217MOL0     C29872  -0.976   1.331   9.821 -0.1300  0.8345 -0.0312
  217MOL0     C29873  -1.014   1.405   9.736  0.5121 -0.2121  0.3728
  217MOL0     C29874  -0.360   1.248  10.222  0.6361  0.1531  0.4884
  217MOL0     C29875  -0.228   1.257  10.270 -0.1861  0.4027  0.2620
  217MOL0     C29876  -0.198   1.176  10.396  0.0912 -0.7156 -0.4120
  217MOL0     H29877   0.247   1.270  10.107  1.6517  0.2011 -0.9944
  217MOL0     H29878   0.506   1.285  10.156  0.7459  0.3260  0.7995
  217MOL0     H29879   0.630   1.128  10.567  1.4509 -0.2408  0.9247
  217MOL0     H29880   0.626   1.306  10.566  0.5550 -0.7340  1.3588
  217MOL0     H29881   0.846   1.299  10.444 -2.2726  0.0254 -0.4450
  217MOL0     H29882   0.850   1.224  10.606  3.6883 -0.1385 -1.1274
  217MOL0     H29883   0.835   1.004  10.511 -2.6505  0.0400 -3.3368
  217MOL0     H29884   0.862   1.083  10.344 -1.0288  3.0509 -0.3132
  217MOL0     H29885   1.078   1.140  10.421  2.7228 -0.8304  1.6554
  217MOL0     H29886   1.065   1.077  10.577  3.0893  0.1067 -0.7169
  217MOL0     H29887   1.018   0.914  10.322  0.7030 -0.9636 -0.1139
  217MOL0     H29888   0.966   0.843  10.460  0.4597 -0.5098 -0.8594
  217MOL0     H29889   1.255   0.948  10.413 -0.6591  0.1881 -2.0313
  217MOL0     H29890   1.206   0.850  10.560 -1.3808 -2.3659 -0.0746
  217MOL0     H29891   1.159   0.754  10.270 -0.1439 -0.5579 -0.6254
  217MOL0     H29892   1.145   0.649  10.407 -1.6085  0.0188 -3.8189
  217MOL0     H29893   1.344   0.620  10.276 -0.3426 -0.4532 -0.1299
  217MOL0     H29894   1.399   0.785  10.332 -3.1608  1.3294 -2.0041
  217MOL0     H29895   1.489   0.799  10.584  1.9260  0.5039 -2.4941
  217MOL0     H29896   1.524   0.502  10.855 -1.8182  1.7318  2.2272
  217MOL0     H29897   1.491   0.672  10.854 -1.2686 -1.1403  0.8558
  217MOL0     H29898   1.738   0.529  10.722 -0.6223 -1.6706  1.0514
  217MOL0     H29899   1.702   0.696  10.701 -0.2940 -0.3937 -1.0529
  217MOL0     H29900   1.711   0.735  10.940  1.3868 -1.3888  3.5325
  217MOL0     H29901   1.775   0.570  10.965 -2.7209  1.2200  2.3871
  217MOL0     H29902   1.915   0.776  10.795  0.6613 -1.0749 -1.1553
  217MOL0     H29903   1.941   0.756  10.970 -2.0439 -0.7206  1.3308
  217MOL0     H29904   2.139   0.403  10.790  2.8778 -1.0986 -0.3159
  217MOL0     H29905   2.321   0.297  10.713 -0.3407 -0.1142 -0.1772
  217MOL0     H29906   2.462   0.343  10.811 -0.0257  4.0444  2.2142
  217MOL0     H29907   2.439   0.393  10.632  1.9698 -0.5530  0.5524
  217MOL0     H29908   2.813   0.369  10.924 -0.1094  0.5707 -0.8001
  217MOL0     H29909   3.051   0.383  10.939 -2.5037 -0.4016  2.6064
  217MOL0     H29910   3.231   0.531  10.565 -2.5854  0.2619  1.1671
  217MOL0     H29911   3.226   0.684  10.630 -1.2995 -0.9601 -1.1896
  217MOL0     H29912   3.437   0.645  10.759 -1.1827  0.0553 -0.5632
  217MOL0     H29913   3.449   0.482  10.708 -1.7955 -1.2889 -0.0218
  217MOL0     H29914   3.552   0.694  10.580 -1.2555  1.8099 -0.4019
  217MOL0     H29915   3.402   0.704  10.507  1.8613  2.3613 -0.2703
  217MOL0     H29916   3.463   0.417  10.480 -1.2724 -0.2480 -2.1051
  217MOL0     H29917   3.610   0.504  10.438 -0.2902  1.0573 -1.1855
  217MOL0     H29918   3.335   0.594  10.314  0.5738  2.1013 -1.4365
  217MOL0     H29919   3.498   0.639  10.278  0.3189 -0.6566 -0.4459
  217MOL0     H29920   3.372   0.368  10.251  0.4347 -0.3788 -1.5883
  217MOL0     H29921   3.550   0.415  10.222  0.6590  1.7866  1.0959
  217MOL0     H29922   3.462   0.576  10.058 -0.5420 -0.3623 -2.8585
  217MOL0     H29923   3.310   0.492  10.062  0.1705  1.7235  0.3112
  217MOL0     H29924   3.410   0.295   9.945  3.5404 -2.9653 -1.0255
  217MOL0     H29925   3.554   0.325  10.018 -0.4181 -4.1492 -3.4856
  217MOL0     H29926   3.019   0.702  10.635  0.8386 -0.6024 -1.3214
  217MOL0     H29927   2.783   0.677  10.631 -2.0142 -2.2845  0.0833
  217MOL0     H29928   2.380   0.821  10.876  1.4628  0.0276  0.5078
  217MOL0     H29929   2.142   0.814  10.892 -0.2331 -0.0792  1.2892
  217MOL0     H29930   0.427   1.158  10.551 -1.0807 -0.9734  0.1332
  217MOL0     H29931   0.185   1.140  10.501  1.1475 -1.3626 -0.4469
  217MOL0     H29932  -0.092   1.469  10.042  1.5300 -1.8023  1.0657
  217MOL0     H29933  -0.325   1.457   9.951  0.0762 -0.6970 -0.2610
  217MOL0     H29934  -0.571   1.476   9.995  0.9914  1.0782 -1.8431
  217MOL0     H29935  -0.495   1.374   9.871 -0.5124 -1.6091 -0.4697
  217MOL0     H29936  -0.677   1.257   9.815  0.8374  2.6200 -1.8246
  217MOL0     H29937  -0.732   1.422   9.837  0.0654  0.2147  1.1421
  217MOL0     H29938  -0.764   1.193  10.048  0.2103  2.3733  2.3365
  217MOL0     H29939  -0.836   1.352  10.072 -1.7963  0.9766 -0.5404
  217MOL0     H29940  -1.018   1.232  10.006  0.7700 -1.2480  0.8294
  217MOL0     H29941  -0.918   1.134   9.900  0.6363  0.0912 -0.0162
  217MOL0     H29942  -1.036   1.479   9.662  3.3777  0.0788 -0.3099
  217MOL0     H29943  -0.428   1.182  10.275  1.5141  0.5106  2.1572
  217MOL0     H29944  -0.126   1.233  10.456 -0.3635  0.7592 -1.2328
  217MOL0     H29945  -0.285   1.163  10.461  1.6322  0.5155  2.0804
  217MOL0     H29946  -0.155   1.077  10.378  0.6619 -0.7960  1.2282
  218MOL0     O29947   3.322   2.776   2.482 -0.0191  0.6259 -0.0592
  218MOL0     C29948   3.209   2.754   2.433 -0.5666 -0.4611 -0.4317
  218MOL0     O29949   3.185   2.754   2.300 -0.1276 -0.3780 -0.5992
  218MOL0     C29950   3.277   2.786   2.206  0.0200 -0.0553  0.0086
  218MOL0     C29951   3.413   2.752   2.212 -0.6806 -0.0849 -0.0272
  218MOL0     C29952   3.500   2.786   2.104  0.3579  0.0668  0.1736
  218MOL0     C29953   3.449   2.845   1.989  0.1826  0.6754 -0.2911
  218MOL0     O29954   3.531   2.872   1.885 -0.0709  0.4822 -0.0844
  218MOL0     C29955   3.487   2.953   1.781 -0.4784 -0.7046  0.8646
  218MOL0     C29956   3.590   2.927   1.664  0.3212  0.0062  0.3603
  218MOL0     C29957   3.737   2.968   1.708  0.6326 -0.1865  0.7538
  218MOL0     C29958   3.826   3.028   1.596 -0.0007  0.1003  0.4120
  218MOL0     C29959   3.970   3.049   1.650 -0.3795  0.2430  0.5909
  218MOL0     C29960   4.036   3.163   1.562  0.3374  0.6578 -0.8711
  218MOL0     C29961   4.176   3.164   1.595  0.3474  0.0619  0.8531
  218MOL0     C29962   4.231   3.257   1.491  0.0898  0.4358 -0.1505
  218MOL0     N29963   4.373   3.239   1.503  0.2353  0.1832 -0.3054
  218MOL0     C29964   4.456   3.125   1.475 -0.2960 -0.2056  0.9665
  218MOL0     C29965   4.586   3.161   1.473 -0.2417 -0.1766  0.1015
  218MOL0     C29966   4.704   3.070   1.447 -0.4680  0.3392 -0.7688
  218MOL0     C29967   4.787   3.105   1.318  0.0012 -0.4042  0.1504
  218MOL0     C29968   4.702   3.097   1.185  0.3041 -0.4961 -0.7924
  218MOL0     C29969   4.766   3.141   1.052  0.0040 -0.5238  0.0860
  218MOL0     O29970   4.905   3.100   1.045 -0.2179 -0.2592  0.7014
  218MOL0     C29971   4.951   3.023   0.939  0.6429 -0.9422  0.6514
  218MOL0     C29972   4.874   2.988   0.822  0.6297 -0.2774 -0.2625
  218MOL0     C29973   4.938   2.936   0.712 -0.4261 -0.3122  0.6238
  218MOL0     C29974   4.858   2.899   0.588 -0.9530 -0.1003  0.1666
  218MOL0     C29975   5.083   2.920   0.717  0.1215  0.2775 -0.1700
  218MOL0     C29976   5.167   2.867   0.602 -0.5702 -0.1396  0.2224
  218MOL0     O29977   5.295   2.806   0.640 -0.5418  0.2895 -0.3992
  218MOL0     C29978   5.389   2.741   0.566 -0.0880  0.3563 -0.7904
  218MOL0     C29979   5.393   2.720   0.427 -1.1196  0.3346  0.1045
  218MOL0     C29980   5.508   2.655   0.368 -0.6041 -0.3372 -0.1157
  218MOL0     C29981   5.605   2.597   0.447  0.1211 -0.7841 -0.7807
  218MOL0     O29982   5.712   2.553   0.384 -0.4854  0.6276 -0.1047
  218MOL0     C29983   5.846   2.591   0.431  0.2220  0.2987 -0.3779
  218MOL0     C29984   5.915   2.467   0.491 -0.5331 -0.1502 -0.1853
  218MOL0     C29985   6.067   2.468   0.487  0.3465  0.0001 -0.5941
  218MOL0     C29986   6.130   2.591   0.558 -0.3395  0.4800  0.3420
  218MOL0     C29987   6.283   2.575   0.560 -0.4197 -0.0715 -0.0389
  218MOL0     C29988   6.353   2.695   0.617 -0.2352  0.3883  0.1416
  218MOL0     C29989   6.338   2.822   0.536 -0.4781 -0.5082 -0.5326
  218MOL0     C29990   6.417   2.934   0.604  0.4677  0.0824  0.4651
  218MOL0    Cl29991   6.579   2.897   0.678 -0.2658 -0.3659 -0.1401
  218MOL0     C29992   5.593   2.606   0.586 -0.5963 -0.0886 -0.6060
  218MOL0     C29993   5.490   2.685   0.652  0.7492 -0.6831 -0.6225
  218MOL0     O29994   5.128   2.880   0.486  0.6254 -0.1864 -0.5110
  218MOL0     C29995   5.151   2.954   0.837  0.9054 -0.4866 -0.0816
  218MOL0     C29996   5.090   3.003   0.948 -0.1024  0.4460  0.1852
  218MOL0     N29997   4.582   3.295   1.518 -0.1753  0.1746  1.0112
  218MOL0     N29998   4.464   3.338   1.528 -0.5116  0.2300  0.0866
  218MOL0     C29999   3.307   2.879   1.989 -0.2440 -0.4560  0.1867
  218MOL0     C30000   3.227   2.835   2.089 -0.1823 -0.6238  0.5524
  218MOL0     C30001   3.095   2.714   2.522 -0.6643 -0.3473 -0.3799
  218MOL0     C30002   3.118   2.639   2.628  0.5259 -0.4133 -0.5457
  218MOL0     C30003   3.017   2.592   2.710  0.4201 -0.6774 -0.2885
  218MOL0     C30004   2.884   2.644   2.703  0.1424  0.2493  0.0041
  218MOL0     O30005   2.787   2.601   2.793  0.2084  0.4936 -0.3460
  218MOL0     C30006   2.799   2.493   2.877  0.5082  0.9930 -0.1834
  218MOL0     C30007   2.677   2.466   2.954 -0.7280 -0.3139 -0.2864
  218MOL0     C30008   2.550   2.441   2.865 -0.5052 -1.2142  0.1223
  218MOL0     C30009   2.407   2.436   2.923  0.1810 -0.0018  0.2097
  218MOL0     C30010   2.410   2.365   3.057 -0.2486  1.2857  0.3824
  218MOL0     C30011   2.421   2.285   3.145 -0.6633  0.1847  0.1100
  218MOL0     C30012   2.862   2.733   2.603  0.8555  0.1313  0.1330
  218MOL0     C30013   2.965   2.764   2.505  0.5522 -0.6675 -0.1025
  218MOL0     C30014   2.934   2.866   2.408 -0.4609 -0.4424 -0.1555
  218MOL0     H30015   3.450   2.705   2.303 -1.7081 -0.5866  0.1524
  218MOL0     H30016   3.607   2.767   2.101  0.5301  0.8167  1.0879
  218MOL0     H30017   3.492   3.059   1.809  0.9529 -0.6378  0.4731
  218MOL0     H30018   3.387   2.926   1.747  0.5165 -2.9423 -0.4301
  218MOL0     H30019   3.590   2.822   1.634  1.7577  0.2028 -0.4232
  218MOL0     H30020   3.563   2.986   1.575  0.5347 -0.3530  0.0562
  218MOL0     H30021   3.735   3.031   1.797  1.0555 -0.3988  0.9184
  218MOL0     H30022   3.782   2.873   1.738 -2.9232 -1.2883  3.1858
  218MOL0     H30023   3.824   2.966   1.506 -0.6079  2.5243 -1.3469
  218MOL0     H30024   3.787   3.129   1.578 -1.9200 -0.4867  1.0101
  218MOL0     H30025   4.030   2.959   1.635  1.4723  1.1986  1.7412
  218MOL0     H30026   3.972   3.058   1.759  1.1686 -1.1166  0.7209
  218MOL0     H30027   4.014   3.146   1.456 -2.7008 -1.5596 -0.0504
  218MOL0     H30028   3.998   3.264   1.578  1.4360  1.0587 -0.7448
  218MOL0     H30029   4.222   3.065   1.600 -3.2289 -1.9362 -1.2600
  218MOL0     H30030   4.194   3.208   1.693  0.9092 -0.8159  1.1591
  218MOL0     H30031   4.210   3.222   1.390 -0.2872  2.2249 -0.7264
  218MOL0     H30032   4.197   3.360   1.499  3.2342  1.5381  0.3438
  218MOL0     H30033   4.423   3.025   1.447  0.6004 -0.5564  1.1014
  218MOL0     H30034   4.674   2.965   1.444  0.1546  0.0123  1.8803
  218MOL0     H30035   4.768   3.079   1.536 -0.8014 -0.8419 -0.3829
  218MOL0     H30036   4.824   3.208   1.331  1.8809 -1.2908  2.5462
  218MOL0     H30037   4.874   3.040   1.306 -0.8469 -1.7753  1.1347
  218MOL0     H30038   4.670   2.993   1.177 -1.4445  0.0841 -1.8737
  218MOL0     H30039   4.610   3.153   1.199 -0.0644 -0.5195 -2.8432
  218MOL0     H30040   4.710   3.119   0.960 -1.5870  2.2546  0.2859
  218MOL0     H30041   4.766   3.250   1.058  1.1250 -0.6104  2.6264
  218MOL0     H30042   4.766   2.998   0.813  0.3856 -2.0219  0.2871
  218MOL0     H30043   4.752   2.917   0.610 -0.7364 -1.8468  3.0592
  218MOL0     H30044   4.877   2.793   0.567 -0.6606 -0.2475  1.1308
  218MOL0     H30045   4.877   2.957   0.497  3.5085 -1.3159  0.1059
  218MOL0     H30046   5.317   2.763   0.363 -1.1146 -1.8637 -1.5073
  218MOL0     H30047   5.518   2.648   0.261  1.6049  1.0884 -0.0588
  218MOL0     H30048   5.888   2.642   0.344 -2.6762  0.9951 -1.5048
  218MOL0     H30049   5.846   2.676   0.499 -0.4698 -1.9774  2.7203
  218MOL0     H30050   5.890   2.440   0.594  0.4950 -2.4849 -0.4784
  218MOL0     H30051   5.885   2.376   0.438  0.4626 -1.1992  0.9948
  218MOL0     H30052   6.090   2.474   0.380 -0.7792  2.0807 -0.7631
  218MOL0     H30053   6.097   2.373   0.531 -0.4846 -1.2458 -2.5700
  218MOL0     H30054   6.094   2.592   0.662  1.5534  0.0411  1.0363
  218MOL0     H30055   6.110   2.684   0.504  1.1953  0.2181 -0.7264
  218MOL0     H30056   6.298   2.493   0.630 -2.2794 -1.3306 -1.0459
  218MOL0     H30057   6.330   2.558   0.462  0.8063  2.4366  0.0320
  218MOL0     H30058   6.455   2.665   0.641 -0.6861 -0.8465  0.6201
  218MOL0     H30059   6.297   2.700   0.711 -0.2290  0.0208  0.1661
  218MOL0     H30060   6.234   2.856   0.535  0.0959  1.5510  1.4221
  218MOL0     H30061   6.377   2.806   0.435 -0.5699  0.2613 -0.6950
  218MOL0     H30062   6.350   2.972   0.681 -0.3470 -1.2555  0.4340
  218MOL0     H30063   6.436   3.013   0.530  2.1059 -0.8953 -0.2245
  218MOL0     H30064   5.666   2.566   0.655 -1.5254  0.0342  0.4696
  218MOL0     H30065   5.478   2.694   0.760 -3.0278  3.0889 -1.1098
  218MOL0     H30066   5.259   2.952   0.838  0.9301 -0.0638 -0.9959
  218MOL0     H30067   5.147   3.029   1.036  1.9237 -1.1459 -0.5769
  218MOL0     H30068   3.248   2.920   1.908 -0.4499 -1.3699 -0.1417
  218MOL0     H30069   3.119   2.829   2.078 -0.3066  0.0161  1.3714
  218MOL0     H30070   3.214   2.595   2.653 -0.6314 -2.3599  0.7219
  218MOL0     H30071   3.044   2.530   2.795  0.0996  0.0589  0.3553
  218MOL0     H30072   2.830   2.404   2.820  3.3570  0.5475  1.8538
  218MOL0     H30073   2.893   2.508   2.932 -0.6687  1.1108  1.8772
  218MOL0     H30074   2.654   2.559   3.006  0.2486  0.8923 -1.9071
  218MOL0     H30075   2.693   2.379   3.019 -0.2719  1.1351  1.6240
  218MOL0     H30076   2.544   2.528   2.799  0.1535 -0.6249  0.8198
  218MOL0     H30077   2.564   2.347   2.810  1.9222 -1.4495  1.0101
  218MOL0     H30078   2.337   2.394   2.850  3.4007 -1.8257 -2.0829
  218MOL0     H30079   2.370   2.535   2.951  2.9523  0.1797  4.0035
  218MOL0     H30080   2.464   2.219   3.218 -0.6111  1.0675  0.9104
  218MOL0     H30081   2.767   2.784   2.590  0.0579 -0.7964  2.0204
  218MOL0     H30082   2.920   2.826   2.307 -0.9823  1.9880 -1.1166
  218MOL0     H30083   2.845   2.922   2.439  0.0456 -1.1008  2.7252
  218MOL0     H30084   3.011   2.942   2.388 -2.7749  1.6503 -1.7795
  219MOL0     O30085   6.412   9.492  10.289 -0.4967  0.4466 -0.5657
  219MOL0     C30086   6.429   9.402  10.209 -0.0368 -0.0712 -0.1530
  219MOL0     O30087   6.549   9.381  10.146  0.1713  0.1530  0.2160
  219MOL0     C30088   6.650   9.454  10.193  0.3105  0.6121  0.2422
  219MOL0     C30089   6.704   9.561  10.121  0.0107 -0.1112 -0.2355
  219MOL0     C30090   6.816   9.638  10.169  0.8380  1.1671  0.3911
  219MOL0     C30091   6.867   9.593  10.293  0.3850 -1.1072  0.0478
  219MOL0     O30092   6.974   9.658  10.353  0.0836  0.6944  0.3350
  219MOL0     C30093   6.998   9.790  10.332 -0.3995 -1.3941  0.1806
  219MOL0     C30094   7.102   9.813  10.222  0.4587 -0.4268  0.3832
  219MOL0     C30095   7.234   9.731  10.242 -0.1723 -0.4099  0.2007
  219MOL0     C30096   7.338   9.760  10.140 -0.3009 -0.6689 -0.2954
  219MOL0     C30097   7.303   9.717  10.000  0.4795 -0.0715  0.4374
  219MOL0     C30098   7.436   9.714   9.924 -0.0957 -0.6153 -0.3241
  219MOL0     C30099   7.417   9.710   9.772 -0.5290  1.0039 -0.3538
  219MOL0     C30100   7.517   9.629   9.695 -0.6191 -0.3083 -0.2375
  219MOL0     N30101   7.650   9.689   9.709  0.0489  0.5513 -0.3512
  219MOL0     C30102   7.759   9.648   9.782  1.3139 -0.7335  0.5723
  219MOL0     C30103   7.850   9.755   9.771  0.1043  0.6323  0.4753
  219MOL0     C30104   7.992   9.755   9.825 -0.3624 -0.7708  1.0957
  219MOL0     C30105   8.101   9.682   9.741  0.1698  0.2036 -0.2870
  219MOL0     C30106   8.095   9.732   9.591 -0.8706 -0.7850  0.4100
  219MOL0     C30107   8.166   9.859   9.549 -0.3500  0.1170 -0.1903
  219MOL0     O30108   8.302   9.839   9.581 -0.9021  0.3448  0.2901
  219MOL0     C30109   8.389   9.926   9.526 -0.2872  0.2986  0.3001
  219MOL0     C30110   8.395  10.065   9.562  0.3626  0.0543  0.3289
  219MOL0     C30111   8.484  10.143   9.493 -0.1560  0.1748  0.3130
  219MOL0     C30112   8.475  10.289   9.539  0.1907  0.4935 -0.3407
  219MOL0     C30113   8.573  10.085   9.391  0.0123 -0.0649  0.3205
  219MOL0     C30114   8.686  10.166   9.327  0.4344  0.3748  0.3354
  219MOL0     O30115   8.769  10.100   9.234 -0.1702  0.3068  0.2228
  219MOL0     C30116   8.886  10.165   9.204  1.1876  0.3087  0.1588
  219MOL0     C30117   8.897  10.256   9.096 -0.1426 -0.1139 -0.9060
  219MOL0     C30118   9.018  10.329   9.092 -0.7909 -0.3223 -0.0108
  219MOL0     C30119   9.118  10.307   9.185  0.0569  0.5809 -0.0566
  219MOL0     O30120   9.233  10.385   9.194 -0.3689  0.1725  0.2015
  219MOL0     C30121   9.302  10.418   9.073 -0.0931  0.2626 -0.1120
  219MOL0     C30122   9.441  10.486   9.110  1.1810 -0.2696 -1.3291
  219MOL0     C30123   9.527  10.386   9.175  0.4314 -0.1544 -0.1207
  219MOL0     C30124   9.666  10.446   9.210  0.4002 -0.3231  0.4507
  219MOL0     C30125   9.761  10.325   9.240 -0.7462 -0.0477  0.0916
  219MOL0     C30126   9.913  10.367   9.247 -0.0662  0.3875 -0.1834
  219MOL0     C30127   9.979  10.247   9.295 -0.6510  1.1827  0.8722
  219MOL0     C30128  10.135  10.272   9.298  0.4697 -0.7380 -0.1853
  219MOL0    Cl30129  10.176  10.409   9.408 -0.2012  0.1894 -0.3407
  219MOL0     C30130   9.111  10.213   9.277 -0.0803 -1.1112 -0.3167
  219MOL0     C30131   8.998  10.139   9.286  0.6628  0.9480  0.1522
  219MOL0     O30132   8.707  10.275   9.373  0.1134 -0.3445 -0.3893
  219MOL0     C30133   8.568   9.950   9.360  0.1706 -0.0471 -0.3069
  219MOL0     C30134   8.476   9.871   9.428  0.0097 -0.1479  0.4984
  219MOL0     N30135   7.792   9.848   9.679  0.8805  0.2287 -0.4494
  219MOL0     N30136   7.681   9.798   9.634  1.1224 -0.5895 -0.4963
  219MOL0     C30137   6.817   9.487  10.367 -0.5200  0.3041 -0.6551
  219MOL0     C30138   6.714   9.413  10.310  0.5000 -0.2155  0.3023
  219MOL0     C30139   6.317   9.314  10.189  0.2302  0.6728  0.1233
  219MOL0     C30140   6.336   9.210  10.099  1.1433 -0.2723  0.3948
  219MOL0     C30141   6.230   9.130  10.057  1.0204  0.7419  0.3095
  219MOL0     C30142   6.100   9.150  10.111  0.4527  0.0420  0.8168
  219MOL0     O30143   5.982   9.089  10.067 -0.0133  0.0148 -0.4943
  219MOL0     C30144   5.990   8.963  10.010  0.7831  0.4136 -0.1125
  219MOL0     C30145   5.849   8.906  10.005 -0.2484 -0.9890 -0.1898
  219MOL0     C30146   5.864   8.757   9.966 -0.5288 -0.0566 -0.1182
  219MOL0     C30147   5.747   8.645   9.990 -0.6619 -0.9163  0.1616
  219MOL0     C30148   5.642   8.631   9.890  0.9132 -0.0179  0.1920
  219MOL0     C30149   5.566   8.610   9.798  0.3641 -0.1949 -0.1114
  219MOL0     C30150   6.082   9.256  10.200 -0.4493  1.2527  0.9486
  219MOL0     C30151   6.185   9.331  10.237  0.6477 -0.1976 -1.1878
  219MOL0     C30152   6.149   9.432  10.348  0.4196  0.2164 -0.5835
  219MOL0     H30153   6.661   9.598  10.028  0.4310  4.0737  1.0659
  219MOL0     H30154   6.843   9.735  10.127 -1.0254  0.5852 -2.3839
  219MOL0     H30155   7.032   9.820  10.431  1.3087 -1.5893 -0.3167
  219MOL0     H30156   6.915   9.858  10.310  0.7208 -0.6563 -2.0065
  219MOL0     H30157   7.053   9.804  10.125 -2.2326 -2.4113  1.7967
  219MOL0     H30158   7.140   9.914  10.243 -0.4075 -0.0412  0.1593
  219MOL0     H30159   7.276   9.760  10.338 -0.6564  3.6015 -0.5984
  219MOL0     H30160   7.198   9.628  10.245 -0.4787 -0.2950  0.5602
  219MOL0     H30161   7.361   9.866  10.128 -1.6348 -0.2206  0.8647
  219MOL0     H30162   7.424   9.704  10.177 -0.4391  0.6214  2.1865
  219MOL0     H30163   7.233   9.786   9.953  0.8332 -0.9321 -1.4742
  219MOL0     H30164   7.257   9.618  10.000  0.8507 -0.2908 -1.6250
  219MOL0     H30165   7.503   9.799   9.943  1.9508 -2.3351  0.4597
  219MOL0     H30166   7.485   9.618   9.943 -2.0624 -2.5724 -4.0234
  219MOL0     H30167   7.425   9.808   9.723  0.7584  0.0031 -2.2809
  219MOL0     H30168   7.316   9.672   9.751  0.4302 -0.5860 -2.3691
  219MOL0     H30169   7.521   9.527   9.735  0.6433 -0.3830 -0.4957
  219MOL0     H30170   7.491   9.623   9.589 -1.4680  1.7253 -0.1851
  219MOL0     H30171   7.774   9.562   9.845 -0.4385 -1.2427  0.3342
  219MOL0     H30172   7.993   9.716   9.927 -0.5880  1.2292  1.9120
  219MOL0     H30173   8.030   9.856   9.838  1.6960 -1.3053 -0.3571
  219MOL0     H30174   8.194   9.701   9.795 -0.5637  2.6319  0.2513
  219MOL0     H30175   8.078   9.576   9.730  1.6407  0.0629 -2.5266
  219MOL0     H30176   8.145   9.662   9.524 -0.5381  1.1518 -1.4915
  219MOL0     H30177   7.991   9.740   9.559 -0.6333  0.6383 -0.0890
  219MOL0     H30178   8.166   9.872   9.440  0.3508 -1.4541 -0.4055
  219MOL0     H30179   8.131   9.948   9.602 -0.6326  1.5269 -2.5973
  219MOL0     H30180   8.337  10.109   9.642  0.1535  3.9048 -1.7142
  219MOL0     H30181   8.482  10.354   9.451 -0.8415  0.9048 -0.1227
  219MOL0     H30182   8.554  10.310   9.612 -0.9840  0.1294  1.0483
  219MOL0     H30183   8.380  10.310   9.588  0.1916  1.2836 -0.6444
  219MOL0     H30184   8.811  10.278   9.034  0.7149  0.3836 -1.9492
  219MOL0     H30185   9.028  10.412   9.022 -0.1740  0.9273  1.4967
  219MOL0     H30186   9.314  10.331   9.008 -1.0673  1.2685 -1.7212
  219MOL0     H30187   9.239  10.483   9.011 -0.2461 -0.2327 -0.4820
  219MOL0     H30188   9.489  10.523   9.019 -2.3235 -0.8385 -3.6268
  219MOL0     H30189   9.416  10.571   9.174 -0.5002 -0.3985 -1.7465
  219MOL0     H30190   9.546  10.297   9.113  1.1354  1.1785 -1.9017
  219MOL0     H30191   9.475  10.361   9.268  1.8119  1.8663  1.2940
  219MOL0     H30192   9.647  10.509   9.297  0.0628 -1.4757  1.2416
  219MOL0     H30193   9.713  10.503   9.129  1.3197 -0.3956  0.9160
  219MOL0     H30194   9.721  10.279   9.332 -2.3591  1.7956  0.3835
  219MOL0     H30195   9.763  10.249   9.162  1.0303 -0.2545  0.3137
  219MOL0     H30196   9.924  10.448   9.320 -1.2295  0.3552  0.0471
  219MOL0     H30197   9.945  10.407   9.150  1.3364  1.9438  0.8693
  219MOL0     H30198   9.959  10.160   9.232  0.7621  0.1508  1.7801
  219MOL0     H30199   9.953  10.214   9.396 -1.5254 -1.3642 -0.1130
  219MOL0     H30200  10.172  10.294   9.197 -2.0234 -1.4422 -1.3319
  219MOL0     H30201  10.181  10.183   9.343 -1.4565 -0.7626  1.8912
  219MOL0     H30202   9.197  10.196   9.341  2.0382  3.9752 -1.3068
  219MOL0     H30203   8.991  10.058   9.358 -4.0705 -0.7793 -1.7990
  219MOL0     H30204   8.632   9.897   9.290  1.8483 -0.2204  1.2859
  219MOL0     H30205   8.467   9.764   9.414 -2.2291 -0.1560  1.5857
  219MOL0     H30206   6.875   9.457  10.453  0.6705  2.2231 -0.7175
  219MOL0     H30207   6.677   9.330  10.369  0.2063 -0.7656 -0.6297
  219MOL0     H30208   6.437   9.193  10.064  1.7000 -1.8922  2.5470
  219MOL0     H30209   6.240   9.053   9.981 -0.4754 -2.0256  2.7275
  219MOL0     H30210   6.044   8.964   9.915 -0.0584 -0.3551 -0.6095
  219MOL0     H30211   6.054   8.898  10.070  0.0500 -2.9319 -2.6509
  219MOL0     H30212   5.795   8.969   9.934 -0.7456  1.3112  2.0557
  219MOL0     H30213   5.796   8.913  10.101  0.9086  0.6512  0.3821
  219MOL0     H30214   5.904   8.747   9.865  2.7345 -0.8860  1.1043
  219MOL0     H30215   5.949   8.721  10.026  0.0851  0.6503 -0.5515
  219MOL0     H30216   5.707   8.672  10.088 -0.2095 -0.7593  0.3033
  219MOL0     H30217   5.801   8.550   9.984 -0.8031 -1.0226  0.5416
  219MOL0     H30218   5.494   8.589   9.721 -0.1542  1.4156 -0.1103
  219MOL0     H30219   5.981   9.279  10.231 -1.3890  0.4623 -1.3026
  219MOL0     H30220   6.047   9.421  10.387  0.5737  3.6193  1.2166
  219MOL0     H30221   6.212   9.436  10.438  1.5782 -1.3979 -1.2879
  219MOL0     H30222   6.157   9.533  10.306  0.2063  0.2152 -0.6284
  220MOL0     O30223   1.933   5.357   0.888 -0.3664 -0.5277 -0.2137
  220MOL0     C30224   1.941   5.468   0.929 -0.2254 -0.1859  0.1019
  220MOL0     O30225   2.044   5.528   0.994  0.5922 -0.2262 -0.3516
  220MOL0     C30226   2.154   5.456   1.017  0.1272 -0.3816  0.4720
  220MOL0     C30227   2.228   5.398   0.912  0.4231 -0.7002 -0.3672
  220MOL0     C30228   2.350   5.334   0.937 -0.7081 -0.8037  0.5511
  220MOL0     C30229   2.403   5.320   1.069 -0.7135  0.2510  0.3736
  220MOL0     O30230   2.519   5.254   1.102 -0.8429 -0.0890 -0.0018
  220MOL0     C30231   2.624   5.243   1.001  0.0343  0.0089  0.5216
  220MOL0     C30232   2.752   5.191   1.069  0.7171 -0.0799 -0.4829
  220MOL0     C30233   2.792   5.292   1.178  0.0939  0.2539 -0.3906
  220MOL0     C30234   2.925   5.251   1.231  0.0214 -0.4462 -0.3116
  220MOL0     C30235   2.980   5.350   1.343  0.3104 -0.0134  0.7764
  220MOL0     C30236   3.115   5.306   1.393 -0.1823 -0.5303  0.3094
  220MOL0     C30237   3.200   5.428   1.436  0.2746 -0.2679 -0.5752
  220MOL0     C30238   3.331   5.362   1.459  0.3333 -0.1237  0.2526
  220MOL0     N30239   3.435   5.465   1.490  0.1639 -0.2670 -0.0094
  220MOL0     C30240   3.484   5.566   1.396 -0.5578  0.8215  0.6112
  220MOL0     C30241   3.589   5.627   1.451  0.1357  0.9005  0.8779
  220MOL0     C30242   3.678   5.729   1.384 -1.0071 -0.0546 -0.0208
  220MOL0     C30243   3.813   5.706   1.441  0.1951  0.3721  0.2809
  220MOL0     C30244   3.912   5.804   1.383  0.2884  0.7878 -0.1188
  220MOL0     C30245   3.962   5.749   1.258 -0.4245 -0.3012 -0.1927
  220MOL0     O30246   4.045   5.631   1.273  0.7485  0.3596  0.6009
  220MOL0     C30247   4.167   5.647   1.330 -1.3675  0.3042  0.2956
  220MOL0     C30248   4.217   5.529   1.385  0.0730  0.6406 -0.9023
  220MOL0     C30249   4.336   5.522   1.468 -0.5162  0.3161  0.7974
  220MOL0     C30250   4.383   5.391   1.519 -0.8268  0.7640 -0.3988
  220MOL0     C30251   4.403   5.639   1.497 -1.0600  0.2635 -0.0820
  220MOL0     C30252   4.525   5.644   1.580 -0.3799 -0.4921  0.8647
  220MOL0     O30253   4.520   5.642   1.712 -0.2674  0.5479  0.7048
  220MOL0     C30254   4.637   5.627   1.775 -0.2090 -0.2200 -0.5103
  220MOL0     C30255   4.674   5.503   1.831  0.4894  0.3693 -0.1878
  220MOL0     C30256   4.787   5.498   1.908 -0.2611 -0.0448 -0.2579
  220MOL0     C30257   4.868   5.605   1.925 -0.3823  0.3180  0.8285
  220MOL0     O30258   4.982   5.594   2.000 -0.2964  0.2985  0.1120
  220MOL0     C30259   5.098   5.651   1.961 -0.3591 -0.3835  0.3258
  220MOL0     C30260   5.204   5.653   2.073  0.4051  0.6403 -1.1954
  220MOL0     C30261   5.333   5.706   2.011 -0.3301  0.4128  0.2585
  220MOL0     C30262   5.419   5.777   2.119 -0.1176  0.4003  0.2123
  220MOL0     C30263   5.539   5.867   2.082  0.9099  0.4394 -0.3370
  220MOL0     C30264   5.493   6.001   2.032 -0.2076 -0.2991  0.2509
  220MOL0     C30265   5.616   6.076   1.976  0.5035 -0.4992  0.1917
  220MOL0     C30266   5.573   6.218   1.938 -0.0747 -0.1992 -0.3027
  220MOL0    Cl30267   5.453   6.225   1.808 -0.0856  0.0990  0.1759
  220MOL0     C30268   4.836   5.733   1.865 -0.5550 -0.4984 -0.1357
  220MOL0     C30269   4.714   5.741   1.803 -0.9840 -0.8894 -0.1809
  220MOL0     O30270   4.627   5.648   1.512  0.7873 -0.1662 -0.1454
  220MOL0     C30271   4.359   5.759   1.428  0.0726  0.0179  0.5255
  220MOL0     C30272   4.247   5.762   1.343  0.2643  0.8696 -0.6554
  220MOL0     N30273   3.601   5.573   1.578 -0.1701  0.4387  0.5780
  220MOL0     N30274   3.517   5.477   1.596  0.1737 -0.0596 -0.0167
  220MOL0     C30275   2.327   5.376   1.170 -0.3186 -1.2268 -0.5811
  220MOL0     C30276   2.214   5.445   1.149 -0.2174 -0.6747  0.3391
  220MOL0     C30277   1.817   5.538   0.940 -0.0179  0.2796 -0.0918
  220MOL0     C30278   1.755   5.577   0.819 -0.1832  0.8895  0.0135
  220MOL0     C30279   1.632   5.639   0.813  0.1667 -0.9599  0.5646
  220MOL0     C30280   1.563   5.663   0.932  0.8190 -0.0837  0.0611
  220MOL0     O30281   1.446   5.727   0.941  0.3760  0.7065 -0.0541
  220MOL0     C30282   1.376   5.766   0.832  0.0574 -0.4092 -0.0704
  220MOL0     C30283   1.229   5.802   0.873 -0.0039 -0.1970  0.0072
  220MOL0     C30284   1.164   5.894   0.757  0.1936 -0.9129  0.4805
  220MOL0     C30285   1.014   5.905   0.775  0.1967 -0.1857  0.0954
  220MOL0     C30286   0.940   5.781   0.788 -0.4420 -0.5513 -0.4350
  220MOL0     C30287   0.886   5.673   0.804  0.0645  0.0989  0.3062
  220MOL0     C30288   1.617   5.625   1.052 -0.4474 -0.3426  0.5936
  220MOL0     C30289   1.744   5.559   1.055 -0.9428  0.4381  0.0650
  220MOL0     C30290   1.798   5.502   1.179 -0.0881 -0.5175 -0.8132
  220MOL0     H30291   2.192   5.408   0.810  0.5936  3.8853 -0.1749
  220MOL0     H30292   2.401   5.294   0.850  0.5511 -3.2369  2.2644
  220MOL0     H30293   2.642   5.338   0.951  0.0409 -0.5188 -0.4990
  220MOL0     H30294   2.589   5.168   0.930  0.3430 -0.1124  0.4954
  220MOL0     H30295   2.732   5.098   1.122  0.7807  0.4918  0.5700
  220MOL0     H30296   2.831   5.187   0.993 -0.1468 -1.1284 -1.3674
  220MOL0     H30297   2.803   5.392   1.136 -0.3599 -0.5223 -2.5159
  220MOL0     H30298   2.721   5.295   1.262  0.9832  1.0639  0.3421
  220MOL0     H30299   2.920   5.151   1.276 -1.6207 -0.5875 -0.7615
  220MOL0     H30300   3.000   5.252   1.151 -1.7589  2.4490 -2.1133
  220MOL0     H30301   2.920   5.362   1.434  0.2221  1.5335  0.5352
  220MOL0     H30302   2.986   5.447   1.292 -4.0408  0.6013  1.0208
  220MOL0     H30303   3.098   5.230   1.469 -0.2225 -0.2485  0.5832
  220MOL0     H30304   3.163   5.269   1.301  0.0510 -1.5901  0.8456
  220MOL0     H30305   3.168   5.455   1.537 -2.1040  0.0668 -1.3515
  220MOL0     H30306   3.194   5.519   1.375 -1.4574  0.6454  0.8496
  220MOL0     H30307   3.328   5.277   1.528  0.0625 -2.8679 -2.9443
  220MOL0     H30308   3.362   5.323   1.362 -2.4948 -1.1888 -0.3247
  220MOL0     H30309   3.440   5.594   1.301 -0.1412 -0.9786 -0.1375
  220MOL0     H30310   3.644   5.831   1.400  2.6069  1.2321  0.2609
  220MOL0     H30311   3.684   5.712   1.276  1.4014  1.0610 -0.1252
  220MOL0     H30312   3.793   5.731   1.545 -3.7352  1.3147 -0.5473
  220MOL0     H30313   3.845   5.602   1.434 -2.0559 -0.3222 -0.3481
  220MOL0     H30314   3.860   5.898   1.364  2.0160  1.8728  0.2610
  220MOL0     H30315   3.997   5.818   1.450  1.0280  0.1611 -0.8827
  220MOL0     H30316   3.888   5.727   1.181 -0.3016  0.6827 -0.6170
  220MOL0     H30317   4.016   5.839   1.225 -1.4071  0.9741  1.5278
  220MOL0     H30318   4.156   5.439   1.375  3.5758 -2.2714  1.3754
  220MOL0     H30319   4.360   5.377   1.625  3.3253  0.4857  0.6514
  220MOL0     H30320   4.490   5.375   1.500 -1.2948 -0.4431 -2.3077
  220MOL0     H30321   4.327   5.309   1.472  3.4521 -2.4130 -0.5821
  220MOL0     H30322   4.622   5.415   1.794 -0.9550  1.1130  0.0034
  220MOL0     H30323   4.823   5.408   1.956  0.4126  0.9891  1.2527
  220MOL0     H30324   5.131   5.592   1.876  2.3521 -0.2453  1.1929
  220MOL0     H30325   5.084   5.748   1.912  2.6427 -0.2999 -0.5777
  220MOL0     H30326   5.175   5.714   2.159 -2.7377 -2.0928 -0.1161
  220MOL0     H30327   5.217   5.555   2.119  1.5792  0.9244 -0.8867
  220MOL0     H30328   5.308   5.790   1.946 -1.5056  2.1287  2.7854
  220MOL0     H30329   5.390   5.643   1.942 -0.3465 -0.2766  0.8627
  220MOL0     H30330   5.468   5.693   2.169  0.9645  0.0054 -1.4483
  220MOL0     H30331   5.353   5.832   2.187 -1.7010  0.8364 -1.6114
  220MOL0     H30332   5.602   5.877   2.172 -0.9848  1.7995  0.9154
  220MOL0     H30333   5.601   5.818   2.007  0.6256 -0.6398  0.1090
  220MOL0     H30334   5.454   6.058   2.116 -1.4297  1.1108 -1.2027
  220MOL0     H30335   5.411   5.990   1.961 -0.2114  1.4149 -0.0557
  220MOL0     H30336   5.673   6.027   1.896 -0.7716 -1.4481 -0.1845
  220MOL0     H30337   5.687   6.092   2.057  1.2386  0.4644 -0.6225
  220MOL0     H30338   5.665   6.260   1.897  0.6355  0.2004  1.5918
  220MOL0     H30339   5.541   6.275   2.026 -2.2257 -0.1161 -1.0826
  220MOL0     H30340   4.886   5.829   1.873 -2.0744  0.3296 -0.1943
  220MOL0     H30341   4.686   5.829   1.746  0.5329 -0.1604  0.1733
  220MOL0     H30342   4.403   5.857   1.440  0.9124 -0.3151  0.2546
  220MOL0     H30343   4.219   5.852   1.289  0.9823  1.4834 -0.0293
  220MOL0     H30344   2.367   5.384   1.271  1.5300  2.3378 -1.4480
  220MOL0     H30345   2.174   5.491   1.238  2.7850 -1.9521  2.5307
  220MOL0     H30346   1.810   5.545   0.731  2.1518  1.5494  1.1341
  220MOL0     H30347   1.583   5.654   0.717 -1.4991  1.0353  1.6580
  220MOL0     H30348   1.414   5.861   0.793 -2.1364 -0.1484 -1.7688
  220MOL0     H30349   1.371   5.693   0.752 -1.2810  0.7794 -1.1271
  220MOL0     H30350   1.227   5.866   0.962  2.8954  0.6084 -0.4025
  220MOL0     H30351   1.177   5.709   0.898 -3.3783  1.6377  0.3988
  220MOL0     H30352   1.211   5.992   0.771  0.2543 -0.6357 -1.4081
  220MOL0     H30353   1.200   5.847   0.665  0.4614 -0.8015  0.5265
  220MOL0     H30354   0.968   5.975   0.705  0.8873  1.4981  1.2532
  220MOL0     H30355   0.991   5.963   0.865 -2.6215 -2.3748  0.9098
  220MOL0     H30356   0.838   5.580   0.825  0.6147 -0.1569  0.4634
  220MOL0     H30357   1.568   5.649   1.146 -2.3147 -0.4301 -0.3176
  220MOL0     H30358   1.835   5.400   1.163  0.3542 -0.2817 -1.3637
  220MOL0     H30359   1.883   5.564   1.211  0.0039 -1.2849  0.4865
  220MOL0     H30360   1.735   5.496   1.268  0.6525  0.7842 -0.1725
  221MOL0     O30361   1.899   3.841   2.161  0.1472 -0.3729  0.8281
  221MOL0     C30362   1.964   3.902   2.245  0.6065 -0.4226  0.8371
  221MOL0     O30363   1.934   4.027   2.297 -0.4266 -0.3738 -0.0796
  221MOL0     C30364   1.818   4.080   2.253 -0.9841  0.3359  1.0598
  221MOL0     C30365   1.813   4.131   2.125  0.4280  0.0933  0.3811
  221MOL0     C30366   1.698   4.194   2.083  0.2716 -0.2152 -0.5162
  221MOL0     C30367   1.588   4.199   2.162  0.1285  0.8060  0.9116
  221MOL0     O30368   1.467   4.258   2.133 -0.0391 -0.0402 -0.4792
  221MOL0     C30369   1.444   4.354   2.024 -0.5947 -0.8399 -0.5830
  221MOL0     C30370   1.361   4.475   2.078  0.4983 -0.6724  0.6059
  221MOL0     C30371   1.217   4.449   2.102  0.2268  0.0357  0.2169
  221MOL0     C30372   1.142   4.574   2.145  0.0119  0.4402  0.4140
  221MOL0     C30373   1.013   4.545   2.208  1.1282  0.4159 -0.0249
  221MOL0     C30374   0.934   4.675   2.237 -0.6045  0.3642  0.2268
  221MOL0     C30375   0.982   4.767   2.353  0.0903  0.5173  0.2513
  221MOL0     C30376   1.012   4.914   2.318 -0.2916 -0.2927 -0.3791
  221MOL0     N30377   1.156   4.925   2.275  0.3535  0.0806 -0.0565
  221MOL0     C30378   1.260   4.885   2.348 -0.6172  0.3813 -0.1123
  221MOL0     C30379   1.367   4.904   2.261 -0.2609  0.1757 -1.0345
  221MOL0     C30380   1.509   4.874   2.293  0.0020 -0.2565  0.1838
  221MOL0     C30381   1.571   4.790   2.186 -0.1860 -0.1617 -0.0092
  221MOL0     C30382   1.723   4.776   2.211  1.1978 -1.0664  0.2967
  221MOL0     C30383   1.760   4.673   2.106 -0.4067  0.4300 -0.5078
  221MOL0     O30384   1.899   4.652   2.092 -0.0047 -0.3297  0.4395
  221MOL0     C30385   1.937   4.556   2.010  0.0595  0.1330 -0.2261
  221MOL0     C30386   1.851   4.494   1.917 -0.4035 -0.1186  0.6839
  221MOL0     C30387   1.909   4.391   1.828  0.4573 -1.8694  0.1682
  221MOL0     C30388   1.807   4.323   1.731 -0.4039 -0.3959 -0.4685
  221MOL0     C30389   2.051   4.358   1.839  0.4993  0.4560 -0.4217
  221MOL0     C30390   2.117   4.250   1.752 -0.1548  0.2802  0.2696
  221MOL0     O30391   2.250   4.233   1.774  0.3120  0.1707 -0.4556
  221MOL0     C30392   2.304   4.112   1.730  0.3297 -0.1082  0.7314
  221MOL0     C30393   2.252   3.987   1.733 -0.1711 -0.8110  0.4614
  221MOL0     C30394   2.313   3.881   1.676 -0.4284 -0.1120 -0.6507
  221MOL0     C30395   2.430   3.897   1.599 -0.4177  0.1016 -0.9890
  221MOL0     O30396   2.503   3.799   1.529 -0.2504  0.2033 -0.2467
  221MOL0     C30397   2.431   3.671   1.508 -0.7945  0.0803 -0.0305
  221MOL0     C30398   2.472   3.606   1.380 -0.2319  1.1025  0.0308
  221MOL0     C30399   2.414   3.687   1.262 -0.3648 -0.0841  0.0819
  221MOL0     C30400   2.457   3.620   1.128 -0.7531  0.7064 -0.5874
  221MOL0     C30401   2.399   3.697   1.008 -0.0326 -0.6804  0.3435
  221MOL0     C30402   2.430   3.655   0.861  0.4175 -0.3316 -0.7752
  221MOL0     C30403   2.373   3.510   0.841 -0.4103  0.3921 -1.1164
  221MOL0     C30404   2.344   3.486   0.697 -0.1714 -0.1037  0.4377
  221MOL0    Cl30405   2.315   3.317   0.675 -0.0136  0.5035 -0.0499
  221MOL0     C30406   2.486   4.022   1.589  0.3925 -0.2538 -0.2954
  221MOL0     C30407   2.426   4.130   1.656  0.7464 -0.7723 -0.0276
  221MOL0     O30408   2.053   4.200   1.659 -0.1094 -0.5072  0.2825
  221MOL0     C30409   2.128   4.428   1.933 -0.0172  0.2102 -0.4264
  221MOL0     C30410   2.076   4.521   2.011 -0.5840  0.7350 -0.2022
  221MOL0     N30411   1.317   4.952   2.140 -0.0278  0.4186  0.0003
  221MOL0     N30412   1.193   4.979   2.152  0.3609 -0.2010 -0.2479
  221MOL0     C30413   1.592   4.142   2.283 -0.6174 -0.0915 -0.0596
  221MOL0     C30414   1.706   4.074   2.334 -0.5835  0.0124  0.5947
  221MOL0     C30415   2.081   3.837   2.292 -0.6273 -0.0179  0.1205
  221MOL0     C30416   2.205   3.910   2.285  0.9193  0.1215 -1.3052
  221MOL0     C30417   2.325   3.853   2.345  0.2160  0.3030  0.2764
  221MOL0     C30418   2.318   3.716   2.396  0.5774 -0.2097 -0.4722
  221MOL0     O30419   2.428   3.655   2.451 -1.2845 -0.4668 -0.4771
  221MOL0     C30420   2.524   3.740   2.518 -0.3676 -0.5344 -0.5336
  221MOL0     C30421   2.612   3.644   2.593  0.6549  0.8239  0.7568
  221MOL0     C30422   2.717   3.719   2.675  0.0545 -1.1730  0.3322
  221MOL0     C30423   2.685   3.709   2.830  1.0142 -0.1068 -0.7415
  221MOL0     C30424   2.561   3.776   2.876 -0.1753  0.6900  1.0248
  221MOL0     C30425   2.463   3.839   2.912 -0.4855  0.1010  0.0045
  221MOL0     C30426   2.197   3.648   2.386 -0.0389  0.0179 -1.0586
  221MOL0     C30427   2.075   3.709   2.352 -1.0843  0.8702 -0.3088
  221MOL0     C30428   1.944   3.628   2.386  0.3428  0.0955  0.4083
  221MOL0     H30429   1.898   4.134   2.058 -0.7365  0.6446 -1.1310
  221MOL0     H30430   1.690   4.240   1.985 -0.5840  2.4086  0.6860
  221MOL0     H30431   1.382   4.312   1.944  0.9899 -1.3888 -1.5697
  221MOL0     H30432   1.541   4.393   1.992 -0.6584 -0.4935 -0.3605
  221MOL0     H30433   1.400   4.513   2.173 -3.1050  0.9890  1.5861
  221MOL0     H30434   1.370   4.552   2.001  2.7028 -1.6901 -0.2377
  221MOL0     H30435   1.169   4.401   2.016 -0.6889  0.1759  0.6361
  221MOL0     H30436   1.212   4.379   2.186 -0.6332  0.2659  0.3665
  221MOL0     H30437   1.202   4.637   2.212 -1.5019 -0.0806  2.3320
  221MOL0     H30438   1.130   4.633   2.054  0.2004  0.5186  0.4378
  221MOL0     H30439   1.027   4.490   2.302  0.0718  0.8541  0.4122
  221MOL0     H30440   0.946   4.490   2.141  2.0690  1.2882 -1.7372
  221MOL0     H30441   0.945   4.739   2.149 -0.7936  1.2427  0.8298
  221MOL0     H30442   0.828   4.652   2.257 -0.2481 -2.0419 -0.3618
  221MOL0     H30443   1.065   4.730   2.413 -0.1873  0.3082  0.5098
  221MOL0     H30444   0.898   4.781   2.422  1.0733 -1.2843  1.9131
  221MOL0     H30445   0.938   4.957   2.249 -1.1921  1.9260  1.8397
  221MOL0     H30446   1.001   4.970   2.411 -2.0230  1.6419 -1.6383
  221MOL0     H30447   1.270   4.852   2.450  0.7048  1.6012  0.1928
  221MOL0     H30448   1.523   4.828   2.391  0.6178 -0.0805  0.1887
  221MOL0     H30449   1.567   4.967   2.305  1.1460 -1.2593  4.0965
  221MOL0     H30450   1.529   4.690   2.200  1.0660 -0.7871 -0.5772
  221MOL0     H30451   1.553   4.825   2.083 -0.5430  1.1968  0.4925
  221MOL0     H30452   1.777   4.870   2.198 -0.1959 -0.1233  0.9584
  221MOL0     H30453   1.743   4.745   2.314  1.4954  2.4927  1.4673
  221MOL0     H30454   1.720   4.576   2.137 -0.9381  0.1303 -2.0129
  221MOL0     H30455   1.727   4.713   2.009 -0.6327 -0.4034 -0.7805
  221MOL0     H30456   1.751   4.533   1.904 -0.2842  1.7367  4.3096
  221MOL0     H30457   1.819   4.214   1.739  6.0186 -0.1255 -0.9714
  221MOL0     H30458   1.828   4.364   1.631 -1.5128  0.3849 -0.3968
  221MOL0     H30459   1.702   4.345   1.750 -0.0087  0.0988  1.3148
  221MOL0     H30460   2.164   3.969   1.794  0.4154 -1.1036  1.2451
  221MOL0     H30461   2.261   3.786   1.684 -1.6893  0.5262 -1.0648
  221MOL0     H30462   2.439   3.600   1.591 -0.1088 -1.5760 -1.4550
  221MOL0     H30463   2.326   3.695   1.491 -1.0231 -2.3109 -2.7244
  221MOL0     H30464   2.581   3.602   1.385 -0.2140  2.9371  2.5958
  221MOL0     H30465   2.437   3.502   1.382  2.0754  0.2466 -0.8086
  221MOL0     H30466   2.443   3.792   1.264 -3.8617  0.9813  0.0931
  221MOL0     H30467   2.305   3.685   1.261 -0.3950  1.2317 -0.8705
  221MOL0     H30468   2.437   3.513   1.118  2.1142  0.0661 -0.4153
  221MOL0     H30469   2.566   3.630   1.133 -0.9972  4.1092  2.6932
  221MOL0     H30470   2.290   3.702   1.013 -0.2145 -2.8323 -0.2584
  221MOL0     H30471   2.443   3.797   1.005 -1.4020 -0.0776 -1.3400
  221MOL0     H30472   2.537   3.669   0.843  0.9714 -0.4885  1.9791
  221MOL0     H30473   2.385   3.733   0.799  0.9328  0.1329 -0.5737
  221MOL0     H30474   2.283   3.492   0.901 -0.1753 -3.9916 -1.7696
  221MOL0     H30475   2.447   3.439   0.880 -2.4805 -1.6051 -0.5662
  221MOL0     H30476   2.436   3.511   0.642  0.4066 -0.4599  1.2158
  221MOL0     H30477   2.262   3.546   0.658  0.5033 -0.7831 -2.2030
  221MOL0     H30478   2.576   4.051   1.537 -0.3393  1.6003 -0.5993
  221MOL0     H30479   2.480   4.224   1.659  2.3747 -1.6922  2.0573
  221MOL0     H30480   2.230   4.395   1.949 -0.8149 -1.8678  0.7752
  221MOL0     H30481   2.143   4.561   2.086 -0.2999  1.3650 -0.7824
  221MOL0     H30482   1.500   4.140   2.341  0.3801  1.2822  1.6699
  221MOL0     H30483   1.714   4.024   2.430  1.0372  0.8496  0.9178
  221MOL0     H30484   2.209   4.002   2.229 -0.0456 -0.2582 -2.0162
  221MOL0     H30485   2.414   3.914   2.338 -1.3510  2.5485 -1.0786
  221MOL0     H30486   2.591   3.806   2.461  0.5279  1.3501  2.4054
  221MOL0     H30487   2.474   3.812   2.585 -0.0690  1.7355 -2.6004
  221MOL0     H30488   2.660   3.592   2.509 -2.1734 -0.0997 -0.4044
  221MOL0     H30489   2.541   3.583   2.649 -1.7837  1.1132 -1.7896
  221MOL0     H30490   2.811   3.671   2.646  0.7103 -0.8129  1.7816
  221MOL0     H30491   2.727   3.824   2.647  1.8348 -1.2270  0.6396
  221MOL0     H30492   2.772   3.744   2.887 -0.6010  0.3273  1.5933
  221MOL0     H30493   2.672   3.605   2.862 -1.8621  0.4400  0.0880
  221MOL0     H30494   2.380   3.899   2.944  0.2281  0.9369  0.3386
  221MOL0     H30495   2.189   3.544   2.416 -0.3869 -0.1145 -1.5852
  221MOL0     H30496   1.859   3.684   2.427 -2.5861 -1.1311 -3.4030
  221MOL0     H30497   1.896   3.595   2.294 -2.4586  5.3301 -0.4346
  221MOL0     H30498   1.969   3.541   2.447  1.9450  0.2020 -0.0571
  222MOL0     O30499   9.056   1.530   0.253 -0.1292  1.2453  0.8527
  222MOL0     C30500   8.947   1.489   0.202  0.5646  0.2571  0.4093
  222MOL0     O30501   8.929   1.464   0.068  0.2448  0.5668  0.2544
  222MOL0     C30502   9.037   1.467  -0.015 -0.0412 -0.6880 -0.3607
  222MOL0     C30503   9.052   1.553  -0.119  0.2902  0.3405 -0.3219
  222MOL0     C30504   9.163   1.555  -0.203  0.1912 -0.8733  0.7592
  222MOL0     C30505   9.269   1.468  -0.186 -0.6708 -0.0770 -0.6017
  222MOL0     O30506   9.381   1.464  -0.265 -0.1088  0.1745  0.4973
  222MOL0     C30507   9.396   1.591  -0.347  0.6029  0.4659  0.0149
  222MOL0     C30508   9.543   1.607  -0.394  1.0753 -0.7390 -0.2379
  222MOL0     C30509   9.598   1.485  -0.463 -0.9843  0.3303  0.2070
  222MOL0     C30510   9.743   1.508  -0.498  0.1214 -0.5797  0.0870
  222MOL0     C30511   9.797   1.400  -0.590  0.2653  0.2646  0.9269
  222MOL0     C30512   9.933   1.448  -0.657 -0.0064  0.5696  0.2267
  222MOL0     C30513   9.978   1.342  -0.761  0.1103 -0.1416  0.3843
  222MOL0     C30514  10.072   1.408  -0.865  0.0517  0.5347 -0.4892
  222MOL0     N30515  10.211   1.411  -0.831  0.7588 -0.0641 -0.4398
  222MOL0     C30516  10.261   1.478  -0.723  0.1958 -0.0515 -0.6802
  222MOL0     C30517  10.376   1.417  -0.695 -0.6130  0.6444  0.1188
  222MOL0     C30518  10.470   1.438  -0.582  0.0144  0.4195  0.4607
  222MOL0     C30519  10.615   1.466  -0.636 -0.1811  0.3712 -0.1825
  222MOL0     C30520  10.708   1.482  -0.510 -0.4219  0.4515  0.2014
  222MOL0     C30521  10.860   1.499  -0.535 -0.2985  0.6221 -0.0735
  222MOL0     O30522  10.916   1.374  -0.576  0.5283 -0.0152  0.4919
  222MOL0     C30523  11.047   1.332  -0.562  0.3128  0.2333 -0.0362
  222MOL0     C30524  11.079   1.202  -0.599  0.4397  0.2229  0.3964
  222MOL0     C30525  11.205   1.145  -0.595  0.3958  0.8702 -0.0689
  222MOL0     C30526  11.214   0.999  -0.597  0.1065 -0.0335  0.6864
  222MOL0     C30527  11.311   1.222  -0.549  0.6344 -0.5233  0.7183
  222MOL0     C30528  11.457   1.190  -0.541 -0.1865 -0.8428 -0.0576
  222MOL0     O30529  11.534   1.264  -0.456 -0.0687 -0.9668 -0.2674
  222MOL0     C30530  11.670   1.228  -0.439 -0.3436  0.3640  0.5450
  222MOL0     C30531  11.776   1.304  -0.489  0.9929  0.7227  0.0856
  222MOL0     C30532  11.907   1.267  -0.476 -0.3340  0.0010  0.3825
  222MOL0     C30533  11.945   1.149  -0.411  0.3985 -0.1220 -0.0425
  222MOL0     O30534  12.073   1.100  -0.389 -0.3188 -0.2998 -0.8391
  222MOL0     C30535  12.189   1.141  -0.470 -0.2925 -0.0349  1.1144
  222MOL0     C30536  12.309   1.081  -0.402 -0.0194  0.1127  0.2110
  222MOL0     C30537  12.433   1.141  -0.454 -0.1020  0.0106  0.4180
  222MOL0     C30538  12.563   1.069  -0.402  0.4784  0.0766  0.5706
  222MOL0     C30539  12.700   1.111  -0.455 -0.3616  0.1463 -0.1056
  222MOL0     C30540  12.807   0.998  -0.428  0.4821 -0.8163  0.1217
  222MOL0     C30541  12.945   1.035  -0.473  0.5290  0.3836 -0.2487
  222MOL0     C30542  13.007   1.171  -0.439 -0.1993  0.0676 -1.1535
  222MOL0    Cl30543  13.156   1.186  -0.523 -0.2185 -0.0672 -0.0103
  222MOL0     C30544  11.840   1.065  -0.360  0.4783  0.2465  0.5070
  222MOL0     C30545  11.707   1.108  -0.369 -0.4426 -1.1505 -0.2275
  222MOL0     O30546  11.506   1.106  -0.619  0.0676  0.4295 -0.1378
  222MOL0     C30547  11.278   1.359  -0.518 -0.5417  0.6210 -0.4581
  222MOL0     C30548  11.146   1.416  -0.518 -0.2506  0.5269 -0.8424
  222MOL0     N30549  10.404   1.315  -0.799  0.1591 -0.0015  0.6461
  222MOL0     N30550  10.295   1.310  -0.873  0.4723  0.2047 -0.3991
  222MOL0     C30551   9.253   1.370  -0.086 -0.9757  0.1058  0.9535
  222MOL0     C30552   9.139   1.369  -0.001  0.1956 -0.3737  0.4719
  222MOL0     C30553   8.829   1.496   0.295  0.3600 -0.6428  0.3951
  222MOL0     C30554   8.849   1.533   0.428 -0.0488 -0.3015 -0.3026
  222MOL0     C30555   8.740   1.515   0.523 -0.9903  0.0773 -1.0123
  222MOL0     C30556   8.619   1.449   0.489 -0.8901  0.1234  0.4849
  222MOL0     O30557   8.530   1.430   0.587 -0.1079  0.7123 -0.6140
  222MOL0     C30558   8.527   1.291   0.626 -0.3958 -0.0177  0.2862
  222MOL0     C30559   8.452   1.262   0.760 -0.1381 -0.7067  0.1659
  222MOL0     C30560   8.304   1.289   0.742 -0.3250  0.5698  0.6734
  222MOL0     C30561   8.235   1.311   0.874  0.3715  1.1198 -0.2462
  222MOL0     C30562   8.091   1.314   0.872 -0.1075 -0.2584  0.7430
  222MOL0     C30563   7.968   1.299   0.857 -0.8675 -0.9312 -0.2478
  222MOL0     C30564   8.611   1.398   0.357  0.2486  0.5793 -0.1540
  222MOL0     C30565   8.706   1.428   0.256 -0.0635 -0.8214  0.4455
  222MOL0     C30566   8.673   1.373   0.115 -0.6427 -0.0531 -0.3119
  222MOL0     H30567   8.974   1.626  -0.141  1.0748  0.8752 -1.3844
  222MOL0     H30568   9.161   1.624  -0.287 -1.0392 -0.4461  1.1200
  222MOL0     H30569   9.365   1.680  -0.292  0.1852 -0.3660  1.1775
  222MOL0     H30570   9.327   1.589  -0.432  0.3066 -1.7888  0.2300
  222MOL0     H30571   9.537   1.696  -0.456  0.5535  0.8545  1.9736
  222MOL0     H30572   9.602   1.638  -0.307 -1.1441  1.2586  0.6620
  222MOL0     H30573   9.586   1.400  -0.395  1.8055  2.0419  3.0758
  222MOL0     H30574   9.544   1.465  -0.556  0.8838 -0.5816 -0.7327
  222MOL0     H30575   9.759   1.606  -0.543  0.8657 -1.1624 -0.9544
  222MOL0     H30576   9.815   1.520  -0.416  0.7146  1.7658 -0.6991
  222MOL0     H30577   9.726   1.390  -0.673  0.6568  0.1537  0.6038
  222MOL0     H30578   9.815   1.313  -0.526  0.0071  0.6293  1.5002
  222MOL0     H30579   9.919   1.546  -0.704 -3.4053  0.6350  1.0905
  222MOL0     H30580  10.020   1.464  -0.592  2.1934 -0.5510 -2.2945
  222MOL0     H30581   9.885   1.316  -0.813 -1.3776  1.1953  2.2587
  222MOL0     H30582  10.014   1.246  -0.725 -1.8827 -1.0909 -0.0557
  222MOL0     H30583  10.081   1.349  -0.957  1.7334 -2.5729  1.4929
  222MOL0     H30584  10.039   1.510  -0.887  0.5430  1.2333  1.7893
  222MOL0     H30585  10.219   1.550  -0.654  2.0001  0.5148 -0.1252
  222MOL0     H30586  10.465   1.349  -0.518  0.3369 -1.4668 -1.9734
  222MOL0     H30587  10.441   1.519  -0.514 -1.4835 -0.5260  1.0151
  222MOL0     H30588  10.656   1.384  -0.696  0.3258  0.5806 -0.1360
  222MOL0     H30589  10.625   1.558  -0.696  1.8285  0.0357 -0.4457
  222MOL0     H30590  10.673   1.572  -0.459 -1.2226  0.5368 -0.4675
  222MOL0     H30591  10.700   1.398  -0.440 -1.0757  1.9498  2.0168
  222MOL0     H30592  10.872   1.571  -0.618  2.3375 -0.5462 -0.8117
  222MOL0     H30593  10.910   1.532  -0.443  0.1582 -1.4570  0.4657
  222MOL0     H30594  10.991   1.140  -0.609 -0.1758  1.3867 -2.3084
  222MOL0     H30595  11.286   0.947  -0.534 -1.7431 -2.3921  0.9969
  222MOL0     H30596  11.220   0.960  -0.699 -0.6472 -1.5494  1.1968
  222MOL0     H30597  11.116   0.962  -0.567  0.6936 -0.1387  2.6510
  222MOL0     H30598  11.743   1.394  -0.540  2.4539  0.0483 -2.1975
  222MOL0     H30599  11.989   1.319  -0.527 -1.6399  1.2156 -0.5597
  222MOL0     H30600  12.189   1.100  -0.571  0.5331 -1.4117  1.6477
  222MOL0     H30601  12.190   1.250  -0.481  1.1638 -0.0636  0.8006
  222MOL0     H30602  12.296   1.112  -0.298  0.1996  4.8460 -0.9629
  222MOL0     H30603  12.304   0.974  -0.425  3.0901  0.0433 -0.4850
  222MOL0     H30604  12.433   1.245  -0.420 -1.1366  0.1919 -0.0808
  222MOL0     H30605  12.445   1.152  -0.563 -3.5679  1.5083  0.0393
  222MOL0     H30606  12.544   0.963  -0.422  0.6972  0.3617 -1.3359
  222MOL0     H30607  12.572   1.075  -0.293 -3.1177  3.1211  0.8976
  222MOL0     H30608  12.708   1.119  -0.564 -0.7961 -0.3730 -0.1780
  222MOL0     H30609  12.739   1.204  -0.412  3.6841 -0.3857 -2.1492
  222MOL0     H30610  12.784   0.907  -0.483  0.4141  0.0325 -1.3138
  222MOL0     H30611  12.816   0.973  -0.322  0.0266 -1.4166  0.0188
  222MOL0     H30612  12.950   1.021  -0.581  0.6907 -1.2539 -0.0506
  222MOL0     H30613  13.020   0.966  -0.434  1.7081  0.9254 -1.4464
  222MOL0     H30614  13.019   1.172  -0.330  2.1163 -2.1589 -1.3016
  222MOL0     H30615  12.945   1.256  -0.472  0.5273  0.3777 -1.7440
  222MOL0     H30616  11.865   0.970  -0.313  1.2698  0.0520 -0.2663
  222MOL0     H30617  11.627   1.040  -0.340 -0.5155 -1.2820 -0.7318
  222MOL0     H30618  11.355   1.412  -0.464 -0.5357 -0.2322  0.4094
  222MOL0     H30619  11.121   1.521  -0.502  0.3059  0.6957 -1.0538
  222MOL0     H30620   9.335   1.300  -0.080 -0.3771  0.2285 -3.0309
  222MOL0     H30621   9.131   1.296   0.078 -0.5625  0.0358  0.7890
  222MOL0     H30622   8.944   1.575   0.461  0.9460 -1.5904 -1.4186
  222MOL0     H30623   8.753   1.569   0.616 -0.5661 -0.1244 -0.9521
  222MOL0     H30624   8.498   1.226   0.543  1.3864 -0.9497  0.3463
  222MOL0     H30625   8.632   1.272   0.653 -0.3951  0.6444  0.7716
  222MOL0     H30626   8.490   1.320   0.845 -2.3749  1.3751 -0.1133
  222MOL0     H30627   8.481   1.160   0.785  2.9159  0.2603  1.0014
  222MOL0     H30628   8.302   1.370   0.668  3.3805 -0.8591 -1.2687
  222MOL0     H30629   8.255   1.205   0.692  0.4135  1.6215 -2.0028
  222MOL0     H30630   8.262   1.408   0.918 -1.6323  1.5822  0.0789
  222MOL0     H30631   8.258   1.231   0.945  0.3097  0.9149 -0.4537
  222MOL0     H30632   7.868   1.261   0.849 -0.6495 -1.2744 -1.5333
  222MOL0     H30633   8.523   1.339   0.334 -0.0428  0.0657  2.0539
  222MOL0     H30634   8.741   1.288   0.099 -0.7907 -0.5114  1.3087
  222MOL0     H30635   8.571   1.338   0.100 -0.6851  0.6209 -1.7112
  222MOL0     H30636   8.694   1.446   0.037 -1.2909  0.0072 -0.4335
  223MOL0     O30637   2.459   2.664   1.471  0.5692 -0.2803  0.2709
  223MOL0     C30638   2.434   2.601   1.371 -0.4642 -0.1422  0.2522
  223MOL0     O30639   2.503   2.614   1.251  0.1713  0.6097 -0.0830
  223MOL0     C30640   2.633   2.663   1.240  0.0906  0.2740 -0.2878
  223MOL0     C30641   2.681   2.684   1.113 -0.3045  0.7445  0.1949
  223MOL0     C30642   2.802   2.745   1.089 -0.0865  1.1398 -0.3184
  223MOL0     C30643   2.880   2.786   1.192 -0.4699  0.5523  0.1807
  223MOL0     O30644   2.997   2.862   1.165 -0.8287 -0.1013 -0.2233
  223MOL0     C30645   2.989   2.963   1.061 -0.5526  0.3109 -0.1000
  223MOL0     C30646   3.074   2.917   0.940  0.0422  0.5551 -0.7231
  223MOL0     C30647   3.093   3.021   0.826  0.1351  0.0042  0.2121
  223MOL0     C30648   3.245   3.060   0.815  0.2267  0.1930  0.9517
  223MOL0     C30649   3.265   3.166   0.703 -1.1737  0.6597  0.7210
  223MOL0     C30650   3.413   3.167   0.667  0.1465  0.2930  0.5178
  223MOL0     C30651   3.473   3.036   0.614 -0.7651  0.8829  0.3529
  223MOL0     C30652   3.421   2.993   0.482  0.9116 -0.4976 -0.3060
  223MOL0     N30653   3.451   2.852   0.453 -0.3339  0.7186  0.1884
  223MOL0     C30654   3.554   2.803   0.378  0.0896 -1.0905 -0.6201
  223MOL0     C30655   3.537   2.667   0.398 -0.4092  0.0534 -0.0376
  223MOL0     C30656   3.624   2.560   0.334  0.6208 -0.2017 -0.7011
  223MOL0     C30657   3.551   2.437   0.277  0.3300 -0.3856 -0.2106
  223MOL0     C30658   3.625   2.304   0.294  0.8499 -0.2628 -0.5210
  223MOL0     C30659   3.523   2.185   0.261  0.1238 -0.4817  0.2785
  223MOL0     O30660   3.513   2.167   0.117  0.3815 -0.6178  0.3907
  223MOL0     C30661   3.618   2.109   0.048  0.0600  0.5025  0.7258
  223MOL0     C30662   3.745   2.067   0.103  0.7104 -0.0007  1.0506
  223MOL0     C30663   3.855   2.021   0.027 -0.2608 -0.0010 -0.1434
  223MOL0     C30664   3.966   1.946   0.108  0.3298 -0.1944 -0.1457
  223MOL0     C30665   3.836   2.006  -0.115 -0.0069  0.4015  0.0627
  223MOL0     C30666   3.939   1.952  -0.201  0.1557 -0.5240 -0.3942
  223MOL0     O30667   4.073   1.973  -0.165 -0.0300  0.6616 -0.4813
  223MOL0     C30668   4.180   1.909  -0.233 -0.7427 -0.1956  0.0450
  223MOL0     C30669   4.306   1.982  -0.252  0.5390  0.2886 -0.8825
  223MOL0     C30670   4.417   1.923  -0.324 -0.6322 -0.1764 -0.2869
  223MOL0     C30671   4.408   1.791  -0.368  0.7247  0.2562  0.0446
  223MOL0     O30672   4.508   1.718  -0.429 -0.2600  0.1591 -1.2402
  223MOL0     C30673   4.610   1.802  -0.481 -0.1685 -0.7361  0.1268
  223MOL0     C30674   4.697   1.732  -0.577 -0.4773 -0.6318  0.0449
  223MOL0     C30675   4.753   1.600  -0.521 -0.2728  0.8854  0.1603
  223MOL0     C30676   4.841   1.607  -0.394 -0.8730  0.3642  0.6245
  223MOL0     C30677   4.975   1.679  -0.425  0.0997  0.5967  0.0488
  223MOL0     C30678   5.066   1.656  -0.310 -0.9317  0.2028 -0.4764
  223MOL0     C30679   5.223   1.697  -0.328 -0.2769  0.6171  0.9823
  223MOL0     C30680   5.276   1.672  -0.470  0.4364 -0.0333  0.6060
  223MOL0    Cl30681   5.256   1.503  -0.515 -0.2303  0.0156  0.1562
  223MOL0     C30682   4.288   1.723  -0.343 -0.5319  0.4499  0.5042
  223MOL0     C30683   4.174   1.779  -0.278  0.2485 -0.0399  0.3107
  223MOL0     O30684   3.900   1.904  -0.309 -0.5348 -0.0975  0.2183
  223MOL0     C30685   3.713   2.046  -0.163 -0.3832 -0.8278  0.0246
  223MOL0     C30686   3.604   2.090  -0.095 -0.2926 -0.6363 -0.4231
  223MOL0     N30687   3.433   2.644   0.490  0.0076 -0.7804 -0.7520
  223MOL0     N30688   3.386   2.754   0.522  0.0516 -0.1088 -0.2126
  223MOL0     C30689   2.838   2.758   1.318 -0.9553 -0.2726 -0.5936
  223MOL0     C30690   2.719   2.698   1.347 -0.3730  0.1772 -0.1754
  223MOL0     C30691   2.307   2.524   1.378 -0.4244  0.8077  0.5762
  223MOL0     C30692   2.258   2.488   1.247  0.8244 -0.0694  0.1601
  223MOL0     C30693   2.138   2.404   1.246  0.0398  0.1354 -0.1525
  223MOL0     C30694   2.081   2.361   1.368  0.1908 -0.5277  0.4542
  223MOL0     O30695   1.968   2.294   1.377 -0.2273 -0.0293  0.5877
  223MOL0     C30696   1.890   2.273   1.258 -0.9699  0.3200 -0.5124
  223MOL0     C30697   1.766   2.199   1.325 -0.1898  0.5861 -0.0781
  223MOL0     C30698   1.672   2.280   1.420  0.1418  0.2628 -0.9287
  223MOL0     C30699   1.573   2.373   1.351  0.0941  0.3252  0.0034
  223MOL0     C30700   1.468   2.297   1.277 -0.2160 -0.3397  0.1502
  223MOL0     C30701   1.367   2.251   1.225 -0.7492  0.6602 -0.2811
  223MOL0     C30702   2.141   2.387   1.487 -0.4994 -0.1853 -0.0113
  223MOL0     C30703   2.252   2.466   1.491 -0.1769 -0.4080  0.1480
  223MOL0     C30704   2.303   2.490   1.635 -0.2273 -0.0992 -0.8315
  223MOL0     H30705   2.624   2.673   1.022 -0.1284 -0.0025  0.1667
  223MOL0     H30706   2.828   2.755   0.984  0.2769  2.4202 -0.1163
  223MOL0     H30707   3.041   3.055   1.090  2.2839 -0.0199 -3.4745
  223MOL0     H30708   2.888   2.991   1.028 -0.5483 -1.5335 -1.8536
  223MOL0     H30709   3.168   2.874   0.975  0.7474  1.6245 -1.2519
  223MOL0     H30710   3.023   2.831   0.896  2.7749 -2.9698  2.4337
  223MOL0     H30711   3.047   2.990   0.731 -1.2574  2.8085 -0.1313
  223MOL0     H30712   3.037   3.108   0.862  0.6833  0.5699 -0.2923
  223MOL0     H30713   3.284   3.099   0.910  1.2526 -0.4267  0.7990
  223MOL0     H30714   3.303   2.972   0.787 -0.8861 -0.2059 -0.1909
  223MOL0     H30715   3.245   3.268   0.738  1.5696  1.6594 -0.3248
  223MOL0     H30716   3.197   3.149   0.619  0.8353 -0.1374 -0.8265
  223MOL0     H30717   3.429   3.251   0.598 -2.7396  0.9942  0.5334
  223MOL0     H30718   3.476   3.186   0.755  0.4722 -2.2186  0.8921
  223MOL0     H30719   3.468   2.954   0.686  0.8729 -0.9278 -1.4738
  223MOL0     H30720   3.580   3.057   0.610 -0.2104 -0.9793  2.6467
  223MOL0     H30721   3.314   3.013   0.483  0.9881  0.0772 -1.5302
  223MOL0     H30722   3.478   3.061   0.417  0.9698  2.5993  2.7246
  223MOL0     H30723   3.636   2.855   0.328  1.7986 -2.6890  0.3783
  223MOL0     H30724   3.688   2.519   0.412 -1.2363 -1.0588  0.4405
  223MOL0     H30725   3.686   2.606   0.257 -2.2569  0.5927 -2.7207
  223MOL0     H30726   3.448   2.432   0.314 -0.1654  1.0991 -1.3062
  223MOL0     H30727   3.536   2.454   0.170  1.1993  2.0080 -0.0209
  223MOL0     H30728   3.724   2.311   0.249  1.0906  4.7681  0.1705
  223MOL0     H30729   3.657   2.297   0.399  0.6645  0.3028 -0.4215
  223MOL0     H30730   3.563   2.094   0.307  0.6713  0.2196  1.2419
  223MOL0     H30731   3.423   2.204   0.301 -0.7834 -2.6442 -0.8197
  223MOL0     H30732   3.759   2.075   0.210  2.1410  0.8867  0.8200
  223MOL0     H30733   4.065   1.962   0.064  0.3429  0.9538  0.2840
  223MOL0     H30734   3.948   1.839   0.123  2.6164 -0.2047  3.9087
  223MOL0     H30735   3.970   1.995   0.205  1.5716 -1.3467  0.4122
  223MOL0     H30736   4.312   2.079  -0.204  2.3508 -0.8943  1.4312
  223MOL0     H30737   4.495   1.995  -0.347  0.3711 -1.0812  0.2176
  223MOL0     H30738   4.577   1.895  -0.528 -0.6908 -1.1369 -0.2994
  223MOL0     H30739   4.674   1.834  -0.397 -1.6915  1.2232  0.6288
  223MOL0     H30740   4.643   1.716  -0.671 -2.4098 -1.5770  1.2399
  223MOL0     H30741   4.778   1.803  -0.597 -2.0197  1.1565 -0.1238
  223MOL0     H30742   4.812   1.561  -0.604 -2.4300  0.2082 -1.1221
  223MOL0     H30743   4.678   1.523  -0.500 -0.5260  1.6889  2.5713
  223MOL0     H30744   4.873   1.502  -0.387 -1.6909  0.0032 -0.6316
  223MOL0     H30745   4.790   1.646  -0.306 -3.5058 -1.1740 -0.1341
  223MOL0     H30746   5.020   1.624  -0.508 -0.4050 -3.4025  2.1575
  223MOL0     H30747   4.977   1.785  -0.452 -1.5309  0.6214 -0.0978
  223MOL0     H30748   5.056   1.549  -0.289 -1.5123  0.0769 -1.3195
  223MOL0     H30749   5.024   1.712  -0.227  0.6899  0.5177  0.1634
  223MOL0     H30750   5.297   1.658  -0.258 -0.2277 -1.2953 -0.0663
  223MOL0     H30751   5.224   1.806  -0.313  2.0258  1.0471 -1.3405
  223MOL0     H30752   5.383   1.693  -0.479  0.6394 -1.4263 -0.8731
  223MOL0     H30753   5.227   1.736  -0.544  1.4470  3.1275  2.4980
  223MOL0     H30754   4.284   1.620  -0.376  1.5922  1.0910 -2.1741
  223MOL0     H30755   4.092   1.712  -0.257  1.0438 -1.1571 -0.0265
  223MOL0     H30756   3.691   2.027  -0.268 -0.2739  0.7366 -0.3017
  223MOL0     H30757   3.508   2.094  -0.145 -1.6457 -1.2458  1.9502
  223MOL0     H30758   2.896   2.796   1.402 -0.9280  1.1046 -1.2033
  223MOL0     H30759   2.689   2.677   1.449  0.2715 -1.1913 -0.2356
  223MOL0     H30760   2.287   2.535   1.154 -0.1655  2.4242  1.0286
  223MOL0     H30761   2.086   2.391   1.151 -2.1173 -0.7233  1.0655
  223MOL0     H30762   1.856   2.366   1.211 -0.6193  0.4559 -0.5011
  223MOL0     H30763   1.947   2.201   1.198 -0.4063 -0.2719  0.6978
  223MOL0     H30764   1.804   2.116   1.387 -0.7623 -0.8979 -1.6330
  223MOL0     H30765   1.703   2.161   1.245  0.9931  0.0216 -0.7641
  223MOL0     H30766   1.614   2.207   1.476 -3.6824  1.2755 -3.2080
  223MOL0     H30767   1.726   2.343   1.491  0.8708 -1.6871  0.3197
  223MOL0     H30768   1.624   2.433   1.276 -0.1723  1.3428  0.6074
  223MOL0     H30769   1.527   2.446   1.419  0.0579 -0.4938  0.8760
  223MOL0     H30770   1.278   2.227   1.170 -0.4782  0.2765 -0.5531
  223MOL0     H30771   2.094   2.332   1.567 -1.6077 -0.0914 -0.5738
  223MOL0     H30772   2.269   2.409   1.700 -2.5844 -0.3428 -2.2363
  223MOL0     H30773   2.411   2.482   1.645 -0.1391  1.1525 -0.5390
  223MOL0     H30774   2.264   2.587   1.668 -1.2107  1.0535 -4.8724
  224MOL0     O30775   4.621   2.270   8.067 -0.5994  0.3728 -0.4977
  224MOL0     C30776   4.549   2.176   8.083  0.1590  1.0217 -0.3443
  224MOL0     O30777   4.580   2.048   8.059 -0.0901  0.3382 -0.3674
  224MOL0     C30778   4.688   2.006   7.995  0.1124 -0.9289  0.2706
  224MOL0     C30779   4.730   1.870   8.010 -0.6161 -0.4105 -0.4078
  224MOL0     C30780   4.844   1.822   7.940 -0.7414 -0.2207 -0.1928
  224MOL0     C30781   4.922   1.908   7.867 -0.4502  0.5253  0.4486
  224MOL0     O30782   5.034   1.852   7.810 -0.3067  0.9172  0.1732
  224MOL0     C30783   5.168   1.911   7.810 -0.1291  0.1668  0.5413
  224MOL0     C30784   5.223   1.934   7.957 -0.1557  0.4430 -0.0573
  224MOL0     C30785   5.335   2.026   7.966 -0.2506  0.3926 -0.3807
  224MOL0     C30786   5.464   1.988   7.895 -0.9116  0.0020 -0.4831
  224MOL0     C30787   5.579   1.941   7.995  0.2501 -0.0661 -0.0540
  224MOL0     C30788   5.710   1.921   7.914 -0.2479 -0.3241  0.2867
  224MOL0     C30789   5.819   1.851   7.997 -0.6363  0.1846  0.4215
  224MOL0     C30790   5.946   1.811   7.921 -0.4229 -0.2312  0.1596
  224MOL0     N30791   6.057   1.764   8.001  0.7739 -0.4734 -0.0018
  224MOL0     C30792   6.187   1.815   7.980  0.1395  0.6612  0.0427
  224MOL0     C30793   6.267   1.737   8.056 -0.3416  0.1245  0.4165
  224MOL0     C30794   6.414   1.756   8.074  0.3475 -0.6482  0.5228
  224MOL0     C30795   6.496   1.667   7.975  1.0511  0.9311 -0.2196
  224MOL0     C30796   6.638   1.649   8.021 -0.0089  0.2682 -0.0879
  224MOL0     C30797   6.733   1.613   7.905  0.0730  0.6433  0.1633
  224MOL0     O30798   6.852   1.566   7.964  0.1451  0.0265  0.1589
  224MOL0     C30799   6.968   1.638   7.938  0.4707  0.4697 -0.5020
  224MOL0     C30800   7.003   1.691   7.818  0.4907  0.4433  0.7058
  224MOL0     C30801   7.112   1.772   7.797 -0.5026 -0.1373  1.1233
  224MOL0     C30802   7.138   1.839   7.659  0.5472  0.5405  1.1380
  224MOL0     C30803   7.202   1.795   7.907 -0.1539 -0.0810  0.1594
  224MOL0     C30804   7.320   1.894   7.890  0.0993  0.4734 -0.3002
  224MOL0     O30805   7.360   1.936   7.764 -0.0850 -0.5419  0.1289
  224MOL0     C30806   7.484   1.995   7.754 -0.3773  0.6627  0.3045
  224MOL0     C30807   7.585   1.920   7.702  0.0266  0.6080  0.3749
  224MOL0     C30808   7.718   1.976   7.686  0.1492 -0.0456 -0.5614
  224MOL0     C30809   7.742   2.107   7.708 -0.1693 -0.2723 -0.3752
  224MOL0     O30810   7.868   2.161   7.707 -0.7636  0.3969 -0.6173
  224MOL0     C30811   7.933   2.165   7.572  0.5923  0.5509 -0.4310
  224MOL0     C30812   8.088   2.153   7.587 -0.0122 -0.1523  0.3974
  224MOL0     C30813   8.137   2.025   7.648  0.4561 -0.3640 -0.3609
  224MOL0     C30814   8.292   2.042   7.651  0.2505  0.8700  0.4014
  224MOL0     C30815   8.367   1.930   7.722  0.0673  0.2072 -0.3791
  224MOL0     C30816   8.511   1.968   7.768  0.4414 -0.7041  0.4305
  224MOL0     C30817   8.616   1.909   7.677 -0.0345 -0.4756  0.0934
  224MOL0     C30818   8.758   1.939   7.735 -0.0235 -0.7228 -0.4656
  224MOL0    Cl30819   8.806   2.119   7.728  0.2669  0.1510  0.0811
  224MOL0     C30820   7.639   2.185   7.753 -0.9744 -0.0300 -0.3893
  224MOL0     C30821   7.514   2.131   7.779  1.2469 -0.5426 -1.5285
  224MOL0     O30822   7.366   1.939   7.992 -0.0843 -0.2095 -0.4720
  224MOL0     C30823   7.170   1.739   8.030 -0.0660  0.1710  0.3500
  224MOL0     C30824   7.054   1.658   8.038 -1.0009 -0.0742  0.0597
  224MOL0     N30825   6.192   1.636   8.108  0.3415 -0.0702 -0.3855
  224MOL0     N30826   6.064   1.650   8.076 -0.1941  0.9642 -0.2118
  224MOL0     C30827   4.889   2.041   7.850  0.7440 -0.9716 -0.9195
  224MOL0     C30828   4.772   2.092   7.913 -0.4469  0.2692  0.3165
  224MOL0     C30829   4.417   2.205   8.148  0.3903  0.7115 -0.3400
  224MOL0     C30830   4.321   2.102   8.135 -0.3237  0.8599  0.3134
  224MOL0     C30831   4.203   2.107   8.208  0.1746  0.2388  0.0088
  224MOL0     C30832   4.176   2.220   8.286 -0.7436  0.0251 -1.0083
  224MOL0     O30833   4.058   2.248   8.351 -0.4863  0.0475  0.4651
  224MOL0     C30834   3.942   2.176   8.320  0.2783  0.0683  0.3803
  224MOL0     C30835   3.839   2.174   8.436 -0.3739 -0.1071  0.7770
  224MOL0     C30836   3.712   2.095   8.387  0.1112 -0.5762 -0.0639
  224MOL0     C30837   3.594   2.126   8.483  0.6403  0.6596 -0.4748
  224MOL0     C30838   3.486   2.025   8.457 -0.8730  0.6718 -0.1139
  224MOL0     C30839   3.402   1.946   8.438  0.4218  0.0415  0.5787
  224MOL0     C30840   4.267   2.328   8.292  0.3187  0.1605  0.2612
  224MOL0     C30841   4.391   2.314   8.232 -0.1084 -0.1666 -0.6568
  224MOL0     C30842   4.495   2.429   8.256 -0.0433 -0.2680  1.5013
  224MOL0     H30843   4.668   1.800   8.065 -2.2704  0.6201 -0.8850
  224MOL0     H30844   4.885   1.722   7.947  0.7797  0.0998 -3.0397
  224MOL0     H30845   5.169   2.005   7.754  2.7292 -0.0683  0.0154
  224MOL0     H30846   5.229   1.841   7.752  1.2734  2.0111 -0.3367
  224MOL0     H30847   5.139   1.958   8.022 -0.7297  0.3836 -0.7759
  224MOL0     H30848   5.265   1.840   7.995  0.5858  0.4670 -0.7749
  224MOL0     H30849   5.301   2.128   7.946  0.7053  0.7346 -0.2972
  224MOL0     H30850   5.363   2.023   8.071  1.0630  1.3188 -0.6915
  224MOL0     H30851   5.443   1.915   7.815  1.6696  0.3296 -1.5723
  224MOL0     H30852   5.492   2.078   7.841  1.2058 -1.5938 -2.2599
  224MOL0     H30853   5.555   1.851   8.054  0.6610  0.3273  0.7349
  224MOL0     H30854   5.590   2.018   8.072 -1.2574  0.1563 -0.0228
  224MOL0     H30855   5.682   1.853   7.833  2.1449 -2.0099  0.7644
  224MOL0     H30856   5.744   2.013   7.867  1.9441 -1.8819 -1.3929
  224MOL0     H30857   5.780   1.757   8.037 -1.2907  0.2443 -0.0646
  224MOL0     H30858   5.840   1.908   8.088 -0.7985 -0.5534  0.9309
  224MOL0     H30859   5.918   1.729   7.854 -1.5607  0.0499  0.2629
  224MOL0     H30860   5.970   1.895   7.854 -0.3157  0.0134  0.5011
  224MOL0     H30861   6.222   1.901   7.924 -0.5714  0.4963 -0.6752
  224MOL0     H30862   6.435   1.730   8.178 -0.6459 -0.1610  0.8528
  224MOL0     H30863   6.442   1.857   8.046  1.6137 -1.2098 -0.3484
  224MOL0     H30864   6.463   1.564   7.960  3.3974 -0.1175  1.2319
  224MOL0     H30865   6.500   1.709   7.874 -2.4798  0.7290 -0.5715
  224MOL0     H30866   6.690   1.742   8.048 -1.2815  0.3134  2.5635
  224MOL0     H30867   6.636   1.580   8.106  0.3770 -0.0323 -0.3201
  224MOL0     H30868   6.679   1.531   7.856  1.1040 -0.3109  0.5703
  224MOL0     H30869   6.740   1.696   7.835  0.9846 -0.3038 -0.8929
  224MOL0     H30870   6.930   1.674   7.738 -0.4427 -0.6231  1.7539
  224MOL0     H30871   7.233   1.809   7.614 -0.9521 -0.5206 -1.5443
  224MOL0     H30872   7.137   1.948   7.668 -2.2634  0.8245 -1.0986
  224MOL0     H30873   7.054   1.824   7.592  0.7651  0.7470  0.8120
  224MOL0     H30874   7.571   1.816   7.674  2.0389  0.4152 -0.0843
  224MOL0     H30875   7.804   1.911   7.672 -0.0749 -0.3906 -0.3393
  224MOL0     H30876   7.903   2.082   7.508  2.3008 -0.2418 -0.2631
  224MOL0     H30877   7.899   2.259   7.526 -0.5488  2.2013  3.3870
  224MOL0     H30878   8.131   2.173   7.488 -2.2679  1.4771 -0.3688
  224MOL0     H30879   8.118   2.240   7.646 -3.6576  1.2593  0.4522
  224MOL0     H30880   8.105   1.933   7.598  1.8307 -2.2886  2.0607
  224MOL0     H30881   8.096   2.011   7.748 -1.3715 -4.3100 -1.4409
  224MOL0     H30882   8.313   2.137   7.700  2.1620 -0.0571  1.5079
  224MOL0     H30883   8.333   2.047   7.550 -2.0668 -0.1358 -0.6610
  224MOL0     H30884   8.312   1.896   7.810 -1.4437  1.8406 -0.6407
  224MOL0     H30885   8.380   1.841   7.659  1.7551 -0.3732  0.7189
  224MOL0     H30886   8.533   1.939   7.871  2.5520 -1.1166 -0.1078
  224MOL0     H30887   8.516   2.078   7.769 -0.1015 -0.6612  2.0813
  224MOL0     H30888   8.612   1.957   7.578  1.3964 -0.5304 -0.0067
  224MOL0     H30889   8.604   1.800   7.667 -0.1230 -0.8890  3.5068
  224MOL0     H30890   8.828   1.889   7.668  1.6188  0.7341  0.0748
  224MOL0     H30891   8.772   1.907   7.838  0.3616 -2.5989 -1.0713
  224MOL0     H30892   7.673   2.286   7.772  1.6813 -0.9341  0.0873
  224MOL0     H30893   7.435   2.188   7.827 -1.1147 -3.9449 -1.0176
  224MOL0     H30894   7.235   1.770   8.111 -0.9198  2.5158  0.2358
  224MOL0     H30895   7.028   1.624   8.137 -3.0117 -1.0541 -0.7443
  224MOL0     H30896   4.961   2.095   7.790 -1.8590  1.6821 -1.9225
  224MOL0     H30897   4.753   2.195   7.882 -1.6789  0.0556  0.2966
  224MOL0     H30898   4.341   2.012   8.077 -1.1742 -1.1270  2.9229
  224MOL0     H30899   4.149   2.013   8.206  0.4063  0.1222 -1.3116
  224MOL0     H30900   3.901   2.217   8.228  1.4124 -1.5634 -0.9062
  224MOL0     H30901   3.960   2.072   8.292 -3.2011  0.3100 -3.6878
  224MOL0     H30902   3.822   2.281   8.451  1.7009  0.3198  0.3498
  224MOL0     H30903   3.879   2.130   8.528 -2.5150 -3.6879  0.1563
  224MOL0     H30904   3.680   2.135   8.290  1.9734 -0.3700 -0.6471
  224MOL0     H30905   3.735   1.990   8.368  1.2847 -0.2407 -0.6127
  224MOL0     H30906   3.559   2.228   8.464  2.8673  1.7467  0.7759
  224MOL0     H30907   3.625   2.115   8.587  0.8804 -2.3477 -0.7638
  224MOL0     H30908   3.310   1.892   8.428  0.8314 -0.2711 -2.2749
  224MOL0     H30909   4.243   2.423   8.339 -0.0801 -0.2262  0.8428
  224MOL0     H30910   4.530   2.469   8.160  0.5123 -1.7834  1.0395
  224MOL0     H30911   4.454   2.516   8.308 -1.2701 -1.5041  2.6825
  224MOL0     H30912   4.580   2.398   8.318  0.4322 -1.8197  0.1561
  225MOL0     O30913   1.831   3.616   9.535 -0.5425 -0.6429 -1.1452
  225MOL0     C30914   1.770   3.721   9.558  0.3874  0.2798  0.1523
  225MOL0     O30915   1.826   3.847   9.590 -0.0247  0.1409 -0.5072
  225MOL0     C30916   1.950   3.870   9.537 -0.6837  0.0277 -0.4354
  225MOL0     C30917   2.054   3.901   9.626 -0.0204 -0.7909  0.3685
  225MOL0     C30918   2.186   3.908   9.573 -0.4365 -0.1579  0.5639
  225MOL0     C30919   2.211   3.879   9.437  0.4134  0.5121  0.2788
  225MOL0     O30920   2.345   3.879   9.400  0.5428  0.1401  0.4575
  225MOL0     C30921   2.374   3.951   9.279  0.4846  0.1693  0.7820
  225MOL0     C30922   2.504   4.020   9.286 -0.6705 -0.4045  0.1420
  225MOL0     C30923   2.532   4.091   9.424  0.2028 -0.4145  0.2425
  225MOL0     C30924   2.663   4.175   9.402 -0.5284  0.0443 -0.2387
  225MOL0     C30925   2.693   4.273   9.513 -0.3494 -0.4340 -0.0532
  225MOL0     C30926   2.695   4.216   9.660  0.4585  0.4865 -1.2000
  225MOL0     C30927   2.798   4.105   9.698 -0.9565 -0.2886  0.3815
  225MOL0     C30928   2.941   4.173   9.705  0.3270 -0.5752 -0.5305
  225MOL0     N30929   3.042   4.085   9.765 -0.9839  0.0344  0.6095
  225MOL0     C30930   3.103   4.117   9.885 -0.9219 -0.7515 -0.3271
  225MOL0     C30931   3.176   4.002   9.905 -0.4038  0.4891  0.1588
  225MOL0     C30932   3.239   3.961  10.036 -0.9661  0.6868  0.1431
  225MOL0     C30933   3.377   3.965  10.030 -0.0678  0.0281  0.9532
  225MOL0     C30934   3.435   3.909  10.162 -0.6006 -0.4973  0.6988
  225MOL0     C30935   3.566   3.976  10.200 -0.2838  0.2478 -0.0307
  225MOL0     O30936   3.645   3.894  10.284  0.1331  0.7903 -0.0993
  225MOL0     C30937   3.764   3.845  10.239  0.2704  1.5384  0.5262
  225MOL0     C30938   3.763   3.748  10.132 -0.0909  0.3329 -0.6323
  225MOL0     C30939   3.881   3.714  10.068 -0.2999 -0.1992 -1.1180
  225MOL0     C30940   3.863   3.614   9.951  0.6210 -0.5338  0.2583
  225MOL0     C30941   4.006   3.768  10.120  0.1297  0.3472 -0.3548
  225MOL0     C30942   4.136   3.724  10.058 -0.0767 -0.3849  0.1646
  225MOL0     O30943   4.145   3.635   9.959  0.3610 -0.2009 -0.4132
  225MOL0     C30944   4.264   3.605   9.896 -0.3121  0.2292  0.3017
  225MOL0     C30945   4.355   3.712   9.868 -0.4418  0.5598  0.5813
  225MOL0     C30946   4.459   3.688   9.775  0.4186 -0.1458  0.1023
  225MOL0     C30947   4.498   3.557   9.736  0.7834 -0.0468  0.3492
  225MOL0     O30948   4.610   3.556   9.655 -0.0722  0.4004 -0.3022
  225MOL0     C30949   4.715   3.482   9.713  0.3947 -0.2051  0.1558
  225MOL0     C30950   4.783   3.554   9.822 -0.2760 -0.1374 -0.2040
  225MOL0     C30951   4.903   3.471   9.869 -0.1589 -0.4821 -0.0656
  225MOL0     C30952   5.036   3.539   9.810 -0.6403  0.6184 -0.4602
  225MOL0     C30953   5.153   3.460   9.879 -0.2616 -0.0487  0.3273
  225MOL0     C30954   5.290   3.515   9.842  0.1198 -0.4050  0.5114
  225MOL0     C30955   5.383   3.429   9.929  0.1719 -0.6568  0.7096
  225MOL0     C30956   5.517   3.426   9.864  0.2974  0.5871  0.2722
  225MOL0    Cl30957   5.612   3.332   9.972 -0.0279 -0.0223 -0.3010
  225MOL0     C30958   4.406   3.456   9.765 -0.2577 -0.8521  0.1693
  225MOL0     C30959   4.301   3.477   9.859 -0.5630  1.0524 -0.7918
  225MOL0     O30960   4.237   3.767  10.118  0.4767 -0.1201  0.3113
  225MOL0     C30961   4.000   3.875  10.211 -0.6862  0.8529 -0.5431
  225MOL0     C30962   3.881   3.901  10.275  0.6160  0.3874 -0.2781
  225MOL0     N30963   3.168   3.921   9.789  0.2751 -0.1304 -0.9746
  225MOL0     N30964   3.090   3.971   9.712  0.2552 -0.4136 -0.3942
  225MOL0     C30965   2.103   3.863   9.347  0.4862  0.5311  0.4005
  225MOL0     C30966   1.974   3.846   9.396  0.4812 -0.1437 -0.2338
  225MOL0     C30967   1.619   3.712   9.573 -0.2363 -0.0917 -0.2031
  225MOL0     C30968   1.564   3.784   9.680 -0.7008  0.4262  0.9136
  225MOL0     C30969   1.427   3.783   9.703 -0.0803  0.2131  0.7843
  225MOL0     C30970   1.342   3.702   9.623  0.6702  0.6266 -0.0819
  225MOL0     O30971   1.204   3.705   9.639 -0.2464  0.5461 -0.3719
  225MOL0     C30972   1.141   3.747   9.763 -0.0693  0.0489 -0.5157
  225MOL0     C30973   0.997   3.693   9.770  0.0307 -0.5105 -0.5772
  225MOL0     C30974   0.904   3.735   9.657  0.7806  0.4119 -0.4376
  225MOL0     C30975   0.763   3.688   9.689 -0.3269  0.0378 -0.1708
  225MOL0     C30976   0.724   3.552   9.672  0.3613 -0.1466 -0.1853
  225MOL0     C30977   0.697   3.433   9.674  0.5990 -0.1459  1.0243
  225MOL0     C30978   1.393   3.633   9.523  0.1986  0.3036 -0.3585
  225MOL0     C30979   1.532   3.632   9.490 -0.0491  0.9422  0.1952
  225MOL0     C30980   1.581   3.562   9.368 -0.8202 -0.3779 -0.2577
  225MOL0     H30981   2.032   3.916   9.731 -1.5381  2.1612 -0.2547
  225MOL0     H30982   2.274   3.926   9.634  1.7790 -2.0341 -1.8451
  225MOL0     H30983   2.302   4.029   9.253 -0.3490 -0.0046  2.4787
  225MOL0     H30984   2.378   3.874   9.202 -2.7058 -0.1695  0.8151
  225MOL0     H30985   2.575   3.939   9.266  1.0131  0.6042  1.6479
  225MOL0     H30986   2.513   4.097   9.209  0.0379 -1.6223 -1.0324
  225MOL0     H30987   2.445   4.154   9.447  0.7022  0.0814  0.7882
  225MOL0     H30988   2.546   4.022   9.508  3.2136  0.6050  0.7087
  225MOL0     H30989   2.748   4.110   9.383 -0.1704  1.0909 -2.6963
  225MOL0     H30990   2.656   4.232   9.308  1.4582 -1.2938 -1.2670
  225MOL0     H30991   2.621   4.355   9.514 -0.9548 -0.8791 -1.9678
  225MOL0     H30992   2.791   4.315   9.488  0.1236 -0.0967  2.1824
  225MOL0     H30993   2.718   4.304   9.720  0.4374  0.2836 -0.8915
  225MOL0     H30994   2.591   4.197   9.689  0.8778  0.7079  0.5088
  225MOL0     H30995   2.795   4.018   9.632  1.0448  1.7071 -2.6060
  225MOL0     H30996   2.784   4.067   9.800 -3.4952 -0.5067 -0.0029
  225MOL0     H30997   2.975   4.196   9.604  1.2962 -0.7711 -0.2644
  225MOL0     H30998   2.940   4.271   9.753 -1.0630 -0.5646 -0.5442
  225MOL0     H30999   3.069   4.191   9.956  1.3273 -0.6646  0.7570
  225MOL0     H31000   3.210   3.858  10.057  0.6184 -0.1257 -1.4213
  225MOL0     H31001   3.198   4.019  10.120 -1.5681 -1.6686  1.5671
  225MOL0     H31002   3.413   3.902   9.948 -1.5822  0.5143 -0.1143
  225MOL0     H31003   3.409   4.068  10.014  0.9116 -0.5262 -0.9513
  225MOL0     H31004   3.364   3.915  10.245 -0.4848  1.9556  0.6913
  225MOL0     H31005   3.460   3.806  10.135  0.9840 -0.5508  2.2007
  225MOL0     H31006   3.617   4.005  10.108 -3.4307 -0.0060 -1.9917
  225MOL0     H31007   3.544   4.067  10.257  0.6493  1.0588 -0.9332
  225MOL0     H31008   3.667   3.712  10.097 -1.3833  3.1906 -0.2938
  225MOL0     H31009   3.923   3.634   9.862 -3.6365 -1.9927 -3.2760
  225MOL0     H31010   3.760   3.610   9.914  0.6875  1.3937 -0.2721
  225MOL0     H31011   3.883   3.512   9.984  2.0897  0.2638  2.0838
  225MOL0     H31012   4.348   3.812   9.909  0.1784  0.2760  1.4016
  225MOL0     H31013   4.516   3.775   9.741 -0.8655  2.5074  3.9626
  225MOL0     H31014   4.685   3.384   9.750  1.5004 -1.1785 -1.3919
  225MOL0     H31015   4.797   3.476   9.641  1.0080  0.4373  0.7861
  225MOL0     H31016   4.810   3.656   9.793 -2.7342  0.5750 -0.1881
  225MOL0     H31017   4.707   3.556   9.901  0.1903 -0.6819  0.2682
  225MOL0     H31018   4.891   3.371   9.826  0.2050  1.1365 -4.4859
  225MOL0     H31019   4.896   3.459   9.977 -0.4345 -0.9768 -0.1328
  225MOL0     H31020   5.041   3.642   9.848 -0.1454 -0.4921  2.8147
  225MOL0     H31021   5.037   3.529   9.701  1.0040 -0.3273 -0.3950
  225MOL0     H31022   5.137   3.464   9.987 -2.3886  0.7235  0.0244
  225MOL0     H31023   5.142   3.355   9.849 -4.5673 -0.0875  1.3928
  225MOL0     H31024   5.298   3.622   9.863  0.0345 -0.6304  1.7790
  225MOL0     H31025   5.316   3.503   9.737 -2.1880  3.4219 -0.7381
  225MOL0     H31026   5.370   3.320   9.922  1.2044 -0.7060 -2.0812
  225MOL0     H31027   5.393   3.465  10.031  1.3311  1.3450 -0.0583
  225MOL0     H31028   5.558   3.527   9.863 -3.7905  2.4323  0.1007
  225MOL0     H31029   5.510   3.389   9.761 -0.5633  3.3174 -0.7316
  225MOL0     H31030   4.433   3.361   9.721  0.4782 -0.9938  0.8984
  225MOL0     H31031   4.225   3.401   9.876 -2.6505  2.7195 -2.0104
  225MOL0     H31032   4.082   3.938  10.246 -1.4322  0.7598  1.5005
  225MOL0     H31033   3.866   3.981  10.347 -1.8434  0.0864 -0.3676
  225MOL0     H31034   2.125   3.863   9.241  2.0550  0.6438  0.6980
  225MOL0     H31035   1.893   3.810   9.333 -0.5318  1.9909 -0.2107
  225MOL0     H31036   1.617   3.845   9.753 -1.3368  2.8667 -0.5390
  225MOL0     H31037   1.388   3.815   9.799 -0.0147  1.6025  0.3674
  225MOL0     H31038   1.188   3.703   9.851  0.9651  2.1617  0.0655
  225MOL0     H31039   1.141   3.857   9.766  1.6731  0.0595  1.2559
  225MOL0     H31040   0.961   3.736   9.864  4.3988  1.1820  0.5692
  225MOL0     H31041   0.999   3.584   9.778 -1.6650 -0.4117  3.4281
  225MOL0     H31042   0.906   3.845   9.654  1.9652  0.3799 -1.5838
  225MOL0     H31043   0.929   3.695   9.558  0.5299  0.9769 -0.7327
  225MOL0     H31044   0.709   3.748   9.615  2.0905 -0.7156 -2.7080
  225MOL0     H31045   0.734   3.709   9.792  3.0103 -2.4307  1.4507
  225MOL0     H31046   0.673   3.329   9.684 -1.0722 -0.2842 -2.7238
  225MOL0     H31047   1.316   3.575   9.473 -1.9670 -2.2427  5.0037
  225MOL0     H31048   1.657   3.629   9.328  1.2260 -1.8483  0.9635
  225MOL0     H31049   1.635   3.473   9.400 -0.2374  0.7232  1.9959
  225MOL0     H31050   1.502   3.543   9.294 -0.0715  0.0847 -1.1884
  226MOL0     O31051   5.564   4.974   9.366 -0.7902 -1.0130  0.0070
  226MOL0     C31052   5.612   5.080   9.402 -0.2509 -0.0023  0.6572
  226MOL0     O31053   5.737   5.109   9.394  0.2845 -0.1145 -0.3647
  226MOL0     C31054   5.830   5.029   9.328  0.9111  0.1329  0.7013
  226MOL0     C31055   5.882   4.925   9.398 -0.1206 -0.2869  0.1949
  226MOL0     C31056   5.981   4.849   9.340  0.2855 -0.6425 -0.9159
  226MOL0     C31057   6.022   4.864   9.212 -0.4116  0.2961  0.4047
  226MOL0     O31058   6.102   4.767   9.169 -0.3805  0.5773 -0.6021
  226MOL0     C31059   6.157   4.776   9.031  0.3911  0.0602  0.0707
  226MOL0     C31060   6.256   4.885   9.014  0.1870 -0.7856  0.5580
  226MOL0     C31061   6.368   4.868   9.120  0.2285 -0.8885 -0.3541
  226MOL0     C31062   6.435   4.733   9.139  0.4554  0.1510 -0.1552
  226MOL0     C31063   6.517   4.729   9.269 -0.9326  0.0345  0.8197
  226MOL0     C31064   6.599   4.597   9.266  0.5667  0.0298 -0.1122
  226MOL0     C31065   6.713   4.598   9.362  0.6156  0.8026 -0.3839
  226MOL0     C31066   6.671   4.625   9.512  0.1959  0.5419  0.1998
  226MOL0     N31067   6.785   4.622   9.607 -0.1355  0.1175 -0.1326
  226MOL0     C31068   6.888   4.530   9.609  0.6724 -0.4264 -0.5718
  226MOL0     C31069   6.967   4.559   9.711  0.4258 -0.1232  0.2540
  226MOL0     C31070   7.103   4.505   9.747 -0.7000  0.4308  0.6401
  226MOL0     C31071   7.211   4.614   9.759 -0.4352  0.4128  0.5235
  226MOL0     C31072   7.343   4.560   9.809 -0.2330  0.3783  0.0429
  226MOL0     C31073   7.455   4.666   9.786 -0.3064 -0.0465  0.4530
  226MOL0     O31074   7.564   4.652   9.878  0.0730 -0.1962 -0.1875
  226MOL0     C31075   7.650   4.759   9.881  0.3268  0.2810 -0.2388
  226MOL0     C31076   7.660   4.862   9.786  0.7020  0.1973 -0.4205
  226MOL0     C31077   7.751   4.965   9.792  0.5297  0.0535  0.2368
  226MOL0     C31078   7.763   5.064   9.676  1.1008  0.6603 -0.1387
  226MOL0     C31079   7.847   4.965   9.894 -1.1462 -0.0608  0.6719
  226MOL0     C31080   7.958   5.066   9.903 -0.3725 -0.7859  0.0932
  226MOL0     O31081   7.945   5.192   9.843  0.6933  0.2134  0.1657
  226MOL0     C31082   8.070   5.236   9.806 -0.1804 -0.5197  0.2185
  226MOL0     C31083   8.128   5.211   9.687 -0.1946  0.2879 -0.4356
  226MOL0     C31084   8.258   5.248   9.657 -0.0244 -0.2393 -0.4564
  226MOL0     C31085   8.335   5.315   9.757 -0.1447 -0.3654 -0.2713
  226MOL0     O31086   8.456   5.378   9.725 -0.1559  0.3737 -0.3367
  226MOL0     C31087   8.437   5.506   9.663  0.7014  0.1770 -0.4807
  226MOL0     C31088   8.560   5.558   9.591 -0.4554  0.2132  0.0357
  226MOL0     C31089   8.541   5.676   9.498  0.2766 -0.3623  0.3820
  226MOL0     C31090   8.516   5.800   9.573 -0.2557 -0.2928 -0.5220
  226MOL0     C31091   8.493   5.921   9.478 -0.2280  0.0284  0.3520
  226MOL0     C31092   8.477   6.062   9.553  0.3341 -0.4281 -0.2787
  226MOL0     C31093   8.331   6.090   9.600 -0.3063  0.2764  0.0441
  226MOL0     C31094   8.326   6.199   9.701  0.1340  0.3633 -0.1355
  226MOL0    Cl31095   8.157   6.253   9.716  0.2011 -0.6432 -0.0538
  226MOL0     C31096   8.283   5.337   9.891  0.7805  0.6364  0.2063
  226MOL0     C31097   8.146   5.305   9.903  0.1769  0.3723  0.1152
  226MOL0     O31098   8.054   5.023   9.971 -0.0277  0.2546  0.7882
  226MOL0     C31099   7.835   4.864   9.994  0.3467 -0.1401  0.1049
  226MOL0     C31100   7.739   4.762   9.985  0.7410  0.0209  0.5427
  226MOL0     N31101   6.910   4.671   9.776 -0.6038 -0.7743 -0.4748
  226MOL0     N31102   6.806   4.704   9.711 -0.7635  0.3028 -0.8098
  226MOL0     C31103   5.967   4.977   9.144 -0.0264  0.1723  1.0764
  226MOL0     C31104   5.866   5.054   9.195  0.0884 -0.2170 -0.1471
  226MOL0     C31105   5.524   5.203   9.426  0.1851  0.5078  0.4583
  226MOL0     C31106   5.573   5.325   9.403  0.6945 -0.6682  0.0324
  226MOL0     C31107   5.494   5.436   9.422  0.8051 -0.1352 -0.5654
  226MOL0     C31108   5.358   5.433   9.458 -0.5055  0.4037 -0.7500
  226MOL0     O31109   5.285   5.547   9.485  0.2330  0.0669  0.8195
  226MOL0     C31110   5.142   5.536   9.525 -0.0983  0.6421  0.8052
  226MOL0     C31111   5.071   5.680   9.525 -0.5586 -0.6878 -0.1839
  226MOL0     C31112   5.159   5.794   9.575  1.1951  0.3873  0.0324
  226MOL0     C31113   5.104   5.931   9.553 -0.1136  0.3400  0.4768
  226MOL0     C31114   4.980   5.965   9.631  1.4211  0.1633 -0.5254
  226MOL0     C31115   4.877   5.996   9.682 -0.4201 -0.5274  0.3431
  226MOL0     C31116   5.310   5.301   9.486  0.4956 -0.2810 -0.4655
  226MOL0     C31117   5.389   5.186   9.469 -1.1480  0.2145  0.0327
  226MOL0     C31118   5.337   5.052   9.511 -0.3414  0.4201 -0.8462
  226MOL0     H31119   5.855   4.903   9.501 -1.0361 -0.2441 -0.0263
  226MOL0     H31120   6.031   4.770   9.397  1.8676  1.2654  0.4896
  226MOL0     H31121   6.074   4.773   8.959 -0.4584  0.7103  0.9926
  226MOL0     H31122   6.217   4.688   9.008 -0.1052 -0.8089  1.8435
  226MOL0     H31123   6.290   4.892   8.910  2.9394  1.9255  1.4790
  226MOL0     H31124   6.215   4.986   9.027 -1.0156 -0.4892 -3.8515
  226MOL0     H31125   6.453   4.933   9.097 -0.4987  0.0432 -0.5206
  226MOL0     H31126   6.320   4.901   9.212 -0.0250  1.1573 -1.1618
  226MOL0     H31127   6.360   4.653   9.140  0.3356  0.1613 -2.8414
  226MOL0     H31128   6.495   4.703   9.053  0.1649  0.6684 -0.5419
  226MOL0     H31129   6.444   4.735   9.350  0.3806  1.5724  1.9380
  226MOL0     H31130   6.582   4.817   9.274  0.7250 -0.9281 -1.7353
  226MOL0     H31131   6.541   4.506   9.288 -0.3127  0.9382  1.4880
  226MOL0     H31132   6.643   4.583   9.167  1.4443  0.7597  0.1701
  226MOL0     H31133   6.795   4.663   9.328 -0.2089  2.3306  0.4525
  226MOL0     H31134   6.757   4.498   9.357  0.2041  0.6425 -1.0130
  226MOL0     H31135   6.619   4.721   9.523 -2.8858 -1.2020  2.7006
  226MOL0     H31136   6.600   4.546   9.537  0.1037 -1.2604 -4.5716
  226MOL0     H31137   6.908   4.444   9.546  2.3160 -0.3195 -0.2473
  226MOL0     H31138   7.131   4.436   9.667 -1.5209  1.0194 -0.1761
  226MOL0     H31139   7.104   4.441   9.836  0.0116  1.3863  1.3447
  226MOL0     H31140   7.233   4.647   9.657  3.0122 -0.2697  0.9385
  226MOL0     H31141   7.183   4.703   9.817  3.0342 -0.4628  3.8863
  226MOL0     H31142   7.338   4.522   9.912  0.6521 -1.8789 -0.6857
  226MOL0     H31143   7.365   4.470   9.751 -2.5991 -1.5240  1.8627
  226MOL0     H31144   7.486   4.668   9.681  2.8444 -0.1551  1.2785
  226MOL0     H31145   7.411   4.764   9.805 -1.3946 -0.0801 -1.6043
  226MOL0     H31146   7.588   4.864   9.705 -0.0854  2.0057  0.2710
  226MOL0     H31147   7.701   5.018   9.599 -1.9081  0.5131  2.1836
  226MOL0     H31148   7.867   5.068   9.642  1.2317  0.7977  0.2631
  226MOL0     H31149   7.721   5.162   9.701  0.9400 -0.2525  4.0228
  226MOL0     H31150   8.060   5.167   9.614 -1.1585  0.9853  0.0089
  226MOL0     H31151   8.283   5.226   9.554 -0.6893 -0.0241 -0.6673
  226MOL0     H31152   8.367   5.489   9.581 -0.8171  2.4336  0.2730
  226MOL0     H31153   8.387   5.582   9.723  1.6664  0.4369  0.0189
  226MOL0     H31154   8.637   5.596   9.659 -0.1515  0.3147 -0.3629
  226MOL0     H31155   8.601   5.476   9.532 -0.5542  1.0693 -1.2568
  226MOL0     H31156   8.458   5.652   9.431  0.4694 -2.1468  0.7268
  226MOL0     H31157   8.627   5.687   9.431 -0.5657 -3.1627 -1.3367
  226MOL0     H31158   8.599   5.819   9.642 -0.2923 -3.2883  0.5071
  226MOL0     H31159   8.430   5.787   9.639 -1.9997  2.6410 -2.0308
  226MOL0     H31160   8.573   5.938   9.405 -0.7273 -0.1372 -0.2535
  226MOL0     H31161   8.401   5.906   9.420  0.5725 -0.2038 -0.9117
  226MOL0     H31162   8.510   6.130   9.473  1.0704 -0.4167  0.0303
  226MOL0     H31163   8.551   6.076   9.632  3.3290 -0.0078 -2.9364
  226MOL0     H31164   8.293   5.995   9.637  0.8941 -0.3581 -0.3302
  226MOL0     H31165   8.279   6.117   9.508  2.1325  1.0270 -1.1947
  226MOL0     H31166   8.396   6.278   9.672  0.9425  0.2350  1.3557
  226MOL0     H31167   8.361   6.161   9.798  1.9011  3.0199  0.3873
  226MOL0     H31168   8.332   5.386   9.974  0.7861 -1.1413  1.2931
  226MOL0     H31169   8.099   5.312  10.000  0.1722  2.2833  0.0158
  226MOL0     H31170   7.902   4.850  10.079 -1.3574 -0.2950  1.4803
  226MOL0     H31171   7.742   4.696  10.071 -2.7780  3.8013  4.0636
  226MOL0     H31172   5.991   4.987   9.038 -3.3718 -0.4787  0.1188
  226MOL0     H31173   5.820   5.139   9.147  0.7885 -1.0105 -2.3839
  226MOL0     H31174   5.675   5.347   9.374  0.9463 -1.6212  0.1839
  226MOL0     H31175   5.544   5.532   9.413  0.8602 -0.1874 -0.8174
  226MOL0     H31176   5.089   5.481   9.446  2.4921  0.9015 -1.2461
  226MOL0     H31177   5.135   5.479   9.618  0.9064 -0.5387  0.1964
  226MOL0     H31178   4.980   5.665   9.585  0.5408 -2.3737  1.1498
  226MOL0     H31179   5.040   5.704   9.423  1.4259 -0.4958 -0.7683
  226MOL0     H31180   5.183   5.802   9.681  3.5713  0.0486 -0.4270
  226MOL0     H31181   5.258   5.787   9.530  1.4193  0.0920  0.5570
  226MOL0     H31182   5.079   5.946   9.447 -0.8218  2.1419  0.8673
  226MOL0     H31183   5.189   5.997   9.574  1.8477 -1.3408 -1.5849
  226MOL0     H31184   4.784   6.034   9.719 -1.4145 -0.3228 -2.1871
  226MOL0     H31185   5.212   5.291   9.533  1.3445 -0.5276  1.3193
  226MOL0     H31186   5.306   4.994   9.424  0.4968 -0.2388 -0.7209
  226MOL0     H31187   5.424   5.011   9.565  1.0111  1.5052 -2.1143
  226MOL0     H31188   5.252   5.058   9.580 -0.8608  0.9081 -1.5232
  227MOL0     O31189   5.877   8.948   9.290 -0.0395  0.5536 -0.0971
  227MOL0     C31190   5.820   8.918   9.392  1.3375  0.3025  0.3951
  227MOL0     O31191   5.860   8.943   9.523 -0.2066  0.3365  0.8333
  227MOL0     C31192   5.983   9.011   9.534  0.5475  0.3755  0.3856
  227MOL0     C31193   5.994   9.117   9.620 -0.1890  0.9828 -0.6568
  227MOL0     C31194   6.115   9.179   9.644 -0.2515 -0.8446  1.0857
  227MOL0     C31195   6.232   9.136   9.579  0.2218 -0.6666 -0.1575
  227MOL0     O31196   6.355   9.180   9.601  0.3921  0.5362 -0.3494
  227MOL0     C31197   6.391   9.318   9.566  0.5212  0.4554  0.8231
  227MOL0     C31198   6.464   9.380   9.681 -0.7007 -0.9876 -0.5412
  227MOL0     C31199   6.389   9.395   9.814 -0.4161 -0.0629  0.5052
  227MOL0     C31200   6.279   9.504   9.795  0.8075 -0.0319 -0.5018
  227MOL0     C31201   6.192   9.510   9.917  0.3633  0.7213  0.2187
  227MOL0     C31202   6.091   9.622   9.902 -0.6274 -0.5748 -0.6989
  227MOL0     C31203   5.986   9.608  10.012 -0.3382 -0.5043 -0.2218
  227MOL0     C31204   5.925   9.746  10.039 -0.0949 -0.5978  0.2493
  227MOL0     N31205   5.788   9.737  10.090 -0.2903  0.5030 -0.7127
  227MOL0     C31206   5.688   9.816  10.044  0.5993  0.5409  0.4440
  227MOL0     C31207   5.590   9.808  10.143 -0.0072 -0.2670 -0.2725
  227MOL0     C31208   5.448   9.858  10.141  0.3237 -0.1260  0.1093
  227MOL0     C31209   5.416   9.961  10.246 -0.3958 -0.9549  0.0364
  227MOL0     C31210   5.265   9.986  10.262 -0.5031 -0.7745  0.4224
  227MOL0     C31211   5.193   9.915  10.368 -0.0250 -0.4312 -0.4245
  227MOL0     O31212   5.191   9.775  10.335  0.4679  0.4972  0.2999
  227MOL0     C31213   5.115   9.695  10.415 -0.6440 -0.2846  0.2536
  227MOL0     C31214   5.168   9.574  10.442  0.0056  0.2919 -0.1540
  227MOL0     C31215   5.098   9.476  10.517  0.1317  0.4479  0.0736
  227MOL0     C31216   5.155   9.336  10.525 -0.3492  0.5710  0.2942
  227MOL0     C31217   4.969   9.508  10.571  0.8162  0.0903  0.7281
  227MOL0     C31218   4.880   9.409  10.637  0.1627  0.4916 -0.2946
  227MOL0     O31219   4.938   9.326  10.723  0.0359  0.5457  0.6316
  227MOL0     C31220   4.866   9.262  10.824  1.0231  0.0064 -0.2044
  227MOL0     C31221   4.847   9.121  10.808 -0.1439  0.5499 -1.0206
  227MOL0     C31222   4.781   9.052  10.912  0.4070  0.1357  0.1600
  227MOL0     C31223   4.718   9.119  11.022  0.1239 -0.1072  0.1900
  227MOL0     O31224   4.638   9.063  11.114  0.1507  0.9456  0.2215
  227MOL0     C31225   4.597   8.926  11.105 -1.1126  0.5370  0.4620
  227MOL0     C31226   4.522   8.869  11.219  0.9305 -0.1482  0.1416
  227MOL0     C31227   4.411   8.970  11.243 -0.1016  0.3133  0.2881
  227MOL0     C31228   4.293   8.908  11.314  0.1092 -0.0182  0.6004
  227MOL0     C31229   4.198   9.014  11.384  0.4073 -0.4605  0.2621
  227MOL0     C31230   4.127   9.106  11.283 -0.6061 -0.5648  0.4866
  227MOL0     C31231   4.034   9.200  11.366 -0.1391 -0.3122 -0.1213
  227MOL0     C31232   4.006   9.329  11.285 -0.1591 -0.1161 -0.6666
  227MOL0    Cl31233   3.912   9.427  11.398  0.6942  0.0816 -0.2115
  227MOL0     C31234   4.739   9.261  11.040 -0.6208  0.3268 -0.3310
  227MOL0     C31235   4.816   9.326  10.938  0.1697  0.7609  0.0462
  227MOL0     O31236   4.758   9.430  10.628  0.2934 -0.2366  1.0711
  227MOL0     C31237   4.915   9.638  10.545  0.6439  0.3954  0.8037
  227MOL0     C31238   4.984   9.724  10.454  0.2565  0.3879  0.0735
  227MOL0     N31239   5.636   9.723  10.247 -0.8229  0.2215 -0.5418
  227MOL0     N31240   5.756   9.685  10.214 -0.3493  0.4422 -0.4131
  227MOL0     C31241   6.222   9.034   9.498  0.3453  0.2881  0.6916
  227MOL0     C31242   6.101   8.968   9.469  0.9651  0.1430  0.3567
  227MOL0     C31243   5.694   8.841   9.392  1.9194  0.1353 -0.9251
  227MOL0     C31244   5.618   8.830   9.510  0.5090 -0.5621 -0.0609
  227MOL0     C31245   5.482   8.777   9.504  1.0877 -0.2197 -0.0597
  227MOL0     C31246   5.429   8.736   9.381  0.3768  0.2115 -0.7518
  227MOL0     O31247   5.298   8.688   9.372 -0.0583 -0.1157 -0.2303
  227MOL0     C31248   5.191   8.758   9.445  0.0594  0.6036 -0.4405
  227MOL0     C31249   5.062   8.696   9.390  0.1106 -0.0800 -0.2004
  227MOL0     C31250   5.054   8.688   9.231  0.1084  0.0977  0.6438
  227MOL0     C31251   4.938   8.607   9.172  0.3696  0.4370  0.5748
  227MOL0     C31252   4.809   8.663   9.210  0.9295  0.4505 -0.0610
  227MOL0     C31253   4.700   8.705   9.237  0.7317 -0.1093  1.6325
  227MOL0     C31254   5.508   8.738   9.267 -0.3647  0.3470 -0.7023
  227MOL0     C31255   5.640   8.791   9.271  0.6102 -0.0318 -0.1500
  227MOL0     C31256   5.704   8.775   9.134  0.6503 -0.7536 -0.2406
  227MOL0     H31257   5.900   9.137   9.668 -0.1287  1.4219 -0.7250
  227MOL0     H31258   6.117   9.270   9.702 -0.0588  0.7784 -1.3258
  227MOL0     H31259   6.297   9.371   9.550 -0.1012 -0.7069  0.5369
  227MOL0     H31260   6.445   9.320   9.470 -0.4615  1.2990  0.2628
  227MOL0     H31261   6.550   9.314   9.697 -0.0691  0.0967  0.7508
  227MOL0     H31262   6.501   9.479   9.652 -0.7551 -0.5562  0.7776
  227MOL0     H31263   6.346   9.297   9.838  0.5850 -0.5984  0.1513
  227MOL0     H31264   6.457   9.416   9.898  1.2788 -1.1594 -0.5317
  227MOL0     H31265   6.332   9.599   9.786 -0.3811  0.7303  0.3542
  227MOL0     H31266   6.220   9.482   9.706  1.5547  0.3512 -1.1032
  227MOL0     H31267   6.244   9.532  10.011  2.0857 -1.5908 -0.0930
  227MOL0     H31268   6.150   9.412   9.944 -1.0652  1.1510 -0.3383
  227MOL0     H31269   6.149   9.713   9.915  0.4584 -1.5188  1.4328
  227MOL0     H31270   6.050   9.619   9.800 -2.0401 -0.3095 -0.1722
  227MOL0     H31271   6.030   9.577  10.107  0.9918  1.8039 -0.0183
  227MOL0     H31272   5.915   9.536   9.970 -0.9151  0.4554 -0.9355
  227MOL0     H31273   5.982   9.803  10.114  0.7142  2.1194 -2.2187
  227MOL0     H31274   5.929   9.818   9.956  0.0904 -0.0725  0.7035
  227MOL0     H31275   5.682   9.856   9.944  0.4354  0.0030  0.2354
  227MOL0     H31276   5.384   9.770  10.148 -0.4423  0.2528 -1.6505
  227MOL0     H31277   5.436   9.895  10.039  1.3036 -0.0795  0.0070
  227MOL0     H31278   5.450   9.934  10.347 -0.2515  0.0898  0.2848
  227MOL0     H31279   5.459  10.059  10.224  0.9821 -1.3279  0.9033
  227MOL0     H31280   5.261  10.094  10.281  1.1730  0.0018 -2.9849
  227MOL0     H31281   5.217   9.967  10.166 -2.4024  0.8671  0.9701
  227MOL0     H31282   5.235   9.937  10.467  1.0914  1.1953 -1.2169
  227MOL0     H31283   5.091   9.953  10.377  0.9233  1.7800  2.7102
  227MOL0     H31284   5.267   9.556  10.403  0.4108  0.4628  0.7612
  227MOL0     H31285   5.261   9.330  10.500 -0.7225  2.8086 -2.3021
  227MOL0     H31286   5.097   9.267  10.464 -0.9056  0.7805  0.5750
  227MOL0     H31287   5.148   9.301  10.629  0.9024  1.2157  0.6187
  227MOL0     H31288   4.879   9.067  10.720 -2.0288  0.8977 -1.9774
  227MOL0     H31289   4.768   8.945  10.901 -2.1229  0.4858 -0.9819
  227MOL0     H31290   4.543   8.904  11.012 -0.0487 -2.9894  0.5288
  227MOL0     H31291   4.678   8.853  11.098  2.0272  3.6390  1.6318
  227MOL0     H31292   4.467   8.781  11.184 -0.6439  1.2134 -1.0026
  227MOL0     H31293   4.584   8.856  11.308 -0.1911 -0.1515  0.9421
  227MOL0     H31294   4.372   9.008  11.148 -0.7227 -2.3002 -0.5928
  227MOL0     H31295   4.442   9.050  11.310 -2.1731  0.1984  1.4976
  227MOL0     H31296   4.342   8.849  11.393  0.0647 -1.5309 -0.4639
  227MOL0     H31297   4.236   8.844  11.247  0.4356 -0.4576  0.7422
  227MOL0     H31298   4.138   8.954  11.454  3.1499 -1.3324  2.0412
  227MOL0     H31299   4.253   9.083  11.450  0.0150 -0.8206  0.9847
  227MOL0     H31300   4.064   9.043  11.219  0.2792  0.0051 -1.0061
  227MOL0     H31301   4.186   9.167  11.214 -2.7817 -0.3986 -1.3686
  227MOL0     H31302   4.086   9.233  11.456  1.1871 -0.3681 -0.8436
  227MOL0     H31303   3.943   9.146  11.395 -1.4650  1.0898 -1.5076
  227MOL0     H31304   3.950   9.307  11.194 -4.2632 -0.3787  1.6367
  227MOL0     H31305   4.098   9.384  11.264  0.7407 -1.3659 -0.0854
  227MOL0     H31306   4.707   9.313  11.129  1.8720  1.2185  0.1137
  227MOL0     H31307   4.835   9.433  10.943  0.5946  0.7548 -1.2316
  227MOL0     H31308   4.817   9.665  10.583  0.2882  1.3020 -0.6381
  227MOL0     H31309   4.945   9.824  10.435  2.3718  1.3092  0.2116
  227MOL0     H31310   6.311   8.985   9.457 -0.7677 -0.5086 -0.8650
  227MOL0     H31311   6.103   8.876   9.411  0.9082 -1.5357  2.8479
  227MOL0     H31312   5.654   8.862   9.607  3.0117 -3.9562  0.3258
  227MOL0     H31313   5.418   8.769   9.591  0.1182 -2.9944 -0.9228
  227MOL0     H31314   5.193   8.744   9.553  1.5931  1.1114 -0.3756
  227MOL0     H31315   5.195   8.865   9.419 -3.9246  0.6087 -1.6146
  227MOL0     H31316   4.976   8.748   9.434  0.1786 -0.3007  0.1892
  227MOL0     H31317   5.054   8.591   9.419  1.4589  0.4174  2.1978
  227MOL0     H31318   5.060   8.789   9.190  0.0387 -0.2384 -0.2229
  227MOL0     H31319   5.138   8.634   9.188 -0.2525 -0.3811  0.5387
  227MOL0     H31320   4.948   8.503   9.202  0.5289  0.8061  1.8320
  227MOL0     H31321   4.946   8.598   9.063 -0.3975 -0.7955  0.6037
  227MOL0     H31322   4.600   8.739   9.257  0.1785 -0.6683  0.0509
  227MOL0     H31323   5.458   8.716   9.173 -0.6253  2.5213 -1.1472
  227MOL0     H31324   5.690   8.870   9.081 -1.9566 -0.6805  0.4356
  227MOL0     H31325   5.810   8.762   9.156  0.2454 -1.8974  1.1730
  227MOL0     H31326   5.673   8.690   9.073  0.3894  0.4915 -1.9414
  228MOL0     O31327   5.358   4.517   4.617  0.3494 -0.2826 -0.2956
  228MOL0     C31328   5.300   4.598   4.689 -0.9578  0.6569 -0.4350
  228MOL0     O31329   5.368   4.691   4.761  0.4749  0.1134 -0.2311
  228MOL0     C31330   5.505   4.698   4.743  0.1741 -0.1001 -0.6366
  228MOL0     C31331   5.553   4.764   4.626 -0.4731 -0.1669 -0.6335
  228MOL0     C31332   5.683   4.782   4.601 -0.2826 -0.6709 -0.1224
  228MOL0     C31333   5.774   4.732   4.691 -1.1623  0.1474  0.0144
  228MOL0     O31334   5.907   4.744   4.665  0.4042 -0.1710 -0.3683
  228MOL0     C31335   6.002   4.758   4.765 -0.2870 -0.2324 -0.4272
  228MOL0     C31336   6.139   4.800   4.709  0.1341  0.5661  0.2947
  228MOL0     C31337   6.139   4.941   4.657 -0.3655 -0.3285 -1.0771
  228MOL0     C31338   6.282   4.976   4.608 -0.7288 -0.1401  0.7183
  228MOL0     C31339   6.286   5.084   4.504  1.2585  0.2692 -0.3905
  228MOL0     C31340   6.424   5.110   4.444 -0.1767 -0.1347  0.2481
  228MOL0     C31341   6.499   4.989   4.379 -0.6194 -0.8907  0.7569
  228MOL0     C31342   6.639   5.038   4.346  0.8258 -0.0220 -0.9304
  228MOL0     N31343   6.724   4.920   4.336  0.0335 -1.1428  0.4389
  228MOL0     C31344   6.859   4.921   4.382 -0.3644  0.1781  0.0434
  228MOL0     C31345   6.898   4.787   4.358 -0.3377 -0.0571  0.6553
  228MOL0     C31346   7.034   4.737   4.367 -0.3111 -0.2059 -0.4227
  228MOL0     C31347   7.132   4.814   4.462  0.0652 -0.3554 -0.2726
  228MOL0     C31348   7.110   4.787   4.611  1.4421 -0.5057 -0.0689
  228MOL0     C31349   7.192   4.878   4.707 -0.0202  0.1327 -0.8230
  228MOL0     O31350   7.212   5.013   4.664 -0.1552 -0.0978 -0.4925
  228MOL0     C31351   7.310   5.092   4.712 -0.6316  0.7779 -0.9479
  228MOL0     C31352   7.352   5.082   4.845  0.6900  0.4062 -0.1268
  228MOL0     C31353   7.453   5.170   4.895 -0.4733  0.0384 -0.3645
  228MOL0     C31354   7.498   5.141   5.036  0.8149 -0.4312  0.8418
  228MOL0     C31355   7.500   5.273   4.815  0.0512 -0.2624  0.1591
  228MOL0     C31356   7.607   5.372   4.848  0.9326  0.1590 -0.2933
  228MOL0     O31357   7.661   5.437   4.748  0.4393 -0.0467 -1.0876
  228MOL0     C31358   7.790   5.474   4.751 -0.5753 -0.0842 -0.1381
  228MOL0     C31359   7.888   5.413   4.826  0.4426  0.0639 -0.1745
  228MOL0     C31360   8.016   5.469   4.829 -0.4191 -0.5824 -1.0224
  228MOL0     C31361   8.045   5.581   4.757 -0.6369 -0.1956  0.3006
  228MOL0     O31362   8.176   5.626   4.757  0.4951  0.2154  0.0059
  228MOL0     C31363   8.218   5.751   4.723  0.4583 -0.3834  0.0384
  228MOL0     C31364   8.256   5.772   4.575  0.2698  0.2748 -0.2574
  228MOL0     C31365   8.331   5.903   4.558 -0.0376 -0.5268 -0.7781
  228MOL0     C31366   8.439   5.891   4.453  0.0634  0.3513 -0.0675
  228MOL0     C31367   8.513   6.021   4.434 -0.4590  0.3220 -0.3910
  228MOL0     C31368   8.599   6.039   4.307  0.9896  1.1978 -0.4570
  228MOL0     C31369   8.745   6.013   4.333 -0.0311  0.3859 -0.7789
  228MOL0     C31370   8.829   6.063   4.213 -0.0528  0.5508  0.5016
  228MOL0    Cl31371   8.847   6.233   4.235 -0.2486  0.0296  0.3499
  228MOL0     C31372   7.942   5.649   4.682  0.3220  0.1215 -0.2616
  228MOL0     C31373   7.815   5.595   4.683  0.5657  0.4453 -0.9208
  228MOL0     O31374   7.644   5.380   4.965  1.2205 -0.7108  0.0594
  228MOL0     C31375   7.443   5.287   4.688  0.4648  0.2501  0.0814
  228MOL0     C31376   7.352   5.197   4.636  0.0830 -0.4026 -0.8729
  228MOL0     N31377   6.787   4.719   4.310  0.0188  0.2835  0.2140
  228MOL0     N31378   6.693   4.796   4.290 -0.1694 -0.7265  0.0731
  228MOL0     C31379   5.728   4.675   4.813 -0.0643 -0.3701  0.6602
  228MOL0     C31380   5.593   4.652   4.842  0.1533 -0.5900  0.2608
  228MOL0     C31381   5.151   4.579   4.713 -0.6453  0.1593 -0.6981
  228MOL0     C31382   5.088   4.691   4.755 -0.3276 -0.5132 -0.1873
  228MOL0     C31383   4.948   4.686   4.761 -0.2850 -0.1988  0.1437
  228MOL0     C31384   4.874   4.565   4.750  0.2915  0.0649  0.4446
  228MOL0     O31385   4.740   4.578   4.761  0.0255 -0.2336 -0.2789
  228MOL0     C31386   4.662   4.484   4.687  0.9337 -0.7022  0.7291
  228MOL0     C31387   4.578   4.576   4.600 -0.3812 -0.5811 -0.5206
  228MOL0     C31388   4.445   4.619   4.660 -0.2633  0.5679 -0.2525
  228MOL0     C31389   4.342   4.511   4.672 -0.3205 -0.2167  0.0619
  228MOL0     C31390   4.309   4.459   4.535 -0.2703 -1.1282  0.1806
  228MOL0     C31391   4.284   4.419   4.424  0.6742  0.8315 -0.4840
  228MOL0     C31392   4.946   4.445   4.727  0.9043  0.0645 -1.0589
  228MOL0     C31393   5.083   4.452   4.700 -0.6356  1.0513  0.2070
  228MOL0     C31394   5.152   4.329   4.650 -0.3180 -0.5065  0.4573
  228MOL0     H31395   5.470   4.795   4.564 -2.1434  1.3333  2.1395
  228MOL0     H31396   5.719   4.834   4.513 -2.8772 -1.4100 -1.7282
  228MOL0     H31397   6.014   4.666   4.823 -0.1861 -0.0842 -0.2144
  228MOL0     H31398   5.971   4.838   4.833 -1.5425 -0.7606 -0.3398
  228MOL0     H31399   6.211   4.802   4.792 -0.1922 -0.8369  0.6297
  228MOL0     H31400   6.175   4.722   4.642  0.3057  1.3600 -0.5598
  228MOL0     H31401   6.056   4.957   4.587 -1.0179  0.7815 -0.0776
  228MOL0     H31402   6.108   5.012   4.733  0.8812 -1.2245  0.3264
  228MOL0     H31403   6.343   5.016   4.688  1.5118  1.1766 -1.5150
  228MOL0     H31404   6.330   4.884   4.574  0.6767  0.0996  1.9783
  228MOL0     H31405   6.227   5.169   4.539 -0.3128 -1.3078  0.9671
  228MOL0     H31406   6.231   5.044   4.418  0.8465 -1.2357  0.5544
  228MOL0     H31407   6.411   5.185   4.365  3.4662 -0.0020 -0.4218
  228MOL0     H31408   6.481   5.165   4.518 -0.1798  0.7988 -0.4231
  228MOL0     H31409   6.433   4.954   4.300 -0.4858 -0.1669  0.3125
  228MOL0     H31410   6.510   4.906   4.449 -1.5640  0.0782  2.1106
  228MOL0     H31411   6.640   5.086   4.247  1.6162 -0.6982 -1.2631
  228MOL0     H31412   6.680   5.108   4.419 -3.4231 -0.2737  1.9938
  228MOL0     H31413   6.922   4.997   4.427  1.1904  0.4093 -2.3462
  228MOL0     H31414   7.070   4.737   4.264  0.5578  1.4727 -0.1477
  228MOL0     H31415   7.029   4.635   4.406  1.0573  0.2058  0.9651
  228MOL0     H31416   7.238   4.796   4.444  0.4284  0.2012  1.1748
  228MOL0     H31417   7.129   4.921   4.440  0.8422 -0.9654 -3.9793
  228MOL0     H31418   7.006   4.812   4.631  1.8601  0.1578  1.4249
  228MOL0     H31419   7.129   4.681   4.633 -1.0322 -0.7760  1.0638
  228MOL0     H31420   7.138   4.888   4.802  3.0158 -1.4162  1.2452
  228MOL0     H31421   7.293   4.839   4.724 -0.1556 -0.4398 -1.3075
  228MOL0     H31422   7.304   5.010   4.911  1.0665  3.4845  3.9201
  228MOL0     H31423   7.600   5.103   5.030  0.6585 -0.8311  0.6516
  228MOL0     H31424   7.426   5.066   5.071 -0.2872 -0.1824 -0.7596
  228MOL0     H31425   7.476   5.229   5.097 -2.8541 -1.1657  0.8405
  228MOL0     H31426   7.880   5.319   4.879  1.1317  1.3596  2.3814
  228MOL0     H31427   8.084   5.418   4.896  1.2992  2.4942 -0.2169
  228MOL0     H31428   8.144   5.825   4.755  0.0508 -0.5107 -0.6021
  228MOL0     H31429   8.314   5.763   4.774  0.3145  1.0188  0.0339
  228MOL0     H31430   8.313   5.686   4.541 -0.5043  0.2665 -1.6131
  228MOL0     H31431   8.165   5.774   4.514  0.6128 -0.9993 -0.8461
  228MOL0     H31432   8.383   5.933   4.650 -0.7167  0.8431 -0.8070
  228MOL0     H31433   8.267   5.983   4.519 -0.8372 -1.2609 -0.9975
  228MOL0     H31434   8.381   5.875   4.362  0.4737 -1.3848 -0.0508
  228MOL0     H31435   8.516   5.817   4.476 -0.5089  0.9338  5.1080
  228MOL0     H31436   8.440   6.103   4.436 -0.8019  0.0226  2.3645
  228MOL0     H31437   8.569   6.031   4.527 -2.3244 -0.3129  0.8523
  228MOL0     H31438   8.576   6.139   4.268 -0.9658  0.0701 -2.3647
  228MOL0     H31439   8.554   5.985   4.223 -1.1785  1.0672  0.7123
  228MOL0     H31440   8.743   5.904   4.345 -3.8384  0.1623 -1.9794
  228MOL0     H31441   8.778   6.064   4.424  2.6985  1.8828 -2.4659
  228MOL0     H31442   8.779   6.060   4.115 -0.1475  1.5669  0.5100
  228MOL0     H31443   8.921   6.004   4.212  1.1611  2.3547  1.4558
  228MOL0     H31444   7.964   5.750   4.647  2.6581  0.4252  1.7882
  228MOL0     H31445   7.733   5.656   4.648 -0.6936 -1.0642 -0.7137
  228MOL0     H31446   7.483   5.372   4.634  0.9143  0.7870  1.2405
  228MOL0     H31447   7.304   5.212   4.540 -2.4655 -0.7996  0.2564
  228MOL0     H31448   5.799   4.641   4.888  0.1559  0.8244  1.0086
  228MOL0     H31449   5.564   4.612   4.939  0.8249 -3.0631 -0.4925
  228MOL0     H31450   5.137   4.785   4.781  0.8233 -1.0642 -0.3022
  228MOL0     H31451   4.906   4.780   4.795  0.2106  0.2835 -0.5390
  228MOL0     H31452   4.734   4.435   4.620  2.3752  0.9440  0.9864
  228MOL0     H31453   4.614   4.406   4.747  1.9828 -3.5707 -1.9089
  228MOL0     H31454   4.560   4.526   4.505 -2.9687 -2.4563  0.8529
  228MOL0     H31455   4.632   4.670   4.583 -3.2232  1.1348 -0.7303
  228MOL0     H31456   4.464   4.656   4.761  1.9036  0.3149 -0.5063
  228MOL0     H31457   4.409   4.706   4.605 -1.0702  0.6571  0.4060
  228MOL0     H31458   4.251   4.559   4.710 -0.4231 -0.5852  0.2860
  228MOL0     H31459   4.370   4.429   4.738  2.0136  0.4528 -0.0261
  228MOL0     H31460   4.260   4.385   4.325 -1.3767  1.4872 -0.2674
  228MOL0     H31461   4.902   4.346   4.721  0.3097  0.1351  1.2382
  228MOL0     H31462   5.237   4.324   4.718  0.2433  1.6072 -0.0023
  228MOL0     H31463   5.094   4.239   4.671  0.7967 -0.9240  1.8308
  228MOL0     H31464   5.179   4.332   4.544  0.6019  0.8444  0.7048
  229MOL0     O31465   6.916   0.457  10.768 -0.6650  0.0439 -0.0154
  229MOL0     C31466   6.931   0.344  10.716 -0.2716  0.9074 -0.1865
  229MOL0     O31467   6.836   0.276  10.657  0.2329 -0.5400  0.2471
  229MOL0     C31468   6.727   0.349  10.634 -0.5637 -0.8986  0.1628
  229MOL0     C31469   6.634   0.363  10.749 -0.7115  0.8535  0.3926
  229MOL0     C31470   6.510   0.424  10.728  0.2176 -0.4801 -0.0251
  229MOL0     C31471   6.484   0.493  10.614  0.5900 -0.1180  0.6728
  229MOL0     O31472   6.362   0.559  10.603  0.9097 -0.5325  0.4711
  229MOL0     C31473   6.356   0.677  10.522  0.5854 -0.2726  1.1122
  229MOL0     C31474   6.208   0.718  10.528  0.4390 -0.3928 -0.3235
  229MOL0     C31475   6.163   0.769  10.667  0.0750  0.7285  0.2977
  229MOL0     C31476   6.028   0.848  10.648 -0.2788  0.2466  0.4636
  229MOL0     C31477   6.006   0.928  10.773 -0.8796 -0.2098  0.2825
  229MOL0     C31478   5.862   0.977  10.801  0.6040 -0.7704 -0.3611
  229MOL0     C31479   5.769   0.874  10.856 -0.2715  0.2427 -0.6066
  229MOL0     C31480   5.619   0.931  10.863 -0.0702  0.4273 -0.5377
  229MOL0     N31481   5.611   1.061  10.932 -0.4104 -0.5871  0.3946
  229MOL0     C31482   5.637   1.185  10.880 -0.0814 -1.2533  0.0180
  229MOL0     C31483   5.597   1.275  10.971 -0.6186  0.5724  0.5680
  229MOL0     C31484   5.604   1.424  10.944 -0.1459  0.4390  0.0602
  229MOL0     C31485   5.749   1.471  10.953 -0.2628 -0.3060  0.4780
  229MOL0     C31486   5.805   1.470  11.094 -0.2671  0.3946  0.1883
  229MOL0     C31487   5.955   1.469  11.107 -0.3463 -0.1928  0.4094
  229MOL0     O31488   6.027   1.368  11.022 -0.2086 -0.3004  0.0834
  229MOL0     C31489   6.095   1.270  11.092  0.2457 -0.2050 -0.2293
  229MOL0     C31490   6.037   1.150  11.110  0.0017 -0.0600 -0.2311
  229MOL0     C31491   6.099   1.045  11.187  0.0076 -0.1148  0.5027
  229MOL0     C31492   6.025   0.911  11.200  0.1403  0.0393  0.7159
  229MOL0     C31493   6.231   1.065  11.232  0.1175 -0.2057  0.5357
  229MOL0     C31494   6.320   0.959  11.296  1.0506 -0.5067 -0.5266
  229MOL0     O31495   6.447   0.998  11.319  0.7761 -0.2942  0.1598
  229MOL0     C31496   6.539   0.935  11.393  0.2728 -0.0953 -0.4742
  229MOL0     C31497   6.676   0.971  11.373  0.3625  0.8888 -0.1471
  229MOL0     C31498   6.780   0.896  11.435  0.2188  0.0456  0.5395
  229MOL0     C31499   6.756   0.791  11.518 -0.3528  0.5620  0.8275
  229MOL0     O31500   6.870   0.733  11.557 -0.1949  0.8460 -0.2300
  229MOL0     C31501   6.848   0.625  11.648  0.8523  0.9055  0.4415
  229MOL0     C31502   6.983   0.556  11.657 -0.3153  1.2866  0.2015
  229MOL0     C31503   7.093   0.649  11.705  0.2358 -0.3446 -0.0843
  229MOL0     C31504   7.064   0.705  11.849 -0.2801 -0.1505 -0.3626
  229MOL0     C31505   7.185   0.783  11.906  0.6534 -0.1365 -0.1915
  229MOL0     C31506   7.147   0.889  11.997  0.4816  0.3449 -0.6170
  229MOL0     C31507   7.274   0.963  12.034  0.1055 -1.2054 -1.3642
  229MOL0     C31508   7.248   1.061  12.159 -0.3156 -0.1016  0.2911
  229MOL0    Cl31509   7.406   1.154  12.167  0.1958 -0.4758  0.0497
  229MOL0     C31510   6.623   0.762  11.552 -0.1097  0.4471  0.1062
  229MOL0     C31511   6.517   0.842  11.500 -0.8698  0.4935 -1.0757
  229MOL0     O31512   6.258   0.860  11.340  0.1322 -0.1970  0.3090
  229MOL0     C31513   6.288   1.190  11.212  0.8491  0.5563 -0.0434
  229MOL0     C31514   6.227   1.294  11.132 -0.5453 -0.2663 -0.4587
  229MOL0     N31515   5.543   1.205  11.071 -0.2880 -0.4062  0.2689
  229MOL0     N31516   5.557   1.081  11.059  0.4477  0.0227 -0.4684
  229MOL0     C31517   6.575   0.477  10.505 -0.4932  0.0111 -0.2421
  229MOL0     C31518   6.697   0.406  10.513  0.0163 -0.4626  0.5371
  229MOL0     C31519   7.061   0.278  10.721 -0.1279 -0.5769  0.1368
  229MOL0     C31520   7.158   0.322  10.812  0.1096  0.2046 -0.2788
  229MOL0     C31521   7.291   0.275  10.815  0.0594  0.0193 -0.3413
  229MOL0     C31522   7.337   0.187  10.718  0.4376  0.0257 -0.1434
  229MOL0     O31523   7.463   0.137  10.704  0.6119 -0.6929  0.0477
  229MOL0     C31524   7.569   0.167  10.794  0.7898  0.8834 -0.6827
  229MOL0     C31525   7.702   0.142  10.724 -0.0377  0.4748 -0.9905
  229MOL0     C31526   7.703   0.017  10.631 -0.0588  0.3225 -0.0094
  229MOL0     C31527   7.724  -0.118  10.702 -0.6702  0.1390  0.8355
  229MOL0     C31528   7.858  -0.138  10.755 -0.0846  0.3646  0.4218
  229MOL0     C31529   7.975  -0.127  10.795  0.5249 -0.5727  0.1452
  229MOL0     C31530   7.243   0.121  10.638  0.2750 -0.3746  0.0551
  229MOL0     C31531   7.109   0.177  10.630  0.2956 -0.1047 -0.6058
  229MOL0     C31532   7.019   0.119  10.525  0.3078  0.1249 -0.3935
  229MOL0     H31533   6.662   0.335  10.850 -3.3345 -0.8994  0.7513
  229MOL0     H31534   6.449   0.437  10.817 -0.6492 -4.4295  0.1535
  229MOL0     H31535   6.371   0.655  10.416  0.4132 -0.3723  1.1081
  229MOL0     H31536   6.421   0.759  10.554  0.1023  1.0783 -1.1644
  229MOL0     H31537   6.200   0.800  10.457 -0.3578 -0.4824 -0.3418
  229MOL0     H31538   6.145   0.633  10.499  1.1438 -1.3147  0.7552
  229MOL0     H31539   6.145   0.680  10.727 -3.9380 -0.3719 -2.1323
  229MOL0     H31540   6.237   0.838  10.707 -0.0627  1.0102  0.0809
  229MOL0     H31541   6.040   0.911  10.559  0.3457 -1.0586 -0.4153
  229MOL0     H31542   5.943   0.783  10.628  0.8824 -1.3149  0.3845
  229MOL0     H31543   6.071   1.014  10.792  0.6784 -1.3637  0.3832
  229MOL0     H31544   6.023   0.858  10.856  2.3688  2.2382  1.8646
  229MOL0     H31545   5.872   1.058  10.872 -2.0867 -0.8031  0.1772
  229MOL0     H31546   5.821   1.019  10.708  2.9873  0.8848 -0.7524
  229MOL0     H31547   5.804   0.840  10.954 -0.3053 -3.6564 -1.7861
  229MOL0     H31548   5.763   0.783  10.796 -0.0905  0.6560 -1.2573
  229MOL0     H31549   5.570   0.934  10.765 -1.8874  0.3670  0.3280
  229MOL0     H31550   5.559   0.860  10.921  0.1238 -0.1250 -1.0037
  229MOL0     H31551   5.680   1.210  10.783 -0.1759  1.0005  0.5159
  229MOL0     H31552   5.545   1.477  11.018  1.3966  1.0644  0.8839
  229MOL0     H31553   5.571   1.450  10.843  2.4504  1.8315 -0.5249
  229MOL0     H31554   5.813   1.408  10.890  2.3113  0.9368  1.6810
  229MOL0     H31555   5.771   1.576  10.930 -0.9456 -0.1361  0.5910
  229MOL0     H31556   5.771   1.558  11.149 -0.7420  1.1681 -1.2913
  229MOL0     H31557   5.765   1.378  11.139  0.5080  0.2064  0.5195
  229MOL0     H31558   5.992   1.565  11.071 -1.0877 -0.2388 -0.5299
  229MOL0     H31559   5.991   1.468  11.210  0.3426  2.5458  0.2665
  229MOL0     H31560   5.935   1.145  11.075 -1.1048  1.7661  2.4329
  229MOL0     H31561   6.092   0.833  11.161  0.3793  1.0252 -0.9546
  229MOL0     H31562   5.931   0.914  11.144  0.2922  1.6741  0.5069
  229MOL0     H31563   6.010   0.889  11.306 -0.3470  3.7962  1.5560
  229MOL0     H31564   6.696   1.058  11.311 -0.2674  1.3959  0.3414
  229MOL0     H31565   6.882   0.921  11.408  0.5785 -0.5052  1.3211
  229MOL0     H31566   6.813   0.659  11.745 -0.6274 -2.3462  1.1775
  229MOL0     H31567   6.771   0.552  11.621  0.7133  0.3077  2.3724
  229MOL0     H31568   6.964   0.479  11.733 -1.1591  0.5204 -0.7616
  229MOL0     H31569   7.009   0.517  11.558 -0.8559 -0.8527  0.8394
  229MOL0     H31570   7.117   0.731  11.637  0.6379 -0.0511  0.4045
  229MOL0     H31571   7.184   0.591  11.715  2.1187  2.6653  1.8846
  229MOL0     H31572   7.042   0.622  11.917  1.2073 -0.4250 -0.1633
  229MOL0     H31573   6.975   0.768  11.843  0.9495  1.6940 -0.2795
  229MOL0     H31574   7.252   0.710  11.951  3.3961  0.5513 -2.8468
  229MOL0     H31575   7.244   0.822  11.823  0.7436 -2.1418 -1.1103
  229MOL0     H31576   7.105   0.838  12.084  3.3019 -0.8877  0.1221
  229MOL0     H31577   7.070   0.956  11.957  0.2470  0.9830  0.8084
  229MOL0     H31578   7.300   1.035  11.956 -0.2683  1.7991  1.0992
  229MOL0     H31579   7.347   0.887  12.064  1.5919  0.0075 -1.7800
  229MOL0     H31580   7.236   1.004  12.251 -0.9068  1.4651  1.2303
  229MOL0     H31581   7.158   1.122  12.142  0.9423  1.2200 -2.2286
  229MOL0     H31582   6.594   0.684  11.622  1.8101 -0.2838  0.1498
  229MOL0     H31583   6.415   0.827  11.534 -0.1338  3.1828  3.0972
  229MOL0     H31584   6.388   1.215  11.245  1.1989 -1.3888  0.4708
  229MOL0     H31585   6.276   1.388  11.106 -2.5662  0.1034 -3.3593
  229MOL0     H31586   6.561   0.545  10.422 -2.7686 -0.9509 -0.7254
  229MOL0     H31587   6.756   0.414  10.422 -2.4772 -1.2799 -1.2650
  229MOL0     H31588   7.132   0.403  10.880  0.0203  0.1440 -0.2412
  229MOL0     H31589   7.352   0.312  10.896 -1.4221 -1.0898  1.3598
  229MOL0     H31590   7.563   0.272  10.826 -0.9843  1.3951 -2.4275
  229MOL0     H31591   7.554   0.115  10.889 -0.3343  3.3068  0.5645
  229MOL0     H31592   7.776   0.123  10.803 -0.2599  2.0075 -0.3896
  229MOL0     H31593   7.733   0.231  10.669  0.7053 -0.1822 -1.6663
  229MOL0     H31594   7.616   0.008  10.565 -1.4880 -3.0192  2.0547
  229MOL0     H31595   7.787   0.030  10.563  0.3042  1.3197  0.6057
  229MOL0     H31596   7.716  -0.189  10.619 -2.2288  0.1504  0.9488
  229MOL0     H31597   7.657  -0.151  10.782  1.3484 -1.8811  1.8086
  229MOL0     H31598   8.072  -0.106  10.835 -0.1040 -0.6691  1.8369
  229MOL0     H31599   7.282   0.037  10.582  0.5818  1.0968 -2.0687
  229MOL0     H31600   6.983   0.202  10.465 -0.7833 -0.8141 -1.0822
  229MOL0     H31601   7.069   0.038  10.470 -1.0088 -0.7697 -0.3286
  229MOL0     H31602   6.928   0.067  10.557  0.2133  0.0044 -0.8528
  230MOL0     O31603  10.387  10.922   2.977 -0.2068 -0.0345  0.1555
  230MOL0     C31604  10.350  10.879   3.083  1.1611  0.1692 -0.4000
  230MOL0     O31605  10.316  10.747   3.099  0.3150 -0.6072 -0.4889
  230MOL0     C31606  10.378  10.652   3.023  0.5465 -0.2612  0.0666
  230MOL0     C31607  10.335  10.642   2.889  0.3345  0.3377  0.1149
  230MOL0     C31608  10.389  10.550   2.806 -0.2548 -0.4277  0.1643
  230MOL0     C31609  10.489  10.462   2.852 -0.3433  0.5690  0.1151
  230MOL0     O31610  10.568  10.382   2.767 -0.1687 -0.0168  0.1011
  230MOL0     C31611  10.517  10.353   2.637  0.3419 -0.5764  0.0770
  230MOL0     C31612  10.608  10.259   2.572  0.5089  0.5168  0.0784
  230MOL0     C31613  10.653  10.128   2.649 -0.0623 -0.4592  0.7940
  230MOL0     C31614  10.763  10.051   2.568 -0.6581  0.0048  0.2504
  230MOL0     C31615  10.855   9.970   2.674 -0.1209 -0.2640  0.1822
  230MOL0     C31616  10.786   9.844   2.724  0.1393  0.1944  0.2338
  230MOL0     C31617  10.876   9.763   2.820  0.2331  0.1683  0.1445
  230MOL0     C31618  10.987   9.686   2.750  0.4863 -0.2682 -0.5545
  230MOL0     N31619  11.117   9.691   2.821  0.4105 -0.6358  0.1848
  230MOL0     C31620  11.223   9.774   2.795  0.1503 -0.4110  0.6018
  230MOL0     C31621  11.327   9.714   2.853  0.1368  0.4972  0.1742
  230MOL0     C31622  11.468   9.772   2.837 -0.1851 -0.4637 -0.1565
  230MOL0     C31623  11.559   9.694   2.750 -0.5693  0.6937 -0.0705
  230MOL0     C31624  11.693   9.770   2.727  1.3111 -0.1099  0.1803
  230MOL0     C31625  11.814   9.688   2.678  0.2290  0.2026  0.0331
  230MOL0     O31626  11.856   9.600   2.785  0.2901  0.1933  0.1730
  230MOL0     C31627  11.931   9.641   2.890 -0.5107  0.8333  0.9725
  230MOL0     C31628  11.958   9.549   2.989  0.7792 -0.4942 -0.1542
  230MOL0     C31629  12.041   9.575   3.097 -0.0431 -0.2118  1.1375
  230MOL0     C31630  12.060   9.473   3.202 -0.0606 -0.6433 -0.3566
  230MOL0     C31631  12.108   9.693   3.106  0.2481  0.2834 -0.4169
  230MOL0     C31632  12.196   9.730   3.223 -0.5238 -0.1100  0.2059
  230MOL0     O31633  12.206   9.873   3.254  0.8006  0.3680  0.5218
  230MOL0     C31634  12.298   9.910   3.351 -0.2503  0.4582  0.3188
  230MOL0     C31635  12.428   9.969   3.315  0.1203  0.5091  0.3619
  230MOL0     C31636  12.512  10.027   3.413 -0.5922  1.6147  0.4230
  230MOL0     C31637  12.482  10.007   3.547  0.4279  0.4267  0.1100
  230MOL0     O31638  12.567  10.050   3.647  0.3796 -0.9044  0.2037
  230MOL0     C31639  12.513  10.144   3.741 -0.1817 -0.7254  0.2123
  230MOL0     C31640  12.625  10.239   3.796 -0.0403  0.0670 -0.0708
  230MOL0     C31641  12.750  10.161   3.837  0.0320 -0.2012 -0.3665
  230MOL0     C31642  12.846  10.246   3.921 -0.9807 -1.3051 -0.3491
  230MOL0     C31643  12.991  10.179   3.932 -0.1839 -0.5918  0.8053
  230MOL0     C31644  13.068  10.249   4.034 -0.4035 -0.2298 -0.2140
  230MOL0     C31645  13.212  10.196   4.065 -0.1076 -0.3224 -0.2810
  230MOL0     C31646  13.296  10.298   4.156  0.6052  0.7093  0.0517
  230MOL0    Cl31647  13.335  10.444   4.056 -0.2015  0.0031  0.2918
  230MOL0     C31648  12.360   9.947   3.580 -0.1083 -0.0172 -0.1719
  230MOL0     C31649  12.268   9.906   3.484  0.1697 -0.9713  0.0032
  230MOL0     O31650  12.279   9.648   3.268  0.3895  0.2169 -0.1999
  230MOL0     C31651  12.084   9.788   3.005 -0.2762  0.5997 -0.3206
  230MOL0     C31652  11.995   9.767   2.899 -0.2124  0.0923  0.1218
  230MOL0     N31653  11.289   9.596   2.914  0.0239  0.2851  0.2158
  230MOL0     N31654  11.157   9.585   2.890 -1.0871  0.2853 -0.3769
  230MOL0     C31655  10.540  10.477   2.983 -0.0227  0.2498 -0.1318
  230MOL0     C31656  10.487  10.578   3.065 -0.0602  1.3137 -0.6441
  230MOL0     C31657  10.334  10.971   3.194  0.5483  0.0208 -0.3596
  230MOL0     C31658  10.324  10.916   3.323 -0.1305  0.5127  0.4857
  230MOL0     C31659  10.293  10.991   3.439 -0.4798  1.0378 -0.7435
  230MOL0     C31660  10.287  11.132   3.420  0.0807  0.4894  0.1382
  230MOL0     O31661  10.238  11.196   3.527  0.3945 -0.7577 -0.2659
  230MOL0     C31662  10.235  11.332   3.530 -0.4588  0.1405  0.0095
  230MOL0     C31663  10.180  11.376   3.661  1.1345 -0.5036 -0.1706
  230MOL0     C31664  10.283  11.347   3.774  0.3553 -0.1616 -0.8494
  230MOL0     C31665  10.258  11.433   3.892  0.3077  0.3031  0.6658
  230MOL0     C31666  10.133  11.413   3.961  0.2486  0.3973 -0.5230
  230MOL0     C31667  10.030  11.403   4.018 -0.3138 -0.8899 -0.0456
  230MOL0     C31668  10.288  11.187   3.295  0.4093  0.5545  0.1768
  230MOL0     C31669  10.308  11.112   3.184  0.1563 -0.3977  0.9920
  230MOL0     C31670  10.303  11.172   3.051 -0.3409 -0.4385 -0.5009
  230MOL0     H31671  10.259  10.711   2.852 -0.8379 -0.8534  0.2273
  230MOL0     H31672  10.362  10.529   2.703  2.0832  1.6854 -0.9682
  230MOL0     H31673  10.503  10.442   2.576  2.1500  1.3421  2.2710
  230MOL0     H31674  10.427  10.292   2.649  0.2484 -0.0984  2.4508
  230MOL0     H31675  10.559  10.222   2.482 -1.0943  0.9041  0.7506
  230MOL0     H31676  10.706  10.302   2.548  1.6474 -2.7717 -1.9478
  230MOL0     H31677  10.686  10.163   2.747 -1.3333 -2.1666  1.9053
  230MOL0     H31678  10.561  10.071   2.666 -0.9709  1.4977  3.0236
  230MOL0     H31679  10.722   9.980   2.496 -0.2890 -0.7341  0.7530
  230MOL0     H31680  10.831  10.117   2.514 -0.2847 -2.2696 -2.2180
  230MOL0     H31681  10.868  10.039   2.758  0.8234 -0.6191  0.3376
  230MOL0     H31682  10.947   9.938   2.625 -1.1794 -0.8382 -1.5075
  230MOL0     H31683  10.702   9.868   2.790 -3.1405 -2.8110 -2.4108
  230MOL0     H31684  10.752   9.784   2.639 -1.2229  0.1754  0.7626
  230MOL0     H31685  10.807   9.707   2.885 -2.9574 -0.6605 -3.5535
  230MOL0     H31686  10.928   9.843   2.872  3.0178 -0.1020 -2.0285
  230MOL0     H31687  10.947   9.587   2.727 -1.3851  0.9228 -2.9429
  230MOL0     H31688  11.004   9.746   2.660  0.3960 -1.0990 -1.1304
  230MOL0     H31689  11.230   9.860   2.729 -3.6538 -1.0162 -0.8355
  230MOL0     H31690  11.508   9.798   2.935 -1.3467  1.2994 -0.1070
  230MOL0     H31691  11.455   9.869   2.788  0.5738 -0.2616  0.0427
  230MOL0     H31692  11.579   9.605   2.810 -0.4073 -0.4926 -1.8205
  230MOL0     H31693  11.510   9.665   2.657 -1.8281 -0.6058  0.9451
  230MOL0     H31694  11.683   9.853   2.656  1.9591  0.8339  1.1531
  230MOL0     H31695  11.714   9.827   2.818  1.8350  2.7793 -1.6159
  230MOL0     H31696  11.776   9.630   2.593  2.4181  2.1896 -2.5057
  230MOL0     H31697  11.891   9.752   2.634  3.3716 -2.6862  0.9136
  230MOL0     H31698  11.904   9.455   2.984 -0.1327  0.0237 -0.1022
  230MOL0     H31699  11.980   9.399   3.195  1.1887 -1.9451 -1.2327
  230MOL0     H31700  12.051   9.516   3.302  2.8207 -0.7219  0.0215
  230MOL0     H31701  12.155   9.419   3.203  0.2422 -0.1172 -0.0328
  230MOL0     H31702  12.444   9.966   3.208 -0.3427 -0.7982  0.3176
  230MOL0     H31703  12.602  10.079   3.380  2.6466 -2.7039  1.5387
  230MOL0     H31704  12.433  10.203   3.695  1.9828  1.3505 -1.1527
  230MOL0     H31705  12.481  10.091   3.831  1.1772  1.0179  1.8033
  230MOL0     H31706  12.662  10.304   3.716 -0.8956  0.8490  0.1486
  230MOL0     H31707  12.599  10.305   3.879 -0.2413 -2.2602  1.7961
  230MOL0     H31708  12.802  10.114   3.753  2.1004 -0.3108  0.9049
  230MOL0     H31709  12.710  10.079   3.896 -0.9733  0.2920 -0.3435
  230MOL0     H31710  12.808  10.253   4.024 -0.8093 -3.1465 -0.1186
  230MOL0     H31711  12.859  10.343   3.873 -1.0170 -1.4419 -0.6367
  230MOL0     H31712  12.990  10.072   3.958  0.9082 -0.7789  0.1217
  230MOL0     H31713  13.041  10.180   3.835 -1.3839 -0.2935  0.1572
  230MOL0     H31714  13.021  10.249   4.133 -1.0869 -2.5837 -0.4716
  230MOL0     H31715  13.085  10.350   3.995 -3.8449  1.3316  1.8222
  230MOL0     H31716  13.266  10.178   3.971 -0.5745 -0.7586 -0.4680
  230MOL0     H31717  13.202  10.101   4.119  0.1718  0.1243  0.5837
  230MOL0     H31718  13.389  10.245   4.178  0.4889 -0.5437 -2.2049
  230MOL0     H31719  13.247  10.325   4.250  3.2938 -0.6587  1.9763
  230MOL0     H31720  12.345   9.920   3.684 -0.0801 -0.1784 -0.2102
  230MOL0     H31721  12.171   9.873   3.520 -0.6532  1.2169 -0.0716
  230MOL0     H31722  12.137   9.883   3.006 -1.5907  1.3568  0.5977
  230MOL0     H31723  11.966   9.833   2.819 -1.3566 -0.3886  0.1141
  230MOL0     H31724  10.630  10.426   3.014  0.1419  0.7607  0.2434
  230MOL0     H31725  10.529  10.599   3.163 -0.3275 -1.1313  0.0617
  230MOL0     H31726  10.335  10.810   3.338  1.7487  0.5825 -0.2403
  230MOL0     H31727  10.270  10.943   3.533  0.1327  0.1562 -1.0342
  230MOL0     H31728  10.335  11.372   3.513 -0.9469  1.2928 -0.2097
  230MOL0     H31729  10.178  11.376   3.448  0.3090 -0.1852 -0.7108
  230MOL0     H31730  10.087  11.329   3.690 -0.5065  2.9648  0.7431
  230MOL0     H31731  10.161  11.484   3.654 -1.3830 -0.7806  1.4094
  230MOL0     H31732  10.270  11.241   3.798 -0.3309 -0.8541 -3.8709
  230MOL0     H31733  10.386  11.365   3.743 -0.5682  3.8201 -2.1739
  230MOL0     H31734  10.255  11.528   3.839 -0.3804 -2.0175 -3.9613
  230MOL0     H31735  10.344  11.432   3.960  1.2479  1.0161 -0.4807
  230MOL0     H31736   9.939  11.378   4.070  0.2838 -0.0607  1.4514
  230MOL0     H31737  10.269  11.294   3.286  2.8199  0.8638 -2.9209
  230MOL0     H31738  10.223  11.129   2.990 -0.6390 -0.2303 -0.2568
  230MOL0     H31739  10.279  11.278   3.055  1.2178 -0.1052  1.4553
  230MOL0     H31740  10.398  11.170   2.997  0.1819  1.1717  0.3033
  231MOL0     O31741   1.658   4.928   7.343 -0.4161 -0.8006  0.3334
  231MOL0     C31742   1.646   4.871   7.236 -0.1242 -0.5346 -0.7584
  231MOL0     O31743   1.750   4.811   7.168  0.2095 -0.4292 -0.4884
  231MOL0     C31744   1.875   4.808   7.215 -0.4273  0.3223 -0.5382
  231MOL0     C31745   1.909   4.739   7.329 -0.3291 -0.4748 -0.2092
  231MOL0     C31746   2.038   4.731   7.377  0.2273 -0.4184  0.0211
  231MOL0     C31747   2.150   4.787   7.304  0.2452  0.0963 -0.2699
  231MOL0     O31748   2.272   4.771   7.359  0.5269  0.7050  0.8857
  231MOL0     C31749   2.379   4.825   7.281  0.4957 -0.9101 -0.2117
  231MOL0     C31750   2.505   4.766   7.341  0.7730 -0.1492 -0.9989
  231MOL0     C31751   2.628   4.794   7.263 -0.4028 -0.1229 -0.1715
  231MOL0     C31752   2.749   4.744   7.337 -0.4856 -0.5005 -0.5780
  231MOL0     C31753   2.866   4.762   7.248 -1.2122  0.3893 -0.6626
  231MOL0     C31754   2.994   4.787   7.321 -0.7911  0.3963 -0.7806
  231MOL0     C31755   3.082   4.893   7.246 -0.3305 -1.3154  0.4276
  231MOL0     C31756   3.226   4.929   7.292 -0.5644 -0.0654 -0.2693
  231MOL0     N31757   3.263   5.057   7.249  0.2110  0.4671  0.1582
  231MOL0     C31758   3.276   5.168   7.328  0.7853 -0.9497 -0.5686
  231MOL0     C31759   3.362   5.245   7.259 -0.8442 -0.3008 -0.0478
  231MOL0     C31760   3.427   5.369   7.313 -0.1598 -0.3213  0.3283
  231MOL0     C31761   3.551   5.415   7.227  0.1453  0.1506 -0.1023
  231MOL0     C31762   3.628   5.523   7.288  0.6416  0.9302 -0.3956
  231MOL0     C31763   3.702   5.596   7.180  0.2412 -0.5087 -0.5137
  231MOL0     O31764   3.790   5.499   7.118 -0.3702  0.1201  0.0049
  231MOL0     C31765   3.879   5.552   7.029 -0.1462  0.9949 -0.6203
  231MOL0     C31766   3.873   5.685   6.985  0.0555  0.2011 -0.6736
  231MOL0     C31767   3.974   5.731   6.902  0.0996  0.7945 -0.8275
  231MOL0     C31768   3.973   5.876   6.866 -1.2174 -0.4891 -0.6203
  231MOL0     C31769   4.085   5.650   6.863 -0.7884 -0.1165 -0.1542
  231MOL0     C31770   4.221   5.688   6.800  0.0514  0.2561 -0.0691
  231MOL0     O31771   4.327   5.608   6.834 -0.7300 -0.0254  0.3153
  231MOL0     C31772   4.444   5.662   6.807 -0.2981 -1.0323 -0.3193
  231MOL0     C31773   4.524   5.614   6.698  0.0107  0.1098 -0.0519
  231MOL0     C31774   4.646   5.671   6.672 -0.3658  0.4788  0.3097
  231MOL0     C31775   4.696   5.775   6.754  0.1381  0.5305 -0.2993
  231MOL0     O31776   4.809   5.846   6.727 -0.4963 -0.6113  0.6545
  231MOL0     C31777   4.907   5.790   6.632 -0.6258  1.0812 -0.5639
  231MOL0     C31778   4.976   5.663   6.691  0.0766  0.0416 -0.0111
  231MOL0     C31779   5.077   5.583   6.603 -0.6972  0.0020  0.9803
  231MOL0     C31780   5.204   5.668   6.580 -0.4414  0.1151  0.2206
  231MOL0     C31781   5.309   5.583   6.496  0.0871  0.0640 -0.1642
  231MOL0     C31782   5.378   5.461   6.558  0.3959  0.3762  0.2473
  231MOL0     C31783   5.508   5.493   6.610  0.1169 -0.6972  0.1453
  231MOL0     C31784   5.576   5.387   6.698 -0.4408 -0.3827 -0.0237
  231MOL0    Cl31785   5.606   5.235   6.607 -0.3610 -0.4776 -0.0438
  231MOL0     C31786   4.618   5.831   6.859 -0.8149  0.7937 -0.6581
  231MOL0     C31787   4.498   5.766   6.887  0.3095  0.5894 -0.2967
  231MOL0     O31788   4.227   5.791   6.730 -0.1645  0.4359 -1.2603
  231MOL0     C31789   4.086   5.509   6.892 -0.1469  0.1831 -0.5548
  231MOL0     C31790   3.979   5.466   6.969  0.4310 -0.2768 -0.3876
  231MOL0     N31791   3.379   5.192   7.134 -0.0197 -0.0957  0.4670
  231MOL0     N31792   3.313   5.081   7.132 -0.2294  0.1437 -0.6855
  231MOL0     C31793   2.112   4.862   7.190 -0.2553  0.2803  1.2571
  231MOL0     C31794   1.980   4.872   7.145 -0.6391  0.2391  0.0692
  231MOL0     C31795   1.515   4.842   7.183 -0.3660  0.1849  0.0046
  231MOL0     C31796   1.503   4.733   7.095 -0.0147  0.5554 -0.0801
  231MOL0     C31797   1.384   4.695   7.043  0.1743  0.4926  0.2894
  231MOL0     C31798   1.267   4.767   7.073 -0.0261  0.4763 -0.0259
  231MOL0     O31799   1.146   4.736   7.013 -0.1298 -0.5955 -0.3774
  231MOL0     C31800   1.142   4.719   6.869 -0.0714  0.1216 -0.0586
  231MOL0     C31801   0.996   4.730   6.819  0.1443 -0.1515  0.6116
  231MOL0     C31802   0.942   4.591   6.807  0.4390  0.1181 -0.2901
  231MOL0     C31803   0.806   4.598   6.733  0.2563 -0.2367 -0.3310
  231MOL0     C31804   0.742   4.468   6.698  0.1868  0.6841  0.7550
  231MOL0     C31805   0.726   4.349   6.656 -0.3317 -1.1287 -0.2151
  231MOL0     C31806   1.276   4.880   7.151 -0.8496  0.1172 -1.7041
  231MOL0     C31807   1.395   4.916   7.214 -0.0459 -0.2605 -0.2447
  231MOL0     C31808   1.389   5.042   7.294 -0.9145 -0.0556  0.1903
  231MOL0     H31809   1.829   4.693   7.387 -0.9793 -1.2971 -1.6886
  231MOL0     H31810   2.051   4.680   7.471 -0.6484 -1.4985 -0.4208
  231MOL0     H31811   2.394   4.933   7.290  0.9184 -1.0963  2.0033
  231MOL0     H31812   2.373   4.790   7.178  1.4345 -1.5006 -0.0764
  231MOL0     H31813   2.514   4.806   7.442  0.2909  0.8542 -1.3415
  231MOL0     H31814   2.494   4.657   7.346 -1.0945 -0.0659 -2.3711
  231MOL0     H31815   2.617   4.743   7.167  0.5771  1.2018 -1.0011
  231MOL0     H31816   2.639   4.901   7.245  0.2376  0.1795  1.7339
  231MOL0     H31817   2.767   4.812   7.421 -1.0051 -0.1717 -0.7280
  231MOL0     H31818   2.740   4.641   7.372  2.2329 -0.8934 -0.8587
  231MOL0     H31819   2.852   4.853   7.188  1.6007  0.0208 -2.0422
  231MOL0     H31820   2.881   4.673   7.186  2.1642 -0.5462  1.2015
  231MOL0     H31821   2.979   4.816   7.425 -1.5219 -1.1170 -0.4308
  231MOL0     H31822   3.055   4.696   7.314  1.4182  1.7534 -0.3738
  231MOL0     H31823   3.023   4.984   7.264 -0.0400 -0.3950 -2.7368
  231MOL0     H31824   3.078   4.868   7.140 -1.6766  2.1490 -0.4856
  231MOL0     H31825   3.239   4.931   7.401  2.7977 -2.0804 -0.4693
  231MOL0     H31826   3.300   4.858   7.255  1.8657  1.0548  2.0923
  231MOL0     H31827   3.247   5.189   7.431  3.0299  0.5899 -0.1951
  231MOL0     H31828   3.461   5.354   7.416 -0.1476 -1.3963  0.1776
  231MOL0     H31829   3.355   5.452   7.312  0.6589  0.5468  3.2389
  231MOL0     H31830   3.610   5.325   7.204  0.6140  0.4038  0.1005
  231MOL0     H31831   3.513   5.442   7.128  0.0003  0.1623 -0.0428
  231MOL0     H31832   3.549   5.591   7.321 -0.1625 -0.9411  1.7503
  231MOL0     H31833   3.691   5.484   7.368 -0.6954  0.5962  0.5191
  231MOL0     H31834   3.631   5.646   7.114 -1.6988 -1.5313  0.6926
  231MOL0     H31835   3.748   5.674   7.241 -0.3916 -0.8971  0.4661
  231MOL0     H31836   3.798   5.759   7.011 -2.7309 -1.8030 -2.3893
  231MOL0     H31837   3.881   5.928   6.893 -2.0466 -1.5135 -1.3880
  231MOL0     H31838   3.982   5.892   6.758  1.9769  1.2332 -0.2361
  231MOL0     H31839   4.059   5.928   6.911 -1.1909 -1.1725  0.1460
  231MOL0     H31840   4.480   5.550   6.622 -0.5627  0.5212 -0.0689
  231MOL0     H31841   4.696   5.642   6.579 -2.1141  0.2744 -0.6054
  231MOL0     H31842   4.856   5.779   6.536  0.2765  0.8372 -1.0203
  231MOL0     H31843   4.981   5.869   6.617 -0.1501  0.2088 -3.2515
  231MOL0     H31844   5.027   5.696   6.783 -1.7519  0.6463  0.8308
  231MOL0     H31845   4.901   5.591   6.725  1.5586 -1.5960 -0.0501
  231MOL0     H31846   5.027   5.568   6.506 -0.5390 -0.8856  1.0304
  231MOL0     H31847   5.103   5.488   6.649 -2.6580 -1.7305 -1.2504
  231MOL0     H31848   5.249   5.699   6.674 -1.6143 -0.5491  1.0256
  231MOL0     H31849   5.174   5.751   6.515 -2.7719 -1.5192 -0.9514
  231MOL0     H31850   5.256   5.538   6.411  0.7051  1.7520 -1.4987
  231MOL0     H31851   5.382   5.654   6.455  2.5731 -0.6106  2.6992
  231MOL0     H31852   5.379   5.380   6.485  1.4751  0.7718 -0.1990
  231MOL0     H31853   5.320   5.419   6.641 -1.6721 -0.7328 -1.6457
  231MOL0     H31854   5.500   5.587   6.665  1.2720 -0.1271 -0.6172
  231MOL0     H31855   5.563   5.512   6.517 -0.2842  1.9724  0.3777
  231MOL0     H31856   5.504   5.371   6.779 -2.2538  0.3045 -1.4216
  231MOL0     H31857   5.669   5.434   6.729  0.4948 -1.7837 -0.6292
  231MOL0     H31858   4.639   5.922   6.913 -3.6994  1.3934 -0.4032
  231MOL0     H31859   4.436   5.797   6.972  2.1150  1.5271  0.7320
  231MOL0     H31860   4.172   5.445   6.875 -0.2692  0.0081 -0.5141
  231MOL0     H31861   3.975   5.364   7.007 -1.6516  1.0841  3.7491
  231MOL0     H31862   2.194   4.897   7.128 -1.5103  2.0131  0.4796
  231MOL0     H31863   1.955   4.942   7.066 -0.2709  2.2680  1.6583
  231MOL0     H31864   1.583   4.665   7.068 -0.7075 -0.5290  0.5486
  231MOL0     H31865   1.369   4.604   6.985 -0.1666 -1.3184  3.0129
  231MOL0     H31866   1.218   4.785   6.825  1.5344 -2.4358 -1.3940
  231MOL0     H31867   1.174   4.617   6.850 -2.2440 -0.5817 -0.2145
  231MOL0     H31868   1.015   4.779   6.723 -0.6126  1.4352  1.2338
  231MOL0     H31869   0.935   4.802   6.874  1.7700  2.3629 -0.6712
  231MOL0     H31870   1.008   4.525   6.750  0.8493 -1.4382  1.8762
  231MOL0     H31871   0.928   4.552   6.908  2.3209 -1.0026 -0.4097
  231MOL0     H31872   0.810   4.663   6.645  2.5735  0.1525  0.0181
  231MOL0     H31873   0.740   4.651   6.803  0.0381  0.5619 -1.1204
  231MOL0     H31874   0.696   4.246   6.653  2.3213 -1.9581 -0.9079
  231MOL0     H31875   1.186   4.939   7.166 -1.4778 -1.4119  1.1390
  231MOL0     H31876   1.421   5.115   7.219  2.5699 -1.6873 -0.1462
  231MOL0     H31877   1.290   5.071   7.329 -1.8245 -0.2438 -2.1032
  231MOL0     H31878   1.457   5.059   7.379 -0.4553  0.5980 -0.3007
  232MOL0     O31879   7.192  10.522   1.091  0.7918  0.6151  0.4235
  232MOL0     C31880   7.100  10.506   1.174 -0.1539  0.1024  0.4062
  232MOL0     O31881   7.078  10.395   1.239  0.1630 -0.0090  0.3351
  232MOL0     C31882   7.158  10.288   1.212 -0.6958 -1.0353  0.6060
  232MOL0     C31883   7.095  10.193   1.124 -0.9130  0.3886  0.1888
  232MOL0     C31884   7.176  10.082   1.088  0.3615  0.4965 -0.5471
  232MOL0     C31885   7.310  10.061   1.135 -0.2914  0.1321 -0.4204
  232MOL0     O31886   7.389   9.958   1.092 -0.9414  0.3307 -0.3703
  232MOL0     C31887   7.333   9.836   1.033 -0.4418  0.4278 -0.4563
  232MOL0     C31888   7.322   9.839   0.877  0.1658 -0.0654  0.6867
  232MOL0     C31889   7.451   9.858   0.802 -0.0038  0.3081  0.6089
  232MOL0     C31890   7.526   9.725   0.771  0.3948  0.3750  0.1960
  232MOL0     C31891   7.609   9.734   0.646  0.6381  0.1875  0.1393
  232MOL0     C31892   7.709   9.852   0.630 -0.5908  0.5858 -0.5807
  232MOL0     C31893   7.797   9.812   0.511 -0.8563  0.0200 -0.6520
  232MOL0     C31894   7.900   9.920   0.491 -1.3481  0.5816 -0.1150
  232MOL0     N31895   7.994   9.911   0.378  0.3162  1.3804 -0.1512
  232MOL0     C31896   8.039   9.791   0.325  0.6267 -0.6654 -0.5132
  232MOL0     C31897   8.143   9.826   0.247 -0.2066 -0.1896  0.3770
  232MOL0     C31898   8.233   9.726   0.183 -0.7033  0.1947  0.4096
  232MOL0     C31899   8.347   9.670   0.278 -0.0139  0.0243  0.0155
  232MOL0     C31900   8.414   9.793   0.331 -0.1113  0.0440 -0.7846
  232MOL0     C31901   8.561   9.750   0.376  1.1873  0.0665 -0.6729
  232MOL0     O31902   8.636   9.710   0.259  0.1561  0.4438  0.8830
  232MOL0     C31903   8.778   9.673   0.277  0.8489 -0.2865 -0.3279
  232MOL0     C31904   8.826   9.631   0.400  0.3465  0.6041 -0.5060
  232MOL0     C31905   8.959   9.597   0.413  0.5191  0.5552 -0.4132
  232MOL0     C31906   9.011   9.560   0.556  0.1490 -0.2969  0.1142
  232MOL0     C31907   9.048   9.596   0.298  0.4865 -0.1181 -0.9229
  232MOL0     C31908   9.194   9.550   0.300  0.7878 -0.3166  0.3146
  232MOL0     O31909   9.264   9.588   0.190  0.0219 -0.1947  1.6416
  232MOL0     C31910   9.383   9.527   0.166 -0.3166  0.4131 -0.5399
  232MOL0     C31911   9.385   9.426   0.071 -0.1267  0.5312 -0.3893
  232MOL0     C31912   9.492   9.342   0.068 -0.4842  0.6972 -0.1197
  232MOL0     C31913   9.615   9.367   0.125 -0.1452 -0.8843 -0.6137
  232MOL0     O31914   9.722   9.290   0.105 -0.5950 -0.3370  0.3972
  232MOL0     C31915   9.855   9.337   0.135  0.4293  0.1379 -0.2100
  232MOL0     C31916   9.954   9.292   0.025 -0.5700  0.8879  0.3500
  232MOL0     C31917  10.097   9.347   0.065 -0.3566  0.6030  0.3955
  232MOL0     C31918  10.164   9.255   0.151 -0.4353  1.0673 -0.4683
  232MOL0     C31919  10.296   9.325   0.192 -0.0585 -0.5014 -0.0032
  232MOL0     C31920  10.368   9.236   0.288 -0.2561 -0.1275 -0.4458
  232MOL0     C31921  10.508   9.280   0.322 -0.5020 -0.3450 -0.4114
  232MOL0     C31922  10.596   9.189   0.408  0.0320 -0.1597  0.6823
  232MOL0    Cl31923  10.641   9.037   0.318  0.0738  0.0476 -0.3876
  232MOL0     C31924   9.614   9.467   0.230  0.3336  0.0517  0.4423
  232MOL0     C31925   9.496   9.552   0.247 -0.3966  0.4417  0.4118
  232MOL0     O31926   9.243   9.500   0.396  0.0460 -0.6380 -0.6702
  232MOL0     C31927   8.991   9.635   0.176  0.2724 -0.3525 -0.4793
  232MOL0     C31928   8.860   9.679   0.173 -0.6631 -0.6199  0.6177
  232MOL0     N31929   8.139   9.961   0.239 -0.6430  0.3061 -0.3950
  232MOL0     N31930   8.063  10.012   0.316  0.7544  0.0273  0.5545
  232MOL0     C31931   7.364  10.160   1.211 -0.3237  0.3664 -1.0906
  232MOL0     C31932   7.292  10.271   1.250 -0.3853  0.0615 -0.9079
  232MOL0     C31933   7.013  10.626   1.199 -1.1587  0.0223  0.6683
  232MOL0     C31934   6.890  10.597   1.255 -0.4188 -0.2660 -0.7265
  232MOL0     C31935   6.795  10.693   1.278 -0.0257 -0.3165  1.0986
  232MOL0     C31936   6.816  10.824   1.237  0.1476  0.2265  0.8527
  232MOL0     O31937   6.719  10.917   1.261 -0.1039  0.5666  0.5694
  232MOL0     C31938   6.692  10.938   1.399  0.4672 -0.4367  0.8548
  232MOL0     C31939   6.578  11.037   1.401  0.0284 -0.3647  0.1631
  232MOL0     C31940   6.451  10.979   1.353 -0.4443  0.2650 -0.3542
  232MOL0     C31941   6.373  11.075   1.258 -0.5012  0.0727 -0.0056
  232MOL0     C31942   6.351  11.200   1.325  0.9144  0.2163 -0.0921
  232MOL0     C31943   6.313  11.307   1.364  0.2118  0.6892 -0.0519
  232MOL0     C31944   6.940  10.856   1.177 -0.7642 -0.4999 -0.4825
  232MOL0     C31945   7.039  10.754   1.150 -0.6068 -0.5583  0.0879
  232MOL0     C31946   7.155  10.803   1.065 -0.5766  0.3847 -0.4679
  232MOL0     H31947   6.996  10.208   1.082  0.0332 -0.0994 -2.3627
  232MOL0     H31948   7.132  10.007   1.023 -0.6204 -1.9001  2.6417
  232MOL0     H31949   7.236   9.809   1.076  1.2291 -0.1994  3.3217
  232MOL0     H31950   7.395   9.747   1.052  1.1268  0.8428 -3.1633
  232MOL0     H31951   7.277   9.743   0.850  2.1073 -0.9968  0.6314
  232MOL0     H31952   7.266   9.928   0.845  2.0631  0.5412 -1.1242
  232MOL0     H31953   7.424   9.899   0.704  0.5052  1.1317  0.8135
  232MOL0     H31954   7.513   9.932   0.853 -0.2642  0.9249  0.0500
  232MOL0     H31955   7.582   9.696   0.861  0.0983 -1.9230 -0.3090
  232MOL0     H31956   7.458   9.640   0.762 -0.5617  1.2358 -0.9093
  232MOL0     H31957   7.537   9.742   0.564  1.0884  0.5916 -0.2209
  232MOL0     H31958   7.666   9.642   0.633  0.7157  0.3893 -1.0822
  232MOL0     H31959   7.652   9.946   0.627 -3.1188 -0.8587 -0.7498
  232MOL0     H31960   7.765   9.842   0.723 -4.3200  0.2099  1.8628
  232MOL0     H31961   7.732   9.810   0.423 -1.2672  0.1730 -0.3545
  232MOL0     H31962   7.840   9.713   0.531 -0.4890  0.1335 -0.8611
  232MOL0     H31963   7.858  10.021   0.497 -1.3994  0.6379 -1.1607
  232MOL0     H31964   7.964   9.909   0.578 -0.3014  0.9234 -0.8229
  232MOL0     H31965   8.010   9.692   0.358 -2.4325 -0.5382 -2.4269
  232MOL0     H31966   8.287   9.768   0.098  0.9950 -0.0680  1.3280
  232MOL0     H31967   8.164   9.647   0.152 -2.3403  1.7241 -0.0307
  232MOL0     H31968   8.298   9.609   0.353  1.3281 -1.8830 -0.5888
  232MOL0     H31969   8.410   9.602   0.219 -2.0505 -1.3642 -0.6516
  232MOL0     H31970   8.426   9.872   0.256 -0.8423 -0.7844 -1.8195
  232MOL0     H31971   8.362   9.838   0.416  3.6883  0.4722  1.5503
  232MOL0     H31972   8.622   9.832   0.415 -0.5603  2.1961 -2.1998
  232MOL0     H31973   8.547   9.676   0.456 -0.0849 -1.9649 -2.6553
  232MOL0     H31974   8.756   9.632   0.483 -0.4148  0.6336 -1.1326
  232MOL0     H31975   9.079   9.643   0.572 -0.5297  0.3360 -0.2162
  232MOL0     H31976   9.059   9.463   0.570 -1.0770 -0.6749  1.9795
  232MOL0     H31977   8.922   9.570   0.619  1.0808  3.9844  1.0668
  232MOL0     H31978   9.296   9.407   0.012  0.9268 -1.2958 -1.4688
  232MOL0     H31979   9.491   9.260  -0.003  0.3356  0.6373 -0.0628
  232MOL0     H31980   9.856   9.447   0.132 -1.5823  0.1895 -0.9904
  232MOL0     H31981   9.886   9.303   0.234  2.5434 -0.4196 -1.0075
  232MOL0     H31982   9.955   9.183   0.008 -1.1412  0.9319 -0.0026
  232MOL0     H31983   9.921   9.339  -0.068  1.1910  0.0171 -0.7777
  232MOL0     H31984  10.094   9.442   0.117 -0.1764 -1.4122  4.4519
  232MOL0     H31985  10.149   9.352  -0.032 -1.3433  1.7212 -0.0991
  232MOL0     H31986  10.190   9.157   0.111 -1.3263  0.2779  0.7971
  232MOL0     H31987  10.096   9.229   0.233  0.6434 -1.7343 -0.3468
  232MOL0     H31988  10.358   9.360   0.109  0.1609  1.2127  0.8252
  232MOL0     H31989  10.265   9.412   0.252 -0.1783  0.5861 -1.5812
  232MOL0     H31990  10.365   9.138   0.240 -0.3613 -1.5707  2.3119
  232MOL0     H31991  10.301   9.227   0.374  0.8761 -0.5053  0.4249
  232MOL0     H31992  10.495   9.366   0.389  1.4812 -1.3212  1.3756
  232MOL0     H31993  10.563   9.304   0.231  0.3938  0.9572  0.4279
  232MOL0     H31994  10.554   9.171   0.507  1.4816 -4.0497  0.7624
  232MOL0     H31995  10.689   9.246   0.420  0.1382 -0.3049  0.5578
  232MOL0     H31996   9.701   9.486   0.292 -0.2100  1.1650  0.9068
  232MOL0     H31997   9.497   9.633   0.319  1.2499  2.9185 -2.1645
  232MOL0     H31998   9.053   9.626   0.087  1.4780 -2.4242  0.5100
  232MOL0     H31999   8.816   9.710   0.079 -0.3263  0.4032  0.7833
  232MOL0     H32000   7.468  10.162   1.243 -0.8337  0.1115  0.6815
  232MOL0     H32001   7.326  10.358   1.303 -3.0024  0.9004 -0.4461
  232MOL0     H32002   6.865  10.498   1.292 -1.5639  0.8778  1.8481
  232MOL0     H32003   6.695  10.681   1.317 -2.3492  0.1676 -3.9119
  232MOL0     H32004   6.661  10.852   1.459  1.0684  0.1212  2.0107
  232MOL0     H32005   6.776  10.986   1.450 -0.8108 -0.0714  2.7396
  232MOL0     H32006   6.602  11.128   1.345  1.8015 -0.4428  0.7264
  232MOL0     H32007   6.570  11.066   1.506  0.7522 -0.5909  0.2882
  232MOL0     H32008   6.464  10.888   1.295  2.6132 -0.0860  0.7008
  232MOL0     H32009   6.385  10.957   1.438  1.2388 -0.0024  0.9338
  232MOL0     H32010   6.278  11.035   1.221 -0.5367  0.8204 -0.7586
  232MOL0     H32011   6.427  11.091   1.164  0.2505 -1.1510  0.2069
  232MOL0     H32012   6.269  11.397   1.402 -2.3358 -0.4669 -0.0565
  232MOL0     H32013   6.960  10.961   1.160 -1.9675 -0.4282 -1.5662
  232MOL0     H32014   7.148  10.751   0.969 -0.7266 -0.9389  0.2393
  232MOL0     H32015   7.140  10.911   1.048  1.5976  0.5108 -2.0504
  232MOL0     H32016   7.257  10.797   1.102 -0.4298  1.4986 -0.6321
  233MOL0     O32017   8.995   8.944   6.609  0.0430  0.3085 -0.0046
  233MOL0     C32018   8.956   8.988   6.501  0.0884 -0.7032 -0.2109
  233MOL0     O32019   9.037   9.035   6.398 -0.8242  0.0970 -0.2241
  233MOL0     C32020   9.172   9.032   6.426 -0.2089 -0.1334 -1.0996
  233MOL0     C32021   9.223   9.120   6.518  0.3325 -0.6199 -0.6394
  233MOL0     C32022   9.357   9.125   6.548 -0.0996  0.2064  0.3128
  233MOL0     C32023   9.450   9.039   6.490  0.5266 -0.0727 -0.4062
  233MOL0     O32024   9.573   9.032   6.543 -0.5887 -0.2556  0.2233
  233MOL0     C32025   9.669   8.945   6.483  0.0746  0.3874  0.0894
  233MOL0     C32026   9.807   8.954   6.544  0.3193 -0.6896  0.2473
  233MOL0     C32027   9.896   9.069   6.493  0.5805  0.7749 -0.0702
  233MOL0     C32028  10.031   9.082   6.562  0.2430  0.1452 -0.4332
  233MOL0     C32029  10.124   9.185   6.503  0.0657  0.0309 -0.1611
  233MOL0     C32030  10.055   9.330   6.501 -0.0630 -0.2498 -0.0517
  233MOL0     C32031  10.162   9.432   6.467  0.1261  0.2778 -0.0320
  233MOL0     C32032  10.096   9.571   6.464  0.3258  0.1592  0.3835
  233MOL0     N32033  10.204   9.677   6.458  0.6257  0.1448 -0.1883
  233MOL0     C32034  10.258   9.722   6.346  0.5076  0.2647 -0.1165
  233MOL0     C32035  10.351   9.824   6.393  0.3674  1.7853  0.3317
  233MOL0     C32036  10.434   9.903   6.301  0.2021 -0.0606  1.2779
  233MOL0     C32037  10.583   9.872   6.321  1.0987  0.0064 -0.7140
  233MOL0     C32038  10.626   9.755   6.234  0.4292 -0.4622  0.0293
  233MOL0     C32039  10.774   9.751   6.209 -0.2846 -0.3088  0.5028
  233MOL0     O32040  10.838   9.711   6.329 -0.0621  0.2857 -0.9493
  233MOL0     C32041  10.974   9.726   6.352  0.0258  0.7151  0.8060
  233MOL0     C32042  11.018   9.674   6.469  0.0724  1.1792  0.6450
  233MOL0     C32043  11.150   9.689   6.519 -0.4338 -0.0119  0.6957
  233MOL0     C32044  11.182   9.621   6.645  0.2798  0.1778  0.4164
  233MOL0     C32045  11.245   9.760   6.440  0.4142 -0.8709 -0.2486
  233MOL0     C32046  11.380   9.803   6.480 -0.3355 -0.1177  0.1270
  233MOL0     O32047  11.445   9.887   6.391 -0.0189  0.4631  0.1932
  233MOL0     C32048  11.543   9.975   6.437 -0.3729 -0.5748  0.3068
  233MOL0     C32049  11.632  10.030   6.336 -0.7080  0.0017 -0.7661
  233MOL0     C32050  11.738  10.113   6.383  0.8961  0.4411  0.4878
  233MOL0     C32051  11.757  10.155   6.511  0.1112  0.3555 -0.0996
  233MOL0     O32052  11.852  10.246   6.546  0.3007 -0.3276  0.3843
  233MOL0     C32053  11.896  10.240   6.680  0.7139 -0.5379 -0.6480
  233MOL0     C32054  12.030  10.309   6.683 -0.4739  0.3109 -0.7005
  233MOL0     C32055  12.130  10.249   6.783 -0.2769  0.9512  0.3317
  233MOL0     C32056  12.255  10.341   6.791  0.4483  0.5350 -1.0171
  233MOL0     C32057  12.370  10.264   6.864  0.7384 -0.0659  0.7050
  233MOL0     C32058  12.498  10.346   6.868 -0.5778  0.3375  0.7014
  233MOL0     C32059  12.497  10.470   6.958  0.4169 -0.0358  0.0763
  233MOL0     C32060  12.607  10.573   6.923  0.4966 -0.0419  1.2878
  233MOL0    Cl32061  12.764  10.501   6.979  0.1405  0.1567 -0.0271
  233MOL0     C32062  11.649  10.121   6.604 -0.5478 -0.1327  0.2507
  233MOL0     C32063  11.551  10.020   6.571 -0.0090  0.2899  0.2966
  233MOL0     O32064  11.409   9.780   6.591  0.1705 -0.1770 -0.6194
  233MOL0     C32065  11.194   9.809   6.312 -0.0178 -0.2845  0.5168
  233MOL0     C32066  11.063   9.788   6.265 -0.4620  0.6155 -0.1944
  233MOL0     N32067  10.324   9.845   6.532  0.8357  0.2154 -0.1928
  233MOL0     N32068  10.242   9.746   6.567 -0.6161 -0.1635  0.3141
  233MOL0     C32069   9.404   8.950   6.390  0.4062  0.3468 -0.8987
  233MOL0     C32070   9.259   8.946   6.365 -0.3478  0.0317  1.0714
  233MOL0     C32071   8.805   8.978   6.483  0.9982 -0.1223  0.0653
  233MOL0     C32072   8.761   8.934   6.356  0.3124  0.2681 -0.3518
  233MOL0     C32073   8.622   8.932   6.328 -0.3008  1.1857 -0.5415
  233MOL0     C32074   8.532   8.968   6.426 -1.4330 -0.4732 -0.8375
  233MOL0     O32075   8.403   8.981   6.379  0.2567 -0.5088 -0.6672
  233MOL0     C32076   8.293   9.051   6.461  0.2720  0.1210  0.3295
  233MOL0     C32077   8.237   8.954   6.571 -0.1529  0.1049  0.2882
  233MOL0     C32078   8.111   8.882   6.537  0.9512 -0.0604 -0.2226
  233MOL0     C32079   8.060   8.784   6.638  0.3146  0.4259 -0.2324
  233MOL0     C32080   7.935   8.717   6.605  0.0449 -0.0729  0.0249
  233MOL0     C32081   7.845   8.653   6.572 -0.8273  0.3200 -0.1219
  233MOL0     C32082   8.577   8.997   6.557  0.0957 -0.4740  0.0075
  233MOL0     C32083   8.712   9.012   6.580 -0.9990 -0.0301 -0.1819
  233MOL0     C32084   8.754   9.064   6.715 -0.2377 -0.8196  0.1930
  233MOL0     H32085   9.160   9.190   6.572 -0.0339 -1.5601  0.1964
  233MOL0     H32086   9.397   9.199   6.617 -1.9321 -0.2943  2.0000
  233MOL0     H32087   9.685   8.963   6.376  1.0989 -0.9034 -0.0072
  233MOL0     H32088   9.633   8.844   6.503  1.0528  0.3015  1.5587
  233MOL0     H32089   9.804   8.964   6.653  0.9741 -2.6251  0.4962
  233MOL0     H32090   9.857   8.863   6.507 -0.1066 -0.3034 -1.3456
  233MOL0     H32091   9.912   9.042   6.388  1.8476  0.8056  0.1049
  233MOL0     H32092   9.840   9.163   6.484  0.2352  0.7750  1.6695
  233MOL0     H32093  10.017   9.109   6.667 -1.4738  3.7834 -1.4200
  233MOL0     H32094  10.081   8.986   6.548 -1.1523 -0.4328 -1.8210
  233MOL0     H32095  10.143   9.152   6.400 -0.3720  0.0750 -0.2592
  233MOL0     H32096  10.217   9.182   6.560  0.6373  1.3622 -0.9698
  233MOL0     H32097   9.978   9.334   6.425 -0.8441  2.2247  0.7670
  233MOL0     H32098  10.018   9.344   6.603  1.0524 -2.5092  0.7317
  233MOL0     H32099  10.199   9.407   6.366 -1.2096 -1.0190 -0.2342
  233MOL0     H32100  10.247   9.418   6.535 -2.0791 -2.6808  2.3700
  233MOL0     H32101  10.031   9.575   6.376 -0.4517  1.5771  0.9854
  233MOL0     H32102  10.038   9.592   6.554  0.1944  1.4141  0.0235
  233MOL0     H32103  10.243   9.689   6.244 -0.1170  0.1583  0.0005
  233MOL0     H32104  10.408  10.007   6.320 -0.8004  0.1866 -1.0680
  233MOL0     H32105  10.401   9.888   6.198  1.1740  0.9362  0.7937
  233MOL0     H32106  10.643   9.961   6.298  0.0701  0.6125 -1.0760
  233MOL0     H32107  10.599   9.842   6.425 -0.7192 -3.5862 -1.3142
  233MOL0     H32108  10.589   9.660   6.274 -2.9995  1.5398  2.0631
  233MOL0     H32109  10.575   9.757   6.137 -0.7066  0.5373  0.6317
  233MOL0     H32110  10.807   9.690   6.125 -0.8403  4.0996 -3.3863
  233MOL0     H32111  10.802   9.849   6.169 -0.1126 -0.5089  0.1300
  233MOL0     H32112  10.946   9.614   6.525 -0.7991  1.4726 -0.1410
  233MOL0     H32113  11.266   9.555   6.624  0.0409 -0.2957  0.9575
  233MOL0     H32114  11.091   9.573   6.682  0.4658  0.5780  1.4015
  233MOL0     H32115  11.206   9.695   6.722  1.4635  0.5611 -0.2846
  233MOL0     H32116  11.621  10.008   6.231  1.2323  1.9433 -1.4582
  233MOL0     H32117  11.792  10.146   6.295 -2.8710  0.3363 -2.1031
  233MOL0     H32118  11.818  10.289   6.739  1.6120  0.5607 -0.3502
  233MOL0     H32119  11.912  10.137   6.716  1.8405  0.0372  0.6135
  233MOL0     H32120  12.068  10.313   6.581 -1.0957  0.8354 -0.9248
  233MOL0     H32121  12.019  10.415   6.710  0.8102 -0.3994  3.2156
  233MOL0     H32122  12.172  10.150   6.761 -1.8818  0.0145  1.3002
  233MOL0     H32123  12.088  10.239   6.883  1.8808 -2.7499  1.0518
  233MOL0     H32124  12.230  10.422   6.860 -1.7026 -2.5917  2.2753
  233MOL0     H32125  12.287  10.379   6.694  0.1162 -0.6733 -1.6263
  233MOL0     H32126  12.344  10.206   6.953 -1.0234  0.2811  0.4532
  233MOL0     H32127  12.394  10.179   6.800  1.6780  1.9242 -1.7177
  233MOL0     H32128  12.514  10.371   6.763  1.4218 -1.5644  0.4831
  233MOL0     H32129  12.583  10.285   6.903 -0.6899  0.2580  0.8356
  233MOL0     H32130  12.512  10.433   7.060  0.1593 -0.4600 -0.0395
  233MOL0     H32131  12.403  10.524   6.950  0.3087 -0.4099 -1.6467
  233MOL0     H32132  12.588  10.658   6.990  0.2791  0.4749  0.5783
  233MOL0     H32133  12.601  10.612   6.821  0.1269 -0.7586  1.0320
  233MOL0     H32134  11.647  10.157   6.707 -4.2534 -3.7523  1.7548
  233MOL0     H32135  11.479   9.982   6.642  1.6181  0.2738  2.0000
  233MOL0     H32136  11.259   9.875   6.255 -0.7067 -0.8907 -1.0140
  233MOL0     H32137  11.025   9.834   6.175 -0.8006  0.6394 -0.0383
  233MOL0     H32138   9.465   8.884   6.328 -0.8235 -0.6545 -1.0862
  233MOL0     H32139   9.221   8.882   6.286  2.2926 -2.4501  1.6489
  233MOL0     H32140   8.828   8.892   6.283 -1.0815  0.5564 -1.8442
  233MOL0     H32141   8.574   8.907   6.234 -1.5269  0.6517  0.2119
  233MOL0     H32142   8.329   9.142   6.511  0.6003  0.0876  0.1558
  233MOL0     H32143   8.211   9.096   6.403  1.5008  0.3426 -1.3155
  233MOL0     H32144   8.221   9.004   6.666  0.2938  0.9822 -0.0857
  233MOL0     H32145   8.311   8.875   6.586  2.3221  1.2770 -3.9547
  233MOL0     H32146   8.035   8.958   6.520  2.1186  1.6825  1.8109
  233MOL0     H32147   8.123   8.823   6.445 -1.6968  0.2670 -0.8536
  233MOL0     H32148   8.049   8.838   6.733 -0.5274  1.4158 -0.8676
  233MOL0     H32149   8.134   8.704   6.645 -1.3203 -1.3018 -1.6729
  233MOL0     H32150   7.762   8.592   6.544 -1.7977  2.5620 -2.4368
  233MOL0     H32151   8.499   9.026   6.627 -1.8810 -1.9095 -1.4785
  233MOL0     H32152   8.799   8.988   6.780 -0.3201 -0.6135  0.4929
  233MOL0     H32153   8.830   9.141   6.699  1.0412 -2.1000 -0.0347
  233MOL0     H32154   8.668   9.108   6.766 -0.7230 -2.0485  0.4769
  234MOL0     O32155   0.251   2.955   2.800  0.1143  0.3898 -0.1997
  234MOL0     C32156   0.220   3.071   2.764 -0.0313  0.2113  0.0597
  234MOL0     O32157   0.088   3.129   2.763 -0.0549 -0.0660 -0.0574
  234MOL0     C32158  -0.013   3.054   2.801  0.0373  0.3079  0.2637
  234MOL0     C32159  -0.054   2.955   2.710 -0.9296 -0.7548 -0.7904
  234MOL0     C32160  -0.174   2.891   2.732 -0.3579  0.4557 -0.3151
  234MOL0     C32161  -0.258   2.912   2.839  0.1883 -0.1545  0.3453
  234MOL0     O32162  -0.382   2.859   2.859 -0.6054  0.1895 -0.1822
  234MOL0     C32163  -0.448   2.789   2.751 -0.2803  0.5754 -0.7350
  234MOL0     C32164  -0.398   2.633   2.758  0.2488 -0.1817  0.2706
  234MOL0     C32165  -0.478   2.557   2.861 -0.5692  0.3616  0.2221
  234MOL0     C32166  -0.609   2.489   2.800 -1.0014  0.3122 -0.6190
  234MOL0     C32167  -0.682   2.397   2.901  0.6622 -0.3315 -0.1328
  234MOL0     C32168  -0.728   2.475   3.024  0.5265  0.4217 -0.4643
  234MOL0     C32169  -0.792   2.384   3.132  0.5773 -0.3473 -0.3918
  234MOL0     C32170  -0.837   2.452   3.265 -0.1145  0.3788 -0.5486
  234MOL0     N32171  -0.750   2.566   3.309  0.0787  0.5301  0.9212
  234MOL0     C32172  -0.736   2.686   3.238 -0.2439  0.4955 -1.0872
  234MOL0     C32173  -0.611   2.724   3.265 -0.0813 -0.7026 -0.7375
  234MOL0     C32174  -0.544   2.845   3.197 -0.8017 -0.0803 -0.1320
  234MOL0     C32175  -0.622   2.983   3.190  0.2647  0.3508 -0.4395
  234MOL0     C32176  -0.587   3.064   3.065  0.5238 -0.2288 -0.0677
  234MOL0     C32177  -0.664   3.202   3.055 -0.2969  1.0067 -0.1625
  234MOL0     O32178  -0.612   3.282   2.941  0.2957 -0.2467 -0.0297
  234MOL0     C32179  -0.479   3.333   2.937  0.7188  0.6455 -0.3671
  234MOL0     C32180  -0.398   3.351   3.052  0.3605  0.6135  0.8732
  234MOL0     C32181  -0.267   3.403   3.046 -0.8355  0.5089 -0.5508
  234MOL0     C32182  -0.187   3.395   3.177 -0.1370 -0.4763  0.5588
  234MOL0     C32183  -0.213   3.439   2.922  0.7096 -0.1137  0.0986
  234MOL0     C32184  -0.082   3.506   2.893  0.3765  0.4332  0.6514
  234MOL0     O32185  -0.055   3.534   2.760  0.4161 -0.1838 -0.0804
  234MOL0     C32186   0.049   3.614   2.725 -0.2829  0.0695 -0.4267
  234MOL0     C32187   0.169   3.559   2.707  0.6724 -0.0375 -0.9310
  234MOL0     C32188   0.274   3.636   2.661 -0.3393 -0.6469  0.2692
  234MOL0     C32189   0.260   3.781   2.646 -0.0019  0.5902 -0.3323
  234MOL0     O32190   0.365   3.855   2.587  0.4981 -0.3159  0.2992
  234MOL0     C32191   0.387   3.989   2.634 -1.0976  0.2021  0.3064
  234MOL0     C32192   0.539   4.004   2.607 -0.0474 -0.1456 -0.0295
  234MOL0     C32193   0.582   4.145   2.660  0.2751 -0.1953 -0.1156
  234MOL0     C32194   0.585   4.156   2.815 -0.9997 -0.0177  0.3650
  234MOL0     C32195   0.653   4.285   2.861  0.6226 -0.3936 -0.7868
  234MOL0     C32196   0.667   4.293   3.015 -0.8037  0.1601 -0.6086
  234MOL0     C32197   0.778   4.398   3.049 -0.4279  0.3788  0.3177
  234MOL0     C32198   0.926   4.343   3.041  0.0084  0.5658  0.0901
  234MOL0    Cl32199   1.018   4.483   2.983 -0.3617  0.4140  0.1230
  234MOL0     C32200   0.140   3.836   2.674  0.2668  0.7741 -0.1495
  234MOL0     C32201   0.030   3.750   2.711 -0.7646 -0.1401 -0.7128
  234MOL0     O32202  -0.016   3.546   2.984  0.1860  0.0477 -0.9479
  234MOL0     C32203  -0.299   3.419   2.808  0.4289  0.9076 -0.2392
  234MOL0     C32204  -0.425   3.355   2.813 -0.0815 -0.4045 -0.2960
  234MOL0     N32205  -0.545   2.629   3.345  0.4663 -0.8264 -0.2020
  234MOL0     N32206  -0.636   2.543   3.378  0.2677  0.2044  1.0744
  234MOL0     C32207  -0.210   3.003   2.934  0.4732 -0.4464 -0.0621
  234MOL0     C32208  -0.088   3.073   2.912  0.6317 -0.0344 -0.0829
  234MOL0     C32209   0.333   3.163   2.743  0.3333  0.2233  0.6395
  234MOL0     C32210   0.408   3.151   2.629 -0.7131 -0.8885  0.2794
  234MOL0     C32211   0.525   3.227   2.607  0.3594 -0.6594  0.0951
  234MOL0     C32212   0.559   3.313   2.710  0.5067  0.8314  0.0462
  234MOL0     O32213   0.663   3.396   2.685 -0.0013 -0.5848 -0.0040
  234MOL0     C32214   0.773   3.357   2.768  0.9986 -0.4189  0.7294
  234MOL0     C32215   0.895   3.419   2.698 -0.3114 -0.0242 -0.3696
  234MOL0     C32216   0.939   3.345   2.578 -0.9379  0.0975 -0.3847
  234MOL0     C32217   1.042   3.438   2.511  0.1360 -0.2783  0.4059
  234MOL0     C32218   1.094   3.386   2.382  0.1720  0.5600 -0.1768
  234MOL0     C32219   1.138   3.338   2.279  0.1247  0.0799  0.7900
  234MOL0     C32220   0.489   3.320   2.831  0.6318  0.1767 -0.8842
  234MOL0     C32221   0.371   3.249   2.842  0.1096 -0.3430 -1.0370
  234MOL0     C32222   0.278   3.295   2.958 -0.1534 -0.4614 -0.0424
  234MOL0     H32223   0.004   2.927   2.622  1.0989 -0.2490  0.3180
  234MOL0     H32224  -0.203   2.823   2.653 -0.0310 -1.2627  1.0062
  234MOL0     H32225  -0.418   2.833   2.655  1.7567 -0.6363 -0.7232
  234MOL0     H32226  -0.556   2.792   2.765 -0.3651  1.4136 -1.4529
  234MOL0     H32227  -0.397   2.596   2.655 -1.0809  0.7903 -0.1182
  234MOL0     H32228  -0.294   2.629   2.791  0.5101 -2.8763 -0.5901
  234MOL0     H32229  -0.419   2.471   2.893 -0.1483 -0.3492 -2.2473
  234MOL0     H32230  -0.510   2.618   2.946 -2.3144 -1.4314  0.9247
  234MOL0     H32231  -0.675   2.567   2.761 -0.6393  0.2468 -1.3885
  234MOL0     H32232  -0.579   2.434   2.710  2.5723  1.9487 -0.6224
  234MOL0     H32233  -0.626   2.306   2.924  0.7560 -1.2182 -3.3875
  234MOL0     H32234  -0.774   2.367   2.849 -1.0000  3.2182  0.4462
  234MOL0     H32235  -0.642   2.519   3.074  3.0962 -2.9959 -1.4902
  234MOL0     H32236  -0.799   2.555   2.998  0.6141  2.4799  4.5666
  234MOL0     H32237  -0.731   2.299   3.163  0.9256  0.6052  1.7271
  234MOL0     H32238  -0.879   2.338   3.084  0.4320  1.4621 -1.9747
  234MOL0     H32239  -0.935   2.498   3.250 -0.2052 -0.2068 -1.9577
  234MOL0     H32240  -0.839   2.369   3.336  1.2238  2.1030  1.6126
  234MOL0     H32241  -0.810   2.730   3.172 -2.7475  0.0169  1.2216
  234MOL0     H32242  -0.515   2.813   3.096 -0.6551 -2.0436  0.5031
  234MOL0     H32243  -0.448   2.855   3.249 -1.1085  0.1103  0.3986
  234MOL0     H32244  -0.728   2.958   3.184  0.1476 -0.1811  2.3961
  234MOL0     H32245  -0.614   3.049   3.277  2.6240 -1.4422  0.8419
  234MOL0     H32246  -0.483   3.096   3.058 -0.7279  4.7187 -0.4810
  234MOL0     H32247  -0.605   2.996   2.981  0.6205  0.6106 -0.7908
  234MOL0     H32248  -0.772   3.181   3.049  0.1930 -2.4359  0.9715
  234MOL0     H32249  -0.663   3.267   3.144 -0.9382  1.8705 -0.7678
  234MOL0     H32250  -0.448   3.339   3.147  0.1757  2.0451  0.9730
  234MOL0     H32251  -0.216   3.312   3.241 -1.4407  1.6575  2.9056
  234MOL0     H32252  -0.204   3.482   3.240 -3.8434 -2.3615  2.4539
  234MOL0     H32253  -0.079   3.386   3.164 -0.0714  0.6309  0.2292
  234MOL0     H32254   0.184   3.453   2.725  0.5431  0.1249  0.2050
  234MOL0     H32255   0.371   3.587   2.657  0.8494  1.6112 -0.2207
  234MOL0     H32256   0.330   4.064   2.578  2.9595  0.3725 -4.1980
  234MOL0     H32257   0.363   4.014   2.738 -1.7565  1.3045 -0.1000
  234MOL0     H32258   0.597   3.922   2.651  0.2279 -0.2971 -0.6687
  234MOL0     H32259   0.544   4.006   2.498  3.3125  0.5140  0.0365
  234MOL0     H32260   0.523   4.224   2.613  0.4803 -0.5717 -1.0323
  234MOL0     H32261   0.686   4.162   2.629 -0.1844  1.6607 -0.7267
  234MOL0     H32262   0.636   4.070   2.858  1.0453  1.5423  1.2574
  234MOL0     H32263   0.485   4.168   2.858 -0.8074  2.1079  0.3272
  234MOL0     H32264   0.751   4.306   2.818  1.7470  2.0397  2.5296
  234MOL0     H32265   0.595   4.373   2.831 -1.5703 -0.8815  1.6371
  234MOL0     H32266   0.695   4.199   3.062 -0.8622  1.1999  1.6568
  234MOL0     H32267   0.569   4.311   3.062  0.2819  1.4470  1.3023
  234MOL0     H32268   0.759   4.439   3.149  1.8481 -1.3021  1.5396
  234MOL0     H32269   0.766   4.477   2.975  1.1235 -0.9274 -1.3969
  234MOL0     H32270   0.944   4.263   2.969 -1.9567  0.5813 -0.4610
  234MOL0     H32271   0.961   4.310   3.139  1.4650  1.5613 -0.0507
  234MOL0     H32272   0.106   3.937   2.649 -0.4394  0.4213 -0.6461
  234MOL0     H32273  -0.072   3.778   2.735 -0.4489 -0.7434  1.5401
  234MOL0     H32274  -0.280   3.440   2.703 -1.0590 -1.1143 -0.9767
  234MOL0     H32275  -0.484   3.335   2.724  0.9931 -0.6955 -0.9681
  234MOL0     H32276  -0.268   3.022   3.023  1.4036  2.4063  0.0470
  234MOL0     H32277  -0.052   3.139   2.990 -0.9328  0.1640  0.5141
  234MOL0     H32278   0.362   3.087   2.555 -0.5654 -1.2990  0.5441
  234MOL0     H32279   0.567   3.227   2.507  1.0537 -0.1083  0.3685
  234MOL0     H32280   0.750   3.399   2.866 -2.2159 -1.7714  0.6586
  234MOL0     H32281   0.778   3.252   2.796  0.2825 -0.5243  0.4766
  234MOL0     H32282   0.984   3.431   2.760 -1.5732  2.0841  1.2006
  234MOL0     H32283   0.869   3.522   2.671 -0.3134  0.2884  0.7675
  234MOL0     H32284   0.993   3.250   2.589  1.2161  1.1621 -1.0742
  234MOL0     H32285   0.855   3.328   2.511  1.5303  2.0004 -4.3293
  234MOL0     H32286   1.123   3.461   2.580 -0.5763 -0.2998  1.2764
  234MOL0     H32287   0.990   3.531   2.485  0.9172  0.3065  0.9151
  234MOL0     H32288   1.173   3.289   2.191 -0.0962  0.3418  0.5576
  234MOL0     H32289   0.510   3.400   2.901 -3.2552 -0.2091  0.9215
  234MOL0     H32290   0.252   3.208   3.019  1.5420 -0.1057  1.2894
  234MOL0     H32291   0.327   3.375   3.015 -0.1219 -0.6897  0.2558
  234MOL0     H32292   0.184   3.334   2.919  0.9597  1.9255 -0.5037
  235MOL0     O32293   0.544  10.906   6.044 -0.5697  0.4087  0.7033
  235MOL0     C32294   0.481  10.894   5.938  0.4183  0.0046  0.8508
  235MOL0     O32295   0.512  10.951   5.827  0.2385  0.0735  0.5027
  235MOL0     C32296   0.633  11.001   5.786  1.1676 -0.1946  0.1829
  235MOL0     C32297   0.633  11.096   5.682  0.2234 -0.8012  0.2890
  235MOL0     C32298   0.746  11.166   5.644 -0.1225 -0.2810 -0.0063
  235MOL0     C32299   0.866  11.140   5.705 -0.6805  0.2120 -1.0955
  235MOL0     O32300   0.976  11.201   5.646 -0.0227 -0.3824  0.4117
  235MOL0     C32301   1.109  11.167   5.691  0.0463  0.3782 -0.2791
  235MOL0     C32302   1.152  11.261   5.795 -0.0593 -0.4603  0.3008
  235MOL0     C32303   1.218  11.388   5.732 -0.3404  0.2450  0.3656
  235MOL0     C32304   1.254  11.489   5.835 -0.1332 -1.1605  0.0340
  235MOL0     C32305   1.344  11.598   5.764  0.2210 -0.3860 -0.4691
  235MOL0     C32306   1.273  11.703   5.670  0.6655  1.3071 -0.0164
  235MOL0     C32307   1.371  11.824   5.649 -0.0914  0.5002  0.1695
  235MOL0     C32308   1.320  11.909   5.540  0.0754 -0.5979 -0.4674
  235MOL0     N32309   1.412  12.017   5.504 -0.2254 -0.4836  0.1745
  235MOL0     C32310   1.513  11.999   5.411  0.2217  0.4066 -0.3154
  235MOL0     C32311   1.596  12.106   5.437 -0.2381  0.5247 -0.2248
  235MOL0     C32312   1.719  12.140   5.359  0.9211  1.0652  0.6237
  235MOL0     C32313   1.693  12.161   5.206  0.0960  0.6050  0.2656
  235MOL0     C32314   1.820  12.201   5.123 -0.2839  0.5803 -0.4843
  235MOL0     C32315   1.873  12.341   5.137  0.4241 -0.2240 -0.7282
  235MOL0     O32316   1.954  12.380   5.025  0.4281 -0.3378  0.0957
  235MOL0     C32317   2.064  12.458   5.054 -0.1747 -0.5080  0.1346
  235MOL0     C32318   2.043  12.586   5.109 -0.0386 -0.2820 -0.2623
  235MOL0     C32319   2.139  12.680   5.126 -1.1870 -0.2285 -0.4260
  235MOL0     C32320   2.097  12.813   5.188 -0.5393  1.0568 -0.7472
  235MOL0     C32321   2.270  12.653   5.099 -0.0812  0.4889  0.6505
  235MOL0     C32322   2.391  12.749   5.119  0.2810 -0.1168 -0.6892
  235MOL0     O32323   2.512  12.694   5.123  0.3179  0.6738 -0.1647
  235MOL0     C32324   2.622  12.771   5.120 -0.1783  0.2942 -0.3162
  235MOL0     C32325   2.650  12.871   5.032 -0.1215 -0.5775  0.5076
  235MOL0     C32326   2.772  12.939   5.037 -0.3915 -0.8711  0.3206
  235MOL0     C32327   2.864  12.902   5.143 -0.5592 -0.8299  1.1332
  235MOL0     O32328   2.979  12.963   5.163  0.2507 -0.2426  0.1438
  235MOL0     C32329   3.057  12.988   5.042  0.2947  0.3796  0.3086
  235MOL0     C32330   3.184  13.063   5.073  0.1240  0.9902 -0.4387
  235MOL0     C32331   3.270  13.006   5.183 -0.4787 -0.2790  0.1052
  235MOL0     C32332   3.414  13.076   5.196  0.1522 -0.8900  0.1052
  235MOL0     C32333   3.473  13.051   5.340  0.0468 -0.6504 -0.0494
  235MOL0     C32334   3.621  13.097   5.341 -0.4525  0.0939  0.0256
  235MOL0     C32335   3.701  13.047   5.470 -0.9897 -0.1578  0.3608
  235MOL0     C32336   3.851  13.066   5.449  0.4215  0.3570 -0.1395
  235MOL0    Cl32337   3.900  13.240   5.455 -0.2736  0.2121  0.1806
  235MOL0     C32338   2.838  12.801   5.227 -0.2774  0.2199  0.2247
  235MOL0     C32339   2.723  12.734   5.215 -0.0346 -0.3261  0.3134
  235MOL0     O32340   2.372  12.870   5.123  0.9428 -0.3292 -0.6848
  235MOL0     C32341   2.296  12.529   5.040  0.2807  0.4234 -0.6270
  235MOL0     C32342   2.196  12.432   5.010 -0.8069  0.0191  0.3573
  235MOL0     N32343   1.550  12.181   5.545  0.2127 -0.0658 -0.1082
  235MOL0     N32344   1.440  12.120   5.584 -0.3886 -0.5586  0.4888
  235MOL0     C32345   0.874  11.047   5.810  0.5502  0.4661 -0.1644
  235MOL0     C32346   0.758  10.977   5.844 -0.3214  0.1159 -0.3325
  235MOL0     C32347   0.349  10.832   5.959 -0.6406  0.0653  0.0855
  235MOL0     C32348   0.305  10.804   6.092  0.8668  0.6444  0.4071
  235MOL0     C32349   0.186  10.739   6.126  0.0697  0.7365  0.5586
  235MOL0     C32350   0.106  10.700   6.027 -0.2336 -0.3986  0.7317
  235MOL0     O32351  -0.010  10.629   6.052  0.7638 -0.9733 -0.1778
  235MOL0     C32352  -0.089  10.573   5.949 -0.5264 -1.1191 -0.1658
  235MOL0     C32353  -0.220  10.544   6.028 -1.2209 -0.1115  0.6477
  235MOL0     C32354  -0.303  10.674   6.023 -0.3037  0.1048 -0.3311
  235MOL0     C32355  -0.443  10.653   6.091  0.8683 -0.3523  0.1236
  235MOL0     C32356  -0.437  10.633   6.234  0.5227  0.2414  0.0930
  235MOL0     C32357  -0.441  10.621   6.356 -0.2105  0.4681 -0.1542
  235MOL0     C32358   0.141  10.735   5.889 -1.0325  0.2604 -0.4045
  235MOL0     C32359   0.264  10.783   5.853 -0.8668 -0.4271 -0.2592
  235MOL0     C32360   0.301  10.797   5.706 -0.7311 -0.4220 -0.5374
  235MOL0     H32361   0.541  11.131   5.636 -0.3843  2.0687  3.2255
  235MOL0     H32362   0.735  11.234   5.560 -1.9818 -3.7152 -2.8191
  235MOL0     H32363   1.172  11.153   5.603  0.9072 -0.7175  0.4744
  235MOL0     H32364   1.108  11.064   5.728 -1.1643  0.7647  0.8593
  235MOL0     H32365   1.067  11.302   5.849 -0.4222  0.7975 -1.1331
  235MOL0     H32366   1.225  11.204   5.853  1.2775 -0.2876 -1.1416
  235MOL0     H32367   1.312  11.364   5.681 -2.4942 -1.0287 -3.4095
  235MOL0     H32368   1.156  11.425   5.650 -1.7109  1.3608  1.8451
  235MOL0     H32369   1.173  11.530   5.897 -2.4528 -1.4297 -2.6227
  235MOL0     H32370   1.323  11.440   5.905  0.6423 -0.3986 -0.1824
  235MOL0     H32371   1.414  11.554   5.692 -1.6526  0.8950 -3.2433
  235MOL0     H32372   1.397  11.653   5.842 -2.0103  0.2307  0.6721
  235MOL0     H32373   1.248  11.660   5.573  2.3183  2.1721 -0.8692
  235MOL0     H32374   1.178  11.736   5.711  0.6731  2.0478 -0.5817
  235MOL0     H32375   1.470  11.783   5.626  0.0726  1.3369 -0.7004
  235MOL0     H32376   1.375  11.874   5.746  0.6807 -1.8370  1.4229
  235MOL0     H32377   1.323  11.848   5.450  1.1759  1.6111 -2.0224
  235MOL0     H32378   1.221  11.948   5.567  0.7206 -0.4679  1.9824
  235MOL0     H32379   1.526  11.924   5.333  1.8395  2.0331 -1.6894
  235MOL0     H32380   1.792  12.059   5.368  0.1566  0.1557 -0.9133
  235MOL0     H32381   1.759  12.235   5.396 -1.9076  3.2661 -1.4707
  235MOL0     H32382   1.643  12.071   5.168 -1.0230  0.5454  1.7702
  235MOL0     H32383   1.617  12.239   5.192 -1.4400 -1.1972 -2.3921
  235MOL0     H32384   1.898  12.125   5.133 -0.7974  0.2057  0.9885
  235MOL0     H32385   1.790  12.185   5.019  1.9453 -1.2650 -0.9191
  235MOL0     H32386   1.796  12.418   5.148  3.8327  3.3847  0.2914
  235MOL0     H32387   1.937  12.353   5.226 -0.5361 -0.6332  0.0350
  235MOL0     H32388   1.941  12.611   5.137  0.3406  0.0002  0.8834
  235MOL0     H32389   1.992  12.809   5.216 -0.2464 -1.8602  0.3453
  235MOL0     H32390   2.126  12.895   5.122  0.5863 -0.5343 -2.3556
  235MOL0     H32391   2.162  12.829   5.275  0.2952 -4.1964 -0.0616
  235MOL0     H32392   2.582  12.896   4.951  0.5938 -0.6959 -0.1319
  235MOL0     H32393   2.789  13.016   4.963  1.5910 -0.3016  1.3080
  235MOL0     H32394   3.086  12.895   4.993  1.0222  0.6377  0.2422
  235MOL0     H32395   2.994  13.049   4.977 -1.4672 -0.4479  1.1714
  235MOL0     H32396   3.239  13.067   4.978  0.8479 -0.6722 -0.1136
  235MOL0     H32397   3.155  13.165   5.100 -0.2946  0.9196 -0.6168
  235MOL0     H32398   3.279  12.900   5.159 -0.1849 -0.2359  0.0264
  235MOL0     H32399   3.226  13.016   5.282  1.3720  0.8178  0.8772
  235MOL0     H32400   3.396  13.183   5.186 -0.8408 -0.8547  1.8598
  235MOL0     H32401   3.476  13.031   5.118 -0.7555 -0.3524 -0.9533
  235MOL0     H32402   3.417  13.105   5.418  1.1627 -2.3783  2.0788
  235MOL0     H32403   3.478  12.943   5.359  0.2411 -1.0160 -2.0218
  235MOL0     H32404   3.624  13.205   5.324  0.7459  0.2187  0.8945
  235MOL0     H32405   3.684  13.051   5.264  1.4886  2.6720 -0.0706
  235MOL0     H32406   3.689  12.941   5.494  1.8303 -0.3680  1.2726
  235MOL0     H32407   3.675  13.104   5.559  0.2857 -1.4886  1.6356
  235MOL0     H32408   3.889  13.027   5.354  0.3006 -1.0975  0.3740
  235MOL0     H32409   3.905  13.015   5.529  0.3667  2.7298  1.4905
  235MOL0     H32410   2.914  12.786   5.303  1.4112  1.0583 -1.2226
  235MOL0     H32411   2.701  12.646   5.276 -0.2698 -0.2043  0.4076
  235MOL0     H32412   2.397  12.512   5.004  0.5986 -0.5338  0.6688
  235MOL0     H32413   2.221  12.338   4.961  1.0963  1.0320 -0.7078
  235MOL0     H32414   0.963  11.024   5.869 -0.4373 -0.2761  1.0892
  235MOL0     H32415   0.768  10.885   5.900 -2.7263 -1.9268 -2.9558
  235MOL0     H32416   0.368  10.832   6.175 -0.4740  1.9511  1.0328
  235MOL0     H32417   0.153  10.729   6.229 -0.2451  0.8264  0.4670
  235MOL0     H32418  -0.117  10.649   5.875  2.2055  1.8692  1.5931
  235MOL0     H32419  -0.024  10.496   5.908  1.7159 -0.0242  1.1000
  235MOL0     H32420  -0.204  10.512   6.131  0.4493 -1.2649  0.0720
  235MOL0     H32421  -0.284  10.464   5.990  0.0747 -1.1895  0.6975
  235MOL0     H32422  -0.244  10.745   6.082 -1.3427 -0.6871  1.7443
  235MOL0     H32423  -0.318  10.701   5.918 -1.4410 -0.9285 -0.4529
  235MOL0     H32424  -0.491  10.566   6.045  0.1824  0.5924 -1.0124
  235MOL0     H32425  -0.512  10.737   6.078 -2.4357 -2.7319  1.0641
  235MOL0     H32426  -0.435  10.611   6.463 -0.9011  1.8536  0.0322
  235MOL0     H32427   0.067  10.703   5.816 -1.2480  0.7757 -0.4123
  235MOL0     H32428   0.228  10.757   5.634 -1.6131 -0.6106  0.4360
  235MOL0     H32429   0.301  10.902   5.675  0.6613 -0.6302 -1.2943
  235MOL0     H32430   0.401  10.757   5.688  0.4196  2.5502 -1.3646
  236MOL0     O32431  10.026   4.100   9.438  0.4518 -0.1716  0.2788
  236MOL0     C32432  10.040   4.153   9.326 -0.6148 -0.2128 -0.9933
  236MOL0     O32433  10.158   4.210   9.277  0.8798  0.1987  0.2397
  236MOL0     C32434  10.233   4.253   9.380 -0.2414 -0.0720 -0.9137
  236MOL0     C32435  10.360   4.195   9.403 -0.0281 -0.5204 -0.3570
  236MOL0     C32436  10.452   4.249   9.496 -0.5804 -0.3235 -0.6563
  236MOL0     C32437  10.419   4.366   9.567  0.2467 -0.5689  0.4338
  236MOL0     O32438  10.511   4.411   9.656 -0.1974 -0.0068  0.4698
  236MOL0     C32439  10.495   4.548   9.708  0.7257  0.3338  0.3461
  236MOL0     C32440  10.610   4.573   9.803 -0.4365  0.2980 -0.0707
  236MOL0     C32441  10.740   4.543   9.733 -0.3430 -0.6105  0.3096
  236MOL0     C32442  10.860   4.588   9.820  0.6186 -0.6736  0.4719
  236MOL0     C32443  10.982   4.579   9.748  0.4303 -0.0486  0.0563
  236MOL0     C32444  11.098   4.646   9.816  0.0605  0.9011 -0.1774
  236MOL0     C32445  11.135   4.544   9.935  0.2022 -0.3450  0.2542
  236MOL0     C32446  11.265   4.588   9.989 -0.2304 -0.4039  0.0966
  236MOL0     N32447  11.299   4.512  10.107  0.0868  0.0705  0.3382
  236MOL0     C32448  11.244   4.536  10.231 -0.0802  0.5763 -0.2924
  236MOL0     C32449  11.304   4.438  10.305  0.1993  0.5244 -0.1572
  236MOL0     C32450  11.299   4.405  10.455  0.0247  0.1206  0.4522
  236MOL0     C32451  11.206   4.283  10.481 -0.0535  0.0370  0.4629
  236MOL0     C32452  11.243   4.216  10.614  0.1392 -0.1901 -0.2944
  236MOL0     C32453  11.159   4.091  10.623 -0.6420  0.0818 -0.2055
  236MOL0     O32454  11.163   4.027  10.751  0.3651  0.3362 -0.5044
  236MOL0     C32455  11.281   3.978  10.794 -0.9804  0.1948 -0.0122
  236MOL0     C32456  11.373   3.901  10.718  0.1119  0.4203  1.0731
  236MOL0     C32457  11.494   3.864  10.766 -0.0116 -0.1685 -0.0610
  236MOL0     C32458  11.597   3.785  10.677 -0.4501 -0.5416  0.0987
  236MOL0     C32459  11.532   3.896  10.906  0.8735 -0.6772 -0.0225
  236MOL0     C32460  11.670   3.880  10.960 -0.5040 -1.3043 -0.7763
  236MOL0     O32461  11.675   3.837  11.085 -0.3595 -0.3453 -0.0590
  236MOL0     C32462  11.796   3.803  11.145  0.2634  0.4514 -0.3118
  236MOL0     C32463  11.832   3.670  11.143 -0.5220  1.1741 -0.4902
  236MOL0     C32464  11.950   3.633  11.198  0.6148 -0.6247 -0.1130
  236MOL0     C32465  12.039   3.724  11.252 -0.0381  1.1045  0.3325
  236MOL0     O32466  12.148   3.669  11.310 -0.3705 -0.0275 -0.0299
  236MOL0     C32467  12.259   3.754  11.333 -0.1403  0.2530 -0.4631
  236MOL0     C32468  12.332   3.785  11.203  0.4862  0.1039 -0.0709
  236MOL0     C32469  12.465   3.859  11.243 -0.3639 -0.1308  0.0447
  236MOL0     C32470  12.562   3.845  11.129 -0.0937 -0.2348 -0.1813
  236MOL0     C32471  12.698   3.910  11.173  0.2726 -0.3602  0.5524
  236MOL0     C32472  12.696   4.069  11.183  0.1190 -0.1732 -0.4123
  236MOL0     C32473  12.836   4.116  11.171  0.5190  0.4413  0.2716
  236MOL0     C32474  12.842   4.269  11.171 -0.5076  0.0994  0.1726
  236MOL0    Cl32475  12.739   4.352  11.051  0.4002 -0.1547 -0.2163
  236MOL0     C32476  12.001   3.851  11.266 -0.1200 -0.2880 -0.0026
  236MOL0     C32477  11.881   3.897  11.202  1.0166  0.1671 -0.8736
  236MOL0     O32478  11.771   3.908  10.892 -0.5062 -0.5600 -0.2885
  236MOL0     C32479  11.435   3.961  10.986 -0.3391  0.3666  1.0616
  236MOL0     C32480  11.310   3.994  10.930 -0.3026  0.7211 -0.3319
  236MOL0     N32481  11.394   4.375  10.228 -0.2645 -0.1709 -0.4813
  236MOL0     N32482  11.402   4.426  10.112  0.8482  0.0956  0.0185
  236MOL0     C32483  10.287   4.423   9.542  0.3121 -0.7260  0.5569
  236MOL0     C32484  10.191   4.365   9.456 -0.5873  0.4680  0.1502
  236MOL0     C32485   9.937   4.129   9.216 -0.3636 -0.4815  0.4567
  236MOL0     C32486   9.959   4.189   9.092 -0.3747  0.2218  0.7565
  236MOL0     C32487   9.869   4.181   8.984  0.0159 -0.0126 -0.2626
  236MOL0     C32488   9.764   4.089   8.990  0.0421  0.8538  0.3799
  236MOL0     O32489   9.675   4.042   8.897  0.2003  0.1796 -0.2194
  236MOL0     C32490   9.720   4.056   8.762 -0.2058  0.2238 -0.1980
  236MOL0     C32491   9.606   4.019   8.670 -0.3116 -0.4120  0.0680
  236MOL0     C32492   9.545   3.886   8.702 -0.3423  0.3944 -0.3412
  236MOL0     C32493   9.448   3.844   8.600 -0.7233  1.0777 -0.1621
  236MOL0     C32494   9.504   3.761   8.491 -0.4588  0.5500  0.2911
  236MOL0     C32495   9.546   3.684   8.405 -0.2576 -0.1173 -0.1367
  236MOL0     C32496   9.737   4.035   9.115  0.0039  0.4489 -0.1903
  236MOL0     C32497   9.815   4.056   9.234 -0.0447  0.1587  0.1827
  236MOL0     C32498   9.759   4.020   9.372 -0.5846  0.7529 -0.2254
  236MOL0     H32499  10.377   4.102   9.350 -1.7573  0.0511 -2.0063
  236MOL0     H32500  10.539   4.190   9.522  1.5288  1.6340 -2.8273
  236MOL0     H32501  10.405   4.551   9.770 -1.3745  1.2875 -2.5473
  236MOL0     H32502  10.485   4.628   9.634 -0.1114  0.6163  0.7579
  236MOL0     H32503  10.608   4.677   9.836 -2.7141  0.0011  0.9594
  236MOL0     H32504  10.598   4.509   9.891  2.2953  1.6871  1.4502
  236MOL0     H32505  10.755   4.435   9.723  0.0196 -0.5097 -0.2532
  236MOL0     H32506  10.737   4.586   9.633 -1.4031  0.9160  0.9596
  236MOL0     H32507  10.859   4.689   9.862  1.3219 -0.8052  0.8205
  236MOL0     H32508  10.865   4.517   9.903 -3.4424  0.9715  2.4419
  236MOL0     H32509  10.972   4.626   9.649 -0.7232 -0.4467 -0.0413
  236MOL0     H32510  11.009   4.473   9.736 -0.2360 -0.1501 -0.6598
  236MOL0     H32511  11.187   4.660   9.755  1.1634  2.0123  1.5834
  236MOL0     H32512  11.071   4.741   9.864 -0.1043  0.0184  1.5533
  236MOL0     H32513  11.146   4.446   9.888 -1.4535  0.3824 -1.7925
  236MOL0     H32514  11.064   4.533  10.018  3.1306 -0.6576  2.8992
  236MOL0     H32515  11.342   4.568   9.913  2.2553  0.3540  2.2482
  236MOL0     H32516  11.272   4.694  10.012  1.2465 -0.3075 -0.6449
  236MOL0     H32517  11.173   4.614  10.257 -1.6796 -0.1947 -2.0950
  236MOL0     H32518  11.270   4.486  10.523  0.8345  1.1480 -0.3866
  236MOL0     H32519  11.401   4.383  10.489  0.0853 -0.4306 -0.0730
  236MOL0     H32520  11.099   4.308  10.475 -0.4386 -1.1037  1.9714
  236MOL0     H32521  11.226   4.194  10.421  2.6584 -0.5838  2.1381
  236MOL0     H32522  11.350   4.193  10.617 -0.0106 -0.8347  1.5446
  236MOL0     H32523  11.207   4.274  10.700 -1.9796 -1.9000  0.0571
  236MOL0     H32524  11.055   4.109  10.596 -0.3545  1.6473 -0.3698
  236MOL0     H32525  11.187   4.024  10.541 -0.7975  0.4823 -0.5881
  236MOL0     H32526  11.346   3.878  10.616 -1.3205  0.9376  1.3114
  236MOL0     H32527  11.606   3.679  10.702  0.4353 -1.1356 -2.3554
  236MOL0     H32528  11.700   3.823  10.672 -0.8916  0.7561  0.6615
  236MOL0     H32529  11.557   3.788  10.575  3.7997  0.8774 -1.7732
  236MOL0     H32530  11.754   3.603  11.110 -1.1410  1.9697 -0.6797
  236MOL0     H32531  11.974   3.527  11.208  1.1505 -0.9313 -3.5177
  236MOL0     H32532  12.244   3.847  11.388  0.8227  1.1417 -1.6442
  236MOL0     H32533  12.329   3.696  11.394 -0.2422  0.8967  0.2907
  236MOL0     H32534  12.352   3.690  11.152 -3.4658 -0.8060 -0.2839
  236MOL0     H32535  12.272   3.851  11.139  1.3874  1.7321  0.6854
  236MOL0     H32536  12.504   3.809  11.333 -0.7544 -0.6940 -0.0939
  236MOL0     H32537  12.438   3.961  11.272 -0.5224 -0.4739  1.1653
  236MOL0     H32538  12.531   3.901  11.041  1.6206 -0.8396 -1.2197
  236MOL0     H32539  12.570   3.747  11.083 -2.1645  1.0367 -3.5849
  236MOL0     H32540  12.736   3.867  11.266 -0.0615 -1.0022  0.4031
  236MOL0     H32541  12.773   3.884  11.098 -0.2665 -1.3623  0.3307
  236MOL0     H32542  12.644   4.109  11.271 -1.8084  2.6948 -2.6655
  236MOL0     H32543  12.633   4.104  11.101 -1.5232  0.8892  1.2325
  236MOL0     H32544  12.884   4.087  11.077 -0.5212  0.6397 -0.3318
  236MOL0     H32545  12.885   4.069  11.257  1.4195 -3.0703 -1.9434
  236MOL0     H32546  12.946   4.282  11.140  0.1297 -3.5177  0.3159
  236MOL0     H32547  12.842   4.310  11.272  0.4073  0.2638  0.1199
  236MOL0     H32548  12.051   3.925  11.327 -1.2247  0.4936 -0.0268
  236MOL0     H32549  11.849   4.001  11.204 -1.5909 -0.5666  0.7563
  236MOL0     H32550  11.457   3.966  11.092  0.8073  0.4399  0.8385
  236MOL0     H32551  11.236   4.049  10.987  0.5360  2.5596 -0.9506
  236MOL0     H32552  10.271   4.522   9.584 -0.3323  0.2125 -1.7332
  236MOL0     H32553  10.095   4.416   9.447 -1.5365 -0.2154  4.3632
  236MOL0     H32554  10.032   4.268   9.076 -0.6953  0.1724 -1.2547
  236MOL0     H32555   9.891   4.230   8.890  4.3454  1.7116  1.3819
  236MOL0     H32556   9.755   4.156   8.736  1.0266  0.0700  0.7584
  236MOL0     H32557   9.807   3.993   8.744  0.2955  1.0844 -0.8158
  236MOL0     H32558   9.641   4.013   8.567 -1.6814  0.9477 -0.4993
  236MOL0     H32559   9.531   4.098   8.675  0.8644  0.7900 -0.7329
  236MOL0     H32560   9.626   3.813   8.706 -0.2081  0.5779  0.4132
  236MOL0     H32561   9.491   3.890   8.797  0.8046 -1.9100  0.4855
  236MOL0     H32562   9.400   3.936   8.565  0.2935  1.7347  0.1155
  236MOL0     H32563   9.373   3.776   8.642  0.3048  0.4895  0.7834
  236MOL0     H32564   9.606   3.625   8.339  0.9960  2.2986 -1.2907
  236MOL0     H32565   9.648   3.974   9.126  2.1822 -3.5080 -2.5474
  236MOL0     H32566   9.663   3.968   9.366  1.1455 -3.3469  2.8594
  236MOL0     H32567   9.823   3.945   9.419 -1.6309  1.5452  2.6936
  236MOL0     H32568   9.751   4.108   9.436 -0.3091 -1.7344  3.5271
  237MOL0     O32569   1.704   3.291   4.921 -0.6434  0.3915  0.8395
  237MOL0     C32570   1.670   3.177   4.940  0.6205  0.4973  0.0196
  237MOL0     O32571   1.745   3.064   4.930 -0.2204  0.4283  0.6883
  237MOL0     C32572   1.879   3.093   4.927  0.1158  0.0990 -0.2783
  237MOL0     C32573   1.960   3.086   5.043 -0.3375  0.6077  0.1458
  237MOL0     C32574   2.091   3.114   5.041 -0.2260 -0.3204  0.1290
  237MOL0     C32575   2.164   3.126   4.915  0.5934 -0.7764 -0.2385
  237MOL0     O32576   2.301   3.123   4.897 -0.3606 -0.8023 -0.1704
  237MOL0     C32577   2.378   3.039   4.989  0.0432  0.4356 -0.1872
  237MOL0     C32578   2.530   3.045   4.974 -0.9706  0.5996  0.2984
  237MOL0     C32579   2.619   3.023   5.102  0.3091 -0.5321 -0.0425
  237MOL0     C32580   2.606   3.136   5.199 -0.4149 -0.3075 -0.0666
  237MOL0     C32581   2.677   3.106   5.332  0.7537  0.2580  0.5484
  237MOL0     C32582   2.803   3.196   5.352  0.0834  0.6488  0.5216
  237MOL0     C32583   2.923   3.159   5.265 -0.7045 -0.0370  0.0571
  237MOL0     C32584   3.000   3.042   5.327  0.7368 -0.7965  1.4634
  237MOL0     N32585   3.140   3.042   5.295 -0.8771  0.5901 -0.5991
  237MOL0     C32586   3.218   3.102   5.194 -0.0804  0.6596 -0.8761
  237MOL0     C32587   3.346   3.076   5.219  0.8893  0.7403 -1.0000
  237MOL0     C32588   3.459   3.101   5.125  0.2073  0.2423  0.3620
  237MOL0     C32589   3.468   3.249   5.083  0.1593 -0.3771  0.8698
  237MOL0     C32590   3.601   3.271   5.003  0.3347  0.4345  0.3772
  237MOL0     C32591   3.616   3.420   4.981 -0.4813 -0.3544  0.2019
  237MOL0     O32592   3.645   3.478   5.102 -0.2357  0.1712 -0.5405
  237MOL0     C32593   3.567   3.584   5.139  0.7925  0.1753 -0.4999
  237MOL0     C32594   3.529   3.591   5.272  0.3419 -0.3701 -0.2959
  237MOL0     C32595   3.445   3.694   5.323  0.0727 -0.1605  0.2504
  237MOL0     C32596   3.417   3.702   5.472  0.8907 -0.2637  0.3726
  237MOL0     C32597   3.401   3.797   5.234  0.0058  0.4681  0.8671
  237MOL0     C32598   3.320   3.915   5.277  1.1183 -0.7294  0.9641
  237MOL0     O32599   3.251   3.918   5.394 -0.3187  0.2386 -1.0149
  237MOL0     C32600   3.166   4.018   5.420 -0.1332  0.2456 -0.0229
  237MOL0     C32601   3.191   4.099   5.526  0.3969  0.5015 -0.2735
  237MOL0     C32602   3.104   4.197   5.563  0.0518  0.6562 -0.1162
  237MOL0     C32603   2.983   4.217   5.496 -0.3644 -0.6881  0.1909
  237MOL0     O32604   2.900   4.325   5.521 -0.1891  0.6205 -0.3702
  237MOL0     C32605   2.961   4.438   5.590  0.1597  0.2511  0.3508
  237MOL0     C32606   2.867   4.562   5.571  0.6333  0.4236  0.1107
  237MOL0     C32607   2.736   4.540   5.638  0.1125  1.1203 -0.4543
  237MOL0     C32608   2.648   4.659   5.626 -0.9736 -0.4961  0.1947
  237MOL0     C32609   2.520   4.664   5.709 -0.9991  0.2578  0.0093
  237MOL0     C32610   2.410   4.588   5.635 -0.0298  0.2514 -0.2589
  237MOL0     C32611   2.279   4.561   5.714 -0.9575  0.2026 -0.2733
  237MOL0     C32612   2.192   4.465   5.639 -0.1629 -0.4055 -1.1179
  237MOL0    Cl32613   2.089   4.542   5.517 -0.0991 -0.1409  0.1603
  237MOL0     C32614   2.951   4.126   5.386  0.7259  0.3367 -0.3864
  237MOL0     C32615   3.045   4.029   5.348 -1.0948  0.4101 -0.1568
  237MOL0     O32616   3.329   4.009   5.199 -0.1437  0.6258  0.0155
  237MOL0     C32617   3.432   3.778   5.093 -0.5572  0.0726  0.5975
  237MOL0     C32618   3.511   3.673   5.046 -0.3351  0.2229 -0.6767
  237MOL0     N32619   3.357   3.013   5.340 -0.3375 -0.4036  0.5101
  237MOL0     N32620   3.240   2.991   5.381  0.2434  0.2065 -0.0241
  237MOL0     C32621   2.085   3.118   4.796  0.1173 -1.1505 -0.4368
  237MOL0     C32622   1.947   3.110   4.807  0.2171 -1.2794  0.8072
  237MOL0     C32623   1.530   3.150   4.985 -0.6345 -0.1539  0.2360
  237MOL0     C32624   1.485   3.017   4.991 -0.2012  0.0008  0.1262
  237MOL0     C32625   1.359   2.986   5.047  0.1617 -0.2714  0.5558
  237MOL0     C32626   1.260   3.079   5.076 -0.3683  0.6844 -0.1465
  237MOL0     O32627   1.141   3.054   5.136  0.1661 -0.4236 -0.1731
  237MOL0     C32628   1.033   3.021   5.047  0.0767 -0.2317 -0.8915
  237MOL0     C32629   0.933   3.131   5.042  0.0667  0.2978  0.0839
  237MOL0     C32630   0.864   3.171   5.176  0.7707  0.1580 -0.4090
  237MOL0     C32631   0.745   3.256   5.149  0.1728  0.4794 -0.5509
  237MOL0     C32632   0.683   3.306   5.275 -0.8553 -0.3557 -0.9015
  237MOL0     C32633   0.621   3.353   5.369 -0.9342  0.1039  0.2413
  237MOL0     C32634   1.303   3.210   5.061  0.8920 -0.4111  0.0628
  237MOL0     C32635   1.438   3.245   5.021  0.0461 -0.3709 -0.3509
  237MOL0     C32636   1.466   3.397   5.019  1.0114 -0.2307 -0.2231
  237MOL0     H32637   1.923   3.065   5.143  2.2269 -0.2266  0.9838
  237MOL0     H32638   2.157   3.114   5.127  0.1930  2.9485 -0.0499
  237MOL0     H32639   2.344   2.936   4.978  1.6256  0.0106 -1.6037
  237MOL0     H32640   2.361   3.079   5.089  2.0323 -0.2818  0.4981
  237MOL0     H32641   2.552   2.976   4.892 -3.6479 -2.1108  1.6422
  237MOL0     H32642   2.546   3.147   4.940 -0.4249  0.7748  1.0418
  237MOL0     H32643   2.592   2.935   5.161 -1.8508 -0.3552 -0.6902
  237MOL0     H32644   2.720   3.006   5.063 -0.3800 -1.4878 -1.5116
  237MOL0     H32645   2.645   3.224   5.146 -0.3145 -1.8096 -2.6957
  237MOL0     H32646   2.504   3.168   5.225 -2.1046 -2.9191 -2.7514
  237MOL0     H32647   2.706   3.000   5.337 -0.2184  0.0341  1.9208
  237MOL0     H32648   2.604   3.123   5.411  0.7432  0.5791  0.4687
  237MOL0     H32649   2.774   3.290   5.304 -0.3517  0.0592 -0.3889
  237MOL0     H32650   2.818   3.209   5.460 -0.3382  2.6322  0.3821
  237MOL0     H32651   2.985   3.249   5.252 -2.1647  0.8981 -0.6499
  237MOL0     H32652   2.894   3.118   5.168 -0.3139 -1.9478  0.7185
  237MOL0     H32653   2.995   3.053   5.436  1.0042 -0.2539  1.4268
  237MOL0     H32654   2.964   2.941   5.305 -2.3196  0.5433 -0.2863
  237MOL0     H32655   3.175   3.151   5.107  1.1358  3.5888  0.0462
  237MOL0     H32656   3.447   3.041   5.034 -0.9870  0.2097  0.5247
  237MOL0     H32657   3.554   3.076   5.173 -0.2270  1.1465  1.7594
  237MOL0     H32658   3.381   3.275   5.020 -1.8833  0.6373  3.8853
  237MOL0     H32659   3.475   3.316   5.169  0.2538  1.2254 -0.3400
  237MOL0     H32660   3.682   3.209   5.042  2.1737  2.9835  0.8262
  237MOL0     H32661   3.578   3.225   4.907 -2.2554  0.7108  0.7898
  237MOL0     H32662   3.704   3.415   4.915 -0.7478 -3.6781 -0.0462
  237MOL0     H32663   3.527   3.446   4.924 -1.7920 -4.8167 -0.1223
  237MOL0     H32664   3.574   3.528   5.349  2.5682  0.1100 -1.1417
  237MOL0     H32665   3.463   3.620   5.529  0.5458  0.1764  1.3020
  237MOL0     H32666   3.312   3.685   5.495  0.8997 -0.7612  0.0797
  237MOL0     H32667   3.441   3.797   5.519 -2.0748 -0.1384  1.8174
  237MOL0     H32668   3.279   4.075   5.584  0.2465  0.0331 -0.2348
  237MOL0     H32669   3.128   4.258   5.650 -1.4222  0.0031  0.7911
  237MOL0     H32670   2.992   4.424   5.694  0.2811  2.1764  0.6173
  237MOL0     H32671   3.054   4.469   5.540  0.7898  1.7566  2.2966
  237MOL0     H32672   2.925   4.641   5.620  0.7917 -0.2099  0.9521
  237MOL0     H32673   2.844   4.591   5.468  0.9633 -1.0481 -0.3914
  237MOL0     H32674   2.755   4.525   5.745 -1.5329 -1.3628 -0.4365
  237MOL0     H32675   2.687   4.447   5.608  0.0971  0.8611  0.3480
  237MOL0     H32676   2.626   4.665   5.520 -2.2054 -2.3736  0.3031
  237MOL0     H32677   2.710   4.744   5.657 -0.3882 -0.3914 -1.2212
  237MOL0     H32678   2.541   4.627   5.810  1.2841 -1.7597 -1.0947
  237MOL0     H32679   2.486   4.768   5.717 -0.7422  0.4743 -1.3788
  237MOL0     H32680   2.442   4.492   5.593 -3.7348 -0.1236 -2.6413
  237MOL0     H32681   2.385   4.645   5.545 -1.3817  2.2567  1.2881
  237MOL0     H32682   2.224   4.653   5.739  0.6640  1.1624 -0.0961
  237MOL0     H32683   2.303   4.518   5.811  0.8515  4.2773  1.3258
  237MOL0     H32684   2.124   4.413   5.706 -0.4232  0.9489 -0.3112
  237MOL0     H32685   2.244   4.386   5.583  1.0996 -0.4805  0.1194
  237MOL0     H32686   2.867   4.131   5.318  0.7511 -0.2623 -0.4636
  237MOL0     H32687   3.019   3.965   5.265  0.6730 -0.6910  0.0983
  237MOL0     H32688   3.407   3.857   5.024 -1.7309 -1.0139 -0.2665
  237MOL0     H32689   3.537   3.672   4.941  1.2841 -1.0164 -0.3055
  237MOL0     H32690   2.128   3.136   4.698 -0.0645 -1.1584 -0.5192
  237MOL0     H32691   1.887   3.130   4.719  1.5041  2.0192  0.5382
  237MOL0     H32692   1.549   2.931   4.975  1.0028  0.4809  2.0365
  237MOL0     H32693   1.338   2.879   5.053 -2.0865  0.0362 -0.7731
  237MOL0     H32694   1.067   3.014   4.943 -1.5766  0.2814 -1.4890
  237MOL0     H32695   0.997   2.922   5.073  0.3337  0.0743  0.7210
  237MOL0     H32696   0.862   3.097   4.966  0.7385  0.1098 -0.4756
  237MOL0     H32697   0.976   3.227   5.012 -1.0011  1.0935  0.9934
  237MOL0     H32698   0.828   3.071   5.202  0.9493 -0.5777 -2.7677
  237MOL0     H32699   0.919   3.215   5.260 -1.3737  1.6536  0.2839
  237MOL0     H32700   0.675   3.195   5.092 -0.6548  0.8906  0.0060
  237MOL0     H32701   0.784   3.349   5.105  2.1193 -0.3679 -0.7034
  237MOL0     H32702   0.575   3.409   5.449  2.5453  2.1291  1.0921
  237MOL0     H32703   1.238   3.292   5.091  1.6297 -0.4809  1.9976
  237MOL0     H32704   1.384   3.451   5.066 -0.5531  0.1162 -3.0872
  237MOL0     H32705   1.550   3.424   5.083 -0.0520 -1.6004  1.8726
  237MOL0     H32706   1.481   3.443   4.921  2.5500 -0.6504 -0.2167
  238MOL0     O32707   1.358   8.164   3.331  0.2270  0.3384 -0.5625
  238MOL0     C32708   1.293   8.246   3.265  0.5951 -0.8539 -0.2812
  238MOL0     O32709   1.340   8.366   3.213 -0.6545 -0.8865 -0.2076
  238MOL0     C32710   1.477   8.379   3.212 -0.1970 -0.1810 -0.4427
  238MOL0     C32711   1.549   8.281   3.135 -0.2636  0.6796  0.1862
  238MOL0     C32712   1.687   8.292   3.125  0.1816  0.1478  0.1000
  238MOL0     C32713   1.754   8.410   3.179 -0.5212  0.7944  1.1218
  238MOL0     O32714   1.895   8.425   3.160 -0.2237 -0.3279  0.6602
  238MOL0     C32715   1.968   8.403   3.276 -0.4784 -0.2722 -0.0264
  238MOL0     C32716   2.106   8.352   3.250  0.2887 -0.5633 -0.3482
  238MOL0     C32717   2.107   8.216   3.190 -0.4112 -0.1205  0.2356
  238MOL0     C32718   2.238   8.144   3.237 -0.5477  0.4681 -0.1155
  238MOL0     C32719   2.253   8.006   3.165 -0.1641  0.1967  1.0147
  238MOL0     C32720   2.382   7.939   3.221 -0.1920  0.5067 -0.6935
  238MOL0     C32721   2.375   7.903   3.371 -0.3225 -0.9850 -0.2773
  238MOL0     C32722   2.474   7.806   3.415  0.0915 -0.7504  0.1212
  238MOL0     N32723   2.603   7.871   3.391 -0.2056  0.3231 -0.1119
  238MOL0     C32724   2.716   7.802   3.363 -0.1583  0.9960 -0.0589
  238MOL0     C32725   2.814   7.893   3.372 -0.6986 -0.1145  0.3301
  238MOL0     C32726   2.961   7.886   3.345 -0.3975 -0.2203 -0.1639
  238MOL0     C32727   3.043   7.876   3.480 -0.5203  0.2482 -0.0930
  238MOL0     C32728   3.026   7.731   3.551  0.2091 -0.6133  0.0687
  238MOL0     C32729   3.089   7.618   3.474  0.0576 -0.0434 -0.2398
  238MOL0     O32730   3.071   7.490   3.534 -0.1742 -0.4338  0.6097
  238MOL0     C32731   3.151   7.387   3.487  0.0243  0.7653 -0.6243
  238MOL0     C32732   3.246   7.393   3.393 -0.2681  0.4272  0.3007
  238MOL0     C32733   3.312   7.270   3.358 -0.0991 -0.4558 -0.3196
  238MOL0     C32734   3.437   7.283   3.273  0.5458 -0.3046 -0.2175
  238MOL0     C32735   3.274   7.140   3.407 -0.6776  0.6166 -0.1701
  238MOL0     C32736   3.352   7.008   3.363  1.1370  0.0622  0.0641
  238MOL0     O32737   3.317   6.891   3.429 -0.1637 -0.2526 -0.1370
  238MOL0     C32738   3.394   6.778   3.413 -0.5357  0.1271  0.1114
  238MOL0     C32739   3.380   6.694   3.310 -0.3425 -0.1991 -0.0762
  238MOL0     C32740   3.453   6.575   3.305 -0.1275 -0.6455 -0.2037
  238MOL0     C32741   3.552   6.534   3.397 -0.1728 -0.0729  0.3070
  238MOL0     O32742   3.622   6.416   3.405 -0.3466  1.1231  0.8731
  238MOL0     C32743   3.547   6.297   3.390 -0.8259 -0.4845  1.0284
  238MOL0     C32744   3.635   6.181   3.365  0.0050  0.4936 -0.0584
  238MOL0     C32745   3.716   6.150   3.493 -0.0629  0.5709 -0.2717
  238MOL0     C32746   3.789   6.012   3.477  0.1582  0.0802  0.3117
  238MOL0     C32747   3.862   5.963   3.605 -0.0493 -0.4375  0.4954
  238MOL0     C32748   3.993   6.048   3.628 -0.0149 -0.7052 -0.3554
  238MOL0     C32749   4.075   6.003   3.748 -0.1262 -0.1021  0.5304
  238MOL0     C32750   4.220   6.049   3.752  0.3361 -0.0430  0.1454
  238MOL0    Cl32751   4.282   6.008   3.594 -0.2276 -0.4121  0.1930
  238MOL0     C32752   3.573   6.627   3.492 -0.4407 -0.2683 -0.3000
  238MOL0     C32753   3.493   6.747   3.504 -0.2161  0.1203  0.4960
  238MOL0     O32754   3.434   7.012   3.267  1.2247  0.1344  0.1941
  238MOL0     C32755   3.175   7.139   3.498  0.8826 -0.1604 -0.5578
  238MOL0     C32756   3.112   7.264   3.535 -0.3479 -0.0015 -0.0335
  238MOL0     N32757   2.753   8.016   3.411  0.4492  0.6132  0.7427
  238MOL0     N32758   2.629   7.998   3.420 -0.6027 -0.2173 -0.4444
  238MOL0     C32759   1.680   8.503   3.253  0.2498 -0.8079  0.4245
  238MOL0     C32760   1.536   8.488   3.274 -0.8321  0.0792 -0.3003
  238MOL0     C32761   1.150   8.224   3.249 -0.7931 -0.5611 -0.6515
  238MOL0     C32762   1.081   8.149   3.360 -1.4669  0.2849  0.3836
  238MOL0     C32763   0.946   8.122   3.357  0.3419  0.6558  0.1609
  238MOL0     C32764   0.874   8.169   3.250  0.1534  0.0688 -0.4648
  238MOL0     O32765   0.746   8.146   3.227 -0.4350 -0.4377 -0.7713
  238MOL0     C32766   0.664   8.072   3.322  0.0651 -0.2612 -0.0066
  238MOL0     C32767   0.520   8.046   3.290 -0.2021 -0.8866  0.8408
  238MOL0     C32768   0.440   8.177   3.299 -0.1911  0.4916  0.3793
  238MOL0     C32769   0.305   8.177   3.231  0.0495 -0.8955 -0.6449
  238MOL0     C32770   0.195   8.117   3.314  0.1113  0.8126  1.5037
  238MOL0     C32771   0.101   8.059   3.360 -0.0994  0.5966 -0.6842
  238MOL0     C32772   0.935   8.239   3.148 -0.4934  0.1694 -0.8747
  238MOL0     C32773   1.070   8.270   3.145  0.5444  0.5273 -0.0235
  238MOL0     C32774   1.109   8.370   3.043 -0.6904 -0.0384 -0.0448
  238MOL0     H32775   1.503   8.202   3.078  0.9252 -0.6825  1.0451
  238MOL0     H32776   1.737   8.221   3.060  0.6156  1.7337 -1.3866
  238MOL0     H32777   1.921   8.334   3.347  1.5335  0.4026  2.0809
  238MOL0     H32778   1.969   8.488   3.344  1.5140 -0.3278  0.0878
  238MOL0     H32779   2.141   8.434   3.187  0.7516  1.0454  1.8506
  238MOL0     H32780   2.154   8.344   3.348  2.3078  0.1476 -1.2280
  238MOL0     H32781   2.024   8.155   3.226  0.7928 -2.1425 -0.2323
  238MOL0     H32782   2.100   8.214   3.080  2.4218 -2.4665 -0.0206
  238MOL0     H32783   2.328   8.203   3.212 -0.9659  0.6907 -1.1646
  238MOL0     H32784   2.239   8.137   3.346  0.0820 -0.0604 -0.1473
  238MOL0     H32785   2.264   8.021   3.057  0.8003 -0.4801  1.0085
  238MOL0     H32786   2.165   7.949   3.197 -0.4232  0.6137  1.0516
  238MOL0     H32787   2.396   7.851   3.158 -2.5363 -0.9524  0.6754
  238MOL0     H32788   2.462   8.011   3.203  0.2209  0.2223 -0.0436
  238MOL0     H32789   2.274   7.868   3.394 -0.6078 -2.0319 -2.7675
  238MOL0     H32790   2.379   8.000   3.421  1.8139 -1.2518  0.1590
  238MOL0     H32791   2.460   7.787   3.522  1.6322 -2.3145  0.1085
  238MOL0     H32792   2.471   7.709   3.364  4.6268 -0.4849 -1.0681
  238MOL0     H32793   2.739   7.701   3.331  0.5168  1.1168  0.0173
  238MOL0     H32794   2.982   7.982   3.297 -1.3165  0.0262 -0.0925
  238MOL0     H32795   2.987   7.817   3.264 -0.0914  1.8442 -1.9038
  238MOL0     H32796   3.149   7.897   3.465 -0.2119 -0.7138  0.6454
  238MOL0     H32797   2.997   7.950   3.547 -1.8921 -0.7263  0.0940
  238MOL0     H32798   3.072   7.739   3.650  0.6634 -2.4249  0.0297
  238MOL0     H32799   2.922   7.712   3.577  0.9348 -1.0233  3.0216
  238MOL0     H32800   3.045   7.621   3.374 -1.7322 -1.7609  0.4436
  238MOL0     H32801   3.196   7.636   3.457  0.1246  0.9937  1.1155
  238MOL0     H32802   3.291   7.480   3.344  0.1841  0.1198  0.1599
  238MOL0     H32803   3.470   7.388   3.278  1.0490 -0.5035  1.7965
  238MOL0     H32804   3.405   7.253   3.173  0.2787 -0.8647  0.0310
  238MOL0     H32805   3.530   7.230   3.295 -0.5037 -2.1424 -0.0501
  238MOL0     H32806   3.308   6.704   3.229 -0.0383  0.1341 -0.3084
  238MOL0     H32807   3.428   6.505   3.226 -1.1099 -2.4341  1.6028
  238MOL0     H32808   3.500   6.273   3.486 -0.9266 -1.6213  0.7039
  238MOL0     H32809   3.475   6.313   3.310 -0.1565 -1.1583  0.2774
  238MOL0     H32810   3.565   6.106   3.327  0.8105 -0.8333  0.9730
  238MOL0     H32811   3.700   6.209   3.281  0.2403  2.7489  0.7932
  238MOL0     H32812   3.645   6.133   3.574 -0.5264  0.3795 -0.7099
  238MOL0     H32813   3.781   6.233   3.520  1.0650 -0.8175  1.4866
  238MOL0     H32814   3.862   6.012   3.396  1.3659 -0.8926  1.3465
  238MOL0     H32815   3.718   5.929   3.467  1.8815 -1.7790  2.4686
  238MOL0     H32816   3.786   5.970   3.683 -0.3762 -3.6649  0.5781
  238MOL0     H32817   3.885   5.857   3.593 -0.2560 -0.5332  0.9365
  238MOL0     H32818   3.975   6.156   3.628 -2.2917 -0.9892 -2.7717
  238MOL0     H32819   4.044   6.035   3.532 -0.8654  1.1183 -1.0952
  238MOL0     H32820   4.088   5.895   3.760 -3.7772 -0.3923  3.3830
  238MOL0     H32821   4.014   6.028   3.834 -3.9418  1.5513 -2.3497
  238MOL0     H32822   4.273   5.986   3.824  1.5586 -0.9259 -1.4759
  238MOL0     H32823   4.222   6.155   3.779  2.8371  0.3559 -1.3249
  238MOL0     H32824   3.646   6.621   3.571 -1.3206  0.4269  0.5983
  238MOL0     H32825   3.515   6.806   3.592  1.4383 -1.0074  0.8787
  238MOL0     H32826   3.131   7.047   3.535  0.9283 -0.1225 -0.4092
  238MOL0     H32827   3.045   7.260   3.620  1.4180 -2.6073  1.3380
  238MOL0     H32828   1.711   8.600   3.292 -0.9996 -0.1319 -0.2015
  238MOL0     H32829   1.482   8.569   3.322 -0.9991  1.5087 -2.7367
  238MOL0     H32830   1.126   8.111   3.451 -1.1600  2.6958  1.3303
  238MOL0     H32831   0.892   8.076   3.439 -0.1916 -2.0154 -1.5808
  238MOL0     H32832   0.705   7.975   3.352  1.0710  0.7233  1.9710
  238MOL0     H32833   0.679   8.134   3.410  3.9262 -2.5346  1.1635
  238MOL0     H32834   0.479   7.974   3.360  1.9615 -2.9650  0.1290
  238MOL0     H32835   0.497   8.020   3.186 -1.6982 -1.5206  1.3176
  238MOL0     H32836   0.424   8.205   3.404  0.4798 -2.4071  1.3575
  238MOL0     H32837   0.499   8.255   3.250  0.3452 -0.9969 -1.4418
  238MOL0     H32838   0.317   8.125   3.136  3.2681 -0.4085 -0.5990
  238MOL0     H32839   0.275   8.279   3.204  0.9375 -0.6803 -0.8351
  238MOL0     H32840   0.019   8.013   3.413  0.0980  0.6644 -0.3188
  238MOL0     H32841   0.875   8.276   3.065  0.9532  0.7957 -1.6754
  238MOL0     H32842   1.137   8.465   3.089 -1.3099  0.0718  0.1225
  238MOL0     H32843   1.191   8.331   2.983  0.4556 -0.3435  1.6372
  238MOL0     H32844   1.034   8.387   2.966 -0.5424  1.1398  0.0589
  239MOL0     O32845   6.311   7.489   4.139 -0.5496 -0.0785  0.2794
  239MOL0     C32846   6.328   7.372   4.181 -0.4094 -0.1242 -0.8249
  239MOL0     O32847   6.225   7.275   4.185 -0.0739 -0.6915 -0.2887
  239MOL0     C32848   6.098   7.310   4.200  1.3798  0.3360 -0.1723
  239MOL0     C32849   6.047   7.428   4.245 -0.1830  0.3959  0.0582
  239MOL0     C32850   5.917   7.467   4.245  0.3656  0.6118 -0.0912
  239MOL0     C32851   5.822   7.363   4.220 -0.2277  0.3978 -0.5665
  239MOL0     O32852   5.688   7.386   4.218  0.4442 -0.2021 -0.2484
  239MOL0     C32853   5.638   7.521   4.234  1.0878 -0.1333  0.7741
  239MOL0     C32854   5.479   7.516   4.226 -0.1331 -1.1486 -0.2686
  239MOL0     C32855   5.420   7.388   4.285  0.1281 -0.3616  0.3177
  239MOL0     C32856   5.447   7.375   4.436  0.2127 -0.2365 -0.1406
  239MOL0     C32857   5.348   7.283   4.507  0.3702 -0.0374  0.6234
  239MOL0     C32858   5.346   7.312   4.656  0.4450 -0.3586  0.6040
  239MOL0     C32859   5.257   7.207   4.725  0.2305 -0.0431 -0.1821
  239MOL0     C32860   5.239   7.242   4.870  0.6009 -0.5188 -0.9388
  239MOL0     N32861   5.152   7.148   4.943  0.5797  0.0016  0.3587
  239MOL0     C32862   5.128   7.009   4.907  0.1782 -0.0920 -0.2764
  239MOL0     C32863   5.063   6.959   5.007  0.5069  0.6930 -0.7338
  239MOL0     C32864   5.009   6.823   5.043  0.0363 -0.2749  0.0910
  239MOL0     C32865   5.076   6.720   4.951 -0.3069  0.4879  0.9912
  239MOL0     C32866   5.210   6.691   5.008 -0.0498  0.5041 -0.2541
  239MOL0     C32867   5.300   6.610   4.921  0.1316  0.7029 -0.6730
  239MOL0     O32868   5.322   6.672   4.796 -0.9933 -0.3992  0.9230
  239MOL0     C32869   5.436   6.726   4.746 -0.0285 -0.1718  0.0406
  239MOL0     C32870   5.439   6.760   4.613 -0.1509  0.4408  0.7261
  239MOL0     C32871   5.558   6.804   4.544  0.0351 -0.2121 -0.2611
  239MOL0     C32872   5.527   6.862   4.410 -0.6816  0.1584  0.1345
  239MOL0     C32873   5.681   6.811   4.611  0.0971  0.1601 -0.1132
  239MOL0     C32874   5.809   6.860   4.558  0.3662  0.8029 -0.1758
  239MOL0     O32875   5.910   6.797   4.610 -0.4201  0.7180  0.3355
  239MOL0     C32876   6.037   6.864   4.607  0.3115  0.3383 -0.5497
  239MOL0     C32877   6.116   6.873   4.493  0.3795 -0.3065 -1.0211
  239MOL0     C32878   6.246   6.920   4.508  0.2334 -0.1423 -0.1045
  239MOL0     C32879   6.297   6.953   4.635 -0.2860  0.0320 -0.6950
  239MOL0     O32880   6.437   6.975   4.640 -0.3916 -0.0146 -0.6437
  239MOL0     C32881   6.468   7.080   4.742  0.7191  1.6150  0.1440
  239MOL0     C32882   6.603   7.147   4.709  0.1632  0.3433 -0.0839
  239MOL0     C32883   6.721   7.049   4.712  0.0344  0.2369  0.2368
  239MOL0     C32884   6.852   7.122   4.681  0.2554  0.2269 -1.1581
  239MOL0     C32885   6.890   7.195   4.807 -0.7949  0.2153 -0.3857
  239MOL0     C32886   7.037   7.219   4.796  0.2789  0.4435 -0.9387
  239MOL0     C32887   7.091   7.258   4.927  0.2569 -0.0024 -0.7271
  239MOL0     C32888   7.232   7.313   4.912 -0.3593 -0.7170 -0.2083
  239MOL0    Cl32889   7.344   7.183   4.873  0.1182 -0.0821  0.0745
  239MOL0     C32890   6.221   6.940   4.745  1.3171  0.4674 -0.4187
  239MOL0     C32891   6.086   6.895   4.732 -1.0300 -0.3221  0.2340
  239MOL0     O32892   5.808   6.944   4.469 -0.5345  0.5656 -0.0029
  239MOL0     C32893   5.684   6.764   4.748 -0.3076  0.4280  0.0165
  239MOL0     C32894   5.568   6.721   4.811 -0.0035 -0.4676 -0.3234
  239MOL0     N32895   5.045   7.052   5.102  0.2908  0.4816 -0.1969
  239MOL0     N32896   5.088   7.170   5.063 -0.0375  0.1945  0.7450
  239MOL0     C32897   5.866   7.235   4.198  0.1868  0.0989 -0.2381
  239MOL0     C32898   5.999   7.211   4.177 -0.0682 -0.2165 -0.2787
  239MOL0     C32899   6.463   7.311   4.198 -0.1142 -0.4434  0.3083
  239MOL0     C32900   6.469   7.201   4.281 -0.1771  0.4063  0.2202
  239MOL0     C32901   6.593   7.136   4.306  0.8205 -0.0360 -0.6887
  239MOL0     C32902   6.709   7.179   4.245  0.1117  0.4586  0.1446
  239MOL0     O32903   6.831   7.122   4.293 -0.2846 -0.4813  0.2134
  239MOL0     C32904   6.945   7.144   4.209 -0.0925  0.2500  0.3631
  239MOL0     C32905   7.062   7.075   4.286  0.6274 -0.1307  0.2553
  239MOL0     C32906   7.128   7.149   4.404 -1.0582  0.0809  0.3357
  239MOL0     C32907   7.209   7.279   4.385  0.0485 -0.4563  0.4994
  239MOL0     C32908   7.326   7.276   4.478  0.1843 -0.8558 -0.4632
  239MOL0     C32909   7.419   7.294   4.553  0.1920 -0.4460 -0.5534
  239MOL0     C32910   6.698   7.289   4.150  0.4143 -0.5216  0.4025
  239MOL0     C32911   6.578   7.352   4.120 -0.8859 -0.1331 -1.3181
  239MOL0     C32912   6.580   7.447   4.004  0.0510  0.9911 -0.0643
  239MOL0     H32913   6.110   7.505   4.289 -4.4923  3.2307  2.0169
  239MOL0     H32914   5.888   7.567   4.275  0.2948  0.0603  1.8107
  239MOL0     H32915   5.678   7.594   4.164  1.5930 -1.7867 -0.7325
  239MOL0     H32916   5.659   7.564   4.333  1.4630  1.1657  0.1489
  239MOL0     H32917   5.438   7.598   4.285 -4.4448 -3.1805 -0.0583
  239MOL0     H32918   5.432   7.531   4.128 -2.2445 -3.3031  0.3203
  239MOL0     H32919   5.312   7.383   4.272  0.1260 -2.0545  0.6904
  239MOL0     H32920   5.456   7.298   4.232  2.6170 -0.3602  1.8390
  239MOL0     H32921   5.547   7.334   4.455  0.7142  0.5821 -0.9276
  239MOL0     H32922   5.426   7.470   4.486 -0.9670 -0.6925  0.2770
  239MOL0     H32923   5.373   7.179   4.487 -2.5759 -0.9752  1.3148
  239MOL0     H32924   5.246   7.301   4.472  0.7927  1.9532  0.2855
  239MOL0     H32925   5.450   7.312   4.690  0.8563 -1.1305 -0.6084
  239MOL0     H32926   5.298   7.409   4.672 -1.2293 -1.2586  1.2503
  239MOL0     H32927   5.297   7.106   4.713  1.6181  0.3562  0.8352
  239MOL0     H32928   5.155   7.198   4.687  0.3898 -2.8527 -0.1420
  239MOL0     H32929   5.334   7.253   4.925 -0.2147 -1.0541  0.6520
  239MOL0     H32930   5.193   7.338   4.894 -1.4222 -2.0554  1.9277
  239MOL0     H32931   5.157   6.965   4.812 -2.0627  3.4794 -2.9016
  239MOL0     H32932   4.900   6.826   5.030 -0.0431 -1.0284  0.5730
  239MOL0     H32933   5.029   6.807   5.149 -2.1590  2.2652  1.0182
  239MOL0     H32934   5.022   6.626   4.939  2.1674 -0.9205 -0.0458
  239MOL0     H32935   5.079   6.741   4.843 -0.4813 -1.7390  0.4973
  239MOL0     H32936   5.265   6.782   5.034  2.2931 -1.5383  2.6898
  239MOL0     H32937   5.194   6.632   5.099 -1.6570  0.5426 -0.4869
  239MOL0     H32938   5.393   6.596   4.978 -1.3122  2.9457  2.5627
  239MOL0     H32939   5.246   6.515   4.913  1.6510 -0.1031 -1.9000
  239MOL0     H32940   5.344   6.759   4.560 -0.2159  1.9687  0.7487
  239MOL0     H32941   5.611   6.846   4.343 -0.1029 -3.9132  1.5478
  239MOL0     H32942   5.495   6.966   4.413 -0.1782  0.2975  1.3134
  239MOL0     H32943   5.445   6.807   4.363 -0.5109  1.0706 -1.2761
  239MOL0     H32944   6.088   6.824   4.400  0.5884 -3.6575  0.5379
  239MOL0     H32945   6.315   6.919   4.424  0.6885 -1.1305  0.2669
  239MOL0     H32946   6.391   7.157   4.737  1.0084  1.8406 -1.7493
  239MOL0     H32947   6.485   7.033   4.840  0.8728  1.1430 -0.1026
  239MOL0     H32948   6.593   7.181   4.605  0.3405  1.2687  0.1934
  239MOL0     H32949   6.619   7.226   4.782  0.9421 -1.1042  1.3856
  239MOL0     H32950   6.710   6.969   4.638 -1.2558  0.5415  0.0818
  239MOL0     H32951   6.720   6.995   4.807 -0.9668 -1.4177 -0.6591
  239MOL0     H32952   6.837   7.185   4.593 -0.7666  1.6901 -0.0022
  239MOL0     H32953   6.930   7.047   4.666 -1.1562 -2.8388  4.1694
  239MOL0     H32954   6.852   7.298   4.816  0.9047  0.8409  0.0689
  239MOL0     H32955   6.860   7.132   4.891 -0.6658  2.0932  1.1439
  239MOL0     H32956   7.046   7.301   4.723  1.2566  2.6513  1.5042
  239MOL0     H32957   7.096   7.134   4.763 -0.0343 -0.2831  0.3090
  239MOL0     H32958   7.091   7.178   5.001 -2.8251 -0.3456 -0.9651
  239MOL0     H32959   7.024   7.330   4.975  0.3059 -0.2868 -0.2291
  239MOL0     H32960   7.258   7.355   5.009  1.8761 -0.2938 -0.9268
  239MOL0     H32961   7.245   7.390   4.836  0.4512 -1.0444 -0.4181
  239MOL0     H32962   6.249   6.960   4.848  1.1943 -0.8061 -0.1212
  239MOL0     H32963   6.018   6.884   4.815 -0.7937 -0.8413  0.3658
  239MOL0     H32964   5.773   6.756   4.810 -1.5982  1.5592  2.1505
  239MOL0     H32965   5.570   6.686   4.914  0.5258 -0.5824 -0.3737
  239MOL0     H32966   5.794   7.157   4.173  0.0574 -0.1896  0.9325
  239MOL0     H32967   6.035   7.111   4.158 -2.2884 -1.2032  0.3319
  239MOL0     H32968   6.379   7.165   4.329  0.2862 -2.4837 -0.8734
  239MOL0     H32969   6.593   7.050   4.373 -0.7087  2.1193  2.2873
  239MOL0     H32970   6.944   7.098   4.109  1.0215  0.5018  0.2266
  239MOL0     H32971   6.967   7.251   4.202  1.4523  0.0641  1.7109
  239MOL0     H32972   7.138   7.051   4.211  0.2182 -0.9265  0.0900
  239MOL0     H32973   7.031   6.977   4.323 -2.4969  0.0899 -1.4263
  239MOL0     H32974   7.062   7.170   4.488 -1.8115 -0.7530 -0.0401
  239MOL0     H32975   7.197   7.076   4.448 -0.6452 -0.5621 -1.2980
  239MOL0     H32976   7.147   7.369   4.395  0.3396  0.4292 -3.5571
  239MOL0     H32977   7.243   7.278   4.281 -2.7631 -2.4686 -0.5155
  239MOL0     H32978   7.507   7.304   4.615  0.7185 -0.4580 -1.2899
  239MOL0     H32979   6.788   7.318   4.097  0.0621  1.0222  0.6144
  239MOL0     H32980   6.592   7.383   3.916 -0.6543  0.0903  0.4865
  239MOL0     H32981   6.487   7.503   3.992  0.7678  2.2124 -0.1029
  239MOL0     H32982   6.672   7.506   4.010  0.0819  0.7644  3.4860
  240MOL0     O32983  10.734   4.922   9.123  0.5142  0.2237  0.7904
  240MOL0     C32984  10.768   4.827   9.054 -0.0817 -0.5851  0.4024
  240MOL0     O32985  10.887   4.767   9.055 -1.0834 -0.7655 -0.3415
  240MOL0     C32986  10.978   4.801   9.157 -0.2320  0.1919 -0.1333
  240MOL0     C32987  11.111   4.812   9.128 -0.2495  0.9385  0.1973
  240MOL0     C32988  11.208   4.807   9.224 -0.6800 -1.5202  0.3448
  240MOL0     C32989  11.167   4.824   9.360 -0.4441  1.1601  0.7559
  240MOL0     O32990  11.264   4.823   9.464 -0.3595  0.2446  0.0585
  240MOL0     C32991  11.395   4.762   9.429  0.8931  0.2378  0.3313
  240MOL0     C32992  11.455   4.717   9.564 -0.4184 -0.1546 -0.1307
  240MOL0     C32993  11.513   4.838   9.640  0.4966 -0.6327  0.5357
  240MOL0     C32994  11.562   4.815   9.779 -0.3101  0.0803  0.4849
  240MOL0     C32995  11.658   4.924   9.822  0.3144 -0.8059  0.6364
  240MOL0     C32996  11.798   4.921   9.753 -0.3423 -1.1261 -0.6915
  240MOL0     C32997  11.890   5.024   9.823  0.7276 -0.4876 -0.3119
  240MOL0     C32998  12.032   5.016   9.756 -0.0915 -0.7095  0.2530
  240MOL0     N32999  12.126   5.120   9.802  0.0614  0.4200  0.1702
  240MOL0     C33000  12.252   5.120   9.765 -0.0937 -0.1660 -0.2853
  240MOL0     C33001  12.302   5.239   9.806 -0.0274  1.0743  0.0535
  240MOL0     C33002  12.444   5.287   9.782  0.0013  0.1906  0.4487
  240MOL0     C33003  12.466   5.428   9.836  0.5645  0.1051 -0.1161
  240MOL0     C33004  12.600   5.483   9.791 -0.3526 -0.8398  0.1712
  240MOL0     C33005  12.631   5.614   9.853  0.2253  0.2549 -0.3841
  240MOL0     O33006  12.768   5.647   9.833  0.3100 -0.1971  0.0974
  240MOL0     C33007  12.801   5.773   9.875  0.3677  0.0398  0.6180
  240MOL0     C33008  12.728   5.862   9.949 -0.6212 -0.1783  0.1425
  240MOL0     C33009  12.765   5.995   9.965  0.5152  0.4832 -0.4211
  240MOL0     C33010  12.665   6.094  10.026  0.0603  0.2453 -0.3092
  240MOL0     C33011  12.899   6.034   9.931 -0.4637  0.2483  1.1285
  240MOL0     C33012  12.952   6.172   9.942 -0.9493 -0.1968  0.1750
  240MOL0     O33013  13.048   6.212   9.841  0.5847  0.2045 -0.9208
  240MOL0     C33014  13.140   6.311   9.868  0.1833 -1.6569 -0.2449
  240MOL0     C33015  13.144   6.422   9.779 -0.5691  0.6307 -0.1868
  240MOL0     C33016  13.246   6.513   9.784 -0.0764 -0.0702 -0.6514
  240MOL0     C33017  13.344   6.502   9.890  0.1842  0.2503  0.2078
  240MOL0     O33018  13.457   6.575   9.925  0.2194 -0.1364  0.6670
  240MOL0     C33019  13.497   6.654   9.811  0.4273 -0.5745  0.0812
  240MOL0     C33020  13.647   6.682   9.830 -0.6752 -0.4949 -0.0692
  240MOL0     C33021  13.692   6.775   9.938  0.2666 -0.4741 -0.9481
  240MOL0     C33022  13.843   6.800   9.945  0.6871 -0.9939 -0.0567
  240MOL0     C33023  13.889   6.885  10.061  0.0863 -0.0252 -0.3777
  240MOL0     C33024  13.856   6.820  10.200  0.3812  0.1520  0.1299
  240MOL0     C33025  13.894   6.918  10.304  0.6580 -0.2145 -0.3341
  240MOL0     C33026  13.910   6.850  10.439 -0.1794 -0.0204 -0.1861
  240MOL0    Cl33027  13.945   6.982  10.546  0.0767  0.4399 -0.6226
  240MOL0     C33028  13.334   6.398   9.981 -0.0203  0.7377  0.0675
  240MOL0     C33029  13.239   6.299   9.958  0.2776 -0.7843  0.2792
  240MOL0     O33030  12.907   6.252  10.030  0.2065  0.7198  0.1942
  240MOL0     C33031  12.984   5.930   9.880  0.0427 -0.5048  0.3789
  240MOL0     C33032  12.936   5.806   9.847 -0.6477 -0.6053 -0.2780
  240MOL0     N33033  12.202   5.314   9.863 -0.1917 -0.1948 -0.1432
  240MOL0     N33034  12.095   5.239   9.856 -0.3238  0.2999  0.0560
  240MOL0     C33035  11.030   4.828   9.393 -0.0044 -0.3069  0.6956
  240MOL0     C33036  10.942   4.810   9.290  0.1110 -0.5026  0.3984
  240MOL0     C33037  10.674   4.781   8.953  0.5263  0.4472  0.0301
  240MOL0     C33038  10.686   4.651   8.897 -0.1288  0.2789 -0.1880
  240MOL0     C33039  10.601   4.589   8.812  0.0257 -0.1029  0.2624
  240MOL0     C33040  10.491   4.663   8.764  0.3085 -0.1341  0.1176
  240MOL0     O33041  10.398   4.631   8.668 -0.3495  0.1228 -0.0450
  240MOL0     C33042  10.392   4.495   8.617  0.1296  0.6209 -0.2267
  240MOL0     C33043  10.293   4.421   8.704  0.2043 -0.1774 -1.1963
  240MOL0     C33044  10.276   4.272   8.673 -0.3389  0.2187 -1.0027
  240MOL0     C33045  10.152   4.222   8.761  0.2263 -0.5222  0.2898
  240MOL0     C33046  10.147   4.079   8.724 -0.2752 -0.5176  0.3508
  240MOL0     C33047  10.144   3.960   8.699 -0.4770 -0.5154 -0.4998
  240MOL0     C33048  10.478   4.794   8.805  0.0972  0.4798  0.0381
  240MOL0     C33049  10.556   4.859   8.907 -0.0972 -1.0930  0.6062
  240MOL0     C33050  10.500   4.991   8.967  1.2507  0.4044 -0.0776
  240MOL0     H33051  11.135   4.808   9.022  0.4734  0.8913  0.3590
  240MOL0     H33052  11.311   4.817   9.194 -0.5194 -0.2707  1.2476
  240MOL0     H33053  11.456   4.827   9.365  0.4554 -0.6552 -1.0313
  240MOL0     H33054  11.382   4.676   9.363 -0.6965  1.0043 -0.4091
  240MOL0     H33055  11.379   4.661   9.620  0.8660 -0.3406  1.4922
  240MOL0     H33056  11.539   4.651   9.541 -0.9983 -1.8912  2.3258
  240MOL0     H33057  11.590   4.881   9.575  1.0793  0.0728  1.6568
  240MOL0     H33058  11.434   4.913   9.646  1.4175  0.6890 -2.2599
  240MOL0     H33059  11.477   4.808   9.847 -1.1079  1.9012 -0.2410
  240MOL0     H33060  11.606   4.715   9.787  1.1594  0.5315 -1.2628
  240MOL0     H33061  11.659   4.910   9.931 -3.4129 -4.0047  0.4929
  240MOL0     H33062  11.607   5.021   9.811  1.6540 -0.2823 -1.3880
  240MOL0     H33063  11.841   4.821   9.759  1.3255 -0.3597  1.4537
  240MOL0     H33064  11.787   4.951   9.648  2.1922  0.3942 -0.6240
  240MOL0     H33065  11.911   4.998   9.927 -2.2952 -1.8190  0.0989
  240MOL0     H33066  11.852   5.125   9.810 -1.9367 -1.4411 -0.5784
  240MOL0     H33067  12.088   4.923   9.771  2.2874  0.0870 -2.6436
  240MOL0     H33068  12.022   5.024   9.647 -1.2802  2.5333  0.5004
  240MOL0     H33069  12.313   5.050   9.708  0.8203  0.7172 -0.4307
  240MOL0     H33070  12.462   5.299   9.675  0.9184  3.2305  0.8605
  240MOL0     H33071  12.522   5.222   9.823  0.2110  0.6563  0.8029
  240MOL0     H33072  12.381   5.489   9.804 -0.2483 -1.1875 -0.5227
  240MOL0     H33073  12.466   5.434   9.945 -0.4117  2.1628 -0.1752
  240MOL0     H33074  12.683   5.416   9.814 -0.1367 -1.7049 -2.6961
  240MOL0     H33075  12.591   5.494   9.682 -2.5138 -1.2142  0.2693
  240MOL0     H33076  12.573   5.689   9.799  0.8808 -0.4683 -2.1345
  240MOL0     H33077  12.608   5.617   9.961  1.3579 -1.7804 -0.0430
  240MOL0     H33078  12.624   5.840   9.969 -0.8532 -2.5048 -2.8249
  240MOL0     H33079  12.676   6.186   9.968 -0.0072  0.1378 -0.4930
  240MOL0     H33080  12.685   6.121  10.130  0.3629  1.6985 -0.7153
  240MOL0     H33081  12.560   6.068  10.008 -0.6853 -1.4664  4.9675
  240MOL0     H33082  13.067   6.438   9.704  0.7341  1.6124 -1.3827
  240MOL0     H33083  13.261   6.592   9.711 -0.1196 -1.9859 -2.8385
  240MOL0     H33084  13.470   6.611   9.714 -0.2321  3.4621 -1.7503
  240MOL0     H33085  13.448   6.752   9.801 -1.1643 -1.3099  0.3339
  240MOL0     H33086  13.687   6.584   9.857 -2.2760 -0.4516  2.7696
  240MOL0     H33087  13.684   6.734   9.741 -2.0722  0.3842 -0.1679
  240MOL0     H33088  13.656   6.730  10.031 -2.1131  0.7465 -1.2174
  240MOL0     H33089  13.633   6.865   9.919 -2.7764 -2.3544 -1.0346
  240MOL0     H33090  13.876   6.846   9.851 -0.5153  1.4589  0.6333
  240MOL0     H33091  13.895   6.704   9.954  0.8730 -0.9435 -0.5409
  240MOL0     H33092  13.998   6.886  10.050  0.0168  1.9548 -1.2274
  240MOL0     H33093  13.852   6.986  10.044 -1.4303 -0.6965 -1.2564
  240MOL0     H33094  13.907   6.723  10.207  1.8721  0.5714 -2.9600
  240MOL0     H33095  13.748   6.808  10.203  0.6498 -2.9991  1.9544
  240MOL0     H33096  13.817   6.995  10.314  2.2767  1.3621  0.5838
  240MOL0     H33097  13.989   6.964  10.274  0.4137  0.2042 -0.4741
  240MOL0     H33098  13.996   6.783  10.425  0.3359  0.9254 -1.9445
  240MOL0     H33099  13.822   6.793  10.470 -1.8291  2.2353 -0.4312
  240MOL0     H33100  13.405   6.390  10.063 -1.3013  0.1206  1.1430
  240MOL0     H33101  13.250   6.209  10.018  2.9118 -0.9120 -0.2767
  240MOL0     H33102  13.083   5.948   9.840  1.4135 -6.2696  0.2395
  240MOL0     H33103  13.010   5.737   9.809 -0.6984 -1.5147  1.2014
  240MOL0     H33104  10.990   4.817   9.494  0.1061 -2.6139  0.5342
  240MOL0     H33105  10.843   4.806   9.333 -0.1655  0.7295 -0.0732
  240MOL0     H33106  10.752   4.571   8.931 -1.6982 -1.3140 -0.7743
  240MOL0     H33107  10.616   4.487   8.778 -0.3330 -0.4306  1.0664
  240MOL0     H33108  10.370   4.489   8.510  1.2664 -2.8719 -0.4169
  240MOL0     H33109  10.493   4.454   8.622 -0.0639  0.2817  2.3489
  240MOL0     H33110  10.197   4.471   8.690 -0.2215 -0.7265 -0.3387
  240MOL0     H33111  10.314   4.434   8.810 -0.3739 -0.7450 -1.0040
  240MOL0     H33112  10.258   4.260   8.566 -1.6998  1.3810 -0.9454
  240MOL0     H33113  10.365   4.214   8.697 -1.2812 -1.9625 -2.4434
  240MOL0     H33114  10.062   4.278   8.733  0.7357  0.8470  1.2651
  240MOL0     H33115  10.172   4.223   8.868  0.6337  3.3937  0.3332
  240MOL0     H33116  10.151   3.855   8.679  0.0318 -0.4979 -0.4339
  240MOL0     H33117  10.388   4.847   8.775  0.1753 -0.4307 -2.0177
  240MOL0     H33118  10.445   5.052   8.895 -0.4294  1.5098  2.0318
  240MOL0     H33119  10.440   4.972   9.056  0.7710 -1.0553 -0.6749
  240MOL0     H33120  10.582   5.057   8.996 -1.1725  2.9778  1.3276
  241MOL0     O33121   6.878   2.989  10.327 -0.8562  0.4328  0.6116
  241MOL0     C33122   6.834   2.905  10.249  0.2704  0.6190 -0.5650
  241MOL0     O33123   6.837   2.915  10.109 -0.6523  0.0639  0.5987
  241MOL0     C33124   6.878   3.029  10.041  0.1297 -0.6879  0.2555
  241MOL0     C33125   6.841   3.163  10.081  0.3317 -0.8273 -0.2783
  241MOL0     C33126   6.887   3.282  10.022 -0.5397  0.2072 -0.1156
  241MOL0     C33127   6.977   3.270   9.916 -0.7058  0.0154  0.4227
  241MOL0     O33128   7.018   3.390   9.850 -0.5692  0.2710 -0.5266
  241MOL0     C33129   7.144   3.391   9.787 -0.1811  0.2337  0.8357
  241MOL0     C33130   7.178   3.534   9.753 -0.1512  0.2458  0.3609
  241MOL0     C33131   7.311   3.550   9.671  0.6442 -0.2814  0.0581
  241MOL0     C33132   7.309   3.501   9.522  0.7966  0.3456 -0.1358
  241MOL0     C33133   7.226   3.604   9.439  0.7347 -0.6447 -1.0930
  241MOL0     C33134   7.217   3.570   9.292  0.4018 -0.9582 -0.3377
  241MOL0     C33135   7.137   3.445   9.258  0.1068  0.1421  0.0630
  241MOL0     C33136   6.996   3.440   9.311 -0.1383 -0.2076 -0.4705
  241MOL0     N33137   6.908   3.535   9.237 -0.0300  0.6053  0.6963
  241MOL0     C33138   6.858   3.510   9.112 -0.7117 -0.3974  0.1787
  241MOL0     C33139   6.776   3.616   9.093 -1.0642 -0.0448  0.0537
  241MOL0     C33140   6.683   3.646   8.974 -0.1290  0.6609  0.5735
  241MOL0     C33141   6.741   3.722   8.853 -0.0642  0.3660 -0.0641
  241MOL0     C33142   6.862   3.655   8.790  0.3381 -0.1788 -0.1138
  241MOL0     C33143   6.922   3.746   8.677  0.2434  0.0179 -0.3148
  241MOL0     O33144   6.971   3.870   8.725  0.8352 -0.3636  0.4338
  241MOL0     C33145   7.082   3.862   8.796 -0.0177 -0.0386  0.4757
  241MOL0     C33146   7.073   3.886   8.934  0.3305  0.5194  0.5425
  241MOL0     C33147   7.183   3.907   9.017  0.2556  0.0355  0.4088
  241MOL0     C33148   7.168   3.922   9.164 -0.2482  0.4930  0.4295
  241MOL0     C33149   7.308   3.880   8.963 -0.0453 -0.2139  0.4135
  241MOL0     C33150   7.432   3.890   9.038  0.5607 -0.3769  0.9625
  241MOL0     O33151   7.501   3.777   9.049  0.1621 -0.0041 -0.5780
  241MOL0     C33152   7.635   3.771   9.079 -0.4943 -0.5938 -0.3494
  241MOL0     C33153   7.697   3.648   9.036  0.2712  0.3202  0.4657
  241MOL0     C33154   7.830   3.620   9.070 -0.6622  0.3892  0.1230
  241MOL0     C33155   7.905   3.705   9.146 -1.5800  0.2524 -0.0214
  241MOL0     O33156   8.039   3.685   9.187 -0.4491  0.2792  0.0346
  241MOL0     C33157   8.096   3.559   9.162 -0.2946  0.6442 -0.3736
  241MOL0     C33158   8.247   3.550   9.193  0.3093  0.4142 -0.5108
  241MOL0     C33159   8.336   3.649   9.111  1.2426  0.5786 -0.1601
  241MOL0     C33160   8.349   3.792   9.184  0.0247 -0.3001 -0.3566
  241MOL0     C33161   8.448   3.881   9.103 -0.5228 -0.4563  0.6119
  241MOL0     C33162   8.592   3.840   9.124  0.3515  0.3077 -0.4558
  241MOL0     C33163   8.683   3.939   9.055  0.4183  0.3745  0.2908
  241MOL0     C33164   8.833   3.913   9.078 -0.2331  0.6674 -0.1785
  241MOL0    Cl33165   8.861   3.903   9.255 -0.1118 -0.1368 -0.1209
  241MOL0     C33166   7.852   3.828   9.184  0.6073 -0.2902 -0.0548
  241MOL0     C33167   7.712   3.862   9.160 -0.8225  0.6963  0.3027
  241MOL0     O33168   7.459   3.995   9.088  0.2453 -0.4406 -0.1146
  241MOL0     C33169   7.318   3.857   8.825  0.1726  0.6468  0.2421
  241MOL0     C33170   7.205   3.843   8.744 -0.1068 -0.2393  0.0624
  241MOL0     N33171   6.776   3.700   9.200  0.3050  0.7052  0.5954
  241MOL0     N33172   6.868   3.654   9.278  1.3501 -0.5199  0.3542
  241MOL0     C33173   7.024   3.138   9.875  0.7225 -0.2205  0.3490
  241MOL0     C33174   6.968   3.024   9.932 -0.0249 -0.3372 -0.0552
  241MOL0     C33175   6.788   2.774  10.306  0.4182 -0.4765 -0.5977
  241MOL0     C33176   6.816   2.653  10.240 -0.4448 -0.2100  0.1486
  241MOL0     C33177   6.782   2.524  10.283 -0.3530 -0.1901 -0.3181
  241MOL0     C33178   6.722   2.513  10.408 -1.0781  1.1579  0.0102
  241MOL0     O33179   6.706   2.378  10.443  0.8063 -0.4727 -0.4033
  241MOL0     C33180   6.659   2.339  10.574  0.0154 -0.0647 -0.0762
  241MOL0     C33181   6.634   2.188  10.586  0.0800 -0.4445  0.7362
  241MOL0     C33182   6.765   2.114  10.574  0.1984  0.2397  0.2090
  241MOL0     C33183   6.753   1.964  10.612  0.0726  1.0180 -0.7432
  241MOL0     C33184   6.657   1.902  10.517  1.2133  0.0072 -0.0998
  241MOL0     C33185   6.563   1.863  10.446 -0.4034  0.0324 -0.7750
  241MOL0     C33186   6.692   2.626  10.474  0.0228  0.6394 -1.0345
  241MOL0     C33187   6.720   2.761  10.434 -0.4361  0.1245 -0.5766
  241MOL0     C33188   6.680   2.880  10.523  0.1720  0.2298  0.5566
  241MOL0     H33189   6.774   3.189  10.162  0.0910 -0.4328 -0.6007
  241MOL0     H33190   6.875   3.381  10.066  3.1828  0.4527  0.6983
  241MOL0     H33191   7.140   3.334   9.694  0.4715  0.2058  0.8213
  241MOL0     H33192   7.225   3.358   9.852  1.2371 -1.3577 -1.5987
  241MOL0     H33193   7.096   3.571   9.692 -2.3860 -0.8841  2.5047
  241MOL0     H33194   7.173   3.589   9.847  1.4625  2.1226 -0.5865
  241MOL0     H33195   7.327   3.658   9.675 -2.1655  0.3423 -2.3329
  241MOL0     H33196   7.381   3.497   9.737 -0.0526  0.8628  1.8166
  241MOL0     H33197   7.415   3.495   9.497  1.6868  1.3513  2.9637
  241MOL0     H33198   7.273   3.399   9.506  0.5339 -0.0378  2.4475
  241MOL0     H33199   7.278   3.701   9.434 -0.5513  0.1279 -0.0245
  241MOL0     H33200   7.127   3.617   9.484  0.9811 -4.4928  0.9192
  241MOL0     H33201   7.181   3.653   9.230 -0.5195 -1.7787 -0.9213
  241MOL0     H33202   7.320   3.547   9.262 -0.0275 -3.5378 -0.0571
  241MOL0     H33203   7.194   3.355   9.284 -1.2077 -0.3552  1.3848
  241MOL0     H33204   7.122   3.434   9.151 -0.1718  1.3857 -0.0455
  241MOL0     H33205   6.958   3.340   9.289 -2.8215  1.0098 -1.7961
  241MOL0     H33206   6.993   3.451   9.420 -0.8018 -0.1702 -0.4897
  241MOL0     H33207   6.883   3.424   9.051 -2.7582 -1.0751  0.2328
  241MOL0     H33208   6.599   3.705   9.013 -0.5839  0.4840 -0.1157
  241MOL0     H33209   6.635   3.558   8.931 -0.1314  0.7229  0.4498
  241MOL0     H33210   6.663   3.730   8.777  0.5064  2.1325 -0.4988
  241MOL0     H33211   6.768   3.823   8.886  0.5345 -0.2822  1.5716
  241MOL0     H33212   6.927   3.653   8.878 -1.4951 -1.2678  1.2796
  241MOL0     H33213   6.840   3.556   8.748 -0.4584 -0.1444  0.2016
  241MOL0     H33214   7.006   3.699   8.625  1.3549  1.6409 -0.0924
  241MOL0     H33215   6.844   3.774   8.605 -1.2562  4.6584  2.6326
  241MOL0     H33216   6.974   3.900   8.976  0.4842 -1.3785  1.6421
  241MOL0     H33217   7.238   3.856   9.216  0.5637 -0.1777 -1.4350
  241MOL0     H33218   7.066   3.895   9.196 -1.5206  3.2612 -0.9566
  241MOL0     H33219   7.185   4.028   9.187 -0.1341  0.2536  1.4840
  241MOL0     H33220   7.640   3.567   8.992  0.3170 -0.4286  1.7382
  241MOL0     H33221   7.862   3.518   9.050  1.0211  0.9626 -0.2433
  241MOL0     H33222   8.047   3.489   9.231  1.9193  0.3269  0.9678
  241MOL0     H33223   8.078   3.525   9.059 -4.0086  3.7787 -0.9932
  241MOL0     H33224   8.265   3.557   9.301  1.8479  4.2670 -0.8501
  241MOL0     H33225   8.272   3.450   9.157 -0.9606 -0.1428  0.0493
  241MOL0     H33226   8.297   3.672   9.012 -2.3860  1.3706  1.2843
  241MOL0     H33227   8.430   3.593   9.109 -0.2672 -2.1615 -0.0099
  241MOL0     H33228   8.379   3.790   9.290  1.6520 -0.2120 -0.7988
  241MOL0     H33229   8.246   3.830   9.188 -0.1937 -0.9524  0.7202
  241MOL0     H33230   8.421   3.881   8.997 -1.3287  1.3650  0.7674
  241MOL0     H33231   8.422   3.985   9.124 -4.0432 -0.7245 -1.6407
  241MOL0     H33232   8.608   3.740   9.082  1.5891 -0.3449  1.4171
  241MOL0     H33233   8.604   3.843   9.233 -0.3143 -0.3573 -0.3491
  241MOL0     H33234   8.659   4.038   9.093 -1.4454 -0.3149  1.0637
  241MOL0     H33235   8.663   3.943   8.948  2.7388  0.7637 -0.1803
  241MOL0     H33236   8.908   3.983   9.040  2.5937 -0.5683  2.6153
  241MOL0     H33237   8.852   3.816   9.031 -0.0103  0.9486 -0.6760
  241MOL0     H33238   7.903   3.902   9.245 -0.3671 -0.4452  0.9901
  241MOL0     H33239   7.669   3.960   9.178  0.4046  1.4879 -0.8855
  241MOL0     H33240   7.411   3.837   8.771 -1.7192  0.6303 -3.2644
  241MOL0     H33241   7.211   3.831   8.636 -0.9399  1.2524 -0.1687
  241MOL0     H33242   7.106   3.140   9.803  1.8605 -0.3717  1.5845
  241MOL0     H33243   6.994   2.921   9.911  3.0841 -0.1495  2.1565
  241MOL0     H33244   6.875   2.658  10.149  1.7714 -0.1620  1.5118
  241MOL0     H33245   6.799   2.437  10.220 -0.7665 -1.8010  1.6773
  241MOL0     H33246   6.734   2.356  10.652  1.0959  2.5594 -1.5517
  241MOL0     H33247   6.568   2.396  10.593 -1.6325 -2.4759 -0.2036
  241MOL0     H33248   6.560   2.175  10.506  2.6503 -1.1386 -1.7277
  241MOL0     H33249   6.585   2.170  10.682 -1.9709  0.2122 -0.1365
  241MOL0     H33250   6.794   2.123  10.468  2.1901  0.3899  0.7204
  241MOL0     H33251   6.849   2.164  10.622  0.6350 -0.6609  0.4215
  241MOL0     H33252   6.714   1.965  10.714 -3.8600  2.2567 -2.0778
  241MOL0     H33253   6.852   1.919  10.599 -0.7183 -1.4905  1.0904
  241MOL0     H33254   6.487   1.820  10.385 -0.5913  0.3455 -0.7652
  241MOL0     H33255   6.650   2.597  10.570  2.4964 -4.3305 -1.1584
  241MOL0     H33256   6.599   2.846  10.589 -2.4414  0.7836 -2.1132
  241MOL0     H33257   6.764   2.902  10.589  0.7352  0.0020 -0.0632
  241MOL0     H33258   6.645   2.967  10.466  0.3747  2.2481  3.3297
  242MOL0     O33259   8.163   7.558   0.017  0.0371 -0.2375  0.4980
  242MOL0     C33260   8.083   7.656   0.019 -1.4358  0.0127 -0.0163
  242MOL0     O33261   8.053   7.726   0.134 -0.8863  0.5721  0.6763
  242MOL0     C33262   8.138   7.704   0.244 -0.0555  0.2832 -0.6275
  242MOL0     C33263   8.214   7.812   0.285  0.8250 -0.1383 -0.7466
  242MOL0     C33264   8.298   7.795   0.405 -0.3138  0.1344  0.8319
  242MOL0     C33265   8.307   7.670   0.467  0.7846  0.0494  0.2340
  242MOL0     O33266   8.406   7.654   0.560 -0.0529 -0.0366 -0.0335
  242MOL0     C33267   8.491   7.538   0.551 -0.3031  0.4018 -0.1995
  242MOL0     C33268   8.639   7.577   0.580  1.3716 -0.6377 -0.6875
  242MOL0     C33269   8.639   7.670   0.698 -0.1042 -0.5012 -0.2024
  242MOL0     C33270   8.756   7.663   0.805  0.8686 -0.4532 -1.1366
  242MOL0     C33271   8.722   7.750   0.928  0.5169  0.1330 -0.0067
  242MOL0     C33272   8.823   7.727   1.033 -0.2745 -0.3459  0.3377
  242MOL0     C33273   8.808   7.816   1.155 -0.0964  0.2883 -0.0052
  242MOL0     C33274   8.906   7.787   1.266 -0.6319  0.2509 -0.1195
  242MOL0     N33275   8.845   7.812   1.390 -0.0359 -0.0562  0.1550
  242MOL0     C33276   8.748   7.728   1.447 -0.7624  0.1237  0.7710
  242MOL0     C33277   8.692   7.811   1.543  0.1327  0.6080  0.4565
  242MOL0     C33278   8.572   7.764   1.628 -1.3823  0.0868  0.5307
  242MOL0     C33279   8.550   7.858   1.740  0.0635 -0.0588 -0.8205
  242MOL0     C33280   8.502   7.792   1.874  0.6560  0.7451  0.7493
  242MOL0     C33281   8.613   7.732   1.952  0.6225  0.6504  0.1352
  242MOL0     O33282   8.672   7.833   2.034 -0.1982 -0.6551  0.2471
  242MOL0     C33283   8.812   7.826   2.041 -0.5241  0.0678  0.0759
  242MOL0     C33284   8.865   7.792   2.161  0.6634  0.4040 -0.5995
  242MOL0     C33285   9.003   7.770   2.173  0.6393  0.3126  0.0386
  242MOL0     C33286   9.037   7.731   2.318 -0.6869 -0.1608 -0.4060
  242MOL0     C33287   9.090   7.798   2.061  0.4212 -0.1362  0.1281
  242MOL0     C33288   9.228   7.759   2.050  0.3309  0.7223 -0.1050
  242MOL0     O33289   9.297   7.799   1.944 -0.2027  0.0891  0.2522
  242MOL0     C33290   9.431   7.774   1.944  0.3570 -0.2535  0.4519
  242MOL0     C33291   9.514   7.867   2.008 -0.0473  0.1909  0.1696
  242MOL0     C33292   9.655   7.855   1.999  0.3542 -0.1088 -0.1828
  242MOL0     C33293   9.714   7.756   1.920 -0.1473 -0.7021 -0.5861
  242MOL0     O33294   9.854   7.754   1.924  0.2274 -0.3462  0.1696
  242MOL0     C33295   9.929   7.658   1.847 -1.4405 -0.4719 -0.2132
  242MOL0     C33296  10.063   7.655   1.924  0.1784  0.0984 -0.2797
  242MOL0     C33297  10.145   7.790   1.912 -0.2559  0.4867  0.2297
  242MOL0     C33298  10.283   7.769   1.857 -0.7080 -0.7151  0.4029
  242MOL0     C33299  10.332   7.895   1.799  0.2222 -0.0961  0.2195
  242MOL0     C33300  10.485   7.892   1.760 -0.4765  0.5994 -0.0314
  242MOL0     C33301  10.522   8.031   1.703 -0.0191 -1.0509 -0.3941
  242MOL0     C33302  10.662   8.044   1.640  0.3559  0.0535 -0.5023
  242MOL0    Cl33303  10.789   8.031   1.770 -0.4351 -0.4518 -0.0110
  242MOL0     C33304   9.626   7.659   1.865 -0.5772  0.1485  0.0433
  242MOL0     C33305   9.484   7.670   1.872  0.9535 -0.0542  0.8141
  242MOL0     O33306   9.271   7.677   2.131 -0.5968  0.0364 -0.3397
  242MOL0     C33307   9.036   7.851   1.941 -0.3978  0.1418 -0.7283
  242MOL0     C33308   8.893   7.861   1.933 -0.1826 -0.5357 -0.6338
  242MOL0     N33309   8.759   7.928   1.547  0.1188 -0.1938  0.4502
  242MOL0     N33310   8.856   7.931   1.457  0.1206  0.1350 -0.6657
  242MOL0     C33311   8.224   7.574   0.416 -0.0739 -0.4613 -0.3958
  242MOL0     C33312   8.139   7.588   0.310 -0.0659 -1.0824 -0.0056
  242MOL0     C33313   8.005   7.691  -0.101 -0.0605  0.5427  1.1783
  242MOL0     C33314   7.884   7.767  -0.083 -0.7250 -0.4569  0.8949
  242MOL0     C33315   7.813   7.816  -0.189 -0.4753  0.5422  0.2987
  242MOL0     C33316   7.849   7.776  -0.325 -0.4873 -0.4742 -0.2912
  242MOL0     O33317   7.794   7.812  -0.438 -0.1700 -0.4740  0.1951
  242MOL0     C33318   7.661   7.874  -0.441 -0.1407 -0.3718  0.2711
  242MOL0     C33319   7.618   7.903  -0.583  0.2472  0.2889  0.7309
  242MOL0     C33320   7.697   8.020  -0.646  0.2986 -0.2855 -0.4096
  242MOL0     C33321   7.658   8.047  -0.803 -0.0433  0.3953 -0.0905
  242MOL0     C33322   7.752   8.148  -0.858  0.0914  0.4646 -0.5701
  242MOL0     C33323   7.832   8.234  -0.890  0.5768 -0.6780  0.2757
  242MOL0     C33324   7.958   7.688  -0.339  0.5911  0.7008  0.1112
  242MOL0     C33325   8.042   7.656  -0.232  0.3682  0.3298  0.2676
  242MOL0     C33326   8.176   7.603  -0.283  0.1992 -0.0321 -0.1180
  242MOL0     H33327   8.206   7.906   0.232  1.4224 -0.0127 -0.6208
  242MOL0     H33328   8.354   7.876   0.449  0.0330 -0.0974  0.8203
  242MOL0     H33329   8.491   7.494   0.450  0.8618  0.4613 -0.2373
  242MOL0     H33330   8.446   7.460   0.613  1.2448 -1.9665 -1.8506
  242MOL0     H33331   8.700   7.488   0.600  0.3439 -1.7258 -2.2371
  242MOL0     H33332   8.677   7.626   0.490 -2.1479  1.3339 -1.2989
  242MOL0     H33333   8.642   7.773   0.661  1.8922 -0.7785 -0.9399
  242MOL0     H33334   8.546   7.652   0.753  0.1520  0.7740  0.6884
  242MOL0     H33335   8.770   7.559   0.836 -2.0631 -0.2604  1.2783
  242MOL0     H33336   8.851   7.697   0.763  0.0077  0.5871 -2.3380
  242MOL0     H33337   8.625   7.717   0.967 -0.9652 -1.2586 -4.2042
  242MOL0     H33338   8.714   7.853   0.891 -3.1163 -0.3834 -1.1045
  242MOL0     H33339   8.817   7.624   1.070  3.4352 -0.2556  1.6250
  242MOL0     H33340   8.926   7.739   0.997 -0.9120  0.3548 -1.3676
  242MOL0     H33341   8.707   7.818   1.195  1.0124  2.7107  3.0539
  242MOL0     H33342   8.835   7.910   1.106 -0.5433 -0.4323 -1.6986
  242MOL0     H33343   8.936   7.683   1.258 -0.1359  0.4235 -0.5427
  242MOL0     H33344   8.988   7.858   1.249 -1.5874  1.9345  1.7493
  242MOL0     H33345   8.696   7.639   1.412 -2.3572 -0.1857  3.6564
  242MOL0     H33346   8.593   7.666   1.672  1.6193  0.2048 -0.4133
  242MOL0     H33347   8.483   7.757   1.565 -0.3028  1.1132 -1.2043
  242MOL0     H33348   8.639   7.917   1.764  0.6170 -0.9609 -0.5665
  242MOL0     H33349   8.475   7.932   1.711  0.4288  1.9760  2.8570
  242MOL0     H33350   8.445   7.865   1.932 -1.8869  0.7035 -1.4841
  242MOL0     H33351   8.435   7.708   1.856  0.2946  1.2441 -0.3308
  242MOL0     H33352   8.579   7.651   2.016  0.1329  1.5433  1.0329
  242MOL0     H33353   8.688   7.684   1.888  0.7353 -0.5090  1.1101
  242MOL0     H33354   8.796   7.774   2.243 -0.0331  2.4026 -0.6950
  242MOL0     H33355   8.959   7.748   2.393  0.6188 -2.8539  1.7662
  242MOL0     H33356   9.130   7.779   2.351 -3.1066  3.1088  2.4472
  242MOL0     H33357   9.055   7.623   2.318  0.0147 -0.1483  2.9180
  242MOL0     H33358   9.476   7.957   2.057 -1.8157 -0.3824 -0.0962
  242MOL0     H33359   9.721   7.932   2.037 -1.0676  2.1713 -2.0638
  242MOL0     H33360   9.893   7.555   1.841 -1.9073 -0.5073  2.2682
  242MOL0     H33361   9.934   7.710   1.751 -1.0217  3.3879  1.7336
  242MOL0     H33362  10.040   7.626   2.027  0.7037 -3.3826 -1.0182
  242MOL0     H33363  10.123   7.569   1.892 -0.3217 -1.2217  2.0238
  242MOL0     H33364  10.145   7.841   2.009 -0.5437 -0.6817  0.8625
  242MOL0     H33365  10.093   7.857   1.843  0.0064 -0.8930 -1.3840
  242MOL0     H33366  10.277   7.697   1.775 -0.3237  1.1828 -1.3775
  242MOL0     H33367  10.357   7.734   1.930  0.3211  0.9514  0.2259
  242MOL0     H33368  10.271   7.929   1.715  0.2412  1.5436  0.8312
  242MOL0     H33369  10.314   7.974   1.872 -2.9254 -2.9356  2.8799
  242MOL0     H33370  10.500   7.820   1.679 -2.9179 -1.5281  1.2330
  242MOL0     H33371  10.547   7.871   1.847 -2.2761 -1.6379  0.8153
  242MOL0     H33372  10.514   8.104   1.784  1.1945 -0.8516 -0.4205
  242MOL0     H33373  10.451   8.066   1.628 -0.5083  0.7308  0.8439
  242MOL0     H33374  10.670   8.142   1.591  0.2571 -0.8965 -2.5066
  242MOL0     H33375  10.672   7.961   1.569 -3.3198 -0.8490 -0.1571
  242MOL0     H33376   9.663   7.574   1.810 -0.2987  1.2668 -1.5560
  242MOL0     H33377   9.421   7.591   1.833 -0.4897  2.3997 -2.3480
  242MOL0     H33378   9.099   7.881   1.858 -1.0142 -0.8620 -1.5916
  242MOL0     H33379   8.856   7.882   1.833  1.0272 -1.3363 -1.2760
  242MOL0     H33380   8.227   7.476   0.464  1.1396 -2.4475 -4.1085
  242MOL0     H33381   8.075   7.509   0.272 -0.6798 -0.2826 -0.6705
  242MOL0     H33382   7.852   7.801   0.015  0.1865  3.0281  0.1020
  242MOL0     H33383   7.731   7.885  -0.171 -0.2579  0.8785  0.0325
  242MOL0     H33384   7.590   7.802  -0.401  0.4351 -2.2648 -1.9515
  242MOL0     H33385   7.658   7.966  -0.382  0.2678  0.0158 -0.2978
  242MOL0     H33386   7.518   7.944  -0.564 -0.9981 -0.1149 -3.8373
  242MOL0     H33387   7.615   7.815  -0.648  0.4714 -1.2259  2.6960
  242MOL0     H33388   7.661   8.103  -0.585  1.3402 -0.6927  0.8018
  242MOL0     H33389   7.804   8.000  -0.636  0.1906 -0.5276  0.3103
  242MOL0     H33390   7.559   8.092  -0.810 -0.7695 -1.2077 -0.5041
  242MOL0     H33391   7.656   7.958  -0.867  0.1066 -0.0453  0.5127
  242MOL0     H33392   7.889   8.316  -0.929 -1.2991  0.7406  0.3599
  242MOL0     H33393   7.986   7.658  -0.440 -0.9470 -1.5284  0.2889
  242MOL0     H33394   8.187   7.498  -0.256  2.0240  0.3975  0.9456
  242MOL0     H33395   8.181   7.620  -0.391  0.7190 -1.8051 -0.4014
  242MOL0     H33396   8.254   7.660  -0.233 -1.5676  2.5258 -0.0566
  243MOL0     O33397   5.661   2.698   7.137  0.4776 -0.6404 -0.2948
  243MOL0     C33398   5.593   2.608   7.185  0.0218  0.3076  0.2662
  243MOL0     O33399   5.643   2.491   7.230  0.2460 -0.0391  0.0696
  243MOL0     C33400   5.771   2.455   7.185 -0.1629 -0.4326 -0.2804
  243MOL0     C33401   5.799   2.433   7.053 -0.7145 -0.1290  0.0576
  243MOL0     C33402   5.924   2.400   7.016  0.4936  0.5016  0.3165
  243MOL0     C33403   6.022   2.384   7.112 -0.0285 -0.3677  0.1770
  243MOL0     O33404   6.155   2.356   7.080 -0.2098  0.8662  0.5572
  243MOL0     C33405   6.179   2.221   7.040  1.0789 -0.7874 -0.2239
  243MOL0     C33406   6.310   2.178   7.110  0.6351  0.3274 -0.6334
  243MOL0     C33407   6.426   2.275   7.084  0.1155  0.5257  0.7396
  243MOL0     C33408   6.567   2.223   7.123 -0.5260  0.6115 -1.0804
  243MOL0     C33409   6.667   2.306   7.042 -0.1801 -0.0355 -0.5514
  243MOL0     C33410   6.797   2.323   7.115 -0.9183  0.3079 -0.0953
  243MOL0     C33411   6.862   2.456   7.070  0.7926  0.3431 -0.4729
  243MOL0     C33412   6.875   2.498   6.922 -0.2235  0.1684 -0.0835
  243MOL0     N33413   6.919   2.394   6.835  0.1580  0.5058  0.4297
  243MOL0     C33414   7.021   2.303   6.847 -1.2867 -0.1804  0.6115
  243MOL0     C33415   7.038   2.234   6.733 -0.7727 -0.4414  0.4350
  243MOL0     C33416   7.149   2.141   6.697 -0.1048  0.4055 -0.0679
  243MOL0     C33417   7.277   2.218   6.670  0.8298  0.3304  0.0846
  243MOL0     C33418   7.367   2.135   6.589  0.0055 -0.2669  0.0376
  243MOL0     C33419   7.511   2.190   6.575  0.0788 -0.4781 -0.0205
  243MOL0     O33420   7.591   2.103   6.497  0.6548  0.2872  0.4441
  243MOL0     C33421   7.721   2.126   6.479 -0.2564 -0.1536 -0.0961
  243MOL0     C33422   7.802   2.017   6.451  0.1099  0.3847 -0.0851
  243MOL0     C33423   7.940   2.027   6.429  0.4997 -0.3547  0.6637
  243MOL0     C33424   8.010   1.908   6.376  0.7024 -0.2477 -0.0495
  243MOL0     C33425   7.998   2.157   6.436 -0.1443  0.2598 -0.8802
  243MOL0     C33426   8.143   2.177   6.414  0.1178 -0.0595 -0.2291
  243MOL0     O33427   8.234   2.094   6.476 -0.1425  0.1506  0.4459
  243MOL0     C33428   8.368   2.085   6.426  0.3046 -0.0241  0.1546
  243MOL0     C33429   8.455   2.038   6.519 -0.1879  0.0656 -0.1954
  243MOL0     C33430   8.591   2.028   6.488 -0.5816  0.2292  0.2807
  243MOL0     C33431   8.649   2.072   6.361  0.7219 -0.2373 -0.0383
  243MOL0     O33432   8.785   2.041   6.341  0.0422 -0.8422  0.1282
  243MOL0     C33433   8.841   2.087   6.219  1.0982  0.2433 -1.0795
  243MOL0     C33434   8.988   2.038   6.220 -0.1175  0.8980 -0.4117
  243MOL0     C33435   9.073   2.063   6.340 -0.2725 -0.6889  0.4236
  243MOL0     C33436   9.130   2.206   6.354  1.2175  0.0617 -0.0152
  243MOL0     C33437   9.234   2.231   6.457  0.4193  0.6106  0.7775
  243MOL0     C33438   9.267   2.382   6.464 -1.1842  0.6386 -0.6497
  243MOL0     C33439   9.378   2.397   6.567  1.2832 -0.8002 -1.0972
  243MOL0     C33440   9.457   2.518   6.546  0.0542 -0.6931 -0.7442
  243MOL0    Cl33441   9.364   2.658   6.599  0.2425 -0.0259  0.0496
  243MOL0     C33442   8.560   2.125   6.266  0.3073 -0.3840 -0.2337
  243MOL0     C33443   8.426   2.133   6.301 -0.0664  0.2590  0.3570
  243MOL0     O33444   8.184   2.289   6.372 -0.4783 -0.1252  0.0627
  243MOL0     C33445   7.916   2.264   6.474  0.9598  0.3889  0.1689
  243MOL0     C33446   7.783   2.243   6.506  0.0838  0.2115 -0.0776
  243MOL0     N33447   6.936   2.281   6.650 -0.5712 -0.5898  0.1045
  243MOL0     N33448   6.866   2.372   6.708 -0.5473  0.0448 -0.7476
  243MOL0     C33449   5.997   2.399   7.251  0.3043  0.4223 -0.2513
  243MOL0     C33450   5.864   2.430   7.281 -0.2265 -0.3305 -1.0646
  243MOL0     C33451   5.446   2.620   7.186  0.4984 -0.4248  0.5665
  243MOL0     C33452   5.370   2.504   7.167  0.0607  0.5331  0.3234
  243MOL0     C33453   5.233   2.505   7.165  0.0169  0.0973 -0.2334
  243MOL0     C33454   5.170   2.622   7.189 -0.0852 -0.0406 -0.5915
  243MOL0     O33455   5.035   2.618   7.209 -0.0025  0.1620  0.3549
  243MOL0     C33456   4.964   2.717   7.138  0.3974  0.1007 -0.1480
  243MOL0     C33457   4.824   2.677   7.105 -0.5130 -0.2213 -0.8157
  243MOL0     C33458   4.750   2.628   7.223  0.2287 -0.1169 -0.3605
  243MOL0     C33459   4.675   2.746   7.298  0.5413 -0.7565  0.2842
  243MOL0     C33460   4.597   2.689   7.414 -0.2240  0.0631 -0.0785
  243MOL0     C33461   4.537   2.645   7.512  0.2719 -0.9803  0.3334
  243MOL0     C33462   5.238   2.738   7.218 -0.2841 -0.7176  0.3067
  243MOL0     C33463   5.374   2.740   7.207 -0.9626  0.4318  0.0404
  243MOL0     C33464   5.443   2.864   7.235 -0.7849 -0.3191 -0.6581
  243MOL0     H33465   5.721   2.455   6.981 -1.4128 -0.4841  0.6825
  243MOL0     H33466   5.944   2.383   6.911  0.4808  0.9126  0.2439
  243MOL0     H33467   6.189   2.214   6.931  1.0231 -0.2133 -0.2708
  243MOL0     H33468   6.094   2.159   7.069 -0.6335  2.0892  1.3308
  243MOL0     H33469   6.290   2.175   7.218 -1.4925  1.3025 -0.9414
  243MOL0     H33470   6.333   2.081   7.065 -1.7485  0.0664 -1.4788
  243MOL0     H33471   6.435   2.287   6.976  0.0170  0.2970  0.7061
  243MOL0     H33472   6.412   2.369   7.138  0.1188 -0.1223  1.9163
  243MOL0     H33473   6.575   2.236   7.232 -1.6321 -0.5115 -0.8457
  243MOL0     H33474   6.573   2.117   7.096 -0.5194  0.5444 -0.8235
  243MOL0     H33475   6.627   2.407   7.028  0.9998  0.4614 -0.4445
  243MOL0     H33476   6.699   2.266   6.946  2.2498  0.0518  0.1677
  243MOL0     H33477   6.790   2.334   7.224  0.4334 -0.5665  0.0932
  243MOL0     H33478   6.852   2.236   7.079  0.5633  0.9678  0.4754
  243MOL0     H33479   6.963   2.455   7.112 -0.5738  2.1584  3.2860
  243MOL0     H33480   6.806   2.534   7.124  2.4939  1.8498 -0.7698
  243MOL0     H33481   6.781   2.528   6.874 -1.5275 -4.0686 -0.6496
  243MOL0     H33482   6.948   2.577   6.903 -0.7022 -0.1560 -4.0175
  243MOL0     H33483   7.080   2.280   6.935 -1.3306 -2.0751  0.1913
  243MOL0     H33484   7.115   2.084   6.610  2.4165 -4.9797  2.0516
  243MOL0     H33485   7.173   2.075   6.780 -0.4290  1.1760  0.6462
  243MOL0     H33486   7.253   2.313   6.622  1.0768 -0.2396 -1.2288
  243MOL0     H33487   7.320   2.242   6.767 -0.4804 -0.4851  0.8915
  243MOL0     H33488   7.388   2.038   6.635  2.7360  1.1711  2.1123
  243MOL0     H33489   7.324   2.128   6.489  0.5215  1.3182 -0.3300
  243MOL0     H33490   7.506   2.295   6.545  0.5208 -0.6827 -0.8332
  243MOL0     H33491   7.563   2.192   6.671  1.0059 -0.0393 -0.5227
  243MOL0     H33492   7.761   1.917   6.439  4.4827 -1.3608 -2.6599
  243MOL0     H33493   7.944   1.843   6.318  0.4831 -1.0460  1.0771
  243MOL0     H33494   8.058   1.846   6.451  0.8483 -0.2101 -0.1107
  243MOL0     H33495   8.097   1.935   6.315  0.2129  2.2875  0.2287
  243MOL0     H33496   8.428   2.002   6.618  3.8594  1.5014  1.6484
  243MOL0     H33497   8.665   1.983   6.554  0.0104 -0.4848 -0.8358
  243MOL0     H33498   8.783   2.037   6.141  2.3605 -2.3890 -0.4482
  243MOL0     H33499   8.836   2.196   6.218  0.7264  0.3235  2.0356
  243MOL0     H33500   8.992   1.930   6.205 -0.5614  0.8283 -0.0419
  243MOL0     H33501   9.033   2.070   6.125  0.1963  0.7011 -0.3309
  243MOL0     H33502   9.159   1.995   6.336  1.3019  1.2512 -0.4815
  243MOL0     H33503   9.009   2.025   6.420 -0.8893  1.1990  0.8870
  243MOL0     H33504   9.046   2.271   6.381  1.7315 -0.4792  3.1860
  243MOL0     H33505   9.169   2.241   6.258  1.6926  1.4684  0.6583
  243MOL0     H33506   9.207   2.187   6.554  1.1544 -0.6930  0.4288
  243MOL0     H33507   9.321   2.174   6.422 -1.5654 -1.1331 -1.6855
  243MOL0     H33508   9.183   2.449   6.488 -2.4364 -1.9304  3.0821
  243MOL0     H33509   9.312   2.407   6.368 -0.2825 -0.5437 -0.5505
  243MOL0     H33510   9.455   2.320   6.555  1.3182 -0.8230 -0.7450
  243MOL0     H33511   9.338   2.382   6.668 -0.7131  0.4213 -1.6730
  243MOL0     H33512   9.486   2.535   6.442 -0.7068  0.7238 -0.7479
  243MOL0     H33513   9.553   2.506   6.598 -0.2897 -1.5266 -0.2726
  243MOL0     H33514   8.589   2.144   6.163  1.8638 -0.2390  0.2061
  243MOL0     H33515   8.350   2.168   6.231  0.6670  3.0214  0.8290
  243MOL0     H33516   7.950   2.367   6.481  0.8508  0.5807 -1.5971
  243MOL0     H33517   7.718   2.322   6.543  0.8690  2.3265 -2.9075
  243MOL0     H33518   6.075   2.381   7.324  2.4721  1.1307 -2.2536
  243MOL0     H33519   5.835   2.424   7.386 -1.3919 -2.4678 -1.4518
  243MOL0     H33520   5.422   2.408   7.165 -2.6330 -1.0503  1.3977
  243MOL0     H33521   5.169   2.419   7.147 -0.1332  0.4893 -1.7005
  243MOL0     H33522   4.974   2.811   7.193 -2.0805  2.4132 -3.2841
  243MOL0     H33523   5.005   2.745   7.040 -0.4307 -1.1911 -0.9040
  243MOL0     H33524   4.822   2.596   7.031 -1.4229  2.0665 -3.4347
  243MOL0     H33525   4.779   2.766   7.060  0.1116  1.1869  1.1933
  243MOL0     H33526   4.686   2.547   7.188 -0.6223  1.1385 -1.9171
  243MOL0     H33527   4.823   2.576   7.285  1.1180 -1.0649 -2.1119
  243MOL0     H33528   4.609   2.806   7.234 -1.4593 -1.7926  1.2820
  243MOL0     H33529   4.747   2.821   7.332  0.7689  0.7710 -3.0564
  243MOL0     H33530   4.486   2.605   7.598  0.4928 -0.4300  0.7310
  243MOL0     H33531   5.192   2.832   7.248 -2.1356 -1.2293 -0.8004
  243MOL0     H33532   5.506   2.895   7.151 -1.6881 -1.0276 -1.6214
  243MOL0     H33533   5.368   2.944   7.250 -0.9936 -0.5396 -0.5144
  243MOL0     H33534   5.496   2.852   7.330 -1.9271  0.3239  0.0954
  244MOL0     O33535   5.171   4.272   2.675  0.6543 -0.1924 -0.0209
  244MOL0     C33536   5.116   4.381   2.702 -0.4776 -0.1361 -0.3074
  244MOL0     O33537   5.188   4.488   2.751  0.4885 -0.0156  0.4143
  244MOL0     C33538   5.321   4.490   2.767 -0.8388  0.0445  0.1571
  244MOL0     C33539   5.362   4.588   2.854  0.0103 -0.0680  0.0776
  244MOL0     C33540   5.500   4.616   2.879 -0.7604 -0.1746 -0.8064
  244MOL0     C33541   5.597   4.557   2.802 -0.8947 -0.8040  0.0492
  244MOL0     O33542   5.734   4.577   2.812  0.1148  0.3799  0.2195
  244MOL0     C33543   5.777   4.701   2.864  0.4966 -0.4727  0.4152
  244MOL0     C33544   5.930   4.718   2.891  0.4581  0.5027  0.7585
  244MOL0     C33545   6.016   4.734   2.765 -0.5038 -0.3465 -0.9837
  244MOL0     C33546   6.158   4.804   2.793 -0.1449  0.8790 -0.5933
  244MOL0     C33547   6.262   4.796   2.684  0.1391  0.4254  0.2043
  244MOL0     C33548   6.409   4.768   2.738  0.6289  0.4546 -0.5776
  244MOL0     C33549   6.520   4.795   2.626 -0.4180  0.5851 -0.4596
  244MOL0     C33550   6.654   4.813   2.702 -0.1915  0.7804 -0.9864
  244MOL0     N33551   6.771   4.831   2.609  0.4305 -0.1453 -1.5900
  244MOL0     C33552   6.843   4.725   2.551  0.6833  1.1887 -0.8477
  244MOL0     C33553   6.949   4.792   2.496 -0.7841  0.0631 -0.6155
  244MOL0     C33554   7.068   4.728   2.429  1.0269 -0.3916  0.0684
  244MOL0     C33555   7.058   4.715   2.280  1.4323 -0.2485 -0.0667
  244MOL0     C33556   6.937   4.632   2.227  0.7620 -0.2768 -0.4767
  244MOL0     C33557   6.922   4.496   2.286 -1.0721  0.2606  0.0312
  244MOL0     O33558   7.051   4.429   2.262  0.3325  0.8045  0.8157
  244MOL0     C33559   7.092   4.320   2.339 -1.0311 -0.5947  0.6246
  244MOL0     C33560   7.229   4.281   2.335 -0.1438  0.5334 -0.8380
  244MOL0     C33561   7.281   4.206   2.440  0.3769  0.9231 -0.3150
  244MOL0     C33562   7.434   4.178   2.439  0.4137 -0.1179  0.3500
  244MOL0     C33563   7.195   4.163   2.543 -0.5332 -0.6617  0.7393
  244MOL0     C33564   7.237   4.079   2.661 -0.4273 -0.6201 -0.7408
  244MOL0     O33565   7.139   4.040   2.743 -0.4772 -0.0511 -0.3106
  244MOL0     C33566   7.165   3.973   2.863 -0.6589  0.6787 -0.9668
  244MOL0     C33567   7.216   3.839   2.875  0.4411 -0.1696  1.0406
  244MOL0     C33568   7.232   3.775   2.999  0.1680  0.3020 -0.1334
  244MOL0     C33569   7.196   3.843   3.116  1.2250 -0.2304  0.0550
  244MOL0     O33570   7.231   3.791   3.243 -0.1997  0.2546  0.2252
  244MOL0     C33571   7.282   3.654   3.254 -0.4611  0.5311  0.4225
  244MOL0     C33572   7.438   3.634   3.248 -0.3397  0.2098 -0.1629
  244MOL0     C33573   7.482   3.489   3.227  0.5628 -1.0536  0.0122
  244MOL0     C33574   7.454   3.440   3.079  0.4297  0.2345 -0.2363
  244MOL0     C33575   7.563   3.493   2.980 -0.4132  0.3129 -0.1492
  244MOL0     C33576   7.532   3.434   2.837 -1.1831  0.3665 -0.3213
  244MOL0     C33577   7.635   3.318   2.808 -0.9987 -0.0716 -0.1950
  244MOL0     C33578   7.679   3.315   2.658  0.1662  0.3806  0.1338
  244MOL0    Cl33579   7.551   3.243   2.551  0.0239 -0.0647 -0.2252
  244MOL0     C33580   7.131   3.965   3.111 -1.1010 -0.3697  0.4748
  244MOL0     C33581   7.120   4.036   2.985 -0.2147  0.0253 -0.1660
  244MOL0     O33582   7.356   4.048   2.680  0.2636 -0.0667  0.0493
  244MOL0     C33583   7.058   4.189   2.528 -0.0076 -0.0147 -0.4182
  244MOL0     C33584   7.005   4.261   2.423 -0.2261  0.5354 -0.4483
  244MOL0     N33585   6.940   4.923   2.513  0.0146 -0.2099 -0.0552
  244MOL0     N33586   6.836   4.944   2.592  0.2439  0.4750 -0.3592
  244MOL0     C33587   5.559   4.462   2.701  0.2087  0.3611 -0.5799
  244MOL0     C33588   5.423   4.423   2.686  0.5345 -0.7424 -0.2728
  244MOL0     C33589   4.967   4.385   2.676  0.8521  0.0937 -0.2744
  244MOL0     C33590   4.888   4.492   2.729  0.3062  0.7683 -0.2878
  244MOL0     C33591   4.749   4.503   2.709  0.1198  0.3285 -0.6948
  244MOL0     C33592   4.684   4.415   2.630 -0.6094 -0.0157  0.5203
  244MOL0     O33593   4.553   4.440   2.598 -0.3348 -0.1596  0.6959
  244MOL0     C33594   4.477   4.556   2.652  0.2278  0.6151  0.4251
  244MOL0     C33595   4.343   4.548   2.586  0.6678  0.0848 -0.0944
  244MOL0     C33596   4.332   4.610   2.446 -0.4324 -0.0961  0.6901
  244MOL0     C33597   4.317   4.759   2.448 -0.1408  0.6815  0.1685
  244MOL0     C33598   4.178   4.799   2.485 -0.7847  0.6047  0.0275
  244MOL0     C33599   4.063   4.832   2.498  0.3619  0.0376 -0.5121
  244MOL0     C33600   4.758   4.315   2.574  0.2982  0.5352  0.6546
  244MOL0     C33601   4.892   4.290   2.603 -0.5480 -0.3278  0.3696
  244MOL0     C33602   4.958   4.177   2.532  0.4983  0.4273  0.1997
  244MOL0     H33603   5.277   4.632   2.905 -0.7354 -1.2522 -0.1107
  244MOL0     H33604   5.524   4.672   2.969 -3.4377 -4.3880  2.9667
  244MOL0     H33605   5.719   4.746   2.946 -0.3266  0.5561 -0.7071
  244MOL0     H33606   5.757   4.767   2.780  0.8888  1.5362  1.8281
  244MOL0     H33607   5.959   4.797   2.960  2.6748 -1.2232  1.9413
  244MOL0     H33608   5.954   4.623   2.940  0.3330 -0.6876 -1.3587
  244MOL0     H33609   6.032   4.634   2.725  0.2765 -0.6623  0.1146
  244MOL0     H33610   5.962   4.791   2.688  1.2700 -0.1698 -2.1551
  244MOL0     H33611   6.135   4.911   2.805  2.4166  1.2408  2.1698
  244MOL0     H33612   6.202   4.774   2.888 -0.8108  2.5204  0.2829
  244MOL0     H33613   6.257   4.891   2.630 -0.7251  0.2146 -0.1100
  244MOL0     H33614   6.230   4.714   2.619  0.8632 -0.2125  0.6433
  244MOL0     H33615   6.435   4.821   2.830  0.8654 -1.1526  0.3365
  244MOL0     H33616   6.419   4.663   2.768  2.0707  0.8536  0.4398
  244MOL0     H33617   6.501   4.889   2.573  0.7723  1.2422  0.2391
  244MOL0     H33618   6.516   4.712   2.555  1.3904 -1.5593  1.7709
  244MOL0     H33619   6.648   4.889   2.780 -1.9464 -0.7281  0.4448
  244MOL0     H33620   6.675   4.725   2.765 -5.3592  1.5919  2.4266
  244MOL0     H33621   6.838   4.619   2.571  0.2243  0.8742 -2.5198
  244MOL0     H33622   7.090   4.627   2.466 -0.8833 -1.7461 -2.2154
  244MOL0     H33623   7.149   4.797   2.452  1.1646 -1.2210  2.3014
  244MOL0     H33624   7.049   4.813   2.233 -0.6854 -1.1183 -1.6470
  244MOL0     H33625   7.151   4.667   2.247  2.0374 -1.1126  2.6034
  244MOL0     H33626   6.845   4.690   2.232  1.0179  0.4975 -3.2756
  244MOL0     H33627   6.952   4.615   2.120 -6.0295 -0.6358 -1.7958
  244MOL0     H33628   6.898   4.506   2.392  1.8669  1.0436  0.7165
  244MOL0     H33629   6.840   4.435   2.246 -0.8175 -0.6778  0.9129
  244MOL0     H33630   7.285   4.318   2.250  2.8120 -0.7695  0.4147
  244MOL0     H33631   7.485   4.217   2.528 -1.3486 -1.8455  2.2157
  244MOL0     H33632   7.478   4.222   2.349 -2.8570  0.5710 -1.0478
  244MOL0     H33633   7.453   4.071   2.425  0.5417  0.1922 -2.4022
  244MOL0     H33634   7.245   3.782   2.788  1.0071 -0.0227  1.1291
  244MOL0     H33635   7.267   3.673   3.000 -1.2657 -0.2117  0.5056
  244MOL0     H33636   7.264   3.617   3.355  0.1812 -3.8110 -0.8309
  244MOL0     H33637   7.231   3.582   3.188 -2.2038  2.3027 -0.2559
  244MOL0     H33638   7.488   3.693   3.172 -1.2045 -1.0807 -1.7986
  244MOL0     H33639   7.481   3.672   3.341 -1.2907 -0.2789  0.5000
  244MOL0     H33640   7.421   3.435   3.299  1.5632 -1.5628  0.5011
  244MOL0     H33641   7.587   3.480   3.257  1.5400  2.6198 -1.7852
  244MOL0     H33642   7.351   3.470   3.059 -0.3941 -2.4023 -0.2931
  244MOL0     H33643   7.456   3.331   3.073 -1.7440 -0.0776  2.5475
  244MOL0     H33644   7.560   3.602   2.977  5.8610  0.8191 -0.4744
  244MOL0     H33645   7.665   3.480   3.017 -0.6700  3.3398  1.9569
  244MOL0     H33646   7.547   3.514   2.765 -0.1362  1.5308  1.1427
  244MOL0     H33647   7.427   3.404   2.824 -1.8001  2.7879 -1.3859
  244MOL0     H33648   7.602   3.218   2.839 -0.3696 -0.8208 -1.8248
  244MOL0     H33649   7.731   3.336   2.857 -0.3360 -2.6777 -0.3945
  244MOL0     H33650   7.763   3.245   2.654  0.4774  0.5407  2.4920
  244MOL0     H33651   7.720   3.411   2.624  1.5371  0.6704  2.4099
  244MOL0     H33652   7.118   4.012   3.208  1.1681  1.4418 -0.0074
  244MOL0     H33653   7.086   4.139   2.982 -0.7831 -0.0706  1.6189
  244MOL0     H33654   6.987   4.147   2.600 -1.7478 -0.4885 -2.3082
  244MOL0     H33655   6.897   4.278   2.427 -0.4836 -1.0139 -0.2540
  244MOL0     H33656   5.630   4.413   2.637  0.2885 -0.0338 -0.1934
  244MOL0     H33657   5.401   4.360   2.600 -0.9858 -2.2343  1.1240
  244MOL0     H33658   4.927   4.581   2.777 -0.3524  0.9669 -0.1044
  244MOL0     H33659   4.696   4.582   2.760 -0.6063 -0.6579  0.1276
  244MOL0     H33660   4.467   4.534   2.758  0.4546  3.4672  1.0954
  244MOL0     H33661   4.534   4.645   2.626  1.6517 -0.5537 -0.6628
  244MOL0     H33662   4.268   4.598   2.649  1.1495 -1.5711  1.9144
  244MOL0     H33663   4.323   4.441   2.578 -1.7150  0.3822  0.8495
  244MOL0     H33664   4.416   4.584   2.382 -2.0179  3.1333 -3.1663
  244MOL0     H33665   4.243   4.568   2.398  2.0001 -3.8614 -0.9826
  244MOL0     H33666   4.351   4.795   2.350  3.5315 -0.3978  0.8813
  244MOL0     H33667   4.379   4.813   2.519  1.2832 -1.8913  1.0283
  244MOL0     H33668   3.962   4.861   2.522  0.8004 -0.2406  1.9377
  244MOL0     H33669   4.693   4.253   2.512 -1.5185  1.2316  1.7772
  244MOL0     H33670   4.888   4.122   2.469 -1.0931 -1.2952  3.2584
  244MOL0     H33671   5.044   4.211   2.473  0.4346  0.1711 -0.0445
  244MOL0     H33672   4.994   4.106   2.607  0.5074 -2.2281 -2.1541
  245MOL0     O33673   1.625  10.343   1.192 -0.2238  0.0941  0.1857
  245MOL0     C33674   1.715  10.254   1.191  0.1873 -0.1223  0.3230
  245MOL0     O33675   1.744  10.172   1.084  0.2697 -0.3969  0.1469
  245MOL0     C33676   1.709  10.231   0.967  0.1437 -0.5237  0.1405
  245MOL0     C33677   1.581  10.214   0.914  0.1825  0.5905 -0.7701
  245MOL0     C33678   1.550  10.265   0.789 -0.7000  1.6827  0.3498
  245MOL0     C33679   1.648  10.334   0.715  1.2271 -0.3356  0.2203
  245MOL0     O33680   1.632  10.368   0.587 -0.5452  0.0322 -0.0093
  245MOL0     C33681   1.534  10.299   0.508 -0.1606  0.4445 -0.3473
  245MOL0     C33682   1.535  10.348   0.369 -0.3574 -0.1136  0.5087
  245MOL0     C33683   1.664  10.314   0.300 -0.4253  0.5947 -0.4512
  245MOL0     C33684   1.683  10.168   0.262 -0.4167  0.4282  0.2338
  245MOL0     C33685   1.808  10.144   0.172  0.0773 -0.1391  0.1345
  245MOL0     C33686   1.942  10.155   0.241 -0.1001 -0.4626 -0.1005
  245MOL0     C33687   1.956  10.094   0.380 -0.2146 -0.1847 -0.3164
  245MOL0     C33688   2.107  10.097   0.422  0.4268  0.7202 -0.3436
  245MOL0     N33689   2.116  10.135   0.563  0.4027  0.2714  0.0893
  245MOL0     C33690   2.136  10.044   0.670 -0.4146 -0.5175 -0.0731
  245MOL0     C33691   2.124  10.128   0.776 -0.1261 -0.5767 -0.1291
  245MOL0     C33692   2.155  10.099   0.917 -0.2463  1.0960  0.5672
  245MOL0     C33693   2.295  10.030   0.932  0.8689  0.0202  0.2052
  245MOL0     C33694   2.280   9.875   0.936 -0.8358  0.4093  0.6503
  245MOL0     C33695   2.411   9.802   0.959 -0.3278 -0.1563  0.6318
  245MOL0     O33696   2.501   9.835   0.859 -0.0580  0.8167  0.9357
  245MOL0     C33697   2.642   9.828   0.879 -0.4177  0.1561  0.0309
  245MOL0     C33698   2.724   9.889   0.783  0.3207 -0.6718 -0.1651
  245MOL0     C33699   2.860   9.860   0.783 -0.3672  0.9204  0.1314
  245MOL0     C33700   2.929   9.924   0.653 -0.8952  0.7299 -0.0576
  245MOL0     C33701   2.925   9.793   0.890 -0.0928  0.5016  0.4992
  245MOL0     C33702   3.073   9.778   0.889  0.2769  0.5627  0.4422
  245MOL0     O33703   3.124   9.695   0.982  0.2775 -0.4367  0.0319
  245MOL0     C33704   3.254   9.659   0.977 -0.1550  0.3044  0.0706
  245MOL0     C33705   3.333   9.666   1.090 -0.1495 -0.3591 -0.0066
  245MOL0     C33706   3.468   9.649   1.088  0.0985  0.7573  0.0529
  245MOL0     C33707   3.531   9.598   0.976 -0.8281  0.3946  0.4556
  245MOL0     O33708   3.670   9.562   0.982 -0.1900 -0.6528 -0.0517
  245MOL0     C33709   3.756   9.570   0.866 -0.3027  0.0912  0.2971
  245MOL0     C33710   3.769   9.442   0.787  0.0106 -0.3034  0.2646
  245MOL0     C33711   3.860   9.456   0.653  0.3174 -0.0760 -1.1830
  245MOL0     C33712   3.952   9.330   0.634  0.4671  0.1591 -0.2293
  245MOL0     C33713   3.871   9.204   0.613  0.7075  0.3167 -0.5638
  245MOL0     C33714   3.964   9.089   0.601  0.6002  0.1739  0.5805
  245MOL0     C33715   3.892   8.960   0.557  0.6465 -0.5469 -0.4437
  245MOL0     C33716   3.982   8.851   0.522 -0.8727  1.1722  1.4245
  245MOL0    Cl33717   3.914   8.736   0.403  0.2582  0.0175 -0.0809
  245MOL0     C33718   3.455   9.587   0.856 -0.3415  0.1333  0.0067
  245MOL0     C33719   3.313   9.614   0.860 -0.7239 -0.1673  0.2336
  245MOL0     O33720   3.138   9.832   0.803  0.2716  0.3030 -0.8420
  245MOL0     C33721   2.842   9.742   0.991  0.0519  0.1219 -0.1908
  245MOL0     C33722   2.704   9.772   0.984 -0.4270  0.5248  0.6491
  245MOL0     N33723   2.100  10.257   0.736 -0.8122 -0.1421  0.2786
  245MOL0     N33724   2.095  10.259   0.611  0.5392 -0.3295 -0.2076
  245MOL0     C33725   1.772  10.346   0.774 -0.4834  0.5052 -0.3331
  245MOL0     C33726   1.807  10.296   0.899  0.0147 -0.3869 -0.4467
  245MOL0     C33727   1.775  10.218   1.322  0.4264  0.5307  0.9024
  245MOL0     C33728   1.852  10.097   1.321 -0.4692 -0.0928 -0.8032
  245MOL0     C33729   1.903  10.047   1.448 -0.1763 -0.6191 -0.0799
  245MOL0     C33730   1.887  10.115   1.565 -0.0955  0.0699  0.9579
  245MOL0     O33731   1.937  10.052   1.680  0.0965  0.1851  0.3437
  245MOL0     C33732   1.868  10.058   1.803 -0.3036 -0.0439 -0.1741
  245MOL0     C33733   1.948   9.983   1.909 -0.0813 -0.3869 -0.4304
  245MOL0     C33734   2.093  10.031   1.923  0.1450  0.1336  0.5462
  245MOL0     C33735   2.181   9.940   2.006 -0.7955  0.2161  0.2811
  245MOL0     C33736   2.139   9.942   2.146  0.9177 -0.5002  0.5934
  245MOL0     C33737   2.112   9.952   2.265  0.2277  0.6183  0.2615
  245MOL0     C33738   1.797  10.217   1.565 -0.6993 -0.0937 -0.1433
  245MOL0     C33739   1.744  10.269   1.450  0.6808 -0.6237  0.1113
  245MOL0     C33740   1.645  10.384   1.463 -0.5794 -0.4427 -0.0608
  245MOL0     H33741   1.506  10.151   0.960  1.5556  0.5937  1.6028
  245MOL0     H33742   1.456  10.246   0.740 -0.9675  4.7390 -0.5163
  245MOL0     H33743   1.443  10.328   0.561  0.9615 -0.2000  2.0940
  245MOL0     H33744   1.540  10.190   0.510 -0.6379  0.4244  0.7423
  245MOL0     H33745   1.453  10.310   0.306 -3.4485  4.0246  1.5913
  245MOL0     H33746   1.507  10.453   0.375 -2.4044 -0.6506  1.5638
  245MOL0     H33747   1.664  10.373   0.208 -1.5405  0.0878 -0.8031
  245MOL0     H33748   1.749  10.351   0.358 -2.7677  1.4599  2.6832
  245MOL0     H33749   1.687  10.110   0.355 -1.2897  1.2164  0.7833
  245MOL0     H33750   1.594  10.133   0.209  0.4819  0.1622 -1.1442
  245MOL0     H33751   1.815  10.219   0.093  1.2039  1.4200  1.6459
  245MOL0     H33752   1.795  10.048   0.121 -1.5940  0.3472 -0.4283
  245MOL0     H33753   2.018  10.118   0.172  0.6012 -1.0089  0.9377
  245MOL0     H33754   1.962  10.262   0.248 -2.9614  0.1371  0.0606
  245MOL0     H33755   1.907   9.996   0.380 -1.3370  0.3410 -1.9056
  245MOL0     H33756   1.902  10.155   0.453  0.5167 -0.5267  0.5366
  245MOL0     H33757   2.154   9.998   0.416  1.9680  1.2395  1.7543
  245MOL0     H33758   2.171  10.164   0.365 -0.5062  0.3030 -1.9582
  245MOL0     H33759   2.164   9.939   0.679  2.4615  0.1465 -0.2929
  245MOL0     H33760   2.085  10.027   0.961  1.3060 -2.3872 -2.1786
  245MOL0     H33761   2.145  10.186   0.983 -0.6094 -1.5955  4.4187
  245MOL0     H33762   2.374  10.059   0.863  2.5934 -0.2329  2.0089
  245MOL0     H33763   2.336  10.047   1.031  0.4500 -1.1520  0.5941
  245MOL0     H33764   2.208   9.845   1.012 -2.8469 -1.1738 -1.7004
  245MOL0     H33765   2.228   9.836   0.848 -0.1333  0.7256  0.0797
  245MOL0     H33766   2.452   9.819   1.059  3.5489 -0.5026 -0.7222
  245MOL0     H33767   2.387   9.696   0.942 -4.6170  1.0810 -3.0959
  245MOL0     H33768   2.674   9.951   0.709 -1.1746 -0.1354  1.2131
  245MOL0     H33769   3.003   9.859   0.604  0.0488  3.0512 -1.9575
  245MOL0     H33770   2.997  10.006   0.678 -1.8899  1.4625  0.2621
  245MOL0     H33771   2.858   9.964   0.581  0.7509  1.2333 -1.4915
  245MOL0     H33772   3.277   9.695   1.179  3.7060  3.5036  1.5049
  245MOL0     H33773   3.519   9.656   1.184 -1.5972 -0.9803  1.1647
  245MOL0     H33774   3.711   9.643   0.799 -1.9001 -0.5056  0.6660
  245MOL0     H33775   3.851   9.618   0.891  1.2533 -2.9123  0.6740
  245MOL0     H33776   3.814   9.376   0.862 -1.3804  1.1494  2.4688
  245MOL0     H33777   3.670   9.399   0.767  0.2885 -1.9519  2.1279
  245MOL0     H33778   3.917   9.548   0.669 -1.3482  0.9195 -0.7549
  245MOL0     H33779   3.794   9.459   0.566 -4.8887 -2.4527  2.1687
  245MOL0     H33780   4.022   9.318   0.717 -0.1562  1.4957  0.5284
  245MOL0     H33781   4.016   9.345   0.546  0.8490  0.4461  0.0953
  245MOL0     H33782   3.810   9.183   0.702  0.9110 -0.6147 -0.6361
  245MOL0     H33783   3.809   9.224   0.525 -0.4780  4.4882  1.0012
  245MOL0     H33784   4.011   9.060   0.695 -0.3071 -0.8040  0.7463
  245MOL0     H33785   4.043   9.109   0.527 -1.1863 -1.1106 -1.8479
  245MOL0     H33786   3.823   8.978   0.474  0.0091 -0.4224  0.1012
  245MOL0     H33787   3.831   8.930   0.643 -0.3561 -1.3852 -1.4191
  245MOL0     H33788   4.007   8.803   0.617 -1.2865  2.7581  2.3794
  245MOL0     H33789   4.071   8.881   0.466 -1.6220 -0.5609 -0.8704
  245MOL0     H33790   3.497   9.565   0.759  0.9704  1.7516  0.1563
  245MOL0     H33791   3.256   9.618   0.767 -2.1048  0.7150  1.0870
  245MOL0     H33792   2.882   9.696   1.081  1.4029  1.2974 -0.1503
  245MOL0     H33793   2.638   9.726   1.056 -1.1724 -0.2441 -0.4868
  245MOL0     H33794   1.838  10.406   0.712 -0.8451  1.9930  0.6717
  245MOL0     H33795   1.905  10.295   0.945 -1.0427 -0.0454  1.9383
  245MOL0     H33796   1.871  10.039   1.232 -1.8109 -0.9607 -0.5521
  245MOL0     H33797   1.962   9.958   1.465  0.4895  0.2633  2.6343
  245MOL0     H33798   1.850  10.160   1.840 -0.9492 -1.0034  2.3677
  245MOL0     H33799   1.771  10.014   1.779  0.1838  0.1500 -2.8687
  245MOL0     H33800   1.956   9.877   1.883 -3.1204 -0.3532 -1.9118
  245MOL0     H33801   1.900   9.976   2.007  4.2384 -0.5393  1.8939
  245MOL0     H33802   2.137  10.034   1.823 -0.3154 -1.3159  0.2775
  245MOL0     H33803   2.082  10.134   1.958  0.8128  0.3289  0.2017
  245MOL0     H33804   2.285   9.974   1.999 -0.4730 -0.0391  2.8690
  245MOL0     H33805   2.174   9.835   1.975  0.2832  0.7195 -1.9354
  245MOL0     H33806   2.077   9.942   2.366  0.6249  1.5511  0.5027
  245MOL0     H33807   1.779  10.269   1.658  3.0465  1.8766 -0.3157
  245MOL0     H33808   1.684  10.475   1.417 -0.6884 -0.9644 -1.2103
  245MOL0     H33809   1.546  10.359   1.424 -2.3581 -0.7051  4.0706
  245MOL0     H33810   1.623  10.403   1.569  0.2882 -0.6182  0.1601
  246MOL0     O33811   3.499   3.039  11.140  0.6403 -0.0241  0.5903
  246MOL0     C33812   3.431   3.049  11.240 -0.1930  0.4433 -0.6122
  246MOL0     O33813   3.439   2.961  11.345 -0.0156 -0.7782  0.2234
  246MOL0     C33814   3.540   2.868  11.340  0.1720  0.1654 -0.7426
  246MOL0     C33815   3.516   2.748  11.266  0.3285  0.0955  0.4810
  246MOL0     C33816   3.616   2.646  11.249  0.2021 -1.0842 -1.4440
  246MOL0     C33817   3.746   2.677  11.290  0.4783 -0.2921 -0.2001
  246MOL0     O33818   3.850   2.592  11.274 -0.4154 -0.0254 -0.6453
  246MOL0     C33819   3.827   2.464  11.337 -0.2699 -0.4628 -0.3306
  246MOL0     C33820   3.954   2.384  11.306  0.2227  0.2332 -0.5791
  246MOL0     C33821   3.962   2.354  11.155 -0.5016 -0.9145  0.7132
  246MOL0     C33822   4.099   2.289  11.111 -0.0965  0.6423 -0.2619
  246MOL0     C33823   4.192   2.398  11.061 -0.6566 -0.2281 -0.4482
  246MOL0     C33824   4.315   2.354  10.976 -0.5989 -0.1285 -0.2030
  246MOL0     C33825   4.407   2.474  10.947 -1.2530  0.0715 -0.4173
  246MOL0     C33826   4.509   2.442  10.831  0.3124  0.1486  0.8869
  246MOL0     N33827   4.609   2.335  10.856 -0.0264  0.8620  0.2170
  246MOL0     C33828   4.745   2.344  10.831 -0.0905 -0.4083  0.1409
  246MOL0     C33829   4.798   2.218  10.850  0.5474 -0.1209 -0.3090
  246MOL0     C33830   4.935   2.172  10.817 -0.4580  0.8494 -0.9727
  246MOL0     C33831   5.017   2.183  10.946 -0.1698  0.0448 -0.0199
  246MOL0     C33832   5.139   2.095  10.928  0.4030  0.5088  0.2288
  246MOL0     C33833   5.230   2.108  11.047 -0.1142  0.6956 -0.2512
  246MOL0     O33834   5.350   2.026  11.056  0.4620  0.0514 -0.0786
  246MOL0     C33835   5.417   2.021  11.175 -0.2870  1.0398  0.3418
  246MOL0     C33836   5.536   1.954  11.171 -0.7855 -0.2201  0.2291
  246MOL0     C33837   5.626   1.964  11.284 -0.2001  0.1895  0.2497
  246MOL0     C33838   5.765   1.907  11.260  0.7840 -0.3013 -0.7764
  246MOL0     C33839   5.579   2.014  11.409 -0.1363 -0.3573  0.0301
  246MOL0     C33840   5.667   2.024  11.533 -1.3499  0.1207 -0.1817
  246MOL0     O33841   5.597   2.049  11.652  0.5797 -0.1452  0.7695
  246MOL0     C33842   5.664   2.084  11.765 -0.2281 -0.9091  0.4252
  246MOL0     C33843   5.788   2.036  11.796 -0.5135  0.8638  0.1102
  246MOL0     C33844   5.850   2.067  11.918  0.5264  0.4340  0.1175
  246MOL0     C33845   5.794   2.169  12.002 -0.1706  0.7824 -0.2983
  246MOL0     O33846   5.870   2.200  12.120  0.1966 -0.6273  0.2838
  246MOL0     C33847   5.805   2.251  12.231  0.4504 -0.6458  0.4906
  246MOL0     C33848   5.730   2.140  12.297  0.0745 -0.5004 -0.6410
  246MOL0     C33849   5.824   2.037  12.361 -0.4721 -0.1335  0.1722
  246MOL0     C33850   5.899   2.093  12.480 -0.0879 -0.0268  0.3368
  246MOL0     C33851   5.964   1.973  12.553  0.2606 -0.4324  1.2254
  246MOL0     C33852   6.068   1.873  12.476  0.7399 -0.4761 -0.7165
  246MOL0     C33853   6.139   1.786  12.576  0.6442 -0.1743  0.4149
  246MOL0     C33854   6.283   1.761  12.542 -0.0183  0.0734 -0.0654
  246MOL0    Cl33855   6.383   1.900  12.581 -0.0373 -0.1292  0.3207
  246MOL0     C33856   5.673   2.224  11.973  0.6889  0.0705  0.2266
  246MOL0     C33857   5.609   2.185  11.852  0.0616 -0.5343 -0.4754
  246MOL0     O33858   5.784   2.004  11.522 -0.1727 -0.1649  0.0581
  246MOL0     C33859   5.443   2.062  11.413  0.2323 -0.1378  0.5449
  246MOL0     C33860   5.371   2.072  11.296 -0.0715  0.9785  0.9864
  246MOL0     N33861   4.696   2.145  10.913 -0.8677  0.0151 -0.5710
  246MOL0     N33862   4.588   2.215  10.914  0.1658  0.5731 -0.6367
  246MOL0     C33863   3.769   2.786  11.370  0.2732 -1.2485 -0.1417
  246MOL0     C33864   3.665   2.874  11.392  0.4978 -0.4028  0.7295
  246MOL0     C33865   3.334   3.154  11.255  1.1027  0.5655 -0.1374
  246MOL0     C33866   3.274   3.195  11.137 -0.5876  0.6371 -0.2230
  246MOL0     C33867   3.160   3.274  11.143 -0.1018  0.3946  0.0367
  246MOL0     C33868   3.102   3.310  11.269  0.0774  0.4319 -0.1282
  246MOL0     O33869   2.985   3.378  11.274  0.2058 -0.6140  0.2160
  246MOL0     C33870   2.984   3.516  11.235 -1.1039 -0.8963 -0.1622
  246MOL0     C33871   2.926   3.579  11.364  0.2802  0.0139 -0.0280
  246MOL0     C33872   2.776   3.537  11.393  0.5700  0.3554 -0.6433
  246MOL0     C33873   2.715   3.620  11.503 -0.6948 -0.1133  0.1482
  246MOL0     C33874   2.655   3.739  11.442  0.3975 -0.9987  0.9377
  246MOL0     C33875   2.615   3.838  11.381 -0.3337 -0.1418  0.5241
  246MOL0     C33876   3.168   3.290  11.388  0.0917  0.6167 -0.7061
  246MOL0     C33877   3.280   3.210  11.378  0.2255  0.3641 -0.4313
  246MOL0     C33878   3.347   3.189  11.509  0.5752  0.7777 -0.4597
  246MOL0     H33879   3.416   2.732  11.228 -0.7597  2.9264  1.8919
  246MOL0     H33880   3.588   2.557  11.194 -1.6645  0.3961 -3.0477
  246MOL0     H33881   3.732   2.422  11.303 -0.8549  1.9710 -1.9912
  246MOL0     H33882   3.817   2.469  11.445 -1.7305 -1.0209 -0.4226
  246MOL0     H33883   4.037   2.432  11.358 -0.4698  1.6130 -0.6916
  246MOL0     H33884   3.929   2.290  11.357 -0.6404  1.5370  1.5606
  246MOL0     H33885   3.882   2.281  11.143 -0.9595 -0.6979  2.2727
  246MOL0     H33886   3.936   2.443  11.097  1.6472 -1.1562 -0.7128
  246MOL0     H33887   4.149   2.242  11.196 -3.4631 -1.4056  0.7878
  246MOL0     H33888   4.083   2.210  11.037  0.9687  0.2018 -0.0331
  246MOL0     H33889   4.224   2.454  11.150 -1.5099  1.2211 -1.0254
  246MOL0     H33890   4.139   2.464  10.992 -0.7484 -0.5052 -0.6409
  246MOL0     H33891   4.372   2.282  11.034 -3.6817 -0.0940  3.2138
  246MOL0     H33892   4.289   2.301  10.884  2.1897 -0.4577 -0.8841
  246MOL0     H33893   4.458   2.517  11.034  0.4296 -1.0424 -0.7998
  246MOL0     H33894   4.349   2.556  10.905 -0.5630  0.2507 -1.0350
  246MOL0     H33895   4.464   2.425  10.733 -0.9581 -2.7385  1.8405
  246MOL0     H33896   4.569   2.533  10.820 -0.5132  0.4545 -1.7760
  246MOL0     H33897   4.793   2.425  10.778  0.9122 -1.2353 -0.2330
  246MOL0     H33898   4.974   2.230  10.733 -1.6630  1.3971 -1.1708
  246MOL0     H33899   4.926   2.067  10.787 -2.2749  0.2768  1.3097
  246MOL0     H33900   5.052   2.287  10.954  1.5982 -0.4465 -0.8377
  246MOL0     H33901   4.964   2.166  11.040 -0.7429 -0.1650 -0.3789
  246MOL0     H33902   5.113   1.991  10.905  1.8398  0.4411 -1.2339
  246MOL0     H33903   5.198   2.124  10.841 -0.2818  0.3223 -0.3110
  246MOL0     H33904   5.268   2.210  11.032 -3.2335  1.8189 -1.3666
  246MOL0     H33905   5.174   2.106  11.141 -0.0895 -1.0631 -0.2520
  246MOL0     H33906   5.561   1.898  11.082 -1.4067 -1.5829  0.8756
  246MOL0     H33907   5.761   1.846  11.170 -0.0419  2.0846 -2.4372
  246MOL0     H33908   5.794   1.841  11.342 -1.9126 -2.2465 -1.2533
  246MOL0     H33909   5.842   1.982  11.240  0.1837  0.2899 -0.9111
  246MOL0     H33910   5.830   1.950  11.743 -0.8857 -0.1649  1.4456
  246MOL0     H33911   5.951   2.030  11.935 -0.0148 -0.7065  1.0208
  246MOL0     H33912   5.879   2.291  12.301 -0.3158 -0.0511  0.9863
  246MOL0     H33913   5.753   2.345  12.211  0.0916 -0.2038  3.1591
  246MOL0     H33914   5.654   2.178  12.367  2.7657  0.0099  2.2222
  246MOL0     H33915   5.672   2.090  12.219  2.1867 -3.7119 -0.3297
  246MOL0     H33916   5.905   2.000  12.297  2.4249  1.3307  2.6980
  246MOL0     H33917   5.774   1.946  12.393 -0.1826  0.3620  2.1877
  246MOL0     H33918   5.834   2.149  12.547 -0.9573 -0.6670  0.0483
  246MOL0     H33919   5.976   2.170  12.463 -1.9468  2.0624  0.9208
  246MOL0     H33920   6.020   2.028  12.630 -2.8851  2.7770  1.5151
  246MOL0     H33921   5.886   1.910  12.598 -0.4668 -0.9616 -0.7027
  246MOL0     H33922   6.145   1.933  12.427 -0.0685  0.3423 -1.0263
  246MOL0     H33923   6.015   1.815  12.400 -0.9846  0.8505 -0.5980
  246MOL0     H33924   6.076   1.697  12.577  1.1493 -0.6640 -2.4303
  246MOL0     H33925   6.137   1.828  12.677 -0.0560  1.2797 -0.1882
  246MOL0     H33926   6.297   1.727  12.439  3.1288  1.6093 -0.2775
  246MOL0     H33927   6.325   1.682  12.606  1.4139  0.2709 -0.7237
  246MOL0     H33928   5.629   2.300  12.037  0.1247  0.7790 -0.9696
  246MOL0     H33929   5.524   2.241  11.814 -0.2930 -0.7591 -0.0251
  246MOL0     H33930   5.399   2.102  11.504 -2.9197 -1.8306 -0.1253
  246MOL0     H33931   5.272   2.115  11.306 -0.9844 -0.8634  0.1783
  246MOL0     H33932   3.864   2.802  11.420  0.5016  1.7049 -1.3376
  246MOL0     H33933   3.683   2.964  11.451 -0.9409  0.1885  0.2934
  246MOL0     H33934   3.308   3.165  11.038  1.8813  0.6704  0.5466
  246MOL0     H33935   3.099   3.289  11.054  0.7611 -0.3643 -0.7091
  246MOL0     H33936   3.085   3.546  11.207 -1.4471 -0.4958 -1.0347
  246MOL0     H33937   2.925   3.525  11.143 -1.4484 -2.7516 -0.1793
  246MOL0     H33938   2.918   3.688  11.358 -0.2548  0.0276  0.8260
  246MOL0     H33939   2.989   3.547  11.447  1.3804  0.5498 -0.6258
  246MOL0     H33940   2.709   3.547  11.307  0.7148 -0.0480 -0.8050
  246MOL0     H33941   2.786   3.435  11.432  3.1549  1.3555  1.7059
  246MOL0     H33942   2.794   3.632  11.578  1.1365 -2.9119 -1.1377
  246MOL0     H33943   2.634   3.560  11.547  0.4622 -2.0378 -0.2288
  246MOL0     H33944   2.583   3.918  11.318  2.5274 -1.0215 -2.3291
  246MOL0     H33945   3.136   3.323  11.486 -0.8763  1.1752 -1.2036
  246MOL0     H33946   3.351   3.082  11.535 -4.0327 -0.0931 -2.3453
  246MOL0     H33947   3.448   3.222  11.484  1.1754 -0.2491  0.4897
  246MOL0     H33948   3.310   3.253  11.590  0.5868 -2.3215  2.2467
  247MOL0     O33949   3.166   9.999   2.460  0.7447  0.6019  0.7507
  247MOL0     C33950   3.083   9.967   2.380  0.3243  0.1057  0.7327
  247MOL0     O33951   3.093   9.958   2.241 -0.0955 -0.3606 -0.3233
  247MOL0     C33952   3.204  10.011   2.182 -0.5656  0.2447  0.0598
  247MOL0     C33953   3.198  10.129   2.109 -0.4149  0.5077  0.8882
  247MOL0     C33954   3.319  10.167   2.040  0.3673 -0.5767 -0.1745
  247MOL0     C33955   3.441  10.097   2.051 -0.2548  0.0360  0.8597
  247MOL0     O33956   3.555  10.144   1.987  0.6754  0.4457 -0.5078
  247MOL0     C33957   3.651  10.205   2.073 -0.0009 -0.4314 -0.2453
  247MOL0     C33958   3.801  10.168   2.031 -0.7808  0.5965 -0.1921
  247MOL0     C33959   3.844  10.198   1.884  0.3219 -0.1014 -0.2357
  247MOL0     C33960   3.987  10.170   1.862  0.3767  0.6293 -0.3436
  247MOL0     C33961   4.046  10.220   1.731  0.7839 -0.8550 -0.0039
  247MOL0     C33962   4.200  10.201   1.724  0.3462  0.0908  0.3416
  247MOL0     C33963   4.270  10.258   1.602  0.0879  0.1609  0.5427
  247MOL0     C33964   4.401  10.183   1.571  0.3293  0.8327  0.0549
  247MOL0     N33965   4.491  10.236   1.465  0.5537 -0.2220  0.2119
  247MOL0     C33966   4.457  10.349   1.385 -0.2823  1.1594 -0.2673
  247MOL0     C33967   4.581  10.402   1.357  0.4926  1.0224  0.3454
  247MOL0     C33968   4.596  10.529   1.274 -0.3904 -0.2386 -0.2714
  247MOL0     C33969   4.736  10.597   1.278 -0.0487 -0.1014 -0.3894
  247MOL0     C33970   4.753  10.716   1.186  0.1658 -0.2564  0.4620
  247MOL0     C33971   4.896  10.759   1.175 -0.1838 -0.6078 -0.1655
  247MOL0     O33972   4.966  10.655   1.110 -0.0951 -0.3679  0.4566
  247MOL0     C33973   5.094  10.659   1.087 -0.5129  0.2635  0.0678
  247MOL0     C33974   5.187  10.760   1.132 -0.8679 -0.3627 -0.4912
  247MOL0     C33975   5.328  10.748   1.110 -0.3110 -0.4892  0.3055
  247MOL0     C33976   5.413  10.855   1.171 -0.6129 -0.4238 -0.4022
  247MOL0     C33977   5.373  10.637   1.029 -1.3160  0.1177 -0.5900
  247MOL0     C33978   5.516  10.622   0.993 -0.0855  0.0949  0.6150
  247MOL0     O33979   5.548  10.551   0.876  0.5166 -0.6495 -0.1396
  247MOL0     C33980   5.668  10.560   0.816 -0.0199 -1.1981  0.5917
  247MOL0     C33981   5.783  10.493   0.866 -0.3024  0.4012  0.6789
  247MOL0     C33982   5.896  10.505   0.790  0.7926  0.1436  0.2940
  247MOL0     C33983   5.902  10.585   0.673 -0.7955  0.3579  0.3144
  247MOL0     O33984   6.012  10.623   0.605 -0.4499  0.2888 -0.0826
  247MOL0     C33985   6.129  10.632   0.690  0.3428  0.1634 -0.3252
  247MOL0     C33986   6.112  10.722   0.811 -0.0742 -0.4136 -0.1526
  247MOL0     C33987   6.241  10.749   0.879 -0.1426 -0.4692  0.0459
  247MOL0     C33988   6.355  10.806   0.792  0.2079 -0.3411  0.0125
  247MOL0     C33989   6.462  10.877   0.879  1.0954  0.3064  0.0731
  247MOL0     C33990   6.593  10.918   0.804  0.6312  1.1913  0.5372
  247MOL0     C33991   6.569  10.998   0.672  0.0373  0.5457  0.1321
  247MOL0     C33992   6.700  11.051   0.617 -0.3250  0.1481  0.0889
  247MOL0    Cl33993   6.766  11.155   0.740  0.4204  0.2443  0.0329
  247MOL0     C33994   5.789  10.649   0.635 -0.3115 -0.1855 -0.4852
  247MOL0     C33995   5.670  10.638   0.699  0.6012  0.0617 -0.3352
  247MOL0     O33996   5.602  10.675   1.064 -0.1627  0.0951 -0.0470
  247MOL0     C33997   5.283  10.539   0.984 -0.2544  0.4891 -0.0600
  247MOL0     C33998   5.146  10.551   1.013 -0.6277 -0.6989 -0.0080
  247MOL0     N33999   4.680  10.335   1.423  0.3628  1.3001 -0.0215
  247MOL0     N34000   4.621  10.231   1.483 -0.6423  0.5787 -0.6141
  247MOL0     C34001   3.439   9.975   2.127 -0.4016 -0.0324  0.3990
  247MOL0     C34002   3.316   9.932   2.179 -0.3126  0.0002  0.2652
  247MOL0     C34003   2.952   9.927   2.429 -0.3194 -0.0476 -0.7376
  247MOL0     C34004   2.873   9.851   2.350 -0.1546 -0.0753  0.3457
  247MOL0     C34005   2.737   9.820   2.379  0.8167  0.2501 -0.6295
  247MOL0     C34006   2.683   9.861   2.496 -0.5122  0.1479 -0.4177
  247MOL0     O34007   2.562   9.828   2.539  0.3780  0.5548 -0.6857
  247MOL0     C34008   2.449   9.864   2.449  0.7616 -0.1894 -0.6070
  247MOL0     C34009   2.419  10.012   2.464  0.7234  0.0959  0.8279
  247MOL0     C34010   2.372  10.060   2.602  0.1707 -0.1660 -0.4525
  247MOL0     C34011   2.388  10.205   2.629  0.1147 -0.4935  0.0339
  247MOL0     C34012   2.524  10.252   2.606  0.5726  0.3274  0.0564
  247MOL0     C34013   2.631  10.290   2.587 -1.1797  0.4986  0.6631
  247MOL0     C34014   2.763   9.934   2.585  0.3898  1.0860  0.2604
  247MOL0     C34015   2.893   9.973   2.555  0.1206  0.3599 -0.1202
  247MOL0     C34016   2.957  10.072   2.654  0.0217 -0.1671 -0.0428
  247MOL0     H34017   3.107  10.187   2.099  1.8265  4.2897  0.4480
  247MOL0     H34018   3.319  10.252   1.973 -0.5437 -2.4690 -2.7100
  247MOL0     H34019   3.635  10.169   2.175  0.2349  1.0394  0.3437
  247MOL0     H34020   3.638  10.314   2.072  1.8489 -0.1754 -0.0429
  247MOL0     H34021   3.857  10.224   2.108  0.6320 -2.8020  1.4924
  247MOL0     H34022   3.817  10.061   2.050 -1.9789  0.4821  0.2292
  247MOL0     H34023   3.788  10.135   1.814  3.3504 -1.0277 -2.0192
  247MOL0     H34024   3.824  10.303   1.863  3.0455  0.3639 -0.8938
  247MOL0     H34025   4.045  10.200   1.949 -0.1976 -1.6675  0.9150
  247MOL0     H34026   3.995  10.064   1.886 -0.5457  0.6245 -0.0169
  247MOL0     H34027   4.020  10.326   1.729 -3.0159 -1.6116  1.2111
  247MOL0     H34028   4.005  10.162   1.648 -1.3573 -1.0645  1.1190
  247MOL0     H34029   4.251  10.233   1.815 -0.4161 -1.0751  1.2047
  247MOL0     H34030   4.222  10.094   1.716  2.1823  0.4338  0.4631
  247MOL0     H34031   4.303  10.360   1.624  1.6385  0.2579 -1.8284
  247MOL0     H34032   4.208  10.264   1.512  1.0773  0.3278 -0.1367
  247MOL0     H34033   4.460  10.182   1.664 -0.8126 -1.7290  0.8273
  247MOL0     H34034   4.374  10.080   1.545 -0.5541  1.2884 -0.9196
  247MOL0     H34035   4.362  10.395   1.361  0.0323  1.3296 -1.1998
  247MOL0     H34036   4.512  10.595   1.299  0.7881  1.0502  0.4419
  247MOL0     H34037   4.577  10.494   1.173 -0.3852 -1.2842  0.0768
  247MOL0     H34038   4.776  10.625   1.376 -0.6196 -1.7512  0.3468
  247MOL0     H34039   4.804  10.518   1.245  1.7762  0.7503  1.0884
  247MOL0     H34040   4.712  10.694   1.086 -1.5142  2.1504  0.5261
  247MOL0     H34041   4.691  10.802   1.212 -0.1964 -0.1735 -0.5944
  247MOL0     H34042   4.904  10.856   1.125 -1.0117 -0.0210  0.7768
  247MOL0     H34043   4.942  10.778   1.273  1.2873  0.4681 -1.0331
  247MOL0     H34044   5.151  10.843   1.192 -1.4224  0.0741 -1.3932
  247MOL0     H34045   5.494  10.812   1.230 -0.1222 -3.1216 -2.7956
  247MOL0     H34046   5.356  10.925   1.233  2.1543  2.8398 -1.2495
  247MOL0     H34047   5.459  10.917   1.094 -0.1449 -0.7588 -0.3929
  247MOL0     H34048   5.788  10.424   0.950  0.2636 -2.3935 -1.4915
  247MOL0     H34049   5.981  10.450   0.831  0.5516 -0.0551  0.5258
  247MOL0     H34050   6.160  10.536   0.731  0.3500 -0.0385 -0.8119
  247MOL0     H34051   6.208  10.669   0.624  3.2133 -0.1675  2.6451
  247MOL0     H34052   6.065  10.812   0.771  0.8618  0.1062 -0.1043
  247MOL0     H34053   6.049  10.678   0.889  0.6149  1.4402  1.5283
  247MOL0     H34054   6.277  10.666   0.941 -1.2298  0.4968  2.1027
  247MOL0     H34055   6.204  10.825   0.949  1.6425 -0.0824  0.6280
  247MOL0     H34056   6.324  10.868   0.708  0.0038  1.7013  1.5245
  247MOL0     H34057   6.400  10.716   0.749  0.9620 -0.0549  0.1954
  247MOL0     H34058   6.422  10.977   0.902  1.6238  0.2935  1.1260
  247MOL0     H34059   6.492  10.829   0.972  3.3960  3.3433  1.0928
  247MOL0     H34060   6.640  10.822   0.780 -3.1428 -0.8613  0.5794
  247MOL0     H34061   6.651  10.982   0.872  1.3280  2.6144 -1.3198
  247MOL0     H34062   6.502  11.081   0.696 -0.5548  0.5444 -1.4019
  247MOL0     H34063   6.519  10.932   0.600  0.4329  0.1917  0.1825
  247MOL0     H34064   6.681  11.103   0.522 -1.0127  1.9072  1.1257
  247MOL0     H34065   6.770  10.970   0.597 -1.3884 -0.5888 -0.7641
  247MOL0     H34066   5.799  10.713   0.548 -0.5599 -1.2945 -1.3621
  247MOL0     H34067   5.589  10.706   0.675  2.4396  2.3947 -0.3923
  247MOL0     H34068   5.324  10.461   0.921  0.9317  2.2701 -1.6065
  247MOL0     H34069   5.069  10.483   0.979 -1.9751  0.4189  0.6804
  247MOL0     H34070   3.535   9.923   2.123  0.0446  0.7246  1.1456
  247MOL0     H34071   3.304   9.830   2.215  1.1717 -0.7522 -1.2134
  247MOL0     H34072   2.907   9.813   2.254 -0.6370  1.0966 -0.3158
  247MOL0     H34073   2.682   9.763   2.305  1.3417 -1.8190  0.5147
  247MOL0     H34074   2.465   9.838   2.344 -1.5944 -0.2855 -0.9945
  247MOL0     H34075   2.366   9.798   2.478 -0.5949  2.0182  0.9053
  247MOL0     H34076   2.330  10.020   2.400  0.4517 -1.1193  1.0227
  247MOL0     H34077   2.507  10.063   2.425  0.9878  0.1136  1.4394
  247MOL0     H34078   2.269  10.030   2.622  0.0510 -0.0726 -0.9232
  247MOL0     H34079   2.440  10.005   2.668 -1.1412 -1.2406  0.0315
  247MOL0     H34080   2.362  10.227   2.733 -1.4437  1.8089 -0.7631
  247MOL0     H34081   2.312  10.257   2.569 -1.8485 -1.9197  1.1478
  247MOL0     H34082   2.723  10.344   2.577  1.4979 -3.8768 -0.8085
  247MOL0     H34083   2.715   9.955   2.680 -2.6700  0.7431 -1.0697
  247MOL0     H34084   2.893  10.098   2.739  2.8507 -0.3322  2.2948
  247MOL0     H34085   3.041  10.021   2.701 -0.0065  0.7569  1.0554
  247MOL0     H34086   2.984  10.171   2.616 -0.1150  0.2823  0.9968
  248MOL0     O34087   0.225   6.704   3.599  0.1382 -0.2712 -0.4999
  248MOL0     C34088   0.200   6.737   3.714 -0.9457 -1.2417 -0.7114
  248MOL0     O34089   0.272   6.833   3.779 -0.7700  0.4855 -0.0066
  248MOL0     C34090   0.400   6.843   3.745 -0.2432  0.2064  0.4437
  248MOL0     C34091   0.485   6.839   3.855 -0.2861 -0.5132  1.4180
  248MOL0     C34092   0.621   6.869   3.852  0.9595  0.2725  0.4778
  248MOL0     C34093   0.681   6.916   3.738 -0.3315  0.2080 -0.0792
  248MOL0     O34094   0.816   6.934   3.727  0.5907 -0.0019 -0.0027
  248MOL0     C34095   0.908   6.934   3.844  0.2393  0.7723 -0.2325
  248MOL0     C34096   1.065   6.938   3.806 -0.2437  0.1201 -0.0293
  248MOL0     C34097   1.138   6.948   3.942  0.4851 -0.6340 -0.0988
  248MOL0     C34098   1.283   6.908   3.922  0.5673  0.4354  0.3719
  248MOL0     C34099   1.373   6.966   4.028 -0.5360  0.3977  0.1676
  248MOL0     C34100   1.524   6.940   4.022 -0.4832 -1.0971  0.8558
  248MOL0     C34101   1.602   7.030   4.118 -0.1857 -0.0710  0.4140
  248MOL0     C34102   1.745   7.004   4.088 -0.4356  0.5429  0.5097
  248MOL0     N34103   1.840   7.082   4.167  0.2770  0.3105 -0.1761
  248MOL0     C34104   1.914   7.174   4.115 -0.2059  0.3328  0.0467
  248MOL0     C34105   1.983   7.220   4.221  0.9913  0.1228  0.3343
  248MOL0     C34106   2.066   7.337   4.229 -0.0554 -0.5101  0.3696
  248MOL0     C34107   2.200   7.311   4.294 -0.0599  0.5209 -0.3306
  248MOL0     C34108   2.302   7.419   4.293 -0.3690  0.3340 -0.8480
  248MOL0     C34109   2.441   7.360   4.327  0.3687  0.8088  0.3024
  248MOL0     O34110   2.533   7.473   4.317  0.3603 -0.4785  0.1033
  248MOL0     C34111   2.664   7.456   4.352 -1.3695 -0.8374  0.3376
  248MOL0     C34112   2.750   7.564   4.326 -0.3538 -0.0477  0.0348
  248MOL0     C34113   2.890   7.556   4.346  0.3691  0.0175  0.0333
  248MOL0     C34114   2.960   7.682   4.338  0.8632 -0.0506  0.5926
  248MOL0     C34115   2.946   7.436   4.391 -0.1414  0.7811  1.1235
  248MOL0     C34116   3.095   7.414   4.401  0.3562  0.3747 -0.1138
  248MOL0     O34117   3.186   7.515   4.391  0.5357 -0.0279  0.0848
  248MOL0     C34118   3.328   7.496   4.376  0.1042 -0.9344 -0.6049
  248MOL0     C34119   3.402   7.390   4.324  0.5582 -0.3462  0.3513
  248MOL0     C34120   3.544   7.389   4.315 -0.0468 -0.1916  0.2349
  248MOL0     C34121   3.614   7.495   4.365  0.1844 -0.4875 -0.8693
  248MOL0     O34122   3.751   7.500   4.365 -0.6183  0.3342 -0.1554
  248MOL0     C34123   3.825   7.428   4.474 -0.4434 -0.0409  0.0937
  248MOL0     C34124   3.890   7.304   4.410  0.3622  0.4792 -0.4102
  248MOL0     C34125   3.992   7.326   4.292 -0.3111 -0.0820  0.2817
  248MOL0     C34126   4.063   7.200   4.229  0.5886 -0.6335  0.9919
  248MOL0     C34127   4.127   7.233   4.095  0.6072  0.3303 -0.2221
  248MOL0     C34128   4.244   7.338   4.111 -0.7716  0.0195  0.0295
  248MOL0     C34129   4.323   7.346   3.981 -1.1187  0.0836  0.3048
  248MOL0     C34130   4.454   7.431   3.993 -0.6259 -0.5269 -0.0064
  248MOL0    Cl34131   4.422   7.584   4.077 -0.3199  0.3171  0.2200
  248MOL0     C34132   3.544   7.601   4.425  0.1295 -0.6686  0.0635
  248MOL0     C34133   3.403   7.597   4.427 -0.9089 -0.0846 -0.1358
  248MOL0     O34134   3.133   7.299   4.418 -0.3541  0.1795  0.6040
  248MOL0     C34135   2.860   7.321   4.416  0.1215  0.1143 -0.5001
  248MOL0     C34136   2.722   7.333   4.392 -0.5870  0.2110 -0.3888
  248MOL0     N34137   1.957   7.137   4.331 -0.5285 -0.4384  0.0368
  248MOL0     N34138   1.869   7.054   4.294 -0.3080  0.4693  0.0316
  248MOL0     C34139   0.602   6.920   3.618  0.5542 -0.1545 -0.1986
  248MOL0     C34140   0.456   6.889   3.624  0.4574 -0.3386  0.1536
  248MOL0     C34141   0.089   6.679   3.782 -0.0867  0.0912 -0.3932
  248MOL0     C34142   0.054   6.742   3.911  0.1628  0.4029  0.0674
  248MOL0     C34143  -0.066   6.706   3.969 -0.2526 -0.2652 -0.1702
  248MOL0     C34144  -0.150   6.603   3.914 -0.3124 -0.4160 -0.1582
  248MOL0     O34145  -0.256   6.563   4.005  0.0208 -0.0268  0.6711
  248MOL0     C34146  -0.345   6.467   3.943  0.0249 -0.7754 -0.5264
  248MOL0     C34147  -0.468   6.460   4.018 -0.0349  0.1551 -0.5476
  248MOL0     C34148  -0.542   6.591   4.047 -0.1968 -0.4291  0.0222
  248MOL0     C34149  -0.687   6.563   4.105 -0.4706  0.2273 -0.3441
  248MOL0     C34150  -0.778   6.524   3.999 -0.8917  0.1665  1.0050
  248MOL0     C34151  -0.849   6.496   3.908 -0.1002 -1.1306  0.3296
  248MOL0     C34152  -0.111   6.534   3.796  1.2415  0.1053  0.0680
  248MOL0     C34153   0.007   6.574   3.732 -0.4395  0.3788 -0.2952
  248MOL0     C34154   0.024   6.517   3.600 -0.8884  0.1060 -0.1304
  248MOL0     H34155   0.444   6.811   3.951 -1.7394 -2.6302  0.2452
  248MOL0     H34156   0.660   6.878   3.953 -2.7283  0.3890  2.0849
  248MOL0     H34157   0.893   6.847   3.908  0.0897 -0.8184 -2.3100
  248MOL0     H34158   0.880   7.027   3.896  2.0331  1.3486 -0.2209
  248MOL0     H34159   1.093   6.844   3.758  1.1978  1.1070 -1.1799
  248MOL0     H34160   1.079   7.022   3.738  0.2719 -1.1541 -1.5538
  248MOL0     H34161   1.130   7.049   3.985  0.4492 -0.2124 -1.0700
  248MOL0     H34162   1.101   6.877   4.017  0.8047 -0.8314 -0.1289
  248MOL0     H34163   1.285   6.799   3.925 -0.7385  0.3888  0.4908
  248MOL0     H34164   1.325   6.943   3.828  0.2969 -1.4522 -0.5029
  248MOL0     H34165   1.339   6.928   4.124  0.1874  1.8127  1.0165
  248MOL0     H34166   1.353   7.073   4.038  0.1920  0.7519 -1.7375
  248MOL0     H34167   1.547   6.834   4.039  3.1093 -0.4120  1.0951
  248MOL0     H34168   1.551   6.961   3.918  0.2244 -0.9170  1.0740
  248MOL0     H34169   1.568   7.003   4.219 -0.7516 -1.7480 -0.1775
  248MOL0     H34170   1.577   7.134   4.098  1.5355  0.0537 -1.3860
  248MOL0     H34171   1.756   6.896   4.097 -0.8867  0.2060 -2.0281
  248MOL0     H34172   1.763   7.027   3.982 -0.0593  2.4820  0.9544
  248MOL0     H34173   1.903   7.213   4.014 -0.8662  0.4463  0.1579
  248MOL0     H34174   2.020   7.419   4.285  2.4720  0.4126  1.2863
  248MOL0     H34175   2.087   7.382   4.131  0.7022 -2.6393 -0.4902
  248MOL0     H34176   2.195   7.274   4.397 -1.8220 -1.1909 -0.9759
  248MOL0     H34177   2.242   7.230   4.233  0.1642 -0.1192  0.6516
  248MOL0     H34178   2.305   7.473   4.197  2.4366 -0.5309 -1.3382
  248MOL0     H34179   2.273   7.494   4.367  2.6383  1.9297 -1.1445
  248MOL0     H34180   2.432   7.311   4.425 -0.9717 -0.4622 -0.4298
  248MOL0     H34181   2.477   7.281   4.260 -1.7025  0.1130 -0.0342
  248MOL0     H34182   2.696   7.653   4.296 -0.3619  0.3057  1.0529
  248MOL0     H34183   3.028   7.687   4.252 -0.2586 -1.5305 -0.4141
  248MOL0     H34184   3.007   7.705   4.434  1.0969 -0.4394  0.5738
  248MOL0     H34185   2.890   7.765   4.325 -0.6277 -1.2681  0.6561
  248MOL0     H34186   3.354   7.298   4.291 -0.5524 -1.7672  5.0780
  248MOL0     H34187   3.592   7.304   4.269  0.0064  0.2562 -0.5659
  248MOL0     H34188   3.896   7.495   4.523 -3.1194  0.5536  3.5543
  248MOL0     H34189   3.766   7.397   4.560  2.0388 -0.4915  1.7355
  248MOL0     H34190   3.953   7.265   4.491  1.3220  2.9882  0.1823
  248MOL0     H34191   3.817   7.236   4.366  0.2557  0.3790 -0.0820
  248MOL0     H34192   4.064   7.407   4.307  1.0872 -1.2448  0.0876
  248MOL0     H34193   3.939   7.369   4.206  0.7447 -0.1408 -0.4179
  248MOL0     H34194   3.982   7.130   4.206  0.4690 -0.3713  0.5961
  248MOL0     H34195   4.135   7.150   4.294  2.4875 -1.1189 -1.3752
  248MOL0     H34196   4.160   7.145   4.039 -1.5910  1.3293 -3.3499
  248MOL0     H34197   4.043   7.271   4.035 -0.4101  3.3403  2.7584
  248MOL0     H34198   4.314   7.307   4.189 -0.7997 -2.9442 -0.9858
  248MOL0     H34199   4.212   7.438   4.142  1.3956  0.7921 -0.0699
  248MOL0     H34200   4.261   7.379   3.897 -2.0941 -4.7026 -1.1088
  248MOL0     H34201   4.358   7.246   3.957  1.2378  1.1976 -1.3354
  248MOL0     H34202   4.502   7.441   3.895  0.1706  2.5389  0.5826
  248MOL0     H34203   4.530   7.385   4.056  1.2278  0.4553 -1.4192
  248MOL0     H34204   3.600   7.688   4.456  1.9963 -1.3738 -1.1678
  248MOL0     H34205   3.359   7.684   4.475 -0.6318 -0.4435  0.7775
  248MOL0     H34206   2.891   7.222   4.446 -2.2509 -0.3656  0.5865
  248MOL0     H34207   2.653   7.249   4.398 -0.7117  0.1981 -1.7287
  248MOL0     H34208   0.649   6.946   3.523  2.1653 -1.0508  0.3136
  248MOL0     H34209   0.400   6.907   3.532 -0.1494  1.6793  0.8630
  248MOL0     H34210   0.120   6.819   3.951  0.4437  1.0689 -1.6152
  248MOL0     H34211  -0.098   6.753   4.061  1.1762  0.3456  0.0293
  248MOL0     H34212  -0.372   6.498   3.842 -0.9956  0.9103  0.2246
  248MOL0     H34213  -0.294   6.370   3.941  1.9315  0.1052  1.3613
  248MOL0     H34214  -0.458   6.411   4.115 -1.3061  0.8493 -0.0342
  248MOL0     H34215  -0.529   6.395   3.954 -2.8405  1.2221  0.8530
  248MOL0     H34216  -0.490   6.644   4.128 -1.3105 -0.1648  0.5849
  248MOL0     H34217  -0.542   6.662   3.965  0.7053  0.7346  0.9803
  248MOL0     H34218  -0.725   6.651   4.158  0.1372  0.6717 -0.6356
  248MOL0     H34219  -0.683   6.491   4.187 -1.6372  2.2027  1.5735
  248MOL0     H34220  -0.912   6.476   3.824  0.4821 -0.4247 -0.2823
  248MOL0     H34221  -0.171   6.450   3.762  1.4680 -1.2027  2.6620
  248MOL0     H34222   0.131   6.500   3.583 -0.2204  2.6472  1.0085
  248MOL0     H34223  -0.030   6.423   3.587 -1.4710  0.3849  0.2523
  248MOL0     H34224  -0.012   6.586   3.522 -0.9940  0.6071  0.3521
  249MOL0     O34225   9.177   1.384   7.136 -0.9097  0.2007  0.6407
  249MOL0     C34226   9.106   1.300   7.189 -0.3755 -0.0167 -0.3719
  249MOL0     O34227   9.138   1.234   7.306 -0.9159  0.4588  0.4264
  249MOL0     C34228   9.257   1.263   7.379  0.1027 -0.5550 -0.3234
  249MOL0     C34229   9.310   1.152   7.445  0.5576  0.0699 -0.4540
  249MOL0     C34230   9.427   1.175   7.517 -0.2952  0.0070  0.6146
  249MOL0     C34231   9.496   1.297   7.523  0.4884  0.4072  1.1853
  249MOL0     O34232   9.620   1.302   7.592  0.6663 -0.3840  0.1853
  249MOL0     C34233   9.721   1.242   7.503  0.1381  0.3426 -0.4040
  249MOL0     C34234   9.844   1.302   7.565 -0.4028  0.5482 -0.1757
  249MOL0     C34235   9.902   1.230   7.684  0.1488  0.4274  0.3094
  249MOL0     C34236  10.016   1.309   7.729 -1.0617 -0.3122 -0.4195
  249MOL0     C34237  10.117   1.362   7.625 -0.4516  1.1830 -0.3011
  249MOL0     C34238  10.200   1.238   7.574 -0.0643  0.0276 -0.7446
  249MOL0     C34239  10.288   1.277   7.458  0.0478  0.1727 -0.6336
  249MOL0     C34240  10.346   1.147   7.394 -1.1481 -0.5094  0.6361
  249MOL0     N34241  10.439   1.182   7.280 -0.4392  0.1676  0.3739
  249MOL0     C34242  10.564   1.240   7.300 -0.0919 -0.0693  0.4558
  249MOL0     C34243  10.610   1.285   7.178 -0.0559  0.2839  0.2767
  249MOL0     C34244  10.728   1.388   7.168  0.3805  0.3449 -1.0368
  249MOL0     C34245  10.858   1.327   7.219  0.0021 -0.1165 -0.4340
  249MOL0     C34246  10.972   1.424   7.176 -0.1344 -0.1720  0.1240
  249MOL0     C34247  11.113   1.380   7.229  0.3510 -0.4770 -1.0573
  249MOL0     O34248  11.185   1.496   7.258  0.3176 -0.2826 -0.5180
  249MOL0     C34249  11.298   1.473   7.332  1.0291  1.2606 -0.4072
  249MOL0     C34250  11.365   1.353   7.347  0.3891 -0.4283  0.1943
  249MOL0     C34251  11.482   1.339   7.424 -0.2153  0.5166  0.6371
  249MOL0     C34252  11.549   1.206   7.436  0.2794  0.0156  0.1059
  249MOL0     C34253  11.534   1.448   7.498 -0.4831 -0.2039 -1.1269
  249MOL0     C34254  11.650   1.453   7.590  0.0690  0.1320  0.2548
  249MOL0     O34255  11.760   1.377   7.553  0.3598 -0.2036 -0.5811
  249MOL0     C34256  11.880   1.380   7.617 -0.0839 -0.8816 -1.3285
  249MOL0     C34257  11.987   1.412   7.534  0.2217 -0.1763  0.1409
  249MOL0     C34258  12.112   1.407   7.588  0.0273 -0.2214 -0.9238
  249MOL0     C34259  12.138   1.399   7.723  1.4197  0.2705 -0.0255
  249MOL0     O34260  12.268   1.423   7.755 -0.2537  0.5451  0.3135
  249MOL0     C34261  12.314   1.394   7.889  0.2563  0.1549 -0.0121
  249MOL0     C34262  12.453   1.455   7.889  0.0318 -0.5085 -0.1596
  249MOL0     C34263  12.543   1.416   8.005  0.3250  0.1762  0.5343
  249MOL0     C34264  12.695   1.430   7.967  0.3595  0.1773  0.3015
  249MOL0     C34265  12.790   1.340   8.050  0.3524 -0.1017 -0.5415
  249MOL0     C34266  12.932   1.365   7.998  0.0673  1.4371 -0.1110
  249MOL0     C34267  13.036   1.288   8.073 -0.5118  0.5928  0.6310
  249MOL0     C34268  13.177   1.333   8.032  0.2395  0.3469 -1.0744
  249MOL0    Cl34269  13.217   1.276   7.863 -0.2496  0.0982  0.1660
  249MOL0     C34270  12.027   1.377   7.813  0.0849 -0.4583  0.4517
  249MOL0     C34271  11.899   1.372   7.757 -0.4813  0.3504 -0.5620
  249MOL0     O34272  11.645   1.520   7.694  0.4613  0.5045 -0.7879
  249MOL0     C34273  11.461   1.571   7.478  0.8260  0.4792 -0.2440
  249MOL0     C34274  11.346   1.580   7.402  0.3599  0.1024  0.2621
  249MOL0     N34275  10.512   1.251   7.080  0.2554 -0.5668 -0.6882
  249MOL0     N34276  10.416   1.193   7.145 -0.5415  0.1495  0.0752
  249MOL0     C34277   9.429   1.404   7.459 -0.4146  0.1105  0.9127
  249MOL0     C34278   9.306   1.391   7.399 -0.2696  0.0334 -0.0080
  249MOL0     C34279   8.983   1.260   7.126  0.1031 -0.1622 -0.5779
  249MOL0     C34280   8.924   1.357   7.045 -0.1786  0.7462 -0.2558
  249MOL0     C34281   8.809   1.326   6.971 -0.2662 -0.0682 -1.0760
  249MOL0     C34282   8.753   1.199   6.974  1.1390  0.6749  0.0156
  249MOL0     O34283   8.649   1.159   6.897  0.3741 -0.1778 -0.6345
  249MOL0     C34284   8.597   1.233   6.790  0.7593 -0.4664  0.5797
  249MOL0     C34285   8.666   1.189   6.664 -0.1847 -0.1974  0.4835
  249MOL0     C34286   8.600   1.264   6.541  0.1062 -0.0672 -0.3360
  249MOL0     C34287   8.675   1.231   6.417 -0.3793  0.5598 -0.1664
  249MOL0     C34288   8.623   1.289   6.290  0.1462 -0.1172  0.2913
  249MOL0     C34289   8.572   1.341   6.195  0.4259 -0.3999 -0.5610
  249MOL0     C34290   8.803   1.095   7.060  0.9501  0.3805  0.3531
  249MOL0     C34291   8.919   1.129   7.141  0.1398  0.2244  0.9846
  249MOL0     C34292   8.969   1.012   7.221  0.2757 -0.2587  0.5925
  249MOL0     H34293   9.260   1.056   7.455  1.5659 -0.6129 -1.6917
  249MOL0     H34294   9.473   1.089   7.564  1.3786  0.2620 -0.4731
  249MOL0     H34295   9.710   1.263   7.396 -0.8219 -1.6527 -0.7537
  249MOL0     H34296   9.729   1.133   7.509  1.5699  0.5062  1.2054
  249MOL0     H34297   9.913   1.305   7.481 -1.5161  0.4756 -1.1170
  249MOL0     H34298   9.827   1.407   7.593  0.7921  0.2943  1.6966
  249MOL0     H34299   9.830   1.217   7.765 -0.5227 -0.2171 -0.3836
  249MOL0     H34300   9.935   1.133   7.647  2.3656  0.7548  1.2625
  249MOL0     H34301   9.971   1.395   7.779 -1.7744  0.2800 -2.0113
  249MOL0     H34302  10.069   1.252   7.806 -1.8986 -1.6214 -0.7683
  249MOL0     H34303  10.182   1.433   7.676 -0.8044  0.9767  0.4457
  249MOL0     H34304  10.076   1.418   7.541 -0.2486  1.0023 -0.5231
  249MOL0     H34305  10.254   1.187   7.655 -0.6887 -1.0560 -0.9869
  249MOL0     H34306  10.134   1.162   7.532  2.7163 -1.5574 -2.5688
  249MOL0     H34307  10.364   1.349   7.490 -0.4330 -0.1828  1.4845
  249MOL0     H34308  10.223   1.323   7.384  0.1072 -3.2839 -3.0752
  249MOL0     H34309  10.394   1.092   7.476 -0.5931 -1.1154 -0.0783
  249MOL0     H34310  10.268   1.078   7.361 -0.0220 -1.4113 -0.2061
  249MOL0     H34311  10.618   1.265   7.391  2.1174  0.7557 -1.0140
  249MOL0     H34312  10.709   1.482   7.220 -0.8920  0.1985 -1.2123
  249MOL0     H34313  10.736   1.422   7.065 -1.6158 -0.1819 -1.4076
  249MOL0     H34314  10.862   1.319   7.328 -0.4770  2.8544 -0.1118
  249MOL0     H34315  10.864   1.231   7.166  1.8110  0.0367 -0.5728
  249MOL0     H34316  10.977   1.428   7.067  0.3132 -0.1408  0.1440
  249MOL0     H34317  10.962   1.525   7.215 -0.9025 -0.2810  0.2133
  249MOL0     H34318  11.092   1.320   7.318 -0.0239  0.9704 -0.1325
  249MOL0     H34319  11.161   1.314   7.156  2.6183  0.8915 -0.9234
  249MOL0     H34320  11.325   1.262   7.303 -2.7718 -0.3792  2.5517
  249MOL0     H34321  11.492   1.124   7.390  0.1427  0.6810 -0.9450
  249MOL0     H34322  11.558   1.181   7.542 -2.8381 -0.1330  0.4360
  249MOL0     H34323  11.649   1.208   7.394 -0.2456  2.5097 -1.1903
  249MOL0     H34324  11.981   1.400   7.427  0.5551 -2.8480  0.3479
  249MOL0     H34325  12.203   1.416   7.529  1.7457  0.3028  1.6230
  249MOL0     H34326  12.259   1.449   7.966 -0.4363  0.0923 -0.4581
  249MOL0     H34327  12.309   1.287   7.910 -4.2166 -0.3623 -2.4293
  249MOL0     H34328  12.493   1.430   7.790 -0.2047  1.9479 -0.9346
  249MOL0     H34329  12.438   1.563   7.879 -2.5813 -1.0027 -4.4495
  249MOL0     H34330  12.528   1.309   8.027  2.9033 -0.2214  0.5900
  249MOL0     H34331  12.524   1.478   8.094  0.9663  2.2546 -0.7196
  249MOL0     H34332  12.730   1.534   7.968  1.6335 -0.2196 -0.4908
  249MOL0     H34333  12.712   1.395   7.865  3.2250 -1.6867  1.3050
  249MOL0     H34334  12.782   1.365   8.156  0.5945 -1.1592 -0.2609
  249MOL0     H34335  12.757   1.236   8.043 -2.6833  0.6903  0.5713
  249MOL0     H34336  12.953   1.472   8.005 -1.0941  1.8663 -2.3534
  249MOL0     H34337  12.921   1.324   7.897 -1.2570 -1.0470  0.9299
  249MOL0     H34338  13.026   1.179   8.060  0.1306  0.1912  2.9468
  249MOL0     H34339  13.022   1.291   8.182  0.8817 -3.5663  1.1229
  249MOL0     H34340  13.243   1.287   8.106 -0.3281 -1.5140 -1.6694
  249MOL0     H34341  13.179   1.442   8.034  1.1915  0.3211 -0.4492
  249MOL0     H34342  12.040   1.368   7.920 -0.5967 -2.5009  0.3998
  249MOL0     H34343  11.814   1.366   7.824  1.3678 -0.0888  1.9271
  249MOL0     H34344  11.491   1.658   7.535  1.6046  0.5436 -0.7259
  249MOL0     H34345  11.300   1.678   7.399  0.3176  0.0702 -0.2232
  249MOL0     H34346   9.475   1.502   7.454 -0.7372  0.2825  1.2166
  249MOL0     H34347   9.254   1.474   7.351 -2.8922 -0.4905  1.7325
  249MOL0     H34348   8.974   1.453   7.034 -0.9975  1.2284  0.1106
  249MOL0     H34349   8.759   1.404   6.915 -2.9729  0.8332  2.2803
  249MOL0     H34350   8.491   1.208   6.777  0.3211  1.4576  0.0977
  249MOL0     H34351   8.607   1.340   6.805 -0.4268 -0.4875  1.6291
  249MOL0     H34352   8.644   1.082   6.666 -4.5671  0.5395  1.1463
  249MOL0     H34353   8.775   1.198   6.674 -0.0585 -1.7094  0.7249
  249MOL0     H34354   8.494   1.238   6.530  0.0929  0.6729 -2.5071
  249MOL0     H34355   8.616   1.368   6.571 -1.0197  0.7449 -2.3463
  249MOL0     H34356   8.681   1.122   6.403 -0.3400  0.7824 -2.1138
  249MOL0     H34357   8.776   1.273   6.425 -0.7608  1.8410 -1.7051
  249MOL0     H34358   8.526   1.395   6.114  3.7127  1.5707 -1.2834
  249MOL0     H34359   8.756   0.997   7.061 -2.8021  2.0389 -0.0274
  249MOL0     H34360   9.074   1.000   7.193  1.3537  1.9421  3.1592
  249MOL0     H34361   8.957   1.043   7.326 -0.2893 -1.4272  0.8879
  249MOL0     H34362   8.920   0.917   7.198 -1.0021  0.4513  0.2572
  250MOL0     O34363   8.742   4.622   4.050  0.0500  0.2562  0.2240
  250MOL0     C34364   8.657   4.574   4.126 -0.7127  0.1756  0.2748
  250MOL0     O34365   8.649   4.605   4.259  0.8680 -0.1981 -0.7620
  250MOL0     C34366   8.742   4.694   4.310 -0.6918  0.0208  0.0393
  250MOL0     C34367   8.879   4.657   4.336  0.3846  0.3378  0.3832
  250MOL0     C34368   8.974   4.757   4.381 -0.3099 -1.0230 -0.8512
  250MOL0     C34369   8.933   4.888   4.400 -0.0122  0.4909  0.3579
  250MOL0     O34370   9.028   4.987   4.402  0.6040  0.0936  0.0461
  250MOL0     C34371   8.987   5.125   4.424 -0.4108  0.0510  0.8543
  250MOL0     C34372   9.113   5.209   4.422 -0.0622  0.0739 -0.6813
  250MOL0     C34373   9.226   5.154   4.512 -0.5344 -0.7489 -0.4107
  250MOL0     C34374   9.358   5.242   4.505  0.0902 -0.4342  1.1851
  250MOL0     C34375   9.465   5.217   4.619 -0.6116  0.2610 -0.6405
  250MOL0     C34376   9.544   5.089   4.585 -0.6693 -0.5417  0.2748
  250MOL0     C34377   9.615   5.029   4.701 -0.5213  0.2029 -0.1507
  250MOL0     C34378   9.761   5.063   4.713  0.1429  0.1723 -0.2982
  250MOL0     N34379   9.793   5.202   4.689 -0.0256 -0.4467 -0.2759
  250MOL0     C34380   9.821   5.288   4.793  0.2049 -0.5029 -0.4107
  250MOL0     C34381   9.892   5.388   4.745  0.8986 -0.3689  0.2912
  250MOL0     C34382   9.943   5.507   4.828  0.1172 -0.0767 -0.1108
  250MOL0     C34383   9.931   5.495   4.976  0.5297 -0.1273  0.3377
  250MOL0     C34384  10.017   5.381   5.030  0.1916  0.0931 -0.8179
  250MOL0     C34385  10.166   5.438   5.071 -0.6563  0.1278  0.3505
  250MOL0     O34386  10.246   5.463   4.954 -0.3153  0.5047  0.0265
  250MOL0     C34387  10.370   5.514   4.968  0.0872  0.2872 -1.0497
  250MOL0     C34388  10.397   5.614   5.070  0.6785  0.6447  0.6453
  250MOL0     C34389  10.526   5.666   5.088  1.0828 -0.0120  0.8257
  250MOL0     C34390  10.549   5.762   5.209 -0.1347  0.8591 -0.1260
  250MOL0     C34391  10.635   5.623   4.996 -0.0279 -1.0042 -0.6084
  250MOL0     C34392  10.782   5.668   5.014  0.0943  0.1015  0.7071
  250MOL0     O34393  10.864   5.636   4.914  0.0137 -0.0451 -0.3911
  250MOL0     C34394  10.998   5.653   4.938 -0.3987  0.0515  0.2876
  250MOL0     C34395  11.055   5.775   4.908  0.2135  0.1398 -0.0981
  250MOL0     C34396  11.192   5.802   4.944  0.3215  0.3319  0.3174
  250MOL0     C34397  11.268   5.694   4.991 -0.6808 -0.6082  0.6883
  250MOL0     O34398  11.402   5.720   5.011 -0.4546  0.2455  0.1043
  250MOL0     C34399  11.456   5.641   5.113  1.1819  0.9746 -0.1505
  250MOL0     C34400  11.592   5.681   5.172  0.1615 -0.7754 -0.6255
  250MOL0     C34401  11.710   5.672   5.069 -0.3754 -0.0647 -0.3320
  250MOL0     C34402  11.828   5.755   5.115 -1.0227  0.4409  0.2702
  250MOL0     C34403  11.961   5.686   5.079  0.2890 -0.2352 -0.2477
  250MOL0     C34404  12.073   5.779   5.105 -0.4959 -0.5115  0.5230
  250MOL0     C34405  12.098   5.880   4.994 -0.0528  0.0989 -0.2863
  250MOL0     C34406  12.244   5.930   5.004 -0.5403  0.9948 -0.2704
  250MOL0    Cl34407  12.353   5.815   4.927 -0.2474  0.0952  0.0748
  250MOL0     C34408  11.213   5.566   5.003  0.7558  0.1172  0.1579
  250MOL0     C34409  11.076   5.549   4.985  0.2922 -0.6465  0.3893
  250MOL0     O34410  10.817   5.732   5.112  0.0645  0.0266  0.5178
  250MOL0     C34411  10.604   5.524   4.902  0.5701 -0.8453 -0.4306
  250MOL0     C34412  10.474   5.476   4.888  0.0159 -0.3920  0.1825
  250MOL0     N34413   9.913   5.362   4.608  0.4532  0.0886 -0.1922
  250MOL0     N34414   9.851   5.254   4.578  0.2235  0.2237  0.0890
  250MOL0     C34415   8.798   4.920   4.384 -0.1488 -0.1809  0.1164
  250MOL0     C34416   8.705   4.827   4.345  0.2621 -0.0532  0.3491
  250MOL0     C34417   8.542   4.504   4.065  0.0461  0.0881 -0.6648
  250MOL0     C34418   8.419   4.521   4.141  0.5541 -0.1083  0.4217
  250MOL0     C34419   8.307   4.450   4.102  0.1171 -0.3153 -0.7852
  250MOL0     C34420   8.306   4.371   3.993  0.8048 -0.4733  0.2723
  250MOL0     O34421   8.188   4.320   3.943 -0.3266 -0.6533  0.3057
  250MOL0     C34422   8.057   4.344   4.002  0.4542  0.0640 -0.3630
  250MOL0     C34423   7.955   4.285   3.909 -0.2794 -1.1675  0.1281
  250MOL0     C34424   7.817   4.299   3.970 -0.8397 -0.7844 -0.2843
  250MOL0     C34425   7.751   4.164   3.988 -0.3280 -0.1777 -0.7366
  250MOL0     C34426   7.614   4.185   4.037 -0.2159 -0.0378 -1.3325
  250MOL0     C34427   7.498   4.205   4.066 -0.5402 -0.3037  0.3399
  250MOL0     C34428   8.419   4.368   3.915  0.3766  0.4784  0.1066
  250MOL0     C34429   8.538   4.429   3.953  0.4192  0.9148  0.2479
  250MOL0     C34430   8.654   4.413   3.857  0.2867 -0.3153 -0.3425
  250MOL0     H34431   8.920   4.559   4.316  0.5045 -0.0475  2.3502
  250MOL0     H34432   9.078   4.729   4.396  0.1598  1.4315  1.1810
  250MOL0     H34433   8.935   5.128   4.521  2.6321 -0.8691  2.6562
  250MOL0     H34434   8.919   5.153   4.343 -0.3809  1.3880  1.2662
  250MOL0     H34435   9.149   5.224   4.320  1.0180 -1.7467 -0.6114
  250MOL0     H34436   9.084   5.305   4.467 -2.2158 -0.4723 -0.8136
  250MOL0     H34437   9.194   5.157   4.617  3.6070  0.8876  1.0596
  250MOL0     H34438   9.254   5.054   4.479  0.8599 -1.0861  1.5619
  250MOL0     H34439   9.397   5.227   4.404  0.5315 -2.9205  1.6521
  250MOL0     H34440   9.322   5.345   4.506 -1.3513 -0.9086  1.0805
  250MOL0     H34441   9.415   5.212   4.716  0.2241 -3.6443 -0.2320
  250MOL0     H34442   9.533   5.303   4.624 -1.5399  0.9701  0.0149
  250MOL0     H34443   9.472   5.016   4.548 -2.6619  1.8294 -0.7946
  250MOL0     H34444   9.611   5.110   4.501 -0.8144 -0.2572  0.2318
  250MOL0     H34445   9.604   4.920   4.694  0.0905  0.2374 -3.1838
  250MOL0     H34446   9.570   5.058   4.796 -0.0196  1.5758 -0.3083
  250MOL0     H34447   9.793   5.031   4.813 -0.9878 -0.0585  0.0072
  250MOL0     H34448   9.812   4.998   4.642  1.9105  1.1810 -0.0291
  250MOL0     H34449   9.785   5.280   4.895 -0.0993  0.0762 -0.4713
  250MOL0     H34450   9.885   5.595   4.801  0.4584  0.1560 -0.0855
  250MOL0     H34451  10.047   5.534   4.808  0.4058 -2.2013 -1.8609
  250MOL0     H34452   9.964   5.592   5.015 -1.7717  1.1273 -0.6131
  250MOL0     H34453   9.828   5.476   5.008  0.8675  2.0405  3.1474
  250MOL0     H34454   9.972   5.325   5.113 -0.1535 -0.6119 -1.4671
  250MOL0     H34455  10.023   5.304   4.952 -1.4740  0.5104 -1.3977
  250MOL0     H34456  10.154   5.533   5.124 -2.5711  1.1213 -1.6949
  250MOL0     H34457  10.222   5.370   5.136  2.4620  0.7040 -1.5030
  250MOL0     H34458  10.323   5.652   5.139 -0.7682 -2.2037  0.8010
  250MOL0     H34459  10.583   5.858   5.170 -1.2806  2.3974  2.3935
  250MOL0     H34460  10.623   5.714   5.274 -1.0144 -2.6040 -1.4536
  250MOL0     H34461  10.457   5.775   5.266  0.1396  1.6670  0.1476
  250MOL0     H34462  10.995   5.841   4.846  0.4742 -0.1538 -0.6704
  250MOL0     H34463  11.234   5.900   4.920 -0.3498  0.1859 -1.6273
  250MOL0     H34464  11.388   5.641   5.198  1.0117 -2.1320 -0.1557
  250MOL0     H34465  11.465   5.537   5.079 -1.3134  0.7235 -0.2240
  250MOL0     H34466  11.579   5.788   5.192 -2.0565 -1.0079 -0.5585
  250MOL0     H34467  11.615   5.643   5.271  3.3911  6.3057  2.0155
  250MOL0     H34468  11.690   5.695   4.964  0.3206 -1.1973 -0.7295
  250MOL0     H34469  11.734   5.566   5.079 -4.0611 -1.1334 -1.5007
  250MOL0     H34470  11.827   5.764   5.224  3.0799 -0.9582  0.5812
  250MOL0     H34471  11.836   5.853   5.067  1.3256 -0.5001 -1.4816
  250MOL0     H34472  11.957   5.606   5.153  1.1843  0.0927  0.1750
  250MOL0     H34473  11.967   5.649   4.977  0.0293 -0.4170 -0.1975
  250MOL0     H34474  12.161   5.713   5.107  0.1378  0.3293  0.9889
  250MOL0     H34475  12.060   5.820   5.206 -1.8366  1.3245 -0.3436
  250MOL0     H34476  12.040   5.966   5.029  0.1230 -0.4839  1.5179
  250MOL0     H34477  12.070   5.847   4.893  0.0750 -0.2044 -0.2249
  250MOL0     H34478  12.266   5.941   5.110 -2.2755 -1.5831  0.4469
  250MOL0     H34479  12.247   6.035   4.973 -2.6451  1.5826  1.2953
  250MOL0     H34480  11.277   5.482   5.029  0.8926  0.7485  2.0263
  250MOL0     H34481  11.037   5.448   4.992 -1.1869 -0.0907  0.6327
  250MOL0     H34482  10.677   5.499   4.825  1.0963  1.3078 -0.6927
  250MOL0     H34483  10.454   5.399   4.815 -0.0211 -0.9443  0.7628
  250MOL0     H34484   8.765   5.020   4.408 -0.0242 -0.4732  1.5755
  250MOL0     H34485   8.603   4.858   4.326  1.1132  1.4240 -2.3632
  250MOL0     H34486   8.421   4.587   4.227 -1.4433  1.2373 -0.5036
  250MOL0     H34487   8.221   4.469   4.165 -0.0520 -0.7456 -0.8781
  250MOL0     H34488   8.052   4.292   4.099  0.6776 -2.7426 -1.7428
  250MOL0     H34489   8.034   4.449   4.021 -3.6869 -0.7729  0.2769
  250MOL0     H34490   7.988   4.187   3.873  2.3170 -0.2754 -0.1747
  250MOL0     H34491   7.962   4.344   3.817  0.3102  0.8690  1.4075
  250MOL0     H34492   7.822   4.349   4.067  2.7055  1.4223 -1.4284
  250MOL0     H34493   7.746   4.361   3.915 -0.4513  0.2972  0.4212
  250MOL0     H34494   7.808   4.090   4.044 -2.0279 -2.5700 -1.9635
  250MOL0     H34495   7.740   4.122   3.887 -0.0483  1.7417 -1.6160
  250MOL0     H34496   7.393   4.200   4.085 -0.5291  1.2645  0.9098
  250MOL0     H34497   8.418   4.308   3.825 -2.1924 -2.2302  1.7758
  250MOL0     H34498   8.631   4.342   3.777  0.5809 -0.9692  0.1543
  250MOL0     H34499   8.688   4.512   3.824  1.1819  0.7596  3.3712
  250MOL0     H34500   8.734   4.373   3.919  0.7931  1.3390  0.1376
  251MOL0     O34501   3.616   8.493   2.325  0.0530 -0.8734 -0.5060
  251MOL0     C34502   3.555   8.389   2.302  0.2287  0.5477  0.0376
  251MOL0     O34503   3.610   8.266   2.299  0.5625 -0.0275  0.7079
  251MOL0     C34504   3.741   8.271   2.315 -0.3003  0.0248 -0.8878
  251MOL0     C34505   3.822   8.280   2.203 -0.2923  0.1916 -0.9329
  251MOL0     C34506   3.963   8.277   2.217 -0.5799  0.1610  0.7421
  251MOL0     C34507   4.026   8.265   2.350  0.0271 -0.1267  0.2376
  251MOL0     O34508   4.158   8.270   2.374 -0.3629  0.8870  1.0915
  251MOL0     C34509   4.201   8.157   2.456  0.1426 -0.9246  0.6060
  251MOL0     C34510   4.335   8.099   2.414 -0.3702  0.1683 -0.6900
  251MOL0     C34511   4.455   8.166   2.496  0.3835 -0.5393  0.5304
  251MOL0     C34512   4.481   8.077   2.614 -0.2155 -1.1295 -0.3959
  251MOL0     C34513   4.581   8.148   2.706 -0.1355 -0.7102 -0.3220
  251MOL0     C34514   4.726   8.153   2.662  0.5452  0.0365  0.3766
  251MOL0     C34515   4.821   8.231   2.755  0.4240  0.0597  0.1158
  251MOL0     C34516   4.872   8.138   2.862 -0.8485 -0.1203  0.5076
  251MOL0     N34517   4.952   8.028   2.808  0.4303 -0.8359  0.3972
  251MOL0     C34518   5.072   8.055   2.740  0.4341 -0.3645  0.8224
  251MOL0     C34519   5.105   7.942   2.689 -0.6635 -0.2820  0.1336
  251MOL0     C34520   5.226   7.931   2.595  0.7239 -0.1419 -1.0844
  251MOL0     C34521   5.164   7.931   2.458  0.2025 -1.2832  0.3099
  251MOL0     C34522   5.275   7.932   2.345  0.2243 -0.4238 -0.7677
  251MOL0     C34523   5.349   8.067   2.353 -0.5330  0.2582 -0.7646
  251MOL0     O34524   5.411   8.094   2.225 -0.2911  0.6558  0.2281
  251MOL0     C34525   5.547   8.070   2.203 -0.1124  0.7703 -0.3507
  251MOL0     C34526   5.653   8.038   2.294  1.0955 -0.1700  1.4353
  251MOL0     C34527   5.788   8.032   2.262  0.7022 -0.8281  0.3555
  251MOL0     C34528   5.892   8.006   2.371  0.3405 -0.0563 -0.6775
  251MOL0     C34529   5.822   8.039   2.129 -0.7547  0.5237  0.1797
  251MOL0     C34530   5.960   8.014   2.079 -0.1338  0.8735 -0.2584
  251MOL0     O34531   6.024   7.908   2.134 -0.1772  0.4683  0.4715
  251MOL0     C34532   6.161   7.892   2.127 -0.1238  0.4685  0.2433
  251MOL0     C34533   6.258   7.986   2.093 -0.6741 -0.4537 -0.0788
  251MOL0     C34534   6.393   7.965   2.114  0.5651  0.1987  0.0101
  251MOL0     C34535   6.431   7.841   2.171  0.5523  0.2362  0.0590
  251MOL0     O34536   6.561   7.816   2.181  0.0231 -0.3895  0.0695
  251MOL0     C34537   6.602   7.683   2.141  0.1446  0.2954 -0.7913
  251MOL0     C34538   6.750   7.695   2.096 -0.2451  0.4472  0.2721
  251MOL0     C34539   6.839   7.779   2.192  0.7562  0.8794 -0.9936
  251MOL0     C34540   6.990   7.772   2.147  0.1665 -0.1129  0.7123
  251MOL0     C34541   7.076   7.890   2.182 -0.2905 -0.6669  0.1237
  251MOL0     C34542   7.225   7.868   2.153  0.3519 -1.1891 -0.7138
  251MOL0     C34543   7.314   7.991   2.181  0.8954  0.0369 -0.4131
  251MOL0     C34544   7.282   8.115   2.089  0.0932 -0.3535 -0.5157
  251MOL0    Cl34545   7.423   8.233   2.107 -0.8810 -0.0182  0.2955
  251MOL0     C34546   6.336   7.744   2.200 -1.0424 -0.1452 -0.1385
  251MOL0     C34547   6.202   7.770   2.182 -0.6426  0.2181 -0.5515
  251MOL0     O34548   5.996   8.076   1.988 -0.4880  0.1485 -0.1984
  251MOL0     C34549   5.724   8.067   2.039  0.0965 -0.2640  0.5871
  251MOL0     C34550   5.592   8.075   2.071  0.3949  0.3315 -0.2075
  251MOL0     N34551   5.005   7.849   2.724 -0.5721 -0.2648 -0.4895
  251MOL0     N34552   4.919   7.897   2.808 -0.0772 -0.1776 -0.5544
  251MOL0     C34553   3.937   8.267   2.459  0.6347  0.3955  0.3984
  251MOL0     C34554   3.794   8.268   2.447 -0.2970 -0.0200 -1.1960
  251MOL0     C34555   3.409   8.400   2.268 -0.0690  0.5103 -0.5511
  251MOL0     C34556   3.350   8.292   2.196  0.0722 -0.6583 -0.0520
  251MOL0     C34557   3.225   8.287   2.155  0.0457  0.1894 -0.4235
  251MOL0     C34558   3.134   8.391   2.179  1.0214 -0.5955  0.5008
  251MOL0     O34559   3.005   8.364   2.128  0.0894  0.4532 -0.3113
  251MOL0     C34560   2.898   8.419   2.210 -0.0537 -0.2955 -0.4405
  251MOL0     C34561   2.862   8.563   2.158 -0.6553 -0.5040 -0.3451
  251MOL0     C34562   2.761   8.555   2.037  0.5514  0.0144 -0.1635
  251MOL0     C34563   2.724   8.698   1.990  0.0567 -0.4113  0.5884
  251MOL0     C34564   2.627   8.766   2.085 -0.5482 -1.0130 -0.1869
  251MOL0     C34565   2.539   8.823   2.145  0.0081  0.4966 -0.0762
  251MOL0     C34566   3.182   8.499   2.260 -0.0251  0.6748 -0.2094
  251MOL0     C34567   3.315   8.506   2.302 -0.5460 -0.0327  0.4543
  251MOL0     C34568   3.351   8.617   2.396 -0.0800  0.2234 -0.1209
  251MOL0     H34569   3.788   8.287   2.100  0.6179  2.6274 -1.1313
  251MOL0     H34570   4.030   8.274   2.132 -0.6520  1.4144  0.6190
  251MOL0     H34571   4.136   8.070   2.447 -0.6040 -0.1831 -2.1379
  251MOL0     H34572   4.212   8.196   2.558  0.0146 -1.1199  0.6938
  251MOL0     H34573   4.324   7.995   2.445 -2.5042  0.6104  0.2223
  251MOL0     H34574   4.364   8.112   2.310  1.1806 -0.6175 -0.3870
  251MOL0     H34575   4.548   8.171   2.438  0.4801 -0.3841  0.6990
  251MOL0     H34576   4.430   8.268   2.526  2.1370 -0.6307  2.5590
  251MOL0     H34577   4.390   8.060   2.671 -0.6496  1.5090 -0.1888
  251MOL0     H34578   4.528   7.983   2.581  1.9409 -0.7916  1.4783
  251MOL0     H34579   4.579   8.113   2.810 -0.4879  3.2625  1.1905
  251MOL0     H34580   4.549   8.252   2.712  0.4718 -0.4633 -1.2413
  251MOL0     H34581   4.775   8.059   2.634  1.4991 -0.2266  2.7054
  251MOL0     H34582   4.726   8.216   2.572  1.4456 -0.5833 -0.0768
  251MOL0     H34583   4.755   8.306   2.800 -3.5821 -1.1117 -3.2201
  251MOL0     H34584   4.904   8.280   2.704 -1.5083  0.2433 -3.0855
  251MOL0     H34585   4.931   8.200   2.930  1.7199 -2.3825  0.5132
  251MOL0     H34586   4.787   8.106   2.923 -1.5159  2.3656  1.0010
  251MOL0     H34587   5.116   8.155   2.737  1.9949 -0.9610  2.2509
  251MOL0     H34588   5.267   7.830   2.609  0.2651 -0.5206 -2.3663
  251MOL0     H34589   5.299   8.010   2.616 -1.5531  1.4739  1.3243
  251MOL0     H34590   5.104   7.845   2.426 -1.7960  0.6306 -1.4044
  251MOL0     H34591   5.092   8.012   2.446  0.4876 -1.3406 -2.4503
  251MOL0     H34592   5.349   7.851   2.351  0.4547 -0.4331 -3.0598
  251MOL0     H34593   5.223   7.919   2.250 -0.1900 -1.2023 -0.4519
  251MOL0     H34594   5.289   8.152   2.386  0.8513  0.9587  0.0520
  251MOL0     H34595   5.432   8.072   2.425  0.4559 -1.7385 -1.6839
  251MOL0     H34596   5.627   8.030   2.399 -3.3019 -1.5313  0.4198
  251MOL0     H34597   5.923   7.901   2.370 -0.7347 -0.3941 -0.1131
  251MOL0     H34598   5.856   8.035   2.470 -1.8860  0.3393 -1.5424
  251MOL0     H34599   5.988   8.056   2.358  0.1813  0.8843  1.4260
  251MOL0     H34600   6.224   8.081   2.052 -0.9828  0.1864  1.5594
  251MOL0     H34601   6.456   8.039   2.067  0.7074 -1.0353 -1.8167
  251MOL0     H34602   6.594   7.628   2.235  2.9587  1.6935  0.3891
  251MOL0     H34603   6.540   7.641   2.062  2.2501  0.2607 -2.5264
  251MOL0     H34604   6.789   7.593   2.091  0.3561  0.7439 -2.0571
  251MOL0     H34605   6.753   7.734   1.994  3.5651 -0.8568 -0.2802
  251MOL0     H34606   6.839   7.735   2.292 -1.6033 -0.2793 -1.4298
  251MOL0     H34607   6.807   7.884   2.189  0.1253  0.6705 -1.8082
  251MOL0     H34608   6.983   7.764   2.038 -1.6215  1.3552  0.6774
  251MOL0     H34609   7.041   7.680   2.177  1.4794 -0.4508 -2.1905
  251MOL0     H34610   7.045   7.983   2.133  0.1617 -0.6438 -0.1230
  251MOL0     H34611   7.070   7.895   2.291 -3.3772 -2.0516  0.1195
  251MOL0     H34612   7.233   7.854   2.044 -1.7404  2.0893 -1.4106
  251MOL0     H34613   7.267   7.780   2.204  2.1808  1.0732  1.9913
  251MOL0     H34614   7.418   7.958   2.171  0.0151 -2.4025 -2.8174
  251MOL0     H34615   7.299   8.021   2.285 -0.5319  1.8926 -1.1095
  251MOL0     H34616   7.191   8.165   2.123  2.0122  1.7069  1.9836
  251MOL0     H34617   7.277   8.080   1.985  2.6320  3.5621 -2.1855
  251MOL0     H34618   6.360   7.651   2.251 -1.9401 -0.8539 -0.9646
  251MOL0     H34619   6.137   7.687   2.210 -0.0219  0.4949  2.0409
  251MOL0     H34620   5.735   8.075   1.931 -1.5132  0.4092  0.4412
  251MOL0     H34621   5.524   8.103   1.991 -1.8235 -0.1978  1.3779
  251MOL0     H34622   3.975   8.271   2.560 -3.6736  1.0508  2.2029
  251MOL0     H34623   3.724   8.267   2.529  2.7126 -3.6413  1.7246
  251MOL0     H34624   3.402   8.199   2.176  4.6047  1.0897  2.0546
  251MOL0     H34625   3.199   8.194   2.106 -1.3438 -0.0736  0.7221
  251MOL0     H34626   2.815   8.348   2.220 -1.0449  0.9475  0.6336
  251MOL0     H34627   2.934   8.426   2.313 -1.5310  0.2120  0.0634
  251MOL0     H34628   2.950   8.617   2.122 -0.3221 -1.8471 -1.6613
  251MOL0     H34629   2.803   8.610   2.237 -0.0854 -2.8571  1.5842
  251MOL0     H34630   2.805   8.505   1.950 -0.4949 -0.4114 -0.4708
  251MOL0     H34631   2.670   8.500   2.063  0.3182 -0.0251 -1.0285
  251MOL0     H34632   2.676   8.699   1.891  2.0222  1.8352 -0.4294
  251MOL0     H34633   2.817   8.755   1.983  1.1781 -1.7917  3.1402
  251MOL0     H34634   2.454   8.873   2.189 -0.2910  0.0317 -0.1201
  251MOL0     H34635   3.105   8.568   2.293  1.3843  1.6221  1.1797
  251MOL0     H34636   3.417   8.598   2.481  1.6108  3.0284 -0.7005
  251MOL0     H34637   3.400   8.698   2.342 -3.5517  2.8416  0.2477
  251MOL0     H34638   3.257   8.666   2.424  0.3273  0.8148  0.2281
  252MOL0     O34639   0.090   2.265   3.493 -0.0975  0.2689  0.4283
  252MOL0     C34640   0.156   2.217   3.587  0.1380  0.0508  0.3755
  252MOL0     O34641   0.288   2.232   3.612  0.1265 -0.0181 -0.3260
  252MOL0     C34642   0.384   2.261   3.516  0.6692 -0.2706  0.1409
  252MOL0     C34643   0.371   2.281   3.379 -0.4074  0.5412  0.3608
  252MOL0     C34644   0.478   2.308   3.295 -0.0179  0.0510 -0.2323
  252MOL0     C34645   0.607   2.311   3.348 -0.4789 -0.1782  0.8630
  252MOL0     O34646   0.702   2.355   3.257 -0.1320 -0.1655  0.1225
  252MOL0     C34647   0.805   2.439   3.298  0.7838 -0.0583  0.1816
  252MOL0     C34648   0.907   2.460   3.193  0.5835  0.5886 -0.0138
  252MOL0     C34649   1.015   2.351   3.177 -0.3228  0.7761 -0.1091
  252MOL0     C34650   1.117   2.383   3.067 -0.3415 -1.3247 -0.0172
  252MOL0     C34651   1.230   2.289   3.050  0.1727 -0.5384 -0.1380
  252MOL0     C34652   1.339   2.360   2.972 -0.6583 -0.1839  0.2354
  252MOL0     C34653   1.475   2.353   3.038 -0.6777 -0.1039  0.1022
  252MOL0     C34654   1.516   2.200   3.071 -0.1021 -0.5359  0.2972
  252MOL0     N34655   1.665   2.202   3.080  0.6379 -0.0710  0.6955
  252MOL0     C34656   1.748   2.261   3.173  0.5287 -0.0028 -0.1850
  252MOL0     C34657   1.872   2.255   3.119 -0.0771 -0.1235 -0.2943
  252MOL0     C34658   1.995   2.329   3.166 -0.1720 -0.5949 -1.0215
  252MOL0     C34659   2.056   2.418   3.059  0.6014  0.5270  0.3359
  252MOL0     C34660   1.949   2.528   3.007 -0.7453 -0.1016  0.1858
  252MOL0     C34661   2.015   2.638   2.925 -0.1977  0.3906  1.2820
  252MOL0     O34662   2.111   2.695   3.007 -0.2320 -0.2060  0.6014
  252MOL0     C34663   2.211   2.780   2.955 -0.4424 -0.3587  0.3325
  252MOL0     C34664   2.331   2.799   3.023  0.4197 -0.3255 -0.3740
  252MOL0     C34665   2.443   2.868   2.970 -0.3550 -0.3833 -0.4104
  252MOL0     C34666   2.567   2.860   3.059  0.0515 -0.7443  0.4801
  252MOL0     C34667   2.432   2.927   2.842 -0.1382 -1.0980 -0.1670
  252MOL0     C34668   2.531   3.005   2.775  0.4079  0.2727 -0.0027
  252MOL0     O34669   2.644   3.024   2.846  0.1806  0.5657 -0.4283
  252MOL0     C34670   2.761   3.065   2.788 -0.4145 -0.2336  0.2551
  252MOL0     C34671   2.779   3.183   2.716 -0.0811  0.0565  0.5755
  252MOL0     C34672   2.904   3.218   2.665  0.8353  0.4779  1.1518
  252MOL0     C34673   3.013   3.136   2.683 -0.4470  0.0442 -0.6937
  252MOL0     O34674   3.130   3.177   2.614 -0.2994  0.2951 -0.1500
  252MOL0     C34675   3.247   3.103   2.659 -0.5272 -0.0750 -0.1361
  252MOL0     C34676   3.377   3.160   2.585  0.5662  0.1909  0.2262
  252MOL0     C34677   3.378   3.136   2.434  0.3988  0.7599 -0.2647
  252MOL0     C34678   3.513   3.173   2.369 -0.4405  0.7221  0.4925
  252MOL0     C34679   3.484   3.154   2.217  0.1290 -0.4264 -0.3770
  252MOL0     C34680   3.601   3.180   2.106  0.2980  0.4515 -0.5216
  252MOL0     C34681   3.731   3.107   2.148  0.1035  0.1233 -0.7589
  252MOL0     C34682   3.854   3.128   2.063 -0.4742 -0.0569  0.5096
  252MOL0    Cl34683   3.905   3.294   2.036  0.0502 -0.6385 -0.4952
  252MOL0     C34684   2.998   3.022   2.762  0.4599  0.1105 -1.4151
  252MOL0     C34685   2.869   2.980   2.810  0.0941 -0.1843 -1.7988
  252MOL0     O34686   2.520   3.050   2.660 -0.6285 -0.4939 -0.1120
  252MOL0     C34687   2.307   2.923   2.777  0.7682 -0.6528  0.6911
  252MOL0     C34688   2.198   2.850   2.835 -0.4279  0.4305 -1.2142
  252MOL0     N34689   1.872   2.171   3.009  0.2364 -0.6661 -0.7742
  252MOL0     N34690   1.750   2.138   2.987  0.3223  0.3743 -0.1163
  252MOL0     C34691   0.632   2.277   3.477  0.1044  0.5070  0.0738
  252MOL0     C34692   0.514   2.251   3.559 -0.2848 -0.7694 -0.5070
  252MOL0     C34693   0.065   2.169   3.696 -0.0962 -0.0057  0.1420
  252MOL0     C34694  -0.072   2.192   3.695  0.4485 -0.5649 -0.5339
  252MOL0     C34695  -0.156   2.146   3.799  0.2950  0.4808 -0.5698
  252MOL0     C34696  -0.105   2.070   3.911  0.4159 -1.0370  0.6479
  252MOL0     O34697  -0.172   2.032   4.018  0.1750 -0.0598 -0.3568
  252MOL0     C34698  -0.302   1.968   4.002 -0.2720  0.0147 -0.0747
  252MOL0     C34699  -0.410   2.049   4.067 -0.5278 -0.2977 -0.5331
  252MOL0     C34700  -0.387   2.051   4.217 -0.3223  0.1020  0.1839
  252MOL0     C34701  -0.502   2.134   4.284 -0.5833 -0.1039 -0.5161
  252MOL0     C34702  -0.625   2.063   4.260 -0.4355  0.8368 -0.4286
  252MOL0     C34703  -0.735   2.026   4.243 -0.2224  0.5238 -0.0045
  252MOL0     C34704   0.036   2.059   3.916  0.0107 -0.0211  0.0798
  252MOL0     C34705   0.117   2.092   3.806  0.3049  0.1369 -0.4754
  252MOL0     C34706   0.256   2.031   3.803 -0.5105 -0.3621 -1.0848
  252MOL0     H34707   0.275   2.269   3.330 -0.3598 -0.8535  0.5585
  252MOL0     H34708   0.464   2.323   3.188 -4.4710  1.7211  0.3784
  252MOL0     H34709   0.853   2.407   3.391  4.3002 -0.1089 -1.4984
  252MOL0     H34710   0.757   2.535   3.318 -1.9709 -1.1364 -0.8050
  252MOL0     H34711   0.856   2.465   3.096  3.0961 -0.6922 -1.4997
  252MOL0     H34712   0.957   2.554   3.217  3.8850 -0.9008 -0.4474
  252MOL0     H34713   1.061   2.344   3.276 -0.1985 -0.4424 -0.2319
  252MOL0     H34714   0.968   2.254   3.155 -1.8483  1.4531  0.0721
  252MOL0     H34715   1.072   2.383   2.967 -1.3561  1.9646  0.3236
  252MOL0     H34716   1.146   2.485   3.096  1.1756 -1.2540 -1.6705
  252MOL0     H34717   1.191   2.202   2.997 -2.4956  0.8290 -0.5995
  252MOL0     H34718   1.265   2.257   3.148 -0.6904 -4.1793 -0.8767
  252MOL0     H34719   1.344   2.303   2.878  0.1748 -0.3674  0.3837
  252MOL0     H34720   1.316   2.464   2.950 -0.3231  0.2603  1.8816
  252MOL0     H34721   1.471   2.426   3.120  0.7677  0.6472 -0.4493
  252MOL0     H34722   1.556   2.388   2.973  0.4660  1.6214  2.3066
  252MOL0     H34723   1.484   2.164   3.170 -0.4287 -0.9084  0.0574
  252MOL0     H34724   1.469   2.132   3.000 -1.6349  1.6152 -0.8610
  252MOL0     H34725   1.718   2.315   3.262 -1.6107  1.3085 -1.6375
  252MOL0     H34726   2.069   2.260   3.206 -0.2794  0.6082  1.4516
  252MOL0     H34727   1.973   2.398   3.248  1.9964 -1.5480  0.4383
  252MOL0     H34728   2.152   2.458   3.090  1.6958  1.9517 -4.1196
  252MOL0     H34729   2.079   2.371   2.963 -0.8250  2.7006 -1.1754
  252MOL0     H34730   1.863   2.486   2.955 -1.9221  2.5798 -0.2120
  252MOL0     H34731   1.923   2.581   3.099  1.3112  1.1933  0.0979
  252MOL0     H34732   2.057   2.585   2.839 -0.1930  1.5526  0.5500
  252MOL0     H34733   1.940   2.712   2.893  0.0807  1.2219  2.4914
  252MOL0     H34734   2.351   2.759   3.122  0.4046  1.2858  0.2997
  252MOL0     H34735   2.654   2.818   3.007 -0.0882 -1.5778  0.9131
  252MOL0     H34736   2.549   2.791   3.142  1.4727 -0.5995  0.9394
  252MOL0     H34737   2.595   2.958   3.101 -0.5925 -0.0798 -0.5932
  252MOL0     H34738   2.701   3.256   2.698 -1.0282 -1.3851 -1.4162
  252MOL0     H34739   2.911   3.299   2.594 -0.7386  0.7018  1.2059
  252MOL0     H34740   3.250   3.114   2.767 -1.8507  0.1694 -0.1030
  252MOL0     H34741   3.235   2.997   2.632 -1.2401  0.0962 -0.5413
  252MOL0     H34742   3.372   3.267   2.610  0.2364  0.0925  0.5795
  252MOL0     H34743   3.465   3.112   2.629 -0.4366 -1.6457  0.2827
  252MOL0     H34744   3.301   3.194   2.383  0.0409 -1.8057 -2.8893
  252MOL0     H34745   3.373   3.029   2.418 -1.0212  0.5110  1.4900
  252MOL0     H34746   3.597   3.112   2.404 -1.4181  0.0322  1.7147
  252MOL0     H34747   3.534   3.278   2.392  0.1806  0.5842  0.5765
  252MOL0     H34748   3.443   3.053   2.211 -0.8924  0.0095 -1.1069
  252MOL0     H34749   3.408   3.225   2.183 -0.4236 -0.5129  0.6492
  252MOL0     H34750   3.634   3.284   2.105  0.9456  0.2686  0.1778
  252MOL0     H34751   3.566   3.148   2.008  0.1491  2.6871 -1.2472
  252MOL0     H34752   3.712   2.999   2.154 -1.0668  0.3287 -0.3351
  252MOL0     H34753   3.750   3.141   2.250 -2.3928  0.4793 -0.3446
  252MOL0     H34754   3.844   3.082   1.965 -1.4987 -2.4843  1.6786
  252MOL0     H34755   3.933   3.069   2.110  2.4824  1.4647 -2.1705
  252MOL0     H34756   3.079   2.954   2.785 -2.0139 -2.1348  1.3475
  252MOL0     H34757   2.854   2.889   2.867 -0.0887 -0.8044 -2.8104
  252MOL0     H34758   2.288   2.979   2.687  0.9467  0.5780  1.3943
  252MOL0     H34759   2.104   2.846   2.780 -1.4513  0.5421  0.4793
  252MOL0     H34760   0.732   2.265   3.517 -0.1401 -0.6652  0.3660
  252MOL0     H34761   0.540   2.237   3.664 -0.2602 -0.4818 -0.4737
  252MOL0     H34762  -0.110   2.263   3.622  1.7285  1.2163  0.4407
  252MOL0     H34763  -0.261   2.172   3.793  0.4003  1.0195 -0.1434
  252MOL0     H34764  -0.335   1.939   3.902 -0.9267 -0.5195  0.2883
  252MOL0     H34765  -0.300   1.879   4.066 -0.9030 -0.0931 -0.1947
  252MOL0     H34766  -0.509   2.014   4.040 -0.4672  0.6403 -2.0996
  252MOL0     H34767  -0.402   2.150   4.025 -1.0188 -0.0252  0.0246
  252MOL0     H34768  -0.390   1.951   4.261  1.3580  0.1868  0.5665
  252MOL0     H34769  -0.295   2.097   4.257  0.4612 -0.5182 -0.8574
  252MOL0     H34770  -0.504   2.230   4.231  2.7224 -1.1927 -2.9890
  252MOL0     H34771  -0.481   2.148   4.390 -0.1392 -0.2983 -0.5749
  252MOL0     H34772  -0.834   1.989   4.224  1.0426 -2.4798 -1.3560
  252MOL0     H34773   0.076   2.001   3.999  1.7753 -2.8151 -2.4797
  252MOL0     H34774   0.317   2.110   3.849 -2.1441  0.3905 -0.1080
  252MOL0     H34775   0.268   1.935   3.854  1.5523 -0.0211 -0.8688
  252MOL0     H34776   0.297   2.016   3.703 -1.1600 -2.5471 -1.0720
  253MOL0     O34777   5.537   4.105   6.968  0.2860  0.0526  0.9545
  253MOL0     C34778   5.536   3.993   7.027  0.4012 -0.4325 -0.3865
  253MOL0     O34779   5.634   3.905   7.014  0.8779  0.1343  0.2861
  253MOL0     C34780   5.748   3.940   6.944  0.1979 -0.0109 -0.1284
  253MOL0     C34781   5.820   3.828   6.899  0.7879 -0.1604 -0.4699
  253MOL0     C34782   5.944   3.838   6.847 -0.0097 -0.3165  0.0617
  253MOL0     C34783   6.003   3.962   6.825 -0.5550  0.3795  0.3367
  253MOL0     O34784   6.125   3.962   6.759 -0.3349 -0.0866 -0.2839
  253MOL0     C34785   6.221   4.063   6.812 -0.3674  0.9326  0.8900
  253MOL0     C34786   6.272   4.021   6.947 -0.3050  0.6360  0.3720
  253MOL0     C34787   6.393   4.104   6.981  0.7883  0.5060  1.1738
  253MOL0     C34788   6.427   4.086   7.123 -0.8946  0.8468 -0.1790
  253MOL0     C34789   6.532   4.191   7.161 -1.0062 -0.0668  0.3796
  253MOL0     C34790   6.608   4.136   7.290  0.4915  0.0270 -0.5357
  253MOL0     C34791   6.523   4.147   7.417  0.2537 -0.4287  0.0093
  253MOL0     C34792   6.608   4.093   7.529 -0.5382 -1.2288  0.3576
  253MOL0     N34793   6.619   3.950   7.537  0.8708 -0.2566  0.1372
  253MOL0     C34794   6.525   3.868   7.596  0.4620 -0.1675  0.6276
  253MOL0     C34795   6.580   3.747   7.597 -0.4340 -0.5203  0.3287
  253MOL0     C34796   6.525   3.621   7.655  0.3168 -0.3792 -0.2888
  253MOL0     C34797   6.372   3.609   7.636 -0.3630  0.2969 -0.3773
  253MOL0     C34798   6.337   3.484   7.717  0.2475  0.6507  0.0429
  253MOL0     C34799   6.189   3.471   7.731  0.0893 -0.7497 -0.4343
  253MOL0     O34800   6.136   3.549   7.838  0.2258 -0.4172 -0.5904
  253MOL0     C34801   6.000   3.559   7.860  0.6563 -0.3337 -0.0916
  253MOL0     C34802   5.907   3.597   7.763 -0.4608 -0.4133 -0.1529
  253MOL0     C34803   5.774   3.598   7.801  0.8034 -0.3448  0.1275
  253MOL0     C34804   5.669   3.632   7.687 -0.0325 -0.5126 -0.1020
  253MOL0     C34805   5.717   3.557   7.929 -0.3884  0.1035 -0.5605
  253MOL0     C34806   5.583   3.563   7.980  0.3106  1.0620 -0.3853
  253MOL0     O34807   5.571   3.577   8.116  0.5474 -0.3927 -0.0615
  253MOL0     C34808   5.454   3.545   8.172  1.0563  0.7424  0.0997
  253MOL0     C34809   5.451   3.423   8.247 -0.3964  0.4578  0.5810
  253MOL0     C34810   5.328   3.362   8.289 -0.1077  0.4757  0.7222
  253MOL0     C34811   5.207   3.429   8.264 -0.2528  0.5380 -0.0414
  253MOL0     O34812   5.092   3.379   8.309  0.0139 -0.4780  0.2387
  253MOL0     C34813   5.091   3.344   8.452 -0.9703  0.1362  0.5709
  253MOL0     C34814   4.952   3.378   8.503 -0.4139 -0.6082  0.8809
  253MOL0     C34815   4.937   3.325   8.642  0.3597 -0.1338  0.8526
  253MOL0     C34816   4.787   3.329   8.691  0.1895 -0.3839 -0.1545
  253MOL0     C34817   4.772   3.242   8.817  0.4887 -0.4167 -0.1678
  253MOL0     C34818   4.651   3.291   8.895 -0.1416 -0.8502  0.1073
  253MOL0     C34819   4.516   3.305   8.818 -0.3057 -0.5679  0.3828
  253MOL0     C34820   4.392   3.299   8.909 -0.3980  1.0225 -0.3209
  253MOL0    Cl34821   4.394   3.122   8.971  0.3339 -0.4977 -0.5515
  253MOL0     C34822   5.212   3.544   8.194  0.4138 -0.9773 -0.3508
  253MOL0     C34823   5.328   3.597   8.141 -0.6319 -0.8306  0.2586
  253MOL0     O34824   5.491   3.531   7.908  0.0257  0.3922  0.1184
  253MOL0     C34825   5.817   3.513   8.018  0.1821  0.5562  0.5132
  253MOL0     C34826   5.955   3.516   7.984 -0.4474 -0.5837  0.0482
  253MOL0     N34827   6.712   3.758   7.562 -0.1651 -0.7838 -0.3858
  253MOL0     N34828   6.736   3.883   7.528  0.5239  0.1598  0.3152
  253MOL0     C34829   5.933   4.080   6.871  0.0849 -0.5486  0.3344
  253MOL0     C34830   5.804   4.072   6.925 -0.1928  0.8443 -0.4175
  253MOL0     C34831   5.407   3.951   7.104  0.4667 -0.1314 -0.5368
  253MOL0     C34832   5.403   3.823   7.169 -0.0376 -0.5004  0.8451
  253MOL0     C34833   5.293   3.785   7.242  1.2718 -0.1627  0.7178
  253MOL0     C34834   5.189   3.868   7.270  0.2386 -0.6679  0.1987
  253MOL0     O34835   5.093   3.818   7.357 -0.1008  0.0285 -0.2908
  253MOL0     C34836   4.965   3.873   7.343  0.4145 -0.6751 -0.0579
  253MOL0     C34837   4.868   3.805   7.448  0.0699 -0.0062  0.3461
  253MOL0     C34838   4.722   3.821   7.407  0.3147  0.1578  0.9504
  253MOL0     C34839   4.660   3.959   7.433 -0.3995  0.3990 -0.1884
  253MOL0     C34840   4.510   3.948   7.427  0.0287  0.0069 -0.1803
  253MOL0     C34841   4.388   3.930   7.436 -0.0987  0.1089 -0.6788
  253MOL0     C34842   5.190   3.991   7.209 -0.6850 -0.2217  0.0611
  253MOL0     C34843   5.290   4.038   7.127 -0.6064 -0.7923  0.4360
  253MOL0     C34844   5.287   4.190   7.082  0.1370 -0.0749  0.2155
  253MOL0     H34845   5.768   3.733   6.906  1.6605 -0.5158  3.1631
  253MOL0     H34846   5.993   3.745   6.820 -0.3578 -0.8575  1.2205
  253MOL0     H34847   6.173   4.161   6.818  1.8794  2.2468 -0.9158
  253MOL0     H34848   6.303   4.065   6.740 -0.1433  0.0709  1.1063
  253MOL0     H34849   6.197   4.046   7.022 -0.9781 -2.3537  0.8053
  253MOL0     H34850   6.295   3.914   6.943 -0.6641  0.5419  0.7795
  253MOL0     H34851   6.491   4.082   6.937  2.1621  0.7971  3.8679
  253MOL0     H34852   6.379   4.209   6.955 -0.7250  0.5798  2.2087
  253MOL0     H34853   6.343   4.100   7.191  0.0866  1.2458  0.9929
  253MOL0     H34854   6.463   3.985   7.144 -2.1384  0.7304  1.6348
  253MOL0     H34855   6.490   4.291   7.176 -1.4105 -0.1065 -0.4341
  253MOL0     H34856   6.611   4.201   7.087  0.0449 -0.0995  1.4703
  253MOL0     H34857   6.635   4.032   7.270  2.3586  0.5899 -1.1647
  253MOL0     H34858   6.709   4.178   7.304  1.0709 -1.6995  0.8564
  253MOL0     H34859   6.436   4.080   7.420 -1.0145  1.1686  3.3985
  253MOL0     H34860   6.485   4.249   7.422 -0.6672 -0.8262  2.5220
  253MOL0     H34861   6.711   4.129   7.518 -1.1780  0.1206 -1.9326
  253MOL0     H34862   6.570   4.123   7.627 -0.8298  1.9707 -0.6364
  253MOL0     H34863   6.431   3.896   7.642  1.9855  3.0856  2.1138
  253MOL0     H34864   6.549   3.618   7.762  0.9420  1.7778 -0.3275
  253MOL0     H34865   6.589   3.540   7.617  1.2679 -0.9626  2.3535
  253MOL0     H34866   6.327   3.701   7.675  2.0581  1.6933 -0.7113
  253MOL0     H34867   6.353   3.597   7.529 -0.0323  0.5349 -0.4646
  253MOL0     H34868   6.373   3.395   7.665  2.4367  0.3191  1.9670
  253MOL0     H34869   6.379   3.481   7.818  1.6436 -1.5550 -0.5385
  253MOL0     H34870   6.142   3.494   7.635  1.2196  0.9310 -0.6208
  253MOL0     H34871   6.160   3.370   7.762  0.8226 -1.3152 -1.5109
  253MOL0     H34872   5.951   3.625   7.668  1.0334 -2.3702 -0.0963
  253MOL0     H34873   5.623   3.729   7.707 -0.0548 -0.8723  1.8760
  253MOL0     H34874   5.593   3.553   7.689  0.9470 -1.4949  1.5836
  253MOL0     H34875   5.708   3.638   7.585  0.2053  3.9117  0.0817
  253MOL0     H34876   5.544   3.372   8.268  0.6446  2.4957  1.0955
  253MOL0     H34877   5.323   3.265   8.336 -4.6123 -0.7272 -1.6916
  253MOL0     H34878   5.117   3.238   8.460  0.2112  0.3868  0.2439
  253MOL0     H34879   5.165   3.412   8.494  0.9632  0.5435 -3.0523
  253MOL0     H34880   4.947   3.487   8.495 -0.5248 -0.4121  2.9499
  253MOL0     H34881   4.877   3.335   8.436  0.7069  0.6488 -1.2990
  253MOL0     H34882   5.001   3.378   8.713 -0.3604  2.7073 -0.4910
  253MOL0     H34883   4.961   3.219   8.637  0.0967 -0.3207  2.6183
  253MOL0     H34884   4.720   3.289   8.614  2.4319 -1.5542 -1.6174
  253MOL0     H34885   4.767   3.436   8.703  1.6162  0.0034 -0.9995
  253MOL0     H34886   4.769   3.133   8.803 -2.5024 -0.1353 -2.7135
  253MOL0     H34887   4.857   3.263   8.882  1.7486 -2.7696 -0.9216
  253MOL0     H34888   4.668   3.385   8.948 -1.3987 -1.2146  1.1777
  253MOL0     H34889   4.641   3.216   8.973 -0.7142  0.4082  1.3009
  253MOL0     H34890   4.505   3.238   8.732 -1.5173  2.8052 -2.3371
  253MOL0     H34891   4.529   3.396   8.759 -0.2492 -0.4612  0.5572
  253MOL0     H34892   4.294   3.315   8.863  1.1168  2.1667 -3.4853
  253MOL0     H34893   4.403   3.369   8.992 -1.8971  2.4806 -1.2789
  253MOL0     H34894   5.114   3.583   8.166 -0.9047 -3.4896  0.3948
  253MOL0     H34895   5.320   3.695   8.095 -0.3612 -0.6429  0.6119
  253MOL0     H34896   5.796   3.482   8.120  2.0077  1.9134  1.3652
  253MOL0     H34897   6.031   3.513   8.062  0.1059  5.1476  0.1483
  253MOL0     H34898   5.966   4.182   6.852 -0.6716 -0.6332 -1.7233
  253MOL0     H34899   5.761   4.165   6.961 -0.4078  1.0764 -1.2581
  253MOL0     H34900   5.484   3.754   7.149  1.9973  2.4100 -1.9057
  253MOL0     H34901   5.278   3.689   7.289  0.3904 -1.3103 -1.7680
  253MOL0     H34902   4.959   3.981   7.358 -2.5940 -0.6104 -0.9972
  253MOL0     H34903   4.940   3.859   7.238  1.7173 -0.2697 -0.4376
  253MOL0     H34904   4.891   3.828   7.552  1.5456 -1.5174  0.4144
  253MOL0     H34905   4.889   3.697   7.448  0.8156  0.1095 -1.2449
  253MOL0     H34906   4.717   3.782   7.305  1.9400  0.4495  0.7357
  253MOL0     H34907   4.669   3.749   7.471 -2.3750  1.5203  0.4007
  253MOL0     H34908   4.687   4.035   7.359 -0.9131  0.4125 -0.3692
  253MOL0     H34909   4.692   4.000   7.529 -1.2567 -1.3785  0.9089
  253MOL0     H34910   4.284   3.906   7.431 -0.8457  2.9199 -0.2991
  253MOL0     H34911   5.108   4.059   7.228 -1.9696 -0.5491 -3.5200
  253MOL0     H34912   5.183   4.225   7.086  0.3267  0.4381  0.8515
  253MOL0     H34913   5.339   4.253   7.154 -2.7863  1.0244  1.5642
  253MOL0     H34914   5.319   4.212   6.980  0.5597  1.1416  0.5981
  254MOL0     O34915   7.886   6.952  10.459  0.0912  0.5254  0.4702
  254MOL0     C34916   7.776   6.995  10.498 -0.4225 -0.0429 -0.2904
  254MOL0     O34917   7.718   6.955  10.618 -0.8107 -0.4260  0.2986
  254MOL0     C34918   7.783   6.883  10.708 -0.3791 -0.7536  0.1436
  254MOL0     C34919   7.816   6.750  10.679 -0.2737  0.1561  0.3921
  254MOL0     C34920   7.867   6.671  10.772  0.4338  0.2739  0.5234
  254MOL0     C34921   7.907   6.720  10.895 -0.7221 -0.0712 -0.2991
  254MOL0     O34922   7.955   6.651  10.999  0.5442  0.3301 -0.3331
  254MOL0     C34923   8.035   6.532  10.968  0.4821  0.4436  0.0406
  254MOL0     C34924   8.168   6.576  10.911 -0.1522 -0.7831 -0.5791
  254MOL0     C34925   8.259   6.458  10.879  0.4638 -0.2509 -1.1182
  254MOL0     C34926   8.399   6.489  10.839 -0.0332 -0.7462 -1.0779
  254MOL0     C34927   8.489   6.365  10.833 -0.2801 -0.0855  0.8824
  254MOL0     C34928   8.638   6.407  10.811 -0.0071 -0.0396 -0.1767
  254MOL0     C34929   8.716   6.298  10.760 -0.3013  0.2503 -0.4666
  254MOL0     C34930   8.861   6.333  10.767  0.0240  0.0516  0.6665
  254MOL0     N34931   8.908   6.433  10.667  0.4563 -0.6571 -0.4958
  254MOL0     C34932   8.911   6.568  10.680 -0.1140  0.6890 -0.2479
  254MOL0     C34933   8.965   6.616  10.564 -1.0149  0.3089  0.2190
  254MOL0     C34934   9.008   6.763  10.527 -1.0231  0.6662  0.6307
  254MOL0     C34935   9.158   6.797  10.560  0.0642  0.0072 -0.1392
  254MOL0     C34936   9.167   6.817  10.712  0.5408 -0.3209  0.5435
  254MOL0     C34937   9.313   6.847  10.758  0.8840  0.5380  0.3887
  254MOL0     O34938   9.406   6.774  10.683 -0.0455  0.2485  0.2840
  254MOL0     C34939   9.533   6.780  10.726 -1.1081 -0.2850  0.3821
  254MOL0     C34940   9.618   6.665  10.729  0.1155 -0.0904  0.0660
  254MOL0     C34941   9.743   6.662  10.786 -0.3148  0.1650 -0.3683
  254MOL0     C34942   9.830   6.543  10.760  0.4155  0.5367  0.1261
  254MOL0     C34943   9.795   6.778  10.844  0.3141 -0.1471 -0.3361
  254MOL0     C34944   9.929   6.785  10.907 -0.1514 -0.4395 -0.2782
  254MOL0     O34945   9.979   6.918  10.927  0.6900  0.0120 -0.4410
  254MOL0     C34946  10.085   6.943  11.017 -0.4331 -0.3472  0.1484
  254MOL0     C34947  10.170   7.051  10.985 -0.7036 -0.0665 -0.7549
  254MOL0     C34948  10.267   7.089  11.077 -0.5441 -0.8847 -0.2733
  254MOL0     C34949  10.262   7.041  11.212  0.1655  0.7190 -1.0121
  254MOL0     O34950  10.338   7.081  11.323  0.9994 -0.3150  0.8360
  254MOL0     C34951  10.380   7.225  11.325 -0.4495  0.4124 -0.1407
  254MOL0     C34952  10.529   7.253  11.284  0.3060  0.9920 -0.5810
  254MOL0     C34953  10.618   7.191  11.393  0.5773  0.0482 -0.8974
  254MOL0     C34954  10.759   7.244  11.358  0.8250  0.4842  0.0763
  254MOL0     C34955  10.783   7.387  11.425 -0.2230 -0.1975  0.1047
  254MOL0     C34956  10.922   7.446  11.387  0.5213  0.5000  0.1212
  254MOL0     C34957  11.035   7.343  11.422  0.8993 -0.6141 -0.4298
  254MOL0     C34958  11.173   7.412  11.423  0.6043  0.0782 -0.9280
  254MOL0    Cl34959  11.203   7.478  11.262 -0.6534  0.0480  0.1616
  254MOL0     C34960  10.187   6.924  11.237  1.1674 -0.6690 -0.5842
  254MOL0     C34961  10.090   6.879  11.143 -0.4655 -0.2151  0.0245
  254MOL0     O34962   9.989   6.687  10.953  0.1250  0.2933 -0.4404
  254MOL0     C34963   9.719   6.894  10.840  0.1975 -0.0042 -0.0195
  254MOL0     C34964   9.588   6.893  10.785  0.8111  0.3194  0.5074
  254MOL0     N34965   8.980   6.503  10.486  0.1382  0.7629  0.0357
  254MOL0     N34966   8.949   6.396  10.548 -0.0887  0.0761 -0.1484
  254MOL0     C34967   7.892   6.862  10.921  0.4927  0.0152  0.2923
  254MOL0     C34968   7.822   6.942  10.828 -0.2654 -0.9956  0.2408
  254MOL0     C34969   7.688   7.077  10.401  0.2230 -0.3102  0.0480
  254MOL0     C34970   7.569   7.129  10.459 -0.1073  0.0272  0.1607
  254MOL0     C34971   7.473   7.195  10.380  0.5492 -0.1893  0.5097
  254MOL0     C34972   7.494   7.209  10.239  0.8721 -0.8330 -0.0495
  254MOL0     O34973   7.409   7.274  10.145 -0.3479  0.0921 -0.2383
  254MOL0     C34974   7.269   7.252  10.169 -0.2384 -0.4410 -0.2949
  254MOL0     C34975   7.206   7.391  10.162 -0.0644  0.0110 -0.5216
  254MOL0     C34976   7.071   7.401  10.230  0.2400  0.4057 -0.1039
  254MOL0     C34977   6.969   7.305  10.171 -0.5084 -0.7509  0.3062
  254MOL0     C34978   6.836   7.345  10.196 -0.2193  0.1554  0.5380
  254MOL0     C34979   6.722   7.367  10.229 -0.3593 -0.1791 -0.1967
  254MOL0     C34980   7.617   7.172  10.195 -0.5888  0.0991  0.8326
  254MOL0     C34981   7.714   7.098  10.265 -0.6139  0.8712 -0.6302
  254MOL0     C34982   7.832   7.040  10.192 -1.1022  0.1857 -0.5574
  254MOL0     H34983   7.799   6.718  10.576  5.1515  3.0842 -1.8382
  254MOL0     H34984   7.876   6.567  10.743 -0.5570  0.2959  0.1102
  254MOL0     H34985   7.994   6.458  10.899 -0.9113  1.4119 -0.2119
  254MOL0     H34986   8.059   6.477  11.060 -1.6255 -1.1678 -0.3028
  254MOL0     H34987   8.146   6.627  10.818 -0.9712  0.1480  0.1021
  254MOL0     H34988   8.221   6.643  10.980  0.3275 -0.6712 -1.0526
  254MOL0     H34989   8.260   6.397  10.969  4.1995 -0.7244 -1.2956
  254MOL0     H34990   8.216   6.397  10.799 -0.8111  1.8253 -2.1003
  254MOL0     H34991   8.398   6.540  10.742 -0.1184 -1.1304 -1.2813
  254MOL0     H34992   8.441   6.565  10.906  2.7224 -0.3917 -3.0083
  254MOL0     H34993   8.462   6.307  10.744 -1.3603  0.3535  0.9142
  254MOL0     H34994   8.491   6.304  10.923  1.1569  2.4051  2.6640
  254MOL0     H34995   8.644   6.490  10.739 -1.3798 -0.9056 -1.3512
  254MOL0     H34996   8.671   6.441  10.910 -2.3417  0.3059  0.5402
  254MOL0     H34997   8.691   6.254  10.663  2.3650  2.3181 -2.2426
  254MOL0     H34998   8.694   6.212  10.824 -0.8477  0.1177 -0.8224
  254MOL0     H34999   8.884   6.371  10.866  0.2000  1.0445  0.2533
  254MOL0     H35000   8.916   6.239  10.763 -0.6603 -0.3466 -2.9881
  254MOL0     H35001   8.893   6.626  10.770  1.3096  0.0581  0.4766
  254MOL0     H35002   8.936   6.833  10.570 -1.4842 -0.3444  1.5651
  254MOL0     H35003   9.002   6.793  10.422 -1.7836  1.1191  0.7969
  254MOL0     H35004   9.223   6.715  10.525 -0.7338  0.2547 -2.3763
  254MOL0     H35005   9.177   6.887  10.500 -0.6767  0.4012  0.2109
  254MOL0     H35006   9.119   6.910  10.744  0.5235 -0.2862  0.4145
  254MOL0     H35007   9.122   6.735  10.767 -3.7614  0.0342 -2.0320
  254MOL0     H35008   9.316   6.956  10.747 -4.3821  0.9025 -0.1265
  254MOL0     H35009   9.313   6.827  10.865 -2.1746  0.2267  0.4063
  254MOL0     H35010   9.581   6.569  10.693  0.0134  0.5545 -1.6207
  254MOL0     H35011   9.840   6.487  10.854 -1.0881 -0.4417 -0.2650
  254MOL0     H35012   9.922   6.581  10.715 -0.5498  0.9437 -1.6009
  254MOL0     H35013   9.769   6.481  10.694  1.2357 -1.7891  1.4337
  254MOL0     H35014  10.169   7.102  10.889  2.1629 -1.4983 -1.6548
  254MOL0     H35015  10.340   7.164  11.048 -1.5660  0.6373  0.9509
  254MOL0     H35016  10.320   7.286  11.256 -0.6674 -0.1671 -0.4677
  254MOL0     H35017  10.364   7.259  11.428 -2.9941 -2.4460  0.5646
  254MOL0     H35018  10.564   7.210  11.190 -0.8072  0.7768 -0.9126
  254MOL0     H35019  10.548   7.360  11.270 -0.4956  1.2037 -0.1290
  254MOL0     H35020  10.618   7.084  11.371  5.3953 -0.0507 -1.5723
  254MOL0     H35021  10.595   7.213  11.498 -0.0405  1.3744 -1.2809
  254MOL0     H35022  10.773   7.258  11.250  1.9334 -1.3384 -0.0568
  254MOL0     H35023  10.834   7.170  11.387 -0.1799 -1.3410 -1.7246
  254MOL0     H35024  10.703   7.454  11.391  1.6142  1.9879 -0.1846
  254MOL0     H35025  10.779   7.368  11.533  0.8937 -1.0498  0.0110
  254MOL0     H35026  10.941   7.533  11.450  0.9846 -1.7381  3.3225
  254MOL0     H35027  10.927   7.473  11.281  1.1433  0.1874  0.0659
  254MOL0     H35028  11.036   7.265  11.345 -2.5787 -0.6510 -0.6104
  254MOL0     H35029  11.019   7.319  11.527 -2.4085  2.8945  0.1133
  254MOL0     H35030  11.254   7.342  11.443  1.9235  1.1203 -2.3721
  254MOL0     H35031  11.166   7.494  11.495 -1.0390 -1.2903  0.5680
  254MOL0     H35032  10.203   6.887  11.337 -0.6135  4.5480  2.0258
  254MOL0     H35033  10.036   6.786  11.158 -0.5796 -0.2397 -0.5204
  254MOL0     H35034   9.751   6.988  10.884  1.2618 -0.5694  0.4480
  254MOL0     H35035   9.530   6.985  10.780  1.7326  0.8408 -2.3283
  254MOL0     H35036   7.929   6.891  11.019  2.4904 -3.7675  0.8394
  254MOL0     H35037   7.800   7.045  10.853 -1.8849 -0.3020 -3.4329
  254MOL0     H35038   7.539   7.124  10.563 -0.6743 -1.1301 -0.0491
  254MOL0     H35039   7.386   7.224  10.438 -1.0713 -3.0913 -0.2845
  254MOL0     H35040   7.226   7.185  10.094  0.6978 -1.1210 -0.2477
  254MOL0     H35041   7.251   7.207  10.268  0.4700 -1.4057 -0.5820
  254MOL0     H35042   7.204   7.440  10.065  3.2675  0.1280 -0.6397
  254MOL0     H35043   7.258   7.463  10.226 -1.0099  0.8809 -0.7148
  254MOL0     H35044   7.088   7.372  10.335 -1.6113 -3.1274 -0.6337
  254MOL0     H35045   7.042   7.505  10.216  0.6764  0.5195 -0.1940
  254MOL0     H35046   6.987   7.205  10.213  1.6242  0.1474  1.6706
  254MOL0     H35047   6.982   7.289  10.064  2.1803 -1.3839  0.6612
  254MOL0     H35048   6.619   7.394  10.246 -1.3558 -1.1421 -3.8501
  254MOL0     H35049   7.636   7.227  10.103 -1.1817  0.2018  0.7658
  254MOL0     H35050   7.873   6.943  10.222 -0.0741  0.3626 -1.3118
  254MOL0     H35051   7.797   7.027  10.089 -0.7362  1.9133 -0.9320
  254MOL0     H35052   7.916   7.109  10.178 -1.3594  0.7953  0.7759
  255MOL0     O35053   6.043   2.171   5.103  0.1344  0.3996  0.5333
  255MOL0     C35054   6.048   2.043   5.092 -0.1044  0.1000 -0.5827
  255MOL0     O35055   6.165   1.970   5.086  0.2560  0.4525  0.0313
  255MOL0     C35056   6.292   2.026   5.066 -0.6199  0.1276 -0.8965
  255MOL0     C35057   6.345   2.015   4.942  0.0770  0.7770 -0.4889
  255MOL0     C35058   6.473   2.067   4.909  0.4799 -0.2524 -0.1775
  255MOL0     C35059   6.544   2.138   5.009 -0.5935  0.3201 -1.0222
  255MOL0     O35060   6.664   2.197   4.967  0.2194 -0.4293 -0.1330
  255MOL0     C35061   6.747   2.264   5.062  0.3189  0.6748  0.0298
  255MOL0     C35062   6.880   2.285   4.978  0.4764  0.7391 -0.7445
  255MOL0     C35063   6.995   2.370   5.047  0.5738 -0.2726  0.5381
  255MOL0     C35064   7.091   2.408   4.931 -0.9940  0.1319 -0.4791
  255MOL0     C35065   7.245   2.428   4.980  0.2341  0.0661  0.7896
  255MOL0     C35066   7.264   2.551   5.068  0.1333 -0.5253 -0.1899
  255MOL0     C35067   7.390   2.630   5.038  0.3140 -1.0860 -0.4180
  255MOL0     C35068   7.515   2.533   5.049  0.0288  0.5352 -0.0214
  255MOL0     N35069   7.516   2.453   5.168  0.0305 -0.4295  0.5356
  255MOL0     C35070   7.551   2.500   5.291 -0.4184 -0.0402 -0.2691
  255MOL0     C35071   7.569   2.392   5.370  1.2733 -0.4661 -0.1245
  255MOL0     C35072   7.623   2.391   5.508 -0.4006 -0.5506 -0.6034
  255MOL0     C35073   7.748   2.479   5.524 -0.4478 -0.5222  0.1211
  255MOL0     C35074   7.808   2.461   5.661  0.6566  0.3271  0.2550
  255MOL0     C35075   7.961   2.447   5.651  0.4996 -0.7126 -0.4436
  255MOL0     O35076   8.026   2.569   5.606 -0.4412  0.0526 -0.1947
  255MOL0     C35077   8.165   2.571   5.621 -0.1954  0.3212 -0.2379
  255MOL0     C35078   8.238   2.459   5.601 -0.0219  0.1138 -0.2224
  255MOL0     C35079   8.374   2.468   5.631 -0.4931  0.4560 -0.4702
  255MOL0     C35080   8.452   2.335   5.630  0.0470  0.0535  0.8103
  255MOL0     C35081   8.438   2.593   5.650  0.3600  0.4311  0.0516
  255MOL0     C35082   8.583   2.612   5.667  0.4099  0.6524 -0.1532
  255MOL0     O35083   8.656   2.526   5.588 -1.2238 -0.1733 -0.1657
  255MOL0     C35084   8.799   2.521   5.605  0.6418  0.2633  0.3343
  255MOL0     C35085   8.863   2.404   5.547  0.3001 -0.0316  0.3749
  255MOL0     C35086   9.001   2.394   5.547 -0.3400 -1.3184 -0.3119
  255MOL0     C35087   9.081   2.494   5.594  0.2095  0.0461  0.8550
  255MOL0     O35088   9.213   2.483   5.588 -0.0211  0.4119 -0.0801
  255MOL0     C35089   9.274   2.419   5.483  0.8492 -0.5564 -1.1073
  255MOL0     C35090   9.419   2.478   5.476  0.0359  0.1919  0.6258
  255MOL0     C35091   9.429   2.612   5.408 -0.4148 -0.0840  0.1382
  255MOL0     C35092   9.574   2.664   5.401  0.2458  0.6505  0.5712
  255MOL0     C35093   9.579   2.813   5.360 -0.3076  0.6744  0.5263
  255MOL0     C35094   9.563   2.838   5.209  0.1503 -0.1410 -0.9031
  255MOL0     C35095   9.525   2.978   5.182  0.1431 -0.4471 -0.1619
  255MOL0     C35096   9.633   3.085   5.224  0.5830  0.3270 -0.8421
  255MOL0    Cl35097   9.783   3.042   5.141  0.4135  0.0599  0.1543
  255MOL0     C35098   9.021   2.610   5.645  0.9731  0.0727 -0.1357
  255MOL0     C35099   8.881   2.626   5.640  0.8112 -0.4781  0.0948
  255MOL0     O35100   8.614   2.676   5.768 -0.4636  0.2327  0.1603
  255MOL0     C35101   8.358   2.709   5.654  0.4841 -0.0802 -0.5840
  255MOL0     C35102   8.225   2.697   5.634  0.0940  0.0555 -0.3086
  255MOL0     N35103   7.534   2.282   5.283  0.2119  0.0110  0.6997
  255MOL0     N35104   7.514   2.320   5.162  0.6017 -0.0650 -0.3809
  255MOL0     C35105   6.486   2.161   5.138 -0.2666 -0.2783 -0.4751
  255MOL0     C35106   6.354   2.112   5.165  0.4994 -0.0215 -0.7836
  255MOL0     C35107   5.924   1.960   5.103 -1.8040  0.0550  0.0935
  255MOL0     C35108   5.932   1.816   5.103  0.0663 -1.5916  0.4545
  255MOL0     C35109   5.817   1.740   5.122 -0.0644 -0.4485  0.1870
  255MOL0     C35110   5.695   1.795   5.138 -0.2302 -0.3370 -0.0606
  255MOL0     O35111   5.597   1.697   5.148 -0.2104 -0.0977 -0.1228
  255MOL0     C35112   5.460   1.740   5.170 -0.5048  0.0912 -0.6401
  255MOL0     C35113   5.363   1.631   5.140  0.6074 -0.0435  0.7386
  255MOL0     C35114   5.378   1.522   5.252  0.1733 -0.9749  0.8556
  255MOL0     C35115   5.248   1.437   5.255 -0.4296 -0.2659 -0.2456
  255MOL0     C35116   5.264   1.325   5.347  0.8046  0.3573 -0.0712
  255MOL0     C35117   5.283   1.230   5.419 -0.2765  0.2758  0.3979
  255MOL0     C35118   5.684   1.936   5.126  0.4286  0.6236  0.3824
  255MOL0     C35119   5.794   2.015   5.105  0.0165  0.0900  0.9054
  255MOL0     C35120   5.768   2.169   5.091  0.3711  0.3999 -0.0517
  255MOL0     H35121   6.294   1.964   4.861 -0.8058 -1.1466  1.1910
  255MOL0     H35122   6.515   2.047   4.811 -0.2481 -1.0933 -0.3272
  255MOL0     H35123   6.764   2.195   5.145 -1.8341 -0.5959 -0.4922
  255MOL0     H35124   6.706   2.361   5.092 -2.2186  0.1832 -1.5379
  255MOL0     H35125   6.915   2.186   4.948  2.5363  1.5858 -1.3090
  255MOL0     H35126   6.853   2.337   4.885  0.9714 -1.1283 -1.9883
  255MOL0     H35127   6.945   2.461   5.082  0.2672 -0.7333  1.3328
  255MOL0     H35128   7.047   2.323   5.130  3.4219  4.7373  1.9879
  255MOL0     H35129   7.089   2.320   4.866  0.2123 -0.4535  0.2534
  255MOL0     H35130   7.058   2.501   4.882 -1.5838 -0.1157 -0.5683
  255MOL0     H35131   7.300   2.445   4.887  0.0777 -1.1991  0.4450
  255MOL0     H35132   7.282   2.337   5.028  0.3950 -0.5592 -0.4858
  255MOL0     H35133   7.186   2.625   5.049  0.0014 -0.3223  1.0875
  255MOL0     H35134   7.246   2.518   5.171  0.3788 -0.3555 -0.0911
  255MOL0     H35135   7.401   2.704   5.118  1.2492  0.5658 -1.9931
  255MOL0     H35136   7.388   2.689   4.947  1.3135 -0.1145  0.1626
  255MOL0     H35137   7.521   2.472   4.959 -0.1752  0.2788  0.1381
  255MOL0     H35138   7.614   2.581   5.050  0.3526  0.0027 -1.9761
  255MOL0     H35139   7.583   2.600   5.318 -1.8931  0.7209 -1.1971
  255MOL0     H35140   7.649   2.287   5.532  0.8218 -0.1971 -0.3553
  255MOL0     H35141   7.541   2.429   5.570  0.9255  2.1274 -0.3385
  255MOL0     H35142   7.821   2.465   5.444  2.3669  0.7534  2.3134
  255MOL0     H35143   7.710   2.581   5.518 -3.2193 -1.3421  1.8857
  255MOL0     H35144   7.780   2.544   5.727  1.5631 -1.0541  2.4802
  255MOL0     H35145   7.763   2.371   5.704 -2.2455  0.8018 -1.4976
  255MOL0     H35146   8.004   2.423   5.749  1.4961 -2.0492 -1.1710
  255MOL0     H35147   7.984   2.364   5.583  2.4256  0.3568 -1.1799
  255MOL0     H35148   8.188   2.365   5.580  1.7416 -0.8770 -0.1668
  255MOL0     H35149   8.512   2.329   5.539 -3.8465 -0.9754 -1.9429
  255MOL0     H35150   8.379   2.254   5.632  0.6096 -0.4998 -0.2833
  255MOL0     H35151   8.514   2.314   5.718  1.2417 -1.2235 -0.2974
  255MOL0     H35152   8.807   2.322   5.502 -2.8325  2.3076 -0.3549
  255MOL0     H35153   9.047   2.303   5.509  1.0986 -1.9138  2.5942
  255MOL0     H35154   9.274   2.310   5.494 -0.3357 -0.4644  0.0087
  255MOL0     H35155   9.226   2.457   5.392 -1.6871 -0.0247  0.3583
  255MOL0     H35156   9.460   2.485   5.577  1.6038 -0.6588  0.0821
  255MOL0     H35157   9.488   2.405   5.434  1.0119  0.2360  2.0693
  255MOL0     H35158   9.370   2.677   5.473 -0.9446 -1.0261  0.6206
  255MOL0     H35159   9.384   2.609   5.308 -1.2403 -0.2011  0.4998
  255MOL0     H35160   9.639   2.601   5.340  0.5382  2.3360 -0.9523
  255MOL0     H35161   9.611   2.651   5.503  1.1214  0.7243  0.2746
  255MOL0     H35162   9.503   2.862   5.421 -1.2610  0.9994 -0.8801
  255MOL0     H35163   9.675   2.856   5.391 -1.0922  3.5870 -0.7025
  255MOL0     H35164   9.487   2.771   5.168  0.1484 -0.8129  0.1399
  255MOL0     H35165   9.658   2.809   5.164  1.5613 -2.6948  3.1820
  255MOL0     H35166   9.435   3.008   5.235 -0.5185  0.3372 -1.6655
  255MOL0     H35167   9.517   2.988   5.073  0.3203  2.3023  0.0013
  255MOL0     H35168   9.653   3.099   5.331 -0.9492  2.6268 -0.7721
  255MOL0     H35169   9.602   3.183   5.185 -1.8181 -0.0890 -0.1140
  255MOL0     H35170   9.072   2.701   5.676 -1.5919  1.6755 -0.3702
  255MOL0     H35171   8.840   2.723   5.666  0.6390 -0.2122 -1.1261
  255MOL0     H35172   8.402   2.806   5.675 -0.1677 -0.0364  0.7237
  255MOL0     H35173   8.164   2.787   5.639  1.9887  1.3791  0.2554
  255MOL0     H35174   6.532   2.226   5.211  3.5686 -1.6608 -1.4223
  255MOL0     H35175   6.299   2.140   5.254  1.3030  2.2415 -0.9334
  255MOL0     H35176   6.023   1.768   5.068  0.9566  0.8311 -0.7043
  255MOL0     H35177   5.821   1.631   5.116 -4.3360 -0.7308 -0.5670
  255MOL0     H35178   5.447   1.770   5.274 -0.3624 -0.9219 -0.3191
  255MOL0     H35179   5.436   1.821   5.100 -0.4266  0.2384 -0.4958
  255MOL0     H35180   5.388   1.594   5.040  0.0402 -1.2179  1.0162
  255MOL0     H35181   5.258   1.661   5.136  0.6948  0.1382 -1.3933
  255MOL0     H35182   5.452   1.447   5.222  1.7159  0.8887 -0.2476
  255MOL0     H35183   5.399   1.559   5.353 -0.8938  1.3600  0.3070
  255MOL0     H35184   5.220   1.394   5.158  0.5700 -1.1003 -0.1838
  255MOL0     H35185   5.164   1.500   5.286 -0.5545 -1.0313  1.0542
  255MOL0     H35186   5.301   1.147   5.484 -2.4940 -0.4770  0.1430
  255MOL0     H35187   5.584   1.979   5.123  1.7168  3.8390 -0.2000
  255MOL0     H35188   5.821   2.217   5.008  0.6764 -0.6586 -0.4809
  255MOL0     H35189   5.664   2.204   5.089  1.2346  3.1539 -1.5319
  255MOL0     H35190   5.815   2.221   5.175  1.9732  0.6714 -1.0698
  256MOL0     O35191   1.993   1.655   1.508  0.4892  0.4125  0.3180
  256MOL0     C35192   1.896   1.668   1.429 -0.1620  0.9950 -0.3105
  256MOL0     O35193   1.882   1.774   1.345 -0.1195  0.5007  0.3749
  256MOL0     C35194   1.746   1.806   1.322 -0.5512 -0.1457 -0.0719
  256MOL0     C35195   1.641   1.780   1.412 -0.3526 -0.2225  0.9787
  256MOL0     C35196   1.509   1.816   1.380 -0.8301  0.3212 -0.8033
  256MOL0     C35197   1.487   1.889   1.261 -0.2210 -0.0911 -0.1599
  256MOL0     O35198   1.364   1.936   1.224 -0.5324  0.4606 -0.3204
  256MOL0     C35199   1.260   1.885   1.302  0.3961 -0.0502 -0.0294
  256MOL0     C35200   1.213   1.982   1.416  1.0770 -0.2705  0.0792
  256MOL0     C35201   1.062   1.959   1.452  0.0407  0.1288 -0.0977
  256MOL0     C35202   1.036   2.015   1.593 -0.7541 -0.3282  1.1456
  256MOL0     C35203   0.893   2.071   1.611  0.2447  0.9143  0.0447
  256MOL0     C35204   0.863   2.168   1.730  0.1029  0.0079  0.1782
  256MOL0     C35205   0.857   2.076   1.854 -0.2295  0.1006 -0.1323
  256MOL0     C35206   0.853   2.163   1.979 -0.9053  0.6842  0.9230
  256MOL0     N35207   0.762   2.277   1.978 -0.1301 -0.0946 -0.3870
  256MOL0     C35208   0.810   2.407   1.957  0.1398  1.0379 -0.5795
  256MOL0     C35209   0.698   2.478   1.937  0.2313  1.0738  0.0183
  256MOL0     C35210   0.713   2.622   1.887 -0.4500  0.4556 -0.2378
  256MOL0     C35211   0.825   2.639   1.773  0.0772 -0.1020  0.1173
  256MOL0     C35212   0.822   2.792   1.727  0.7169 -0.2989  0.2435
  256MOL0     C35213   0.929   2.805   1.616  0.1042 -0.4181  0.2078
  256MOL0     O35214   1.061   2.765   1.657  0.2250  0.0582 -0.6428
  256MOL0     C35215   1.149   2.789   1.560 -0.5094  0.2706 -0.0566
  256MOL0     C35216   1.188   2.917   1.530 -0.6332  0.0046  0.5788
  256MOL0     C35217   1.299   2.933   1.436  0.6807 -0.7191 -0.4242
  256MOL0     C35218   1.352   3.072   1.408  0.1778 -0.4404  0.2778
  256MOL0     C35219   1.349   2.818   1.364  0.4299 -0.3363 -0.2907
  256MOL0     C35220   1.442   2.828   1.244 -0.1250  0.0036  0.1428
  256MOL0     O35221   1.511   2.712   1.219 -0.3387 -0.1056 -0.7024
  256MOL0     C35222   1.566   2.705   1.094 -0.1961 -0.1562 -1.0290
  256MOL0     C35223   1.694   2.755   1.058  0.6520 -0.0234 -0.9260
  256MOL0     C35224   1.751   2.751   0.936  0.3415  1.3478 -0.1478
  256MOL0     C35225   1.680   2.686   0.836 -0.6708  0.0811 -0.7604
  256MOL0     O35226   1.739   2.674   0.712 -0.3650  0.3534 -0.3581
  256MOL0     C35227   1.657   2.695   0.592  0.1987  1.1353 -0.1762
  256MOL0     C35228   1.732   2.713   0.458  0.5918 -0.7909 -0.1788
  256MOL0     C35229   1.806   2.845   0.453  0.4281 -0.4031  0.6910
  256MOL0     C35230   1.869   2.874   0.321  0.1647  0.1729  0.3589
  256MOL0     C35231   1.945   3.007   0.326 -0.4480  0.0117  0.2175
  256MOL0     C35232   1.965   3.055   0.177  0.1614 -0.0939 -1.3779
  256MOL0     C35233   2.040   2.957   0.095 -0.0427 -0.7905  0.2419
  256MOL0     C35234   2.133   3.020   0.003  0.8835  0.5524 -1.2491
  256MOL0    Cl35235   2.203   2.891  -0.095 -0.2572  0.1094  0.0627
  256MOL0     C35236   1.545   2.643   0.858  0.3290  0.5076 -0.5299
  256MOL0     C35237   1.492   2.640   0.993  0.4040 -0.2195 -0.9710
  256MOL0     O35238   1.438   2.927   1.167 -0.3227 -0.0547  0.6966
  256MOL0     C35239   1.300   2.693   1.403 -0.3260  0.0103  0.0948
  256MOL0     C35240   1.199   2.683   1.495  0.4756  0.1124 -0.3635
  256MOL0     N35241   0.584   2.392   1.950  0.4104 -0.2024 -0.3980
  256MOL0     N35242   0.626   2.272   1.958 -0.0271  0.2458  0.4323
  256MOL0     C35243   1.584   1.915   1.172  0.5644 -0.0952  1.1382
  256MOL0     C35244   1.710   1.866   1.202  0.1817  0.6048  0.0683
  256MOL0     C35245   1.815   1.545   1.437  0.7084  0.5743  0.3593
  256MOL0     C35246   1.737   1.504   1.545  0.8806  0.0370 -0.6139
  256MOL0     C35247   1.650   1.399   1.534 -0.1269 -0.4294  0.2362
  256MOL0     C35248   1.649   1.316   1.420 -0.8728 -0.3697 -0.2008
  256MOL0     O35249   1.568   1.207   1.392 -0.3820 -0.2762 -0.2595
  256MOL0     C35250   1.477   1.167   1.492 -0.6403 -0.0006  0.3066
  256MOL0     C35251   1.411   1.042   1.447  0.0009 -0.1398 -0.3928
  256MOL0     C35252   1.310   0.976   1.545  1.0645 -0.1400  0.0019
  256MOL0     C35253   1.188   1.059   1.587  0.6731  0.6847  0.1450
  256MOL0     C35254   1.092   0.966   1.654 -0.1117  0.7079  0.2708
  256MOL0     C35255   0.997   0.908   1.705 -0.3823  0.0574 -0.0541
  256MOL0     C35256   1.747   1.341   1.323 -0.1020 -0.8558  0.0514
  256MOL0     C35257   1.820   1.456   1.321 -0.1826 -0.7796 -1.1842
  256MOL0     C35258   1.926   1.466   1.212  0.4143 -0.6743 -0.3848
  256MOL0     H35259   1.648   1.738   1.512 -0.1633 -0.3997  0.8921
  256MOL0     H35260   1.442   1.807   1.465  1.1016  0.7455  0.8545
  256MOL0     H35261   1.265   1.778   1.325  0.1417  0.2223  1.4072
  256MOL0     H35262   1.172   1.875   1.238 -0.9314 -0.1019  1.7463
  256MOL0     H35263   1.274   1.948   1.501  3.1866  1.1331 -0.8034
  256MOL0     H35264   1.228   2.088   1.394 -2.1529 -0.3494 -3.3543
  256MOL0     H35265   1.010   2.020   1.377 -0.6741  1.1078  1.1620
  256MOL0     H35266   1.042   1.852   1.462  2.0157 -0.2129  0.4914
  256MOL0     H35267   1.071   1.960   1.681 -0.3538  1.5239  2.1972
  256MOL0     H35268   1.097   2.106   1.600  0.6079 -1.1501  0.4466
  256MOL0     H35269   0.816   1.994   1.597 -0.1477  1.6892 -2.5886
  256MOL0     H35270   0.873   2.137   1.526  1.3365 -0.4078 -1.2830
  256MOL0     H35271   0.942   2.242   1.745 -0.4365  0.8964 -1.1734
  256MOL0     H35272   0.773   2.220   1.695  1.3022 -0.3711 -3.8884
  256MOL0     H35273   0.948   2.016   1.862 -0.5101 -0.5998 -1.7408
  256MOL0     H35274   0.764   2.023   1.831 -0.7168  2.1618 -3.7996
  256MOL0     H35275   0.827   2.109   2.071 -2.2259  0.0740  0.2396
  256MOL0     H35276   0.955   2.200   1.986 -0.6160  0.0814  0.0804
  256MOL0     H35277   0.913   2.434   1.934  0.9079 -2.7114 -2.3524
  256MOL0     H35278   0.739   2.688   1.970 -2.6589  1.8884 -0.5993
  256MOL0     H35279   0.618   2.654   1.843  0.2228  2.7821 -0.1162
  256MOL0     H35280   0.927   2.618   1.807  0.1099  1.0015  0.7683
  256MOL0     H35281   0.801   2.577   1.686  0.6076  1.1347 -0.9395
  256MOL0     H35282   0.720   2.827   1.710  0.1921 -1.5067  0.7884
  256MOL0     H35283   0.858   2.848   1.815  2.7592 -4.3025  2.2561
  256MOL0     H35284   0.892   2.744   1.533  2.4928  0.9328 -2.0096
  256MOL0     H35285   0.921   2.909   1.583  0.1892 -1.1400 -2.2282
  256MOL0     H35286   1.137   3.002   1.575  1.5134  0.2866  2.6564
  256MOL0     H35287   1.366   3.132   1.499 -2.7077  0.1601  0.4203
  256MOL0     H35288   1.279   3.129   1.348 -0.5683 -1.2443  0.4099
  256MOL0     H35289   1.449   3.075   1.358  0.7546  2.2797  1.3643
  256MOL0     H35290   1.748   2.802   1.139 -1.4564 -0.7145  1.0112
  256MOL0     H35291   1.851   2.789   0.920  1.1524 -0.0928  1.2297
  256MOL0     H35292   1.588   2.611   0.578  1.3722 -0.3834  2.4493
  256MOL0     H35293   1.602   2.789   0.607 -1.6224  0.4488 -2.1294
  256MOL0     H35294   1.808   2.636   0.448  1.3437  0.0728 -1.4651
  256MOL0     H35295   1.661   2.709   0.374 -1.9313  2.1068  1.5877
  256MOL0     H35296   1.888   2.844   0.526  1.9077  1.5509 -0.8433
  256MOL0     H35297   1.734   2.926   0.466 -0.1120  0.4723 -4.9977
  256MOL0     H35298   1.790   2.870   0.245  0.2594 -2.1655  0.2899
  256MOL0     H35299   1.933   2.793   0.284 -2.1616 -0.7632 -1.9702
  256MOL0     H35300   1.889   3.088   0.375 -0.3588  0.5706 -0.5829
  256MOL0     H35301   2.040   2.999   0.380 -0.5880  1.2023  0.6636
  256MOL0     H35302   2.025   3.142   0.205  0.1494 -0.3588 -0.4921
  256MOL0     H35303   1.865   3.079   0.139 -0.5720  0.1872  0.6121
  256MOL0     H35304   1.964   2.898   0.044 -1.8549  1.7149 -0.1062
  256MOL0     H35305   2.103   2.888   0.153 -1.4211 -1.4952  0.9365
  256MOL0     H35306   2.214   3.072   0.054  0.2953  0.0887  0.2155
  256MOL0     H35307   2.076   3.094  -0.054 -0.4354  1.8585  1.5900
  256MOL0     H35308   1.484   2.589   0.786  1.5324 -1.6096 -0.0579
  256MOL0     H35309   1.402   2.587   1.023  0.5693 -0.1840 -0.3988
  256MOL0     H35310   1.317   2.607   1.339  0.9554  0.4212 -0.1439
  256MOL0     H35311   1.158   2.592   1.538  3.3088  0.4771  3.7363
  256MOL0     H35312   1.561   1.969   1.081  1.2159 -1.2368  0.2836
  256MOL0     H35313   1.792   1.879   1.132 -0.7048  0.3536 -1.0513
  256MOL0     H35314   1.741   1.562   1.636 -3.7604 -3.2337  2.1205
  256MOL0     H35315   1.581   1.384   1.616 -0.0514 -1.0596  0.1907
  256MOL0     H35316   1.527   1.163   1.589 -1.0186  1.9191  0.6207
  256MOL0     H35317   1.400   1.242   1.513  0.9125  1.3646  1.3856
  256MOL0     H35318   1.491   0.972   1.422 -0.4849 -0.0880 -2.2331
  256MOL0     H35319   1.358   1.076   1.357  0.4398 -2.8557 -1.8077
  256MOL0     H35320   1.272   0.890   1.490 -2.1170  1.9701 -1.4483
  256MOL0     H35321   1.354   0.928   1.633 -0.8407  0.0032  1.0899
  256MOL0     H35322   1.136   1.096   1.498  0.8311  1.4590  0.3721
  256MOL0     H35323   1.226   1.139   1.651  1.6568  0.3754 -0.0202
  256MOL0     H35324   0.908   0.870   1.751 -1.6670  0.3349 -2.1614
  256MOL0     H35325   1.754   1.269   1.242  1.7366 -0.2805 -0.3362
  256MOL0     H35326   2.023   1.452   1.260 -0.2022  4.6276  3.2621
  256MOL0     H35327   1.904   1.392   1.135  2.8399 -0.9601 -0.8758
  256MOL0     H35328   1.930   1.568   1.172 -1.1069 -0.4180  0.0545
  257MOL0     O35329  10.257   5.490   1.453  0.3850 -0.4161 -0.4706
  257MOL0     C35330  10.213   5.383   1.409 -0.2995 -0.5551  0.0498
  257MOL0     O35331  10.091   5.335   1.432  0.2944  0.3800 -0.0341
  257MOL0     C35332  10.008   5.393   1.529 -0.0882 -0.1828  0.1067
  257MOL0     C35333  10.027   5.372   1.667 -0.5037 -0.7690 -0.7035
  257MOL0     C35334   9.928   5.435   1.754 -0.0627  0.1430  0.0897
  257MOL0     C35335   9.812   5.496   1.703 -0.6547  0.0944 -0.2670
  257MOL0     O35336   9.708   5.549   1.776 -0.4055  0.3993 -0.1555
  257MOL0     C35337   9.741   5.612   1.901 -0.4928  0.2368  0.6010
  257MOL0     C35338   9.800   5.754   1.870  0.7948  0.0130 -0.5899
  257MOL0     C35339   9.817   5.858   1.983 -0.2219 -0.2044 -0.6172
  257MOL0     C35340   9.695   5.862   2.078 -0.8516 -0.2160  0.6699
  257MOL0     C35341   9.692   6.010   2.135  0.8403  0.7891  1.3101
  257MOL0     C35342   9.823   6.052   2.212 -0.0788  0.3770 -0.6800
  257MOL0     C35343   9.779   6.179   2.295  0.2379 -0.3145 -0.6109
  257MOL0     C35344   9.902   6.236   2.380 -0.2988 -0.1887  0.4225
  257MOL0     N35345  10.014   6.298   2.301 -0.9915 -0.1821 -0.7141
  257MOL0     C35346  10.024   6.421   2.245  0.8191 -0.2373  0.2776
  257MOL0     C35347  10.153   6.449   2.236  0.0292  0.1583 -0.0954
  257MOL0     C35348  10.208   6.586   2.191  0.1532 -0.0087  0.1130
  257MOL0     C35349  10.361   6.594   2.201  0.4533  1.5987  1.0459
  257MOL0     C35350  10.391   6.743   2.186  0.0585 -0.4122 -0.2220
  257MOL0     C35351  10.538   6.783   2.161 -0.1422 -0.0334  0.2622
  257MOL0     O35352  10.637   6.712   2.240  0.6237  0.0973 -0.3994
  257MOL0     C35353  10.751   6.783   2.252  0.5613  0.6472  0.3656
  257MOL0     C35354  10.772   6.890   2.338  0.2345 -0.1433 -0.7930
  257MOL0     C35355  10.898   6.956   2.347  0.5944 -0.1889 -0.5832
  257MOL0     C35356  10.904   7.074   2.442 -0.0356  0.1422 -0.7323
  257MOL0     C35357  11.003   6.903   2.277  0.4971  0.1492 -0.8969
  257MOL0     C35358  11.139   6.965   2.274 -0.3476 -0.4316 -0.5159
  257MOL0     O35359  11.241   6.883   2.281 -0.4089 -0.3805 -0.2089
  257MOL0     C35360  11.351   6.943   2.317 -0.0960  0.2264 -0.2589
  257MOL0     C35361  11.367   6.970   2.456 -1.0314 -0.1908  1.1186
  257MOL0     C35362  11.479   7.039   2.502 -0.1597 -0.4951 -0.0327
  257MOL0     C35363  11.586   7.069   2.412  0.3085  1.0748  0.2386
  257MOL0     O35364  11.704   7.129   2.449  0.1590  0.5059 -0.2379
  257MOL0     C35365  11.723   7.165   2.586  0.3966  0.5456  0.2334
  257MOL0     C35366  11.867   7.230   2.585  0.2414 -0.3742 -0.0267
  257MOL0     C35367  11.973   7.118   2.570  0.0628 -0.0522  0.5462
  257MOL0     C35368  12.101   7.189   2.529  0.1626  0.0679 -0.5372
  257MOL0     C35369  12.162   7.262   2.650 -0.2213 -0.2901 -0.3811
  257MOL0     C35370  12.281   7.348   2.611  1.4435 -0.1392  0.4051
  257MOL0     C35371  12.325   7.439   2.731  0.0735 -0.0831 -0.6821
  257MOL0     C35372  12.438   7.528   2.684 -0.2751 -0.4309  0.7198
  257MOL0    Cl35373  12.597   7.436   2.710 -0.2064 -0.2538  0.0484
  257MOL0     C35374  11.574   7.030   2.279  0.0098 -0.1906  0.4254
  257MOL0     C35375  11.460   6.969   2.227 -0.7265  0.1574 -0.8017
  257MOL0     O35376  11.143   7.087   2.257 -0.5266  0.2384 -0.0421
  257MOL0     C35377  10.979   6.805   2.172 -0.3393 -0.8749  0.6005
  257MOL0     C35378  10.852   6.744   2.159 -0.4100 -0.3753  0.1406
  257MOL0     N35379  10.228   6.331   2.266  0.2395 -0.9760  0.5351
  257MOL0     N35380  10.140   6.249   2.312  0.3365  0.6605 -0.1955
  257MOL0     C35381   9.802   5.505   1.567 -0.0210  0.7567  0.3457
  257MOL0     C35382   9.906   5.471   1.479  0.0068  0.0867 -0.5445
  257MOL0     C35383  10.314   5.300   1.331  0.3334 -0.4246 -0.7161
  257MOL0     C35384  10.428   5.369   1.278  0.0161 -0.9992 -0.7485
  257MOL0     C35385  10.513   5.306   1.194 -0.3193 -0.3846  0.0006
  257MOL0     C35386  10.490   5.174   1.152 -0.2079  0.2322  0.3127
  257MOL0     O35387  10.579   5.125   1.059  0.5301 -0.2562 -0.4318
  257MOL0     C35388  10.563   4.995   0.992  0.1832  0.4949  0.1877
  257MOL0     C35389  10.659   4.897   1.045  0.0236  0.0531 -0.4927
  257MOL0     C35390  10.803   4.912   1.001  1.7265  0.5241 -0.8984
  257MOL0     C35391  10.878   4.779   1.002  0.1870 -0.4744  0.5562
  257MOL0     C35392  11.017   4.795   0.965  0.2263  0.3498 -0.0919
  257MOL0     C35393  11.135   4.811   0.943 -0.5396 -0.1075 -0.0839
  257MOL0     C35394  10.381   5.106   1.204  0.0704  0.1278  0.2540
  257MOL0     C35395  10.294   5.159   1.301 -0.4887  0.1216 -0.2695
  257MOL0     C35396  10.189   5.072   1.349 -0.0814  0.1452 -0.1901
  257MOL0     H35397  10.117   5.330   1.711 -0.4073  0.6572  0.5509
  257MOL0     H35398   9.941   5.413   1.859  0.2246  0.1900  0.0657
  257MOL0     H35399   9.809   5.554   1.965 -1.0112 -0.3706  0.6156
  257MOL0     H35400   9.643   5.621   1.949 -1.6354 -1.3022 -1.3257
  257MOL0     H35401   9.900   5.740   1.829  0.5292  0.9554 -1.6446
  257MOL0     H35402   9.731   5.794   1.794 -2.1029 -1.7695  0.9360
  257MOL0     H35403   9.898   5.818   2.044 -1.3744 -2.3447 -0.4027
  257MOL0     H35404   9.848   5.951   1.934  0.2086  0.4376  0.8418
  257MOL0     H35405   9.603   5.833   2.028 -0.7238 -1.4723  1.1412
  257MOL0     H35406   9.724   5.794   2.158  2.8090 -1.7245 -1.6416
  257MOL0     H35407   9.606   6.021   2.202  0.3417 -1.9574  1.2153
  257MOL0     H35408   9.672   6.085   2.058 -1.2216 -0.3323  0.6765
  257MOL0     H35409   9.852   5.970   2.279  1.8753 -0.0658 -1.9850
  257MOL0     H35410   9.913   6.071   2.153 -1.1842  3.6677 -1.4687
  257MOL0     H35411   9.701   6.154   2.367  0.8905 -0.3043  0.1112
  257MOL0     H35412   9.745   6.263   2.233  1.1935  0.9226  0.4716
  257MOL0     H35413   9.868   6.291   2.468 -1.2324 -0.1977  0.0783
  257MOL0     H35414   9.944   6.144   2.422  0.9362 -0.1387 -0.6255
  257MOL0     H35415   9.946   6.490   2.215  1.4431  0.2655 -0.2176
  257MOL0     H35416  10.158   6.664   2.250 -1.5166 -0.0626 -1.1519
  257MOL0     H35417  10.171   6.604   2.090 -1.7464 -0.9589  0.5874
  257MOL0     H35418  10.400   6.553   2.295 -0.1011 -1.2678  0.1057
  257MOL0     H35419  10.405   6.539   2.117  1.6294  0.4826  2.3411
  257MOL0     H35420  10.324   6.777   2.107 -0.4925 -1.9488 -0.4389
  257MOL0     H35421  10.361   6.782   2.284 -2.7782 -0.9373 -0.7913
  257MOL0     H35422  10.556   6.757   2.056  1.0460 -1.9089  0.8872
  257MOL0     H35423  10.545   6.890   2.183 -2.5379 -0.2420  2.6569
  257MOL0     H35424  10.692   6.920   2.405  0.6731 -2.0040  0.6728
  257MOL0     H35425  10.926   7.169   2.393  0.5290  0.5636  0.3068
  257MOL0     H35426  10.984   7.053   2.513  1.2840  2.1444 -1.5520
  257MOL0     H35427  10.810   7.090   2.495  0.1272 -0.0715 -0.3825
  257MOL0     H35428  11.287   6.944   2.525 -1.4198  0.3614  0.8847
  257MOL0     H35429  11.485   7.055   2.610 -3.0717 -1.3817  0.3559
  257MOL0     H35430  11.642   7.231   2.619 -0.5597 -1.8538  3.1519
  257MOL0     H35431  11.723   7.084   2.660 -0.2477  1.7415  1.5977
  257MOL0     H35432  11.874   7.316   2.519 -0.4347 -1.3768 -1.4586
  257MOL0     H35433  11.880   7.266   2.688 -1.2588  0.1909 -0.0084
  257MOL0     H35434  11.944   7.062   2.480 -3.6192  1.5954  0.5181
  257MOL0     H35435  11.974   7.051   2.657  0.0020 -1.0329 -0.1815
  257MOL0     H35436  12.074   7.260   2.450  2.0692  0.9648 -0.4505
  257MOL0     H35437  12.173   7.114   2.495  0.7537  0.3367  0.1044
  257MOL0     H35438  12.088   7.328   2.697 -2.3331 -1.7436 -1.4853
  257MOL0     H35439  12.189   7.183   2.721 -0.3256 -2.3319 -2.5152
  257MOL0     H35440  12.255   7.408   2.523  0.9529  0.4716  0.9600
  257MOL0     H35441  12.363   7.281   2.581  1.4102 -1.3197  2.7535
  257MOL0     H35442  12.351   7.371   2.813 -2.3379 -1.8909 -1.2852
  257MOL0     H35443  12.234   7.498   2.744 -0.9446 -1.3900 -1.5113
  257MOL0     H35444  12.445   7.626   2.733  1.1382 -0.1159 -0.0591
  257MOL0     H35445  12.418   7.549   2.579 -0.2114  2.3803  1.1848
  257MOL0     H35446  11.656   7.059   2.213  1.9254 -2.4658  1.6210
  257MOL0     H35447  11.459   6.941   2.123 -1.1756  0.3169 -0.8437
  257MOL0     H35448  11.056   6.772   2.104 -1.7172 -1.9669 -0.5119
  257MOL0     H35449  10.835   6.678   2.074  1.8940 -0.6442 -0.1687
  257MOL0     H35450   9.713   5.554   1.529 -0.1465  1.2359  1.2276
  257MOL0     H35451   9.910   5.490   1.373 -0.5712  1.1555 -0.3860
  257MOL0     H35452  10.448   5.474   1.294  0.0893 -0.8813 -1.5754
  257MOL0     H35453  10.597   5.359   1.151  0.7134  0.3843  2.8159
  257MOL0     H35454  10.463   4.951   0.996  0.2404  0.3961  0.6347
  257MOL0     H35455  10.590   5.011   0.888 -0.7472  2.0302  0.1531
  257MOL0     H35456  10.624   4.803   1.003  1.1807  0.4127 -2.3879
  257MOL0     H35457  10.657   4.881   1.153  0.6308 -3.3848 -0.8867
  257MOL0     H35458  10.793   4.962   0.904 -0.8114  0.3964 -0.7931
  257MOL0     H35459  10.857   4.970   1.077  0.9508 -0.7032  0.6442
  257MOL0     H35460  10.822   4.707   0.941 -0.0760 -0.4462  0.7606
  257MOL0     H35461  10.880   4.738   1.103 -1.0716 -0.8387  0.4587
  257MOL0     H35462  11.241   4.819   0.925 -1.0726  2.7449 -2.7417
  257MOL0     H35463  10.360   5.003   1.174 -1.5025  0.7479 -0.9094
  257MOL0     H35464  10.106   5.091   1.281 -1.3139 -1.4587  0.7921
  257MOL0     H35465  10.220   4.968   1.341  3.4024  0.9166  1.5442
  257MOL0     H35466  10.163   5.099   1.451  2.1848  3.3449 -0.3011
  258MOL0     O35467   1.616   1.581  10.229  0.0371  0.1129  0.4041
  258MOL0     C35468   1.624   1.690  10.271  0.4864 -0.2359  0.9710
  258MOL0     O35469   1.743   1.770  10.270  0.4170  0.5335  0.2235
  258MOL0     C35470   1.862   1.734  10.201  0.1372  1.2179 -0.3364
  258MOL0     C35471   1.877   1.666  10.076  0.5560 -0.3224 -0.3831
  258MOL0     C35472   2.004   1.663  10.013  0.2928 -0.1416  0.0162
  258MOL0     C35473   2.120   1.718  10.069 -0.7146  0.0460  0.0833
  258MOL0     O35474   2.242   1.698  10.013  1.0772  0.6719  0.1300
  258MOL0     C35475   2.325   1.813   9.994 -0.1203  0.7803 -0.1703
  258MOL0     C35476   2.455   1.781   9.905  0.2620  0.2393 -0.2153
  258MOL0     C35477   2.558   1.697   9.992 -0.2494  0.4998  0.0936
  258MOL0     C35478   2.692   1.690   9.914  1.2705  0.9350 -0.2617
  258MOL0     C35479   2.788   1.594   9.975 -0.2873 -0.3428 -0.2235
  258MOL0     C35480   2.929   1.630   9.913 -0.8448 -0.0616 -0.0260
  258MOL0     C35481   3.030   1.512   9.954  0.0830 -0.9412  0.2000
  258MOL0     C35482   3.156   1.531   9.865 -0.4017  0.1404  0.1213
  258MOL0     N35483   3.236   1.647   9.900 -0.1200  0.0014 -0.1833
  258MOL0     C35484   3.312   1.675  10.013  0.7898 -0.3102  0.0073
  258MOL0     C35485   3.362   1.793   9.999 -1.2121 -0.3322  0.0334
  258MOL0     C35486   3.423   1.871  10.115 -0.0883 -0.4761 -0.1023
  258MOL0     C35487   3.313   1.926  10.209 -0.3556 -0.3661  0.5700
  258MOL0     C35488   3.215   2.024  10.141 -0.2668  0.5162 -0.8553
  258MOL0     C35489   3.113   2.081  10.238  0.3463 -0.5861  0.0852
  258MOL0     O35490   3.009   1.974  10.240 -0.8298 -0.0248  0.0867
  258MOL0     C35491   2.893   1.998  10.309  0.1115 -0.0702  0.7079
  258MOL0     C35492   2.860   2.116  10.375 -1.2679 -0.0049  0.5753
  258MOL0     C35493   2.728   2.125  10.432  0.5834 -0.6172 -0.3791
  258MOL0     C35494   2.680   2.263  10.484 -0.4876 -0.1597  0.4740
  258MOL0     C35495   2.644   2.012  10.432  0.3840  1.0795  0.3876
  258MOL0     C35496   2.512   2.013  10.499 -0.3790  0.0400 -0.7004
  258MOL0     O35497   2.411   1.961  10.421 -0.3542 -0.8119 -0.1693
  258MOL0     C35498   2.318   1.894  10.502 -0.4241 -0.8087 -0.1433
  258MOL0     C35499   2.363   1.790  10.583 -0.7110  0.1210  0.3465
  258MOL0     C35500   2.268   1.722  10.668  0.8234  0.0533  0.4526
  258MOL0     C35501   2.132   1.757  10.658 -0.0447  0.9940 -0.7480
  258MOL0     O35502   2.058   1.689  10.750 -0.2519  0.7528 -0.5109
  258MOL0     C35503   1.918   1.678  10.732  0.5417  0.2086 -0.3189
  258MOL0     C35504   1.868   1.569  10.820  0.7683  0.1925  0.4890
  258MOL0     C35505   1.724   1.525  10.775 -0.1586 -0.8907 -0.3630
  258MOL0     C35506   1.626   1.629  10.811  1.1379  0.6578  0.8794
  258MOL0     C35507   1.489   1.579  10.771 -0.3729 -0.2597  0.1840
  258MOL0     C35508   1.372   1.661  10.833 -0.6858  0.6276 -0.2049
  258MOL0     C35509   1.367   1.809  10.774  0.2800  0.0374 -0.4965
  258MOL0     C35510   1.252   1.893  10.834 -0.1701  0.0306  0.0762
  258MOL0    Cl35511   1.270   2.066  10.790  0.2402  0.3174 -0.2001
  258MOL0     C35512   2.087   1.865  10.585 -0.0075 -0.8582 -0.0819
  258MOL0     C35513   2.185   1.937  10.504  0.2582  0.3402  0.6765
  258MOL0     O35514   2.494   2.041  10.616  0.0357  0.1335  0.7250
  258MOL0     C35515   2.684   1.894  10.360 -1.2589 -0.2199  0.3044
  258MOL0     C35516   2.807   1.893  10.306  0.1462  0.0271  0.6992
  258MOL0     N35517   3.368   1.822   9.869 -0.3731 -0.0560  0.1264
  258MOL0     N35518   3.290   1.731   9.812  0.7692 -0.9132 -0.3234
  258MOL0     C35519   2.103   1.786  10.194 -0.4204 -0.2099  0.2832
  258MOL0     C35520   1.978   1.800  10.248  0.7807 -0.4004  0.0858
  258MOL0     C35521   1.492   1.735  10.307 -0.8379 -0.0930 -0.1251
  258MOL0     C35522   1.398   1.642  10.362 -0.0096 -0.3074  0.0111
  258MOL0     C35523   1.266   1.689  10.393  0.3450  0.7863  0.4274
  258MOL0     C35524   1.228   1.824  10.393  0.3209  0.0260  0.5347
  258MOL0     O35525   1.106   1.874  10.423  0.1431  0.4976  0.1273
  258MOL0     C35526   0.987   1.791  10.417  0.6992  0.3340 -0.2243
  258MOL0     C35527   0.909   1.783  10.564 -0.4828  0.2492 -0.5099
  258MOL0     C35528   0.961   1.681  10.666  0.0257  0.7942  0.2062
  258MOL0     C35529   0.926   1.534  10.628 -0.8371 -0.6404  0.2706
  258MOL0     C35530   1.040   1.443  10.620  0.8502  0.1168 -0.7165
  258MOL0     C35531   1.126   1.353  10.614  0.1836 -0.4522 -0.3609
  258MOL0     C35532   1.332   1.913  10.352  0.8218  0.3209  0.1840
  258MOL0     C35533   1.457   1.872  10.303 -0.0904 -0.3127 -0.2944
  258MOL0     C35534   1.544   1.988  10.249 -0.2891  0.7619 -0.0153
  258MOL0     H35535   1.784   1.626  10.037 -0.2692  1.3378 -0.1784
  258MOL0     H35536   2.000   1.618   9.915 -2.0959 -0.9799  0.4358
  258MOL0     H35537   2.360   1.858  10.087  1.6471  1.9204 -1.3361
  258MOL0     H35538   2.261   1.886   9.943 -1.1954  1.2880  1.8076
  258MOL0     H35539   2.420   1.722   9.820  0.3849  0.8578 -0.7073
  258MOL0     H35540   2.508   1.871   9.872  1.1461 -0.6503 -1.2790
  258MOL0     H35541   2.576   1.741  10.091 -1.2556  2.3040 -0.4827
  258MOL0     H35542   2.529   1.592  10.000 -3.0682  0.5767 -5.1079
  258MOL0     H35543   2.663   1.654   9.815  0.4819 -2.2106  1.0103
  258MOL0     H35544   2.730   1.792   9.901 -1.7847  2.2859  0.4279
  258MOL0     H35545   2.750   1.491   9.973  0.1119 -0.5095  0.5670
  258MOL0     H35546   2.786   1.620  10.081  0.1393 -0.3861 -0.2046
  258MOL0     H35547   2.920   1.636   9.805 -0.6089 -1.4600 -0.1455
  258MOL0     H35548   2.970   1.728   9.940 -1.7027  0.6386 -1.1995
  258MOL0     H35549   2.974   1.418   9.948 -1.8552  0.2138 -0.6171
  258MOL0     H35550   3.073   1.535  10.052  0.3543  0.1138 -0.1496
  258MOL0     H35551   3.226   1.447   9.874 -0.1443  0.2793 -0.5353
  258MOL0     H35552   3.121   1.537   9.762  0.2646  2.6922 -0.0286
  258MOL0     H35553   3.312   1.612  10.102 -0.7511 -1.0255 -0.4563
  258MOL0     H35554   3.476   1.959  10.076 -1.5307  1.1133  1.3754
  258MOL0     H35555   3.504   1.821  10.168 -0.8954 -0.1568  1.4893
  258MOL0     H35556   3.252   1.848  10.256 -0.8192 -0.2242  0.2123
  258MOL0     H35557   3.349   1.983  10.295 -0.4821  1.3333 -0.4451
  258MOL0     H35558   3.269   2.103  10.087  2.0204  0.4440  1.1818
  258MOL0     H35559   3.158   1.968  10.067 -3.3051  0.9065  1.0175
  258MOL0     H35560   3.152   2.096  10.339 -0.5716 -0.8244  0.4779
  258MOL0     H35561   3.072   2.172  10.194 -0.2105  0.5026  2.6934
  258MOL0     H35562   2.933   2.196  10.375 -3.2042  1.9083 -1.3892
  258MOL0     H35563   2.584   2.292  10.439 -0.2101 -0.3160 -0.2366
  258MOL0     H35564   2.740   2.347  10.447 -1.2787  0.7707  1.2495
  258MOL0     H35565   2.660   2.279  10.590  0.0777 -2.1101  0.9173
  258MOL0     H35566   2.461   1.748  10.561 -0.1851  1.4833  0.0023
  258MOL0     H35567   2.291   1.637  10.732  2.3909 -0.7064 -1.0346
  258MOL0     H35568   1.863   1.766  10.766 -2.1844 -2.3345  2.3315
  258MOL0     H35569   1.896   1.644  10.630 -2.4206  0.6040  0.1072
  258MOL0     H35570   1.926   1.477  10.802  1.0628  0.4191  0.2626
  258MOL0     H35571   1.870   1.596  10.925 -0.1618  1.3621  0.2244
  258MOL0     H35572   1.704   1.428  10.822  0.0186 -1.0275 -0.5643
  258MOL0     H35573   1.717   1.501  10.668 -0.5168 -4.0754  0.2643
  258MOL0     H35574   1.639   1.712  10.740  1.6842 -1.6402 -1.9082
  258MOL0     H35575   1.637   1.653  10.917  2.6630  1.3726  0.5930
  258MOL0     H35576   1.481   1.567  10.663 -0.2151  1.7705 -0.0931
  258MOL0     H35577   1.476   1.477  10.809 -1.1392 -0.4491 -0.5720
  258MOL0     H35578   1.379   1.657  10.942  2.4041 -0.8273 -0.3404
  258MOL0     H35579   1.277   1.611  10.813 -0.7632 -0.0591  1.6758
  258MOL0     H35580   1.338   1.805  10.669  0.2888 -3.9413 -0.5149
  258MOL0     H35581   1.464   1.856  10.788  0.8281 -0.9375 -0.9016
  258MOL0     H35582   1.250   1.889  10.943 -1.1556  0.7522  0.0928
  258MOL0     H35583   1.158   1.850  10.798 -0.2249  0.3081 -0.1159
  258MOL0     H35584   1.987   1.908  10.578  1.5604  3.0975 -0.6442
  258MOL0     H35585   2.157   2.029  10.453  0.7429  0.8321  1.2752
  258MOL0     H35586   2.616   1.811  10.343 -1.3149 -0.2760  0.7747
  258MOL0     H35587   2.839   1.803  10.256 -2.0895 -1.4465  1.7799
  258MOL0     H35588   2.186   1.832  10.248  0.4820 -2.1249  0.5999
  258MOL0     H35589   1.965   1.865  10.334  1.1392  0.0132 -0.1720
  258MOL0     H35590   1.419   1.535  10.357  0.9280 -0.2353  1.7820
  258MOL0     H35591   1.191   1.613  10.411 -2.4745  3.4387  0.5100
  258MOL0     H35592   0.918   1.827  10.340 -0.3941 -1.8383 -0.3377
  258MOL0     H35593   1.003   1.690  10.379 -0.5109  0.9790 -2.6512
  258MOL0     H35594   0.807   1.758  10.534  0.2486 -1.7429 -1.5639
  258MOL0     H35595   0.918   1.886  10.598  2.0367  0.9558 -2.9160
  258MOL0     H35596   1.068   1.690  10.686  0.8400 -0.7544 -2.8841
  258MOL0     H35597   0.919   1.705  10.764 -5.1808 -0.0671 -1.4877
  258MOL0     H35598   0.861   1.537  10.540 -0.6895  2.6843  0.1404
  258MOL0     H35599   0.861   1.503  10.709 -1.2963  0.8144  0.4898
  258MOL0     H35600   1.212   1.293  10.591  1.2023  0.2855  1.3619
  258MOL0     H35601   1.298   2.016  10.355 -0.1783  0.0033  0.0306
  258MOL0     H35602   1.636   1.989  10.308 -0.4528 -1.0374  0.3350
  258MOL0     H35603   1.567   1.968  10.144  0.1007  2.3162 -0.2464
  258MOL0     H35604   1.485   2.079  10.265 -0.7921  0.6062 -0.9059
  259MOL0     O35605   5.399   7.319   1.896 -0.4389  0.4393  0.3851
  259MOL0     C35606   5.343   7.210   1.864 -0.0044 -0.4369 -0.5222
  259MOL0     O35607   5.407   7.084   1.862 -1.0399 -0.6022 -0.0734
  259MOL0     C35608   5.545   7.079   1.894 -0.4835 -0.4089  0.5632
  259MOL0     C35609   5.650   7.075   1.797  0.1380  1.0195 -0.6883
  259MOL0     C35610   5.783   7.067   1.836 -0.2575 -0.2805  0.3397
  259MOL0     C35611   5.820   7.038   1.970  0.8717  0.1152 -1.0892
  259MOL0     O35612   5.948   7.025   2.012 -0.0946  0.3151  0.6671
  259MOL0     C35613   5.977   6.951   2.134 -0.1051  0.4584 -0.1893
  259MOL0     C35614   6.119   6.904   2.122 -0.8332 -0.3982 -0.8738
  259MOL0     C35615   6.212   7.017   2.094 -0.0572  0.5315 -0.2959
  259MOL0     C35616   6.347   6.961   2.057 -0.4376  0.2366 -0.3856
  259MOL0     C35617   6.462   7.061   2.024  0.1786  0.6782  0.5322
  259MOL0     C35618   6.414   7.146   1.905  0.1524  0.0285 -0.2679
  259MOL0     C35619   6.532   7.208   1.834 -0.3313 -0.7426  1.1439
  259MOL0     C35620   6.588   7.325   1.917  0.7323  0.0111 -0.7246
  259MOL0     N35621   6.698   7.385   1.844 -0.2348  0.0587  0.6450
  259MOL0     C35622   6.822   7.330   1.829 -0.3678 -0.7583 -1.3865
  259MOL0     C35623   6.897   7.429   1.767 -0.1193  0.5289  0.5962
  259MOL0     C35624   7.040   7.423   1.734  0.1900 -0.2627  0.3477
  259MOL0     C35625   7.126   7.508   1.839 -0.0820  0.4370  0.4172
  259MOL0     C35626   7.151   7.418   1.961  0.0140  0.3976 -0.2365
  259MOL0     C35627   7.262   7.479   2.045  0.6274  0.2721 -0.8067
  259MOL0     O35628   7.393   7.491   1.982 -0.2651  0.1533 -0.3393
  259MOL0     C35629   7.477   7.591   2.024  0.1904  0.6283  0.1920
  259MOL0     C35630   7.541   7.582   2.149  0.6548  0.1882  0.0609
  259MOL0     C35631   7.624   7.687   2.189 -0.1664  1.1969 -0.3971
  259MOL0     C35632   7.703   7.664   2.314 -0.3662  0.7305 -0.3457
  259MOL0     C35633   7.650   7.797   2.102  0.0163  0.6111 -0.3419
  259MOL0     C35634   7.740   7.911   2.129 -0.4804 -0.0350  0.4195
  259MOL0     O35635   7.728   8.020   2.054  0.5469 -0.5527  0.2372
  259MOL0     C35636   7.819   8.123   2.059  0.0149  0.0802  0.2981
  259MOL0     C35637   7.922   8.117   1.963 -0.5717 -0.3381 -0.3601
  259MOL0     C35638   8.014   8.225   1.948 -0.0678 -0.7552 -0.0108
  259MOL0     C35639   7.991   8.343   2.018 -0.4103 -0.0733  0.1759
  259MOL0     O35640   8.087   8.446   2.006 -0.0835  1.0850  0.2729
  259MOL0     C35641   8.054   8.587   2.034 -1.0480 -0.0835  0.1427
  259MOL0     C35642   8.168   8.689   1.998 -0.9299  0.5736 -0.1454
  259MOL0     C35643   8.197   8.708   1.847  0.0013  0.6004  0.3990
  259MOL0     C35644   8.330   8.770   1.830  1.3672  0.8177  0.2098
  259MOL0     C35645   8.347   8.776   1.674  0.2020 -0.1309 -1.2242
  259MOL0     C35646   8.492   8.792   1.631  0.3991 -0.1941 -0.3520
  259MOL0     C35647   8.504   8.867   1.506  0.7276 -0.4283  0.6140
  259MOL0     C35648   8.641   8.879   1.442 -0.7240  0.6409 -1.0457
  259MOL0    Cl35649   8.735   9.014   1.510 -0.3903 -0.3998 -0.5702
  259MOL0     C35650   7.879   8.341   2.102 -0.3042 -0.4291  0.2094
  259MOL0     C35651   7.795   8.234   2.139 -0.3554 -0.0043 -0.6167
  259MOL0     O35652   7.833   7.889   2.208 -0.2829 -0.0386 -0.1830
  259MOL0     C35653   7.574   7.802   1.985 -0.2468  0.8642  0.6214
  259MOL0     C35654   7.496   7.698   1.945 -0.3142 -0.8637 -0.2299
  259MOL0     N35655   6.813   7.535   1.734  0.4814  0.3702  0.6042
  259MOL0     N35656   6.693   7.506   1.783 -0.5870 -0.1825  0.7422
  259MOL0     C35657   5.714   7.034   2.064 -0.5951 -0.7055 -0.3106
  259MOL0     C35658   5.584   7.061   2.024  0.0209 -0.7315  0.0386
  259MOL0     C35659   5.199   7.208   1.834  0.3245 -0.5336  0.0718
  259MOL0     C35660   5.132   7.088   1.841  0.1518 -0.2953  0.4437
  259MOL0     C35661   4.993   7.074   1.802 -0.8656 -0.4820  0.3533
  259MOL0     C35662   4.921   7.186   1.762  0.4467 -0.3301 -0.3672
  259MOL0     O35663   4.787   7.185   1.741 -0.1536 -0.1124  0.3374
  259MOL0     C35664   4.712   7.257   1.838 -0.5851 -0.1766  0.9332
  259MOL0     C35665   4.561   7.246   1.821 -0.2253 -0.1422  0.1159
  259MOL0     C35666   4.513   7.106   1.843 -0.6040  0.2602  0.4569
  259MOL0     C35667   4.508   7.054   1.993 -0.3972  0.1850 -0.0087
  259MOL0     C35668   4.629   6.977   2.019 -0.8036 -0.4769  0.5279
  259MOL0     C35669   4.735   6.920   2.044  0.9157 -0.5436 -0.5456
  259MOL0     C35670   4.992   7.302   1.751 -0.1072 -0.2895  0.1326
  259MOL0     C35671   5.126   7.317   1.787 -0.0646 -0.2323  0.3350
  259MOL0     C35672   5.191   7.450   1.755 -0.5653 -0.1343 -0.0441
  259MOL0     H35673   5.615   7.094   1.696 -0.1318  1.4215 -0.5239
  259MOL0     H35674   5.857   7.096   1.762  0.5076 -2.0516  0.3671
  259MOL0     H35675   5.912   6.863   2.130  0.7786 -0.1569 -2.0985
  259MOL0     H35676   5.975   7.016   2.223  0.3086  0.7311 -0.3733
  259MOL0     H35677   6.140   6.864   2.221  0.9745 -0.6952 -1.3502
  259MOL0     H35678   6.120   6.835   2.037  1.9225 -1.0247 -0.4268
  259MOL0     H35679   6.187   7.070   2.002 -1.3695 -0.0286 -0.2821
  259MOL0     H35680   6.212   7.087   2.178  1.1275  0.3139 -0.0931
  259MOL0     H35681   6.393   6.897   2.133  1.9839  0.1469 -1.8056
  259MOL0     H35682   6.336   6.894   1.971  0.7760  1.8843 -1.8880
  259MOL0     H35683   6.558   7.011   2.010  0.6315  1.5342  0.5133
  259MOL0     H35684   6.478   7.140   2.099 -0.2192  0.3390  0.9792
  259MOL0     H35685   6.367   7.080   1.832  0.9929  1.6532 -2.3996
  259MOL0     H35686   6.339   7.217   1.943  1.0501  0.0624  1.5508
  259MOL0     H35687   6.497   7.250   1.739 -0.0356 -0.8504  0.9879
  259MOL0     H35688   6.613   7.138   1.814  1.5055  0.5923  3.3898
  259MOL0     H35689   6.500   7.387   1.937 -2.4084 -3.6473 -2.0984
  259MOL0     H35690   6.620   7.278   2.010 -2.4102  2.8514  2.1113
  259MOL0     H35691   6.861   7.230   1.848 -0.0375 -0.6759 -1.6247
  259MOL0     H35692   7.046   7.486   1.645  1.4615  1.2654  1.4316
  259MOL0     H35693   7.070   7.319   1.717 -1.4370 -1.4044  3.5679
  259MOL0     H35694   7.222   7.545   1.803  1.4492  0.0074  3.7631
  259MOL0     H35695   7.076   7.599   1.874  0.1603  0.1170  1.6382
  259MOL0     H35696   7.063   7.418   2.027  0.4482  0.1060  0.3528
  259MOL0     H35697   7.180   7.317   1.932 -2.3417 -0.2710 -0.4714
  259MOL0     H35698   7.218   7.576   2.070 -0.2004  0.0828 -1.4925
  259MOL0     H35699   7.278   7.421   2.137 -1.2879  1.9924  0.7122
  259MOL0     H35700   7.532   7.499   2.218 -0.9842 -1.5400 -2.0926
  259MOL0     H35701   7.641   7.597   2.374 -0.2161 -0.4529 -1.4724
  259MOL0     H35702   7.718   7.756   2.371  0.8781  1.6521 -2.0779
  259MOL0     H35703   7.796   7.610   2.295  1.0576  2.2522  1.9084
  259MOL0     H35704   7.928   8.036   1.891  0.6081 -1.9598  1.4452
  259MOL0     H35705   8.096   8.215   1.878  1.2960  1.4379  1.1530
  259MOL0     H35706   7.970   8.619   1.971  0.6281  0.0454 -2.1719
  259MOL0     H35707   8.024   8.607   2.137 -0.3412  1.0054  0.1567
  259MOL0     H35708   8.129   8.782   2.041 -1.6817 -0.4941  1.5751
  259MOL0     H35709   8.260   8.655   2.046 -1.9169 -0.7479  0.8895
  259MOL0     H35710   8.125   8.781   1.808  0.6860  0.2667 -1.5791
  259MOL0     H35711   8.184   8.620   1.783  2.0365  2.4869 -2.8740
  259MOL0     H35712   8.418   8.728   1.879 -0.2317 -1.5044  1.2917
  259MOL0     H35713   8.316   8.870   1.873 -2.4749  0.4695  0.1000
  259MOL0     H35714   8.315   8.678   1.636 -0.0659 -0.8138  0.6580
  259MOL0     H35715   8.277   8.847   1.629 -0.4541  0.4313  0.5837
  259MOL0     H35716   8.548   8.699   1.622 -1.9754 -1.5867 -1.6445
  259MOL0     H35717   8.548   8.847   1.708  0.3113  0.1572 -0.5338
  259MOL0     H35718   8.469   8.969   1.526  2.6805 -0.0341  2.2812
  259MOL0     H35719   8.437   8.815   1.437 -1.0009  2.3519  0.0131
  259MOL0     H35720   8.632   8.902   1.336  1.4211  0.4278 -1.3266
  259MOL0     H35721   8.690   8.782   1.455 -0.0108  1.1656  0.3982
  259MOL0     H35722   7.840   8.433   2.145 -1.8559 -0.8196 -0.2918
  259MOL0     H35723   7.711   8.243   2.207  1.0428  0.4880  1.1296
  259MOL0     H35724   7.577   7.893   1.926  4.1995  0.1136 -0.6758
  259MOL0     H35725   7.447   7.703   1.848  2.1284  0.5865 -1.5041
  259MOL0     H35726   5.736   7.017   2.169  3.0755  2.5810 -0.3295
  259MOL0     H35727   5.511   7.072   2.104  0.8964  0.9303  0.6488
  259MOL0     H35728   5.180   6.995   1.871 -1.1486 -1.4307 -0.7997
  259MOL0     H35729   4.942   6.980   1.823  0.0153 -0.6786  1.7825
  259MOL0     H35730   4.738   7.231   1.941  1.5265  1.0649  0.7949
  259MOL0     H35731   4.745   7.361   1.823  0.3868 -0.4341  1.1732
  259MOL0     H35732   4.539   7.276   1.718  1.6329 -0.3490 -0.3691
  259MOL0     H35733   4.509   7.316   1.887 -0.1565 -1.2175  1.3349
  259MOL0     H35734   4.412   7.113   1.803 -0.7823 -2.6183  0.1624
  259MOL0     H35735   4.576   7.042   1.781  0.5634  1.5207  0.3071
  259MOL0     H35736   4.419   6.993   2.012  1.3861 -2.4420  0.5220
  259MOL0     H35737   4.511   7.134   2.066  3.5080 -0.8383  1.1513
  259MOL0     H35738   4.827   6.869   2.066  0.8529 -0.7213 -0.6992
  259MOL0     H35739   4.943   7.387   1.703  0.4284 -0.5086 -0.8288
  259MOL0     H35740   5.289   7.445   1.707 -0.1732 -0.8310  0.8121
  259MOL0     H35741   5.126   7.511   1.691  0.1294  2.2013  1.3464
  259MOL0     H35742   5.208   7.505   1.848  1.2262 -1.2872  0.3562
  260MOL0     O35743   6.004   9.951   6.917  0.1347  0.6852  0.1593
  260MOL0     C35744   5.966  10.057   6.859 -0.7465  0.0682 -0.6776
  260MOL0     O35745   5.998  10.185   6.901  0.5010  0.4992  0.3749
  260MOL0     C35746   6.114  10.185   6.977 -0.3550  0.1994  0.3742
  260MOL0     C35747   6.125  10.120   7.100  0.0975 -0.9283 -0.8442
  260MOL0     C35748   6.247  10.136   7.169 -0.2245 -0.4262 -0.0613
  260MOL0     C35749   6.345  10.216   7.135  0.0625 -0.7531  0.2275
  260MOL0     O35750   6.456  10.226   7.221  0.2923 -0.4332  0.3356
  260MOL0     C35751   6.547  10.119   7.207  0.7921 -0.7682 -0.0605
  260MOL0     C35752   6.646  10.157   7.099 -0.2240  0.5559 -0.2325
  260MOL0     C35753   6.735  10.038   7.049  0.5384 -0.1319 -0.0637
  260MOL0     C35754   6.834  10.081   6.943 -0.6750 -0.4547  0.0301
  260MOL0     C35755   6.906   9.970   6.865 -0.0722 -0.3426  0.0050
  260MOL0     C35756   7.056  10.005   6.846  0.6777  0.5227 -0.3937
  260MOL0     C35757   7.142   9.879   6.827  0.3813 -0.1335 -0.1901
  260MOL0     C35758   7.290   9.920   6.810 -0.0315  0.2621 -0.2321
  260MOL0     N35759   7.381   9.801   6.819  0.0526 -0.1851 -0.3854
  260MOL0     C35760   7.454   9.754   6.929  0.7106  0.2413  0.6426
  260MOL0     C35761   7.536   9.654   6.880  0.1664 -0.7757  0.0940
  260MOL0     C35762   7.637   9.578   6.969 -0.0989 -0.5084  0.5097
  260MOL0     C35763   7.784   9.587   6.916  0.2549 -0.1925 -0.1603
  260MOL0     C35764   7.885   9.528   7.019  0.0546 -0.4441 -0.2723
  260MOL0     C35765   8.028   9.556   6.999 -0.4491  0.0442  0.6356
  260MOL0     O35766   8.106   9.479   7.087  0.1104 -0.3444 -0.2889
  260MOL0     C35767   8.245   9.487   7.095 -0.4900  0.0107 -0.1474
  260MOL0     C35768   8.310   9.388   7.157  0.2089  0.3628 -0.1267
  260MOL0     C35769   8.450   9.369   7.162 -0.2403 -0.7837 -0.2909
  260MOL0     C35770   8.514   9.252   7.229 -0.0561  0.9536 -0.2298
  260MOL0     C35771   8.526   9.459   7.083 -0.1879  0.9177 -0.8318
  260MOL0     C35772   8.672   9.438   7.047 -0.6031  0.5024  0.9224
  260MOL0     O35773   8.746   9.556   6.995  0.9011  0.1909 -0.5374
  260MOL0     C35774   8.875   9.535   6.949 -0.0422 -0.5463 -0.5932
  260MOL0     C35775   8.966   9.464   7.030 -0.1055 -1.1277 -0.7975
  260MOL0     C35776   9.105   9.466   7.007 -0.0720  0.8315  0.3713
  260MOL0     C35777   9.158   9.524   6.894  0.0045 -0.2889  0.1892
  260MOL0     O35778   9.290   9.498   6.860  0.6815  0.1162 -0.9125
  260MOL0     C35779   9.354   9.543   6.736 -0.7756  0.7661  0.0245
  260MOL0     C35780   9.500   9.496   6.730 -1.0875  0.5066  0.2577
  260MOL0     C35781   9.574   9.586   6.630 -0.1692  0.1540 -0.0941
  260MOL0     C35782   9.702   9.522   6.574  0.1054 -0.0214 -0.5277
  260MOL0     C35783   9.711   9.533   6.415  0.6053  0.2851  0.1005
  260MOL0     C35784   9.707   9.679   6.357 -0.6944  0.3657  0.1518
  260MOL0     C35785   9.710   9.671   6.206  0.2210  0.0835 -0.5188
  260MOL0     C35786   9.719   9.808   6.135 -0.2609  0.1656  0.2667
  260MOL0    Cl35787   9.705   9.768   5.961 -0.0730 -0.4127 -0.6448
  260MOL0     C35788   9.072   9.611   6.817 -1.0124  1.0558  0.2558
  260MOL0     C35789   8.936   9.610   6.846  0.0223 -0.5693  0.4417
  260MOL0     O35790   8.710   9.321   7.042  0.5554  0.3300  0.1102
  260MOL0     C35791   8.463   9.569   7.024  0.3842 -0.2789  0.1140
  260MOL0     C35792   8.322   9.578   7.028 -0.3301  0.4066 -1.1374
  260MOL0     N35793   7.513   9.641   6.743 -0.6539  0.2905  0.8049
  260MOL0     N35794   7.416   9.724   6.703 -0.1968  0.0383 -0.1130
  260MOL0     C35795   6.326  10.294   7.019  0.7037  0.5768  0.3023
  260MOL0     C35796   6.212  10.274   6.941  0.6546 -0.0202 -0.5019
  260MOL0     C35797   5.865  10.040   6.759 -0.0667 -0.1378  0.3072
  260MOL0     C35798   5.779  10.148   6.741  0.0599  0.1436  0.9708
  260MOL0     C35799   5.671  10.148   6.653 -0.2276 -0.9040  0.6801
  260MOL0     C35800   5.639  10.041   6.571  0.1672 -0.6902 -0.9229
  260MOL0     O35801   5.534  10.065   6.486  0.1983 -0.6671  0.0452
  260MOL0     C35802   5.418   9.984   6.495  0.4577  0.2258 -0.0385
  260MOL0     C35803   5.325  10.021   6.609 -0.1308  0.4827 -0.5982
  260MOL0     C35804   5.363   9.954   6.745  0.9720 -0.8927 -0.1164
  260MOL0     C35805   5.254   9.954   6.853 -0.1658  0.1165 -0.7537
  260MOL0     C35806   5.250  10.087   6.914 -0.0697  0.1849  0.3519
  260MOL0     C35807   5.250  10.202   6.953 -0.4529  0.6258 -0.8090
  260MOL0     C35808   5.728   9.931   6.570 -0.4838  1.5182 -0.3600
  260MOL0     C35809   5.843   9.930   6.658 -0.4509  0.4921 -0.5307
  260MOL0     C35810   5.943   9.819   6.644 -0.6006 -0.2246  1.5046
  260MOL0     H35811   6.046  10.061   7.146  0.7752 -1.0826  0.1612
  260MOL0     H35812   6.264  10.069   7.253  1.3774  0.6015  0.4803
  260MOL0     H35813   6.505  10.019   7.193 -2.3519  0.5363 -0.8896
  260MOL0     H35814   6.603  10.123   7.300 -1.0140  0.0004  1.0573
  260MOL0     H35815   6.584  10.194   7.017 -1.3044 -1.0575 -0.1882
  260MOL0     H35816   6.708  10.241   7.132  0.8262 -0.4042  0.2995
  260MOL0     H35817   6.784  10.002   7.140 -0.9854  1.5154  1.4915
  260MOL0     H35818   6.663   9.971   7.001  1.3865 -2.7723  2.0933
  260MOL0     H35819   6.777  10.137   6.869 -0.8750  0.5539  0.9328
  260MOL0     H35820   6.910  10.153   6.977  0.6299 -1.8260  0.1390
  260MOL0     H35821   6.857   9.945   6.770 -0.3467  1.6498 -0.4313
  260MOL0     H35822   6.901   9.878   6.923  0.2883  0.8357  1.9971
  260MOL0     H35823   7.064  10.065   6.754 -2.1470 -0.3086 -1.2684
  260MOL0     H35824   7.093  10.071   6.925 -2.3451  2.6163 -0.5646
  260MOL0     H35825   7.113   9.817   6.742 -0.3658  1.1695 -0.9230
  260MOL0     H35826   7.137   9.821   6.919 -0.4232 -2.2066 -1.4583
  260MOL0     H35827   7.311   9.957   6.710 -0.2609 -1.8099 -1.0871
  260MOL0     H35828   7.326   9.985   6.891 -2.4015  1.2125  0.1383
  260MOL0     H35829   7.441   9.798   7.027 -1.6035 -0.2853  0.6352
  260MOL0     H35830   7.602   9.475   6.980  2.7901 -1.5012  1.4111
  260MOL0     H35831   7.624   9.626   7.067 -0.5123  1.5022 -0.4619
  260MOL0     H35832   7.788   9.536   6.819  2.9250  2.4359 -1.6359
  260MOL0     H35833   7.811   9.692   6.897  2.9104 -0.9646 -1.1443
  260MOL0     H35834   7.858   9.581   7.111  1.2414  1.8543 -1.1749
  260MOL0     H35835   7.872   9.422   7.040  0.0075 -0.2514  0.7563
  260MOL0     H35836   8.063   9.528   6.900 -0.6846 -3.7603  1.4776
  260MOL0     H35837   8.030   9.664   7.017 -3.7132  0.2231  0.4614
  260MOL0     H35838   8.244   9.309   7.188  1.0631  0.0562  0.9893
  260MOL0     H35839   8.515   9.162   7.168 -0.4323  1.1243 -0.4885
  260MOL0     H35840   8.462   9.235   7.324  1.1119  2.7465  0.8017
  260MOL0     H35841   8.617   9.276   7.259  0.3559  0.0489 -0.8691
  260MOL0     H35842   8.941   9.419   7.126  2.1185  1.8980  1.4103
  260MOL0     H35843   9.172   9.421   7.079 -1.8019 -0.2823  1.3661
  260MOL0     H35844   9.299   9.508   6.648  0.3758 -1.1436  0.0042
  260MOL0     H35845   9.378   9.649   6.737 -0.9569  0.8142  1.3299
  260MOL0     H35846   9.559   9.506   6.822  0.3973  0.4724 -0.6599
  260MOL0     H35847   9.515   9.390   6.705  3.5885  0.8429  0.7265
  260MOL0     H35848   9.578   9.690   6.664 -2.6076 -0.3824  2.1053
  260MOL0     H35849   9.503   9.599   6.548 -1.6285 -1.1965  0.9052
  260MOL0     H35850   9.699   9.417   6.607 -0.9609  0.5151  1.1697
  260MOL0     H35851   9.789   9.571   6.620 -0.1361 -2.1445  2.5576
  260MOL0     H35852   9.803   9.481   6.388  1.0587  1.7698 -1.3665
  260MOL0     H35853   9.623   9.486   6.369  0.4714  2.8328 -2.5008
  260MOL0     H35854   9.796   9.730   6.394  0.6243  0.3870 -2.7625
  260MOL0     H35855   9.617   9.735   6.383  0.1670  1.4619  0.8648
  260MOL0     H35856   9.625   9.613   6.171 -0.4672  0.3507  0.6477
  260MOL0     H35857   9.799   9.615   6.178 -0.5950 -0.8014 -1.3917
  260MOL0     H35858   9.817   9.853   6.151  0.8880 -2.5175  1.4148
  260MOL0     H35859   9.631   9.867   6.164 -1.2711 -0.4651 -1.3410
  260MOL0     H35860   9.117   9.655   6.729  0.1624 -1.5737 -0.5556
  260MOL0     H35861   8.871   9.666   6.780  0.4066 -1.2188 -0.5093
  260MOL0     H35862   8.523   9.636   6.964  0.9854  0.3452  1.3558
  260MOL0     H35863   8.285   9.666   6.975 -0.7806  0.5248 -0.6278
  260MOL0     H35864   6.400  10.368   6.991  1.6057  0.4542  2.1541
  260MOL0     H35865   6.185  10.344   6.863  3.2015  0.9048 -0.6517
  260MOL0     H35866   5.779  10.236   6.804 -1.0160  1.7689 -1.1628
  260MOL0     H35867   5.611  10.238   6.659  4.7672  2.8441  0.9330
  260MOL0     H35868   5.366   9.994   6.399 -1.6402  0.2059  1.0339
  260MOL0     H35869   5.446   9.879   6.506  0.1072  0.0926 -0.3485
  260MOL0     H35870   5.232   9.970   6.581  0.2056 -0.8030  0.5467
  260MOL0     H35871   5.317  10.128   6.633  2.1149  0.1548  2.1914
  260MOL0     H35872   5.403   9.854   6.727 -0.4410 -1.3140 -1.1563
  260MOL0     H35873   5.451  10.011   6.774  0.4359 -1.1987  2.3422
  260MOL0     H35874   5.271   9.878   6.929 -0.1144 -0.9600 -1.8002
  260MOL0     H35875   5.157   9.926   6.811 -1.7814  0.5531  2.3909
  260MOL0     H35876   5.249  10.304   6.987  0.7829  0.6860 -0.8993
  260MOL0     H35877   5.723   9.848   6.500  0.3603 -0.3969  1.7023
  260MOL0     H35878   6.037   9.859   6.606 -0.0678 -0.6996  2.2995
  260MOL0     H35879   5.955   9.767   6.740  0.6669 -1.9022  0.4831
  260MOL0     H35880   5.912   9.744   6.571 -1.8000  1.8311 -0.2210
  261MOL0     O35881   5.053   5.043   1.850 -0.1729  0.2853  0.5277
  261MOL0     C35882   5.153   5.021   1.778 -0.7001  0.1572 -0.1191
  261MOL0     O35883   5.279   5.043   1.819  0.3186  0.0800 -0.2460
  261MOL0     C35884   5.285   5.061   1.958  0.2674 -0.9379 -0.1056
  261MOL0     C35885   5.267   5.195   2.007  0.2723  0.0856  0.7191
  261MOL0     C35886   5.299   5.227   2.141  0.6472  0.2879 -0.0356
  261MOL0     C35887   5.340   5.124   2.224  0.1310 -0.7612  0.4372
  261MOL0     O35888   5.384   5.166   2.347  0.2678 -0.0586  0.3020
  261MOL0     C35889   5.522   5.130   2.390  0.1669 -0.1950 -0.4848
  261MOL0     C35890   5.633   5.182   2.298  0.3074  0.0974 -0.5611
  261MOL0     C35891   5.662   5.331   2.330  0.1864 -0.2972  0.3707
  261MOL0     C35892   5.759   5.400   2.246  0.1422 -0.4203  0.2341
  261MOL0     C35893   5.783   5.544   2.292  0.6506  0.6749  0.0613
  261MOL0     C35894   5.820   5.646   2.186  0.8148 -0.1750 -0.5749
  261MOL0     C35895   5.962   5.626   2.147  0.8747  0.3437  0.0044
  261MOL0     C35896   6.064   5.632   2.256  0.6342 -0.0603 -0.7488
  261MOL0     N35897   6.196   5.617   2.198  0.3634  0.5219  0.1417
  261MOL0     C35898   6.270   5.496   2.195  1.1396 -0.5495 -0.6584
  261MOL0     C35899   6.397   5.533   2.166  0.0377 -0.6468  1.3339
  261MOL0     C35900   6.515   5.438   2.148  0.6742 -1.0212  0.8439
  261MOL0     C35901   6.622   5.468   2.263 -0.5038 -0.7333  0.6334
  261MOL0     C35902   6.720   5.569   2.198 -0.9865 -0.0321 -0.3110
  261MOL0     C35903   6.842   5.562   2.288 -1.0951  0.3472  0.2453
  261MOL0     O35904   6.944   5.667   2.258 -0.1022 -0.1944 -0.0316
  261MOL0     C35905   7.042   5.643   2.159  0.1708 -0.1987  0.9989
  261MOL0     C35906   7.040   5.536   2.069 -0.1358  0.6829 -0.3308
  261MOL0     C35907   7.146   5.516   1.979  0.0254  0.1841 -0.8186
  261MOL0     C35908   7.136   5.403   1.878  1.3096  0.1248  0.5306
  261MOL0     C35909   7.259   5.599   1.988 -0.1189 -0.0467 -0.1387
  261MOL0     C35910   7.380   5.587   1.899  0.1903  0.4089  0.0381
  261MOL0     O35911   7.478   5.665   1.923  0.8532 -0.0995 -0.4470
  261MOL0     C35912   7.586   5.682   1.845  0.1007 -0.4298  0.1136
  261MOL0     C35913   7.564   5.734   1.711  0.1993 -0.7023  0.6031
  261MOL0     C35914   7.666   5.746   1.625  1.5256 -0.3574  0.3162
  261MOL0     C35915   7.794   5.734   1.669 -0.2431  0.0267 -0.1912
  261MOL0     O35916   7.900   5.752   1.583  0.4723  0.2277  0.8006
  261MOL0     C35917   7.884   5.728   1.441  0.8631  0.1549  0.1028
  261MOL0     C35918   7.870   5.868   1.371 -0.1767  0.2112 -0.7211
  261MOL0     C35919   7.986   5.960   1.411 -0.5792 -0.1981  0.4608
  261MOL0     C35920   8.009   6.069   1.306  0.0830 -1.0065 -0.2430
  261MOL0     C35921   8.108   6.175   1.359 -0.1745  0.1445  0.0452
  261MOL0     C35922   8.243   6.130   1.406 -0.3266 -0.1581  0.3486
  261MOL0     C35923   8.337   6.093   1.284 -0.2776 -0.1157  0.4375
  261MOL0     C35924   8.331   5.952   1.251  0.1545 -0.3948  0.2368
  261MOL0    Cl35925   8.433   5.912   1.092 -0.1164  0.0826 -0.3100
  261MOL0     C35926   7.822   5.687   1.798 -0.2857  0.5492  0.2064
  261MOL0     C35927   7.714   5.667   1.891  0.3281  0.3486  0.4054
  261MOL0     O35928   7.382   5.496   1.813  0.3914 -0.8664 -0.4796
  261MOL0     C35929   7.264   5.685   2.094  0.6193 -0.1756 -0.0499
  261MOL0     C35930   7.157   5.716   2.174 -0.7869 -0.0720 -0.1949
  261MOL0     N35931   6.395   5.670   2.157 -0.1623 -0.4668 -0.0211
  261MOL0     N35932   6.279   5.720   2.178  0.2340 -0.2028  0.2963
  261MOL0     C35933   5.356   4.992   2.176 -0.2408  0.2583  0.2398
  261MOL0     C35934   5.314   4.963   2.048  0.2345 -0.3556 -0.1416
  261MOL0     C35935   5.145   4.990   1.636 -0.1135  0.5560  0.8836
  261MOL0     C35936   5.245   4.921   1.574 -0.7530 -0.0944  0.1259
  261MOL0     C35937   5.233   4.884   1.439  0.3175 -0.2261 -0.3950
  261MOL0     C35938   5.121   4.918   1.359  0.1848 -0.6899  0.7616
  261MOL0     O35939   5.101   4.885   1.226 -0.6532  0.5892 -0.5846
  261MOL0     C35940   5.195   4.798   1.156  0.5166 -0.7880 -0.1271
  261MOL0     C35941   5.151   4.652   1.164 -0.7882  0.3188 -0.0710
  261MOL0     C35942   5.010   4.647   1.101 -0.6178  0.9317 -0.7269
  261MOL0     C35943   4.958   4.498   1.087 -0.3620  0.5142  0.5105
  261MOL0     C35944   5.017   4.416   0.983  0.0451 -0.0250 -0.5411
  261MOL0     C35945   5.068   4.348   0.898  1.3470  1.1091  0.7463
  261MOL0     C35946   5.021   4.986   1.420 -0.0297  0.0081  0.1730
  261MOL0     C35947   5.027   5.023   1.556 -0.4650  0.0327 -0.6958
  261MOL0     C35948   4.908   5.098   1.616  0.4503 -0.0073  0.6098
  261MOL0     H35949   5.237   5.280   1.947 -3.1737 -0.6005  1.2471
  261MOL0     H35950   5.286   5.330   2.172 -1.8808  0.1993 -0.5903
  261MOL0     H35951   5.527   5.022   2.410  2.9204  0.2363  1.7079
  261MOL0     H35952   5.535   5.178   2.487  0.9922  0.2069 -0.7878
  261MOL0     H35953   5.716   5.117   2.327 -1.4796 -1.1111  2.2630
  261MOL0     H35954   5.613   5.163   2.192 -0.4954 -2.0291 -0.0740
  261MOL0     H35955   5.566   5.383   2.324 -0.2597 -0.9732  1.4257
  261MOL0     H35956   5.693   5.338   2.434  1.8831  1.2921 -0.2025
  261MOL0     H35957   5.849   5.340   2.261  0.1588 -0.6730 -0.7957
  261MOL0     H35958   5.741   5.392   2.138  0.8487 -2.1861  0.2232
  261MOL0     H35959   5.854   5.527   2.373 -1.1400 -0.6243  1.4232
  261MOL0     H35960   5.685   5.575   2.330 -0.2442 -1.0909 -0.7144
  261MOL0     H35961   5.752   5.633   2.102  0.6415 -1.7877 -0.2125
  261MOL0     H35962   5.797   5.746   2.225  0.2518 -0.9846  1.2965
  261MOL0     H35963   5.990   5.704   2.074  0.6862  1.3122  0.9474
  261MOL0     H35964   5.972   5.528   2.100  2.4278 -0.4438  1.8328
  261MOL0     H35965   6.058   5.733   2.297  0.9732 -0.0025 -0.8401
  261MOL0     H35966   6.048   5.564   2.340 -0.8762  1.5478  0.3430
  261MOL0     H35967   6.228   5.397   2.208 -0.1777  0.2065  1.3487
  261MOL0     H35968   6.553   5.460   2.048 -3.3169  1.4764 -0.3241
  261MOL0     H35969   6.483   5.334   2.158  0.5083 -1.1032 -0.4102
  261MOL0     H35970   6.577   5.514   2.352  1.5473  0.7538  1.0006
  261MOL0     H35971   6.675   5.377   2.295 -2.2291 -1.3281  1.9504
  261MOL0     H35972   6.746   5.543   2.095  0.3393  1.2540 -0.3341
  261MOL0     H35973   6.670   5.667   2.202 -1.2898 -0.2107  2.5176
  261MOL0     H35974   6.813   5.574   2.393  0.3289  1.3836  0.5570
  261MOL0     H35975   6.894   5.466   2.278  1.4124  1.5534  0.8071
  261MOL0     H35976   6.960   5.463   2.065  0.5773 -0.2287  1.0540
  261MOL0     H35977   7.135   5.437   1.775 -4.7719  0.2158  0.2945
  261MOL0     H35978   7.039   5.352   1.884  2.1279 -1.8502 -1.5699
  261MOL0     H35979   7.214   5.327   1.894  1.9531  0.9847  1.6895
  261MOL0     H35980   7.462   5.754   1.678  0.3981 -1.1676 -0.3149
  261MOL0     H35981   7.640   5.768   1.522  1.3434 -3.7357 -0.4736
  261MOL0     H35982   7.970   5.676   1.399  0.9227  0.0833  0.3161
  261MOL0     H35983   7.801   5.660   1.420  1.5946 -0.0843 -2.2608
  261MOL0     H35984   7.850   5.853   1.265 -0.2952 -1.8761 -0.4558
  261MOL0     H35985   7.785   5.924   1.412  2.4880  3.0064  1.5558
  261MOL0     H35986   8.079   5.906   1.428 -1.7867 -2.1572  1.1878
  261MOL0     H35987   7.964   6.009   1.506 -1.5562 -0.1027  0.2045
  261MOL0     H35988   7.920   6.123   1.272  0.1432  0.8271  2.2579
  261MOL0     H35989   8.046   6.019   1.216  0.8612 -2.6563  0.9390
  261MOL0     H35990   8.126   6.260   1.293 -0.2950  0.8714  0.9281
  261MOL0     H35991   8.061   6.216   1.449  1.7067 -1.3037  1.7901
  261MOL0     H35992   8.232   6.062   1.490 -1.3475  0.0544  0.3991
  261MOL0     H35993   8.287   6.211   1.465 -2.0474  0.3274  1.0310
  261MOL0     H35994   8.432   6.117   1.334 -0.3365 -2.0653  1.5947
  261MOL0     H35995   8.325   6.161   1.199  1.6731 -1.2491 -0.8335
  261MOL0     H35996   8.228   5.920   1.240 -0.2140  0.3689  1.3611
  261MOL0     H35997   8.373   5.889   1.329  1.5337  2.0473  1.5964
  261MOL0     H35998   7.926   5.691   1.830  0.0769  2.3303 -1.0559
  261MOL0     H35999   7.740   5.641   1.993 -1.9519 -0.9666  0.7163
  261MOL0     H36000   7.348   5.752   2.106  2.5646 -1.5892 -4.1099
  261MOL0     H36001   7.140   5.801   2.240 -0.9450  0.3270 -0.7414
  261MOL0     H36002   5.391   4.913   2.240  0.5933  0.5108  0.1095
  261MOL0     H36003   5.321   4.861   2.011 -2.1521 -1.0016  0.9945
  261MOL0     H36004   5.336   4.893   1.626  0.4710  0.3295 -1.6998
  261MOL0     H36005   5.306   4.816   1.396  1.5478  0.0146  1.2390
  261MOL0     H36006   5.202   4.826   1.051 -0.1666 -0.2812 -0.0417
  261MOL0     H36007   5.297   4.804   1.196  0.4631 -4.4525  0.9101
  261MOL0     H36008   5.139   4.615   1.267 -0.5876  2.5475  0.7946
  261MOL0     H36009   5.225   4.597   1.105 -1.5956  0.1563 -0.9654
  261MOL0     H36010   4.936   4.699   1.163 -1.3864 -0.0346 -0.7993
  261MOL0     H36011   5.009   4.706   1.009  1.4937 -1.3394 -2.3318
  261MOL0     H36012   4.849   4.498   1.080 -0.4434 -0.1250  1.4749
  261MOL0     H36013   4.988   4.448   1.180  1.2698  2.7193  1.2598
  261MOL0     H36014   5.119   4.289   0.825  0.3587  2.6318 -1.2839
  261MOL0     H36015   4.941   5.020   1.355  1.6830 -0.0466 -2.0959
  261MOL0     H36016   4.947   5.181   1.676  1.9495  0.1167 -0.4750
  261MOL0     H36017   4.852   5.151   1.538  0.5854  0.0649  0.5624
  261MOL0     H36018   4.831   5.044   1.671  1.7541 -0.9773  1.5362
  262MOL0     O36019   5.018   8.998   6.908  1.2415  0.5972  0.2328
  262MOL0     C36020   4.955   8.976   6.805 -0.9336 -0.5676  0.1963
  262MOL0     O36021   5.010   8.977   6.678  0.7539  0.8127  0.4688
  262MOL0     C36022   5.150   8.994   6.659  0.1327 -0.2275  0.9172
  262MOL0     C36023   5.177   9.044   6.525  0.7765  0.5563 -0.8894
  262MOL0     C36024   5.310   9.070   6.487 -0.4369  0.2498  0.4756
  262MOL0     C36025   5.412   9.059   6.585 -0.0693 -0.0937 -0.0634
  262MOL0     O36026   5.548   9.072   6.553  0.5304  0.3685 -0.6346
  262MOL0     C36027   5.578   9.134   6.424 -0.0127 -0.3388 -0.0416
  262MOL0     C36028   5.730   9.133   6.406 -0.5525 -0.5397  0.0708
  262MOL0     C36029   5.781   9.196   6.275 -0.2285  0.0992  0.6317
  262MOL0     C36030   5.923   9.250   6.279 -0.6703 -0.9511  0.6720
  262MOL0     C36031   6.021   9.132   6.281 -0.5345  0.0746 -0.1230
  262MOL0     C36032   6.162   9.169   6.324 -0.2735 -0.4766 -0.1001
  262MOL0     C36033   6.180   9.175   6.472 -0.3969  0.1349  0.1056
  262MOL0     C36034   6.293   9.275   6.506 -0.3735 -0.3988 -0.1870
  262MOL0     N36035   6.423   9.213   6.495 -0.6537  0.5900  0.9076
  262MOL0     C36036   6.475   9.117   6.581 -1.1000  0.1114  0.6902
  262MOL0     C36037   6.598   9.084   6.529  0.1625 -0.5697 -0.1987
  262MOL0     C36038   6.687   8.985   6.588  0.4742  0.0457  0.0939
  262MOL0     C36039   6.788   9.054   6.683  0.5902 -0.4598  0.2696
  262MOL0     C36040   6.931   8.997   6.666 -0.6706  0.2938 -0.4749
  262MOL0     C36041   7.046   9.075   6.738 -0.6913  0.0581 -0.5390
  262MOL0     O36042   7.164   8.992   6.739 -0.0572 -0.3916 -0.0941
  262MOL0     C36043   7.285   9.057   6.744 -0.2226 -0.4504  0.0006
  262MOL0     C36044   7.382   8.967   6.710 -0.6194 -0.3533  0.4195
  262MOL0     C36045   7.519   9.007   6.699 -0.4496  0.0731  0.0266
  262MOL0     C36046   7.628   8.907   6.675  0.2197  0.5433 -0.2906
  262MOL0     C36047   7.554   9.138   6.739  0.6294  0.4208 -0.5490
  262MOL0     C36048   7.689   9.199   6.740  0.2683  0.2315  0.2392
  262MOL0     O36049   7.773   9.189   6.637 -0.2274 -0.0688 -0.0896
  262MOL0     C36050   7.900   9.247   6.648  0.0390 -0.2175 -1.0666
  262MOL0     C36051   7.991   9.225   6.757 -0.7740  0.1096  0.7564
  262MOL0     C36052   8.116   9.293   6.760  0.2652 -0.0582  0.4326
  262MOL0     C36053   8.156   9.375   6.648  0.1862 -0.2196 -0.2641
  262MOL0     O36054   8.277   9.434   6.632  0.3402  0.0614  0.5844
  262MOL0     C36055   8.389   9.375   6.703 -0.4467  0.2148  0.7292
  262MOL0     C36056   8.528   9.429   6.680  0.3477 -0.5302 -0.4038
  262MOL0     C36057   8.573   9.407   6.536  0.8382  0.4471  0.1053
  262MOL0     C36058   8.721   9.445   6.521  0.3848  0.5663 -0.3815
  262MOL0     C36059   8.772   9.419   6.379  0.2103  0.2084 -0.7864
  262MOL0     C36060   8.926   9.424   6.371 -0.2420 -0.0907  0.7441
  262MOL0     C36061   8.993   9.433   6.231  0.4104 -0.5547 -0.0222
  262MOL0     C36062   9.127   9.367   6.219 -0.7196  0.6057 -0.7092
  262MOL0    Cl36063   9.228   9.445   6.094  0.0140 -0.2270  0.3897
  262MOL0     C36064   8.057   9.406   6.551 -0.1560  0.1179  0.2005
  262MOL0     C36065   7.938   9.334   6.545 -0.0877  0.2446  0.3078
  262MOL0     O36066   7.712   9.253   6.848 -0.7064 -0.0847 -0.3122
  262MOL0     C36067   7.449   9.227   6.785 -0.1673  0.7841 -0.0088
  262MOL0     C36068   7.318   9.182   6.791 -0.3753  0.0948  0.1291
  262MOL0     N36069   6.613   9.167   6.415  0.8464  0.1196  0.3298
  262MOL0     N36070   6.514   9.245   6.399  0.7911  0.3923 -0.2116
  262MOL0     C36071   5.383   8.997   6.708 -0.4200 -0.1629 -0.2034
  262MOL0     C36072   5.257   8.976   6.753 -0.4082 -0.0415  0.4128
  262MOL0     C36073   4.813   8.954   6.799 -0.4507  1.0490 -0.0952
  262MOL0     C36074   4.771   8.866   6.699  0.9329  0.3755  0.5592
  262MOL0     C36075   4.637   8.823   6.696 -0.1819  0.9235  0.1077
  262MOL0     C36076   4.545   8.862   6.789  0.7417 -0.2472 -0.7056
  262MOL0     O36077   4.421   8.808   6.780  0.5734 -0.2234  0.5711
  262MOL0     C36078   4.318   8.866   6.860  0.1297  0.1726  0.5003
  262MOL0     C36079   4.185   8.817   6.803  0.4839 -0.6877 -0.5199
  262MOL0     C36080   4.123   8.700   6.883  0.1604 -0.8933 -0.2961
  262MOL0     C36081   3.991   8.655   6.831 -0.5550  0.8438  0.1507
  262MOL0     C36082   3.991   8.596   6.688 -0.8224 -0.4093  0.1643
  262MOL0     C36083   4.015   8.558   6.577 -0.4520  0.2946 -0.3730
  262MOL0     C36084   4.585   8.950   6.893 -1.0374  0.7261 -0.1649
  262MOL0     C36085   4.718   8.997   6.897  0.0830 -0.2369 -0.0346
  262MOL0     C36086   4.764   9.078   7.014 -0.4952 -0.9560 -0.6551
  262MOL0     H36087   5.094   9.052   6.456  1.4531 -1.0406 -1.9332
  262MOL0     H36088   5.326   9.096   6.383 -0.6790 -1.3798 -0.0129
  262MOL0     H36089   5.552   9.240   6.431 -0.3800 -0.3804 -0.7261
  262MOL0     H36090   5.534   9.076   6.342 -0.4309  1.7032 -1.3284
  262MOL0     H36091   5.758   9.191   6.494 -4.4536  1.8039 -0.0243
  262MOL0     H36092   5.772   9.032   6.407 -0.4166 -0.5238 -1.3125
  262MOL0     H36093   5.771   9.125   6.192 -0.1442 -1.6919  2.0832
  262MOL0     H36094   5.724   9.288   6.259 -0.0305 -0.0321 -1.1156
  262MOL0     H36095   5.956   9.310   6.194  4.8263 -4.0001  0.1578
  262MOL0     H36096   5.943   9.310   6.368 -1.2638 -3.1757  2.4078
  262MOL0     H36097   6.021   9.090   6.180  0.4260 -0.8095  0.2260
  262MOL0     H36098   5.981   9.055   6.347 -0.6816  1.5630  1.6147
  262MOL0     H36099   6.234   9.098   6.283  3.6910  2.7871  0.6390
  262MOL0     H36100   6.201   9.264   6.286  1.5736 -0.8072  0.8545
  262MOL0     H36101   6.198   9.082   6.526 -0.3836  0.9777  1.6001
  262MOL0     H36102   6.088   9.224   6.505 -1.9753 -1.0429 -2.2069
  262MOL0     H36103   6.292   9.354   6.431  0.7749  1.9774  2.1375
  262MOL0     H36104   6.274   9.315   6.606 -2.5203 -0.0754 -0.6652
  262MOL0     H36105   6.428   9.068   6.665 -1.3354  1.4564  1.3595
  262MOL0     H36106   6.735   8.932   6.505 -2.5448 -0.1341 -1.7029
  262MOL0     H36107   6.629   8.912   6.646 -1.7952  0.0548 -1.9844
  262MOL0     H36108   6.799   9.160   6.656 -1.2428  0.1039  1.4853
  262MOL0     H36109   6.762   9.051   6.790  0.8411 -0.1216  0.3436
  262MOL0     H36110   6.930   8.901   6.719  2.0521 -0.1230 -1.0578
  262MOL0     H36111   6.952   8.975   6.561  0.7439 -0.2689 -0.0880
  262MOL0     H36112   7.073   9.171   6.691  0.3587  0.0126 -0.0435
  262MOL0     H36113   7.020   9.104   6.840 -1.0474  2.0871 -1.1423
  262MOL0     H36114   7.369   8.860   6.704 -0.8112 -0.4994  2.6071
  262MOL0     H36115   7.723   8.952   6.707 -0.0024  0.7533  0.0810
  262MOL0     H36116   7.619   8.866   6.574 -3.1512 -1.4373  0.6722
  262MOL0     H36117   7.617   8.826   6.748  1.0458 -0.1564 -0.9211
  262MOL0     H36118   7.960   9.154   6.833 -3.0530 -0.8952 -1.0034
  262MOL0     H36119   8.187   9.272   6.839  0.3348 -0.6389  0.2149
  262MOL0     H36120   8.372   9.391   6.810  0.5065  2.1970  0.6343
  262MOL0     H36121   8.394   9.269   6.680  1.0457  0.3709  0.2376
  262MOL0     H36122   8.519   9.536   6.703 -1.4708 -0.9390  0.9879
  262MOL0     H36123   8.603   9.390   6.749  0.1490 -0.6954 -0.2780
  262MOL0     H36124   8.513   9.475   6.475 -1.2747 -0.1212  1.4381
  262MOL0     H36125   8.555   9.300   6.519 -0.4325  0.1685  2.6703
  262MOL0     H36126   8.777   9.380   6.590 -0.9512 -0.6108 -0.3586
  262MOL0     H36127   8.733   9.549   6.551  0.6906  0.1559  0.9924
  262MOL0     H36128   8.741   9.316   6.359 -1.5428  0.3271  0.9898
  262MOL0     H36129   8.733   9.485   6.302 -0.3724  0.4304 -0.3133
  262MOL0     H36130   8.960   9.327   6.408 -0.9407 -0.4066  0.5781
  262MOL0     H36131   8.965   9.502   6.437 -0.3126  0.4370  0.1737
  262MOL0     H36132   9.017   9.535   6.197  1.0040 -0.8153 -0.4031
  262MOL0     H36133   8.925   9.389   6.158  0.9440  0.1328 -0.9601
  262MOL0     H36134   9.105   9.265   6.186 -2.3414  1.0096 -0.9563
  262MOL0     H36135   9.182   9.373   6.314 -2.0908 -1.2752  0.2614
  262MOL0     H36136   8.073   9.474   6.468 -3.9156  1.4633  0.3896
  262MOL0     H36137   7.868   9.359   6.466  1.1466  1.8101 -0.3474
  262MOL0     H36138   7.475   9.330   6.805  3.5889  0.1070 -0.7907
  262MOL0     H36139   7.238   9.240   6.836 -1.0297 -0.1806 -0.6549
  262MOL0     H36140   5.461   8.975   6.780  0.5604  0.0433 -1.1795
  262MOL0     H36141   5.239   8.927   6.848  0.7391  1.8492  1.6860
  262MOL0     H36142   4.833   8.820   6.623 -1.4937 -1.6046 -0.3687
  262MOL0     H36143   4.607   8.762   6.612 -2.3913  1.2560  0.5970
  262MOL0     H36144   4.335   8.823   6.959  0.3297 -1.2315 -0.1325
  262MOL0     H36145   4.325   8.975   6.871 -2.8073  0.6692 -1.3882
  262MOL0     H36146   4.198   8.786   6.698  1.1970 -2.2622 -0.0039
  262MOL0     H36147   4.116   8.901   6.812 -0.2788 -1.3826  0.3814
  262MOL0     H36148   4.199   8.622   6.886  1.2667  0.1703  2.3822
  262MOL0     H36149   4.113   8.737   6.985  1.6217  0.5858 -0.6485
  262MOL0     H36150   3.913   8.731   6.827 -1.3243  0.0236 -1.0000
  262MOL0     H36151   3.970   8.576   6.904  3.2648 -0.1155  0.4223
  262MOL0     H36152   4.046   8.530   6.478 -0.1052 -0.5655 -0.0331
  262MOL0     H36153   4.535   8.965   6.988  1.9335  0.2817  1.5925
  262MOL0     H36154   4.831   9.021   7.079 -0.8154  0.9168  1.4387
  262MOL0     H36155   4.817   9.171   6.995  1.1392 -1.1110  2.4569
  262MOL0     H36156   4.676   9.106   7.073  0.7431 -0.3970  0.9844
  263MOL0     O36157   0.994  10.703   3.047 -0.5746  0.5672  0.2522
  263MOL0     C36158   0.958  10.813   3.093 -0.5410  0.3541  1.0898
  263MOL0     O36159   1.035  10.922   3.119  0.5561 -0.0397 -0.6150
  263MOL0     C36160   1.173  10.916   3.105 -0.2241 -0.3031  0.5889
  263MOL0     C36161   1.243  10.974   3.210  0.4204 -0.9912  0.0434
  263MOL0     C36162   1.383  10.972   3.206  0.3927 -0.2445  0.0908
  263MOL0     C36163   1.447  10.935   3.088 -0.2886  0.9134  0.2376
  263MOL0     O36164   1.584  10.926   3.093 -0.1900 -0.1820 -0.0911
  263MOL0     C36165   1.664  10.863   2.992  0.0265 -0.1143  0.5101
  263MOL0     C36166   1.815  10.866   3.033  0.0883 -0.4022 -0.6379
  263MOL0     C36167   1.873  11.009   3.045  0.5107  1.0710 -0.5824
  263MOL0     C36168   1.932  11.054   2.910  0.4243  0.0562 -0.7432
  263MOL0     C36169   1.995  11.192   2.934  0.3162  1.1441  0.8598
  263MOL0     C36170   2.147  11.171   2.964 -0.0873 -0.1467  0.0284
  263MOL0     C36171   2.223  11.294   2.940 -0.9095 -0.0465 -0.0948
  263MOL0     C36172   2.245  11.322   2.786  0.6667 -0.2411 -0.6331
  263MOL0     N36173   2.360  11.409   2.766  0.4341  0.0042 -0.0340
  263MOL0     C36174   2.483  11.360   2.722  0.2225  0.4297  0.0856
  263MOL0     C36175   2.569  11.461   2.736  0.0566 -1.0867  0.7004
  263MOL0     C36176   2.713  11.483   2.690 -0.3033  0.6552  0.3891
  263MOL0     C36177   2.718  11.556   2.557 -0.3706 -0.4087 -0.0178
  263MOL0     C36178   2.848  11.627   2.522  0.1631  0.1983  0.6578
  263MOL0     C36179   2.947  11.518   2.469  0.8852  0.1174 -0.0543
  263MOL0     O36180   3.069  11.588   2.467  0.2891  0.0700 -0.5129
  263MOL0     C36181   3.187  11.536   2.415  0.8890 -0.6147  0.3761
  263MOL0     C36182   3.200  11.410   2.364 -0.4581 -0.1453  0.6716
  263MOL0     C36183   3.320  11.354   2.321 -0.2313 -1.1164 -0.1764
  263MOL0     C36184   3.312  11.211   2.268 -0.4793 -1.1400  0.5136
  263MOL0     C36185   3.435  11.428   2.340  0.0029 -0.8212  0.2040
  263MOL0     C36186   3.576  11.368   2.305  0.5181  0.4791  0.0565
  263MOL0     O36187   3.680  11.423   2.382 -0.2375  0.1554 -0.0643
  263MOL0     C36188   3.813  11.379   2.363  0.6200 -1.2393 -0.1915
  263MOL0     C36189   3.891  11.446   2.267 -0.2632 -0.5112  0.4730
  263MOL0     C36190   4.017  11.399   2.244  0.0506  0.6241  0.6700
  263MOL0     C36191   4.075  11.299   2.327 -0.0688 -0.4905 -0.8222
  263MOL0     O36192   4.205  11.253   2.320  0.7093  0.0911 -0.3973
  263MOL0     C36193   4.296  11.304   2.224  0.2410 -0.4241  0.8146
  263MOL0     C36194   4.441  11.262   2.255  0.9965 -0.4825  0.5079
  263MOL0     C36195   4.496  11.297   2.390  0.4010 -0.4253  0.6301
  263MOL0     C36196   4.529  11.449   2.407 -0.1740  0.5851  0.3820
  263MOL0     C36197   4.590  11.471   2.550  0.6492  0.4462  0.8931
  263MOL0     C36198   4.617  11.623   2.578 -0.9629  0.5761  0.0527
  263MOL0     C36199   4.730  11.638   2.672 -1.0774 -0.6236 -0.5276
  263MOL0     C36200   4.726  11.783   2.741 -0.0922 -0.1438  0.2658
  263MOL0    Cl36201   4.875  11.810   2.847  0.1918 -0.6793  0.3992
  263MOL0     C36202   4.002  11.240   2.426  0.3646 -0.3324  0.2420
  263MOL0     C36203   3.864  11.281   2.450  0.2530  0.2333  0.4682
  263MOL0     O36204   3.592  11.270   2.237 -0.4241  0.9403 -0.4089
  263MOL0     C36205   3.427  11.553   2.400 -0.8250  0.5067 -0.1020
  263MOL0     C36206   3.309  11.605   2.438  0.1089 -0.6632  0.0092
  263MOL0     N36207   2.501  11.567   2.801  0.1735  0.8513 -0.8229
  263MOL0     N36208   2.384  11.525   2.830  0.6566  0.5027  0.2432
  263MOL0     C36209   1.377  10.881   2.983  0.2312  0.5592 -0.0056
  263MOL0     C36210   1.239  10.880   2.988  0.2395 -0.3948 -0.4070
  263MOL0     C36211   0.814  10.836   3.103 -0.4538  0.8469  0.6370
  263MOL0     C36212   0.773  10.968   3.080  0.4908 -0.0182 -0.7927
  263MOL0     C36213   0.638  11.005   3.103  0.4386 -0.1572  0.0242
  263MOL0     C36214   0.544  10.916   3.137  0.4572 -0.0929 -0.2319
  263MOL0     O36215   0.415  10.967   3.151  0.2110  0.0981  0.1073
  263MOL0     C36216   0.320  10.867   3.201 -0.3119  0.2114 -0.6833
  263MOL0     C36217   0.180  10.917   3.227 -0.0666 -0.3898  0.5418
  263MOL0     C36218   0.105  10.984   3.111 -0.3010 -0.5358 -0.3550
  263MOL0     C36219  -0.039  11.004   3.149 -0.9028  0.0489  0.1310
  263MOL0     C36220  -0.116  10.879   3.155 -0.6896  0.3233  0.4596
  263MOL0     C36221  -0.180  10.777   3.169  0.7903 -0.2320  0.6224
  263MOL0     C36222   0.582  10.785   3.155  0.0643  0.2086  0.6408
  263MOL0     C36223   0.715  10.743   3.144  0.2140  0.1735  0.5562
  263MOL0     C36224   0.748  10.593   3.165  0.1187  0.1375  0.2431
  263MOL0     H36225   1.186  11.006   3.297 -0.9243 -1.2716 -0.7091
  263MOL0     H36226   1.438  10.972   3.300  0.7306 -1.7879 -0.0924
  263MOL0     H36227   1.655  10.914   2.896  2.8133 -1.4299 -0.5646
  263MOL0     H36228   1.629  10.762   2.966  1.8843 -0.0662 -2.5939
  263MOL0     H36229   1.817  10.828   3.135  0.8202  2.1883  0.3926
  263MOL0     H36230   1.868  10.802   2.962  1.5303 -0.8625  0.7926
  263MOL0     H36231   1.807  11.087   3.085  2.6360  2.2135  0.8790
  263MOL0     H36232   1.960  11.011   3.111  1.1846  4.3352 -1.3811
  263MOL0     H36233   1.999  10.971   2.887  0.4312  0.0777 -0.8013
  263MOL0     H36234   1.854  11.064   2.835  0.1808 -0.6256 -0.5843
  263MOL0     H36235   1.952  11.257   3.010  0.5205  1.1474  0.9743
  263MOL0     H36236   1.986  11.246   2.839 -0.0075 -1.2924 -0.5777
  263MOL0     H36237   2.155  11.145   3.070 -2.4720 -0.5068  0.1657
  263MOL0     H36238   2.182  11.089   2.901 -1.5682 -2.0437  1.5738
  263MOL0     H36239   2.320  11.264   2.982 -0.8887 -0.6560 -0.5628
  263MOL0     H36240   2.182  11.376   3.000  1.3491  0.1474  1.3018
  263MOL0     H36241   2.265  11.218   2.758 -2.2354 -1.0242 -0.1103
  263MOL0     H36242   2.157  11.370   2.743 -2.0394 -1.1522  3.3255
  263MOL0     H36243   2.501  11.259   2.686 -2.6311 -0.7152  1.5813
  263MOL0     H36244   2.763  11.386   2.678 -0.2987  0.8678 -1.6902
  263MOL0     H36245   2.776  11.540   2.758  0.2449 -1.0679  1.3914
  263MOL0     H36246   2.687  11.498   2.470  2.2671  0.5828 -1.7329
  263MOL0     H36247   2.640  11.633   2.559 -0.6356 -0.4894 -3.2054
  263MOL0     H36248   2.833  11.699   2.442 -0.6604 -2.5719 -1.8623
  263MOL0     H36249   2.896  11.676   2.608 -0.4849  2.5510 -0.2423
  263MOL0     H36250   2.951  11.432   2.535 -0.8245  0.1600  0.1649
  263MOL0     H36251   2.917  11.476   2.372 -2.8184 -1.9222  1.7623
  263MOL0     H36252   3.114  11.345   2.357  0.8525 -2.0680  1.5294
  263MOL0     H36253   3.354  11.206   2.167 -0.7044  0.1723  0.3317
  263MOL0     H36254   3.207  11.183   2.254 -1.1436  1.7694 -1.3944
  263MOL0     H36255   3.369  11.143   2.332  0.5524 -0.3339  0.4730
  263MOL0     H36256   3.858  11.534   2.212  1.0217  1.2051  2.2941
  263MOL0     H36257   4.078  11.445   2.167 -0.3629 -0.9038 -0.6247
  263MOL0     H36258   4.284  11.266   2.122 -1.4684  1.2647  0.3151
  263MOL0     H36259   4.306  11.413   2.224  0.0621 -0.3595 -1.5047
  263MOL0     H36260   4.440  11.153   2.259  1.4776 -0.5379 -0.5796
  263MOL0     H36261   4.502  11.303   2.174 -1.0298  3.2949  0.6752
  263MOL0     H36262   4.588  11.238   2.403  1.6660  0.8123 -1.8444
  263MOL0     H36263   4.426  11.272   2.470 -0.0888  2.1995  1.1079
  263MOL0     H36264   4.427  11.488   2.414 -1.9817 -3.6483  0.5702
  263MOL0     H36265   4.597  11.489   2.331  0.3068  0.5893  0.8097
  263MOL0     H36266   4.522  11.437   2.628 -1.8546  1.2098 -0.8435
  263MOL0     H36267   4.680  11.409   2.553  0.0797 -0.4331  0.4076
  263MOL0     H36268   4.527  11.666   2.621 -1.5980 -1.9733  1.4318
  263MOL0     H36269   4.657  11.668   2.486 -1.3458  0.0964 -0.3533
  263MOL0     H36270   4.823  11.632   2.614  0.8793  2.7214  1.9576
  263MOL0     H36271   4.742  11.554   2.741 -0.9288 -0.9937 -0.9992
  263MOL0     H36272   4.635  11.797   2.799  0.5834  1.4199  1.0013
  263MOL0     H36273   4.729  11.862   2.665 -1.3135  0.4722  0.8330
  263MOL0     H36274   4.042  11.155   2.480  0.4750 -1.5950 -1.7484
  263MOL0     H36275   3.806  11.222   2.520 -0.6427 -1.2522 -1.4089
  263MOL0     H36276   3.513  11.614   2.425  0.0258 -0.3044 -0.9285
  263MOL0     H36277   3.305  11.696   2.497 -1.2790 -1.6431  1.5015
  263MOL0     H36278   1.424  10.835   2.896 -0.1779  1.8595 -0.9544
  263MOL0     H36279   1.174  10.842   2.909  0.6485 -0.1535 -0.8691
  263MOL0     H36280   0.845  11.048   3.064  2.4459 -1.3889  0.6747
  263MOL0     H36281   0.603  11.107   3.093  0.3925 -0.3313 -2.2371
  263MOL0     H36282   0.316  10.787   3.126 -0.5739 -0.6294  0.1961
  263MOL0     H36283   0.358  10.828   3.296  0.5831 -0.6342 -1.3584
  263MOL0     H36284   0.179  10.986   3.312 -0.0163  1.2012 -0.6838
  263MOL0     H36285   0.120  10.831   3.255 -2.5474  0.9534 -0.2821
  263MOL0     H36286   0.143  11.083   3.083 -0.2337 -0.3899  0.2386
  263MOL0     H36287   0.115  10.917   3.025  2.1942 -0.9149  0.1567
  263MOL0     H36288  -0.084  11.070   3.074  1.3816  1.7072  0.1147
  263MOL0     H36289  -0.044  11.059   3.243  0.1038 -2.0483  1.4761
  263MOL0     H36290  -0.239  10.689   3.187 -1.4012  0.4459 -2.3664
  263MOL0     H36291   0.515  10.706   3.188 -1.1993  1.0215  0.0796
  263MOL0     H36292   0.773  10.575   3.270  1.9560  0.2216 -0.1486
  263MOL0     H36293   0.664  10.529   3.135  0.4127  0.6335 -1.7787
  263MOL0     H36294   0.820  10.556   3.092  0.8162  0.7470  0.6113
  264MOL0     O36295   1.139   5.093   6.600  0.3160 -0.2780  0.4047
  264MOL0     C36296   1.086   5.052   6.498  0.0379 -0.2187  0.5623
  264MOL0     O36297   1.152   5.032   6.380 -0.2051  0.1940  0.1217
  264MOL0     C36298   1.289   5.053   6.365 -0.7816 -0.3505 -0.5166
  264MOL0     C36299   1.382   5.115   6.451 -0.3793  0.4847  0.1410
  264MOL0     C36300   1.520   5.122   6.409  1.2444  0.0732 -0.6523
  264MOL0     C36301   1.565   5.079   6.287  0.5076  0.1689  0.5742
  264MOL0     O36302   1.698   5.087   6.239 -0.4803  0.1662 -0.0802
  264MOL0     C36303   1.799   5.149   6.325 -0.3470  0.3633 -0.0792
  264MOL0     C36304   1.939   5.147   6.265  0.2272 -0.6899  0.4824
  264MOL0     C36305   1.955   5.250   6.158  0.3840  0.0734  0.5437
  264MOL0     C36306   1.996   5.396   6.207 -0.3935  0.0447 -0.4832
  264MOL0     C36307   2.003   5.488   6.084  0.0716 -0.0431 -0.7125
  264MOL0     C36308   2.016   5.631   6.115 -0.2269  0.0701 -0.0871
  264MOL0     C36309   2.015   5.709   5.985 -0.8064 -1.0915 -0.1867
  264MOL0     C36310   2.037   5.856   6.015 -0.0114 -0.5714  0.3148
  264MOL0     N36311   1.999   5.929   5.894  0.3601  0.0995  0.0418
  264MOL0     C36312   1.872   5.969   5.866  0.0833 -0.0379 -0.5322
  264MOL0     C36313   1.878   6.044   5.759  0.8041 -0.4662 -0.3829
  264MOL0     C36314   1.762   6.126   5.699  0.9462 -0.1794 -1.0923
  264MOL0     C36315   1.798   6.261   5.632 -0.0080  0.8180  0.3107
  264MOL0     C36316   1.867   6.348   5.737  0.2183 -0.3724  0.4073
  264MOL0     C36317   1.900   6.485   5.689 -0.3147  0.0490 -0.5002
  264MOL0     O36318   1.970   6.552   5.794  0.4955  0.4145  0.5182
  264MOL0     C36319   2.016   6.684   5.768 -0.4882 -0.4399 -1.5944
  264MOL0     C36320   2.092   6.737   5.861 -0.1237  0.8211  0.4559
  264MOL0     C36321   2.140   6.870   5.864 -0.1666  0.3795 -0.9099
  264MOL0     C36322   2.212   6.908   5.993 -0.0370  0.0461  0.2412
  264MOL0     C36323   2.113   6.944   5.752  0.3963 -0.5997  0.8698
  264MOL0     C36324   2.151   7.091   5.734  0.1224  0.5556  0.5591
  264MOL0     O36325   2.099   7.157   5.633 -0.3550  0.1843  0.5581
  264MOL0     C36326   2.145   7.286   5.606  0.7047  0.6865  0.3934
  264MOL0     C36327   2.039   7.377   5.609  0.2306 -1.0594 -0.9631
  264MOL0     C36328   2.058   7.514   5.585  0.1301 -0.1670  0.4384
  264MOL0     C36329   2.188   7.566   5.568  0.7671 -0.7847 -0.4494
  264MOL0     O36330   2.220   7.696   5.537 -0.9193 -0.3904  0.0449
  264MOL0     C36331   2.139   7.811   5.578 -0.0370  0.3025 -0.8303
  264MOL0     C36332   2.183   7.947   5.521 -0.5466  0.1913 -1.3074
  264MOL0     C36333   2.334   7.968   5.550  0.4790  0.4069 -0.3529
  264MOL0     C36334   2.409   8.062   5.448  0.4745  0.2295  0.5502
  264MOL0     C36335   2.561   8.069   5.481  0.2435  1.1155  0.8880
  264MOL0     C36336   2.652   8.131   5.378 -0.1010 -0.1514 -0.3207
  264MOL0     C36337   2.794   8.123   5.433  0.1752 -0.3318  0.3996
  264MOL0     C36338   2.893   8.186   5.329 -0.8079 -0.8135 -0.2445
  264MOL0    Cl36339   2.884   8.362   5.338 -0.1106  0.2102  0.6615
  264MOL0     C36340   2.290   7.476   5.580 -0.0763  0.1868 -0.0394
  264MOL0     C36341   2.278   7.337   5.606 -0.1018  1.2840  0.6720
  264MOL0     O36342   2.243   7.132   5.811 -0.1469  0.0083  0.1406
  264MOL0     C36343   2.039   6.893   5.641  0.2940  1.2120 -0.2391
  264MOL0     C36344   1.993   6.760   5.652  0.1831  0.0891  0.0797
  264MOL0     N36345   2.004   6.031   5.707 -0.3104 -0.3167 -0.2422
  264MOL0     N36346   2.085   5.966   5.792  0.1990  0.3828 -0.5615
  264MOL0     C36347   1.477   5.008   6.203 -0.2842 -0.5561 -0.1860
  264MOL0     C36348   1.343   5.003   6.244  0.0473 -0.3907 -0.3889
  264MOL0     C36349   0.947   5.003   6.504 -0.3646 -0.2237  0.3423
  264MOL0     C36350   0.902   4.906   6.404  0.1198  0.4996  0.0515
  264MOL0     C36351   0.772   4.862   6.402  0.0262 -0.8760  0.0304
  264MOL0     C36352   0.685   4.895   6.510  0.1024 -0.2832 -0.6844
  264MOL0     O36353   0.550   4.865   6.501 -0.7085 -0.4837  0.3419
  264MOL0     C36354   0.517   4.727   6.488  1.0579  0.1263  0.5414
  264MOL0     C36355   0.367   4.706   6.524 -0.1178  0.1489  0.2247
  264MOL0     C36356   0.301   4.603   6.428  0.4007 -0.1102  0.2628
  264MOL0     C36357   0.148   4.571   6.455 -0.3957  0.0221 -0.2560
  264MOL0     C36358   0.079   4.694   6.435  0.1667  0.9733 -0.3071
  264MOL0     C36359   0.032   4.801   6.421  0.2677 -0.2615  0.0445
  264MOL0     C36360   0.733   4.988   6.606 -0.3108  0.2827  0.1608
  264MOL0     C36361   0.863   5.031   6.612 -0.1735 -0.0962  0.5603
  264MOL0     C36362   0.886   5.108   6.734  0.3299 -0.5858  0.4419
  264MOL0     H36363   1.346   5.160   6.544  0.1311  1.6729 -0.2187
  264MOL0     H36364   1.586   5.156   6.488  1.1660 -2.1154  0.4307
  264MOL0     H36365   1.791   5.072   6.403  0.0677  0.2515 -0.1402
  264MOL0     H36366   1.778   5.247   6.367 -0.6030  0.7273 -1.0318
  264MOL0     H36367   2.009   5.158   6.349 -2.6912 -0.2293  3.0040
  264MOL0     H36368   1.945   5.047   6.221 -0.8874 -1.6133  2.3346
  264MOL0     H36369   2.033   5.222   6.087  1.7289  1.9934  1.1799
  264MOL0     H36370   1.863   5.255   6.099  0.9165 -0.8814 -0.4095
  264MOL0     H36371   1.929   5.444   6.279  1.5125  0.4185  1.1255
  264MOL0     H36372   2.093   5.390   6.257 -0.4353 -0.7712 -0.4831
  264MOL0     H36373   1.905   5.473   6.038 -0.8971  3.1611  0.0794
  264MOL0     H36374   2.087   5.463   6.019  0.2233 -4.5732  0.8809
  264MOL0     H36375   1.938   5.656   6.186 -0.9647  2.1488 -1.5321
  264MOL0     H36376   2.112   5.660   6.160 -0.1847  1.2353 -0.8933
  264MOL0     H36377   1.921   5.696   5.930 -0.9181 -1.2074  0.0293
  264MOL0     H36378   2.101   5.679   5.924 -0.1430 -2.8503  1.5051
  264MOL0     H36379   1.984   5.899   6.100  1.0923 -1.5983  1.5647
  264MOL0     H36380   2.144   5.877   6.023 -0.0821  1.2883 -2.2011
  264MOL0     H36381   1.785   5.953   5.929 -0.3919 -0.7278 -1.3376
  264MOL0     H36382   1.709   6.142   5.793  3.2604 -1.7746  0.5978
  264MOL0     H36383   1.692   6.075   5.631 -2.6235  1.1021  1.3289
  264MOL0     H36384   1.863   6.245   5.545 -1.1227  0.3375 -0.4476
  264MOL0     H36385   1.713   6.308   5.582 -0.7459  1.6588  2.2532
  264MOL0     H36386   1.798   6.361   5.822 -1.2765  0.8389 -0.9194
  264MOL0     H36387   1.950   6.299   5.788 -2.2901 -2.1281  3.1283
  264MOL0     H36388   1.945   6.478   5.590 -1.3157 -0.3665 -0.9454
  264MOL0     H36389   1.805   6.541   5.685  0.2453  0.9789 -1.4106
  264MOL0     H36390   2.121   6.674   5.945  1.4290  0.6144 -0.2085
  264MOL0     H36391   2.320   6.892   6.000  0.4047  3.2379  3.6956
  264MOL0     H36392   2.176   6.854   6.080 -0.2257 -1.2690 -0.6259
  264MOL0     H36393   2.181   7.012   6.011  1.9550  1.1731 -2.2164
  264MOL0     H36394   1.936   7.344   5.618 -1.7482  4.4298  1.0796
  264MOL0     H36395   1.972   7.579   5.573  0.4602  0.2680  0.4325
  264MOL0     H36396   2.039   7.798   5.538  0.2418 -1.3305 -1.0376
  264MOL0     H36397   2.137   7.819   5.687  1.1081  0.2540 -0.7933
  264MOL0     H36398   2.167   7.945   5.413  2.1596 -0.6868 -1.7794
  264MOL0     H36399   2.133   8.029   5.572  2.2402  2.2447 -1.6271
  264MOL0     H36400   2.386   7.872   5.551 -2.3942 -1.2574  0.4153
  264MOL0     H36401   2.341   8.017   5.647  4.4194  1.5795 -1.0241
  264MOL0     H36402   2.360   8.160   5.442 -2.1587 -0.8286  2.7595
  264MOL0     H36403   2.399   8.026   5.345 -2.3556  0.8213  0.5403
  264MOL0     H36404   2.565   8.133   5.570 -2.3039  1.2335  0.9930
  264MOL0     H36405   2.587   7.964   5.503 -1.2049  0.3106 -0.9948
  264MOL0     H36406   2.625   8.235   5.358 -0.8174 -0.3362 -0.3367
  264MOL0     H36407   2.663   8.081   5.281  1.0986  2.5497 -1.6797
  264MOL0     H36408   2.810   8.015   5.438 -1.6631 -0.7675 -1.5959
  264MOL0     H36409   2.804   8.173   5.530 -3.3323  1.5509 -0.0180
  264MOL0     H36410   2.866   8.154   5.229 -0.4676 -1.8936 -0.0032
  264MOL0     H36411   2.996   8.154   5.347 -0.2684 -0.8455 -2.9744
  264MOL0     H36412   2.391   7.515   5.572  0.4033 -1.1708 -1.0278
  264MOL0     H36413   2.364   7.274   5.626 -1.8185 -0.8851  1.6670
  264MOL0     H36414   2.015   6.954   5.554 -0.1853  0.3988 -0.6994
  264MOL0     H36415   1.942   6.725   5.562 -0.0919  3.1676 -1.0911
  264MOL0     H36416   1.502   4.971   6.104 -1.6019 -2.1380  0.0259
  264MOL0     H36417   1.276   4.967   6.166 -0.2932  0.2388 -0.3889
  264MOL0     H36418   0.962   4.859   6.327 -2.3015 -2.0970 -0.4082
  264MOL0     H36419   0.741   4.783   6.334  0.6104 -3.8659  2.9820
  264MOL0     H36420   0.536   4.705   6.383  0.4556 -1.7614  0.8002
  264MOL0     H36421   0.573   4.655   6.548 -1.0994 -2.0686  0.0765
  264MOL0     H36422   0.323   4.806   6.524  3.8343  2.1417 -1.6612
  264MOL0     H36423   0.363   4.664   6.624  0.6845  2.0556  1.1086
  264MOL0     H36424   0.308   4.640   6.325 -1.2130 -0.1138  0.1239
  264MOL0     H36425   0.365   4.516   6.444 -1.4923 -1.7450 -0.5886
  264MOL0     H36426   0.137   4.531   6.556 -0.3396  2.4494  0.7858
  264MOL0     H36427   0.116   4.502   6.376  0.3927 -1.6908  0.8434
  264MOL0     H36428  -0.014   4.897   6.415 -1.6616 -1.0548  1.1744
  264MOL0     H36429   0.657   5.037   6.667 -1.5697 -1.2665 -0.1001
  264MOL0     H36430   0.976   5.076   6.787  0.7802  0.7752  0.5544
  264MOL0     H36431   0.896   5.214   6.707 -0.6183 -1.0459 -1.9766
  264MOL0     H36432   0.807   5.096   6.809  0.2097 -0.4601  0.3369
  265MOL0     O36433   2.338   5.626   0.390  0.0221 -0.8495  0.7539
  265MOL0     C36434   2.254   5.587   0.473  0.5470  1.0152  0.0923
  265MOL0     O36435   2.268   5.481   0.558  0.3740 -0.0298 -0.2066
  265MOL0     C36436   2.400   5.467   0.593 -0.5977 -0.2579 -0.4296
  265MOL0     C36437   2.468   5.574   0.654 -0.0983 -0.0586  0.6137
  265MOL0     C36438   2.599   5.558   0.698  0.1074  0.0053 -0.6382
  265MOL0     C36439   2.657   5.433   0.684 -0.1472  0.6626 -0.0348
  265MOL0     O36440   2.784   5.404   0.728 -0.8465 -0.2277  0.2228
  265MOL0     C36441   2.881   5.505   0.727  0.4989 -0.5377 -0.2158
  265MOL0     C36442   3.015   5.444   0.714 -0.6636  0.3185  0.1109
  265MOL0     C36443   3.103   5.549   0.645  0.1070 -0.0514 -0.5373
  265MOL0     C36444   3.252   5.536   0.692 -0.0470  0.5177  0.2366
  265MOL0     C36445   3.334   5.610   0.583 -0.0807  0.5010 -0.3924
  265MOL0     C36446   3.485   5.585   0.613  0.0106  0.6787 -0.1691
  265MOL0     C36447   3.557   5.701   0.557 -0.2659  0.6056  0.2811
  265MOL0     C36448   3.691   5.656   0.510  0.7747 -1.0106  0.3628
  265MOL0     N36449   3.779   5.624   0.625 -0.0303  0.0581 -0.0054
  265MOL0     C36450   3.857   5.708   0.690 -0.5277 -0.1374  1.0303
  265MOL0     C36451   3.893   5.646   0.804  0.1051  0.6842 -0.8298
  265MOL0     C36452   3.981   5.695   0.918 -0.1438 -0.3881  1.1242
  265MOL0     C36453   4.118   5.692   0.863 -0.3806  0.0282 -0.3342
  265MOL0     C36454   4.177   5.557   0.852  0.0768  0.1588  0.1472
  265MOL0     C36455   4.330   5.561   0.856 -0.1713 -0.5992 -0.2761
  265MOL0     O36456   4.376   5.588   0.988  0.2419 -0.8707 -0.2309
  265MOL0     C36457   4.509   5.622   1.003  0.5242 -0.1606 -0.4235
  265MOL0     C36458   4.604   5.598   0.902  0.0320  0.3364 -0.3692
  265MOL0     C36459   4.740   5.627   0.934  0.3705  0.5800  0.2461
  265MOL0     C36460   4.838   5.603   0.829 -0.6000 -0.4373  0.4453
  265MOL0     C36461   4.781   5.664   1.067 -0.4751  0.2418 -0.6474
  265MOL0     C36462   4.918   5.705   1.107 -0.1837  0.3956  0.0159
  265MOL0     O36463   5.024   5.667   1.032  0.1640  0.4051  0.0418
  265MOL0     C36464   5.150   5.686   1.086  0.0130  0.2180  0.7113
  265MOL0     C36465   5.206   5.811   1.112  0.8565  0.0596  0.8972
  265MOL0     C36466   5.336   5.826   1.147  0.2722 -0.9592 -0.7264
  265MOL0     C36467   5.424   5.723   1.155  1.0182  0.4693 -0.1779
  265MOL0     O36468   5.557   5.722   1.174  0.5522 -0.3944  0.2001
  265MOL0     C36469   5.635   5.842   1.186 -0.9278 -0.1984 -0.6182
  265MOL0     C36470   5.775   5.782   1.225 -0.1478 -0.6015  0.3546
  265MOL0     C36471   5.882   5.893   1.240 -0.4954 -0.1677  0.4954
  265MOL0     C36472   6.004   5.848   1.328 -0.1499 -0.7228 -0.3396
  265MOL0     C36473   6.109   5.961   1.317  0.9542  0.4800 -0.3018
  265MOL0     C36474   6.235   5.932   1.405 -1.0368 -0.7317  0.2032
  265MOL0     C36475   6.336   6.053   1.422  0.4869  0.0677 -0.1418
  265MOL0     C36476   6.457   5.999   1.493 -0.2037  0.2922  0.0912
  265MOL0    Cl36477   6.572   6.128   1.500 -0.3626 -0.3830 -0.0811
  265MOL0     C36478   5.366   5.592   1.137 -0.4275  0.0034 -0.0085
  265MOL0     C36479   5.230   5.577   1.098 -0.1863 -0.8279  0.5418
  265MOL0     O36480   4.932   5.773   1.208  0.3607 -0.0012 -0.6003
  265MOL0     C36481   4.683   5.665   1.163  0.2818 -0.2445 -0.1524
  265MOL0     C36482   4.552   5.647   1.134  0.1548 -0.8874 -0.1068
  265MOL0     N36483   3.863   5.512   0.798 -0.0315  0.2974  0.1225
  265MOL0     N36484   3.793   5.503   0.681 -0.1385 -0.6198 -0.2273
  265MOL0     C36485   2.586   5.324   0.630 -0.9302 -0.2088 -0.0142
  265MOL0     C36486   2.462   5.346   0.576 -0.6269 -0.2822  1.3086
  265MOL0     C36487   2.106   5.630   0.466  0.0517 -0.2271  0.0945
  265MOL0     C36488   2.009   5.529   0.484  0.2686 -0.3212  0.2933
  265MOL0     C36489   1.877   5.569   0.491  0.2274  0.5239  0.2442
  265MOL0     C36490   1.833   5.693   0.479  0.8767 -0.6289  0.3151
  265MOL0     O36491   1.698   5.714   0.488  0.2815  0.3669  0.0949
  265MOL0     C36492   1.651   5.824   0.405 -0.1509  0.1531  0.6201
  265MOL0     C36493   1.519   5.801   0.349  0.1950 -0.3484 -0.3197
  265MOL0     C36494   1.412   5.743   0.449 -0.4148  0.0736 -0.0799
  265MOL0     C36495   1.271   5.738   0.390  0.2874 -0.6655  0.1178
  265MOL0     C36496   1.189   5.643   0.454  0.5074  1.0070  0.1303
  265MOL0     C36497   1.120   5.559   0.516  0.7407 -0.7146 -0.1252
  265MOL0     C36498   1.928   5.796   0.461  0.9711 -0.4159  0.5208
  265MOL0     C36499   2.066   5.771   0.455 -0.5418  0.4048  0.0800
  265MOL0     C36500   2.167   5.884   0.460 -0.5458  0.1976 -0.2568
  265MOL0     H36501   2.412   5.667   0.665 -0.3440  0.3375 -2.8967
  265MOL0     H36502   2.646   5.640   0.752 -1.6988 -1.2808  3.2139
  265MOL0     H36503   2.874   5.568   0.816 -2.4748 -0.8154 -0.1798
  265MOL0     H36504   2.856   5.565   0.638 -0.5235  0.4534  0.7115
  265MOL0     H36505   3.056   5.415   0.811 -0.7218 -1.5983 -0.3940
  265MOL0     H36506   3.013   5.357   0.648  0.7728 -0.0762  0.5521
  265MOL0     H36507   3.099   5.521   0.540  0.4234  0.6255 -0.7388
  265MOL0     H36508   3.062   5.648   0.667  0.4534  0.2259 -1.1269
  265MOL0     H36509   3.276   5.584   0.788  0.9217  0.0568  0.2331
  265MOL0     H36510   3.287   5.432   0.692  0.2878  0.6310  0.4042
  265MOL0     H36511   3.314   5.717   0.593  0.0234  0.6803 -1.8621
  265MOL0     H36512   3.314   5.583   0.479  0.2336  6.4123 -2.3690
  265MOL0     H36513   3.498   5.594   0.721 -0.4572 -0.7030  0.0104
  265MOL0     H36514   3.514   5.485   0.580 -1.1377  0.9561 -2.2645
  265MOL0     H36515   3.570   5.778   0.634  0.2297 -1.2936  2.1628
  265MOL0     H36516   3.511   5.751   0.470  2.4852  1.1123 -1.0077
  265MOL0     H36517   3.681   5.573   0.440  0.5442 -0.7023  0.0310
  265MOL0     H36518   3.744   5.732   0.452 -2.9191  0.9675 -0.7049
  265MOL0     H36519   3.876   5.811   0.662 -1.7212 -0.1919 -0.0701
  265MOL0     H36520   3.964   5.628   1.003 -1.9769 -0.9365  0.3830
  265MOL0     H36521   3.952   5.798   0.942 -0.6661 -0.6234  1.5281
  265MOL0     H36522   4.117   5.739   0.763 -0.6659 -1.9662 -1.3119
  265MOL0     H36523   4.175   5.758   0.929  1.5833 -0.2497 -1.6562
  265MOL0     H36524   4.150   5.496   0.938  0.1658  1.1827  0.9129
  265MOL0     H36525   4.135   5.501   0.767  1.8670  0.7340 -1.1895
  265MOL0     H36526   4.383   5.467   0.839  2.8331  0.6430  1.5478
  265MOL0     H36527   4.365   5.636   0.784 -0.9630 -1.3799 -1.5324
  265MOL0     H36528   4.569   5.574   0.802  1.0140 -1.0962 -0.4059
  265MOL0     H36529   4.924   5.671   0.824  0.2459 -1.4616  0.6786
  265MOL0     H36530   4.786   5.610   0.733 -0.5413  0.9470  0.4902
  265MOL0     H36531   4.881   5.504   0.844  1.4961  0.2998 -0.2680
  265MOL0     H36532   5.138   5.895   1.127  0.5655 -0.0568  0.2608
  265MOL0     H36533   5.367   5.929   1.154  1.2307 -1.2532 -0.5184
  265MOL0     H36534   5.631   5.880   1.084  0.2083  1.1502 -0.1937
  265MOL0     H36535   5.590   5.907   1.262 -0.4909 -0.1095 -0.4334
  265MOL0     H36536   5.766   5.721   1.316 -1.6172 -1.3881 -0.2675
  265MOL0     H36537   5.799   5.716   1.142 -0.6381 -0.0745 -0.2167
  265MOL0     H36538   5.844   5.986   1.284  0.9466  0.1841  1.0499
  265MOL0     H36539   5.921   5.927   1.144  1.4179 -2.0059  0.5433
  265MOL0     H36540   6.036   5.751   1.289  0.8461  0.0051 -1.4066
  265MOL0     H36541   5.965   5.844   1.430 -0.9360  0.2048 -0.5797
  265MOL0     H36542   6.133   5.981   1.212  2.8707  1.9661  0.3585
  265MOL0     H36543   6.063   6.055   1.350 -3.2087 -1.4063 -0.1393
  265MOL0     H36544   6.291   5.848   1.364 -0.3301 -0.7036  1.0858
  265MOL0     H36545   6.206   5.903   1.506 -0.4362 -0.0345  0.5853
  265MOL0     H36546   6.292   6.132   1.484  0.2094 -0.3949  0.2630
  265MOL0     H36547   6.360   6.096   1.325  1.3016  1.6303  0.7240
  265MOL0     H36548   6.504   5.914   1.443 -1.5238 -0.0339 -0.6291
  265MOL0     H36549   6.426   5.961   1.590 -0.2953 -1.5511 -0.6298
  265MOL0     H36550   5.422   5.502   1.157  1.1805  0.6017 -1.5343
  265MOL0     H36551   5.199   5.474   1.083  1.5240 -1.3399  0.2466
  265MOL0     H36552   4.719   5.682   1.264  0.6725 -0.9311 -0.1701
  265MOL0     H36553   4.482   5.672   1.212 -0.2640  0.1061 -0.7766
  265MOL0     H36554   2.645   5.233   0.618 -2.6199 -1.2811 -0.6173
  265MOL0     H36555   2.412   5.266   0.523  1.4074 -0.6622 -0.1215
  265MOL0     H36556   2.035   5.426   0.507  1.0979 -0.7748 -2.3363
  265MOL0     H36557   1.806   5.489   0.509  0.0066  0.9835  1.5667
  265MOL0     H36558   1.649   5.906   0.477  1.2025  1.5212 -0.8136
  265MOL0     H36559   1.710   5.848   0.316  0.5087 -1.0489  0.7179
  265MOL0     H36560   1.532   5.731   0.265 -0.4286  1.4137 -1.9646
  265MOL0     H36561   1.483   5.891   0.299 -0.4429 -0.5042 -0.1515
  265MOL0     H36562   1.436   5.644   0.490  1.4591  1.5338  2.7080
  265MOL0     H36563   1.420   5.819   0.527  0.2099 -0.7654  0.6901
  265MOL0     H36564   1.264   5.724   0.282 -1.1134  0.7726 -0.0238
  265MOL0     H36565   1.225   5.837   0.398  2.5435  0.4786 -0.1926
  265MOL0     H36566   1.055   5.488   0.563 -2.5835  2.7454  1.0112
  265MOL0     H36567   1.892   5.898   0.453 -2.9833 -1.2772  3.9142
  265MOL0     H36568   2.255   5.864   0.398  0.5978  0.1615  1.3325
  265MOL0     H36569   2.107   5.967   0.421 -3.1704 -1.4943 -0.1160
  265MOL0     H36570   2.207   5.923   0.554 -1.9292  0.3324  0.2995
  266MOL0     O36571   2.431   4.338   5.937 -0.3343  0.0986 -0.1648
  266MOL0     C36572   2.330   4.296   5.987  0.3853  0.1540 -0.5455
  266MOL0     O36573   2.296   4.310   6.122 -0.0299  0.1045 -0.4264
  266MOL0     C36574   2.399   4.358   6.197  0.6643 -0.0865 -0.4830
  266MOL0     C36575   2.504   4.277   6.227  0.1523  0.2540 -0.8605
  266MOL0     C36576   2.619   4.318   6.295  0.5287  0.4095 -0.0110
  266MOL0     C36577   2.626   4.447   6.341  0.1517 -0.0181  0.0526
  266MOL0     O36578   2.750   4.481   6.397 -0.0820 -0.4717  0.1800
  266MOL0     C36579   2.760   4.598   6.475 -1.0238 -0.8093 -0.8048
  266MOL0     C36580   2.807   4.717   6.377 -0.5006  0.3310 -0.1161
  266MOL0     C36581   2.817   4.856   6.436  0.5149 -0.5229 -0.5214
  266MOL0     C36582   2.681   4.918   6.452  0.0494  0.0761  0.0195
  266MOL0     C36583   2.675   5.028   6.562 -0.9753 -0.2040  0.6202
  266MOL0     C36584   2.573   5.135   6.527 -0.3940 -0.2635 -0.3142
  266MOL0     C36585   2.433   5.078   6.503  0.0775  0.0683  1.0143
  266MOL0     C36586   2.336   5.196   6.495 -0.2386 -0.2277 -0.0327
  266MOL0     N36587   2.357   5.281   6.378  0.5035 -0.2635  0.4618
  266MOL0     C36588   2.374   5.240   6.242  0.3429 -0.1333 -0.9464
  266MOL0     C36589   2.402   5.357   6.179  0.2683 -0.8030  0.2190
  266MOL0     C36590   2.439   5.377   6.033  0.3651 -0.8378  0.8083
  266MOL0     C36591   2.580   5.320   5.997 -0.4493 -0.4661 -0.0058
  266MOL0     C36592   2.576   5.171   5.990  0.1859  0.2960 -0.7516
  266MOL0     C36593   2.707   5.106   5.947 -0.8875  0.1397  0.1104
  266MOL0     O36594   2.690   4.967   5.961  0.2982 -0.8788  0.2850
  266MOL0     C36595   2.792   4.882   5.944 -0.0679  0.2296 -0.2672
  266MOL0     C36596   2.782   4.746   5.991  0.2608 -0.1387  0.1989
  266MOL0     C36597   2.884   4.649   5.983 -0.1567 -0.2037 -0.6078
  266MOL0     C36598   2.865   4.519   6.055 -0.3744  0.7334  0.4689
  266MOL0     C36599   3.006   4.684   5.920  0.4791  0.3926  0.4020
  266MOL0     C36600   3.133   4.598   5.911  0.1878  0.5626 -0.0125
  266MOL0     O36601   3.207   4.633   5.802 -0.2403 -0.4313 -0.5128
  266MOL0     C36602   3.340   4.584   5.798  0.1946 -0.3898  0.5035
  266MOL0     C36603   3.426   4.611   5.910  0.9708 -0.3048 -0.5539
  266MOL0     C36604   3.546   4.551   5.898 -0.6480 -1.0986  0.2447
  266MOL0     C36605   3.591   4.475   5.785  0.2469  0.4492 -0.4687
  266MOL0     O36606   3.716   4.420   5.768  0.1899 -0.0917  0.0331
  266MOL0     C36607   3.832   4.441   5.853 -0.0745 -0.5944  0.4202
  266MOL0     C36608   3.955   4.449   5.763 -0.5519 -0.4236 -0.9580
  266MOL0     C36609   3.958   4.342   5.661  0.5173  0.0165  0.1302
  266MOL0     C36610   4.101   4.357   5.592 -0.2459  0.4515 -0.0526
  266MOL0     C36611   4.115   4.244   5.482  0.1768  0.3036 -0.6409
  266MOL0     C36612   4.259   4.222   5.423  0.2636 -0.4563 -0.3301
  266MOL0     C36613   4.257   4.112   5.304  0.3873  0.3418 -0.5563
  266MOL0     C36614   4.402   4.073   5.283  0.0722 -0.2229  0.1433
  266MOL0    Cl36615   4.415   3.939   5.170  0.1842 -0.2113  0.2014
  266MOL0     C36616   3.504   4.447   5.686  0.3299  0.7188 -0.0719
  266MOL0     C36617   3.372   4.496   5.689  0.0424  0.6603 -0.4994
  266MOL0     O36618   3.170   4.528   6.006  0.7153  0.7295  0.5031
  266MOL0     C36619   3.015   4.817   5.868  0.2605  0.4454 -0.0563
  266MOL0     C36620   2.910   4.912   5.881 -0.2742  0.2192  0.3855
  266MOL0     N36621   2.412   5.461   6.270 -0.3138  0.7618 -0.0253
  266MOL0     N36622   2.381   5.413   6.388 -0.1353  0.1456  0.1510
  266MOL0     C36623   2.519   4.533   6.312  0.1126 -0.1791  0.2087
  266MOL0     C36624   2.400   4.488   6.245 -0.0722 -0.6631  0.8021
  266MOL0     C36625   2.231   4.235   5.902  1.0055 -0.1938 -0.2692
  266MOL0     C36626   2.274   4.175   5.782 -0.2449 -0.4040  1.0758
  266MOL0     C36627   2.181   4.122   5.693  0.5217  0.2175  0.1793
  266MOL0     C36628   2.041   4.118   5.720 -0.3199  0.5766  0.3220
  266MOL0     O36629   1.951   4.060   5.629  0.0675  0.7271  0.4705
  266MOL0     C36630   1.983   4.006   5.492  0.3641 -0.2102 -0.6839
  266MOL0     C36631   1.872   3.915   5.440 -0.6824  0.0796  0.0547
  266MOL0     C36632   1.838   3.805   5.550  0.0861 -0.2436 -0.4171
  266MOL0     C36633   1.738   3.696   5.511 -0.7433  0.2066  0.5451
  266MOL0     C36634   1.594   3.729   5.528  0.0287  0.6811  0.4381
  266MOL0     C36635   1.479   3.759   5.566  0.1808 -1.0479  0.1901
  266MOL0     C36636   2.003   4.186   5.838  0.3283 -0.0422 -0.2847
  266MOL0     C36637   2.092   4.249   5.927  0.1893 -0.3202 -0.6940
  266MOL0     C36638   2.019   4.324   6.043 -0.4976 -0.1186  0.0595
  266MOL0     H36639   2.495   4.172   6.201 -1.8478 -0.6618  2.8291
  266MOL0     H36640   2.707   4.255   6.307 -0.5930 -1.0458  1.0965
  266MOL0     H36641   2.835   4.596   6.555 -2.2126  0.9324  0.4160
  266MOL0     H36642   2.666   4.634   6.517  0.2960  2.5932 -0.3679
  266MOL0     H36643   2.912   4.686   6.365 -0.7134 -0.7418  0.6119
  266MOL0     H36644   2.757   4.729   6.281  2.0014 -0.6095 -1.6542
  266MOL0     H36645   2.867   4.857   6.534 -0.9328  1.9057  0.2670
  266MOL0     H36646   2.878   4.921   6.373 -1.3113  0.1441 -1.6569
  266MOL0     H36647   2.667   4.961   6.353  0.4555 -2.8929 -1.4492
  266MOL0     H36648   2.610   4.836   6.460  2.2600 -2.0503 -0.7034
  266MOL0     H36649   2.773   5.076   6.573 -1.1228 -0.1783  1.8955
  266MOL0     H36650   2.652   4.975   6.654 -0.3396 -1.0473  0.3082
  266MOL0     H36651   2.569   5.197   6.617  1.2836 -2.3160  1.2509
  266MOL0     H36652   2.610   5.189   6.439 -0.8709  1.2824  0.3944
  266MOL0     H36653   2.398   5.023   6.591 -1.5103 -0.4065  0.1177
  266MOL0     H36654   2.430   5.019   6.412  0.8932 -1.0144  1.6589
  266MOL0     H36655   2.234   5.156   6.490  0.1457 -1.3855  1.1818
  266MOL0     H36656   2.348   5.262   6.581  2.7570  0.0700 -0.5786
  266MOL0     H36657   2.363   5.147   6.189  1.6697 -1.2037  0.5610
  266MOL0     H36658   2.453   5.481   6.004  0.6437 -0.6811  1.4927
  266MOL0     H36659   2.369   5.342   5.956  0.9920 -0.5288  0.0986
  266MOL0     H36660   2.616   5.364   5.904 -2.5355 -0.0839 -0.6722
  266MOL0     H36661   2.657   5.366   6.060  2.2104 -1.6373 -2.1733
  266MOL0     H36662   2.556   5.132   6.090  0.5061 -1.9584 -1.5129
  266MOL0     H36663   2.502   5.122   5.927 -0.6113  0.0239  0.3540
  266MOL0     H36664   2.733   5.142   5.847  1.3334  1.4914  1.0928
  266MOL0     H36665   2.780   5.139   6.022 -1.5643 -0.4942  1.0676
  266MOL0     H36666   2.691   4.733   6.049 -1.7458  0.0460 -2.7056
  266MOL0     H36667   2.760   4.512   6.083  0.5346 -1.5573  4.1528
  266MOL0     H36668   2.920   4.511   6.150 -2.7053 -1.8562  1.7216
  266MOL0     H36669   2.890   4.437   5.987  2.5481  0.8563  1.2230
  266MOL0     H36670   3.391   4.669   5.994 -0.3965 -1.4097 -0.3204
  266MOL0     H36671   3.615   4.561   5.981 -0.9549 -1.2220  0.5145
  266MOL0     H36672   3.844   4.529   5.917  1.4670 -0.6671  0.2781
  266MOL0     H36673   3.841   4.343   5.902  0.9459 -0.8185 -0.1795
  266MOL0     H36674   3.974   4.542   5.710  2.2667 -0.1782  0.3004
  266MOL0     H36675   4.033   4.428   5.837 -1.2514  2.4414  0.7237
  266MOL0     H36676   3.883   4.373   5.588  1.5637  2.8878  0.1310
  266MOL0     H36677   3.939   4.245   5.707  1.8490 -1.3214 -1.9873
  266MOL0     H36678   4.180   4.342   5.666  0.2192  0.7191 -0.4892
  266MOL0     H36679   4.132   4.452   5.548  2.0593  0.2889  1.0536
  266MOL0     H36680   4.087   4.151   5.532  0.0839  1.3596  1.3569
  266MOL0     H36681   4.041   4.263   5.404  1.7840 -0.3804 -2.4124
  266MOL0     H36682   4.311   4.169   5.503 -1.2459 -0.1792  0.8647
  266MOL0     H36683   4.314   4.311   5.391  1.2382 -0.5904  0.8889
  266MOL0     H36684   4.223   4.152   5.208  0.3346 -1.1105 -1.1625
  266MOL0     H36685   4.185   4.031   5.322  2.5284 -1.6338 -0.3525
  266MOL0     H36686   4.448   4.038   5.376  1.5999 -0.7210 -0.7646
  266MOL0     H36687   4.452   4.163   5.245 -1.3719  0.6523  0.2334
  266MOL0     H36688   3.538   4.384   5.604 -0.5467 -2.7239  1.9972
  266MOL0     H36689   3.298   4.473   5.613 -1.0846  0.1725  0.6938
  266MOL0     H36690   3.108   4.858   5.829  1.1839  0.1411  1.7346
  266MOL0     H36691   2.935   5.012   5.847  2.1646 -1.5782 -4.0227
  266MOL0     H36692   2.525   4.636   6.343 -1.4262  0.0810 -0.2729
  266MOL0     H36693   2.321   4.556   6.213  1.1914  0.2515 -0.4675
  266MOL0     H36694   2.378   4.159   5.757 -0.6068 -1.4888  0.1446
  266MOL0     H36695   2.234   4.076   5.610  0.6351 -0.2484  0.5029
  266MOL0     H36696   2.013   4.080   5.417  0.4122 -1.5544 -2.0448
  266MOL0     H36697   2.076   3.950   5.503  2.3265  3.1378  1.1748
  266MOL0     H36698   1.906   3.870   5.346  0.1541  1.2078 -0.2080
  266MOL0     H36699   1.782   3.975   5.422 -0.6901  0.5252  1.4854
  266MOL0     H36700   1.930   3.749   5.571 -1.5798 -3.2530 -0.6486
  266MOL0     H36701   1.808   3.851   5.645 -0.4898 -2.5167  0.5523
  266MOL0     H36702   1.756   3.611   5.577 -0.0075  1.3190  1.8459
  266MOL0     H36703   1.760   3.667   5.408  1.1669 -1.0096  1.2504
  266MOL0     H36704   1.392   3.783   5.623  1.2432 -2.4955  2.5473
  266MOL0     H36705   1.896   4.200   5.857  0.5427 -1.0919  1.9927
  266MOL0     H36706   2.028   4.266   6.136 -0.4386 -1.8375 -0.9851
  266MOL0     H36707   2.065   4.420   6.065 -1.3964 -0.1291  2.2401
  266MOL0     H36708   1.914   4.337   6.018 -0.4270 -1.4635 -1.0713
  267MOL0     O36709   2.201   7.836   9.040 -0.0851  0.1240 -0.2820
  267MOL0     C36710   2.314   7.825   8.999 -0.1836  0.2630  0.5221
  267MOL0     O36711   2.407   7.928   8.983 -0.7314 -0.7975 -0.1966
  267MOL0     C36712   2.378   8.056   9.034  0.2341  0.2732 -0.7109
  267MOL0     C36713   2.417   8.068   9.169  0.4261 -0.1363 -0.4552
  267MOL0     C36714   2.413   8.194   9.230  1.3536  0.0365  0.1261
  267MOL0     C36715   2.362   8.296   9.155  1.4484 -0.1725 -1.5121
  267MOL0     O36716   2.363   8.421   9.226 -0.2761 -0.0014 -0.2432
  267MOL0     C36717   2.261   8.512   9.194 -0.6445 -0.3047  0.6407
  267MOL0     C36718   2.126   8.479   9.223  0.3385 -0.2233  0.1503
  267MOL0     C36719   2.105   8.433   9.368  0.5431  0.0713  0.2745
  267MOL0     C36720   2.152   8.557   9.464  0.0324  0.2360 -0.2065
  267MOL0     C36721   2.075   8.544   9.594 -0.0052  1.3291  0.1342
  267MOL0     C36722   2.153   8.466   9.704  0.2167  0.6483 -0.3229
  267MOL0     C36723   2.085   8.479   9.838 -0.0858  0.6033  0.0547
  267MOL0     C36724   2.099   8.616   9.911 -0.1277  0.1350  0.4871
  267MOL0     N36725   2.240   8.648   9.961  0.4281  0.7332 -0.1231
  267MOL0     C36726   2.320   8.739   9.899 -0.8212  1.1784  0.5977
  267MOL0     C36727   2.432   8.746   9.980 -1.0395 -0.8896  0.6327
  267MOL0     C36728   2.554   8.845   9.978 -0.3254 -0.2686 -0.6263
  267MOL0     C36729   2.694   8.784   9.944  0.2149 -0.1365  0.0568
  267MOL0     C36730   2.764   8.732  10.066 -0.3426 -0.0507  0.3957
  267MOL0     C36731   2.919   8.700  10.045  0.4065  0.2937 -0.0628
  267MOL0     O36732   2.964   8.607  10.141 -0.1334  0.2482 -0.8751
  267MOL0     C36733   3.096   8.569  10.130  0.2618  1.0495  0.4077
  267MOL0     C36734   3.185   8.613  10.031  0.4085  0.5104  0.1657
  267MOL0     C36735   3.318   8.585  10.030 -0.3951 -0.9394 -0.2225
  267MOL0     C36736   3.400   8.655   9.919 -0.2879  0.6470  0.3335
  267MOL0     C36737   3.364   8.477  10.115 -0.7013 -0.3685  0.3039
  267MOL0     C36738   3.508   8.419  10.126  0.8840 -0.3971  0.0444
  267MOL0     O36739   3.613   8.482  10.055  0.1818 -0.1441  0.2454
  267MOL0     C36740   3.742   8.456  10.094 -0.9618 -0.1489  0.4107
  267MOL0     C36741   3.814   8.551  10.175 -0.2116 -0.0326  0.3985
  267MOL0     C36742   3.950   8.535  10.198 -0.2976 -0.1218  0.1475
  267MOL0     C36743   4.026   8.431  10.142 -0.6942 -0.4655 -0.0850
  267MOL0     O36744   4.163   8.409  10.156 -0.0662 -0.2529  0.1013
  267MOL0     C36745   4.246   8.525  10.193  0.7774  0.2959 -0.3303
  267MOL0     C36746   4.394   8.509  10.144  0.3670  0.7479 -0.5751
  267MOL0     C36747   4.500   8.602  10.197 -0.0114  0.3422 -0.2729
  267MOL0     C36748   4.548   8.574  10.344  0.2128  0.2113 -0.7629
  267MOL0     C36749   4.635   8.688  10.402  0.1442 -0.1693  0.2447
  267MOL0     C36750   4.683   8.654  10.539 -1.1273 -0.3012 -0.5752
  267MOL0     C36751   4.797   8.752  10.579  0.5842  0.4412  0.3098
  267MOL0     C36752   4.854   8.702  10.711 -0.7069  0.8500 -0.0086
  267MOL0    Cl36753   4.719   8.677  10.832  0.1074 -0.2048  0.3451
  267MOL0     C36754   3.955   8.334  10.067  0.1326  0.2387  0.4498
  267MOL0     C36755   3.815   8.350  10.043 -0.2353  0.1083  0.2219
  267MOL0     O36756   3.527   8.324  10.199  1.0704  0.4539  0.6823
  267MOL0     C36757   3.273   8.427  10.211 -0.4109 -0.6246  0.0312
  267MOL0     C36758   3.144   8.480  10.226 -0.1125 -0.1145  0.1082
  267MOL0     N36759   2.418   8.654  10.089 -0.4485  0.0997  0.2853
  267MOL0     N36760   2.305   8.594  10.067 -0.4434 -0.4349 -0.5206
  267MOL0     C36761   2.303   8.282   9.027  0.2123 -0.1516  0.7677
  267MOL0     C36762   2.324   8.164   8.957 -0.6138  0.2532 -0.4366
  267MOL0     C36763   2.379   7.690   9.009 -0.2873  0.0233  0.1122
  267MOL0     C36764   2.492   7.660   9.087 -0.3824  0.5740 -0.1460
  267MOL0     C36765   2.551   7.528   9.080  0.7488 -0.6411 -0.0873
  267MOL0     C36766   2.482   7.428   9.008  0.3687 -0.8077 -0.2193
  267MOL0     O36767   2.529   7.299   9.018  0.2984 -0.9262  0.1143
  267MOL0     C36768   2.464   7.195   8.942  0.1644  0.5004  0.8987
  267MOL0     C36769   2.525   7.058   8.982 -0.3444 -1.0709 -0.1965
  267MOL0     C36770   2.667   7.021   8.921  0.2485  0.2722 -0.4225
  267MOL0     C36771   2.776   7.055   9.023  0.4276 -0.3219 -0.1313
  267MOL0     C36772   2.793   6.956   9.130 -0.3225  0.2006 -1.1799
  267MOL0     C36773   2.813   6.863   9.210  0.2610  0.6916 -0.6679
  267MOL0     C36774   2.365   7.460   8.942 -0.0878 -0.2063  0.6577
  267MOL0     C36775   2.319   7.587   8.928  0.2626  0.4140 -0.2724
  267MOL0     C36776   2.216   7.610   8.823  0.2881  0.8514 -0.0089
  267MOL0     H36777   2.456   7.979   9.218 -0.6488 -0.4876 -0.2034
  267MOL0     H36778   2.445   8.207   9.333  1.1170 -1.2385  0.3793
  267MOL0     H36779   2.279   8.545   9.092 -1.1928 -0.1719  0.5855
  267MOL0     H36780   2.289   8.600   9.253 -1.5026  1.2981 -1.2427
  267MOL0     H36781   2.060   8.564   9.205 -1.6669 -1.7956 -0.3283
  267MOL0     H36782   2.088   8.400   9.158 -2.6602 -0.1413  1.6626
  267MOL0     H36783   2.002   8.402   9.387  0.3088  1.9390  2.3987
  267MOL0     H36784   2.162   8.343   9.392 -0.6898 -0.6116  0.7000
  267MOL0     H36785   2.257   8.569   9.489  0.5892 -1.4830 -1.5011
  267MOL0     H36786   2.126   8.647   9.408 -1.0658  1.1867  1.7170
  267MOL0     H36787   1.972   8.510   9.578  0.6610 -0.7437 -0.0819
  267MOL0     H36788   2.074   8.650   9.619 -0.9582  1.8940 -2.0277
  267MOL0     H36789   2.163   8.359   9.687  4.1339  0.1637  3.3272
  267MOL0     H36790   2.256   8.502   9.702 -0.1290  1.6799 -2.7082
  267MOL0     H36791   2.119   8.400   9.907  2.4888  1.3915 -0.2385
  267MOL0     H36792   1.977   8.464   9.826 -0.0841 -0.4133  1.0639
  267MOL0     H36793   2.067   8.699   9.847  2.5284  1.2184  0.4110
  267MOL0     H36794   2.028   8.626   9.994 -1.1523 -0.7606 -0.2601
  267MOL0     H36795   2.299   8.801   9.813  0.7964  2.3895  1.0326
  267MOL0     H36796   2.549   8.904  10.070 -1.5227  1.1859 -1.5665
  267MOL0     H36797   2.534   8.928   9.909  1.1922 -0.1944 -1.0187
  267MOL0     H36798   2.675   8.710   9.866 -0.2366  0.5713 -0.5154
  267MOL0     H36799   2.757   8.861   9.898  1.2173 -0.9785  0.0034
  267MOL0     H36800   2.755   8.802  10.149 -2.5948 -0.9878  1.0148
  267MOL0     H36801   2.711   8.642  10.099  0.4090  0.0696  2.0182
  267MOL0     H36802   2.928   8.653   9.946 -3.0827 -3.3025  1.0512
  267MOL0     H36803   2.975   8.793  10.055  1.3152 -0.4397  2.1760
  267MOL0     H36804   3.153   8.683   9.954  2.0549  3.2535  1.8440
  267MOL0     H36805   3.470   8.588   9.868 -2.6645 -0.5753 -1.4803
  267MOL0     H36806   3.463   8.743   9.940  0.8979  0.3423 -1.6753
  267MOL0     H36807   3.329   8.686   9.841 -1.3256 -1.6271  0.2966
  267MOL0     H36808   3.764   8.636  10.221 -0.1978 -0.5692  1.4389
  267MOL0     H36809   3.987   8.622  10.251 -2.2621  0.8788 -0.0483
  267MOL0     H36810   4.206   8.613  10.142  1.1513 -0.3829 -1.8275
  267MOL0     H36811   4.255   8.542  10.301  0.0558 -0.6589 -0.1067
  267MOL0     H36812   4.422   8.406  10.168 -0.2937  0.4135 -1.1758
  267MOL0     H36813   4.389   8.518  10.035 -0.3636  1.1455 -0.5135
  267MOL0     H36814   4.448   8.698  10.194 -2.0106 -0.4836  2.9412
  267MOL0     H36815   4.586   8.600  10.129 -1.7466 -0.6363 -2.6101
  267MOL0     H36816   4.598   8.477  10.350  0.2117  0.3197  1.7158
  267MOL0     H36817   4.451   8.566  10.394  0.9414  1.5684  0.9706
  267MOL0     H36818   4.714   8.709  10.329  2.8335  3.9629  3.8639
  267MOL0     H36819   4.569   8.775  10.399  0.4991  0.1233  0.8582
  267MOL0     H36820   4.728   8.555  10.549  1.5239  0.8506 -0.1390
  267MOL0     H36821   4.596   8.659  10.605  0.1495 -1.1999  1.2860
  267MOL0     H36822   4.752   8.850  10.596 -0.6279 -0.0540  0.0677
  267MOL0     H36823   4.874   8.751  10.502  1.8482 -1.2636  1.4987
  267MOL0     H36824   4.926   8.778  10.741 -1.3458  1.5856 -0.3185
  267MOL0     H36825   4.905   8.609  10.684 -1.6882 -0.3652  2.0511
  267MOL0     H36826   4.013   8.251  10.028  0.6582  0.2503  1.1823
  267MOL0     H36827   3.768   8.284   9.970  4.2080  1.2990 -4.2570
  267MOL0     H36828   3.295   8.349  10.283 -1.3452 -0.1959  0.7997
  267MOL0     H36829   3.082   8.444  10.308  1.0216 -2.6690 -0.0583
  267MOL0     H36830   2.263   8.369   8.975 -1.8926 -1.1552  0.5869
  267MOL0     H36831   2.292   8.136   8.858 -0.2210 -1.3566 -0.1273
  267MOL0     H36832   2.554   7.734   9.136  0.7980 -0.8862  0.6451
  267MOL0     H36833   2.641   7.499   9.134  0.0743  0.6300  1.8187
  267MOL0     H36834   2.355   7.193   8.954 -0.7055  3.1285 -4.0361
  267MOL0     H36835   2.473   7.205   8.834 -3.2705 -0.8420  0.3790
  267MOL0     H36836   2.457   6.984   8.941 -2.7911 -0.0289  1.7438
  267MOL0     H36837   2.520   7.040   9.089  0.8196  0.9314  0.2540
  267MOL0     H36838   2.662   6.915   8.895  0.4840  0.7594 -2.6673
  267MOL0     H36839   2.678   7.083   8.832  1.6011 -0.4530 -0.7783
  267MOL0     H36840   2.757   7.151   9.072 -3.0911 -1.3832  0.8864
  267MOL0     H36841   2.872   7.061   8.971  1.4789 -1.3463  1.5612
  267MOL0     H36842   2.822   6.779   9.276 -1.8830 -0.5154 -1.8012
  267MOL0     H36843   2.320   7.378   8.887  1.6234 -1.0998  0.5313
  267MOL0     H36844   2.119   7.603   8.873  0.4606 -2.5008  0.0828
  267MOL0     H36845   2.235   7.707   8.775  0.9062 -0.3879 -2.4074
  267MOL0     H36846   2.228   7.531   8.749 -3.5553  1.7289 -1.8226
  268MOL0     O36847   4.315   7.045   1.139 -0.1394 -0.5398 -1.0520
  268MOL0     C36848   4.283   6.930   1.150  1.2523 -0.2781  0.0522
  268MOL0     O36849   4.359   6.832   1.208 -0.3076 -0.1887 -0.5984
  268MOL0     C36850   4.488   6.852   1.241 -0.2214  0.1757  0.0478
  268MOL0     C36851   4.572   6.745   1.210  0.0719  0.1325 -0.4898
  268MOL0     C36852   4.709   6.749   1.236 -0.7806  0.1847  0.1246
  268MOL0     C36853   4.766   6.870   1.289  0.5494  0.7535 -0.5564
  268MOL0     O36854   4.897   6.863   1.323 -0.3812 -0.3643 -0.8454
  268MOL0     C36855   4.960   6.971   1.405 -0.4392  0.9666  0.1421
  268MOL0     C36856   5.017   7.089   1.321 -0.0834  0.9954  0.3968
  268MOL0     C36857   5.127   7.174   1.409  0.2859  0.8428  0.2380
  268MOL0     C36858   5.255   7.100   1.386 -0.5574  0.2225 -0.5373
  268MOL0     C36859   5.376   7.143   1.468  0.0685  0.5028 -0.3807
  268MOL0     C36860   5.417   7.285   1.427  0.2447  0.0234  0.6985
  268MOL0     C36861   5.536   7.339   1.502  0.4926  0.9422  0.4428
  268MOL0     C36862   5.601   7.469   1.443  0.3211  0.5197 -0.2638
  268MOL0     N36863   5.657   7.555   1.552 -0.7158 -0.1683 -0.5018
  268MOL0     C36864   5.599   7.577   1.669  0.0216 -0.9182  0.3488
  268MOL0     C36865   5.686   7.666   1.727  0.6886  0.6560  0.0039
  268MOL0     C36866   5.664   7.711   1.869 -0.8357  0.0237 -0.6170
  268MOL0     C36867   5.653   7.610   1.979 -0.2590  0.4492 -0.5630
  268MOL0     C36868   5.693   7.682   2.113 -0.1985 -0.6388  0.3363
  268MOL0     C36869   5.652   7.595   2.236  0.0898 -0.4972  0.4178
  268MOL0     O36870   5.703   7.461   2.219  0.4002 -0.3234 -0.6244
  268MOL0     C36871   5.833   7.435   2.246 -0.2432  0.0314  0.3474
  268MOL0     C36872   5.909   7.479   2.354  0.3396  0.3032  0.2518
  268MOL0     C36873   6.049   7.454   2.367 -0.2791 -1.0776 -0.0397
  268MOL0     C36874   6.107   7.505   2.500 -0.6491  0.1297  0.0104
  268MOL0     C36875   6.111   7.389   2.257 -0.4317  0.1259 -0.4829
  268MOL0     C36876   6.262   7.380   2.247  0.3768 -1.1749 -0.7964
  268MOL0     O36877   6.328   7.324   2.358  0.4223 -0.2641  0.1504
  268MOL0     C36878   6.467   7.311   2.371 -0.5647 -0.3921  0.3095
  268MOL0     C36879   6.513   7.254   2.488 -0.0486  0.3782  0.1125
  268MOL0     C36880   6.650   7.251   2.514  0.1768  0.4795 -0.5706
  268MOL0     C36881   6.742   7.287   2.416 -1.0284 -0.0087  0.9157
  268MOL0     O36882   6.872   7.285   2.454  0.2274 -0.3308  0.1358
  268MOL0     C36883   6.977   7.319   2.363 -0.6049  0.4420 -0.2368
  268MOL0     C36884   7.105   7.240   2.419  0.1368  0.0225 -0.3383
  268MOL0     C36885   7.090   7.092   2.428 -0.5646  0.7931  0.2996
  268MOL0     C36886   7.216   7.018   2.487 -0.4263 -0.7631  0.3146
  268MOL0     C36887   7.198   6.863   2.490  0.0682 -1.0318 -0.0526
  268MOL0     C36888   7.303   6.801   2.583  0.0906 -0.4069  0.6415
  268MOL0     C36889   7.259   6.662   2.636 -0.5802  0.7956  1.0700
  268MOL0     C36890   7.135   6.664   2.725 -0.1015  0.3418  0.2196
  268MOL0    Cl36891   7.154   6.768   2.870 -0.0948  0.3610  0.1865
  268MOL0     C36892   6.702   7.343   2.293  0.1830  0.0035  0.8536
  268MOL0     C36893   6.564   7.362   2.275  0.1163  0.6930  0.4788
  268MOL0     O36894   6.308   7.409   2.140  0.8210  0.6221  0.0407
  268MOL0     C36895   6.036   7.347   2.149 -0.4158  0.1881  0.6863
  268MOL0     C36896   5.898   7.366   2.140 -0.1823  0.3035 -0.4753
  268MOL0     N36897   5.789   7.691   1.639 -0.9783  0.1257 -0.4110
  268MOL0     N36898   5.777   7.618   1.538 -0.0141 -0.1532  0.6210
  268MOL0     C36899   4.684   6.981   1.309  0.9276  0.4835 -0.1819
  268MOL0     C36900   4.548   6.971   1.297 -0.1989 -0.7885 -0.4203
  268MOL0     C36901   4.142   6.891   1.124 -0.3753  0.2276  0.1447
  268MOL0     C36902   4.042   6.987   1.121  0.3487  0.3197 -0.6077
  268MOL0     C36903   3.906   6.961   1.090  0.5182 -0.0666 -0.3819
  268MOL0     C36904   3.870   6.827   1.065  0.1138 -0.4098 -0.7579
  268MOL0     O36905   3.740   6.796   1.021  0.4341  0.0754  0.7930
  268MOL0     C36906   3.673   6.721   1.108 -0.2436  0.3816 -0.4500
  268MOL0     C36907   3.530   6.734   1.077  0.8555 -0.8019  0.1503
  268MOL0     C36908   3.442   6.625   1.150  0.3452 -1.0528 -0.0933
  268MOL0     C36909   3.292   6.664   1.142  0.5172  0.4370 -0.4324
  268MOL0     C36910   3.228   6.568   1.224 -0.2922  0.5071  0.1005
  268MOL0     C36911   3.156   6.487   1.276 -0.0683  0.5631  0.5649
  268MOL0     C36912   3.978   6.729   1.071 -0.1464 -0.6037  0.8844
  268MOL0     C36913   4.111   6.759   1.091 -0.1139 -0.2090  0.2169
  268MOL0     C36914   4.207   6.635   1.096 -0.1601 -0.0734 -0.5171
  268MOL0     H36915   4.515   6.656   1.187 -2.4267  0.8467  2.3328
  268MOL0     H36916   4.777   6.665   1.232 -3.0154 -1.8502  1.7982
  268MOL0     H36917   5.051   6.926   1.445  1.2679  4.0669  0.1223
  268MOL0     H36918   4.899   7.002   1.490  0.5882  0.6201  1.0299
  268MOL0     H36919   5.071   7.034   1.243 -0.3510 -2.2392  2.2846
  268MOL0     H36920   4.937   7.146   1.274  0.2545  1.6656  0.6225
  268MOL0     H36921   5.131   7.282   1.395 -2.1236  1.2614  2.1999
  268MOL0     H36922   5.113   7.160   1.516  1.2021 -0.5831  0.2074
  268MOL0     H36923   5.227   6.998   1.414 -2.2685  0.3885 -1.5378
  268MOL0     H36924   5.281   7.107   1.280 -3.6448  0.7321 -1.3526
  268MOL0     H36925   5.458   7.077   1.439 -1.2079 -0.7605 -1.2698
  268MOL0     H36926   5.353   7.143   1.575  0.6540  1.1973 -0.2475
  268MOL0     H36927   5.452   7.280   1.323 -0.5995  1.5441  0.3100
  268MOL0     H36928   5.338   7.359   1.440  0.3355  0.0015  1.4305
  268MOL0     H36929   5.614   7.264   1.490 -0.5452  0.2370 -3.0300
  268MOL0     H36930   5.521   7.344   1.610  2.9942 -1.2463  1.0061
  268MOL0     H36931   5.681   7.436   1.377  1.2682 -1.0530  1.5960
  268MOL0     H36932   5.520   7.521   1.390 -1.9076  1.9163  3.9884
  268MOL0     H36933   5.503   7.535   1.698 -0.2236  0.8895  2.3865
  268MOL0     H36934   5.565   7.758   1.868 -1.7574 -1.8455 -1.3744
  268MOL0     H36935   5.740   7.784   1.897 -0.8555  0.5208 -1.7824
  268MOL0     H36936   5.550   7.574   1.990 -0.3489 -0.0283 -2.5791
  268MOL0     H36937   5.709   7.517   1.965 -0.5180  0.3892 -1.2383
  268MOL0     H36938   5.799   7.707   2.116 -0.2033 -0.6997  1.6494
  268MOL0     H36939   5.633   7.774   2.118 -0.1365 -0.5919  0.2193
  268MOL0     H36940   5.672   7.633   2.337  2.5087 -2.6134  0.8429
  268MOL0     H36941   5.543   7.597   2.231 -0.1039 -2.7445  2.0530
  268MOL0     H36942   5.853   7.522   2.436  0.0927 -1.4654  1.0536
  268MOL0     H36943   6.209   7.538   2.479  0.7175 -3.0618  1.0274
  268MOL0     H36944   6.113   7.432   2.582  1.9639 -2.0761 -1.9693
  268MOL0     H36945   6.064   7.602   2.528 -0.2194  1.2322 -2.8568
  268MOL0     H36946   6.440   7.218   2.560  1.0606  0.4490  1.3151
  268MOL0     H36947   6.690   7.208   2.604 -1.3171  1.3189  0.5356
  268MOL0     H36948   6.952   7.293   2.260 -0.0113  0.7013 -0.4550
  268MOL0     H36949   6.991   7.427   2.366 -0.9207  0.5413 -1.6081
  268MOL0     H36950   7.193   7.266   2.359 -0.6787  0.6251 -1.2992
  268MOL0     H36951   7.130   7.276   2.519  0.3991  0.7063 -0.6386
  268MOL0     H36952   7.066   7.053   2.329 -1.1028 -0.0741  0.7521
  268MOL0     H36953   7.011   7.066   2.499 -1.5383  0.4639 -0.8631
  268MOL0     H36954   7.236   7.061   2.586  0.2830 -1.5282  0.5149
  268MOL0     H36955   7.300   7.048   2.424 -0.1850 -1.2273  0.4165
  268MOL0     H36956   7.096   6.839   2.522 -1.3264  1.1129 -2.5062
  268MOL0     H36957   7.214   6.846   2.383 -0.9799 -0.9123 -0.2371
  268MOL0     H36958   7.305   6.866   2.670 -0.2512 -0.2652  0.5442
  268MOL0     H36959   7.403   6.812   2.539  0.1505 -1.3001  0.5178
  268MOL0     H36960   7.344   6.628   2.695  1.6107  0.2869 -2.1401
  268MOL0     H36961   7.248   6.587   2.557  0.1696 -1.1383  2.6993
  268MOL0     H36962   7.143   6.561   2.760  4.6550  0.0003 -1.2523
  268MOL0     H36963   7.038   6.675   2.675 -0.0819 -0.0241  0.0950
  268MOL0     H36964   6.767   7.374   2.212 -1.5271  0.2689 -0.4860
  268MOL0     H36965   6.539   7.407   2.180 -1.9328 -1.8541 -0.3017
  268MOL0     H36966   6.086   7.314   2.058 -1.2862 -0.7259  0.5287
  268MOL0     H36967   5.839   7.319   2.062 -1.6720 -3.1727  2.4475
  268MOL0     H36968   4.729   7.065   1.361 -0.8669  1.0630  0.5153
  268MOL0     H36969   4.485   7.058   1.311  0.7052 -0.5707  3.0071
  268MOL0     H36970   4.061   7.089   1.151  0.9956  0.6358 -2.0148
  268MOL0     H36971   3.830   7.037   1.080 -0.0476 -0.7779 -1.8026
  268MOL0     H36972   3.706   6.617   1.101  0.5984  0.6660 -0.7848
  268MOL0     H36973   3.682   6.746   1.215 -4.2840  1.7671 -0.2582
  268MOL0     H36974   3.518   6.707   0.972 -0.2156 -4.2248  1.0339
  268MOL0     H36975   3.486   6.834   1.091  0.0152 -0.9424 -1.2465
  268MOL0     H36976   3.460   6.536   1.089 -1.7930 -1.2529 -0.5086
  268MOL0     H36977   3.467   6.607   1.255 -3.7461  1.5591  1.5721
  268MOL0     H36978   3.255   6.645   1.041  2.5651 -2.2649 -0.7953
  268MOL0     H36979   3.281   6.767   1.177 -1.8399 -0.1540  0.7935
  268MOL0     H36980   3.098   6.416   1.331 -1.8305  0.3240 -1.4899
  268MOL0     H36981   3.947   6.626   1.058  0.2662 -0.3733 -3.0386
  268MOL0     H36982   4.160   6.547   1.052 -2.6417  0.9096 -0.0521
  268MOL0     H36983   4.296   6.659   1.037  0.1568  1.3664  0.4858
  268MOL0     H36984   4.231   6.622   1.201 -1.7388 -1.1126 -0.2484
  269MOL0     O36985   2.967   4.325   4.215  1.0099  0.3693  0.8111
  269MOL0     C36986   3.000   4.348   4.099 -0.4311 -0.2600 -0.4240
  269MOL0     O36987   3.127   4.342   4.053 -0.7692  0.9410 -0.0713
  269MOL0     C36988   3.236   4.341   4.140 -0.2293  0.3026 -0.2077
  269MOL0     C36989   3.249   4.377   4.273  0.4115 -0.1302  0.3027
  269MOL0     C36990   3.369   4.365   4.346  0.5161  0.2377 -0.0379
  269MOL0     C36991   3.485   4.307   4.291  1.1298 -0.4083  0.2733
  269MOL0     O36992   3.605   4.276   4.349  0.0957  0.2173  0.0464
  269MOL0     C36993   3.639   4.365   4.451  0.7039  0.3438 -0.1036
  269MOL0     C36994   3.787   4.345   4.503  0.0276 -0.2436  0.4786
  269MOL0     C36995   3.849   4.211   4.484 -0.2680  0.0206  0.3296
  269MOL0     C36996   3.970   4.188   4.574  0.1031  0.9419 -0.3123
  269MOL0     C36997   4.014   4.040   4.567 -0.0760  0.0014 -0.6025
  269MOL0     C36998   4.117   4.023   4.680 -0.1863  0.0138 -0.3448
  269MOL0     C36999   4.175   3.876   4.676  0.1585  0.3498 -0.1595
  269MOL0     C37000   4.294   3.855   4.778  0.3040  0.4226  0.1066
  269MOL0     N37001   4.342   3.712   4.765  0.5812 -0.4025 -0.1219
  269MOL0     C37002   4.347   3.630   4.879  0.8435 -0.2642 -0.1547
  269MOL0     C37003   4.404   3.521   4.831 -0.7569 -0.2132  0.6431
  269MOL0     C37004   4.435   3.381   4.885 -0.6404 -1.3551 -0.2346
  269MOL0     C37005   4.532   3.362   4.999 -0.3139  0.4280 -0.6261
  269MOL0     C37006   4.554   3.216   5.034  1.4286 -1.1251 -0.4752
  269MOL0     C37007   4.640   3.137   4.929 -0.3508 -0.7390  0.0897
  269MOL0     O37008   4.754   3.209   4.892 -0.4289 -0.0212  0.1178
  269MOL0     C37009   4.833   3.141   4.798  0.1894 -0.3408 -0.5413
  269MOL0     C37010   4.938   3.225   4.763  0.4184  0.6922 -0.2357
  269MOL0     C37011   5.035   3.179   4.669  0.1206 -0.2534  0.5730
  269MOL0     C37012   5.160   3.267   4.661  0.5648 -0.1993  0.0204
  269MOL0     C37013   5.021   3.056   4.605  0.0381 -0.7715 -0.1905
  269MOL0     C37014   5.098   3.004   4.494 -0.0225  0.1648 -0.3801
  269MOL0     O37015   5.074   2.873   4.472  0.2351  0.9986  0.4184
  269MOL0     C37016   5.117   2.819   4.353  0.3294 -1.2601  0.0383
  269MOL0     C37017   5.035   2.819   4.241  0.2484 -0.2814 -0.3409
  269MOL0     C37018   5.066   2.742   4.128  0.4065 -0.8771 -0.1743
  269MOL0     C37019   5.184   2.669   4.115  0.4223 -0.3679  0.1354
  269MOL0     O37020   5.210   2.601   3.996  0.6727 -0.0856  0.7996
  269MOL0     C37021   5.315   2.501   4.000  0.3560 -0.2880 -0.2750
  269MOL0     C37022   5.339   2.432   3.865  0.5820 -0.5102 -0.3285
  269MOL0     C37023   5.444   2.316   3.871  0.0079 -0.9267  0.6859
  269MOL0     C37024   5.586   2.383   3.850 -0.3602  0.6483 -0.4310
  269MOL0     C37025   5.686   2.271   3.883 -0.1347  0.0302 -0.6350
  269MOL0     C37026   5.669   2.143   3.801  0.7618  0.1764  0.6383
  269MOL0     C37027   5.793   2.065   3.762 -0.6506 -0.1590  0.2470
  269MOL0     C37028   5.778   1.925   3.713  0.7373 -0.4162  0.1791
  269MOL0    Cl37029   5.721   1.819   3.847 -0.3943  0.3269  0.3677
  269MOL0     C37030   5.268   2.674   4.233  0.3655 -0.6706  0.3801
  269MOL0     C37031   5.233   2.742   4.349 -0.4566  0.3213  0.6799
  269MOL0     O37032   5.174   3.075   4.428 -1.2155 -0.2597  0.4141
  269MOL0     C37033   4.916   2.973   4.654  0.6165 -0.4935 -0.4515
  269MOL0     C37034   4.823   3.014   4.752 -0.0096  0.1606  0.1909
  269MOL0     N37035   4.448   3.547   4.698 -0.2952 -0.5030  0.7440
  269MOL0     N37036   4.398   3.660   4.657 -1.0149  0.1076 -0.3144
  269MOL0     C37037   3.466   4.265   4.159  0.3772  0.0376 -0.2271
  269MOL0     C37038   3.346   4.275   4.086  0.4021  0.4586  0.3794
  269MOL0     C37039   2.895   4.371   3.996 -0.4348  0.6078 -0.0450
  269MOL0     C37040   2.942   4.423   3.875 -0.1009  0.1962  0.5215
  269MOL0     C37041   2.857   4.428   3.766  0.5196 -0.0683  0.3120
  269MOL0     C37042   2.723   4.400   3.772 -0.1601 -0.1753  0.6508
  269MOL0     O37043   2.629   4.418   3.671 -0.7123 -0.0653  0.2036
  269MOL0     C37044   2.683   4.483   3.549 -0.9838  0.1901  0.0330
  269MOL0     C37045   2.583   4.505   3.437 -0.3511  0.1829  0.5599
  269MOL0     C37046   2.469   4.598   3.483  0.1839  0.0074 -0.7073
  269MOL0     C37047   2.370   4.623   3.359  0.7187 -0.1653 -0.9446
  269MOL0     C37048   2.241   4.651   3.420  0.4384 -0.8154  0.0645
  269MOL0     C37049   2.139   4.681   3.489 -0.0856  0.4620  0.8232
  269MOL0     C37050   2.678   4.370   3.896  0.2665 -0.6694 -0.5082
  269MOL0     C37051   2.756   4.341   4.005  0.1813 -0.2473  0.6597
  269MOL0     C37052   2.690   4.287   4.132  0.9379 -0.2543  0.7587
  269MOL0     H37053   3.164   4.424   4.322  0.0716  1.2167 -1.5152
  269MOL0     H37054   3.372   4.404   4.447  1.1751  1.8511 -0.6425
  269MOL0     H37055   3.571   4.343   4.534 -1.5597  1.2632 -1.6303
  269MOL0     H37056   3.618   4.470   4.433 -0.4752  0.6423  2.4631
  269MOL0     H37057   3.841   4.429   4.457  0.1600 -0.0335  1.0141
  269MOL0     H37058   3.790   4.372   4.609  0.7834  2.9877 -0.2582
  269MOL0     H37059   3.771   4.137   4.505  0.9809 -0.7149  2.6424
  269MOL0     H37060   3.892   4.201   4.384  2.6645  1.2428  1.3695
  269MOL0     H37061   4.052   4.257   4.553  3.5655 -2.0937  1.9892
  269MOL0     H37062   3.933   4.207   4.675  3.0496  3.2740  0.4795
  269MOL0     H37063   4.051   4.008   4.469  1.2173 -2.4952  0.5980
  269MOL0     H37064   3.927   3.980   4.595 -0.5354  0.9220 -0.0319
  269MOL0     H37065   4.194   4.100   4.670 -0.6325  0.6464  0.9093
  269MOL0     H37066   4.074   4.031   4.780  2.0098  1.6271  0.5397
  269MOL0     H37067   4.211   3.854   4.575  0.0775  0.4784 -0.2157
  269MOL0     H37068   4.097   3.805   4.705  0.6428  0.7528  2.3335
  269MOL0     H37069   4.377   3.921   4.753  0.4839  0.7634  1.5340
  269MOL0     H37070   4.261   3.878   4.879  1.4233 -0.9627  0.8283
  269MOL0     H37071   4.309   3.645   4.979  0.6256 -2.2120  0.1059
  269MOL0     H37072   4.468   3.314   4.804  0.4874 -0.9050 -0.1666
  269MOL0     H37073   4.334   3.357   4.920 -1.5147  3.8241  1.7474
  269MOL0     H37074   4.631   3.404   4.977 -0.3112  2.3974  2.4752
  269MOL0     H37075   4.495   3.420   5.084 -0.2306 -0.1551 -0.1849
  269MOL0     H37076   4.607   3.208   5.129  2.2034  0.0238 -0.7903
  269MOL0     H37077   4.459   3.162   5.039  0.6824  0.2781  1.9138
  269MOL0     H37078   4.679   3.056   4.990  0.4993  0.7841  1.6736
  269MOL0     H37079   4.589   3.108   4.836  3.6205 -3.7472 -1.4344
  269MOL0     H37080   4.953   3.326   4.799 -2.5767  0.8924  0.7436
  269MOL0     H37081   5.142   3.346   4.588 -2.2017  0.0180  0.8169
  269MOL0     H37082   5.243   3.202   4.631 -0.1175 -0.4716 -1.3509
  269MOL0     H37083   5.185   3.321   4.753  0.7255 -2.7643  1.5703
  269MOL0     H37084   4.940   2.873   4.239  0.5940  0.3201 -0.9148
  269MOL0     H37085   4.990   2.738   4.051  0.3573  0.0257 -0.1851
  269MOL0     H37086   5.410   2.551   4.020  1.4042 -1.9896 -0.7777
  269MOL0     H37087   5.312   2.430   4.083 -0.9221  2.3818  2.1207
  269MOL0     H37088   5.248   2.387   3.824 -0.0880  0.0486  0.4986
  269MOL0     H37089   5.369   2.506   3.791  2.5671 -1.8282 -0.9407
  269MOL0     H37090   5.428   2.246   3.790  4.6664  1.6909 -3.0376
  269MOL0     H37091   5.439   2.254   3.961 -2.5559 -1.0970  0.5017
  269MOL0     H37092   5.599   2.459   3.927 -0.4629 -0.6092  0.8808
  269MOL0     H37093   5.590   2.418   3.747 -2.7393  2.5371  0.0389
  269MOL0     H37094   5.789   2.302   3.868  0.4400 -0.6243  1.5953
  269MOL0     H37095   5.682   2.242   3.989 -0.0722 -1.5785 -1.0372
  269MOL0     H37096   5.616   2.159   3.706  2.1330 -1.9661 -0.5537
  269MOL0     H37097   5.599   2.079   3.856  1.0943  1.4448  2.6428
  269MOL0     H37098   5.859   2.071   3.849  0.2825  2.3957 -0.5134
  269MOL0     H37099   5.850   2.118   3.684 -2.1211  1.2959  0.1050
  269MOL0     H37100   5.870   1.893   3.664  1.5905  1.7245  0.2946
  269MOL0     H37101   5.698   1.916   3.638 -0.7908  1.1284  1.5401
  269MOL0     H37102   5.368   2.632   4.226 -0.3500 -2.3534 -0.1642
  269MOL0     H37103   5.288   2.711   4.437  1.4070 -1.1181 -0.9009
  269MOL0     H37104   4.902   2.867   4.636 -1.3261 -0.0945 -1.5781
  269MOL0     H37105   4.742   2.945   4.774  0.1864 -0.9180 -2.1942
  269MOL0     H37106   3.545   4.212   4.106 -1.6091 -3.8823  0.3736
  269MOL0     H37107   3.343   4.232   3.986  0.6160  1.1415  0.0708
  269MOL0     H37108   3.045   4.456   3.867  0.3200 -0.9068  1.1215
  269MOL0     H37109   2.909   4.460   3.677  4.3177 -2.9082  1.2307
  269MOL0     H37110   2.735   4.576   3.573 -1.0054  0.6087 -1.4172
  269MOL0     H37111   2.765   4.427   3.501 -0.3895  2.5288 -1.8957
  269MOL0     H37112   2.541   4.406   3.417  2.0324 -1.0939  1.5313
  269MOL0     H37113   2.629   4.534   3.342  0.6661 -3.9527 -0.4146
  269MOL0     H37114   2.418   4.534   3.556  0.1461  0.9220  0.0783
  269MOL0     H37115   2.496   4.697   3.519 -2.9667  1.5159 -2.0948
  269MOL0     H37116   2.363   4.532   3.300 -1.3500  0.4927 -1.7972
  269MOL0     H37117   2.415   4.700   3.295 -0.2018 -1.3588 -3.1119
  269MOL0     H37118   2.044   4.698   3.535  0.6642 -0.3568  2.7856
  269MOL0     H37119   2.573   4.343   3.902  0.6706 -2.1733  0.4188
  269MOL0     H37120   2.587   4.257   4.107  0.3702  1.0128  1.4797
  269MOL0     H37121   2.752   4.203   4.164  0.1503 -1.4030 -0.5612
  269MOL0     H37122   2.678   4.367   4.206  3.3303 -0.4796  1.4637
  270MOL0     O37123   5.727  10.975   3.374  0.2050  0.2044  0.3574
  270MOL0     C37124   5.644  10.993   3.290 -0.3896  0.3944 -0.1298
  270MOL0     O37125   5.649  10.940   3.163 -0.1564  0.2403  0.0433
  270MOL0     C37126   5.730  10.833   3.139 -0.7328  0.0484 -0.3166
  270MOL0     C37127   5.869  10.845   3.120 -0.6061 -1.4391 -1.3296
  270MOL0     C37128   5.959  10.737   3.099  0.2974  0.1886  0.2201
  270MOL0     C37129   5.910  10.608   3.089  0.0770 -1.5132 -0.3038
  270MOL0     O37130   5.996  10.512   3.064  1.0927 -0.1692  0.2548
  270MOL0     C37131   5.941  10.386   3.018  0.2880 -0.4727 -0.1918
  270MOL0     C37132   6.051  10.282   2.990  0.0240 -0.1123 -0.2783
  270MOL0     C37133   6.146  10.327   2.884 -0.9894 -0.7335 -0.7575
  270MOL0     C37134   6.257  10.226   2.860 -0.0203  0.7939 -0.4349
  270MOL0     C37135   6.367  10.272   2.769  0.4584  0.1634 -0.3455
  270MOL0     C37136   6.439  10.394   2.824  0.6953 -0.3346 -0.1879
  270MOL0     C37137   6.568  10.418   2.753 -0.3369 -0.2429 -0.5524
  270MOL0     C37138   6.562  10.457   2.607  0.4301 -0.0886 -0.1590
  270MOL0     N37139   6.699  10.491   2.564 -0.6031 -0.0690 -0.0260
  270MOL0     C37140   6.758  10.489   2.432 -0.1311  0.1581 -0.1122
  270MOL0     C37141   6.876  10.554   2.429 -0.3127  0.7377 -0.4091
  270MOL0     C37142   6.964  10.585   2.316 -0.0996 -0.1028 -0.1855
  270MOL0     C37143   7.053  10.463   2.272  0.3261  0.1915 -0.8459
  270MOL0     C37144   7.113  10.480   2.129  0.0366  0.4668  0.0423
  270MOL0     C37145   7.214  10.360   2.088  0.0018 -1.0589  0.2162
  270MOL0     O37146   7.335  10.371   2.167  0.6155 -0.1762 -0.2558
  270MOL0     C37147   7.468  10.380   2.118  0.0343  0.5520  0.1586
  270MOL0     C37148   7.568  10.362   2.211  0.8572 -0.5147 -0.2032
  270MOL0     C37149   7.703  10.357   2.187  0.3346 -0.1499 -0.3575
  270MOL0     C37150   7.786  10.326   2.301 -0.0677 -0.1801  0.5288
  270MOL0     C37151   7.760  10.382   2.055  1.3187 -0.4872  0.3447
  270MOL0     C37152   7.902  10.386   2.022  0.4335  0.2770 -1.2343
  270MOL0     O37153   7.933  10.345   1.895 -0.4735 -0.4231 -0.1614
  270MOL0     C37154   8.067  10.326   1.858  0.8255  0.2279  0.4543
  270MOL0     C37155   8.095  10.354   1.736 -0.4265 -0.3157  0.4402
  270MOL0     C37156   8.218  10.323   1.678 -0.4033  0.1959 -0.2138
  270MOL0     C37157   8.321  10.251   1.747  0.3634 -0.4179  0.5565
  270MOL0     O37158   8.444  10.229   1.688 -0.6128 -0.1224  0.0428
  270MOL0     C37159   8.539  10.153   1.761  0.1163 -0.6833 -0.8077
  270MOL0     C37160   8.659  10.112   1.672 -0.1087  0.8103  0.7538
  270MOL0     C37161   8.615   9.996   1.591 -0.7677 -0.2011 -0.0884
  270MOL0     C37162   8.705   9.950   1.475 -0.8589  0.0727  0.2886
  270MOL0     C37163   8.801   9.833   1.522  0.2686  0.3570  0.5172
  270MOL0     C37164   8.718   9.714   1.567  1.2271 -1.1315 -0.3069
  270MOL0     C37165   8.805   9.581   1.576  0.4276  1.0592  0.0373
  270MOL0     C37166   8.719   9.462   1.644 -0.4894  0.5678  0.1099
  270MOL0    Cl37167   8.816   9.324   1.629 -0.0545 -0.1785 -0.2501
  270MOL0     C37168   8.282  10.213   1.876 -0.7750  0.2332 -0.0944
  270MOL0     C37169   8.156  10.258   1.932 -0.5500  0.3892  0.0338
  270MOL0     O37170   7.977  10.423   2.113 -0.4568  0.2131 -0.4200
  270MOL0     C37171   7.657  10.415   1.956  0.1317 -0.2682  0.0127
  270MOL0     C37172   7.516  10.408   1.983 -0.1862 -0.9206 -0.8412
  270MOL0     N37173   6.897  10.606   2.558 -0.8005 -0.0886 -0.0857
  270MOL0     N37174   6.789  10.569   2.631  0.0617  0.2057 -0.1405
  270MOL0     C37175   5.771  10.591   3.093 -0.1452 -0.3708 -0.8505
  270MOL0     C37176   5.679  10.702   3.112 -0.3207  0.2950 -0.5609
  270MOL0     C37177   5.531  11.080   3.327 -0.7055 -0.1613  0.2402
  270MOL0     C37178   5.423  11.091   3.242  0.8438 -0.1513 -0.1470
  270MOL0     C37179   5.308  11.167   3.258 -0.7734 -0.4902 -0.1122
  270MOL0     C37180   5.302  11.257   3.364 -0.1437  0.1993 -0.4059
  270MOL0     O37181   5.202  11.347   3.397 -0.3716  0.2337 -0.3823
  270MOL0     C37182   5.071  11.323   3.335  0.4188  0.3399 -0.6628
  270MOL0     C37183   4.969  11.444   3.351 -0.1094  1.2383  0.2290
  270MOL0     C37184   4.824  11.388   3.347 -0.0966 -0.5392 -1.0174
  270MOL0     C37185   4.780  11.330   3.213  0.5068  0.5962  1.2076
  270MOL0     C37186   4.787  11.439   3.109 -0.0294  0.2369  0.5132
  270MOL0     C37187   4.777  11.525   3.024  0.3970 -0.0731 -0.2096
  270MOL0     C37188   5.414  11.257   3.450  0.0461 -0.5524 -0.2202
  270MOL0     C37189   5.519  11.169   3.439 -0.2190 -0.0138  0.9455
  270MOL0     C37190   5.625  11.171   3.542  0.3408  0.3293 -0.3862
  270MOL0     H37191   5.911  10.945   3.126 -0.1794 -1.5675 -2.0377
  270MOL0     H37192   6.066  10.753   3.089  0.0360  1.7542 -0.3454
  270MOL0     H37193   5.871  10.390   2.934  1.7857 -0.6755 -1.4917
  270MOL0     H37194   5.888  10.351   3.107 -1.3734 -0.7073 -1.2354
  270MOL0     H37195   6.110  10.267   3.081  1.2232  1.0300 -0.8230
  270MOL0     H37196   5.998  10.190   2.967  0.8840 -0.9188  0.8156
  270MOL0     H37197   6.098  10.333   2.786  0.4311 -0.0353 -1.4347
  270MOL0     H37198   6.191  10.424   2.907 -3.2348 -0.0582  1.2715
  270MOL0     H37199   6.301  10.196   2.956 -1.0657 -0.6238 -0.3654
  270MOL0     H37200   6.211  10.136   2.817  1.7671 -0.1832 -0.4242
  270MOL0     H37201   6.323  10.310   2.676  0.4223 -0.9093 -0.7722
  270MOL0     H37202   6.433  10.190   2.740  0.9236  1.6648 -4.1707
  270MOL0     H37203   6.377  10.484   2.813  1.2629  0.2094  0.8499
  270MOL0     H37204   6.463  10.376   2.929  2.6092 -0.6435 -0.6507
  270MOL0     H37205   6.626  10.325   2.757 -0.7003 -0.4280  1.2781
  270MOL0     H37206   6.615  10.495   2.815 -2.2709  0.7989 -0.3286
  270MOL0     H37207   6.537  10.376   2.539 -2.1520  1.4254 -1.1256
  270MOL0     H37208   6.509  10.552   2.601  0.4075 -0.1382 -0.7868
  270MOL0     H37209   6.716  10.453   2.339  1.4147  1.0266 -1.2024
  270MOL0     H37210   7.026  10.668   2.351  0.3677  0.4129 -2.1208
  270MOL0     H37211   6.900  10.619   2.234  2.3200 -1.3555 -2.7653
  270MOL0     H37212   7.132  10.445   2.345 -2.9960 -3.2673  2.3204
  270MOL0     H37213   6.993  10.372   2.269  1.0202 -0.5416  2.9943
  270MOL0     H37214   7.033  10.486   2.054 -0.3150  0.1646  0.3950
  270MOL0     H37215   7.170  10.574   2.128  2.1596 -0.7323  0.8531
  270MOL0     H37216   7.169  10.262   2.106  0.7808 -1.3897  0.4218
  270MOL0     H37217   7.230  10.369   1.980  0.5384 -3.4917  0.0201
  270MOL0     H37218   7.528  10.346   2.311  1.4439 -0.4471  0.0495
  270MOL0     H37219   7.888  10.293   2.279  0.7773  0.8371  2.6961
  270MOL0     H37220   7.738  10.242   2.352 -0.2134 -0.8953 -0.7332
  270MOL0     H37221   7.786  10.413   2.367 -0.7838  0.8860 -0.8211
  270MOL0     H37222   8.013  10.410   1.691 -0.2053  1.1547  1.7781
  270MOL0     H37223   8.244  10.349   1.576  0.1723 -3.2923 -1.0987
  270MOL0     H37224   8.573  10.211   1.847 -0.7657  2.5335 -2.4896
  270MOL0     H37225   8.480  10.067   1.795 -2.2132  0.5816 -1.4438
  270MOL0     H37226   8.694  10.186   1.599 -1.4354 -0.0160 -0.7827
  270MOL0     H37227   8.737  10.079   1.741  2.5409  2.4638 -1.2230
  270MOL0     H37228   8.517  10.017   1.546 -1.1358 -1.3321  0.1398
  270MOL0     H37229   8.582   9.919   1.661 -0.7386  0.7511  0.9957
  270MOL0     H37230   8.754  10.032   1.422 -1.6540 -0.2757 -1.0277
  270MOL0     H37231   8.633   9.913   1.402 -2.0095 -0.9694  1.8962
  270MOL0     H37232   8.866   9.810   1.437 -3.1467 -1.1386 -1.8813
  270MOL0     H37233   8.858   9.857   1.612 -1.5761 -0.3959  1.9444
  270MOL0     H37234   8.644   9.702   1.487 -1.0601  1.2599  1.2731
  270MOL0     H37235   8.669   9.729   1.663  0.2400 -4.1928 -0.2284
  270MOL0     H37236   8.885   9.606   1.646 -0.5618  2.6720  0.6375
  270MOL0     H37237   8.842   9.544   1.479 -0.6666  1.5528 -0.5882
  270MOL0     H37238   8.622   9.445   1.597  0.1457 -0.6070 -0.8378
  270MOL0     H37239   8.691   9.480   1.748 -2.3314 -0.9096 -0.0736
  270MOL0     H37240   8.346  10.151   1.938 -1.2371 -0.0846  0.0686
  270MOL0     H37241   8.137  10.231   2.035  0.7163 -2.0825 -0.3101
  270MOL0     H37242   7.694  10.451   1.861 -1.5532  0.8888 -0.2523
  270MOL0     H37243   7.456  10.432   1.895  0.8137 -0.5157 -1.4294
  270MOL0     H37244   5.729  10.497   3.059  2.0414 -1.3263 -1.0675
  270MOL0     H37245   5.571  10.688   3.107 -0.1567 -1.5817  0.4156
  270MOL0     H37246   5.427  11.029   3.153  1.6917 -3.0657  1.7884
  270MOL0     H37247   5.234  11.184   3.181  0.2998  4.2717 -0.3632
  270MOL0     H37248   5.083  11.302   3.228 -1.1998  0.1458 -0.8332
  270MOL0     H37249   5.039  11.231   3.384  0.5218  1.3355  1.3450
  270MOL0     H37250   5.000  11.522   3.282  0.1048  1.5685  0.6899
  270MOL0     H37251   4.976  11.504   3.442 -3.3017  2.3984 -0.1675
  270MOL0     H37252   4.817  11.318   3.430  1.3240 -1.4020 -1.5836
  270MOL0     H37253   4.761  11.472   3.377 -0.1715 -1.5017  1.7520
  270MOL0     H37254   4.676  11.297   3.210  0.6185  0.1755 -1.8074
  270MOL0     H37255   4.832  11.242   3.174 -1.3089  0.5543 -1.3986
  270MOL0     H37256   4.751  11.591   2.944 -2.3001  0.6604  1.1611
  270MOL0     H37257   5.405  11.321   3.537 -1.2374  0.1317 -0.8327
  270MOL0     H37258   5.596  11.245   3.618  0.6585 -2.9826  3.3096
  270MOL0     H37259   5.618  11.077   3.598  1.7848  0.4978  0.1301
  270MOL0     H37260   5.728  11.182   3.507  0.7768 -1.0861  0.3463
  271MOL0     O37261   8.706   2.910   0.276  0.6452  0.0986  0.1716
  271MOL0     C37262   8.675   2.792   0.298 -0.0851  0.1725  0.3832
  271MOL0     O37263   8.766   2.686   0.310 -0.5647  0.5479 -0.0726
  271MOL0     C37264   8.900   2.708   0.293  0.1586  0.7478 -0.3707
  271MOL0     C37265   8.962   2.661   0.176 -0.3303 -0.4193 -0.2934
  271MOL0     C37266   9.101   2.681   0.163 -0.0197  0.0464  0.3549
  271MOL0     C37267   9.187   2.738   0.264  0.0837  0.4104  0.1272
  271MOL0     O37268   9.327   2.742   0.239  0.3142  0.0444 -0.4916
  271MOL0     C37269   9.398   2.675   0.349  0.3281 -0.0171 -0.5059
  271MOL0     C37270   9.531   2.625   0.292 -1.1537 -0.0824 -0.4877
  271MOL0     C37271   9.634   2.602   0.410  0.3469  0.0975  0.6670
  271MOL0     C37272   9.772   2.552   0.350 -0.4882  0.1927  0.2306
  271MOL0     C37273   9.857   2.506   0.469  0.2946  1.2076 -0.3001
  271MOL0     C37274   9.942   2.609   0.540  0.0158 -0.1948  0.5157
  271MOL0     C37275  10.069   2.546   0.602 -1.2016 -0.5534 -0.1818
  271MOL0     C37276  10.048   2.442   0.716 -0.2908 -0.3994 -0.5399
  271MOL0     N37277  10.172   2.416   0.786  0.5151  0.5374 -0.5524
  271MOL0     C37278  10.308   2.454   0.763  0.5230  0.1342 -0.3438
  271MOL0     C37279  10.378   2.375   0.847  1.2026 -0.4196  0.9726
  271MOL0     C37280  10.527   2.371   0.864 -0.1806  0.4841 -0.1591
  271MOL0     C37281  10.569   2.227   0.836  0.0181  0.1584 -0.0699
  271MOL0     C37282  10.719   2.195   0.856  0.7909 -0.4057 -0.4614
  271MOL0     C37283  10.773   2.237   0.997  0.9525 -0.1997  0.6468
  271MOL0     O37284  10.817   2.375   0.996 -0.7548 -0.1623 -0.3243
  271MOL0     C37285  10.929   2.421   0.929  0.1594 -1.3472 -0.0275
  271MOL0     C37286  10.933   2.556   0.888  0.2836  0.3584  0.5966
  271MOL0     C37287  11.036   2.603   0.807 -0.2278  0.9636 -0.7064
  271MOL0     C37288  11.016   2.749   0.763  0.3791 -0.3060 -0.6566
  271MOL0     C37289  11.143   2.520   0.765  0.3682 -0.1979  0.4811
  271MOL0     C37290  11.262   2.577   0.693  0.1207 -0.3327  0.6513
  271MOL0     O37291  11.351   2.490   0.632  0.0352 -1.0881 -0.1825
  271MOL0     C37292  11.477   2.527   0.592  0.2765  0.3012 -0.1811
  271MOL0     C37293  11.516   2.510   0.457  0.3542  0.6103  0.2733
  271MOL0     C37294  11.644   2.546   0.418 -0.5970  0.7361  0.1892
  271MOL0     C37295  11.738   2.589   0.512  0.5395  0.0036  0.7437
  271MOL0     O37296  11.873   2.615   0.487  0.1273  0.2186  0.4946
  271MOL0     C37297  11.904   2.715   0.393 -0.2836 -0.8129 -0.3890
  271MOL0     C37298  11.974   2.836   0.460  0.6761  0.5116 -0.4193
  271MOL0     C37299  12.102   2.806   0.535  0.5635 -0.2808  0.4703
  271MOL0     C37300  12.205   2.754   0.439 -0.0726  0.1999  0.1821
  271MOL0     C37301  12.339   2.726   0.512  0.2434  0.5621  0.9151
  271MOL0     C37302  12.449   2.674   0.415  0.1723 -0.3515 -0.4070
  271MOL0     C37303  12.571   2.628   0.490 -0.2899 -0.3941  0.0684
  271MOL0     C37304  12.689   2.628   0.394 -0.3263  0.6520  0.1446
  271MOL0    Cl37305  12.759   2.791   0.403 -0.8097 -0.0243 -0.2145
  271MOL0     C37306  11.701   2.596   0.645  0.7353 -0.3159 -0.1766
  271MOL0     C37307  11.572   2.574   0.687 -0.1169  0.4078  0.0168
  271MOL0     O37308  11.283   2.701   0.714 -0.1014 -0.6274  0.0785
  271MOL0     C37309  11.140   2.387   0.803  0.4391 -0.0520 -0.1152
  271MOL0     C37310  11.032   2.340   0.891 -0.4518 -0.9623 -0.8425
  271MOL0     N37311  10.289   2.287   0.913 -0.2658  0.1117 -0.0768
  271MOL0     N37312  10.170   2.325   0.889  0.2277  0.5645 -0.0297
  271MOL0     C37313   9.123   2.774   0.381 -0.0915 -0.1764 -0.6175
  271MOL0     C37314   8.981   2.761   0.393  0.5502 -1.0217 -0.2411
  271MOL0     C37315   8.533   2.765   0.323 -0.4956 -0.8551 -0.4821
  271MOL0     C37316   8.478   2.649   0.266 -0.4759 -0.0250  0.8680
  271MOL0     C37317   8.348   2.601   0.286 -0.3727  0.3127 -0.6643
  271MOL0     C37318   8.264   2.673   0.369  0.0375  0.2699 -0.3676
  271MOL0     O37319   8.145   2.616   0.388  0.0978  0.5420 -1.0944
  271MOL0     C37320   8.063   2.674   0.489  0.8681 -0.4465  0.5627
  271MOL0     C37321   7.924   2.602   0.485 -0.3157  0.0412  0.3159
  271MOL0     C37322   7.836   2.664   0.593  0.3452  0.4422  0.2846
  271MOL0     C37323   7.700   2.596   0.594 -0.5436  0.1115  0.4705
  271MOL0     C37324   7.621   2.646   0.711  0.0853 -0.0377  0.5512
  271MOL0     C37325   7.554   2.684   0.801 -0.2384  0.4025 -0.6024
  271MOL0     C37326   8.325   2.783   0.437 -0.5466  0.3909  0.2645
  271MOL0     C37327   8.457   2.825   0.423  0.4006 -0.1473  0.1809
  271MOL0     C37328   8.517   2.924   0.522  0.5462  0.1001  0.5267
  271MOL0     H37329   8.907   2.607   0.099  1.6535 -0.4774 -1.7672
  271MOL0     H37330   9.147   2.643   0.073 -1.1500  0.7885 -0.5609
  271MOL0     H37331   9.343   2.591   0.394 -0.7550  1.0788  0.2890
  271MOL0     H37332   9.414   2.748   0.428  0.9330 -0.1206 -0.5320
  271MOL0     H37333   9.513   2.533   0.236 -1.4138 -0.6768  0.5643
  271MOL0     H37334   9.568   2.709   0.231 -0.4357  1.1548  1.5315
  271MOL0     H37335   9.643   2.697   0.462 -1.9826  0.2489  0.8937
  271MOL0     H37336   9.589   2.520   0.467 -3.1725 -0.5378 -2.5986
  271MOL0     H37337   9.746   2.460   0.298 -0.1638  0.0325  0.3514
  271MOL0     H37338   9.835   2.620   0.292 -0.8441 -0.0573 -0.4565
  271MOL0     H37339   9.926   2.433   0.425  2.4319  0.0601  4.3541
  271MOL0     H37340   9.799   2.456   0.547 -1.0378  1.8858 -0.8184
  271MOL0     H37341   9.961   2.686   0.464 -4.1597  1.8498  1.2587
  271MOL0     H37342   9.881   2.657   0.616 -1.6433  0.2316 -1.0136
  271MOL0     H37343  10.118   2.634   0.644 -1.6587 -0.3284 -0.1080
  271MOL0     H37344  10.134   2.519   0.518 -4.0540  4.0628 -4.4805
  271MOL0     H37345   9.979   2.483   0.790  2.4430  3.0868  0.3151
  271MOL0     H37346  10.002   2.347   0.686  2.3276 -1.5861 -1.1590
  271MOL0     H37347  10.353   2.521   0.691 -2.8495  0.1427 -2.6363
  271MOL0     H37348  10.548   2.374   0.971 -1.9373 -0.0840  0.2428
  271MOL0     H37349  10.583   2.444   0.805 -0.1770 -0.1153 -0.9265
  271MOL0     H37350  10.506   2.155   0.889 -0.2640  0.1060 -0.4702
  271MOL0     H37351  10.547   2.206   0.730  0.6301 -1.5753  0.1290
  271MOL0     H37352  10.733   2.086   0.856  2.0112 -0.2776  0.5299
  271MOL0     H37353  10.781   2.243   0.779 -0.3621 -0.5130 -1.4836
  271MOL0     H37354  10.695   2.230   1.073  1.6536  1.9234  1.6253
  271MOL0     H37355  10.847   2.167   1.039 -0.8977 -1.7537  1.4917
  271MOL0     H37356  10.841   2.611   0.907  0.7041  1.1128  0.5119
  271MOL0     H37357  10.914   2.787   0.776 -0.9803 -3.0783 -2.1847
  271MOL0     H37358  11.049   2.764   0.660 -0.7990  1.6626 -0.7950
  271MOL0     H37359  11.080   2.808   0.829  1.6032 -2.4192  0.1483
  271MOL0     H37360  11.440   2.457   0.399 -0.4066  1.2881  0.6374
  271MOL0     H37361  11.683   2.545   0.317 -2.2620  2.0200 -0.5121
  271MOL0     H37362  11.973   2.669   0.322 -0.0228 -1.9014  0.5300
  271MOL0     H37363  11.817   2.756   0.342 -0.0743 -1.4339 -1.2647
  271MOL0     H37364  11.991   2.912   0.383  0.3007  0.9221 -0.0990
  271MOL0     H37365  11.911   2.895   0.528  0.1168  0.5383 -0.9480
  271MOL0     H37366  12.088   2.722   0.604  3.5258 -0.0233  1.5421
  271MOL0     H37367  12.146   2.894   0.583 -1.3976 -0.0119  1.9147
  271MOL0     H37368  12.223   2.828   0.360  0.3787  1.6083  1.5532
  271MOL0     H37369  12.173   2.659   0.395 -1.0070 -0.8257  2.8902
  271MOL0     H37370  12.380   2.817   0.557  0.8032  0.2043  1.1380
  271MOL0     H37371  12.325   2.654   0.593 -0.5417 -0.5167 -0.1493
  271MOL0     H37372  12.478   2.752   0.344  2.2017 -0.9553 -0.3047
  271MOL0     H37373  12.418   2.584   0.362  1.1191 -1.2395  0.5089
  271MOL0     H37374  12.541   2.528   0.524 -2.0666 -0.1745 -0.7246
  271MOL0     H37375  12.587   2.686   0.581 -0.8329 -2.2393  1.4098
  271MOL0     H37376  12.655   2.586   0.299  1.0363 -2.9647  1.1119
  271MOL0     H37377  12.759   2.548   0.419  0.1813  0.8819 -0.5188
  271MOL0     H37378  11.767   2.623   0.727  1.3317 -0.1177 -0.7153
  271MOL0     H37379  11.560   2.583   0.794  1.1994 -2.5723  0.5155
  271MOL0     H37380  11.219   2.318   0.776  0.6786  0.2558 -0.2045
  271MOL0     H37381  11.038   2.233   0.911  2.4629 -0.9147 -1.0760
  271MOL0     H37382   9.179   2.819   0.462 -2.6856 -2.1449  2.5420
  271MOL0     H37383   8.927   2.810   0.473 -1.4308 -0.4513 -1.8436
  271MOL0     H37384   8.538   2.582   0.205 -1.3320  0.1828 -0.2045
  271MOL0     H37385   8.326   2.506   0.238 -0.4157 -1.4277  2.5001
  271MOL0     H37386   8.111   2.673   0.587  1.2084  0.5190  0.4133
  271MOL0     H37387   8.042   2.779   0.467  2.6247 -0.0706  0.5057
  271MOL0     H37388   7.938   2.495   0.503 -2.8222 -0.3374  0.4123
  271MOL0     H37389   7.872   2.617   0.390 -1.7274  1.1877  1.2222
  271MOL0     H37390   7.883   2.646   0.691  0.1959 -0.8844  0.1284
  271MOL0     H37391   7.821   2.771   0.579 -0.7327  0.0834 -1.4446
  271MOL0     H37392   7.715   2.488   0.595  1.5820  0.3571  2.1986
  271MOL0     H37393   7.651   2.613   0.498 -0.0385  0.6181  0.2964
  271MOL0     H37394   7.489   2.726   0.875 -1.7079  0.6014 -1.9469
  271MOL0     H37395   8.260   2.830   0.510 -2.4919  0.4434 -1.4153
  271MOL0     H37396   8.453   2.927   0.610  2.4461  2.6632  1.9768
  271MOL0     H37397   8.617   2.911   0.564 -0.7964 -1.7275  3.4329
  271MOL0     H37398   8.514   3.022   0.473  0.7124  0.8349  1.9344
  272MOL0     O37399   6.457   2.623  10.971 -0.3578  0.0885  0.4347
  272MOL0     C37400   6.390   2.540  10.903 -0.9055 -0.0005  0.6416
  272MOL0     O37401   6.368   2.407  10.943 -0.1044  0.6762 -0.9563
  272MOL0     C37402   6.445   2.354  11.051 -0.0119  0.1803  0.1678
  272MOL0     C37403   6.395   2.257  11.135  0.1717 -0.4861  1.0538
  272MOL0     C37404   6.472   2.211  11.240 -0.3964  0.7032 -0.2186
  272MOL0     C37405   6.608   2.249  11.255  0.6481  0.3716 -0.4865
  272MOL0     O37406   6.670   2.212  11.369  0.0223  0.8244  0.5995
  272MOL0     C37407   6.780   2.121  11.356  0.5873 -0.1701  0.2930
  272MOL0     C37408   6.896   2.151  11.462 -0.1421  0.9332 -0.2323
  272MOL0     C37409   6.967   2.286  11.441  0.5721  0.0495  0.6364
  272MOL0     C37410   7.053   2.283  11.314  0.3273 -0.6409  0.4748
  272MOL0     C37411   7.131   2.414  11.302  0.4616  0.1956  0.3111
  272MOL0     C37412   7.228   2.417  11.180 -0.1513 -0.1052  0.1235
  272MOL0     C37413   7.306   2.552  11.165  0.3059  0.8123  0.2163
  272MOL0     C37414   7.455   2.531  11.122 -0.6027 -0.7903 -0.4576
  272MOL0     N37415   7.465   2.463  10.993  0.4304 -0.7383 -0.6070
  272MOL0     C37416   7.579   2.404  10.943  0.0946  0.8529  0.5314
  272MOL0     C37417   7.546   2.363  10.818 -0.5789 -0.2061  0.1251
  272MOL0     C37418   7.637   2.283  10.722 -0.3515  0.0284 -0.9866
  272MOL0     C37419   7.667   2.354  10.589  0.2020 -0.3292 -1.3053
  272MOL0     C37420   7.745   2.491  10.615 -0.1540  0.8648 -0.2870
  272MOL0     C37421   7.880   2.492  10.686  0.1673  0.3110  0.1169
  272MOL0     O37422   7.965   2.403  10.611  0.9775 -0.6551  0.4755
  272MOL0     C37423   8.077   2.365  10.678  0.1044  0.7261 -0.5186
  272MOL0     C37424   8.148   2.264  10.615 -0.2664  0.0108 -0.2053
  272MOL0     C37425   8.277   2.209  10.664 -0.3024  0.7659 -0.1698
  272MOL0     C37426   8.327   2.083  10.595  0.3209  0.0628  0.7096
  272MOL0     C37427   8.334   2.271  10.774 -0.2439 -0.0300  0.1728
  272MOL0     C37428   8.469   2.238  10.827  0.2151 -0.4254  0.7170
  272MOL0     O37429   8.527   2.338  10.900 -0.3874  0.2121 -0.1137
  272MOL0     C37430   8.661   2.345  10.930 -0.3538  0.0562  0.6249
  272MOL0     C37431   8.711   2.462  10.982  0.4652 -0.7670  0.6477
  272MOL0     C37432   8.847   2.474  11.018 -0.1364 -1.0536 -0.7562
  272MOL0     C37433   8.934   2.372  11.013  0.6815  0.2133  0.6041
  272MOL0     O37434   9.063   2.389  11.031 -0.0030  0.4493 -0.0256
  272MOL0     C37435   9.108   2.379  11.167 -0.5910  0.8745 -0.1469
  272MOL0     C37436   9.258   2.391  11.168 -0.0018 -1.4227  1.1432
  272MOL0     C37437   9.310   2.533  11.137 -0.0755  0.4288 -0.5933
  272MOL0     C37438   9.451   2.511  11.069  0.0681  0.2222 -0.6592
  272MOL0     C37439   9.555   2.471  11.172  0.3976 -0.0636  0.4674
  272MOL0     C37440   9.555   2.551  11.306  0.3298 -0.0889 -0.5980
  272MOL0     C37441   9.550   2.709  11.291  0.4770  0.6825  0.3121
  272MOL0     C37442   9.672   2.762  11.216 -0.6651 -0.2529 -0.0703
  272MOL0    Cl37443   9.838   2.730  11.285  0.2519 -0.1090  0.6546
  272MOL0     C37444   8.888   2.251  10.961 -0.1442  0.6158  0.8710
  272MOL0     C37445   8.752   2.232  10.923 -0.7692 -0.9567  0.7580
  272MOL0     O37446   8.509   2.126  10.811 -0.0869 -0.2385 -0.0569
  272MOL0     C37447   8.269   2.375  10.830  0.0841 -0.4837  0.2409
  272MOL0     C37448   8.138   2.424  10.792 -0.7494  0.5018  0.1245
  272MOL0     N37449   7.414   2.403  10.794 -0.2499 -0.2004  0.0844
  272MOL0     N37450   7.372   2.469  10.895 -0.3545  0.2585  0.3500
  272MOL0     C37451   6.670   2.328  11.158  0.4946  0.0826  0.2387
  272MOL0     C37452   6.590   2.373  11.048 -0.3212 -0.1595 -0.6707
  272MOL0     C37453   6.329   2.575  10.772  0.3879 -0.5562  0.2909
  272MOL0     C37454   6.253   2.476  10.700 -0.3732  0.0659 -0.1633
  272MOL0     C37455   6.200   2.501  10.576  0.0556 -0.4880  0.1953
  272MOL0     C37456   6.203   2.633  10.520  0.7435  0.1095  0.2745
  272MOL0     O37457   6.138   2.657  10.404  0.0323  0.4944  0.8817
  272MOL0     C37458   6.167   2.757  10.308  0.2933 -0.5296  1.3144
  272MOL0     C37459   6.318   2.754  10.288  0.7146  0.2769  0.0609
  272MOL0     C37460   6.368   2.844  10.170 -0.0979  0.1785 -0.4661
  272MOL0     C37461   6.373   2.767  10.040 -0.5166 -0.1423  0.3403
  272MOL0     C37462   6.483   2.676  10.030  0.3095  0.4144 -0.6105
  272MOL0     C37463   6.578   2.602  10.020  0.0843 -0.2896  0.1963
  272MOL0     C37464   6.259   2.736  10.599 -0.4034 -0.3965  0.1809
  272MOL0     C37465   6.316   2.708  10.723 -0.2807 -0.2510 -0.9159
  272MOL0     C37466   6.369   2.831  10.799  0.0657  0.6778 -0.1524
  272MOL0     H37467   6.290   2.246  11.111  0.6118  1.5657 -2.4766
  272MOL0     H37468   6.426   2.150  11.318 -0.3816  0.8951 -0.0601
  272MOL0     H37469   6.824   2.125  11.256 -0.7434  1.3036 -0.2851
  272MOL0     H37470   6.736   2.027  11.388 -1.1622  0.1320 -1.0804
  272MOL0     H37471   6.859   2.142  11.564 -2.0621 -1.1600 -1.0468
  272MOL0     H37472   6.972   2.075  11.444  0.0798  0.8506  0.9733
  272MOL0     H37473   6.898   2.369  11.457  0.4182 -0.1723  1.1260
  272MOL0     H37474   7.042   2.291  11.520  0.6316 -0.2842  0.6035
  272MOL0     H37475   7.122   2.198  11.314  3.1084  1.4808 -1.0190
  272MOL0     H37476   6.982   2.281  11.231 -0.5009  2.8346  0.9636
  272MOL0     H37477   7.197   2.427  11.389  2.0713 -1.1886 -0.6327
  272MOL0     H37478   7.062   2.498  11.290 -0.4939 -0.6749 -0.4133
  272MOL0     H37479   7.298   2.338  11.210  2.7302  0.4684 -4.1874
  272MOL0     H37480   7.186   2.398  11.081  3.9960  1.9407 -2.3147
  272MOL0     H37481   7.305   2.601  11.263 -2.1481  2.8966 -0.7422
  272MOL0     H37482   7.262   2.616  11.087 -0.4143  1.5821  1.2337
  272MOL0     H37483   7.513   2.622  11.102 -0.5945 -0.4065  1.1977
  272MOL0     H37484   7.513   2.475  11.196 -2.3345 -0.6943  1.0547
  272MOL0     H37485   7.671   2.390  10.998 -0.1671 -0.8345  0.6011
  272MOL0     H37486   7.593   2.184  10.709 -0.9532  0.0428  0.7411
  272MOL0     H37487   7.734   2.269  10.771 -0.3178  1.0481 -0.7291
  272MOL0     H37488   7.719   2.287  10.519 -0.5774 -0.5296 -1.6965
  272MOL0     H37489   7.575   2.376  10.534  0.6520  0.9263 -1.5876
  272MOL0     H37490   7.762   2.532  10.516 -0.1090  3.4248  0.7227
  272MOL0     H37491   7.681   2.570  10.655 -0.2164  1.5214 -1.6318
  272MOL0     H37492   7.927   2.591  10.684  2.3205 -0.5792  2.0069
  272MOL0     H37493   7.860   2.462  10.790 -3.0162  1.7096  0.0390
  272MOL0     H37494   8.096   2.224  10.528  0.7435  0.3498 -0.9782
  272MOL0     H37495   8.279   2.082  10.497 -0.8954 -1.2269  1.2880
  272MOL0     H37496   8.298   1.988  10.641 -0.7528  1.6759  3.5550
  272MOL0     H37497   8.436   2.085  10.585  0.3526  0.5605  1.1105
  272MOL0     H37498   8.646   2.549  10.986  2.8327  1.3736 -2.7165
  272MOL0     H37499   8.879   2.569  11.059 -3.1070 -0.9100  1.6017
  272MOL0     H37500   9.056   2.455  11.227 -1.3122 -0.4076  0.9018
  272MOL0     H37501   9.079   2.283  11.211  0.9859  0.8658  0.9712
  272MOL0     H37502   9.291   2.360  11.267  1.2765 -2.0721  0.5421
  272MOL0     H37503   9.288   2.317  11.093  1.0784 -1.3082  1.4476
  272MOL0     H37504   9.321   2.596  11.226  1.0626 -0.5616 -0.0018
  272MOL0     H37505   9.239   2.573  11.064 -1.4311 -1.9438 -0.6732
  272MOL0     H37506   9.476   2.602  11.013  1.1862  0.2924 -0.0776
  272MOL0     H37507   9.436   2.440  10.988 -0.6129  0.9365 -1.1768
  272MOL0     H37508   9.537   2.364  11.186  0.8843 -0.3857 -1.0856
  272MOL0     H37509   9.652   2.480  11.123  0.0387 -1.8782 -0.6812
  272MOL0     H37510   9.639   2.515  11.366  1.3222 -0.2697 -2.0401
  272MOL0     H37511   9.465   2.514  11.358  1.7686 -1.6184  0.9213
  272MOL0     H37512   9.555   2.748  11.393  1.3950 -0.2618  0.6441
  272MOL0     H37513   9.456   2.739  11.243  0.9572  0.1705 -1.0060
  272MOL0     H37514   9.651   2.869  11.207  3.3062  0.9882  2.4478
  272MOL0     H37515   9.676   2.720  11.115 -1.2894  3.6779 -1.9493
  272MOL0     H37516   8.951   2.162  10.958 -0.0927  0.6818 -0.6699
  272MOL0     H37517   8.724   2.132  10.893 -0.0854 -0.3874 -2.0178
  272MOL0     H37518   8.314   2.425  10.916  0.6994  1.3348 -1.0820
  272MOL0     H37519   8.094   2.507  10.847 -1.3917 -1.0934  2.1539
  272MOL0     H37520   6.776   2.350  11.159  0.9997 -1.8178 -2.3030
  272MOL0     H37521   6.642   2.425  10.968 -1.9184  0.4531 -1.3690
  272MOL0     H37522   6.238   2.378  10.745 -5.4596  1.2688  1.4260
  272MOL0     H37523   6.159   2.418  10.519 -0.2366 -1.0380  1.1843
  272MOL0     H37524   6.110   2.735  10.217  0.9649  1.5405  0.3283
  272MOL0     H37525   6.134   2.855  10.346  0.2574  1.3335 -2.9691
  272MOL0     H37526   6.341   2.648  10.280  2.1771  0.6776 -1.6516
  272MOL0     H37527   6.357   2.801  10.379  3.3107 -0.0310 -0.8266
  272MOL0     H37528   6.300   2.929  10.159 -0.9410 -0.6070 -1.5747
  272MOL0     H37529   6.462   2.885  10.209  1.5352 -1.1111 -2.7907
  272MOL0     H37530   6.380   2.829   9.950  2.8356 -1.9850 -0.8603
  272MOL0     H37531   6.284   2.703  10.036  0.6273 -1.7430 -1.9456
  272MOL0     H37532   6.656   2.529  10.030 -1.3590 -1.9984 -0.3608
  272MOL0     H37533   6.263   2.836  10.558  1.9818 -0.4684  0.1178
  272MOL0     H37534   6.478   2.835  10.807  0.3961 -1.1101 -2.7987
  272MOL0     H37535   6.335   2.921  10.748 -1.5847  0.7302  0.9705
  272MOL0     H37536   6.322   2.835  10.898 -0.5988  2.1161 -0.5129
  273MOL0     O37537   4.042   7.915  10.392 -0.2191  0.3605  0.2978
  273MOL0     C37538   4.074   7.975  10.293 -0.3398  0.3956  0.7456
  273MOL0     O37539   3.998   7.990  10.174 -0.2920  0.4287 -0.3436
  273MOL0     C37540   3.876   7.922  10.169 -0.2488 -0.4877  0.1127
  273MOL0     C37541   3.870   7.785  10.159  0.4206 -0.4406  0.3682
  273MOL0     C37542   3.748   7.720  10.145  1.1142 -0.0283 -0.4184
  273MOL0     C37543   3.627   7.792  10.154 -0.0145  0.4081 -0.7914
  273MOL0     O37544   3.505   7.721  10.140 -0.4228  0.3726  0.3735
  273MOL0     C37545   3.384   7.792  10.143 -0.3137  0.7642  0.6477
  273MOL0     C37546   3.289   7.674  10.148  0.4861 -0.2003 -0.4122
  273MOL0     C37547   3.146   7.724  10.175 -0.1194 -0.3808 -0.0407
  273MOL0     C37548   3.092   7.796  10.055  0.3899  0.3583  0.2425
  273MOL0     C37549   2.982   7.898  10.089  0.1130 -1.1432  0.5736
  273MOL0     C37550   2.920   7.974   9.969 -0.3687 -1.1487  0.3270
  273MOL0     C37551   2.820   7.903   9.877  0.6826  0.6590  0.5672
  273MOL0     C37552   2.800   7.980   9.751 -0.9679 -0.0612 -0.3052
  273MOL0     N37553   2.921   7.979   9.667 -0.1218 -0.2394  0.1781
  273MOL0     C37554   2.993   8.089   9.633  0.2115 -0.3645 -0.9799
  273MOL0     C37555   3.095   8.037   9.555  0.8027 -0.1855 -0.0525
  273MOL0     C37556   3.201   8.122   9.492 -0.5991 -0.0794 -0.2190
  273MOL0     C37557   3.298   8.055   9.389 -0.3723  0.0033  0.9800
  273MOL0     C37558   3.406   8.157   9.340 -1.0056 -0.1749  0.0461
  273MOL0     C37559   3.444   8.134   9.192  0.6845 -0.1588 -0.0541
  273MOL0     O37560   3.570   8.198   9.196  0.1271  0.0201  0.7113
  273MOL0     C37561   3.655   8.208   9.081  0.5432 -0.3008 -0.6996
  273MOL0     C37562   3.612   8.170   8.949  0.8447  0.9506 -0.1009
  273MOL0     C37563   3.705   8.182   8.846  0.1498  0.2293  0.3942
  273MOL0     C37564   3.648   8.129   8.719 -0.0118  0.5505  0.4176
  273MOL0     C37565   3.843   8.208   8.869 -0.4090 -0.2119 -0.1700
  273MOL0     C37566   3.952   8.207   8.770  0.3216  0.8794  0.5301
  273MOL0     O37567   4.072   8.261   8.805  0.0338  0.2394 -0.3313
  273MOL0     C37568   4.173   8.289   8.724  0.6436  0.4536  0.0014
  273MOL0     C37569   4.300   8.279   8.794  0.5383 -0.3307 -0.1184
  273MOL0     C37570   4.416   8.289   8.723 -0.5436  0.6702  0.4969
  273MOL0     C37571   4.423   8.313   8.582  1.5354  0.4631  0.1212
  273MOL0     O37572   4.532   8.349   8.507  0.2483  0.5098 -0.5756
  273MOL0     C37573   4.655   8.355   8.584  0.1774  0.0092 -0.1806
  273MOL0     C37574   4.779   8.349   8.501 -0.4347  0.2463  0.5498
  273MOL0     C37575   4.796   8.484   8.434 -0.3780 -0.2925  0.1282
  273MOL0     C37576   4.874   8.478   8.307  1.4581  0.7216  0.4704
  273MOL0     C37577   5.011   8.420   8.327 -0.3669  0.1456 -0.0940
  273MOL0     C37578   5.082   8.429   8.192 -0.1996 -0.0020 -0.5090
  273MOL0     C37579   5.222   8.373   8.192 -0.4653  0.5243  0.3227
  273MOL0     C37580   5.332   8.470   8.243  0.1279 -0.1882 -0.7514
  273MOL0    Cl37581   5.466   8.379   8.309  0.0606  0.5083 -0.2989
  273MOL0     C37582   4.298   8.337   8.519  0.3593  1.5272  0.1721
  273MOL0     C37583   4.176   8.322   8.588 -0.2613 -0.1838  0.2190
  273MOL0     O37584   3.935   8.155   8.663  0.4096  0.1520  0.9124
  273MOL0     C37585   3.879   8.250   8.999  0.9325 -0.2438 -0.0596
  273MOL0     C37586   3.784   8.250   9.103 -1.1133 -0.7210  0.4800
  273MOL0     N37587   3.075   7.902   9.539 -0.2819  0.1561 -0.0887
  273MOL0     N37588   2.983   7.865   9.621 -0.2095  0.3527  0.3641
  273MOL0     C37589   3.633   7.937  10.165 -0.2431 -0.0844  0.0712
  273MOL0     C37590   3.761   7.995  10.186 -0.2839  0.2517  0.6532
  273MOL0     C37591   4.204   8.035  10.294 -0.9377 -0.8666  0.1994
  273MOL0     C37592   4.235   8.125  10.400  1.2494 -0.0239 -0.3419
  273MOL0     C37593   4.361   8.192  10.399  0.4574  0.1323 -0.8005
  273MOL0     C37594   4.446   8.166  10.294 -0.4156  1.1133 -0.3879
  273MOL0     O37595   4.570   8.215  10.317  0.9491 -0.0019 -0.1516
  273MOL0     C37596   4.678   8.187  10.229 -0.0711 -1.3487 -0.0911
  273MOL0     C37597   4.804   8.284  10.269  1.2010 -0.4116  0.0759
  273MOL0     C37598   4.925   8.242  10.186  0.4746 -0.3335 -0.7074
  273MOL0     C37599   4.981   8.118  10.249 -0.3777  0.4942  0.1432
  273MOL0     C37600   5.070   8.064  10.148 -0.3107  0.3120 -0.2711
  273MOL0     C37601   5.142   8.017  10.064 -0.2287  0.1656  0.0522
  273MOL0     C37602   4.412   8.089  10.183 -0.5353  0.2667  0.3651
  273MOL0     C37603   4.294   8.020  10.188  0.1494  0.0612 -0.4127
  273MOL0     C37604   4.263   7.936  10.064 -0.2294 -0.0516  0.1546
  273MOL0     H37605   3.959   7.725  10.140  0.9344  0.0800  1.0948
  273MOL0     H37606   3.740   7.614  10.127 -0.5255 -0.2661  1.4477
  273MOL0     H37607   3.363   7.850  10.052 -1.7672 -1.2465 -0.3705
  273MOL0     H37608   3.386   7.855  10.232  0.9719  1.2342  0.3194
  273MOL0     H37609   3.302   7.624  10.052  1.7364  2.9292 -2.0249
  273MOL0     H37610   3.310   7.609  10.233 -0.4194 -0.1139 -0.1099
  273MOL0     H37611   3.081   7.636  10.179  1.4795 -1.6147 -0.1155
  273MOL0     H37612   3.138   7.784  10.266  1.6026  0.5546 -0.4556
  273MOL0     H37613   3.159   7.851   9.988  1.3326 -0.5673  0.4039
  273MOL0     H37614   3.055   7.711   9.997  0.8055  0.4751 -0.1947
  273MOL0     H37615   3.018   7.974  10.160 -2.6439  0.2569  0.6134
  273MOL0     H37616   2.905   7.840  10.142 -1.3660  1.2859  1.2559
  273MOL0     H37617   2.870   8.059  10.016 -0.8948 -1.1647 -0.1978
  273MOL0     H37618   3.000   8.019   9.910 -0.3807 -2.8067 -1.0332
  273MOL0     H37619   2.721   7.905   9.923  1.4407  0.6893  2.2797
  273MOL0     H37620   2.866   7.807   9.851  2.6262  1.1345  1.9952
  273MOL0     H37621   2.712   7.959   9.689 -1.2694  0.8168 -0.1873
  273MOL0     H37622   2.786   8.083   9.785  0.9261 -0.2515  1.2063
  273MOL0     H37623   2.974   8.191   9.665 -0.4714 -0.7268 -0.1734
  273MOL0     H37624   3.272   8.160   9.565  0.0165  2.9307 -2.2245
  273MOL0     H37625   3.140   8.204   9.451 -2.4269 -0.9431  0.6442
  273MOL0     H37626   3.354   7.966   9.419  1.4647  0.6775 -0.2625
  273MOL0     H37627   3.232   8.023   9.308  0.1832  0.4144  0.3552
  273MOL0     H37628   3.356   8.254   9.346  0.2458  0.3927  1.6071
  273MOL0     H37629   3.492   8.156   9.406 -0.4039  0.5643 -0.7165
  273MOL0     H37630   3.457   8.029   9.167  0.7746  0.1291 -1.2724
  273MOL0     H37631   3.370   8.187   9.131 -0.8083 -1.1327  0.8681
  273MOL0     H37632   3.510   8.134   8.942  1.1538 -1.0071  3.2083
  273MOL0     H37633   3.647   8.204   8.639  0.9804  1.2568  1.0433
  273MOL0     H37634   3.539   8.117   8.714  0.2850 -2.3344 -1.2401
  273MOL0     H37635   3.683   8.029   8.693 -1.0179  0.4603 -0.7366
  273MOL0     H37636   4.297   8.240   8.896  1.4202 -0.8909 -0.2946
  273MOL0     H37637   4.503   8.272   8.786 -0.2256 -0.8746 -0.2993
  273MOL0     H37638   4.655   8.446   8.646 -0.2030 -0.2117  0.1471
  273MOL0     H37639   4.669   8.276   8.658  2.2350  2.1209  1.9026
  273MOL0     H37640   4.861   8.323   8.568 -0.8147 -2.2326  0.1529
  273MOL0     H37641   4.766   8.271   8.426 -1.6118  1.4759 -0.5815
  273MOL0     H37642   4.864   8.545   8.494 -1.7214 -0.2400  1.6541
  273MOL0     H37643   4.702   8.536   8.417 -1.3611 -0.9222  2.9894
  273MOL0     H37644   4.894   8.578   8.267  2.6340  0.1772 -0.3531
  273MOL0     H37645   4.819   8.417   8.235  1.1908  1.7099 -0.1924
  273MOL0     H37646   5.061   8.487   8.398  2.2793  0.9652 -2.5567
  273MOL0     H37647   5.013   8.324   8.379 -0.8695  0.5286  0.6518
  273MOL0     H37648   5.090   8.532   8.157  0.6929  0.1754  0.1923
  273MOL0     H37649   5.021   8.368   8.125  1.6554 -0.2753 -2.0444
  273MOL0     H37650   5.252   8.346   8.090  1.5092  1.8623  0.5044
  273MOL0     H37651   5.220   8.281   8.251  2.2029  0.1418 -0.0414
  273MOL0     H37652   5.288   8.533   8.321 -0.7082 -0.1523 -1.2404
  273MOL0     H37653   5.369   8.533   8.161  0.9232  0.5346  0.1342
  273MOL0     H37654   4.289   8.382   8.421  0.6719 -1.1411 -1.1900
  273MOL0     H37655   4.078   8.337   8.542 -1.0189 -3.0913  0.6810
  273MOL0     H37656   3.979   8.281   9.027  0.2869  1.0161  0.9509
  273MOL0     H37657   3.810   8.267   9.207  0.7993  0.0433 -0.0666
  273MOL0     H37658   3.551   8.007  10.156 -0.0124  0.2468  0.4767
  273MOL0     H37659   3.773   8.103  10.191 -1.7006  0.4475  0.2211
  273MOL0     H37660   4.160   8.136  10.477  2.0482  2.1568  0.1813
  273MOL0     H37661   4.398   8.251  10.482  0.5694 -1.0124 -0.0294
  273MOL0     H37662   4.707   8.082  10.228  1.6788 -0.9074 -1.0659
  273MOL0     H37663   4.664   8.210  10.123  2.9506 -0.0558 -0.3311
  273MOL0     H37664   4.826   8.276  10.376  0.2322 -0.1250  0.3030
  273MOL0     H37665   4.774   8.386  10.244  1.5758 -0.6886 -1.6479
  273MOL0     H37666   4.888   8.233  10.084 -0.9440  2.4460 -0.5361
  273MOL0     H37667   4.996   8.326  10.187 -1.1815  1.1440 -1.5758
  273MOL0     H37668   4.906   8.040  10.263 -0.6015  0.9102  1.3468
  273MOL0     H37669   5.023   8.140  10.348 -0.1880  1.9814 -0.2409
  273MOL0     H37670   5.193   7.973   9.981 -2.0200  1.0484 -1.6200
  273MOL0     H37671   4.478   8.074  10.098  0.8126 -0.5756  1.5244
  273MOL0     H37672   4.238   7.833  10.090  2.1169 -0.6382  0.3409
  273MOL0     H37673   4.182   7.977  10.003  0.0105  0.9250  0.4660
  273MOL0     H37674   4.347   7.935   9.993 -0.4196  0.4413 -0.0823
  274MOL0     O37675  11.135   4.142   3.826  0.7633  0.2147 -0.2477
  274MOL0     C37676  11.095   4.077   3.735 -0.0590 -0.2791  0.6841
  274MOL0     O37677  11.163   4.057   3.618 -0.6452  0.1619  0.3248
  274MOL0     C37678  11.295   4.067   3.604 -0.8478 -0.8914 -0.6815
  274MOL0     C37679  11.389   4.038   3.704 -0.8336  0.0023  0.2776
  274MOL0     C37680  11.526   4.034   3.675 -0.2502 -0.5989 -0.4237
  274MOL0     C37681  11.575   4.069   3.545 -0.0933  0.3656 -0.3357
  274MOL0     O37682  11.710   4.063   3.514 -0.3310  0.1327  0.1089
  274MOL0     C37683  11.809   3.996   3.601  0.2900 -0.1368 -0.1632
  274MOL0     C37684  11.951   4.029   3.558  0.4961  0.2860 -1.2105
  274MOL0     C37685  11.968   3.975   3.416  0.4697 -0.8701 -0.0404
  274MOL0     C37686  12.108   4.005   3.360  0.0563  0.2960  0.5890
  274MOL0     C37687  12.130   3.943   3.225 -0.2488  0.0272  0.0519
  274MOL0     C37688  12.266   3.980   3.161 -0.0575  0.6130 -0.1648
  274MOL0     C37689  12.384   3.909   3.228  0.3129 -1.3114  0.3963
  274MOL0     C37690  12.509   3.935   3.148 -0.6081  0.1978  0.2207
  274MOL0     N37691  12.547   4.074   3.167  0.1882  0.6212 -0.0164
  274MOL0     C37692  12.594   4.146   3.057 -0.4832  0.2472  0.1969
  274MOL0     C37693  12.665   4.244   3.109  0.7894 -0.6820  0.1528
  274MOL0     C37694  12.746   4.350   3.048  0.6034 -0.3382 -0.8783
  274MOL0     C37695  12.897   4.333   3.074  0.1603  0.1022 -0.9049
  274MOL0     C37696  12.984   4.411   2.972  0.6070  0.6743 -0.3631
  274MOL0     C37697  13.120   4.344   2.968  0.7892  0.1719 -0.0089
  274MOL0     O37698  13.181   4.345   3.101 -0.4622 -0.0973 -0.0034
  274MOL0     C37699  13.317   4.341   3.121  1.0329 -0.4225  0.7756
  274MOL0     C37700  13.362   4.323   3.256  0.3163 -0.1540  0.7143
  274MOL0     C37701  13.505   4.303   3.282 -0.2757 -1.1320  0.6255
  274MOL0     C37702  13.542   4.267   3.421 -0.0695 -0.6419  0.5760
  274MOL0     C37703  13.597   4.314   3.176 -0.7184  1.5364 -0.8767
  274MOL0     C37704  13.748   4.273   3.187  0.7385  0.3076  0.4131
  274MOL0     O37705  13.833   4.285   3.077 -0.0767 -0.1215 -0.3545
  274MOL0     C37706  13.947   4.221   3.085 -0.0060 -0.4822  0.4730
  274MOL0     C37707  13.951   4.083   3.095 -0.4665 -0.1398 -0.0978
  274MOL0     C37708  14.081   4.017   3.098  0.6781  0.5706 -0.2959
  274MOL0     C37709  14.201   4.091   3.092  0.6338  0.0749 -0.1111
  274MOL0     O37710  14.318   4.022   3.100  0.6493 -0.3992  0.2811
  274MOL0     C37711  14.430   4.082   3.032  0.5933  0.5151 -0.7371
  274MOL0     C37712  14.540   3.975   3.021  0.3119 -0.8934 -0.4995
  274MOL0     C37713  14.509   3.842   2.953  0.4786 -0.3042 -0.0402
  274MOL0     C37714  14.490   3.846   2.797  0.7514 -0.2614 -0.4343
  274MOL0     C37715  14.559   3.743   2.711  0.2017  0.7231 -0.0236
  274MOL0     C37716  14.496   3.726   2.566  0.2594 -0.1967 -0.6424
  274MOL0     C37717  14.530   3.581   2.511  0.7473  0.0499 -0.4162
  274MOL0     C37718  14.682   3.555   2.490  0.6386  0.8383 -0.3118
  274MOL0    Cl37719  14.715   3.481   2.323 -0.3232 -0.1409  0.4051
  274MOL0     C37720  14.191   4.235   3.087  0.5522 -0.0583 -0.5269
  274MOL0     C37721  14.063   4.292   3.082  0.0541  0.0589  0.6692
  274MOL0     O37722  13.782   4.227   3.296 -0.1573 -0.0278 -0.3993
  274MOL0     C37723  13.545   4.336   3.045  0.2346 -0.2907  0.2433
  274MOL0     C37724  13.407   4.351   3.020 -0.0168 -0.2896  0.3097
  274MOL0     N37725  12.658   4.239   3.250 -0.0785  1.2360 -0.3646
  274MOL0     N37726  12.576   4.139   3.285 -0.8868  0.0564  0.8047
  274MOL0     C37727  11.477   4.102   3.453 -0.5485 -0.5183  0.3857
  274MOL0     C37728  11.339   4.100   3.481 -0.5807 -0.6353 -0.8094
  274MOL0     C37729  10.960   4.006   3.744 -0.0486 -0.3122 -0.3713
  274MOL0     C37730  10.941   3.898   3.672  0.5581 -0.1172  0.5433
  274MOL0     C37731  10.821   3.835   3.666 -0.1962 -0.0117  0.2626
  274MOL0     C37732  10.713   3.883   3.739 -0.5886  0.3827  0.2039
  274MOL0     O37733  10.596   3.808   3.724 -0.0234 -0.3545 -0.0850
  274MOL0     C37734  10.483   3.813   3.818 -0.3647 -0.4994  0.7856
  274MOL0     C37735  10.395   3.933   3.764  0.3916 -0.4744  0.1035
  274MOL0     C37736  10.288   3.985   3.854  0.0976 -0.7030 -0.4950
  274MOL0     C37737  10.328   4.095   3.960 -0.5626  0.7893  0.0871
  274MOL0     C37738  10.446   4.052   4.043  0.8854  0.0224 -0.0477
  274MOL0     C37739  10.545   4.038   4.111  0.8941  0.2480  0.2026
  274MOL0     C37740  10.731   3.999   3.816  0.6350  0.0335  0.8596
  274MOL0     C37741  10.856   4.060   3.815  1.4340 -0.3226 -1.0352
  274MOL0     C37742  10.865   4.199   3.874  0.0794  0.8923  1.0929
  274MOL0     H37743  11.354   4.012   3.804  1.1001 -0.6326  0.8285
  274MOL0     H37744  11.590   4.021   3.761  0.0373 -0.2405 -0.5823
  274MOL0     H37745  11.798   3.888   3.601  1.5203 -0.2740  0.2383
  274MOL0     H37746  11.800   4.039   3.702  0.8225  2.1914 -1.0380
  274MOL0     H37747  11.988   4.132   3.555  1.3436 -0.0321 -2.3249
  274MOL0     H37748  12.018   3.978   3.628 -0.6512 -0.0574 -0.3464
  274MOL0     H37749  11.943   3.868   3.416 -2.4541 -0.2670  0.1291
  274MOL0     H37750  11.889   4.020   3.356  3.3168  0.8362 -2.8302
  274MOL0     H37751  12.132   4.111   3.349  0.7676 -0.0373 -1.5552
  274MOL0     H37752  12.175   3.967   3.437 -0.7249 -0.0676  1.1060
  274MOL0     H37753  12.061   3.993   3.156  0.4667 -0.1226 -0.7991
  274MOL0     H37754  12.112   3.835   3.220  0.5335 -0.0619 -2.2560
  274MOL0     H37755  12.256   3.957   3.054 -0.2475  0.7030 -0.1667
  274MOL0     H37756  12.285   4.087   3.173  0.0078  0.2800  3.7028
  274MOL0     H37757  12.363   3.802   3.242 -1.2235 -1.1516 -0.4949
  274MOL0     H37758  12.384   3.952   3.329  0.6471  0.5678 -0.3672
  274MOL0     H37759  12.589   3.874   3.190 -0.7504  1.9032  3.2786
  274MOL0     H37760  12.499   3.917   3.041 -1.1113  1.1553  0.0898
  274MOL0     H37761  12.588   4.130   2.950  3.0488  0.1926 -0.1320
  274MOL0     H37762  12.721   4.438   3.108  1.2812 -0.0173 -1.0596
  274MOL0     H37763  12.734   4.371   2.941  1.2172  1.7420 -0.5849
  274MOL0     H37764  12.921   4.366   3.176 -0.4601 -1.4090 -0.2384
  274MOL0     H37765  12.931   4.230   3.064 -1.2077 -0.4639 -0.0126
  274MOL0     H37766  12.932   4.421   2.876 -0.4524  0.1049  0.1270
  274MOL0     H37767  12.999   4.514   3.005  0.0179  2.0597 -4.0101
  274MOL0     H37768  13.121   4.243   2.927  2.4542  0.4124 -0.6564
  274MOL0     H37769  13.175   4.392   2.887  0.6965  1.7828  0.8354
  274MOL0     H37770  13.280   4.319   3.326 -0.7666 -1.7149 -0.5818
  274MOL0     H37771  13.458   4.274   3.491  0.4307  1.6875  1.0259
  274MOL0     H37772  13.610   4.337   3.469  1.4358  0.9626 -3.5136
  274MOL0     H37773  13.578   4.164   3.422  2.4655  0.1360 -1.1156
  274MOL0     H37774  13.858   4.027   3.090 -0.5239 -0.2805  1.8303
  274MOL0     H37775  14.089   3.909   3.093 -1.2988  0.4489 -1.8045
  274MOL0     H37776  14.412   4.120   2.931  1.8382  0.8198 -0.8655
  274MOL0     H37777  14.481   4.164   3.084 -1.4231  1.0848  0.4513
  274MOL0     H37778  14.629   4.023   2.978  0.9829 -1.1061  0.6010
  274MOL0     H37779  14.582   3.954   3.120  1.9444  1.5082 -0.6124
  274MOL0     H37780  14.427   3.791   3.005  1.3899 -3.8863 -1.7372
  274MOL0     H37781  14.598   3.782   2.977  1.1166  0.8246  0.4678
  274MOL0     H37782  14.514   3.948   2.767 -1.6853  1.1604  1.9632
  274MOL0     H37783  14.382   3.834   2.782  0.5925  0.3999  0.1486
  274MOL0     H37784  14.667   3.760   2.706  0.5100 -0.7628  0.9899
  274MOL0     H37785  14.555   3.645   2.759 -2.8060  0.8033  0.0937
  274MOL0     H37786  14.535   3.811   2.509  0.2534  0.2914  0.0824
  274MOL0     H37787  14.387   3.730   2.568  0.0590 -3.4501  0.9218
  274MOL0     H37788  14.475   3.600   2.418 -0.4071  2.1401  0.6144
  274MOL0     H37789  14.478   3.500   2.563 -0.7687  0.2708 -1.5175
  274MOL0     H37790  14.724   3.497   2.572 -0.7055 -1.8670 -1.4066
  274MOL0     H37791  14.735   3.650   2.479  1.1303  0.5136 -0.8630
  274MOL0     H37792  14.279   4.297   3.100 -0.7448  1.6028  0.7018
  274MOL0     H37793  14.044   4.399   3.078 -2.4331 -0.3570 -0.2257
  274MOL0     H37794  13.614   4.351   2.963 -0.3864 -2.5669 -0.7553
  274MOL0     H37795  13.374   4.359   2.916 -1.9199  0.7791  0.9463
  274MOL0     H37796  11.519   4.124   3.356  1.7300  0.2770  1.4773
  274MOL0     H37797  11.276   4.116   3.394 -0.0963  2.1759 -0.7514
  274MOL0     H37798  11.008   3.846   3.604  0.0775  1.9202 -1.6057
  274MOL0     H37799  10.816   3.750   3.598  3.4481  0.8403 -1.3037
  274MOL0     H37800  10.438   3.714   3.811  0.1891 -0.6517 -1.2816
  274MOL0     H37801  10.519   3.828   3.920 -1.7610 -1.0487  1.3798
  274MOL0     H37802  10.352   3.909   3.666  0.4784 -1.9797  0.4212
  274MOL0     H37803  10.458   4.023   3.757 -0.6354  0.4710  2.1457
  274MOL0     H37804  10.219   4.043   3.792  0.9136 -0.6895 -1.4161
  274MOL0     H37805  10.235   3.902   3.900 -0.4055 -1.1802 -1.8849
  274MOL0     H37806  10.243   4.109   4.027 -0.8422  1.2480 -0.3587
  274MOL0     H37807  10.350   4.190   3.911 -1.4593  0.5458 -0.8090
  274MOL0     H37808  10.625   4.024   4.181  0.3783  2.2534  1.2791
  274MOL0     H37809  10.653   4.037   3.882 -1.4510 -3.9542  1.0370
  274MOL0     H37810  10.926   4.202   3.965 -0.6540  0.3129  1.6186
  274MOL0     H37811  10.894   4.265   3.792  0.3328  0.2818  0.6831
  274MOL0     H37812  10.765   4.237   3.895 -0.2436 -0.3045  1.8572
  275MOL0     O37813   5.682   6.070   4.449  1.1902  0.1542 -0.5516
  275MOL0     C37814   5.636   5.983   4.368  0.3656 -0.8726 -0.2085
  275MOL0     O37815   5.708   5.935   4.266 -0.1104 -0.3153  0.7071
  275MOL0     C37816   5.836   5.976   4.241 -0.8698 -0.3889 -0.2600
  275MOL0     C37817   5.938   5.882   4.230  0.0907  0.2962  0.2857
  275MOL0     C37818   6.069   5.926   4.209  0.8524  0.6113  0.2063
  275MOL0     C37819   6.109   6.060   4.202  0.0870 -0.8671  0.1392
  275MOL0     O37820   6.238   6.102   4.184 -0.4987 -0.2962 -0.5656
  275MOL0     C37821   6.270   6.242   4.162  0.0978  0.2372 -0.2066
  275MOL0     C37822   6.420   6.271   4.156  0.1353 -0.2623 -0.1399
  275MOL0     C37823   6.485   6.224   4.027 -0.7608 -0.3807  0.4181
  275MOL0     C37824   6.639   6.250   4.037  0.5869  0.8413 -0.5710
  275MOL0     C37825   6.712   6.165   3.931 -0.3459  0.0227  0.0205
  275MOL0     C37826   6.723   6.228   3.785  0.0645  0.3974  1.1844
  275MOL0     C37827   6.803   6.362   3.781 -0.1861  0.0212  0.2878
  275MOL0     C37828   6.825   6.416   3.637  0.7977 -0.2499 -0.2544
  275MOL0     N37829   6.878   6.548   3.631  0.5554 -1.7824  0.2343
  275MOL0     C37830   7.010   6.583   3.612  0.3091 -0.0781  0.6720
  275MOL0     C37831   7.012   6.717   3.577  0.1639  0.7791  0.6302
  275MOL0     C37832   7.126   6.795   3.515  0.3994  0.6054  0.4721
  275MOL0     C37833   7.261   6.724   3.514 -0.1939  0.0390  0.2441
  275MOL0     C37834   7.367   6.807   3.441 -0.4978 -0.6542  0.3385
  275MOL0     C37835   7.496   6.729   3.438 -0.2078 -0.3835 -0.0186
  275MOL0     O37836   7.597   6.809   3.370 -0.2920  0.3467 -0.4048
  275MOL0     C37837   7.715   6.762   3.332 -0.6403  0.3834  0.7946
  275MOL0     C37838   7.763   6.637   3.347  0.6258  0.3384  0.1798
  275MOL0     C37839   7.891   6.593   3.316  0.4572 -0.8171  0.0243
  275MOL0     C37840   7.914   6.457   3.365 -0.1885 -0.3939 -0.7805
  275MOL0     C37841   7.985   6.678   3.244 -0.6243  0.4633  0.7195
  275MOL0     C37842   8.127   6.650   3.201 -0.6884 -0.1710 -0.3390
  275MOL0     O37843   8.193   6.745   3.132 -0.4554 -0.0742  0.5365
  275MOL0     C37844   8.325   6.718   3.117 -1.1787  0.5512 -0.9082
  275MOL0     C37845   8.420   6.791   3.194  0.4163 -0.0173  0.9467
  275MOL0     C37846   8.557   6.755   3.184 -0.3886 -0.8386  0.0877
  275MOL0     C37847   8.600   6.652   3.100  0.5684  0.6813 -0.5452
  275MOL0     O37848   8.735   6.636   3.089 -0.2323 -0.4760  0.3913
  275MOL0     C37849   8.778   6.508   3.044  0.2153  0.4230  0.5531
  275MOL0     C37850   8.925   6.490   3.072 -0.0457 -0.5313 -0.5023
  275MOL0     C37851   8.988   6.364   3.009  0.5954  0.6232  0.3128
  275MOL0     C37852   9.136   6.352   3.057 -0.1664 -0.2326  0.2708
  275MOL0     C37853   9.152   6.270   3.185 -0.1916  0.0497  0.6401
  275MOL0     C37854   9.294   6.230   3.227  0.0440 -0.9729  0.2376
  275MOL0     C37855   9.300   6.145   3.354  0.7480  1.1525  0.1129
  275MOL0     C37856   9.445   6.154   3.404  0.5469  0.0792 -0.3200
  275MOL0    Cl37857   9.575   6.113   3.297 -0.4126  0.1697  0.2789
  275MOL0     C37858   8.506   6.589   3.014 -0.4417  0.1186 -0.2339
  275MOL0     C37859   8.369   6.616   3.024  0.1647 -0.9841 -0.2183
  275MOL0     O37860   8.176   6.549   3.246 -0.1443 -0.1008 -0.6081
  275MOL0     C37861   7.931   6.803   3.213  0.1356  0.4191 -0.2504
  275MOL0     C37862   7.801   6.843   3.252 -0.2835 -0.1702 -0.7288
  275MOL0     N37863   6.883   6.765   3.594 -0.5686 -1.5163 -0.1489
  275MOL0     N37864   6.810   6.665   3.617 -0.0820 -0.1132 -0.0330
  275MOL0     C37865   6.006   6.153   4.209 -0.8209 -0.1267 -0.7377
  275MOL0     C37866   5.871   6.110   4.224  1.1382  0.0820 -0.1453
  275MOL0     C37867   5.496   5.919   4.398 -0.0048  0.7671  0.2994
  275MOL0     C37868   5.454   5.821   4.310  0.4039  0.3567 -0.2763
  275MOL0     C37869   5.338   5.741   4.322  0.0937 -0.6032 -1.1217
  275MOL0     C37870   5.249   5.775   4.422 -0.3643  0.8519 -0.1092
  275MOL0     O37871   5.129   5.701   4.426  0.4160 -0.3006  0.9034
  275MOL0     C37872   5.034   5.740   4.520  0.1224  0.0448 -0.8330
  275MOL0     C37873   4.965   5.879   4.494  0.2792 -0.5577  0.4327
  275MOL0     C37874   4.834   5.905   4.574  0.5223  0.7734  0.2856
  275MOL0     C37875   4.770   6.035   4.524  0.4529 -0.5357  0.6903
  275MOL0     C37876   4.734   6.025   4.382  0.0356 -0.5785  0.3119
  275MOL0     C37877   4.718   6.010   4.260  0.0501 -1.3734 -0.7697
  275MOL0     C37878   5.290   5.864   4.518  0.0128  0.5086  0.3501
  275MOL0     C37879   5.411   5.939   4.506  0.3253 -0.2581  0.7419
  275MOL0     C37880   5.439   6.039   4.613 -0.3989  0.0101  0.7184
  275MOL0     H37881   5.924   5.776   4.245 -0.4983 -0.2090 -3.1006
  275MOL0     H37882   6.143   5.848   4.192  0.3643 -0.0369  1.0076
  275MOL0     H37883   6.222   6.305   4.238 -1.3893  0.3601 -1.2128
  275MOL0     H37884   6.223   6.279   4.071 -2.7321 -2.3864  0.0465
  275MOL0     H37885   6.448   6.377   4.161  1.9370 -0.7364  0.7176
  275MOL0     H37886   6.463   6.230   4.248 -0.2642  0.3297  0.3203
  275MOL0     H37887   6.457   6.120   4.006 -0.3955 -0.6395  1.1571
  275MOL0     H37888   6.451   6.282   3.941 -0.9385  0.9878  1.3710
  275MOL0     H37889   6.661   6.356   4.021  1.0370  0.9745  0.7923
  275MOL0     H37890   6.667   6.220   4.139  0.4052  2.0560 -0.1429
  275MOL0     H37891   6.675   6.062   3.926 -2.3885  0.6333  1.4849
  275MOL0     H37892   6.814   6.153   3.970  0.0844  1.8655 -0.4347
  275MOL0     H37893   6.770   6.161   3.713 -1.7967  1.1914 -0.8605
  275MOL0     H37894   6.624   6.233   3.740  0.4320 -1.3460  0.1303
  275MOL0     H37895   6.903   6.348   3.823 -1.2510 -2.4477  2.2583
  275MOL0     H37896   6.742   6.433   3.837 -1.1495 -0.3275 -0.2790
  275MOL0     H37897   6.877   6.342   3.574 -0.3279  0.0439 -1.5872
  275MOL0     H37898   6.724   6.424   3.596  1.0269 -1.9824 -1.2579
  275MOL0     H37899   7.087   6.507   3.605  0.1428 -0.0865 -3.6701
  275MOL0     H37900   7.137   6.898   3.550  0.9001  0.2779  1.3262
  275MOL0     H37901   7.094   6.812   3.412 -0.2920 -2.0661  0.1652
  275MOL0     H37902   7.286   6.696   3.617 -1.7864  0.2012  0.6980
  275MOL0     H37903   7.246   6.628   3.465  0.9313 -0.9079  1.6519
  275MOL0     H37904   7.332   6.817   3.338 -0.5123 -2.8788  0.0907
  275MOL0     H37905   7.380   6.900   3.498 -0.6565  0.4470 -1.3440
  275MOL0     H37906   7.535   6.708   3.538  1.6910  0.0289 -0.6128
  275MOL0     H37907   7.478   6.636   3.383 -0.9526  0.3207 -0.9973
  275MOL0     H37908   7.692   6.566   3.388  1.2723 -0.4589 -0.0575
  275MOL0     H37909   8.006   6.451   3.423  1.3343  0.4286 -2.9872
  275MOL0     H37910   7.920   6.380   3.287  0.7857 -0.7477 -0.3729
  275MOL0     H37911   7.835   6.425   3.434 -0.2862  2.5657  0.6150
  275MOL0     H37912   8.374   6.862   3.262 -0.4986  1.4802 -1.1280
  275MOL0     H37913   8.625   6.814   3.244 -1.4005  2.4714 -1.8063
  275MOL0     H37914   8.719   6.429   3.090  3.7736 -3.0740 -0.3675
  275MOL0     H37915   8.759   6.517   2.937  1.2568 -1.2730  0.1949
  275MOL0     H37916   8.972   6.578   3.028 -2.3018 -0.1891 -2.3955
  275MOL0     H37917   8.954   6.478   3.177  0.5089  0.6136 -0.5189
  275MOL0     H37918   8.973   6.369   2.901  1.7866  1.0055  0.1520
  275MOL0     H37919   8.929   6.274   3.027 -0.4219  0.2618 -3.8948
  275MOL0     H37920   9.180   6.451   3.072  0.9280 -0.7534  0.6173
  275MOL0     H37921   9.179   6.288   2.980  1.8919 -1.3681  2.2437
  275MOL0     H37922   9.089   6.306   3.267 -0.6772 -0.9365  0.7110
  275MOL0     H37923   9.100   6.177   3.158 -0.5821  1.1342 -2.8098
  275MOL0     H37924   9.339   6.327   3.249  0.3344 -1.4478  1.9009
  275MOL0     H37925   9.345   6.194   3.137  0.0421  0.0225 -0.1766
  275MOL0     H37926   9.266   6.041   3.342 -0.9859  1.7298 -0.2578
  275MOL0     H37927   9.229   6.180   3.429 -1.1083 -0.7510 -0.6321
  275MOL0     H37928   9.441   6.083   3.487  2.0522 -0.5744 -0.7741
  275MOL0     H37929   9.470   6.253   3.442  3.1024 -0.4489 -0.4687
  275MOL0     H37930   8.545   6.522   2.938  1.3935 -1.0855  1.6538
  275MOL0     H37931   8.293   6.576   2.957  0.9118 -1.5491 -0.7375
  275MOL0     H37932   7.988   6.881   3.164  0.8523  0.2481  0.2884
  275MOL0     H37933   7.764   6.941   3.223  0.5796  0.6466  0.7887
  275MOL0     H37934   6.020   6.260   4.222 -0.8585 -0.4110  2.5803
  275MOL0     H37935   5.785   6.176   4.228  0.7196 -0.5246  1.3005
  275MOL0     H37936   5.518   5.786   4.230  2.6517  2.0271  0.6922
  275MOL0     H37937   5.307   5.664   4.252 -1.4252 -2.4157  1.3863
  275MOL0     H37938   4.956   5.663   4.525  0.7885 -0.5741  0.5241
  275MOL0     H37939   5.072   5.758   4.621  3.2976 -1.9069 -1.5229
  275MOL0     H37940   4.952   5.884   4.386  1.0528  0.2815  0.3681
  275MOL0     H37941   5.044   5.951   4.520  0.5097 -0.6978  0.1270
  275MOL0     H37942   4.755   5.832   4.553 -1.5387  2.2194  2.4292
  275MOL0     H37943   4.841   5.909   4.683  1.1654 -0.7091  0.3177
  275MOL0     H37944   4.840   6.118   4.539 -0.8434  0.7182  0.0468
  275MOL0     H37945   4.678   6.059   4.578 -0.0204 -0.6635 -0.0454
  275MOL0     H37946   4.699   6.003   4.155  1.4259 -1.6416 -1.0151
  275MOL0     H37947   5.239   5.874   4.614  2.0266 -1.8218  1.7827
  275MOL0     H37948   5.522   6.011   4.679 -1.0106  1.3576  2.1207
  275MOL0     H37949   5.457   6.138   4.570 -0.1138  0.3383  1.5767
  275MOL0     H37950   5.352   6.050   4.678 -1.8883  2.6023 -1.4974
  276MOL0     O37951  10.658   8.028   8.812 -0.3370 -0.2810 -0.3284
  276MOL0     C37952  10.656   7.962   8.709 -1.1255  0.3695  0.2408
  276MOL0     O37953  10.759   7.938   8.633 -1.3718 -0.0600 -0.2801
  276MOL0     C37954  10.882   7.991   8.658  0.8267 -0.6207  0.3596
  276MOL0     C37955  10.991   7.910   8.649 -0.3458 -1.2064 -0.1474
  276MOL0     C37956  11.121   7.964   8.664  0.1065  0.3186  1.0636
  276MOL0     C37957  11.139   8.103   8.692  0.8607 -0.1120 -0.1302
  276MOL0     O37958  11.264   8.156   8.709 -0.6113 -0.2202 -0.0325
  276MOL0     C37959  11.284   8.275   8.625 -1.1143  0.0609  0.3692
  276MOL0     C37960  11.436   8.299   8.614  0.8646 -0.2014 -0.2283
  276MOL0     C37961  11.514   8.172   8.571  0.6616 -0.1057  0.0277
  276MOL0     C37962  11.584   8.188   8.439 -0.2094  0.5000 -0.0132
  276MOL0     C37963  11.714   8.283   8.456 -0.2362  0.2300 -0.9265
  276MOL0     C37964  11.803   8.285   8.333  0.7251 -0.1242  0.0811
  276MOL0     C37965  11.936   8.199   8.332 -0.2480 -0.1869 -0.7179
  276MOL0     C37966  12.027   8.239   8.219  0.5618 -0.5615 -0.1926
  276MOL0     N37967  12.128   8.138   8.176  0.5347  0.9862 -1.1450
  276MOL0     C37968  12.107   8.002   8.175  0.0649  0.0708  0.1129
  276MOL0     C37969  12.228   7.954   8.144 -0.2913 -0.0067 -0.2776
  276MOL0     C37970  12.262   7.804   8.146 -0.0411 -0.1157 -1.0495
  276MOL0     C37971  12.263   7.764   7.999 -0.4340  0.5054 -0.0657
  276MOL0     C37972  12.284   7.612   7.976  0.0836 -1.3472 -0.2444
  276MOL0     C37973  12.429   7.564   7.972  0.6448 -0.2182  0.5199
  276MOL0     O37974  12.437   7.420   7.970 -0.6325 -0.0079 -1.0468
  276MOL0     C37975  12.560   7.357   7.948  0.6339 -0.8326  0.1268
  276MOL0     C37976  12.560   7.219   7.945  0.0509  0.6448 -0.1509
  276MOL0     C37977  12.683   7.156   7.921  0.3080 -0.1532 -0.4053
  276MOL0     C37978  12.689   6.999   7.924 -0.9027 -0.1950 -0.6283
  276MOL0     C37979  12.800   7.232   7.888  1.2176 -0.8248 -0.5929
  276MOL0     C37980  12.938   7.170   7.893  0.3931  0.5130 -0.3485
  276MOL0     O37981  13.029   7.225   7.808 -0.7552 -0.1366  0.5325
  276MOL0     C37982  13.146   7.152   7.800  0.0492  0.4703  0.2912
  276MOL0     C37983  13.270   7.168   7.865  0.7365  0.4825  0.3493
  276MOL0     C37984  13.384   7.094   7.827  0.5913 -0.0866 -0.0754
  276MOL0     C37985  13.370   6.995   7.730 -0.3589 -0.2212 -0.5711
  276MOL0     O37986  13.475   6.919   7.696 -0.4716 -0.1009 -0.5617
  276MOL0     C37987  13.584   6.993   7.622 -0.5222 -0.7380  0.0135
  276MOL0     C37988  13.514   7.083   7.512 -0.0965 -0.0203 -0.6782
  276MOL0     C37989  13.617   7.121   7.400 -0.5355  0.0851  0.8528
  276MOL0     C37990  13.702   7.246   7.429  0.6526  0.4329  0.0121
  276MOL0     C37991  13.832   7.261   7.358  0.2759 -0.0769 -0.1197
  276MOL0     C37992  13.808   7.331   7.225 -0.2962  0.6809  0.6540
  276MOL0     C37993  13.753   7.469   7.235 -0.1412 -0.2749  0.0047
  276MOL0     C37994  13.755   7.566   7.115 -0.7304  1.1815 -0.4538
  276MOL0    Cl37995  13.929   7.632   7.104 -0.6324 -0.0070  0.2058
  276MOL0     C37996  13.248   6.970   7.675 -0.5526 -0.9665 -1.0275
  276MOL0     C37997  13.137   7.059   7.699 -0.4800  0.2701  0.4407
  276MOL0     O37998  12.962   7.084   7.979 -0.7880 -0.4365  0.3133
  276MOL0     C37999  12.791   7.370   7.883 -0.8739 -0.2968 -0.3138
  276MOL0     C38000  12.676   7.441   7.919 -0.1168  0.1968  0.1297
  276MOL0     N38001  12.315   8.058   8.124 -0.0804  0.2561  0.1293
  276MOL0     N38002  12.253   8.166   8.142  0.1612 -0.3853 -0.1268
  276MOL0     C38003  11.020   8.183   8.703  0.0896  0.1004  0.0182
  276MOL0     C38004  10.896   8.127   8.687 -0.0638  0.6492  0.3107
  276MOL0     C38005  10.514   7.919   8.672 -0.2122  0.2910 -0.1938
  276MOL0     C38006  10.500   7.874   8.539  0.1200  0.2896 -1.1769
  276MOL0     C38007  10.378   7.838   8.479 -0.1507 -0.4870 -0.8806
  276MOL0     C38008  10.256   7.868   8.544 -0.6578 -0.0318  0.2310
  276MOL0     O38009  10.145   7.838   8.468 -0.1317  0.0157 -0.4020
  276MOL0     C38010  10.013   7.849   8.534 -0.2299  0.4299  0.5252
  276MOL0     C38011   9.968   7.716   8.584  0.3609 -0.6431 -0.1762
  276MOL0     C38012   9.973   7.598   8.477  0.2748 -1.0580 -0.1056
  276MOL0     C38013   9.908   7.468   8.531  0.0000  0.4062  0.3250
  276MOL0     C38014   9.762   7.477   8.522 -0.2277  0.4679  0.3614
  276MOL0     C38015   9.645   7.471   8.518  0.1238  0.3120  0.5222
  276MOL0     C38016  10.267   7.919   8.673 -0.0099 -0.6309  0.6609
  276MOL0     C38017  10.388   7.929   8.739  0.3862  0.7632 -0.2810
  276MOL0     C38018  10.378   7.965   8.880  0.0490 -0.1851 -0.1435
  276MOL0     H38019  10.974   7.806   8.625 -0.7699 -1.1974  0.1112
  276MOL0     H38020  11.210   7.902   8.659  0.6054  1.0948 -3.0822
  276MOL0     H38021  11.223   8.364   8.648  0.3401  0.7799  1.6373
  276MOL0     H38022  11.258   8.257   8.521 -0.2407 -0.1021  0.1730
  276MOL0     H38023  11.462   8.369   8.534 -1.7228 -0.8381 -1.7425
  276MOL0     H38024  11.461   8.346   8.709 -0.5344 -0.4980  0.3028
  276MOL0     H38025  11.584   8.145   8.650 -1.9821 -2.4345  1.7941
  276MOL0     H38026  11.439   8.093   8.559  0.4682  0.1108 -0.2011
  276MOL0     H38027  11.613   8.085   8.417 -0.3803  0.6420 -0.9255
  276MOL0     H38028  11.523   8.232   8.359 -2.3407 -0.6171  0.8937
  276MOL0     H38029  11.769   8.249   8.545  0.3323 -1.5540 -1.9043
  276MOL0     H38030  11.681   8.385   8.476 -1.1218  0.3086 -2.6148
  276MOL0     H38031  11.744   8.251   8.247 -2.0408  2.6024  0.7150
  276MOL0     H38032  11.832   8.386   8.303 -1.3393  0.2067 -0.9936
  276MOL0     H38033  11.896   8.097   8.329  0.6637 -0.5836  0.3094
  276MOL0     H38034  11.987   8.210   8.428 -0.1767  0.4045 -0.8158
  276MOL0     H38035  11.958   8.242   8.135 -1.7401 -4.0678  1.3031
  276MOL0     H38036  12.082   8.332   8.234  0.5292 -0.8061  1.7006
  276MOL0     H38037  12.011   7.953   8.187 -1.6021  3.3834  1.8197
  276MOL0     H38038  12.177   7.764   8.203  2.7097 -0.6382  3.1254
  276MOL0     H38039  12.354   7.784   8.201 -0.7200 -1.6154 -0.3916
  276MOL0     H38040  12.175   7.808   7.951 -0.3399  1.3482  0.5189
  276MOL0     H38041  12.350   7.812   7.954  0.6707  0.5325  1.9762
  276MOL0     H38042  12.227   7.546   8.043  0.7310 -3.0997 -1.3583
  276MOL0     H38043  12.248   7.592   7.874  0.1459 -1.7111 -0.1977
  276MOL0     H38044  12.472   7.600   7.879 -2.6834 -0.4348 -1.2495
  276MOL0     H38045  12.486   7.605   8.057  0.7585  3.0928 -0.9974
  276MOL0     H38046  12.479   7.153   7.972  0.5448 -1.0782 -2.5164
  276MOL0     H38047  12.761   6.959   7.996 -2.6446 -0.0879  1.2834
  276MOL0     H38048  12.715   6.952   7.828 -3.8693  0.1010 -1.6706
  276MOL0     H38049  12.592   6.957   7.954 -0.6061 -0.4077  0.0588
  276MOL0     H38050  13.279   7.233   7.951 -0.7478  0.4056  0.5766
  276MOL0     H38051  13.481   7.106   7.875  1.4840 -0.6601 -1.6257
  276MOL0     H38052  13.648   7.056   7.684  0.4733 -0.9342 -0.7856
  276MOL0     H38053  13.644   6.918   7.569  0.3209  1.7577 -2.8729
  276MOL0     H38054  13.428   7.030   7.471  0.1580 -2.8591  2.0538
  276MOL0     H38055  13.474   7.172   7.562 -1.5258 -1.7690  1.5143
  276MOL0     H38056  13.576   7.139   7.300  5.3814  0.8335 -1.8733
  276MOL0     H38057  13.684   7.036   7.379 -0.4151  0.3034  0.3257
  276MOL0     H38058  13.737   7.241   7.533  1.5052 -0.5204 -0.3024
  276MOL0     H38059  13.635   7.332   7.418 -1.3543 -1.1688 -1.1042
  276MOL0     H38060  13.898   7.329   7.412  1.5764  0.0248 -1.7362
  276MOL0     H38061  13.877   7.162   7.362  1.8188  0.3987 -2.8480
  276MOL0     H38062  13.737   7.278   7.160 -0.1109  2.3989 -1.0283
  276MOL0     H38063  13.903   7.338   7.172 -1.8881 -0.7148 -2.6268
  276MOL0     H38064  13.802   7.515   7.322 -0.0222 -0.1616 -0.1216
  276MOL0     H38065  13.649   7.462   7.267  0.1096  0.6382  1.0684
  276MOL0     H38066  13.699   7.659   7.130  1.4438  2.4232  0.3605
  276MOL0     H38067  13.730   7.515   7.021 -0.5187  0.4758 -0.1379
  276MOL0     H38068  13.239   6.895   7.596  0.0351 -1.2649 -0.8184
  276MOL0     H38069  13.045   7.043   7.644  0.9665  0.2592 -2.1542
  276MOL0     H38070  12.880   7.428   7.865  0.7120 -1.7669  2.0753
  276MOL0     H38071  12.676   7.549   7.926 -1.5931  0.1813  0.6734
  276MOL0     H38072  11.018   8.286   8.736 -2.9143 -0.0712  0.6622
  276MOL0     H38073  10.811   8.191   8.709  1.0744  2.0506  0.8277
  276MOL0     H38074  10.591   7.857   8.482 -0.5864 -1.7944 -1.7786
  276MOL0     H38075  10.368   7.796   8.380 -1.9480 -0.7096 -0.6305
  276MOL0     H38076  10.006   7.916   8.621  2.2078 -0.4170  1.4581
  276MOL0     H38077   9.940   7.874   8.457  0.7261 -1.8552 -1.2210
  276MOL0     H38078   9.866   7.716   8.623  1.1398 -0.5061  2.0085
  276MOL0     H38079  10.030   7.679   8.667  0.4420 -0.5207 -0.1830
  276MOL0     H38080   9.916   7.628   8.389 -0.3214  0.3633  0.7322
  276MOL0     H38081  10.078   7.574   8.456  0.6601  0.3931  0.0119
  276MOL0     H38082   9.934   7.445   8.634 -5.0589  0.9991  2.0303
  276MOL0     H38083   9.943   7.379   8.478 -1.3970  0.9101 -1.5846
  276MOL0     H38084   9.538   7.475   8.515  0.1681  1.3013 -0.2398
  276MOL0     H38085  10.181   7.947   8.733 -1.0857 -2.0184 -0.1524
  276MOL0     H38086  10.441   7.903   8.945 -1.0230  1.5195  2.7518
  276MOL0     H38087  10.408   8.070   8.888 -2.0311  0.3189  3.0585
  276MOL0     H38088  10.280   7.973   8.927  0.1056  2.2731 -0.3204
  277MOL0     O38089   7.736   3.077   9.247  0.1816 -0.2730  0.1492
  277MOL0     C38090   7.669   2.981   9.227 -0.8779 -0.9108 -0.1124
  277MOL0     O38091   7.705   2.856   9.263  0.0792 -0.0760  0.3208
  277MOL0     C38092   7.835   2.840   9.308  0.2730 -0.2781  0.7966
  277MOL0     C38093   7.941   2.873   9.223 -0.3878 -0.5027  0.3155
  277MOL0     C38094   8.071   2.844   9.269  0.0357  0.5003  0.1949
  277MOL0     C38095   8.088   2.772   9.391  0.1679  0.2568 -0.0991
  277MOL0     O38096   8.216   2.745   9.437  0.1773 -0.3228 -0.2969
  277MOL0     C38097   8.251   2.664   9.549 -0.2801  0.7152 -0.0808
  277MOL0     C38098   8.398   2.632   9.550  0.2911  0.2218 -0.1788
  277MOL0     C38099   8.483   2.754   9.571 -0.8004  0.3380 -0.5000
  277MOL0     C38100   8.519   2.755   9.725  0.0944  0.5652  0.0462
  277MOL0     C38101   8.594   2.891   9.754  0.6515  1.3774 -0.4604
  277MOL0     C38102   8.688   2.885   9.872  0.7364 -0.0224 -0.5407
  277MOL0     C38103   8.759   3.030   9.902  0.2707 -0.8505 -0.1028
  277MOL0     C38104   8.876   3.036   9.805 -0.5197 -0.2595  0.0740
  277MOL0     N38105   8.996   3.109   9.860  0.1034 -0.0688 -0.1703
  277MOL0     C38106   9.095   3.061   9.943 -0.2535  0.1610  0.2015
  277MOL0     C38107   9.169   3.161   9.983 -0.8510  0.3895 -1.2736
  277MOL0     C38108   9.286   3.150  10.076 -0.2728  0.3132 -0.1732
  277MOL0     C38109   9.389   3.244  10.021  0.1350  0.4743  1.3621
  277MOL0     C38110   9.520   3.234  10.101  0.2215 -0.3594 -0.9506
  277MOL0     C38111   9.513   3.300  10.237 -0.2743  0.7392 -0.3334
  277MOL0     O38112   9.640   3.297  10.316 -0.0998  0.1946  0.1545
  277MOL0     C38113   9.748   3.365  10.274  0.5428 -1.3237  0.1394
  277MOL0     C38114   9.739   3.479  10.191  0.0250  0.1163 -0.3740
  277MOL0     C38115   9.852   3.567  10.162 -0.2498 -0.4306  0.5156
  277MOL0     C38116   9.835   3.694  10.081  0.0858  0.8262 -0.8495
  277MOL0     C38117   9.977   3.524  10.210 -0.0166  0.0641 -0.2170
  277MOL0     C38118  10.104   3.609  10.199 -0.4466  0.0968  0.5291
  277MOL0     O38119  10.209   3.555  10.262  0.4003 -0.0819 -0.4984
  277MOL0     C38120  10.332   3.564  10.205  0.3310  0.1725 -1.4696
  277MOL0     C38121  10.369   3.585  10.072  0.7901 -0.4015 -0.5512
  277MOL0     C38122  10.495   3.611  10.034  0.2659 -0.6528  0.4660
  277MOL0     C38123  10.605   3.603  10.118 -0.3793  0.1347  1.0411
  277MOL0     O38124  10.733   3.639  10.084  0.0940 -0.7630  0.5585
  277MOL0     C38125  10.748   3.737   9.990  0.0933  0.5690  0.9712
  277MOL0     C38126  10.876   3.809   9.984 -0.8451 -0.2280  0.3021
  277MOL0     C38127  11.000   3.728   9.936 -0.3840  0.3754  0.3285
  277MOL0     C38128  11.010   3.713   9.776  0.1910  0.2235  0.2972
  277MOL0     C38129  11.071   3.583   9.721  0.7533  0.0991 -0.2191
  277MOL0     C38130  11.197   3.545   9.794 -0.1011  0.2286  0.1150
  277MOL0     C38131  11.317   3.642   9.796  0.2993 -0.2824 -0.2419
  277MOL0     C38132  11.370   3.670   9.653 -1.2120 -0.1061 -0.1790
  277MOL0    Cl38133  11.385   3.532   9.550 -0.2555  0.3133  0.2349
  277MOL0     C38134  10.577   3.568  10.253  0.1629 -0.2472 -0.2363
  277MOL0     C38135  10.442   3.556  10.298 -0.2122 -0.4293 -0.6752
  277MOL0     O38136  10.111   3.706  10.127 -0.5363 -0.0065 -0.0771
  277MOL0     C38137   9.986   3.402  10.285  0.6293  0.2248  0.3294
  277MOL0     C38138   9.868   3.326  10.322  0.1097 -0.2540  0.3569
  277MOL0     N38139   9.114   3.272   9.929  0.0236  0.5317  0.5330
  277MOL0     N38140   9.019   3.240   9.846 -0.2533 -0.3082 -0.5223
  277MOL0     C38141   7.983   2.736   9.461 -0.2687  0.4550 -0.4985
  277MOL0     C38142   7.856   2.774   9.426  0.4985 -0.6535  0.0481
  277MOL0     C38143   7.540   2.997   9.151  0.0611  0.3622  0.7253
  277MOL0     C38144   7.461   2.883   9.142 -0.4071 -0.0425  0.2896
  277MOL0     C38145   7.338   2.881   9.071 -0.6905  0.5145 -0.7952
  277MOL0     C38146   7.278   3.002   9.028 -0.4683  0.5808  0.4859
  277MOL0     O38147   7.150   3.012   8.974  0.3928  0.0068 -0.0738
  277MOL0     C38148   7.047   2.974   9.053  0.8843  0.6843 -0.1283
  277MOL0     C38149   6.934   3.075   9.047  0.7045  0.8721 -0.1514
  277MOL0     C38150   6.858   3.051   8.917  0.3424  0.2104  0.1110
  277MOL0     C38151   6.743   3.157   8.907 -0.5061 -0.2763 -0.6559
  277MOL0     C38152   6.643   3.140   9.025  0.2401  0.3438  1.0338
  277MOL0     C38153   6.553   3.114   9.108 -0.6822 -0.0370 -0.3375
  277MOL0     C38154   7.361   3.111   9.032  0.3705  0.2422  0.5965
  277MOL0     C38155   7.491   3.114   9.095  0.0109  0.5467  1.2221
  277MOL0     C38156   7.557   3.250   9.104 -0.0047  0.6411  0.1324
  277MOL0     H38157   7.928   2.921   9.127  0.1468 -4.1612 -1.8065
  277MOL0     H38158   8.166   2.855   9.217  1.0539 -1.8863  1.3597
  277MOL0     H38159   8.188   2.575   9.538 -1.3994  1.7803 -3.4720
  277MOL0     H38160   8.234   2.719   9.642  2.2867 -1.0369  1.5462
  277MOL0     H38161   8.414   2.556   9.627  2.6894  0.2328 -0.5690
  277MOL0     H38162   8.429   2.581   9.458 -1.0742 -1.5749  0.2962
  277MOL0     H38163   8.580   2.744   9.522 -2.0947 -0.3143 -3.1396
  277MOL0     H38164   8.434   2.847   9.543  0.7803  1.0264 -1.0818
  277MOL0     H38165   8.434   2.751   9.793  1.3149  0.1686  1.6245
  277MOL0     H38166   8.582   2.671   9.756  0.8060  1.6972  1.8385
  277MOL0     H38167   8.517   2.968   9.762 -2.6349 -1.8437  2.3330
  277MOL0     H38168   8.635   2.920   9.657  0.1054 -2.0555 -1.8563
  277MOL0     H38169   8.634   2.856   9.962  2.4361 -0.0653  0.4842
  277MOL0     H38170   8.757   2.802   9.858  0.8512 -0.2916  1.4233
  277MOL0     H38171   8.784   3.034  10.008  1.3235  0.3258 -0.3744
  277MOL0     H38172   8.683   3.107   9.887 -1.1467 -2.0343  0.6973
  277MOL0     H38173   8.916   2.937   9.781  0.2410 -0.6382  2.5451
  277MOL0     H38174   8.845   3.093   9.717 -2.3188 -1.8736 -0.3831
  277MOL0     H38175   9.099   2.959   9.981  2.9533 -0.1374 -0.7007
  277MOL0     H38176   9.328   3.049  10.081 -0.1210  0.4410  1.8720
  277MOL0     H38177   9.253   3.181  10.175 -1.4840 -2.0520  0.2273
  277MOL0     H38178   9.410   3.221   9.916 -2.7203  0.2541  0.7512
  277MOL0     H38179   9.356   3.348  10.026  1.3525  0.8239  2.5345
  277MOL0     H38180   9.564   3.134  10.114  2.3858  0.4367 -1.7225
  277MOL0     H38181   9.595   3.291  10.046  0.4120  1.8000  1.3671
  277MOL0     H38182   9.473   3.400  10.220  1.4057  2.1179  3.0062
  277MOL0     H38183   9.442   3.251  10.304  1.4656 -1.4039  0.0637
  277MOL0     H38184   9.640   3.522  10.179  0.9718  3.2753  1.7874
  277MOL0     H38185   9.890   3.684   9.987 -0.9644 -0.2392 -1.3794
  277MOL0     H38186   9.875   3.782  10.132  0.5161  0.2476 -0.1603
  277MOL0     H38187   9.732   3.721  10.055  0.6943  3.7052 -0.6017
  277MOL0     H38188  10.294   3.597   9.994  0.6337  0.4692 -0.2810
  277MOL0     H38189  10.510   3.643   9.931 -0.7471  2.8351  1.2621
  277MOL0     H38190  10.721   3.699   9.890  2.6941 -0.7008  0.6750
  277MOL0     H38191  10.672   3.812  10.015  2.2406  3.7031 -1.1797
  277MOL0     H38192  10.845   3.884   9.911  0.0411  0.5199  0.6780
  277MOL0     H38193  10.893   3.857  10.081  2.4371  0.7851 -0.6277
  277MOL0     H38194  10.988   3.625   9.971  0.2152  0.1909 -0.0061
  277MOL0     H38195  11.089   3.777   9.977  0.6232  0.2880 -1.6393
  277MOL0     H38196  11.084   3.788   9.748  1.3493 -0.9944 -0.0213
  277MOL0     H38197  10.915   3.740   9.731 -0.4227  0.3014  1.5904
  277MOL0     H38198  10.992   3.509   9.738  1.0053  0.2871  2.1637
  277MOL0     H38199  11.090   3.591   9.614 -0.0901 -3.8636 -0.8251
  277MOL0     H38200  11.231   3.451   9.748  1.8203  0.1918  1.5063
  277MOL0     H38201  11.169   3.523   9.898 -0.2668  1.0305  0.2419
  277MOL0     H38202  11.402   3.609   9.857 -1.1703 -1.3117  1.3206
  277MOL0     H38203  11.306   3.745   9.831  2.3490  0.0001 -0.2774
  277MOL0     H38204  11.470   3.714   9.655 -0.9214 -0.6018 -1.9200
  277MOL0     H38205  11.308   3.745   9.602  2.2289  2.7367 -0.5887
  277MOL0     H38206  10.665   3.567  10.317 -0.1316 -3.3658  0.2604
  277MOL0     H38207  10.413   3.539  10.401  0.4878  0.3396 -0.3398
  277MOL0     H38208  10.077   3.357  10.323 -2.1461 -3.7519  3.0683
  277MOL0     H38209   9.871   3.236  10.382 -1.6084 -0.5821  0.0090
  277MOL0     H38210   8.000   2.712   9.566  2.0769  2.0153 -0.4647
  277MOL0     H38211   7.773   2.753   9.492  1.3626 -1.6992  0.8402
  277MOL0     H38212   7.477   2.785   9.187 -0.9204  0.5601  1.8435
  277MOL0     H38213   7.282   2.788   9.067 -0.1880  0.2438 -3.8329
  277MOL0     H38214   7.020   2.879   9.007 -0.6522  0.4410  1.1919
  277MOL0     H38215   7.077   2.956   9.157  0.1926  0.2382 -0.0017
  277MOL0     H38216   6.969   3.178   9.043  2.2761  0.3304 -1.3842
  277MOL0     H38217   6.870   3.066   9.135 -3.1777 -1.1242 -2.8325
  277MOL0     H38218   6.925   3.050   8.830 -0.4756 -3.0400 -0.6298
  277MOL0     H38219   6.814   2.951   8.921  2.2820 -0.6604  1.2013
  277MOL0     H38220   6.692   3.148   8.810  0.5561 -1.3155 -1.1421
  277MOL0     H38221   6.783   3.259   8.913  0.1379 -0.4966 -1.0517
  277MOL0     H38222   6.483   3.082   9.182 -1.3636  0.0546 -0.9354
  277MOL0     H38223   7.316   3.202   8.993  0.6965  0.0503 -0.2620
  277MOL0     H38224   7.665   3.244   9.083 -0.0617 -0.3686  0.0791
  277MOL0     H38225   7.523   3.319   9.026  1.8869  0.8415 -0.5795
  277MOL0     H38226   7.538   3.296   9.201  0.2450 -0.8324  0.9153
  278MOL0     O38227   4.420   8.357   0.538 -0.9066  0.0461  0.6352
  278MOL0     C38228   4.373   8.300   0.642 -0.7935 -0.0731  1.2647
  278MOL0     O38229   4.445   8.208   0.714 -0.0896 -0.3567  0.3349
  278MOL0     C38230   4.573   8.179   0.680 -0.0210 -0.2640  0.3182
  278MOL0     C38231   4.683   8.266   0.712  0.3332  0.5869 -0.2020
  278MOL0     C38232   4.812   8.225   0.688 -0.6600 -0.0168 -1.0538
  278MOL0     C38233   4.831   8.122   0.603 -0.0605 -0.3470  0.6638
  278MOL0     O38234   4.957   8.089   0.554  0.4150 -0.1793 -0.0450
  278MOL0     C38235   5.051   8.057   0.659 -0.1240  0.3536  0.5691
  278MOL0     C38236   5.161   7.966   0.609  0.8169  0.0143  0.3332
  278MOL0     C38237   5.243   8.020   0.486 -0.9243  0.4252  0.0737
  278MOL0     C38238   5.371   7.937   0.459 -0.3645 -0.6265 -0.1508
  278MOL0     C38239   5.466   8.005   0.359  0.3289  0.1090 -0.8096
  278MOL0     C38240   5.396   8.018   0.219 -0.1957 -0.5813 -0.1949
  278MOL0     C38241   5.508   8.050   0.114  1.2663 -0.1760  0.3355
  278MOL0     C38242   5.431   8.068  -0.022 -1.0148 -0.8933  0.0532
  278MOL0     N38243   5.534   8.079  -0.132 -0.4497 -0.2884  0.3125
  278MOL0     C38244   5.515   8.022  -0.253  0.4528  0.6630  0.5725
  278MOL0     C38245   5.611   8.073  -0.332  0.2152 -0.2682  0.2826
  278MOL0     C38246   5.623   8.003  -0.468 -0.3719 -0.6522  1.2854
  278MOL0     C38247   5.766   7.956  -0.496 -0.8155 -0.4150 -0.5589
  278MOL0     C38248   5.865   8.067  -0.524 -1.0011 -0.6962 -1.1087
  278MOL0     C38249   6.008   8.027  -0.574  1.0496  0.5900  0.3078
  278MOL0     O38250   6.000   7.921  -0.670 -0.8180  0.0694  0.5823
  278MOL0     C38251   6.115   7.843  -0.687 -0.4503 -0.0028 -0.1328
  278MOL0     C38252   6.087   7.723  -0.754  0.3204 -0.0709  0.6368
  278MOL0     C38253   6.184   7.632  -0.796 -0.8122 -0.8724  0.0382
  278MOL0     C38254   6.147   7.512  -0.878 -0.4711  0.1628  0.1866
  278MOL0     C38255   6.318   7.649  -0.754 -0.4674 -1.5328  0.3050
  278MOL0     C38256   6.429   7.554  -0.794  0.0092 -0.6086 -0.7123
  278MOL0     O38257   6.556   7.618  -0.800  0.0618 -0.1267  0.3562
  278MOL0     C38258   6.676   7.546  -0.803  0.7020 -0.4518 -1.4126
  278MOL0     C38259   6.697   7.409  -0.823  0.7533  0.0350  0.0377
  278MOL0     C38260   6.823   7.355  -0.797  0.5738  1.0989  0.9315
  278MOL0     C38261   6.926   7.431  -0.748 -0.7514 -0.6168  0.7368
  278MOL0     O38262   7.041   7.369  -0.732  0.3975  0.5039 -0.2653
  278MOL0     C38263   7.150   7.429  -0.669 -0.4634 -0.1275 -0.0334
  278MOL0     C38264   7.253   7.318  -0.658  0.7914 -0.3638  0.9232
  278MOL0     C38265   7.236   7.239  -0.537  0.5930  0.2770  0.2905
  278MOL0     C38266   7.357   7.141  -0.527  0.8945  0.2798 -0.1230
  278MOL0     C38267   7.370   7.064  -0.394 -1.0055 -0.5496  0.3836
  278MOL0     C38268   7.518   7.052  -0.355  0.1710  0.5457 -0.0103
  278MOL0     C38269   7.533   6.993  -0.213  0.5896  0.2465 -0.1575
  278MOL0     C38270   7.664   6.950  -0.173 -0.1018 -1.0656 -0.0989
  278MOL0    Cl38271   7.788   7.090  -0.167 -0.4732 -0.5453  0.0877
  278MOL0     C38272   6.906   7.570  -0.731 -0.5365  0.1408  0.2641
  278MOL0     C38273   6.783   7.628  -0.764 -0.6339 -0.9350  1.2327
  278MOL0     O38274   6.415   7.434  -0.802  0.0834  0.2795  0.5417
  278MOL0     C38275   6.350   7.769  -0.684 -0.3952 -0.2020 -0.3594
  278MOL0     C38276   6.247   7.862  -0.659  0.7979 -0.6889 -0.2363
  278MOL0     N38277   5.684   8.162  -0.259  0.0979 -0.5080  0.4759
  278MOL0     N38278   5.628   8.175  -0.140  0.7029  0.3292  0.4338
  278MOL0     C38279   4.727   8.037   0.553 -0.3206 -0.7093 -0.6779
  278MOL0     C38280   4.597   8.068   0.594  0.1093  0.1313  0.2260
  278MOL0     C38281   4.239   8.310   0.692  0.1844  0.0726  0.1239
  278MOL0     C38282   4.182   8.211   0.772 -0.7420  0.3832  0.3442
  278MOL0     C38283   4.053   8.211   0.814  0.4321  0.7388  0.0258
  278MOL0     C38284   3.957   8.305   0.763  0.1864 -0.8057  0.3745
  278MOL0     O38285   3.824   8.296   0.795  0.0067  0.4855 -0.5370
  278MOL0     C38286   3.734   8.365   0.713 -0.3271  0.0888 -0.2037
  278MOL0     C38287   3.705   8.305   0.579 -0.5762  0.9011  0.2665
  278MOL0     C38288   3.561   8.318   0.527  0.1319 -0.1697 -0.3704
  278MOL0     C38289   3.482   8.193   0.562 -0.3224 -0.5627 -0.5281
  278MOL0     C38290   3.342   8.216   0.525  0.9254 -0.7201  0.1310
  278MOL0     C38291   3.225   8.219   0.490 -0.1077  0.0167  0.4329
  278MOL0     C38292   4.011   8.402   0.678 -0.8231 -0.7320  0.0741
  278MOL0     C38293   4.147   8.413   0.649  0.1332  0.6430 -0.5086
  278MOL0     C38294   4.188   8.528   0.563  0.5308  0.7737  0.0156
  278MOL0     H38295   4.667   8.344   0.785 -0.8649  0.4359 -0.2920
  278MOL0     H38296   4.894   8.287   0.723  0.5195 -1.0844 -1.8398
  278MOL0     H38297   4.992   8.006   0.736  0.2029 -1.1587 -0.1628
  278MOL0     H38298   5.101   8.142   0.708 -0.7087  3.1162 -3.1935
  278MOL0     H38299   5.238   7.946   0.685  2.7741  2.2671 -0.8871
  278MOL0     H38300   5.117   7.869   0.587  0.7582  0.0460  0.3080
  278MOL0     H38301   5.182   8.033   0.396 -1.1113  0.5154  0.2130
  278MOL0     H38302   5.271   8.123   0.510 -0.2065  0.4370 -0.7197
  278MOL0     H38303   5.424   7.920   0.553 -1.7480 -1.1178  0.5717
  278MOL0     H38304   5.353   7.835   0.424  1.8240 -1.0956 -0.0706
  278MOL0     H38305   5.563   7.957   0.347  1.0653  0.0481  3.6807
  278MOL0     H38306   5.496   8.098   0.409 -3.4398  0.0182  2.1255
  278MOL0     H38307   5.351   7.923   0.189 -0.5158 -0.2566 -0.7518
  278MOL0     H38308   5.325   8.100   0.228  0.1292 -0.4536  1.6903
  278MOL0     H38309   5.572   7.962   0.101  1.9013  0.2831  0.3574
  278MOL0     H38310   5.570   8.137   0.136  1.5202 -0.7891  2.1328
  278MOL0     H38311   5.364   7.982  -0.036  0.2755 -1.7856 -0.8954
  278MOL0     H38312   5.363   8.153  -0.024  2.0117  1.6904 -0.7031
  278MOL0     H38313   5.438   7.951  -0.281  0.3785  0.9998 -0.0738
  278MOL0     H38314   5.591   8.067  -0.550  0.7696  0.5848  1.7746
  278MOL0     H38315   5.545   7.926  -0.466 -1.7345  0.6680  0.6030
  278MOL0     H38316   5.794   7.905  -0.403 -1.3828  0.1077 -0.0962
  278MOL0     H38317   5.773   7.882  -0.576 -1.5667  1.1698 -2.1523
  278MOL0     H38318   5.822   8.120  -0.609  0.8078  1.9669 -0.4717
  278MOL0     H38319   5.880   8.141  -0.445  1.6849 -1.2652 -1.0145
  278MOL0     H38320   6.054   8.117  -0.617  0.9134  0.5461  0.0692
  278MOL0     H38321   6.076   7.994  -0.495 -0.6578 -2.7585  0.5481
  278MOL0     H38322   5.981   7.701  -0.765  0.1300  0.5463  1.1616
  278MOL0     H38323   6.215   7.504  -0.963 -1.2313  1.4967 -0.5734
  278MOL0     H38324   6.045   7.525  -0.917 -0.1111  2.3908 -0.1227
  278MOL0     H38325   6.153   7.421  -0.816 -0.0198 -0.6457 -1.0114
  278MOL0     H38326   6.619   7.347  -0.866  3.1427 -1.9345 -1.6825
  278MOL0     H38327   6.822   7.251  -0.830 -1.1164  2.0477 -2.5214
  278MOL0     H38328   7.196   7.507  -0.730  0.7113 -0.7309  0.0578
  278MOL0     H38329   7.122   7.462  -0.569  0.1167 -0.5030  0.2537
  278MOL0     H38330   7.260   7.258  -0.749  0.9367  1.7804 -0.5577
  278MOL0     H38331   7.345   7.376  -0.650  0.6983  0.3343 -1.9937
  278MOL0     H38332   7.142   7.185  -0.547  0.6552  0.0722  0.7869
  278MOL0     H38333   7.232   7.297  -0.444 -0.1099  0.7424 -0.0228
  278MOL0     H38334   7.451   7.196  -0.541  0.6484  1.1436  1.4882
  278MOL0     H38335   7.359   7.062  -0.603  0.8639  1.0562 -0.9511
  278MOL0     H38336   7.309   7.115  -0.319 -0.5561  0.2685  0.2047
  278MOL0     H38337   7.333   6.963  -0.417  1.4933 -1.8840  1.8259
  278MOL0     H38338   7.562   7.151  -0.366 -2.0262  1.3175 -3.3211
  278MOL0     H38339   7.568   6.993  -0.433 -1.5195  1.0605 -1.5467
  278MOL0     H38340   7.462   6.909  -0.213 -0.3225  0.9649 -1.8278
  278MOL0     H38341   7.496   7.072  -0.146  0.6073  0.3065 -0.2183
  278MOL0     H38342   7.697   6.876  -0.246  0.1369 -1.1777  0.1191
  278MOL0     H38343   7.654   6.896  -0.078 -1.8736 -0.9018 -0.1656
  278MOL0     H38344   6.991   7.631  -0.701 -1.6424  1.6639  0.4597
  278MOL0     H38345   6.784   7.736  -0.751 -0.3116 -0.6167 -0.9961
  278MOL0     H38346   6.451   7.781  -0.648 -0.5163  0.6722 -0.2936
  278MOL0     H38347   6.259   7.948  -0.594 -1.7136 -0.5404  0.1443
  278MOL0     H38348   4.750   7.951   0.491  1.6394  0.3456 -1.5234
  278MOL0     H38349   4.516   8.003   0.562  1.7440 -0.4149 -3.2631
  278MOL0     H38350   4.247   8.127   0.797  0.3224  1.1138  0.0846
  278MOL0     H38351   4.030   8.133   0.887 -1.0607  0.6205 -0.5390
  278MOL0     H38352   3.644   8.354   0.775 -0.6644  0.9452 -0.5306
  278MOL0     H38353   3.753   8.471   0.697  3.2268 -0.5448 -0.8799
  278MOL0     H38354   3.726   8.198   0.585  2.2847  1.3694 -0.2137
  278MOL0     H38355   3.777   8.355   0.514  0.1952 -0.3716  0.0961
  278MOL0     H38356   3.514   8.405   0.575 -4.6038 -2.4090 -0.3423
  278MOL0     H38357   3.569   8.347   0.422  2.5210  2.4210  0.4198
  278MOL0     H38358   3.490   8.174   0.669  1.2572  0.1317 -0.4951
  278MOL0     H38359   3.520   8.107   0.505 -1.0077  0.3914 -2.5069
  278MOL0     H38360   3.125   8.237   0.456  1.0351  1.1973 -2.7077
  278MOL0     H38361   3.947   8.475   0.628  1.1900  2.3962  1.7486
  278MOL0     H38362   4.118   8.611   0.570 -1.0102 -0.2685 -2.0046
  278MOL0     H38363   4.293   8.546   0.591  0.4712  0.0524  0.7389
  278MOL0     H38364   4.184   8.499   0.458  3.1474  0.1032  0.0309
  279MOL0     O38365   4.839   0.436   1.075  0.5792  0.1547 -0.0180
  279MOL0     C38366   4.760   0.465   0.983 -0.8738 -0.0674  0.3070
  279MOL0     O38367   4.793   0.457   0.849 -0.1930 -0.5415  0.5455
  279MOL0     C38368   4.922   0.419   0.823  0.0013  0.1958 -0.1112
  279MOL0     C38369   5.025   0.511   0.846  0.1228 -0.3385 -0.4047
  279MOL0     C38370   5.154   0.477   0.810 -0.3740 -0.0347  0.4790
  279MOL0     C38371   5.190   0.354   0.749 -0.2939  0.1589 -0.2914
  279MOL0     O38372   5.326   0.332   0.714  0.3287  0.0234 -0.4007
  279MOL0     C38373   5.369   0.199   0.703  0.0278  0.4317 -0.4950
  279MOL0     C38374   5.515   0.183   0.668  0.7088 -0.1554 -0.3048
  279MOL0     C38375   5.595   0.220   0.793 -0.6960 -0.3711  0.4928
  279MOL0     C38376   5.746   0.203   0.757  0.5310  0.6120 -0.4807
  279MOL0     C38377   5.833   0.213   0.880  0.6825 -0.4866 -0.0743
  279MOL0     C38378   5.976   0.205   0.812  0.6675 -0.2698  0.7627
  279MOL0     C38379   6.078   0.228   0.915 -0.6566 -0.3001 -0.9798
  279MOL0     C38380   6.091   0.374   0.991  0.7694  0.2512 -0.1381
  279MOL0     N38381   6.197   0.380   1.099 -0.1897  0.2600  0.1664
  279MOL0     C38382   6.194   0.311   1.215 -0.3665 -0.8115  0.5988
  279MOL0     C38383   6.300   0.354   1.279 -0.3550  0.7275 -0.7057
  279MOL0     C38384   6.360   0.317   1.413 -0.4472  0.4799  0.9647
  279MOL0     C38385   6.486   0.248   1.373 -0.4094  0.1453 -0.1685
  279MOL0     C38386   6.563   0.197   1.491 -0.8886  0.1793  0.2669
  279MOL0     C38387   6.670   0.104   1.433  0.1735 -0.2438 -0.9512
  279MOL0     O38388   6.766   0.061   1.542  0.5499 -0.4358 -0.2797
  279MOL0     C38389   6.859  -0.028   1.513 -0.1778 -0.8118  0.0388
  279MOL0     C38390   6.949  -0.065   1.613 -0.8168  0.0685 -0.0121
  279MOL0     C38391   7.061  -0.148   1.597 -0.8013 -0.3092  0.7049
  279MOL0     C38392   7.146  -0.178   1.724 -0.4645 -0.4802 -0.6231
  279MOL0     C38393   7.083  -0.205   1.464 -0.3220  0.5537 -0.0551
  279MOL0     C38394   7.195  -0.299   1.428  0.2233  0.2405  0.5034
  279MOL0     O38395   7.282  -0.333   1.528  0.7537 -0.2405 -0.1793
  279MOL0     C38396   7.400  -0.399   1.493  0.9912 -0.0209 -0.2525
  279MOL0     C38397   7.397  -0.529   1.441 -0.4926 -0.2959  0.6082
  279MOL0     C38398   7.514  -0.586   1.388  0.2110  1.0064 -0.3970
  279MOL0     C38399   7.634  -0.525   1.408 -0.3941 -0.0991 -0.3880
  279MOL0     O38400   7.746  -0.598   1.382  0.3828 -0.7149 -1.3262
  279MOL0     C38401   7.872  -0.547   1.403 -0.6407  0.8779 -0.1337
  279MOL0     C38402   7.970  -0.666   1.382 -0.9400  0.9965  0.1245
  279MOL0     C38403   8.113  -0.635   1.405 -0.4390  0.5173 -0.1632
  279MOL0     C38404   8.207  -0.751   1.364  0.3934 -0.3627  0.7420
  279MOL0     C38405   8.327  -0.749   1.448 -0.1200  0.0700  0.3367
  279MOL0     C38406   8.430  -0.853   1.389 -1.3415 -0.7412  0.4119
  279MOL0     C38407   8.559  -0.876   1.468  0.5564  0.0258  0.0825
  279MOL0     C38408   8.678  -0.921   1.389 -0.4069  0.3436 -0.0837
  279MOL0    Cl38409   8.653  -1.081   1.329  0.1195  0.1133  0.4267
  279MOL0     C38410   7.636  -0.393   1.454 -0.4794 -0.2250 -0.3400
  279MOL0     C38411   7.518  -0.327   1.500 -0.8937  0.2025  0.7169
  279MOL0     O38412   7.196  -0.349   1.318 -0.3580  0.2680  0.7870
  279MOL0     C38413   6.989  -0.169   1.362 -1.4468 -0.3483  0.0844
  279MOL0     C38414   6.877  -0.098   1.393 -0.2822  0.2348  1.0088
  279MOL0     N38415   6.374   0.440   1.196 -0.6930  0.6306  0.5990
  279MOL0     N38416   6.313   0.448   1.083 -0.1478 -0.2257 -0.2716
  279MOL0     C38417   5.081   0.264   0.728  0.4460 -0.4209  0.1470
  279MOL0     C38418   4.949   0.290   0.779 -0.9918  0.2634  0.1367
  279MOL0     C38419   4.621   0.497   1.010 -0.2301 -0.2740 -0.8162
  279MOL0     C38420   4.537   0.544   0.916  0.0061 -0.3533  0.7251
  279MOL0     C38421   4.399   0.568   0.937 -0.2470 -0.0965  0.7946
  279MOL0     C38422   4.337   0.558   1.057 -0.2764 -0.2580 -0.1780
  279MOL0     O38423   4.208   0.601   1.079 -0.0594  0.0648  0.0934
  279MOL0     C38424   4.155   0.598   1.208  0.1839  0.8409 -0.6168
  279MOL0     C38425   4.001   0.635   1.199 -0.6284 -1.4084 -0.3423
  279MOL0     C38426   3.925   0.535   1.114 -0.0845 -0.8765 -0.3624
  279MOL0     C38427   3.774   0.539   1.136  0.3325  1.1065 -0.4750
  279MOL0     C38428   3.731   0.671   1.099  0.4741 -0.2462 -0.0359
  279MOL0     C38429   3.706   0.777   1.053  0.3288  0.2503  1.0406
  279MOL0     C38430   4.422   0.504   1.156  0.3392  0.4548  0.6658
  279MOL0     C38431   4.557   0.473   1.142 -0.3720 -1.3520  0.9496
  279MOL0     C38432   4.624   0.399   1.248  0.7400 -1.1349 -0.1654
  279MOL0     H38433   5.003   0.607   0.891 -0.0715 -2.5814  5.1066
  279MOL0     H38434   5.238   0.544   0.823 -0.0392 -0.4664  0.5522
  279MOL0     H38435   5.315   0.136   0.632 -1.1208  0.5883  0.2107
  279MOL0     H38436   5.361   0.148   0.800  0.9353  0.7887 -0.2213
  279MOL0     H38437   5.532   0.079   0.635 -3.4029 -1.5092  1.2358
  279MOL0     H38438   5.549   0.249   0.588 -2.9974 -0.1384 -2.0651
  279MOL0     H38439   5.574   0.325   0.811  2.3778  0.4925 -0.4791
  279MOL0     H38440   5.562   0.159   0.878  1.5011 -1.7991  0.4084
  279MOL0     H38441   5.767   0.107   0.710  1.2112  0.0196  0.9946
  279MOL0     H38442   5.760   0.285   0.686  1.1080  0.1633 -0.8916
  279MOL0     H38443   5.819   0.135   0.955 -0.7946  2.1914  2.6372
  279MOL0     H38444   5.811   0.307   0.933 -0.1125  1.0476 -2.9076
  279MOL0     H38445   5.998   0.109   0.764  0.1782  0.2389 -0.5532
  279MOL0     H38446   5.980   0.280   0.731  0.9398  1.1989  2.0834
  279MOL0     H38447   6.177   0.200   0.877  1.1687  1.8177  1.8497
  279MOL0     H38448   6.049   0.152   0.987 -0.6446  0.6756  0.0775
  279MOL0     H38449   6.107   0.445   0.910 -0.3918  0.2328 -0.4017
  279MOL0     H38450   5.995   0.400   1.038  0.0627 -0.4585 -1.1337
  279MOL0     H38451   6.110   0.249   1.247 -0.4604 -0.1412  1.6912
  279MOL0     H38452   6.288   0.250   1.461  0.2286 -1.5607 -0.7071
  279MOL0     H38453   6.367   0.407   1.474 -0.7330  1.6244 -0.6060
  279MOL0     H38454   6.473   0.161   1.308  2.8675 -0.7900  0.2602
  279MOL0     H38455   6.548   0.324   1.323 -0.2743  0.0240 -0.1862
  279MOL0     H38456   6.609   0.286   1.536 -0.6448 -0.5691  1.5553
  279MOL0     H38457   6.500   0.153   1.569  0.4067 -1.9769  0.1868
  279MOL0     H38458   6.617   0.019   1.390 -0.7452 -0.6902  0.9418
  279MOL0     H38459   6.716   0.161   1.352 -0.2644  0.1933 -0.8956
  279MOL0     H38460   6.927  -0.012   1.705  0.9237 -2.1606  1.7964
  279MOL0     H38461   7.121  -0.274   1.770 -2.6352 -0.6515 -2.0248
  279MOL0     H38462   7.128  -0.104   1.803  1.5973  0.1733 -0.7095
  279MOL0     H38463   7.254  -0.175   1.707 -0.3996  2.3994 -0.2129
  279MOL0     H38464   7.304  -0.583   1.452 -1.6070  1.1306 -1.2879
  279MOL0     H38465   7.506  -0.686   1.347 -0.1500  1.2037 -0.8159
  279MOL0     H38466   7.911  -0.473   1.332  4.1661 -1.5598 -0.4724
  279MOL0     H38467   7.869  -0.510   1.505 -0.3439  1.9681 -0.5085
  279MOL0     H38468   7.948  -0.749   1.450  0.9885  0.7444  0.4815
  279MOL0     H38469   7.958  -0.696   1.277  0.9987 -1.5427  0.5270
  279MOL0     H38470   8.122  -0.611   1.511  0.2621 -0.2317 -0.0504
  279MOL0     H38471   8.139  -0.547   1.346  0.6488 -1.6699 -3.2285
  279MOL0     H38472   8.213  -0.731   1.256  0.9678  0.2607  0.8765
  279MOL0     H38473   8.150  -0.843   1.373 -0.0176 -0.2721 -0.6197
  279MOL0     H38474   8.379  -0.653   1.450  2.2674 -1.1497  0.8058
  279MOL0     H38475   8.298  -0.764   1.553 -1.6141  0.1918 -0.0346
  279MOL0     H38476   8.459  -0.819   1.289 -1.9303  1.2375  0.8801
  279MOL0     H38477   8.381  -0.948   1.368  0.8538 -2.3085  1.9129
  279MOL0     H38478   8.540  -0.940   1.554  0.1241  3.1945  2.5272
  279MOL0     H38479   8.589  -0.780   1.512  1.0971 -1.3706  2.9580
  279MOL0     H38480   8.775  -0.916   1.439 -0.6744 -0.2829  0.5114
  279MOL0     H38481   8.690  -0.855   1.302 -0.1937 -1.1611 -1.2488
  279MOL0     H38482   7.732  -0.342   1.446  0.5347 -2.3302 -3.3026
  279MOL0     H38483   7.520  -0.231   1.549  0.4910  0.9572 -0.7147
  279MOL0     H38484   6.992  -0.195   1.257 -0.4963 -0.6930  0.1794
  279MOL0     H38485   6.805  -0.086   1.313 -0.9631 -1.6721  1.2884
  279MOL0     H38486   5.093   0.167   0.679  4.2712  0.1949 -0.4149
  279MOL0     H38487   4.861   0.228   0.772  0.2264 -1.7511  1.6392
  279MOL0     H38488   4.558   0.551   0.810  5.0714  0.8016  1.5822
  279MOL0     H38489   4.341   0.607   0.854  0.5891  0.6159  0.5299
  279MOL0     H38490   4.164   0.493   1.237  1.8153  1.0084 -0.4531
  279MOL0     H38491   4.210   0.662   1.279 -0.2447 -0.3243  0.8104
  279MOL0     H38492   3.996   0.732   1.149 -0.7054 -0.9962  0.4403
  279MOL0     H38493   3.952   0.656   1.295  2.1712 -0.7367  1.0475
  279MOL0     H38494   3.951   0.548   1.009  2.2532 -4.9189 -0.5221
  279MOL0     H38495   3.967   0.437   1.138  4.9713  0.9851 -0.3961
  279MOL0     H38496   3.751   0.505   1.237 -1.3240 -6.2101 -2.7116
  279MOL0     H38497   3.721   0.467   1.073 -2.7616 -0.2286  3.2463
  279MOL0     H38498   3.662   0.867   1.015 -0.6661 -0.5265  0.3274
  279MOL0     H38499   4.374   0.476   1.249  2.0111  1.9933  2.0692
  279MOL0     H38500   4.721   0.447   1.267 -0.1737  2.4818 -3.3384
  279MOL0     H38501   4.564   0.405   1.339  1.1645  1.4550  0.0009
  279MOL0     H38502   4.628   0.293   1.220 -2.7923 -1.9049  1.6804
  280MOL0     O38503   4.064   5.629   8.793  0.1719 -0.1415  0.5528
  280MOL0     C38504   4.006   5.736   8.816  0.1596 -0.2865  0.5293
  280MOL0     O38505   4.046   5.824   8.917  0.0252  0.3123  0.1903
  280MOL0     C38506   4.138   5.786   9.007 -0.5168  1.2115 -0.1248
  280MOL0     C38507   4.275   5.821   8.993  0.3481 -0.0138  0.6211
  280MOL0     C38508   4.376   5.774   9.077  0.0625 -0.0491  0.5743
  280MOL0     C38509   4.335   5.687   9.183 -0.3350 -0.5723  0.1342
  280MOL0     O38510   4.432   5.650   9.270 -0.1380  0.5903 -0.3995
  280MOL0     C38511   4.430   5.717   9.398  0.1818  0.7343 -0.1883
  280MOL0     C38512   4.549   5.664   9.477  0.6659  0.1856 -0.4129
  280MOL0     C38513   4.560   5.506   9.476 -0.0344  0.3864 -0.9493
  280MOL0     C38514   4.710   5.477   9.504  0.1358  0.3890 -0.2293
  280MOL0     C38515   4.722   5.329   9.537  0.0740  0.3684 -0.7638
  280MOL0     C38516   4.875   5.301   9.523  0.3764  0.0376  0.4607
  280MOL0     C38517   4.915   5.160   9.557  0.2907 -0.0746 -0.6728
  280MOL0     C38518   4.942   5.148   9.703 -0.5636 -0.5474 -0.8465
  280MOL0     N38519   4.966   5.003   9.724  0.8376 -0.2184 -0.1693
  280MOL0     C38520   5.067   4.942   9.789 -0.5993  0.1689  0.3485
  280MOL0     C38521   5.072   4.813   9.749  0.0452 -0.5376 -0.3645
  280MOL0     C38522   5.179   4.709   9.770 -1.0346  0.0375  0.3303
  280MOL0     C38523   5.136   4.588   9.851 -0.3777 -0.5944 -0.9195
  280MOL0     C38524   5.035   4.501   9.792 -0.1564  0.6130 -0.7552
  280MOL0     C38525   5.097   4.404   9.691  0.0807  0.5532  0.5931
  280MOL0     O38526   4.987   4.325   9.646 -0.1690 -0.9996 -0.5700
  280MOL0     C38527   5.026   4.233   9.550  0.0388 -0.4272  1.0788
  280MOL0     C38528   4.925   4.147   9.504 -0.0308 -0.3712 -1.0678
  280MOL0     C38529   4.946   4.045   9.411 -0.2846 -0.7113  0.9295
  280MOL0     C38530   4.839   3.947   9.388 -0.7586  0.5875  0.1079
  280MOL0     C38531   5.071   4.044   9.343 -0.2260  0.7163  0.3438
  280MOL0     C38532   5.109   3.964   9.229 -0.0828  0.0902 -0.0861
  280MOL0     O38533   5.235   3.912   9.231  0.7915  0.5682 -0.7484
  280MOL0     C38534   5.254   3.787   9.167  0.8273 -0.6407 -0.1691
  280MOL0     C38535   5.367   3.787   9.082  0.2407  0.2123 -0.4152
  280MOL0     C38536   5.407   3.664   9.010  0.1729  0.2509  0.0258
  280MOL0     C38537   5.318   3.551   9.018  0.6378 -0.4872  0.4314
  280MOL0     O38538   5.351   3.444   8.951 -0.0393  0.4989 -0.1062
  280MOL0     C38539   5.247   3.392   8.870  0.5056 -1.1747 -0.1063
  280MOL0     C38540   5.306   3.288   8.772  0.3527  1.4936 -1.1583
  280MOL0     C38541   5.401   3.337   8.665 -0.3832 -0.1569  0.5705
  280MOL0     C38542   5.545   3.321   8.712 -0.4627 -0.3584 -0.3178
  280MOL0     C38543   5.637   3.392   8.617  0.6320 -0.4849  0.2177
  280MOL0     C38544   5.789   3.385   8.655  0.4832  0.3121 -0.4237
  280MOL0     C38545   5.879   3.468   8.559  0.3524 -0.3751  0.2686
  280MOL0     C38546   5.935   3.390   8.447  0.0195  1.1445 -0.1186
  280MOL0    Cl38547   6.042   3.483   8.341 -0.1613 -0.4614 -0.3441
  280MOL0     C38548   5.210   3.560   9.103  0.1311 -0.0403  0.1492
  280MOL0     C38549   5.176   3.675   9.178 -0.6719 -0.8057  0.5024
  280MOL0     O38550   5.021   3.938   9.147  0.4032  0.2488  0.0580
  280MOL0     C38551   5.173   4.125   9.391 -0.1539 -0.1711 -0.2870
  280MOL0     C38552   5.153   4.219   9.490 -0.4448  0.1784 -0.3516
  280MOL0     N38553   4.951   4.790   9.686  0.3550  0.3377  0.0500
  280MOL0     N38554   4.894   4.904   9.665 -0.0850  0.5348  0.0594
  280MOL0     C38555   4.205   5.646   9.202  0.3740  0.1501 -0.2314
  280MOL0     C38556   4.108   5.696   9.110 -0.9266 -0.8052 -0.6868
  280MOL0     C38557   3.871   5.761   8.754 -0.0613 -0.1641  0.6056
  280MOL0     C38558   3.787   5.866   8.805  0.0958  0.9149 -0.5175
  280MOL0     C38559   3.666   5.900   8.743  0.1993  0.3226 -0.1044
  280MOL0     C38560   3.628   5.830   8.625 -0.3098  0.3515  0.4530
  280MOL0     O38561   3.516   5.862   8.549 -0.0575  0.5041  0.8404
  280MOL0     C38562   3.399   5.913   8.621 -0.4156  1.3774  0.2680
  280MOL0     C38563   3.282   5.899   8.524  0.4327 -1.1334 -0.5398
  280MOL0     C38564   3.167   5.998   8.563 -0.3986  0.4556  0.2002
  280MOL0     C38565   3.055   5.998   8.459  0.4857  0.3083 -0.2922
  280MOL0     C38566   3.018   5.863   8.405  0.5023 -0.0067  0.5826
  280MOL0     C38567   2.977   5.755   8.369 -0.0585 -0.2833 -0.0890
  280MOL0     C38568   3.701   5.719   8.583 -0.7476  0.4427 -0.3895
  280MOL0     C38569   3.818   5.674   8.652  0.3382  0.6729  0.1940
  280MOL0     C38570   3.869   5.547   8.585 -0.3600 -0.9100 -0.3867
  280MOL0     H38571   4.319   5.882   8.914  0.9417 -1.2160 -0.0115
  280MOL0     H38572   4.478   5.811   9.065  0.4081 -0.1731  2.7155
  280MOL0     H38573   4.338   5.686   9.450  0.8684  3.8892  3.4112
  280MOL0     H38574   4.447   5.825   9.387 -0.1930  0.6938 -1.2410
  280MOL0     H38575   4.648   5.700   9.450  0.5123  1.3842  0.5583
  280MOL0     H38576   4.537   5.703   9.579  0.7023 -2.3503  0.6321
  280MOL0     H38577   4.490   5.478   9.556 -1.7885  1.7589 -1.9433
  280MOL0     H38578   4.528   5.471   9.378 -3.0333  0.1214  0.0215
  280MOL0     H38579   4.771   5.509   9.419 -0.3329  0.2292 -0.6301
  280MOL0     H38580   4.743   5.532   9.593 -1.1019 -0.5441  0.8620
  280MOL0     H38581   4.654   5.263   9.483 -0.7198  0.6718 -0.1500
  280MOL0     H38582   4.690   5.317   9.641  0.7669 -1.0495 -0.6921
  280MOL0     H38583   4.900   5.332   9.422 -1.0787  1.7448  0.5708
  280MOL0     H38584   4.927   5.369   9.591  1.7004 -0.1800 -0.3075
  280MOL0     H38585   4.997   5.115   9.499 -0.0887  0.0620 -1.3208
  280MOL0     H38586   4.825   5.100   9.540  2.2575 -4.3856  2.2834
  280MOL0     H38587   5.039   5.191   9.730  0.0643 -1.4276 -1.6150
  280MOL0     H38588   4.864   5.194   9.764  0.2629  0.3887 -0.4564
  280MOL0     H38589   5.156   4.994   9.822  0.9457 -1.1191 -1.4877
  280MOL0     H38590   5.255   4.765   9.825 -1.0549  0.7385 -0.3421
  280MOL0     H38591   5.231   4.677   9.680  2.8584 -0.5148  2.5217
  280MOL0     H38592   5.229   4.534   9.875 -0.8082 -1.5293 -1.3408
  280MOL0     H38593   5.101   4.619   9.950  0.4154 -1.5033 -0.3294
  280MOL0     H38594   5.006   4.433   9.873 -1.5052 -0.9218 -2.4383
  280MOL0     H38595   4.952   4.553   9.744 -0.0389 -0.4069 -2.1484
  280MOL0     H38596   5.131   4.472   9.613  1.7564  0.8581  1.5417
  280MOL0     H38597   5.184   4.352   9.734  1.5960  1.7154 -0.9122
  280MOL0     H38598   4.826   4.162   9.544  0.9508 -0.5088  1.5739
  280MOL0     H38599   4.873   3.844   9.371 -0.6796  1.1557 -4.4524
  280MOL0     H38600   4.780   3.975   9.300 -2.8407  2.4705  1.9978
  280MOL0     H38601   4.772   3.940   9.474 -1.1821  0.8230 -0.1969
  280MOL0     H38602   5.432   3.874   9.089 -0.0796  0.3103  3.1237
  280MOL0     H38603   5.498   3.660   8.950 -1.3289  1.6051 -2.5148
  280MOL0     H38604   5.165   3.348   8.927  1.3281 -0.4425  1.6997
  280MOL0     H38605   5.196   3.475   8.820  0.9468  0.5446  2.1397
  280MOL0     H38606   5.357   3.212   8.832 -0.7038 -1.2098 -3.3913
  280MOL0     H38607   5.226   3.230   8.723 -0.0569  2.3805 -1.5683
  280MOL0     H38608   5.387   3.444   8.646  3.6912  0.3199 -0.7318
  280MOL0     H38609   5.384   3.283   8.571  1.3467 -3.2876  1.9101
  280MOL0     H38610   5.563   3.213   8.701 -0.3958 -0.4782  0.8325
  280MOL0     H38611   5.554   3.345   8.819  0.9873 -0.3285 -0.4267
  280MOL0     H38612   5.611   3.359   8.516 -1.4687  4.7319 -1.2737
  280MOL0     H38613   5.608   3.498   8.618 -0.4164 -0.7694  0.2814
  280MOL0     H38614   5.811   3.278   8.653  0.2535  0.2145  1.0765
  280MOL0     H38615   5.797   3.433   8.753 -2.0520 -0.1087  0.0683
  280MOL0     H38616   5.964   3.497   8.622  0.4105  1.1918 -0.4983
  280MOL0     H38617   5.836   3.561   8.522  1.7240  0.0158 -0.4171
  280MOL0     H38618   5.850   3.339   8.401 -0.0191 -1.3856  2.4750
  280MOL0     H38619   6.000   3.308   8.479 -2.0146 -0.2792  0.5421
  280MOL0     H38620   5.151   3.470   9.115 -0.9342  0.8760  2.5186
  280MOL0     H38621   5.086   3.687   9.238 -1.2689  1.1125 -0.6913
  280MOL0     H38622   5.271   4.103   9.349 -0.1399  2.5137 -1.9029
  280MOL0     H38623   5.239   4.278   9.519 -0.8226  0.3194  0.5397
  280MOL0     H38624   4.182   5.570   9.275 -1.7026 -0.5204 -1.5043
  280MOL0     H38625   4.001   5.675   9.111 -1.6503  2.2386 -1.1911
  280MOL0     H38626   3.823   5.931   8.884 -1.9331  0.9386  0.4439
  280MOL0     H38627   3.599   5.982   8.766 -1.8261 -1.0362 -0.9721
  280MOL0     H38628   3.373   5.854   8.709  1.5391  0.6850  0.4320
  280MOL0     H38629   3.420   6.015   8.653  1.1155  0.6477  1.8161
  280MOL0     H38630   3.254   5.794   8.527 -3.5427 -0.2289  2.5749
  280MOL0     H38631   3.318   5.934   8.426  4.2565  1.0803  1.4069
  280MOL0     H38632   3.115   5.969   8.655 -0.5342  2.6519  0.8531
  280MOL0     H38633   3.205   6.100   8.573  0.0731  0.4945 -1.5158
  280MOL0     H38634   3.084   6.062   8.375  0.4906  2.1885  1.0818
  280MOL0     H38635   2.964   6.042   8.500  0.8672  1.8901 -1.0787
  280MOL0     H38636   2.949   5.653   8.350  0.1727 -0.7354  1.8107
  280MOL0     H38637   3.660   5.668   8.497  2.6333 -0.0174 -1.9187
  280MOL0     H38638   3.884   5.470   8.662 -0.8020 -0.3834  0.2402
  280MOL0     H38639   3.802   5.514   8.505  1.5792 -1.5726 -1.8132
  280MOL0     H38640   3.962   5.569   8.531  0.5831  1.6745  2.0545
  281MOL0     O38641   1.933   8.035   3.852  0.5291 -0.1518 -0.2646
  281MOL0     C38642   1.881   8.068   3.747 -0.3429 -0.4438  0.4637
  281MOL0     O38643   1.944   8.146   3.653 -0.0070  0.5963 -0.3560
  281MOL0     C38644   2.076   8.169   3.678  0.0109  0.4604  0.6148
  281MOL0     C38645   2.128   8.301   3.695  0.1622 -0.1618 -0.1567
  281MOL0     C38646   2.263   8.328   3.701  0.1839  0.0851  0.4710
  281MOL0     C38647   2.345   8.223   3.680  0.2352 -0.2887 -0.1231
  281MOL0     O38648   2.485   8.234   3.666  0.4860 -0.7364  0.4290
  281MOL0     C38649   2.552   8.322   3.759  0.3684 -0.4308 -0.1741
  281MOL0     C38650   2.580   8.459   3.695  0.0311  1.0623  0.9299
  281MOL0     C38651   2.634   8.559   3.793 -0.0896  0.2472 -1.5563
  281MOL0     C38652   2.771   8.524   3.843 -0.8864  0.3090  0.5024
  281MOL0     C38653   2.847   8.654   3.880  0.3326 -0.1883 -0.2045
  281MOL0     C38654   2.986   8.624   3.943 -0.2978  0.0289  0.1046
  281MOL0     C38655   3.046   8.740   4.028  0.3685 -0.0485  0.3014
  281MOL0     C38656   3.046   8.877   3.960 -0.9275  0.0558  0.3493
  281MOL0     N38657   3.151   8.958   4.016  0.1364 -0.2031  0.5355
  281MOL0     C38658   3.271   8.987   3.948 -0.2765 -0.1660  0.6202
  281MOL0     C38659   3.327   9.075   4.034  0.6346  0.6171  0.8442
  281MOL0     C38660   3.454   9.143   3.994  0.5701 -0.8090  0.0920
  281MOL0     C38661   3.546   9.170   4.108  0.4197  0.0181 -0.4016
  281MOL0     C38662   3.509   9.285   4.203  0.2156  0.1113 -0.0803
  281MOL0     C38663   3.633   9.335   4.281 -0.0846 -0.3099  0.1889
  281MOL0     O38664   3.717   9.438   4.218  0.1523 -0.5704 -0.5676
  281MOL0     C38665   3.849   9.430   4.215  0.3270 -1.1072 -0.1618
  281MOL0     C38666   3.922   9.548   4.222 -0.4273 -0.0277  0.6776
  281MOL0     C38667   4.056   9.552   4.230  0.3104 -0.9239  0.8211
  281MOL0     C38668   4.126   9.689   4.232 -0.2765 -0.1425 -0.5236
  281MOL0     C38669   4.127   9.434   4.250 -0.1268  0.1152  0.3669
  281MOL0     C38670   4.285   9.430   4.259  0.3657 -0.0858 -0.3088
  281MOL0     O38671   4.336   9.304   4.289  0.4792 -1.0144  0.4189
  281MOL0     C38672   4.467   9.289   4.320 -0.2877  0.1014  0.2351
  281MOL0     C38673   4.558   9.276   4.221  0.2875  0.2363  0.5681
  281MOL0     C38674   4.691   9.255   4.251  0.0490 -0.4350 -0.3911
  281MOL0     C38675   4.734   9.258   4.385  0.0175 -0.1853  0.7533
  281MOL0     O38676   4.868   9.230   4.410  0.5795  0.7038 -0.7261
  281MOL0     C38677   4.914   9.189   4.543  0.3585 -0.1232 -0.3341
  281MOL0     C38678   5.055   9.211   4.573 -0.5882  0.5033 -0.0338
  281MOL0     C38679   5.082   9.346   4.638 -0.0938  0.2771 -0.1328
  281MOL0     C38680   5.229   9.382   4.650 -0.2302 -1.4218  0.5428
  281MOL0     C38681   5.256   9.512   4.734  0.4844  0.3110 -0.3807
  281MOL0     C38682   5.219   9.641   4.659 -0.6873  0.3599  0.1888
  281MOL0     C38683   5.266   9.762   4.752  0.3125  0.8630  0.4788
  281MOL0     C38684   5.229   9.898   4.692  0.6636  0.1360 -0.6744
  281MOL0    Cl38685   5.044   9.905   4.702  0.1083 -0.1922  0.1386
  281MOL0     C38686   4.638   9.295   4.484 -0.5697  0.7604 -0.0730
  281MOL0     C38687   4.508   9.312   4.444 -0.2561  0.4656 -0.9012
  281MOL0     O38688   4.359   9.530   4.254 -0.2358  0.6092 -1.2846
  281MOL0     C38689   4.063   9.312   4.234 -0.4125 -0.4018 -0.5846
  281MOL0     C38690   3.921   9.314   4.225 -0.1871 -0.0607 -0.0944
  281MOL0     N38691   3.261   9.084   4.154 -0.5592 -0.4035  0.4467
  281MOL0     N38692   3.150   9.017   4.141 -0.1328 -0.1652 -0.0506
  281MOL0     C38693   2.300   8.094   3.661  0.4831  0.1545  0.4321
  281MOL0     C38694   2.165   8.064   3.658  0.6838 -0.3714  0.2738
  281MOL0     C38695   1.737   8.019   3.720  0.2842  0.4775 -0.5256
  281MOL0     C38696   1.674   7.940   3.809  0.6510 -0.6058 -0.9881
  281MOL0     C38697   1.557   7.874   3.784 -0.3881 -0.4894 -0.0527
  281MOL0     C38698   1.479   7.896   3.665 -0.0901 -0.2534 -0.5401
  281MOL0     O38699   1.355   7.839   3.660  0.5885 -0.8894  0.4075
  281MOL0     C38700   1.291   7.849   3.537  0.1515 -0.4996 -0.0417
  281MOL0     C38701   1.181   7.747   3.527  0.0343  0.4164  0.4732
  281MOL0     C38702   1.058   7.781   3.617  0.3951 -1.6569 -0.9559
  281MOL0     C38703   0.962   7.667   3.628  0.2657 -0.0833 -0.6153
  281MOL0     C38704   0.898   7.625   3.505 -0.1189  0.4704  1.2900
  281MOL0     C38705   0.838   7.599   3.401  0.5959  0.5978  0.8759
  281MOL0     C38706   1.544   7.981   3.573 -0.2454  0.1683 -0.4182
  281MOL0     C38707   1.675   8.037   3.590 -0.3572  0.2515 -0.6542
  281MOL0     C38708   1.737   8.106   3.468 -0.2625 -0.1351 -0.3206
  281MOL0     H38709   2.053   8.375   3.719 -1.1001 -0.8616 -1.7397
  281MOL0     H38710   2.282   8.433   3.716 -1.9705  0.7990 -1.1944
  281MOL0     H38711   2.647   8.283   3.796  1.7218  3.5656  1.0701
  281MOL0     H38712   2.491   8.340   3.848 -1.4645 -0.4496 -1.3733
  281MOL0     H38713   2.641   8.437   3.607  0.1486  0.5892  1.1248
  281MOL0     H38714   2.490   8.494   3.644  0.4062  0.8586  0.1094
  281MOL0     H38715   2.634   8.659   3.748 -0.2002  0.5513 -0.8852
  281MOL0     H38716   2.558   8.569   3.871  0.5970 -0.6301 -0.7526
  281MOL0     H38717   2.749   8.461   3.929  0.9597  0.8023  1.3791
  281MOL0     H38718   2.823   8.464   3.768  1.3992  0.0600  2.1852
  281MOL0     H38719   2.793   8.702   3.962  0.4205 -0.8215  0.2384
  281MOL0     H38720   2.849   8.726   3.797 -0.4589  1.2591  0.9911
  281MOL0     H38721   2.979   8.539   4.011 -0.2233 -2.2436 -2.5516
  281MOL0     H38722   3.058   8.610   3.861  1.5049  1.6489  1.3125
  281MOL0     H38723   3.149   8.708   4.048  0.5903 -0.3454 -1.1535
  281MOL0     H38724   2.994   8.747   4.123 -3.2013 -0.1159 -1.4682
  281MOL0     H38725   3.059   8.866   3.852  1.6999 -0.9534  0.6880
  281MOL0     H38726   2.953   8.930   3.980  0.0167  1.3952  1.3968
  281MOL0     H38727   3.298   8.944   3.852  0.2504  1.4820 -0.0097
  281MOL0     H38728   3.436   9.242   3.951  1.9116 -0.4447  0.3334
  281MOL0     H38729   3.507   9.085   3.917 -0.1144 -0.1979 -0.8586
  281MOL0     H38730   3.563   9.073   4.156 -3.3246 -0.2139  0.8329
  281MOL0     H38731   3.644   9.199   4.070  1.2923 -0.1744  1.5703
  281MOL0     H38732   3.470   9.369   4.143  1.7576  0.7591 -0.2351
  281MOL0     H38733   3.428   9.250   4.267  1.3207 -1.2039  0.6454
  281MOL0     H38734   3.601   9.387   4.372  0.7853 -1.0052  0.9157
  281MOL0     H38735   3.686   9.255   4.334 -0.6678 -0.9117 -0.1203
  281MOL0     H38736   3.878   9.647   4.212  1.3469  0.7341 -0.1587
  281MOL0     H38737   4.204   9.697   4.155  1.0318  2.9876  0.9639
  281MOL0     H38738   4.163   9.715   4.331  2.2180 -0.3291 -1.3471
  281MOL0     H38739   4.054   9.764   4.198  1.4908  1.0757 -1.7784
  281MOL0     H38740   4.528   9.274   4.117  0.4903  1.9191  0.4519
  281MOL0     H38741   4.771   9.227   4.182  1.0440 -0.6583  0.8213
  281MOL0     H38742   4.858   9.239   4.623  1.2847  1.8180 -0.8390
  281MOL0     H38743   4.891   9.082   4.547  0.3604 -0.0942  1.8776
  281MOL0     H38744   5.084   9.139   4.649 -0.2142  0.5420 -0.1381
  281MOL0     H38745   5.120   9.190   4.488  0.5228 -2.5844  1.4431
  281MOL0     H38746   5.035   9.347   4.736  2.2213  1.6539  1.0428
  281MOL0     H38747   5.035   9.429   4.584  2.0333  1.8531  0.3330
  281MOL0     H38748   5.272   9.401   4.552 -1.0097 -0.1077  0.4233
  281MOL0     H38749   5.283   9.299   4.697  2.6539 -0.1007 -0.2395
  281MOL0     H38750   5.194   9.509   4.824  0.9192  0.8925 -0.0522
  281MOL0     H38751   5.356   9.507   4.778  0.6400  1.8388 -0.5243
  281MOL0     H38752   5.112   9.657   4.645 -0.7718  0.3655  0.8036
  281MOL0     H38753   5.268   9.640   4.562  0.5698 -2.6787  0.7262
  281MOL0     H38754   5.374   9.765   4.767  0.1494 -1.4733  2.8267
  281MOL0     H38755   5.220   9.744   4.850  2.9384 -3.2693  1.2398
  281MOL0     H38756   5.258   9.904   4.587  2.2070  2.2695 -0.1910
  281MOL0     H38757   5.289   9.975   4.741  4.7057 -2.6186 -0.7711
  281MOL0     H38758   4.664   9.295   4.589  1.0928  0.5932 -0.4624
  281MOL0     H38759   4.437   9.336   4.523  1.4094  1.8335  0.2615
  281MOL0     H38760   4.116   9.218   4.237  2.9846  1.3858  1.7379
  281MOL0     H38761   3.869   9.219   4.221  0.2480 -0.3363  0.5720
  281MOL0     H38762   2.362   8.011   3.627 -0.5479 -0.5034  0.1027
  281MOL0     H38763   2.137   7.961   3.637  1.8427 -1.0605  1.9105
  281MOL0     H38764   1.716   7.932   3.910 -0.5893  1.3738 -0.2652
  281MOL0     H38765   1.517   7.809   3.861  0.9088  0.1134  1.1798
  281MOL0     H38766   1.251   7.951   3.531 -1.4584 -1.0523  0.5839
  281MOL0     H38767   1.361   7.833   3.455  1.1608 -1.5416  0.9918
  281MOL0     H38768   1.226   7.652   3.557  3.0170  1.7728  0.6152
  281MOL0     H38769   1.145   7.744   3.423  0.8544 -0.7410  0.1959
  281MOL0     H38770   1.093   7.811   3.716 -0.0826 -0.1130 -1.2334
  281MOL0     H38771   1.007   7.866   3.572 -0.1549 -1.5620 -0.1743
  281MOL0     H38772   0.886   7.693   3.702 -0.1286 -2.9314  0.0982
  281MOL0     H38773   1.025   7.583   3.657  2.0096  0.9940 -1.1038
  281MOL0     H38774   0.767   7.569   3.327  2.3559 -1.6788 -0.0039
  281MOL0     H38775   1.487   7.994   3.482 -0.9142  0.9320  0.1017
  281MOL0     H38776   1.688   8.066   3.378 -0.1613 -3.5359  0.9834
  281MOL0     H38777   1.723   8.214   3.477 -1.1979 -0.4114  2.5975
  281MOL0     H38778   1.842   8.078   3.460 -0.6816 -1.7444 -0.6149
  282MOL0     O38779   9.609   0.735   0.584  0.1395 -0.5774  0.4167
  282MOL0     C38780   9.631   0.834   0.510 -0.4718  0.5344  0.3144
  282MOL0     O38781   9.673   0.953   0.558  0.0943 -0.3881  0.1771
  282MOL0     C38782   9.755   0.955   0.667  0.1971 -1.2640  0.1642
  282MOL0     C38783   9.855   0.852   0.685  0.0415 -1.2396  0.3671
  282MOL0     C38784   9.954   0.854   0.782 -0.2318  0.4290  0.4394
  282MOL0     C38785   9.957   0.964   0.867  0.0347  0.6839 -0.0977
  282MOL0     O38786  10.045   0.977   0.977 -0.8639  0.2684  0.2857
  282MOL0     C38787  10.061   0.869   1.065 -0.4450  0.0876  0.1414
  282MOL0     C38788  10.164   0.888   1.173 -0.0831  0.1519 -0.4161
  282MOL0     C38789  10.293   0.931   1.103 -0.9014 -0.8214 -0.1288
  282MOL0     C38790  10.409   0.932   1.210 -0.3680 -0.3045 -0.8042
  282MOL0     C38791  10.543   0.982   1.157 -0.3182 -0.1000 -0.2061
  282MOL0     C38792  10.641   0.937   1.262  0.1876 -0.3754  0.7310
  282MOL0     C38793  10.780   0.987   1.221  0.6766  0.0148 -0.0967
  282MOL0     C38794  10.901   0.940   1.307 -0.6325 -0.5158 -0.3752
  282MOL0     N38795  11.034   1.000   1.281 -0.0290  0.1382  0.0043
  282MOL0     C38796  11.105   0.988   1.168  0.7454 -0.2814 -0.6034
  282MOL0     C38797  11.225   1.044   1.199 -1.1852  0.1004  0.5432
  282MOL0     C38798  11.350   1.082   1.119 -1.3988 -0.8070  0.4048
  282MOL0     C38799  11.480   1.082   1.209 -0.3674 -1.2639  0.8429
  282MOL0     C38800  11.603   1.068   1.116 -0.3536  0.4675 -0.7004
  282MOL0     C38801  11.733   1.052   1.193 -0.7987 -0.5281 -0.9972
  282MOL0     O38802  11.829   0.993   1.104  0.1445 -0.3395  0.1148
  282MOL0     C38803  11.964   0.998   1.135  0.4714  1.0084 -0.3098
  282MOL0     C38804  12.018   1.043   1.248  0.3390 -0.3275 -0.1987
  282MOL0     C38805  12.153   1.065   1.275 -0.4349  0.4944  0.8785
  282MOL0     C38806  12.187   1.124   1.417  0.0896  0.7012 -0.2892
  282MOL0     C38807  12.251   1.027   1.169  0.4732  0.5618 -0.1936
  282MOL0     C38808  12.397   1.039   1.166  0.7177  0.3919 -0.1569
  282MOL0     O38809  12.458   1.027   1.047 -1.3908 -0.2008  0.5595
  282MOL0     C38810  12.588   1.068   1.041  0.0386 -0.3133 -0.4025
  282MOL0     C38811  12.636   1.184   1.102 -0.1543 -0.5422  0.3229
  282MOL0     C38812  12.773   1.221   1.082 -0.6395 -0.3092 -0.0304
  282MOL0     C38813  12.855   1.134   1.009 -0.8261 -0.0225 -0.8477
  282MOL0     O38814  12.982   1.189   1.004  0.1097 -0.2708 -0.5125
  282MOL0     C38815  13.075   1.105   0.938 -0.8588  0.6561  0.2225
  282MOL0     C38816  13.219   1.154   0.934 -0.3046 -0.1933 -0.5561
  282MOL0     C38817  13.228   1.269   0.832 -0.2192  0.5310 -0.0124
  282MOL0     C38818  13.368   1.327   0.834  0.9661  0.1648 -0.6122
  282MOL0     C38819  13.465   1.255   0.740 -0.1859 -0.1156  0.0014
  282MOL0     C38820  13.585   1.351   0.705  0.1521 -0.3085  0.4997
  282MOL0     C38821  13.549   1.462   0.598  0.1971 -0.5513  0.8447
  282MOL0     C38822  13.685   1.504   0.537  0.0601  0.3881 -0.3168
  282MOL0    Cl38823  13.809   1.550   0.658  0.1389  0.3067  0.2376
  282MOL0     C38824  12.806   1.017   0.946  0.4217  0.1672 -0.0442
  282MOL0     C38825  12.667   0.981   0.969  0.0377 -0.3289 -0.3744
  282MOL0     O38826  12.454   1.036   1.276 -0.0597  0.2086 -0.2365
  282MOL0     C38827  12.195   0.962   1.061  0.3446 -0.4336  0.2209
  282MOL0     C38828  12.056   0.957   1.047 -0.5425  0.6012  1.2258
  282MOL0     N38829  11.225   1.090   1.334 -0.6974 -0.0931  0.1698
  282MOL0     N38830  11.106   1.072   1.372 -0.6733  0.1067 -0.0799
  282MOL0     C38831   9.866   1.068   0.843  0.7048  0.3125 -0.1059
  282MOL0     C38832   9.763   1.066   0.750  0.0500  0.0246 -0.3592
  282MOL0     C38833   9.604   0.822   0.367  0.0594 -0.8363 -0.8892
  282MOL0     C38834   9.708   0.773   0.294 -0.1275 -0.5708  0.2635
  282MOL0     C38835   9.700   0.748   0.157  0.3708 -0.2630  0.6236
  282MOL0     C38836   9.580   0.765   0.093 -0.2039  0.2901  0.2467
  282MOL0     O38837   9.576   0.765  -0.045 -0.1369  0.1330 -0.0089
  282MOL0     C38838   9.613   0.894  -0.095  0.0122 -0.3549  0.2472
  282MOL0     C38839   9.693   0.880  -0.224 -0.2070 -0.4566  0.2524
  282MOL0     C38840   9.837   0.832  -0.204 -0.0511  0.0523 -0.1471
  282MOL0     C38841   9.890   0.782  -0.337 -0.3026  1.1146 -0.6151
  282MOL0     C38842   9.903   0.879  -0.447 -0.0519 -0.7001 -0.8327
  282MOL0     C38843   9.926   0.966  -0.524 -0.1280 -0.8426  0.2738
  282MOL0     C38844   9.474   0.815   0.167  0.3391 -0.8933  0.7699
  282MOL0     C38845   9.480   0.844   0.305  1.0201 -0.3104 -0.0821
  282MOL0     C38846   9.351   0.887   0.373 -0.3162 -0.8061  0.3583
  282MOL0     H38847   9.855   0.766   0.619  0.1147 -1.0622  0.1350
  282MOL0     H38848  10.043   0.793   0.771 -0.6124 -0.0846  0.1923
  282MOL0     H38849  10.086   0.784   1.001  1.0831 -0.6499  1.6499
  282MOL0     H38850   9.971   0.849   1.122 -2.4794  2.8574 -1.8308
  282MOL0     H38851  10.128   0.955   1.251 -0.4493 -0.2400 -0.2436
  282MOL0     H38852  10.181   0.797   1.231 -1.0039  0.8405  0.9794
  282MOL0     H38853  10.314   0.865   1.018  1.9588 -0.1116 -0.0926
  282MOL0     H38854  10.272   1.031   1.063 -3.2900 -1.8676 -1.7087
  282MOL0     H38855  10.375   0.989   1.297  0.4892 -1.9725  0.6946
  282MOL0     H38856  10.419   0.830   1.249  0.7160  0.3592  0.7318
  282MOL0     H38857  10.534   1.091   1.148  1.4148  0.3491  2.3785
  282MOL0     H38858  10.566   0.938   1.060 -1.6370  1.0763 -1.1007
  282MOL0     H38859  10.609   0.985   1.355 -0.8428  0.5411 -0.0668
  282MOL0     H38860  10.645   0.828   1.272 -1.5394 -0.6634 -1.0349
  282MOL0     H38861  10.769   1.096   1.213 -0.2167  0.2160  2.7230
  282MOL0     H38862  10.802   0.947   1.122 -0.0312 -1.3918  0.2911
  282MOL0     H38863  10.879   0.955   1.413  4.0337 -1.4588  0.9722
  282MOL0     H38864  10.912   0.832   1.291 -0.2217 -0.5889  0.3403
  282MOL0     H38865  11.062   0.954   1.075 -2.7820  3.5157 -0.6136
  282MOL0     H38866  11.342   1.191   1.104 -1.1124 -0.8652 -0.2145
  282MOL0     H38867  11.363   1.026   1.026  0.1418 -3.0081  1.8424
  282MOL0     H38868  11.494   1.182   1.250 -0.1558 -0.6610 -0.6407
  282MOL0     H38869  11.469   1.005   1.286 -1.5509 -1.0446  0.8991
  282MOL0     H38870  11.581   0.980   1.056 -0.9401 -0.4697  0.8110
  282MOL0     H38871  11.611   1.153   1.048  1.1064  0.9866  0.0685
  282MOL0     H38872  11.767   1.153   1.218  1.4727 -1.7170  1.1512
  282MOL0     H38873  11.727   0.983   1.278 -2.5666  1.8724  0.9946
  282MOL0     H38874  11.950   1.070   1.328  1.0555  1.3188 -0.1061
  282MOL0     H38875  12.284   1.085   1.448  0.9134  0.3990 -2.9636
  282MOL0     H38876  12.111   1.092   1.488  0.5470 -1.7502 -0.8170
  282MOL0     H38877  12.199   1.232   1.408  0.9404  0.4430 -3.2679
  282MOL0     H38878  12.582   1.253   1.166  1.3607 -0.1711  1.2504
  282MOL0     H38879  12.808   1.317   1.118  4.0991 -0.2881 -3.7065
  282MOL0     H38880  13.067   1.009   0.990 -1.1264  0.2851 -0.4918
  282MOL0     H38881  13.047   1.097   0.832  1.8266  0.8639 -0.5865
  282MOL0     H38882  13.239   1.178   1.039 -0.9411 -3.5215  0.4655
  282MOL0     H38883  13.293   1.076   0.916  1.8236  0.6648  3.3029
  282MOL0     H38884  13.164   1.354   0.857 -1.9700 -0.4305 -1.0467
  282MOL0     H38885  13.202   1.227   0.735  2.5039 -0.1281 -0.5453
  282MOL0     H38886  13.408   1.349   0.934 -2.7646 -1.8328  1.5557
  282MOL0     H38887  13.344   1.420   0.782 -0.1880  1.3913  1.9062
  282MOL0     H38888  13.503   1.160   0.779 -1.2441 -0.2687  0.6864
  282MOL0     H38889  13.411   1.230   0.648 -2.6073 -0.3170  1.4223
  282MOL0     H38890  13.668   1.290   0.666 -1.2498 -1.0886 -1.4713
  282MOL0     H38891  13.611   1.411   0.792  0.4342 -0.2653  0.3873
  282MOL0     H38892  13.498   1.551   0.636  0.5044 -0.3929  0.8906
  282MOL0     H38893  13.487   1.423   0.517 -2.4974  0.4178  2.3234
  282MOL0     H38894  13.668   1.594   0.478 -2.4390  0.5543  0.5309
  282MOL0     H38895  13.729   1.419   0.484 -2.2836 -2.1684  1.5506
  282MOL0     H38896  12.876   0.954   0.891  1.9569  1.3557  0.4838
  282MOL0     H38897  12.622   0.888   0.937 -1.2057  0.0776  0.1306
  282MOL0     H38898  12.249   0.938   0.970  2.0491  1.2650  0.7153
  282MOL0     H38899  12.013   0.934   0.950 -0.2376 -2.5134  1.7110
  282MOL0     H38900   9.863   1.159   0.903 -0.0514  0.1306  0.1452
  282MOL0     H38901   9.687   1.141   0.734 -1.4850 -1.1868  0.9271
  282MOL0     H38902   9.801   0.743   0.340  0.1188  0.8766  0.7483
  282MOL0     H38903   9.775   0.695   0.099 -2.4051 -4.2111  0.1989
  282MOL0     H38904   9.531   0.959  -0.127  1.1086  0.2254 -1.5613
  282MOL0     H38905   9.671   0.955  -0.025  1.3479 -1.0926 -0.1806
  282MOL0     H38906   9.704   0.974  -0.278 -0.1564 -1.0370 -0.7732
  282MOL0     H38907   9.639   0.815  -0.294 -0.9916 -0.2025  0.6084
  282MOL0     H38908   9.904   0.910  -0.165 -0.4839  1.1524 -1.5355
  282MOL0     H38909   9.844   0.754  -0.128  0.2942  1.1229  0.9612
  282MOL0     H38910   9.824   0.707  -0.382  1.6825 -0.2103 -1.4710
  282MOL0     H38911   9.982   0.724  -0.322 -1.9222 -2.5720 -3.2096
  282MOL0     H38912   9.956   1.050  -0.582  0.2286 -1.4682 -0.4677
  282MOL0     H38913   9.382   0.846   0.120 -0.0445  0.1354  2.1111
  282MOL0     H38914   9.375   0.980   0.426  1.0788 -0.8674 -0.1075
  282MOL0     H38915   9.280   0.916   0.294  2.4529  1.7112 -1.4280
  282MOL0     H38916   9.317   0.801   0.430 -1.4282  0.1862  1.2476
  283MOL0     O38917   9.537   7.835   0.100 -0.0183  0.5302 -0.3185
  283MOL0     C38918   9.462   7.750   0.147  0.5547  0.1770 -0.1550
  283MOL0     O38919   9.498   7.644   0.228 -0.2180  1.1289 -0.0279
  283MOL0     C38920   9.620   7.626   0.282  0.2759 -0.5063 -0.5551
  283MOL0     C38921   9.704   7.535   0.220 -0.5534 -0.5913  0.2755
  283MOL0     C38922   9.832   7.518   0.274 -0.4114  0.5587 -0.2073
  283MOL0     C38923   9.873   7.595   0.386  0.8152  0.0945  0.4688
  283MOL0     O38924   9.996   7.573   0.440 -0.1043  0.2198 -0.2686
  283MOL0     C38925  10.005   7.486   0.550 -0.6031  0.2572 -0.4743
  283MOL0     C38926  10.154   7.461   0.603  0.8498 -0.5614  0.3700
  283MOL0     C38927  10.223   7.597   0.634 -0.1997 -0.0710 -0.2618
  283MOL0     C38928  10.349   7.566   0.696 -1.2841 -0.3962 -0.4464
  283MOL0     C38929  10.410   7.693   0.750  0.1241 -0.3696 -0.5581
  283MOL0     C38930  10.508   7.660   0.869 -0.2306  0.5270  0.9330
  283MOL0     C38931  10.546   7.784   0.949  0.5814  0.3553  0.2350
  283MOL0     C38932  10.430   7.858   1.013 -0.2566 -0.4682  0.2203
  283MOL0     N38933  10.477   7.965   1.097  0.2171 -0.1509 -0.1760
  283MOL0     C38934  10.583   8.048   1.059  0.1367 -0.5718  0.0157
  283MOL0     C38935  10.609   8.106   1.175 -0.2214  0.0122 -0.0583
  283MOL0     C38936  10.717   8.208   1.196 -0.4769  0.2916 -0.5316
  283MOL0     C38937  10.854   8.143   1.234 -1.1124 -0.7829  1.2713
  283MOL0     C38938  10.895   8.044   1.120  0.2520 -0.1708  0.6767
  283MOL0     C38939  11.030   7.987   1.133 -0.8760 -0.0062 -0.6048
  283MOL0     O38940  11.117   8.090   1.187 -0.9462  0.1603  0.3195
  283MOL0     C38941  11.250   8.067   1.185 -0.3217 -0.1163  0.4638
  283MOL0     C38942  11.338   8.167   1.233  0.1580 -0.1340 -0.1217
  283MOL0     C38943  11.480   8.150   1.245  0.1720 -0.2196  0.2255
  283MOL0     C38944  11.551   8.265   1.306 -0.2416 -0.2398 -0.8116
  283MOL0     C38945  11.537   8.025   1.207  0.1271 -0.3586  0.6179
  283MOL0     C38946  11.673   7.995   1.224 -0.5486  0.2078  0.1307
  283MOL0     O38947  11.707   7.888   1.306 -0.0835  0.2456 -0.0815
  283MOL0     C38948  11.836   7.846   1.311 -0.0671 -0.4309  0.2140
  283MOL0     C38949  11.867   7.705   1.282  0.0334 -0.3672  0.1317
  283MOL0     C38950  11.999   7.665   1.305 -0.0859 -0.3995  0.5369
  283MOL0     C38951  12.099   7.746   1.345 -0.8734 -0.7543  0.6668
  283MOL0     O38952  12.231   7.714   1.359  0.1017 -0.1894 -0.1109
  283MOL0     C38953  12.271   7.576   1.365 -0.0374 -0.0904  0.6762
  283MOL0     C38954  12.424   7.585   1.371  0.2430 -0.3711  0.2106
  283MOL0     C38955  12.470   7.443   1.419 -0.1489  0.4515 -0.1472
  283MOL0     C38956  12.616   7.414   1.405  0.1112 -0.0953 -0.0567
  283MOL0     C38957  12.660   7.288   1.486 -0.1767 -0.5330 -0.1773
  283MOL0     C38958  12.804   7.250   1.441 -0.4780 -0.1162  0.1370
  283MOL0     C38959  12.859   7.134   1.531  0.6622 -0.1755  0.3629
  283MOL0     C38960  12.994   7.086   1.487 -0.3211  0.3658  0.4243
  283MOL0    Cl38961  13.066   7.026   1.639  0.1185  0.1997  0.4468
  283MOL0     C38962  12.075   7.879   1.363 -0.0659 -0.6543 -0.3275
  283MOL0     C38963  11.940   7.924   1.346  0.0822 -0.2744 -0.0724
  283MOL0     O38964  11.749   8.074   1.173  0.0912 -0.1528  0.2875
  283MOL0     C38965  11.448   7.924   1.170  0.0926  0.1688 -0.0990
  283MOL0     C38966  11.313   7.942   1.163  0.2053 -0.2235 -0.5769
  283MOL0     N38967  10.522   8.063   1.281  0.1261  0.1521 -0.6094
  283MOL0     N38968  10.450   7.979   1.228  0.3745  0.7822  0.0815
  283MOL0     C38969   9.789   7.691   0.440  0.3926  0.4676 -0.7752
  283MOL0     C38970   9.666   7.708   0.386  0.6346 -0.2986 -0.4029
  283MOL0     C38971   9.321   7.751   0.098  0.5546 -0.1941  0.4410
  283MOL0     C38972   9.291   7.809  -0.028 -0.0315 -0.1020 -0.2518
  283MOL0     C38973   9.158   7.811  -0.074  0.2881 -0.3620  0.6531
  283MOL0     C38974   9.060   7.762  -0.000 -0.6942 -0.0581  0.2887
  283MOL0     O38975   8.937   7.776  -0.057 -0.3052 -0.6401  0.0437
  283MOL0     C38976   8.851   7.659  -0.060 -0.3464 -0.4865 -0.7245
  283MOL0     C38977   8.748   7.674  -0.168  0.3081  0.0309  0.4796
  283MOL0     C38978   8.656   7.548  -0.194 -0.3903 -0.2844 -0.5699
  283MOL0     C38979   8.562   7.551  -0.309  0.2475  0.2333 -0.3992
  283MOL0     C38980   8.497   7.422  -0.314  0.0656  0.0442  0.1309
  283MOL0     C38981   8.440   7.313  -0.308  0.0796  0.2582  0.1656
  283MOL0     C38982   9.086   7.701   0.126  0.7747 -0.1110  0.0647
  283MOL0     C38983   9.212   7.702   0.176 -0.0187 -0.1614  1.0613
  283MOL0     C38984   9.222   7.647   0.306 -0.4240  0.1929 -0.4554
  283MOL0     H38985   9.683   7.475   0.132  1.5987  0.0718 -0.7664
  283MOL0     H38986   9.900   7.440   0.241 -0.1954  0.7173 -0.1408
  283MOL0     H38987   9.957   7.391   0.525 -3.0535  1.6002 -1.1860
  283MOL0     H38988   9.946   7.530   0.632  0.7698 -0.4678  0.9628
  283MOL0     H38989  10.143   7.390   0.686 -1.3616 -2.5058 -1.4504
  283MOL0     H38990  10.220   7.418   0.527  0.7682  0.5649 -0.3506
  283MOL0     H38991  10.244   7.649   0.540 -1.0975  0.5610 -0.1328
  283MOL0     H38992  10.150   7.656   0.691  0.0545  2.1550 -2.0584
  283MOL0     H38993  10.338   7.501   0.783  1.7306  0.6824  0.8624
  283MOL0     H38994  10.425   7.528   0.627 -1.2802  1.0304 -1.2677
  283MOL0     H38995  10.331   7.766   0.774  1.3322  0.3716  1.4269
  283MOL0     H38996  10.474   7.743   0.677 -0.6720  1.1183 -0.2948
  283MOL0     H38997  10.465   7.589   0.940 -1.2748 -1.1999 -1.3204
  283MOL0     H38998  10.601   7.625   0.822  1.4808  2.7498  2.4283
  283MOL0     H38999  10.606   7.853   0.889 -0.4800  1.4507  0.3978
  283MOL0     H39000  10.608   7.745   1.031 -1.1536  0.9894  1.9246
  283MOL0     H39001  10.388   7.908   0.924  1.6737 -1.0246 -1.0536
  283MOL0     H39002  10.350   7.805   1.065 -0.6951 -0.5520 -0.5234
  283MOL0     H39003  10.641   8.052   0.967  1.9054 -1.1243  1.0617
  283MOL0     H39004  10.687   8.283   1.269 -1.0806  1.3516 -1.8197
  283MOL0     H39005  10.728   8.256   1.098 -0.1711  0.4368 -0.4270
  283MOL0     H39006  10.930   8.217   1.262 -1.5262  1.5220 -2.8319
  283MOL0     H39007  10.841   8.081   1.323 -0.6350  0.1382  2.0136
  283MOL0     H39008  10.821   7.965   1.119  2.3473 -2.2427  0.4161
  283MOL0     H39009  10.890   8.105   1.029 -0.3566  1.0109  1.4684
  283MOL0     H39010  11.024   7.898   1.197 -0.4625 -1.3423 -2.3529
  283MOL0     H39011  11.068   7.947   1.039 -1.2054 -0.1308 -0.6880
  283MOL0     H39012  11.288   8.258   1.264 -1.4078 -0.6170 -1.0959
  283MOL0     H39013  11.485   8.309   1.381 -1.1525  1.2668 -2.4253
  283MOL0     H39014  11.573   8.342   1.231 -1.7824 -1.2330 -2.3390
  283MOL0     H39015  11.647   8.229   1.345 -1.5993 -5.1865 -1.4029
  283MOL0     H39016  11.795   7.628   1.258 -0.2875 -0.5098  1.5048
  283MOL0     H39017  12.024   7.566   1.268  0.1811 -0.4137  0.7493
  283MOL0     H39018  12.233   7.524   1.454 -2.8359  0.8882  0.1635
  283MOL0     H39019  12.244   7.516   1.278  1.5257  1.5872 -1.0304
  283MOL0     H39020  12.471   7.607   1.275  0.8490 -0.0072  0.5820
  283MOL0     H39021  12.454   7.656   1.449  0.7161 -1.4813  1.0744
  283MOL0     H39022  12.425   7.370   1.350 -1.0504  0.4289  0.4402
  283MOL0     H39023  12.421   7.411   1.511 -0.1958 -0.8355 -0.6010
  283MOL0     H39024  12.676   7.502   1.429 -3.4699  2.1714  1.3718
  283MOL0     H39025  12.645   7.386   1.303  0.7719  0.1309  0.0660
  283MOL0     H39026  12.660   7.301   1.594  3.3145  0.2847 -0.1736
  283MOL0     H39027  12.594   7.205   1.458  1.8616 -2.8055  1.3846
  283MOL0     H39028  12.878   7.328   1.459 -0.2625 -0.5370  1.1332
  283MOL0     H39029  12.802   7.223   1.335  2.6968  1.3287 -0.4004
  283MOL0     H39030  12.794   7.047   1.524  0.1212  0.2347  0.2772
  283MOL0     H39031  12.859   7.175   1.632 -1.2845 -0.5493  0.5523
  283MOL0     H39032  13.054   7.167   1.443 -1.8073  0.3834 -1.6902
  283MOL0     H39033  12.997   7.004   1.415  2.8278 -0.4615  1.3450
  283MOL0     H39034  12.153   7.946   1.400 -0.6815 -0.8026  1.3448
  283MOL0     H39035  11.929   8.029   1.372  0.3053 -0.4870  0.9402
  283MOL0     H39036  11.489   7.826   1.149  1.6672  1.0158 -1.2216
  283MOL0     H39037  11.250   7.866   1.119 -1.2180 -0.3952  1.6173
  283MOL0     H39038   9.817   7.745   0.530  1.7194 -1.5675  0.1114
  283MOL0     H39039   9.596   7.778   0.431  2.2432  0.7871  0.4883
  283MOL0     H39040   9.360   7.859  -0.096 -0.2732 -0.7609 -1.0017
  283MOL0     H39041   9.133   7.843  -0.174 -0.7882 -0.3555  0.9090
  283MOL0     H39042   8.915   7.570  -0.062  0.1134 -0.4340  3.2943
  283MOL0     H39043   8.799   7.664   0.036  0.1064  4.2740 -0.4964
  283MOL0     H39044   8.806   7.692  -0.259 -0.9897 -2.0425 -0.8487
  283MOL0     H39045   8.679   7.756  -0.149 -0.9700 -0.6351 -1.1223
  283MOL0     H39046   8.719   7.462  -0.218 -0.2088  0.4266 -2.8463
  283MOL0     H39047   8.604   7.539  -0.098 -0.0597  4.0804  0.2363
  283MOL0     H39048   8.602   7.572  -0.409 -0.4829  0.9855 -0.5353
  283MOL0     H39049   8.481   7.623  -0.300  0.1122 -0.1666  2.7453
  283MOL0     H39050   8.388   7.220  -0.308  1.2553 -0.4211 -0.7063
  283MOL0     H39051   8.999   7.658   0.174  0.1358 -0.8993 -1.6865
  283MOL0     H39052   9.289   7.712   0.363  1.9787 -1.6805 -0.9584
  283MOL0     H39053   9.131   7.641   0.366  0.8221 -2.2976  1.3739
  283MOL0     H39054   9.261   7.545   0.303  2.1807  1.1034  0.0830
  284MOL0     O39055   6.484   9.880   1.468  0.3159  0.2453  0.1515
  284MOL0     C39056   6.507   9.987   1.524 -0.1805 -0.3474  0.2355
  284MOL0     O39057   6.630  10.029   1.558  0.3133 -0.1053 -0.0300
  284MOL0     C39058   6.744   9.952   1.559  0.0182 -0.2048  0.9594
  284MOL0     C39059   6.845   9.974   1.460  0.3474 -0.5032 -0.2286
  284MOL0     C39060   6.959   9.898   1.476  0.1920 -0.1188  0.3833
  284MOL0     C39061   6.976   9.799   1.571  0.0357  0.3037  0.3409
  284MOL0     O39062   7.092   9.733   1.570  0.0485 -0.2224  0.6018
  284MOL0     C39063   7.088   9.606   1.639 -0.0940  0.1011  0.8894
  284MOL0     C39064   7.210   9.529   1.596 -0.6314 -0.5250  0.0843
  284MOL0     C39065   7.219   9.528   1.446  0.2651 -0.0520  0.1649
  284MOL0     C39066   7.325   9.435   1.382 -0.2483 -0.6015 -0.3562
  284MOL0     C39067   7.328   9.441   1.229  0.0132  0.7902 -0.1277
  284MOL0     C39068   7.418   9.331   1.174 -0.3345  0.3177 -0.5300
  284MOL0     C39069   7.551   9.384   1.114  0.6869 -0.9205 -0.2329
  284MOL0     C39070   7.611   9.297   0.998 -0.8797  0.0187  0.5366
  284MOL0     N39071   7.672   9.173   1.046  0.4923 -0.8788 -0.1705
  284MOL0     C39072   7.799   9.173   1.097  0.5394 -0.1043  1.1226
  284MOL0     C39073   7.812   9.041   1.125 -0.5768  0.3387 -0.5759
  284MOL0     C39074   7.940   8.984   1.180 -0.4452 -0.2680  0.2893
  284MOL0     C39075   7.944   8.949   1.336 -0.5181  0.7397  0.2393
  284MOL0     C39076   8.071   8.901   1.405  0.3229  0.1388 -0.3260
  284MOL0     C39077   8.169   8.812   1.321 -0.1391 -0.7228 -0.5550
  284MOL0     O39078   8.252   8.898   1.240  0.7092 -0.7051 -0.5369
  284MOL0     C39079   8.345   8.849   1.158 -0.2372 -1.1475 -0.7473
  284MOL0     C39080   8.347   8.715   1.125 -0.0569 -0.4527 -0.8754
  284MOL0     C39081   8.432   8.670   1.030  0.3016  1.0175 -0.1470
  284MOL0     C39082   8.429   8.522   1.008 -0.5093  0.4321  0.5792
  284MOL0     C39083   8.522   8.751   0.960 -0.1963 -0.6418  0.0695
  284MOL0     C39084   8.623   8.707   0.862 -0.1593  0.1616  1.0252
  284MOL0     O39085   8.730   8.795   0.862 -0.4487  0.1299 -0.8912
  284MOL0     C39086   8.845   8.749   0.796  1.3007 -1.0588 -1.0554
  284MOL0     C39087   8.918   8.638   0.844 -0.0334  0.5870  0.5158
  284MOL0     C39088   9.038   8.607   0.779 -0.3621 -0.8153  0.3994
  284MOL0     C39089   9.090   8.684   0.664  0.1526 -0.7542  0.7931
  284MOL0     O39090   9.201   8.629   0.587 -0.0850  0.2792 -0.5745
  284MOL0     C39091   9.280   8.719   0.507 -0.0976 -0.2590 -0.7623
  284MOL0     C39092   9.363   8.637   0.416 -0.9679 -0.6316 -0.4477
  284MOL0     C39093   9.479   8.573   0.499 -0.1429  0.2297  0.3357
  284MOL0     C39094   9.603   8.670   0.534  0.1022 -0.4456  0.1087
  284MOL0     C39095   9.719   8.602   0.594  0.2184 -0.3401 -0.7698
  284MOL0     C39096   9.700   8.532   0.733 -0.5053 -0.4621 -0.1109
  284MOL0     C39097   9.819   8.431   0.754  0.4258  0.1724 -0.5046
  284MOL0     C39098   9.796   8.335   0.870  0.6653 -0.2823 -0.1427
  284MOL0    Cl39099   9.795   8.434   1.015  0.1843  0.4815  0.0686
  284MOL0     C39100   9.014   8.795   0.631  0.1549  0.2029  1.0034
  284MOL0     C39101   8.891   8.828   0.697 -0.0538  0.0190 -0.1029
  284MOL0     O39102   8.616   8.599   0.802 -0.0461  0.0332  0.4764
  284MOL0     C39103   8.509   8.886   0.987  0.4737 -0.5666  0.1871
  284MOL0     C39104   8.431   8.935   1.089 -0.6066 -0.0077 -0.5125
  284MOL0     N39105   7.696   8.968   1.097 -0.2082 -0.3981 -0.2016
  284MOL0     N39106   7.611   9.049   1.036  0.5258 -0.3449 -0.1532
  284MOL0     C39107   6.877   9.774   1.668 -0.0129  1.3230  0.2835
  284MOL0     C39108   6.759   9.848   1.657  0.3203 -0.6214 -0.8103
  284MOL0     C39109   6.396  10.083   1.541  0.3012 -0.8516  0.4771
  284MOL0     C39110   6.409  10.190   1.632 -0.8124 -0.2132 -0.1719
  284MOL0     C39111   6.300  10.278   1.646 -0.8050  0.5889 -0.3275
  284MOL0     C39112   6.190  10.263   1.572  0.0500  0.2204  0.3791
  284MOL0     O39113   6.099  10.358   1.608  0.0933  0.2891 -0.4936
  284MOL0     C39114   5.958  10.320   1.609  0.3653 -0.0731 -0.1883
  284MOL0     C39115   5.861  10.438   1.631 -0.1822  0.1101 -0.4731
  284MOL0     C39116   5.709  10.399   1.622 -0.1560  0.3655  0.6146
  284MOL0     C39117   5.611  10.499   1.688  0.5144  0.1244 -0.2245
  284MOL0     C39118   5.586  10.607   1.590  0.1613  0.1674 -0.1026
  284MOL0     C39119   5.564  10.696   1.516 -0.4049 -0.0032  1.6950
  284MOL0     C39120   6.179  10.165   1.476 -0.0268  0.8788 -0.7129
  284MOL0     C39121   6.281  10.072   1.455 -1.2616  0.3660 -0.0830
  284MOL0     C39122   6.275   9.993   1.324 -1.3213  0.5035 -0.8699
  284MOL0     H39123   6.837  10.050   1.382  0.3751 -2.0100 -1.7623
  284MOL0     H39124   7.035   9.904   1.398 -2.8843 -1.0962 -2.9870
  284MOL0     H39125   7.002   9.547   1.606 -0.8244  0.5182  1.9661
  284MOL0     H39126   7.076   9.628   1.746 -1.0416  1.8059  0.4627
  284MOL0     H39127   7.305   9.563   1.640 -1.9098  0.2446  2.4252
  284MOL0     H39128   7.196   9.428   1.637 -2.8115  0.2492  1.4216
  284MOL0     H39129   7.130   9.481   1.404  0.5174  0.1947 -0.6646
  284MOL0     H39130   7.238   9.631   1.414  2.1754  0.1086  1.6630
  284MOL0     H39131   7.422   9.465   1.424 -0.1303 -0.9105 -0.4050
  284MOL0     H39132   7.309   9.332   1.416 -1.4130 -1.0322 -2.1216
  284MOL0     H39133   7.359   9.543   1.203  0.1152  1.3201  1.9259
  284MOL0     H39134   7.226   9.418   1.196  0.7902 -0.0741 -2.1157
  284MOL0     H39135   7.434   9.242   1.237  0.2477 -0.6549 -1.9887
  284MOL0     H39136   7.359   9.308   1.085  0.3183 -0.6240 -0.7337
  284MOL0     H39137   7.629   9.402   1.189 -0.5073 -1.2812  1.1451
  284MOL0     H39138   7.531   9.486   1.082 -0.5490 -1.3124 -0.7826
  284MOL0     H39139   7.538   9.278   0.919 -0.7313 -1.3862  0.7124
  284MOL0     H39140   7.693   9.353   0.952  0.0188  0.2081  2.2878
  284MOL0     H39141   7.868   9.257   1.102 -0.2746  0.8230 -1.4729
  284MOL0     H39142   8.008   9.065   1.152 -3.5720  3.0962  1.5596
  284MOL0     H39143   7.959   8.896   1.117  0.6096  1.4632 -1.9559
  284MOL0     H39144   7.902   9.038   1.383  0.6713  2.1184 -1.2083
  284MOL0     H39145   7.878   8.862   1.348  0.9923 -0.6817 -1.2154
  284MOL0     H39146   8.124   8.991   1.438  0.1741 -0.3581  1.3776
  284MOL0     H39147   8.045   8.850   1.498  2.4957  1.1405  0.9094
  284MOL0     H39148   8.228   8.742   1.381  0.2082 -1.0594 -1.2889
  284MOL0     H39149   8.100   8.749   1.265 -0.1225 -0.9432 -0.3270
  284MOL0     H39150   8.286   8.653   1.189 -2.4033  1.6723 -0.8919
  284MOL0     H39151   8.349   8.468   1.061  0.4501 -3.8535 -1.8603
  284MOL0     H39152   8.524   8.479   1.040 -1.3830 -1.2391  1.0604
  284MOL0     H39153   8.407   8.503   0.903  1.7425 -1.1428  0.3326
  284MOL0     H39154   8.885   8.574   0.925  2.2393 -2.6368 -0.8900
  284MOL0     H39155   9.089   8.512   0.798 -0.0684 -0.8161 -0.3521
  284MOL0     H39156   9.209   8.771   0.441 -0.1000 -0.0948 -0.6318
  284MOL0     H39157   9.333   8.787   0.575 -0.5658 -0.9610  0.3260
  284MOL0     H39158   9.312   8.550   0.372 -0.5378 -0.3604 -1.5172
  284MOL0     H39159   9.393   8.699   0.331  0.8712 -0.8523  0.0143
  284MOL0     H39160   9.511   8.490   0.435  0.6947 -0.6016  1.7976
  284MOL0     H39161   9.435   8.530   0.589 -0.0164 -0.3621  0.1207
  284MOL0     H39162   9.565   8.736   0.613 -2.0685 -0.8077 -0.5597
  284MOL0     H39163   9.644   8.728   0.451  2.6222 -0.5632  1.1811
  284MOL0     H39164   9.745   8.526   0.520  2.7067  0.6237 -0.9838
  284MOL0     H39165   9.807   8.667   0.597  1.6030 -2.1511 -0.7229
  284MOL0     H39166   9.605   8.477   0.734 -0.1252 -1.1649 -0.7569
  284MOL0     H39167   9.689   8.613   0.805  0.2740  0.6179 -1.1654
  284MOL0     H39168   9.918   8.475   0.771  1.2054 -2.1829  1.9886
  284MOL0     H39169   9.822   8.369   0.664  1.0871  0.0693 -0.4208
  284MOL0     H39170   9.874   8.259   0.880  2.9377  1.9268 -0.1351
  284MOL0     H39171   9.694   8.305   0.845  0.6352  0.5823 -1.1336
  284MOL0     H39172   9.041   8.853   0.543  4.2433 -1.8018  0.7141
  284MOL0     H39173   8.826   8.906   0.660 -0.6055  0.1266  1.0496
  284MOL0     H39174   8.576   8.954   0.934  2.5929 -1.0872  2.0413
  284MOL0     H39175   8.431   9.041   1.111 -2.0315 -0.2200  0.6903
  284MOL0     H39176   6.885   9.701   1.748  1.1022  1.8268  0.6619
  284MOL0     H39177   6.675   9.830   1.722  0.3190 -0.0304 -0.6449
  284MOL0     H39178   6.502  10.210   1.684 -1.6771  0.2551  1.2800
  284MOL0     H39179   6.306  10.361   1.716  0.7106 -0.9826  1.5301
  284MOL0     H39180   5.930  10.265   1.519  0.4938 -0.9718  0.3037
  284MOL0     H39181   5.943  10.252   1.694 -0.0282  0.1396 -0.0900
  284MOL0     H39182   5.871  10.516   1.555 -4.1715  0.0427 -1.2835
  284MOL0     H39183   5.889  10.484   1.726  0.1166 -0.9839 -0.0044
  284MOL0     H39184   5.670  10.378   1.522  0.6330  1.5672  0.0332
  284MOL0     H39185   5.709  10.315   1.693 -0.6767  0.7170  1.0407
  284MOL0     H39186   5.659  10.540   1.777 -1.9123 -3.9121  3.4232
  284MOL0     H39187   5.519  10.444   1.715 -0.0728  0.6739 -1.0548
  284MOL0     H39188   5.538  10.780   1.455  2.0741 -1.3440 -1.5027
  284MOL0     H39189   6.086  10.151   1.422 -0.6652 -0.3446  0.6120
  284MOL0     H39190   6.273   9.885   1.339 -0.8307  0.4314 -1.3082
  284MOL0     H39191   6.180  10.003   1.270 -1.9963 -1.8250 -0.2228
  284MOL0     H39192   6.367  10.006   1.267  0.4795  0.2716  1.8169
  285MOL0     O39193   7.974   4.139   6.666 -0.5497 -0.6429 -0.7765
  285MOL0     C39194   7.923   4.030   6.700  0.6735 -0.1497  0.2118
  285MOL0     O39195   7.993   3.920   6.737 -0.1013 -0.4925  0.5224
  285MOL0     C39196   8.122   3.911   6.682  0.5716  0.0355  0.4612
  285MOL0     C39197   8.134   3.798   6.595 -0.0398  0.1088  0.0859
  285MOL0     C39198   8.262   3.769   6.544  0.2629 -0.3783  0.0838
  285MOL0     C39199   8.373   3.848   6.590 -0.7614  0.3429 -0.3068
  285MOL0     O39200   8.498   3.801   6.546 -0.1467  0.3394 -0.5302
  285MOL0     C39201   8.614   3.849   6.614  0.0964  0.0175  0.6553
  285MOL0     C39202   8.722   3.766   6.554 -0.2595  0.0268  0.4446
  285MOL0     C39203   8.856   3.820   6.605  0.0684 -0.0529  0.0382
  285MOL0     C39204   8.876   3.795   6.755  1.3084 -0.4425  0.2848
  285MOL0     C39205   9.027   3.807   6.785 -0.5275  0.5517 -0.0010
  285MOL0     C39206   9.061   3.955   6.802  0.1956  0.1181 -0.3804
  285MOL0     C39207   9.205   3.977   6.855  0.5214  0.2395  0.2161
  285MOL0     C39208   9.233   4.126   6.871  0.0077 -0.3086 -0.3149
  285MOL0     N39209   9.376   4.151   6.874  0.0364 -0.6864  0.0247
  285MOL0     C39210   9.477   4.074   6.931 -0.0838  0.2886  0.4839
  285MOL0     C39211   9.593   4.128   6.884  0.0091  0.0184 -0.7415
  285MOL0     C39212   9.732   4.091   6.921  0.6866 -0.4474 -0.2889
  285MOL0     C39213   9.775   4.117   7.061 -0.0974 -0.5940 -0.0481
  285MOL0     C39214   9.770   4.000   7.154 -0.8210 -0.9285  0.2801
  285MOL0     C39215   9.901   3.931   7.186  0.1975  0.6689 -0.2536
  285MOL0     O39216   9.982   4.034   7.247 -0.4221 -0.1018 -0.1172
  285MOL0     C39217  10.111   4.026   7.272  0.1257  0.2120  0.0968
  285MOL0     C39218  10.175   4.120   7.346 -0.0844 -0.3670  0.4427
  285MOL0     C39219  10.312   4.120   7.378  0.0730  0.1001 -0.3113
  285MOL0     C39220  10.372   4.247   7.430  0.2832 -0.7973  0.2893
  285MOL0     C39221  10.394   4.015   7.329 -0.5063  0.3130 -0.2817
  285MOL0     C39222  10.539   4.006   7.353  0.5777  0.3273  0.6112
  285MOL0     O39223  10.586   4.062   7.466  0.0948 -0.0831  0.0232
  285MOL0     C39224  10.717   4.073   7.492 -0.2981  0.9293  0.4419
  285MOL0     C39225  10.764   4.205   7.509 -0.7049 -0.5775 -0.0427
  285MOL0     C39226  10.893   4.226   7.553  0.1376  0.1482  1.0021
  285MOL0     C39227  10.978   4.121   7.577  0.0820 -0.0499  0.7650
  285MOL0     O39228  11.100   4.139   7.629 -0.0753 -0.4461  0.2726
  285MOL0     C39229  11.183   4.253   7.596  0.1482  0.0967  0.1989
  285MOL0     C39230  11.321   4.249   7.663 -0.2002  0.6763 -0.0215
  285MOL0     C39231  11.328   4.333   7.786 -0.0295  0.1069  0.4254
  285MOL0     C39232  11.233   4.292   7.900  0.2434 -1.1418 -0.9340
  285MOL0     C39233  11.259   4.370   8.023 -0.3601  0.4190  0.5927
  285MOL0     C39234  11.399   4.323   8.086  0.1365  0.0706 -0.3747
  285MOL0     C39235  11.412   4.395   8.226  0.3518  0.6960  1.2305
  285MOL0     C39236  11.560   4.410   8.265 -0.0475  0.4524 -0.0396
  285MOL0    Cl39237  11.665   4.484   8.135  0.3676  0.0923 -0.0528
  285MOL0     C39238  10.933   3.996   7.563  0.0308  1.3106  1.3676
  285MOL0     C39239  10.804   3.966   7.511 -0.3215 -0.5126 -0.1523
  285MOL0     O39240  10.599   3.926   7.285 -0.6673  0.1025 -0.3055
  285MOL0     C39241  10.321   3.911   7.264 -0.3604  0.5128  0.0231
  285MOL0     C39242  10.190   3.921   7.228  0.5065 -0.5488 -0.6533
  285MOL0     N39243   9.562   4.232   6.800  0.3635  0.4124  0.3200
  285MOL0     N39244   9.436   4.246   6.797 -0.0245 -1.4785  0.0902
  285MOL0     C39245   8.360   3.957   6.670  0.1319 -0.1169 -0.2624
  285MOL0     C39246   8.233   3.993   6.719 -0.6095  0.8911  0.0187
  285MOL0     C39247   7.774   4.037   6.718  0.1173 -0.0507 -0.2406
  285MOL0     C39248   7.704   4.164   6.716 -0.0146 -0.2332 -0.1502
  285MOL0     C39249   7.566   4.179   6.742  0.0550  0.6497 -0.2501
  285MOL0     C39250   7.491   4.070   6.778 -0.2660  0.4755 -0.2029
  285MOL0     O39251   7.362   4.092   6.816  0.1585 -0.0582  0.3522
  285MOL0     C39252   7.343   4.173   6.929 -0.2976  0.4076 -0.0914
  285MOL0     C39253   7.218   4.139   7.012  0.6753 -0.5287 -0.1044
  285MOL0     C39254   7.090   4.127   6.931  0.0924 -0.8519 -0.0867
  285MOL0     C39255   6.967   4.154   7.007  0.1866  0.0472 -1.2477
  285MOL0     C39256   6.951   4.052   7.115 -0.6156  0.6131 -1.4370
  285MOL0     C39257   6.926   3.958   7.190 -0.0368 -0.3345 -0.1576
  285MOL0     C39258   7.548   3.942   6.768  0.2690  0.5111  0.7459
  285MOL0     C39259   7.689   3.927   6.740  0.3829 -0.1675 -0.1940
  285MOL0     C39260   7.742   3.788   6.731  0.0346 -0.2315 -0.2460
  285MOL0     H39261   8.047   3.741   6.566  0.6626  0.2984 -2.7122
  285MOL0     H39262   8.279   3.689   6.472 -1.0388  0.2245 -0.9339
  285MOL0     H39263   8.591   3.844   6.721 -0.1446  4.7651  1.0259
  285MOL0     H39264   8.638   3.954   6.599  1.5838 -0.3634  0.1986
  285MOL0     H39265   8.697   3.663   6.583  0.2440 -0.0416  0.6439
  285MOL0     H39266   8.727   3.785   6.446  0.8590  1.1175  0.6605
  285MOL0     H39267   8.945   3.773   6.560  0.2087 -1.9081  2.0576
  285MOL0     H39268   8.861   3.925   6.575  1.5051  0.3605  1.5117
  285MOL0     H39269   8.824   3.873   6.812  3.4848  0.8266  0.6941
  285MOL0     H39270   8.833   3.698   6.781  1.4505 -1.0137 -1.4949
  285MOL0     H39271   9.094   3.753   6.718  1.2813 -1.2264  3.0410
  285MOL0     H39272   9.047   3.765   6.884  1.1964  1.0101 -0.1239
  285MOL0     H39273   9.047   4.010   6.708  1.3138 -0.8440 -1.1438
  285MOL0     H39274   8.993   3.998   6.875  1.7970 -2.5160  2.9023
  285MOL0     H39275   9.283   3.933   6.794  1.8511  1.4187  1.0102
  285MOL0     H39276   9.221   3.927   6.951 -1.2960  0.3046  0.5879
  285MOL0     H39277   9.181   4.183   6.794  0.1959 -0.9662 -0.9291
  285MOL0     H39278   9.192   4.154   6.969 -1.1813 -1.1163 -0.5626
  285MOL0     H39279   9.482   3.986   6.994  3.7037  1.5322  2.2315
  285MOL0     H39280   9.807   4.149   6.866  1.5644 -0.1838  1.1359
  285MOL0     H39281   9.747   3.986   6.894  0.0520 -0.1747 -1.8655
  285MOL0     H39282   9.865   4.178   7.060  1.5653 -2.8017  2.5875
  285MOL0     H39283   9.707   4.189   7.108 -0.4069 -0.4252 -0.7412
  285MOL0     H39284   9.735   4.033   7.252  0.9066  1.2015  0.2437
  285MOL0     H39285   9.698   3.926   7.117 -2.5202  1.7362 -2.2087
  285MOL0     H39286   9.881   3.845   7.251  0.3115  0.8765  0.0571
  285MOL0     H39287   9.948   3.892   7.095 -0.7510 -2.9751  0.6579
  285MOL0     H39288  10.122   4.210   7.375 -0.7137 -1.1200  1.7523
  285MOL0     H39289  10.297   4.326   7.432 -0.2665 -1.3120  0.0446
  285MOL0     H39290  10.451   4.288   7.367  0.7462  0.6389  1.7059
  285MOL0     H39291  10.396   4.235   7.536 -0.2750 -2.2468  0.2631
  285MOL0     H39292  10.698   4.292   7.502  0.0458  0.0940  0.9024
  285MOL0     H39293  10.933   4.326   7.565 -0.2535  0.7363 -1.8182
  285MOL0     H39294  11.190   4.266   7.488 -0.3429  3.6791  0.5054
  285MOL0     H39295  11.135   4.342   7.637  0.3687  1.0434 -1.5189
  285MOL0     H39296  11.350   4.145   7.683  0.6494  1.3096  2.3813
  285MOL0     H39297  11.395   4.281   7.590 -1.1029 -0.5072 -1.5232
  285MOL0     H39298  11.313   4.435   7.752 -0.1366  1.2176  3.5041
  285MOL0     H39299  11.432   4.326   7.822 -0.4310 -1.6422  1.3936
  285MOL0     H39300  11.237   4.183   7.903  2.7836 -1.0975  0.2342
  285MOL0     H39301  11.130   4.319   7.875 -0.3057 -1.7525  0.5380
  285MOL0     H39302  11.271   4.478   8.007 -1.9359  0.4555 -0.6487
  285MOL0     H39303  11.179   4.349   8.094 -1.0475  1.3258  0.1114
  285MOL0     H39304  11.481   4.358   8.022 -1.0258  1.7037 -1.0466
  285MOL0     H39305  11.400   4.215   8.106 -3.4421  0.3053  2.1508
  285MOL0     H39306  11.356   4.344   8.306 -1.9066  2.5617  0.9404
  285MOL0     H39307  11.365   4.493   8.213  1.4454  1.3601  2.1272
  285MOL0     H39308  11.584   4.308   8.296 -1.6434  0.2187  0.5370
  285MOL0     H39309  11.562   4.466   8.359  0.2900 -1.6629  1.2595
  285MOL0     H39310  10.982   3.905   7.596  1.3145  0.5079 -2.3215
  285MOL0     H39311  10.781   3.860   7.505  3.3857 -1.4368 -0.4281
  285MOL0     H39312  10.381   3.824   7.237  2.5706  1.3069  3.2157
  285MOL0     H39313  10.147   3.836   7.175  0.1329 -1.4847  1.0829
  285MOL0     H39314   8.449   4.006   6.707  0.2148 -0.0400 -0.5600
  285MOL0     H39315   8.233   4.074   6.791 -1.8430  2.5032 -1.6882
  285MOL0     H39316   7.764   4.252   6.696 -0.1816 -0.3021 -0.9798
  285MOL0     H39317   7.512   4.272   6.733 -0.1563  0.9483  2.8666
  285MOL0     H39318   7.431   4.180   6.994 -1.0485  1.9537  0.8077
  285MOL0     H39319   7.326   4.274   6.891  2.7043  1.0516  0.0538
  285MOL0     H39320   7.221   4.211   7.095  1.8487  2.7652 -2.7936
  285MOL0     H39321   7.241   4.042   7.057  3.0610  0.1456  0.2385
  285MOL0     H39322   7.091   4.211   6.861 -0.6127  1.0242  2.0332
  285MOL0     H39323   7.086   4.037   6.869 -1.1888 -0.2437 -0.9486
  285MOL0     H39324   6.879   4.165   6.943  0.2376  1.1048 -1.1511
  285MOL0     H39325   6.998   4.247   7.056  1.3429 -0.3816 -1.1325
  285MOL0     H39326   6.890   3.874   7.246  2.0506 -0.1255  1.6202
  285MOL0     H39327   7.489   3.852   6.783  3.4640 -1.4695  2.5087
  285MOL0     H39328   7.815   3.757   6.806  1.0951 -0.6314 -1.4086
  285MOL0     H39329   7.665   3.711   6.727 -1.0993  0.8519  0.0244
  285MOL0     H39330   7.788   3.767   6.634  0.6365 -2.2455  0.4200
  286MOL0     O39331   2.577   5.679   1.945 -0.8731  0.2703 -0.7814
  286MOL0     C39332   2.592   5.559   1.944 -0.8136 -0.5723  0.4440
  286MOL0     O39333   2.712   5.502   1.949 -0.5571  0.6558 -0.0632
  286MOL0     C39334   2.832   5.568   1.945  0.7823 -0.3639  1.0774
  286MOL0     C39335   2.932   5.480   1.905  0.0864  0.1052  0.9430
  286MOL0     C39336   3.061   5.519   1.898  0.7588 -0.1181  0.3742
  286MOL0     C39337   3.096   5.652   1.921  0.1239 -0.2608  0.4418
  286MOL0     O39338   3.228   5.674   1.899 -0.1302  0.4312 -0.4305
  286MOL0     C39339   3.259   5.811   1.863 -0.4462  0.0907  0.1450
  286MOL0     C39340   3.414   5.821   1.860 -0.0503 -0.0544 -0.7373
  286MOL0     C39341   3.468   5.959   1.825  0.3197 -0.1630 -0.7670
  286MOL0     C39342   3.611   5.966   1.843 -0.3223  0.3548  0.6967
  286MOL0     C39343   3.658   6.100   1.791 -0.7829 -0.3832  0.1039
  286MOL0     C39344   3.685   6.104   1.641  0.3015 -0.1524 -0.0111
  286MOL0     C39345   3.752   6.242   1.609 -0.2911  0.2500  0.1243
  286MOL0     C39346   3.653   6.354   1.622  1.6658 -0.0911 -0.6431
  286MOL0     N39347   3.707   6.478   1.563 -0.1080  0.2255  0.2955
  286MOL0     C39348   3.775   6.573   1.640 -0.0620  0.5484  0.6486
  286MOL0     C39349   3.826   6.652   1.537 -0.1407  0.0380 -0.1024
  286MOL0     C39350   3.901   6.782   1.566 -0.3824  0.5491  1.0512
  286MOL0     C39351   4.042   6.748   1.618 -0.2147 -0.1979  0.5993
  286MOL0     C39352   4.123   6.678   1.504  0.0022  0.2292 -0.3736
  286MOL0     C39353   4.276   6.679   1.533 -0.0882 -0.7865  0.0874
  286MOL0     O39354   4.302   6.599   1.648  1.1930 -0.0344 -0.2819
  286MOL0     C39355   4.431   6.607   1.699 -0.4352  0.2192 -0.1201
  286MOL0     C39356   4.526   6.707   1.665 -0.2380 -0.3276 -0.6893
  286MOL0     C39357   4.655   6.696   1.704  0.0945 -0.0980  0.6087
  286MOL0     C39358   4.750   6.803   1.654  0.3097  0.2819  0.0032
  286MOL0     C39359   4.702   6.585   1.785  0.2568  0.0985 -0.0986
  286MOL0     C39360   4.851   6.563   1.832  0.6060 -0.5410  0.3025
  286MOL0     O39361   4.888   6.439   1.875 -0.1665 -0.2012  0.5887
  286MOL0     C39362   4.996   6.430   1.958 -0.3928 -0.7552 -0.2184
  286MOL0     C39363   5.087   6.329   1.932 -0.2653 -0.1802 -0.3834
  286MOL0     C39364   5.191   6.305   2.020 -0.0529  0.5560 -0.3607
  286MOL0     C39365   5.210   6.391   2.134 -0.8284 -0.1949  0.5888
  286MOL0     O39366   5.321   6.370   2.212  0.0331 -0.3771  0.2295
  286MOL0     C39367   5.348   6.460   2.315 -0.1315 -0.6165 -0.6843
  286MOL0     C39368   5.467   6.397   2.394 -0.2340 -0.4962 -0.8491
  286MOL0     C39369   5.592   6.375   2.314 -0.4853 -0.1095  0.3475
  286MOL0     C39370   5.712   6.344   2.413  0.2481  0.3583 -0.4571
  286MOL0     C39371   5.821   6.266   2.341 -0.6560 -0.3561  0.2805
  286MOL0     C39372   5.881   6.353   2.225  0.6582  0.0055  0.0725
  286MOL0     C39373   5.942   6.267   2.114  0.2291 -0.5715 -0.3143
  286MOL0     C39374   5.972   6.345   1.984 -0.2490 -1.0553 -0.3804
  286MOL0    Cl39375   6.045   6.515   2.024  0.0376  0.0570 -0.2719
  286MOL0     C39376   5.118   6.498   2.153  0.2131  0.1942 -0.7766
  286MOL0     C39377   5.012   6.518   2.065 -0.8033  0.0917 -0.0525
  286MOL0     O39378   4.920   6.660   1.822  0.1840 -0.4987 -0.5539
  286MOL0     C39379   4.604   6.482   1.820  0.0523 -0.7000  0.0526
  286MOL0     C39380   4.472   6.500   1.780 -0.2410  0.3346 -0.1199
  286MOL0     N39381   3.779   6.612   1.409  0.4588  0.0943  0.3029
  286MOL0     N39382   3.711   6.506   1.428 -0.0339  0.3976  0.4655
  286MOL0     C39383   2.995   5.747   1.945  0.6792 -0.2891 -0.2785
  286MOL0     C39384   2.858   5.709   1.967 -0.6797  0.4884  0.4122
  286MOL0     C39385   2.477   5.471   1.950  0.4744 -0.6479 -0.2749
  286MOL0     C39386   2.491   5.341   2.008 -0.1124 -0.1059 -0.1421
  286MOL0     C39387   2.388   5.247   2.014 -0.5691  0.1926  0.1697
  286MOL0     C39388   2.264   5.273   1.964 -0.0382 -0.1332  0.5981
  286MOL0     O39389   2.150   5.195   1.943  0.0886  0.5433  0.1603
  286MOL0     C39390   2.112   5.094   2.041  1.3755  0.3936  0.0428
  286MOL0     C39391   2.013   4.992   1.983  0.8537 -0.4910 -0.3283
  286MOL0     C39392   1.888   5.071   1.937  0.1433 -0.6626  0.4957
  286MOL0     C39393   1.819   5.001   1.823  0.0944  0.4846  0.5925
  286MOL0     C39394   1.675   5.023   1.826 -0.3145  0.2362 -0.9075
  286MOL0     C39395   1.561   5.022   1.857 -0.0645  0.1661 -0.5581
  286MOL0     C39396   2.242   5.410   1.919  0.5057 -0.3277 -1.0693
  286MOL0     C39397   2.341   5.506   1.918  0.3145 -0.4253  0.1346
  286MOL0     C39398   2.298   5.643   1.869 -0.8719  0.7440  0.2767
  286MOL0     H39399   2.897   5.379   1.884 -1.4097  1.3091 -3.3843
  286MOL0     H39400   3.143   5.450   1.878  1.1257  0.6908 -1.0802
  286MOL0     H39401   3.222   5.891   1.929 -2.4180 -1.0886  0.5570
  286MOL0     H39402   3.231   5.833   1.760  0.6561 -1.0031 -0.4151
  286MOL0     H39403   3.454   5.781   1.954  0.3564 -3.3215 -2.1552
  286MOL0     H39404   3.454   5.755   1.782  3.0361  2.8246 -1.8304
  286MOL0     H39405   3.439   5.979   1.721 -4.5091 -1.6935  0.0334
  286MOL0     H39406   3.425   6.039   1.885  0.8709  0.6857 -1.4714
  286MOL0     H39407   3.631   5.952   1.949  0.1606  2.2658  0.8820
  286MOL0     H39408   3.657   5.886   1.782 -0.1649  0.0905  1.1586
  286MOL0     H39409   3.760   6.100   1.831 -0.9724 -1.0616  0.6107
  286MOL0     H39410   3.599   6.185   1.824  0.0454  0.9908 -1.7838
  286MOL0     H39411   3.737   6.013   1.609 -0.3471 -0.8141  0.7629
  286MOL0     H39412   3.590   6.094   1.588 -0.9261  0.5582  1.9357
  286MOL0     H39413   3.780   6.241   1.503 -2.3455  2.8686 -0.5630
  286MOL0     H39414   3.838   6.246   1.678 -1.6056  1.6222  1.7631
  286MOL0     H39415   3.556   6.341   1.574  0.9095  0.1716  0.7780
  286MOL0     H39416   3.622   6.371   1.725  0.3631 -1.8236 -0.7073
  286MOL0     H39417   3.786   6.573   1.748 -3.5847 -0.0014  1.1394
  286MOL0     H39418   3.840   6.839   1.636  0.0436  0.0774  1.8253
  286MOL0     H39419   3.898   6.836   1.471 -1.5178 -0.2078  0.6302
  286MOL0     H39420   4.088   6.844   1.640  0.0836  0.2794 -1.7973
  286MOL0     H39421   4.041   6.687   1.709  0.0363 -0.6957  0.2770
  286MOL0     H39422   4.087   6.578   1.475  1.7913 -0.9076  1.1682
  286MOL0     H39423   4.106   6.733   1.410 -0.7294 -0.3576 -0.5972
  286MOL0     H39424   4.344   6.647   1.455  1.8453 -0.1214  1.4298
  286MOL0     H39425   4.288   6.785   1.557  0.5990 -0.8041 -0.1900
  286MOL0     H39426   4.489   6.788   1.603  0.3111  0.9701  0.6100
  286MOL0     H39427   4.842   6.761   1.614  0.1305 -3.9110  3.2853
  286MOL0     H39428   4.770   6.875   1.734  0.0679  0.6091 -0.2223
  286MOL0     H39429   4.697   6.858   1.575 -1.8585  0.8054  1.7242
  286MOL0     H39430   5.080   6.259   1.849  2.1584 -0.8493 -0.1080
  286MOL0     H39431   5.255   6.219   2.005 -0.4344  0.2583 -0.2838
  286MOL0     H39432   5.382   6.559   2.283 -1.7310  0.0585 -0.3829
  286MOL0     H39433   5.263   6.477   2.381  0.0582  0.3026 -0.6701
  286MOL0     H39434   5.491   6.459   2.482  1.5495 -1.9831 -0.2398
  286MOL0     H39435   5.425   6.308   2.441 -1.2480 -0.6177 -1.9390
  286MOL0     H39436   5.616   6.461   2.251 -2.8581 -1.0037 -1.9732
  286MOL0     H39437   5.577   6.285   2.255  0.7560  1.7156 -3.0222
  286MOL0     H39438   5.671   6.293   2.501 -2.4508  0.3646 -1.6013
  286MOL0     H39439   5.759   6.437   2.446  0.0099  0.0972  0.6642
  286MOL0     H39440   5.910   6.241   2.399 -1.0409 -2.7959 -0.0452
  286MOL0     H39441   5.782   6.169   2.308  0.0696 -1.2529  1.9149
  286MOL0     H39442   5.953   6.432   2.249  0.0037  0.3099  1.0995
  286MOL0     H39443   5.803   6.400   2.163  2.6478  0.8090 -1.9784
  286MOL0     H39444   5.877   6.182   2.093 -1.3718  0.3085  0.8122
  286MOL0     H39445   6.038   6.228   2.149 -0.1730 -1.0392  0.2968
  286MOL0     H39446   5.875   6.360   1.935 -1.4610 -0.0085  2.1557
  286MOL0     H39447   6.035   6.291   1.913 -0.7058  0.4027 -1.9515
  286MOL0     H39448   5.125   6.573   2.231 -1.8566 -1.5220  1.1787
  286MOL0     H39449   4.938   6.598   2.065 -1.4128 -0.4661  0.0199
  286MOL0     H39450   4.628   6.392   1.875  2.7325  1.1600  2.2626
  286MOL0     H39451   4.401   6.425   1.811  0.2559  0.5017  1.5402
  286MOL0     H39452   3.022   5.849   1.973 -1.2141 -0.1231  1.1026
  286MOL0     H39453   2.780   5.769   2.013 -1.5332 -0.3272  0.0562
  286MOL0     H39454   2.586   5.314   2.052 -0.2104 -0.4003 -0.1067
  286MOL0     H39455   2.416   5.165   2.079  1.8123  0.2125 -0.7621
  286MOL0     H39456   2.203   5.042   2.074  1.4380  2.2245  3.1694
  286MOL0     H39457   2.084   5.142   2.135 -1.9591  0.5580 -0.9356
  286MOL0     H39458   1.984   4.913   2.052  0.8714 -0.2646 -0.0609
  286MOL0     H39459   2.059   4.953   1.891 -0.4867 -0.1162 -1.1789
  286MOL0     H39460   1.813   5.087   2.015 -1.1071 -2.3521 -0.3025
  286MOL0     H39461   1.922   5.167   1.897 -2.0007  0.2747  0.7529
  286MOL0     H39462   1.852   4.897   1.828  1.1290  0.6075 -2.1375
  286MOL0     H39463   1.872   5.048   1.739  2.2761 -0.0772  1.5628
  286MOL0     H39464   1.461   5.016   1.894  0.4226 -0.2943  0.7410
  286MOL0     H39465   2.140   5.429   1.888 -0.4944  1.2897  2.6175
  286MOL0     H39466   2.202   5.627   1.821  0.8776 -2.1971 -2.6041
  286MOL0     H39467   2.306   5.720   1.947  2.4986  0.4886  0.3535
  286MOL0     H39468   2.369   5.674   1.792  0.5622 -3.6997 -0.4886
  287MOL0     O39469   5.560   8.380   5.725 -0.1441  0.2832  0.0291
  287MOL0     C39470   5.536   8.499   5.740 -0.7512  0.0358  0.2306
  287MOL0     O39471   5.608   8.589   5.808 -0.5024 -0.6536 -0.0278
  287MOL0     C39472   5.718   8.549   5.871  0.3271 -0.3031  0.6245
  287MOL0     C39473   5.712   8.465   5.979 -0.2946  0.0253 -0.0995
  287MOL0     C39474   5.824   8.431   6.058 -0.0728 -0.6707  0.5278
  287MOL0     C39475   5.953   8.460   6.006  0.5954 -0.2879  0.3504
  287MOL0     O39476   6.074   8.429   6.068  0.6045 -0.2392 -0.3942
  287MOL0     C39477   6.079   8.382   6.200 -0.2273  0.1121 -0.6284
  287MOL0     C39478   6.227   8.320   6.225 -0.3289  0.5160 -0.1554
  287MOL0     C39479   6.244   8.266   6.366  0.4837  0.3982 -0.0159
  287MOL0     C39480   6.377   8.181   6.366 -0.2792 -0.0761  1.2517
  287MOL0     C39481   6.384   8.106   6.498  0.5218  0.2810  0.2774
  287MOL0     C39482   6.442   8.186   6.611  0.5872 -0.2154 -0.1096
  287MOL0     C39483   6.471   8.096   6.735  0.6022  0.2119 -0.0111
  287MOL0     C39484   6.558   7.973   6.716 -0.9699 -0.1034  0.6962
  287MOL0     N39485   6.697   7.995   6.674  0.5872 -0.0164 -0.4308
  287MOL0     C39486   6.746   8.050   6.558 -0.7756 -0.1847 -0.6792
  287MOL0     C39487   6.875   8.038   6.563  0.3300  0.1521  0.0419
  287MOL0     C39488   6.969   8.086   6.462  0.6321  0.0919 -0.0469
  287MOL0     C39489   7.085   8.150   6.534  0.3236 -0.1284 -0.7016
  287MOL0     C39490   7.186   8.203   6.438 -0.2440 -0.6617 -0.3139
  287MOL0     C39491   7.271   8.094   6.367 -0.1231  0.2084  0.3025
  287MOL0     O39492   7.379   8.068   6.456  0.2340  0.0603 -0.5086
  287MOL0     C39493   7.475   7.985   6.410 -0.1520 -0.2919  0.5634
  287MOL0     C39494   7.562   7.932   6.495  0.7571  0.3044  0.1492
  287MOL0     C39495   7.667   7.842   6.466 -0.3901  0.0141  0.2631
  287MOL0     C39496   7.752   7.796   6.585  0.4760 -0.1314 -0.1763
  287MOL0     C39497   7.683   7.808   6.328 -0.7960  0.1148 -0.0109
  287MOL0     C39498   7.773   7.691   6.286  0.3202 -0.4804 -0.1523
  287MOL0     O39499   7.759   7.657   6.155  0.3270  0.3584 -0.5758
  287MOL0     C39500   7.848   7.563   6.111  0.1121 -0.9722  0.2533
  287MOL0     C39501   7.808   7.447   6.058 -0.6679  0.0708  0.2967
  287MOL0     C39502   7.900   7.357   6.007  0.0870  0.3157 -0.8320
  287MOL0     C39503   8.039   7.392   5.999  0.1864  0.6599 -0.2391
  287MOL0     O39504   8.133   7.317   5.937  0.4325 -0.6029  0.2681
  287MOL0     C39505   8.094   7.190   5.885 -0.1594  0.7103  0.1300
  287MOL0     C39506   8.209   7.128   5.811 -0.2626 -0.3814 -0.1811
  287MOL0     C39507   8.344   7.109   5.901 -0.2005 -0.3174 -0.2043
  287MOL0     C39508   8.470   7.076   5.818 -0.2060  0.9789  0.2792
  287MOL0     C39509   8.590   7.046   5.907  0.0838 -0.8370 -0.7911
  287MOL0     C39510   8.609   7.131   6.036  0.2229 -0.5530 -0.3288
  287MOL0     C39511   8.755   7.135   6.103  1.1400  0.4454  1.1828
  287MOL0     C39512   8.754   7.229   6.215 -0.3153  0.0321 -0.0005
  287MOL0    Cl39513   8.705   7.142   6.364 -0.2790 -0.2568 -0.4683
  287MOL0     C39514   8.081   7.516   6.047 -0.0838  0.5437 -0.0554
  287MOL0     C39515   7.985   7.603   6.097  0.9727  0.3409 -0.3956
  287MOL0     O39516   7.843   7.630   6.371  0.2575  0.1318 -0.1212
  287MOL0     C39517   7.586   7.851   6.231 -0.6928  0.7414 -0.0931
  287MOL0     C39518   7.494   7.940   6.271 -0.0356 -0.1943 -0.0289
  287MOL0     N39519   6.906   8.001   6.691 -1.3395  0.9636  0.0744
  287MOL0     N39520   6.803   7.973   6.758 -0.1429 -0.0959 -0.4205
  287MOL0     C39521   5.953   8.541   5.889 -0.0746  0.2440 -0.1992
  287MOL0     C39522   5.840   8.590   5.828  0.5539 -0.4054 -0.0678
  287MOL0     C39523   5.409   8.548   5.678 -0.1313  0.2690 -0.6200
  287MOL0     C39524   5.303   8.463   5.661  0.3751 -0.3384 -0.5011
  287MOL0     C39525   5.187   8.492   5.594 -0.5607 -0.6091 -0.8100
  287MOL0     C39526   5.170   8.627   5.550 -0.7723  0.5148 -0.7588
  287MOL0     O39527   5.063   8.648   5.466  0.1432 -0.3055  0.9045
  287MOL0     C39528   5.050   8.773   5.409  0.0058  0.0236  0.3153
  287MOL0     C39529   4.915   8.777   5.337  0.0457 -0.6321  0.2388
  287MOL0     C39530   4.801   8.791   5.438  1.3220  0.4627  1.0681
  287MOL0     C39531   4.670   8.838   5.362  0.1190 -0.5887  0.4857
  287MOL0     C39532   4.621   8.751   5.255  0.3436  0.1584  0.4984
  287MOL0     C39533   4.587   8.673   5.172  0.3491  0.7082 -0.1723
  287MOL0     C39534   5.273   8.721   5.571 -0.1090 -0.5978  0.1903
  287MOL0     C39535   5.390   8.686   5.636  0.0967 -0.6562 -0.3441
  287MOL0     C39536   5.501   8.789   5.631  0.3432 -0.4636 -0.8843
  287MOL0     H39537   5.614   8.444   6.018 -1.3260  2.1076 -1.3718
  287MOL0     H39538   5.807   8.373   6.149  0.2257 -2.0787 -0.2897
  287MOL0     H39539   6.009   8.299   6.209 -0.3865  0.3248  0.1459
  287MOL0     H39540   6.061   8.460   6.275  1.9661  0.7138 -0.6564
  287MOL0     H39541   6.241   8.233   6.161 -1.0345 -0.0404  0.4311
  287MOL0     H39542   6.302   8.391   6.189  0.1938 -0.2508 -0.5980
  287MOL0     H39543   6.249   8.340   6.446  0.3560 -0.6840  1.0083
  287MOL0     H39544   6.160   8.196   6.376  1.9378 -1.4828 -0.4688
  287MOL0     H39545   6.365   8.108   6.285 -0.9905  1.6114 -0.2304
  287MOL0     H39546   6.469   8.239   6.354 -0.7320  0.4199  0.1217
  287MOL0     H39547   6.447   8.019   6.474 -1.7609 -1.4100  0.0461
  287MOL0     H39548   6.285   8.080   6.536  1.3763  0.2787  2.6423
  287MOL0     H39549   6.535   8.237   6.585  0.7966 -0.5693 -0.0649
  287MOL0     H39550   6.366   8.262   6.633 -1.6140 -1.7625 -1.9569
  287MOL0     H39551   6.373   8.054   6.757 -1.1859  4.1340  0.3798
  287MOL0     H39552   6.507   8.162   6.815  0.3935  1.0732 -0.6069
  287MOL0     H39553   6.552   7.912   6.806 -1.7281 -1.5758 -0.3105
  287MOL0     H39554   6.517   7.907   6.640 -3.2577  1.1946  0.7279
  287MOL0     H39555   6.685   8.067   6.470 -1.4485  0.1558 -0.1567
  287MOL0     H39556   6.906   8.151   6.402 -0.2693  0.5369  1.3345
  287MOL0     H39557   6.997   7.999   6.402 -4.3192 -1.5387 -0.4580
  287MOL0     H39558   7.071   8.229   6.608 -0.1646 -0.9881  0.1481
  287MOL0     H39559   7.133   8.070   6.591 -1.5959 -0.5527  0.4145
  287MOL0     H39560   7.127   8.263   6.367  0.8397 -1.3203 -1.8117
  287MOL0     H39561   7.245   8.276   6.494 -2.2768  1.1815 -0.3922
  287MOL0     H39562   7.211   8.004   6.352  1.1080 -0.3403 -1.7288
  287MOL0     H39563   7.311   8.129   6.271  0.8128 -1.4913  0.0322
  287MOL0     H39564   7.557   7.968   6.597 -1.1301 -1.7502  0.8741
  287MOL0     H39565   7.725   7.695   6.617  0.8861  0.1521  1.1136
  287MOL0     H39566   7.739   7.866   6.667  0.1422 -0.4931  0.0799
  287MOL0     H39567   7.861   7.793   6.575  1.0726  0.0466  4.4099
  287MOL0     H39568   7.702   7.422   6.055 -0.7744  0.6152 -0.9997
  287MOL0     H39569   7.874   7.260   5.967  2.1190 -0.5066 -0.2712
  287MOL0     H39570   8.063   7.117   5.960  1.9525 -2.6997 -2.0212
  287MOL0     H39571   8.013   7.200   5.812  0.0026  1.2240  0.0124
  287MOL0     H39572   8.169   7.041   5.759 -0.2434 -0.2717 -0.3780
  287MOL0     H39573   8.236   7.195   5.729  0.1046  0.1207  0.3357
  287MOL0     H39574   8.338   7.025   5.970  1.1841 -2.8928 -3.0202
  287MOL0     H39575   8.359   7.197   5.965  0.0411 -0.7018  0.2730
  287MOL0     H39576   8.475   7.162   5.750 -2.8798  1.8755  1.0879
  287MOL0     H39577   8.452   6.988   5.756  0.3999  1.5097 -0.6721
  287MOL0     H39578   8.584   6.945   5.951  0.7784 -1.0514 -1.1754
  287MOL0     H39579   8.676   7.056   5.841  0.8979  1.1259  0.4614
  287MOL0     H39580   8.541   7.102   6.117 -0.2861  0.1877 -0.4798
  287MOL0     H39581   8.585   7.236   6.017  4.6775  1.5765  3.5371
  287MOL0     H39582   8.826   7.176   6.030 -0.3421 -1.4670 -1.5413
  287MOL0     H39583   8.799   7.041   6.134  1.5538 -0.3779 -1.5751
  287MOL0     H39584   8.699   7.321   6.193  4.1810  2.3275 -3.1879
  287MOL0     H39585   8.851   7.263   6.252 -0.2311  0.6288 -0.7410
  287MOL0     H39586   8.188   7.531   6.045 -0.3299  3.3818  2.0492
  287MOL0     H39587   8.014   7.700   6.137 -0.1102  0.4958  0.0341
  287MOL0     H39588   7.587   7.828   6.125 -2.6444  2.3196 -0.4995
  287MOL0     H39589   7.432   7.983   6.193  1.8668  0.9517 -0.9690
  287MOL0     H39590   6.048   8.556   5.838 -2.0401  0.3177 -4.1603
  287MOL0     H39591   5.840   8.643   5.734 -0.1599  1.9699  1.1868
  287MOL0     H39592   5.310   8.360   5.696  0.2091 -0.2477 -0.1975
  287MOL0     H39593   5.114   8.417   5.566 -0.8978  0.1571 -2.0917
  287MOL0     H39594   5.063   8.852   5.484 -1.8279  1.4030 -0.7203
  287MOL0     H39595   5.128   8.794   5.335 -2.1373 -0.1502 -2.1051
  287MOL0     H39596   4.900   8.684   5.282  2.3914 -1.8388  1.4879
  287MOL0     H39597   4.915   8.858   5.263  1.6979 -1.5061 -0.7757
  287MOL0     H39598   4.793   8.691   5.482  2.9382  0.1602  0.7541
  287MOL0     H39599   4.826   8.852   5.525 -2.3330  0.3228  2.3779
  287MOL0     H39600   4.695   8.940   5.331 -2.5152  0.0011  0.0596
  287MOL0     H39601   4.593   8.855   5.438 -0.1432  1.6579 -0.2361
  287MOL0     H39602   4.560   8.606   5.093  2.4530 -1.3901  0.7743
  287MOL0     H39603   5.274   8.823   5.533  2.0508 -1.2442 -1.7288
  287MOL0     H39604   5.593   8.755   5.583  1.1669  2.0173 -1.1858
  287MOL0     H39605   5.470   8.878   5.575 -0.3049  0.3132  0.6274
  287MOL0     H39606   5.517   8.828   5.732  2.0153  0.1839 -1.3593
  288MOL0     O39607   1.409   0.679   0.895  0.5748  0.6238 -0.3667
  288MOL0     C39608   1.324   0.594   0.881 -1.3981 -0.0760 -0.1287
  288MOL0     O39609   1.321   0.507   0.774 -0.5243  0.2105 -0.3455
  288MOL0     C39610   1.405   0.529   0.661  0.3794  0.6757 -0.9804
  288MOL0     C39611   1.351   0.580   0.546  1.2842 -1.0953  0.0160
  288MOL0     C39612   1.421   0.600   0.429 -0.5670 -0.5159  0.0094
  288MOL0     C39613   1.556   0.567   0.420  0.5965 -0.7802  0.9198
  288MOL0     O39614   1.610   0.579   0.296  0.0369  0.3613 -0.0849
  288MOL0     C39615   1.736   0.640   0.283  0.5560 -0.8080 -0.5759
  288MOL0     C39616   1.801   0.621   0.154 -0.0174  0.1533  0.1298
  288MOL0     C39617   1.952   0.606   0.173 -0.3849  0.3075 -0.1464
  288MOL0     C39618   2.015   0.606   0.031  0.0032 -0.3090 -0.2049
  288MOL0     C39619   2.166   0.618   0.029 -1.0419 -0.5472  0.3446
  288MOL0     C39620   2.229   0.621  -0.111  0.0595  0.4435  0.3481
  288MOL0     C39621   2.377   0.632  -0.114  0.1865  0.4459 -0.4008
  288MOL0     C39622   2.436   0.763  -0.075  0.1325  0.6313 -0.5875
  288MOL0     N39623   2.584   0.773  -0.081 -0.0053 -1.0284 -1.3711
  288MOL0     C39624   2.668   0.749  -0.189  0.4924 -0.4716  0.2226
  288MOL0     C39625   2.792   0.772  -0.151 -1.0600  0.5523  0.5091
  288MOL0     C39626   2.909   0.760  -0.246 -0.0020 -0.5295  0.0681
  288MOL0     C39627   3.012   0.642  -0.222 -0.3497  0.8718  0.1503
  288MOL0     C39628   3.057   0.621  -0.083  0.3995 -0.2061  0.6525
  288MOL0     C39629   3.192   0.561  -0.076 -0.0230  0.1242 -0.5509
  288MOL0     O39630   3.220   0.449  -0.170  0.5930  0.1657  0.3136
  288MOL0     C39631   3.352   0.430  -0.182  0.3077 -0.8562  0.4176
  288MOL0     C39632   3.410   0.519  -0.273  0.4176  0.5850 -0.7127
  288MOL0     C39633   3.547   0.504  -0.310  1.1811  0.9556  0.3213
  288MOL0     C39634   3.618   0.607  -0.388 -0.1420  0.1020  0.1371
  288MOL0     C39635   3.617   0.389  -0.254  0.2198 -1.2626  0.1489
  288MOL0     C39636   3.760   0.355  -0.286 -0.5605 -0.0496  0.9994
  288MOL0     O39637   3.812   0.257  -0.207 -0.5317 -0.6579 -0.0797
  288MOL0     C39638   3.915   0.179  -0.265 -0.4695 -0.1631 -0.0453
  288MOL0     C39639   4.037   0.164  -0.200 -0.2667  0.4556 -0.0550
  288MOL0     C39640   4.147   0.099  -0.255 -0.1990  0.0874 -0.4513
  288MOL0     C39641   4.131   0.038  -0.382  0.7546 -0.2868  0.5231
  288MOL0     O39642   4.235  -0.026  -0.452  0.4692  0.1234 -0.2928
  288MOL0     C39643   4.369   0.012  -0.404  0.3906 -0.1393 -0.5051
  288MOL0     C39644   4.475  -0.074  -0.470 -0.4961 -0.3493  0.8782
  288MOL0     C39645   4.612  -0.022  -0.449 -0.0219  0.0383 -0.3076
  288MOL0     C39646   4.716  -0.128  -0.486 -0.0147  0.5181  0.0165
  288MOL0     C39647   4.850  -0.092  -0.442  0.9201  0.0643  1.2396
  288MOL0     C39648   4.963  -0.199  -0.471 -0.5034  0.3744  0.1441
  288MOL0     C39649   5.093  -0.150  -0.417 -0.5351 -0.3573 -0.0417
  288MOL0     C39650   5.185  -0.271  -0.373  0.3843  0.7105 -0.1198
  288MOL0    Cl39651   5.345  -0.202  -0.329  0.0934  0.1095 -0.0781
  288MOL0     C39652   4.015   0.054  -0.451  0.5721  0.1344 -0.1986
  288MOL0     C39653   3.905   0.113  -0.389 -0.1097 -0.0731  0.5325
  288MOL0     O39654   3.808   0.399  -0.394 -0.4685 -0.1441 -0.6870
  288MOL0     C39655   3.554   0.309  -0.163 -0.1353 -0.2731 -0.2021
  288MOL0     C39656   3.422   0.331  -0.126  0.3003 -0.6526 -0.0306
  288MOL0     N39657   2.799   0.802  -0.019  0.8824 -0.1504  0.2592
  288MOL0     N39658   2.673   0.806   0.023 -0.2381 -0.0487  0.1689
  288MOL0     C39659   1.613   0.518   0.529 -0.6906  0.8229 -0.3443
  288MOL0     C39660   1.544   0.501   0.654 -0.5528  0.8982 -0.9300
  288MOL0     C39661   1.213   0.604   0.980 -1.1559 -0.4749 -0.1949
  288MOL0     C39662   1.237   0.668   1.100  0.2095  0.0080  0.5839
  288MOL0     C39663   1.132   0.698   1.187  0.2849  0.9805  0.0728
  288MOL0     C39664   0.995   0.650   1.166 -0.5169  0.5291 -0.1002
  288MOL0     O39665   0.884   0.665   1.244 -0.4345  0.0174  0.5632
  288MOL0     C39666   0.904   0.735   1.362  0.7360  0.0595  0.2814
  288MOL0     C39667   0.778   0.746   1.455 -0.4912 -0.3516 -0.6236
  288MOL0     C39668   0.745   0.609   1.515  0.2436  0.3599 -0.0568
  288MOL0     C39669   0.595   0.604   1.563  0.7302  0.2495 -0.3942
  288MOL0     C39670   0.580   0.496   1.662 -0.8499 -0.1858 -0.7894
  288MOL0     C39671   0.564   0.414   1.756  0.3172  0.2214 -0.4258
  288MOL0     C39672   0.977   0.598   1.040  0.3857  0.1877  1.0337
  288MOL0     C39673   1.080   0.566   0.948  0.2250 -0.8102 -0.4006
  288MOL0     C39674   1.046   0.488   0.828  0.0997  0.0977 -0.1077
  288MOL0     H39675   1.245   0.599   0.541  1.6123  3.1131  3.1369
  288MOL0     H39676   1.375   0.633   0.336 -3.4511 -1.5506  0.9493
  288MOL0     H39677   1.807   0.617   0.362  1.2984 -3.4872 -1.9142
  288MOL0     H39678   1.718   0.748   0.289  0.5566 -0.5792 -3.4360
  288MOL0     H39679   1.770   0.522   0.119  1.6353 -0.3411 -0.0106
  288MOL0     H39680   1.773   0.695   0.079 -3.7176 -0.8772  0.3031
  288MOL0     H39681   1.987   0.685   0.240 -0.6261 -0.4494  0.9013
  288MOL0     H39682   1.960   0.508   0.222  1.7455  0.5322  0.0756
  288MOL0     H39683   1.979   0.517  -0.021 -3.4424  0.1536  1.1077
  288MOL0     H39684   1.976   0.685  -0.034  1.5834 -1.1665 -2.3367
  288MOL0     H39685   2.204   0.536   0.090  0.9728 -0.1807 -0.3640
  288MOL0     H39686   2.182   0.717   0.073 -0.1034  0.6768 -2.5083
  288MOL0     H39687   2.209   0.532  -0.171  0.5246  1.3513 -1.1961
  288MOL0     H39688   2.182   0.708  -0.158 -1.0271 -0.1386  0.3171
  288MOL0     H39689   2.415   0.622  -0.216  1.8414 -1.0624  0.3242
  288MOL0     H39690   2.419   0.549  -0.058 -1.1158  0.1840  0.2324
  288MOL0     H39691   2.392   0.836  -0.144 -0.8628 -0.8042 -1.5229
  288MOL0     H39692   2.409   0.788   0.028 -0.8655  0.3670 -0.7766
  288MOL0     H39693   2.631   0.715  -0.285 -2.3657  1.6899  0.4513
  288MOL0     H39694   2.969   0.849  -0.229  1.5536 -0.8528 -3.0725
  288MOL0     H39695   2.874   0.753  -0.349  1.6460  3.2030 -0.8824
  288MOL0     H39696   2.968   0.550  -0.262 -0.6576  1.0825 -0.0063
  288MOL0     H39697   3.103   0.659  -0.279  1.1489 -1.5466  1.6618
  288MOL0     H39698   3.060   0.718  -0.033  0.4392 -1.1033  2.4638
  288MOL0     H39699   2.987   0.560  -0.027 -0.8992  0.0451 -0.6440
  288MOL0     H39700   3.252   0.651  -0.095 -3.2573  2.4487 -0.5505
  288MOL0     H39701   3.213   0.526   0.025  0.9515 -1.4426 -1.2616
  288MOL0     H39702   3.351   0.598  -0.319 -1.0312  0.2195  0.4285
  288MOL0     H39703   3.567   0.702  -0.407  1.8044  1.2348  0.2993
  288MOL0     H39704   3.622   0.561  -0.487  0.7156  3.2049 -1.3856
  288MOL0     H39705   3.716   0.629  -0.344 -0.0343  1.1176 -0.5890
  288MOL0     H39706   4.049   0.211  -0.103 -0.1196  0.3975 -0.0453
  288MOL0     H39707   4.237   0.106  -0.195 -0.3760  1.7135 -0.3105
  288MOL0     H39708   4.376   0.121  -0.412  0.3215  0.3267  3.7909
  288MOL0     H39709   4.385  -0.017  -0.300 -0.5108 -1.6235 -0.7657
  288MOL0     H39710   4.461  -0.175  -0.429  2.0164 -1.0213  0.2756
  288MOL0     H39711   4.454  -0.082  -0.577 -4.0192 -1.3008  1.5236
  288MOL0     H39712   4.628   0.021  -0.349 -0.3365  2.6370 -1.2924
  288MOL0     H39713   4.630   0.065  -0.512 -1.3048  0.0896 -0.6298
  288MOL0     H39714   4.718  -0.141  -0.595 -0.0053 -0.3054  0.1134
  288MOL0     H39715   4.697  -0.219  -0.428  0.4816  0.6614  0.4058
  288MOL0     H39716   4.886   0.002  -0.486 -1.3887 -0.2823 -1.7131
  288MOL0     H39717   4.841  -0.074  -0.334  0.9257  0.4637  1.1776
  288MOL0     H39718   4.974  -0.217  -0.578  0.2951 -1.0824  0.4498
  288MOL0     H39719   4.928  -0.295  -0.430 -0.4211  0.2113 -0.1694
  288MOL0     H39720   5.076  -0.082  -0.334 -0.6130  1.6377 -1.6229
  288MOL0     H39721   5.152  -0.091  -0.488 -1.2293 -1.6768 -1.8069
  288MOL0     H39722   5.205  -0.346  -0.450 -2.9704  0.1374 -0.5940
  288MOL0     H39723   5.152  -0.324  -0.283  1.4650  0.6786  0.2781
  288MOL0     H39724   4.001  -0.003  -0.542 -2.2851  0.7465 -0.2484
  288MOL0     H39725   3.810   0.107  -0.442 -0.9781 -0.6149  2.0803
  288MOL0     H39726   3.608   0.231  -0.112  0.3682  0.5645  0.5836
  288MOL0     H39727   3.376   0.260  -0.058 -1.2782 -0.8368 -1.2309
  288MOL0     H39728   1.717   0.486   0.530  0.6060  4.5852 -0.5920
  288MOL0     H39729   1.587   0.463   0.746 -0.8199  1.8378 -0.3970
  288MOL0     H39730   1.333   0.704   1.133  1.2678 -1.0278 -1.2109
  288MOL0     H39731   1.157   0.752   1.278  1.1905  0.2594  0.2758
  288MOL0     H39732   0.980   0.684   1.421 -0.7813 -0.1854  2.1196
  288MOL0     H39733   0.930   0.838   1.334  0.3265  0.5103  1.5064
  288MOL0     H39734   0.709   0.805   1.395 -0.3784 -0.0395 -0.4486
  288MOL0     H39735   0.806   0.817   1.534 -1.4332  0.5858 -1.1128
  288MOL0     H39736   0.755   0.540   1.431  1.6702  2.3741 -1.6539
  288MOL0     H39737   0.813   0.583   1.597 -1.3645 -0.7843  0.9904
  288MOL0     H39738   0.526   0.581   1.481  2.0620 -3.3010 -0.6856
  288MOL0     H39739   0.552   0.696   1.604 -2.8220 -1.0471 -0.8612
  288MOL0     H39740   0.550   0.341   1.833  0.1261  0.0767 -0.5983
  288MOL0     H39741   0.878   0.563   1.015  0.4874  1.8128 -2.1276
  288MOL0     H39742   1.072   0.539   0.735 -1.4239 -0.9982 -1.1911
  288MOL0     H39743   1.079   0.384   0.838 -2.5180 -0.8520 -0.4935
  288MOL0     H39744   0.937   0.476   0.823 -0.2709  3.0521 -1.5210
  289MOL0     O39745   9.794   1.301   8.717  0.3266 -0.3174 -0.3458
  289MOL0     C39746   9.761   1.280   8.598 -0.3844 -0.8720 -0.2660
  289MOL0     O39747   9.848   1.295   8.488 -0.2732 -0.2461  0.2761
  289MOL0     C39748   9.985   1.298   8.499 -0.4731  0.5066  1.0512
  289MOL0     C39749  10.053   1.224   8.599 -0.2252 -0.4979 -0.6640
  289MOL0     C39750  10.195   1.218   8.599  0.1248 -0.2246  0.5394
  289MOL0     C39751  10.268   1.286   8.503 -0.3827  0.2097  0.3698
  289MOL0     O39752  10.407   1.274   8.505  0.4120 -0.6708 -0.2955
  289MOL0     C39753  10.467   1.236   8.382  0.1100  0.3479  0.2833
  289MOL0     C39754  10.614   1.204   8.400  0.4551 -0.1387  0.0327
  289MOL0     C39755  10.700   1.327   8.444  0.3495 -0.4788  0.2410
  289MOL0     C39756  10.849   1.322   8.449 -0.0632 -0.8521 -0.3684
  289MOL0     C39757  10.919   1.447   8.505  0.0024 -0.4546  0.1908
  289MOL0     C39758  11.067   1.431   8.486 -0.2970  0.1189 -0.6143
  289MOL0     C39759  11.147   1.533   8.566  0.2916 -0.4531  0.4921
  289MOL0     C39760  11.299   1.519   8.537  0.0073  0.2116 -0.0352
  289MOL0     N39761  11.348   1.398   8.594 -0.2229  0.4086 -0.8417
  289MOL0     C39762  11.334   1.358   8.725 -0.1876 -0.0312 -0.0081
  289MOL0     C39763  11.418   1.249   8.751  0.0849  0.2312  0.7577
  289MOL0     C39764  11.424   1.159   8.874  0.3263  0.7105 -1.3212
  289MOL0     C39765  11.459   1.231   9.003  1.0855 -0.1028  0.2298
  289MOL0     C39766  11.526   1.151   9.116 -0.1578 -0.0662  0.0631
  289MOL0     C39767  11.503   1.200   9.258 -0.1372 -0.5289 -0.0040
  289MOL0     O39768  11.542   1.343   9.274 -1.2620  0.6717 -0.4441
  289MOL0     C39769  11.675   1.379   9.275  0.6823 -0.8705 -0.1455
  289MOL0     C39770  11.704   1.513   9.263 -0.4991 -0.1993 -0.6955
  289MOL0     C39771  11.838   1.563   9.264  1.0245 -1.2853  0.4919
  289MOL0     C39772  11.856   1.718   9.258  0.1785 -0.2149 -0.7164
  289MOL0     C39773  11.942   1.472   9.281  0.7173  0.3251  0.6600
  289MOL0     C39774  12.080   1.518   9.289 -0.1945 -0.3858  0.7403
  289MOL0     O39775  12.175   1.435   9.225 -0.5344  0.0687  0.7512
  289MOL0     C39776  12.296   1.500   9.183  0.0185 -0.0868 -0.0587
  289MOL0     C39777  12.389   1.570   9.268  0.3908 -0.2587 -0.3252
  289MOL0     C39778  12.501   1.639   9.211 -0.0349  0.5733  0.5658
  289MOL0     C39779  12.533   1.623   9.072 -0.5478  0.2485 -0.6056
  289MOL0     O39780  12.637   1.699   9.029  0.1471  0.1863 -0.7859
  289MOL0     C39781  12.729   1.626   8.952 -0.2960  0.1237  1.0849
  289MOL0     C39782  12.860   1.703   8.939 -0.1335  0.8093 -0.4260
  289MOL0     C39783  12.858   1.817   8.832  0.2090  0.5962 -0.5152
  289MOL0     C39784  12.989   1.895   8.819  0.2650 -0.1416  0.6904
  289MOL0     C39785  12.958   2.044   8.777 -0.6459  0.7313  0.3652
  289MOL0     C39786  13.081   2.130   8.746  0.3050 -0.5491  0.8585
  289MOL0     C39787  13.031   2.275   8.714  0.6052  0.0004  0.6033
  289MOL0     C39788  13.135   2.386   8.736  0.0384  0.6220 -0.2394
  289MOL0    Cl39789  13.251   2.383   8.603  0.3551  0.0380  0.0143
  289MOL0     C39790  12.444   1.550   8.988  0.5365 -0.5063 -0.5589
  289MOL0     C39791  12.327   1.498   9.046  0.5702 -1.0310  1.0828
  289MOL0     O39792  12.111   1.621   9.349  0.0845 -0.5886 -0.2373
  289MOL0     C39793  11.910   1.340   9.278 -0.4884 -0.2736  0.1435
  289MOL0     C39794  11.775   1.295   9.278  1.1348 -0.1687 -0.3995
  289MOL0     N39795  11.491   1.230   8.632 -0.8010 -0.1939  0.6699
  289MOL0     N39796  11.460   1.327   8.555  0.8184 -0.3539  0.2880
  289MOL0     C39797  10.202   1.355   8.410  0.0830  0.5615  0.1990
  289MOL0     C39798  10.062   1.367   8.395  0.2226 -0.6583 -0.5295
  289MOL0     C39799   9.614   1.265   8.560 -1.0720 -0.3299 -0.3382
  289MOL0     C39800   9.575   1.284   8.430  0.1084  0.5325 -0.4257
  289MOL0     C39801   9.437   1.282   8.387 -0.4455  0.2479 -0.3526
  289MOL0     C39802   9.337   1.269   8.487  0.2661 -0.4797  0.4801
  289MOL0     O39803   9.202   1.265   8.461  1.3870  0.1322 -0.2140
  289MOL0     C39804   9.151   1.294   8.332  0.2601  0.2728  0.5015
  289MOL0     C39805   8.998   1.256   8.328 -0.3877 -0.3025  0.0561
  289MOL0     C39806   8.987   1.107   8.346  0.4439  0.0428  0.4055
  289MOL0     C39807   8.846   1.056   8.320 -0.6122 -0.3161  0.2301
  289MOL0     C39808   8.805   0.970   8.427 -0.9821  0.3322  0.1922
  289MOL0     C39809   8.794   0.880   8.514 -0.3925 -0.6818  0.1566
  289MOL0     C39810   9.378   1.247   8.612  1.4167 -0.6770  0.0024
  289MOL0     C39811   9.508   1.252   8.652  1.1958  0.8860 -0.0601
  289MOL0     C39812   9.534   1.240   8.803 -0.2757 -1.3898  0.3904
  289MOL0     H39813  10.009   1.172   8.683  0.2678  1.6696  1.0205
  289MOL0     H39814  10.262   1.154   8.655  1.8917 -0.1816 -1.3876
  289MOL0     H39815  10.451   1.323   8.317 -3.3403  0.1314  0.6628
  289MOL0     H39816  10.417   1.151   8.333  2.6403  0.2345 -2.4197
  289MOL0     H39817  10.626   1.121   8.470 -1.1481  0.8252  1.5322
  289MOL0     H39818  10.650   1.173   8.302 -3.2858  0.7169 -1.7998
  289MOL0     H39819  10.666   1.411   8.383 -1.6891 -1.8521 -0.6108
  289MOL0     H39820  10.658   1.355   8.541  0.3054  0.8735 -0.1496
  289MOL0     H39821  10.882   1.232   8.502  0.1021 -0.1716  0.7031
  289MOL0     H39822  10.886   1.317   8.346  3.1237  1.0886  0.5256
  289MOL0     H39823  10.886   1.457   8.609 -1.4721 -1.9163 -0.0849
  289MOL0     H39824  10.878   1.532   8.449 -0.1968 -1.5564 -1.4191
  289MOL0     H39825  11.085   1.328   8.520 -2.3423 -0.2995 -0.6596
  289MOL0     H39826  11.082   1.459   8.382 -2.0175  3.2425 -0.1182
  289MOL0     H39827  11.139   1.516   8.673  0.5620 -0.1000  0.5711
  289MOL0     H39828  11.119   1.638   8.550 -2.8881 -1.1730  0.5833
  289MOL0     H39829  11.315   1.506   8.429 -3.6069 -1.3289 -0.5508
  289MOL0     H39830  11.353   1.604   8.578  1.0922  0.0334 -1.0117
  289MOL0     H39831  11.276   1.402   8.806 -0.2638 -0.5937  0.2454
  289MOL0     H39832  11.501   1.084   8.853  1.1623  0.8470  0.9199
  289MOL0     H39833  11.335   1.097   8.886 -0.8669  2.7651  2.1204
  289MOL0     H39834  11.523   1.314   8.974  0.5324  0.4238  0.4773
  289MOL0     H39835  11.367   1.273   9.045  2.9241  4.0581  0.5905
  289MOL0     H39836  11.477   1.053   9.112 -0.1358 -0.0579 -0.5055
  289MOL0     H39837  11.632   1.146   9.090  0.1284  2.2446  0.5684
  289MOL0     H39838  11.402   1.198   9.299 -0.7993 -0.1391 -1.5508
  289MOL0     H39839  11.559   1.139   9.330  0.9847  1.6804  1.1169
  289MOL0     H39840  11.622   1.584   9.251  0.2128  0.4753 -1.6585
  289MOL0     H39841  11.945   1.745   9.201  0.3079  1.4762  0.2216
  289MOL0     H39842  11.865   1.768   9.355  1.1417  3.4180 -2.5103
  289MOL0     H39843  11.770   1.768   9.215  0.4484  0.9517  0.0502
  289MOL0     H39844  12.359   1.591   9.371  1.4086  1.2550 -0.2970
  289MOL0     H39845  12.566   1.701   9.272  3.1288  1.2832 -3.1564
  289MOL0     H39846  12.763   1.540   9.011 -0.1916 -0.2863  0.4332
  289MOL0     H39847  12.700   1.597   8.851 -1.7948  2.6854  0.7055
  289MOL0     H39848  12.878   1.756   9.034  1.2973  1.3419 -0.9741
  289MOL0     H39849  12.936   1.626   8.928 -1.1650 -0.6040  1.5613
  289MOL0     H39850  12.771   1.880   8.856 -1.4821 -1.9729  0.5131
  289MOL0     H39851  12.836   1.775   8.734 -1.5485  1.3469 -0.4844
  289MOL0     H39852  13.051   1.835   8.751  1.7546  3.1820 -1.1095
  289MOL0     H39853  13.049   1.892   8.910  1.0723  2.8994  0.3556
  289MOL0     H39854  12.897   2.029   8.688  0.5603  0.8569 -0.4999
  289MOL0     H39855  12.896   2.097   8.850 -1.4137  0.9458 -0.4322
  289MOL0     H39856  13.133   2.099   8.655 -3.2931 -0.3154 -1.4895
  289MOL0     H39857  13.145   2.131   8.834  0.0637 -1.2655  1.0415
  289MOL0     H39858  12.936   2.291   8.766 -0.9651 -2.3902 -1.3066
  289MOL0     H39859  13.001   2.278   8.609  1.7482 -1.6477  0.1961
  289MOL0     H39860  13.190   2.379   8.831  0.9357  2.5140 -0.5689
  289MOL0     H39861  13.089   2.485   8.744 -0.9156  0.0912  1.4974
  289MOL0     H39862  12.469   1.526   8.885  1.5132 -2.5419  0.1095
  289MOL0     H39863  12.259   1.435   8.990 -1.0996  1.5023  0.0270
  289MOL0     H39864  11.990   1.269   9.296 -0.4801  0.7020  5.5856
  289MOL0     H39865  11.764   1.188   9.291  1.0302 -0.4974 -2.7758
  289MOL0     H39866  10.264   1.409   8.339  1.7487 -0.9075  0.4704
  289MOL0     H39867  10.015   1.426   8.317 -3.4423 -2.7581 -0.1707
  289MOL0     H39868   9.643   1.302   8.347  1.2041 -2.9584 -0.4738
  289MOL0     H39869   9.403   1.293   8.285 -0.1435  1.4139 -0.3462
  289MOL0     H39870   9.160   1.401   8.311  0.0351  0.8046  2.8190
  289MOL0     H39871   9.199   1.235   8.254 -1.3234  0.4747 -0.6829
  289MOL0     H39872   8.957   1.284   8.231  1.9691  0.3388 -0.8340
  289MOL0     H39873   8.949   1.310   8.409  2.4249  2.3957  0.1559
  289MOL0     H39874   9.056   1.049   8.284  0.1601  1.5006 -1.3760
  289MOL0     H39875   9.020   1.090   8.449  2.0099  2.8579  0.4499
  289MOL0     H39876   8.842   1.000   8.226  2.5626 -0.5443  0.1411
  289MOL0     H39877   8.774   1.138   8.323  0.6216  0.7990  0.3631
  289MOL0     H39878   8.792   0.805   8.590 -1.7730 -0.4152  0.4222
  289MOL0     H39879   9.294   1.227   8.677 -0.7424  2.1373 -1.6575
  289MOL0     H39880   9.438   1.220   8.851 -0.5384  0.6020  0.7932
  289MOL0     H39881   9.608   1.163   8.825  0.3992 -0.4230  1.5817
  289MOL0     H39882   9.577   1.327   8.853  0.6800 -1.7039  0.1292
  290MOL0     O39883   8.255   1.797  10.912  0.3789 -0.0353  0.6056
  290MOL0     C39884   8.184   1.699  10.921 -0.1165 -0.3249  0.2723
  290MOL0     O39885   8.077   1.675  10.840  0.0202  0.2978  0.2136
  290MOL0     C39886   8.003   1.763  10.762 -0.5970 -0.2071 -0.2765
  290MOL0     C39887   7.913   1.698  10.676  0.7811  0.1221  0.1249
  290MOL0     C39888   7.819   1.765  10.595 -0.4674 -0.0092 -0.0743
  290MOL0     C39889   7.819   1.909  10.604  0.5542  0.2409 -0.3358
  290MOL0     O39890   7.738   1.984  10.521 -0.6736 -0.5683 -0.0107
  290MOL0     C39891   7.632   1.915  10.452  0.0781 -0.5027  0.8001
  290MOL0     C39892   7.560   2.014  10.366  0.7546 -0.1056 -1.0444
  290MOL0     C39893   7.650   2.082  10.267  0.0480 -0.0891 -0.0532
  290MOL0     C39894   7.584   2.207  10.204 -0.6791 -0.5812 -0.3615
  290MOL0     C39895   7.672   2.265  10.091  0.6069 -0.5487 -0.0533
  290MOL0     C39896   7.608   2.393  10.032 -0.1675  0.1725 -0.5215
  290MOL0     C39897   7.583   2.508  10.134 -1.0102  0.2223 -0.0216
  290MOL0     C39898   7.571   2.647  10.078  0.3122  0.1856 -0.3158
  290MOL0     N39899   7.695   2.704  10.018 -0.0083 -0.2281 -0.2589
  290MOL0     C39900   7.793   2.780  10.082 -0.5057  0.0991 -0.1502
  290MOL0     C39901   7.869   2.830   9.979 -0.1348  0.3712  0.7946
  290MOL0     C39902   7.967   2.949   9.989 -0.5945  0.2427 -1.0127
  290MOL0     C39903   7.905   3.057  10.068  0.0134 -0.1099 -0.7181
  290MOL0     C39904   7.982   3.188  10.097 -0.5290 -0.1307 -0.1597
  290MOL0     C39905   7.883   3.287  10.156 -0.5338  0.4317  0.1678
  290MOL0     O39906   7.931   3.421  10.143  0.1821  0.9372  0.2487
  290MOL0     C39907   8.017   3.455  10.241  0.5542  0.6403 -0.0410
  290MOL0     C39908   7.974   3.514  10.362  0.1275 -1.4162 -0.5663
  290MOL0     C39909   8.072   3.586  10.446 -0.8940  0.2604  0.1537
  290MOL0     C39910   8.011   3.670  10.558 -0.7946  0.2793  0.4017
  290MOL0     C39911   8.213   3.574  10.400 -0.1076 -0.1044  0.7541
  290MOL0     C39912   8.323   3.642  10.477 -0.7035  0.9247  0.9907
  290MOL0     O39913   8.432   3.678  10.399  0.2014  0.4956 -0.5851
  290MOL0     C39914   8.558   3.705  10.456 -0.4761  0.9647 -0.2436
  290MOL0     C39915   8.601   3.661  10.586 -0.4159  0.3263 -0.0344
  290MOL0     C39916   8.732   3.684  10.620  1.0184 -0.5441 -0.2808
  290MOL0     C39917   8.830   3.739  10.539  0.6260 -0.3634  0.5031
  290MOL0     O39918   8.960   3.768  10.560  0.0961  0.0230  0.0424
  290MOL0     C39919   8.991   3.764  10.702 -0.2505 -0.1016  0.7774
  290MOL0     C39920   9.135   3.832  10.718  0.0344 -0.4500  0.4304
  290MOL0     C39921   9.203   3.834  10.858  0.1590  0.8482 -0.1975
  290MOL0     C39922   9.252   3.964  10.901 -0.3025 -0.4754  0.1693
  290MOL0     C39923   9.374   4.032  10.835  0.0728  0.9191 -0.0357
  290MOL0     C39924   9.497   3.944  10.818 -0.3325  0.3183 -0.1183
  290MOL0     C39925   9.549   3.866  10.940 -0.2240  1.0486 -0.3693
  290MOL0     C39926   9.668   3.773  10.913  0.5955  0.3751  0.2929
  290MOL0    Cl39927   9.803   3.878  10.845  0.1333 -0.0910 -0.1704
  290MOL0     C39928   8.784   3.790  10.419 -0.0047 -0.5460 -0.6400
  290MOL0     C39929   8.653   3.765  10.369 -0.2357 -0.2531 -0.5396
  290MOL0     O39930   8.319   3.649  10.599  0.2576 -0.3173  0.1636
  290MOL0     C39931   8.251   3.507  10.289 -0.2933  0.1613  0.9018
  290MOL0     C39932   8.153   3.444  10.210  0.2171  0.6848 -0.4438
  290MOL0     N39933   7.827   2.789   9.858  0.5529  0.1314  0.3205
  290MOL0     N39934   7.736   2.706   9.890 -0.4997  0.5078 -0.0408
  290MOL0     C39935   7.912   1.979  10.680  0.0605  0.6701  0.0981
  290MOL0     C39936   8.004   1.908  10.767  0.2159  0.3590  0.2886
  290MOL0     C39937   8.221   1.595  11.023 -0.7078  0.7525 -0.0209
  290MOL0     C39938   8.127   1.501  11.050 -0.1619  0.0977 -0.6170
  290MOL0     C39939   8.147   1.394  11.134  0.0697 -0.0690 -1.9137
  290MOL0     C39940   8.270   1.383  11.208  0.6150  0.1978 -0.2969
  290MOL0     O39941   8.297   1.272  11.288 -0.0227  0.2844 -0.6625
  290MOL0     C39942   8.250   1.287  11.420  0.3714  0.4460  0.6421
  290MOL0     C39943   8.096   1.262  11.428 -0.5495  0.6318 -0.9270
  290MOL0     C39944   8.055   1.117  11.363 -0.3504  0.9940 -0.1992
  290MOL0     C39945   7.920   1.066  11.414 -0.7772  1.1047  0.3130
  290MOL0     C39946   7.883   0.934  11.363 -0.1195 -0.2911 -0.2264
  290MOL0     C39947   7.844   0.820  11.339 -0.1131 -0.1362 -0.1930
  290MOL0     C39948   8.366   1.483  11.192 -0.0591 -0.0280 -0.3533
  290MOL0     C39949   8.344   1.587  11.098 -0.1836 -0.1339  0.1861
  290MOL0     C39950   8.459   1.685  11.083  0.7921  0.0714  0.1727
  290MOL0     H39951   7.911   1.590  10.667 -1.1420  0.2705 -2.4035
  290MOL0     H39952   7.753   1.709  10.528 -2.0351  0.8781  0.6647
  290MOL0     H39953   7.561   1.874  10.524 -2.9273 -1.7063 -2.5551
  290MOL0     H39954   7.671   1.835  10.388 -0.7114 -3.7582  4.0045
  290MOL0     H39955   7.474   1.965  10.319 -0.3111  1.9568 -1.3297
  290MOL0     H39956   7.523   2.091  10.434 -2.3765  0.9123 -3.6383
  290MOL0     H39957   7.737   2.116  10.324  0.9415 -1.1428 -0.7530
  290MOL0     H39958   7.676   2.006  10.193 -0.4722 -1.3773  1.0398
  290MOL0     H39959   7.482   2.190  10.171 -1.6266  2.1025  0.9233
  290MOL0     H39960   7.578   2.283  10.283  0.5116  2.0370 -2.6218
  290MOL0     H39961   7.674   2.179  10.023 -2.4612 -1.4740  0.8544
  290MOL0     H39962   7.773   2.275  10.131  0.9915 -3.9567  0.0958
  290MOL0     H39963   7.665   2.425   9.945  0.7394  0.3853  0.1372
  290MOL0     H39964   7.514   2.358   9.988  1.7647 -3.3386 -2.3370
  290MOL0     H39965   7.674   2.514  10.194  1.2306  0.1424 -3.1930
  290MOL0     H39966   7.495   2.483  10.195 -0.1038 -0.5704  0.9983
  290MOL0     H39967   7.492   2.644  10.002  0.4487 -1.2279 -0.4358
  290MOL0     H39968   7.534   2.709  10.159  0.4687 -0.6135  0.3811
  290MOL0     H39969   7.804   2.801  10.188  3.3175 -1.4035 -0.0714
  290MOL0     H39970   7.996   2.980   9.888 -2.3019 -0.7202 -1.8443
  290MOL0     H39971   8.061   2.911  10.031 -1.6558 -1.7027 -0.2299
  290MOL0     H39972   7.808   3.066  10.019  0.9877 -1.4213 -3.0400
  290MOL0     H39973   7.880   3.019  10.167 -2.3106 -1.0787 -1.6076
  290MOL0     H39974   8.058   3.174  10.173 -2.7588 -0.9880  2.0633
  290MOL0     H39975   8.033   3.237  10.013 -1.9840  1.2602 -0.2766
  290MOL0     H39976   7.799   3.274  10.088 -0.2268 -1.7104  0.1205
  290MOL0     H39977   7.851   3.257  10.256  0.7781 -0.6370  0.3031
  290MOL0     H39978   7.869   3.520  10.389 -0.7179 -1.5033 -3.4533
  290MOL0     H39979   8.070   3.761  10.574 -0.5545  0.2504 -0.2514
  290MOL0     H39980   8.014   3.634  10.661 -3.9797  1.4316  0.9983
  290MOL0     H39981   7.910   3.707  10.538 -0.3316 -0.5535 -5.5243
  290MOL0     H39982   8.546   3.600  10.657  1.7649 -1.2854  0.3959
  290MOL0     H39983   8.759   3.645  10.717 -1.1172 -2.0478 -0.2236
  290MOL0     H39984   8.914   3.798  10.772  0.1044 -2.0874  2.2350
  290MOL0     H39985   9.001   3.658  10.727  1.3081 -0.0092  0.6571
  290MOL0     H39986   9.202   3.798  10.638 -1.6505  1.9433 -2.2099
  290MOL0     H39987   9.113   3.938  10.698  1.7479 -0.2050 -0.3156
  290MOL0     H39988   9.283   3.759  10.852  0.4448  1.2069 -0.9916
  290MOL0     H39989   9.125   3.799  10.926  0.1561 -1.6091 -1.3565
  290MOL0     H39990   9.266   3.959  11.009  2.3256  0.4076 -0.0393
  290MOL0     H39991   9.170   4.035  10.889  0.9273  0.8018 -1.0756
  290MOL0     H39992   9.352   4.068  10.735  2.8107 -1.9314 -1.8370
  290MOL0     H39993   9.411   4.114  10.898  1.4783 -1.2287  2.1220
  290MOL0     H39994   9.582   4.006  10.790  2.3629 -2.0273  2.2598
  290MOL0     H39995   9.491   3.873  10.734  1.2456  0.6450 -0.5232
  290MOL0     H39996   9.468   3.803  10.979  0.5809 -0.5674 -1.2399
  290MOL0     H39997   9.565   3.936  11.023 -1.8632  3.8398 -2.2128
  290MOL0     H39998   9.636   3.699  10.839  0.6429 -0.6284  1.2500
  290MOL0     H39999   9.704   3.723  11.004  0.5884  0.9676  0.6216
  290MOL0     H40000   8.855   3.837  10.352 -1.0454  1.9742 -0.0954
  290MOL0     H40001   8.632   3.799  10.268 -0.1404  1.3487 -0.0573
  290MOL0     H40002   8.356   3.497  10.263 -0.0991  2.3467  0.5995
  290MOL0     H40003   8.184   3.371  10.136 -2.0143 -3.1690  2.0582
  290MOL0     H40004   7.905   2.086  10.666 -1.8611  0.4065 -1.4550
  290MOL0     H40005   8.080   1.961  10.824 -0.3948 -0.5155  1.9890
  290MOL0     H40006   8.030   1.483  11.006 -0.8574 -1.7405  1.4949
  290MOL0     H40007   8.086   1.305  11.142  3.0028 -2.0958  0.5324
  290MOL0     H40008   8.298   1.215  11.487 -1.7193 -0.9499  0.7203
  290MOL0     H40009   8.267   1.390  11.455  1.6867  0.6874 -0.6340
  290MOL0     H40010   8.053   1.347  11.376 -1.7961  0.2507 -0.5621
  290MOL0     H40011   8.049   1.267  11.526  0.8830 -0.8189 -0.1137
  290MOL0     H40012   8.055   1.103  11.254 -0.3256 -0.0781 -0.0721
  290MOL0     H40013   8.130   1.045  11.396 -0.5686  1.3677  1.1744
  290MOL0     H40014   7.841   1.137  11.387 -2.2836 -1.2849 -2.0667
  290MOL0     H40015   7.932   1.060  11.522  1.8400 -0.7393 -0.0079
  290MOL0     H40016   7.805   0.727  11.305 -1.1077 -0.6124  2.0405
  290MOL0     H40017   8.459   1.464  11.245 -0.3324 -1.2441 -0.2803
  290MOL0     H40018   8.546   1.642  11.133 -0.2637  1.0097  3.0010
  290MOL0     H40019   8.479   1.707  10.978 -0.0741  0.5925  0.1053
  290MOL0     H40020   8.431   1.777  11.135  0.6118  0.0071  0.1888
  291MOL0     O40021   1.723   5.860   2.540 -1.0011  0.0340  0.5376
  291MOL0     C40022   1.753   5.753   2.486 -0.2578  0.4209  0.3649
  291MOL0     O40023   1.868   5.680   2.518  0.0503  0.4493 -0.1587
  291MOL0     C40024   1.937   5.691   2.636  0.0527 -0.2999 -0.1210
  291MOL0     C40025   1.882   5.648   2.765  0.7245  1.1325  0.4289
  291MOL0     C40026   1.954   5.668   2.880  0.1460 -0.3075  0.0043
  291MOL0     C40027   2.088   5.706   2.877  0.0506 -0.6327 -0.5282
  291MOL0     O40028   2.165   5.714   2.995 -0.1862 -0.5086 -0.2710
  291MOL0     C40029   2.217   5.847   3.031  0.9468  0.0315  0.6708
  291MOL0     C40030   2.334   5.830   3.129  0.2185 -0.3604 -0.5268
  291MOL0     C40031   2.453   5.759   3.062 -0.7455  0.6128  0.5681
  291MOL0     C40032   2.528   5.852   2.963  0.2289  0.0972 -0.8569
  291MOL0     C40033   2.652   5.778   2.919 -0.1162  0.0313 -0.3387
  291MOL0     C40034   2.721   5.844   2.794 -0.6977  0.1489  0.3223
  291MOL0     C40035   2.867   5.791   2.776  0.3652 -0.0783 -0.2840
  291MOL0     C40036   2.877   5.637   2.756 -0.4068 -0.8532  0.6456
  291MOL0     N40037   3.019   5.600   2.762 -1.0372  0.7952 -0.7329
  291MOL0     C40038   3.091   5.554   2.877  0.3749 -0.4342  0.4919
  291MOL0     C40039   3.217   5.529   2.823  0.0560  0.2803 -0.2138
  291MOL0     C40040   3.343   5.490   2.895  0.2862 -0.3678 -0.2298
  291MOL0     C40041   3.309   5.416   3.027  0.0531  0.6158 -0.0080
  291MOL0     C40042   3.424   5.319   3.071  0.8111 -0.0713  0.5336
  291MOL0     C40043   3.408   5.272   3.214  0.5539  0.2756  0.2212
  291MOL0     O40044   3.518   5.182   3.253 -0.2002 -0.1195 -0.3161
  291MOL0     C40045   3.532   5.151   3.388 -0.5574  0.2141 -0.2787
  291MOL0     C40046   3.426   5.137   3.478  0.4079  0.7572  0.2395
  291MOL0     C40047   3.428   5.111   3.612  0.5905 -0.4969  0.7864
  291MOL0     C40048   3.290   5.101   3.684 -0.1620 -0.1846  0.0911
  291MOL0     C40049   3.555   5.098   3.666 -0.6824  0.4411  0.5377
  291MOL0     C40050   3.585   5.060   3.811  0.5337 -0.3389  0.3747
  291MOL0     O40051   3.717   5.013   3.825  0.1676 -0.0464  0.0750
  291MOL0     C40052   3.765   4.979   3.951 -0.1348  0.8281 -0.0648
  291MOL0     C40053   3.698   4.881   4.024  0.2277  0.5078 -0.2545
  291MOL0     C40054   3.757   4.833   4.142 -0.8157  0.2502  0.3206
  291MOL0     C40055   3.881   4.889   4.182 -0.4759 -0.4923  0.4379
  291MOL0     O40056   3.953   4.855   4.296  0.2390 -0.0556  0.8869
  291MOL0     C40057   3.901   4.741   4.374 -0.0317 -1.4761 -0.4136
  291MOL0     C40058   3.984   4.711   4.492  0.2889 -0.7284  0.2864
  291MOL0     C40059   3.992   4.833   4.592 -0.3134  0.1415 -0.4589
  291MOL0     C40060   4.106   4.807   4.694  0.7488  0.1503 -0.0416
  291MOL0     C40061   4.129   4.919   4.798  0.3126 -0.4539  0.1575
  291MOL0     C40062   4.227   4.891   4.911 -0.2183 -0.1891 -0.3557
  291MOL0     C40063   4.245   5.019   5.002  0.2486  0.2231  0.3904
  291MOL0     C40064   4.366   5.021   5.100  0.8403 -0.0943 -0.6294
  291MOL0    Cl40065   4.342   5.184   5.181  0.3957 -0.4539  0.2603
  291MOL0     C40066   3.932   4.998   4.113 -0.4028  0.8373 -1.4596
  291MOL0     C40067   3.881   5.039   3.989 -0.3568 -0.2806  0.2788
  291MOL0     O40068   3.502   5.075   3.900 -0.1325  0.5391 -0.5136
  291MOL0     C40069   3.665   5.115   3.577  0.0099  0.2052 -0.0934
  291MOL0     C40070   3.656   5.139   3.441 -0.9292  0.1235 -0.3339
  291MOL0     N40071   3.211   5.545   2.685  0.2417 -0.7126  0.0514
  291MOL0     N40072   3.098   5.588   2.650 -0.4967 -0.7711 -1.1190
  291MOL0     C40073   2.145   5.742   2.754 -0.9777 -0.6220 -1.3187
  291MOL0     C40074   2.072   5.736   2.640  0.3645 -0.3035 -0.1715
  291MOL0     C40075   1.692   5.720   2.353 -0.3114  0.1716  0.3681
  291MOL0     C40076   1.775   5.703   2.234  0.0376  0.6149 -0.4051
  291MOL0     C40077   1.722   5.690   2.104 -0.6072 -0.8462  0.4063
  291MOL0     C40078   1.587   5.699   2.092  0.1534 -0.2932 -0.0392
  291MOL0     O40079   1.525   5.696   1.973  0.4572 -0.0249  0.4949
  291MOL0     C40080   1.599   5.676   1.852 -1.0768  0.8021 -0.8068
  291MOL0     C40081   1.487   5.633   1.757 -0.1168 -0.4290 -0.0852
  291MOL0     C40082   1.533   5.567   1.626 -0.2292  0.1980  0.8753
  291MOL0     C40083   1.430   5.524   1.525  0.2251  0.1065  0.1629
  291MOL0     C40084   1.360   5.400   1.565  0.3670 -0.2527  0.2730
  291MOL0     C40085   1.304   5.305   1.611  0.5045  0.2525 -0.2062
  291MOL0     C40086   1.502   5.693   2.207  0.0544 -0.5137 -0.2146
  291MOL0     C40087   1.551   5.713   2.337 -0.1841  0.4351 -0.1393
  291MOL0     C40088   1.462   5.709   2.455  0.8283 -0.0926 -0.3364
  291MOL0     H40089   1.780   5.611   2.766  1.3283 -0.8318 -2.1515
  291MOL0     H40090   1.920   5.651   2.981  0.8026  1.5718  0.5939
  291MOL0     H40091   2.131   5.898   3.076 -0.0354 -1.8565  1.0386
  291MOL0     H40092   2.246   5.907   2.945  0.8846  0.4934  0.9642
  291MOL0     H40093   2.362   5.925   3.176  0.0577 -1.5619  2.1904
  291MOL0     H40094   2.307   5.776   3.220  1.8937  0.5255  0.5479
  291MOL0     H40095   2.518   5.721   3.143 -0.2155  1.7333  0.6891
  291MOL0     H40096   2.414   5.676   3.003 -1.8567  0.4919  1.4451
  291MOL0     H40097   2.462   5.868   2.877 -3.2338 -0.9873  1.3658
  291MOL0     H40098   2.556   5.951   2.999  2.2830 -0.1527 -1.6475
  291MOL0     H40099   2.628   5.675   2.894 -1.2285 -0.3502  2.0229
  291MOL0     H40100   2.723   5.776   3.003  0.2106  0.9559 -0.5698
  291MOL0     H40101   2.665   5.835   2.700  0.6279  0.7792 -0.5693
  291MOL0     H40102   2.729   5.953   2.809  1.1282  0.3712 -1.7013
  291MOL0     H40103   2.920   5.814   2.869  0.0922 -0.5968  0.0096
  291MOL0     H40104   2.923   5.838   2.695  1.4295  0.1630  0.5724
  291MOL0     H40105   2.809   5.589   2.826 -0.4781  0.6951  1.6991
  291MOL0     H40106   2.825   5.624   2.661  1.3885  0.6862 -0.6248
  291MOL0     H40107   3.060   5.543   2.980  1.1916 -1.4360  0.6520
  291MOL0     H40108   3.404   5.579   2.912 -0.5272  0.1819 -0.1272
  291MOL0     H40109   3.412   5.431   2.835  0.4125 -1.1274  0.6298
  291MOL0     H40110   3.294   5.496   3.100 -1.3260  2.1247 -1.8671
  291MOL0     H40111   3.218   5.357   3.014 -0.2486  1.6092 -3.4478
  291MOL0     H40112   3.430   5.235   3.002  1.9876  0.8980 -0.6101
  291MOL0     H40113   3.521   5.371   3.071  1.1579 -0.6326  2.5953
  291MOL0     H40114   3.401   5.360   3.279 -0.5844  0.0337  0.4430
  291MOL0     H40115   3.317   5.214   3.229  1.2951 -1.1400 -0.5495
  291MOL0     H40116   3.329   5.162   3.436  0.4264  0.8369  0.2427
  291MOL0     H40117   3.268   5.199   3.728  1.8784  0.3221  0.0895
  291MOL0     H40118   3.310   5.025   3.760  3.1496  0.0518 -0.4007
  291MOL0     H40119   3.210   5.084   3.612 -1.6350  0.5748  1.4812
  291MOL0     H40120   3.608   4.830   3.989  1.6142 -2.2074 -0.1532
  291MOL0     H40121   3.699   4.759   4.196 -1.9942  1.0046  0.1362
  291MOL0     H40122   3.800   4.764   4.408  0.0104 -0.4646 -0.9193
  291MOL0     H40123   3.890   4.656   4.306  1.4787 -0.0118 -2.6467
  291MOL0     H40124   3.942   4.621   4.539 -1.7251  0.3066  0.5916
  291MOL0     H40125   4.082   4.686   4.451  0.7515  0.3717  0.6922
  291MOL0     H40126   3.898   4.838   4.648  0.1482 -3.2718  0.8990
  291MOL0     H40127   4.006   4.926   4.537 -2.9059 -1.0395 -3.4148
  291MOL0     H40128   4.202   4.789   4.644  1.2905  0.4122  0.8883
  291MOL0     H40129   4.075   4.721   4.755 -0.0564 -0.1433 -0.8404
  291MOL0     H40130   4.158   5.010   4.746  0.6296 -0.4142  0.3995
  291MOL0     H40131   4.033   4.942   4.845 -0.6614  0.2350 -2.0646
  291MOL0     H40132   4.320   4.850   4.870 -0.2185 -0.4688 -0.0848
  291MOL0     H40133   4.182   4.812   4.972 -3.3088  0.7105 -1.3129
  291MOL0     H40134   4.155   5.044   5.059 -0.3369 -2.1531  0.6252
  291MOL0     H40135   4.268   5.108   4.943  2.2410 -1.6387 -1.8295
  291MOL0     H40136   4.460   5.019   5.043  1.2725 -0.6937  0.0893
  291MOL0     H40137   4.363   4.939   5.172 -1.2365  1.4520  1.1922
  291MOL0     H40138   4.019   5.046   4.155 -0.1301 -0.5299 -0.4088
  291MOL0     H40139   3.936   5.114   3.933  0.8713  1.2730  3.3069
  291MOL0     H40140   3.768   5.120   3.613  0.0408 -0.5444 -0.0648
  291MOL0     H40141   3.745   5.149   3.379 -1.9406 -0.4939 -1.9221
  291MOL0     H40142   2.247   5.778   2.750 -1.1882  0.0038 -1.2256
  291MOL0     H40143   2.118   5.757   2.544  1.3140  0.9685  0.5444
  291MOL0     H40144   1.883   5.687   2.236 -0.0494 -1.1731 -3.4673
  291MOL0     H40145   1.789   5.680   2.020  1.1785  0.5594  1.5925
  291MOL0     H40146   1.653   5.759   1.806 -0.2598 -1.0689 -3.4808
  291MOL0     H40147   1.664   5.590   1.871 -2.4749  0.3693  2.6314
  291MOL0     H40148   1.431   5.722   1.729 -0.8885  0.0521  2.6827
  291MOL0     H40149   1.426   5.562   1.813 -0.0593  1.7403  2.9603
  291MOL0     H40150   1.604   5.627   1.569  1.7426 -1.3337  1.6181
  291MOL0     H40151   1.588   5.477   1.655 -2.4698 -1.6099 -0.1607
  291MOL0     H40152   1.481   5.511   1.429 -0.2722 -0.3582 -0.0451
  291MOL0     H40153   1.360   5.608   1.520  1.3935  1.0374 -2.1960
  291MOL0     H40154   1.256   5.222   1.659  1.4410 -0.2261 -0.0824
  291MOL0     H40155   1.394   5.693   2.214  0.1334  0.9061  3.3653
  291MOL0     H40156   1.493   5.667   2.551 -2.3217 -1.6504  0.1128
  291MOL0     H40157   1.428   5.812   2.472 -4.0809 -1.2819 -1.5408
  291MOL0     H40158   1.377   5.647   2.428  1.4207 -0.2758 -1.8750
  292MOL0     O40159   8.820   6.708   1.066  0.0906 -0.0371  0.3839
  292MOL0     C40160   8.729   6.781   1.098 -0.0336 -0.1568  0.1159
  292MOL0     O40161   8.731   6.875   1.206  0.1133 -0.1228  0.9438
  292MOL0     C40162   8.845   6.871   1.276 -0.0557 -0.9296  0.9798
  292MOL0     C40163   8.935   6.983   1.259  0.1353 -0.3289  0.5675
  292MOL0     C40164   9.070   6.967   1.285  0.0944  0.3929  1.0872
  292MOL0     C40165   9.120   6.855   1.349 -0.3886  0.3441  0.8691
  292MOL0     O40166   9.256   6.859   1.385 -0.1554 -0.0355  0.0816
  292MOL0     C40167   9.348   6.855   1.279  0.1454  0.6405  0.3461
  292MOL0     C40168   9.413   6.986   1.257  1.2621  0.2292  0.7946
  292MOL0     C40169   9.558   6.971   1.205 -0.3894  0.5399  0.2526
  292MOL0     C40170   9.554   6.885   1.077  0.6592  0.0609  0.1191
  292MOL0     C40171   9.695   6.869   1.023 -1.0922 -1.6087  1.0415
  292MOL0     C40172   9.778   6.776   1.110  0.0019 -0.7394  0.0353
  292MOL0     C40173   9.918   6.750   1.052 -0.4787  0.5750 -0.2615
  292MOL0     C40174   9.979   6.626   1.125  0.4832 -0.8760  0.3210
  292MOL0     N40175  10.098   6.591   1.044  0.6241 -0.1084 -0.0070
  292MOL0     C40176  10.100   6.531   0.923  0.1849  0.7229  0.1055
  292MOL0     C40177  10.226   6.507   0.901 -0.0442 -0.0639  0.7648
  292MOL0     C40178  10.286   6.439   0.773  0.6464  0.5497 -0.5793
  292MOL0     C40179  10.354   6.304   0.796  0.5494  0.3574  0.3318
  292MOL0     C40180  10.473   6.287   0.695  0.3492 -0.6963 -0.3248
  292MOL0     C40181  10.513   6.143   0.688  0.0323 -0.1447 -0.1107
  292MOL0     O40182  10.626   6.112   0.602  0.6239  0.1554 -0.3231
  292MOL0     C40183  10.749   6.162   0.621 -0.3502 -0.7663 -0.2766
  292MOL0     C40184  10.842   6.145   0.525  1.0656 -0.2006 -0.4953
  292MOL0     C40185  10.973   6.194   0.536 -0.1297 -0.0684  0.0961
  292MOL0     C40186  11.064   6.167   0.417 -0.6481  0.8813  0.1929
  292MOL0     C40187  11.014   6.240   0.664 -0.2701  0.6290  0.8888
  292MOL0     C40188  11.160   6.262   0.706  0.3702  0.1975 -0.1669
  292MOL0     O40189  11.183   6.262   0.840  0.1922  0.2061 -0.9035
  292MOL0     C40190  11.305   6.318   0.886  0.3277 -0.9500 -0.6461
  292MOL0     C40191  11.303   6.424   0.981  0.0290  0.5064  0.5576
  292MOL0     C40192  11.417   6.462   1.041  0.2242  0.1107  0.1533
  292MOL0     C40193  11.541   6.407   1.010  0.3226  0.1208  0.4033
  292MOL0     O40194  11.652   6.463   1.058  0.1020  0.0264 -0.2454
  292MOL0     C40195  11.705   6.389   1.168 -0.7764  0.6665 -0.8752
  292MOL0     C40196  11.633   6.415   1.305 -0.4849  0.8279 -0.5263
  292MOL0     C40197  11.705   6.336   1.420  0.2391  0.1381 -0.4053
  292MOL0     C40198  11.828   6.419   1.459 -0.3933  0.5289 -0.5862
  292MOL0     C40199  11.932   6.334   1.527 -0.0813 -0.0678 -0.0462
  292MOL0     C40200  11.892   6.265   1.663  0.1127 -0.0947 -0.5477
  292MOL0     C40201  11.833   6.358   1.764  0.7750 -0.0031  0.2574
  292MOL0     C40202  11.919   6.480   1.794 -0.5350  0.0343 -0.1526
  292MOL0    Cl40203  12.081   6.421   1.866 -0.2176  0.1918  0.3119
  292MOL0     C40204  11.543   6.294   0.928 -0.2641 -0.1861  0.2686
  292MOL0     C40205  11.424   6.247   0.870 -0.3976  0.0844  0.2846
  292MOL0     O40206  11.240   6.293   0.617  0.6581  0.4815 -0.1208
  292MOL0     C40207  10.917   6.265   0.762  1.1435 -1.1493  0.1735
  292MOL0     C40208  10.786   6.226   0.739 -0.4692 -0.3797 -0.2054
  292MOL0     N40209  10.305   6.542   1.010 -0.2671 -0.3713 -0.4066
  292MOL0     N40210  10.223   6.596   1.097  0.4691 -0.2901 -0.9671
  292MOL0     C40211   9.032   6.757   1.400  0.9976 -0.5690 -0.1294
  292MOL0     C40212   8.895   6.769   1.355 -0.7220  0.1324 -0.1562
  292MOL0     C40213   8.605   6.790   1.012  0.1015  0.5934  0.0591
  292MOL0     C40214   8.532   6.917   1.002 -0.2378  0.7336 -0.3811
  292MOL0     C40215   8.418   6.928   0.917 -0.8017 -0.3346 -0.0071
  292MOL0     C40216   8.381   6.833   0.835 -0.5929 -0.2088  0.6000
  292MOL0     O40217   8.281   6.860   0.746  0.0252  0.0954 -0.1161
  292MOL0     C40218   8.179   6.757   0.742  0.0228 -0.2761  0.0796
  292MOL0     C40219   8.076   6.776   0.852  0.4462  0.2346 -0.0918
  292MOL0     C40220   7.991   6.901   0.832  0.5929 -0.5788  0.4395
  292MOL0     C40221   7.887   6.943   0.940  0.2426 -0.1358  0.3118
  292MOL0     C40222   7.812   6.823   0.987  0.0557  0.0815  0.2757
  292MOL0     C40223   7.760   6.723   1.030 -0.1301 -0.3322  1.0519
  292MOL0     C40224   8.451   6.707   0.838  0.2365 -0.1611 -0.7121
  292MOL0     C40225   8.555   6.683   0.929  0.4161 -0.1546 -0.3677
  292MOL0     C40226   8.625   6.552   0.915  0.4560  1.0866 -0.5648
  292MOL0     H40227   8.898   7.075   1.215 -0.8363 -0.0194  1.9639
  292MOL0     H40228   9.133   7.040   1.235  2.4100 -2.7221 -0.9606
  292MOL0     H40229   9.304   6.812   1.188  0.4479  1.4396 -0.1840
  292MOL0     H40230   9.425   6.781   1.304  1.6072  1.8570 -0.3968
  292MOL0     H40231   9.351   7.049   1.192 -0.5537 -1.1802  1.1015
  292MOL0     H40232   9.421   7.039   1.353 -2.1487  0.8338  0.8703
  292MOL0     H40233   9.585   7.075   1.183 -1.4932  0.2621 -3.0609
  292MOL0     H40234   9.623   6.920   1.276  0.9327  1.7645 -0.0268
  292MOL0     H40235   9.511   6.785   1.090 -0.0626  0.5503  1.8611
  292MOL0     H40236   9.499   6.933   0.996  1.1928 -2.6307 -1.9508
  292MOL0     H40237   9.746   6.966   1.028 -2.0912 -1.0415  0.5285
  292MOL0     H40238   9.692   6.845   0.916 -4.4524 -0.6693  0.8119
  292MOL0     H40239   9.785   6.816   1.211 -3.2754 -1.6586  0.7245
  292MOL0     H40240   9.719   6.684   1.111 -1.5995  0.2366  1.7904
  292MOL0     H40241   9.982   6.838   1.067 -0.7554  0.9173 -1.0551
  292MOL0     H40242   9.910   6.718   0.947  0.6482 -0.8796  0.0613
  292MOL0     H40243   9.996   6.662   1.227  0.7442 -0.5038  0.1509
  292MOL0     H40244   9.911   6.542   1.138 -2.5672  1.4678  0.6341
  292MOL0     H40245  10.017   6.512   0.855  2.4265 -0.3740 -2.5144
  292MOL0     H40246  10.360   6.510   0.734  1.8344  2.3254  4.2593
  292MOL0     H40247  10.196   6.429   0.710  0.4218 -1.0351 -0.0674
  292MOL0     H40248  10.377   6.311   0.902 -1.8981  0.3142  0.9382
  292MOL0     H40249  10.278   6.226   0.788  1.2212 -0.2150 -0.5875
  292MOL0     H40250  10.459   6.318   0.591 -1.1101  3.2791  0.8694
  292MOL0     H40251  10.553   6.350   0.736 -1.9448  0.7287  2.2233
  292MOL0     H40252  10.537   6.093   0.782  3.5261  0.7188 -0.4037
  292MOL0     H40253  10.430   6.079   0.657 -1.0500 -0.2433  2.6900
  292MOL0     H40254  10.798   6.099   0.437 -0.9423 -1.2888  1.0129
  292MOL0     H40255  11.130   6.081   0.435  0.9991  1.7943 -1.1489
  292MOL0     H40256  11.137   6.248   0.406 -0.6246  0.7242 -0.8481
  292MOL0     H40257  11.008   6.154   0.324 -1.4618  1.6230  0.5699
  292MOL0     H40258  11.213   6.483   0.997 -0.7615 -0.1196 -1.2898
  292MOL0     H40259  11.430   6.547   1.107 -1.7330 -0.6600  1.6385
  292MOL0     H40260  11.698   6.283   1.144 -1.2786  0.1887  1.1517
  292MOL0     H40261  11.809   6.417   1.182 -0.5086 -0.0166 -1.4598
  292MOL0     H40262  11.623   6.520   1.334  1.3807  1.1837 -0.9799
  292MOL0     H40263  11.536   6.367   1.294 -0.5951  0.6806  0.9084
  292MOL0     H40264  11.728   6.234   1.390  1.0260 -0.3040  1.5402
  292MOL0     H40265  11.634   6.337   1.503  0.2317 -0.5717 -0.3981
  292MOL0     H40266  11.798   6.506   1.519 -1.4338 -0.6984  0.7444
  292MOL0     H40267  11.885   6.451   1.372  1.8337 -1.0765  0.1846
  292MOL0     H40268  11.966   6.254   1.460  1.6422  1.4360 -1.0572
  292MOL0     H40269  12.019   6.399   1.531 -0.9817  1.2350 -0.8036
  292MOL0     H40270  11.983   6.219   1.704 -0.3940 -1.3606 -0.7915
  292MOL0     H40271  11.830   6.177   1.643  0.9711 -0.5023 -1.5498
  292MOL0     H40272  11.828   6.298   1.855  1.9966  2.6017  2.1659
  292MOL0     H40273  11.735   6.395   1.733  0.3119 -0.0432  1.6159
  292MOL0     H40274  11.878   6.544   1.872  2.4375  0.6679  1.0526
  292MOL0     H40275  11.940   6.540   1.705  2.2866  0.0177  0.3925
  292MOL0     H40276  11.640   6.249   0.911 -0.0733  1.4515 -4.4005
  292MOL0     H40277  11.422   6.157   0.810 -0.7831  0.2503  0.0483
  292MOL0     H40278  10.943   6.304   0.860 -1.1269 -2.7360  1.5098
  292MOL0     H40279  10.713   6.245   0.817 -0.4787 -1.8770  0.1780
  292MOL0     H40280   9.084   6.681   1.457  1.9037  1.3646  1.7362
  292MOL0     H40281   8.829   6.685   1.374  2.0898 -1.8012  1.8514
  292MOL0     H40282   8.546   6.990   1.081 -2.4047 -0.9403  1.6626
  292MOL0     H40283   8.369   7.024   0.910 -0.2512 -0.0677 -0.2603
  292MOL0     H40284   8.123   6.757   0.647  0.1450  0.3693  0.0041
  292MOL0     H40285   8.224   6.658   0.754 -1.2207 -0.8484  0.2536
  292MOL0     H40286   8.136   6.785   0.943 -1.5322 -1.3502  1.4626
  292MOL0     H40287   8.004   6.693   0.857 -0.5922  1.0724 -0.7854
  292MOL0     H40288   8.058   6.988   0.827 -0.5957  0.4259  1.4174
  292MOL0     H40289   7.940   6.890   0.737  0.1040  0.7080  0.5331
  292MOL0     H40290   7.825   7.016   0.889  0.2280  0.4458  1.1503
  292MOL0     H40291   7.935   6.991   1.026  0.1153  1.3872 -0.4376
  292MOL0     H40292   7.711   6.634   1.065  0.0206 -0.9392 -0.2210
  292MOL0     H40293   8.427   6.636   0.759  2.5694 -0.3976 -1.2930
  292MOL0     H40294   8.559   6.478   0.868 -0.4824  3.0290 -2.5490
  292MOL0     H40295   8.719   6.572   0.864  0.8097  0.0171 -0.3571
  292MOL0     H40296   8.661   6.525   1.014 -3.2279  2.3424  1.3167
  293MOL0     O40297  10.471   1.539  11.118 -0.0703  0.2256  0.4919
  293MOL0     C40298  10.489   1.657  11.151 -0.6971 -0.3664 -0.6489
  293MOL0     O40299  10.613   1.703  11.182  0.3963  0.5131  0.2830
  293MOL0     C40300  10.727   1.621  11.193  0.4588  0.3522 -0.6216
  293MOL0     C40301  10.844   1.695  11.189  0.1231  0.2283  0.2373
  293MOL0     C40302  10.958   1.625  11.190  0.0601  0.2187 -0.1744
  293MOL0     C40303  10.968   1.490  11.199  0.0269  0.9550  0.4485
  293MOL0     O40304  11.083   1.406  11.200  0.3576  1.6317  0.4589
  293MOL0     C40305  11.213   1.473  11.226  1.0031 -0.2491  0.1817
  293MOL0     C40306  11.327   1.370  11.240 -0.3206 -0.1435 -0.0338
  293MOL0     C40307  11.455   1.426  11.299 -0.8002  0.7389  0.0397
  293MOL0     C40308  11.562   1.321  11.327  0.1938  0.2564 -0.4039
  293MOL0     C40309  11.701   1.367  11.355  0.4783 -0.9160  0.1624
  293MOL0     C40310  11.792   1.257  11.400  0.2834  0.1226  0.3156
  293MOL0     C40311  11.938   1.298  11.433 -0.4560 -0.3524 -0.0913
  293MOL0     C40312  11.999   1.368  11.306 -0.3572  0.1507  0.5625
  293MOL0     N40313  12.145   1.390  11.336  0.5863  0.1761 -0.5347
  293MOL0     C40314  12.189   1.487  11.410  0.2457  0.4437 -1.0181
  293MOL0     C40315  12.326   1.472  11.414 -0.0595  0.3227 -0.0244
  293MOL0     C40316  12.415   1.560  11.503  0.7114 -0.0327  0.4045
  293MOL0     C40317  12.417   1.497  11.646 -0.3824  0.1415  0.7428
  293MOL0     C40318  12.435   1.342  11.662 -0.2878 -0.0344  0.0852
  293MOL0     C40319  12.559   1.270  11.600 -0.2746 -0.1659  0.8015
  293MOL0     O40320  12.673   1.346  11.624 -0.6009 -0.0928 -0.3869
  293MOL0     C40321  12.773   1.372  11.528  0.1363  0.4451  0.1511
  293MOL0     C40322  12.747   1.381  11.394  0.1333  1.1788 -0.7319
  293MOL0     C40323  12.844   1.430  11.308 -0.0877 -0.3482  0.0908
  293MOL0     C40324  12.791   1.440  11.167 -0.0946 -0.0433 -0.0560
  293MOL0     C40325  12.977   1.459  11.353 -0.2431  0.2071  0.6332
  293MOL0     C40326  13.090   1.518  11.273 -0.0002  1.0456  0.9506
  293MOL0     O40327  13.173   1.603  11.341 -0.5029 -0.3662 -1.0549
  293MOL0     C40328  13.271   1.684  11.288  0.5904  0.2259  0.5367
  293MOL0     C40329  13.352   1.643  11.177 -0.1701  0.1484 -0.3517
  293MOL0     C40330  13.439   1.748  11.127  0.7711 -0.0590  0.1875
  293MOL0     C40331  13.441   1.883  11.180 -0.4144  0.6847  0.8351
  293MOL0     O40332  13.518   1.988  11.132 -0.1328  0.6850  0.2317
  293MOL0     C40333  13.624   1.954  11.039 -0.4182  0.0005 -1.0709
  293MOL0     C40334  13.735   1.881  11.125  0.7645 -0.7295 -0.0990
  293MOL0     C40335  13.848   1.842  11.025  0.4526 -1.1435  0.2362
  293MOL0     C40336  13.954   1.964  11.013  0.5666 -0.2065 -0.4279
  293MOL0     C40337  14.061   1.940  10.912  0.5446  0.2258 -0.2311
  293MOL0     C40338  14.144   2.054  10.883 -0.4655 -0.0751  0.4307
  293MOL0     C40339  14.249   2.041  10.768 -0.5670  0.0001  0.3077
  293MOL0     C40340  14.335   2.168  10.753 -0.4433  0.5969 -1.3440
  293MOL0    Cl40341  14.455   2.157  10.610  0.2492  0.1633 -0.1475
  293MOL0     C40342  13.360   1.917  11.283 -0.5046  0.1074  0.1264
  293MOL0     C40343  13.268   1.819  11.336 -0.3517 -0.2037 -0.1372
  293MOL0     O40344  13.099   1.498  11.149  0.4582 -0.1757  0.0080
  293MOL0     C40345  12.991   1.459  11.490  0.4397 -0.4893 -0.6522
  293MOL0     C40346  12.894   1.416  11.582  0.0952 -0.0487  0.4886
  293MOL0     N40347  12.362   1.355  11.341  1.3115 -0.5040 -0.0436
  293MOL0     N40348  12.254   1.322  11.282 -0.2552  0.6728 -0.4625
  293MOL0     C40349  10.851   1.417  11.216 -0.1582 -0.0503  0.5151
  293MOL0     C40350  10.730   1.480  11.221  0.4615  0.3329  0.4478
  293MOL0     C40351  10.367   1.739  11.191 -1.0026 -0.2859  0.9037
  293MOL0     C40352  10.381   1.825  11.298  0.7339 -0.9933 -0.4668
  293MOL0     C40353  10.275   1.900  11.353  0.0178 -0.5255  0.6488
  293MOL0     C40354  10.149   1.908  11.293 -0.4255 -0.7254  0.0608
  293MOL0     O40355  10.043   1.980  11.338 -0.0476  0.2660 -0.1948
  293MOL0     C40356  10.046   2.059  11.462 -0.2089  0.3794  0.4498
  293MOL0     C40357  10.126   2.187  11.433 -0.1886 -0.1636  0.0608
  293MOL0     C40358  10.066   2.281  11.327  0.1143  1.1270  0.7981
  293MOL0     C40359  10.111   2.425  11.326 -0.2803 -0.7815  0.5579
  293MOL0     C40360  10.253   2.433  11.328 -0.4816 -0.5487 -0.0662
  293MOL0     C40361  10.373   2.451  11.333  0.5913  0.7763 -0.6723
  293MOL0     C40362  10.130   1.815  11.193 -0.0508 -0.2029 -0.5615
  293MOL0     C40363  10.239   1.737  11.132  0.4033  0.0975  0.1794
  293MOL0     C40364  10.193   1.650  11.024  0.1930  0.2249  0.2215
  293MOL0     H40365  10.851   1.802  11.175  1.8243 -0.0235 -1.1203
  293MOL0     H40366  11.048   1.684  11.179 -0.6799  1.2472 -0.9417
  293MOL0     H40367  11.207   1.529  11.320 -4.9873 -0.8930  0.5860
  293MOL0     H40368  11.229   1.538  11.139  0.1368  3.8552  2.8142
  293MOL0     H40369  11.295   1.281  11.295 -0.7728  0.8852  1.4507
  293MOL0     H40370  11.337   1.342  11.135 -1.7913 -0.9443  0.0132
  293MOL0     H40371  11.490   1.507  11.235 -0.8423  1.2887  0.7131
  293MOL0     H40372  11.434   1.469  11.397 -0.2216  0.1186  0.4445
  293MOL0     H40373  11.521   1.269  11.414 -0.7456  0.9056 -0.4544
  293MOL0     H40374  11.568   1.251  11.242 -1.2854  0.3894 -0.6315
  293MOL0     H40375  11.690   1.439  11.437 -1.0289 -0.0275 -0.7804
  293MOL0     H40376  11.741   1.415  11.265  1.0877  4.1194  2.7466
  293MOL0     H40377  11.760   1.201  11.488  1.1072 -0.0840  0.4878
  293MOL0     H40378  11.806   1.182  11.322 -0.0652  0.7035 -0.3192
  293MOL0     H40379  11.988   1.206  11.464 -2.6431 -1.4621  0.3336
  293MOL0     H40380  11.933   1.375  11.511 -2.7059  1.2231 -1.6750
  293MOL0     H40381  11.976   1.310  11.217  0.0810  1.3943 -0.4059
  293MOL0     H40382  11.956   1.469  11.305 -1.4363 -0.2940  0.7503
  293MOL0     H40383  12.132   1.559  11.468  0.4090  1.7605 -2.4217
  293MOL0     H40384  12.378   1.662  11.514  2.9327  0.7236  1.3923
  293MOL0     H40385  12.518   1.560  11.465  1.4870 -0.8889  2.3518
  293MOL0     H40386  12.501   1.546  11.695  1.1123 -0.4583 -1.0900
  293MOL0     H40387  12.327   1.527  11.700 -1.6205 -2.4920  0.3293
  293MOL0     H40388  12.456   1.322  11.767  2.1734  1.4009 -0.0565
  293MOL0     H40389  12.344   1.287  11.635 -1.5113  2.4073 -1.1220
  293MOL0     H40390  12.581   1.174  11.646  2.0282 -1.4434 -2.6118
  293MOL0     H40391  12.551   1.245  11.494  1.3990 -1.5066  0.9501
  293MOL0     H40392  12.652   1.344  11.355 -0.3342  0.7343  0.7643
  293MOL0     H40393  12.827   1.536  11.128 -1.3538 -0.1478 -1.5757
  293MOL0     H40394  12.682   1.437  11.156 -0.1194 -0.1726  0.2052
  293MOL0     H40395  12.833   1.366  11.099  3.9124 -0.5872  2.6203
  293MOL0     H40396  13.356   1.543  11.135  0.2527  0.5076 -1.1903
  293MOL0     H40397  13.500   1.723  11.041  0.0602  2.6017 -1.2217
  293MOL0     H40398  13.595   1.889  10.956  0.8815 -1.0572 -0.7356
  293MOL0     H40399  13.656   2.045  10.988 -0.2299 -0.9438 -2.6913
  293MOL0     H40400  13.782   1.932  11.209 -0.6496  0.2429  0.1463
  293MOL0     H40401  13.688   1.792  11.169  1.3387  0.0092  2.1233
  293MOL0     H40402  13.807   1.813  10.928  0.8398  1.3087 -0.7378
  293MOL0     H40403  13.898   1.751  11.058  0.7118 -0.7945  0.8151
  293MOL0     H40404  13.997   1.978  11.112  2.0173 -2.6801 -0.6334
  293MOL0     H40405  13.893   2.045  10.973 -1.0363 -1.5647 -0.8444
  293MOL0     H40406  14.122   1.853  10.939 -1.6607 -1.8344 -1.5493
  293MOL0     H40407  14.003   1.903  10.828 -1.0640 -0.4506  1.1258
  293MOL0     H40408  14.199   2.081  10.974  1.8976  1.1845 -1.2575
  293MOL0     H40409  14.075   2.135  10.858 -0.0936  0.2602  0.4799
  293MOL0     H40410  14.211   2.020  10.668  0.1777 -0.5931  0.1439
  293MOL0     H40411  14.303   1.954  10.807 -1.4687  0.0137  1.6849
  293MOL0     H40412  14.392   2.178  10.845 -0.9421 -2.3797 -0.5976
  293MOL0     H40413  14.268   2.251  10.731 -0.8687  1.0885  1.4794
  293MOL0     H40414  13.365   2.024  11.304  2.4293 -0.1094  0.9838
  293MOL0     H40415  13.211   1.838  11.426  0.2201 -0.7272  0.3458
  293MOL0     H40416  13.085   1.501  11.524 -0.0700  1.8660 -1.9893
  293MOL0     H40417  12.921   1.426  11.687  1.0004  1.1079  0.1572
  293MOL0     H40418  10.836   1.309  11.220 -0.0638 -0.2975 -2.9938
  293MOL0     H40419  10.645   1.414  11.231 -0.2356  0.8905 -1.4805
  293MOL0     H40420  10.480   1.830  11.344 -0.6110  1.5041  2.5178
  293MOL0     H40421  10.292   1.956  11.445 -0.3421  0.9392 -0.1488
  293MOL0     H40422   9.947   2.082  11.504 -0.6012  0.1017 -0.3168
  293MOL0     H40423  10.097   1.999  11.538 -2.5769 -2.6437 -0.1611
  293MOL0     H40424  10.222   2.162  11.389  1.8083 -0.3917  4.0423
  293MOL0     H40425  10.153   2.245  11.522 -0.2329 -1.3907  0.8993
  293MOL0     H40426  10.088   2.239  11.229 -0.5519 -0.6098  1.3585
  293MOL0     H40427   9.958   2.278  11.344  0.1315  3.2822  1.7309
  293MOL0     H40428  10.086   2.476  11.420  1.2114  1.3265 -0.1140
  293MOL0     H40429  10.070   2.496  11.253  1.0812 -0.0286  0.5083
  293MOL0     H40430  10.468   2.485  11.370  0.1572  1.0952  0.1935
  293MOL0     H40431  10.030   1.820  11.153 -0.2264 -1.4101 -0.3003
  293MOL0     H40432  10.101   1.685  10.977  1.0443  1.9099 -0.2899
  293MOL0     H40433  10.274   1.643  10.951 -1.3391 -1.6794 -1.4085
  293MOL0     H40434  10.182   1.547  11.061  2.0486  0.0376  0.3495
  294MOL0     O40435   2.663   1.472  10.298  0.5159 -0.0211 -0.0654
  294MOL0     C40436   2.617   1.366  10.281  0.2070  0.0113 -0.4789
  294MOL0     O40437   2.694   1.249  10.255 -0.3089 -0.2907  0.5624
  294MOL0     C40438   2.834   1.248  10.222  1.3020 -0.1638  0.4315
  294MOL0     C40439   2.930   1.334  10.286 -1.3914 -0.2410 -0.0692
  294MOL0     C40440   3.064   1.338  10.246  0.2252  0.2007 -0.1812
  294MOL0     C40441   3.109   1.251  10.149 -0.1763  0.4865  0.3015
  294MOL0     O40442   3.238   1.239  10.112  0.3667  0.3328 -1.0117
  294MOL0     C40443   3.338   1.297  10.190  0.7575  0.3137 -0.8384
  294MOL0     C40444   3.463   1.228  10.153  0.5557  0.5270  0.3046
  294MOL0     C40445   3.508   1.277  10.017 -0.4414  0.0969 -0.2431
  294MOL0     C40446   3.578   1.411  10.008 -0.4410  0.4106  0.3058
  294MOL0     C40447   3.636   1.443   9.859  0.4560 -0.1691 -0.9008
  294MOL0     C40448   3.712   1.573   9.861  0.1501  0.0771  0.3979
  294MOL0     C40449   3.784   1.596   9.729 -0.3845  0.5056  0.5763
  294MOL0     C40450   3.681   1.639   9.620 -0.6137 -0.0009  0.9579
  294MOL0     N40451   3.735   1.654   9.483 -0.6311 -0.7570  0.0270
  294MOL0     C40452   3.702   1.592   9.369 -0.3855  0.9016 -0.1826
  294MOL0     C40453   3.784   1.638   9.277  0.2192 -0.8078 -0.5324
  294MOL0     C40454   3.800   1.581   9.146  0.6979 -0.8357 -0.1573
  294MOL0     C40455   3.840   1.431   9.148  0.2806 -0.3989  0.5230
  294MOL0     C40456   3.970   1.403   9.225  0.4200  0.5649 -0.4106
  294MOL0     C40457   4.098   1.460   9.169 -0.2411  0.4378 -0.0801
  294MOL0     O40458   4.123   1.402   9.038 -0.1528  0.1474 -0.4784
  294MOL0     C40459   4.245   1.422   8.984 -0.1273 -0.0948 -0.1265
  294MOL0     C40460   4.370   1.426   9.047  0.3326 -0.3185  0.2079
  294MOL0     C40461   4.493   1.441   8.984  0.1554 -0.1217  0.1552
  294MOL0     C40462   4.613   1.445   9.069 -0.2122  1.0087 -0.0083
  294MOL0     C40463   4.496   1.463   8.846 -0.0242 -0.0154  0.3711
  294MOL0     C40464   4.619   1.494   8.764 -0.6613  0.0435  0.1497
  294MOL0     O40465   4.747   1.490   8.818  0.5595  0.5154 -0.3807
  294MOL0     C40466   4.851   1.482   8.732  1.0887  0.3911  0.1688
  294MOL0     C40467   4.867   1.383   8.627 -0.7073  0.0223 -0.6157
  294MOL0     C40468   4.977   1.390   8.540 -0.1095 -0.3721 -0.1848
  294MOL0     C40469   5.076   1.489   8.554  0.5324  0.2365  0.3681
  294MOL0     O40470   5.185   1.512   8.472 -0.2301 -0.6693 -0.2362
  294MOL0     C40471   5.191   1.440   8.356 -0.4388  0.3738  1.0971
  294MOL0     C40472   5.292   1.497   8.257  1.0389  0.1514 -0.7679
  294MOL0     C40473   5.433   1.458   8.296  0.0518 -1.0166 -0.1085
  294MOL0     C40474   5.534   1.527   8.199  0.6293  0.5254 -0.9265
  294MOL0     C40475   5.549   1.481   8.059 -0.8360  0.1903  0.6923
  294MOL0     C40476   5.644   1.366   8.030  0.1117 -0.0683 -0.5743
  294MOL0     C40477   5.792   1.398   8.047 -0.1457 -0.8443 -0.2396
  294MOL0     C40478   5.875   1.271   8.029  0.7856  1.2305  0.5354
  294MOL0    Cl40479   6.052   1.294   8.046 -0.3326 -0.4232 -0.1980
  294MOL0     C40480   5.066   1.582   8.661  0.3136  0.6023 -0.1177
  294MOL0     C40481   4.948   1.581   8.737  0.4439  1.0239 -0.3036
  294MOL0     O40482   4.597   1.521   8.646  0.1486 -0.3213 -0.6336
  294MOL0     C40483   4.366   1.474   8.786  0.8677  0.2662  0.6301
  294MOL0     C40484   4.253   1.450   8.849  0.0368 -0.3626 -0.9265
  294MOL0     N40485   3.873   1.738   9.330  0.4472  0.0211 -0.0244
  294MOL0     N40486   3.836   1.746   9.453  0.0781  0.1889  0.1246
  294MOL0     C40487   3.023   1.153  10.095 -0.8492 -0.6712 -0.2815
  294MOL0     C40488   2.881   1.154  10.132 -0.0920  0.7253  0.1450
  294MOL0     C40489   2.471   1.344  10.281  0.2488  0.6535  0.2586
  294MOL0     C40490   2.416   1.213  10.260 -0.7953 -0.3136 -0.4753
  294MOL0     C40491   2.280   1.186  10.273 -0.4695 -0.4124 -0.2284
  294MOL0     C40492   2.186   1.292  10.280 -0.0087 -0.3780 -0.0940
  294MOL0     O40493   2.048   1.259  10.279  0.0254  0.2610 -0.1329
  294MOL0     C40494   1.952   1.365  10.268 -1.3530  0.4927  0.2576
  294MOL0     C40495   1.910   1.409  10.410  0.6162  0.6327  0.8031
  294MOL0     C40496   1.813   1.309  10.478 -0.4074  0.4070  0.3190
  294MOL0     C40497   1.670   1.317  10.415  0.9846  0.1633 -0.2036
  294MOL0     C40498   1.570   1.232  10.483 -0.4508 -0.0321  0.4881
  294MOL0     C40499   1.484   1.165  10.534 -0.1849  0.1431 -1.2558
  294MOL0     C40500   2.239   1.420  10.296 -0.6416 -1.1983 -0.4344
  294MOL0     C40501   2.369   1.445  10.299 -0.4268 -0.7157 -0.3141
  294MOL0     C40502   2.400   1.596  10.309 -0.3104 -1.2137 -0.3334
  294MOL0     H40503   2.914   1.402  10.369 -0.4123 -1.0193  0.7821
  294MOL0     H40504   3.136   1.412  10.280  0.5536 -0.8696  1.5868
  294MOL0     H40505   3.313   1.269  10.293 -0.1271 -1.4569 -1.4870
  294MOL0     H40506   3.335   1.405  10.175 -0.0449  0.0669 -2.7487
  294MOL0     H40507   3.547   1.260  10.216  2.6287  1.1108 -2.5548
  294MOL0     H40508   3.448   1.120  10.156  2.9904  0.1241  0.0666
  294MOL0     H40509   3.581   1.205   9.979 -0.4607  0.6131 -1.3030
  294MOL0     H40510   3.432   1.277   9.938  0.1039  1.1768 -0.7913
  294MOL0     H40511   3.494   1.479  10.017 -2.4412 -1.7973 -0.5644
  294MOL0     H40512   3.657   1.430  10.081 -1.7642 -0.9551  2.1594
  294MOL0     H40513   3.555   1.451   9.786 -0.7140  1.2917  0.4918
  294MOL0     H40514   3.704   1.365   9.824  0.7439 -0.2255 -0.2249
  294MOL0     H40515   3.649   1.662   9.870 -0.7870 -0.5160 -0.1702
  294MOL0     H40516   3.791   1.560   9.937  2.4098  1.8252 -1.5038
  294MOL0     H40517   3.826   1.502   9.694  0.3400  1.3741 -0.9927
  294MOL0     H40518   3.872   1.661   9.734  1.3603 -1.5258 -1.2678
  294MOL0     H40519   3.596   1.571   9.612  1.2511 -2.3394 -0.1911
  294MOL0     H40520   3.647   1.738   9.650  1.7554  0.3367  2.8361
  294MOL0     H40521   3.631   1.512   9.351  1.1303 -0.4020 -0.5321
  294MOL0     H40522   3.869   1.643   9.089  1.2565 -1.3656 -0.0637
  294MOL0     H40523   3.700   1.595   9.104  1.3968  0.8294 -1.3913
  294MOL0     H40524   3.765   1.361   9.186 -0.0635  0.9515  2.4733
  294MOL0     H40525   3.847   1.399   9.044  1.2367  1.7619 -0.1355
  294MOL0     H40526   3.957   1.434   9.329  0.6230 -0.7085  0.0031
  294MOL0     H40527   3.983   1.295   9.223 -1.8506  0.1665  1.5365
  294MOL0     H40528   4.085   1.569   9.164 -0.3121  0.5175  1.2714
  294MOL0     H40529   4.177   1.436   9.241  1.0687  1.0919 -1.2733
  294MOL0     H40530   4.369   1.400   9.152 -2.4000  1.9999  0.8689
  294MOL0     H40531   4.690   1.373   9.043 -3.4962 -2.4372 -1.0495
  294MOL0     H40532   4.601   1.423   9.175 -0.9253 -1.9802 -0.6271
  294MOL0     H40533   4.656   1.545   9.059 -1.1725  1.4674  0.2747
  294MOL0     H40534   4.787   1.310   8.627 -0.5175 -0.3443  2.8498
  294MOL0     H40535   4.969   1.316   8.460  0.8678  1.6693 -2.3078
  294MOL0     H40536   5.207   1.333   8.373 -1.7135  0.0423  0.3589
  294MOL0     H40537   5.094   1.443   8.306 -0.8399 -1.4828  1.6705
  294MOL0     H40538   5.256   1.441   8.170 -3.0816  0.8349  0.2893
  294MOL0     H40539   5.270   1.603   8.243  0.4787 -0.1829 -2.7648
  294MOL0     H40540   5.445   1.350   8.286 -1.0453 -1.1635  0.0637
  294MOL0     H40541   5.457   1.486   8.399  0.3399  3.6796 -1.2066
  294MOL0     H40542   5.630   1.518   8.251 -1.3466  1.9484  3.4100
  294MOL0     H40543   5.511   1.633   8.206  1.3498  0.6996 -1.0702
  294MOL0     H40544   5.452   1.454   8.017 -0.7325  3.2883 -1.9578
  294MOL0     H40545   5.577   1.575   8.011 -1.8719  0.2110  0.1095
  294MOL0     H40546   5.625   1.327   7.930 -0.6370 -1.7830  0.2010
  294MOL0     H40547   5.620   1.281   8.094  0.0861 -0.2503 -0.8271
  294MOL0     H40548   5.808   1.437   8.148  0.5022  0.9257 -0.9862
  294MOL0     H40549   5.818   1.471   7.970 -3.0995 -0.6286 -1.1603
  294MOL0     H40550   5.854   1.240   7.927  1.8393 -1.3460  1.0299
  294MOL0     H40551   5.840   1.191   8.095 -1.4479  3.0570  1.7060
  294MOL0     H40552   5.143   1.656   8.679  0.9533 -0.4378  1.5749
  294MOL0     H40553   4.934   1.650   8.819 -3.1031  1.0625 -0.7772
  294MOL0     H40554   4.361   1.498   8.680  2.8553 -0.3962  0.3340
  294MOL0     H40555   4.153   1.464   8.809 -0.5814 -1.1044  0.2703
  294MOL0     H40556   3.070   1.087  10.022 -1.8091  0.2362 -1.7896
  294MOL0     H40557   2.821   1.083  10.076 -0.2779  1.2613 -0.3315
  294MOL0     H40558   2.482   1.128  10.250 -0.5356 -0.2940  0.9897
  294MOL0     H40559   2.250   1.082  10.270 -0.8879 -0.3343  0.7052
  294MOL0     H40560   1.991   1.447  10.207 -1.2774  0.1168 -0.1983
  294MOL0     H40561   1.868   1.328  10.209  1.2366 -0.5395 -3.0914
  294MOL0     H40562   1.888   1.516  10.409 -1.6916  0.2228  2.1793
  294MOL0     H40563   1.998   1.402  10.475  0.0358  0.7611  1.6048
  294MOL0     H40564   1.858   1.210  10.471 -0.3271  0.5417 -1.7004
  294MOL0     H40565   1.802   1.339  10.582  0.0531  2.3827 -0.1589
  294MOL0     H40566   1.671   1.279  10.312 -2.1090 -2.3563  0.5196
  294MOL0     H40567   1.639   1.419  10.435  0.3022 -0.4491  2.1576
  294MOL0     H40568   1.399   1.112  10.572  1.4609 -0.7147  1.6109
  294MOL0     H40569   2.170   1.500  10.321 -1.3878 -2.3153  1.2671
  294MOL0     H40570   2.455   1.628  10.220  0.5224  0.3706  0.7069
  294MOL0     H40571   2.315   1.663  10.321 -0.2894 -1.3249  0.4558
  294MOL0     H40572   2.457   1.609  10.401  1.1302  0.9946 -1.4616
  295MOL0     O40573   4.338   6.690  10.609 -0.6018 -0.3054 -0.8025
  295MOL0     C40574   4.312   6.574  10.635 -0.4771  1.0635 -0.3441
  295MOL0     O40575   4.403   6.469  10.642  0.5632 -0.0316 -0.7732
  295MOL0     C40576   4.533   6.486  10.598  0.2747 -0.3773  0.1841
  295MOL0     C40577   4.634   6.419  10.666  0.6029 -0.4054 -0.5073
  295MOL0     C40578   4.770   6.425  10.633  0.3975  0.2446  0.5617
  295MOL0     C40579   4.811   6.506  10.522  0.6053  0.2411 -0.7813
  295MOL0     O40580   4.944   6.523  10.482  1.0319  0.3298  0.2283
  295MOL0     C40581   5.039   6.420  10.494 -0.0480  0.4302 -0.3472
  295MOL0     C40582   5.166   6.436  10.406 -0.3649  0.6025  0.0508
  295MOL0     C40583   5.277   6.326  10.428 -0.8139 -0.0788 -0.4653
  295MOL0     C40584   5.411   6.350  10.345  0.2923  0.7325  0.6413
  295MOL0     C40585   5.509   6.226  10.366 -0.0820 -0.7855  0.1493
  295MOL0     C40586   5.637   6.245  10.290  0.3475 -0.0861 -0.2992
  295MOL0     C40587   5.739   6.131  10.311  1.1499  0.6461 -0.4179
  295MOL0     C40588   5.871   6.166  10.240  0.1224  0.2144  0.4379
  295MOL0     N40589   5.941   6.051  10.182 -0.3774 -0.5789 -0.2620
  295MOL0     C40590   5.893   5.946  10.108  0.3735 -0.4838  0.3126
  295MOL0     C40591   5.985   5.849  10.115  0.1758  0.3837 -0.9511
  295MOL0     C40592   5.984   5.709  10.066 -0.4514 -0.1189 -0.5015
  295MOL0     C40593   5.859   5.626  10.109 -0.4704  0.4961  0.4249
  295MOL0     C40594   5.916   5.493  10.162  0.3945  0.5394  0.6103
  295MOL0     C40595   5.794   5.394  10.169  0.0631 -0.1752  0.1726
  295MOL0     O40596   5.692   5.450  10.256 -0.6952  0.3395  0.2520
  295MOL0     C40597   5.569   5.399  10.245  0.1240  0.2866 -0.0390
  295MOL0     C40598   5.537   5.275  10.194  0.1296  0.7834  0.9182
  295MOL0     C40599   5.410   5.223  10.194  0.5303 -0.2115  0.4154
  295MOL0     C40600   5.379   5.080  10.135  0.3059 -0.6776  0.1992
  295MOL0     C40601   5.303   5.307  10.244 -0.7160 -0.1344  0.5071
  295MOL0     C40602   5.160   5.274  10.248 -0.1097  0.2004  0.3454
  295MOL0     O40603   5.095   5.293  10.369 -0.1979 -0.3249 -0.2691
  295MOL0     C40604   4.962   5.288  10.373  0.2007  1.0735 -0.4835
  295MOL0     C40605   4.892   5.354  10.278  0.8816 -0.0206  0.0155
  295MOL0     C40606   4.748   5.350  10.281 -0.4317 -0.4828 -0.8313
  295MOL0     C40607   4.683   5.290  10.393  0.8122  0.2530 -0.1579
  295MOL0     O40608   4.548   5.294  10.419  0.4097  0.3310  0.4790
  295MOL0     C40609   4.492   5.425  10.420  0.9255  0.2645  0.1533
  295MOL0     C40610   4.344   5.403  10.467 -0.0142  0.1658  0.3115
  295MOL0     C40611   4.263   5.325  10.361 -0.3023  0.6025  0.4480
  295MOL0     C40612   4.108   5.348  10.359 -0.3641 -0.3531  0.2682
  295MOL0     C40613   4.068   5.310  10.226 -0.0038 -0.4548  0.4906
  295MOL0     C40614   3.920   5.348  10.215  0.7051  0.3752  0.6146
  295MOL0     C40615   3.853   5.261  10.097 -0.3743  0.5729 -0.9412
  295MOL0     C40616   3.709   5.289  10.088  1.0026  0.3641  0.6139
  295MOL0    Cl40617   3.687   5.449   9.997 -0.2727 -0.0480  0.1214
  295MOL0     C40618   4.761   5.217  10.490 -0.0298 -0.8903  0.5696
  295MOL0     C40619   4.899   5.202  10.476 -0.1058 -0.6371 -0.4087
  295MOL0     O40620   5.112   5.228  10.144 -0.3208 -0.1994 -0.1912
  295MOL0     C40621   5.338   5.436  10.291  0.5500 -0.5309 -0.9083
  295MOL0     C40622   5.469   5.482  10.294  0.3799 -0.4675 -0.8564
  295MOL0     N40623   6.104   5.915  10.162 -0.5438 -0.3305  0.0540
  295MOL0     N40624   6.074   6.036  10.200 -0.0103 -0.2968 -0.3499
  295MOL0     C40625   4.710   6.561  10.448 -0.0561 -0.4010 -0.6181
  295MOL0     C40626   4.580   6.558  10.488 -0.3260 -0.2533  0.2966
  295MOL0     C40627   4.169   6.548  10.664 -0.8931  0.2406  0.9075
  295MOL0     C40628   4.077   6.644  10.623 -0.4936 -0.5547  0.0544
  295MOL0     C40629   3.942   6.642  10.661  0.3868 -0.1323 -0.0995
  295MOL0     C40630   3.895   6.517  10.715 -0.6768  0.7983  0.2609
  295MOL0     O40631   3.764   6.499  10.733 -0.5699  0.1646 -0.5669
  295MOL0     C40632   3.703   6.584  10.829 -0.5337 -0.0398  0.5203
  295MOL0     C40633   3.622   6.507  10.926  0.7254  0.3458 -0.3036
  295MOL0     C40634   3.711   6.429  11.016  0.0723 -0.8234 -0.3408
  295MOL0     C40635   3.629   6.363  11.122 -0.8658  0.6255  0.8825
  295MOL0     C40636   3.713   6.277  11.201  0.3192 -0.0284 -0.7596
  295MOL0     C40637   3.792   6.193  11.253  0.4993 -0.0026 -0.3996
  295MOL0     C40638   3.983   6.419  10.759  0.2407  0.4019  0.8064
  295MOL0     C40639   4.123   6.439  10.741 -0.0416  0.2868  0.0387
  295MOL0     C40640   4.213   6.322  10.793  0.4340 -0.2469 -0.1054
  295MOL0     H40641   4.598   6.358  10.749 -1.3116 -0.8457 -1.6044
  295MOL0     H40642   4.839   6.371  10.697  0.2710 -0.0629  0.4418
  295MOL0     H40643   4.991   6.323  10.477  0.3064  0.1440  0.2753
  295MOL0     H40644   5.054   6.414  10.602 -0.5499  0.1630 -0.2892
  295MOL0     H40645   5.129   6.435  10.304  0.5700  1.5118 -0.3132
  295MOL0     H40646   5.209   6.534  10.430 -3.5309  2.0178  0.4530
  295MOL0     H40647   5.315   6.322  10.530 -0.0332 -0.3819 -0.7604
  295MOL0     H40648   5.240   6.224  10.410 -0.5750 -0.6181  1.8268
  295MOL0     H40649   5.389   6.362  10.239  0.6375 -0.2325  0.4458
  295MOL0     H40650   5.465   6.440  10.377  1.0753  0.6243 -0.3150
  295MOL0     H40651   5.461   6.134  10.333 -0.5570 -0.1611 -0.9330
  295MOL0     H40652   5.529   6.214  10.473 -0.5487 -5.2638 -0.0921
  295MOL0     H40653   5.600   6.266  10.190 -1.7584  2.6167  0.9289
  295MOL0     H40654   5.683   6.343  10.306 -2.1539  0.9071  1.4401
  295MOL0     H40655   5.701   6.036  10.272 -2.4610  1.5067  0.5812
  295MOL0     H40656   5.761   6.119  10.417  0.5593  2.4597 -0.0483
  295MOL0     H40657   5.855   6.235  10.157  0.7351  1.5773  1.4212
  295MOL0     H40658   5.945   6.199  10.313  1.5804 -0.0525 -0.8403
  295MOL0     H40659   5.797   5.939  10.058  1.5188  1.2936 -2.3910
  295MOL0     H40660   6.071   5.661  10.112 -1.5641 -2.5122 -0.7881
  295MOL0     H40661   6.005   5.710   9.959 -1.7327 -0.7348 -0.7749
  295MOL0     H40662   5.804   5.672  10.191 -0.8593 -0.3844  0.6745
  295MOL0     H40663   5.785   5.593  10.035  0.7083 -2.3150  0.3567
  295MOL0     H40664   5.990   5.449  10.095 -1.8410 -0.5033 -1.3191
  295MOL0     H40665   5.955   5.499  10.265  0.2881  1.9762  0.5865
  295MOL0     H40666   5.756   5.374  10.068  0.5097  1.7300 -0.4052
  295MOL0     H40667   5.832   5.297  10.204  2.9931  1.3336  1.5088
  295MOL0     H40668   5.607   5.197  10.166 -2.2625 -0.7226 -1.2937
  295MOL0     H40669   5.459   5.007  10.151  1.2769  0.1826 -0.5763
  295MOL0     H40670   5.360   5.086  10.027 -0.2761 -1.0899  0.2717
  295MOL0     H40671   5.295   5.029  10.181 -0.5218  0.7560  0.3182
  295MOL0     H40672   4.946   5.411  10.203  1.8656 -0.7405  0.1466
  295MOL0     H40673   4.681   5.399  10.213 -2.6220  1.3244  2.3652
  295MOL0     H40674   4.553   5.490  10.484  3.6592  0.4473 -2.4340
  295MOL0     H40675   4.500   5.451  10.314 -0.8290  1.7989  0.3422
  295MOL0     H40676   4.336   5.342  10.558 -2.0001  1.1194  0.8501
  295MOL0     H40677   4.302   5.504  10.481  2.3866  1.1089  1.2434
  295MOL0     H40678   4.278   5.218  10.374 -4.3541  0.0721  2.1421
  295MOL0     H40679   4.293   5.361  10.262 -2.4830  0.9273 -0.1500
  295MOL0     H40680   4.079   5.453  10.364 -0.6155 -0.2989 -1.5950
  295MOL0     H40681   4.051   5.296  10.438 -2.1155 -1.2330 -1.4700
  295MOL0     H40682   4.129   5.358  10.150  0.0036 -1.7283 -0.3511
  295MOL0     H40683   4.082   5.201  10.217  0.4021 -0.4194  0.6857
  295MOL0     H40684   3.903   5.456  10.202  0.0556  0.0953 -1.2198
  295MOL0     H40685   3.874   5.319  10.310 -1.9958  0.2026 -0.6304
  295MOL0     H40686   3.875   5.157  10.125 -1.7237  0.6368  0.4993
  295MOL0     H40687   3.896   5.275   9.997 -0.6819  0.3287 -1.1091
  295MOL0     H40688   3.674   5.297  10.192  0.4309  2.1072  0.3210
  295MOL0     H40689   3.662   5.209  10.030 -1.5001  1.8654  0.4546
  295MOL0     H40690   4.712   5.172  10.576  0.4111 -2.8077 -0.1231
  295MOL0     H40691   4.965   5.149  10.543  0.2087 -1.8350 -1.6300
  295MOL0     H40692   5.257   5.483  10.347  2.4262 -1.1204  2.6273
  295MOL0     H40693   5.493   5.581  10.331 -0.5125  0.5398 -2.8516
  295MOL0     H40694   4.732   6.632  10.368 -1.1698 -0.3650 -0.9142
  295MOL0     H40695   4.519   6.624  10.427  0.7166 -1.3097 -2.0329
  295MOL0     H40696   4.108   6.725  10.557  0.1459 -1.3563 -0.6595
  295MOL0     H40697   3.875   6.722  10.631  3.2753  2.3194 -0.4962
  295MOL0     H40698   3.769   6.642  10.895  2.2369 -1.4915 -0.8231
  295MOL0     H40699   3.636   6.653  10.777 -1.6796  0.7587  2.9075
  295MOL0     H40700   3.551   6.443  10.872 -3.1370  2.4731  1.8050
  295MOL0     H40701   3.560   6.583  10.975 -0.5013  0.5133 -2.0061
  295MOL0     H40702   3.757   6.356  10.949 -0.9560 -4.0660  2.1993
  295MOL0     H40703   3.793   6.488  11.056  0.2761 -1.1136 -0.3258
  295MOL0     H40704   3.545   6.304  11.084  0.0270 -2.1843  2.8689
  295MOL0     H40705   3.594   6.437  11.195  1.5456  3.7562 -0.8883
  295MOL0     H40706   3.864   6.121  11.285  0.0596  0.0462  0.7309
  295MOL0     H40707   3.947   6.329  10.807  1.2147 -1.5246 -1.8394
  295MOL0     H40708   4.297   6.360  10.851  1.0230 -1.0923 -0.3768
  295MOL0     H40709   4.162   6.258  10.865  2.5525  1.5237  3.1908
  295MOL0     H40710   4.253   6.264  10.709 -0.1882 -0.2728 -0.3972
  296MOL0     O40711   1.388   4.236   6.875  0.3529 -0.5343 -0.0875
  296MOL0     C40712   1.354   4.120   6.907 -0.0966  0.0673  0.0800
  296MOL0     O40713   1.444   4.016   6.918 -0.5581  0.8301 -0.2589
  296MOL0     C40714   1.576   4.050   6.890 -0.7214 -0.2323  0.7185
  296MOL0     C40715   1.630   4.037   6.760 -0.1818  0.8056 -1.0825
  296MOL0     C40716   1.763   4.061   6.737  0.7359  0.5591 -0.0934
  296MOL0     C40717   1.852   4.094   6.838 -0.3830 -0.3642 -0.0422
  296MOL0     O40718   1.989   4.099   6.824 -0.3930  0.0898  0.2682
  296MOL0     C40719   2.040   4.108   6.693 -1.4266 -0.1591 -1.0215
  296MOL0     C40720   2.197   4.129   6.697 -0.2470  0.8468  0.1797
  296MOL0     C40721   2.268   4.054   6.577 -0.3789  0.2039  0.6069
  296MOL0     C40722   2.421   4.049   6.600  0.0178 -0.1249 -0.1419
  296MOL0     C40723   2.489   3.966   6.495 -0.2789 -0.4492  0.6043
  296MOL0     C40724   2.637   3.941   6.540  0.9616  0.4731  0.1181
  296MOL0     C40725   2.706   4.080   6.576 -0.2219  0.5132 -0.1678
  296MOL0     C40726   2.854   4.047   6.553 -0.0202  0.7529  0.5139
  296MOL0     N40727   2.930   4.171   6.562  0.7748 -1.0396 -0.8404
  296MOL0     C40728   2.954   4.240   6.448  0.3407 -0.0587 -0.0268
  296MOL0     C40729   3.034   4.332   6.498 -0.3967 -0.8385  0.4262
  296MOL0     C40730   3.097   4.438   6.410 -0.1312  0.3832 -0.4544
  296MOL0     C40731   3.252   4.451   6.422  0.0326  0.0790 -0.0697
  296MOL0     C40732   3.307   4.566   6.331  0.1431 -0.0699  1.0720
  296MOL0     C40733   3.462   4.547   6.305  0.0483 -0.3486 -0.0566
  296MOL0     O40734   3.511   4.410   6.275  0.9885  0.0711  0.0521
  296MOL0     C40735   3.638   4.379   6.253 -0.3732  0.2261  0.3177
  296MOL0     C40736   3.651   4.245   6.235  0.5211 -0.0223  0.2757
  296MOL0     C40737   3.776   4.185   6.197  0.6533 -0.0030 -0.3036
  296MOL0     C40738   3.765   4.036   6.176  1.1383 -0.0808  0.0872
  296MOL0     C40739   3.885   4.273   6.183  0.0041  0.0436 -0.8038
  296MOL0     C40740   4.020   4.234   6.148  0.0568 -0.0091 -0.2233
  296MOL0     O40741   4.105   4.319   6.086  0.5083  0.0772  0.2197
  296MOL0     C40742   4.235   4.290   6.058  0.4112 -0.1233  0.7558
  296MOL0     C40743   4.259   4.242   5.924 -0.6951 -0.3909 -0.6362
  296MOL0     C40744   4.390   4.194   5.899 -0.1687 -0.6311 -0.2676
  296MOL0     C40745   4.501   4.211   5.985  0.1785 -0.4316  0.3654
  296MOL0     O40746   4.624   4.162   5.945  0.5824 -0.1185  0.4275
  296MOL0     C40747   4.741   4.210   6.014  0.1945  0.6846  0.1606
  296MOL0     C40748   4.857   4.196   5.915 -0.5126  0.2834  0.1327
  296MOL0     C40749   4.986   4.272   5.969  0.6819  0.4956  0.2550
  296MOL0     C40750   5.101   4.241   5.871 -0.6302 -0.0085 -0.3408
  296MOL0     C40751   5.174   4.104   5.887  0.2465 -1.0551 -0.6622
  296MOL0     C40752   5.192   4.045   5.749  0.2911 -0.1601 -0.1363
  296MOL0     C40753   5.261   3.905   5.750 -0.3215 -0.5228 -0.3745
  296MOL0     C40754   5.397   3.906   5.815  0.7316  0.1016 -0.5115
  296MOL0    Cl40755   5.483   3.751   5.775  0.0122  0.1924  0.5830
  296MOL0     C40756   4.474   4.277   6.110 -0.4446 -0.0809 -0.4970
  296MOL0     C40757   4.346   4.316   6.147 -0.6931  0.4404  0.2595
  296MOL0     O40758   4.052   4.126   6.190  0.7272  0.1299  0.1171
  296MOL0     C40759   3.868   4.412   6.208  0.3380 -0.1059 -1.6078
  296MOL0     C40760   3.744   4.466   6.241 -0.7209 -0.0610 -0.4172
  296MOL0     N40761   3.055   4.321   6.627  0.3539 -0.8579  0.0283
  296MOL0     N40762   2.991   4.217   6.668  0.2452  0.5025 -0.5798
  296MOL0     C40763   1.804   4.099   6.971  0.3737  0.8643  0.2222
  296MOL0     C40764   1.660   4.070   6.992 -0.7260 -0.0460 -0.9749
  296MOL0     C40765   1.217   4.099   6.979 -1.0023  0.5157  0.2569
  296MOL0     C40766   1.206   3.983   7.058 -0.1559  1.0622  0.3448
  296MOL0     C40767   1.073   3.947   7.110  0.3031  0.1220 -0.6211
  296MOL0     C40768   0.970   4.040   7.104 -0.3998 -0.5804  0.7552
  296MOL0     O40769   0.850   4.021   7.168 -0.1318  0.0008  0.3250
  296MOL0     C40770   0.828   3.900   7.251  1.2894  0.6641  0.2647
  296MOL0     C40771   0.689   3.908   7.322 -0.5854 -0.5626 -0.7031
  296MOL0     C40772   0.560   3.949   7.245  0.5442  0.5518  0.2833
  296MOL0     C40773   0.448   3.843   7.260 -0.1943 -0.1447  0.9414
  296MOL0     C40774   0.368   3.837   7.138  0.0514 -0.1981 -0.1514
  296MOL0     C40775   0.308   3.807   7.036  0.0003  0.0748 -0.6011
  296MOL0     C40776   0.987   4.155   7.031 -0.1383 -0.1663 -0.4131
  296MOL0     C40777   1.107   4.186   6.962 -0.4397  0.0015 -0.1505
  296MOL0     C40778   1.107   4.310   6.876 -0.0895 -0.0158  0.6323
  296MOL0     H40779   1.573   3.993   6.679 -1.0635 -1.3650  0.5935
  296MOL0     H40780   1.790   4.059   6.632 -0.6373  2.5690 -0.5475
  296MOL0     H40781   1.997   4.189   6.633 -1.8314 -0.5769 -1.3090
  296MOL0     H40782   2.010   4.015   6.644 -0.4165 -0.3060 -1.3734
  296MOL0     H40783   2.226   4.234   6.688  1.9160  0.1557 -2.2503
  296MOL0     H40784   2.221   4.091   6.796 -1.0898 -0.5819 -0.1346
  296MOL0     H40785   2.229   3.953   6.564 -0.7612  0.6553 -2.4202
  296MOL0     H40786   2.242   4.117   6.491  0.3593  0.5450  0.6247
  296MOL0     H40787   2.445   4.156   6.592 -0.5409 -0.0003 -0.1926
  296MOL0     H40788   2.437   4.002   6.697 -0.8339  1.0747  0.6008
  296MOL0     H40789   2.477   4.008   6.395  1.8210 -2.8059 -0.7371
  296MOL0     H40790   2.445   3.866   6.488 -0.7437 -0.3444  1.6867
  296MOL0     H40791   2.634   3.883   6.632  0.6799 -0.3706 -0.4088
  296MOL0     H40792   2.682   3.878   6.463 -1.8764 -1.4296 -0.1514
  296MOL0     H40793   2.694   4.112   6.680 -0.7172  0.3841 -0.1834
  296MOL0     H40794   2.678   4.159   6.506  0.5779  0.9312 -0.0199
  296MOL0     H40795   2.888   3.984   6.636  2.3250  0.4168 -0.6131
  296MOL0     H40796   2.870   3.985   6.464  2.3024 -2.0712  2.6952
  296MOL0     H40797   2.925   4.216   6.347 -2.4746 -0.0297  0.7006
  296MOL0     H40798   3.049   4.536   6.420 -0.4211  0.1695  0.2562
  296MOL0     H40799   3.074   4.401   6.310  0.6828 -0.3129 -0.3968
  296MOL0     H40800   3.274   4.477   6.525 -0.7004 -2.4621  0.8033
  296MOL0     H40801   3.294   4.354   6.393 -1.2067  0.4148 -3.5101
  296MOL0     H40802   3.262   4.573   6.232  1.7139  0.1607  0.3391
  296MOL0     H40803   3.292   4.661   6.384 -2.6064 -0.5667  1.3662
  296MOL0     H40804   3.496   4.622   6.234 -0.6208  1.2149  1.2018
  296MOL0     H40805   3.516   4.569   6.398 -1.9282  0.0579  1.0686
  296MOL0     H40806   3.564   4.188   6.266 -0.9219  1.8985 -0.0956
  296MOL0     H40807   3.660   4.010   6.159  0.3188  2.0849  1.4027
  296MOL0     H40808   3.790   3.988   6.271 -2.3366 -0.2879  1.0618
  296MOL0     H40809   3.832   3.997   6.099 -0.5009  1.5080 -2.3021
  296MOL0     H40810   4.171   4.230   5.861 -2.2387  0.5072  1.2422
  296MOL0     H40811   4.418   4.142   5.808  2.4081 -3.2472  1.8451
  296MOL0     H40812   4.727   4.318   6.028 -0.0988  0.8659 -1.3266
  296MOL0     H40813   4.755   4.155   6.107  2.6343  0.6038 -0.1951
  296MOL0     H40814   4.880   4.090   5.905  2.9211  0.5747  3.1115
  296MOL0     H40815   4.824   4.236   5.818 -0.7272  2.1299  0.9186
  296MOL0     H40816   5.019   4.241   6.068  3.6804  1.2574 -0.4128
  296MOL0     H40817   4.973   4.380   5.976  2.1176  0.6407  1.0142
  296MOL0     H40818   5.181   4.310   5.898 -0.7102  0.1466 -0.4930
  296MOL0     H40819   5.066   4.255   5.768 -0.4269 -0.1005 -0.4230
  296MOL0     H40820   5.265   4.130   5.943 -0.4140 -4.9136  2.6970
  296MOL0     H40821   5.119   4.041   5.957 -0.0871 -0.4597 -0.3760
  296MOL0     H40822   5.262   4.114   5.701  1.6588  0.2531  2.2412
  296MOL0     H40823   5.097   4.039   5.696 -0.3615 -1.5799  1.1231
  296MOL0     H40824   5.278   3.883   5.644  0.4631  0.7719 -0.5400
  296MOL0     H40825   5.202   3.837   5.811 -0.3417  1.7453  2.3402
  296MOL0     H40826   5.379   3.908   5.923  1.2793 -2.7133 -0.2818
  296MOL0     H40827   5.453   3.991   5.776  1.9692 -1.4286 -2.2742
  296MOL0     H40828   4.558   4.297   6.176 -0.6771 -1.5737  0.3132
  296MOL0     H40829   4.335   4.381   6.233  1.9000  3.5594 -1.5353
  296MOL0     H40830   3.944   4.489   6.202 -1.3649  1.8441  0.2844
  296MOL0     H40831   3.741   4.574   6.247  0.6447  0.0304 -1.0335
  296MOL0     H40832   1.862   4.116   7.061 -1.4983 -0.3185  1.7273
  296MOL0     H40833   1.623   4.059   7.093 -1.7952 -2.0639 -1.5186
  296MOL0     H40834   1.295   3.922   7.067  1.4370  2.8052 -2.2629
  296MOL0     H40835   1.069   3.850   7.159  3.5199 -0.1607 -0.6780
  296MOL0     H40836   0.832   3.809   7.191 -1.4654  1.0768 -0.6750
  296MOL0     H40837   0.912   3.892   7.321  1.6403  0.8177 -0.1396
  296MOL0     H40838   0.702   3.986   7.397  1.0993 -3.2423  2.0240
  296MOL0     H40839   0.669   3.815   7.377 -0.8479  0.0424  0.2441
  296MOL0     H40840   0.520   4.046   7.276  1.3595  1.2155 -0.6477
  296MOL0     H40841   0.583   3.965   7.139  0.3300  3.2724  0.5694
  296MOL0     H40842   0.385   3.865   7.347  0.6025  2.8932  0.8721
  296MOL0     H40843   0.493   3.744   7.273  2.6922  1.2200  2.2801
  296MOL0     H40844   0.260   3.803   6.940  1.5942 -0.7969 -1.4121
  296MOL0     H40845   0.892   4.206   7.017  0.4934  1.1019 -0.1984
  296MOL0     H40846   1.136   4.287   6.774 -2.3231 -0.5591  0.0539
  296MOL0     H40847   1.001   4.335   6.861 -0.8209 -1.3583  2.9522
  296MOL0     H40848   1.164   4.391   6.921 -0.2362 -0.3909  1.5156
  297MOL0     O40849  10.105   4.288   3.784 -0.4147 -0.7833 -0.5034
  297MOL0     C40850  10.094   4.407   3.747  0.6963  0.6745  0.7840
  297MOL0     O40851  10.159   4.512   3.799 -0.3058  0.3634 -0.4621
  297MOL0     C40852  10.279   4.477   3.861  0.7088  0.1077 -0.0221
  297MOL0     C40853  10.283   4.456   3.996 -0.1408 -0.5970 -0.0065
  297MOL0     C40854  10.405   4.428   4.061 -0.3708 -0.1751  0.0894
  297MOL0     C40855  10.525   4.432   3.986 -0.4232  0.9384  0.6736
  297MOL0     O40856  10.659   4.440   4.038  0.9350  0.0765  0.5296
  297MOL0     C40857  10.675   4.476   4.180  1.5215 -0.0344  0.1223
  297MOL0     C40858  10.696   4.349   4.268 -0.4479 -0.4691 -0.2354
  297MOL0     C40859  10.822   4.276   4.228 -0.2672 -0.4256  0.2406
  297MOL0     C40860  10.942   4.362   4.271  0.0123  0.3943  0.3728
  297MOL0     C40861  11.076   4.290   4.224  0.2129 -0.3094 -0.5951
  297MOL0     C40862  11.091   4.149   4.265  1.4290 -0.2391 -0.2072
  297MOL0     C40863  11.236   4.100   4.244 -0.1118 -0.2100 -0.2332
  297MOL0     C40864  11.284   4.069   4.103  0.4183  1.1106 -0.3677
  297MOL0     N40865  11.413   4.003   4.094  0.5217 -0.5038 -1.0041
  297MOL0     C40866  11.533   4.072   4.088  0.2863  0.7531 -0.2233
  297MOL0     C40867  11.623   3.968   4.082  0.5878 -0.8565  0.7296
  297MOL0     C40868  11.768   3.977   4.060  0.4026  0.2315 -0.0014
  297MOL0     C40869  11.859   3.902   4.169  0.0575  0.1205 -0.3398
  297MOL0     C40870  12.010   3.905   4.133 -0.0700  0.3160  0.0337
  297MOL0     C40871  12.046   3.824   3.998 -0.3307 -0.4414  0.2792
  297MOL0     O40872  12.189   3.809   3.995  0.2738 -0.8955 -0.1567
  297MOL0     C40873  12.243   3.738   3.891  0.6891 -0.0868  0.3761
  297MOL0     C40874  12.173   3.715   3.766  0.5298  0.2098  0.1624
  297MOL0     C40875  12.232   3.661   3.650  0.1751 -0.2848 -0.3264
  297MOL0     C40876  12.142   3.633   3.524  0.8579  0.4084  0.0118
  297MOL0     C40877  12.369   3.634   3.651  0.2357 -0.0583 -0.0407
  297MOL0     C40878  12.454   3.591   3.540  0.1325  0.6795 -0.0073
  297MOL0     O40879  12.588   3.607   3.558  0.1112  0.1587 -0.4340
  297MOL0     C40880  12.657   3.613   3.445 -0.4423  1.1142  0.3172
  297MOL0     C40881  12.687   3.501   3.369 -0.1697 -0.3267  0.5225
  297MOL0     C40882  12.776   3.510   3.250  0.2772 -0.7958 -0.0482
  297MOL0     C40883  12.840   3.633   3.222 -0.9023  0.3156 -0.5421
  297MOL0     O40884  12.933   3.660   3.120 -0.0336  0.5012 -0.0251
  297MOL0     C40885  12.915   3.591   3.000 -0.0298  0.4452  0.3044
  297MOL0     C40886  13.019   3.640   2.904  0.3431  0.7783 -0.4535
  297MOL0     C40887  13.163   3.613   2.953 -0.2369  0.2401 -0.0498
  297MOL0     C40888  13.259   3.644   2.837 -0.7250  0.8963  0.3701
  297MOL0     C40889  13.406   3.636   2.877 -0.0783 -0.5827  0.4250
  297MOL0     C40890  13.462   3.493   2.902  0.3352 -0.2836 -0.3061
  297MOL0     C40891  13.605   3.487   2.842 -0.4947  0.2495  0.8348
  297MOL0     C40892  13.674   3.370   2.908 -0.0134 -0.1921  0.0273
  297MOL0    Cl40893  13.838   3.362   2.848  0.0902 -0.0326 -0.0922
  297MOL0     C40894  12.814   3.741   3.303  0.1646  0.5534  0.5568
  297MOL0     C40895  12.721   3.737   3.410  0.0382  0.1137 -0.8752
  297MOL0     O40896  12.396   3.553   3.437  0.3091  0.3367 -0.2780
  297MOL0     C40897  12.441   3.657   3.776 -0.7072 -1.2357 -0.1369
  297MOL0     C40898  12.377   3.712   3.890 -0.2560  0.3996  0.0342
  297MOL0     N40899  11.561   3.849   4.115 -0.6091  0.2593 -0.9043
  297MOL0     N40900  11.435   3.876   4.126 -0.6994  0.8656 -0.0063
  297MOL0     C40901  10.516   4.439   3.844 -0.4293 -0.2573 -0.4373
  297MOL0     C40902  10.390   4.456   3.782  0.0940  0.2190  0.6445
  297MOL0     C40903   9.993   4.433   3.639 -0.4521  0.4962  0.4735
  297MOL0     C40904   9.888   4.525   3.662 -0.6762  0.9094 -0.2971
  297MOL0     C40905   9.789   4.534   3.573  0.3020 -0.2982 -0.9006
  297MOL0     C40906   9.797   4.478   3.443  0.1589 -0.3297 -0.1546
  297MOL0     O40907   9.711   4.497   3.335 -0.3725 -0.1418 -0.9225
  297MOL0     C40908   9.576   4.537   3.355  0.5707  0.4254  0.4124
  297MOL0     C40909   9.575   4.687   3.348 -0.8886 -1.1779  0.8371
  297MOL0     C40910   9.441   4.751   3.373  0.4638  0.8086  0.6081
  297MOL0     C40911   9.360   4.697   3.494 -0.5775 -0.2424  0.6478
  297MOL0     C40912   9.227   4.759   3.495  0.2150 -0.3070 -0.7789
  297MOL0     C40913   9.125   4.831   3.508 -0.2989 -0.3517 -0.4325
  297MOL0     C40914   9.904   4.390   3.415  0.2941  0.2781 -0.0340
  297MOL0     C40915   9.994   4.367   3.511 -0.6503 -0.0832  0.0395
  297MOL0     C40916  10.110   4.287   3.470  0.0873  0.3331 -1.0428
  297MOL0     H40917  10.191   4.456   4.053 -0.4787 -0.8387 -0.5382
  297MOL0     H40918  10.410   4.424   4.169  0.0295  1.6263  0.1689
  297MOL0     H40919  10.597   4.537   4.225  1.3240  1.4549 -2.0656
  297MOL0     H40920  10.764   4.538   4.178  1.4322  0.1207 -2.4870
  297MOL0     H40921  10.685   4.377   4.373  0.6285 -0.5697 -0.0833
  297MOL0     H40922  10.612   4.284   4.242 -1.3333  0.9966 -1.1720
  297MOL0     H40923  10.822   4.180   4.280  1.2862 -0.6058 -0.0288
  297MOL0     H40924  10.813   4.249   4.122  0.3930  1.4021 -0.3266
  297MOL0     H40925  10.941   4.466   4.238 -1.0711 -0.3444 -2.1464
  297MOL0     H40926  10.939   4.363   4.381  1.6125 -0.5018  0.4531
  297MOL0     H40927  11.161   4.353   4.253 -0.5974 -0.6647  3.0335
  297MOL0     H40928  11.086   4.293   4.115  4.5391 -0.9106 -0.3930
  297MOL0     H40929  11.063   4.144   4.371 -2.0180 -0.4079 -1.0191
  297MOL0     H40930  11.023   4.084   4.211  1.6543  0.9425 -1.9923
  297MOL0     H40931  11.241   4.008   4.304 -0.8453  0.4398  0.8603
  297MOL0     H40932  11.312   4.165   4.287  1.5310 -1.8927 -0.4936
  297MOL0     H40933  11.198   4.011   4.066 -2.5413  4.1437  1.2274
  297MOL0     H40934  11.290   4.167   4.054  3.7274  0.5614 -1.2436
  297MOL0     H40935  11.544   4.180   4.088  0.1031  0.7777 -1.0646
  297MOL0     H40936  11.791   4.084   4.063  2.4044 -0.0682 -2.0080
  297MOL0     H40937  11.789   3.933   3.962 -0.5633 -1.5543  0.5441
  297MOL0     H40938  11.845   3.947   4.268 -1.6034 -3.6980  1.3637
  297MOL0     H40939  11.825   3.799   4.185 -0.8074  0.6921  1.9168
  297MOL0     H40940  12.049   4.007   4.133  0.7192  0.2063  4.6107
  297MOL0     H40941  12.063   3.857   4.215 -0.1592  3.0221  1.7921
  297MOL0     H40942  12.000   3.725   3.993 -2.3498  0.4445  0.0810
  297MOL0     H40943  12.003   3.886   3.918 -0.7627 -1.8919 -0.6594
  297MOL0     H40944  12.070   3.743   3.748  0.7029  0.5789 -0.2422
  297MOL0     H40945  12.041   3.667   3.550  1.2335  0.4468  1.4995
  297MOL0     H40946  12.141   3.524   3.515  0.9682  0.3698  0.4392
  297MOL0     H40947  12.187   3.688   3.441 -0.7168 -0.1669 -1.2622
  297MOL0     H40948  12.644   3.405   3.396 -1.4914 -0.4203 -1.6869
  297MOL0     H40949  12.805   3.423   3.191  3.1834  1.6803 -2.6289
  297MOL0     H40950  12.919   3.483   3.012  0.3406  0.3675 -0.4711
  297MOL0     H40951  12.816   3.615   2.960 -0.4334 -2.9960 -1.0851
  297MOL0     H40952  12.997   3.595   2.806 -0.1623 -0.9670  0.4103
  297MOL0     H40953  13.015   3.749   2.911  2.1654  0.7597  2.1946
  297MOL0     H40954  13.179   3.510   2.987  2.6040 -0.0326 -1.8469
  297MOL0     H40955  13.189   3.674   3.040  2.2849 -0.6312 -0.1209
  297MOL0     H40956  13.247   3.746   2.798 -0.5484  0.9373  0.4233
  297MOL0     H40957  13.242   3.577   2.752 -0.9021 -0.1261  1.1817
  297MOL0     H40958  13.462   3.682   2.795 -1.1334 -2.2430 -1.3202
  297MOL0     H40959  13.421   3.701   2.963 -2.2223  1.3721 -0.5810
  297MOL0     H40960  13.394   3.428   2.846 -4.3054  3.5679  0.2165
  297MOL0     H40961  13.458   3.459   3.006  0.3296  0.2106 -0.1424
  297MOL0     H40962  13.655   3.581   2.868  0.6656 -0.3964  1.0167
  297MOL0     H40963  13.610   3.476   2.733  3.0801 -1.7703  1.0566
  297MOL0     H40964  13.620   3.276   2.896  3.0690 -1.8172 -2.3991
  297MOL0     H40965  13.677   3.398   3.014 -1.0184 -0.0583  0.0357
  297MOL0     H40966  12.859   3.835   3.271 -0.0891  0.9052  1.2136
  297MOL0     H40967  12.694   3.823   3.469 -0.4651 -0.9429  0.4969
  297MOL0     H40968  12.548   3.640   3.774  0.0018  2.2376  0.9976
  297MOL0     H40969  12.442   3.748   3.969  0.1095 -0.3441  0.0848
  297MOL0     H40970  10.612   4.440   3.793  0.5536  0.3809  1.3344
  297MOL0     H40971  10.389   4.457   3.674  2.0576 -0.7920  0.5865
  297MOL0     H40972   9.901   4.581   3.755  1.5621 -0.9634  0.6313
  297MOL0     H40973   9.706   4.602   3.586 -0.1731 -1.3748  2.6201
  297MOL0     H40974   9.510   4.500   3.276  0.1351  4.2992 -1.2509
  297MOL0     H40975   9.545   4.500   3.453  0.1319 -1.5863 -0.4400
  297MOL0     H40976   9.609   4.715   3.248 -1.3469 -1.0774  0.7080
  297MOL0     H40977   9.647   4.744   3.408 -1.3666  1.7010 -1.0858
  297MOL0     H40978   9.463   4.858   3.377  1.4708  0.6346  0.2612
  297MOL0     H40979   9.388   4.719   3.283  0.7044 -0.4065  0.8841
  297MOL0     H40980   9.408   4.713   3.591 -1.9529 -0.5270  1.3996
  297MOL0     H40981   9.348   4.589   3.484  3.2325 -0.6413 -1.9327
  297MOL0     H40982   9.048   4.906   3.507  1.3159  1.4276 -1.9442
  297MOL0     H40983   9.911   4.343   3.317 -0.1567 -1.4315  0.7274
  297MOL0     H40984  10.199   4.351   3.482 -0.0553  0.2335  0.9639
  297MOL0     H40985  10.120   4.204   3.540 -1.0567  0.2310 -0.9869
  297MOL0     H40986  10.100   4.244   3.370 -0.6680 -1.8801 -0.0698
  298MOL0     O40987   0.720   0.796   8.434 -0.2874 -0.1792 -0.2733
  298MOL0     C40988   0.627   0.735   8.379 -0.2473 -0.7794 -0.5665
  298MOL0     O40989   0.642   0.637   8.280  0.1817 -0.4368  0.0482
  298MOL0     C40990   0.767   0.578   8.254 -0.0368  0.0669 -0.3803
  298MOL0     C40991   0.853   0.539   8.356  0.2759  0.3475  0.1152
  298MOL0     C40992   0.970   0.464   8.331  0.1896  0.1585  0.4191
  298MOL0     C40993   1.021   0.452   8.197  0.3697  0.2891 -0.2727
  298MOL0     O40994   1.136   0.392   8.159  0.2175  0.0792 -0.0285
  298MOL0     C40995   1.223   0.333   8.263 -0.1237 -0.1987  0.1837
  298MOL0     C40996   1.334   0.251   8.204  0.6845 -0.8885 -0.0007
  298MOL0     C40997   1.422   0.317   8.097 -0.2985  0.5877 -0.8457
  298MOL0     C40998   1.489   0.449   8.141 -0.0793 -0.1825 -0.2002
  298MOL0     C40999   1.598   0.496   8.048 -0.5129  0.6068  0.2764
  298MOL0     C41000   1.562   0.522   7.901 -0.2846 -0.5160 -0.4479
  298MOL0     C41001   1.690   0.531   7.816 -0.4727 -0.5524  0.2172
  298MOL0     C41002   1.667   0.601   7.683  0.1471  0.6049  0.3260
  298MOL0     N41003   1.790   0.610   7.601 -0.6686 -0.5711  0.1302
  298MOL0     C41004   1.890   0.708   7.635 -1.0058  0.2424 -0.2066
  298MOL0     C41005   1.989   0.689   7.549 -0.4975  0.1976 -0.4241
  298MOL0     C41006   2.119   0.768   7.548  0.7971 -0.7933 -0.9524
  298MOL0     C41007   2.242   0.689   7.527 -0.6478 -0.0759  0.5869
  298MOL0     C41008   2.259   0.656   7.372  0.3583 -0.0117 -0.7176
  298MOL0     C41009   2.405   0.625   7.335 -0.3374 -0.4666 -0.5555
  298MOL0     O41010   2.465   0.518   7.416 -0.1876  0.2927 -0.2303
  298MOL0     C41011   2.580   0.462   7.366 -0.3940 -0.5629 -0.0561
  298MOL0     C41012   2.663   0.507   7.258  0.1371 -0.0299  0.1533
  298MOL0     C41013   2.784   0.452   7.226  0.8206  0.5003  0.3165
  298MOL0     C41014   2.869   0.520   7.123 -0.7389  0.0618 -0.5920
  298MOL0     C41015   2.829   0.338   7.298 -0.9369  0.0740 -0.3082
  298MOL0     C41016   2.968   0.282   7.304 -0.0230 -0.4995  0.1192
  298MOL0     O41017   3.038   0.298   7.188 -0.2048  0.0151 -0.4056
  298MOL0     C41018   3.162   0.240   7.175  0.0892 -0.0706  0.1128
  298MOL0     C41019   3.171   0.104   7.162  0.0479  0.2731 -0.6051
  298MOL0     C41020   3.302   0.057   7.146  0.1357  0.1431  0.4435
  298MOL0     C41021   3.413   0.142   7.134  0.2543 -0.9353  0.9094
  298MOL0     O41022   3.527   0.072   7.112 -0.1818  0.4030  0.1140
  298MOL0     C41023   3.651   0.136   7.113  0.1439  0.2102 -0.2506
  298MOL0     C41024   3.726   0.118   7.243  0.0899  0.2190  0.6315
  298MOL0     C41025   3.864   0.177   7.230 -0.0338 -0.5883 -0.3577
  298MOL0     C41026   3.916   0.223   7.367 -0.0753  0.6678 -0.4157
  298MOL0     C41027   4.057   0.283   7.362  0.2254  0.1715  0.1238
  298MOL0     C41028   4.064   0.428   7.309 -0.5316  0.7744 -0.8013
  298MOL0     C41029   4.203   0.482   7.308 -0.6703 -0.0549 -0.4611
  298MOL0     C41030   4.271   0.526   7.446  0.3880 -0.5228  0.6721
  298MOL0    Cl41031   4.425   0.624   7.430 -0.0188  0.1791  0.2736
  298MOL0     C41032   3.394   0.280   7.133  0.2571  0.8381 -0.5759
  298MOL0     C41033   3.268   0.325   7.165  0.5858  0.5370  0.1947
  298MOL0     O41034   3.014   0.219   7.399 -0.1434  0.5273 -0.2765
  298MOL0     C41035   2.737   0.279   7.388 -0.3515  0.7433 -0.2137
  298MOL0     C41036   2.620   0.342   7.422  0.0312  0.1694  0.4894
  298MOL0     N41037   1.959   0.574   7.470  0.5422  0.1002 -0.1374
  298MOL0     N41038   1.841   0.533   7.510 -0.3373 -0.3725  0.3103
  298MOL0     C41039   0.926   0.476   8.095 -0.8117 -0.6422  0.5182
  298MOL0     C41040   0.806   0.544   8.122  0.1184 -0.7556  0.2057
  298MOL0     C41041   0.485   0.777   8.399 -0.4323 -0.3013 -0.4421
  298MOL0     C41042   0.380   0.696   8.345 -0.4826 -1.3079  0.5672
  298MOL0     C41043   0.245   0.732   8.356 -0.5132  0.5006 -0.3917
  298MOL0     C41044   0.208   0.848   8.412  0.7139 -0.3658 -0.3227
  298MOL0     O41045   0.074   0.883   8.396 -0.1975  0.0826  0.3699
  298MOL0     C41046   0.013   0.997   8.456 -0.3775  0.2092  1.0875
  298MOL0     C41047  -0.141   0.988   8.415  0.7848 -1.0159 -0.3208
  298MOL0     C41048  -0.198   0.846   8.417 -0.0675 -0.2864  0.2664
  298MOL0     C41049  -0.356   0.846   8.400 -0.0100  0.3570 -0.0150
  298MOL0     C41050  -0.398   0.896   8.270  0.3026 -1.1161 -0.6507
  298MOL0     C41051  -0.419   0.932   8.157 -0.4008 -0.1525 -0.1724
  298MOL0     C41052   0.301   0.923   8.471 -0.8754  0.3884 -0.7269
  298MOL0     C41053   0.439   0.889   8.464 -0.3921  0.2117 -0.7339
  298MOL0     C41054   0.529   0.978   8.542  0.1153  0.6634 -0.4468
  298MOL0     H41055   0.828   0.548   8.461 -2.0089  1.8442 -0.4851
  298MOL0     H41056   1.033   0.429   8.412  0.4320 -2.2832 -0.7468
  298MOL0     H41057   1.166   0.265   8.327  1.3440 -1.1689  0.5000
  298MOL0     H41058   1.269   0.415   8.319  0.9256 -1.1963  0.8237
  298MOL0     H41059   1.391   0.230   8.294 -1.1092  2.0468  2.0042
  298MOL0     H41060   1.290   0.159   8.163  0.0550 -0.7751  0.4029
  298MOL0     H41061   1.502   0.245   8.078  0.4278  1.3154 -0.6604
  298MOL0     H41062   1.365   0.331   8.005 -0.3983  1.3784 -0.6772
  298MOL0     H41063   1.403   0.516   8.140 -0.0835 -0.1804 -2.0000
  298MOL0     H41064   1.526   0.431   8.243 -2.1380 -1.4484  0.3867
  298MOL0     H41065   1.673   0.417   8.053  1.3232  2.1495 -1.3219
  298MOL0     H41066   1.653   0.582   8.087  0.3614  1.5027 -2.6673
  298MOL0     H41067   1.493   0.445   7.867  0.3573 -0.8987 -0.8989
  298MOL0     H41068   1.511   0.618   7.886  1.9944  0.8522  0.1097
  298MOL0     H41069   1.731   0.432   7.794  1.1331  0.3883 -1.2880
  298MOL0     H41070   1.764   0.587   7.874 -0.6464 -2.4381  2.4260
  298MOL0     H41071   1.582   0.564   7.625  1.7553 -0.5439 -1.3877
  298MOL0     H41072   1.635   0.701   7.714  0.3407  0.4684  0.9731
  298MOL0     H41073   1.902   0.786   7.710  3.3829  2.9369 -3.3011
  298MOL0     H41074   2.120   0.822   7.643 -0.8989  3.2620 -2.9880
  298MOL0     H41075   2.104   0.842   7.469 -1.8688 -0.4824 -0.2505
  298MOL0     H41076   2.333   0.737   7.564  1.0170 -3.0723  0.7461
  298MOL0     H41077   2.242   0.597   7.587 -1.7475  0.7283  1.8827
  298MOL0     H41078   2.195   0.569   7.352 -1.0331  1.4905 -3.3977
  298MOL0     H41079   2.224   0.738   7.308 -0.8484  0.3798  0.3929
  298MOL0     H41080   2.409   0.608   7.227 -2.6326  0.7782 -0.8967
  298MOL0     H41081   2.450   0.722   7.360 -3.5944  1.3792 -1.3251
  298MOL0     H41082   2.631   0.594   7.203  2.4540  1.3629  0.8621
  298MOL0     H41083   2.903   0.443   7.053 -0.7134  1.8974 -2.6953
  298MOL0     H41084   2.967   0.557   7.157  1.2522 -2.1073 -3.4842
  298MOL0     H41085   2.812   0.604   7.082 -0.9540  0.1509 -0.1114
  298MOL0     H41086   3.085   0.043   7.185  0.2235  0.0503 -0.5378
  298MOL0     H41087   3.327  -0.048   7.144  1.2493  0.3973 -1.1039
  298MOL0     H41088   3.717   0.117   7.028  1.8805  1.1690  0.8320
  298MOL0     H41089   3.640   0.243   7.093  3.5450  0.2216 -3.0523
  298MOL0     H41090   3.662   0.172   7.313 -2.4718 -2.4889  0.5963
  298MOL0     H41091   3.722   0.022   7.296  0.4485  1.8458  3.8246
  298MOL0     H41092   3.870   0.268   7.168  0.5998  0.2572  0.9028
  298MOL0     H41093   3.934   0.098   7.202  0.8056 -0.6119  1.6636
  298MOL0     H41094   3.924   0.139   7.438  3.5096  0.4656 -0.8860
  298MOL0     H41095   3.842   0.292   7.408  0.6255  0.8259  0.6333
  298MOL0     H41096   4.099   0.283   7.463  1.3328 -0.8550 -0.3116
  298MOL0     H41097   4.124   0.220   7.302 -1.2370 -0.6672 -0.6683
  298MOL0     H41098   3.995   0.492   7.365 -0.5915 -0.1591  0.2100
  298MOL0     H41099   4.023   0.432   7.207 -0.1372 -2.9652 -1.2420
  298MOL0     H41100   4.198   0.569   7.241  2.7239 -0.1182 -1.0104
  298MOL0     H41101   4.274   0.415   7.259 -0.9089 -0.7226  0.0999
  298MOL0     H41102   4.305   0.450   7.517  3.9411  0.0846 -0.1741
  298MOL0     H41103   4.201   0.599   7.488  1.4654  1.0603 -0.1655
  298MOL0     H41104   3.475   0.352   7.127  0.6604  0.7829  2.5260
  298MOL0     H41105   3.235   0.428   7.171  1.0514  0.7168 -0.2611
  298MOL0     H41106   2.781   0.194   7.439  4.6499  2.7019 -0.6816
  298MOL0     H41107   2.566   0.298   7.505 -0.6134 -0.6086 -0.3196
  298MOL0     H41108   0.939   0.442   7.993 -0.3264 -3.8934  1.5626
  298MOL0     H41109   0.732   0.565   8.045  1.3351 -0.9179 -1.0400
  298MOL0     H41110   0.401   0.605   8.291  0.5715 -1.1359  0.6682
  298MOL0     H41111   0.171   0.659   8.324 -1.0979  1.4729 -1.3489
  298MOL0     H41112   0.023   0.997   8.565  1.6236 -1.3554  0.9784
  298MOL0     H41113   0.051   1.088   8.409 -0.0456 -1.7470 -2.8274
  298MOL0     H41114  -0.156   1.044   8.322  2.2948 -0.2469 -0.1374
  298MOL0     H41115  -0.194   1.044   8.493 -2.3209 -0.1018 -2.8818
  298MOL0     H41116  -0.158   0.780   8.339  0.4534  1.0057 -0.5833
  298MOL0     H41117  -0.176   0.814   8.519 -0.1993  1.1607  0.7654
  298MOL0     H41118  -0.404   0.908   8.476 -0.5250 -1.6346  1.3715
  298MOL0     H41119  -0.396   0.745   8.418 -2.0748  0.5578 -2.8184
  298MOL0     H41120  -0.436   0.979   8.062  0.4468  0.8074  0.1254
  298MOL0     H41121   0.278   1.013   8.527  1.5433  0.6935 -0.1149
  298MOL0     H41122   0.470   1.032   8.616 -0.2425  1.8288 -1.5381
  298MOL0     H41123   0.597   0.918   8.603 -1.3204  0.4183  0.9627
  298MOL0     H41124   0.582   1.055   8.485 -0.1681  0.6503 -0.7319
  299MOL0     O41125   0.656   9.549   1.794  0.1560  0.1909 -0.3382
  299MOL0     C41126   0.582   9.639   1.829 -0.4513 -1.2440 -0.8452
  299MOL0     O41127   0.605   9.770   1.805  0.9159 -0.6773 -0.5564
  299MOL0     C41128   0.723   9.818   1.760 -0.1179  0.2180  0.0115
  299MOL0     C41129   0.848   9.757   1.775  0.2987 -0.0111  0.3067
  299MOL0     C41130   0.967   9.822   1.741  0.4482  0.3400 -0.5047
  299MOL0     C41131   0.966   9.948   1.674  0.1989  0.2683 -0.1697
  299MOL0     O41132   1.083  10.017   1.665 -0.2635  0.1346 -0.6196
  299MOL0     C41133   1.099  10.140   1.604  0.1499  0.4993  0.1845
  299MOL0     C41134   1.063  10.134   1.450  0.7878  0.2893 -0.0518
  299MOL0     C41135   1.078  10.276   1.398 -0.2395 -0.0682 -0.1225
  299MOL0     C41136   1.054  10.272   1.248 -0.4831  0.0753 -0.8044
  299MOL0     C41137   1.051  10.415   1.189  0.0498 -0.8986 -0.0073
  299MOL0     C41138   1.193  10.487   1.181 -0.0683 -0.0361  0.1231
  299MOL0     C41139   1.234  10.574   1.307 -0.0853  0.5222 -0.1569
  299MOL0     C41140   1.373  10.631   1.293 -0.7227 -0.2341 -0.0553
  299MOL0     N41141   1.404  10.674   1.432 -0.5970  0.5960 -0.5949
  299MOL0     C41142   1.413  10.805   1.470  0.0168  0.2773 -0.1867
  299MOL0     C41143   1.436  10.801   1.609 -0.1070 -0.1856  0.2707
  299MOL0     C41144   1.454  10.914   1.699  0.2592 -0.7158  0.3738
  299MOL0     C41145   1.549  11.030   1.648 -0.6328 -0.1725 -0.2458
  299MOL0     C41146   1.700  10.998   1.662 -0.6008 -0.0804  0.6210
  299MOL0     C41147   1.757  11.011   1.803  1.4888  0.8602 -0.0591
  299MOL0     O41148   1.834  11.130   1.814  0.6308  0.1757  0.8445
  299MOL0     C41149   1.967  11.143   1.797  0.0373  0.8126 -0.2409
  299MOL0     C41150   2.016  11.270   1.835  0.4297 -0.0821 -0.2908
  299MOL0     C41151   2.153  11.305   1.815  0.6303 -0.0928 -0.0702
  299MOL0     C41152   2.200  11.443   1.871 -0.1099  0.5273 -0.3387
  299MOL0     C41153   2.236  11.213   1.753 -0.5824 -0.7487  0.1618
  299MOL0     C41154   2.385  11.247   1.739  0.0361  0.4434  0.1687
  299MOL0     O41155   2.451  11.214   1.630  0.3902 -0.0747 -0.0274
  299MOL0     C41156   2.573  11.280   1.609  0.4289  1.0850  0.2876
  299MOL0     C41157   2.585  11.423   1.612 -0.3549 -0.6621 -0.3989
  299MOL0     C41158   2.707  11.481   1.584  0.4284  0.4347  0.1979
  299MOL0     C41159   2.823  11.406   1.570  0.5439  0.1912  0.3233
  299MOL0     O41160   2.943  11.474   1.552 -0.3389 -0.0281 -0.1492
  299MOL0     C41161   2.986  11.571   1.653 -0.8572  0.6711  0.0829
  299MOL0     C41162   3.104  11.648   1.592  0.2940  0.1562 -0.5492
  299MOL0     C41163   3.171  11.742   1.692  0.4207  1.1068 -0.0295
  299MOL0     C41164   3.269  11.843   1.625 -0.1144 -0.4475  0.2271
  299MOL0     C41165   3.347  11.928   1.722  0.6643 -1.0169 -0.4157
  299MOL0     C41166   3.264  12.033   1.792  0.5089 -0.3917  0.7695
  299MOL0     C41167   3.333  12.171   1.773 -0.3574 -0.0756  0.3571
  299MOL0     C41168   3.269  12.281   1.867  0.0600  0.3330  0.5135
  299MOL0    Cl41169   3.293  12.243   2.042  0.4643  0.2699  0.3753
  299MOL0     C41170   2.809  11.265   1.559 -0.0583  0.1172  0.0928
  299MOL0     C41171   2.685  11.206   1.572 -0.0181  0.4520 -0.1047
  299MOL0     O41172   2.441  11.292   1.837  0.6080  0.0920 -0.1840
  299MOL0     C41173   2.190  11.096   1.712  0.7225 -0.4799  0.6016
  299MOL0     C41174   2.053  11.061   1.734 -1.2436  0.5741 -0.3448
  299MOL0     N41175   1.445  10.668   1.645 -0.0807 -0.6763  1.2157
  299MOL0     N41176   1.412  10.589   1.546 -0.5208  0.2573 -0.1391
  299MOL0     C41177   0.835  10.005   1.652  0.3278  0.3166 -0.0896
  299MOL0     C41178   0.718   9.941   1.695  0.1244  0.1703 -0.3421
  299MOL0     C41179   0.443   9.620   1.887  0.6369  0.1359 -0.3699
  299MOL0     C41180   0.338   9.702   1.851  0.2013 -0.1066  0.0666
  299MOL0     C41181   0.210   9.676   1.902  0.3547  0.7164  0.8202
  299MOL0     C41182   0.177   9.586   2.005 -0.8675 -0.2960  0.1677
  299MOL0     O41183   0.059   9.565   2.073 -0.3597  0.4182  0.0542
  299MOL0     C41184  -0.051   9.631   2.017  0.1019  0.4834  0.4769
  299MOL0     C41185  -0.169   9.561   2.072 -0.2060  0.3560 -0.7650
  299MOL0     C41186  -0.186   9.421   2.007 -0.5435 -0.2938  0.4492
  299MOL0     C41187  -0.294   9.320   2.060  0.0592 -0.2095 -0.8106
  299MOL0     C41188  -0.357   9.233   1.959 -0.6730 -0.2276 -0.7358
  299MOL0     C41189  -0.399   9.158   1.875 -0.3647 -0.1726  1.1940
  299MOL0     C41190   0.284   9.511   2.048 -0.3331 -0.4614  0.0887
  299MOL0     C41191   0.416   9.519   1.992 -0.5770 -0.4985 -0.1811
  299MOL0     C41192   0.520   9.416   2.034 -0.6103 -0.1137  0.4834
  299MOL0     H41193   0.864   9.660   1.822  1.2538 -0.2363 -0.4450
  299MOL0     H41194   1.064   9.790   1.777 -0.1822 -0.4918  0.5328
  299MOL0     H41195   1.206  10.162   1.607  0.8983 -2.3898 -1.0977
  299MOL0     H41196   1.035  10.211   1.657 -2.0716 -1.1548 -0.1487
  299MOL0     H41197   1.123  10.061   1.394 -0.9739 -2.6153  1.5842
  299MOL0     H41198   0.957  10.108   1.439  0.5906  1.5968 -1.5952
  299MOL0     H41199   1.023  10.351   1.455 -1.2010 -1.6367  1.1130
  299MOL0     H41200   1.184  10.299   1.411  0.5205 -1.2789 -3.4621
  299MOL0     H41201   1.127  10.214   1.191  0.2405  1.8112 -1.7338
  299MOL0     H41202   0.955  10.228   1.232 -1.4101  0.1832  3.5692
  299MOL0     H41203   0.984  10.480   1.245  1.6960 -0.0834  1.0749
  299MOL0     H41204   1.000  10.410   1.092 -0.4849 -0.6718  0.2623
  299MOL0     H41205   1.268  10.413   1.152 -0.8814 -0.5822 -0.6527
  299MOL0     H41206   1.178  10.553   1.095 -2.5232  1.0772  1.3038
  299MOL0     H41207   1.226  10.512   1.397 -0.6070  2.6760  1.3628
  299MOL0     H41208   1.162  10.655   1.326  0.2700  0.4166  1.8913
  299MOL0     H41209   1.439  10.547   1.268  0.6531 -0.1585  2.8502
  299MOL0     H41210   1.382  10.713   1.222 -0.0189 -3.2445 -3.7752
  299MOL0     H41211   1.394  10.890   1.405 -1.2256 -0.1967 -0.4845
  299MOL0     H41212   1.498  10.872   1.790  2.7727 -0.8030 -0.7814
  299MOL0     H41213   1.358  10.964   1.708  2.0594  3.3132 -0.5616
  299MOL0     H41214   1.529  11.061   1.545  1.3189 -1.2165 -0.9966
  299MOL0     H41215   1.532  11.116   1.713  3.0923 -0.5333  1.4871
  299MOL0     H41216   1.707  10.893   1.630 -3.2932 -0.0504 -0.3451
  299MOL0     H41217   1.756  11.061   1.592 -0.3962  1.4635  2.1204
  299MOL0     H41218   1.674  11.013   1.874  1.9060  2.4132  0.4243
  299MOL0     H41219   1.822  10.927   1.831 -0.3329 -0.8601 -0.7571
  299MOL0     H41220   1.947  11.341   1.880 -0.4437 -0.6236 -0.7529
  299MOL0     H41221   2.242  11.504   1.790 -0.0012 -0.7039 -1.2295
  299MOL0     H41222   2.279  11.431   1.946 -2.1993 -1.8951  1.6359
  299MOL0     H41223   2.120  11.496   1.922  0.4838  0.8491  0.2818
  299MOL0     H41224   2.502  11.489   1.632  1.4341  0.8923  2.5819
  299MOL0     H41225   2.708  11.589   1.580 -0.2123  0.4285 -0.4327
  299MOL0     H41226   2.907  11.640   1.684 -2.2854 -0.3074 -1.2168
  299MOL0     H41227   3.010  11.519   1.746 -1.0597  2.3212  1.0973
  299MOL0     H41228   3.168  11.566   1.560 -1.7213 -1.1579 -1.4225
  299MOL0     H41229   3.065  11.696   1.501  2.1707 -0.0906 -1.5336
  299MOL0     H41230   3.221  11.677   1.765  1.6122 -0.9694 -2.5397
  299MOL0     H41231   3.103  11.803   1.753 -0.2079  0.4347 -0.0504
  299MOL0     H41232   3.205  11.911   1.568  0.9745  1.8290  1.5403
  299MOL0     H41233   3.342  11.798   1.557  0.5967  2.3330 -1.0028
  299MOL0     H41234   3.391  11.867   1.801  2.1729  0.0445 -0.3913
  299MOL0     H41235   3.429  11.978   1.669  0.7933 -0.2938  0.4571
  299MOL0     H41236   3.247  12.017   1.899  0.1573 -2.7462  0.4078
  299MOL0     H41237   3.165  12.037   1.748  0.6434  3.0813  0.4574
  299MOL0     H41238   3.342  12.214   1.673  3.6649  2.0665  1.4188
  299MOL0     H41239   3.439  12.158   1.799  1.1475 -0.2336 -4.7853
  299MOL0     H41240   3.163  12.288   1.841  0.0464 -2.4924 -0.4436
  299MOL0     H41241   3.311  12.379   1.843 -2.1392  1.3434  0.4799
  299MOL0     H41242   2.902  11.213   1.540  0.4006  0.2362  1.8273
  299MOL0     H41243   2.688  11.098   1.560  4.4533  0.1054  2.0350
  299MOL0     H41244   2.253  11.035   1.648  0.9833  2.2615 -1.9608
  299MOL0     H41245   2.023  10.964   1.695  0.2823  0.3169 -0.9516
  299MOL0     H41246   0.813  10.098   1.601 -1.9955 -1.7697 -3.2443
  299MOL0     H41247   0.621   9.984   1.673 -0.0396 -0.5509 -1.1015
  299MOL0     H41248   0.347   9.773   1.769  0.7939 -0.0400  0.1828
  299MOL0     H41249   0.130   9.742   1.870 -2.0657 -2.8192 -1.1430
  299MOL0     H41250  -0.064   9.737   2.044 -3.1894  0.6503 -1.2122
  299MOL0     H41251  -0.049   9.632   1.908  1.3759  0.4072  0.4815
  299MOL0     H41252  -0.267   9.608   2.061 -0.6233 -0.4120 -0.4023
  299MOL0     H41253  -0.155   9.553   2.180 -2.3653 -0.6280 -0.5017
  299MOL0     H41254  -0.219   9.433   1.903  1.9406 -1.1550 -0.5041
  299MOL0     H41255  -0.087   9.379   1.990 -0.2827  0.3721  0.3051
  299MOL0     H41256  -0.371   9.372   2.117  1.0886 -0.2087  0.6641
  299MOL0     H41257  -0.244   9.252   2.131 -1.2148  1.2241  1.5974
  299MOL0     H41258  -0.438   9.077   1.818  0.6682 -0.2363  0.5751
  299MOL0     H41259   0.269   9.438   2.127 -0.8748 -2.3435 -1.6617
  299MOL0     H41260   0.478   9.334   2.093  1.2030 -1.7126 -0.3354
  299MOL0     H41261   0.576   9.365   1.955  0.0121  0.2795  0.6583
  299MOL0     H41262   0.593   9.455   2.106 -1.3626 -1.7047  2.2197
  300MOL0     O41263   6.323  10.399   5.424 -0.4721 -0.5988 -0.3868
  300MOL0     C41264   6.380  10.290   5.452  0.3898  0.2568  0.0978
  300MOL0     O41265   6.509  10.255   5.435 -0.5051 -0.4924  0.6145
  300MOL0     C41266   6.593  10.349   5.383 -0.5115 -0.6789  0.0492
  300MOL0     C41267   6.577  10.397   5.255 -0.2209  0.2178  1.0482
  300MOL0     C41268   6.683  10.475   5.195 -0.4864  0.6314  0.1579
  300MOL0     C41269   6.795  10.514   5.273  0.2222  1.0771 -0.0161
  300MOL0     O41270   6.890  10.588   5.201 -0.6570  0.1736  0.3022
  300MOL0     C41271   6.969  10.678   5.289 -0.2507  0.1289  0.1680
  300MOL0     C41272   6.956  10.806   5.215 -0.2989 -0.0917  0.6356
  300MOL0     C41273   7.038  10.921   5.276 -0.2125 -0.4189  0.3761
  300MOL0     C41274   7.063  11.030   5.158  0.5221 -0.2741  0.2854
  300MOL0     C41275   7.159  11.143   5.202 -0.0773  0.1008 -0.0895
  300MOL0     C41276   7.164  11.259   5.101 -0.3976  0.4916  0.0306
  300MOL0     C41277   7.277  11.358   5.124  0.0058 -0.4831  1.2651
  300MOL0     C41278   7.231  11.469   5.218 -0.2048  0.1716  0.3640
  300MOL0     N41279   7.346  11.540   5.277  0.4766  0.2714 -1.1825
  300MOL0     C41280   7.465  11.560   5.228 -0.8312 -0.1430  0.6669
  300MOL0     C41281   7.545  11.619   5.317 -1.0059 -0.8019 -0.2009
  300MOL0     C41282   7.691  11.660   5.301  0.1064 -0.4665 -0.4776
  300MOL0     C41283   7.774  11.539   5.341  0.2135  0.0422  0.0341
  300MOL0     C41284   7.913  11.569   5.327 -1.2815  0.0935  1.3286
  300MOL0     C41285   7.952  11.538   5.172  0.2610  0.1855 -0.3036
  300MOL0     O41286   8.081  11.591   5.140  0.1102  0.5537  0.4131
  300MOL0     C41287   8.194  11.521   5.182 -0.5597  0.6028  0.4348
  300MOL0     C41288   8.315  11.592   5.152  0.5344  0.3032  0.0600
  300MOL0     C41289   8.439  11.548   5.194  0.6099 -0.1100 -1.2418
  300MOL0     C41290   8.565  11.631   5.147 -0.0487  0.1114  0.0615
  300MOL0     C41291   8.440  11.431   5.275 -0.2213  0.5622  0.0669
  300MOL0     C41292   8.569  11.379   5.328 -0.1906  0.0277  0.6015
  300MOL0     O41293   8.580  11.241   5.317  0.4494 -0.2253  0.3849
  300MOL0     C41294   8.693  11.175   5.352 -0.0398  0.3750 -0.5127
  300MOL0     C41295   8.796  11.172   5.262 -0.2803  0.2823  0.0347
  300MOL0     C41296   8.924  11.128   5.304 -0.1337 -0.2290 -0.0552
  300MOL0     C41297   8.934  11.070   5.437  0.5092 -0.3869  0.2381
  300MOL0     O41298   9.060  11.035   5.478  0.1559  0.0815 -0.0964
  300MOL0     C41299   9.080  10.908   5.531 -0.0374 -1.0348 -0.4986
  300MOL0     C41300   9.145  10.808   5.428  0.2775  0.0204  0.4068
  300MOL0     C41301   9.279  10.848   5.375  0.3762  0.3119 -0.3118
  300MOL0     C41302   9.329  10.733   5.294  0.1052 -0.1656  0.0184
  300MOL0     C41303   9.457  10.756   5.238  0.5993  0.0949  0.9657
  300MOL0     C41304   9.502  10.640   5.149 -0.0302 -0.0852  0.5936
  300MOL0     C41305   9.656  10.662   5.132  1.1747 -0.1168  0.0567
  300MOL0     C41306   9.713  10.520   5.101  1.0171 -0.1541 -0.2606
  300MOL0    Cl41307   9.712  10.480   4.932 -0.3101  0.0151 -0.1524
  300MOL0     C41308   8.820  11.068   5.516  0.3893 -0.4811  0.5498
  300MOL0     C41309   8.698  11.117   5.474  0.3201  0.7193  0.2727
  300MOL0     O41310   8.649  11.448   5.391 -0.2071 -0.3572 -0.5432
  300MOL0     C41311   8.322  11.353   5.297 -0.0791 -0.9303  0.2291
  300MOL0     C41312   8.196  11.397   5.250  0.2913 -0.0634  0.5639
  300MOL0     N41313   7.471  11.644   5.428 -0.0326  0.4349 -0.1416
  300MOL0     N41314   7.354  11.588   5.406  0.1895 -0.4733  0.2493
  300MOL0     C41315   6.815  10.459   5.399 -0.6777 -0.6535  0.6429
  300MOL0     C41316   6.715  10.380   5.444  0.2284 -0.7767  0.6666
  300MOL0     C41317   6.309  10.187   5.534  0.7698 -0.4910 -0.7331
  300MOL0     C41318   6.379  10.088   5.610 -0.4291  0.6312  0.2904
  300MOL0     C41319   6.310   9.995   5.683  0.1490 -0.1369  0.9085
  300MOL0     C41320   6.172   9.995   5.694 -0.2474 -0.9989  0.0486
  300MOL0     O41321   6.107   9.896   5.760  0.3815 -0.2223  0.1951
  300MOL0     C41322   6.199   9.803   5.834  0.6383  0.1651 -0.1050
  300MOL0     C41323   6.108   9.692   5.892 -0.5939  0.9961 -0.6441
  300MOL0     C41324   6.177   9.567   5.973 -0.5214 -0.2798  0.5207
  300MOL0     C41325   6.235   9.620   6.103 -0.2839 -0.6160 -0.4772
  300MOL0     C41326   6.340   9.534   6.145  0.7533  0.3020  0.5871
  300MOL0     C41327   6.431   9.464   6.170  0.1005  0.2265  0.0380
  300MOL0     C41328   6.103  10.094   5.624 -0.1266  0.1642 -0.3624
  300MOL0     C41329   6.165  10.191   5.554  0.6261 -0.0209  0.9193
  300MOL0     C41330   6.072  10.290   5.496 -0.0388  0.7129  0.1741
  300MOL0     H41331   6.490  10.374   5.195 -0.0605 -0.1601  0.9556
  300MOL0     H41332   6.677  10.504   5.091  0.5868 -3.4358 -1.2282
  300MOL0     H41333   7.074  10.650   5.286 -0.4770 -0.9003 -3.2545
  300MOL0     H41334   6.940  10.697   5.392 -3.6570  2.9667 -1.1072
  300MOL0     H41335   6.985  10.794   5.110 -1.7576 -0.2323  0.2183
  300MOL0     H41336   6.849  10.824   5.202 -0.2729 -1.2311 -1.8481
  300MOL0     H41337   6.998  10.970   5.365 -1.1074  2.4738 -1.4862
  300MOL0     H41338   7.137  10.889   5.309  0.1245 -0.1073 -0.3243
  300MOL0     H41339   7.084  10.982   5.062  0.6743  0.8622 -0.2659
  300MOL0     H41340   6.967  11.080   5.139 -0.4547 -2.2635 -0.2034
  300MOL0     H41341   7.250  11.085   5.214 -1.1932 -1.6849  0.1054
  300MOL0     H41342   7.119  11.178   5.298  2.0952  1.5688  0.3539
  300MOL0     H41343   7.186  11.211   5.005  0.5162 -0.9841  0.9317
  300MOL0     H41344   7.065  11.302   5.087 -0.6670 -0.1974 -0.2055
  300MOL0     H41345   7.304  11.399   5.026  3.1472 -1.0133  1.8018
  300MOL0     H41346   7.357  11.291   5.157  1.4483  0.9610  0.8242
  300MOL0     H41347   7.175  11.538   5.156  2.4869  2.6639  0.4703
  300MOL0     H41348   7.166  11.425   5.294 -0.9359 -3.9805 -2.3868
  300MOL0     H41349   7.499  11.534   5.128  0.0310  1.9276  0.3789
  300MOL0     H41350   7.715  11.745   5.364 -2.2522 -0.3127  0.2995
  300MOL0     H41351   7.714  11.687   5.197  1.1765 -2.3688 -0.7913
  300MOL0     H41352   7.750  11.536   5.447  0.8260  0.8297  0.2064
  300MOL0     H41353   7.742  11.443   5.297  1.1172 -1.2990  2.1370
  300MOL0     H41354   7.930  11.675   5.348 -2.0452  0.3832  0.5757
  300MOL0     H41355   7.980  11.512   5.391 -2.5848 -0.4878  2.2121
  300MOL0     H41356   7.934  11.434   5.143  0.1826  0.2647 -0.5395
  300MOL0     H41357   7.883  11.604   5.118 -0.1267 -0.0937 -0.1520
  300MOL0     H41358   8.307  11.684   5.096 -1.0380 -0.3116 -0.8083
  300MOL0     H41359   8.528  11.720   5.095 -0.9192 -0.6127 -0.5864
  300MOL0     H41360   8.627  11.580   5.073  0.0350 -0.4679  0.5225
  300MOL0     H41361   8.635  11.665   5.224  2.0787  0.5052 -1.9318
  300MOL0     H41362   8.783  11.220   5.166 -0.8011 -0.3040 -0.1906
  300MOL0     H41363   9.002  11.137   5.229 -0.1689 -0.6549 -0.1437
  300MOL0     H41364   9.138  10.924   5.623 -2.7648  1.0946  0.9937
  300MOL0     H41365   8.982  10.867   5.555  0.3556 -1.3720  0.6044
  300MOL0     H41366   9.146  10.707   5.470  1.8890  0.3297  1.1840
  300MOL0     H41367   9.080  10.805   5.340 -0.0952  1.7976  0.5727
  300MOL0     H41368   9.348  10.854   5.460 -1.4838  2.8648  1.1725
  300MOL0     H41369   9.275  10.946   5.326 -2.0896 -0.6231 -2.1656
  300MOL0     H41370   9.266  10.701   5.211 -1.7248  2.9557  0.0399
  300MOL0     H41371   9.336  10.648   5.363  0.0033  0.0610  0.3127
  300MOL0     H41372   9.437  10.846   5.179  2.7069  0.7076  1.0755
  300MOL0     H41373   9.529  10.782   5.316  1.0946 -0.7112  0.7894
  300MOL0     H41374   9.450  10.646   5.053 -1.4025 -1.6905  1.1703
  300MOL0     H41375   9.485  10.542   5.194 -0.2627 -0.7849 -0.9412
  300MOL0     H41376   9.705  10.694   5.225  1.5419 -0.0140 -0.1709
  300MOL0     H41377   9.678  10.728   5.048  1.1731  1.1643  1.0244
  300MOL0     H41378   9.652  10.444   5.150 -0.8943  0.6502 -1.2754
  300MOL0     H41379   9.819  10.511   5.127  1.5769  1.1757 -1.8555
  300MOL0     H41380   8.838  11.032   5.617  1.7321 -0.6579  0.2799
  300MOL0     H41381   8.615  11.108   5.543 -0.6656  0.0235 -0.9777
  300MOL0     H41382   8.319  11.265   5.361  0.6023 -0.3194  1.1446
  300MOL0     H41383   8.109  11.347   5.291 -1.9552  1.0237 -2.4940
  300MOL0     H41384   6.906  10.465   5.459  1.4828 -0.4534 -2.4422
  300MOL0     H41385   6.735  10.335   5.541 -1.5859 -0.5736  1.1806
  300MOL0     H41386   6.487  10.082   5.610 -0.4755 -0.7557 -1.0355
  300MOL0     H41387   6.379   9.926   5.731  1.6888  1.1488  0.6239
  300MOL0     H41388   6.264   9.748   5.765  0.9004  0.0744  0.2089
  300MOL0     H41389   6.258   9.847   5.915  1.0263 -1.7453  0.7147
  300MOL0     H41390   6.060   9.642   5.807 -1.4073  2.8418 -1.3343
  300MOL0     H41391   6.039   9.739   5.962 -1.8587 -2.2796  0.4851
  300MOL0     H41392   6.111   9.482   5.991  2.2549 -3.2570 -2.0252
  300MOL0     H41393   6.247   9.514   5.907 -0.7261  1.0565 -0.8172
  300MOL0     H41394   6.150   9.620   6.173 -0.2920 -0.2439 -0.4869
  300MOL0     H41395   6.266   9.724   6.090 -0.2022 -0.4314  1.0563
  300MOL0     H41396   6.503   9.390   6.199  1.0798  0.8092 -0.8550
  300MOL0     H41397   5.995  10.096   5.636 -0.0723 -0.0910  0.1858
  300MOL0     H41398   6.094  10.325   5.394  0.0284  1.0680  0.3099
  300MOL0     H41399   5.974  10.249   5.470 -0.1228  0.7005  0.5067
  300MOL0     H41400   6.063  10.380   5.556  0.4567 -0.5007  2.1571
  301MOL0     O41401   4.538   1.482   0.494 -0.4546 -0.5224  0.4785
  301MOL0     C41402   4.503   1.369   0.527 -0.0153  0.8034  0.0331
  301MOL0     O41403   4.567   1.285   0.623  0.6049 -0.4065  0.0688
  301MOL0     C41404   4.703   1.313   0.640 -0.3668  0.2929 -0.1480
  301MOL0     C41405   4.795   1.208   0.588  0.5742 -0.6889 -0.2021
  301MOL0     C41406   4.932   1.230   0.608 -0.2520  0.0462 -0.8152
  301MOL0     C41407   4.981   1.345   0.669 -0.1780  0.1961 -0.1423
  301MOL0     O41408   5.109   1.377   0.692 -0.1737  0.2994  0.7265
  301MOL0     C41409   5.227   1.298   0.666 -0.2294  0.7743 -0.5252
  301MOL0     C41410   5.352   1.366   0.708 -0.2119  0.6297 -0.2029
  301MOL0     C41411   5.352   1.402   0.860  0.2843 -0.4054 -0.5038
  301MOL0     C41412   5.470   1.486   0.895 -0.3160 -0.4910 -0.4458
  301MOL0     C41413   5.599   1.396   0.902  0.8699 -0.2462  0.2489
  301MOL0     C41414   5.719   1.480   0.933 -0.0777  0.2242  1.1217
  301MOL0     C41415   5.850   1.401   0.918 -0.7302 -0.0210 -0.7038
  301MOL0     C41416   5.971   1.500   0.888 -0.0070 -0.1316 -0.3865
  301MOL0     N41417   6.103   1.438   0.918  0.1753 -0.1281 -0.4092
  301MOL0     C41418   6.149   1.316   0.873  0.3039  0.8689 -0.4743
  301MOL0     C41419   6.277   1.297   0.934  0.7210  0.0857 -0.3998
  301MOL0     C41420   6.358   1.177   0.934  0.1189 -0.0230  0.0094
  301MOL0     C41421   6.468   1.196   1.038  0.5755  0.7917 -0.0886
  301MOL0     C41422   6.524   1.054   1.061 -0.4259  0.0997  0.8945
  301MOL0     C41423   6.658   1.044   1.143  0.0716 -0.2275  0.1278
  301MOL0     O41424   6.750   1.149   1.096 -0.5844  0.3252 -0.4060
  301MOL0     C41425   6.877   1.163   1.155  0.0052  1.1784 -0.0622
  301MOL0     C41426   6.962   1.266   1.110  0.2883  0.5032  0.3752
  301MOL0     C41427   7.090   1.284   1.158 -0.9360  0.4910  0.6123
  301MOL0     C41428   7.176   1.381   1.071  0.1807 -0.2842 -0.3799
  301MOL0     C41429   7.142   1.205   1.263 -0.3201  0.1987 -0.3348
  301MOL0     C41430   7.283   1.203   1.312 -0.5944  0.0807  0.2921
  301MOL0     O41431   7.313   1.094   1.382  0.2949  0.2355 -0.8341
  301MOL0     C41432   7.422   1.088   1.450 -0.4330  0.3649 -0.7210
  301MOL0     C41433   7.539   1.057   1.384 -0.8039 -0.1374  0.0276
  301MOL0     C41434   7.651   1.030   1.461  0.1645 -0.7488  0.2913
  301MOL0     C41435   7.663   1.042   1.598 -0.4142  0.7498 -0.2892
  301MOL0     O41436   7.774   1.011   1.671  0.1714 -0.4338 -0.0179
  301MOL0     C41437   7.904   1.035   1.615 -0.3208  1.1170  0.2053
  301MOL0     C41438   7.994   0.975   1.720  0.6139  0.1050  0.7623
  301MOL0     C41439   8.152   0.991   1.715  0.4091 -0.2709 -0.0317
  301MOL0     C41440   8.203   0.950   1.580 -0.4690 -0.5402  0.2511
  301MOL0     C41441   8.357   0.956   1.558  0.4584  0.3683 -0.2764
  301MOL0     C41442   8.433   0.850   1.629  0.5112  0.8925  0.1040
  301MOL0     C41443   8.577   0.890   1.621 -0.4994 -0.3879 -0.7621
  301MOL0     C41444   8.667   0.792   1.688  0.4954  0.2561 -0.9920
  301MOL0    Cl41445   8.633   0.783   1.858  0.1906 -0.0895 -0.1078
  301MOL0     C41446   7.539   1.055   1.666  0.4389  0.3466 -0.0636
  301MOL0     C41447   7.422   1.072   1.585  1.0719 -0.5531  0.4083
  301MOL0     O41448   7.363   1.298   1.301  0.5215  0.2673 -0.2387
  301MOL0     C41449   7.044   1.118   1.323  0.0382 -0.6976 -0.4390
  301MOL0     C41450   6.915   1.097   1.273  0.2962 -0.3350  0.9032
  301MOL0     N41451   6.292   1.414   1.007  0.3777 -0.4141 -0.2239
  301MOL0     N41452   6.197   1.489   1.002  0.0022 -0.5942  0.0093
  301MOL0     C41453   4.892   1.446   0.691 -0.0398  0.3678 -0.3670
  301MOL0     C41454   4.756   1.429   0.687 -0.2502  0.2634 -0.7589
  301MOL0     C41455   4.366   1.341   0.486  0.4747 -0.7869 -0.1281
  301MOL0     C41456   4.274   1.330   0.589  0.1799 -0.6560  0.2391
  301MOL0     C41457   4.142   1.300   0.556  0.4268 -0.2284  0.3340
  301MOL0     C41458   4.094   1.288   0.428  0.1545 -0.0312 -0.1371
  301MOL0     O41459   3.967   1.271   0.386 -0.5631 -0.3577 -0.3860
  301MOL0     C41460   3.868   1.214   0.478 -0.1186  0.2598 -0.3406
  301MOL0     C41461   3.740   1.202   0.402  0.0556 -0.9056  0.4083
  301MOL0     C41462   3.639   1.313   0.424 -0.7788  0.4004  0.8890
  301MOL0     C41463   3.698   1.450   0.448  0.6196 -0.3255  0.1712
  301MOL0     C41464   3.600   1.553   0.428  0.0346  0.3414 -0.1520
  301MOL0     C41465   3.517   1.641   0.428 -0.6292 -0.3558  0.0700
  301MOL0     C41466   4.191   1.305   0.326 -0.4852 -0.7027 -0.2005
  301MOL0     C41467   4.323   1.324   0.354 -0.5031  0.0449 -0.0214
  301MOL0     C41468   4.423   1.328   0.238  0.0699  0.5949 -0.5101
  301MOL0     H41469   4.758   1.115   0.547  0.4793 -2.2608  3.1243
  301MOL0     H41470   5.003   1.151   0.586 -0.8732 -0.4674 -0.9707
  301MOL0     H41471   5.241   1.277   0.560 -1.8332  0.8234 -0.7717
  301MOL0     H41472   5.219   1.203   0.720 -0.5954 -0.2726 -2.3204
  301MOL0     H41473   5.433   1.301   0.673 -1.5328 -1.3103  0.1808
  301MOL0     H41474   5.368   1.457   0.650  1.2795 -0.3565 -1.4308
  301MOL0     H41475   5.256   1.453   0.870 -1.9041 -4.2089 -0.3621
  301MOL0     H41476   5.333   1.318   0.926 -1.1048  0.1137 -0.2142
  301MOL0     H41477   5.474   1.571   0.826  0.8568  0.6532  0.9413
  301MOL0     H41478   5.449   1.537   0.989 -0.2748  0.6338 -1.0221
  301MOL0     H41479   5.611   1.348   0.804  0.1210  1.8637 -0.9506
  301MOL0     H41480   5.587   1.325   0.984 -0.0717 -0.8432 -0.3822
  301MOL0     H41481   5.709   1.564   0.865 -1.2826  0.4896  1.5898
  301MOL0     H41482   5.707   1.529   1.030  0.8209  2.1932  0.2753
  301MOL0     H41483   5.844   1.324   0.840 -0.3877  0.4983 -1.2484
  301MOL0     H41484   5.878   1.356   1.013  3.4277  0.6443 -1.4379
  301MOL0     H41485   5.969   1.528   0.782 -0.2154 -0.6194 -0.5166
  301MOL0     H41486   5.957   1.589   0.950  0.2338 -1.3825  1.5438
  301MOL0     H41487   6.094   1.240   0.819 -2.3885  1.6956  0.9254
  301MOL0     H41488   6.399   1.161   0.834  0.6753 -4.8709  0.7575
  301MOL0     H41489   6.285   1.098   0.955 -2.6212  2.6741  1.2813
  301MOL0     H41490   6.540   1.268   0.997 -1.0970  1.3943 -2.1202
  301MOL0     H41491   6.436   1.232   1.137 -2.7125 -2.0127  0.0695
  301MOL0     H41492   6.452   0.987   1.109 -0.4157 -0.0931  0.6402
  301MOL0     H41493   6.541   1.015   0.960  0.4661  0.4037  0.9155
  301MOL0     H41494   6.633   1.064   1.248  2.2921  0.3306  0.6231
  301MOL0     H41495   6.706   0.946   1.142 -0.4156 -0.5164  1.7583
  301MOL0     H41496   6.924   1.321   1.024  1.8657 -0.2607 -0.8572
  301MOL0     H41497   7.241   1.442   1.134  0.7854  0.4175 -1.6491
  301MOL0     H41498   7.107   1.443   1.013 -0.1326  0.4884  0.7884
  301MOL0     H41499   7.235   1.334   0.992 -0.6416 -0.4261 -0.9172
  301MOL0     H41500   7.550   1.051   1.276  0.5146 -2.2261  0.2257
  301MOL0     H41501   7.733   0.999   1.396 -1.1995  0.3346 -2.0665
  301MOL0     H41502   7.926   0.991   1.517  0.4288 -0.5773  1.1025
  301MOL0     H41503   7.932   1.141   1.619  5.6711 -0.0389 -1.6698
  301MOL0     H41504   7.955   1.000   1.819 -1.8215 -2.2134  0.5163
  301MOL0     H41505   7.977   0.868   1.703 -1.8582  0.6542 -0.6446
  301MOL0     H41506   8.195   0.935   1.798  0.7335  0.6990  0.4716
  301MOL0     H41507   8.178   1.095   1.735  0.4489 -0.6469  2.1244
  301MOL0     H41508   8.157   1.017   1.506  1.3508  1.2511  0.6775
  301MOL0     H41509   8.173   0.848   1.553  2.3476 -1.4003  0.0943
  301MOL0     H41510   8.385   0.944   1.453 -0.3318 -2.5883 -0.2392
  301MOL0     H41511   8.377   1.055   1.601  0.7527 -0.6512  2.0864
  301MOL0     H41512   8.423   0.749   1.587  0.7267 -0.1990  2.4930
  301MOL0     H41513   8.398   0.856   1.733  0.2511  1.2233 -0.0045
  301MOL0     H41514   8.578   0.987   1.671 -2.7932 -1.4694  1.6170
  301MOL0     H41515   8.609   0.890   1.516 -1.0683 -3.4455 -1.0162
  301MOL0     H41516   8.772   0.815   1.672  0.8360  2.4860  3.1449
  301MOL0     H41517   8.640   0.694   1.646 -1.3869  1.7609 -3.6086
  301MOL0     H41518   7.532   1.034   1.772 -0.4432  0.3157 -0.1254
  301MOL0     H41519   7.330   1.088   1.640  0.0240 -1.5979 -0.9976
  301MOL0     H41520   7.073   1.062   1.411 -0.0880  0.8501  0.6351
  301MOL0     H41521   6.851   1.025   1.324 -2.3105 -0.9517 -2.7984
  301MOL0     H41522   4.927   1.541   0.732  2.0757 -0.8694  0.8917
  301MOL0     H41523   4.689   1.505   0.727  1.1025 -1.2254  5.2527
  301MOL0     H41524   4.307   1.344   0.691  1.0907  1.3015 -0.2698
  301MOL0     H41525   4.068   1.279   0.632 -1.5101  1.8676 -0.8344
  301MOL0     H41526   3.891   1.114   0.516  1.8289  0.6131 -0.5038
  301MOL0     H41527   3.846   1.272   0.568  2.0389  1.0531 -0.2803
  301MOL0     H41528   3.702   1.114   0.456  2.6102 -0.8317  2.5456
  301MOL0     H41529   3.749   1.181   0.294  2.0962  1.2435  0.0881
  301MOL0     H41530   3.565   1.316   0.344  1.2267  1.2759 -1.0582
  301MOL0     H41531   3.575   1.289   0.510  1.5582  3.6219  3.8456
  301MOL0     H41532   3.783   1.466   0.381 -0.5232  1.7314 -0.8986
  301MOL0     H41533   3.736   1.462   0.549  2.5663 -2.7438 -0.1888
  301MOL0     H41534   3.448   1.722   0.438 -2.1997 -1.7515  0.9434
  301MOL0     H41535   4.162   1.296   0.221  3.8380 -1.5543 -1.5176
  301MOL0     H41536   4.521   1.304   0.280  0.6762  3.5626 -0.0070
  301MOL0     H41537   4.396   1.255   0.162  0.3053 -0.3740  0.3245
  301MOL0     H41538   4.426   1.430   0.197  0.4935  0.0169 -1.9498
  302MOL0     O41539   5.843   6.983  10.947  0.7512 -0.2331 -0.0486
  302MOL0     C41540   5.757   6.952  10.863 -0.4957  0.3263  0.0741
  302MOL0     O41541   5.777   6.875  10.755 -0.2352 -0.1708  0.3527
  302MOL0     C41542   5.903   6.835  10.715 -0.0625  0.0472  0.9689
  302MOL0     C41543   6.023   6.827  10.781 -0.3769 -0.2915  0.1151
  302MOL0     C41544   6.144   6.788  10.718  0.2583 -0.4604 -0.4010
  302MOL0     C41545   6.153   6.760  10.577  0.3936 -0.0706 -0.0591
  302MOL0     O41546   6.270   6.724  10.509  0.3720  0.2588  0.2387
  302MOL0     C41547   6.394   6.734  10.578  0.1901 -0.1209  0.3212
  302MOL0     C41548   6.520   6.734  10.488  0.2939  0.2989  0.4862
  302MOL0     C41549   6.546   6.590  10.430 -0.2437 -0.1465  0.0461
  302MOL0     C41550   6.670   6.589  10.335 -0.2192  0.4022 -0.0462
  302MOL0     C41551   6.761   6.449  10.337 -0.1560 -0.9180 -0.2953
  302MOL0     C41552   6.880   6.461  10.436  0.3098  0.5031 -0.2299
  302MOL0     C41553   6.994   6.540  10.378 -0.2034 -1.1675  0.4779
  302MOL0     C41554   7.066   6.465  10.264 -0.2492  0.2803  0.6697
  302MOL0     N41555   7.160   6.557  10.198  0.3073 -0.1827 -0.2213
  302MOL0     C41556   7.135   6.656  10.105 -0.1113 -0.0691 -0.4096
  302MOL0     C41557   7.260   6.706  10.081  0.1360 -0.5473 -0.1280
  302MOL0     C41558   7.302   6.805   9.974 -0.0731 -0.0808  0.3473
  302MOL0     C41559   7.177   6.884   9.919 -0.0125  0.5589  0.2706
  302MOL0     C41560   7.236   7.015   9.858 -0.1873  0.0559  0.9379
  302MOL0     C41561   7.143   7.126   9.801  0.2232 -0.8191 -0.3010
  302MOL0     O41562   7.223   7.247   9.800  0.4274  0.4272  0.3870
  302MOL0     C41563   7.236   7.315   9.677 -0.1696  0.1524  0.2193
  302MOL0     C41564   7.323   7.430   9.688 -0.6495  0.7113  0.2872
  302MOL0     C41565   7.335   7.518   9.577  0.5237  0.2085 -0.4382
  302MOL0     C41566   7.416   7.644   9.598  0.4671 -0.0168  0.2265
  302MOL0     C41567   7.276   7.491   9.451  0.2798 -0.2408 -1.4601
  302MOL0     C41568   7.288   7.561   9.322  0.0102 -0.6838 -0.6252
  302MOL0     O41569   7.195   7.533   9.224 -0.4425  0.4698 -0.4691
  302MOL0     C41570   7.208   7.591   9.107  1.6540 -0.5452  0.3638
  302MOL0     C41571   7.327   7.577   9.030 -0.4083 -0.4885 -0.1790
  302MOL0     C41572   7.338   7.644   8.909  0.9573 -0.4687  0.4031
  302MOL0     C41573   7.234   7.722   8.860  0.5980  0.0797 -0.1202
  302MOL0     O41574   7.262   7.797   8.742 -0.8774  0.1845  0.1052
  302MOL0     C41575   7.163   7.875   8.687  0.2833  1.0136 -1.5130
  302MOL0     C41576   7.073   7.774   8.606  0.4233 -0.0047  0.4307
  302MOL0     C41577   6.946   7.840   8.556 -0.3265  0.4379  0.0335
  302MOL0     C41578   6.847   7.751   8.477 -0.2861 -0.2601 -0.5770
  302MOL0     C41579   6.773   7.848   8.371 -0.3724  0.3063 -0.5196
  302MOL0     C41580   6.695   7.962   8.433  0.8093 -0.4918  0.2309
  302MOL0     C41581   6.611   8.024   8.313  0.0470  0.5730 -0.4890
  302MOL0     C41582   6.564   8.165   8.335 -0.1242 -0.1032 -0.1095
  302MOL0    Cl41583   6.535   8.237   8.180 -0.0801 -0.0573 -0.6703
  302MOL0     C41584   7.110   7.726   8.928 -0.4370  0.4146 -0.7120
  302MOL0     C41585   7.102   7.654   9.045  0.1483  0.2797 -0.4518
  302MOL0     O41586   7.377   7.648   9.322 -0.7546  0.1846 -0.2664
  302MOL0     C41587   7.195   7.370   9.451 -0.8985  0.3989  0.1997
  302MOL0     C41588   7.179   7.284   9.560  0.1925 -0.4604  0.5501
  302MOL0     N41589   7.351   6.644  10.166  0.5983 -0.5123 -0.2294
  302MOL0     N41590   7.293   6.558  10.236  0.6621 -0.2060 -0.2764
  302MOL0     C41591   6.033   6.769  10.505 -0.2859  0.3873  0.5745
  302MOL0     C41592   5.907   6.805  10.576  0.0775  0.3887 -0.1472
  302MOL0     C41593   5.618   6.976  10.900 -0.0388  0.3869  0.3497
  302MOL0     C41594   5.583   6.998  11.029 -0.4317 -0.7540 -0.2681
  302MOL0     C41595   5.454   7.014  11.072  0.2515  0.1036 -0.1999
  302MOL0     C41596   5.348   6.999  10.985  0.0574 -0.0988 -0.7453
  302MOL0     O41597   5.219   7.017  11.024 -0.0388 -1.1546 -0.1393
  302MOL0     C41598   5.172   7.058  11.155  0.3047 -0.3328  0.1315
  302MOL0     C41599   5.015   7.058  11.163 -0.6580 -0.4263  0.5672
  302MOL0     C41600   4.975   7.148  11.283 -0.2454  0.6812 -0.4142
  302MOL0     C41601   4.825   7.124  11.323 -0.2086 -0.6518  0.3006
  302MOL0     C41602   4.819   7.183  11.457  0.0702  0.2625 -0.2932
  302MOL0     C41603   4.794   7.232  11.563  0.3935 -0.1473  0.1698
  302MOL0     C41604   5.376   6.981  10.851  0.8875 -0.1195  0.7423
  302MOL0     C41605   5.511   6.973  10.806  0.0331  0.3308  0.4055
  302MOL0     C41606   5.529   6.952  10.668  0.4165  0.0844  0.3653
  302MOL0     H41607   6.026   6.838  10.889 -0.8859  1.4941 -0.0240
  302MOL0     H41608   6.235   6.772  10.774  0.5220  0.9235 -0.4067
  302MOL0     H41609   6.398   6.649  10.647  0.2173 -1.5428 -1.3728
  302MOL0     H41610   6.406   6.827  10.636  0.5986  1.4893 -2.1750
  302MOL0     H41611   6.510   6.811  10.410  0.2520  2.4741  2.5253
  302MOL0     H41612   6.607   6.757  10.551  0.1660 -1.7852  1.5093
  302MOL0     H41613   6.554   6.515  10.509 -3.3779  0.3712  0.9969
  302MOL0     H41614   6.455   6.564  10.374  0.1176  2.5422 -2.0261
  302MOL0     H41615   6.632   6.613  10.235 -0.4489 -0.3811 -0.1566
  302MOL0     H41616   6.736   6.673  10.359 -1.4120  1.1852  0.6127
  302MOL0     H41617   6.793   6.427  10.235 -3.4969  0.4269 -1.7844
  302MOL0     H41618   6.703   6.360  10.363 -0.0299 -1.3609 -1.4647
  302MOL0     H41619   6.856   6.501  10.534 -0.1755 -4.0623  1.7906
  302MOL0     H41620   6.919   6.361  10.457  2.5353  1.5168  0.8015
  302MOL0     H41621   7.063   6.551  10.461  0.3086  1.2411 -0.1941
  302MOL0     H41622   6.963   6.639  10.344  1.0085 -1.3409 -1.2812
  302MOL0     H41623   7.118   6.378  10.306  1.4854  0.8002 -0.2975
  302MOL0     H41624   7.000   6.438  10.181  0.3796  4.3837 -1.3789
  302MOL0     H41625   7.045   6.674  10.045  0.9591  0.7986 -1.8278
  302MOL0     H41626   7.334   6.749   9.886 -2.5234 -0.3954 -0.4302
  302MOL0     H41627   7.384   6.866  10.012 -0.0894  1.2275 -1.5655
  302MOL0     H41628   7.124   6.829   9.841 -0.1074 -0.8107  1.2712
  302MOL0     H41629   7.115   6.925  10.000  1.0343  0.1859  1.3022
  302MOL0     H41630   7.316   7.061   9.918  1.7052  0.2381 -1.5580
  302MOL0     H41631   7.303   6.982   9.777  0.2270 -1.3599  1.8207
  302MOL0     H41632   7.082   7.096   9.715  0.0790 -1.1449 -0.0868
  302MOL0     H41633   7.061   7.149   9.869 -1.3429  1.4941 -2.7274
  302MOL0     H41634   7.379   7.448   9.779  0.2930  1.0428 -0.3497
  302MOL0     H41635   7.359   7.733   9.569 -0.4379 -0.6839 -0.1242
  302MOL0     H41636   7.508   7.629   9.542 -0.5856 -0.7455 -1.3931
  302MOL0     H41637   7.444   7.657   9.703  1.8094  2.0312 -0.3440
  302MOL0     H41638   7.409   7.520   9.073 -0.0775  0.0659 -0.0568
  302MOL0     H41639   7.429   7.648   8.850 -1.5365 -1.3358 -3.8907
  302MOL0     H41640   7.111   7.928   8.767  0.5586 -1.0536  0.1183
  302MOL0     H41641   7.206   7.956   8.628  3.5919  1.2712  0.9491
  302MOL0     H41642   7.127   7.745   8.516  0.8249  1.3016  0.2264
  302MOL0     H41643   7.051   7.681   8.660 -2.1275 -0.8756 -1.8621
  302MOL0     H41644   6.981   7.925   8.496 -1.9556  1.4511  0.4418
  302MOL0     H41645   6.891   7.884   8.640 -0.3862  2.5529 -1.0546
  302MOL0     H41646   6.771   7.709   8.543 -0.6954  0.4876 -0.5637
  302MOL0     H41647   6.908   7.680   8.421  2.0786  0.9366  0.3212
  302MOL0     H41648   6.851   7.886   8.304 -1.1402  0.5206 -1.3200
  302MOL0     H41649   6.711   7.782   8.311 -0.7221  2.0902 -2.2255
  302MOL0     H41650   6.758   8.044   8.470 -1.4455  1.2789  0.3511
  302MOL0     H41651   6.626   7.926   8.510  0.8857  1.1685  1.1406
  302MOL0     H41652   6.528   7.961   8.278 -1.2791  0.7136  2.1645
  302MOL0     H41653   6.688   8.031   8.235  1.1155  0.6858  0.5581
  302MOL0     H41654   6.647   8.218   8.383 -0.3660  2.1552 -2.0299
  302MOL0     H41655   6.471   8.167   8.391 -0.0841 -0.1021 -0.0427
  302MOL0     H41656   7.026   7.787   8.898 -0.3079  0.6629 -0.5665
  302MOL0     H41657   7.007   7.660   9.096 -0.9147  2.4167 -2.5333
  302MOL0     H41658   7.151   7.328   9.362  0.9370 -3.0896  0.7728
  302MOL0     H41659   7.116   7.197   9.542 -0.9811  0.9365 -3.2743
  302MOL0     H41660   6.039   6.744  10.399 -0.5954 -0.4627  0.7474
  302MOL0     H41661   5.816   6.812  10.516  0.3243 -0.6926 -0.6683
  302MOL0     H41662   5.648   7.009  11.115 -1.6556  2.0935  0.3931
  302MOL0     H41663   5.439   7.028  11.178  1.4098  2.7061 -0.2952
  302MOL0     H41664   5.216   6.992  11.230  0.3266 -0.2623  0.1803
  302MOL0     H41665   5.218   7.154  11.181 -0.6601 -0.3591  2.0771
  302MOL0     H41666   4.995   6.951  11.174  2.1089 -1.0669  0.2005
  302MOL0     H41667   4.960   7.089  11.073 -1.8853  0.6383  1.6390
  302MOL0     H41668   5.030   7.115  11.372 -3.0527 -0.2255  1.1127
  302MOL0     H41669   4.984   7.253  11.255  0.7606  0.2999 -1.6025
  302MOL0     H41670   4.795   7.019  11.332  1.1707 -1.0701  0.2603
  302MOL0     H41671   4.754   7.179  11.261 -0.7204 -1.6719 -0.0261
  302MOL0     H41672   4.748   7.273  11.651 -0.6365 -4.2331  1.7654
  302MOL0     H41673   5.297   6.988  10.777  1.9150 -0.3609 -0.4308
  302MOL0     H41674   5.615   7.000  10.621  0.5385 -0.3916  0.0918
  302MOL0     H41675   5.549   6.844  10.661 -0.6813 -0.0373 -1.4951
  302MOL0     H41676   5.441   6.979  10.609 -2.1189 -0.9389  3.3330
  303MOL0     O41677   8.160   2.710   5.039 -0.1847 -0.0032  0.0788
  303MOL0     C41678   8.086   2.678   4.954 -0.5058 -0.6616  0.6843
  303MOL0     O41679   8.121   2.584   4.862  1.5058 -0.2912 -0.5073
  303MOL0     C41680   8.244   2.523   4.846  0.5988  0.5343 -0.5548
  303MOL0     C41681   8.238   2.406   4.767  0.0708  0.2622  0.1238
  303MOL0     C41682   8.350   2.323   4.740  0.5063  0.0145 -0.2539
  303MOL0     C41683   8.468   2.360   4.800 -0.6192  0.3644 -0.5152
  303MOL0     O41684   8.585   2.280   4.792  0.6388  0.3397 -0.1598
  303MOL0     C41685   8.612   2.216   4.667  0.1128  0.0567 -0.3129
  303MOL0     C41686   8.759   2.172   4.645  0.0494  0.5701 -0.5074
  303MOL0     C41687   8.875   2.273   4.682 -1.2204 -0.0492 -0.2027
  303MOL0     C41688   9.006   2.198   4.669  0.6491 -0.4893  0.0387
  303MOL0     C41689   9.136   2.274   4.698  0.7033 -0.3258  0.2217
  303MOL0     C41690   9.161   2.390   4.600  0.2001 -0.2799 -0.3591
  303MOL0     C41691   9.295   2.469   4.640  0.7171 -0.5891 -0.6687
  303MOL0     C41692   9.419   2.390   4.621  0.5361 -0.6930  0.1179
  303MOL0     N41693   9.540   2.470   4.644  0.2150 -0.0386  0.3510
  303MOL0     C41694   9.550   2.539   4.764 -0.6463  0.6776 -0.0785
  303MOL0     C41695   9.677   2.586   4.761  0.4154 -1.0768 -0.1604
  303MOL0     C41696   9.730   2.694   4.849 -0.0822  0.9556  0.1036
  303MOL0     C41697   9.888   2.685   4.845 -0.2980 -1.0740 -0.0536
  303MOL0     C41698   9.959   2.746   4.962 -0.6389 -0.9975 -0.9615
  303MOL0     C41699   9.979   2.904   4.942  1.4085  0.8256 -0.9983
  303MOL0     O41700  10.036   2.948   4.812  0.4651 -0.4094  0.0196
  303MOL0     C41701  10.170   2.936   4.784  0.6153  0.8986 -0.6017
  303MOL0     C41702  10.205   2.930   4.648  0.2261  0.0726 -0.4667
  303MOL0     C41703  10.332   2.894   4.608  0.2863  0.0301 -0.4888
  303MOL0     C41704  10.363   2.899   4.462 -0.0722  0.2741  0.5880
  303MOL0     C41705  10.429   2.862   4.704 -0.1654  0.2839  0.2489
  303MOL0     C41706  10.571   2.827   4.668 -0.0443 -1.0120 -0.9310
  303MOL0     O41707  10.661   2.876   4.765  0.5642 -0.2989 -0.3093
  303MOL0     C41708  10.799   2.850   4.758  0.6058 -0.0983 -0.6422
  303MOL0     C41709  10.859   2.867   4.883  0.1678  0.0181  0.2524
  303MOL0     C41710  10.995   2.846   4.894  0.2474  0.8491 -0.9332
  303MOL0     C41711  11.082   2.823   4.783 -0.0051  0.0543  0.4511
  303MOL0     O41712  11.211   2.808   4.794 -0.5375 -0.3735  0.1636
  303MOL0     C41713  11.281   2.826   4.917  0.3363 -0.1867  0.8545
  303MOL0     C41714  11.259   2.717   5.018  0.6169  0.3290 -0.2480
  303MOL0     C41715  11.337   2.592   4.985  0.1474  0.4735  0.6265
  303MOL0     C41716  11.279   2.465   5.051  0.4420 -0.8174  0.3337
  303MOL0     C41717  11.364   2.338   5.021 -0.5210 -0.5816 -0.0066
  303MOL0     C41718  11.319   2.204   5.076 -0.5093  0.8151 -0.2520
  303MOL0     C41719  11.163   2.194   5.063  0.0555  0.5166 -0.8042
  303MOL0     C41720  11.125   2.048   5.085 -0.6193 -0.0806 -0.0319
  303MOL0    Cl41721  10.951   2.036   5.039 -0.3141  0.0500 -0.1491
  303MOL0     C41722  11.013   2.796   4.666 -0.3603 -0.1136 -0.4054
  303MOL0     C41723  10.877   2.803   4.650  0.7697  0.8659  0.1376
  303MOL0     O41724  10.600   2.773   4.564  0.0313  0.4119  0.1623
  303MOL0     C41725  10.399   2.862   4.842  0.5066 -0.0473  0.0079
  303MOL0     C41726  10.262   2.901   4.884 -1.1157 -0.3043 -0.1175
  303MOL0     N41727   9.732   2.556   4.640 -0.5150 -0.1588  0.4265
  303MOL0     N41728   9.650   2.492   4.569  0.3090 -0.0133 -0.4488
  303MOL0     C41729   8.479   2.481   4.869 -0.8929 -0.4923 -0.0220
  303MOL0     C41730   8.373   2.566   4.893  0.1809 -0.0216  0.6866
  303MOL0     C41731   7.956   2.749   4.938  0.4131  0.1109 -0.2236
  303MOL0     C41732   7.867   2.713   4.831 -0.5021 -0.4883  0.3351
  303MOL0     C41733   7.750   2.789   4.807  0.1290  0.2643 -0.0631
  303MOL0     C41734   7.707   2.880   4.899  0.3787  0.4283 -0.1610
  303MOL0     O41735   7.587   2.930   4.878  0.2986  0.0935 -0.2544
  303MOL0     C41736   7.532   3.021   4.979 -0.0616 -0.6335  0.0417
  303MOL0     C41737   7.448   3.128   4.911 -0.3527 -0.5476 -0.6555
  303MOL0     C41738   7.345   3.066   4.816 -0.2093 -0.1670 -1.0987
  303MOL0     C41739   7.256   2.952   4.857 -0.4322 -0.6083 -0.4640
  303MOL0     C41740   7.136   2.991   4.937 -1.2904 -0.1159  0.6991
  303MOL0     C41741   7.041   3.020   5.000 -0.6452 -0.2215  0.3809
  303MOL0     C41742   7.784   2.913   5.015  0.0303  0.2202 -0.1492
  303MOL0     C41743   7.915   2.852   5.033 -0.4179  0.2466  0.3265
  303MOL0     C41744   7.991   2.888   5.157  0.6122 -0.8058  0.5555
  303MOL0     H41745   8.135   2.381   4.746 -0.0360  1.2827 -0.6412
  303MOL0     H41746   8.338   2.233   4.682 -2.7706  1.2074 -1.7032
  303MOL0     H41747   8.575   2.283   4.589 -1.2037 -1.3906 -0.9731
  303MOL0     H41748   8.552   2.126   4.661 -3.1830  2.0950 -0.3670
  303MOL0     H41749   8.766   2.096   4.723 -0.5006  1.3255  0.2853
  303MOL0     H41750   8.776   2.118   4.551 -0.0846  1.1294 -0.8575
  303MOL0     H41751   8.879   2.363   4.620 -4.1833  0.6702  0.5193
  303MOL0     H41752   8.854   2.303   4.785 -0.2920 -0.0468 -0.0042
  303MOL0     H41753   9.010   2.102   4.722 -0.9431 -3.1619 -4.1216
  303MOL0     H41754   9.006   2.170   4.563  2.6077  2.4604 -0.8471
  303MOL0     H41755   9.223   2.208   4.694 -0.5765 -2.0445 -0.3512
  303MOL0     H41756   9.130   2.319   4.798 -1.4253 -2.0899  0.9678
  303MOL0     H41757   9.173   2.352   4.498  3.5894 -0.2508 -0.0924
  303MOL0     H41758   9.085   2.468   4.610  2.1416  1.8579 -1.0761
  303MOL0     H41759   9.290   2.505   4.744 -2.6674 -2.4294 -0.0778
  303MOL0     H41760   9.307   2.561   4.582  1.0814  0.4276  0.9413
  303MOL0     H41761   9.423   2.298   4.681  0.0263  0.2247  1.6114
  303MOL0     H41762   9.417   2.361   4.516 -0.1575  1.0923 -0.3927
  303MOL0     H41763   9.471   2.552   4.837 -1.7096 -2.0830 -0.6164
  303MOL0     H41764   9.690   2.677   4.950  1.0592  0.8336  0.5582
  303MOL0     H41765   9.710   2.794   4.809  3.1450  2.0897  0.9815
  303MOL0     H41766   9.914   2.579   4.841  0.8544 -0.7761 -1.0066
  303MOL0     H41767   9.924   2.727   4.750  3.8149 -1.6545  1.0618
  303MOL0     H41768   9.901   2.720   5.051  0.0080 -0.3590 -0.3326
  303MOL0     H41769  10.057   2.701   4.982 -0.6878 -1.1399 -1.0434
  303MOL0     H41770   9.877   2.945   4.941  0.7485 -0.6708 -0.0710
  303MOL0     H41771  10.032   2.940   5.031  0.8218  0.7285 -0.5980
  303MOL0     H41772  10.125   2.936   4.576 -0.0033  0.1431 -0.2083
  303MOL0     H41773  10.365   2.795   4.428 -0.6377 -0.4682  2.6902
  303MOL0     H41774  10.459   2.940   4.431 -0.2549 -0.5076 -1.1082
  303MOL0     H41775  10.277   2.944   4.411  0.4852  0.2228 -0.4238
  303MOL0     H41776  10.809   2.904   4.972  1.2337  2.4790 -0.0672
  303MOL0     H41777  11.035   2.858   4.995 -0.6073  2.0231 -0.7079
  303MOL0     H41778  11.388   2.838   4.897 -0.0076  0.1788 -0.9842
  303MOL0     H41779  11.256   2.925   4.956 -0.7827 -0.5817  1.1831
  303MOL0     H41780  11.297   2.765   5.109  0.8992 -1.1141  0.4317
  303MOL0     H41781  11.154   2.692   5.030  0.9271 -0.3697  1.2808
  303MOL0     H41782  11.441   2.595   5.020  0.3959 -0.9150  0.0629
  303MOL0     H41783  11.345   2.575   4.877 -1.1895 -3.2622  0.9549
  303MOL0     H41784  11.179   2.441   5.014 -0.1342 -2.1191  2.5545
  303MOL0     H41785  11.278   2.489   5.158  0.9200  1.6265 -0.1433
  303MOL0     H41786  11.360   2.340   4.912  2.3694  4.4474 -0.3316
  303MOL0     H41787  11.468   2.356   5.051 -0.5298 -1.2213  0.4353
  303MOL0     H41788  11.342   2.180   5.181  3.3394 -1.3463 -1.3895
  303MOL0     H41789  11.373   2.130   5.017 -2.3158 -0.2055 -0.7159
  303MOL0     H41790  11.132   2.212   4.960 -1.2929  0.3990 -0.4359
  303MOL0     H41791  11.103   2.263   5.123 -0.1545 -1.3366  1.2445
  303MOL0     H41792  11.148   2.027   5.189 -1.5339 -1.0763 -0.0092
  303MOL0     H41793  11.188   1.979   5.029 -0.1909  0.9943 -0.9224
  303MOL0     H41794  11.072   2.773   4.578 -0.0393 -0.2713 -0.1490
  303MOL0     H41795  10.827   2.789   4.555 -1.0105 -0.0742  1.1520
  303MOL0     H41796  10.481   2.848   4.912  2.1539  4.2221 -0.7063
  303MOL0     H41797  10.236   2.901   4.990 -0.7175 -2.8644  0.0382
  303MOL0     H41798   8.580   2.509   4.898  0.0889 -1.6800 -2.0580
  303MOL0     H41799   8.381   2.666   4.935  1.0307 -0.3841  1.4131
  303MOL0     H41800   7.894   2.639   4.756 -1.2180 -1.7572  1.2764
  303MOL0     H41801   7.693   2.766   4.718  2.2537 -1.6874 -1.0092
  303MOL0     H41802   7.480   2.969   5.059 -0.3451  0.8692  0.8781
  303MOL0     H41803   7.616   3.067   5.033 -0.2678 -1.6548  1.2688
  303MOL0     H41804   7.511   3.189   4.845  1.0899 -0.2289  0.9360
  303MOL0     H41805   7.397   3.189   4.985 -1.6751 -1.2153 -0.9887
  303MOL0     H41806   7.276   3.141   4.778 -1.8359 -1.1452 -0.1678
  303MOL0     H41807   7.398   3.020   4.732  0.1564 -2.2787  0.2083
  303MOL0     H41808   7.317   2.884   4.917 -1.3016 -1.1021 -0.1229
  303MOL0     H41809   7.220   2.899   4.769 -0.0336  2.0917 -2.3750
  303MOL0     H41810   6.954   3.043   5.059  0.1823 -0.8572  1.9319
  303MOL0     H41811   7.767   2.974   5.103  3.4857  0.7061  0.3182
  303MOL0     H41812   8.015   2.798   5.213  3.1384 -0.0150  0.8931
  303MOL0     H41813   8.078   2.947   5.126  1.1481 -0.3023  2.8365
  303MOL0     H41814   7.923   2.947   5.219 -0.6237  0.3411 -1.7344
  304MOL0     O41815   9.780   7.024   0.608  0.0691 -0.2376 -0.2466
  304MOL0     C41816   9.790   6.903   0.590 -0.2870  0.2929  0.2613
  304MOL0     O41817   9.886   6.820   0.637 -0.2800  0.0458 -0.1360
  304MOL0     C41818  10.002   6.864   0.686  1.4677 -0.5140  0.2148
  304MOL0     C41819  10.112   6.816   0.624 -0.1495  0.5453 -0.1569
  304MOL0     C41820  10.241   6.846   0.660 -0.5756  0.3460 -0.5778
  304MOL0     C41821  10.253   6.918   0.785 -0.1008 -0.3075 -0.5384
  304MOL0     O41822  10.387   6.937   0.811  0.3608  0.3603  0.4273
  304MOL0     C41823  10.402   6.957   0.954  0.0625 -0.5516 -0.3516
  304MOL0     C41824  10.553   6.993   0.975 -0.2715  0.5372  0.7469
  304MOL0     C41825  10.587   7.128   0.908  0.8296  0.7799 -0.3597
  304MOL0     C41826  10.734   7.158   0.936  0.2970  0.2859  0.5885
  304MOL0     C41827  10.783   7.274   0.855 -0.6428 -0.0361  0.5314
  304MOL0     C41828  10.939   7.299   0.884 -0.0232  0.2581 -0.5130
  304MOL0     C41829  10.994   7.427   0.817  0.3981  0.0595 -0.3324
  304MOL0     C41830  10.978   7.553   0.902 -0.5200 -0.0381 -0.5076
  304MOL0     N41831  11.047   7.663   0.837  0.1212 -0.4730 -0.0277
  304MOL0     C41832  11.180   7.668   0.796  0.9408  0.1304 -0.2236
  304MOL0     C41833  11.193   7.796   0.759 -1.1276 -0.2347 -0.0484
  304MOL0     C41834  11.316   7.876   0.715 -0.1543 -0.6348 -0.3698
  304MOL0     C41835  11.432   7.869   0.813 -0.8186 -1.4220 -0.9055
  304MOL0     C41836  11.555   7.941   0.765 -0.5077  0.5393 -0.0026
  304MOL0     C41837  11.677   7.900   0.849 -0.2167  0.1988 -0.3879
  304MOL0     O41838  11.693   7.758   0.852  0.3141 -0.1780  0.1578
  304MOL0     C41839  11.818   7.699   0.871  1.0761 -0.3483  0.4621
  304MOL0     C41840  11.822   7.567   0.859  0.7277 -0.2360 -0.0683
  304MOL0     C41841  11.941   7.492   0.878  0.4392  0.2755 -0.1941
  304MOL0     C41842  11.938   7.340   0.854  0.2706 -0.8284  0.4365
  304MOL0     C41843  12.063   7.560   0.927  0.5146 -0.3899 -0.7593
  304MOL0     C41844  12.191   7.501   0.964 -0.3865 -0.0517  0.2299
  304MOL0     O41845  12.192   7.364   0.954 -0.2006 -0.3855 -0.0972
  304MOL0     C41846  12.321   7.314   0.973  0.3414  0.1342 -1.1049
  304MOL0     C41847  12.351   7.266   1.102  0.1636  0.2384 -0.1229
  304MOL0     C41848  12.485   7.226   1.123 -0.0721  0.3177  0.2922
  304MOL0     C41849  12.575   7.221   1.019  0.6428 -0.1245  0.8019
  304MOL0     O41850  12.705   7.193   1.040  0.5440  0.4895  0.1395
  304MOL0     C41851  12.731   7.056   1.080 -0.2995 -0.6541  0.0707
  304MOL0     C41852  12.869   7.031   1.034  0.4488 -0.2597 -0.9656
  304MOL0     C41853  12.884   7.054   0.882  0.4347  0.2106 -0.2796
  304MOL0     C41854  13.027   7.017   0.840  0.7043  0.3737  0.1551
  304MOL0     C41855  13.146   7.067   0.924 -0.1174  0.1141 -0.1878
  304MOL0     C41856  13.255   7.133   0.832  0.2833 -0.4989 -0.4383
  304MOL0     C41857  13.331   7.024   0.742  0.6126  0.7295 -0.1058
  304MOL0     C41858  13.389   7.101   0.622  0.2082 -0.2876 -0.4563
  304MOL0    Cl41859  13.466   6.984   0.510  0.3130  0.0619  0.2240
  304MOL0     C41860  12.542   7.267   0.891 -0.8833 -0.1686 -0.1895
  304MOL0     C41861  12.413   7.320   0.867  0.1732 -0.3104 -0.5858
  304MOL0     O41862  12.292   7.569   0.994  0.7769 -0.4119  0.5412
  304MOL0     C41863  12.047   7.698   0.935  0.2818 -0.2089  0.2505
  304MOL0     C41864  11.930   7.768   0.906 -0.1449 -0.2603  0.4205
  304MOL0     N41865  11.083   7.869   0.782 -0.3288 -0.0029  0.6053
  304MOL0     N41866  10.985   7.789   0.816  0.3095 -0.1694 -0.4445
  304MOL0     C41867  10.137   6.978   0.854  0.7305  0.3914 -1.0072
  304MOL0     C41868  10.014   6.957   0.786  0.1927 -0.9151 -1.0517
  304MOL0     C41869   9.681   6.833   0.507  0.2579 -0.0938 -0.8234
  304MOL0     C41870   9.719   6.720   0.432  0.0750 -0.6852 -0.1822
  304MOL0     C41871   9.628   6.653   0.348 -0.8753  0.7917  1.3046
  304MOL0     C41872   9.498   6.694   0.344 -0.0211  0.5951 -0.3699
  304MOL0     O41873   9.404   6.634   0.263 -0.7933 -0.3315  0.0213
  304MOL0     C41874   9.423   6.497   0.223  0.4376  0.0673  0.3275
  304MOL0     C41875   9.308   6.445   0.140 -0.2335 -0.6067 -0.2366
  304MOL0     C41876   9.182   6.423   0.229 -0.1830 -0.3143  0.4788
  304MOL0     C41877   9.070   6.349   0.160  0.0541 -0.3291  1.0106
  304MOL0     C41878   8.972   6.286   0.246  0.2050 -0.5466 -0.0249
  304MOL0     C41879   8.902   6.216   0.321 -0.1468 -0.5637 -0.4075
  304MOL0     C41880   9.453   6.796   0.425 -0.0444 -0.2577  0.0081
  304MOL0     C41881   9.541   6.865   0.513  0.1013  0.7306 -0.3924
  304MOL0     C41882   9.484   6.961   0.617 -0.3580  0.6910  0.0277
  304MOL0     H41883  10.095   6.739   0.549 -0.9605 -0.3331  0.8874
  304MOL0     H41884  10.333   6.814   0.613  0.8278 -0.5845  2.5279
  304MOL0     H41885  10.376   6.861   0.999 -0.1660 -0.0850  0.5333
  304MOL0     H41886  10.344   7.038   1.000 -0.1484 -1.8761  1.8891
  304MOL0     H41887  10.575   6.994   1.082  3.5001  2.0567  0.1003
  304MOL0     H41888  10.613   6.920   0.920 -3.2007 -0.9915 -0.6594
  304MOL0     H41889  10.570   7.126   0.800 -1.6803 -2.8215 -0.0683
  304MOL0     H41890  10.528   7.208   0.954 -1.3412 -0.0561 -1.5646
  304MOL0     H41891  10.759   7.178   1.040  1.3267 -1.4833  0.7118
  304MOL0     H41892  10.784   7.066   0.906  1.6531  1.3474 -0.5991
  304MOL0     H41893  10.719   7.362   0.870  0.0561  0.3029  1.6941
  304MOL0     H41894  10.775   7.244   0.751 -1.3646 -1.4950  0.9892
  304MOL0     H41895  10.959   7.301   0.991  1.5974 -1.0138 -0.7511
  304MOL0     H41896  10.990   7.214   0.838 -1.5390  0.2356 -2.2772
  304MOL0     H41897  10.939   7.435   0.723 -1.2448 -0.0837  0.5765
  304MOL0     H41898  11.099   7.411   0.790  1.6246  2.5449  2.3689
  304MOL0     H41899  10.876   7.588   0.920 -0.5230  0.2613 -1.0713
  304MOL0     H41900  11.015   7.539   1.004  0.7614  1.0788 -0.7819
  304MOL0     H41901  11.257   7.593   0.786  0.4021 -0.8107  1.9375
  304MOL0     H41902  11.305   7.981   0.686 -0.4158 -1.1668 -2.3834
  304MOL0     H41903  11.345   7.820   0.625 -1.1876 -0.4689 -0.8133
  304MOL0     H41904  11.409   7.915   0.909  1.6290 -1.2811 -0.3155
  304MOL0     H41905  11.456   7.764   0.827  3.8548 -0.2694  1.7686
  304MOL0     H41906  11.570   7.927   0.658  1.0555  1.7190  0.0346
  304MOL0     H41907  11.545   8.050   0.773  1.3093  0.7141  0.2384
  304MOL0     H41908  11.762   7.955   0.808  0.6898  1.2812  2.6515
  304MOL0     H41909  11.666   7.935   0.952  2.4280 -0.7033  0.2783
  304MOL0     H41910  11.727   7.522   0.833  0.9769  0.3589 -2.1728
  304MOL0     H41911  11.969   7.284   0.943 -0.1361 -2.5250 -0.4297
  304MOL0     H41912  12.004   7.312   0.771 -0.1356 -4.5057  1.1827
  304MOL0     H41913  11.840   7.305   0.819  0.0449  2.5841 -2.9445
  304MOL0     H41914  12.274   7.293   1.174 -0.6113  0.6496 -1.0929
  304MOL0     H41915  12.512   7.199   1.225  0.8491  1.1335  0.2748
  304MOL0     H41916  12.729   7.052   1.189  2.5047  2.5376  0.4071
  304MOL0     H41917  12.657   6.991   1.033 -3.1597 -0.1905  3.5321
  304MOL0     H41918  12.939   7.094   1.089  1.3765 -0.3845 -1.9640
  304MOL0     H41919  12.893   6.930   1.067  2.1788  0.2352 -0.6324
  304MOL0     H41920  12.867   7.160   0.860 -0.6624  0.1465  0.1910
  304MOL0     H41921  12.815   7.003   0.815  0.2226  1.4981 -1.0630
  304MOL0     H41922  13.039   7.048   0.736 -1.7886  0.1598 -0.2621
  304MOL0     H41923  13.018   6.908   0.841 -3.3817  0.4886  2.8646
  304MOL0     H41924  13.104   7.146   0.988 -1.4513  0.6913 -1.7021
  304MOL0     H41925  13.182   6.987   0.989  1.9530  2.0174  1.1631
  304MOL0     H41926  13.317   7.196   0.896 -1.8515 -0.4848  1.7421
  304MOL0     H41927  13.199   7.205   0.772 -1.9430  0.0077  2.0502
  304MOL0     H41928  13.263   6.949   0.702 -0.7372  2.2716 -0.8042
  304MOL0     H41929  13.407   6.976   0.805 -1.3529 -0.8836  1.1530
  304MOL0     H41930  13.457   7.182   0.649  0.6159 -1.1551  1.2484
  304MOL0     H41931  13.307   7.142   0.562 -0.4677 -1.0701 -0.0849
  304MOL0     H41932  12.602   7.254   0.801  0.3628 -1.9200  0.8301
  304MOL0     H41933  12.384   7.357   0.769  1.6185 -0.4820 -1.0964
  304MOL0     H41934  12.136   7.756   0.958  0.1539 -0.3856  1.2432
  304MOL0     H41935  11.934   7.875   0.922  0.4937 -0.2850  0.4389
  304MOL0     H41936  10.152   7.036   0.945 -1.4804 -0.2089 -0.1919
  304MOL0     H41937   9.922   7.007   0.815 -0.5715 -0.6479 -3.6699
  304MOL0     H41938   9.821   6.693   0.407  1.5471  2.0575  2.2614
  304MOL0     H41939   9.657   6.566   0.289 -0.5813 -0.9963  3.8973
  304MOL0     H41940   9.516   6.482   0.168  1.4273 -0.5838  2.0930
  304MOL0     H41941   9.425   6.428   0.308 -0.4685 -0.7067 -0.2516
  304MOL0     H41942   9.328   6.347   0.095 -1.5898  0.0547 -2.4953
  304MOL0     H41943   9.288   6.509   0.053  0.6373 -0.5691 -0.4189
  304MOL0     H41944   9.206   6.367   0.320  1.6128  0.7275  0.6887
  304MOL0     H41945   9.135   6.519   0.251 -2.5097 -0.7758 -1.8938
  304MOL0     H41946   9.115   6.264   0.108  0.3565  1.1962 -1.3483
  304MOL0     H41947   9.010   6.420   0.102 -2.1100 -3.8460 -1.3981
  304MOL0     H41948   8.837   6.154   0.379  0.8004 -0.8500  0.3696
  304MOL0     H41949   9.348   6.823   0.429 -0.1611 -0.6646 -0.1895
  304MOL0     H41950   9.502   6.916   0.715 -3.2927 -3.0831 -0.9184
  304MOL0     H41951   9.528   7.061   0.614 -0.8289  0.8952 -0.2076
  304MOL0     H41952   9.376   6.973   0.607 -0.5808  1.0496  2.3845
  305MOL0     O41953   4.785   9.738   9.239 -0.2905  0.0109 -0.3682
  305MOL0     C41954   4.733   9.661   9.160  0.1067 -0.5785  0.0865
  305MOL0     O41955   4.802   9.587   9.068  0.7108 -0.6126  0.3007
  305MOL0     C41956   4.936   9.608   9.050  0.2266  0.1826  0.5187
  305MOL0     C41957   4.990   9.721   8.990  0.2781 -0.6486 -0.2150
  305MOL0     C41958   5.127   9.740   8.984 -1.1479  0.0829 -0.3634
  305MOL0     C41959   5.221   9.644   9.026 -0.1631 -0.6677  0.1754
  305MOL0     O41960   5.357   9.649   9.020 -0.3690  0.5774  0.1176
  305MOL0     C41961   5.422   9.755   8.946  0.7500  0.0245 -0.1000
  305MOL0     C41962   5.547   9.701   8.872  0.9369 -0.6802  0.1121
  305MOL0     C41963   5.650   9.806   8.857  0.2706 -0.2872  0.6077
  305MOL0     C41964   5.637   9.881   8.723 -0.1252 -0.1951  0.5091
  305MOL0     C41965   5.761   9.967   8.672  0.8576 -0.7218 -0.0020
  305MOL0     C41966   5.884   9.876   8.645 -0.2127  0.1711  0.7980
  305MOL0     C41967   6.011   9.967   8.634 -0.0615  0.2327  0.0228
  305MOL0     C41968   6.113   9.903   8.543  0.8618 -1.0580  0.3747
  305MOL0     N41969   6.236   9.991   8.518  0.3568  0.1681 -0.0491
  305MOL0     C41970   6.364   9.933   8.524  0.9208 -0.6660  0.2678
  305MOL0     C41971   6.442  10.036   8.472  0.6653  0.7307  0.3567
  305MOL0     C41972   6.587  10.039   8.458 -0.3201  0.6966 -0.5684
  305MOL0     C41973   6.617  10.007   8.307  1.1301 -0.3329  0.0644
  305MOL0     C41974   6.755  10.044   8.267  0.2574  0.3178 -0.6565
  305MOL0     C41975   6.780  10.094   8.123  0.1354  0.2557  0.8424
  305MOL0     O41976   6.875  10.205   8.134 -0.5697 -0.1336 -0.1427
  305MOL0     C41977   7.010  10.185   8.141  0.2413 -0.8353 -0.3469
  305MOL0     C41978   7.081  10.076   8.195 -0.4993  0.2992 -0.1883
  305MOL0     C41979   7.220  10.074   8.191 -0.0606  0.4382  1.0165
  305MOL0     C41980   7.278   9.949   8.228 -0.3004  0.2186 -0.1418
  305MOL0     C41981   7.292  10.191   8.158 -1.3965 -0.3699  0.1860
  305MOL0     C41982   7.443  10.199   8.151  0.0370 -0.6982 -0.9491
  305MOL0     O41983   7.503  10.297   8.087 -0.7377  0.6355 -0.2166
  305MOL0     C41984   7.642  10.325   8.096  0.1782 -0.3852 -0.2931
  305MOL0     C41985   7.682  10.438   8.167  1.1018 -0.4705 -0.1826
  305MOL0     C41986   7.815  10.468   8.173  0.5592 -0.4107  0.0820
  305MOL0     C41987   7.910  10.394   8.104 -0.2234  0.1160  0.4585
  305MOL0     O41988   8.038  10.449   8.104  0.3846  0.4622 -0.3355
  305MOL0     C41989   8.139  10.374   8.034  0.3247 -1.0156  0.7319
  305MOL0     C41990   8.279  10.410   8.083  0.0075 -0.0397  0.1029
  305MOL0     C41991   8.383  10.326   8.025  0.0586  0.6760  0.5535
  305MOL0     C41992   8.523  10.375   8.069  0.3327  0.7834  1.3049
  305MOL0     C41993   8.634  10.290   8.018  0.0194 -0.4001  0.2583
  305MOL0     C41994   8.771  10.303   8.088  0.5404  0.0393  0.6209
  305MOL0     C41995   8.854  10.422   8.027 -0.7815 -0.1379 -0.0507
  305MOL0     C41996   8.890  10.398   7.877 -0.3316  0.0471  0.6487
  305MOL0    Cl41997   9.007  10.534   7.820 -0.0656  0.1446  0.0740
  305MOL0     C41998   7.870  10.281   8.027  0.2783  0.3303 -0.1436
  305MOL0     C41999   7.736  10.248   8.031  0.5410 -0.3384  0.3770
  305MOL0     O42000   7.509  10.114   8.211  0.0002  0.5875  1.0120
  305MOL0     C42001   7.228  10.300   8.106  0.2447  0.1314  0.4697
  305MOL0     C42002   7.091  10.295   8.110  0.7512  0.2678  0.5722
  305MOL0     N42003   6.355  10.147   8.447 -0.7528  0.0955  0.6648
  305MOL0     N42004   6.239  10.119   8.471  0.2898  0.9594 -0.2700
  305MOL0     C42005   5.166   9.534   9.098 -0.3246  0.3028 -0.7547
  305MOL0     C42006   5.024   9.523   9.116  0.4457 -0.6382 -0.4924
  305MOL0     C42007   4.582   9.652   9.159 -0.8957 -0.1228  1.2956
  305MOL0     C42008   4.512   9.720   9.257  0.4147  0.0391 -0.8507
  305MOL0     C42009   4.373   9.713   9.268  0.1556  1.0884 -0.4390
  305MOL0     C42010   4.294   9.651   9.176  0.0800 -0.1528 -0.1566
  305MOL0     O42011   4.159   9.672   9.179 -0.2210  0.0039  0.2692
  305MOL0     C42012   4.067   9.589   9.108  0.5176 -0.2208  0.5017
  305MOL0     C42013   3.987   9.661   8.997  0.3047 -0.1649 -0.2288
  305MOL0     C42014   3.888   9.566   8.921  0.8752  0.6901 -0.4151
  305MOL0     C42015   3.745   9.592   8.956 -0.0964 -0.4736  0.6404
  305MOL0     C42016   3.709   9.576   9.102 -0.4009 -1.0881  0.6747
  305MOL0     C42017   3.669   9.563   9.215  0.2213  0.9155 -0.1365
  305MOL0     C42018   4.362   9.587   9.072 -0.1962  0.7104  0.0687
  305MOL0     C42019   4.502   9.576   9.066 -0.1660  0.2741  0.6003
  305MOL0     C42020   4.565   9.502   8.940 -0.4700 -0.1637 -0.3854
  305MOL0     H42021   4.919   9.796   8.957  0.7984 -0.4285 -0.8377
  305MOL0     H42022   5.162   9.835   8.945 -1.4235  0.9662  1.4356
  305MOL0     H42023   5.455   9.831   9.017  0.5237 -0.9888  1.1205
  305MOL0     H42024   5.371   9.812   8.867  0.7167  0.2721  0.0973
  305MOL0     H42025   5.598   9.619   8.923  1.5404  1.3466  2.9608
  305MOL0     H42026   5.506   9.663   8.777  0.3952 -0.4301  0.2402
  305MOL0     H42027   5.650   9.874   8.943  1.7658  2.2545 -1.2497
  305MOL0     H42028   5.749   9.763   8.870  1.0278  1.8440  2.4364
  305MOL0     H42029   5.608   9.805   8.650 -0.4979 -0.9559  1.4374
  305MOL0     H42030   5.553   9.951   8.726  0.1758  0.1971 -0.0233
  305MOL0     H42031   5.779  10.031   8.759  1.1233  1.3194 -1.4880
  305MOL0     H42032   5.732  10.030   8.588 -2.0886  2.3141  2.9804
  305MOL0     H42033   5.901   9.801   8.723  0.3798  1.0349  1.5296
  305MOL0     H42034   5.861   9.818   8.556 -0.8979 -0.4889  1.3961
  305MOL0     H42035   6.061   9.972   8.731 -0.7126 -1.0333  0.4557
  305MOL0     H42036   5.992  10.069   8.600  1.0540  0.4968  0.1661
  305MOL0     H42037   6.139   9.806   8.587  0.1319 -1.0018  0.9435
  305MOL0     H42038   6.068   9.892   8.444 -0.4672 -0.9767  0.9494
  305MOL0     H42039   6.398   9.838   8.564  2.4562 -0.0546  0.4776
  305MOL0     H42040   6.630   9.961   8.522 -0.0622  0.9444 -0.4407
  305MOL0     H42041   6.630  10.135   8.487  1.6093 -0.5746  1.0543
  305MOL0     H42042   6.578   9.907   8.284  0.1408 -0.5550  2.4425
  305MOL0     H42043   6.554  10.075   8.249  0.9893 -1.4840 -1.1848
  305MOL0     H42044   6.793  10.123   8.332 -0.5440 -0.1566  0.4011
  305MOL0     H42045   6.817   9.955   8.282 -0.0137  0.2347  0.0126
  305MOL0     H42046   6.830  10.016   8.065  0.4076  1.9488 -1.3037
  305MOL0     H42047   6.688  10.121   8.072  0.0321  0.3123  1.0583
  305MOL0     H42048   7.031   9.997   8.249 -1.4030  0.6101 -0.5385
  305MOL0     H42049   7.317   9.959   8.329 -0.5425  0.2834 -0.0524
  305MOL0     H42050   7.353   9.913   8.157 -0.2658  1.3030 -0.6795
  305MOL0     H42051   7.206   9.867   8.232  1.1282 -1.0546  3.2778
  305MOL0     H42052   7.604  10.503   8.207 -0.4191 -1.7026 -1.0563
  305MOL0     H42053   7.838  10.558   8.230 -0.9648  0.6207 -0.8383
  305MOL0     H42054   8.121  10.267   8.049 -2.6373 -0.7192 -0.0812
  305MOL0     H42055   8.139  10.389   7.926  2.1295 -1.6426  0.6208
  305MOL0     H42056   8.295  10.517   8.067 -3.3255  0.5612  0.0372
  305MOL0     H42057   8.279  10.409   8.193  1.6197  0.2402  0.1238
  305MOL0     H42058   8.366  10.331   7.918 -2.0385  0.9709  0.8654
  305MOL0     H42059   8.360  10.222   8.050 -0.7145  0.4977 -0.8029
  305MOL0     H42060   8.520  10.376   8.178 -0.4024 -1.7328  1.3869
  305MOL0     H42061   8.547  10.477   8.040  1.4044  0.2560  0.2386
  305MOL0     H42062   8.606  10.184   8.018  0.2489 -0.4743  1.2366
  305MOL0     H42063   8.654  10.314   7.913  1.1237  2.0596  0.9458
  305MOL0     H42064   8.825  10.212   8.062  0.9952  0.5918 -0.4517
  305MOL0     H42065   8.758  10.309   8.196 -1.2576 -2.6516  0.6319
  305MOL0     H42066   8.946  10.436   8.085 -0.0107  1.9659 -1.6378
  305MOL0     H42067   8.810  10.521   8.043  0.6265  0.2888  1.4720
  305MOL0     H42068   8.803  10.418   7.813 -0.1324  0.2113  0.4280
  305MOL0     H42069   8.926  10.296   7.861 -1.2775 -0.2496  0.3470
  305MOL0     H42070   7.936  10.220   7.966 -0.2536 -0.9798  0.5593
  305MOL0     H42071   7.712  10.163   7.969  0.7508  1.0076 -1.6336
  305MOL0     H42072   7.282  10.383   8.062 -0.5300  0.5497  0.2772
  305MOL0     H42073   7.039  10.378   8.063  0.0598  1.1385  2.7463
  305MOL0     H42074   5.230   9.462   9.147 -1.2818  1.3044  2.1980
  305MOL0     H42075   4.974   9.448   9.176 -0.8549  1.6372  1.4191
  305MOL0     H42076   4.555   9.772   9.341 -1.9223 -1.4846  1.4540
  305MOL0     H42077   4.325   9.762   9.352  1.2622 -0.9826  1.5015
  305MOL0     H42078   4.124   9.505   9.066 -0.7518 -0.4609 -0.8222
  305MOL0     H42079   3.995   9.542   9.175  0.6426  0.7340  1.3229
  305MOL0     H42080   4.064   9.683   8.923  2.2325 -0.8166  1.4979
  305MOL0     H42081   3.940   9.757   9.021  2.1100  0.8830 -0.6722
  305MOL0     H42082   3.891   9.580   8.813 -1.7572  0.3989 -0.5932
  305MOL0     H42083   3.910   9.461   8.943  1.6195  0.9701  0.2577
  305MOL0     H42084   3.678   9.528   8.898  0.6763 -0.5064 -0.2316
  305MOL0     H42085   3.724   9.696   8.929 -0.0026 -0.7936 -0.7080
  305MOL0     H42086   3.635   9.583   9.315 -0.6449  2.0472 -0.6375
  305MOL0     H42087   4.311   9.545   8.986 -1.9642 -0.9831  1.8701
  305MOL0     H42088   4.654   9.548   8.898  0.7097 -1.0184  1.0894
  305MOL0     H42089   4.592   9.402   8.976  1.4567  0.2057 -0.7344
  305MOL0     H42090   4.492   9.477   8.863 -0.2512  1.7833 -1.2853
  306MOL0     O42091   0.048   9.519   1.193 -0.7101 -0.2766  0.0909
  306MOL0     C42092   0.000   9.411   1.190 -0.6632  0.1220 -0.9872
  306MOL0     O42093   0.077   9.294   1.196 -0.5233 -0.3266 -0.7501
  306MOL0     C42094   0.208   9.294   1.243  0.2076  0.4490 -0.5338
  306MOL0     C42095   0.310   9.218   1.180 -0.9697 -0.4696  0.5698
  306MOL0     C42096   0.441   9.225   1.223  0.2518 -0.0173 -0.5798
  306MOL0     C42097   0.466   9.273   1.351  0.5505 -0.6643 -0.5781
  306MOL0     O42098   0.601   9.260   1.401 -0.1573 -0.3190  0.8830
  306MOL0     C42099   0.638   9.313   1.536 -0.1843  0.3331  0.1657
  306MOL0     C42100   0.788   9.318   1.553  0.9108  0.1124  0.1082
  306MOL0     C42101   0.849   9.182   1.587 -0.5333 -0.1236  0.2796
  306MOL0     C42102   0.997   9.175   1.574 -0.7048  0.8324 -0.2807
  306MOL0     C42103   1.050   9.197   1.426 -0.3538  0.3537  0.0286
  306MOL0     C42104   1.207   9.163   1.428  1.5309 -0.3705 -0.1270
  306MOL0     C42105   1.271   9.142   1.299  0.7804 -0.5920 -0.1948
  306MOL0     C42106   1.218   9.009   1.247  0.3027  0.2127 -0.2474
  306MOL0     N42107   1.298   8.955   1.138  0.4400  0.1969  0.2510
  306MOL0     C42108   1.325   8.991   1.006  0.2072  0.1945  0.2099
  306MOL0     C42109   1.416   8.898   0.962  0.0985 -0.6490 -0.3837
  306MOL0     C42110   1.511   8.925   0.847 -1.0345  0.7782  0.3840
  306MOL0     C42111   1.646   9.007   0.880 -0.1965  0.1046  0.1858
  306MOL0     C42112   1.624   9.157   0.890  0.0688  0.0287  0.5090
  306MOL0     C42113   1.747   9.247   0.918 -1.1373  0.0093  0.7013
  306MOL0     O42114   1.842   9.233   0.811  0.1837 -0.0476  0.0330
  306MOL0     C42115   1.974   9.259   0.822  0.2970  0.2866 -0.4548
  306MOL0     C42116   2.029   9.313   0.942  0.6882 -0.5986  0.9572
  306MOL0     C42117   2.165   9.357   0.937  0.5424  0.2078 -0.3180
  306MOL0     C42118   2.213   9.423   1.063  0.3192 -0.3808  0.0251
  306MOL0     C42119   2.242   9.349   0.811 -0.0203 -0.5477  0.2753
  306MOL0     C42120   2.390   9.397   0.795 -0.0184 -0.3162 -0.3102
  306MOL0     O42121   2.457   9.367   0.678  0.0610 -0.4304  0.6598
  306MOL0     C42122   2.586   9.397   0.643 -1.0166 -0.8069 -0.3089
  306MOL0     C42123   2.613   9.375   0.509  0.0937  0.9139  0.3572
  306MOL0     C42124   2.728   9.406   0.448  0.4294 -0.6966 -0.7124
  306MOL0     C42125   2.833   9.459   0.520 -0.1874  0.3083  0.1443
  306MOL0     O42126   2.945   9.491   0.446 -0.1741  0.4323 -0.3069
  306MOL0     C42127   3.055   9.542   0.516  0.5901 -0.0956 -0.0190
  306MOL0     C42128   3.184   9.558   0.433 -0.1049  0.2099  0.2267
  306MOL0     C42129   3.272   9.433   0.423  0.1349  0.4889  0.5579
  306MOL0     C42130   3.402   9.452   0.356  0.3730 -0.3374  0.2590
  306MOL0     C42131   3.478   9.315   0.346 -0.1118  0.3671 -0.2955
  306MOL0     C42132   3.592   9.335   0.244 -0.5187  0.8306  0.3806
  306MOL0     C42133   3.688   9.219   0.242  1.1806  0.2452  0.7641
  306MOL0     C42134   3.625   9.089   0.195  0.3056 -0.5536 -0.0534
  306MOL0    Cl42135   3.664   9.061   0.017  0.0825  0.0745  0.3491
  306MOL0     C42136   2.810   9.479   0.657 -0.2919 -0.2246 -0.0184
  306MOL0     C42137   2.698   9.440   0.722 -0.3912 -0.1101  0.0203
  306MOL0     O42138   2.443   9.449   0.896 -0.0911 -0.3342  0.8312
  306MOL0     C42139   2.182   9.287   0.701  0.4613  0.8016  0.6157
  306MOL0     C42140   2.053   9.238   0.712 -0.9511 -0.9660 -0.2996
  306MOL0     N42141   1.436   8.806   1.064 -0.7292 -0.3980  0.3318
  306MOL0     N42142   1.359   8.842   1.159 -0.8568  0.4230 -0.0277
  306MOL0     C42143   0.362   9.341   1.425 -0.0193 -0.5869  0.6885
  306MOL0     C42144   0.241   9.356   1.364  0.8095 -0.0895  0.2966
  306MOL0     C42145  -0.141   9.398   1.178 -0.7458  0.6913 -0.4190
  306MOL0     C42146  -0.198   9.271   1.209 -0.1100 -0.0891  0.2774
  306MOL0     C42147  -0.339   9.254   1.202 -0.0255  0.7199 -0.2523
  306MOL0     C42148  -0.420   9.361   1.180 -0.8865 -0.5756 -0.1041
  306MOL0     O42149  -0.554   9.347   1.173 -0.2219 -0.8568 -0.0203
  306MOL0     C42150  -0.618   9.255   1.256  0.6857 -0.0498 -0.3732
  306MOL0     C42151  -0.693   9.138   1.183  0.4951  0.0887 -0.2108
  306MOL0     C42152  -0.762   9.046   1.284  0.2765 -0.2835 -0.3815
  306MOL0     C42153  -0.869   8.962   1.214 -0.0187 -0.1429  0.7175
  306MOL0     C42154  -0.959   8.907   1.313 -1.0813  0.4333 -0.3947
  306MOL0     C42155  -1.049   8.872   1.389 -1.1937 -0.2125 -0.9542
  306MOL0     C42156  -0.363   9.483   1.142  0.3502  0.4581  0.2127
  306MOL0     C42157  -0.228   9.500   1.141 -1.2322 -0.4018  0.4183
  306MOL0     C42158  -0.185   9.640   1.094  0.1370  0.3837  0.3011
  306MOL0     H42159   0.288   9.181   1.080 -3.3049  0.1683  0.7860
  306MOL0     H42160   0.528   9.184   1.173 -0.0921  2.0495 -3.0557
  306MOL0     H42161   0.604   9.253   1.620  3.2541 -1.9626  0.0928
  306MOL0     H42162   0.595   9.413   1.551 -1.2426 -0.1908  0.7955
  306MOL0     H42163   0.825   9.360   1.459  3.9813 -1.5105  0.4699
  306MOL0     H42164   0.816   9.392   1.629 -0.1401  2.7699 -1.9347
  306MOL0     H42165   0.822   9.155   1.689 -2.5193 -1.4706 -0.5306
  306MOL0     H42166   0.804   9.111   1.517 -3.1591 -1.4612  3.1149
  306MOL0     H42167   1.045   9.246   1.643 -1.7203 -0.3679  1.7560
  306MOL0     H42168   1.033   9.076   1.602 -0.3378  0.9995 -0.1583
  306MOL0     H42169   1.029   9.300   1.395 -0.6638 -0.2946 -2.0090
  306MOL0     H42170   0.996   9.125   1.364  1.5113 -1.0597 -0.0304
  306MOL0     H42171   1.254   9.244   1.484  0.1691 -0.6014  1.4017
  306MOL0     H42172   1.228   9.071   1.483  0.0608 -0.3144  0.5606
  306MOL0     H42173   1.380   9.148   1.301  0.7592  2.4109 -1.9760
  306MOL0     H42174   1.241   9.231   1.242  1.5916  0.3398  0.7859
  306MOL0     H42175   1.199   8.934   1.325  1.4426 -1.0283 -1.1248
  306MOL0     H42176   1.120   9.021   1.200  1.1357  2.9042 -1.4408
  306MOL0     H42177   1.280   9.070   0.946 -0.9766  0.4387  1.3671
  306MOL0     H42178   1.451   8.978   0.773 -2.6710 -0.4300  0.7989
  306MOL0     H42179   1.546   8.827   0.813  1.6415  0.5863  3.2056
  306MOL0     H42180   1.680   8.970   0.977 -1.2975  0.8410  0.8938
  306MOL0     H42181   1.731   8.980   0.818 -0.3744  2.0892 -1.0307
  306MOL0     H42182   1.581   9.205   0.802  1.3520 -0.8331 -0.6246
  306MOL0     H42183   1.550   9.168   0.970 -1.7228  0.0282 -1.1032
  306MOL0     H42184   1.714   9.351   0.910 -1.0347 -0.0744 -1.5096
  306MOL0     H42185   1.785   9.233   1.019 -0.0310  1.0693  0.4665
  306MOL0     H42186   1.971   9.325   1.032 -2.0367 -0.3639 -0.7177
  306MOL0     H42187   2.287   9.364   1.116 -1.1492 -2.3348  0.0344
  306MOL0     H42188   2.136   9.455   1.134 -0.0774 -1.8320  0.2810
  306MOL0     H42189   2.262   9.519   1.045  1.3623 -1.0993 -1.0657
  306MOL0     H42190   2.539   9.338   0.439  1.7445 -1.5464 -0.2013
  306MOL0     H42191   2.734   9.389   0.341 -1.0386 -1.6274 -0.6687
  306MOL0     H42192   3.016   9.640   0.545 -0.3750  0.1751 -2.0453
  306MOL0     H42193   3.079   9.488   0.608 -0.8773  1.1553  1.1514
  306MOL0     H42194   3.160   9.594   0.332 -0.8370 -1.9745 -0.4491
  306MOL0     H42195   3.247   9.631   0.484  2.0858 -0.4979 -1.2923
  306MOL0     H42196   3.216   9.353   0.373  1.1583 -0.0774  0.3039
  306MOL0     H42197   3.304   9.393   0.519  2.2030  1.5354  0.3470
  306MOL0     H42198   3.459   9.529   0.410  0.2549 -0.6609  0.8514
  306MOL0     H42199   3.397   9.492   0.254 -1.3864  0.5091  0.6374
  306MOL0     H42200   3.516   9.270   0.438 -1.0432 -2.8872 -1.3723
  306MOL0     H42201   3.400   9.249   0.307 -1.3119 -0.1192  2.6358
  306MOL0     H42202   3.660   9.414   0.277  3.0746 -1.4903 -0.8538
  306MOL0     H42203   3.560   9.357   0.142 -0.4719 -1.3509 -0.1546
  306MOL0     H42204   3.744   9.203   0.335  2.7020  0.4895 -0.0872
  306MOL0     H42205   3.765   9.240   0.168  0.3865 -1.8155 -0.7514
  306MOL0     H42206   3.517   9.082   0.216  0.4854  0.5275  1.3769
  306MOL0     H42207   3.675   9.004   0.243 -0.3467 -1.1039 -0.3141
  306MOL0     H42208   2.882   9.534   0.717 -2.3926  3.7006 -0.8421
  306MOL0     H42209   2.682   9.470   0.825  0.6799  1.9318 -0.3474
  306MOL0     H42210   2.230   9.271   0.605 -1.3345 -2.0993  0.0761
  306MOL0     H42211   1.999   9.203   0.624 -1.1753  1.3656 -1.1824
  306MOL0     H42212   0.373   9.397   1.517 -2.1965 -0.2980  0.8297
  306MOL0     H42213   0.157   9.409   1.407  1.8893  1.5806  0.4466
  306MOL0     H42214  -0.138   9.186   1.240 -0.0944  0.2967  1.3537
  306MOL0     H42215  -0.377   9.153   1.208  0.2656  0.6907  1.5344
  306MOL0     H42216  -0.553   9.215   1.334 -0.6961  0.3479  1.0396
  306MOL0     H42217  -0.700   9.308   1.303 -1.3286 -2.2836 -1.1249
  306MOL0     H42218  -0.635   9.083   1.109 -1.1346  1.1957 -2.4520
  306MOL0     H42219  -0.766   9.190   1.120 -2.6673 -1.2598  2.0794
  306MOL0     H42220  -0.683   8.983   1.326 -0.3052 -1.9348 -1.6282
  306MOL0     H42221  -0.814   9.097   1.365 -3.6449 -2.5182 -1.2532
  306MOL0     H42222  -0.822   8.876   1.166 -0.6651 -1.8959  3.0112
  306MOL0     H42223  -0.933   9.020   1.147  1.5642  0.1443 -0.6023
  306MOL0     H42224  -1.146   8.844   1.426  0.6736 -1.5376  3.5641
  306MOL0     H42225  -0.434   9.553   1.100 -0.9949 -1.9341 -1.8238
  306MOL0     H42226  -0.265   9.703   1.056  1.8831  2.6819  0.2317
  306MOL0     H42227  -0.141   9.699   1.175  0.9108 -0.6442  0.6554
  306MOL0     H42228  -0.113   9.630   1.012 -1.0377 -1.9935 -0.5554
  307MOL0     O42229   3.105   9.586   6.807 -1.1539 -0.4009 -0.4168
  307MOL0     C42230   3.020   9.660   6.852  0.9514 -0.2750  0.3980
  307MOL0     O42231   3.048   9.782   6.907 -0.0061  0.3465 -0.8255
  307MOL0     C42232   3.178   9.799   6.954 -0.0350  0.0072 -0.5136
  307MOL0     C42233   3.280   9.860   6.874  0.4192  1.1176  0.6370
  307MOL0     C42234   3.411   9.872   6.929  0.1587 -0.5760  0.0940
  307MOL0     C42235   3.434   9.840   7.062 -0.6856  0.5619  0.4834
  307MOL0     O42236   3.560   9.871   7.112  0.0595  0.3378  0.8214
  307MOL0     C42237   3.621   9.789   7.209 -0.6678 -0.3327 -1.4384
  307MOL0     C42238   3.752   9.854   7.255  0.0125  0.1870 -0.4241
  307MOL0     C42239   3.803   9.778   7.386  0.3753  0.1558  0.4934
  307MOL0     C42240   3.915   9.863   7.441 -0.6648  0.5203  0.4928
  307MOL0     C42241   3.983   9.807   7.565 -0.1698  0.1543  0.3554
  307MOL0     C42242   4.087   9.696   7.559 -0.0819  0.7211  0.1976
  307MOL0     C42243   4.202   9.696   7.457 -1.0740 -0.0862 -0.0469
  307MOL0     C42244   4.287   9.820   7.467 -0.3358 -0.3810 -0.2593
  307MOL0     N42245   4.417   9.808   7.394 -0.4789  0.3163  0.2297
  307MOL0     C42246   4.500   9.699   7.405 -0.2946 -0.2815  0.1946
  307MOL0     C42247   4.570   9.690   7.287 -0.1316 -0.5335  0.5739
  307MOL0     C42248   4.678   9.609   7.224 -0.4549  0.2239  0.2690
  307MOL0     C42249   4.642   9.526   7.101 -0.1789  0.0745 -0.8512
  307MOL0     C42250   4.638   9.374   7.130  0.0208  0.0616 -1.2816
  307MOL0     C42251   4.532   9.342   7.224 -0.0370  0.5378 -0.3721
  307MOL0     O42252   4.414   9.403   7.173 -0.1791  0.6251 -0.1894
  307MOL0     C42253   4.301   9.403   7.250 -0.0125  0.5335 -0.0547
  307MOL0     C42254   4.290   9.365   7.385  0.5209  0.8960  0.1100
  307MOL0     C42255   4.165   9.347   7.449 -0.1501 -0.4295 -0.0228
  307MOL0     C42256   4.177   9.294   7.592 -1.1115  0.1327  0.5359
  307MOL0     C42257   4.046   9.364   7.377  0.3431  0.3458 -0.5141
  307MOL0     C42258   3.906   9.351   7.433  0.9204 -0.1135 -0.4883
  307MOL0     O42259   3.816   9.441   7.372  0.1460 -0.1059 -0.0807
  307MOL0     C42260   3.684   9.410   7.374  0.1868 -0.0922 -0.1394
  307MOL0     C42261   3.603   9.466   7.467  0.4188 -0.8765 -0.0905
  307MOL0     C42262   3.467   9.433   7.477  1.3287  1.2204 -0.8735
  307MOL0     C42263   3.411   9.333   7.393  0.2789  0.5136 -0.1642
  307MOL0     O42264   3.284   9.294   7.397  0.1352  0.0722 -0.4534
  307MOL0     C42265   3.212   9.267   7.518 -0.0176  0.6991  0.1882
  307MOL0     C42266   3.071   9.302   7.478  0.9497 -0.2934 -0.0929
  307MOL0     C42267   3.042   9.448   7.464 -0.5135 -0.3855  1.0510
  307MOL0     C42268   2.906   9.458   7.386  0.6662 -0.5026 -0.2285
  307MOL0     C42269   2.841   9.603   7.387 -0.1543  0.8727 -0.3748
  307MOL0     C42270   2.694   9.594   7.340 -0.1961  1.0461 -0.1223
  307MOL0     C42271   2.606   9.718   7.372  0.1308 -0.3039  0.2711
  307MOL0     C42272   2.470   9.706   7.296 -0.1332 -0.9003  0.2360
  307MOL0    Cl42273   2.488   9.747   7.116  0.3346  0.0687 -0.3437
  307MOL0     C42274   3.488   9.280   7.286 -0.3204 -0.4519 -0.9038
  307MOL0     C42275   3.629   9.316   7.284 -0.6460  0.7803 -0.4175
  307MOL0     O42276   3.875   9.280   7.531 -0.0339 -0.4277  0.1224
  307MOL0     C42277   4.057   9.411   7.249 -1.3692 -0.3677  0.6620
  307MOL0     C42278   4.180   9.415   7.187  0.1292 -0.4247  0.5070
  307MOL0     N42279   4.531   9.798   7.207  0.1634  0.4341  0.0628
  307MOL0     N42280   4.430   9.860   7.259  0.1823  0.3267  0.0051
  307MOL0     C42281   3.335   9.778   7.141 -0.2196  0.0064 -0.4410
  307MOL0     C42282   3.202   9.763   7.092  0.0331 -0.1536  0.6498
  307MOL0     C42283   2.871   9.628   6.826  0.0890 -0.4468  0.1095
  307MOL0     C42284   2.848   9.506   6.763  0.8572 -0.3720 -0.6664
  307MOL0     C42285   2.731   9.464   6.725  0.4317 -0.1842  0.8988
  307MOL0     C42286   2.621   9.547   6.748  0.3605  0.2195 -0.2279
  307MOL0     O42287   2.500   9.487   6.728  0.0217 -0.2975 -0.6035
  307MOL0     C42288   2.378   9.571   6.727 -0.1710 -0.2145 -0.4076
  307MOL0     C42289   2.254   9.504   6.678 -0.1722  0.4924  0.8436
  307MOL0     C42290   2.276   9.433   6.537  0.0439 -0.6649 -0.0590
  307MOL0     C42291   2.148   9.371   6.478  0.6437 -0.3159 -0.4629
  307MOL0     C42292   2.039   9.467   6.462  0.1693  0.2005  0.3337
  307MOL0     C42293   1.953   9.552   6.449  0.0669 -0.7429 -0.4785
  307MOL0     C42294   2.630   9.665   6.823  0.6962  0.3658  0.5572
  307MOL0     C42295   2.759   9.708   6.854  0.3095  0.5185  0.1086
  307MOL0     C42296   2.770   9.825   6.942  0.1847 -1.1828 -1.1134
  307MOL0     H42297   3.264   9.887   6.771 -0.9650 -0.2913  0.4572
  307MOL0     H42298   3.491   9.931   6.886 -1.4245  3.2621  1.9700
  307MOL0     H42299   3.654   9.691   7.174 -0.2857 -2.0394  3.0553
  307MOL0     H42300   3.550   9.762   7.287  0.1252  1.6158  0.0465
  307MOL0     H42301   3.827   9.860   7.176  0.4821  2.3008  0.1186
  307MOL0     H42302   3.728   9.958   7.279 -0.5873 -0.4214  1.8756
  307MOL0     H42303   3.721   9.769   7.457  1.4724 -1.7136  1.6381
  307MOL0     H42304   3.837   9.680   7.351 -3.8233 -0.4278 -2.7274
  307MOL0     H42305   3.998   9.868   7.369 -1.6925 -0.6536 -0.8486
  307MOL0     H42306   3.880   9.963   7.465  2.1385  1.2801  1.7609
  307MOL0     H42307   3.898   9.779   7.626 -0.2220  0.5481  0.4647
  307MOL0     H42308   4.031   9.893   7.613 -2.3114  2.4299 -1.3054
  307MOL0     H42309   4.125   9.677   7.660 -0.9480  1.5769  0.7117
  307MOL0     H42310   4.033   9.605   7.533 -0.3160  1.0232 -0.4015
  307MOL0     H42311   4.173   9.684   7.352 -1.5847 -2.5066  0.3252
  307MOL0     H42312   4.262   9.608   7.479 -0.9485 -0.2397 -0.9504
  307MOL0     H42313   4.232   9.903   7.423  0.1216  0.2417  0.3227
  307MOL0     H42314   4.310   9.863   7.565  4.8557  0.5918 -1.6209
  307MOL0     H42315   4.505   9.631   7.490 -1.7085  0.6442  1.0694
  307MOL0     H42316   4.718   9.550   7.306 -0.5294  0.6546  0.6157
  307MOL0     H42317   4.761   9.677   7.201  1.3369 -1.8757  0.2062
  307MOL0     H42318   4.550   9.550   7.048 -1.5997 -1.5140  0.7424
  307MOL0     H42319   4.721   9.546   7.028  0.3717 -0.1794 -0.3329
  307MOL0     H42320   4.637   9.318   7.036 -0.9942  0.6532 -1.6427
  307MOL0     H42321   4.730   9.345   7.181 -1.1904 -2.8884 -0.5631
  307MOL0     H42322   4.515   9.234   7.230  2.6127 -0.0964 -2.6492
  307MOL0     H42323   4.556   9.368   7.328 -0.0069 -0.9117  0.0041
  307MOL0     H42324   4.381   9.356   7.444  0.7467  1.9417 -0.0674
  307MOL0     H42325   4.141   9.191   7.594 -1.0133  0.1059  1.1459
  307MOL0     H42326   4.123   9.352   7.668  1.6406  0.4659  2.4044
  307MOL0     H42327   4.276   9.302   7.638 -0.9954  2.6907  0.0025
  307MOL0     H42328   3.651   9.526   7.544 -0.6318 -0.6272  0.3903
  307MOL0     H42329   3.420   9.480   7.563  3.7494 -1.8304  2.4054
  307MOL0     H42330   3.222   9.164   7.553 -2.6966  0.1693 -0.3952
  307MOL0     H42331   3.240   9.329   7.604 -1.0077 -3.1877  3.6230
  307MOL0     H42332   3.036   9.256   7.385 -0.7631  1.8609 -0.5948
  307MOL0     H42333   3.004   9.256   7.551  1.4294 -2.8080 -1.1378
  307MOL0     H42334   3.116   9.503   7.405 -0.7071 -0.1041  1.0671
  307MOL0     H42335   3.043   9.498   7.562  1.4033  0.3881  0.6808
  307MOL0     H42336   2.836   9.391   7.438 -0.8033  1.1152 -0.0281
  307MOL0     H42337   2.916   9.416   7.285  0.2779 -3.4592  0.8458
  307MOL0     H42338   2.834   9.636   7.491 -1.5776 -1.1413  0.2271
  307MOL0     H42339   2.901   9.672   7.328 -1.7855  2.2402 -0.4986
  307MOL0     H42340   2.645   9.507   7.383  3.3486  0.2252  2.6389
  307MOL0     H42341   2.688   9.587   7.231 -2.0217  0.2915  0.0007
  307MOL0     H42342   2.651   9.815   7.352  0.2321 -0.6197 -1.1430
  307MOL0     H42343   2.598   9.718   7.481  0.9467 -0.3145  0.3372
  307MOL0     H42344   2.414   9.789   7.342  0.4835 -1.1534  1.4997
  307MOL0     H42345   2.422   9.611   7.321 -0.2321 -1.8766 -3.2466
  307MOL0     H42346   3.441   9.202   7.227 -3.2082 -1.2559  2.1391
  307MOL0     H42347   3.682   9.268   7.203  1.1092  0.9736  0.5799
  307MOL0     H42348   3.965   9.439   7.198 -2.1424  0.3491  2.3744
  307MOL0     H42349   4.193   9.431   7.080  1.4059 -0.2916  0.6643
  307MOL0     H42350   3.362   9.751   7.242  0.5793 -1.7218 -1.0921
  307MOL0     H42351   3.119   9.730   7.154 -1.7425  1.8022 -0.5747
  307MOL0     H42352   2.936   9.443   6.759  2.2201  0.9366  3.4946
  307MOL0     H42353   2.721   9.366   6.678 -0.4042 -0.1928  1.0812
  307MOL0     H42354   2.351   9.602   6.829 -0.1777 -0.8352 -0.2170
  307MOL0     H42355   2.395   9.655   6.659 -1.9497 -0.5826 -1.3720
  307MOL0     H42356   2.170   9.574   6.674  0.0651  0.7024 -0.9388
  307MOL0     H42357   2.228   9.422   6.745 -1.0608 -0.7558 -0.9587
  307MOL0     H42358   2.306   9.515   6.470 -2.6606  0.1813 -0.3633
  307MOL0     H42359   2.356   9.360   6.545 -1.0047 -2.0035 -1.2193
  307MOL0     H42360   2.117   9.291   6.545 -0.4630 -0.1913 -0.8135
  307MOL0     H42361   2.160   9.330   6.377 -0.4737  3.1683 -2.1759
  307MOL0     H42362   1.877   9.627   6.444 -2.2444 -2.9822 -1.0914
  307MOL0     H42363   2.553   9.733   6.860 -0.0948 -0.3938  0.3242
  307MOL0     H42364   2.829   9.904   6.895  1.2489  0.5164  2.7174
  307MOL0     H42365   2.675   9.876   6.962  0.1487 -1.0584 -1.5976
  307MOL0     H42366   2.817   9.797   7.037  1.4350 -4.4253 -2.5233
  308MOL0     O42367   2.080  11.332   3.639  0.8098 -0.0720 -0.4167
  308MOL0     C42368   2.056  11.242   3.560  0.7264  1.7058  0.3205
  308MOL0     O42369   2.134  11.210   3.452  0.4158  0.4291 -0.3006
  308MOL0     C42370   2.224  11.302   3.425 -0.1170 -0.2915  0.0142
  308MOL0     C42371   2.221  11.397   3.322  0.3116 -1.0826  0.4116
  308MOL0     C42372   2.337  11.457   3.278  0.6872  0.4908  0.9379
  308MOL0     C42373   2.462  11.424   3.336 -0.0427 -0.5906  0.3490
  308MOL0     O42374   2.584  11.458   3.275  0.4623  0.2471 -0.2939
  308MOL0     C42375   2.594  11.544   3.166 -0.0749 -0.0331 -0.1514
  308MOL0     C42376   2.735  11.548   3.102 -0.2337 -0.0710 -0.2890
  308MOL0     C42377   2.849  11.588   3.204  0.6139  0.0676  0.4456
  308MOL0     C42378   2.984  11.541   3.136 -0.3542  0.0563 -0.5134
  308MOL0     C42379   3.098  11.534   3.238  0.7069  0.2350  0.1192
  308MOL0     C42380   3.222  11.482   3.160  0.5648 -0.1904 -0.2258
  308MOL0     C42381   3.344  11.485   3.260  0.0402  0.0310  0.1167
  308MOL0     C42382   3.347  11.372   3.356  0.4933  0.1079  0.4358
  308MOL0     N42383   3.479  11.352   3.420 -0.1526  0.1694  1.1348
  308MOL0     C42384   3.556  11.440   3.483 -0.3881 -0.7807  0.1871
  308MOL0     C42385   3.655  11.370   3.549 -0.1285  0.4408  0.9374
  308MOL0     C42386   3.764  11.431   3.615 -0.2568 -1.4130 -0.0223
  308MOL0     C42387   3.897  11.374   3.557  1.1832 -0.0986  0.8097
  308MOL0     C42388   4.030  11.445   3.589 -0.3035 -0.0942  0.3329
  308MOL0     C42389   4.037  11.452   3.737 -0.6227 -0.1912 -0.5216
  308MOL0     O42390   4.172  11.491   3.777  0.2649 -0.2496 -0.1616
  308MOL0     C42391   4.241  11.392   3.840  0.7375 -0.1388  0.3412
  308MOL0     C42392   4.332  11.426   3.937 -0.5965  0.1704 -0.7004
  308MOL0     C42393   4.409  11.326   4.000  0.4406  0.1697  0.3751
  308MOL0     C42394   4.501  11.368   4.111 -0.3102  0.4895 -0.1589
  308MOL0     C42395   4.403  11.192   3.958 -0.5970  0.4243  0.8541
  308MOL0     C42396   4.493  11.084   4.017 -0.7919 -0.6305  1.4327
  308MOL0     O42397   4.524  10.985   3.926 -0.2284  0.2074 -1.7715
  308MOL0     C42398   4.537  10.856   3.967 -0.1909 -0.2394  0.6167
  308MOL0     C42399   4.645  10.768   3.925  0.4991 -0.3852  0.6568
  308MOL0     C42400   4.633  10.632   3.965 -0.5024  0.3228  0.3406
  308MOL0     C42401   4.527  10.575   4.042 -0.6711 -0.5173 -0.9379
  308MOL0     O42402   4.501  10.447   4.081  0.3326 -0.3472 -0.2261
  308MOL0     C42403   4.579  10.349   4.006 -0.3774 -0.3893 -0.0745
  308MOL0     C42404   4.538  10.211   4.055  0.3774  0.0210 -0.7047
  308MOL0     C42405   4.391  10.187   4.056  0.1974 -0.0722 -0.6116
  308MOL0     C42406   4.350  10.052   4.112  0.1971  0.5639  0.3090
  308MOL0     C42407   4.202  10.057   4.156  0.0376 -0.1584 -0.3949
  308MOL0     C42408   4.100  10.125   4.051  0.0020  0.4945  0.5978
  308MOL0     C42409   3.960  10.120   4.102  0.0298  0.5553 -0.1899
  308MOL0     C42410   3.864  10.128   3.991  0.2086  0.2952  0.3496
  308MOL0    Cl42411   3.869   9.999   3.863 -0.0727  0.1576 -0.4361
  308MOL0     C42412   4.440  10.667   4.094  0.8784  0.1862 -0.9075
  308MOL0     C42413   4.441  10.803   4.059 -0.6575 -0.4341  0.6889
  308MOL0     O42414   4.539  11.086   4.129 -0.5073  0.3138  0.3628
  308MOL0     C42415   4.309  11.157   3.855  1.1967  0.5484  0.8228
  308MOL0     C42416   4.230  11.259   3.794  0.8284 -0.0368 -0.4035
  308MOL0     N42417   3.644  11.232   3.513  0.1582  0.7292  0.2104
  308MOL0     N42418   3.536  11.233   3.435 -0.2851 -0.6848 -0.4951
  308MOL0     C42419   2.459  11.361   3.451  0.8327  0.6189 -0.5964
  308MOL0     C42420   2.345  11.298   3.497 -0.0315  0.3020  0.5795
  308MOL0     C42421   1.927  11.165   3.564 -0.1273 -0.6688 -0.2905
  308MOL0     C42422   1.892  11.088   3.456  0.4066  0.4823 -0.3037
  308MOL0     C42423   1.774  11.009   3.450 -0.0724 -0.8914  0.3096
  308MOL0     C42424   1.689  11.012   3.561 -0.1547 -1.1464  0.0982
  308MOL0     O42425   1.574  10.932   3.570 -0.0418 -1.1941  1.1131
  308MOL0     C42426   1.583  10.800   3.507  0.1437 -0.3706 -0.7170
  308MOL0     C42427   1.502  10.693   3.574  0.8138 -0.5410 -0.1095
  308MOL0     C42428   1.544  10.670   3.720  0.9825 -0.6155 -0.1445
  308MOL0     C42429   1.676  10.599   3.747  0.4810  0.1935 -0.1109
  308MOL0     C42430   1.780  10.695   3.780  0.3235  0.6172 -0.6383
  308MOL0     C42431   1.852  10.795   3.798 -0.3483 -0.9520  0.2451
  308MOL0     C42432   1.722  11.087   3.676  0.1319  0.1510 -0.5184
  308MOL0     C42433   1.842  11.163   3.680  0.2093 -0.1713  0.0002
  308MOL0     C42434   1.864  11.265   3.802  0.1426  1.2150  0.1984
  308MOL0     H42435   2.126  11.407   3.269  0.7779 -2.9448 -0.8681
  308MOL0     H42436   2.326  11.532   3.200 -1.5501  1.6507  2.2606
  308MOL0     H42437   2.569  11.647   3.192 -1.5330 -0.1724 -0.9030
  308MOL0     H42438   2.534  11.522   3.077 -0.5455  1.5112 -0.2411
  308MOL0     H42439   2.752  11.450   3.056 -1.3420 -0.3004 -0.2451
  308MOL0     H42440   2.736  11.627   3.027 -0.6952  0.4162  0.1983
  308MOL0     H42441   2.851  11.697   3.215  2.0539  0.0927 -0.0004
  308MOL0     H42442   2.831  11.549   3.305 -0.2318  1.3768  0.8417
  308MOL0     H42443   2.969  11.444   3.088 -0.1660 -0.5239  0.5634
  308MOL0     H42444   3.010  11.603   3.050  0.3989 -0.6875 -0.8416
  308MOL0     H42445   3.066  11.457   3.308  2.4167 -1.5444 -0.9499
  308MOL0     H42446   3.115  11.627   3.292  3.1094  0.6357 -1.1840
  308MOL0     H42447   3.208  11.384   3.113 -1.6891  0.2125 -0.4982
  308MOL0     H42448   3.240  11.556   3.082 -2.4252  1.6300  0.6549
  308MOL0     H42449   3.351  11.579   3.316 -0.6426  0.3922 -0.3838
  308MOL0     H42450   3.427  11.468   3.190 -1.7828 -3.3734 -1.4806
  308MOL0     H42451   3.278  11.394   3.439  1.1131  1.3021  0.6585
  308MOL0     H42452   3.322  11.277   3.309 -1.3564  0.6881  0.1959
  308MOL0     H42453   3.533  11.546   3.490 -0.7555 -0.6869 -1.8696
  308MOL0     H42454   3.756  11.412   3.723 -1.7443  1.4126  0.4582
  308MOL0     H42455   3.766  11.540   3.607  1.0264 -1.1901  2.2353
  308MOL0     H42456   3.899  11.271   3.594 -0.0752 -0.2286  0.5577
  308MOL0     H42457   3.882  11.374   3.449 -0.6060  0.3635  1.0360
  308MOL0     H42458   4.113  11.385   3.550  0.8230  0.0444  2.3895
  308MOL0     H42459   4.032  11.548   3.552  0.1182  0.0133  0.6493
  308MOL0     H42460   3.972  11.533   3.772 -0.9641  0.2310 -2.0809
  308MOL0     H42461   4.005  11.358   3.782  0.1878 -0.4424 -0.4383
  308MOL0     H42462   4.348  11.529   3.966  0.7274 -0.5930  1.5467
  308MOL0     H42463   4.506  11.478   4.112 -1.8710  0.5846 -0.5166
  308MOL0     H42464   4.602  11.330   4.092 -0.5063  0.3196 -0.8851
  308MOL0     H42465   4.469  11.319   4.204 -2.6726  0.5951 -0.8688
  308MOL0     H42466   4.716  10.807   3.854  0.6109 -0.8988  0.4801
  308MOL0     H42467   4.704  10.561   3.926 -0.0289 -0.0301  1.7763
  308MOL0     H42468   4.552  10.348   3.900 -0.1313 -1.0664 -0.1381
  308MOL0     H42469   4.686  10.368   4.017 -0.4192  0.9242 -1.6778
  308MOL0     H42470   4.594  10.147   3.986 -0.9472  0.5412 -2.3172
  308MOL0     H42471   4.580  10.192   4.155  0.8459  0.8078 -0.7410
  308MOL0     H42472   4.357  10.207   3.954 -1.2209  0.5891 -0.0519
  308MOL0     H42473   4.333  10.253   4.121  0.3413  0.3395 -0.8954
  308MOL0     H42474   4.417  10.017   4.191  2.9664 -0.3531 -2.2113
  308MOL0     H42475   4.347   9.978   4.032  1.6595  1.3755 -0.5440
  308MOL0     H42476   4.175   9.958   4.196 -0.7430  1.4268  3.5138
  308MOL0     H42477   4.201  10.129   4.239  3.0267 -0.0316 -0.3680
  308MOL0     H42478   4.107  10.087   3.948  0.9961 -0.2115  0.9203
  308MOL0     H42479   4.129  10.230   4.042  2.4963 -0.0463  1.5762
  308MOL0     H42480   3.945  10.204   4.171 -2.4344  0.0605 -0.0314
  308MOL0     H42481   3.932  10.025   4.148  0.6018  0.4160 -0.1206
  308MOL0     H42482   3.870  10.230   3.951 -1.0555  0.9801  1.7870
  308MOL0     H42483   3.760  10.125   4.027  0.1937 -0.7254  0.2506
  308MOL0     H42484   4.350  10.643   4.150  0.5441  1.2397 -0.9566
  308MOL0     H42485   4.363  10.868   4.097 -1.4762 -0.2105 -1.2266
  308MOL0     H42486   4.291  11.053   3.830 -0.0104  0.9782 -0.1999
  308MOL0     H42487   4.155  11.235   3.720 -0.8869  1.2873  0.8153
  308MOL0     H42488   2.551  11.344   3.506 -0.1090 -3.2372  0.0787
  308MOL0     H42489   2.348  11.236   3.586  3.1670 -0.2281  0.2256
  308MOL0     H42490   1.951  11.088   3.364 -0.5491 -1.3948 -0.9679
  308MOL0     H42491   1.758  10.952   3.359 -1.0259 -1.5477  0.8740
  308MOL0     H42492   1.549  10.809   3.403 -2.3423 -1.5260 -0.0965
  308MOL0     H42493   1.685  10.762   3.511  0.5838  0.6428 -1.6386
  308MOL0     H42494   1.508  10.596   3.523 -0.1033 -0.6149 -0.0950
  308MOL0     H42495   1.398  10.728   3.572  2.0356  3.6907 -1.8816
  308MOL0     H42496   1.534  10.767   3.771 -4.7796 -0.3026 -1.1814
  308MOL0     H42497   1.459  10.616   3.762 -0.4538  1.4362 -0.2369
  308MOL0     H42498   1.704  10.543   3.658 -0.3748  0.2805 -0.4446
  308MOL0     H42499   1.669  10.528   3.830 -0.6838  0.2818 -0.1121
  308MOL0     H42500   1.933  10.865   3.803 -3.0942  2.4326  1.7997
  308MOL0     H42501   1.654  11.081   3.760  1.4361 -3.3880  0.4469
  308MOL0     H42502   1.959  11.259   3.856  0.5703  2.0625 -0.4303
  308MOL0     H42503   1.836  11.365   3.767 -2.8160  1.1713  2.0818
  308MOL0     H42504   1.791  11.243   3.881 -2.1477  0.8209 -1.8936
  309MOL0     O42505   9.318   3.026   5.434 -0.7478  0.4070 -0.1575
  309MOL0     C42506   9.244   2.971   5.519 -0.2568 -0.6295 -0.5344
  309MOL0     O42507   9.293   2.884   5.619  0.0610 -0.0335 -0.3881
  309MOL0     C42508   9.425   2.881   5.664  0.4404 -0.3367  0.2696
  309MOL0     C42509   9.463   2.756   5.718  0.7429 -0.1853  0.0865
  309MOL0     C42510   9.591   2.744   5.780 -0.6543 -0.0528 -0.2639
  309MOL0     C42511   9.678   2.858   5.785  0.9349  0.7324 -0.2874
  309MOL0     O42512   9.807   2.861   5.834  0.1957  0.7518 -0.2197
  309MOL0     C42513   9.871   2.738   5.861  0.4187  0.7828  0.0211
  309MOL0     C42514  10.004   2.751   5.932 -0.4496  0.6247 -0.1900
  309MOL0     C42515  10.099   2.853   5.864 -0.1686  0.4956 -0.0822
  309MOL0     C42516  10.220   2.881   5.946  0.0318  0.3298 -0.7470
  309MOL0     C42517  10.316   2.984   5.883  0.5034  0.5022 -0.0097
  309MOL0     C42518  10.405   2.939   5.775 -0.5400  0.9459 -0.3026
  309MOL0     C42519  10.472   3.065   5.714 -0.3483 -0.5569 -0.7251
  309MOL0     C42520  10.602   3.021   5.634 -0.3588 -0.1463  0.0767
  309MOL0     N42521  10.712   2.993   5.728  0.4822  0.0802  1.0262
  309MOL0     C42522  10.764   2.873   5.758  0.4491 -0.1589 -0.9960
  309MOL0     C42523  10.854   2.895   5.857  0.7667  0.0658 -0.1072
  309MOL0     C42524  10.922   2.781   5.921  0.7861  0.2909  0.1981
  309MOL0     C42525  11.073   2.793   5.897  0.4129  0.1954 -0.2930
  309MOL0     C42526  11.150   2.664   5.948 -0.9031 -0.1365 -0.1716
  309MOL0     C42527  11.304   2.663   5.919 -0.3440  0.2973 -0.2802
  309MOL0     O42528  11.373   2.763   6.001  0.4166 -0.3186 -1.1138
  309MOL0     C42529  11.509   2.796   5.985  0.1374 -0.6514 -0.2249
  309MOL0     C42530  11.549   2.916   6.046  0.4502  0.1761  0.3712
  309MOL0     C42531  11.677   2.974   6.033 -0.1624 -0.1523  0.2066
  309MOL0     C42532  11.715   3.101   6.113  0.7993 -0.8628 -0.1534
  309MOL0     C42533  11.773   2.907   5.950  0.5125  0.1447 -0.0402
  309MOL0     C42534  11.911   2.947   5.931 -0.8249 -0.4067  0.3963
  309MOL0     O42535  11.978   2.865   5.840 -0.3458 -0.0464  0.0215
  309MOL0     C42536  12.087   2.928   5.781 -0.7313  0.1154 -0.2469
  309MOL0     C42537  12.210   2.876   5.807  0.3504  0.0962  0.7095
  309MOL0     C42538  12.324   2.933   5.755 -0.2177 -0.3435 -0.2934
  309MOL0     C42539  12.320   3.043   5.664 -0.0493  0.7749  0.2863
  309MOL0     O42540  12.443   3.099   5.621 -0.0568 -0.2868  0.1856
  309MOL0     C42541  12.447   3.140   5.486  0.0689 -0.6670  0.3800
  309MOL0     C42542  12.559   3.242   5.466 -0.5438  0.1920 -0.0974
  309MOL0     C42543  12.698   3.178   5.455  0.6616 -0.6988  0.0503
  309MOL0     C42544  12.795   3.301   5.462 -0.0760  0.1935 -0.1080
  309MOL0     C42545  12.925   3.257   5.388  0.1577  0.1675  0.4696
  309MOL0     C42546  13.024   3.379   5.399  0.0986 -0.1812  0.2019
  309MOL0     C42547  13.157   3.335   5.346 -0.5967  0.1429  0.1688
  309MOL0     C42548  13.219   3.261   5.462  0.5106 -0.4129 -0.2552
  309MOL0    Cl42549  13.372   3.196   5.408  0.2651  0.4703  0.0557
  309MOL0     C42550  12.193   3.084   5.626 -0.1425  0.0996  0.6613
  309MOL0     C42551  12.081   3.037   5.691  0.1835  0.7133 -0.6214
  309MOL0     O42552  11.964   3.029   5.999  0.5292 -0.0921  0.0306
  309MOL0     C42553  11.725   2.793   5.884  0.0877  0.5513 -0.1031
  309MOL0     C42554  11.600   2.731   5.901  0.2370 -0.5048 -0.4626
  309MOL0     N42555  10.849   3.035   5.884 -0.2821  0.1019 -0.4052
  309MOL0     N42556  10.766   3.085   5.804 -0.1933 -0.3690 -0.4607
  309MOL0     C42557   9.643   2.976   5.718  0.2526  1.1809 -0.1709
  309MOL0     C42558   9.519   2.988   5.666  0.1627  0.3045  0.0189
  309MOL0     C42559   9.100   2.980   5.510 -0.2022  0.2713  1.4310
  309MOL0     C42560   9.029   3.041   5.613 -0.4385  0.4853  0.4208
  309MOL0     C42561   8.892   3.061   5.611  0.0643 -0.4440 -0.6576
  309MOL0     C42562   8.818   3.022   5.495 -0.0995 -0.2571  0.1625
  309MOL0     O42563   8.680   3.026   5.485  0.4029 -0.1693 -0.5127
  309MOL0     C42564   8.615   3.123   5.563  0.4984  0.0659  0.2831
  309MOL0     C42565   8.472   3.154   5.509 -0.1974 -0.4406  0.4440
  309MOL0     C42566   8.383   3.034   5.526 -0.4705 -0.1591  0.0177
  309MOL0     C42567   8.246   3.070   5.469 -0.3337 -0.0514  0.1001
  309MOL0     C42568   8.190   3.199   5.520  0.0194 -0.1908  0.2870
  309MOL0     C42569   8.137   3.306   5.541 -0.4529  0.0074 -0.3670
  309MOL0     C42570   8.886   2.960   5.389  0.0542  0.3096 -0.1331
  309MOL0     C42571   9.025   2.934   5.393  0.1363 -0.0868  0.5850
  309MOL0     C42572   9.077   2.864   5.271  0.6072 -0.6166 -0.0399
  309MOL0     H42573   9.386   2.679   5.722  0.6650 -0.1510 -0.6002
  309MOL0     H42574   9.626   2.650   5.823 -0.9234  0.9605  2.3412
  309MOL0     H42575   9.903   2.690   5.768  3.1030  2.4429 -0.0259
  309MOL0     H42576   9.806   2.677   5.924  0.8111  2.0412  1.7125
  309MOL0     H42577   9.976   2.782   6.034  1.6711  0.8911  0.3509
  309MOL0     H42578  10.039   2.647   5.941 -2.8257 -0.2905 -0.6234
  309MOL0     H42579  10.118   2.813   5.764 -0.9891  0.7981 -0.3633
  309MOL0     H42580  10.050   2.950   5.853 -3.2777 -0.9736 -0.2959
  309MOL0     H42581  10.178   2.899   6.045  0.1235 -2.8239 -0.0187
  309MOL0     H42582  10.278   2.790   5.962 -1.9355 -1.1426 -1.5855
  309MOL0     H42583  10.383   3.015   5.963  0.8625 -0.5718  0.1324
  309MOL0     H42584  10.258   3.067   5.844 -3.0303 -1.6975  0.1549
  309MOL0     H42585  10.473   2.862   5.813 -1.7309  0.8966  1.8886
  309MOL0     H42586  10.342   2.901   5.693 -0.0313 -1.3969  0.3062
  309MOL0     H42587  10.497   3.136   5.793 -2.3983 -3.4540  2.8392
  309MOL0     H42588  10.403   3.121   5.651  0.6911  0.4574 -0.9849
  309MOL0     H42589  10.578   2.934   5.571  1.5246 -0.6552  0.0002
  309MOL0     H42590  10.633   3.102   5.568 -1.8846  1.6249  1.4395
  309MOL0     H42591  10.726   2.777   5.724  0.2959 -0.3102 -0.4190
  309MOL0     H42592  10.891   2.690   5.869  1.1394  0.4080 -0.2239
  309MOL0     H42593  10.894   2.775   6.027  0.3546 -0.4824  0.0416
  309MOL0     H42594  11.086   2.803   5.789  1.6230 -1.4713 -0.3557
  309MOL0     H42595  11.116   2.877   5.953 -0.8886  0.9456 -0.3969
  309MOL0     H42596  11.144   2.653   6.057  0.8075 -0.8903 -0.1299
  309MOL0     H42597  11.096   2.582   5.900 -1.9962  1.4031 -1.6895
  309MOL0     H42598  11.346   2.568   5.953  0.9536  0.2825 -1.8171
  309MOL0     H42599  11.323   2.674   5.812 -2.7811  0.2377 -0.7810
  309MOL0     H42600  11.470   2.962   6.105  0.7483  0.3552  0.6372
  309MOL0     H42601  11.766   3.175   6.051  0.7044 -0.1691  0.5747
  309MOL0     H42602  11.791   3.086   6.190  2.6306 -0.4749 -1.8316
  309MOL0     H42603  11.624   3.153   6.147  1.8404 -0.2712  1.9306
  309MOL0     H42604  12.206   2.788   5.870 -0.9034 -1.9483 -2.0648
  309MOL0     H42605  12.421   2.890   5.778 -0.4423 -1.9680 -2.0959
  309MOL0     H42606  12.466   3.058   5.417 -3.0625  0.3018 -1.8495
  309MOL0     H42607  12.349   3.181   5.461  0.0948 -1.4320 -1.0829
  309MOL0     H42608  12.532   3.302   5.378  1.7825  3.5337  1.2820
  309MOL0     H42609  12.554   3.306   5.555 -0.2983 -0.3489  0.3125
  309MOL0     H42610  12.707   3.136   5.354  0.3184  1.2317 -0.8342
  309MOL0     H42611  12.723   3.112   5.538 -1.4375 -0.2264  1.1469
  309MOL0     H42612  12.826   3.308   5.566  3.9314 -4.0206 -0.6686
  309MOL0     H42613  12.753   3.392   5.419  1.8530  0.7896 -0.8531
  309MOL0     H42614  12.965   3.164   5.429 -3.4258 -0.9359  1.8527
  309MOL0     H42615  12.901   3.244   5.283 -0.5986  1.4171  0.4654
  309MOL0     H42616  13.029   3.407   5.504  0.6374 -0.6279  0.3020
  309MOL0     H42617  12.995   3.467   5.341  4.1733 -0.3387 -2.4764
  309MOL0     H42618  13.222   3.420   5.323  1.3718 -0.8057  1.7819
  309MOL0     H42619  13.142   3.268   5.261 -3.3993  2.4669 -1.3265
  309MOL0     H42620  13.147   3.187   5.499 -2.4673  2.2324 -0.3303
  309MOL0     H42621  13.238   3.325   5.549 -0.4610  0.3765 -0.5996
  309MOL0     H42622  12.159   3.166   5.564  0.0219 -0.3720 -0.0648
  309MOL0     H42623  11.991   3.096   5.678 -1.3608 -0.8444  2.0021
  309MOL0     H42624  11.789   2.724   5.830 -0.8888 -0.1874 -0.3399
  309MOL0     H42625  11.560   2.641   5.855 -1.5763 -2.2384  3.9706
  309MOL0     H42626   9.721   3.052   5.718  1.9331 -0.4193  1.7157
  309MOL0     H42627   9.503   3.088   5.627  1.5889 -0.6843 -3.5249
  309MOL0     H42628   9.083   3.073   5.701  1.6449 -2.7642  0.5299
  309MOL0     H42629   8.852   3.119   5.694  2.9856  1.4411 -0.4235
  309MOL0     H42630   8.589   3.088   5.664 -2.6212  1.4560  0.0807
  309MOL0     H42631   8.671   3.216   5.576  0.9777 -0.4755  2.6385
  309MOL0     H42632   8.477   3.194   5.407  2.4392  0.4449  0.8455
  309MOL0     H42633   8.435   3.241   5.563  0.3683 -1.0898  1.9355
  309MOL0     H42634   8.424   2.946   5.475  1.4667  2.0908 -2.5703
  309MOL0     H42635   8.364   3.017   5.632 -4.2123 -0.0415 -0.4964
  309MOL0     H42636   8.177   2.985   5.481 -1.1625  0.4645 -0.8987
  309MOL0     H42637   8.248   3.081   5.361 -1.6331  1.7862  0.2248
  309MOL0     H42638   8.087   3.401   5.545 -0.4575  0.1224 -2.3549
  309MOL0     H42639   8.825   2.934   5.302 -0.3266  0.8436 -0.0341
  309MOL0     H42640   9.166   2.915   5.233  1.0540 -2.1979 -1.1859
  309MOL0     H42641   9.083   2.758   5.299  2.7061 -0.4661  0.2630
  309MOL0     H42642   9.005   2.870   5.189 -0.0745 -0.8394  0.5316
  310MOL0     O42643   2.022   8.779   3.549  0.6962 -0.3876 -0.1942
  310MOL0     C42644   2.054   8.680   3.608 -0.6064 -0.0541  0.2259
  310MOL0     O42645   2.184   8.639   3.626 -0.2056  0.3070 -0.3667
  310MOL0     C42646   2.286   8.717   3.579 -0.0414 -0.2490 -0.5372
  310MOL0     C42647   2.324   8.825   3.654 -0.3981  0.1257 -0.0474
  310MOL0     C42648   2.425   8.912   3.605 -0.0670  0.7930 -1.1198
  310MOL0     C42649   2.507   8.878   3.500 -0.3009  0.2404  0.6032
  310MOL0     O42650   2.620   8.956   3.465  0.5080  0.0826 -0.1398
  310MOL0     C42651   2.633   9.083   3.537 -0.1912  0.2151 -0.1625
  310MOL0     C42652   2.717   9.176   3.464 -0.9201 -0.0681  0.1907
  310MOL0     C42653   2.863   9.135   3.432  1.2676 -0.3333  0.2290
  310MOL0     C42654   2.971   9.144   3.549 -0.4349 -1.0260 -0.5110
  310MOL0     C42655   3.110   9.093   3.515  0.0901 -0.7005 -0.7242
  310MOL0     C42656   3.218   9.161   3.602 -0.1963  0.0279  0.4704
  310MOL0     C42657   3.353   9.099   3.578  0.7373  0.4932  0.7825
  310MOL0     C42658   3.404   9.117   3.437  1.1940  0.0357 -0.1958
  310MOL0     N42659   3.539   9.072   3.400  0.6434 -0.5125 -0.0768
  310MOL0     C42660   3.656   9.141   3.416  0.2182 -0.1125  0.3685
  310MOL0     C42661   3.748   9.042   3.394  0.6318 -0.3580  1.1903
  310MOL0     C42662   3.898   9.083   3.389 -0.2683 -0.2559  0.6033
  310MOL0     C42663   3.994   8.968   3.424  0.3588 -0.1126  0.5937
  310MOL0     C42664   4.017   8.892   3.288  0.7863  0.1658  0.0319
  310MOL0     C42665   4.147   8.928   3.216 -0.5975  0.6657 -1.0110
  310MOL0     O42666   4.265   8.887   3.295 -0.7169  0.6123 -0.1885
  310MOL0     C42667   4.385   8.915   3.224  0.5736  0.0788 -0.1204
  310MOL0     C42668   4.397   9.027   3.135 -0.1332  0.9542  0.4578
  310MOL0     C42669   4.516   9.066   3.081  0.9233  0.9918  0.1695
  310MOL0     C42670   4.505   9.186   2.987  0.0655  0.0751 -1.0136
  310MOL0     C42671   4.634   8.991   3.120 -0.5135  0.0182  0.8364
  310MOL0     C42672   4.768   9.034   3.088 -0.6039 -1.0051 -0.0423
  310MOL0     O42673   4.859   8.957   3.130 -0.0722 -0.3129  0.4398
  310MOL0     C42674   4.989   8.959   3.104  0.1278  0.7390 -0.4657
  310MOL0     C42675   5.064   8.880   3.193  0.9404 -0.7683 -0.2700
  310MOL0     C42676   5.198   8.887   3.187 -0.2980 -0.1315 -0.3901
  310MOL0     C42677   5.272   8.944   3.085  0.3353  0.4883  0.1898
  310MOL0     O42678   5.408   8.944   3.056  0.3641  0.5465 -0.5356
  310MOL0     C42679   5.498   8.857   3.130  0.6729 -0.4257 -0.1912
  310MOL0     C42680   5.644   8.871   3.079 -0.5412  0.2834  0.0726
  310MOL0     C42681   5.732   8.791   3.179 -0.1210 -0.0714  0.3816
  310MOL0     C42682   5.876   8.790   3.118 -0.0512  0.1941  0.6593
  310MOL0     C42683   5.979   8.744   3.213 -0.0404 -0.0634 -0.1499
  310MOL0     C42684   5.979   8.822   3.343 -0.5565  0.0675 -0.1490
  310MOL0     C42685   6.122   8.828   3.418  0.3682 -0.3052 -0.0149
  310MOL0     C42686   6.105   8.892   3.565  0.1856 -0.2801 -0.5043
  310MOL0    Cl42687   6.111   9.070   3.528 -0.0971 -0.3766 -0.2406
  310MOL0     C42688   5.189   9.015   2.991 -1.0476 -0.7731  0.4203
  310MOL0     C42689   5.053   9.026   3.001  0.7798  0.6568  0.4956
  310MOL0     O42690   4.782   9.144   3.030 -0.0322  0.6255  0.1123
  310MOL0     C42691   4.622   8.874   3.196 -0.2749  0.0901  0.2913
  310MOL0     C42692   4.499   8.841   3.245  0.2391  0.5696  0.2547
  310MOL0     N42693   3.684   8.920   3.360  0.4405  0.5660 -0.2084
  310MOL0     N42694   3.554   8.937   3.377 -0.8339 -0.0966 -0.2316
  310MOL0     C42695   2.482   8.759   3.427  0.0895  0.0772 -0.5382
  310MOL0     C42696   2.361   8.681   3.467  0.3995  0.1613  1.0268
  310MOL0     C42697   1.953   8.601   3.671 -0.0484 -0.0827  0.1963
  310MOL0     C42698   1.850   8.558   3.586  0.1848  0.1086 -0.2675
  310MOL0     C42699   1.736   8.486   3.641 -0.6186 -0.4969 -0.5225
  310MOL0     C42700   1.724   8.470   3.776  0.2594 -0.1538 -0.7490
  310MOL0     O42701   1.623   8.403   3.847  0.0026 -0.0152  0.4553
  310MOL0     C42702   1.528   8.324   3.768 -0.0883  0.3138 -0.3243
  310MOL0     C42703   1.400   8.401   3.756  0.6848 -0.7756  0.6103
  310MOL0     C42704   1.338   8.381   3.615  0.4461  0.0855 -0.3225
  310MOL0     C42705   1.198   8.436   3.601  0.1607  0.6084  0.4363
  310MOL0     C42706   1.090   8.351   3.648  0.5581 -0.7665  0.2383
  310MOL0     C42707   1.003   8.271   3.678  0.1924  0.0214 -0.0379
  310MOL0     C42708   1.825   8.516   3.858 -0.6560 -0.6052  0.0777
  310MOL0     C42709   1.937   8.580   3.811 -0.4649  0.5034  0.4135
  310MOL0     C42710   2.042   8.621   3.913 -0.2884 -0.0644  0.1543
  310MOL0     H42711   2.273   8.850   3.747  1.0655 -1.6770  1.3180
  310MOL0     H42712   2.457   8.996   3.666  2.2694  0.9293 -2.4200
  310MOL0     H42713   2.684   9.069   3.632 -2.1843  0.7774  1.0377
  310MOL0     H42714   2.541   9.140   3.548  0.3613  1.0765  0.1277
  310MOL0     H42715   2.671   9.202   3.368  2.4291  1.0495 -1.2522
  310MOL0     H42716   2.729   9.269   3.520  0.2994 -0.1517  0.1020
  310MOL0     H42717   2.857   9.030   3.400 -0.3791  0.7046 -3.4840
  310MOL0     H42718   2.889   9.195   3.344 -0.1997 -1.7936 -1.2608
  310MOL0     H42719   2.958   9.247   3.584 -2.4386 -0.9022 -1.4676
  310MOL0     H42720   2.931   9.078   3.627 -1.8327  1.4145  0.9919
  310MOL0     H42721   3.133   9.121   3.412  1.8922  0.1001 -0.1615
  310MOL0     H42722   3.109   8.984   3.522  2.0431 -0.7203  0.1238
  310MOL0     H42723   3.216   9.268   3.579  0.6903  0.0703  0.5696
  310MOL0     H42724   3.194   9.150   3.708  0.6599 -2.0228  0.4897
  310MOL0     H42725   3.359   8.993   3.602  0.5514  0.1239 -0.6926
  310MOL0     H42726   3.426   9.150   3.641  1.4152  3.7878 -2.2986
  310MOL0     H42727   3.340   9.058   3.370 -0.1316  0.4685  0.6648
  310MOL0     H42728   3.385   9.220   3.405  0.3233  0.7515  2.4496
  310MOL0     H42729   3.670   9.244   3.448  1.4610 -0.5016  1.1324
  310MOL0     H42730   3.914   9.166   3.459  3.5034  0.5877 -1.0333
  310MOL0     H42731   3.919   9.132   3.294  1.0671 -1.3208  0.3309
  310MOL0     H42732   4.087   9.005   3.467  0.8933  1.6947 -1.8757
  310MOL0     H42733   3.944   8.900   3.493 -1.1896 -0.7719 -1.0785
  310MOL0     H42734   4.019   8.785   3.311 -1.0892  0.1573  0.2596
  310MOL0     H42735   3.945   8.916   3.209  1.9166  0.9092 -0.8072
  310MOL0     H42736   4.147   8.885   3.115  2.1122  0.4496 -0.9946
  310MOL0     H42737   4.141   9.037   3.205  0.3731  0.8809  0.3540
  310MOL0     H42738   4.306   9.084   3.114 -0.1593  0.5337 -0.6240
  310MOL0     H42739   4.534   9.278   3.037 -0.2318 -1.3076  1.9542
  310MOL0     H42740   4.399   9.201   2.964 -0.6297 -0.5806  1.3981
  310MOL0     H42741   4.558   9.174   2.892  0.3929 -0.1054 -0.8101
  310MOL0     H42742   5.013   8.831   3.276  2.1919 -0.5429  0.6716
  310MOL0     H42743   5.267   8.848   3.261  0.1035 -0.2197 -0.8073
  310MOL0     H42744   5.493   8.872   3.238  3.0587  1.0982 -0.2137
  310MOL0     H42745   5.460   8.759   3.098 -1.5536  0.2120  0.3541
  310MOL0     H42746   5.657   8.836   2.976  1.2225  1.0090  0.0078
  310MOL0     H42747   5.679   8.975   3.083 -2.5800  1.0944 -1.4621
  310MOL0     H42748   5.689   8.691   3.188  0.2087 -0.4385 -1.5051
  310MOL0     H42749   5.724   8.847   3.272 -1.0959  0.9343 -0.2800
  310MOL0     H42750   5.900   8.892   3.086 -1.1377 -0.4041 -2.4089
  310MOL0     H42751   5.880   8.732   3.026 -2.7110  1.0851 -0.1276
  310MOL0     H42752   5.978   8.636   3.232  1.4371 -0.0701  0.0917
  310MOL0     H42753   6.076   8.759   3.164  0.8094  1.8894  1.9323
  310MOL0     H42754   5.906   8.779   3.413 -0.1951  0.1389  0.2734
  310MOL0     H42755   5.949   8.926   3.326 -0.4574  0.0931 -0.1636
  310MOL0     H42756   6.192   8.895   3.366  0.7442  0.7833  1.8145
  310MOL0     H42757   6.162   8.726   3.419 -2.8712 -1.7072 -0.4401
  310MOL0     H42758   6.182   8.857   3.633 -0.0298  2.5439  1.3616
  310MOL0     H42759   6.005   8.875   3.607  0.3010 -0.8965 -0.4674
  310MOL0     H42760   5.237   9.059   2.904 -2.1573  2.5189  1.3447
  310MOL0     H42761   4.997   9.068   2.918  1.4024 -0.2450 -0.3985
  310MOL0     H42762   4.699   8.802   3.222 -1.3488 -0.9673  0.6347
  310MOL0     H42763   4.487   8.746   3.295  2.1127  0.4113  0.4555
  310MOL0     H42764   2.547   8.738   3.342  1.1005 -1.6461  0.6195
  310MOL0     H42765   2.337   8.593   3.407  0.7938  1.7095 -1.5797
  310MOL0     H42766   1.852   8.571   3.478 -1.2874 -2.1931 -0.6484
  310MOL0     H42767   1.663   8.451   3.568 -0.9250  0.5840 -0.7581
  310MOL0     H42768   1.570   8.298   3.670 -0.4771  0.3933 -0.5149
  310MOL0     H42769   1.510   8.228   3.819 -0.3519 -0.1022 -1.1828
  310MOL0     H42770   1.433   8.503   3.775 -0.3264 -0.7862  2.6419
  310MOL0     H42771   1.326   8.368   3.829 -0.4402 -2.9090 -1.3673
  310MOL0     H42772   1.403   8.428   3.540 -0.5516  1.5582 -0.3029
  310MOL0     H42773   1.331   8.275   3.588 -3.7477  0.3829 -1.0385
  310MOL0     H42774   1.199   8.444   3.492  0.0219 -2.9653  0.0641
  310MOL0     H42775   1.171   8.534   3.642 -1.9641  0.0327  0.5216
  310MOL0     H42776   0.922   8.207   3.706 -1.3859  1.4227 -1.1583
  310MOL0     H42777   1.818   8.502   3.965  1.5435  1.7005  0.6130
  310MOL0     H42778   2.005   8.646   4.013 -0.7283 -2.2833  0.6084
  310MOL0     H42779   2.120   8.544   3.917  0.3245  0.5913  1.6882
  310MOL0     H42780   2.092   8.713   3.883  1.7762 -1.5804 -1.3331
  311MOL0     O42781   0.306   4.821   3.340 -0.3288 -0.2797 -0.6013
  311MOL0     C42782   0.292   4.707   3.385  0.3712  0.5862 -0.3458
  311MOL0     O42783   0.172   4.655   3.428  0.8113 -0.4288 -0.4149
  311MOL0     C42784   0.053   4.721   3.419 -0.1359  0.3230  0.0728
  311MOL0     C42785   0.007   4.791   3.305  0.4954  0.1795  0.0206
  311MOL0     C42786  -0.121   4.844   3.311 -0.2824 -0.5658 -0.2342
  311MOL0     C42787  -0.195   4.840   3.430  0.1593 -1.2338  0.2166
  311MOL0     O42788  -0.322   4.896   3.449  0.1562  0.3202  0.2348
  311MOL0     C42789  -0.395   4.957   3.342  0.0212 -0.5985  0.2024
  311MOL0     C42790  -0.460   4.847   3.249  0.0729  0.8310 -0.0511
  311MOL0     C42791  -0.554   4.744   3.317  0.5834  0.1297  0.7219
  311MOL0     C42792  -0.680   4.814   3.369  0.0851  0.7366 -0.1494
  311MOL0     C42793  -0.793   4.708   3.393  0.3676 -0.1901 -0.7062
  311MOL0     C42794  -0.927   4.772   3.428 -0.0125 -0.8051  0.2246
  311MOL0     C42795  -1.040   4.673   3.443  0.2652 -0.5207 -0.1367
  311MOL0     C42796  -1.170   4.732   3.494 -0.6143 -0.4129  0.2570
  311MOL0     N42797  -1.232   4.808   3.386  0.2289 -0.0883 -0.6881
  311MOL0     C42798  -1.307   4.755   3.289  0.1898 -0.2051  0.9582
  311MOL0     C42799  -1.376   4.863   3.233  0.7148 -0.2270  0.9052
  311MOL0     C42800  -1.483   4.868   3.121  0.2712  0.2173  0.2312
  311MOL0     C42801  -1.425   4.882   2.975 -0.0893 -0.3448  0.2390
  311MOL0     C42802  -1.307   4.787   2.937  0.0035 -0.7006  0.0260
  311MOL0     C42803  -1.266   4.807   2.794  0.2015 -0.5135  0.3115
  311MOL0     O42804  -1.228   4.679   2.736 -0.6684 -0.1880 -0.2329
  311MOL0     C42805  -1.163   4.681   2.614  0.9646 -0.2454 -0.0479
  311MOL0     C42806  -1.109   4.562   2.574  0.3220  1.6524  0.5526
  311MOL0     C42807  -1.030   4.546   2.462 -0.4359 -0.1530 -0.7031
  311MOL0     C42808  -0.975   4.409   2.422 -0.3444  0.8080  0.0776
  311MOL0     C42809  -1.008   4.663   2.382  0.1746 -1.2382 -0.0022
  311MOL0     C42810  -0.939   4.658   2.255 -0.0174  0.2525 -0.4544
  311MOL0     O42811  -0.816   4.594   2.262  0.1241 -0.7823  0.8183
  311MOL0     C42812  -0.720   4.636   2.171  1.2233  0.7157  0.2293
  311MOL0     C42813  -0.642   4.538   2.112 -0.2421  0.0980  0.5310
  311MOL0     C42814  -0.533   4.573   2.031  0.3603  0.2911  0.2110
  311MOL0     C42815  -0.503   4.707   2.010  0.3777  0.2593  0.1498
  311MOL0     O42816  -0.402   4.758   1.927  0.2070  0.9136  0.1887
  311MOL0     C42817  -0.356   4.680   1.817  0.7359 -0.6204  0.7351
  311MOL0     C42818  -0.353   4.773   1.694 -0.1265 -0.6359  0.0301
  311MOL0     C42819  -0.499   4.797   1.661  0.6251  0.5377  0.8239
  311MOL0     C42820  -0.522   4.829   1.514 -0.2530  0.3105  0.5784
  311MOL0     C42821  -0.478   4.971   1.481 -0.0302 -0.3386  0.0734
  311MOL0     C42822  -0.582   5.075   1.515  1.0069 -0.3846  0.2178
  311MOL0     C42823  -0.533   5.215   1.462 -0.6166  0.6257  0.1515
  311MOL0     C42824  -0.636   5.330   1.473 -0.2913  0.3422  0.5432
  311MOL0    Cl42825  -0.584   5.476   1.400 -0.4036  0.0827  0.2379
  311MOL0     C42826  -0.586   4.803   2.069 -1.0753  0.6022  0.1449
  311MOL0     C42827  -0.700   4.767   2.147 -0.0897 -0.5677 -0.5379
  311MOL0     O42828  -0.987   4.714   2.164 -0.4472  0.5637  0.3554
  311MOL0     C42829  -1.061   4.790   2.431 -0.3143 -0.1794  0.7251
  311MOL0     C42830  -1.136   4.796   2.547 -0.0463 -0.4691  0.0731
  311MOL0     N42831  -1.310   4.975   3.278 -0.1395  0.2104 -0.3525
  311MOL0     N42832  -1.222   4.943   3.370  0.1103 -0.5410  0.1936
  311MOL0     C42833  -0.138   4.786   3.549  0.1213 -0.2378  0.1047
  311MOL0     C42834  -0.015   4.728   3.542 -0.2887 -0.3861 -0.0577
  311MOL0     C42835   0.412   4.621   3.399  0.1551 -0.0383 -1.1433
  311MOL0     C42836   0.391   4.486   3.379 -0.3553  0.2607 -0.4605
  311MOL0     C42837   0.501   4.391   3.404 -0.6521  0.0006  0.2176
  311MOL0     C42838   0.623   4.433   3.451 -0.0172  1.2148  0.6198
  311MOL0     O42839   0.714   4.336   3.488  0.1992 -0.4508  0.1703
  311MOL0     C42840   0.850   4.375   3.459 -0.1973  0.6129  0.5037
  311MOL0     C42841   0.938   4.433   3.568  0.1416  0.4172 -0.3166
  311MOL0     C42842   1.083   4.475   3.534  0.0057  0.2451  0.2013
  311MOL0     C42843   1.101   4.630   3.541 -0.0503  0.0440 -0.3497
  311MOL0     C42844   1.003   4.689   3.445 -0.1677  0.5361  0.8343
  311MOL0     C42845   0.910   4.742   3.388  0.9265 -0.0388  0.1690
  311MOL0     C42846   0.640   4.575   3.463  0.2802  0.2813  0.3641
  311MOL0     C42847   0.536   4.666   3.439  0.4630  0.5910 -0.0421
  311MOL0     C42848   0.557   4.810   3.477 -0.8016 -0.4101  0.5084
  311MOL0     H42849   0.053   4.786   3.207  0.3298 -0.8268 -0.0119
  311MOL0     H42850  -0.169   4.892   3.225  0.0426 -0.5429 -0.4066
  311MOL0     H42851  -0.335   5.029   3.286  2.3281 -1.5224  1.3691
  311MOL0     H42852  -0.473   5.013   3.394  1.3458 -0.2453  1.9025
  311MOL0     H42853  -0.510   4.907   3.173 -1.4773  0.2809  0.4864
  311MOL0     H42854  -0.379   4.785   3.210 -1.7252  0.7629 -4.1863
  311MOL0     H42855  -0.590   4.682   3.235 -0.7755 -0.4841  1.7536
  311MOL0     H42856  -0.503   4.686   3.395 -2.1867  0.2048  2.7209
  311MOL0     H42857  -0.656   4.879   3.453  2.9743  0.1265 -0.3960
  311MOL0     H42858  -0.717   4.874   3.285 -1.0358 -0.8681 -0.8545
  311MOL0     H42859  -0.755   4.636   3.465  1.2809 -0.7735 -1.7415
  311MOL0     H42860  -0.815   4.646   3.305 -0.0573 -3.1566  1.3511
  311MOL0     H42861  -0.916   4.827   3.522  2.0708  0.9169 -0.9416
  311MOL0     H42862  -0.947   4.844   3.348  0.0411  0.5023  1.3417
  311MOL0     H42863  -1.007   4.606   3.522 -0.0465 -1.0311 -0.4372
  311MOL0     H42864  -1.062   4.617   3.351 -3.2590 -0.1605  0.3455
  311MOL0     H42865  -1.231   4.645   3.516 -0.3500 -0.5235  0.5730
  311MOL0     H42866  -1.149   4.803   3.575  1.1412 -0.7418  0.1447
  311MOL0     H42867  -1.325   4.649   3.278  1.8932 -0.8408  3.4020
  311MOL0     H42868  -1.557   4.945   3.145 -0.5249  0.2670 -2.1770
  311MOL0     H42869  -1.537   4.774   3.134  1.2343 -0.3798  0.0407
  311MOL0     H42870  -1.509   4.870   2.906 -2.4310  4.3273  1.8689
  311MOL0     H42871  -1.397   4.987   2.959 -3.1360  0.6140  0.6715
  311MOL0     H42872  -1.228   4.797   3.011 -1.3723 -0.6133  1.5542
  311MOL0     H42873  -1.343   4.683   2.943  2.8705 -1.7437  0.8761
  311MOL0     H42874  -1.342   4.861   2.736  0.9168 -0.4132 -0.5387
  311MOL0     H42875  -1.175   4.867   2.790  1.2747 -2.1008  0.1420
  311MOL0     H42876  -1.130   4.475   2.635  2.2940 -0.5767 -1.7100
  311MOL0     H42877  -0.998   4.337   2.501  2.8800  0.5904  0.9627
  311MOL0     H42878  -0.866   4.404   2.419 -0.3063  1.7654 -2.2508
  311MOL0     H42879  -1.017   4.376   2.326 -1.3010  1.5621  0.2188
  311MOL0     H42880  -0.670   4.434   2.122 -1.6153  0.3558 -0.4093
  311MOL0     H42881  -0.474   4.500   1.977  2.5163  2.6775 -0.8797
  311MOL0     H42882  -0.255   4.641   1.831  0.9795 -0.2828 -0.0621
  311MOL0     H42883  -0.418   4.593   1.793  2.4938 -1.5270 -0.7193
  311MOL0     H42884  -0.296   4.864   1.715 -3.1781  1.4141  0.0845
  311MOL0     H42885  -0.305   4.724   1.609  1.4109  0.6029  0.1301
  311MOL0     H42886  -0.529   4.885   1.718 -2.1043 -0.7734  1.5809
  311MOL0     H42887  -0.557   4.705   1.674  0.7249 -0.1332 -2.5524
  311MOL0     H42888  -0.625   4.807   1.486  0.4309 -0.1894 -1.7646
  311MOL0     H42889  -0.464   4.759   1.452 -1.3809  0.0211 -0.1887
  311MOL0     H42890  -0.375   4.998   1.502  0.8002 -1.2466 -2.3995
  311MOL0     H42891  -0.480   4.978   1.371 -0.4439  2.7282  0.1982
  311MOL0     H42892  -0.609   5.084   1.621 -2.1791 -0.1493 -0.4945
  311MOL0     H42893  -0.673   5.056   1.457  1.2789  1.3869 -0.8766
  311MOL0     H42894  -0.511   5.204   1.356  1.1504  1.1062  0.4188
  311MOL0     H42895  -0.439   5.250   1.508  1.1237 -1.8505 -1.2995
  311MOL0     H42896  -0.672   5.337   1.576  1.4825 -2.3022  1.4426
  311MOL0     H42897  -0.725   5.301   1.416 -0.4090  1.7479 -0.0293
  311MOL0     H42898  -0.557   4.906   2.051 -1.7916  0.6544 -0.7998
  311MOL0     H42899  -0.752   4.844   2.202  1.6314  1.1885 -1.2522
  311MOL0     H42900  -1.036   4.881   2.378  0.4278 -0.0290  1.3257
  311MOL0     H42901  -1.180   4.893   2.569 -1.1634 -0.8467 -0.4443
  311MOL0     H42902  -0.199   4.773   3.637  0.7920 -2.0246  0.3412
  311MOL0     H42903   0.031   4.681   3.628  1.4936 -0.5714 -1.0626
  311MOL0     H42904   0.296   4.445   3.347 -0.8896  1.2955 -0.2426
  311MOL0     H42905   0.488   4.286   3.382  1.0659 -0.3595  0.7941
  311MOL0     H42906   0.903   4.282   3.438  0.0677  0.8879 -0.0777
  311MOL0     H42907   0.858   4.442   3.373 -1.0517 -0.6163 -0.5575
  311MOL0     H42908   0.945   4.359   3.648 -1.0227  1.3127  0.6581
  311MOL0     H42909   0.897   4.518   3.624 -2.4264 -2.1084  1.9978
  311MOL0     H42910   1.152   4.426   3.603 -0.0284  1.9822  1.5435
  311MOL0     H42911   1.105   4.438   3.433  2.5707 -1.6719  1.3516
  311MOL0     H42912   1.200   4.663   3.509 -0.1900  0.3789 -0.4375
  311MOL0     H42913   1.083   4.674   3.639 -1.5073 -0.1114 -0.5205
  311MOL0     H42914   0.839   4.801   3.333  1.7828  1.2485  0.4033
  311MOL0     H42915   0.726   4.607   3.520  0.4894  1.0991 -0.3816
  311MOL0     H42916   0.494   4.829   3.565 -2.5076  1.2688 -0.9696
  311MOL0     H42917   0.663   4.823   3.501 -0.0258 -1.7568 -1.9241
  311MOL0     H42918   0.538   4.872   3.389  0.5250 -1.9248 -0.9051
  312MOL0     O42919   9.771   8.798   8.006 -0.4625  0.1751 -0.0353
  312MOL0     C42920   9.717   8.761   7.902 -0.2167  0.4672  0.6537
  312MOL0     O42921   9.785   8.715   7.789 -0.8327  0.3782 -0.5161
  312MOL0     C42922   9.920   8.673   7.815 -0.6668  0.6414 -0.2964
  312MOL0     C42923  10.033   8.757   7.804 -0.7597 -0.2672  0.8552
  312MOL0     C42924  10.159   8.705   7.833 -0.2326 -0.6759  0.5460
  312MOL0     C42925  10.187   8.568   7.851  0.6468 -0.1008 -0.0099
  312MOL0     O42926  10.319   8.523   7.849  0.6077 -0.4817 -0.5624
  312MOL0     C42927  10.380   8.556   7.975 -0.3382 -0.5463 -0.0556
  312MOL0     C42928  10.467   8.432   8.026  0.0050  0.2120  0.1857
  312MOL0     C42929  10.601   8.432   7.948  0.3338  0.0261 -0.7600
  312MOL0     C42930  10.706   8.314   7.980  0.2568  0.4553 -0.4454
  312MOL0     C42931  10.847   8.347   7.921  0.7174  1.0119 -0.0721
  312MOL0     C42932  10.931   8.219   7.914 -0.0133  0.1173 -0.0555
  312MOL0     C42933  10.911   8.138   7.786  0.4128 -0.2509 -0.3496
  312MOL0     C42934  10.967   7.995   7.785 -0.7857 -0.0806  0.3149
  312MOL0     N42935  11.114   7.990   7.761  0.2356 -0.8284 -0.9141
  312MOL0     C42936  11.189   7.992   7.640 -0.1711 -0.0267  0.5613
  312MOL0     C42937  11.314   7.951   7.675  0.0107  0.5431  0.0215
  312MOL0     C42938  11.425   7.916   7.576  0.5689 -0.2358  0.0122
  312MOL0     C42939  11.450   8.028   7.478  0.2589 -0.1412  1.1003
  312MOL0     C42940  11.569   7.986   7.391  0.3072  0.1793  0.7528
  312MOL0     C42941  11.590   8.058   7.260  0.4728 -0.0296  0.3366
  312MOL0     O42942  11.655   8.183   7.279 -0.3522 -0.6382  0.1375
  312MOL0     C42943  11.790   8.197   7.258  0.2573  0.4776 -0.1463
  312MOL0     C42944  11.859   8.287   7.347  1.2532 -0.1814 -0.2618
  312MOL0     C42945  11.989   8.316   7.334 -0.8859  0.1863  0.0861
  312MOL0     C42946  12.056   8.402   7.431 -0.0105 -0.0531 -0.9879
  312MOL0     C42947  12.065   8.259   7.223  0.5903 -0.1252 -1.1748
  312MOL0     C42948  12.210   8.263   7.209  0.5106  0.2304 -0.9844
  312MOL0     O42949  12.269   8.139   7.178  0.0499 -0.1158  0.1046
  312MOL0     C42950  12.402   8.135   7.184 -0.3780 -0.2909 -0.6768
  312MOL0     C42951  12.470   8.084   7.301 -0.4898  0.6071  0.5173
  312MOL0     C42952  12.608   8.071   7.301  0.1682 -0.1938 -0.4254
  312MOL0     C42953  12.690   8.118   7.195  0.5375 -0.1110 -0.0363
  312MOL0     O42954  12.825   8.118   7.217 -0.1793  0.2094  0.1074
  312MOL0     C42955  12.918   8.107   7.112  0.8343  0.7410 -0.0190
  312MOL0     C42956  13.041   8.028   7.144 -0.4044 -0.1926  0.8285
  312MOL0     C42957  13.125   8.097   7.255  0.2405 -0.4064  0.1011
  312MOL0     C42958  13.242   8.010   7.277 -0.4149 -0.3214  1.0850
  312MOL0     C42959  13.362   8.071   7.201  0.6201 -0.5925 -0.7280
  312MOL0     C42960  13.491   7.997   7.238  1.1398 -0.1467 -0.5176
  312MOL0     C42961  13.630   8.049   7.190  0.1660  0.7736 -0.8656
  312MOL0     C42962  13.735   8.005   7.289 -0.2363 -0.0169 -0.3136
  312MOL0    Cl42963  13.902   8.052   7.234  0.2568  0.1776  0.0434
  312MOL0     C42964  12.630   8.178   7.085  0.0035  0.3482  0.8886
  312MOL0     C42965  12.488   8.187   7.076 -0.0442 -0.8942  0.5529
  312MOL0     O42966  12.273   8.366   7.240  0.1612  0.2111  0.2262
  312MOL0     C42967  11.998   8.167   7.140  0.5674 -0.4420 -0.8487
  312MOL0     C42968  11.865   8.149   7.156  0.3450  0.4204 -0.0554
  312MOL0     N42969  11.322   7.948   7.813  0.7096 -0.2516  0.4214
  312MOL0     N42970  11.202   7.962   7.863  0.1791 -0.3611  0.1365
  312MOL0     C42971  10.072   8.487   7.863  0.5013  0.6002 -0.0651
  312MOL0     C42972   9.940   8.533   7.844  0.2114  0.3782 -1.0494
  312MOL0     C42973   9.567   8.769   7.894  0.4064 -0.0634 -0.2686
  312MOL0     C42974   9.508   8.730   7.768 -0.2417 -0.1401 -0.2120
  312MOL0     C42975   9.370   8.716   7.755  0.0004 -0.0594 -0.7018
  312MOL0     C42976   9.284   8.741   7.856  0.3095 -0.1451 -0.6276
  312MOL0     O42977   9.156   8.741   7.830  0.2022 -0.5185 -0.0163
  312MOL0     C42978   9.061   8.725   7.932 -0.4599 -1.2795 -0.0931
  312MOL0     C42979   8.988   8.855   7.938 -0.6261  0.3410 -0.3665
  312MOL0     C42980   8.937   8.870   8.083 -0.0621  0.1206  0.3944
  312MOL0     C42981   8.814   8.779   8.090  0.3173 -0.0855 -0.1430
  312MOL0     C42982   8.730   8.790   8.216  0.4391 -0.4747  0.1756
  312MOL0     C42983   8.661   8.801   8.315  0.9069  0.0197  0.3335
  312MOL0     C42984   9.332   8.787   7.974  0.3680 -0.6036  0.2742
  312MOL0     C42985   9.474   8.807   7.997 -0.3261 -0.5465 -0.0495
  312MOL0     C42986   9.511   8.861   8.129  0.3308  0.1438 -1.0961
  312MOL0     H42987  10.021   8.862   7.782 -0.2421 -0.1126  1.2989
  312MOL0     H42988  10.241   8.775   7.821  1.6114 -2.8082 -0.1554
  312MOL0     H42989  10.305   8.576   8.052  1.5395  1.0670  1.4866
  312MOL0     H42990  10.435   8.650   7.966 -0.8978 -0.3941 -2.7579
  312MOL0     H42991  10.507   8.427   8.128 -1.3686  0.1056  0.7458
  312MOL0     H42992  10.411   8.339   8.012  1.3021 -0.9508  2.1334
  312MOL0     H42993  10.566   8.423   7.845 -0.1423 -2.2041 -0.4535
  312MOL0     H42994  10.649   8.530   7.952  0.4455 -0.0328  3.2877
  312MOL0     H42995  10.715   8.302   8.088 -3.0950  1.3140  0.0372
  312MOL0     H42996  10.664   8.222   7.937 -4.1638  0.9929  2.0891
  312MOL0     H42997  10.895   8.419   7.987  1.5795  0.5364 -0.1725
  312MOL0     H42998  10.846   8.382   7.817  0.5267 -3.5554 -1.8419
  312MOL0     H42999  11.038   8.239   7.904  0.0470 -0.0097  0.3227
  312MOL0     H43000  10.922   8.163   8.008 -2.8340  1.9572  0.9306
  312MOL0     H43001  10.954   8.198   7.705  0.4950 -0.7278 -0.6697
  312MOL0     H43002  10.803   8.119   7.775  0.3406 -0.6504  0.9173
  312MOL0     H43003  10.945   7.945   7.880 -2.3209 -2.0887 -1.0260
  312MOL0     H43004  10.922   7.934   7.706  0.4598 -0.0284 -0.4668
  312MOL0     H43005  11.154   8.002   7.537  1.0508 -0.8164  0.0587
  312MOL0     H43006  11.401   7.820   7.531  0.5027 -2.1338  3.6957
  312MOL0     H43007  11.518   7.891   7.628  1.4497 -3.4243 -2.7578
  312MOL0     H43008  11.355   8.039   7.424 -0.6178 -1.7952  2.2300
  312MOL0     H43009  11.466   8.124   7.527  0.7508  1.3409 -1.7738
  312MOL0     H43010  11.657   7.989   7.455  1.2896  1.4029 -0.5941
  312MOL0     H43011  11.556   7.883   7.357  2.1656 -0.6730  2.3995
  312MOL0     H43012  11.636   8.003   7.177 -0.6876  0.9666 -1.0062
  312MOL0     H43013  11.492   8.068   7.213  1.4574  2.0568 -1.4400
  312MOL0     H43014  11.808   8.326   7.434  4.6121  2.3960  0.7749
  312MOL0     H43015  12.115   8.354   7.510 -2.0217  0.5553  0.9659
  312MOL0     H43016  11.971   8.450   7.480  1.0858  0.9510  0.0150
  312MOL0     H43017  12.115   8.479   7.380  2.9385 -2.2117 -1.0925
  312MOL0     H43018  12.416   8.075   7.394 -1.1684  1.0571  0.1783
  312MOL0     H43019  12.663   8.039   7.388 -1.5291  0.2455  0.8752
  312MOL0     H43020  12.883   8.073   7.014  2.1631  1.7469 -0.8738
  312MOL0     H43021  12.953   8.209   7.096  0.3361  0.7287 -1.3325
  312MOL0     H43022  13.020   7.929   7.185  1.8926 -0.7768  0.7561
  312MOL0     H43023  13.090   8.028   7.046  0.7733 -0.9660  1.3936
  312MOL0     H43024  13.061   8.099   7.344  0.3923 -1.0528  0.2309
  312MOL0     H43025  13.156   8.198   7.228 -2.6173  0.8849  1.3304
  312MOL0     H43026  13.226   7.906   7.247  3.4631 -0.1927 -2.2958
  312MOL0     H43027  13.258   8.012   7.385 -2.3812  0.0355  1.3994
  312MOL0     H43028  13.337   8.078   7.095  1.8928 -1.0186 -1.0725
  312MOL0     H43029  13.380   8.174   7.235 -1.6763  0.3935 -2.2141
  312MOL0     H43030  13.479   7.897   7.195  0.6279 -0.2921 -0.0566
  312MOL0     H43031  13.495   7.996   7.347  1.2411 -1.3540 -0.5160
  312MOL0     H43032  13.629   8.158   7.189 -1.6242  0.8817  1.9697
  312MOL0     H43033  13.654   8.010   7.090 -0.0711 -1.4746 -0.1082
  312MOL0     H43034  13.728   7.896   7.299  0.8414 -0.2241 -1.6226
  312MOL0     H43035  13.722   8.056   7.385  1.1814 -0.5407  0.1784
  312MOL0     H43036  12.686   8.210   6.998 -1.6015 -0.7691 -0.6141
  312MOL0     H43037  12.454   8.223   6.979  0.6586 -2.4594 -0.3214
  312MOL0     H43038  12.047   8.117   7.057  0.3817 -1.7933 -0.1633
  312MOL0     H43039  11.816   8.088   7.080 -2.5372  0.3652  1.7224
  312MOL0     H43040  10.083   8.380   7.880 -5.0646 -0.4337 -0.8717
  312MOL0     H43041   9.849   8.480   7.869 -0.8312  2.1193 -0.9750
  312MOL0     H43042   9.581   8.708   7.690  0.9037  0.9806  0.5068
  312MOL0     H43043   9.331   8.680   7.660 -1.0357  1.0725 -0.7317
  312MOL0     H43044   8.992   8.646   7.900 -0.0288 -1.1253 -1.4770
  312MOL0     H43045   9.105   8.695   8.028  1.5842 -1.4433 -1.0248
  312MOL0     H43046   8.904   8.856   7.868  0.7992  1.0673 -2.1312
  312MOL0     H43047   9.051   8.943   7.921 -0.2584  0.3537  0.9512
  312MOL0     H43048   9.016   8.842   8.153 -0.2104 -0.9627  0.1541
  312MOL0     H43049   8.898   8.972   8.097 -1.1646 -0.5534  2.7745
  312MOL0     H43050   8.842   8.677   8.066 -2.4372 -1.4524  1.8373
  312MOL0     H43051   8.752   8.816   8.008  0.0196 -0.2081  0.0255
  312MOL0     H43052   8.585   8.799   8.390 -0.1651 -0.6150 -0.7230
  312MOL0     H43053   9.272   8.821   8.057  0.2783  0.5953 -0.2568
  312MOL0     H43054   9.426   8.901   8.185  0.0301 -0.5412 -1.0560
  312MOL0     H43055   9.562   8.788   8.193  3.4031  1.8612 -1.3569
  312MOL0     H43056   9.581   8.946   8.120 -0.1523  0.5602 -0.9606
  313MOL0     O43057   1.122   3.523   5.006 -0.1915 -0.1701 -0.0826
  313MOL0     C43058   1.084   3.616   5.079  0.5520 -0.5165  0.6263
  313MOL0     O43059   1.165   3.697   5.157  0.1861 -0.1894 -0.3137
  313MOL0     C43060   1.293   3.717   5.111  0.4094 -0.5900 -0.3803
  313MOL0     C43061   1.318   3.762   4.985  0.7441 -0.6127  0.6103
  313MOL0     C43062   1.445   3.797   4.941  0.6166  0.8014 -0.0091
  313MOL0     C43063   1.555   3.799   5.028  0.0337 -0.2933  0.9627
  313MOL0     O43064   1.683   3.829   4.980 -0.3162  0.4530 -0.0340
  313MOL0     C43065   1.795   3.819   5.071 -0.4471 -0.4952 -0.1703
  313MOL0     C43066   1.863   3.688   5.088 -0.1181  0.1880 -0.4179
  313MOL0     C43067   1.866   3.616   4.948  0.0610 -0.1912  0.6934
  313MOL0     C43068   1.961   3.497   4.945 -0.5410  0.4277 -0.4409
  313MOL0     C43069   2.097   3.520   4.865 -0.0836 -0.2901 -1.1231
  313MOL0     C43070   2.083   3.522   4.711 -0.3249 -0.3210 -0.3352
  313MOL0     C43071   2.205   3.473   4.626  0.2662 -0.6826  0.3547
  313MOL0     C43072   2.191   3.514   4.475  0.0994 -0.0042 -0.2460
  313MOL0     N43073   2.064   3.466   4.422 -1.2456  0.4370 -0.2575
  313MOL0     C43074   1.960   3.548   4.395 -0.1998  0.1263 -0.6331
  313MOL0     C43075   1.869   3.469   4.338  0.1078 -0.3387 -0.9313
  313MOL0     C43076   1.734   3.513   4.297 -0.2127  0.0855 -0.7321
  313MOL0     C43077   1.660   3.568   4.415  0.0685 -0.3000 -0.2955
  313MOL0     C43078   1.634   3.462   4.519  0.1445 -0.4750 -0.2146
  313MOL0     C43079   1.591   3.514   4.665  0.4895  0.1057 -0.6206
  313MOL0     O43080   1.469   3.583   4.655 -0.5093 -0.3539 -0.4877
  313MOL0     C43081   1.354   3.519   4.665  0.0863 -0.0827 -0.5144
  313MOL0     C43082   1.334   3.379   4.684 -0.5222 -0.4990 -0.3007
  313MOL0     C43083   1.210   3.319   4.699  0.0958  0.1962 -0.3696
  313MOL0     C43084   1.204   3.166   4.731 -0.7215 -0.2776 -0.3034
  313MOL0     C43085   1.086   3.396   4.690 -0.3149 -0.9047 -0.2180
  313MOL0     C43086   0.955   3.340   4.698 -0.8217  0.0878 -0.0285
  313MOL0     O43087   0.860   3.428   4.744  0.8268 -0.4212 -0.8584
  313MOL0     C43088   0.726   3.395   4.724 -0.0827 -0.2359 -0.6128
  313MOL0     C43089   0.644   3.400   4.839  0.0421 -0.4885 -1.5061
  313MOL0     C43090   0.510   3.376   4.831  0.4760  0.2707 -1.1411
  313MOL0     C43091   0.459   3.329   4.707  1.2954 -0.7563 -0.3265
  313MOL0     O43092   0.330   3.285   4.707  0.0562 -0.7690 -0.9240
  313MOL0     C43093   0.292   3.174   4.622  0.4068  0.5368 -0.1652
  313MOL0     C43094   0.155   3.108   4.669 -0.1925 -0.2714  0.2563
  313MOL0     C43095   0.043   3.213   4.654 -0.4206  0.4565 -0.4216
  313MOL0     C43096  -0.087   3.173   4.721 -0.8319  0.1032  1.0637
  313MOL0     C43097  -0.200   3.282   4.729 -0.5018  0.6355  0.7350
  313MOL0     C43098  -0.319   3.228   4.802 -0.1202 -0.0413  0.2975
  313MOL0     C43099  -0.445   3.305   4.781 -0.4058 -0.0276 -0.0014
  313MOL0     C43100  -0.574   3.232   4.816  0.3076  0.5207  0.3722
  313MOL0    Cl43101  -0.587   3.201   4.997  0.0804  0.7769 -0.0564
  313MOL0     C43102   0.537   3.327   4.597  0.4870 -0.6361  0.3856
  313MOL0     C43103   0.669   3.352   4.602  0.1805  0.0735 -0.4028
  313MOL0     O43104   0.935   3.228   4.652 -0.3423 -0.2285  0.1591
  313MOL0     C43105   1.107   3.536   4.663  0.5336  0.7338 -0.7177
  313MOL0     C43106   1.237   3.594   4.648 -0.8086  0.5693 -0.3500
  313MOL0     N43107   1.913   3.340   4.336 -0.2719 -0.2196  0.0797
  313MOL0     N43108   2.029   3.343   4.393  0.1947  0.4008 -0.5453
  313MOL0     C43109   1.529   3.762   5.158  0.3989 -0.7512 -1.1248
  313MOL0     C43110   1.393   3.728   5.201  0.2059  0.0210  0.1947
  313MOL0     C43111   0.945   3.646   5.088  0.9727  0.3789 -0.2279
  313MOL0     C43112   0.879   3.677   4.973 -0.2981 -0.4139 -0.6783
  313MOL0     C43113   0.736   3.682   4.973 -1.1734 -0.1008 -0.8036
  313MOL0     C43114   0.664   3.667   5.092  0.1452 -0.2365 -0.2354
  313MOL0     O43115   0.530   3.677   5.073 -0.6816  0.6441 -0.0652
  313MOL0     C43116   0.450   3.613   5.170 -0.0231 -0.7812  0.3039
  313MOL0     C43117   0.312   3.610   5.110  0.6152  0.6107 -0.4717
  313MOL0     C43118   0.249   3.749   5.087  0.1694  0.6355  0.1244
  313MOL0     C43119   0.113   3.713   5.035 -0.5225  0.1039  0.2603
  313MOL0     C43120   0.026   3.828   5.031  0.1855  0.5683  0.1525
  313MOL0     C43121  -0.063   3.900   5.039  0.2829 -0.2713 -0.1334
  313MOL0     C43122   0.736   3.645   5.211 -0.6733 -0.2158  0.1230
  313MOL0     C43123   0.878   3.623   5.207 -0.2517 -1.0380 -0.3926
  313MOL0     C43124   0.954   3.579   5.324  0.0204 -0.4738 -0.8971
  313MOL0     H43125   1.232   3.774   4.921 -0.7773  0.3559  2.7312
  313MOL0     H43126   1.462   3.825   4.837 -1.2643  2.2916  0.0348
  313MOL0     H43127   1.776   3.865   5.168  2.4729 -0.8048  0.6566
  313MOL0     H43128   1.868   3.887   5.026  0.2565  0.8957  2.8803
  313MOL0     H43129   1.966   3.699   5.124 -0.8002  2.3505  1.0367
  313MOL0     H43130   1.812   3.620   5.156  1.1972  0.8329  1.3001
  313MOL0     H43131   1.768   3.575   4.925 -0.2986 -0.7725  2.9913
  313MOL0     H43132   1.888   3.694   4.874 -2.9210 -1.4422 -1.7120
  313MOL0     H43133   1.988   3.467   5.047 -1.7256  1.1942  0.1227
  313MOL0     H43134   1.928   3.402   4.903  1.1678 -0.0534 -0.7791
  313MOL0     H43135   2.159   3.431   4.878  0.9562  0.6025  0.4193
  313MOL0     H43136   2.155   3.606   4.901 -0.8874 -1.0332  2.3425
  313MOL0     H43137   1.997   3.456   4.694 -0.4151 -1.0541  2.4895
  313MOL0     H43138   2.060   3.624   4.678  0.6627  0.7859  2.1367
  313MOL0     H43139   2.215   3.365   4.643 -1.9448 -0.8570  0.9231
  313MOL0     H43140   2.300   3.514   4.660 -0.0414  0.1199  0.2794
  313MOL0     H43141   2.196   3.623   4.465  0.7180 -0.2367 -3.6335
  313MOL0     H43142   2.279   3.471   4.427  0.3666 -2.1497  1.9602
  313MOL0     H43143   1.948   3.654   4.415  1.9287  0.3314 -0.2298
  313MOL0     H43144   1.685   3.420   4.268  0.2732 -0.3996 -0.0216
  313MOL0     H43145   1.756   3.577   4.211  0.0651  0.0448 -0.6929
  313MOL0     H43146   1.718   3.649   4.461 -1.1532  0.9040 -0.7868
  313MOL0     H43147   1.564   3.610   4.384  0.3420  0.1452 -0.5598
  313MOL0     H43148   1.556   3.395   4.482 -1.3283  2.0474 -2.0146
  313MOL0     H43149   1.718   3.395   4.539 -1.1211 -2.2425 -0.5374
  313MOL0     H43150   1.581   3.442   4.747  3.3186  0.3059 -0.0181
  313MOL0     H43151   1.670   3.579   4.703  1.7049 -2.9702  2.8421
  313MOL0     H43152   1.421   3.315   4.680  0.7471  1.0204  1.3223
  313MOL0     H43153   1.305   3.129   4.754 -0.4213  0.1916 -0.8388
  313MOL0     H43154   1.167   3.107   4.647 -2.4249 -0.8750  0.8188
  313MOL0     H43155   1.126   3.152   4.806  0.6047  0.0047  1.1840
  313MOL0     H43156   0.676   3.427   4.939  0.3901 -1.3081 -1.3871
  313MOL0     H43157   0.434   3.379   4.909 -0.5803 -0.5264 -2.1035
  313MOL0     H43158   0.287   3.212   4.519  0.8818 -0.5891 -0.6222
  313MOL0     H43159   0.377   3.105   4.624  0.2047  0.2596 -0.8133
  313MOL0     H43160   0.134   3.024   4.603 -4.0994  2.0359 -1.8041
  313MOL0     H43161   0.164   3.078   4.774  0.2915 -2.1162 -0.2834
  313MOL0     H43162   0.015   3.226   4.549  0.1701  3.8554 -0.2835
  313MOL0     H43163   0.065   3.313   4.692 -2.2062  0.1818  1.5358
  313MOL0     H43164  -0.068   3.149   4.827 -0.4289 -0.4671  0.8689
  313MOL0     H43165  -0.124   3.078   4.680  1.0668 -0.3374  0.2694
  313MOL0     H43166  -0.163   3.373   4.778 -1.8950  1.6624 -0.0445
  313MOL0     H43167  -0.227   3.316   4.628  3.4184 -0.1898 -0.8078
  313MOL0     H43168  -0.291   3.221   4.907 -2.7665 -3.7514  0.9435
  313MOL0     H43169  -0.342   3.128   4.764  2.4366 -0.9395  0.8723
  313MOL0     H43170  -0.453   3.323   4.673 -1.6980 -2.3426 -0.3722
  313MOL0     H43171  -0.445   3.401   4.834  1.7816  0.2628 -0.4451
  313MOL0     H43172  -0.585   3.142   4.755  0.8621  0.1544  0.8017
  313MOL0     H43173  -0.661   3.287   4.780  0.2523  2.6213  3.3569
  313MOL0     H43174   0.504   3.285   4.502  1.1301 -0.9374  0.2899
  313MOL0     H43175   0.732   3.337   4.516  0.9235 -1.2264  0.3445
  313MOL0     H43176   1.019   3.594   4.639 -0.3444  0.1343  0.8882
  313MOL0     H43177   1.239   3.700   4.622 -0.7475  1.1530  1.8289
  313MOL0     H43178   1.599   3.740   5.238 -0.8377  0.0937  0.2369
  313MOL0     H43179   1.393   3.693   5.303  3.1612 -1.6917 -0.2744
  313MOL0     H43180   0.933   3.696   4.881  0.9127 -0.3726  0.0167
  313MOL0     H43181   0.699   3.723   4.880 -0.6388  0.2626 -0.8609
  313MOL0     H43182   0.488   3.513   5.192 -0.1853 -0.3554  2.7253
  313MOL0     H43183   0.455   3.677   5.259  0.8613  2.2541 -1.7424
  313MOL0     H43184   0.249   3.553   5.179 -2.2942  1.8095 -1.9531
  313MOL0     H43185   0.313   3.553   5.016  1.3111  0.0655 -0.1399
  313MOL0     H43186   0.249   3.807   5.179  1.2760  0.1361  0.4532
  313MOL0     H43187   0.296   3.794   4.999  1.7607 -2.8935 -1.0134
  313MOL0     H43188   0.068   3.635   5.097 -3.2887  0.5741 -1.0231
  313MOL0     H43189   0.126   3.671   4.935  0.8620 -0.3001  0.5879
  313MOL0     H43190  -0.151   3.960   5.052 -1.9412 -3.2805 -0.2539
  313MOL0     H43191   0.687   3.648   5.308 -0.3424 -1.9950  0.3847
  313MOL0     H43192   0.898   3.564   5.417  1.7178  4.2225  1.1856
  313MOL0     H43193   0.999   3.484   5.291  3.2022  2.1632 -5.2597
  313MOL0     H43194   1.035   3.648   5.351  0.4146 -0.3181 -2.3726
  314MOL0     O43195   3.002   0.465   8.158  0.1179 -0.1359  0.6372
  314MOL0     C43196   2.994   0.460   8.036  0.4625  0.0223 -0.8291
  314MOL0     O43197   3.099   0.439   7.953  0.4438  0.0602 -0.6611
  314MOL0     C43198   3.226   0.419   8.006  0.6519  0.5161 -0.1709
  314MOL0     C43199   3.303   0.523   8.060 -0.3162 -0.3730 -0.5971
  314MOL0     C43200   3.437   0.503   8.093  0.2687 -0.5595  0.1270
  314MOL0     C43201   3.496   0.375   8.084 -0.0856 -0.7913 -0.3824
  314MOL0     O43202   3.627   0.366   8.109  0.0136 -0.9376 -0.5531
  314MOL0     C43203   3.695   0.242   8.118  0.4176  0.4353 -0.4901
  314MOL0     C43204   3.839   0.254   8.187  0.3393 -0.6216 -0.6877
  314MOL0     C43205   3.930   0.338   8.101  0.1193 -0.7146 -0.4242
  314MOL0     C43206   4.075   0.321   8.144  0.1191  0.4196 -0.2635
  314MOL0     C43207   4.180   0.407   8.077 -0.0087 -0.1952  0.1256
  314MOL0     C43208   4.208   0.341   7.937  0.0442  0.2448  1.2192
  314MOL0     C43209   4.271   0.428   7.828  0.1411  0.8485  0.1436
  314MOL0     C43210   4.414   0.475   7.874 -0.5924  0.9100 -0.2070
  314MOL0     N43211   4.514   0.405   7.789  1.0450  0.3747 -0.8879
  314MOL0     C43212   4.542   0.269   7.794  0.0432  0.8101  0.7034
  314MOL0     C43213   4.633   0.249   7.697 -0.3671 -0.2268 -0.4944
  314MOL0     C43214   4.714   0.127   7.663  0.0390 -0.6352 -0.0918
  314MOL0     C43215   4.826   0.113   7.763 -0.5406 -0.6109 -0.5914
  314MOL0     C43216   4.933   0.227   7.765  0.8957  0.9494  0.1488
  314MOL0     C43217   4.994   0.253   7.621  0.3064  0.5508 -0.3424
  314MOL0     O43218   5.043   0.134   7.548  1.2941 -0.3168  0.0095
  314MOL0     C43219   5.160   0.070   7.578 -0.0264 -0.3260  0.8560
  314MOL0     C43220   5.242   0.108   7.681  0.0473  0.0462 -0.0809
  314MOL0     C43221   5.373   0.055   7.694  0.0198 -0.2375 -0.6301
  314MOL0     C43222   5.446   0.104   7.814 -0.6133  0.0930  0.6442
  314MOL0     C43223   5.416  -0.045   7.605  0.0744  0.4456  0.0605
  314MOL0     C43224   5.543  -0.117   7.609 -0.8626  0.3159  0.0996
  314MOL0     O43225   5.558  -0.220   7.523 -0.2091 -0.4378 -0.4192
  314MOL0     C43226   5.651  -0.318   7.552 -0.6153  0.3385  0.1483
  314MOL0     C43227   5.613  -0.447   7.570  0.6451  0.0198  0.1014
  314MOL0     C43228   5.702  -0.550   7.586  0.1852 -0.3824  0.8249
  314MOL0     C43229   5.841  -0.521   7.584  0.8446 -0.1024 -0.1005
  314MOL0     O43230   5.935  -0.624   7.586  0.1922 -0.0532  0.2734
  314MOL0     C43231   5.890  -0.750   7.643  0.1573  0.6183  0.0062
  314MOL0     C43232   6.018  -0.840   7.638 -0.4502 -0.3313 -0.1494
  314MOL0     C43233   6.123  -0.775   7.721 -0.0189 -0.4920 -0.1593
  314MOL0     C43234   6.236  -0.872   7.730 -0.6440 -0.0299  0.3014
  314MOL0     C43235   6.354  -0.805   7.809  0.3923 -0.6948 -0.1817
  314MOL0     C43236   6.472  -0.909   7.830 -0.1117 -0.5215  0.0246
  314MOL0     C43237   6.599  -0.851   7.897 -0.0621 -0.1141  0.2339
  314MOL0     C43238   6.682  -0.964   7.963 -1.2425 -0.2110 -0.2124
  314MOL0    Cl43239   6.786  -1.034   7.841 -0.1997 -0.4545  0.1455
  314MOL0     C43240   5.882  -0.389   7.575  0.8612 -0.6466  0.9635
  314MOL0     C43241   5.790  -0.286   7.558 -0.7674 -0.3445 -0.0112
  314MOL0     O43242   5.635  -0.078   7.688  0.2164 -0.3884 -0.1460
  314MOL0     C43243   5.327  -0.085   7.499 -1.0435  0.2126 -0.0731
  314MOL0     C43244   5.204  -0.026   7.487  0.0012 -0.6518  0.5145
  314MOL0     N43245   4.662   0.368   7.637 -0.4732  0.0413  0.8037
  314MOL0     N43246   4.598   0.460   7.698  0.3145 -0.6586 -0.3785
  314MOL0     C43247   3.412   0.269   8.027 -0.0583  0.1189 -0.1033
  314MOL0     C43248   3.278   0.288   8.001 -0.0722 -0.5823  0.1255
  314MOL0     C43249   2.861   0.491   7.980  0.7929 -1.0176  0.0457
  314MOL0     C43250   2.771   0.562   8.067 -0.4560 -0.4871  0.3709
  314MOL0     C43251   2.642   0.607   8.024 -0.1883  0.3015 -0.6475
  314MOL0     C43252   2.602   0.591   7.889  0.1411  0.5377 -0.2672
  314MOL0     O43253   2.480   0.628   7.837  0.5419  0.3814 -0.0271
  314MOL0     C43254   2.377   0.701   7.906  0.3622  0.7516 -0.8192
  314MOL0     C43255   2.275   0.601   7.970 -0.9588 -0.3520  0.7357
  314MOL0     C43256   2.173   0.558   7.866  0.2361 -0.5109  0.4638
  314MOL0     C43257   2.070   0.455   7.913 -0.1102  0.6036 -0.6526
  314MOL0     C43258   2.006   0.484   8.038 -0.2565  0.0992  0.0833
  314MOL0     C43259   1.947   0.516   8.140  0.0172  0.2463  0.3967
  314MOL0     C43260   2.696   0.528   7.801  0.6847 -0.3654  0.0602
  314MOL0     C43261   2.819   0.483   7.842  0.1481  0.1333  0.7843
  314MOL0     C43262   2.904   0.411   7.740 -0.0083  0.1649 -0.0939
  314MOL0     H43263   3.252   0.618   8.071  1.9012  0.7030  1.2508
  314MOL0     H43264   3.492   0.590   8.127  0.7843 -1.2803  1.1903
  314MOL0     H43265   3.700   0.195   8.020 -1.0977  1.0725 -0.9073
  314MOL0     H43266   3.633   0.178   8.182  1.0207 -0.0433 -0.3855
  314MOL0     H43267   3.822   0.305   8.282  0.2459 -2.5630  0.3843
  314MOL0     H43268   3.869   0.152   8.210 -2.4851 -0.7810  3.4868
  314MOL0     H43269   3.910   0.309   7.998  1.5839  0.9413 -1.2382
  314MOL0     H43270   3.914   0.446   8.104  0.0585 -0.7380  0.5862
  314MOL0     H43271   4.086   0.324   8.253  0.8481 -0.7425 -0.2870
  314MOL0     H43272   4.097   0.216   8.124  1.4060  0.5251  0.4875
  314MOL0     H43273   4.273   0.392   8.132  1.1981 -0.6310 -1.9046
  314MOL0     H43274   4.150   0.512   8.075  0.1682  0.0020  3.5348
  314MOL0     H43275   4.270   0.252   7.950  1.8253  1.4431  1.3224
  314MOL0     H43276   4.110   0.318   7.894  1.8260  2.0451 -4.8804
  314MOL0     H43277   4.205   0.508   7.793  0.8489  1.1090 -0.6232
  314MOL0     H43278   4.274   0.362   7.742  1.0574 -3.0046  2.8798
  314MOL0     H43279   4.430   0.582   7.861 -0.5993  1.0254  0.6576
  314MOL0     H43280   4.428   0.460   7.982 -0.4675  2.6893  0.0569
  314MOL0     H43281   4.501   0.199   7.866  0.2465 -2.9387 -2.4696
  314MOL0     H43282   4.751   0.123   7.560  0.8785 -1.2988  0.2271
  314MOL0     H43283   4.638   0.048   7.668  2.1275 -2.7561 -0.3993
  314MOL0     H43284   4.785   0.108   7.865 -0.6925  1.5154 -0.4923
  314MOL0     H43285   4.875   0.018   7.743 -0.5917 -1.1375  1.5324
  314MOL0     H43286   4.882   0.313   7.810  0.4541  0.1160  1.2840
  314MOL0     H43287   5.014   0.197   7.832  0.0680 -1.8212  0.0285
  314MOL0     H43288   4.923   0.309   7.559  0.1506 -0.4873 -1.1197
  314MOL0     H43289   5.080   0.319   7.633 -1.6986  2.9861  1.9884
  314MOL0     H43290   5.216   0.175   7.762  1.9265 -1.0116  1.5140
  314MOL0     H43291   5.453   0.021   7.884 -2.9010 -0.0144  0.8228
  314MOL0     H43292   5.383   0.180   7.861 -1.9552 -1.4966  1.4999
  314MOL0     H43293   5.542   0.151   7.787 -0.2999 -0.7656  0.2360
  314MOL0     H43294   5.506  -0.466   7.571  0.1902  2.3060  0.0367
  314MOL0     H43295   5.666  -0.652   7.590 -3.1643  0.5920 -0.6789
  314MOL0     H43296   5.853  -0.741   7.746  3.0972  3.8210  0.9528
  314MOL0     H43297   5.824  -0.806   7.576  2.2842 -1.9484 -0.1032
  314MOL0     H43298   5.996  -0.940   7.676  0.0778  0.0550  1.2671
  314MOL0     H43299   6.048  -0.865   7.536  0.4619 -1.7177  0.4388
  314MOL0     H43300   6.097  -0.748   7.824  4.0064  3.9144  0.0350
  314MOL0     H43301   6.164  -0.686   7.672 -1.1706 -0.5482 -1.2949
  314MOL0     H43302   6.276  -0.891   7.630 -0.8991  1.3308 -0.0852
  314MOL0     H43303   6.209  -0.967   7.778 -0.5028 -1.9074 -3.0107
  314MOL0     H43304   6.395  -0.720   7.754 -3.8629  1.7603 -0.0058
  314MOL0     H43305   6.308  -0.776   7.904 -1.4698 -4.1071  0.1312
  314MOL0     H43306   6.506  -0.960   7.739  1.2920 -0.2701  0.3871
  314MOL0     H43307   6.439  -0.990   7.896  2.8780 -2.3132 -0.5152
  314MOL0     H43308   6.566  -0.783   7.975 -0.3019 -0.8515  0.7878
  314MOL0     H43309   6.661  -0.793   7.828  0.1274 -0.4185  0.1435
  314MOL0     H43310   6.617  -1.042   8.006 -2.7026  1.5670  0.9328
  314MOL0     H43311   6.738  -0.924   8.048 -0.3548 -1.8053  0.0062
  314MOL0     H43312   5.984  -0.353   7.575 -0.2674  2.9677  1.4763
  314MOL0     H43313   5.829  -0.186   7.550  1.3858 -0.6850  3.8248
  314MOL0     H43314   5.351  -0.156   7.421 -3.4489  0.4715 -1.1236
  314MOL0     H43315   5.147  -0.036   7.395 -2.7575  1.0686  1.9145
  314MOL0     H43316   3.449   0.168   8.014 -0.1235  0.1816 -0.7960
  314MOL0     H43317   3.210   0.206   7.980 -1.2461  0.4898 -0.4176
  314MOL0     H43318   2.799   0.576   8.171  0.3156  1.2226 -0.0297
  314MOL0     H43319   2.575   0.630   8.106 -1.1086  1.1599 -1.5950
  314MOL0     H43320   2.418   0.767   7.982  0.2530  0.9785 -0.9577
  314MOL0     H43321   2.323   0.761   7.832  0.7008 -0.6149 -2.2464
  314MOL0     H43322   2.208   0.645   8.045 -1.7719  0.3474 -0.3670
  314MOL0     H43323   2.330   0.519   8.016  1.8593  1.6501  1.1642
  314MOL0     H43324   2.116   0.646   7.837  1.6425  1.2292  2.6221
  314MOL0     H43325   2.227   0.528   7.776 -0.6421  0.8843 -0.5765
  314MOL0     H43326   2.111   0.354   7.903 -0.4745 -0.1396  3.6862
  314MOL0     H43327   1.985   0.454   7.844 -0.9938  1.2503  0.4107
  314MOL0     H43328   1.899   0.562   8.224  1.0837  1.3452  0.4258
  314MOL0     H43329   2.668   0.507   7.698  1.8184 -0.6870 -0.2019
  314MOL0     H43330   2.849   0.405   7.646 -0.6220  0.7802  0.2134
  314MOL0     H43331   2.987   0.479   7.720  1.0191 -0.9357  0.2966
  314MOL0     H43332   2.944   0.312   7.764  3.7686  1.8320  1.2061
  315MOL0     O43333   6.080   3.818   5.956  0.1956 -0.0974 -0.1591
  315MOL0     C43334   6.131   3.879   5.862  0.6528  0.1117 -0.7077
  315MOL0     O43335   6.252   3.942   5.863 -0.2838  0.1669 -0.2739
  315MOL0     C43336   6.322   3.929   5.979 -0.3770  0.6307  0.2891
  315MOL0     C43337   6.423   3.828   5.996  0.0682 -0.0851 -0.7366
  315MOL0     C43338   6.493   3.814   6.114  0.4494 -0.2279  0.7056
  315MOL0     C43339   6.468   3.898   6.225  0.7467  0.7713  0.0205
  315MOL0     O43340   6.539   3.877   6.339 -0.0840  0.1765 -0.1884
  315MOL0     C43341   6.488   3.932   6.463  0.3995 -0.2587  0.5694
  315MOL0     C43342   6.528   3.874   6.602 -0.2700 -0.3020 -0.5048
  315MOL0     C43343   6.681   3.864   6.618  0.5160 -0.6357  0.5513
  315MOL0     C43344   6.710   3.785   6.741 -0.2029  0.5134 -1.0689
  315MOL0     C43345   6.859   3.808   6.786 -0.4790  0.0550  0.0777
  315MOL0     C43346   6.890   3.699   6.888 -0.4071  0.7207 -0.0575
  315MOL0     C43347   7.040   3.700   6.940 -0.2924 -0.4481 -0.0354
  315MOL0     C43348   7.143   3.660   6.833  0.5373  0.2724 -0.2279
  315MOL0     N43349   7.240   3.559   6.884 -0.3964 -0.4061  0.1937
  315MOL0     C43350   7.210   3.423   6.889  0.4901  0.3043  0.1527
  315MOL0     C43351   7.333   3.361   6.907  0.5785  0.3813  0.3028
  315MOL0     C43352   7.378   3.216   6.941 -0.0702  1.0730  0.0709
  315MOL0     C43353   7.523   3.205   6.987  0.4376 -0.2648 -0.4211
  315MOL0     C43354   7.564   3.056   7.011  0.9849 -0.1583 -0.2318
  315MOL0     C43355   7.699   3.032   6.935  0.7504 -0.7888 -0.3626
  315MOL0     O43356   7.731   2.890   6.954  0.0176 -0.9206  0.5607
  315MOL0     C43357   7.852   2.849   6.988  0.9546  0.5446  0.6698
  315MOL0     C43358   7.869   2.740   7.068 -0.3622 -0.2454  0.6389
  315MOL0     C43359   7.997   2.685   7.097  0.5344  0.2002 -0.2556
  315MOL0     C43360   8.008   2.555   7.183 -0.4127  0.1465  0.4746
  315MOL0     C43361   8.113   2.751   7.039 -0.3212 -0.1482 -0.0283
  315MOL0     C43362   8.251   2.713   7.068  0.3749 -0.1136 -0.1729
  315MOL0     O43363   8.356   2.783   7.007  0.0788  0.8671  1.2648
  315MOL0     C43364   8.483   2.741   7.042  0.1038  0.1010  0.0926
  315MOL0     C43365   8.568   2.702   6.936 -0.0850 -0.7497  0.0052
  315MOL0     C43366   8.704   2.671   6.962 -1.1756 -0.2882 -0.0913
  315MOL0     C43367   8.761   2.686   7.096 -0.1486  0.1045 -0.1317
  315MOL0     O43368   8.894   2.654   7.109 -0.1387 -0.5962  0.1877
  315MOL0     C43369   8.958   2.712   7.222  0.3914  0.0832  0.3527
  315MOL0     C43370   9.109   2.702   7.211 -0.4611  0.6366 -0.4080
  315MOL0     C43371   9.164   2.747   7.077 -0.1881  1.0845  0.6521
  315MOL0     C43372   9.119   2.877   7.021  0.3936 -0.3873 -0.0409
  315MOL0     C43373   9.131   2.993   7.122 -0.2729 -0.8841  0.5924
  315MOL0     C43374   9.282   3.023   7.142  0.2905 -0.3725  0.1830
  315MOL0     C43375   9.307   3.134   7.235 -0.5232 -0.6879 -0.5744
  315MOL0     C43376   9.454   3.183   7.233 -0.3033 -1.4593 -0.4529
  315MOL0    Cl43377   9.515   3.270   7.375  0.3310  0.0698  0.4231
  315MOL0     C43378   8.674   2.737   7.198 -0.0929  0.1119 -0.2589
  315MOL0     C43379   8.538   2.768   7.169 -0.1909 -0.1323 -0.0688
  315MOL0     O43380   8.266   2.626   7.153  0.1095  0.1085  0.3045
  315MOL0     C43381   8.090   2.861   6.952 -0.9170  0.1376  0.1746
  315MOL0     C43382   7.964   2.910   6.933 -0.2407 -1.1235  0.2544
  315MOL0     N43383   7.426   3.465   6.903  0.7008 -0.0614  0.2341
  315MOL0     N43384   7.370   3.577   6.896  0.1824  0.3560 -0.0563
  315MOL0     C43385   6.361   3.990   6.212  0.2756  1.2831 -0.2546
  315MOL0     C43386   6.291   4.009   6.090 -0.4576 -0.1468  0.8864
  315MOL0     C43387   6.042   3.901   5.741 -0.0171  0.1573 -0.7204
  315MOL0     C43388   6.112   3.914   5.619 -0.5670 -0.3393  0.2883
  315MOL0     C43389   6.048   3.951   5.504  0.2572  0.4383 -0.1324
  315MOL0     C43390   5.909   3.971   5.500 -0.3593  0.0861  1.2549
  315MOL0     O43391   5.848   4.006   5.382  0.0447  0.2230 -0.3225
  315MOL0     C43392   5.717   4.068   5.391  0.2838 -0.2887  0.6634
  315MOL0     C43393   5.614   3.970   5.351  0.0331 -0.2979 -0.0173
  315MOL0     C43394   5.469   4.016   5.371 -0.5190 -0.4327 -0.7000
  315MOL0     C43395   5.379   3.927   5.290  0.4113 -0.4248  0.0528
  315MOL0     C43396   5.244   3.959   5.329  0.4586 -0.5395 -0.7517
  315MOL0     C43397   5.142   3.961   5.397  0.2668 -0.8933  1.0034
  315MOL0     C43398   5.838   3.934   5.617 -1.0848  0.0565  0.1043
  315MOL0     C43399   5.903   3.900   5.739 -0.2021 -0.7386  0.5930
  315MOL0     C43400   5.806   3.868   5.854  0.3735  0.0826 -0.2844
  315MOL0     H43401   6.458   3.762   5.917  4.7792  2.3241 -0.9507
  315MOL0     H43402   6.558   3.728   6.130 -0.9423 -1.9403 -2.1264
  315MOL0     H43403   6.379   3.926   6.454  0.6109 -2.0894 -1.7414
  315MOL0     H43404   6.516   4.038   6.457  0.4123 -0.2965 -0.0887
  315MOL0     H43405   6.498   3.946   6.679  2.1095  3.0375 -2.3942
  315MOL0     H43406   6.488   3.776   6.626  2.7723 -0.6945  4.3553
  315MOL0     H43407   6.729   3.820   6.530  0.0977 -1.2103  0.6096
  315MOL0     H43408   6.719   3.967   6.622 -1.2556  0.5333 -4.5771
  315MOL0     H43409   6.642   3.805   6.825 -0.1185 -0.9104 -0.6286
  315MOL0     H43410   6.682   3.680   6.726 -3.4858  0.7194  2.1994
  315MOL0     H43411   6.862   3.909   6.826  0.9204  0.0621  0.0095
  315MOL0     H43412   6.929   3.815   6.702  0.0553  1.6046  0.6122
  315MOL0     H43413   6.818   3.706   6.970 -0.9813 -0.7775 -0.3859
  315MOL0     H43414   6.875   3.603   6.837  1.1823  1.5806 -2.2890
  315MOL0     H43415   7.050   3.622   7.016 -3.7214 -0.8370  0.1633
  315MOL0     H43416   7.053   3.796   6.990 -3.0056 -0.3608  0.6633
  315MOL0     H43417   7.086   3.621   6.748 -0.0445  0.1111  0.2265
  315MOL0     H43418   7.200   3.747   6.800 -0.8920  0.7587 -1.5411
  315MOL0     H43419   7.107   3.390   6.894  1.2069 -2.3137 -0.6044
  315MOL0     H43420   7.346   3.146   6.863 -1.2811  3.0573 -1.2955
  315MOL0     H43421   7.323   3.190   7.032  1.9011  0.4354  1.1392
  315MOL0     H43422   7.584   3.249   6.907 -0.9243  0.8871 -0.8732
  315MOL0     H43423   7.544   3.265   7.076 -0.5932 -0.1875 -0.2101
  315MOL0     H43424   7.584   3.046   7.119  2.4085  1.0175 -0.3587
  315MOL0     H43425   7.492   2.982   6.978  0.2012  1.5274 -2.5633
  315MOL0     H43426   7.677   3.047   6.829  0.6518 -3.2876 -0.7598
  315MOL0     H43427   7.782   3.101   6.951 -1.0389  1.2217  0.6943
  315MOL0     H43428   7.789   2.687   7.118  0.3657 -1.3734  0.6546
  315MOL0     H43429   8.065   2.496   7.110 -1.9599 -1.0284  0.1452
  315MOL0     H43430   7.916   2.504   7.213  1.1388 -3.0745  0.2773
  315MOL0     H43431   8.070   2.567   7.272  3.4115  1.9969 -2.1408
  315MOL0     H43432   8.545   2.680   6.833 -0.2522  0.6931 -0.2897
  315MOL0     H43433   8.772   2.630   6.888  2.8199 -1.1894  3.6350
  315MOL0     H43434   8.946   2.819   7.241  2.5346 -0.0335  3.1484
  315MOL0     H43435   8.918   2.666   7.313  0.6136  1.6555  1.2723
  315MOL0     H43436   9.153   2.760   7.293  1.3238  2.5115 -2.5547
  315MOL0     H43437   9.135   2.597   7.226 -3.1857  0.0550  1.0471
  315MOL0     H43438   9.130   2.684   6.994  1.3966 -0.5380  1.1602
  315MOL0     H43439   9.273   2.741   7.086 -0.1126 -2.5809 -0.8101
  315MOL0     H43440   9.013   2.870   6.992  0.8149  1.3294 -2.3578
  315MOL0     H43441   9.169   2.898   6.926 -0.2453  2.3623  0.1432
  315MOL0     H43442   9.076   3.074   7.075  0.8175 -1.0754 -1.0978
  315MOL0     H43443   9.082   2.981   7.219 -0.1567  1.0398  0.9151
  315MOL0     H43444   9.325   3.052   7.045 -0.3839 -0.5362 -0.1762
  315MOL0     H43445   9.336   2.936   7.181 -2.3262 -0.9860  2.7998
  315MOL0     H43446   9.298   3.094   7.336 -0.5480 -0.6423 -0.5589
  315MOL0     H43447   9.237   3.218   7.228  1.7488  1.3527 -0.3485
  315MOL0     H43448   9.459   3.257   7.153 -1.7810 -0.4198  0.3731
  315MOL0     H43449   9.518   3.098   7.209  1.7905  0.5660 -2.5135
  315MOL0     H43450   8.696   2.756   7.302 -0.1992 -2.1310  0.2227
  315MOL0     H43451   8.474   2.810   7.247  2.0946 -0.0706  1.8909
  315MOL0     H43452   8.177   2.916   6.916 -0.3942  0.5283  1.9404
  315MOL0     H43453   7.947   3.000   6.876 -1.8610 -0.8554  1.0829
  315MOL0     H43454   6.325   4.059   6.288 -0.1105  2.2037 -1.2431
  315MOL0     H43455   6.204   4.070   6.071  1.7178  2.5516 -1.2467
  315MOL0     H43456   6.217   3.889   5.623  0.1691  2.2718 -0.6382
  315MOL0     H43457   6.104   3.972   5.413  1.6208  2.5925  1.1223
  315MOL0     H43458   5.708   4.108   5.493  3.5140 -0.9396  1.2966
  315MOL0     H43459   5.712   4.147   5.316  1.9905 -1.2655 -0.5427
  315MOL0     H43460   5.625   3.880   5.411 -1.3549 -0.1661  0.4747
  315MOL0     H43461   5.631   3.945   5.246  1.6365  1.3472 -0.2045
  315MOL0     H43462   5.440   4.006   5.476 -1.8908 -1.1533 -1.1307
  315MOL0     H43463   5.465   4.116   5.327 -2.6760 -1.3181 -2.7294
  315MOL0     H43464   5.392   3.819   5.302  1.6325 -0.4318 -1.1428
  315MOL0     H43465   5.395   3.948   5.184  0.4864 -0.6944  0.0103
  315MOL0     H43466   5.057   3.944   5.460 -1.0978  0.1231 -0.5138
  315MOL0     H43467   5.730   3.934   5.628 -1.0853 -0.7650  0.1717
  315MOL0     H43468   5.815   3.760   5.865  0.4077  0.0792 -0.3484
  315MOL0     H43469   5.825   3.925   5.945 -0.6105  0.4117 -0.2697
  315MOL0     H43470   5.702   3.887   5.825  0.5314  0.4441 -0.6267
  316MOL0     O43471   1.889   9.530   1.145  0.0857 -0.1413 -0.3214
  316MOL0     C43472   1.828   9.633   1.179 -0.6789 -0.0337  0.3472
  316MOL0     O43473   1.878   9.739   1.252 -0.8683 -0.2372 -0.1259
  316MOL0     C43474   2.009   9.722   1.299 -0.2342  0.2701  0.6615
  316MOL0     C43475   2.112   9.820   1.263 -0.3996 -0.1331  0.2896
  316MOL0     C43476   2.244   9.812   1.303  0.1938  0.3165  0.5573
  316MOL0     C43477   2.284   9.706   1.375  0.4426  0.8691 -0.5171
  316MOL0     O43478   2.425   9.708   1.399  0.5498  0.9953 -0.1099
  316MOL0     C43479   2.497   9.581   1.393  1.3067  0.0496  0.0571
  316MOL0     C43480   2.647   9.587   1.404 -0.1689  0.6448  0.3379
  316MOL0     C43481   2.681   9.649   1.542 -0.6330  0.1310 -0.3692
  316MOL0     C43482   2.835   9.698   1.544 -0.4342  0.9614  0.5343
  316MOL0     C43483   2.871   9.773   1.668 -0.2019 -0.2115 -0.3304
  316MOL0     C43484   3.021   9.767   1.697 -0.1642  0.0266  0.0381
  316MOL0     C43485   3.069   9.867   1.808  0.0701  0.9584 -0.4974
  316MOL0     C43486   3.229   9.865   1.832  0.4873  0.1902 -0.3190
  316MOL0     N43487   3.297   9.740   1.871  0.3536  0.6282  0.2557
  316MOL0     C43488   3.365   9.660   1.777 -0.6256 -0.4251 -0.4156
  316MOL0     C43489   3.378   9.539   1.843 -0.0456  1.0676  0.0095
  316MOL0     C43490   3.443   9.409   1.778  0.3094  0.6331 -0.7397
  316MOL0     C43491   3.595   9.414   1.767 -0.7710 -0.2661  0.5179
  316MOL0     C43492   3.684   9.462   1.887  0.2567 -0.7191 -1.3191
  316MOL0     C43493   3.833   9.474   1.843  0.3302 -0.4460 -0.1444
  316MOL0     O43494   3.900   9.584   1.906 -0.3078  1.2643  0.3135
  316MOL0     C43495   4.030   9.620   1.875  0.6850 -0.6621 -0.8454
  316MOL0     C43496   4.077   9.735   1.930  0.1014  0.5785 -0.5750
  316MOL0     C43497   4.204   9.786   1.899 -0.4015 -0.3528  0.2897
  316MOL0     C43498   4.255   9.922   1.946 -0.1661 -0.7344  0.4900
  316MOL0     C43499   4.286   9.713   1.806  0.2860 -0.3315  0.0984
  316MOL0     C43500   4.423   9.756   1.757  0.2418 -1.2618 -0.1832
  316MOL0     O43501   4.452   9.724   1.626 -0.3377  0.1714 -0.1943
  316MOL0     C43502   4.574   9.741   1.582 -0.3098  0.8398 -0.1044
  316MOL0     C43503   4.667   9.641   1.582  0.7328  0.1777 -0.4948
  316MOL0     C43504   4.801   9.668   1.550 -0.6843  0.6943 -0.3329
  316MOL0     C43505   4.854   9.794   1.527 -0.4589 -0.2460 -0.2391
  316MOL0     O43506   4.988   9.809   1.498  0.1626 -0.3930 -0.4210
  316MOL0     C43507   5.021   9.919   1.416 -0.1613  0.0315  0.1415
  316MOL0     C43508   5.128   9.870   1.306  0.6107 -0.0625  0.1992
  316MOL0     C43509   5.264   9.844   1.367  0.1713 -0.4203 -0.4779
  316MOL0     C43510   5.351   9.769   1.272 -0.3439 -0.3469 -0.0101
  316MOL0     C43511   5.486   9.721   1.336 -0.0543 -0.2648 -0.2894
  316MOL0     C43512   5.550   9.627   1.229  0.1072 -0.6381  0.4277
  316MOL0     C43513   5.483   9.493   1.234  0.4692  0.5428  0.7694
  316MOL0     C43514   5.593   9.382   1.218 -0.0600 -0.5030 -0.1246
  316MOL0    Cl43515   5.693   9.389   1.365  0.1320 -0.2482  0.1922
  316MOL0     C43516   4.754   9.900   1.529  0.1116 -0.2982  0.2891
  316MOL0     C43517   4.618   9.867   1.558 -0.6868 -0.3693 -0.7548
  316MOL0     O43518   4.489   9.821   1.832 -0.1386  0.5658 -0.1883
  316MOL0     C43519   4.228   9.601   1.752  0.0758 -0.0896  0.1093
  316MOL0     C43520   4.105   9.559   1.779  0.3508 -0.3108  0.0589
  316MOL0     N43521   3.332   9.551   1.974  0.0594 -1.1411  0.1754
  316MOL0     N43522   3.279   9.664   1.988  1.0619 -0.0409 -0.1092
  316MOL0     C43523   2.189   9.606   1.410  0.2511  0.6078  0.5281
  316MOL0     C43524   2.057   9.614   1.369 -0.5609 -0.3582 -0.4812
  316MOL0     C43525   1.697   9.654   1.119  0.4416  0.7927 -0.3878
  316MOL0     C43526   1.661   9.780   1.065  0.1844 -0.2806  0.8638
  316MOL0     C43527   1.539   9.796   1.003 -0.0252  0.1324  0.3706
  316MOL0     C43528   1.439   9.700   1.009  0.3785  0.6421 -0.2367
  316MOL0     O43529   1.316   9.707   0.946 -0.9063 -0.1362 -0.3588
  316MOL0     C43530   1.208   9.709   1.044  0.3868 -0.2970  0.1284
  316MOL0     C43531   1.086   9.770   0.971  0.8460 -0.3040  0.7217
  316MOL0     C43532   1.117   9.900   0.881  0.5553 -0.0154  0.9355
  316MOL0     C43533   1.170  10.020   0.961 -0.4341 -0.5410 -0.2405
  316MOL0     C43534   1.188  10.155   0.896 -0.5557 -0.1535  0.6012
  316MOL0     C43535   1.211  10.256   0.835 -0.7360  0.4185 -0.1122
  316MOL0     C43536   1.466   9.581   1.077 -0.3961 -0.6261 -0.4488
  316MOL0     C43537   1.593   9.565   1.137  0.9656 -0.4005 -0.5481
  316MOL0     C43538   1.607   9.452   1.229 -0.0239  0.6000 -0.8378
  316MOL0     H43539   2.068   9.901   1.205 -0.3755 -1.8032 -2.2156
  316MOL0     H43540   2.316   9.885   1.266  0.0116 -0.5201 -1.5964
  316MOL0     H43541   2.474   9.523   1.303  0.8734 -0.1165  0.2763
  316MOL0     H43542   2.453   9.526   1.476 -4.4462  0.9387 -1.9220
  316MOL0     H43543   2.691   9.487   1.401 -1.9443 -0.1543 -1.7213
  316MOL0     H43544   2.686   9.643   1.318 -2.6995 -1.0285 -2.0757
  316MOL0     H43545   2.615   9.731   1.573  1.8187  1.9221  0.3850
  316MOL0     H43546   2.670   9.575   1.621 -1.4738 -0.2875 -0.8678
  316MOL0     H43547   2.905   9.616   1.525  0.1818  1.4286  0.7576
  316MOL0     H43548   2.855   9.750   1.450 -1.3963 -1.2586 -0.9919
  316MOL0     H43549   2.817   9.735   1.756  0.3712 -0.5317 -0.1081
  316MOL0     H43550   2.840   9.878   1.671 -2.0357 -0.7058  2.2356
  316MOL0     H43551   3.047   9.667   1.734  0.4175  1.5548  4.2275
  316MOL0     H43552   3.080   9.779   1.606  0.7082 -1.1268  0.4347
  316MOL0     H43553   3.021   9.847   1.904  2.3512  0.0896  0.5348
  316MOL0     H43554   3.031   9.967   1.786  1.7190  1.7956  0.3114
  316MOL0     H43555   3.287   9.893   1.744  2.9809  0.4295  1.3058
  316MOL0     H43556   3.239   9.940   1.912 -1.1509 -0.0087  0.1219
  316MOL0     H43557   3.404   9.687   1.679  3.4640  1.0516  1.4130
  316MOL0     H43558   3.391   9.385   1.686  0.4118 -0.4084 -0.5340
  316MOL0     H43559   3.426   9.327   1.849  4.6275  0.4062  0.2832
  316MOL0     H43560   3.625   9.312   1.743  2.2419  0.7429 -0.6111
  316MOL0     H43561   3.602   9.464   1.669 -1.1868 -1.2913 -0.0486
  316MOL0     H43562   3.659   9.566   1.911  1.6282 -0.4302 -1.0463
  316MOL0     H43563   3.672   9.408   1.982  3.0363  1.5759  0.5150
  316MOL0     H43564   3.890   9.381   1.853  2.1801  0.7045  0.6233
  316MOL0     H43565   3.823   9.495   1.736 -0.3588 -1.8377 -0.3715
  316MOL0     H43566   4.007   9.797   1.984  0.3570  1.3446 -1.1026
  316MOL0     H43567   4.305   9.979   1.867 -1.8598 -1.5437 -1.2734
  316MOL0     H43568   4.322   9.908   2.031 -1.3657  0.0791  1.6041
  316MOL0     H43569   4.171   9.980   1.984 -0.0280  1.4530 -2.2555
  316MOL0     H43570   4.639   9.537   1.599 -0.2569  0.2105 -1.7553
  316MOL0     H43571   4.868   9.583   1.549 -1.0070  0.4330 -1.3194
  316MOL0     H43572   4.941   9.969   1.361 -0.1067  1.6889  1.4741
  316MOL0     H43573   5.083   9.986   1.476  3.2323 -1.1474 -1.7943
  316MOL0     H43574   5.080   9.786   1.256 -0.1199  0.1166  0.5743
  316MOL0     H43575   5.141   9.951   1.233  1.6955 -1.0553 -0.7466
  316MOL0     H43576   5.248   9.797   1.464 -0.3218 -0.5756 -0.6279
  316MOL0     H43577   5.310   9.941   1.389  0.2946  0.0791 -2.7150
  316MOL0     H43578   5.373   9.829   1.183 -0.3013  0.2587  0.4002
  316MOL0     H43579   5.293   9.681   1.245 -1.2956  0.6441 -1.3303
  316MOL0     H43580   5.547   9.812   1.335 -2.1560  1.2253 -1.5161
  316MOL0     H43581   5.461   9.675   1.432 -3.2503 -3.4708 -2.3893
  316MOL0     H43582   5.659   9.632   1.245  0.3133  0.3143 -1.0736
  316MOL0     H43583   5.533   9.673   1.131 -0.2631 -2.8230 -0.5931
  316MOL0     H43584   5.421   9.479   1.145  0.3286 -0.0487  0.9575
  316MOL0     H43585   5.413   9.476   1.317 -0.0576 -1.4164 -0.0146
  316MOL0     H43586   5.656   9.412   1.134  0.6021  3.2450  1.5196
  316MOL0     H43587   5.542   9.288   1.197 -1.4330  0.0088  0.7551
  316MOL0     H43588   4.780  10.004   1.513 -0.7490  0.2433  2.0639
  316MOL0     H43589   4.544   9.947   1.557 -1.8716 -1.2679  2.2253
  316MOL0     H43590   4.291   9.537   1.690 -0.5680 -0.0820 -0.5643
  316MOL0     H43591   4.059   9.480   1.721 -3.6776  1.7900  0.0446
  316MOL0     H43592   2.212   9.510   1.456 -1.7245  0.0466  0.4297
  316MOL0     H43593   1.982   9.548   1.411 -0.0155 -0.2496  0.7137
  316MOL0     H43594   1.731   9.863   1.067 -0.6249  0.4171  0.8360
  316MOL0     H43595   1.511   9.885   0.946 -5.2321 -2.0000 -0.9914
  316MOL0     H43596   1.179   9.609   1.077  0.5133 -0.9597 -1.6596
  316MOL0     H43597   1.233   9.771   1.131  0.6758 -1.5491  0.9620
  316MOL0     H43598   1.003   9.793   1.038 -0.9013 -3.6353 -0.0514
  316MOL0     H43599   1.041   9.687   0.916  0.6274 -1.6820  2.8278
  316MOL0     H43600   1.197   9.876   0.811  0.8998  1.2115  0.8756
  316MOL0     H43601   1.031   9.924   0.818  0.6402  0.1233  0.8711
  316MOL0     H43602   1.263   9.987   1.007 -0.5600 -1.5248 -0.6573
  316MOL0     H43603   1.103  10.028   1.047  0.7017  1.1024  0.5268
  316MOL0     H43604   1.232  10.355   0.800  2.0167 -0.5399 -1.4527
  316MOL0     H43605   1.385   9.510   1.067 -2.6480  2.1008 -4.5352
  316MOL0     H43606   1.512   9.409   1.263 -0.2584 -0.7213 -3.0064
  316MOL0     H43607   1.653   9.369   1.175 -1.1090 -0.2649 -0.4834
  316MOL0     H43608   1.666   9.474   1.319 -2.3406 -1.9473  1.5315
  317MOL0     O43609   8.721   6.124   4.775  0.4098 -0.4779 -0.5958
  317MOL0     C43610   8.621   6.081   4.838  0.3997 -0.1871 -0.5369
  317MOL0     O43611   8.626   5.965   4.917  0.4033 -0.5497 -1.0898
  317MOL0     C43612   8.747   5.914   4.946  0.0230  0.5134  0.0926
  317MOL0     C43613   8.770   5.776   4.913 -0.2727  0.5891 -0.2857
  317MOL0     C43614   8.904   5.724   4.943 -0.1379 -0.3461  1.0623
  317MOL0     C43615   9.000   5.799   5.014 -0.6355 -0.2334 -0.4620
  317MOL0     O43616   9.121   5.751   5.061  0.6126  0.6933 -0.2380
  317MOL0     C43617   9.237   5.808   5.000  0.0678 -0.0259  0.0247
  317MOL0     C43618   9.340   5.693   4.961  0.0107 -0.4228 -0.8201
  317MOL0     C43619   9.456   5.701   5.059  0.2767 -0.0257  0.3919
  317MOL0     C43620   9.552   5.809   5.009  0.6829 -1.1427 -0.3277
  317MOL0     C43621   9.686   5.808   5.078  0.7772  0.3302  0.4636
  317MOL0     C43622   9.794   5.873   5.008  0.2086 -0.7943 -0.9735
  317MOL0     C43623   9.920   5.891   5.101 -0.1190  0.2538  0.1348
  317MOL0     C43624  10.041   5.935   5.024 -0.3485 -0.4248  0.2981
  317MOL0     N43625  10.151   5.985   5.110 -0.1357  0.1070 -0.3831
  317MOL0     C43626  10.138   6.057   5.222 -0.2583  0.2833 -0.6470
  317MOL0     C43627  10.269   6.072   5.265  1.0564 -0.9953 -0.3456
  317MOL0     C43628  10.308   6.146   5.386 -0.4718  0.2332 -0.3824
  317MOL0     C43629  10.458   6.127   5.427 -0.0351  0.0246  1.3551
  317MOL0     C43630  10.495   6.197   5.556  0.7955  0.3372  0.2333
  317MOL0     C43631  10.643   6.171   5.572  0.4769  0.1796 -0.5428
  317MOL0     O43632  10.722   6.261   5.507  1.3355  0.5454  0.6133
  317MOL0     C43633  10.851   6.271   5.539  1.6470  0.3983  0.8069
  317MOL0     C43634  10.909   6.383   5.489 -0.0018 -0.0179 -0.5322
  317MOL0     C43635  11.048   6.413   5.509  0.3635  0.5781  0.4120
  317MOL0     C43636  11.100   6.544   5.461  0.2014  0.2371 -0.0942
  317MOL0     C43637  11.125   6.321   5.583  0.1164 -0.4545 -0.3227
  317MOL0     C43638  11.271   6.331   5.602  0.0078  0.6604 -1.5660
  317MOL0     O43639  11.328   6.235   5.684  0.3386  0.1527 -0.4178
  317MOL0     C43640  11.447   6.263   5.734 -0.1420 -0.6353  0.7737
  317MOL0     C43641  11.449   6.313   5.866 -0.4197  0.5213  1.0615
  317MOL0     C43642  11.581   6.345   5.919  1.0604 -1.2632 -0.4878
  317MOL0     C43643  11.700   6.330   5.847  0.4354 -0.0383  0.3946
  317MOL0     O43644  11.821   6.335   5.917  0.5315 -0.5115 -0.2937
  317MOL0     C43645  11.949   6.343   5.850  1.4714 -0.7207  0.7122
  317MOL0     C43646  12.012   6.200   5.849 -0.3934  0.3365  0.2263
  317MOL0     C43647  12.167   6.210   5.841  0.3080 -0.3949  0.0537
  317MOL0     C43648  12.228   6.069   5.843  0.4885 -0.3569  0.4679
  317MOL0     C43649  12.366   6.039   5.784  0.5084  0.4118 -0.1476
  317MOL0     C43650  12.487   6.091   5.865  0.4078  0.0961 -0.5722
  317MOL0     C43651  12.613   6.035   5.800  0.0046 -0.0818 -0.6083
  317MOL0     C43652  12.732   6.133   5.797 -0.0525 -0.6258  0.0570
  317MOL0    Cl43653  12.675   6.265   5.680 -0.0550 -0.3547  0.4770
  317MOL0     C43654  11.691   6.289   5.709 -0.2641  0.1848  0.4051
  317MOL0     C43655  11.563   6.262   5.658  0.3018  0.4531 -0.5041
  317MOL0     O43656  11.332   6.420   5.544  0.0953 -0.0463 -0.5474
  317MOL0     C43657  11.057   6.209   5.637 -0.7163 -0.7854  0.2683
  317MOL0     C43658  10.926   6.184   5.616  0.5018 -0.0229 -0.2483
  317MOL0     N43659  10.351   6.027   5.166  0.4651  0.5609  0.0890
  317MOL0     N43660  10.283   5.961   5.086  0.0492  0.0755  0.9558
  317MOL0     C43661   8.970   5.932   5.038 -0.2831  0.2094  0.4410
  317MOL0     C43662   8.854   5.991   4.997  0.1210  0.3580 -0.2518
  317MOL0     C43663   8.480   6.138   4.820  0.2043  0.4711  0.9490
  317MOL0     C43664   8.368   6.070   4.876 -0.5727  0.4870  0.2526
  317MOL0     C43665   8.233   6.115   4.859  0.4425  1.2403 -0.2012
  317MOL0     C43666   8.206   6.232   4.785 -0.0614  0.0101 -0.1328
  317MOL0     O43667   8.089   6.296   4.767 -0.0221  0.7881  0.1824
  317MOL0     C43668   7.978   6.268   4.859  0.6005 -0.0339  0.3580
  317MOL0     C43669   7.898   6.393   4.862  0.1263 -0.5164 -0.3711
  317MOL0     C43670   7.796   6.395   4.750 -0.0462 -0.2159 -0.5101
  317MOL0     C43671   7.853   6.406   4.608 -0.0322  0.5923  0.0048
  317MOL0     C43672   7.946   6.522   4.588 -0.3440  0.5808 -0.0600
  317MOL0     C43673   8.020   6.615   4.567  0.6242 -0.8208  0.0032
  317MOL0     C43674   8.317   6.303   4.742  0.2009  0.6369  0.2938
  317MOL0     C43675   8.446   6.254   4.750 -0.1195 -0.1662  0.0975
  317MOL0     C43676   8.552   6.355   4.691 -0.6964  0.0605 -0.0904
  317MOL0     H43677   8.699   5.706   4.870  0.5777 -0.6264  0.2478
  317MOL0     H43678   8.922   5.620   4.917  0.9437  0.1628 -0.3648
  317MOL0     H43679   9.297   5.871   5.066  1.2344 -2.0902  1.0373
  317MOL0     H43680   9.209   5.866   4.912 -1.5829  0.5975  0.9142
  317MOL0     H43681   9.285   5.599   4.970 -1.1974  0.2566 -0.8711
  317MOL0     H43682   9.369   5.707   4.857 -0.7630  0.9703 -0.8742
  317MOL0     H43683   9.415   5.732   5.156 -0.0366  1.0688 -0.0704
  317MOL0     H43684   9.510   5.608   5.077  3.7272  1.8131  0.3927
  317MOL0     H43685   9.570   5.769   4.909  0.3550 -0.2108 -0.7679
  317MOL0     H43686   9.493   5.901   4.998  1.3518 -0.4524  1.4955
  317MOL0     H43687   9.719   5.705   5.082  3.5663  1.0377 -1.5847
  317MOL0     H43688   9.670   5.853   5.177 -1.9055  2.3726 -0.7469
  317MOL0     H43689   9.815   5.828   4.910  1.9510  0.7598 -1.3764
  317MOL0     H43690   9.762   5.977   4.998 -1.7764 -1.1434  1.0905
  317MOL0     H43691   9.946   5.800   5.156  1.6930  1.6234  1.6688
  317MOL0     H43692   9.898   5.970   5.174  0.1307  1.4798 -1.0891
  317MOL0     H43693  10.072   5.859   4.952 -0.6319  0.7583 -1.1394
  317MOL0     H43694   9.996   6.025   4.980 -2.2320 -0.5776  1.7771
  317MOL0     H43695  10.045   6.096   5.262 -0.0112  1.1064 -0.8493
  317MOL0     H43696  10.253   6.121   5.477 -0.2944 -0.2976 -0.4185
  317MOL0     H43697  10.285   6.251   5.368  0.3488  0.1174 -2.3821
  317MOL0     H43698  10.469   6.018   5.428 -1.2685 -0.5752 -5.3622
  317MOL0     H43699  10.517   6.167   5.344  0.3193 -3.9149 -0.5059
  317MOL0     H43700  10.478   6.304   5.552  2.5840  0.6443 -0.1832
  317MOL0     H43701  10.444   6.150   5.641  0.4066  1.3374  0.5617
  317MOL0     H43702  10.657   6.192   5.678 -2.7320 -0.5382  0.1243
  317MOL0     H43703  10.670   6.068   5.547  0.1281  0.2826 -1.3917
  317MOL0     H43704  10.855   6.459   5.435 -0.3122  1.9491  2.3016
  317MOL0     H43705  11.028   6.590   5.393  0.3188  1.6056  0.6599
  317MOL0     H43706  11.189   6.532   5.399 -0.5445  0.2148 -1.1958
  317MOL0     H43707  11.122   6.610   5.546 -0.6425  1.2953 -0.6607
  317MOL0     H43708  11.355   6.324   5.918 -0.2417  0.6217  1.3665
  317MOL0     H43709  11.596   6.358   6.026  0.1358 -2.9392 -0.1196
  317MOL0     H43710  11.930   6.394   5.755 -2.0066 -3.0956 -0.0867
  317MOL0     H43711  12.007   6.412   5.912  0.1709  0.1790  0.9671
  317MOL0     H43712  11.990   6.156   5.947  0.3590  0.3471  0.4115
  317MOL0     H43713  11.971   6.130   5.777 -0.9955  0.6736  0.2366
  317MOL0     H43714  12.200   6.270   5.926  1.6079 -3.1149  1.6282
  317MOL0     H43715  12.195   6.260   5.747  2.3386 -1.8229 -0.1854
  317MOL0     H43716  12.166   6.007   5.779  1.8017 -3.2536  1.8382
  317MOL0     H43717  12.232   6.026   5.944  0.1086  0.2895  0.7670
  317MOL0     H43718  12.376   5.931   5.765  0.6685  0.2935  0.5776
  317MOL0     H43719  12.371   6.084   5.685 -1.8519 -3.5102 -2.2963
  317MOL0     H43720  12.484   6.068   5.971  0.0994 -0.5051 -0.7093
  317MOL0     H43721  12.473   6.200   5.859  1.1985  0.2479  0.1430
  317MOL0     H43722  12.598   6.005   5.696 -0.2222 -1.8243 -0.0994
  317MOL0     H43723  12.648   5.942   5.846 -1.3770 -1.7469 -2.7619
  317MOL0     H43724  12.821   6.086   5.756 -0.9364 -1.5775 -0.8329
  317MOL0     H43725  12.767   6.171   5.894  0.2976 -0.4556 -0.1343
  317MOL0     H43726  11.778   6.286   5.645 -1.0788  2.9625 -1.0173
  317MOL0     H43727  11.550   6.233   5.554 -1.0586 -1.1187  0.0494
  317MOL0     H43728  11.102   6.134   5.701 -0.9656 -1.0780  0.1066
  317MOL0     H43729  10.880   6.102   5.671 -0.1305  2.1175  2.6072
  317MOL0     H43730   9.049   5.989   5.085  0.5239 -0.4591 -0.0788
  317MOL0     H43731   8.837   6.094   5.026  0.2778  0.0403  1.0258
  317MOL0     H43732   8.388   5.982   4.936 -1.1035  0.1904 -0.0059
  317MOL0     H43733   8.154   6.069   4.918 -0.2409  1.2330 -1.0961
  317MOL0     H43734   7.919   6.184   4.823  1.1931 -0.0518 -0.6137
  317MOL0     H43735   8.011   6.233   4.957  0.7000 -0.7636  0.0644
  317MOL0     H43736   7.966   6.479   4.858 -0.3409 -0.1970 -2.2355
  317MOL0     H43737   7.846   6.400   4.958  2.0995 -1.9557  0.8620
  317MOL0     H43738   7.720   6.317   4.764  0.1570 -0.1280  1.2203
  317MOL0     H43739   7.741   6.485   4.779  2.3976  0.5546  2.0802
  317MOL0     H43740   7.779   6.424   4.530 -0.0570  0.6117  0.0331
  317MOL0     H43741   7.908   6.313   4.595  0.4812  0.6169  1.6586
  317MOL0     H43742   8.086   6.694   4.536 -0.2452  0.0202  0.2266
  317MOL0     H43743   8.287   6.397   4.699  1.4099  1.4141  1.0973
  317MOL0     H43744   8.573   6.310   4.593 -1.4101 -2.5930  0.8644
  317MOL0     H43745   8.520   6.456   4.663 -0.5392 -0.2293 -1.4037
  317MOL0     H43746   8.639   6.363   4.756 -1.5672 -0.9626  1.2441
  318MOL0     O43747   8.283   5.234   5.011  0.9480  0.0415 -0.3673
  318MOL0     C43748   8.202   5.219   5.102  0.0775  0.5012 -0.8444
  318MOL0     O43749   8.221   5.273   5.226  0.6151  0.1909  0.5588
  318MOL0     C43750   8.338   5.347   5.262  0.7945  0.7882  0.7344
  318MOL0     C43751   8.388   5.320   5.385  0.1332 -0.2578 -0.3566
  318MOL0     C43752   8.496   5.399   5.430 -0.3726  0.5027  0.9371
  318MOL0     C43753   8.555   5.495   5.343 -0.7153 -0.4199 -0.2357
  318MOL0     O43754   8.651   5.579   5.395  0.1777 -0.7143 -1.0841
  318MOL0     C43755   8.773   5.571   5.324  0.4568  0.3418  0.3230
  318MOL0     C43756   8.856   5.679   5.387 -0.2754 -0.2529  0.4139
  318MOL0     C43757   9.008   5.652   5.379  0.4670  0.5714  0.9106
  318MOL0     C43758   9.077   5.784   5.398 -0.0588 -0.6080 -0.8976
  318MOL0     C43759   9.235   5.775   5.403  0.9519  0.5412 -0.5435
  318MOL0     C43760   9.300   5.909   5.439 -0.0394  0.2590 -0.3683
  318MOL0     C43761   9.452   5.894   5.458 -0.1981 -0.3249 -0.2070
  318MOL0     C43762   9.522   6.033   5.505 -0.0095  0.4686  0.7221
  318MOL0     N43763   9.665   6.028   5.525 -0.2996 -0.5419 -0.3172
  318MOL0     C43764   9.734   6.084   5.624  0.1113 -0.5042  0.6037
  318MOL0     C43765   9.863   6.056   5.604  0.4969 -0.0345 -0.5603
  318MOL0     C43766   9.976   6.090   5.698 -0.2156 -0.9297 -0.5193
  318MOL0     C43767   9.973   6.011   5.832 -0.1444  0.9420  0.3981
  318MOL0     C43768  10.030   5.870   5.813  0.3342 -0.4902 -0.7599
  318MOL0     C43769  10.177   5.867   5.844 -0.1970  0.0699 -0.2779
  318MOL0     O43770  10.249   5.963   5.773 -0.7722  0.3893 -0.2065
  318MOL0     C43771  10.380   5.930   5.795 -0.7634 -0.4265 -0.1989
  318MOL0     C43772  10.440   5.838   5.716  0.1832  0.0638  0.5198
  318MOL0     C43773  10.581   5.815   5.726 -0.7060  0.0978 -0.3926
  318MOL0     C43774  10.641   5.710   5.639  0.3934  0.3598 -0.8956
  318MOL0     C43775  10.657   5.892   5.814 -0.2533 -0.0937  0.5372
  318MOL0     C43776  10.807   5.891   5.837 -0.3370  0.1932  0.5017
  318MOL0     O43777  10.861   5.950   5.947  0.4517 -0.5623 -0.3814
  318MOL0     C43778  10.994   5.942   5.962 -0.8458  0.2628  1.1126
  318MOL0     C43779  11.044   6.058   6.012  0.0926 -0.3163 -0.2350
  318MOL0     C43780  11.177   6.080   6.034  0.0842 -0.1826  0.1650
  318MOL0     C43781  11.268   5.981   6.012 -0.3897 -0.3496 -0.2746
  318MOL0     O43782  11.397   6.013   6.020  0.5426  0.0960 -0.0664
  318MOL0     C43783  11.492   5.904   6.035  0.0395  0.8455  0.2076
  318MOL0     C43784  11.647   5.947   6.037  0.3897  0.8311  0.0506
  318MOL0     C43785  11.725   5.852   6.123 -1.0965  0.3970  0.0699
  318MOL0     C43786  11.879   5.899   6.119 -0.6963 -0.3535 -0.0287
  318MOL0     C43787  11.972   5.816   6.219 -0.2711 -0.2377 -0.0366
  318MOL0     C43788  12.120   5.847   6.197 -0.3855 -0.7478  0.2406
  318MOL0     C43789  12.211   5.772   6.289 -0.0331 -1.1781 -0.2913
  318MOL0     C43790  12.351   5.734   6.239 -0.3213 -0.6215  0.2648
  318MOL0    Cl43791  12.436   5.882   6.181 -0.2832  0.3763 -0.1011
  318MOL0     C43792  11.221   5.859   5.955 -0.0609 -0.1575  0.1027
  318MOL0     C43793  11.086   5.836   5.937  0.1209  0.1729 -0.0529
  318MOL0     O43794  10.866   5.837   5.740 -0.3871 -0.7853 -0.1759
  318MOL0     C43795  10.596   5.981   5.898  0.0052 -0.0262  0.7848
  318MOL0     C43796  10.454   5.997   5.896  0.0163  0.5188  0.3296
  318MOL0     N43797   9.881   5.982   5.486  0.3306 -0.5690 -0.2554
  318MOL0     N43798   9.759   5.971   5.442  0.7297  0.4365  0.1414
  318MOL0     C43799   8.500   5.512   5.219  0.4565 -0.2254  0.5136
  318MOL0     C43800   8.387   5.449   5.176  1.2081  0.0733 -0.4953
  318MOL0     C43801   8.109   5.116   5.097 -0.4041  1.0882  0.0061
  318MOL0     C43802   8.143   4.995   5.033  0.1688  0.7814 -0.3988
  318MOL0     C43803   8.054   4.884   5.031  0.0288 -0.3171 -0.0216
  318MOL0     C43804   7.925   4.886   5.089  0.4911 -0.7105 -0.2150
  318MOL0     O43805   7.845   4.776   5.083 -0.4844 -0.4492  0.1944
  318MOL0     C43806   7.796   4.737   5.207 -0.2573 -0.4328  0.2505
  318MOL0     C43807   7.725   4.612   5.182  0.8721 -0.4690  0.2776
  318MOL0     C43808   7.670   4.545   5.315 -0.4536 -1.3172  0.2871
  318MOL0     C43809   7.585   4.430   5.277  0.1369  1.0850  0.3642
  318MOL0     C43810   7.449   4.474   5.239 -0.0008  0.3607 -0.5841
  318MOL0     C43811   7.339   4.517   5.225 -0.4558 -0.0962 -0.5198
  318MOL0     C43812   7.896   5.006   5.155  0.8042  0.2015 -0.6651
  318MOL0     C43813   7.979   5.121   5.162 -0.3151  0.2857  0.2920
  318MOL0     C43814   7.943   5.236   5.257 -0.1233  1.2046  0.2086
  318MOL0     H43815   8.351   5.243   5.451 -0.7514 -0.0256 -0.5750
  318MOL0     H43816   8.536   5.385   5.530  0.3732 -1.1709  0.4442
  318MOL0     H43817   8.755   5.607   5.223 -1.0384  1.4103  0.9406
  318MOL0     H43818   8.825   5.474   5.329  2.1184  1.1796 -0.0086
  318MOL0     H43819   8.835   5.774   5.336 -0.4870 -0.3417  0.3357
  318MOL0     H43820   8.838   5.695   5.493  0.4871  0.3693  0.4569
  318MOL0     H43821   9.047   5.576   5.447  0.1548  1.2944  1.9262
  318MOL0     H43822   9.027   5.617   5.277 -4.1266  2.7656 -1.0216
  318MOL0     H43823   9.063   5.856   5.316 -0.3487 -1.0653 -1.2558
  318MOL0     H43824   9.042   5.833   5.489  0.9056  2.6060 -2.0982
  318MOL0     H43825   9.263   5.753   5.299  1.5158 -0.6705 -0.1529
  318MOL0     H43826   9.269   5.689   5.461  1.4218  0.7140 -0.5547
  318MOL0     H43827   9.275   5.984   5.363  1.2705 -0.2085 -1.3129
  318MOL0     H43828   9.252   5.946   5.530  3.0866  2.6043  0.5017
  318MOL0     H43829   9.505   5.852   5.372  2.2390 -2.7446  2.2933
  318MOL0     H43830   9.472   5.826   5.542  0.4826  0.1449  0.0219
  318MOL0     H43831   9.497   6.115   5.437 -0.5290 -0.3472 -0.0953
  318MOL0     H43832   9.482   6.064   5.602 -1.1519  2.6652 -0.3785
  318MOL0     H43833   9.700   6.127   5.718 -0.0853  0.4997  0.0879
  318MOL0     H43834   9.964   6.195   5.725 -3.3835 -1.3815  0.2635
  318MOL0     H43835  10.078   6.084   5.659  0.9509 -1.1679  2.2800
  318MOL0     H43836  10.034   6.071   5.900  0.1783  1.7665 -0.5944
  318MOL0     H43837   9.874   6.005   5.880  1.0893  1.7503  3.2717
  318MOL0     H43838   9.982   5.802   5.884  0.7146  0.9393  0.9441
  318MOL0     H43839  10.008   5.834   5.712 -0.4608  1.8091 -1.4637
  318MOL0     H43840  10.192   5.880   5.952  1.4025 -2.0240 -0.1914
  318MOL0     H43841  10.214   5.771   5.807 -1.0806 -0.0729 -0.8278
  318MOL0     H43842  10.374   5.779   5.653  1.7116  2.0252 -3.2181
  318MOL0     H43843  10.692   5.752   5.552  0.3199  2.0111 -0.1831
  318MOL0     H43844  10.569   5.639   5.599  1.6949 -1.4993 -0.0501
  318MOL0     H43845  10.714   5.652   5.696  0.7190 -1.0239 -2.6274
  318MOL0     H43846  10.973   6.134   6.044 -0.4942 -0.9166 -0.0925
  318MOL0     H43847  11.201   6.181   6.065 -0.8876 -0.2578  1.2562
  318MOL0     H43848  11.467   5.852   6.128 -0.6840  1.6517  0.4771
  318MOL0     H43849  11.489   5.828   5.957  0.3184 -0.3005  1.2861
  318MOL0     H43850  11.692   5.946   5.938  1.8730  0.6167  0.7042
  318MOL0     H43851  11.666   6.050   6.068 -0.5381  1.1361 -0.3508
  318MOL0     H43852  11.713   5.750   6.086 -0.8143  0.3335  0.1451
  318MOL0     H43853  11.693   5.864   6.227  4.3073  0.1409  2.1326
  318MOL0     H43854  11.886   6.005   6.146  0.6743 -0.4997  0.2354
  318MOL0     H43855  11.923   5.895   6.019  1.7251  2.4952  0.7797
  318MOL0     H43856  11.942   5.836   6.323  0.2720 -1.8494  0.4580
  318MOL0     H43857  11.959   5.709   6.200  4.0308 -1.1498  1.2344
  318MOL0     H43858  12.142   5.953   6.208  2.3460 -0.9124 -2.3646
  318MOL0     H43859  12.148   5.816   6.095  1.7246  1.4317  0.0648
  318MOL0     H43860  12.157   5.678   6.305 -0.7610 -0.9746 -1.4541
  318MOL0     H43861  12.233   5.826   6.381  3.4309 -0.0909 -1.5884
  318MOL0     H43862  12.341   5.661   6.158  3.1833 -0.3652 -0.5764
  318MOL0     H43863  12.416   5.698   6.319  2.6148  1.6423 -0.9127
  318MOL0     H43864  11.290   5.777   5.935  0.4145 -1.4443  5.4957
  318MOL0     H43865  11.041   5.748   5.892  0.4572  0.3984 -0.8505
  318MOL0     H43866  10.656   6.042   5.964 -0.9060  1.3308  0.4121
  318MOL0     H43867  10.412   6.065   5.969  0.8804 -2.1566  3.5286
  318MOL0     H43868   8.534   5.590   5.151  0.5751 -0.0651  0.7569
  318MOL0     H43869   8.338   5.471   5.082  0.2862  0.2708  0.0145
  318MOL0     H43870   8.239   4.992   4.983  0.1493  2.5612 -0.5897
  318MOL0     H43871   8.076   4.790   4.981 -1.2603 -1.7239  1.9244
  318MOL0     H43872   7.877   4.715   5.278 -0.0311  1.2651  0.5701
  318MOL0     H43873   7.724   4.799   5.261 -0.9384 -2.9247  2.4068
  318MOL0     H43874   7.772   4.533   5.122 -1.1465  0.5901 -3.0048
  318MOL0     H43875   7.642   4.638   5.115  0.6078  0.3094  0.8874
  318MOL0     H43876   7.750   4.500   5.375 -0.1583 -0.3928  0.6143
  318MOL0     H43877   7.617   4.622   5.372  1.8020  0.5159  0.0874
  318MOL0     H43878   7.574   4.358   5.359 -0.4230 -0.6644 -1.1772
  318MOL0     H43879   7.626   4.372   5.194 -0.9366  0.5531  0.1841
  318MOL0     H43880   7.243   4.559   5.203 -0.3379  0.5490  0.1375
  318MOL0     H43881   7.804   5.022   5.210  0.4687  0.5464 -1.3255
  318MOL0     H43882   7.963   5.332   5.209  2.9757  1.2555  1.3725
  318MOL0     H43883   7.838   5.225   5.283 -0.5228  2.9419 -0.5213
  318MOL0     H43884   8.009   5.224   5.344  0.6011 -5.5100 -0.7514
  319MOL0     O43885   0.929  10.469   0.809 -0.2754  0.4976 -0.1091
  319MOL0     C43886   0.847  10.480   0.725  0.1858  0.5295 -0.4850
  319MOL0     O43887   0.850  10.423   0.607 -0.7819  0.5532  0.0041
  319MOL0     C43888   0.963  10.349   0.573  0.1311 -0.0789  0.9065
  319MOL0     C43889   0.962  10.207   0.597  0.1863  0.1481 -0.3840
  319MOL0     C43890   1.068  10.128   0.557  0.1191 -0.2123 -0.4705
  319MOL0     C43891   1.181  10.184   0.483  0.2144  0.4038 -0.2901
  319MOL0     O43892   1.283  10.110   0.416  1.1262 -0.4676 -0.5968
  319MOL0     C43893   1.288   9.968   0.424  0.4047  0.3916  0.2574
  319MOL0     C43894   1.409   9.902   0.353 -0.2128 -0.2596  0.0329
  319MOL0     C43895   1.374   9.893   0.200 -0.4559  0.0780  0.2950
  319MOL0     C43896   1.473   9.829   0.114  0.0829  0.5615  0.3720
  319MOL0     C43897   1.439   9.809  -0.031 -0.1146  0.0427  0.2459
  319MOL0     C43898   1.553   9.751  -0.113  0.4395 -0.5942 -0.3540
  319MOL0     C43899   1.664   9.858  -0.142  0.1542 -0.2265 -1.2930
  319MOL0     C43900   1.762   9.796  -0.246 -0.8278 -0.4439 -0.2848
  319MOL0     N43901   1.863   9.897  -0.300  0.2297 -0.0504  1.0055
  319MOL0     C43902   1.865   9.945  -0.426  0.4827  0.3986 -0.7317
  319MOL0     C43903   1.960  10.034  -0.435 -0.4587 -0.0318 -0.3485
  319MOL0     C43904   1.986  10.116  -0.564 -0.0856  0.1377 -0.2037
  319MOL0     C43905   2.066  10.033  -0.667  0.2151 -0.1017 -0.4318
  319MOL0     C43906   2.205   9.990  -0.616  0.0319  0.3916 -0.3989
  319MOL0     C43907   2.254   9.917  -0.740 -0.0141  0.3706 -0.1868
  319MOL0     O43908   2.305  10.008  -0.838 -0.5079 -0.4459  0.2052
  319MOL0     C43909   2.438  10.043  -0.848 -0.3831 -0.6802 -0.3427
  319MOL0     C43910   2.471  10.108  -0.965  0.0984 -0.4061  0.7692
  319MOL0     C43911   2.595  10.163  -0.989 -1.0557 -0.4462  0.5714
  319MOL0     C43912   2.604  10.233  -1.126 -0.5355 -0.2075  0.0869
  319MOL0     C43913   2.694  10.160  -0.889  0.0953  0.5070 -0.0610
  319MOL0     C43914   2.838  10.209  -0.903  0.7146  0.2209  0.0712
  319MOL0     O43915   2.919  10.215  -0.791  0.0796  0.3301  0.0273
  319MOL0     C43916   3.055  10.222  -0.807 -0.1884 -0.0795  0.5674
  319MOL0     C43917   3.135  10.118  -0.764 -0.3014  0.1285  0.3155
  319MOL0     C43918   3.276  10.127  -0.785  0.2766  1.0973  0.7565
  319MOL0     C43919   3.335  10.240  -0.843  0.0983  0.1828  0.2010
  319MOL0     O43920   3.473  10.233  -0.865  0.6049 -0.2483 -0.0574
  319MOL0     C43921   3.534  10.298  -0.974  0.6941  0.1871 -0.8301
  319MOL0     C43922   3.676  10.259  -0.966  0.4801  0.9592 -0.0567
  319MOL0     C43923   3.701  10.112  -1.009  0.0936 -0.3370 -0.2944
  319MOL0     C43924   3.847  10.081  -1.035 -0.6736 -0.0046  0.5020
  319MOL0     C43925   3.884   9.927  -1.045  0.3770  0.1534 -0.3139
  319MOL0     C43926   4.032   9.911  -1.090 -0.0664  0.0006  0.7706
  319MOL0     C43927   4.073   9.760  -1.085 -0.3300 -1.2223  0.8769
  319MOL0     C43928   4.227   9.748  -1.094  0.3565  0.2520 -0.1463
  319MOL0    Cl43929   4.296   9.799  -1.248  0.7005 -0.0790 -0.3865
  319MOL0     C43930   3.253  10.346  -0.883 -0.0616  0.1067 -0.3000
  319MOL0     C43931   3.117  10.334  -0.869 -0.1238  0.6995 -0.2852
  319MOL0     O43932   2.869  10.241  -1.015 -0.2287 -0.0474  0.0851
  319MOL0     C43933   2.661  10.089  -0.769  0.9857 -0.2797 -0.3113
  319MOL0     C43934   2.535  10.030  -0.750  0.3785  0.5206  0.5559
  319MOL0     N43935   2.036  10.027  -0.318 -0.9179 -0.4879  0.3197
  319MOL0     N43936   1.972   9.948  -0.239  0.5198  0.5550  0.5366
  319MOL0     C43937   1.181  10.321   0.465 -0.0993  0.2749  0.1828
  319MOL0     C43938   1.074  10.402   0.516  0.3477 -0.3642 -0.6370
  319MOL0     C43939   0.735  10.572   0.762  0.1207 -0.0516  0.1273
  319MOL0     C43940   0.669  10.628   0.650  0.3007 -0.0009  0.1940
  319MOL0     C43941   0.552  10.704   0.665  0.2766  0.0709 -0.9995
  319MOL0     C43942   0.491  10.714   0.791 -0.5357  0.0043  0.7949
  319MOL0     O43943   0.381  10.795   0.796  0.1053 -0.3644  0.1316
  319MOL0     C43944   0.336  10.842   0.924  0.0364  0.0046 -0.1454
  319MOL0     C43945   0.222  10.928   0.905 -0.0727 -0.9079  0.0169
  319MOL0     C43946   0.186  10.996   1.036 -0.0697 -0.4331 -0.6477
  319MOL0     C43947   0.068  10.929   1.109 -1.3808  0.6072 -0.9636
  319MOL0     C43948   0.105  10.907   1.250 -0.1856 -0.6031  0.8433
  319MOL0     C43949   0.124  10.896   1.369 -0.2219  0.4055 -0.2721
  319MOL0     C43950   0.565  10.668   0.900  0.6821  0.9547 -0.5757
  319MOL0     C43951   0.690  10.608   0.891  0.5593  0.5042  0.1119
  319MOL0     C43952   0.753  10.553   1.020  0.3238  0.1261 -0.2523
  319MOL0     H43953   0.872  10.166   0.641 -0.5481  1.9532 -0.1184
  319MOL0     H43954   1.059  10.020   0.565  1.3525 -0.2020  3.4978
  319MOL0     H43955   1.195   9.929   0.381  1.0977  1.6644 -2.6349
  319MOL0     H43956   1.287   9.934   0.528 -0.4162 -1.2592 -0.2460
  319MOL0     H43957   1.494   9.971   0.359 -1.0763  0.8408 -0.0805
  319MOL0     H43958   1.443   9.810   0.403  0.3677  0.4805  1.0620
  319MOL0     H43959   1.281   9.835   0.195 -0.0299 -0.5091 -3.2755
  319MOL0     H43960   1.348   9.992   0.161 -0.1832 -1.5195 -4.5549
  319MOL0     H43961   1.567   9.885   0.120 -1.5898  3.6087  0.0210
  319MOL0     H43962   1.486   9.732   0.162 -1.2279  0.7721  1.1934
  319MOL0     H43963   1.408   9.906  -0.071 -0.9565 -0.9488 -1.6052
  319MOL0     H43964   1.352   9.745  -0.046 -0.3426  0.2285  0.7444
  319MOL0     H43965   1.593   9.668  -0.054 -0.4500 -0.2439  0.7780
  319MOL0     H43966   1.511   9.709  -0.205  0.3524  0.4078 -0.7884
  319MOL0     H43967   1.725   9.885  -0.055  2.3512 -0.7263 -2.5800
  319MOL0     H43968   1.632   9.954  -0.183 -1.8650  1.0726  2.7968
  319MOL0     H43969   1.814   9.708  -0.205  1.9896  1.7955  1.3063
  319MOL0     H43970   1.709   9.753  -0.331 -0.6575 -2.2249  0.4550
  319MOL0     H43971   1.789   9.935  -0.502  1.1640 -0.6254 -1.2961
  319MOL0     H43972   2.052  10.202  -0.544  1.2564 -0.6450 -1.0972
  319MOL0     H43973   1.889  10.154  -0.597 -1.1802 -0.6576  1.8993
  319MOL0     H43974   2.010   9.945  -0.702 -0.4586 -0.2367  0.9355
  319MOL0     H43975   2.072  10.100  -0.753 -3.2982 -0.3824 -1.0539
  319MOL0     H43976   2.271  10.074  -0.591 -0.5567  1.1587 -1.3058
  319MOL0     H43977   2.191   9.913  -0.540  3.6636 -1.3161 -1.2624
  319MOL0     H43978   2.329   9.846  -0.706  0.4208  0.5537 -0.7368
  319MOL0     H43979   2.170   9.863  -0.783  0.7267  1.1241 -2.7857
  319MOL0     H43980   2.389  10.128  -1.034 -0.0835  0.0519  1.1164
  319MOL0     H43981   2.635  10.335  -1.103  0.6068 -1.0693  2.8709
  319MOL0     H43982   2.506  10.239  -1.174 -0.9077 -1.6096  0.6240
  319MOL0     H43983   2.678  10.177  -1.184  0.3446  0.4247  0.5871
  319MOL0     H43984   3.085  10.030  -0.725  1.8734 -0.6191  1.5642
  319MOL0     H43985   3.324  10.032  -0.767 -3.6421 -1.0532  1.1298
  319MOL0     H43986   3.491  10.264  -1.069 -0.4680  0.9296 -0.5937
  319MOL0     H43987   3.512  10.405  -0.961 -0.3137 -0.0317 -0.6291
  319MOL0     H43988   3.723  10.328  -1.037 -1.3155  1.1311 -1.1191
  319MOL0     H43989   3.724  10.280  -0.869 -0.3408 -2.7660  1.2973
  319MOL0     H43990   3.653  10.085  -1.103 -0.9843 -0.8203  0.3715
  319MOL0     H43991   3.670  10.053  -0.922  3.0162  0.8717  1.7137
  319MOL0     H43992   3.910  10.126  -0.957  0.9887  0.7811 -1.2122
  319MOL0     H43993   3.870  10.131  -1.130  0.1650  0.8907  1.1548
  319MOL0     H43994   3.876   9.883  -0.945  2.0504 -0.9396 -0.6275
  319MOL0     H43995   3.815   9.883  -1.118 -1.3733  1.1989  0.6518
  319MOL0     H43996   4.090   9.969  -1.017 -1.4833  1.1545  1.0218
  319MOL0     H43997   4.042   9.950  -1.192 -1.6056 -1.6501 -0.0515
  319MOL0     H43998   4.026   9.718  -1.175  1.7650 -0.3712 -0.7062
  319MOL0     H43999   4.021   9.706  -1.005 -2.5325 -0.4151  0.0791
  319MOL0     H44000   4.257   9.643  -1.084 -1.8642 -0.5809 -1.3465
  319MOL0     H44001   4.277   9.807  -1.017  0.2816  0.6451 -0.3989
  319MOL0     H44002   3.305  10.427  -0.933  2.4887 -0.8750  0.5508
  319MOL0     H44003   3.057  10.419  -0.899  0.2391  1.9881  2.3919
  319MOL0     H44004   2.731  10.086  -0.686  1.9488 -3.9502 -1.0704
  319MOL0     H44005   2.499   9.985  -0.658 -2.2950 -0.2149 -0.7394
  319MOL0     H44006   1.266  10.362   0.412 -0.7693  1.0770 -0.2967
  319MOL0     H44007   1.081  10.510   0.521 -0.6066 -0.3120 -0.3302
  319MOL0     H44008   0.700  10.603   0.549 -0.1250 -2.8831  0.7031
  319MOL0     H44009   0.491  10.730   0.579 -1.8011 -3.1139 -0.6247
  319MOL0     H44010   0.311  10.757   0.987 -2.2539  1.3441  0.8790
  319MOL0     H44011   0.422  10.901   0.955  0.7492 -1.4622  0.7800
  319MOL0     H44012   0.142  10.861   0.869 -1.7900 -0.2421  2.3250
  319MOL0     H44013   0.242  11.003   0.828  2.2995 -1.3526  0.1302
  319MOL0     H44014   0.275  10.997   1.100 -0.0016  0.6470 -0.7377
  319MOL0     H44015   0.153  11.098   1.017 -0.6223 -0.5449 -0.3201
  319MOL0     H44016   0.054  10.826   1.074 -1.1644 -1.5587  4.3632
  319MOL0     H44017  -0.019  10.996   1.106 -1.5456  0.6141  1.6294
  319MOL0     H44018   0.154  10.894   1.472 -0.4821 -0.2712 -0.2025
  319MOL0     H44019   0.523  10.694   0.997 -0.1017 -1.7903 -0.1002
  319MOL0     H44020   0.689  10.559   1.110  2.1998 -0.1625  1.1623
  319MOL0     H44021   0.781  10.447   1.018 -2.8101 -0.8615  0.6738
  319MOL0     H44022   0.838  10.615   1.047  1.0670 -0.8931 -0.2072
  320MOL0     O44023   1.353   0.171   3.044  0.1686 -0.7672  0.4579
  320MOL0     C44024   1.258   0.242   3.004 -0.6112 -0.8267 -0.3996
  320MOL0     O44025   1.272   0.365   2.928  0.3294  0.2303  0.3228
  320MOL0     C44026   1.393   0.410   2.881 -0.2160  0.1701 -0.3154
  320MOL0     C44027   1.422   0.548   2.895  0.5824 -0.4770  0.5700
  320MOL0     C44028   1.535   0.606   2.843  0.0408 -0.8278  0.4762
  320MOL0     C44029   1.633   0.529   2.784 -0.7742 -1.1823  0.3694
  320MOL0     O44030   1.741   0.604   2.735 -0.1080  0.2675 -0.2876
  320MOL0     C44031   1.818   0.541   2.633  0.0692 -0.3662  0.4949
  320MOL0     C44032   1.913   0.647   2.578 -0.1723  0.0471 -0.4546
  320MOL0     C44033   2.028   0.581   2.506  0.0189 -0.7144 -0.1729
  320MOL0     C44034   2.158   0.659   2.522 -0.7674  0.2066  0.6702
  320MOL0     C44035   2.274   0.587   2.439  0.0125  0.2506 -0.8402
  320MOL0     C44036   2.422   0.639   2.470  0.7789 -0.5998 -0.2176
  320MOL0     C44037   2.530   0.543   2.429 -0.6915 -0.9603 -0.3339
  320MOL0     C44038   2.665   0.588   2.503 -0.7873  0.0610 -0.3046
  320MOL0     N44039   2.730   0.722   2.490 -0.0639 -0.1679  0.4789
  320MOL0     C44040   2.703   0.847   2.545 -0.0904  0.1774  0.3979
  320MOL0     C44041   2.817   0.916   2.533  0.7884 -0.3311 -0.0471
  320MOL0     C44042   2.836   1.056   2.580  0.3507  0.8034  0.1595
  320MOL0     C44043   2.748   1.156   2.509  0.0750 -0.0259  0.6115
  320MOL0     C44044   2.749   1.142   2.358  0.2228  0.7684  0.2768
  320MOL0     C44045   2.882   1.134   2.279 -0.2815  0.6624  0.1631
  320MOL0     O44046   2.946   1.264   2.298 -0.1377 -0.3688  0.4605
  320MOL0     C44047   3.072   1.293   2.253  0.2808 -0.0706 -0.2061
  320MOL0     C44048   3.099   1.430   2.241  0.3025  0.0569 -0.1791
  320MOL0     C44049   3.235   1.470   2.216 -0.4832 -0.5932  0.0832
  320MOL0     C44050   3.261   1.617   2.215 -0.1483 -0.1245 -0.4920
  320MOL0     C44051   3.335   1.368   2.192 -0.6437 -0.2304  0.0514
  320MOL0     C44052   3.483   1.391   2.170  0.1297 -0.8183  0.7720
  320MOL0     O44053   3.575   1.307   2.224  0.3150  0.1054  0.2193
  320MOL0     C44054   3.693   1.362   2.270  0.5969  0.3228 -0.6356
  320MOL0     C44055   3.707   1.447   2.377 -0.4050  0.7939  0.0970
  320MOL0     C44056   3.840   1.494   2.409  0.5708 -0.6256 -0.0320
  320MOL0     C44057   3.953   1.455   2.336  0.3874  0.5349 -0.7865
  320MOL0     O44058   4.085   1.494   2.360  0.3958 -0.2456 -0.3020
  320MOL0     C44059   4.118   1.552   2.490  0.1273 -0.1674 -0.4844
  320MOL0     C44060   4.267   1.536   2.514 -0.0825 -1.2560 -0.2344
  320MOL0     C44061   4.347   1.602   2.400 -0.3043 -0.0659  0.4372
  320MOL0     C44062   4.336   1.753   2.418 -0.3749 -1.7452  0.3128
  320MOL0     C44063   4.434   1.811   2.322 -0.7080  0.0348  0.7765
  320MOL0     C44064   4.420   1.961   2.326 -0.2513  0.7267  0.3960
  320MOL0     C44065   4.551   2.019   2.260 -0.2593  0.0794  0.6767
  320MOL0     C44066   4.569   1.985   2.109  0.6226 -0.5287  0.6041
  320MOL0    Cl44067   4.410   2.006   2.024  0.0143  0.6198  0.7632
  320MOL0     C44068   3.936   1.362   2.238  0.2759  0.4167  0.9282
  320MOL0     C44069   3.811   1.311   2.208 -0.5947  0.1990  0.0072
  320MOL0     O44070   3.515   1.491   2.100  0.1667 -0.3028 -0.3377
  320MOL0     C44071   3.297   1.239   2.187 -0.0607  1.3155  0.6806
  320MOL0     C44072   3.170   1.201   2.212 -0.1205  1.3062  0.1009
  320MOL0     N44073   2.907   0.845   2.461 -0.5225  0.0819  0.6072
  320MOL0     N44074   2.863   0.730   2.451  0.5153  0.7015  0.1803
  320MOL0     C44075   1.610   0.392   2.780 -0.5523 -0.1947  0.1024
  320MOL0     C44076   1.493   0.332   2.824 -0.2177  0.1395 -0.7418
  320MOL0     C44077   1.124   0.201   3.033 -0.0042  0.6050 -0.2118
  320MOL0     C44078   1.017   0.296   3.011  0.2353 -0.2225 -0.9756
  320MOL0     C44079   0.889   0.264   3.055 -1.0660  0.3289  0.8342
  320MOL0     C44080   0.851   0.138   3.111 -0.6930 -0.1602 -0.3203
  320MOL0     O44081   0.726   0.109   3.152 -0.0002  0.4632 -0.2303
  320MOL0     C44082   0.643   0.209   3.218  0.7832  0.1963 -0.1275
  320MOL0     C44083   0.498   0.150   3.242  0.5194  0.0604  1.1619
  320MOL0     C44084   0.502   0.012   3.319  0.0695 -1.1061  0.6423
  320MOL0     C44085   0.365  -0.038   3.351 -0.5497 -0.1901 -0.4098
  320MOL0     C44086   0.386  -0.148   3.451 -0.3271  0.1975 -1.0634
  320MOL0     C44087   0.422  -0.223   3.541  0.4238  0.4287  0.6830
  320MOL0     C44088   0.952   0.043   3.120  0.4686  0.4937  0.3532
  320MOL0     C44089   1.088   0.073   3.082 -0.5801 -0.9162  1.6542
  320MOL0     C44090   1.178  -0.047   3.080  0.0705 -0.1854 -0.2085
  320MOL0     H44091   1.345   0.599   2.953  1.5656  0.2755  1.2516
  320MOL0     H44092   1.561   0.711   2.858  0.3567 -0.5495 -1.7091
  320MOL0     H44093   1.762   0.485   2.557  1.2704 -3.3375  1.6805
  320MOL0     H44094   1.884   0.472   2.685 -0.5619 -1.1482  0.2682
  320MOL0     H44095   1.869   0.708   2.498  0.3276 -0.6390 -1.2806
  320MOL0     H44096   1.944   0.714   2.658 -2.6569 -1.2283  1.7236
  320MOL0     H44097   2.044   0.480   2.544 -0.2544 -0.1850  1.4266
  320MOL0     H44098   2.011   0.578   2.398 -2.7210  1.5992  0.0595
  320MOL0     H44099   2.142   0.758   2.479 -1.4823  0.1610  0.8303
  320MOL0     H44100   2.185   0.663   2.628  4.2956  1.4326 -0.3721
  320MOL0     H44101   2.260   0.608   2.333  1.5224  1.9478 -0.7436
  320MOL0     H44102   2.264   0.479   2.458  0.6368  0.3768  0.2968
  320MOL0     H44103   2.432   0.741   2.431  1.3347 -0.4773  0.2360
  320MOL0     H44104   2.427   0.658   2.578  0.3281 -0.2812 -0.2492
  320MOL0     H44105   2.543   0.539   2.321  2.4696 -0.6494 -0.0851
  320MOL0     H44106   2.512   0.442   2.468  3.7412 -1.4094  1.2075
  320MOL0     H44107   2.648   0.576   2.610 -1.1336  0.3300 -0.3305
  320MOL0     H44108   2.743   0.514   2.484 -0.3415 -0.3628  2.7162
  320MOL0     H44109   2.614   0.860   2.606  0.3616  0.0221  1.1068
  320MOL0     H44110   2.938   1.073   2.546  0.4507 -1.4816 -0.8174
  320MOL0     H44111   2.826   1.055   2.689  0.5438 -0.0603  0.1706
  320MOL0     H44112   2.654   1.138   2.563  0.6420 -2.2907  0.9740
  320MOL0     H44113   2.773   1.258   2.540 -2.3857  0.7432  0.2522
  320MOL0     H44114   2.692   1.053   2.329  1.6248  0.1020 -0.5403
  320MOL0     H44115   2.698   1.227   2.312 -2.7057 -0.6688  0.5826
  320MOL0     H44116   2.942   1.046   2.305 -3.4822 -1.3363  1.2659
  320MOL0     H44117   2.864   1.121   2.172  2.4223 -2.0884 -0.0955
  320MOL0     H44118   3.023   1.506   2.247 -0.1187 -0.3809  0.1308
  320MOL0     H44119   3.334   1.649   2.140  0.4743 -2.6240 -1.0433
  320MOL0     H44120   3.289   1.651   2.315 -0.0476  2.2248 -1.2552
  320MOL0     H44121   3.166   1.665   2.189  1.5743  1.6061 -4.4887
  320MOL0     H44122   3.614   1.479   2.422 -0.3409  0.5899  0.3708
  320MOL0     H44123   3.842   1.570   2.486  0.2038  1.1309 -1.6771
  320MOL0     H44124   4.083   1.654   2.507  1.0342 -0.3714  3.5852
  320MOL0     H44125   4.070   1.487   2.563 -1.1116 -0.5231 -1.5773
  320MOL0     H44126   4.284   1.591   2.607  1.0904  1.4319 -1.9361
  320MOL0     H44127   4.294   1.430   2.517  0.6620 -1.0662  0.0069
  320MOL0     H44128   4.331   1.559   2.301 -0.4516 -1.2761  0.9558
  320MOL0     H44129   4.452   1.578   2.420 -0.8469 -1.7074  1.6093
  320MOL0     H44130   4.373   1.773   2.519 -1.2003 -0.0197  0.3114
  320MOL0     H44131   4.235   1.792   2.403 -0.1900 -1.1461  0.5816
  320MOL0     H44132   4.539   1.792   2.344  0.1915  2.3157 -1.1858
  320MOL0     H44133   4.412   1.773   2.222  1.2760 -1.3948  0.8228
  320MOL0     H44134   4.425   2.005   2.426 -2.2155  2.3236 -0.1604
  320MOL0     H44135   4.331   2.000   2.277  0.2214  0.7383 -0.4771
  320MOL0     H44136   4.637   1.982   2.316 -0.9625  0.8860  2.3504
  320MOL0     H44137   4.548   2.128   2.272  1.2652 -0.0394  2.3463
  320MOL0     H44138   4.604   1.884   2.088 -3.0756 -1.5537 -1.5872
  320MOL0     H44139   4.639   2.059   2.069  1.2127 -0.2947  1.9996
  320MOL0     H44140   4.028   1.333   2.188  1.7907  2.4543  2.3352
  320MOL0     H44141   3.799   1.240   2.127 -0.7190 -0.4343  0.5717
  320MOL0     H44142   3.373   1.165   2.160 -1.7657  0.4705 -2.1885
  320MOL0     H44143   3.150   1.095   2.217  0.0084  1.3369  2.4859
  320MOL0     H44144   1.690   0.336   2.731 -0.1313 -1.5539  2.2067
  320MOL0     H44145   1.470   0.227   2.812 -2.8684  0.4962  0.5318
  320MOL0     H44146   1.032   0.401   2.988 -0.2762  0.6468  2.1214
  320MOL0     H44147   0.813   0.342   3.047 -2.2236 -0.9327 -1.5481
  320MOL0     H44148   0.687   0.227   3.316 -1.3244 -0.0219  0.9237
  320MOL0     H44149   0.631   0.293   3.149  2.7964  0.5146 -0.1519
  320MOL0     H44150   0.437   0.136   3.153 -0.3445 -1.7114  1.9751
  320MOL0     H44151   0.438   0.219   3.303  1.3493  2.5648 -0.6758
  320MOL0     H44152   0.562  -0.058   3.261 -0.5608 -1.8407  0.8500
  320MOL0     H44153   0.554   0.028   3.414 -0.0516  1.9542  0.3017
  320MOL0     H44154   0.315  -0.080   3.263 -0.1449 -0.3624 -0.5598
  320MOL0     H44155   0.300   0.031   3.405 -1.2891 -3.9118  4.1284
  320MOL0     H44156   0.452  -0.297   3.612  2.5005  0.3774 -0.1708
  320MOL0     H44157   0.922  -0.053   3.162 -0.4391  0.9777  0.8245
  320MOL0     H44158   1.227  -0.056   3.178  3.4156  3.1874 -1.3672
  320MOL0     H44159   1.119  -0.133   3.046 -1.9387  1.0632 -0.0665
  320MOL0     H44160   1.263  -0.039   3.012  2.2141  0.0612  2.3494
  321MOL0     O44161  10.191   8.150   9.741  0.9533  0.1264  0.5365
  321MOL0     C44162  10.097   8.179   9.815  0.0671 -0.9149 -0.0126
  321MOL0     O44163  10.108   8.218   9.943 -0.9083  0.6657 -0.8631
  321MOL0     C44164  10.232   8.249   9.999 -0.2382  1.1311  0.6862
  321MOL0     C44165  10.323   8.153  10.053 -0.6413  0.1947 -0.0217
  321MOL0     C44166  10.456   8.190  10.097  0.1297  0.5430 -0.4042
  321MOL0     C44167  10.487   8.327  10.104  0.2253 -0.0959  0.5047
  321MOL0     O44168  10.613   8.357  10.163 -0.1283 -0.2865  0.5249
  321MOL0     C44169  10.667   8.494  10.146  0.1881  0.1718 -0.4993
  321MOL0     C44170  10.817   8.495  10.116  0.5620  0.1791 -0.6068
  321MOL0     C44171  10.878   8.634  10.106 -0.0851 -0.1951 -0.0718
  321MOL0     C44172  11.022   8.612  10.063 -0.4918 -0.3646 -0.1441
  321MOL0     C44173  11.104   8.738  10.085  0.1468 -0.2107  0.2566
  321MOL0     C44174  11.247   8.736  10.023  0.4053 -1.1330  0.6166
  321MOL0     C44175  11.342   8.829  10.097  0.6074  0.2492  0.3806
  321MOL0     C44176  11.489   8.809  10.044 -0.1892  0.0302 -0.4501
  321MOL0     N44177  11.589   8.885  10.126  0.0690  0.2870  0.0368
  321MOL0     C44178  11.703   8.838  10.188 -0.4972 -0.1510  0.1031
  321MOL0     C44179  11.771   8.951  10.219 -0.2308 -0.2432  0.0603
  321MOL0     C44180  11.901   8.952  10.277 -0.0094 -0.5727 -0.5450
  321MOL0     C44181  11.917   8.883  10.408 -0.0266  0.3506  0.3194
  321MOL0     C44182  12.032   8.935  10.497  0.6066 -0.0216  0.3617
  321MOL0     C44183  12.175   8.901  10.455 -0.0996 -0.0906  0.2592
  321MOL0     O44184  12.193   8.751  10.463  0.8536  0.4742  0.0887
  321MOL0     C44185  12.310   8.683  10.472 -0.1811  0.5445 -0.6316
  321MOL0     C44186  12.305   8.542  10.493 -0.0135 -0.4901 -0.4113
  321MOL0     C44187  12.418   8.457  10.495 -0.4246  0.0863 -0.1159
  321MOL0     C44188  12.387   8.315  10.509 -0.0826  0.4924  0.2934
  321MOL0     C44189  12.554   8.524  10.486  0.0342 -0.1441 -0.5509
  321MOL0     C44190  12.679   8.446  10.491 -0.5921 -0.0509 -0.1419
  321MOL0     O44191  12.793   8.522  10.517 -0.0519 -0.0532 -0.1488
  321MOL0     C44192  12.912   8.466  10.472  0.6730  0.0246  0.3311
  321MOL0     C44193  12.947   8.475  10.338  0.3672 -0.6995 -0.1704
  321MOL0     C44194  13.074   8.433  10.300  0.4517 -0.3044 -0.1937
  321MOL0     C44195  13.162   8.377  10.394  0.1742  1.3350  0.4003
  321MOL0     O44196  13.280   8.310  10.362  0.1319  0.4581  0.0497
  321MOL0     C44197  13.357   8.384  10.270 -0.3767  0.5811  0.5139
  321MOL0     C44198  13.489   8.307  10.261 -0.0870 -0.6048 -0.6327
  321MOL0     C44199  13.474   8.160  10.218  0.5401  0.1695 -0.1801
  321MOL0     C44200  13.393   8.133  10.083 -0.7944 -0.2603  0.5400
  321MOL0     C44201  13.348   7.982  10.074 -0.3013  0.9826 -0.0714
  321MOL0     C44202  13.284   7.959   9.941 -0.3180  0.6637 -0.1755
  321MOL0     C44203  13.210   7.817   9.940 -0.3142 -0.1307 -0.0679
  321MOL0     C44204  13.133   7.794   9.812  0.3709  0.0121 -0.1010
  321MOL0    Cl44205  13.113   7.622   9.789  0.1342  0.1274  0.3091
  321MOL0     C44206  13.118   8.363  10.522 -0.1868 -0.3915  0.1774
  321MOL0     C44207  12.999   8.414  10.566  0.6483 -0.2485 -0.2470
  321MOL0     O44208  12.679   8.329  10.464  0.6063 -0.4922  0.7276
  321MOL0     C44209  12.557   8.667  10.474 -0.4130 -0.1391  0.2362
  321MOL0     C44210  12.438   8.740  10.468  0.6925 -0.1253  0.3099
  321MOL0     N44211  11.702   9.061  10.168 -0.3928 -0.4450 -0.0235
  321MOL0     N44212  11.593   9.021  10.120  0.4104 -0.6499 -0.2514
  321MOL0     C44213  10.392   8.420  10.059  0.1896 -0.1237  0.3242
  321MOL0     C44214  10.266   8.385  10.007  0.0679  0.5832 -0.5953
  321MOL0     C44215   9.965   8.149   9.754 -1.0649 -0.2000  0.2675
  321MOL0     C44216   9.867   8.111   9.838  0.8805  1.2811  0.8816
  321MOL0     C44217   9.736   8.083   9.788 -0.7234 -0.2016 -0.5757
  321MOL0     C44218   9.707   8.100   9.656 -0.2691  0.0857  0.9648
  321MOL0     O44219   9.574   8.083   9.628  0.1095 -0.3390  0.0781
  321MOL0     C44220   9.520   8.141   9.503  0.0438  0.0867  0.8617
  321MOL0     C44221   9.504   8.292   9.496  0.4012  0.3778 -0.2324
  321MOL0     C44222   9.433   8.320   9.356 -0.4763 -0.2165 -0.2891
  321MOL0     C44223   9.364   8.453   9.372 -0.3320  0.8874  0.4575
  321MOL0     C44224   9.300   8.523   9.252  0.5261  0.3598  0.3562
  321MOL0     C44225   9.243   8.591   9.164  0.1010 -0.9776  0.2881
  321MOL0     C44226   9.807   8.150   9.571 -0.4412  0.5893  0.2093
  321MOL0     C44227   9.939   8.165   9.613  0.7526  0.2951  0.8505
  321MOL0     C44228  10.035   8.194   9.501  0.0954 -0.4997 -0.3529
  321MOL0     H44229  10.290   8.050  10.060 -1.4942  0.5161  0.8935
  321MOL0     H44230  10.523   8.119  10.145 -1.4374  1.0360  2.7853
  321MOL0     H44231  10.661   8.540  10.245 -2.5381 -0.4557 -0.3052
  321MOL0     H44232  10.612   8.558  10.076 -2.1576  0.3830  1.4032
  321MOL0     H44233  10.865   8.433  10.192 -0.2828 -0.8958 -0.9250
  321MOL0     H44234  10.839   8.455  10.017  0.8259 -0.2788 -0.3620
  321MOL0     H44235  10.813   8.687  10.036  0.7167  1.1341  0.1664
  321MOL0     H44236  10.879   8.689  10.201  2.9724 -2.1241  1.1876
  321MOL0     H44237  11.071   8.537  10.126  0.4403  0.2263 -0.1391
  321MOL0     H44238  11.012   8.573   9.961 -4.1976  0.8741 -0.3754
  321MOL0     H44239  11.114   8.748  10.193  3.5643  0.5078 -0.0197
  321MOL0     H44240  11.047   8.823  10.046 -1.5399 -0.1611  2.6435
  321MOL0     H44241  11.286   8.634  10.030  1.8365 -0.6608 -0.1393
  321MOL0     H44242  11.243   8.767   9.918 -0.8910 -0.1140  0.9498
  321MOL0     H44243  11.326   8.814  10.204 -1.1137 -0.4818  0.0614
  321MOL0     H44244  11.310   8.932  10.084 -1.2751  0.2430  3.6938
  321MOL0     H44245  11.517   8.703  10.041  0.3270  0.1889 -1.5976
  321MOL0     H44246  11.500   8.843   9.941 -0.5918  0.0197 -0.4954
  321MOL0     H44247  11.738   8.736  10.204  3.2870  0.9324 -0.1927
  321MOL0     H44248  11.940   9.054  10.284  3.1266 -1.6814 -0.0676
  321MOL0     H44249  11.983   8.902  10.225 -0.4791 -0.5349 -1.3319
  321MOL0     H44250  11.825   8.900  10.465 -0.4235 -3.0655  0.8761
  321MOL0     H44251  11.922   8.776  10.390 -0.3802  0.6229 -1.5529
  321MOL0     H44252  12.013   9.042  10.497  0.3302  0.0655  4.5628
  321MOL0     H44253  12.017   8.892  10.596 -0.7851 -0.1297  0.1259
  321MOL0     H44254  12.197   8.946  10.358 -1.9810  0.3311 -0.0092
  321MOL0     H44255  12.239   8.940  10.534 -0.1519  0.3924  0.0658
  321MOL0     H44256  12.203   8.504  10.499 -1.4459  3.0528  4.5591
  321MOL0     H44257  12.446   8.255  10.440 -1.7159  0.3794 -1.0542
  321MOL0     H44258  12.281   8.292  10.498  0.7104 -3.1537 -1.2461
  321MOL0     H44259  12.411   8.281  10.611 -0.4237 -2.2051 -0.4545
  321MOL0     H44260  12.881   8.516  10.262  1.6325  0.6879 -0.5782
  321MOL0     H44261  13.097   8.427  10.194 -1.2042 -1.9243 -0.5175
  321MOL0     H44262  13.314   8.383  10.170  4.2879 -3.4098 -1.8909
  321MOL0     H44263  13.378   8.485  10.308  1.1142 -0.0326  1.4095
  321MOL0     H44264  13.558   8.360  10.194  0.6999  2.6923  2.4634
  321MOL0     H44265  13.543   8.321  10.355 -0.8694  0.5712 -0.3211
  321MOL0     H44266  13.413   8.103  10.290 -1.0055  1.1233 -0.6896
  321MOL0     H44267  13.570   8.108  10.219  0.5389  0.1512  1.1526
  321MOL0     H44268  13.456   8.154   9.996 -0.2346 -1.5100  0.6233
  321MOL0     H44269  13.302   8.193  10.080 -2.6349 -2.8343  0.9431
  321MOL0     H44270  13.430   7.911  10.069 -0.3073  1.0663 -2.9277
  321MOL0     H44271  13.283   7.950  10.157  0.8242  1.6319  1.0938
  321MOL0     H44272  13.358   7.968   9.861 -1.1152  1.1393 -0.8721
  321MOL0     H44273  13.206   8.033   9.922 -1.3216 -1.1968 -4.9074
  321MOL0     H44274  13.142   7.819  10.026  0.3213 -0.9428  0.4629
  321MOL0     H44275  13.275   7.731   9.959 -0.5003  0.1954  2.3846
  321MOL0     H44276  13.194   7.834   9.731 -0.3223 -0.0846 -0.6832
  321MOL0     H44277  13.044   7.859   9.811  0.8388  0.7352  1.5314
  321MOL0     H44278  13.190   8.320  10.591  1.0340  0.2237 -0.6859
  321MOL0     H44279  12.964   8.412  10.669 -1.5664  2.9362 -0.8025
  321MOL0     H44280  12.648   8.720  10.450 -0.9140 -0.0209 -1.5784
  321MOL0     H44281  12.452   8.847  10.453  1.0888 -0.2053  0.1152
  321MOL0     H44282  10.412   8.526  10.046 -1.0959 -0.0408 -1.3042
  321MOL0     H44283  10.210   8.472   9.974 -0.9916  1.1563  2.4046
  321MOL0     H44284   9.895   8.107   9.943 -0.1623 -0.1629  1.1379
  321MOL0     H44285   9.657   8.069   9.862  1.4461  4.8200  3.3203
  321MOL0     H44286   9.581   8.107   9.418  1.1029 -1.1572  2.0665
  321MOL0     H44287   9.426   8.091   9.479  0.1864 -0.2135  0.9241
  321MOL0     H44288   9.604   8.333   9.513 -0.0015  0.6906  1.5743
  321MOL0     H44289   9.440   8.333   9.575  0.2429  1.7141 -1.0166
  321MOL0     H44290   9.509   8.329   9.278 -0.4128  0.4237 -0.1580
  321MOL0     H44291   9.354   8.250   9.326 -1.0522 -0.8210  2.3970
  321MOL0     H44292   9.433   8.522   9.421  0.5050  0.2938  0.1312
  321MOL0     H44293   9.272   8.446   9.431 -0.3569  0.8676  0.4154
  321MOL0     H44294   9.183   8.653   9.100  1.0610 -0.5758 -0.2402
  321MOL0     H44295   9.784   8.159   9.465  0.0277 -1.9419 -0.1621
  321MOL0     H44296   9.980   8.242   9.420  1.1254  0.7208 -0.3673
  321MOL0     H44297  10.119   8.252   9.541 -0.1689 -0.9749  0.9542
  321MOL0     H44298  10.083   8.107   9.456  0.7647  0.4806 -1.6040
  322MOL0     O44299   3.358   2.155   0.988 -0.7085 -0.0491 -0.2092
  322MOL0     C44300   3.328   2.261   1.042 -0.6860 -0.1084  0.3355
  322MOL0     O44301   3.404   2.373   1.041 -0.1711  0.5014 -0.7947
  322MOL0     C44302   3.507   2.380   0.945  0.8963  0.3522  0.6687
  322MOL0     C44303   3.636   2.367   0.990 -0.5500 -0.4268  0.5315
  322MOL0     C44304   3.745   2.367   0.904 -0.6256  0.3631 -0.1168
  322MOL0     C44305   3.729   2.390   0.766 -0.0509  0.3107 -0.3885
  322MOL0     O44306   3.834   2.397   0.680  0.5345  1.0506 -0.1629
  322MOL0     C44307   3.965   2.348   0.704  0.0428 -0.8948  0.6790
  322MOL0     C44308   4.067   2.393   0.597 -0.6554 -1.0673 -0.0242
  322MOL0     C44309   4.071   2.309   0.472  0.1451  0.1957  0.2789
  322MOL0     C44310   4.213   2.306   0.406  0.4316  0.1184 -0.1490
  322MOL0     C44311   4.214   2.253   0.259  0.3268 -1.1100  0.2215
  322MOL0     C44312   4.360   2.240   0.227  0.0943  0.4028  0.5550
  322MOL0     C44313   4.381   2.194   0.081  0.9886  0.0764  0.1544
  322MOL0     C44314   4.416   2.315  -0.012 -1.5961 -0.2782  0.3702
  322MOL0     N44315   4.555   2.334   0.010 -0.7245 -0.5318  0.6059
  322MOL0     C44316   4.648   2.323  -0.097  0.9491 -0.5010 -0.4779
  322MOL0     C44317   4.741   2.411  -0.074  0.5489 -0.2981 -0.1244
  322MOL0     C44318   4.853   2.435  -0.164  0.4119 -0.2932 -0.3731
  322MOL0     C44319   4.870   2.583  -0.203  0.3643  0.7577 -0.0851
  322MOL0     C44320   4.754   2.630  -0.298 -0.0591  0.1122 -0.0556
  322MOL0     C44321   4.641   2.690  -0.220  0.1493 -0.3817  0.8424
  322MOL0     O44322   4.546   2.763  -0.307 -0.3244 -0.0731 -0.1345
  322MOL0     C44323   4.453   2.844  -0.245  0.6426  1.0771  0.3598
  322MOL0     C44324   4.466   2.900  -0.123 -0.5682  0.4588 -0.5076
  322MOL0     C44325   4.365   2.986  -0.064 -0.5097 -0.2452 -0.0525
  322MOL0     C44326   4.387   3.033   0.076  0.3376  0.1816  0.0144
  322MOL0     C44327   4.259   3.030  -0.149  0.3412  0.8404 -0.8065
  322MOL0     C44328   4.159   3.129  -0.101 -0.1310 -0.4009  0.6736
  322MOL0     O44329   4.075   3.169  -0.207  0.5464 -0.2113 -0.4465
  322MOL0     C44330   3.971   3.259  -0.181  0.1889  0.2287 -0.3777
  322MOL0     C44331   3.845   3.220  -0.134  0.2638 -0.1644  0.0211
  322MOL0     C44332   3.740   3.314  -0.114  0.6260  0.7685  0.3736
  322MOL0     C44333   3.769   3.448  -0.137 -0.4620  0.0978  0.2777
  322MOL0     O44334   3.674   3.544  -0.104  0.3408 -0.1180 -0.1852
  322MOL0     C44335   3.552   3.546  -0.183  0.4262 -0.6257 -0.3853
  322MOL0     C44336   3.459   3.659  -0.136 -0.4294  0.9347 -0.1398
  322MOL0     C44337   3.429   3.639   0.014  0.3491 -0.2553  0.8531
  322MOL0     C44338   3.319   3.735   0.061  0.3236 -0.3403  0.2558
  322MOL0     C44339   3.300   3.743   0.216 -0.5243 -0.6324  0.5593
  322MOL0     C44340   3.304   3.614   0.299  0.1515 -0.1818 -0.0052
  322MOL0     C44341   3.234   3.630   0.434 -0.0152 -0.5519  0.1506
  322MOL0     C44342   3.276   3.530   0.544 -0.0984 -0.7182 -0.5332
  322MOL0    Cl44343   3.150   3.548   0.676  0.3707 -0.1543  0.3162
  322MOL0     C44344   3.894   3.490  -0.170 -0.0429 -0.2610 -0.3197
  322MOL0     C44345   3.998   3.401  -0.206  0.2470 -0.1822 -0.5806
  322MOL0     O44346   4.146   3.176   0.012  0.0434  0.3290  0.0086
  322MOL0     C44347   4.247   2.965  -0.275  0.2201 -0.5432  1.0674
  322MOL0     C44348   4.335   2.866  -0.313  0.2604 -0.2416  0.6984
  322MOL0     N44349   4.706   2.492   0.035  0.0917  0.0730  0.2221
  322MOL0     N44350   4.605   2.440   0.087  0.8060  0.5228 -0.2354
  322MOL0     C44351   3.596   2.405   0.720  0.1690 -0.0279  0.1218
  322MOL0     C44352   3.484   2.403   0.804  0.0029  0.3928 -0.2024
  322MOL0     C44353   3.198   2.266   1.106  0.0932  0.2252  0.0380
  322MOL0     C44354   3.143   2.139   1.144  0.2526  0.0202 -0.2597
  322MOL0     C44355   3.012   2.127   1.195 -0.3272 -0.0211 -0.2819
  322MOL0     C44356   2.926   2.232   1.217  0.5065  0.0615 -0.3053
  322MOL0     O44357   2.805   2.211   1.277 -0.0064  0.5443 -0.7222
  322MOL0     C44358   2.736   2.328   1.328  0.2565  0.3771  0.3860
  322MOL0     C44359   2.611   2.281   1.397 -1.0615 -0.5293  0.5618
  322MOL0     C44360   2.509   2.221   1.298  0.0129 -0.3097  0.4517
  322MOL0     C44361   2.431   2.114   1.377 -1.3395  0.0052 -0.0844
  322MOL0     C44362   2.326   2.067   1.295 -0.0118  0.1328  0.1660
  322MOL0     C44363   2.236   2.020   1.247 -0.2278  0.4093  0.0592
  322MOL0     C44364   2.990   2.358   1.184  0.3808 -0.0379 -0.6406
  322MOL0     C44365   3.119   2.379   1.136  0.7166 -0.2235 -0.3836
  322MOL0     C44366   3.151   2.518   1.105  0.0590 -0.4138  0.4242
  322MOL0     H44367   3.648   2.364   1.098 -1.3980  3.0005  0.8409
  322MOL0     H44368   3.839   2.349   0.954  0.0554 -0.4949 -1.6175
  322MOL0     H44369   3.979   2.240   0.706  2.1106 -0.7151 -0.8114
  322MOL0     H44370   3.998   2.394   0.798 -1.6338 -2.4588  2.1305
  322MOL0     H44371   4.065   2.500   0.576 -0.3735 -1.4111 -2.0466
  322MOL0     H44372   4.163   2.368   0.642 -1.3190 -3.1630  0.3469
  322MOL0     H44373   4.045   2.206   0.498  1.3208  0.1834  1.4855
  322MOL0     H44374   3.988   2.338   0.406  0.2219  0.5320  0.3286
  322MOL0     H44375   4.260   2.405   0.410  0.7067 -0.0248  2.7025
  322MOL0     H44376   4.287   2.252   0.466 -0.8820 -1.6061 -0.0214
  322MOL0     H44377   4.157   2.331   0.208 -1.6950 -0.6223  3.0005
  322MOL0     H44378   4.159   2.159   0.247  1.3869 -1.7659  0.2751
  322MOL0     H44379   4.414   2.333   0.249  1.6758 -0.3726  0.1507
  322MOL0     H44380   4.405   2.167   0.294  2.7913 -0.1886 -1.7094
  322MOL0     H44381   4.290   2.144   0.050  1.7598 -2.8771  2.2569
  322MOL0     H44382   4.461   2.119   0.081  1.5191  0.5907  2.2300
  322MOL0     H44383   4.386   2.302  -0.117 -1.0297  4.5433 -0.6454
  322MOL0     H44384   4.373   2.407   0.030 -0.0848  1.8705 -2.4082
  322MOL0     H44385   4.622   2.265  -0.185 -2.2381  2.6799 -1.8405
  322MOL0     H44386   4.848   2.366  -0.249  1.8669 -1.3577  0.3540
  322MOL0     H44387   4.939   2.421  -0.098 -0.8908  1.8276  1.9401
  322MOL0     H44388   4.871   2.644  -0.112 -0.2832  2.2711 -1.0628
  322MOL0     H44389   4.958   2.599  -0.265 -1.7202  2.0061 -2.9056
  322MOL0     H44390   4.808   2.705  -0.358  1.4552 -0.4413  0.5725
  322MOL0     H44391   4.714   2.559  -0.371 -2.8811  2.4385 -0.9663
  322MOL0     H44392   4.590   2.606  -0.171 -0.6198 -0.5645 -0.2213
  322MOL0     H44393   4.691   2.756  -0.149  2.5306  0.0807 -1.1398
  322MOL0     H44394   4.557   2.886  -0.066 -0.2593 -2.7089 -1.5395
  322MOL0     H44395   4.309   2.995   0.142 -4.2959  1.1483 -4.3274
  322MOL0     H44396   4.388   3.142   0.088  1.3080  0.4153 -1.8266
  322MOL0     H44397   4.486   2.998   0.107  0.4561  0.6723  0.1902
  322MOL0     H44398   3.822   3.114  -0.131  2.4408 -0.7382 -1.1988
  322MOL0     H44399   3.643   3.277  -0.084  0.2440 -1.1102 -2.7251
  322MOL0     H44400   3.581   3.549  -0.289 -2.3973  0.1842 -1.2496
  322MOL0     H44401   3.494   3.453  -0.178 -0.4093 -0.0955 -0.0637
  322MOL0     H44402   3.501   3.757  -0.156 -1.3749  1.0420 -1.7058
  322MOL0     H44403   3.363   3.653  -0.187  0.8357 -0.2889 -2.5530
  322MOL0     H44404   3.517   3.662   0.075 -0.3695  1.5603  1.2743
  322MOL0     H44405   3.403   3.535   0.037  0.6719 -0.7202 -0.7987
  322MOL0     H44406   3.227   3.691   0.022  1.5177 -2.0277 -0.7828
  322MOL0     H44407   3.319   3.838   0.024 -1.0363 -0.3255  0.2510
  322MOL0     H44408   3.374   3.810   0.260 -1.8359  0.7220  0.7685
  322MOL0     H44409   3.209   3.803   0.231  0.2090  0.3610  1.1681
  322MOL0     H44410   3.408   3.583   0.317 -0.4431 -1.5347  1.2478
  322MOL0     H44411   3.255   3.534   0.244 -0.0221  0.3344 -0.6204
  322MOL0     H44412   3.125   3.627   0.417 -0.2336  3.2846 -0.1036
  322MOL0     H44413   3.247   3.733   0.468 -2.8308 -0.7104  2.0720
  322MOL0     H44414   3.372   3.555   0.592 -0.8015  0.5224  0.3105
  322MOL0     H44415   3.288   3.425   0.516 -1.7881 -1.2456  0.5871
  322MOL0     H44416   3.919   3.596  -0.177  1.3111 -0.1415  3.5338
  322MOL0     H44417   4.080   3.450  -0.257  1.1673  0.7177  1.6401
  322MOL0     H44418   4.160   2.995  -0.334 -0.3383 -0.5942  1.8530
  322MOL0     H44419   4.323   2.807  -0.404  0.2231 -0.7428  1.0238
  322MOL0     H44420   3.572   2.431   0.618 -0.9832 -0.9574  0.1353
  322MOL0     H44421   3.385   2.424   0.766 -0.0229  0.0086 -0.3543
  322MOL0     H44422   3.198   2.049   1.118  2.2715  1.1385 -0.0379
  322MOL0     H44423   2.984   2.030   1.232  2.1099  0.7512  4.2483
  322MOL0     H44424   2.806   2.386   1.389  1.8440  2.1783 -2.8840
  322MOL0     H44425   2.702   2.383   1.240  1.4649 -2.5431 -2.1142
  322MOL0     H44426   2.570   2.370   1.446 -1.3086  0.4432 -1.3245
  322MOL0     H44427   2.644   2.208   1.472 -1.1344 -1.4594 -0.2917
  322MOL0     H44428   2.444   2.305   1.269 -1.3167 -1.6301 -0.5315
  322MOL0     H44429   2.544   2.181   1.202 -1.6896 -0.4025 -0.1744
  322MOL0     H44430   2.392   2.152   1.472 -0.5825  1.7351 -0.4231
  322MOL0     H44431   2.507   2.041   1.405 -1.5330 -0.3888 -0.5852
  322MOL0     H44432   2.145   1.980   1.208  0.0634 -0.0276 -0.1732
  322MOL0     H44433   2.945   2.457   1.182  1.4712  0.5555  1.0199
  322MOL0     H44434   3.102   2.590   1.171 -2.2273  0.0797 -1.6619
  322MOL0     H44435   3.259   2.531   1.120 -0.0192  0.2708  0.4215
  322MOL0     H44436   3.134   2.537   0.999  1.1293 -0.3584  0.2492
  323MOL0     O44437   6.762  10.119   5.654  0.2715  0.1017 -0.2787
  323MOL0     C44438   6.767  10.031   5.740 -0.1025  1.3644 -0.0849
  323MOL0     O44439   6.870   9.942   5.747  0.8203  0.4002  0.0548
  323MOL0     C44440   6.980   9.951   5.656  0.3076  0.1809 -1.4926
  323MOL0     C44441   7.089  10.016   5.699 -0.0609  0.3318 -0.5899
  323MOL0     C44442   7.205  10.014   5.627  0.7443 -0.1973  0.2546
  323MOL0     C44443   7.205   9.955   5.499  0.3418 -0.4530 -0.7931
  323MOL0     O44444   7.309   9.966   5.416  0.3153 -0.2103 -0.0743
  323MOL0     C44445   7.425   9.903   5.456 -0.1302 -0.4856 -0.3026
  323MOL0     C44446   7.535   9.913   5.347 -0.5129 -0.1479  0.4649
  323MOL0     C44447   7.663   9.861   5.413  0.4797  0.0720  0.5826
  323MOL0     C44448   7.788   9.886   5.319 -0.3449  0.3236 -0.2042
  323MOL0     C44449   7.910   9.816   5.359 -0.2778 -0.1120 -0.0482
  323MOL0     C44450   8.003   9.811   5.243 -0.1417  0.6363  0.2137
  323MOL0     C44451   8.139   9.747   5.286 -0.1546  0.3415  0.6574
  323MOL0     C44452   8.237   9.760   5.172 -0.2616  0.1169  0.3122
  323MOL0     N44453   8.362   9.708   5.229 -0.3372  0.4877 -0.6319
  323MOL0     C44454   8.389   9.574   5.237 -0.2101  0.2244  0.0992
  323MOL0     C44455   8.512   9.568   5.290  0.0886 -0.1119 -0.3504
  323MOL0     C44456   8.596   9.448   5.336 -0.2684 -0.9634  0.1538
  323MOL0     C44457   8.739   9.481   5.361 -0.0624  0.3747 -0.3401
  323MOL0     C44458   8.755   9.534   5.500  0.2180 -0.5285 -0.5080
  323MOL0     C44459   8.891   9.600   5.522  0.7619 -0.2655 -0.2635
  323MOL0     O44460   8.901   9.669   5.648 -0.7168  0.0311  0.2130
  323MOL0     C44461   9.022   9.734   5.675  0.2232  0.1504 -1.1229
  323MOL0     C44462   9.047   9.857   5.611  1.3840  0.8870 -0.4601
  323MOL0     C44463   9.163   9.924   5.628 -0.1485 -0.7794 -0.1494
  323MOL0     C44464   9.173  10.066   5.573  0.9241  0.8556  0.5867
  323MOL0     C44465   9.264   9.870   5.715  0.7007  0.5430  0.3250
  323MOL0     C44466   9.403   9.913   5.736 -0.2817  0.1112  0.4307
  323MOL0     O44467   9.452   9.998   5.643 -0.9755 -0.5013 -0.0013
  323MOL0     C44468   9.579  10.054   5.671  0.2845  0.2215  0.1795
  323MOL0     C44469   9.592  10.193   5.670 -1.4442 -0.0730 -0.4784
  323MOL0     C44470   9.722  10.249   5.692  0.9197  0.1147 -0.1637
  323MOL0     C44471   9.835  10.171   5.716  0.5567  0.0101  0.8260
  323MOL0     O44472   9.956  10.230   5.721  0.3980 -0.0204 -0.4150
  323MOL0     C44473  10.055  10.163   5.802 -0.2784 -0.2521 -0.5519
  323MOL0     C44474  10.123  10.268   5.888  0.1040  0.7595  0.5519
  323MOL0     C44475  10.264  10.214   5.927  0.3383 -0.1796 -0.4738
  323MOL0     C44476  10.328  10.324   6.031  0.1847  0.6791 -0.3292
  323MOL0     C44477  10.387  10.449   5.964 -0.2444  0.6024 -0.0969
  323MOL0     C44478  10.462  10.537   6.068 -0.1794 -0.0025  0.1989
  323MOL0     C44479  10.542  10.645   5.989 -0.1800  0.1807 -0.8593
  323MOL0     C44480  10.588  10.745   6.091  0.0483  0.1749  0.2772
  323MOL0    Cl44481  10.631  10.905   6.026  0.4919 -0.4590  0.1115
  323MOL0     C44482   9.818  10.031   5.711  0.0891 -1.0274  0.3860
  323MOL0     C44483   9.693   9.979   5.685  0.5187  0.1964 -0.2021
  323MOL0     O44484   9.461   9.866   5.836 -0.8716  0.0702  0.2769
  323MOL0     C44485   9.225   9.745   5.787 -0.4252 -0.1601 -0.6033
  323MOL0     C44486   9.112   9.678   5.757 -0.1540 -0.5360  0.0144
  323MOL0     N44487   8.556   9.696   5.319 -0.0220  0.4290 -0.9838
  323MOL0     N44488   8.472   9.777   5.271 -0.0038  0.5143 -0.9407
  323MOL0     C44489   7.092   9.891   5.460 -0.2449  0.4114  0.0095
  323MOL0     C44490   6.978   9.883   5.540 -0.8685 -0.1769  0.3878
  323MOL0     C44491   6.671  10.029   5.846 -0.4699 -0.3921 -0.0035
  323MOL0     C44492   6.599  10.146   5.878  0.1113  0.0434  0.3221
  323MOL0     C44493   6.493  10.144   5.971 -0.9902  0.0527  0.6445
  323MOL0     C44494   6.455  10.026   6.029 -0.5163 -0.1332 -0.5217
  323MOL0     O44495   6.344  10.011   6.112  0.4208  0.5787  0.0715
  323MOL0     C44496   6.252  10.117   6.132 -0.0993  1.2008  0.1576
  323MOL0     C44497   6.140  10.085   6.225 -0.2754 -0.2240  0.7117
  323MOL0     C44498   6.053   9.971   6.180  0.3663 -0.2110  0.1284
  323MOL0     C44499   5.949   9.923   6.285 -0.1044 -0.7491 -0.1219
  323MOL0     C44500   5.853   9.827   6.234 -0.1404 -0.0739 -0.0203
  323MOL0     C44501   5.777   9.742   6.198 -0.1352 -0.7248 -0.5011
  323MOL0     C44502   6.536   9.910   6.009 -0.4763  0.7778 -0.1044
  323MOL0     C44503   6.641   9.909   5.916 -0.5149 -0.6779  0.1363
  323MOL0     C44504   6.703   9.771   5.890 -1.0126 -0.8531  0.4904
  323MOL0     H44505   7.079  10.059   5.799  0.9800  0.2368 -0.4347
  323MOL0     H44506   7.291  10.069   5.666 -1.2955  2.6961  1.0298
  323MOL0     H44507   7.393   9.800   5.475 -1.2563  0.2254  2.0689
  323MOL0     H44508   7.473   9.949   5.543  0.7438 -0.6562 -0.6891
  323MOL0     H44509   7.516   9.857   5.255 -0.6448  1.1808 -0.3453
  323MOL0     H44510   7.552  10.019   5.324  0.5987 -0.8064 -2.0188
  323MOL0     H44511   7.700   9.927   5.492 -0.9160 -0.6393  1.8644
  323MOL0     H44512   7.650   9.758   5.447 -0.3117 -0.2267 -0.5468
  323MOL0     H44513   7.750   9.840   5.227 -1.6224  1.3478 -0.2212
  323MOL0     H44514   7.793   9.995   5.302 -0.8384  0.3513 -0.1800
  323MOL0     H44515   7.894   9.710   5.383  0.5018 -0.4651 -1.0160
  323MOL0     H44516   7.949   9.866   5.448 -1.6657  1.7343 -0.4121
  323MOL0     H44517   7.952   9.753   5.166 -0.1327 -0.5822  1.1040
  323MOL0     H44518   8.022   9.908   5.197  2.0159  0.5967  0.8985
  323MOL0     H44519   8.115   9.644   5.314 -1.2449  0.1875 -0.6904
  323MOL0     H44520   8.173   9.807   5.371  0.2373  1.9179 -0.5699
  323MOL0     H44521   8.203   9.704   5.085 -0.7353 -0.0618  0.6053
  323MOL0     H44522   8.240   9.866   5.146 -1.4055  0.3396  1.0175
  323MOL0     H44523   8.326   9.488   5.218  1.3944 -0.5047 -2.3882
  323MOL0     H44524   8.583   9.370   5.260 -1.1143  1.1538 -2.0128
  323MOL0     H44525   8.555   9.411   5.430 -1.4445 -0.3194 -0.0964
  323MOL0     H44526   8.806   9.395   5.353 -0.3873  0.1443 -0.5543
  323MOL0     H44527   8.774   9.547   5.281 -2.3863 -0.0134 -1.7582
  323MOL0     H44528   8.671   9.600   5.525  0.6680  0.8533 -2.4197
  323MOL0     H44529   8.756   9.460   5.580 -1.9839  1.7448  1.8549
  323MOL0     H44530   8.950   9.508   5.528  0.4055 -0.4508  0.6394
  323MOL0     H44531   8.917   9.661   5.435 -0.5542  0.6030 -0.0778
  323MOL0     H44532   8.969   9.895   5.546 -0.0403  1.4842  1.5238
  323MOL0     H44533   9.200  10.058   5.467  1.7547 -0.6507  0.8841
  323MOL0     H44534   9.250  10.125   5.624 -0.2523  3.8052 -0.7950
  323MOL0     H44535   9.080  10.120   5.593 -1.8409 -3.5735  0.9166
  323MOL0     H44536   9.506  10.251   5.639 -0.4368  1.9829  0.3382
  323MOL0     H44537   9.738  10.356   5.692 -0.0359  0.3265  2.3868
  323MOL0     H44538  10.010  10.102   5.881 -1.0185  3.1039  1.8383
  323MOL0     H44539  10.126  10.115   5.735  2.1237  1.5539  0.5423
  323MOL0     H44540  10.130  10.360   5.829 -0.7923  0.8022  0.4992
  323MOL0     H44541  10.054  10.280   5.972 -2.4081  1.0747 -1.4164
  323MOL0     H44542  10.322  10.193   5.837 -1.9963 -4.2297 -1.2408
  323MOL0     H44543  10.266  10.128   5.995 -2.3108 -1.4832 -1.8948
  323MOL0     H44544  10.402  10.279   6.098  0.4103  2.2431  0.5065
  323MOL0     H44545  10.244  10.350   6.096 -0.2338 -2.6986  0.6765
  323MOL0     H44546  10.450  10.409   5.884 -0.1378 -0.7747  0.6454
  323MOL0     H44547  10.305  10.497   5.908 -0.3876 -1.8022 -2.1336
  323MOL0     H44548  10.539  10.472   6.111 -0.4873  1.6215  3.4927
  323MOL0     H44549  10.402  10.585   6.145  0.3206 -0.9940  1.2465
  323MOL0     H44550  10.478  10.693   5.914 -0.8642 -1.1068 -1.1286
  323MOL0     H44551  10.625  10.599   5.934 -2.1908  0.2044 -4.2303
  323MOL0     H44552  10.672  10.697   6.143  0.7056  0.4664 -0.4948
  323MOL0     H44553  10.517  10.765   6.172  0.3611 -0.3428  0.6856
  323MOL0     H44554   9.911   9.975   5.708  0.4230 -0.6263  1.9636
  323MOL0     H44555   9.678   9.872   5.671 -0.7922  0.3687 -0.2619
  323MOL0     H44556   9.289   9.697   5.860  0.9242  0.1347 -1.5477
  323MOL0     H44557   9.083   9.579   5.792 -0.6322 -0.1559  0.7248
  323MOL0     H44558   7.081   9.882   5.352 -1.4061  1.7010 -0.0165
  323MOL0     H44559   6.888   9.846   5.492 -0.9655 -0.9847  1.1616
  323MOL0     H44560   6.620  10.234   5.818  3.9918 -1.5188 -0.8783
  323MOL0     H44561   6.443  10.240   5.967 -0.3484  0.4026  0.7845
  323MOL0     H44562   6.313  10.195   6.179  0.6360  0.8987 -0.2786
  323MOL0     H44563   6.206  10.152   6.039  3.0736  1.4973 -1.4211
  323MOL0     H44564   6.079  10.176   6.224  0.5325  0.3579 -1.4464
  323MOL0     H44565   6.181  10.059   6.322  0.3885 -1.4196  0.1282
  323MOL0     H44566   5.996   9.995   6.090  0.4418  3.6997  0.9291
  323MOL0     H44567   6.130   9.895   6.166  0.6674 -0.1609  1.3667
  323MOL0     H44568   5.896   9.999   6.343  1.3294 -0.2863  0.6320
  323MOL0     H44569   6.013   9.872   6.358  0.3016 -1.8383 -1.2146
  323MOL0     H44570   5.709   9.665   6.168 -0.4867  0.1106 -1.9000
  323MOL0     H44571   6.507   9.820   6.061  1.0119 -1.6840 -3.2265
  323MOL0     H44572   6.812   9.768   5.905 -0.8671 -4.3806 -0.4537
  323MOL0     H44573   6.650   9.696   5.949 -2.8430 -1.3289 -1.6637
  323MOL0     H44574   6.698   9.746   5.784  0.2477  1.7774 -0.2894
  324MOL0     O44575   9.241   1.677   6.301 -0.9346 -0.0541  0.1908
  324MOL0     C44576   9.231   1.650   6.183 -0.0275 -0.0316 -0.5627
  324MOL0     O44577   9.296   1.716   6.084  0.1830  0.1757 -0.0114
  324MOL0     C44578   9.382   1.815   6.126 -0.1804  0.3583  0.3563
  324MOL0     C44579   9.509   1.786   6.198  0.5301  0.6268 -0.2277
  324MOL0     C44580   9.592   1.886   6.228  0.8912  0.2597 -0.2249
  324MOL0     C44581   9.568   2.018   6.209 -0.0766 -0.3658  0.3844
  324MOL0     O44582   9.659   2.111   6.256  0.2070 -0.7406  0.0974
  324MOL0     C44583   9.669   2.239   6.178 -1.1747  0.9743 -0.3444
  324MOL0     C44584   9.792   2.242   6.088 -0.2319  0.0192  0.7540
  324MOL0     C44585   9.842   2.378   6.054  0.2034  0.6142  0.7405
  324MOL0     C44586   9.947   2.440   6.144  0.0595 -0.6805  0.3239
  324MOL0     C44587  10.089   2.403   6.101 -0.9775  0.6883  0.5412
  324MOL0     C44588  10.191   2.492   6.171  0.6653  0.0105  0.1547
  324MOL0     C44589  10.331   2.448   6.134 -0.0261  0.4486  0.6572
  324MOL0     C44590  10.349   2.455   5.975  1.0436  0.6143  0.3119
  324MOL0     N44591  10.483   2.434   5.938 -0.2315  0.7164  0.1264
  324MOL0     C44592  10.554   2.309   5.947  0.1036  0.6010  0.1129
  324MOL0     C44593  10.682   2.352   5.924  0.1673  0.0179  1.0076
  324MOL0     C44594  10.797   2.254   5.932 -0.4860 -0.4498  0.3556
  324MOL0     C44595  10.930   2.311   5.884  0.1355  0.1460 -0.4623
  324MOL0     C44596  11.021   2.197   5.858 -0.1327  0.2438  0.6664
  324MOL0     C44597  11.165   2.235   5.831 -0.4782 -0.4834  0.2156
  324MOL0     O44598  11.246   2.238   5.946 -0.0694 -0.0067  0.4309
  324MOL0     C44599  11.380   2.257   5.951 -0.4684 -0.5911  1.5105
  324MOL0     C44600  11.451   2.235   6.068  1.1184  0.6628  0.7831
  324MOL0     C44601  11.587   2.249   6.082  0.5916 -0.0546 -0.1516
  324MOL0     C44602  11.649   2.225   6.225  0.5142 -0.1804  0.2517
  324MOL0     C44603  11.661   2.306   5.973 -0.4407  0.4405  0.1481
  324MOL0     C44604  11.809   2.348   5.962 -0.2261 -0.2082  0.6984
  324MOL0     O44605  11.860   2.367   5.836  0.3063  0.2990 -0.3962
  324MOL0     C44606  11.994   2.371   5.825  0.1884  0.2682  0.7732
  324MOL0     C44607  12.096   2.300   5.893  0.5974 -0.8719 -0.0157
  324MOL0     C44608  12.229   2.331   5.862  0.0647  0.6283  0.2119
  324MOL0     C44609  12.262   2.430   5.769  0.2229 -0.0834  0.3611
  324MOL0     O44610  12.391   2.460   5.765 -0.0200 -0.5760 -0.0617
  324MOL0     C44611  12.446   2.562   5.677  0.3735 -0.3708  0.3829
  324MOL0     C44612  12.575   2.628   5.730 -0.2390  0.3464 -0.5472
  324MOL0     C44613  12.685   2.649   5.625 -1.2243  0.3123  0.8586
  324MOL0     C44614  12.657   2.778   5.539  0.3935  0.7587  0.4903
  324MOL0     C44615  12.726   2.786   5.404 -0.2410 -0.4670  0.7394
  324MOL0     C44616  12.881   2.765   5.417 -0.1599  0.0670  0.0886
  324MOL0     C44617  12.948   2.782   5.274  0.8448  0.2839 -0.2058
  324MOL0     C44618  13.094   2.801   5.294  0.0618  0.1063 -0.2162
  324MOL0    Cl44619  13.133   2.964   5.349  0.0892 -0.2578 -0.3744
  324MOL0     C44620  12.162   2.499   5.698  0.2595 -0.5425  0.1128
  324MOL0     C44621  12.027   2.459   5.724 -0.8069 -1.1783 -0.5697
  324MOL0     O44622  11.871   2.366   6.065  0.0434 -0.3891 -0.0852
  324MOL0     C44623  11.592   2.327   5.851  0.9245 -0.4405  0.1304
  324MOL0     C44624  11.456   2.296   5.838  0.6256  0.4082  0.7982
  324MOL0     N44625  10.683   2.487   5.910  0.3473 -0.3911  0.0366
  324MOL0     N44626  10.562   2.539   5.923  0.5968 -0.4975  0.6379
  324MOL0     C44627   9.445   2.053   6.147  0.4474  0.0140 -0.5315
  324MOL0     C44628   9.359   1.953   6.104 -0.1738 -0.4368 -0.2615
  324MOL0     C44629   9.146   1.529   6.140  0.6639  0.2983  0.2696
  324MOL0     C44630   9.155   1.487   6.007 -0.5683  0.6292 -0.4868
  324MOL0     C44631   9.075   1.389   5.939 -1.1622  0.4264  0.2435
  324MOL0     C44632   8.993   1.307   6.022 -0.0129  0.4413  0.1276
  324MOL0     O44633   8.926   1.200   5.968  0.5292  1.1389 -0.0708
  324MOL0     C44634   8.945   1.167   5.821  0.1965 -0.5164 -0.3019
  324MOL0     C44635   8.858   1.260   5.736 -0.0679 -0.5714  0.0999
  324MOL0     C44636   8.708   1.235   5.743 -0.6990 -0.0849 -0.8001
  324MOL0     C44637   8.618   1.340   5.673  0.1757  1.4841  0.5166
  324MOL0     C44638   8.640   1.345   5.531 -0.5285 -0.9462  0.0228
  324MOL0     C44639   8.671   1.353   5.415  0.1085  0.2686 -0.1497
  324MOL0     C44640   8.981   1.339   6.164  0.4943  0.0857 -0.5224
  324MOL0     C44641   9.053   1.449   6.221  0.8445  0.2297  0.1076
  324MOL0     C44642   9.038   1.477   6.375  0.6041  0.0610 -0.5271
  324MOL0     H44643   9.541   1.689   6.234  1.4342  0.5685 -1.1498
  324MOL0     H44644   9.684   1.869   6.283  1.1097 -0.8148 -0.8778
  324MOL0     H44645   9.683   2.329   6.239 -3.2468  0.6850  0.6258
  324MOL0     H44646   9.578   2.261   6.123 -2.4256 -1.1827  0.7280
  324MOL0     H44647   9.871   2.192   6.146  0.2693  0.4568  0.4519
  324MOL0     H44648   9.771   2.183   5.998 -3.9040  1.4653  0.4969
  324MOL0     H44649   9.890   2.364   5.957  1.4854 -0.5699  1.5163
  324MOL0     H44650   9.756   2.442   6.033 -1.9388 -2.9734 -2.5868
  324MOL0     H44651   9.927   2.547   6.136  1.0285 -0.6347 -3.0152
  324MOL0     H44652   9.929   2.401   6.244 -0.6001 -0.0568  0.4517
  324MOL0     H44653  10.085   2.410   5.992 -1.4737 -0.5386  0.4570
  324MOL0     H44654  10.116   2.297   6.112 -2.0807  0.2291 -0.9036
  324MOL0     H44655  10.188   2.596   6.137 -1.3815  0.5513  1.7732
  324MOL0     H44656  10.178   2.493   6.279 -0.5540 -1.5298  0.0497
  324MOL0     H44657  10.340   2.341   6.155 -4.5270 -0.4058 -0.6727
  324MOL0     H44658  10.407   2.510   6.182  0.2219  0.1482  0.6627
  324MOL0     H44659  10.293   2.377   5.921  1.7274  1.6296 -1.9924
  324MOL0     H44660  10.315   2.550   5.934  1.5449  0.9817  0.7313
  324MOL0     H44661  10.530   2.205   5.964 -1.8239  0.2185 -3.6631
  324MOL0     H44662  10.772   2.167   5.871 -1.4094 -0.1783  0.3334
  324MOL0     H44663  10.808   2.230   6.038 -1.4808  0.8057  0.7628
  324MOL0     H44664  10.911   2.358   5.787 -3.0325  0.2785  0.1237
  324MOL0     H44665  10.979   2.372   5.960 -0.5028 -0.6365  0.6090
  324MOL0     H44666  11.020   2.117   5.933 -2.0123 -2.3317 -1.8857
  324MOL0     H44667  10.988   2.166   5.759 -0.1011  3.1622 -0.3336
  324MOL0     H44668  11.214   2.171   5.757  0.2395  0.3324 -0.0373
  324MOL0     H44669  11.159   2.335   5.786 -1.7667 -1.1316 -1.1290
  324MOL0     H44670  11.402   2.201   6.159  2.5072 -1.8233  0.6903
  324MOL0     H44671  11.569   2.208   6.299 -0.7234 -0.4419 -1.1018
  324MOL0     H44672  11.718   2.305   6.252  2.7223 -1.2744 -1.8248
  324MOL0     H44673  11.708   2.133   6.229  1.0876  0.2217  1.5687
  324MOL0     H44674  12.061   2.227   5.965 -4.3973  0.0921 -1.1159
  324MOL0     H44675  12.316   2.289   5.912 -0.3237  1.1289  1.3462
  324MOL0     H44676  12.466   2.517   5.579  0.8261 -0.4380  0.5050
  324MOL0     H44677  12.374   2.644   5.663 -0.4962 -0.9465  1.3624
  324MOL0     H44678  12.562   2.722   5.784 -0.7805 -0.7011  1.2144
  324MOL0     H44679  12.606   2.557   5.808  0.1455  1.1339  0.0267
  324MOL0     H44680  12.687   2.560   5.561 -0.5359  1.2143 -0.4351
  324MOL0     H44681  12.777   2.656   5.682 -0.6285  0.6380 -0.1214
  324MOL0     H44682  12.688   2.863   5.601  0.0825  0.7237  0.6982
  324MOL0     H44683  12.548   2.780   5.530  0.4798 -0.3780 -1.2282
  324MOL0     H44684  12.677   2.709   5.345 -0.5185 -0.0565  0.4271
  324MOL0     H44685  12.707   2.884   5.359  1.3780 -1.2241 -1.7854
  324MOL0     H44686  12.902   2.671   5.469 -0.3589  0.6909  1.3650
  324MOL0     H44687  12.925   2.841   5.483 -0.6461  2.5614 -2.2799
  324MOL0     H44688  12.916   2.874   5.226 -4.0614  0.3774  2.5208
  324MOL0     H44689  12.924   2.696   5.211 -1.3177  1.0158 -0.4714
  324MOL0     H44690  13.147   2.789   5.199 -0.8655  0.4345 -0.7917
  324MOL0     H44691  13.133   2.722   5.359  1.2164 -1.0078 -2.1417
  324MOL0     H44692  12.195   2.579   5.633  1.6242  0.0572  1.4749
  324MOL0     H44693  11.949   2.510   5.667 -2.1039 -0.0402  2.0711
  324MOL0     H44694  11.640   2.366   5.761  0.2716 -1.3161 -0.6176
  324MOL0     H44695  11.399   2.320   5.749  1.7468  2.7724  0.6333
  324MOL0     H44696   9.409   2.152   6.124  0.6069  0.5237  1.2745
  324MOL0     H44697   9.263   1.981   6.062 -0.7775 -1.4769  0.3818
  324MOL0     H44698   9.210   1.549   5.936  1.3828 -1.6271 -1.1003
  324MOL0     H44699   9.093   1.378   5.832  2.6458  0.0352  0.7650
  324MOL0     H44700   9.045   1.178   5.779  0.9025  0.8885  1.6157
  324MOL0     H44701   8.912   1.064   5.807 -0.5819 -0.4784  1.0019
  324MOL0     H44702   8.901   1.244   5.636 -1.0303  0.6682 -0.5375
  324MOL0     H44703   8.878   1.362   5.770  0.4524 -0.8751  0.7463
  324MOL0     H44704   8.678   1.136   5.705 -0.8235 -0.2756 -0.2167
  324MOL0     H44705   8.688   1.238   5.850  0.3408 -2.0279 -0.5087
  324MOL0     H44706   8.647   1.427   5.733  0.2300  0.5117  1.9771
  324MOL0     H44707   8.512   1.317   5.689  0.2367  0.4887 -0.4419
  324MOL0     H44708   8.701   1.370   5.314  0.0488  2.1874  0.1261
  324MOL0     H44709   8.910   1.285   6.225  0.1200 -0.1712 -1.1707
  324MOL0     H44710   8.990   1.392   6.424 -0.3820 -1.4989 -3.9414
  324MOL0     H44711   9.137   1.502   6.415 -0.7416  0.4148  2.8997
  324MOL0     H44712   8.972   1.564   6.378  3.4676  2.4295 -0.2899
  325MOL0     O44713  10.608   6.278   3.102 -0.2389 -0.5167  0.2312
  325MOL0     C44714  10.532   6.369   3.056 -0.7733  0.0631 -0.0957
  325MOL0     O44715  10.568   6.491   3.019  0.4223 -0.1385 -0.1977
  325MOL0     C44716  10.707   6.518   3.014 -0.3288 -0.2860  0.6390
  325MOL0     C44717  10.738   6.645   3.063 -0.3697  0.0608  0.3697
  325MOL0     C44718  10.878   6.684   3.058 -0.3965  0.2763  0.8954
  325MOL0     C44719  10.971   6.610   2.987  0.2266  0.5193 -0.7854
  325MOL0     O44720  11.101   6.646   2.975  0.7240  0.2249 -0.7207
  325MOL0     C44721  11.160   6.708   3.095  0.7854  0.2672 -0.1401
  325MOL0     C44722  11.307   6.667   3.130 -0.6679  0.5762  0.7650
  325MOL0     C44723  11.369   6.727   3.258 -0.5552  0.9183  0.8348
  325MOL0     C44724  11.387   6.876   3.234  1.2480  0.2293 -0.3262
  325MOL0     C44725  11.486   6.935   3.347 -0.2769  0.7679 -0.3707
  325MOL0     C44726  11.503   7.084   3.320  0.8489  0.2292 -0.0123
  325MOL0     C44727  11.623   7.124   3.402 -0.6423  0.0606  0.1754
  325MOL0     C44728  11.660   7.275   3.364 -0.4237  1.0023  0.1647
  325MOL0     N44729  11.777   7.320   3.447 -0.0176  1.2426  0.4624
  325MOL0     C44730  11.791   7.326   3.585 -1.1976  0.2940  0.6969
  325MOL0     C44731  11.919   7.349   3.607  0.2897 -0.4933 -0.0133
  325MOL0     C44732  11.968   7.371   3.752  0.2245 -0.5966  0.3550
  325MOL0     C44733  12.119   7.342   3.758  1.0022 -0.0153 -0.5553
  325MOL0     C44734  12.162   7.308   3.897  0.4049  0.5120 -0.0554
  325MOL0     C44735  12.316   7.292   3.898 -0.5946 -0.3715 -0.3406
  325MOL0     O44736  12.376   7.426   3.890  0.0200  0.2114 -0.3702
  325MOL0     C44737  12.511   7.421   3.919 -0.3418 -0.3851 -0.1918
  325MOL0     C44738  12.597   7.324   3.856  0.1343 -0.6139 -0.4231
  325MOL0     C44739  12.739   7.330   3.869  0.0685  0.8047  0.3899
  325MOL0     C44740  12.823   7.238   3.780  0.0676 -0.6751  0.6123
  325MOL0     C44741  12.789   7.428   3.943 -0.7064  0.0605  0.1632
  325MOL0     C44742  12.936   7.436   3.965  0.1486 -0.2149  0.6602
  325MOL0     O44743  12.978   7.560   4.007  0.8214 -0.7490 -0.3396
  325MOL0     C44744  13.113   7.589   4.019  1.2296  0.1630  0.3865
  325MOL0     C44745  13.191   7.623   3.909 -0.3421  0.8804  0.5602
  325MOL0     C44746  13.315   7.674   3.916 -0.1651 -1.0507  0.6821
  325MOL0     C44747  13.374   7.711   4.042  0.3999  0.7622 -0.5573
  325MOL0     O44748  13.495   7.779   4.069 -0.7003  0.1619  0.1031
  325MOL0     C44749  13.561   7.833   3.953  0.2408  0.4565 -0.3404
  325MOL0     C44750  13.677   7.918   4.010 -0.6679  0.1668  0.7106
  325MOL0     C44751  13.803   7.921   3.920  0.1361 -0.1452  0.4928
  325MOL0     C44752  13.927   7.857   3.992  0.7662 -0.2188  0.4782
  325MOL0     C44753  14.052   7.865   3.906 -0.3407 -0.1503 -0.2457
  325MOL0     C44754  14.126   7.997   3.911  0.0033  0.0106 -0.0839
  325MOL0     C44755  14.215   8.003   3.787 -0.1696 -0.2693  0.3856
  325MOL0     C44756  14.261   8.151   3.759  0.7332  1.2103  0.8035
  325MOL0    Cl44757  14.328   8.229   3.912  0.2198 -0.0200  0.7184
  325MOL0     C44758  13.295   7.671   4.153 -0.3562 -0.8718 -0.2035
  325MOL0     C44759  13.170   7.623   4.140 -0.0961  0.2848 -0.1015
  325MOL0     O44760  13.015   7.341   3.955  0.4590 -0.2391 -0.1082
  325MOL0     C44761  12.710   7.509   4.022 -1.1104  0.2379 -0.3093
  325MOL0     C44762  12.570   7.506   4.009 -0.3315  0.0844 -0.5306
  325MOL0     N44763  11.982   7.373   3.488 -0.0021 -0.7664 -0.5059
  325MOL0     N44764  11.894   7.352   3.391 -0.6535 -0.5866 -0.0192
  325MOL0     C44765  10.935   6.489   2.921  0.3923 -0.9042  0.2698
  325MOL0     C44766  10.801   6.442   2.946  0.2358 -0.3545  0.2081
  325MOL0     C44767  10.388   6.326   3.023 -0.5508 -0.1570 -0.0708
  325MOL0     C44768  10.298   6.433   2.991 -0.9392  0.7601 -0.1763
  325MOL0     C44769  10.163   6.414   2.950 -0.5157  0.0872  0.7863
  325MOL0     C44770  10.110   6.284   2.962  0.1373  1.3452  0.1569
  325MOL0     O44771   9.972   6.284   2.922 -0.3491 -0.2519 -0.6222
  325MOL0     C44772   9.907   6.158   2.932 -0.3393  0.1674  0.2445
  325MOL0     C44773   9.758   6.177   2.907 -0.1580  0.0174  0.2932
  325MOL0     C44774   9.732   6.230   2.759  0.3941 -0.3733 -0.1323
  325MOL0     C44775   9.744   6.380   2.748  0.0886  0.9953  0.7030
  325MOL0     C44776   9.696   6.417   2.612  0.6298 -0.1575  0.0592
  325MOL0     C44777   9.656   6.467   2.509  0.2733  0.6296 -0.6234
  325MOL0     C44778  10.196   6.176   3.003 -0.0823 -0.0606  0.2470
  325MOL0     C44779  10.332   6.197   3.028 -0.0839 -0.1520 -0.1271
  325MOL0     C44780  10.421   6.074   3.046 -0.4830 -0.5709  0.5968
  325MOL0     H44781  10.667   6.713   3.108  1.0453  1.7379  0.2122
  325MOL0     H44782  10.902   6.789   3.074 -1.0123  0.0848  3.4461
  325MOL0     H44783  11.094   6.670   3.174  0.4073  1.7822  0.3061
  325MOL0     H44784  11.144   6.816   3.096  0.2141  0.1975 -1.0717
  325MOL0     H44785  11.294   6.559   3.143 -0.0566  0.5624  1.3122
  325MOL0     H44786  11.370   6.686   3.043 -2.0555 -2.2031 -0.9774
  325MOL0     H44787  11.296   6.714   3.338  2.0226 -3.4577  2.8893
  325MOL0     H44788  11.464   6.680   3.285 -0.9603 -1.0487 -0.9579
  325MOL0     H44789  11.412   6.912   3.134 -0.0178  0.8931 -0.4248
  325MOL0     H44790  11.297   6.926   3.270  2.3103  1.2134  1.0943
  325MOL0     H44791  11.586   6.889   3.347  0.0432  1.4473 -0.8643
  325MOL0     H44792  11.451   6.909   3.448  0.2717  1.4959  0.0154
  325MOL0     H44793  11.524   7.102   3.214  1.2571  0.8295  0.1641
  325MOL0     H44794  11.415   7.141   3.351  0.8537  1.0357 -1.4022
  325MOL0     H44795  11.703   7.056   3.372 -1.4666 -0.7148 -0.3458
  325MOL0     H44796  11.603   7.111   3.508  0.9899  0.0823  0.5121
  325MOL0     H44797  11.677   7.282   3.256 -3.5694 -0.6929 -0.5914
  325MOL0     H44798  11.578   7.348   3.367  0.7528  2.4487 -1.2693
  325MOL0     H44799  11.705   7.309   3.649 -1.6147  2.2177  0.7226
  325MOL0     H44800  11.935   7.286   3.814  0.0302 -2.0368 -1.6220
  325MOL0     H44801  11.940   7.468   3.793 -0.2731 -0.5290 -0.1365
  325MOL0     H44802  12.142   7.259   3.692 -0.2521 -0.4995 -0.4126
  325MOL0     H44803  12.177   7.430   3.727  1.7453 -0.0158  0.7196
  325MOL0     H44804  12.122   7.384   3.965 -0.2019  0.5320 -0.4358
  325MOL0     H44805  12.116   7.214   3.928 -0.6803  1.0887  0.0950
  325MOL0     H44806  12.356   7.227   3.976  1.9689 -0.4379 -1.5939
  325MOL0     H44807  12.335   7.236   3.806 -0.7849 -0.9970 -0.0099
  325MOL0     H44808  12.555   7.242   3.799 -4.3629  0.4156  0.9587
  325MOL0     H44809  12.891   7.301   3.722  1.8953 -0.6617  2.6509
  325MOL0     H44810  12.770   7.195   3.695  0.1205  0.9780 -0.2983
  325MOL0     H44811  12.872   7.157   3.834 -0.0552 -0.1441  1.5410
  325MOL0     H44812  13.149   7.610   3.809  2.1071  1.0110 -0.5682
  325MOL0     H44813  13.375   7.692   3.828 -1.4889  0.2554  0.0041
  325MOL0     H44814  13.603   7.757   3.886 -1.0156 -1.0197  0.4691
  325MOL0     H44815  13.493   7.892   3.892 -0.7660 -1.5943 -1.3051
  325MOL0     H44816  13.641   8.015   4.045 -1.1643  0.1135  0.3527
  325MOL0     H44817  13.710   7.865   4.100 -2.5721 -1.3578  0.5623
  325MOL0     H44818  13.829   8.025   3.898  0.3696 -0.6737 -2.1785
  325MOL0     H44819  13.785   7.874   3.822 -0.4217 -0.6205  0.8212
  325MOL0     H44820  13.900   7.752   4.010 -3.3716  0.1178 -2.2493
  325MOL0     H44821  13.945   7.911   4.085  0.3614 -1.2466  1.1678
  325MOL0     H44822  14.111   7.780   3.941  2.1923  0.8671 -1.7646
  325MOL0     H44823  14.025   7.838   3.804 -0.3420  0.5411 -0.4349
  325MOL0     H44824  14.185   8.024   3.998  1.5039 -0.3917 -0.9501
  325MOL0     H44825  14.050   8.076   3.910 -0.8078 -0.7417 -1.1640
  325MOL0     H44826  14.156   7.981   3.697 -0.0398 -1.8007  0.6577
  325MOL0     H44827  14.303   7.939   3.793  0.0275 -0.0608 -0.1493
  325MOL0     H44828  14.181   8.213   3.719 -0.1612 -0.3687  0.0185
  325MOL0     H44829  14.332   8.160   3.676 -0.1228  1.7762  0.1142
  325MOL0     H44830  13.344   7.684   4.249  1.4334  0.6520 -1.2753
  325MOL0     H44831  13.106   7.620   4.227 -1.6107 -1.2705 -1.2126
  325MOL0     H44832  12.760   7.567   4.100  1.9862  0.9504 -2.6479
  325MOL0     H44833  12.522   7.578   4.074  0.4963  1.6478 -1.5861
  325MOL0     H44834  11.001   6.424   2.864 -0.0343 -1.6570  0.6223
  325MOL0     H44835  10.782   6.350   2.893  0.4815 -0.3782  0.1597
  325MOL0     H44836  10.336   6.535   2.992  1.2826  0.0013 -1.7169
  325MOL0     H44837  10.089   6.489   2.924  0.0961 -0.4115 -2.8459
  325MOL0     H44838   9.946   6.090   2.856 -0.7893  0.6326 -0.4032
  325MOL0     H44839   9.924   6.116   3.032  1.0035  0.5532  0.2089
  325MOL0     H44840   9.719   6.253   2.975 -1.2890 -0.5858  0.3444
  325MOL0     H44841   9.698   6.088   2.927  1.9532 -1.0178  2.4708
  325MOL0     H44842   9.800   6.185   2.686 -1.4577 -2.7315 -0.5424
  325MOL0     H44843   9.631   6.199   2.729 -0.3467  0.4649  1.3942
  325MOL0     H44844   9.847   6.414   2.762 -0.0097  1.4313  0.4048
  325MOL0     H44845   9.689   6.436   2.825  1.7623  3.0451  0.4996
  325MOL0     H44846   9.628   6.493   2.409  0.2283 -1.8099 -1.3002
  325MOL0     H44847  10.150   6.077   3.010 -1.5948  0.6508  0.9229
  325MOL0     H44848  10.504   6.065   2.976 -0.4120  0.6969  0.4895
  325MOL0     H44849  10.470   6.073   3.143  1.0595  2.1801 -0.0524
  325MOL0     H44850  10.352   5.989   3.047 -3.0593  1.3734  0.2076
  326MOL0     O44851   3.092   6.459   8.250  0.0694 -0.4407 -0.5964
  326MOL0     C44852   3.008   6.527   8.187 -0.5663 -0.3848 -0.5800
  326MOL0     O44853   3.039   6.614   8.088 -0.7625 -0.0550  0.3035
  326MOL0     C44854   3.173   6.631   8.066 -0.5748 -0.0557 -0.2970
  326MOL0     C44855   3.251   6.546   7.989 -1.4562 -0.5712  0.3733
  326MOL0     C44856   3.384   6.569   7.964 -0.0472 -0.3000 -0.2282
  326MOL0     C44857   3.446   6.677   8.027 -0.0013  0.5002  0.6285
  326MOL0     O44858   3.582   6.689   8.002 -0.6313  0.6315  0.6210
  326MOL0     C44859   3.631   6.819   8.002  0.2163  0.1717  0.0998
  326MOL0     C44860   3.766   6.822   7.935  0.4294  1.1213  0.9182
  326MOL0     C44861   3.844   6.944   7.974 -0.1978  0.4158 -0.0622
  326MOL0     C44862   3.991   6.931   7.921  0.4813 -0.3846 -0.2032
  326MOL0     C44863   4.062   7.070   7.942 -0.2361  0.7532 -0.3653
  326MOL0     C44864   4.216   7.071   7.938 -0.4965  0.0084  0.7113
  326MOL0     C44865   4.267   7.030   7.802  0.2665 -0.4505  0.7507
  326MOL0     C44866   4.417   7.042   7.784 -0.2024 -0.2791 -0.8698
  326MOL0     N44867   4.502   6.958   7.869  0.0852 -0.1059 -0.5163
  326MOL0     C44868   4.485   6.822   7.891 -0.1315 -0.4128  0.0852
  326MOL0     C44869   4.557   6.778   8.000 -1.1747  0.2600 -0.1261
  326MOL0     C44870   4.543   6.641   8.064  0.0253 -0.3172  0.4856
  326MOL0     C44871   4.537   6.525   7.967 -0.2553 -0.1018  0.3277
  326MOL0     C44872   4.580   6.397   8.042 -1.3442 -0.9074  0.8589
  326MOL0     C44873   4.585   6.282   7.949 -0.9606  0.7078  0.1712
  326MOL0     O44874   4.476   6.278   7.857  0.1387  0.0532  0.2095
  326MOL0     C44875   4.364   6.215   7.884  0.5078  0.5392 -0.2122
  326MOL0     C44876   4.272   6.229   7.786  0.1357 -0.6784 -0.3334
  326MOL0     C44877   4.147   6.168   7.799 -0.2171 -0.3806  0.5159
  326MOL0     C44878   4.053   6.183   7.680  0.2684  0.1152 -0.5527
  326MOL0     C44879   4.113   6.104   7.919 -0.0806  0.6630  0.1758
  326MOL0     C44880   3.979   6.049   7.950  0.6022  0.3041 -0.7133
  326MOL0     O44881   3.900   6.020   7.847 -0.0645 -0.0079  0.5346
  326MOL0     C44882   3.772   5.983   7.863  0.5128 -0.3203 -0.1737
  326MOL0     C44883   3.668   6.069   7.829  0.4273  0.1134  0.7533
  326MOL0     C44884   3.534   6.028   7.850  0.5689  0.1165 -1.0395
  326MOL0     C44885   3.503   5.903   7.896  0.0984  0.2408 -0.0024
  326MOL0     O44886   3.375   5.856   7.932 -0.3055  0.1985 -0.9496
  326MOL0     C44887   3.285   5.941   8.007 -0.6140 -0.9441 -0.2969
  326MOL0     C44888   3.148   5.926   7.941  0.1306  0.1657  0.1015
  326MOL0     C44889   3.053   5.994   8.037 -0.2848 -0.2179 -0.2117
  326MOL0     C44890   2.915   5.950   8.004  0.3810 -0.9924 -0.2306
  326MOL0     C44891   2.810   6.023   8.089  0.3594  0.0449 -0.4226
  326MOL0     C44892   2.677   5.961   8.074  0.3377 -0.5684  0.1903
  326MOL0     C44893   2.581   6.038   8.162 -0.7171  0.8541 -0.4505
  326MOL0     C44894   2.514   6.150   8.084 -0.0337 -0.5226 -0.4189
  326MOL0    Cl44895   2.397   6.213   8.200 -0.4789 -0.0302 -0.0695
  326MOL0     C44896   3.614   5.806   7.918  0.5840 -0.6094  0.5185
  326MOL0     C44897   3.743   5.854   7.895  0.2136  0.0185 -0.4088
  326MOL0     O44898   3.949   6.023   8.071 -0.0603 -0.9061  0.7620
  326MOL0     C44899   4.209   6.095   8.028  0.0985 -0.5630  0.0246
  326MOL0     C44900   4.334   6.150   8.004 -0.9208 -0.9561 -0.2715
  326MOL0     N44901   4.619   6.897   8.042 -0.0438  0.6200 -0.1057
  326MOL0     N44902   4.587   7.004   7.965  0.3771 -0.2852  0.3059
  326MOL0     C44903   3.374   6.755   8.116  0.3547  0.4524 -1.0014
  326MOL0     C44904   3.236   6.739   8.127  0.3092 -0.1813  0.0171
  326MOL0     C44905   2.871   6.521   8.234  0.3393 -0.0111  0.4060
  326MOL0     C44906   2.776   6.555   8.135 -0.4825  0.4747 -0.7172
  326MOL0     C44907   2.645   6.572   8.174 -0.0309  0.2077 -0.2031
  326MOL0     C44908   2.594   6.533   8.302 -0.2253 -0.8635 -0.4677
  326MOL0     O44909   2.462   6.540   8.337  0.0627 -0.2381 -0.1581
  326MOL0     C44910   2.358   6.551   8.237 -0.6013  0.2619 -0.4613
  326MOL0     C44911   2.226   6.492   8.303  0.6657  0.0947  0.3070
  326MOL0     C44912   2.113   6.482   8.191 -0.4251  0.6360  0.4506
  326MOL0     C44913   1.976   6.447   8.251 -0.5628 -0.9231  0.1791
  326MOL0     C44914   1.901   6.422   8.132  0.0174  0.8960 -0.1156
  326MOL0     C44915   1.829   6.406   8.037  0.1230  0.1177  0.7229
  326MOL0     C44916   2.692   6.494   8.401 -0.0252  0.0322  0.5622
  326MOL0     C44917   2.828   6.495   8.368 -0.3216  0.8105  0.4215
  326MOL0     C44918   2.925   6.468   8.479  0.7561  0.1631 -0.8291
  326MOL0     H44919   3.199   6.463   7.943  1.4533 -1.2664 -1.9770
  326MOL0     H44920   3.438   6.503   7.896 -1.2301  0.1916 -1.7192
  326MOL0     H44921   3.635   6.853   8.106 -0.6065  2.0920 -0.4484
  326MOL0     H44922   3.565   6.883   7.943  1.1022  0.1977 -0.8952
  326MOL0     H44923   3.819   6.731   7.964 -1.7933 -0.7106 -0.4005
  326MOL0     H44924   3.751   6.820   7.827 -1.1032 -0.3272  1.1079
  326MOL0     H44925   3.791   7.030   7.931 -1.5168  0.0448  0.7640
  326MOL0     H44926   3.849   6.943   8.083  1.0403 -1.7164 -0.0887
  326MOL0     H44927   4.042   6.858   7.983 -0.0838  2.6270  4.2732
  326MOL0     H44928   4.005   6.917   7.813 -1.4776  0.7889 -0.6742
  326MOL0     H44929   4.034   7.118   8.037  0.5832  1.6683 -0.5707
  326MOL0     H44930   4.030   7.146   7.870  0.0037  2.2113  1.0059
  326MOL0     H44931   4.257   7.167   7.971  2.2502 -1.1240  0.8460
  326MOL0     H44932   4.257   7.006   8.016  0.6480  1.1330  1.0789
  326MOL0     H44933   4.217   7.074   7.715  0.1584 -3.4046 -0.8083
  326MOL0     H44934   4.246   6.923   7.802  3.0727 -1.1212 -0.9490
  326MOL0     H44935   4.436   7.021   7.679 -2.6859  1.9786 -1.9008
  326MOL0     H44936   4.448   7.147   7.793 -0.6978 -0.0227 -2.0136
  326MOL0     H44937   4.419   6.767   7.826  0.2239 -0.6792 -0.0498
  326MOL0     H44938   4.456   6.647   8.129  1.6257 -0.3338  2.7450
  326MOL0     H44939   4.636   6.630   8.122 -0.2510 -2.2162  0.6276
  326MOL0     H44940   4.438   6.515   7.920 -0.1271  1.0220 -0.2143
  326MOL0     H44941   4.608   6.554   7.889 -0.8773 -1.4831 -0.7958
  326MOL0     H44942   4.675   6.405   8.095  0.6490  2.6892 -2.6976
  326MOL0     H44943   4.501   6.381   8.116 -1.8761 -0.0790  0.4887
  326MOL0     H44944   4.677   6.295   7.890  0.4284 -1.4794  1.7342
  326MOL0     H44945   4.599   6.191   8.007  1.3923  1.9630  1.7258
  326MOL0     H44946   4.296   6.278   7.692 -2.7108 -0.0715 -0.8147
  326MOL0     H44947   4.089   6.264   7.616 -0.9988 -0.9050 -2.7052
  326MOL0     H44948   3.946   6.198   7.698 -0.4545 -3.2749 -1.3264
  326MOL0     H44949   4.059   6.091   7.620 -4.3696 -0.1925 -0.8913
  326MOL0     H44950   3.683   6.173   7.801 -0.3306 -0.0295 -0.1846
  326MOL0     H44951   3.455   6.099   7.830  0.1511 -0.2727 -0.7749
  326MOL0     H44952   3.288   5.904   8.110  0.1356 -2.2941 -0.7900
  326MOL0     H44953   3.307   6.048   7.996 -0.3892 -0.8792  0.7364
  326MOL0     H44954   3.154   5.964   7.838  1.4040  0.5634  0.3009
  326MOL0     H44955   3.124   5.821   7.924 -3.2592  0.8333  0.1878
  326MOL0     H44956   3.050   6.103   8.046 -1.2646 -0.3507  1.4997
  326MOL0     H44957   3.079   5.974   8.141  0.0402  2.6855  0.3615
  326MOL0     H44958   2.903   5.842   8.012 -2.2119 -0.9245 -1.9656
  326MOL0     H44959   2.885   5.968   7.901  1.1375 -0.3885 -0.3544
  326MOL0     H44960   2.840   6.021   8.195  0.8717  2.1855 -0.4988
  326MOL0     H44961   2.806   6.130   8.068  0.4376  0.6798  2.3744
  326MOL0     H44962   2.689   5.860   8.113  3.0312  0.0839  1.2605
  326MOL0     H44963   2.645   5.969   7.970 -0.4231 -1.9723  0.2965
  326MOL0     H44964   2.632   6.086   8.247 -1.4932  1.0418 -0.0827
  326MOL0     H44965   2.501   5.974   8.199 -0.5221  1.6185  1.4052
  326MOL0     H44966   2.461   6.113   7.995 -1.9814 -0.4377  0.6631
  326MOL0     H44967   2.588   6.225   8.055  0.6000 -0.0527  2.1914
  326MOL0     H44968   3.598   5.700   7.935  0.0729 -1.2184 -2.9583
  326MOL0     H44969   3.819   5.778   7.906 -2.8200 -3.2385 -0.1646
  326MOL0     H44970   4.186   6.043   8.121 -0.8234  1.0614  0.7421
  326MOL0     H44971   4.406   6.140   8.085 -1.0198  0.7453  0.0740
  326MOL0     H44972   3.417   6.829   8.183  0.1226  0.0457 -0.3952
  326MOL0     H44973   3.174   6.797   8.194 -0.5425 -1.8648  0.7489
  326MOL0     H44974   2.803   6.584   8.034  3.3919 -2.1863 -0.6650
  326MOL0     H44975   2.576   6.610   8.100  0.5722 -0.5721 -1.1845
  326MOL0     H44976   2.347   6.656   8.206 -1.6451  0.2774 -0.0813
  326MOL0     H44977   2.375   6.485   8.152 -1.9793  1.2917 -1.5926
  326MOL0     H44978   2.203   6.554   8.391  2.6831  1.8925 -0.3379
  326MOL0     H44979   2.239   6.393   8.347  0.2188 -0.1713 -0.1538
  326MOL0     H44980   2.103   6.567   8.122 -0.5914 -0.9679 -1.5930
  326MOL0     H44981   2.142   6.392   8.136 -0.1668  1.5293 -0.9447
  326MOL0     H44982   1.939   6.536   8.304  1.8532  0.6334 -0.5567
  326MOL0     H44983   1.966   6.357   8.311 -2.6993 -2.7489 -2.6529
  326MOL0     H44984   1.767   6.385   7.952  0.7239  0.8603  0.0880
  326MOL0     H44985   2.656   6.477   8.502  0.1667  0.4248  0.6971
  326MOL0     H44986   2.982   6.558   8.505  0.2923  0.2798 -0.1839
  326MOL0     H44987   2.865   6.431   8.562 -0.6249  1.7306 -1.0950
  326MOL0     H44988   2.992   6.384   8.460  0.6506  0.3746 -2.2121
  327MOL0     O44989   4.248   0.266   5.229 -0.1897  0.0553 -0.0776
  327MOL0     C44990   4.177   0.204   5.157  0.2274  0.2795  0.2695
  327MOL0     O44991   4.201   0.091   5.083  0.4485  1.0531 -0.4868
  327MOL0     C44992   4.328   0.055   5.070 -1.6568  0.8462 -0.7059
  327MOL0     C44993   4.361  -0.081   5.106 -0.4945  0.3039  0.8864
  327MOL0     C44994   4.488  -0.128   5.084 -0.1713  0.3224  0.2225
  327MOL0     C44995   4.593  -0.041   5.048 -0.1312 -0.1188  1.2194
  327MOL0     O44996   4.714  -0.096   5.035  0.1745  0.2531  0.6481
  327MOL0     C44997   4.805  -0.051   5.140  1.0263  0.6329  0.2478
  327MOL0     C44998   4.945  -0.030   5.090 -0.4695  0.0795  0.3970
  327MOL0     C44999   5.017  -0.155   5.053 -0.1394  0.2566 -0.5235
  327MOL0     C45000   5.157  -0.131   5.004  0.1214  0.4760  0.2148
  327MOL0     C45001   5.234  -0.257   4.989 -0.5749  0.0207  0.1173
  327MOL0     C45002   5.386  -0.235   4.959 -0.3573 -0.9618 -0.2300
  327MOL0     C45003   5.460  -0.367   4.982  0.1722  0.5441 -0.0419
  327MOL0     C45004   5.611  -0.344   4.979  0.7806 -1.3559  0.6265
  327MOL0     N45005   5.672  -0.283   5.096 -1.0021  0.5110  0.3829
  327MOL0     C45006   5.805  -0.288   5.151  0.2169  0.2700  0.8785
  327MOL0     C45007   5.812  -0.218   5.265 -0.1905 -0.4181  0.4243
  327MOL0     C45008   5.913  -0.209   5.372  0.0254  0.1775 -0.2307
  327MOL0     C45009   6.040  -0.138   5.326 -0.6442  0.4930  0.4252
  327MOL0     C45010   6.121  -0.218   5.226 -0.0134  0.2985 -0.1577
  327MOL0     C45011   6.269  -0.160   5.216 -0.8603  0.4953 -0.6309
  327MOL0     O45012   6.259  -0.035   5.161  0.2213 -0.3471  0.5173
  327MOL0     C45013   6.359   0.054   5.186  0.1388 -0.1829  0.3265
  327MOL0     C45014   6.501   0.030   5.174  1.2007 -0.5250 -0.5909
  327MOL0     C45015   6.591   0.140   5.198  0.4504  0.7826 -0.3989
  327MOL0     C45016   6.741   0.124   5.161  0.3234 -0.1989 -0.9592
  327MOL0     C45017   6.544   0.259   5.250 -0.1909 -0.6352  0.5328
  327MOL0     C45018   6.619   0.371   5.288  0.8500  0.1190  0.2929
  327MOL0     O45019   6.719   0.352   5.383 -0.0708  0.3243 -0.1501
  327MOL0     C45020   6.819   0.444   5.398 -0.1747 -0.4647  0.7445
  327MOL0     C45021   6.934   0.411   5.327  0.6883  0.3181 -0.1192
  327MOL0     C45022   7.038   0.495   5.342 -1.2295 -0.4410  0.0113
  327MOL0     C45023   7.034   0.614   5.415 -0.2065 -0.5808  0.3955
  327MOL0     O45024   7.145   0.690   5.416 -0.2221 -0.3162 -0.3915
  327MOL0     C45025   7.268   0.629   5.471  1.3719  0.5908  1.0481
  327MOL0     C45026   7.368   0.744   5.497  0.2182 -0.6852  0.0708
  327MOL0     C45027   7.354   0.801   5.642  0.4381  0.4451 -0.1903
  327MOL0     C45028   7.430   0.709   5.750 -0.0023 -0.4083 -0.0335
  327MOL0     C45029   7.394   0.766   5.896 -0.9068 -0.6045 -0.4224
  327MOL0     C45030   7.404   0.925   5.902 -0.3631 -0.0162 -0.4463
  327MOL0     C45031   7.364   0.962   6.040 -0.2709 -0.4585 -0.0626
  327MOL0     C45032   7.383   1.114   6.061  0.4502  0.0430 -0.6402
  327MOL0    Cl45033   7.555   1.164   6.041  0.7873  0.1931 -0.0033
  327MOL0     C45034   6.918   0.653   5.485 -0.0215 -0.6620  1.0359
  327MOL0     C45035   6.810   0.560   5.475 -0.1559 -0.3308 -0.5038
  327MOL0     O45036   6.602   0.473   5.210  0.1172 -0.0131 -0.2119
  327MOL0     C45037   6.401   0.273   5.262  0.3017 -0.8988  0.5260
  327MOL0     C45038   6.304   0.175   5.233 -0.6336 -0.8240  0.1938
  327MOL0     N45039   5.691  -0.154   5.273 -0.0557 -0.0533 -0.1848
  327MOL0     N45040   5.612  -0.198   5.178  0.9395  0.0402 -0.2514
  327MOL0     C45041   4.559   0.090   5.014 -0.4222  0.4849  1.2632
  327MOL0     C45042   4.433   0.138   5.032  0.4137 -0.1028  0.2702
  327MOL0     C45043   4.036   0.254   5.145 -1.0406 -0.5418 -0.1672
  327MOL0     C45044   3.931   0.160   5.127 -0.8029  0.1486 -0.3406
  327MOL0     C45045   3.795   0.211   5.130  0.1536  0.6853  0.1983
  327MOL0     C45046   3.766   0.345   5.141 -0.5824 -0.6097  0.7048
  327MOL0     O45047   3.634   0.375   5.151 -0.1545 -0.5998  0.2784
  327MOL0     C45048   3.587   0.516   5.151  0.4969 -0.2801 -0.0297
  327MOL0     C45049   3.435   0.520   5.179 -0.4131 -0.3171  0.9488
  327MOL0     C45050   3.370   0.660   5.159  0.3550  0.6583 -0.4583
  327MOL0     C45051   3.401   0.760   5.262  0.5053  0.3547  0.5096
  327MOL0     C45052   3.536   0.805   5.246 -0.0172 -0.9398  0.3699
  327MOL0     C45053   3.647   0.850   5.234  0.8416 -0.0104 -0.0562
  327MOL0     C45054   3.872   0.437   5.139  0.2269 -0.3241 -0.2837
  327MOL0     C45055   4.004   0.396   5.141 -1.2639 -0.6186  0.1187
  327MOL0     C45056   4.112   0.510   5.161  0.2203  0.2159  0.2573
  327MOL0     H45057   4.291  -0.154   5.144 -1.5506 -0.9601 -3.0747
  327MOL0     H45058   4.513  -0.230   5.111 -0.7795  0.1143  0.0062
  327MOL0     H45059   4.800  -0.127   5.219  0.1566 -1.3501 -1.6255
  327MOL0     H45060   4.766   0.047   5.171 -1.3635 -0.6685  1.5957
  327MOL0     H45061   4.932   0.033   5.002 -0.2651 -0.5850 -0.1101
  327MOL0     H45062   5.004   0.032   5.159 -0.0797 -1.9794  1.9844
  327MOL0     H45063   5.021  -0.228   5.134 -0.1714  0.3307 -0.4552
  327MOL0     H45064   4.969  -0.206   4.969  3.2459 -2.6359 -0.9464
  327MOL0     H45065   5.150  -0.075   4.910 -0.3648  1.8288  1.0325
  327MOL0     H45066   5.215  -0.057   5.060 -1.2904  1.0889  0.9155
  327MOL0     H45067   5.194  -0.332   4.920 -0.5180 -0.9735  1.1282
  327MOL0     H45068   5.230  -0.308   5.086  1.5028 -0.6557 -0.0923
  327MOL0     H45069   5.405  -0.195   4.860  2.1334  1.1850  1.0008
  327MOL0     H45070   5.426  -0.155   5.021 -1.1326  0.4831 -1.5421
  327MOL0     H45071   5.432  -0.435   4.901  1.7770 -2.1218  1.4711
  327MOL0     H45072   5.427  -0.408   5.078  2.8040 -0.5016  0.5201
  327MOL0     H45073   5.657  -0.443   4.967  0.6944 -1.6903  2.7623
  327MOL0     H45074   5.642  -0.291   4.888 -1.9133 -1.0563 -0.2031
  327MOL0     H45075   5.883  -0.349   5.105 -0.9059  0.6237 -1.6323
  327MOL0     H45076   5.927  -0.311   5.408 -2.1597 -0.2936 -0.5722
  327MOL0     H45077   5.869  -0.159   5.458  0.9634 -0.2135  0.4927
  327MOL0     H45078   6.013  -0.038   5.289  0.2891  0.6945  0.2807
  327MOL0     H45079   6.101  -0.130   5.416 -0.6497 -2.9601  0.8791
  327MOL0     H45080   6.135  -0.322   5.257 -5.1010  0.0725  2.4932
  327MOL0     H45081   6.082  -0.211   5.124  0.9102 -0.5725 -0.5855
  327MOL0     H45082   6.307  -0.147   5.318 -1.4282  2.5522 -0.6399
  327MOL0     H45083   6.339  -0.220   5.157  2.0493  2.8130  0.1729
  327MOL0     H45084   6.532  -0.062   5.124  0.2611  0.2879 -2.8094
  327MOL0     H45085   6.798   0.144   5.252 -0.6256  0.3029 -0.4600
  327MOL0     H45086   6.772   0.204   5.093 -1.4959 -0.2475 -1.9169
  327MOL0     H45087   6.762   0.026   5.118  3.0190  0.0975 -0.4434
  327MOL0     H45088   6.936   0.324   5.262 -0.6863  0.9973 -1.1546
  327MOL0     H45089   7.132   0.469   5.294  0.1551  0.2806  2.1921
  327MOL0     H45090   7.248   0.570   5.561  1.0284 -0.6822  0.1727
  327MOL0     H45091   7.319   0.558   5.406  2.8727 -0.0512  2.8368
  327MOL0     H45092   7.470   0.704   5.502  0.9075  0.9731 -0.1877
  327MOL0     H45093   7.365   0.828   5.427 -0.5588 -0.2806  0.5772
  327MOL0     H45094   7.246   0.807   5.659  0.0546 -1.0373 -1.8548
  327MOL0     H45095   7.393   0.903   5.649  2.3660 -0.3715  1.6081
  327MOL0     H45096   7.538   0.709   5.734 -0.1160  0.1040 -0.8996
  327MOL0     H45097   7.395   0.607   5.728 -2.0873  0.4998 -1.2824
  327MOL0     H45098   7.294   0.735   5.926  0.4853 -3.6034  1.6881
  327MOL0     H45099   7.455   0.711   5.969 -1.1507  0.6143  0.7445
  327MOL0     H45100   7.334   0.976   5.836 -0.4098  1.0594  0.3991
  327MOL0     H45101   7.505   0.965   5.884 -0.3736  0.1987 -0.0493
  327MOL0     H45102   7.403   0.896   6.118 -0.0434 -0.7204 -0.3940
  327MOL0     H45103   7.259   0.935   6.052 -0.2829  0.7052  3.4541
  327MOL0     H45104   7.362   1.141   6.165  1.2481  0.4487 -0.5761
  327MOL0     H45105   7.318   1.166   5.990  0.6322  0.9115 -0.1780
  327MOL0     H45106   6.905   0.752   5.528 -1.0080 -0.3458  0.0450
  327MOL0     H45107   6.714   0.578   5.522 -0.3142 -2.3138  0.0130
  327MOL0     H45108   6.359   0.366   5.299  2.2060 -0.0033  0.5776
  327MOL0     H45109   6.197   0.192   5.230 -0.6183 -0.8530 -0.8362
  327MOL0     H45110   4.637   0.157   4.978 -0.4840  0.6436  1.4283
  327MOL0     H45111   4.408   0.242   5.012 -1.2545 -0.5482 -0.0647
  327MOL0     H45112   3.955   0.055   5.121 -1.5706 -0.1859  1.7387
  327MOL0     H45113   3.714   0.139   5.139 -1.1457  1.7513 -2.0778
  327MOL0     H45114   3.635   0.568   5.235 -1.7281 -1.3079  2.0115
  327MOL0     H45115   3.608   0.561   5.054 -1.5735  0.9262  0.0138
  327MOL0     H45116   3.414   0.474   5.276 -1.9412  0.1499  0.8714
  327MOL0     H45117   3.388   0.451   5.107 -0.7871  1.0735 -0.1940
  327MOL0     H45118   3.386   0.696   5.057 -1.3287 -0.5099 -1.1843
  327MOL0     H45119   3.261   0.652   5.167  0.2807  2.8218  1.9064
  327MOL0     H45120   3.390   0.720   5.363 -1.7148  0.8283  0.5186
  327MOL0     H45121   3.334   0.846   5.255 -0.3140 -0.4005 -1.9905
  327MOL0     H45122   3.738   0.904   5.242  0.4407  0.6145  0.3296
  327MOL0     H45123   3.849   0.542   5.151  0.2857 -0.4244  0.7899
  327MOL0     H45124   4.110   0.543   5.265  1.2196 -1.2275  0.7738
  327MOL0     H45125   4.212   0.487   5.122  0.2426  3.5204 -2.0907
  327MOL0     H45126   4.078   0.589   5.093  1.3724  0.4499 -0.0646
  328MOL0     O45127   8.125   4.548   6.288 -0.5981 -0.5528  0.1854
  328MOL0     C45128   8.014   4.596   6.269  0.4203  0.6660  0.7451
  328MOL0     O45129   7.984   4.720   6.230 -0.4792 -0.5407 -0.7556
  328MOL0     C45130   8.086   4.808   6.227 -0.4164 -0.6696 -0.4977
  328MOL0     C45131   8.137   4.864   6.346  0.7476 -0.6975 -0.7334
  328MOL0     C45132   8.244   4.954   6.342 -0.5910 -0.5357 -0.8442
  328MOL0     C45133   8.300   4.992   6.223 -0.7067 -0.4344 -0.8046
  328MOL0     O45134   8.411   5.078   6.238  0.0109 -0.5401  0.2266
  328MOL0     C45135   8.464   5.132   6.121  0.5389 -0.7488  0.0589
  328MOL0     C45136   8.550   5.030   6.041 -0.1241  0.3499 -0.3590
  328MOL0     C45137   8.664   4.967   6.128  0.6810 -0.1457  0.6742
  328MOL0     C45138   8.790   4.930   6.042 -0.1305  0.3724  0.3446
  328MOL0     C45139   8.909   4.859   6.110  0.3061  0.1227 -0.6574
  328MOL0     C45140   8.861   4.724   6.175  0.7584 -0.7386  0.1040
  328MOL0     C45141   8.987   4.634   6.210 -0.6172  0.6533 -0.3265
  328MOL0     C45142   9.073   4.684   6.331 -0.3040  0.1472 -0.4512
  328MOL0     N45143   9.179   4.588   6.348  0.2445  0.4355 -0.0987
  328MOL0     C45144   9.306   4.582   6.295 -1.1706  0.3912 -0.5665
  328MOL0     C45145   9.362   4.467   6.338  0.1057 -0.7316 -0.6695
  328MOL0     C45146   9.505   4.418   6.341 -0.1293  0.3519  0.4292
  328MOL0     C45147   9.564   4.444   6.482  0.8929 -0.5767  0.2546
  328MOL0     C45148   9.630   4.586   6.477  0.1080 -0.3714  0.7349
  328MOL0     C45149   9.660   4.623   6.626 -0.0364  0.5782 -0.6561
  328MOL0     O45150   9.735   4.745   6.630 -0.3634  0.0118  0.0490
  328MOL0     C45151   9.868   4.740   6.657 -0.1610  0.3390  0.3967
  328MOL0     C45152   9.925   4.863   6.677  0.2720  0.2829 -0.3324
  328MOL0     C45153  10.043   4.882   6.748  0.3719 -0.3224  0.1106
  328MOL0     C45154  10.076   5.018   6.792  0.1788  0.2705  0.0034
  328MOL0     C45155  10.135   4.776   6.739 -0.0828 -0.2421 -0.6351
  328MOL0     C45156  10.264   4.786   6.800 -0.0064 -0.0577 -1.0739
  328MOL0     O45157  10.293   4.872   6.906  0.1229  0.2795  0.4875
  328MOL0     C45158  10.425   4.891   6.927  0.3989 -1.0627  0.1925
  328MOL0     C45159  10.483   5.017   6.923 -0.1657  0.1553  0.1405
  328MOL0     C45160  10.620   5.043   6.938 -0.7630 -0.2087  0.6932
  328MOL0     C45161  10.698   4.933   6.975  0.4288  0.3500 -0.1435
  328MOL0     O45162  10.831   4.935   7.017 -0.4195  0.3916  0.6953
  328MOL0     C45163  10.835   4.951   7.165  0.0663  0.8134  0.5108
  328MOL0     C45164  10.979   4.947   7.216 -0.0093 -0.3765 -0.0519
  328MOL0     C45165  10.974   4.947   7.373  0.0538  0.3150 -0.9758
  328MOL0     C45166  10.919   5.085   7.422  0.9881  0.5712 -0.6530
  328MOL0     C45167  10.936   5.096   7.574  0.6324  0.8376 -0.1359
  328MOL0     C45168  10.859   5.004   7.661  0.2325 -0.1479 -0.0510
  328MOL0     C45169  10.718   5.048   7.679  0.2865 -0.0054 -0.1820
  328MOL0     C45170  10.635   4.940   7.760  0.1153 -0.4052 -0.0136
  328MOL0    Cl45171  10.656   4.973   7.933 -0.0954  0.1648 -0.0254
  328MOL0     C45172  10.638   4.805   6.987 -0.6185 -0.3720 -0.3771
  328MOL0     C45173  10.502   4.787   6.970  0.1186 -0.0485  0.3938
  328MOL0     O45174  10.343   4.719   6.744 -0.6190 -0.1624  0.6260
  328MOL0     C45175  10.089   4.650   6.688  0.7314 -0.2448 -0.6086
  328MOL0     C45176   9.953   4.627   6.655  0.4912  0.1156 -0.2837
  328MOL0     N45177   9.272   4.406   6.416 -0.3118 -0.2706 -0.2062
  328MOL0     N45178   9.167   4.473   6.426  0.6491  0.1891 -0.0275
  328MOL0     C45179   8.251   4.944   6.105 -0.6162  0.6198  1.0695
  328MOL0     C45180   8.144   4.854   6.109 -0.0504  0.1054 -0.6635
  328MOL0     C45181   7.898   4.502   6.291  0.1202 -0.7068  0.2341
  328MOL0     C45182   7.767   4.549   6.263  0.4385 -0.0125 -0.5446
  328MOL0     C45183   7.653   4.466   6.274 -0.1231  0.8092 -1.0712
  328MOL0     C45184   7.663   4.338   6.341 -0.9945 -0.1171 -0.2979
  328MOL0     O45185   7.555   4.263   6.372 -0.4017 -0.0524  0.5109
  328MOL0     C45186   7.425   4.319   6.350  0.0301  0.7490 -0.0489
  328MOL0     C45187   7.315   4.230   6.423  0.1422  0.6958  0.0761
  328MOL0     C45188   7.184   4.289   6.417  0.7419 -1.2105  0.0473
  328MOL0     C45189   7.108   4.268   6.555  0.1849 -0.2245  0.0250
  328MOL0     C45190   6.969   4.309   6.557  0.9048  0.6598  0.6520
  328MOL0     C45191   6.849   4.344   6.567 -0.0644 -0.3036 -0.6764
  328MOL0     C45192   7.786   4.298   6.371 -0.2791  0.5416 -0.3880
  328MOL0     C45193   7.906   4.372   6.345  0.0890  0.7151  0.5313
  328MOL0     C45194   8.031   4.299   6.383  0.3402 -0.0410  0.5211
  328MOL0     H45195   8.086   4.839   6.439 -0.7722 -0.9187 -1.6036
  328MOL0     H45196   8.294   4.996   6.429  1.3930  0.7255 -2.5013
  328MOL0     H45197   8.525   5.220   6.143 -1.0623  1.0098 -1.9995
  328MOL0     H45198   8.386   5.168   6.053  1.6704  1.8176 -0.0294
  328MOL0     H45199   8.482   4.948   6.018 -0.6263  0.5240  0.4594
  328MOL0     H45200   8.592   5.075   5.951 -0.7651 -0.3106 -1.0046
  328MOL0     H45201   8.690   5.045   6.200 -2.1642  1.1803  0.3886
  328MOL0     H45202   8.623   4.883   6.184 -2.8112  0.8287 -0.1955
  328MOL0     H45203   8.752   4.858   5.968 -1.0422 -0.5282  1.6445
  328MOL0     H45204   8.829   5.024   6.003 -1.0449  0.4406 -0.4630
  328MOL0     H45205   8.954   4.931   6.179 -0.0276 -0.3699  0.0931
  328MOL0     H45206   8.982   4.838   6.032 -0.2165 -1.8134 -0.6687
  328MOL0     H45207   8.792   4.734   6.259 -0.4998 -0.8324 -0.8811
  328MOL0     H45208   8.807   4.680   6.091  0.9405  0.9264 -0.9290
  328MOL0     H45209   9.056   4.641   6.126  0.2180 -0.0646  0.2836
  328MOL0     H45210   8.958   4.530   6.226  1.2095  0.6291  4.2917
  328MOL0     H45211   9.122   4.781   6.318  1.2464 -0.7201 -1.2849
  328MOL0     H45212   9.015   4.702   6.422  0.0036  1.3135 -0.4663
  328MOL0     H45213   9.346   4.645   6.216 -1.5985 -2.3225 -3.1309
  328MOL0     H45214   9.555   4.462   6.254 -0.8443 -1.6736 -1.0884
  328MOL0     H45215   9.508   4.311   6.316 -0.4057  0.5748 -0.6009
  328MOL0     H45216   9.493   4.450   6.565  0.6716 -1.8116  0.1814
  328MOL0     H45217   9.639   4.367   6.502  0.2419 -1.1983  0.3591
  328MOL0     H45218   9.721   4.593   6.417 -1.5794  0.5953 -1.8845
  328MOL0     H45219   9.560   4.660   6.439 -2.4195 -2.2983  1.3648
  328MOL0     H45220   9.562   4.637   6.671 -0.3162 -0.5147 -0.8759
  328MOL0     H45221   9.712   4.542   6.680  1.4989  2.7046  1.2330
  328MOL0     H45222   9.853   4.942   6.658 -1.7607 -1.3882  0.0494
  328MOL0     H45223  10.156   5.064   6.732  0.7496 -0.7744 -0.0520
  328MOL0     H45224  10.111   5.027   6.895 -0.4106 -0.2238  0.2480
  328MOL0     H45225   9.984   5.077   6.800 -1.3240 -1.9427  0.0031
  328MOL0     H45226  10.414   5.099   6.904 -1.3952 -0.4771  1.6392
  328MOL0     H45227  10.669   5.140   6.932 -2.2027  0.5636  1.1032
  328MOL0     H45228  10.795   5.049   7.192 -0.6336  0.0380  2.4982
  328MOL0     H45229  10.767   4.885   7.220 -0.5102  1.5535  0.6969
  328MOL0     H45230  11.023   4.854   7.177  0.1891 -0.1204 -0.4366
  328MOL0     H45231  11.025   5.035   7.171 -1.1551 -0.0757 -0.6692
  328MOL0     H45232  11.071   4.911   7.408 -1.2091 -2.8109 -0.4001
  328MOL0     H45233  10.913   4.862   7.403  0.8595  0.9393  2.9375
  328MOL0     H45234  10.814   5.098   7.395  1.8869 -0.2915 -5.3164
  328MOL0     H45235  10.979   5.171   7.391  1.5361 -0.2277 -1.8681
  328MOL0     H45236  11.041   5.073   7.596  0.6435 -0.7762 -1.7067
  328MOL0     H45237  10.920   5.201   7.602  1.8771  0.6219  1.5997
  328MOL0     H45238  10.899   5.009   7.763 -0.5779 -2.0048  0.3961
  328MOL0     H45239  10.870   4.902   7.623  0.0533 -0.7218  1.3720
  328MOL0     H45240  10.667   5.073   7.585  0.5556  1.0323 -0.0624
  328MOL0     H45241  10.713   5.139   7.740  2.2611 -0.1268  0.2183
  328MOL0     H45242  10.656   4.838   7.726 -0.9074 -0.5135 -0.3530
  328MOL0     H45243  10.529   4.954   7.738 -0.0768  0.5403  1.4247
  328MOL0     H45244  10.708   4.736   7.034 -0.4974  2.1935  3.6642
  328MOL0     H45245  10.467   4.684   6.972 -0.1129 -0.0368 -1.4344
  328MOL0     H45246  10.156   4.565   6.683  0.8343 -0.1084 -1.6239
  328MOL0     H45247   9.921   4.525   6.632 -0.2560  0.2781 -0.0002
  328MOL0     H45248   8.282   4.974   6.005 -1.2994  2.1947  1.3074
  328MOL0     H45249   8.110   4.817   6.012 -0.3081 -1.5835  0.0430
  328MOL0     H45250   7.745   4.649   6.229 -1.0358 -0.4619 -0.9943
  328MOL0     H45251   7.559   4.504   6.236  0.6658  2.8096 -1.0979
  328MOL0     H45252   7.422   4.421   6.387  1.1709  0.0420  2.1496
  328MOL0     H45253   7.400   4.328   6.244 -0.1023  1.5132  0.0412
  328MOL0     H45254   7.344   4.211   6.527  2.5357 -1.8617 -0.9038
  328MOL0     H45255   7.312   4.129   6.380  0.2385  0.8350 -0.2637
  328MOL0     H45256   7.193   4.398   6.407 -1.9063 -1.0427 -1.4308
  328MOL0     H45257   7.117   4.255   6.338  0.5988  0.5842 -0.6471
  328MOL0     H45258   7.172   4.313   6.631 -0.9750  1.7182 -0.0664
  328MOL0     H45259   7.097   4.165   6.589  1.2186  0.1967  1.7661
  328MOL0     H45260   6.747   4.375   6.574 -0.4537 -1.8067  1.1050
  328MOL0     H45261   7.786   4.202   6.422  0.2673  0.5610 -0.3469
  328MOL0     H45262   8.009   4.197   6.417  0.6481  0.7171  3.2220
  328MOL0     H45263   8.100   4.296   6.298  1.3198  0.5521  1.2649
  328MOL0     H45264   8.077   4.338   6.475  1.1784  2.3048 -0.7994
  329MOL0     O45265   6.847   4.171   5.891  0.7582  1.0381  0.1974
  329MOL0     C45266   6.835   4.222   6.004 -0.4360 -0.8377  0.7568
  329MOL0     O45267   6.934   4.256   6.093  0.2547 -0.2033  0.2752
  329MOL0     C45268   7.066   4.226   6.059 -0.5363  0.0602 -0.0985
  329MOL0     C45269   7.144   4.309   5.988  0.3343 -0.1230  0.2901
  329MOL0     C45270   7.266   4.264   5.937  0.9152 -0.5595 -0.5870
  329MOL0     C45271   7.335   4.149   5.989 -0.4370 -0.2427 -1.4370
  329MOL0     O45272   7.465   4.125   5.953  0.0484  0.8002  0.4737
  329MOL0     C45273   7.559   4.098   6.060 -0.3173  0.0206  0.2545
  329MOL0     C45274   7.710   4.121   6.023  0.5084  1.1078 -0.4446
  329MOL0     C45275   7.725   4.268   5.976  0.3265 -0.2646 -0.4426
  329MOL0     C45276   7.873   4.301   5.959  1.0578  0.7367 -0.4919
  329MOL0     C45277   7.869   4.436   5.883  0.0686  0.5187  0.0857
  329MOL0     C45278   8.008   4.512   5.902 -0.4665 -0.6706 -0.3975
  329MOL0     C45279   8.126   4.424   5.851 -0.2675  0.1140 -0.4044
  329MOL0     C45280   8.266   4.486   5.807 -0.3222 -0.3243 -0.5023
  329MOL0     N45281   8.340   4.561   5.916  0.3028  0.5650  0.3821
  329MOL0     C45282   8.337   4.540   6.050  0.0920  0.7804  0.5366
  329MOL0     C45283   8.443   4.618   6.103  0.2580 -0.0138 -0.0988
  329MOL0     C45284   8.464   4.643   6.246 -0.7999 -0.0804 -0.0988
  329MOL0     C45285   8.548   4.520   6.295  0.4819 -0.3158 -0.6436
  329MOL0     C45286   8.462   4.416   6.344  0.4791 -0.1740  0.1075
  329MOL0     C45287   8.518   4.277   6.360 -0.3130  0.5434  0.1380
  329MOL0     O45288   8.635   4.289   6.448  0.6202 -0.0533 -0.2777
  329MOL0     C45289   8.738   4.211   6.427  0.2934  0.9926  0.1484
  329MOL0     C45290   8.753   4.103   6.334  0.0810 -0.1268  0.2059
  329MOL0     C45291   8.876   4.033   6.313 -0.4212  0.0933  0.0521
  329MOL0     C45292   8.870   3.916   6.214 -0.1254 -0.6927 -0.1067
  329MOL0     C45293   8.988   4.067   6.392 -0.0669 -0.8517  0.1573
  329MOL0     C45294   9.127   4.004   6.400  0.2437  1.0383 -0.2895
  329MOL0     O45295   9.213   4.061   6.485 -0.5488  0.3970 -0.5402
  329MOL0     C45296   9.334   4.000   6.511  0.3692 -0.5064 -0.5353
  329MOL0     C45297   9.357   3.862   6.540  0.9485  0.1755 -0.7130
  329MOL0     C45298   9.478   3.806   6.583  0.0587  0.6730  0.6745
  329MOL0     C45299   9.590   3.893   6.597  0.7928  0.8133 -0.4105
  329MOL0     O45300   9.693   3.834   6.660  0.0842  0.1717 -0.2151
  329MOL0     C45301   9.822   3.872   6.617 -0.5315 -0.0604  0.4498
  329MOL0     C45302   9.919   3.748   6.601 -0.1417  0.8978  0.8977
  329MOL0     C45303   9.879   3.650   6.487 -0.1885 -0.3453  0.3614
  329MOL0     C45304   9.981   3.530   6.486 -0.0086 -0.0986  0.2569
  329MOL0     C45305   9.926   3.413   6.404 -0.0074 -0.3249 -0.4198
  329MOL0     C45306  10.033   3.296   6.398  0.4903 -0.3604  0.0447
  329MOL0     C45307   9.953   3.171   6.377  0.6180 -0.4436 -0.2368
  329MOL0     C45308   9.873   3.166   6.247 -0.8163  0.2598 -0.1586
  329MOL0    Cl45309   9.983   3.182   6.109  0.3476  0.0959 -0.3582
  329MOL0     C45310   9.570   4.029   6.572  0.1005  0.1309 -0.7354
  329MOL0     C45311   9.445   4.084   6.526  0.1204 -0.3731 -0.4877
  329MOL0     O45312   9.151   3.906   6.335  0.1396  0.0707  0.2365
  329MOL0     C45313   8.972   4.181   6.474 -0.3524  0.3292  0.7392
  329MOL0     C45314   8.854   4.246   6.493  0.3697  0.0380  0.0419
  329MOL0     N45315   8.511   4.672   5.997 -0.0612  0.0776 -0.6615
  329MOL0     N45316   8.444   4.647   5.891 -0.3268 -0.4026  0.5171
  329MOL0     C45317   7.254   4.058   6.074  0.5392 -1.2801  0.0494
  329MOL0     C45318   7.118   4.099   6.095 -0.5203  0.9890 -0.4542
  329MOL0     C45319   6.702   4.268   6.036  0.2572 -0.3359  0.0777
  329MOL0     C45320   6.621   4.325   5.932 -0.4252 -0.0477  0.0276
  329MOL0     C45321   6.503   4.393   5.960 -0.1628  0.3878  0.2298
  329MOL0     C45322   6.450   4.393   6.089  0.0437 -0.8981  0.1344
  329MOL0     O45323   6.333   4.448   6.114  0.6239 -0.0639 -0.3897
  329MOL0     C45324   6.232   4.481   6.016  0.0054  0.7221  0.4524
  329MOL0     C45325   6.185   4.340   5.960  0.3730 -0.2176  0.3411
  329MOL0     C45326   6.042   4.360   5.911  0.8043 -0.5471  0.8316
  329MOL0     C45327   5.985   4.226   5.855 -0.0492 -0.0488 -0.0685
  329MOL0     C45328   5.856   4.260   5.807 -0.5197 -0.6603  0.2281
  329MOL0     C45329   5.753   4.291   5.762 -0.1303 -0.1027  0.1971
  329MOL0     C45330   6.522   4.337   6.190 -0.7125 -0.4897  0.1250
  329MOL0     C45331   6.648   4.275   6.165  0.1540  0.3363 -0.3278
  329MOL0     C45332   6.712   4.203   6.284  0.8053 -0.2147  0.0017
  329MOL0     H45333   7.106   4.403   5.949 -2.0894 -2.5894 -4.1461
  329MOL0     H45334   7.326   4.329   5.874 -3.4569  3.6401 -0.9936
  329MOL0     H45335   7.556   3.997   6.104  2.6471 -0.0562  0.5437
  329MOL0     H45336   7.539   4.157   6.150  3.0110 -1.7773  2.3913
  329MOL0     H45337   7.773   4.093   6.108  1.3766  2.1562 -0.7221
  329MOL0     H45338   7.736   4.044   5.950  0.0473  0.4675  0.0567
  329MOL0     H45339   7.675   4.275   5.879 -1.6701 -1.8579  0.4003
  329MOL0     H45340   7.678   4.332   6.051  1.8445 -0.6994  0.9399
  329MOL0     H45341   7.914   4.305   6.061 -1.3898 -0.7517  0.6238
  329MOL0     H45342   7.931   4.227   5.903  0.8425  0.6383 -0.5869
  329MOL0     H45343   7.790   4.503   5.920  0.5022  1.2749 -0.3312
  329MOL0     H45344   7.853   4.418   5.776  0.6115  0.5288  0.0019
  329MOL0     H45345   8.015   4.603   5.842  2.4683  0.6087  1.6576
  329MOL0     H45346   8.024   4.551   6.003 -1.5388  3.7296 -1.7066
  329MOL0     H45347   8.102   4.354   5.770  1.1821 -0.9945  0.0687
  329MOL0     H45348   8.154   4.361   5.936  0.8179  1.7353  0.4930
  329MOL0     H45349   8.336   4.408   5.775  0.3344  0.0980 -0.1051
  329MOL0     H45350   8.249   4.560   5.729  0.1407  0.2263 -0.0875
  329MOL0     H45351   8.274   4.473   6.109  0.3423  0.4806  0.4669
  329MOL0     H45352   8.368   4.626   6.296 -0.6902 -1.7794 -0.3919
  329MOL0     H45353   8.507   4.739   6.276 -1.6470 -0.0657  1.1373
  329MOL0     H45354   8.618   4.484   6.220 -0.5489 -0.1229 -1.7182
  329MOL0     H45355   8.602   4.562   6.381 -2.1741 -0.8234  1.4172
  329MOL0     H45356   8.422   4.433   6.445  1.5230 -3.1815  1.1418
  329MOL0     H45357   8.371   4.410   6.284 -0.9422  0.3843  2.0805
  329MOL0     H45358   8.454   4.199   6.403  0.2088  0.3192  0.5047
  329MOL0     H45359   8.538   4.248   6.256  0.7234 -0.0987  0.5049
  329MOL0     H45360   8.667   4.074   6.275  0.2236 -3.1142  1.2995
  329MOL0     H45361   8.924   3.942   6.123 -1.8709  1.0690 -0.6896
  329MOL0     H45362   8.768   3.887   6.188 -0.0965 -2.3651  1.4042
  329MOL0     H45363   8.923   3.833   6.262  0.3470  0.4852  1.5043
  329MOL0     H45364   9.273   3.793   6.539 -0.0978  1.3382  1.2434
  329MOL0     H45365   9.479   3.702   6.614  2.2933  0.2895 -0.4775
  329MOL0     H45366   9.819   3.922   6.520  0.0149 -3.0608 -1.2487
  329MOL0     H45367   9.863   3.946   6.686 -0.7987 -0.8280  1.4494
  329MOL0     H45368  10.018   3.790   6.586  0.0214 -0.3144 -2.3364
  329MOL0     H45369   9.912   3.692   6.695 -2.5158  1.2242  0.9756
  329MOL0     H45370   9.877   3.706   6.393  1.0801  2.4300  1.8922
  329MOL0     H45371   9.778   3.616   6.511 -0.0426 -0.5779  0.6541
  329MOL0     H45372   9.989   3.491   6.588 -0.2701 -0.1512  0.2573
  329MOL0     H45373  10.078   3.564   6.449  0.6299  0.6734  2.5161
  329MOL0     H45374   9.829   3.397   6.451 -0.6802  0.3703 -1.5255
  329MOL0     H45375   9.907   3.439   6.299 -0.8811 -0.4549 -0.2975
  329MOL0     H45376  10.090   3.295   6.491  0.2791 -0.6777  0.1733
  329MOL0     H45377  10.105   3.304   6.316  1.1674 -1.0631  0.5546
  329MOL0     H45378   9.882   3.150   6.458 -0.7018  1.1901 -0.9008
  329MOL0     H45379  10.033   3.097   6.380  3.3919  2.3963  1.8030
  329MOL0     H45380   9.793   3.240   6.242 -0.6278  0.3957 -1.5016
  329MOL0     H45381   9.823   3.069   6.238 -1.2860  0.4561  0.2888
  329MOL0     H45382   9.644   4.098   6.613  1.2158 -1.0972 -0.6314
  329MOL0     H45383   9.419   4.188   6.515 -4.2026 -1.4035 -1.7433
  329MOL0     H45384   9.050   4.224   6.537 -1.0151  3.0134 -0.1330
  329MOL0     H45385   8.844   4.321   6.570 -1.3831 -1.3034  1.2157
  329MOL0     H45386   7.287   3.959   6.101 -3.5209 -2.7484  0.2784
  329MOL0     H45387   7.048   4.027   6.137 -0.8192  1.4941 -0.0747
  329MOL0     H45388   6.656   4.320   5.829 -0.4430  0.6731 -0.0162
  329MOL0     H45389   6.452   4.441   5.876  0.4667 -0.3197 -0.5703
  329MOL0     H45390   6.148   4.536   6.057  0.4106  1.5520  0.1942
  329MOL0     H45391   6.274   4.549   5.942  1.6247  0.8584  1.4396
  329MOL0     H45392   6.180   4.267   6.042 -1.7418 -0.2323  0.2507
  329MOL0     H45393   6.249   4.293   5.885 -0.1833  1.7416 -1.4592
  329MOL0     H45394   5.985   4.396   5.997 -0.8936 -1.2379  0.0419
  329MOL0     H45395   6.043   4.436   5.833 -0.6284  0.0451  1.3576
  329MOL0     H45396   5.971   4.151   5.934  0.4535  0.0841  0.1448
  329MOL0     H45397   6.043   4.177   5.777 -0.0118 -0.1261  0.0076
  329MOL0     H45398   5.665   4.335   5.720 -1.2959 -1.4261  1.1590
  329MOL0     H45399   6.477   4.337   6.289 -1.8703 -0.6596 -0.3778
  329MOL0     H45400   6.676   4.099   6.284 -0.6276  0.1776  3.1251
  329MOL0     H45401   6.821   4.212   6.283  0.6967  1.9853 -2.2150
  329MOL0     H45402   6.671   4.249   6.375  0.8706 -0.8017  0.3328
  330MOL0     O45403   8.283   7.099   3.239  0.5330 -0.2706  0.1724
  330MOL0     C45404   8.283   7.216   3.203 -0.1004  0.0035  0.0511
  330MOL0     O45405   8.388   7.285   3.146  0.1097 -0.2360  0.1641
  330MOL0     C45406   8.516   7.234   3.150 -0.1426  0.0598  0.3706
  330MOL0     C45407   8.605   7.270   3.041 -0.4269 -0.6479  0.3728
  330MOL0     C45408   8.741   7.234   3.039 -0.1458 -0.4733 -1.1513
  330MOL0     C45409   8.793   7.155   3.153 -0.0097  0.5506  0.0693
  330MOL0     O45410   8.922   7.110   3.168  0.4489 -0.5547 -0.3509
  330MOL0     C45411   9.013   7.163   3.074  0.7676  0.5078 -1.3849
  330MOL0     C45412   9.149   7.121   3.139  0.2022 -0.2868 -0.2933
  330MOL0     C45413   9.269   7.206   3.081  1.2114  0.3383  0.1326
  330MOL0     C45414   9.306   7.165   2.935 -0.1016  1.1594 -0.4467
  330MOL0     C45415   9.454   7.201   2.906  0.3561  0.2457 -1.0077
  330MOL0     C45416   9.546   7.088   2.942 -0.3563  0.3376 -0.1689
  330MOL0     C45417   9.690   7.118   2.944 -0.1599 -0.6624  0.5599
  330MOL0     C45418   9.738   7.142   2.802 -0.0172  0.4446 -0.1739
  330MOL0     N45419   9.879   7.186   2.803 -0.1352 -0.0987  0.0623
  330MOL0     C45420   9.979   7.141   2.721 -0.2907  0.3768 -0.8273
  330MOL0     C45421  10.086   7.204   2.758  0.3685 -0.2004 -0.4012
  330MOL0     C45422  10.224   7.193   2.713 -0.0027 -0.5061  0.0901
  330MOL0     C45423  10.303   7.080   2.783  0.0898  0.3589 -0.3141
  330MOL0     C45424  10.369   7.126   2.920  0.1630  0.6797  0.3905
  330MOL0     C45425  10.395   7.000   3.010 -0.7926  0.5783 -0.2692
  330MOL0     O45426  10.483   6.906   2.940 -0.4129  0.5224  1.1262
  330MOL0     C45427  10.615   6.923   2.908 -0.4288  0.1384  0.7580
  330MOL0     C45428  10.674   6.851   2.800  0.8008 -0.1278 -0.2333
  330MOL0     C45429  10.806   6.865   2.757 -0.1942  0.0729  0.2622
  330MOL0     C45430  10.856   6.767   2.652  0.0137 -0.6486 -0.0038
  330MOL0     C45431  10.897   6.958   2.827  0.0893  0.3677  0.7412
  330MOL0     C45432  11.046   6.955   2.801 -0.2016 -0.2760  0.3918
  330MOL0     O45433  11.120   7.034   2.881 -0.2082 -0.1849  0.0149
  330MOL0     C45434  11.261   7.040   2.882 -0.0489  0.5801  0.3165
  330MOL0     C45435  11.338   6.919   2.874  0.0108 -0.1972 -0.7900
  330MOL0     C45436  11.477   6.924   2.869  0.4895  0.4171  0.2646
  330MOL0     C45437  11.538   7.047   2.899 -0.5818 -1.0032 -0.3930
  330MOL0     O45438  11.674   7.065   2.917  0.3100 -0.0722 -0.1458
  330MOL0     C45439  11.737   6.961   2.995 -0.6686  0.0808 -0.8308
  330MOL0     C45440  11.882   6.946   2.967  0.6017 -0.0434 -0.9375
  330MOL0     C45441  11.977   7.072   3.000 -0.2322  0.0625  0.3368
  330MOL0     C45442  11.993   7.079   3.152 -0.1729  0.0656  0.8825
  330MOL0     C45443  12.118   7.155   3.187  0.0361 -0.7470 -0.1742
  330MOL0     C45444  12.177   7.093   3.316  0.2288 -0.4468 -0.2969
  330MOL0     C45445  12.291   7.177   3.366 -0.1493  0.3740  0.1557
  330MOL0     C45446  12.365   7.105   3.481  0.0610  0.1628  0.1071
  330MOL0    Cl45447  12.501   7.206   3.533  0.2886  0.0051  0.3194
  330MOL0     C45448  11.459   7.170   2.914 -0.4511  0.5698  0.3898
  330MOL0     C45449  11.322   7.158   2.913  0.6406  0.0022  0.1402
  330MOL0     O45450  11.096   6.874   2.718  0.8970  0.1139 -0.6034
  330MOL0     C45451  10.844   7.030   2.931  0.5656 -0.3186 -0.5460
  330MOL0     C45452  10.708   7.011   2.970  0.2211 -0.5050  0.1865
  330MOL0     N45453  10.043   7.299   2.854  0.3789 -0.2440 -0.7683
  330MOL0     N45454   9.925   7.281   2.884  0.6787 -0.4083 -0.0010
  330MOL0     C45455   8.708   7.124   3.262  0.6438  0.2194  0.8649
  330MOL0     C45456   8.572   7.152   3.256 -0.4170  0.0516  0.6028
  330MOL0     C45457   8.152   7.290   3.197  0.0929 -0.4036  0.2599
  330MOL0     C45458   8.136   7.398   3.097 -0.2550  0.2775 -0.4130
  330MOL0     C45459   8.010   7.459   3.084  0.1046  0.4596  0.2055
  330MOL0     C45460   7.897   7.421   3.155 -0.0229  0.6670  0.1236
  330MOL0     O45461   7.778   7.487   3.123  0.3503  0.0289 -1.0640
  330MOL0     C45462   7.669   7.483   3.218  0.7802 -0.8984 -0.0905
  330MOL0     C45463   7.693   7.597   3.323 -0.1509 -0.0776  0.0855
  330MOL0     C45464   7.564   7.649   3.393 -0.3801  0.1804  0.1728
  330MOL0     C45465   7.581   7.759   3.498 -1.4265 -0.0387  0.4829
  330MOL0     C45466   7.623   7.719   3.632  0.1403 -0.4818  0.4500
  330MOL0     C45467   7.661   7.691   3.741 -0.4883 -0.4584  0.7529
  330MOL0     C45468   7.926   7.330   3.260 -0.0762  0.1651  0.0909
  330MOL0     C45469   8.042   7.262   3.285 -0.6499 -0.0146 -0.0205
  330MOL0     C45470   8.061   7.166   3.400 -0.5384  1.1786 -0.0512
  330MOL0     H45471   8.566   7.324   2.955  0.6862  1.2331  0.9840
  330MOL0     H45472   8.798   7.257   2.950  2.5196 -0.3693  0.4645
  330MOL0     H45473   9.018   7.272   3.072 -2.9929  0.8516 -0.6723
  330MOL0     H45474   8.998   7.110   2.979 -1.5124  0.9104 -1.3117
  330MOL0     H45475   9.145   7.154   3.244 -0.3733 -1.1891 -0.0217
  330MOL0     H45476   9.169   7.014   3.125 -2.1991 -0.9290  0.6559
  330MOL0     H45477   9.245   7.312   3.097  0.2385  0.5053 -2.0196
  330MOL0     H45478   9.351   7.193   3.151  0.4414 -0.7353  0.8620
  330MOL0     H45479   9.291   7.057   2.925  1.9574  0.6831  0.9470
  330MOL0     H45480   9.239   7.215   2.864  1.1306  0.4897 -2.1477
  330MOL0     H45481   9.485   7.294   2.955  1.5147  1.0008 -3.0348
  330MOL0     H45482   9.464   7.226   2.800  1.9836 -0.6547 -1.1011
  330MOL0     H45483   9.527   7.054   3.044 -1.0159  1.9999  0.3015
  330MOL0     H45484   9.532   7.008   2.868 -0.0706  0.5339 -0.4376
  330MOL0     H45485   9.748   7.040   2.994  1.8911 -0.5984 -1.5473
  330MOL0     H45486   9.705   7.211   3.001 -1.6583  1.6312 -2.4525
  330MOL0     H45487   9.737   7.049   2.745  0.6023 -0.2058  0.8540
  330MOL0     H45488   9.677   7.218   2.751 -0.3010 -0.3983 -1.1237
  330MOL0     H45489   9.985   7.054   2.657 -1.1276 -0.3591  0.0553
  330MOL0     H45490  10.262   7.294   2.728  0.7574 -1.0177  1.9656
  330MOL0     H45491  10.213   7.166   2.608  1.8407 -0.9543 -0.0149
  330MOL0     H45492  10.243   6.993   2.810  1.2088 -0.6069 -0.8029
  330MOL0     H45493  10.386   7.051   2.718 -1.4838  0.1788 -2.3427
  330MOL0     H45494  10.459   7.185   2.897  1.2684 -0.9080  0.4491
  330MOL0     H45495  10.300   7.185   2.980  0.4936 -0.4995  1.9882
  330MOL0     H45496  10.440   7.018   3.108  0.8158 -3.3685 -0.1015
  330MOL0     H45497  10.298   6.951   3.027 -0.1854 -0.2326  1.0491
  330MOL0     H45498  10.607   6.786   2.744 -0.9320  0.7176  0.7779
  330MOL0     H45499  10.910   6.681   2.690  1.7036  0.7776  0.9864
  330MOL0     H45500  10.926   6.821   2.587 -0.2611  0.7704  0.8158
  330MOL0     H45501  10.775   6.733   2.587 -1.4390  2.9020 -0.2796
  330MOL0     H45502  11.278   6.831   2.856  0.4788 -0.2086 -2.4608
  330MOL0     H45503  11.522   6.829   2.841  0.2747  0.7934 -1.5396
  330MOL0     H45504  11.725   6.973   3.103 -3.4565 -0.7639 -0.9535
  330MOL0     H45505  11.703   6.859   2.974  3.5656 -2.1444  1.6499
  330MOL0     H45506  11.912   6.858   3.024 -2.0441 -0.0004  0.6349
  330MOL0     H45507  11.901   6.919   2.862 -0.0979 -1.8491 -0.6305
  330MOL0     H45508  11.941   7.164   2.952 -0.5172 -1.4548 -2.6141
  330MOL0     H45509  12.071   7.058   2.946  0.0913 -1.2236  1.1859
  330MOL0     H45510  12.008   6.978   3.192  1.1075  0.1604  0.7072
  330MOL0     H45511  11.907   7.123   3.203  0.5778  0.8925  1.4726
  330MOL0     H45512  12.188   7.162   3.103  0.8190  0.6768  0.5425
  330MOL0     H45513  12.084   7.258   3.206 -4.5791 -2.3186  1.5770
  330MOL0     H45514  12.215   6.993   3.295  2.1504  0.2792 -0.5180
  330MOL0     H45515  12.099   7.095   3.392  1.0500 -0.3834  0.5693
  330MOL0     H45516  12.260   7.275   3.404  1.8253  0.9692  0.3138
  330MOL0     H45517  12.357   7.191   3.281  0.0753 -0.8018  0.1168
  330MOL0     H45518  12.385   7.000   3.460 -0.1003 -0.3493  2.2499
  330MOL0     H45519  12.298   7.096   3.567 -0.5863 -0.6390 -0.4634
  330MOL0     H45520  11.500   7.263   2.951 -0.6777  1.7157 -2.0910
  330MOL0     H45521  11.255   7.236   2.948  1.7886  1.1960 -0.2612
  330MOL0     H45522  10.894   7.108   2.987  0.6810 -0.9864  0.2906
  330MOL0     H45523  10.678   7.080   3.048  2.6721 -2.2879  2.9141
  330MOL0     H45524   8.750   7.087   3.355  0.3762 -2.0608  0.1352
  330MOL0     H45525   8.508   7.135   3.342 -1.7816 -0.9931 -0.5754
  330MOL0     H45526   8.214   7.429   3.029  0.5615 -0.6438  0.0758
  330MOL0     H45527   8.002   7.526   2.999  1.1846 -0.6223 -0.7999
  330MOL0     H45528   7.573   7.512   3.175 -0.7837 -0.9063  3.1285
  330MOL0     H45529   7.644   7.391   3.270 -0.3936 -0.7173 -0.2982
  330MOL0     H45530   7.745   7.678   3.270  2.7068 -2.4406 -0.9859
  330MOL0     H45531   7.758   7.545   3.395 -1.5419 -2.2567 -0.1511
  330MOL0     H45532   7.497   7.689   3.316 -1.7765 -2.5878 -0.1816
  330MOL0     H45533   7.506   7.568   3.437 -0.1406  0.0592  0.2684
  330MOL0     H45534   7.486   7.806   3.523 -1.0052  1.1380 -0.0449
  330MOL0     H45535   7.647   7.840   3.463 -0.1464 -0.3751  2.0218
  330MOL0     H45536   7.705   7.677   3.838  0.0442  0.9814  0.7408
  330MOL0     H45537   7.849   7.327   3.336 -1.3111 -0.2796 -1.1207
  330MOL0     H45538   7.990   7.181   3.482 -1.2816  0.7040 -0.5923
  330MOL0     H45539   8.035   7.069   3.356  0.6949  0.7916  0.0292
  330MOL0     H45540   8.162   7.164   3.442 -0.8187 -0.9253  0.6537
  331MOL0     O45541   6.968   3.925   3.855 -0.3874  0.5770 -0.4531
  331MOL0     C45542   6.922   4.014   3.786 -0.2819 -0.0223  0.5328
  331MOL0     O45543   6.990   4.078   3.682 -0.5994 -0.2377 -0.3646
  331MOL0     C45544   7.128   4.049   3.672 -1.2042  0.8805  0.2860
  331MOL0     C45545   7.178   4.003   3.549 -0.8461  1.0371  0.0548
  331MOL0     C45546   7.309   3.962   3.533 -0.3838  0.4257 -0.6458
  331MOL0     C45547   7.405   3.969   3.642 -0.4578 -0.9781 -0.5566
  331MOL0     O45548   7.539   3.941   3.642  0.3665 -0.1959 -0.0632
  331MOL0     C45549   7.605   3.910   3.519 -0.7041  0.1866  0.3695
  331MOL0     C45550   7.740   3.844   3.552 -0.2039 -0.7959  0.1460
  331MOL0     C45551   7.852   3.935   3.588  0.6420 -0.7908 -0.2384
  331MOL0     C45552   7.986   3.854   3.607  0.7072  0.7849  0.7051
  331MOL0     C45553   8.108   3.940   3.669  0.1678 -0.6032  0.5609
  331MOL0     C45554   8.168   4.056   3.578  0.3410 -0.6834  0.9035
  331MOL0     C45555   8.234   4.000   3.453 -0.3529  0.5161 -0.1376
  331MOL0     C45556   8.327   4.106   3.380 -0.4274  0.3750 -0.0679
  331MOL0     N45557   8.473   4.091   3.423  0.1693 -0.3601 -0.7139
  331MOL0     C45558   8.519   4.063   3.550 -0.6561  0.3469  0.7037
  331MOL0     C45559   8.647   4.014   3.525 -1.1543 -0.1582  0.3640
  331MOL0     C45560   8.725   3.969   3.643 -0.2036 -0.2827  0.4204
  331MOL0     C45561   8.817   4.082   3.692  0.0200 -0.2713  0.0036
  331MOL0     C45562   8.924   4.019   3.786  0.3054  0.4557  0.2672
  331MOL0     C45563   9.060   4.101   3.773  0.8115 -0.2877 -0.0865
  331MOL0     O45564   9.022   4.240   3.798  0.5391 -0.4700 -0.2753
  331MOL0     C45565   9.118   4.324   3.815 -0.5208 -0.0751 -0.9798
  331MOL0     C45566   9.082   4.458   3.836 -0.1575 -0.2263 -0.1557
  331MOL0     C45567   9.179   4.561   3.860  1.0754 -0.3849 -0.7924
  331MOL0     C45568   9.118   4.694   3.898 -0.4508 -0.3944 -0.9044
  331MOL0     C45569   9.317   4.524   3.859  0.2060  0.8573 -0.3154
  331MOL0     C45570   9.420   4.617   3.900  0.4472 -0.0710 -0.9558
  331MOL0     O45571   9.527   4.619   3.818  0.5773  0.6005  0.5392
  331MOL0     C45572   9.641   4.691   3.857  0.8969  1.1954 -0.0160
  331MOL0     C45573   9.670   4.804   3.791  0.2065 -0.1707 -0.6627
  331MOL0     C45574   9.790   4.867   3.815 -0.2383 -0.1416 -0.1408
  331MOL0     C45575   9.875   4.844   3.927  0.2939 -0.3759 -0.4928
  331MOL0     O45576   9.991   4.915   3.959 -0.2457  0.3334 -0.2206
  331MOL0     C45577  10.060   4.985   3.856 -0.6157  0.0231  0.3327
  331MOL0     C45578  10.206   5.010   3.903 -0.5583 -0.5505  0.1390
  331MOL0     C45579  10.298   4.876   3.892  0.7253 -0.2512 -0.5207
  331MOL0     C45580  10.433   4.916   3.846 -0.1340 -0.4126  0.1271
  331MOL0     C45581  10.537   4.806   3.856 -0.1294 -0.9094 -0.0142
  331MOL0     C45582  10.667   4.853   3.781  0.7230 -0.2150 -0.1215
  331MOL0     C45583  10.774   4.746   3.745 -0.2220  0.2594 -0.0866
  331MOL0     C45584  10.871   4.720   3.864 -0.0694 -1.0196 -0.8831
  331MOL0    Cl45585  10.969   4.578   3.814 -0.1224  0.0329  0.0562
  331MOL0     C45586   9.835   4.735   4.002 -0.5102  0.2440 -0.8134
  331MOL0     C45587   9.725   4.653   3.962  0.4128  0.3459 -0.4320
  331MOL0     O45588   9.404   4.678   4.007 -0.1002 -0.0720  0.3283
  331MOL0     C45589   9.354   4.386   3.839  0.4098  0.2869 -0.0276
  331MOL0     C45590   9.257   4.291   3.823  0.2927 -0.1718 -0.8921
  331MOL0     N45591   8.666   4.008   3.392  0.1317  0.3000 -0.4080
  331MOL0     N45592   8.565   4.056   3.332  0.0286  0.1610 -0.2023
  331MOL0     C45593   7.360   4.031   3.759  0.6618 -1.2324 -0.1578
  331MOL0     C45594   7.219   4.063   3.780 -0.5863  0.2497  0.0853
  331MOL0     C45595   6.782   4.051   3.798 -0.2162  0.0892 -0.4543
  331MOL0     C45596   6.704   4.092   3.686  0.3965 -1.0090 -0.0479
  331MOL0     C45597   6.574   4.137   3.698  0.1574 -0.3359 -0.3198
  331MOL0     C45598   6.517   4.157   3.818 -0.7101  0.2151 -0.7362
  331MOL0     O45599   6.383   4.189   3.846  0.0326  0.4140 -0.1395
  331MOL0     C45600   6.316   4.258   3.739 -0.1413  0.3691  0.0832
  331MOL0     C45601   6.184   4.321   3.780 -0.5374  0.1733  0.1344
  331MOL0     C45602   6.176   4.415   3.897  0.5259  0.6502  0.0351
  331MOL0     C45603   6.272   4.532   3.894  0.4792 -0.4101 -0.4440
  331MOL0     C45604   6.246   4.618   4.009 -0.1588  0.7440  0.2112
  331MOL0     C45605   6.235   4.699   4.094  0.0262 -0.2865 -0.2758
  331MOL0     C45606   6.596   4.116   3.931 -0.3157 -0.5055  0.4699
  331MOL0     C45607   6.719   4.067   3.924 -0.5116  0.4333  0.6957
  331MOL0     C45608   6.795   4.065   4.055 -0.6006  0.2117 -0.7615
  331MOL0     H45609   7.120   3.980   3.460 -0.2195 -1.5381  0.2490
  331MOL0     H45610   7.337   3.919   3.437  1.2949  0.5815 -0.2636
  331MOL0     H45611   7.614   4.007   3.470  1.2933  0.5023  1.2619
  331MOL0     H45612   7.542   3.840   3.464  1.6152 -2.5911  0.9743
  331MOL0     H45613   7.717   3.779   3.637 -0.3800 -1.6241 -0.5131
  331MOL0     H45614   7.772   3.782   3.468  0.6792 -0.4386  0.2072
  331MOL0     H45615   7.868   4.007   3.507  0.4656 -1.6233 -1.0281
  331MOL0     H45616   7.831   3.988   3.681  0.7990 -2.9880  1.1169
  331MOL0     H45617   7.960   3.776   3.680 -0.7550  1.9831  1.5317
  331MOL0     H45618   8.004   3.817   3.506  0.2464  2.8817 -0.1970
  331MOL0     H45619   8.190   3.869   3.683 -0.9167 -3.1232 -3.8363
  331MOL0     H45620   8.076   3.979   3.765 -1.4300 -0.6918  0.0875
  331MOL0     H45621   8.085   4.120   3.548  0.2379 -2.0130 -1.9535
  331MOL0     H45622   8.228   4.130   3.632 -1.9085  1.6893  0.3218
  331MOL0     H45623   8.155   3.981   3.379 -0.8113 -0.7609  0.6397
  331MOL0     H45624   8.296   3.919   3.493 -0.0623  0.6756 -0.2620
  331MOL0     H45625   8.329   4.115   3.271  2.5135  1.1851 -0.0319
  331MOL0     H45626   8.299   4.208   3.408 -1.0104  0.2249 -0.1015
  331MOL0     H45627   8.466   4.077   3.644  0.1582  0.7694  1.1068
  331MOL0     H45628   8.771   3.873   3.622  0.3349  0.1917 -0.6888
  331MOL0     H45629   8.649   3.955   3.721 -1.5406 -2.1697 -1.1208
  331MOL0     H45630   8.862   4.122   3.601  2.9649 -0.6925  1.1918
  331MOL0     H45631   8.757   4.160   3.741 -0.4349 -1.0778  0.7740
  331MOL0     H45632   8.883   4.018   3.887  2.0858  3.9010  1.1901
  331MOL0     H45633   8.951   3.919   3.751 -0.4634 -0.4947  2.2227
  331MOL0     H45634   9.129   4.060   3.846  0.5060  0.4845  0.6546
  331MOL0     H45635   9.101   4.104   3.672 -1.9123 -0.7223 -1.3157
  331MOL0     H45636   8.977   4.482   3.829  0.1846  1.0596 -1.4979
  331MOL0     H45637   9.193   4.772   3.883 -0.3192 -0.5438 -1.0229
  331MOL0     H45638   9.103   4.681   4.006  2.3259  0.2331 -0.3474
  331MOL0     H45639   9.028   4.719   3.841  0.9894  0.4049 -2.9345
  331MOL0     H45640   9.607   4.843   3.711 -1.3336  1.6756  1.3122
  331MOL0     H45641   9.819   4.950   3.752 -0.9432  1.3906  1.4618
  331MOL0     H45642  10.050   4.925   3.765 -1.2668 -1.4732  1.3528
  331MOL0     H45643  10.011   5.081   3.837 -0.2388  0.2944  0.7023
  331MOL0     H45644  10.248   5.094   3.847 -1.1723 -1.4684 -1.7925
  331MOL0     H45645  10.215   5.036   4.009  1.3901 -2.8499  0.5997
  331MOL0     H45646  10.244   4.806   3.827  0.6189 -0.0880 -0.6069
  331MOL0     H45647  10.310   4.824   3.988  0.9629 -1.4744 -1.1838
  331MOL0     H45648  10.457   5.003   3.907 -1.5903  0.0645  0.0538
  331MOL0     H45649  10.428   4.955   3.744  2.2050  0.2043  0.1996
  331MOL0     H45650  10.560   4.763   3.954  0.0888  0.1040  0.3939
  331MOL0     H45651  10.494   4.724   3.798  1.4445  0.6149 -3.5803
  331MOL0     H45652  10.725   4.936   3.823  0.7575 -0.3451  0.0876
  331MOL0     H45653  10.628   4.893   3.686 -0.5391 -2.6406 -0.7156
  331MOL0     H45654  10.835   4.781   3.662  3.0644  0.1046  2.0649
  331MOL0     H45655  10.716   4.658   3.715 -0.6640  0.3606  0.4559
  331MOL0     H45656  10.815   4.711   3.958  2.3207  2.4000  1.1017
  331MOL0     H45657  10.944   4.801   3.878 -0.0938 -1.3402  1.5180
  331MOL0     H45658   9.898   4.710   4.087 -0.1935  0.8973 -0.8479
  331MOL0     H45659   9.703   4.558   4.011 -2.2626  1.5056  0.8206
  331MOL0     H45660   9.460   4.360   3.835  1.3089  3.5191 -1.3648
  331MOL0     H45661   9.290   4.189   3.837  0.1584  0.2246  3.9868
  331MOL0     H45662   7.430   4.055   3.838 -0.7847  1.7349  0.3795
  331MOL0     H45663   7.180   4.095   3.876 -0.5918 -0.4347  0.3142
  331MOL0     H45664   6.742   4.073   3.586 -1.3664 -0.0323 -0.9569
  331MOL0     H45665   6.500   4.143   3.619  0.7253 -0.9377 -0.8963
  331MOL0     H45666   6.386   4.333   3.700  0.1483 -1.6041 -3.5670
  331MOL0     H45667   6.304   4.183   3.660  1.6961  1.1292 -0.9661
  331MOL0     H45668   6.127   4.231   3.806  1.2681 -2.2230 -3.4008
  331MOL0     H45669   6.145   4.374   3.692 -1.8414  0.3137  0.7688
  331MOL0     H45670   6.076   4.456   3.912  0.2176 -0.1564  0.2409
  331MOL0     H45671   6.194   4.354   3.986 -1.8852  0.3295  0.3611
  331MOL0     H45672   6.256   4.586   3.800 -0.3891  0.5811  0.2524
  331MOL0     H45673   6.371   4.487   3.895  0.1400 -1.2629 -1.9689
  331MOL0     H45674   6.230   4.786   4.157 -0.2937  0.7849 -1.7303
  331MOL0     H45675   6.551   4.131   4.028 -1.5805  0.5283 -0.2468
  331MOL0     H45676   6.734   4.110   4.134  0.1264  1.1798 -0.7368
  331MOL0     H45677   6.832   3.967   4.089  0.7819  0.8913 -0.2556
  331MOL0     H45678   6.886   4.125   4.055 -1.3369  1.3506  0.2651
  332MOL0     O45679   8.524   6.866   7.138 -0.0237  0.0451  0.0478
  332MOL0     C45680   8.501   6.767   7.202  0.0642  0.6200  0.4021
  332MOL0     O45681   8.581   6.714   7.306 -0.0785  0.0576 -0.2731
  332MOL0     C45682   8.714   6.749   7.310  0.1142  0.4349 -0.2464
  332MOL0     C45683   8.751   6.859   7.378 -0.7996 -0.9731 -0.5658
  332MOL0     C45684   8.890   6.892   7.387  1.0391  0.3252 -0.9315
  332MOL0     C45685   8.986   6.819   7.318 -0.0850 -0.3828 -1.3161
  332MOL0     O45686   9.116   6.861   7.307 -0.3682  0.6812  0.1405
  332MOL0     C45687   9.170   6.955   7.399 -0.1343 -0.0751 -0.7704
  332MOL0     C45688   9.164   7.093   7.331 -0.9309  0.1682  0.2805
  332MOL0     C45689   9.254   7.205   7.397  0.1654  0.6412  0.5802
  332MOL0     C45690   9.253   7.333   7.315 -0.6040 -0.2691 -0.3688
  332MOL0     C45691   9.305   7.446   7.404 -0.4948  0.1690  0.2582
  332MOL0     C45692   9.294   7.586   7.327  0.1988  0.0486 -0.6127
  332MOL0     C45693   9.395   7.606   7.209  0.7657 -0.1029  0.0357
  332MOL0     C45694   9.544   7.605   7.264  0.0186 -0.1038 -0.6209
  332MOL0     N45695   9.634   7.651   7.149  0.4935 -0.4614  0.3443
  332MOL0     C45696   9.641   7.600   7.018  0.2153  0.5697  0.0893
  332MOL0     C45697   9.725   7.682   6.950 -0.4503 -0.4122  0.3969
  332MOL0     C45698   9.757   7.690   6.800  0.8286  0.8629 -0.1260
  332MOL0     C45699   9.821   7.821   6.743 -0.0073 -0.3460 -0.1119
  332MOL0     C45700   9.869   7.797   6.600  0.5942 -0.4147  0.1980
  332MOL0     C45701   9.942   7.920   6.540 -0.5594 -0.6611  0.6853
  332MOL0     O45702  10.071   7.952   6.611  0.5202 -0.4360 -0.0048
  332MOL0     C45703  10.187   7.905   6.554  0.0416 -0.3742  0.7580
  332MOL0     C45704  10.194   7.810   6.450 -0.1282  0.4574  0.0945
  332MOL0     C45705  10.318   7.747   6.407 -0.1426 -0.4515 -0.0527
  332MOL0     C45706  10.314   7.654   6.296  0.0801 -0.6208 -0.2165
  332MOL0     C45707  10.438   7.799   6.456 -0.3668  0.1299  0.3841
  332MOL0     C45708  10.577   7.753   6.416 -0.2412 -0.7111  0.2735
  332MOL0     O45709  10.681   7.832   6.460 -0.2528 -0.0766 -0.1081
  332MOL0     C45710  10.796   7.846   6.393  0.1446  1.0973  0.3355
  332MOL0     C45711  10.835   7.772   6.266 -0.8238 -0.6050  0.3299
  332MOL0     C45712  10.965   7.800   6.207 -0.3036 -0.2666 -0.0348
  332MOL0     C45713  11.052   7.891   6.266  0.1464  0.2340  0.3404
  332MOL0     O45714  11.178   7.909   6.221 -0.0639  0.4775 -1.1478
  332MOL0     C45715  11.180   8.011   6.125  0.1529 -0.2984 -0.2357
  332MOL0     C45716  11.247   8.136   6.185  0.3185 -0.3168  0.1449
  332MOL0     C45717  11.293   8.238   6.081 -0.3410  0.1072 -1.0085
  332MOL0     C45718  11.364   8.181   5.960 -0.4426  0.3153  0.3155
  332MOL0     C45719  11.502   8.120   5.994  0.0987  0.8613 -0.6917
  332MOL0     C45720  11.587   8.079   5.875 -0.7269  0.7298  0.1343
  332MOL0     C45721  11.710   7.996   5.910 -0.9535 -0.6864  0.4225
  332MOL0     C45722  11.796   7.966   5.784 -0.8582  0.0407  0.0322
  332MOL0    Cl45723  11.970   7.961   5.852  0.0057 -0.4726 -0.1089
  332MOL0     C45724  11.014   7.958   6.385 -0.7790  0.7937  0.6941
  332MOL0     C45725  10.890   7.938   6.436  0.4296  0.0176 -0.2871
  332MOL0     O45726  10.594   7.638   6.366 -0.7760 -0.2015 -0.1647
  332MOL0     C45727  10.432   7.889   6.563 -1.2610  0.0979 -0.4075
  332MOL0     C45728  10.304   7.934   6.612 -0.0649 -0.1321  0.6655
  332MOL0     N45729   9.775   7.773   7.037 -0.0697 -0.6510 -0.3025
  332MOL0     N45730   9.707   7.769   7.148  0.2421 -0.1421 -0.1887
  332MOL0     C45731   8.949   6.709   7.250  0.1095  0.0235  0.2358
  332MOL0     C45732   8.815   6.677   7.243  0.5048 -0.5840 -0.0017
  332MOL0     C45733   8.377   6.690   7.155  0.1007 -0.7220 -0.5651
  332MOL0     C45734   8.297   6.746   7.048 -0.6518  0.3463 -0.8478
  332MOL0     C45735   8.163   6.710   7.015  0.2234 -0.6501 -0.0613
  332MOL0     C45736   8.109   6.599   7.092 -0.4633  0.6599  0.0769
  332MOL0     O45737   7.985   6.556   7.060  0.0003  0.2917 -0.4881
  332MOL0     C45738   7.903   6.495   7.166 -1.1048 -0.1881 -0.3851
  332MOL0     C45739   7.751   6.505   7.134  0.3928 -0.4444  0.5196
  332MOL0     C45740   7.716   6.653   7.117 -0.2960 -0.1291  0.2508
  332MOL0     C45741   7.573   6.692   7.155 -0.2553  0.2001 -0.8935
  332MOL0     C45742   7.466   6.629   7.066  0.7894 -0.6107 -0.0543
  332MOL0     C45743   7.361   6.592   7.014  0.1166  0.4515 -0.5617
  332MOL0     C45744   8.186   6.534   7.183 -0.2560  0.0364  0.4922
  332MOL0     C45745   8.323   6.567   7.208 -0.0422 -0.1074  0.5247
  332MOL0     C45746   8.402   6.495   7.306  0.8736 -0.0893 -0.5017
  332MOL0     H45747   8.677   6.919   7.431  0.4226 -1.3090  1.6359
  332MOL0     H45748   8.913   6.982   7.443 -2.6093  1.6610 -1.3080
  332MOL0     H45749   9.273   6.923   7.418  0.6552  3.1697  1.1563
  332MOL0     H45750   9.115   6.947   7.494  1.1740  0.7367  0.0901
  332MOL0     H45751   9.201   7.087   7.229  2.4269 -3.8899  1.4552
  332MOL0     H45752   9.059   7.124   7.323 -1.1373 -0.7997 -1.0623
  332MOL0     H45753   9.221   7.218   7.500  0.0975 -1.6548  0.9074
  332MOL0     H45754   9.356   7.165   7.398  0.0733  0.3937  0.2671
  332MOL0     H45755   9.317   7.330   7.226 -0.7446  0.1077 -0.4840
  332MOL0     H45756   9.150   7.361   7.290 -0.5057  0.5474  0.1309
  332MOL0     H45757   9.409   7.423   7.430 -0.7855 -0.7683  0.6198
  332MOL0     H45758   9.248   7.453   7.497  0.2432 -0.0863  0.7449
  332MOL0     H45759   9.194   7.603   7.287  1.0939  1.1592 -2.5434
  332MOL0     H45760   9.318   7.666   7.397 -0.7402 -0.6267  0.5168
  332MOL0     H45761   9.373   7.693   7.147 -2.4945 -1.4999 -0.9676
  332MOL0     H45762   9.388   7.526   7.134  1.5576  0.0716 -0.2340
  332MOL0     H45763   9.554   7.666   7.355 -0.9935  0.1152 -0.6501
  332MOL0     H45764   9.579   7.505   7.292 -1.3780 -0.4475 -0.0113
  332MOL0     H45765   9.584   7.519   6.975  0.9571  1.0713 -1.9383
  332MOL0     H45766   9.669   7.649   6.750  1.6026 -2.1013  0.7422
  332MOL0     H45767   9.835   7.613   6.802  0.5746  0.6109  0.0265
  332MOL0     H45768   9.743   7.898   6.747  0.1315 -0.0975 -1.5577
  332MOL0     H45769   9.909   7.855   6.799 -1.0971 -0.1993  1.5804
  332MOL0     H45770   9.936   7.711   6.597  0.4779 -0.4918 -1.3189
  332MOL0     H45771   9.784   7.782   6.532  1.9815 -0.4721 -1.6020
  332MOL0     H45772   9.951   7.894   6.434 -1.9439  0.0469  0.3597
  332MOL0     H45773   9.870   8.003   6.539 -2.2221 -2.0499  0.5347
  332MOL0     H45774  10.105   7.770   6.402 -0.2178  0.2843  0.4034
  332MOL0     H45775  10.217   7.627   6.254  0.5844 -3.4605  0.2897
  332MOL0     H45776  10.364   7.564   6.332  1.7239  0.7498  1.1094
  332MOL0     H45777  10.380   7.699   6.222  1.3148  1.1690  1.8329
  332MOL0     H45778  10.775   7.701   6.211 -1.1819 -0.6689  0.7909
  332MOL0     H45779  10.980   7.759   6.108 -0.6513 -3.7363  1.1917
  332MOL0     H45780  11.253   7.970   6.055  1.0549 -0.6251  0.8527
  332MOL0     H45781  11.084   8.020   6.074  1.7939 -0.3849 -3.6295
  332MOL0     H45782  11.176   8.186   6.251  0.9344 -1.5713  1.8292
  332MOL0     H45783  11.328   8.104   6.251  0.5849  2.2100  1.1309
  332MOL0     H45784  11.346   8.312   6.142 -0.2750  0.3758 -1.3905
  332MOL0     H45785  11.203   8.288   6.045  0.2719  1.8580 -0.2473
  332MOL0     H45786  11.384   8.258   5.885 -1.9049  1.0300  0.6316
  332MOL0     H45787  11.309   8.103   5.907  1.5912 -2.4351  2.0303
  332MOL0     H45788  11.552   8.200   6.048  1.1958  1.1889 -2.1220
  332MOL0     H45789  11.486   8.035   6.061 -2.3132  2.0770  0.4072
  332MOL0     H45790  11.620   8.170   5.824 -0.2803 -0.8820 -2.6509
  332MOL0     H45791  11.516   8.034   5.804  1.0111 -0.4475 -0.9452
  332MOL0     H45792  11.689   7.901   5.958  1.5603 -0.2383  2.6489
  332MOL0     H45793  11.771   8.052   5.981  0.5833 -2.5053  0.6080
  332MOL0     H45794  11.793   8.036   5.700  0.0705  2.7710  2.0893
  332MOL0     H45795  11.760   7.867   5.755 -0.7813 -0.3297  1.1332
  332MOL0     H45796  11.078   8.037   6.421 -0.6997  1.0272  0.0584
  332MOL0     H45797  10.868   8.001   6.521 -3.6849  0.4434 -1.4597
  332MOL0     H45798  10.522   7.900   6.622 -0.1999 -4.4279 -0.8379
  332MOL0     H45799  10.305   7.988   6.706  2.3916 -1.5666  1.5659
  332MOL0     H45800   9.018   6.645   7.196 -2.8184 -3.3166  0.0568
  332MOL0     H45801   8.784   6.582   7.201  0.5191 -1.8035  2.5189
  332MOL0     H45802   8.342   6.831   6.998  1.5816  0.2285  0.8225
  332MOL0     H45803   8.093   6.755   6.945 -1.4355 -1.7227  0.8394
  332MOL0     H45804   7.929   6.389   7.169  1.1012  0.1684 -2.8732
  332MOL0     H45805   7.931   6.545   7.259  1.1113 -0.0955 -1.0558
  332MOL0     H45806   7.687   6.457   7.209 -0.8670  0.2370 -0.0933
  332MOL0     H45807   7.733   6.455   7.038  1.1028 -0.9781  0.6479
  332MOL0     H45808   7.786   6.705   7.183 -0.4876 -1.3166  1.4068
  332MOL0     H45809   7.733   6.688   7.014  0.1868 -2.2635 -0.4433
  332MOL0     H45810   7.573   6.801   7.142  1.9824  0.3847  0.0380
  332MOL0     H45811   7.563   6.667   7.261 -1.0395 -0.6336 -1.1571
  332MOL0     H45812   7.269   6.552   6.976 -0.6779 -1.3790  2.8615
  332MOL0     H45813   8.163   6.442   7.235  0.1787 -0.6508 -0.5136
  332MOL0     H45814   8.497   6.469   7.258 -0.2744 -0.2572 -2.8108
  332MOL0     H45815   8.429   6.554   7.394  1.3013 -0.4904 -0.3615
  332MOL0     H45816   8.341   6.410   7.337  0.1512 -0.0244 -1.6547
  333MOL0     O45817   6.831  10.930   7.739  0.2640 -0.0458  0.0242
  333MOL0     C45818   6.787  10.852   7.827 -0.0088 -0.4354  0.1224
  333MOL0     O45819   6.864  10.753   7.886 -0.0887 -0.0058 -0.0400
  333MOL0     C45820   6.982  10.729   7.827 -0.6596  0.9315 -0.2341
  333MOL0     C45821   7.014  10.695   7.697  0.1162  0.6032 -0.4515
  333MOL0     C45822   7.139  10.648   7.665 -0.7883  0.2100  0.9491
  333MOL0     C45823   7.248  10.639   7.755 -0.3396  0.2297  0.3368
  333MOL0     O45824   7.374  10.601   7.718 -0.3912  0.0189 -0.1429
  333MOL0     C45825   7.451  10.517   7.804  0.2948  0.0894  0.1667
  333MOL0     C45826   7.582  10.492   7.722 -0.3520  0.2804  0.1452
  333MOL0     C45827   7.679  10.608   7.739 -0.4261  0.5862  0.8113
  333MOL0     C45828   7.751  10.607   7.870  0.3772  0.0718  1.0134
  333MOL0     C45829   7.888  10.686   7.847  0.0067 -0.2747  0.4188
  333MOL0     C45830   8.003  10.611   7.777  0.2294  0.5863  0.1972
  333MOL0     C45831   8.125  10.680   7.805 -0.3275 -0.1995  0.4335
  333MOL0     C45832   8.237  10.666   7.698 -0.0430  0.9221 -0.0227
  333MOL0     N45833   8.338  10.770   7.707 -0.2344  0.1203  0.2909
  333MOL0     C45834   8.476  10.744   7.731  0.2659 -0.8207  0.4161
  333MOL0     C45835   8.526  10.863   7.708  0.3664 -0.1237  0.0133
  333MOL0     C45836   8.676  10.915   7.702 -0.1201  0.3698 -0.3435
  333MOL0     C45837   8.719  10.967   7.832 -0.0037  0.2758 -0.4698
  333MOL0     C45838   8.824  11.080   7.816 -0.3648  0.6868  0.2019
  333MOL0     C45839   8.946  11.066   7.913 -0.2991  0.1283  0.3465
  333MOL0     O45840   9.026  10.955   7.867  0.2336 -0.1172  0.4183
  333MOL0     C45841   9.151  10.920   7.925  0.4093 -0.1354 -0.3030
  333MOL0     C45842   9.213  10.803   7.873 -0.7446  0.1462  0.3404
  333MOL0     C45843   9.335  10.762   7.935 -0.2836  0.1720  0.0286
  333MOL0     C45844   9.396  10.630   7.890 -0.8597  0.0946 -0.2304
  333MOL0     C45845   9.400  10.826   8.036 -1.1595 -0.0695 -0.5898
  333MOL0     C45846   9.526  10.790   8.114 -0.6398 -0.1569 -0.7549
  333MOL0     O45847   9.595  10.894   8.172 -0.5981  0.2023 -0.4304
  333MOL0     C45848   9.703  10.867   8.254  0.0789  0.3584 -0.7475
  333MOL0     C45849   9.713  10.949   8.371 -0.5416 -1.0084  0.1202
  333MOL0     C45850   9.821  10.944   8.455  0.8936 -0.5739  0.0939
  333MOL0     C45851   9.930  10.857   8.430  0.1182 -0.2534  0.3245
  333MOL0     O45852  10.044  10.834   8.508  0.6964  0.0615  0.0142
  333MOL0     C45853  10.044  10.893   8.637 -0.1265 -0.2591  0.5980
  333MOL0     C45854  10.163  10.843   8.714  0.0466  0.8968  0.0257
  333MOL0     C45855  10.291  10.929   8.715 -0.3249  0.6369  0.6324
  333MOL0     C45856  10.355  10.940   8.576 -0.2156  0.2088 -0.2108
  333MOL0     C45857  10.478  11.021   8.577 -0.9213  0.0457 -0.2044
  333MOL0     C45858  10.609  10.947   8.608  0.3285 -0.6830 -0.2515
  333MOL0     C45859  10.736  11.048   8.615 -0.4006  0.3078  0.2468
  333MOL0     C45860  10.868  10.972   8.672  0.7354 -0.3969 -0.0208
  333MOL0    Cl45861  10.980  11.098   8.730  0.0680 -0.5351 -0.2207
  333MOL0     C45862   9.916  10.775   8.313 -0.4788  0.7710 -0.6580
  333MOL0     C45863   9.809  10.780   8.230  0.8053  0.0439  0.4422
  333MOL0     O45864   9.556  10.671   8.135 -0.2943 -0.2312  0.2583
  333MOL0     C45865   9.351  10.954   8.062 -0.3546 -0.0283  0.4313
  333MOL0     C45866   9.230  10.997   8.007 -0.4040 -0.0219 -0.1959
  333MOL0     N45867   8.431  10.951   7.666 -0.4042 -0.1094 -0.3037
  333MOL0     N45868   8.317  10.904   7.682  0.1321 -0.2529 -0.2569
  333MOL0     C45869   7.219  10.666   7.885  0.4272 -1.2806 -0.8617
  333MOL0     C45870   7.090  10.720   7.918 -0.1143  0.4243  0.5867
  333MOL0     C45871   6.650  10.880   7.872  1.2111  0.1819  0.0605
  333MOL0     C45872   6.549  10.905   7.786 -0.1433 -0.5970  0.0348
  333MOL0     C45873   6.414  10.908   7.826  0.8302 -0.3450 -0.7938
  333MOL0     C45874   6.376  10.903   7.954  0.6802 -0.3711  0.3196
  333MOL0     O45875   6.245  10.918   7.999 -0.1025  0.0483  0.4290
  333MOL0     C45876   6.136  10.958   7.905  0.2386 -0.4062  1.0196
  333MOL0     C45877   6.010  11.020   7.981 -0.1919  0.5258 -0.1149
  333MOL0     C45878   5.921  10.921   8.064  0.8436 -0.2603 -0.0899
  333MOL0     C45879   5.868  10.803   7.976  0.0162 -0.3923 -1.1592
  333MOL0     C45880   5.772  10.717   8.048 -0.0358 -1.0912 -0.3968
  333MOL0     C45881   5.703  10.648   8.119 -0.0790 -0.0023 -0.7552
  333MOL0     C45882   6.480  10.893   8.052 -0.2865 -0.3362  0.8335
  333MOL0     C45883   6.620  10.872   8.008  0.3385  0.1408 -0.9188
  333MOL0     C45884   6.715  10.874   8.129  0.1297  0.6372 -1.0851
  333MOL0     H45885   6.940  10.714   7.620 -1.4012 -1.7839  0.3102
  333MOL0     H45886   7.167  10.616   7.565  0.1147  0.8114  0.9966
  333MOL0     H45887   7.384  10.432   7.813 -1.4008  0.9114 -3.0779
  333MOL0     H45888   7.465  10.571   7.898 -0.1788  0.3364  0.0992
  333MOL0     H45889   7.624  10.405   7.773 -1.2402  0.1121  0.6000
  333MOL0     H45890   7.562  10.455   7.621 -1.0186  1.2341 -0.0878
  333MOL0     H45891   7.741  10.594   7.650 -3.4639 -1.0056 -1.2171
  333MOL0     H45892   7.635  10.708   7.729 -2.3933 -0.3765 -1.1112
  333MOL0     H45893   7.692  10.655   7.949 -2.6853 -1.1410 -0.3736
  333MOL0     H45894   7.777  10.504   7.897 -3.1698 -0.7362  1.8871
  333MOL0     H45895   7.930  10.714   7.944  2.8891 -1.4890 -0.3623
  333MOL0     H45896   7.862  10.779   7.796 -0.7524 -1.2443 -1.0216
  333MOL0     H45897   8.002  10.507   7.812  2.5565  0.2769 -0.5040
  333MOL0     H45898   7.984  10.604   7.669 -2.2702 -1.4268  0.6659
  333MOL0     H45899   8.154  10.655   7.908  1.4238  1.1193  0.2969
  333MOL0     H45900   8.112  10.788   7.812  1.1121 -0.0492  1.0845
  333MOL0     H45901   8.288  10.571   7.718 -0.0190  1.0875  0.7485
  333MOL0     H45902   8.177  10.659   7.607 -1.9112  0.0426  1.2106
  333MOL0     H45903   8.540  10.661   7.759  0.3683 -1.0686 -0.5334
  333MOL0     H45904   8.680  10.993   7.625 -0.9677  2.1767  1.3658
  333MOL0     H45905   8.745  10.833   7.681 -0.8397 -0.5452  0.7271
  333MOL0     H45906   8.626  11.001   7.879 -0.5855 -0.2690 -1.1902
  333MOL0     H45907   8.760  10.887   7.895  1.2694 -0.1443 -1.7726
  333MOL0     H45908   8.862  11.081   7.714  0.0119 -2.4848  0.2300
  333MOL0     H45909   8.776  11.178   7.831  0.2567  1.2772 -1.4348
  333MOL0     H45910   9.019  11.147   7.899  2.3398 -2.0614  0.6156
  333MOL0     H45911   8.907  11.063   8.015 -1.4913  2.6131  0.0461
  333MOL0     H45912   9.170  10.753   7.787 -0.8480  2.6389 -1.1748
  333MOL0     H45913   9.503  10.632   7.865 -0.6017 -1.4338  0.6341
  333MOL0     H45914   9.353  10.591   7.797  3.3205 -2.4028 -1.4026
  333MOL0     H45915   9.387  10.554   7.968  0.4193 -1.4590 -1.5180
  333MOL0     H45916   9.629  11.015   8.386  0.7141  1.7233 -3.3113
  333MOL0     H45917   9.817  10.994   8.551 -0.0138  0.2950 -0.3829
  333MOL0     H45918  10.049  11.002   8.635  0.3043 -0.2770 -0.6608
  333MOL0     H45919   9.951  10.858   8.683 -0.0183 -0.7469  0.4599
  333MOL0     H45920  10.122  10.845   8.815 -2.1988  0.5405 -0.8113
  333MOL0     H45921  10.180  10.742   8.676  2.6050  1.6016 -0.9039
  333MOL0     H45922  10.365  10.873   8.773 -2.0645 -0.9284  1.4530
  333MOL0     H45923  10.275  11.027   8.760 -3.4766  0.1091  0.8778
  333MOL0     H45924  10.288  11.000   8.514 -0.9311 -1.2748 -0.9156
  333MOL0     H45925  10.378  10.850   8.518 -2.6098  0.0575 -1.0452
  333MOL0     H45926  10.491  11.068   8.479 -0.5422  3.4981  1.3447
  333MOL0     H45927  10.469  11.111   8.638  1.5602  0.5705 -0.4836
  333MOL0     H45928  10.626  10.883   8.521  1.3657 -0.0252 -0.5505
  333MOL0     H45929  10.610  10.897   8.705  5.6420 -0.9288 -0.0980
  333MOL0     H45930  10.707  11.127   8.684 -1.9446 -0.1734  0.1838
  333MOL0     H45931  10.749  11.090   8.515 -1.3850  1.4310  0.5693
  333MOL0     H45932  10.918  10.917   8.591  0.3838  1.0765 -1.2681
  333MOL0     H45933  10.838  10.910   8.757 -3.2961 -2.4971 -2.6534
  333MOL0     H45934  10.005  10.724   8.278  0.2456  1.7381 -0.2846
  333MOL0     H45935   9.816  10.733   8.133 -0.1492  0.8415 -0.0360
  333MOL0     H45936   9.402  11.014   8.137  0.0242 -1.8583  1.7123
  333MOL0     H45937   9.188  11.087   8.050 -2.4780 -0.3053 -1.4705
  333MOL0     H45938   7.292  10.663   7.966 -2.5759 -1.2239  2.0865
  333MOL0     H45939   7.078  10.731   8.026  2.2013 -2.2839  1.2496
  333MOL0     H45940   6.573  10.935   7.685 -1.0565  0.9672  0.2446
  333MOL0     H45941   6.337  10.910   7.749 -0.6637 -2.0910  0.5658
  333MOL0     H45942   6.167  11.033   7.832 -0.3648 -1.9098 -0.8512
  333MOL0     H45943   6.124  10.865   7.848 -0.7593 -1.6704  3.1509
  333MOL0     H45944   5.946  11.066   7.905  1.8393  0.3987 -2.0252
  333MOL0     H45945   6.050  11.098   8.047 -0.4753  1.1203 -0.6407
  333MOL0     H45946   5.977  10.877   8.147  2.4524 -0.8170 -1.4234
  333MOL0     H45947   5.846  10.988   8.107  2.2217  1.2648  0.0347
  333MOL0     H45948   5.953  10.737   7.954 -1.7350 -3.2476  0.0825
  333MOL0     H45949   5.843  10.842   7.877  0.3839 -0.9247 -1.4676
  333MOL0     H45950   5.625  10.590   8.166 -1.4297  0.8885 -1.8254
  333MOL0     H45951   6.470  10.890   8.160 -0.0004  1.4722  0.9495
  333MOL0     H45952   6.809  10.918   8.094 -0.3043  1.4055 -1.3067
  333MOL0     H45953   6.685  10.931   8.218  0.4711  0.6203 -0.9589
  333MOL0     H45954   6.723  10.773   8.171 -0.4178  1.3233  0.7630
  334MOL0     O45955  10.911  10.393   7.761  0.5165  0.0842  0.6822
  334MOL0     C45956  10.835  10.298   7.741  0.2532  0.1028 -0.0271
  334MOL0     O45957  10.870  10.168   7.762  0.0342  0.5690  0.5144
  334MOL0     C45958  10.992  10.145   7.814 -0.6627  0.0138 -0.7150
  334MOL0     C45959  10.994  10.099   7.944  0.0369 -0.0358  0.6252
  334MOL0     C45960  11.114  10.103   8.018 -0.6008  0.0981 -0.8229
  334MOL0     C45961  11.235  10.115   7.939 -0.1436  0.7628 -0.3979
  334MOL0     O45962  11.356  10.130   8.001 -0.4520 -0.3313 -0.2462
  334MOL0     C45963  11.368  10.139   8.147  0.0831  0.5821  0.0034
  334MOL0     C45964  11.513  10.163   8.191  0.5833 -0.4352 -0.4893
  334MOL0     C45965  11.521  10.210   8.337 -1.1032  0.2629 -0.3036
  334MOL0     C45966  11.515  10.358   8.350  0.0341 -0.9935 -0.1686
  334MOL0     C45967  11.535  10.396   8.500  0.1282  0.2948  0.1380
  334MOL0     C45968  11.434  10.503   8.542 -0.0740  0.5178 -0.1611
  334MOL0     C45969  11.458  10.539   8.693  0.0527  0.6811 -0.8650
  334MOL0     C45970  11.600  10.608   8.706  0.5941 -0.1993 -0.9381
  334MOL0     N45971  11.624  10.690   8.823 -0.5173 -0.4594 -0.0743
  334MOL0     C45972  11.739  10.681   8.900  0.1466 -0.6392 -0.2375
  334MOL0     C45973  11.715  10.758   9.009 -0.3815  0.0775  0.4201
  334MOL0     C45974  11.804  10.787   9.133 -0.3533  0.0621 -0.3759
  334MOL0     C45975  11.935  10.839   9.086  0.1202  1.2503 -0.4307
  334MOL0     C45976  12.009  10.891   9.215 -0.4968  0.3692  0.1555
  334MOL0     C45977  12.152  10.962   9.199 -0.6223  0.6090  0.3644
  334MOL0     O45978  12.221  10.882   9.103 -0.1384  0.7954 -0.1413
  334MOL0     C45979  12.351  10.906   9.084  0.7378 -0.8189  0.0195
  334MOL0     C45980  12.424  10.814   9.005 -0.4499 -0.3272 -0.1919
  334MOL0     C45981  12.557  10.834   8.975 -0.2451  1.0725 -0.4122
  334MOL0     C45982  12.612  10.729   8.879 -0.7953 -0.0057  0.4883
  334MOL0     C45983  12.626  10.943   9.031 -0.3404 -0.5798 -0.0786
  334MOL0     C45984  12.774  10.969   8.998  0.6017 -0.3016 -0.4449
  334MOL0     O45985  12.821  11.089   9.048 -0.1733  0.0417 -0.0584
  334MOL0     C45986  12.943  11.136   9.028  0.4591 -0.0835  0.7888
  334MOL0     C45987  13.060  11.052   8.998 -0.0643 -0.0902  1.1031
  334MOL0     C45988  13.188  11.107   8.986 -0.0350  0.2008 -0.8125
  334MOL0     C45989  13.206  11.243   9.000 -0.5139  0.3276 -0.1781
  334MOL0     O45990  13.329  11.311   8.988 -0.3702  0.4084 -0.5307
  334MOL0     C45991  13.451  11.253   8.948 -0.2269 -0.4501  0.0892
  334MOL0     C45992  13.535  11.367   8.906  0.3501 -0.0272  0.1619
  334MOL0     C45993  13.473  11.431   8.789  0.0578  0.1659 -0.5262
  334MOL0     C45994  13.566  11.547   8.734 -0.3637  0.1433  0.2705
  334MOL0     C45995  13.536  11.588   8.587 -0.6126  0.2823 -0.6850
  334MOL0     C45996  13.630  11.695   8.531  0.4920 -0.3057 -0.4778
  334MOL0     C45997  13.595  11.742   8.383 -0.5999  0.3799 -0.1894
  334MOL0     C45998  13.633  11.888   8.351 -1.0944 -0.7287  0.4594
  334MOL0    Cl45999  13.809  11.913   8.374  0.2058  0.0581  0.0489
  334MOL0     C46000  13.099  11.328   9.025 -0.0406  0.6466 -0.4702
  334MOL0     C46001  12.964  11.272   9.043 -0.0303 -0.4621  0.7440
  334MOL0     O46002  12.831  10.901   8.916  0.1423 -0.0317 -0.2686
  334MOL0     C46003  12.550  11.034   9.110 -0.1468 -0.0402 -0.4594
  334MOL0     C46004  12.415  11.021   9.128  0.6271 -0.3699 -0.3097
  334MOL0     N46005  11.600  10.830   8.982 -0.7747 -0.4064 -0.2895
  334MOL0     N46006  11.548  10.784   8.873  0.2650 -0.1970  0.2893
  334MOL0     C46007  11.232  10.144   7.801 -0.6951  0.6273 -0.8398
  334MOL0     C46008  11.115  10.159   7.737 -0.4779 -0.6823 -0.4166
  334MOL0     C46009  10.706  10.335   7.684  0.9619  0.6353  0.1136
  334MOL0     C46010  10.693  10.419   7.579  0.1440 -0.1322  0.0928
  334MOL0     C46011  10.565  10.447   7.528  0.2512  0.1858 -0.6862
  334MOL0     C46012  10.448  10.384   7.577  0.3715  0.0370 -0.0180
  334MOL0     O46013  10.320  10.397   7.514 -0.2001 -0.4635  0.5089
  334MOL0     C46014  10.202  10.339   7.573  0.1232 -0.3896  0.3598
  334MOL0     C46015  10.100  10.327   7.458 -0.2689  0.4817 -0.8550
  334MOL0     C46016   9.983  10.219   7.483  0.1064  0.1815  0.9025
  334MOL0     C46017   9.869  10.227   7.380 -0.0300 -1.1984  0.4540
  334MOL0     C46018   9.803  10.362   7.364 -0.0850 -0.4979  0.8600
  334MOL0     C46019   9.753  10.478   7.345 -0.5035 -0.3900 -0.4362
  334MOL0     C46020  10.466  10.313   7.691  0.4908  0.6665 -0.2663
  334MOL0     C46021  10.592  10.287   7.750  0.5119  0.2105 -0.0977
  334MOL0     C46022  10.583  10.239   7.898 -0.7414 -0.0369 -0.1592
  334MOL0     H46023  10.895  10.079   7.983  0.3323 -0.3379  1.2341
  334MOL0     H46024  11.118  10.091   8.126 -1.7637 -0.1676 -0.7948
  334MOL0     H46025  11.320  10.052   8.192 -2.5772  1.8614 -0.1528
  334MOL0     H46026  11.311  10.227   8.179 -0.0164  0.5497 -0.0827
  334MOL0     H46027  11.572  10.072   8.181 -0.7810 -1.2282 -1.8416
  334MOL0     H46028  11.561  10.229   8.118  1.8331 -3.0823 -2.2210
  334MOL0     H46029  11.440  10.163   8.393  0.4185 -2.2561 -0.0430
  334MOL0     H46030  11.619  10.170   8.365 -0.4028  1.5291 -0.8460
  334MOL0     H46031  11.596  10.411   8.299 -0.9482 -0.7771 -1.5610
  334MOL0     H46032  11.423  10.399   8.309  1.1195  1.1849 -0.6026
  334MOL0     H46033  11.634  10.435   8.525 -1.3817  2.3725  3.7017
  334MOL0     H46034  11.525  10.309   8.565 -1.5915  2.0447  2.4086
  334MOL0     H46035  11.451  10.588   8.476 -1.0579  1.0003  0.1870
  334MOL0     H46036  11.333  10.462   8.539  1.0617 -2.8423  1.8086
  334MOL0     H46037  11.451  10.459   8.767 -0.5316 -0.6337 -2.2827
  334MOL0     H46038  11.383  10.613   8.722 -3.0612 -1.7875 -2.0970
  334MOL0     H46039  11.676  10.531   8.697  2.1679  1.2125 -0.3499
  334MOL0     H46040  11.612  10.676   8.620 -1.0582  0.5067 -0.6500
  334MOL0     H46041  11.819  10.612   8.876  0.0232 -1.2763  1.1239
  334MOL0     H46042  11.814  10.698   9.196 -2.9279  1.7429  2.6572
  334MOL0     H46043  11.752  10.852   9.204 -0.3649 -1.0457  0.6710
  334MOL0     H46044  11.988  10.750   9.051  2.2460  2.3890 -0.2310
  334MOL0     H46045  11.934  10.910   9.002  1.0167  2.1256  0.2817
  334MOL0     H46046  11.951  10.966   9.270 -0.1802 -0.4604  1.6631
  334MOL0     H46047  12.027  10.808   9.284 -1.8826 -0.7392 -0.7476
  334MOL0     H46048  12.139  11.058   9.149  1.2612  0.4324 -0.5482
  334MOL0     H46049  12.201  10.975   9.296  0.4897 -0.7712  0.0231
  334MOL0     H46050  12.364  10.731   8.967 -0.7132  0.6679 -2.0592
  334MOL0     H46051  12.648  10.777   8.788 -0.6049 -1.3552 -0.1782
  334MOL0     H46052  12.547  10.646   8.848 -0.0071 -0.4558 -0.0000
  334MOL0     H46053  12.690  10.666   8.922  0.0744  0.7266 -0.0039
  334MOL0     H46054  13.047  10.948   8.971 -2.9234  0.6956 -0.9398
  334MOL0     H46055  13.277  11.052   8.957 -1.2014 -1.8132 -0.7782
  334MOL0     H46056  13.495  11.208   9.037  0.3657  0.2134  0.1380
  334MOL0     H46057  13.434  11.181   8.867  0.7966 -0.7487  0.1193
  334MOL0     H46058  13.536  11.440   8.988  2.9457 -1.1843  1.2644
  334MOL0     H46059  13.637  11.331   8.889  0.1062 -0.6565 -0.0029
  334MOL0     H46060  13.379  11.483   8.809  0.0360 -0.7625  2.3060
  334MOL0     H46061  13.450  11.361   8.709 -0.3155  0.8694 -1.0423
  334MOL0     H46062  13.668  11.509   8.729 -0.4166 -0.0081 -4.1118
  334MOL0     H46063  13.547  11.631   8.802  2.8175  1.7714 -0.6713
  334MOL0     H46064  13.555  11.504   8.520 -1.7237  0.3623 -1.1199
  334MOL0     H46065  13.431  11.616   8.578 -0.9322  0.3112  2.1153
  334MOL0     H46066  13.735  11.665   8.529  0.7411  0.5069 -0.0089
  334MOL0     H46067  13.631  11.778   8.602  3.1782  1.5612 -2.4642
  334MOL0     H46068  13.490  11.731   8.354 -2.1104  1.9583  3.9078
  334MOL0     H46069  13.654  11.673   8.323 -3.7538 -2.7950  0.0150
  334MOL0     H46070  13.576  11.966   8.403 -0.3958 -0.4744  0.8567
  334MOL0     H46071  13.614  11.895   8.243 -1.7345  0.4012  0.6286
  334MOL0     H46072  13.130  11.432   9.029  3.1642 -0.2082 -0.9886
  334MOL0     H46073  12.880  11.339   9.061 -1.3727 -1.5196 -1.2123
  334MOL0     H46074  12.597  11.127   9.140 -1.1855  0.9044 -1.6802
  334MOL0     H46075  12.360  11.098   9.179 -2.0898 -1.6352 -1.1213
  334MOL0     H46076  11.328  10.166   7.754  1.8639  1.5026  4.1396
  334MOL0     H46077  11.127  10.183   7.632  3.1331 -0.9516 -0.1622
  334MOL0     H46078  10.785  10.456   7.536  1.2783  0.8330  3.1372
  334MOL0     H46079  10.544  10.499   7.435  2.6091  0.1708 -1.2758
  334MOL0     H46080  10.224  10.236   7.602  1.2695 -0.2176  0.1708
  334MOL0     H46081  10.167  10.395   7.660  0.2320  2.0253 -1.0517
  334MOL0     H46082  10.153  10.297   7.367 -1.1701  0.4974 -1.4044
  334MOL0     H46083  10.069  10.430   7.440 -1.0833  0.1410 -1.4746
  334MOL0     H46084  10.021  10.118   7.465  2.6677  1.1018  0.7181
  334MOL0     H46085   9.949  10.233   7.586  0.4510  0.3363  0.9969
  334MOL0     H46086   9.793  10.155   7.411  0.5162 -1.4646  1.2057
  334MOL0     H46087   9.904  10.194   7.282 -2.1135 -0.8948 -0.4652
  334MOL0     H46088   9.693  10.562   7.313 -0.3761 -0.9257 -2.1889
  334MOL0     H46089  10.379  10.271   7.741 -1.7144 -0.5765 -4.6436
  334MOL0     H46090  10.619  10.136   7.900  2.3024  0.9304 -0.9758
  334MOL0     H46091  10.647  10.297   7.963 -0.2274 -0.9930  0.2041
  334MOL0     H46092  10.478  10.254   7.927 -0.5358  2.0471 -0.3385
  335MOL0     O46093   0.784   4.114   0.946 -0.0608 -0.0353  0.1293
  335MOL0     C46094   0.715   4.099   0.846 -0.4490 -0.6575 -0.0921
  335MOL0     O46095   0.750   4.141   0.717  0.0712 -0.3361  0.7725
  335MOL0     C46096   0.858   4.225   0.721  0.0308 -0.8466  0.5149
  335MOL0     C46097   0.840   4.364   0.718 -0.7871 -0.0192  0.2235
  335MOL0     C46098   0.943   4.458   0.708 -0.7304  0.1532 -0.4363
  335MOL0     C46099   1.079   4.413   0.722  0.6372 -0.4821  0.6377
  335MOL0     O46100   1.191   4.490   0.715  0.1116 -0.6678  0.1982
  335MOL0     C46101   1.175   4.633   0.691  0.7111 -0.6651  0.6554
  335MOL0     C46102   1.147   4.663   0.535  0.5687 -0.3146 -1.3417
  335MOL0     C46103   1.261   4.604   0.453  0.2994  0.3857  0.4893
  335MOL0     C46104   1.392   4.685   0.472 -0.2896  0.2929  0.6571
  335MOL0     C46105   1.491   4.643   0.365 -0.4987 -0.6597  0.8456
  335MOL0     C46106   1.612   4.732   0.383 -0.8897 -0.6463 -0.4085
  335MOL0     C46107   1.714   4.719   0.275 -0.0654 -0.2109  0.4384
  335MOL0     C46108   1.821   4.828   0.299  0.2553  0.2982 -0.6452
  335MOL0     N46109   1.932   4.817   0.200  0.3345  0.4441  0.4533
  335MOL0     C46110   1.943   4.896   0.089  0.4534  0.1142  0.0860
  335MOL0     C46111   2.056   4.845   0.027 -0.3728 -0.4620  0.0014
  335MOL0     C46112   2.106   4.892  -0.105 -0.2742 -0.8769  1.2493
  335MOL0     C46113   2.218   4.996  -0.109  1.1954 -0.4263 -0.1237
  335MOL0     C46114   2.285   5.039  -0.248  0.0074  0.0100  0.0430
  335MOL0     C46115   2.174   5.099  -0.341 -0.1203 -0.3491 -0.4993
  335MOL0     O46116   2.128   5.230  -0.300 -0.1682  0.1775  0.1577
  335MOL0     C46117   2.208   5.339  -0.346 -0.5587  0.3244  0.6239
  335MOL0     C46118   2.333   5.337  -0.410  0.4465 -0.2915  0.5284
  335MOL0     C46119   2.403   5.455  -0.460 -0.2468  0.9081  0.0032
  335MOL0     C46120   2.529   5.438  -0.532  0.3836  0.9988  0.5583
  335MOL0     C46121   2.347   5.577  -0.429 -0.5641 -0.1995 -0.1612
  335MOL0     C46122   2.408   5.709  -0.459  0.0818  0.1282 -0.1657
  335MOL0     O46123   2.345   5.805  -0.391 -0.0358  0.3860  0.0502
  335MOL0     C46124   2.369   5.939  -0.421  0.3771  0.1012  0.0895
  335MOL0     C46125   2.450   6.026  -0.354  0.4145  0.0963  0.2709
  335MOL0     C46126   2.438   6.159  -0.376  1.2286  0.1790 -0.3028
  335MOL0     C46127   2.357   6.207  -0.474  0.8380 -0.0007 -1.0468
  335MOL0     O46128   2.357   6.342  -0.494  0.0044 -0.3037 -0.2817
  335MOL0     C46129   2.366   6.380  -0.637 -0.1118 -0.0711 -1.3023
  335MOL0     C46130   2.371   6.536  -0.659 -0.6586  0.2434 -0.5979
  335MOL0     C46131   2.494   6.603  -0.612 -0.5788  0.6693  0.0934
  335MOL0     C46132   2.628   6.548  -0.662 -0.0966 -0.4977 -0.2182
  335MOL0     C46133   2.755   6.635  -0.619  0.5226  0.3211 -0.0660
  335MOL0     C46134   2.878   6.607  -0.715  0.0908 -0.1417  0.6595
  335MOL0     C46135   3.006   6.685  -0.672  0.5807 -0.2644  0.2213
  335MOL0     C46136   3.119   6.652  -0.777  0.0406 -0.3692 -0.6284
  335MOL0    Cl46137   3.099   6.752  -0.930  0.1574  0.1687 -0.2232
  335MOL0     C46138   2.268   6.124  -0.547  0.4806  0.3012  0.3752
  335MOL0     C46139   2.277   5.985  -0.520 -0.4237 -0.0030  1.3945
  335MOL0     O46140   2.502   5.720  -0.541  0.3944 -0.5620 -0.2769
  335MOL0     C46141   2.229   5.577  -0.354  0.6066 -0.3344 -0.8584
  335MOL0     C46142   2.160   5.465  -0.312 -0.0686 -0.2145 -0.6954
  335MOL0     N46143   2.121   4.753   0.105 -0.4012  0.0052 -0.3566
  335MOL0     N46144   2.043   4.739   0.204  0.1577  0.1161 -0.7011
  335MOL0     C46145   1.098   4.266   0.729 -0.4250  0.0791  0.3298
  335MOL0     C46146   0.990   4.177   0.715  0.1376  0.3670 -0.2841
  335MOL0     C46147   0.585   4.021   0.872 -0.8533  0.4125  0.3945
  335MOL0     C46148   0.585   3.941   0.983  0.2488 -0.2457 -0.4297
  335MOL0     C46149   0.459   3.892   1.019 -0.5344  0.1818  0.5010
  335MOL0     C46150   0.351   3.886   0.936 -0.1755 -0.0815  0.1488
  335MOL0     O46151   0.240   3.817   0.986 -0.7866  0.2140 -0.1898
  335MOL0     C46152   0.131   3.781   0.899 -0.7619  0.1064  0.1536
  335MOL0     C46153   0.155   3.676   0.783  0.3358  0.6209  0.1579
  335MOL0     C46154   0.230   3.547   0.828  0.0370 -0.3442  0.2541
  335MOL0     C46155   0.278   3.462   0.707  0.1392 -0.3827  0.0176
  335MOL0     C46156   0.344   3.333   0.752  0.0123 -0.4104  0.6358
  335MOL0     C46157   0.371   3.212   0.784  0.0468  0.3273  0.6772
  335MOL0     C46158   0.363   3.953   0.813 -0.0570  0.3332 -0.8219
  335MOL0     C46159   0.472   4.034   0.786 -0.1028 -0.3066  0.1154
  335MOL0     C46160   0.451   4.109   0.649  0.1743 -0.9976 -0.1650
  335MOL0     H46161   0.737   4.396   0.714 -1.1657 -1.3181 -1.9994
  335MOL0     H46162   0.918   4.558   0.676  1.5307  2.1722  3.4579
  335MOL0     H46163   1.267   4.686   0.717 -0.6614  1.6693  1.1058
  335MOL0     H46164   1.104   4.682   0.760  1.7136 -0.1794  1.3686
  335MOL0     H46165   1.049   4.621   0.511  1.0561 -2.4511  0.1340
  335MOL0     H46166   1.150   4.771   0.518  1.8771 -0.1213 -0.0870
  335MOL0     H46167   1.278   4.502   0.490 -1.1986  1.0151  3.2317
  335MOL0     H46168   1.240   4.596   0.346  2.6377  0.0185  0.0021
  335MOL0     H46169   1.366   4.789   0.452 -0.7895 -0.0244 -0.4423
  335MOL0     H46170   1.433   4.664   0.571  3.0918 -1.2860 -0.8993
  335MOL0     H46171   1.445   4.662   0.268 -3.9394 -0.5076  2.3809
  335MOL0     H46172   1.510   4.536   0.377  0.2275 -0.4430  1.7531
  335MOL0     H46173   1.587   4.838   0.396 -0.4243 -0.7756  2.1394
  335MOL0     H46174   1.662   4.683   0.467  1.6960 -0.8885 -1.9815
  335MOL0     H46175   1.676   4.730   0.173  0.8633  1.1555  0.2274
  335MOL0     H46176   1.759   4.619   0.276 -3.7530 -2.0512  0.8216
  335MOL0     H46177   1.780   4.928   0.287 -0.3354  0.0551 -0.6709
  335MOL0     H46178   1.859   4.795   0.396 -1.7815 -1.8612 -0.4998
  335MOL0     H46179   1.868   4.962   0.047  0.3453 -1.6622 -2.8286
  335MOL0     H46180   2.026   4.936  -0.166 -0.1887 -2.7024 -0.2897
  335MOL0     H46181   2.140   4.802  -0.156  0.8665 -0.4430  1.2298
  335MOL0     H46182   2.186   5.085  -0.053  6.4241  0.6248  1.7919
  335MOL0     H46183   2.305   4.950  -0.062  1.7422 -1.5117 -2.0757
  335MOL0     H46184   2.368   5.106  -0.222 -0.8929  1.4105 -0.6175
  335MOL0     H46185   2.324   4.943  -0.285  1.5851  0.0997  1.3323
  335MOL0     H46186   2.207   5.101  -0.445 -0.5740  0.5509 -0.6393
  335MOL0     H46187   2.097   5.023  -0.349  0.1244 -1.0654  2.5993
  335MOL0     H46188   2.373   5.242  -0.442 -0.6256 -0.7312  0.4247
  335MOL0     H46189   2.568   5.336  -0.530 -0.4762  0.6014 -1.2024
  335MOL0     H46190   2.611   5.496  -0.489 -0.6535  1.9094  1.3879
  335MOL0     H46191   2.522   5.452  -0.640 -2.7640 -0.1889  0.5226
  335MOL0     H46192   2.511   5.975  -0.280 -2.4471 -3.0347  0.7362
  335MOL0     H46193   2.493   6.228  -0.312  0.3224  1.2101 -0.5958
  335MOL0     H46194   2.454   6.332  -0.680 -1.0240 -1.6873 -1.4553
  335MOL0     H46195   2.285   6.340  -0.699  0.0281 -1.3687 -0.6920
  335MOL0     H46196   2.360   6.542  -0.768 -0.6635 -0.5891 -0.6484
  335MOL0     H46197   2.288   6.584  -0.606 -0.1126  4.5505 -3.1499
  335MOL0     H46198   2.510   6.615  -0.505  1.9721 -0.8602 -0.0263
  335MOL0     H46199   2.486   6.704  -0.654  4.6334  0.9664 -0.9280
  335MOL0     H46200   2.625   6.538  -0.771  0.3420 -2.2347 -0.0979
  335MOL0     H46201   2.646   6.451  -0.615 -0.1023 -0.5180 -0.2584
  335MOL0     H46202   2.747   6.744  -0.624  0.5979  0.2719 -2.1408
  335MOL0     H46203   2.773   6.607  -0.515 -0.4444 -0.1608 -0.0100
  335MOL0     H46204   2.851   6.625  -0.819 -0.7288 -2.4010  0.4152
  335MOL0     H46205   2.903   6.501  -0.703  0.8332 -0.0337  0.1543
  335MOL0     H46206   3.026   6.643  -0.573 -2.8018 -0.6694  0.8470
  335MOL0     H46207   2.996   6.793  -0.660  4.5409  0.1820  0.6900
  335MOL0     H46208   3.116   6.545  -0.801 -0.1914 -0.4536 -0.2338
  335MOL0     H46209   3.212   6.677  -0.725 -1.3382 -0.8764  2.3071
  335MOL0     H46210   2.187   6.164  -0.608  0.7743  2.6104  1.3894
  335MOL0     H46211   2.208   5.910  -0.556 -1.3172  2.1749 -1.8126
  335MOL0     H46212   2.167   5.660  -0.322 -3.8615 -3.5322 -0.2043
  335MOL0     H46213   2.066   5.475  -0.258  0.2330  1.0394 -0.3705
  335MOL0     H46214   1.192   4.213   0.738  0.3789  1.2347 -1.0311
  335MOL0     H46215   1.004   4.069   0.716 -1.2007  0.1882  0.6621
  335MOL0     H46216   0.671   3.914   1.044  0.4422  0.2716 -0.4764
  335MOL0     H46217   0.450   3.835   1.111  0.6524  0.0233  0.5390
  335MOL0     H46218   0.052   3.740   0.962 -2.0081  1.5943 -0.3699
  335MOL0     H46219   0.087   3.870   0.852  0.1320  0.4548 -0.0417
  335MOL0     H46220   0.203   3.718   0.694  2.1154  1.3112  1.3915
  335MOL0     H46221   0.054   3.645   0.754 -0.5733  1.4771  2.1665
  335MOL0     H46222   0.315   3.571   0.892  1.9311  1.6185 -2.7488
  335MOL0     H46223   0.164   3.480   0.885 -0.1964 -0.6640 -0.3854
  335MOL0     H46224   0.342   3.509   0.631 -1.3374 -0.0306 -1.0563
  335MOL0     H46225   0.188   3.424   0.657  0.2611  1.9835 -2.2644
  335MOL0     H46226   0.400   3.113   0.811 -1.9581 -1.1244 -2.1051
  335MOL0     H46227   0.282   3.942   0.742 -1.7858  0.5508  1.0490
  335MOL0     H46228   0.522   4.189   0.625 -0.2545 -1.1108 -1.9466
  335MOL0     H46229   0.447   4.035   0.569 -0.2084 -1.0358 -0.1154
  335MOL0     H46230   0.357   4.159   0.674  1.1077  1.1757 -0.8230
  336MOL0     O46231   7.244   2.038   8.624 -0.0891  0.1494 -0.2657
  336MOL0     C46232   7.179   2.140   8.663 -0.1259  0.0552 -0.0783
  336MOL0     O46233   7.223   2.268   8.661 -0.5462  0.3284 -0.4773
  336MOL0     C46234   7.345   2.289   8.606 -0.2258 -0.2051 -0.6936
  336MOL0     C46235   7.397   2.236   8.486  0.7554  0.4193 -0.6100
  336MOL0     C46236   7.527   2.259   8.440 -0.0934  0.0723  0.0511
  336MOL0     C46237   7.608   2.343   8.518  0.1408 -0.1033 -1.0991
  336MOL0     O46238   7.745   2.372   8.506  0.1752 -0.2501 -0.4416
  336MOL0     C46239   7.798   2.331   8.382  0.4860  0.0415 -0.2410
  336MOL0     C46240   7.930   2.391   8.358  0.5561  0.0115 -0.3211
  336MOL0     C46241   8.045   2.352   8.457  0.8899  0.4266 -0.0927
  336MOL0     C46242   8.174   2.431   8.421 -0.8742 -0.0984 -0.2742
  336MOL0     C46243   8.265   2.415   8.543 -0.0308 -0.3686  0.0566
  336MOL0     C46244   8.415   2.395   8.501  0.1984 -1.0039 -0.9386
  336MOL0     C46245   8.484   2.522   8.481 -0.2937 -0.6986 -0.1736
  336MOL0     C46246   8.638   2.514   8.447  0.6097 -0.7617  0.5135
  336MOL0     N46247   8.715   2.503   8.575  0.2722 -1.1330 -0.5584
  336MOL0     C46248   8.747   2.618   8.643 -0.1139  1.0491  0.6999
  336MOL0     C46249   8.826   2.567   8.743 -0.3629 -0.5716 -0.4692
  336MOL0     C46250   8.903   2.635   8.854  0.1062 -0.4102  0.0800
  336MOL0     C46251   8.892   2.571   9.000  0.1803  0.0067  0.0101
  336MOL0     C46252   8.984   2.462   9.056 -0.1725  0.2832  0.2421
  336MOL0     C46253   9.138   2.512   9.065 -0.2273 -0.0665 -0.5631
  336MOL0     O46254   9.154   2.585   9.188 -0.7135  0.4568  0.0803
  336MOL0     C46255   9.281   2.624   9.226  0.5746  0.3714 -0.0682
  336MOL0     C46256   9.399   2.576   9.178 -0.4336  0.4296  0.1573
  336MOL0     C46257   9.522   2.622   9.214 -0.5684  0.8839 -0.3216
  336MOL0     C46258   9.640   2.569   9.123 -0.2278  0.3425  0.3636
  336MOL0     C46259   9.532   2.707   9.322  0.3822 -0.3735 -0.3652
  336MOL0     C46260   9.653   2.781   9.362  0.1802 -0.7801  0.2475
  336MOL0     O46261   9.778   2.713   9.357  1.0111 -0.1929 -0.9962
  336MOL0     C46262   9.902   2.778   9.369 -0.3937  0.4931  0.9017
  336MOL0     C46263   9.999   2.707   9.442  0.0512 -0.2169  0.0086
  336MOL0     C46264  10.126   2.762   9.466  0.6903  0.0700 -0.2782
  336MOL0     C46265  10.163   2.875   9.409  0.3330 -0.0534 -0.6167
  336MOL0     O46266  10.293   2.923   9.422 -0.0592  0.0525  0.3640
  336MOL0     C46267  10.395   2.839   9.359  0.7629  0.1993 -0.2611
  336MOL0     C46268  10.534   2.879   9.407 -0.9023 -0.0013 -0.2283
  336MOL0     C46269  10.556   2.881   9.554 -0.3157  0.2385 -0.3497
  336MOL0     C46270  10.645   2.994   9.606  0.3041 -0.8932 -0.2041
  336MOL0     C46271  10.687   2.985   9.750  0.6146  0.4838  0.6425
  336MOL0     C46272  10.750   3.119   9.795  0.2534  0.0453 -0.6766
  336MOL0     C46273  10.646   3.224   9.831 -0.1933 -0.5406  0.2074
  336MOL0     C46274  10.713   3.367   9.819  0.4814 -0.8550  1.1842
  336MOL0    Cl46275  10.671   3.424   9.652 -0.1103 -0.0015 -0.0051
  336MOL0     C46276  10.070   2.947   9.335 -0.0322 -0.1149  1.3811
  336MOL0     C46277   9.939   2.903   9.316  0.3054 -0.8628  0.1635
  336MOL0     O46278   9.638   2.892   9.414 -0.7266  0.8141  0.3118
  336MOL0     C46279   9.409   2.751   9.381 -0.0362 -0.1563  1.2326
  336MOL0     C46280   9.285   2.724   9.327  0.1289 -0.4815 -0.4538
  336MOL0     N46281   8.824   2.427   8.735 -0.2747  0.3260 -0.2258
  336MOL0     N46282   8.758   2.389   8.634 -0.2549 -0.3638  0.2623
  336MOL0     C46283   7.558   2.398   8.631  0.9068  0.1629 -0.4108
  336MOL0     C46284   7.428   2.373   8.672  0.8779  0.0244 -0.1030
  336MOL0     C46285   7.037   2.128   8.709  0.3376  0.0487  0.3788
  336MOL0     C46286   6.948   2.240   8.692  1.1586 -0.0299  0.1601
  336MOL0     C46287   6.821   2.235   8.732  0.6993  0.3059  0.4624
  336MOL0     C46288   6.768   2.119   8.798 -0.1013 -1.1981 -0.4591
  336MOL0     O46289   6.646   2.113   8.850 -0.3605  0.4005  0.4361
  336MOL0     C46290   6.542   2.191   8.795  0.1510 -0.0666  0.0796
  336MOL0     C46291   6.411   2.178   8.876 -0.4745 -0.1563 -0.2237
  336MOL0     C46292   6.309   2.284   8.829  0.2824  0.7998 -0.7432
  336MOL0     C46293   6.172   2.229   8.855 -0.5532 -0.0047 -0.7620
  336MOL0     C46294   6.074   2.342   8.839  0.0060 -0.5674 -0.8110
  336MOL0     C46295   6.005   2.438   8.827 -0.1182  0.7186 -0.0218
  336MOL0     C46296   6.856   2.011   8.824 -0.0175 -0.4687  1.3002
  336MOL0     C46297   6.987   2.012   8.771 -1.2677  0.2514 -0.2883
  336MOL0     C46298   7.059   1.885   8.789 -0.6893 -0.0645  0.1834
  336MOL0     H46299   7.332   2.173   8.425  2.5886 -1.1133 -1.0885
  336MOL0     H46300   7.573   2.211   8.354 -0.5558  0.5555 -0.4804
  336MOL0     H46301   7.730   2.366   8.303 -1.2330 -2.2793  0.1128
  336MOL0     H46302   7.806   2.222   8.375 -1.4295 -0.2507  1.2735
  336MOL0     H46303   7.961   2.346   8.263  0.5026 -2.5247  0.7874
  336MOL0     H46304   7.912   2.498   8.370 -1.8235 -0.5871  2.5692
  336MOL0     H46305   8.009   2.379   8.557 -2.3372 -2.5945 -0.2405
  336MOL0     H46306   8.070   2.246   8.448 -1.9089 -0.3805  0.6688
  336MOL0     H46307   8.217   2.374   8.338 -1.4386 -2.2502  0.8141
  336MOL0     H46308   8.146   2.533   8.392 -0.3955  0.6103  1.6300
  336MOL0     H46309   8.225   2.333   8.603  0.0167 -1.0326 -0.7878
  336MOL0     H46310   8.253   2.510   8.596  1.6197  0.6978 -1.3672
  336MOL0     H46311   8.465   2.340   8.581 -3.4562 -0.3766  2.0726
  336MOL0     H46312   8.428   2.341   8.407  0.8459 -2.2059 -0.1747
  336MOL0     H46313   8.468   2.590   8.565  0.2573 -0.4048 -0.3039
  336MOL0     H46314   8.443   2.578   8.396  0.2484 -0.1014 -0.0449
  336MOL0     H46315   8.662   2.443   8.367 -2.4474  0.1495 -1.3873
  336MOL0     H46316   8.666   2.609   8.400  2.5421 -1.4991  0.0969
  336MOL0     H46317   8.716   2.713   8.601 -0.8993  0.1720 -0.7989
  336MOL0     H46318   8.864   2.737   8.851  3.0743  0.8359  0.9107
  336MOL0     H46319   9.007   2.634   8.819  0.5195  0.0457  1.2666
  336MOL0     H46320   8.891   2.657   9.067 -0.7120  1.6824 -2.0220
  336MOL0     H46321   8.788   2.537   9.008 -0.3705  1.7737  0.8717
  336MOL0     H46322   8.954   2.423   9.154  0.5014 -3.4095 -0.8443
  336MOL0     H46323   8.980   2.375   8.989  0.7720  1.0900 -0.9048
  336MOL0     H46324   9.207   2.427   9.071 -0.6397 -0.3223  0.8976
  336MOL0     H46325   9.165   2.578   8.981 -0.0058  0.6477  0.0559
  336MOL0     H46326   9.401   2.508   9.095 -3.4391 -0.0990  0.4339
  336MOL0     H46327   9.720   2.507   9.165 -0.4650 -0.4624 -0.3519
  336MOL0     H46328   9.689   2.653   9.074  0.4617 -0.9797 -1.3223
  336MOL0     H46329   9.601   2.523   9.032  1.0477  1.4002 -0.7747
  336MOL0     H46330  10.003   2.604   9.476  1.1099  0.0571  0.7684
  336MOL0     H46331  10.198   2.702   9.520  3.3849  1.5705 -2.0038
  336MOL0     H46332  10.380   2.734   9.384  1.6460 -0.3414 -1.8565
  336MOL0     H46333  10.384   2.847   9.251  3.2538  2.3277 -0.4707
  336MOL0     H46334  10.606   2.811   9.361  0.2518  2.7345 -2.7954
  336MOL0     H46335  10.558   2.977   9.365 -1.0270 -0.3387 -1.0956
  336MOL0     H46336  10.606   2.785   9.567  1.9357  1.3294 -0.4516
  336MOL0     H46337  10.461   2.891   9.607 -1.2408 -0.7843 -1.7509
  336MOL0     H46338  10.600   3.088   9.574  0.5783 -1.0980 -1.2362
  336MOL0     H46339  10.731   3.000   9.538  0.3464  3.7777 -0.0718
  336MOL0     H46340  10.603   2.970   9.818 -0.4888  0.9108 -0.5950
  336MOL0     H46341  10.762   2.907   9.766  1.4611  1.3983  1.2779
  336MOL0     H46342  10.816   3.156   9.716  2.1176  0.2067  0.8919
  336MOL0     H46343  10.817   3.100   9.879  0.4730  0.7770 -0.6806
  336MOL0     H46344  10.616   3.215   9.936 -0.7647  0.2812  0.1251
  336MOL0     H46345  10.554   3.223   9.773 -1.2551 -0.5120  1.8241
  336MOL0     H46346  10.823   3.373   9.825  0.6160  1.7577 -1.4297
  336MOL0     H46347  10.675   3.443   9.888 -1.1732 -1.2087  0.6955
  336MOL0     H46348  10.096   3.038   9.282 -1.5084  0.6050  1.8465
  336MOL0     H46349   9.864   2.953   9.256  1.6287  1.5023  0.3904
  336MOL0     H46350   9.411   2.826   9.459  1.1032  1.8671 -0.6127
  336MOL0     H46351   9.204   2.781   9.372  0.5007 -0.2625 -0.0480
  336MOL0     H46352   7.622   2.459   8.694  1.6450  0.2977 -1.2721
  336MOL0     H46353   7.395   2.423   8.763  2.2264 -0.0495  0.4621
  336MOL0     H46354   6.977   2.333   8.644  0.1736  0.9714  1.4338
  336MOL0     H46355   6.763   2.325   8.714 -1.0630 -1.1536 -1.6846
  336MOL0     H46356   6.566   2.297   8.806 -1.6798  0.2276  1.7948
  336MOL0     H46357   6.518   2.168   8.691 -1.2252 -0.7535  0.5283
  336MOL0     H46358   6.434   2.191   8.982  1.1457  1.8792 -0.7694
  336MOL0     H46359   6.373   2.078   8.854 -0.8621  0.0504 -0.5076
  336MOL0     H46360   6.323   2.370   8.895  0.3386 -1.3607  2.3054
  336MOL0     H46361   6.326   2.310   8.724 -0.7834 -1.3950 -1.5345
  336MOL0     H46362   6.165   2.218   8.964  0.9291  2.4798 -0.3323
  336MOL0     H46363   6.163   2.138   8.796  2.6329 -0.0099 -1.3893
  336MOL0     H46364   5.949   2.527   8.808  0.3798  0.5326 -2.7946
  336MOL0     H46365   6.822   1.920   8.872  1.5490 -2.0711 -0.4748
  336MOL0     H46366   7.015   1.824   8.869  0.2232 -1.5224 -0.3823
  336MOL0     H46367   7.051   1.827   8.697  0.8186  1.8528 -1.2364
  336MOL0     H46368   7.165   1.889   8.816 -0.5874 -4.1881  1.0567
  337MOL0     O46369   8.528   4.721   1.503  0.6316  0.1486  0.2006
  337MOL0     C46370   8.554   4.838   1.475 -0.4642 -1.0120  0.5274
  337MOL0     O46371   8.477   4.936   1.414  0.1550 -0.0650  0.4481
  337MOL0     C46372   8.363   4.879   1.375  1.0045  0.0325 -0.4715
  337MOL0     C46373   8.244   4.918   1.443  0.6820 -0.8045  0.2282
  337MOL0     C46374   8.112   4.868   1.417 -0.4930  0.4838 -0.8028
  337MOL0     C46375   8.089   4.783   1.311  1.0216 -0.1867  0.1022
  337MOL0     O46376   7.962   4.738   1.291  0.6470  0.2667  0.4610
  337MOL0     C46377   7.884   4.832   1.226  0.6069 -0.5951 -0.2049
  337MOL0     C46378   7.736   4.782   1.233  0.2303  0.0623  0.1844
  337MOL0     C46379   7.684   4.763   1.373 -0.6273 -0.1651  0.7225
  337MOL0     C46380   7.667   4.891   1.451 -0.3209  0.0809  0.2390
  337MOL0     C46381   7.550   4.893   1.548  0.7677  0.6719  0.0074
  337MOL0     C46382   7.536   5.034   1.609  0.2450 -0.8470 -0.8912
  337MOL0     C46383   7.488   5.029   1.756  0.5217 -0.3898 -0.0097
  337MOL0     C46384   7.409   5.151   1.810  0.5946  0.1935 -0.1418
  337MOL0     N46385   7.377   5.121   1.949  0.7578 -0.0630 -0.3885
  337MOL0     C46386   7.464   5.125   2.055  0.7116 -0.0326 -0.5132
  337MOL0     C46387   7.392   5.065   2.151  1.0481 -0.5617  0.1221
  337MOL0     C46388   7.459   5.026   2.283  0.0404 -0.0708 -0.7257
  337MOL0     C46389   7.369   5.017   2.413  0.1659  0.4109 -0.3915
  337MOL0     C46390   7.442   4.967   2.537  0.7234 -0.7679  0.3683
  337MOL0     C46391   7.541   5.068   2.597 -0.0113  0.2950  0.0518
  337MOL0     O46392   7.666   5.062   2.536 -0.1600 -0.3592 -0.8542
  337MOL0     C46393   7.767   4.980   2.573  0.1581  0.1146 -0.3768
  337MOL0     C46394   7.857   4.951   2.466  0.9859 -0.3576  0.0249
  337MOL0     C46395   7.961   4.867   2.495  0.3953  0.3134 -0.2109
  337MOL0     C46396   8.071   4.858   2.393 -0.5894  1.0527  0.1525
  337MOL0     C46397   7.978   4.814   2.624  0.7467  0.6237  0.0701
  337MOL0     C46398   8.081   4.717   2.673 -0.1935  0.0283 -0.0981
  337MOL0     O46399   8.133   4.640   2.574  0.2985  0.1094 -0.0809
  337MOL0     C46400   8.243   4.560   2.589 -0.0220 -0.8481 -0.8352
  337MOL0     C46401   8.257   4.443   2.519 -0.3676  0.1365  0.5181
  337MOL0     C46402   8.381   4.375   2.524  0.0791  0.5799  0.4757
  337MOL0     C46403   8.479   4.413   2.615 -0.1760  0.7661 -1.1031
  337MOL0     O46404   8.589   4.328   2.635  0.1719  0.0360  0.5514
  337MOL0     C46405   8.723   4.388   2.632  0.5880  0.1240 -0.5970
  337MOL0     C46406   8.831   4.291   2.623  0.1765  0.6259 -0.0611
  337MOL0     C46407   8.868   4.259   2.481 -0.1130  0.5407  0.1283
  337MOL0     C46408   9.005   4.184   2.474 -0.6943 -0.3656 -0.6386
  337MOL0     C46409   9.045   4.131   2.334  0.2642 -0.0149  0.4631
  337MOL0     C46410   9.172   4.044   2.355 -0.1439 -0.4170 -0.1906
  337MOL0     C46411   9.226   4.009   2.213 -0.6725  0.7038  0.1462
  337MOL0     C46412   9.367   3.952   2.229  0.0442 -0.6971  0.0982
  337MOL0    Cl46413   9.369   3.810   2.341 -0.5465  0.5426  0.2392
  337MOL0     C46414   8.456   4.519   2.699 -0.3650 -0.3088 -0.1819
  337MOL0     C46415   8.341   4.601   2.676 -0.6755  0.1152 -0.2394
  337MOL0     O46416   8.101   4.703   2.796  1.0000 -0.1630 -0.4221
  337MOL0     C46417   7.885   4.832   2.727  0.5375  0.0663 -0.0712
  337MOL0     C46418   7.778   4.912   2.698 -0.0501 -0.8790  0.4643
  337MOL0     N46419   7.259   5.054   2.114  0.5602  0.4508 -0.0133
  337MOL0     N46420   7.261   5.062   1.987 -0.3634 -0.3235  0.0341
  337MOL0     C46421   8.202   4.738   1.248 -0.4213  0.0945  0.4145
  337MOL0     C46422   8.333   4.786   1.279  0.4597 -0.4153 -0.3236
  337MOL0     C46423   8.693   4.885   1.496 -0.5530  1.3765 -0.4942
  337MOL0     C46424   8.794   4.806   1.436 -0.4476  0.6847  0.6834
  337MOL0     C46425   8.931   4.828   1.461 -1.0287 -0.0262  0.1529
  337MOL0     C46426   8.977   4.947   1.521  0.2720 -0.4554 -0.2105
  337MOL0     O46427   9.113   4.978   1.525  0.3594 -0.4308  0.1404
  337MOL0     C46428   9.145   5.057   1.410 -0.2237  0.4012 -0.6182
  337MOL0     C46429   9.280   5.018   1.342 -0.5184  0.0110  0.5335
  337MOL0     C46430   9.286   4.871   1.291 -1.0642  0.1523  0.4406
  337MOL0     C46431   9.422   4.837   1.228 -0.1044 -0.8654 -0.2594
  337MOL0     C46432   9.534   4.826   1.325  0.0741 -0.1480 -0.1788
  337MOL0     C46433   9.605   4.816   1.422  0.4258 -0.0732 -0.1253
  337MOL0     C46434   8.883   5.028   1.584  0.1135  0.2499  0.3945
  337MOL0     C46435   8.743   4.987   1.577 -0.6701  0.2216 -0.6181
  337MOL0     C46436   8.641   5.084   1.631 -0.1971 -0.7982 -0.4757
  337MOL0     H46437   8.250   4.983   1.530 -0.4200  0.0758 -0.3382
  337MOL0     H46438   8.037   4.892   1.491  0.6784 -0.8087  0.8779
  337MOL0     H46439   7.929   4.828   1.126  2.7294 -2.2499  0.7413
  337MOL0     H46440   7.891   4.929   1.275 -0.2209 -0.3750 -0.5035
  337MOL0     H46441   7.675   4.840   1.163  0.5160  0.0101 -0.1112
  337MOL0     H46442   7.738   4.681   1.190 -0.2686 -0.1945  0.7605
  337MOL0     H46443   7.590   4.708   1.368  1.0661 -3.7356  3.3629
  337MOL0     H46444   7.735   4.680   1.423 -2.6120 -3.5808 -2.4185
  337MOL0     H46445   7.758   4.908   1.508  0.0356 -0.0055 -0.2967
  337MOL0     H46446   7.651   4.965   1.372 -2.2406 -2.2992 -1.7486
  337MOL0     H46447   7.569   4.824   1.631 -3.7592 -0.0472  0.6979
  337MOL0     H46448   7.462   4.861   1.491 -0.5240  1.0348  1.7336
  337MOL0     H46449   7.633   5.084   1.604 -0.5633  0.7538 -1.1249
  337MOL0     H46450   7.468   5.097   1.552  0.1320  0.6842  0.8591
  337MOL0     H46451   7.577   5.039   1.818 -0.9144  6.4998  1.7548
  337MOL0     H46452   7.431   4.936   1.772  0.4212 -0.3077  0.1161
  337MOL0     H46453   7.458   5.249   1.801  0.2297  0.2200 -2.5295
  337MOL0     H46454   7.315   5.159   1.754 -0.1158 -0.3043  0.9472
  337MOL0     H46455   7.569   5.147   2.067  0.4729  1.4449 -0.9271
  337MOL0     H46456   7.541   5.095   2.305 -0.1328  0.4381 -1.6352
  337MOL0     H46457   7.500   4.925   2.270 -0.0381 -0.4164  1.3566
  337MOL0     H46458   7.328   5.116   2.435  2.5190  1.2010  0.7443
  337MOL0     H46459   7.288   4.946   2.392 -1.0895  1.7508 -0.2346
  337MOL0     H46460   7.369   4.951   2.617 -0.7585  1.6594 -0.3878
  337MOL0     H46461   7.490   4.870   2.518  0.5927 -0.5843 -1.0312
  337MOL0     H46462   7.505   5.171   2.591  0.7640  0.4854 -4.5169
  337MOL0     H46463   7.545   5.057   2.706 -2.8701  4.5072  0.8118
  337MOL0     H46464   7.852   5.004   2.372 -0.3257 -1.3462 -0.4876
  337MOL0     H46465   8.057   4.931   2.313  1.7965 -0.6279 -1.9347
  337MOL0     H46466   8.066   4.754   2.360 -1.7503  0.1495  2.8963
  337MOL0     H46467   8.168   4.879   2.440 -0.8466  1.4624  0.5064
  337MOL0     H46468   8.178   4.416   2.449 -1.1827  0.4485  1.3132
  337MOL0     H46469   8.385   4.301   2.445 -0.1393  1.2843 -0.2117
  337MOL0     H46470   8.733   4.461   2.552  1.8799  0.0713 -0.5160
  337MOL0     H46471   8.732   4.441   2.727 -2.8789 -0.3050  0.0980
  337MOL0     H46472   8.917   4.335   2.675 -1.2064  0.8205  2.2244
  337MOL0     H46473   8.788   4.202   2.670 -1.7147  1.0896 -0.8147
  337MOL0     H46474   8.877   4.351   2.423  2.0333 -0.2873 -0.9761
  337MOL0     H46475   8.778   4.204   2.450 -0.6533  1.0039  0.8364
  337MOL0     H46476   9.001   4.104   2.548  1.7103 -0.0713 -0.1040
  337MOL0     H46477   9.087   4.252   2.503 -3.0181  2.4967 -0.3028
  337MOL0     H46478   8.965   4.066   2.296  0.0516 -0.8547  2.2667
  337MOL0     H46479   9.046   4.218   2.268 -1.0236 -2.1109 -2.5413
  337MOL0     H46480   9.143   3.956   2.412 -2.3215  0.2750 -0.1414
  337MOL0     H46481   9.243   4.101   2.417 -1.9617  2.0347 -0.2276
  337MOL0     H46482   9.238   4.101   2.154  1.2109  2.0936  2.5268
  337MOL0     H46483   9.161   3.933   2.168  1.4461 -1.7998  1.0842
  337MOL0     H46484   9.435   4.027   2.271 -1.4918  0.2879  0.9404
  337MOL0     H46485   9.401   3.923   2.129 -2.5887 -2.8205 -0.3066
  337MOL0     H46486   8.527   4.543   2.778 -1.2610 -3.7891  1.8903
  337MOL0     H46487   8.347   4.696   2.728  2.4919 -1.0476  1.8518
  337MOL0     H46488   7.896   4.777   2.820  2.5626 -0.0072 -0.3146
  337MOL0     H46489   7.697   4.933   2.767 -1.6595 -1.2897 -1.2185
  337MOL0     H46490   8.193   4.671   1.164  1.7245  0.5935 -0.2786
  337MOL0     H46491   8.416   4.742   1.227  1.6817  0.3183  0.9295
  337MOL0     H46492   8.765   4.716   1.382  1.1573 -0.9583  2.3573
  337MOL0     H46493   9.010   4.760   1.431 -1.9871 -1.0803 -0.0544
  337MOL0     H46494   9.066   5.065   1.335  0.8043 -1.4127 -1.9488
  337MOL0     H46495   9.153   5.163   1.439 -1.1766  0.5107 -0.7230
  337MOL0     H46496   9.367   5.035   1.407 -1.1134 -2.6970  2.2230
  337MOL0     H46497   9.288   5.082   1.254  3.1927 -0.4676  0.3743
  337MOL0     H46498   9.261   4.809   1.377 -1.2295  0.5346  0.6729
  337MOL0     H46499   9.207   4.854   1.217 -1.2078 -0.8712  0.8213
  337MOL0     H46500   9.454   4.911   1.153 -1.7261 -2.0040 -2.1485
  337MOL0     H46501   9.422   4.741   1.175 -1.9922 -1.4449  0.7287
  337MOL0     H46502   9.665   4.825   1.511  0.7449  0.4265 -0.3879
  337MOL0     H46503   8.914   5.113   1.643  2.3613  0.6446 -1.2548
  337MOL0     H46504   8.652   5.104   1.738 -0.8964  0.3146 -0.5982
  337MOL0     H46505   8.658   5.181   1.583  1.4299 -2.2304 -3.0975
  337MOL0     H46506   8.539   5.050   1.612 -0.4817 -1.2121  1.6335
  338MOL0     O46507   3.205   8.811   3.649  0.1045  0.1482 -0.2042
  338MOL0     C46508   3.205   8.682   3.648  0.3495 -0.7175 -0.1270
  338MOL0     O46509   3.299   8.598   3.692  0.5891 -0.0624 -0.4201
  338MOL0     C46510   3.409   8.661   3.738  0.3282  0.4285 -0.9287
  338MOL0     C46511   3.520   8.697   3.660 -0.9542 -0.1636  0.2393
  338MOL0     C46512   3.633   8.757   3.715  0.3674 -0.6646 -0.8566
  338MOL0     C46513   3.640   8.779   3.854 -1.1848 -0.4848 -0.7443
  338MOL0     O46514   3.747   8.843   3.914 -0.4009  0.1522  0.5150
  338MOL0     C46515   3.835   8.932   3.842 -0.5556  0.7940  0.1277
  338MOL0     C46516   3.945   8.985   3.940 -0.7771  0.9611 -0.2311
  338MOL0     C46517   4.016   8.871   4.017  0.0778 -0.0515  0.3419
  338MOL0     C46518   4.112   8.930   4.120  0.2952 -0.4909  0.5002
  338MOL0     C46519   4.154   8.825   4.228  0.3007  0.4613  0.1806
  338MOL0     C46520   4.263   8.726   4.180  0.8732  0.4687 -0.7736
  338MOL0     C46521   4.312   8.641   4.293 -0.0758 -0.1940 -0.2278
  338MOL0     C46522   4.344   8.496   4.255  0.0240 -0.0046  0.0952
  338MOL0     N46523   4.381   8.408   4.366  0.2517  0.1820 -0.5678
  338MOL0     C46524   4.369   8.437   4.504  0.1515  1.3738 -0.2429
  338MOL0     C46525   4.465   8.349   4.566  0.0003 -0.7561  0.4132
  338MOL0     C46526   4.502   8.340   4.712 -0.2049  0.5789  0.4402
  338MOL0     C46527   4.484   8.461   4.798 -0.3940 -0.0683 -0.0038
  338MOL0     C46528   4.583   8.577   4.778 -0.5687  0.1255 -0.7299
  338MOL0     C46529   4.730   8.536   4.777  0.0562 -0.6276 -0.2371
  338MOL0     O46530   4.765   8.472   4.897  0.2377 -0.2968  0.1523
  338MOL0     C46531   4.898   8.445   4.901 -0.0440  0.2367  0.0955
  338MOL0     C46532   4.946   8.418   5.022  0.2310  0.0245  0.1857
  338MOL0     C46533   5.082   8.390   5.054  0.0140 -0.4671  0.0790
  338MOL0     C46534   5.127   8.401   5.196 -0.0605 -0.1075  0.2155
  338MOL0     C46535   5.167   8.369   4.942 -0.5350 -0.0205 -0.1186
  338MOL0     C46536   5.310   8.332   4.957  0.0397  0.5466  0.1971
  338MOL0     O46537   5.377   8.301   4.843  0.5767 -0.2620  0.1911
  338MOL0     C46538   5.495   8.232   4.856 -0.0451 -0.0732  0.3979
  338MOL0     C46539   5.614   8.296   4.875 -0.8271 -1.0280  0.4640
  338MOL0     C46540   5.723   8.223   4.906  0.1614 -0.4628 -0.0515
  338MOL0     C46541   5.720   8.078   4.902 -0.2403  0.2882 -0.9839
  338MOL0     O46542   5.825   7.992   4.934 -0.1581 -0.2009  0.1649
  338MOL0     C46543   5.956   8.045   4.967  0.2927  0.8185  0.0133
  338MOL0     C46544   6.021   8.072   4.831  0.5427  0.6638 -1.1713
  338MOL0     C46545   6.151   8.151   4.847 -1.0533  0.3992 -0.1454
  338MOL0     C46546   6.250   8.085   4.943 -0.3506 -0.8582 -0.6963
  338MOL0     C46547   6.374   8.173   4.958  0.5661 -0.3533 -0.4421
  338MOL0     C46548   6.452   8.130   5.074  0.3001  0.2927 -0.3001
  338MOL0     C46549   6.547   8.228   5.126  0.9186 -0.4968  0.0402
  338MOL0     C46550   6.623   8.185   5.253  0.3394 -0.5961  0.5901
  338MOL0    Cl46551   6.755   8.064   5.206 -0.2115  0.2244 -0.0294
  338MOL0     C46552   5.609   8.017   4.863  0.2132  0.1149  1.2214
  338MOL0     C46553   5.493   8.097   4.842  0.2194  0.2010 -1.0235
  338MOL0     O46554   5.356   8.321   5.074  0.1491 -0.4441 -0.4105
  338MOL0     C46555   5.119   8.395   4.809 -0.4773  0.7020 -0.4215
  338MOL0     C46556   4.989   8.440   4.790  0.5996  0.1717 -0.2849
  338MOL0     N46557   4.516   8.274   4.462 -0.7026  0.1449  1.1251
  338MOL0     N46558   4.469   8.301   4.357 -0.6790  0.0875  0.5995
  338MOL0     C46559   3.527   8.742   3.939 -0.3746 -0.4558 -0.0485
  338MOL0     C46560   3.413   8.688   3.881  0.7141 -0.0709 -0.0301
  338MOL0     C46561   3.081   8.621   3.580  0.2709 -1.4171  0.0696
  338MOL0     C46562   2.972   8.707   3.546 -0.3998 -0.3464 -1.0843
  338MOL0     C46563   2.866   8.666   3.469 -0.4264 -0.0753 -0.0213
  338MOL0     C46564   2.848   8.532   3.440 -0.3578 -0.3722  0.7429
  338MOL0     O46565   2.744   8.485   3.365  0.0658  0.3012  0.0769
  338MOL0     C46566   2.776   8.396   3.254 -0.3640 -0.3168 -0.9332
  338MOL0     C46567   2.637   8.347   3.207 -0.0705 -0.2022  0.0910
  338MOL0     C46568   2.567   8.458   3.130 -0.2685 -0.7435  0.4766
  338MOL0     C46569   2.581   8.452   2.975 -0.4676  0.0148  0.0555
  338MOL0     C46570   2.721   8.467   2.919  0.9969  1.1516 -0.1927
  338MOL0     C46571   2.836   8.476   2.881  0.3195 -0.4064  0.6990
  338MOL0     C46572   2.945   8.439   3.484  1.2219  0.2631 -0.1223
  338MOL0     C46573   3.066   8.483   3.544  0.4959  0.5116 -0.5523
  338MOL0     C46574   3.177   8.377   3.563  0.3019  0.0406  0.7748
  338MOL0     H46575   3.506   8.665   3.557 -3.2082  1.7511 -0.1482
  338MOL0     H46576   3.711   8.780   3.642 -0.3374  0.4600 -1.2817
  338MOL0     H46577   3.783   9.021   3.806 -0.2612  0.8512 -0.1588
  338MOL0     H46578   3.882   8.887   3.754 -2.1746 -0.5116 -0.1226
  338MOL0     H46579   4.014   9.055   3.893  0.8053  1.8882  3.1886
  338MOL0     H46580   3.896   9.051   4.012  0.9220  1.4715  0.4904
  338MOL0     H46581   3.949   8.795   4.057 -1.7555 -0.2715 -2.8679
  338MOL0     H46582   4.067   8.819   3.936 -0.5212 -0.0151 -0.0642
  338MOL0     H46583   4.197   8.974   4.067  0.3665 -0.4153  0.6776
  338MOL0     H46584   4.069   9.020   4.163 -0.3574 -0.8966  0.7053
  338MOL0     H46585   4.065   8.771   4.261  1.4799 -1.9008 -0.2449
  338MOL0     H46586   4.196   8.885   4.309 -0.2180  2.5264 -1.0101
  338MOL0     H46587   4.219   8.662   4.102 -1.4817  0.4700  0.4401
  338MOL0     H46588   4.346   8.785   4.140 -1.7940  4.7851 -0.5624
  338MOL0     H46589   4.232   8.643   4.368 -0.3010  0.7885 -0.4928
  338MOL0     H46590   4.398   8.693   4.336 -0.8407  0.6864  0.2730
  338MOL0     H46591   4.259   8.447   4.206 -2.0892  3.0099  0.4549
  338MOL0     H46592   4.417   8.491   4.173 -1.9945 -1.8427 -1.7191
  338MOL0     H46593   4.303   8.512   4.545 -2.5697 -0.7197 -0.5360
  338MOL0     H46594   4.606   8.306   4.718 -0.5325 -0.6299 -0.4462
  338MOL0     H46595   4.436   8.258   4.741 -1.3646  0.0118 -3.3344
  338MOL0     H46596   4.385   8.501   4.774  0.6804  1.2160 -2.7193
  338MOL0     H46597   4.501   8.415   4.896  3.2076  0.5905 -0.2129
  338MOL0     H46598   4.567   8.635   4.687  2.0983  2.2310  0.0294
  338MOL0     H46599   4.563   8.649   4.857  1.3238  0.2332 -0.3038
  338MOL0     H46600   4.745   8.487   4.680  1.6076  0.7519 -0.7359
  338MOL0     H46601   4.790   8.627   4.780 -1.1027  0.1551  0.0968
  338MOL0     H46602   4.870   8.436   5.097 -1.0294 -0.7065 -0.8787
  338MOL0     H46603   5.164   8.307   5.237  0.3858  0.6342  1.5913
  338MOL0     H46604   5.039   8.432   5.254 -0.8512 -0.0229 -0.9954
  338MOL0     H46605   5.208   8.474   5.204  0.2865 -0.4825  0.1534
  338MOL0     H46606   5.612   8.405   4.873  3.2409 -0.8187 -1.9077
  338MOL0     H46607   5.807   8.283   4.940 -0.4659  0.2625  0.2501
  338MOL0     H46608   5.965   8.135   5.029  3.9938  0.0909  0.7873
  338MOL0     H46609   6.001   7.964   5.026 -1.3954  0.4421  0.8340
  338MOL0     H46610   6.051   7.985   4.771 -0.0183 -0.7314  0.4725
  338MOL0     H46611   5.957   8.135   4.769 -2.6699 -2.1827 -1.0372
  338MOL0     H46612   6.133   8.252   4.886 -0.9459  0.3186  0.1186
  338MOL0     H46613   6.191   8.156   4.746 -1.9501  1.5285 -0.4575
  338MOL0     H46614   6.278   7.984   4.912  1.5641 -0.0798 -1.6487
  338MOL0     H46615   6.199   8.080   5.040 -2.0785  0.4053 -1.4827
  338MOL0     H46616   6.426   8.167   4.862 -0.6072 -2.6744 -0.9995
  338MOL0     H46617   6.342   8.275   4.980  2.7610  0.5865 -1.3048
  338MOL0     H46618   6.508   8.042   5.042 -1.7155 -0.5817 -1.6888
  338MOL0     H46619   6.383   8.089   5.149 -0.3604  0.7459 -0.6499
  338MOL0     H46620   6.474   8.307   5.149  0.4885 -1.6923  3.1723
  338MOL0     H46621   6.620   8.260   5.051  0.5345 -0.4143 -0.3030
  338MOL0     H46622   6.551   8.134   5.317  0.5500 -1.8169 -0.1155
  338MOL0     H46623   6.659   8.273   5.307 -1.6557  0.0668  0.9320
  338MOL0     H46624   5.608   7.909   4.850 -1.1258 -0.0235  2.2830
  338MOL0     H46625   5.405   8.039   4.817 -0.7703  0.4281  1.5817
  338MOL0     H46626   5.181   8.382   4.721  0.4518  2.7771 -0.1422
  338MOL0     H46627   4.954   8.456   4.689  1.4182  1.0477 -0.4422
  338MOL0     H46628   3.532   8.761   4.045  0.2773  0.3612 -0.2079
  338MOL0     H46629   3.329   8.648   3.936 -0.7863  0.4511 -1.8115
  338MOL0     H46630   2.980   8.812   3.573  1.6294  0.1592 -3.3387
  338MOL0     H46631   2.794   8.737   3.429 -1.5037  0.7836  3.1633
  338MOL0     H46632   2.834   8.449   3.178  1.1317 -0.6843 -0.1038
  338MOL0     H46633   2.834   8.309   3.288  0.0988  0.5794  0.7265
  338MOL0     H46634   2.570   8.324   3.290 -1.4977  2.3779 -0.2594
  338MOL0     H46635   2.654   8.259   3.144  1.6448  0.4837 -0.4864
  338MOL0     H46636   2.460   8.457   3.152 -0.3956 -1.7712 -0.1239
  338MOL0     H46637   2.600   8.555   3.168  0.5982 -1.5206  1.7967
  338MOL0     H46638   2.508   8.525   2.938 -0.1975  1.1385  1.6647
  338MOL0     H46639   2.543   8.356   2.939 -0.3109 -0.0352  0.0215
  338MOL0     H46640   2.938   8.478   2.850  0.1828 -1.3696  0.1349
  338MOL0     H46641   2.934   8.331   3.483 -0.4559  0.3844  1.3809
  338MOL0     H46642   3.179   8.372   3.672 -0.1068 -1.9567  0.7288
  338MOL0     H46643   3.150   8.282   3.517  0.5932  1.2782 -2.1610
  338MOL0     H46644   3.276   8.405   3.526 -0.2532  0.4455 -0.4635
  339MOL0     O46645   7.769   0.467   9.380 -0.0837  0.5528 -0.7658
  339MOL0     C46646   7.719   0.517   9.483 -0.5925 -0.4235 -0.4089
  339MOL0     O46647   7.774   0.532   9.602 -0.8162  0.8600  0.3156
  339MOL0     C46648   7.914   0.519   9.617  0.6699  0.6862 -0.7958
  339MOL0     C46649   8.011   0.523   9.522  0.5615  0.6749  0.7580
  339MOL0     C46650   8.148   0.516   9.553  0.1167 -0.3990 -0.2393
  339MOL0     C46651   8.188   0.479   9.680 -0.9245 -0.5823  0.4066
  339MOL0     O46652   8.318   0.451   9.707 -0.7960 -0.0066  0.1533
  339MOL0     C46653   8.408   0.381   9.612 -0.2416 -0.6189  0.6080
  339MOL0     C46654   8.537   0.340   9.689 -0.0708  1.1014  0.3111
  339MOL0     C46655   8.513   0.239   9.804  0.2634  0.3701  0.2156
  339MOL0     C46656   8.394   0.136   9.797 -0.9671 -0.1644 -0.3221
  339MOL0     C46657   8.385   0.054   9.923 -0.5465  0.3190 -0.4324
  339MOL0     C46658   8.339   0.121  10.046  0.9165  0.1224 -0.9503
  339MOL0     C46659   8.382   0.068  10.188 -0.4688  0.1624  0.2625
  339MOL0     C46660   8.503   0.150  10.237  0.4290  0.5491 -0.0900
  339MOL0     N46661   8.545   0.098  10.368 -0.2386 -0.2395 -0.7352
  339MOL0     C46662   8.464   0.079  10.483 -0.1392  0.4549 -0.0202
  339MOL0     C46663   8.548   0.036  10.582  0.1378 -0.7891 -0.3072
  339MOL0     C46664   8.502  -0.002  10.719 -0.5606 -0.3589  0.3541
  339MOL0     C46665   8.552   0.091  10.823 -0.5340  0.6779  0.6385
  339MOL0     C46666   8.496   0.229  10.833  0.3484 -0.7743 -0.6533
  339MOL0     C46667   8.343   0.234  10.836  0.8101 -0.6129  0.1642
  339MOL0     O46668   8.314   0.373  10.829  0.4602  0.4277 -0.5793
  339MOL0     C46669   8.186   0.419  10.863 -0.4024 -0.0919  0.2144
  339MOL0     C46670   8.171   0.556  10.889 -0.0010  0.2303  0.3241
  339MOL0     C46671   8.043   0.618  10.907 -0.2659 -0.7665 -0.0950
  339MOL0     C46672   8.044   0.770  10.922  0.4489 -0.1704  0.5910
  339MOL0     C46673   7.932   0.534  10.926  0.2782 -0.5117 -0.3119
  339MOL0     C46674   7.799   0.580  10.974  0.1418  0.7722  0.2922
  339MOL0     O46675   7.696   0.478  10.963  0.2777  0.7158 -0.8706
  339MOL0     C46676   7.568   0.513  11.015 -1.1125  0.9436  0.4443
  339MOL0     C46677   7.517   0.471  11.133 -0.6406 -0.1553 -0.5652
  339MOL0     C46678   7.387   0.501  11.171 -0.3459 -0.5297 -0.5103
  339MOL0     C46679   7.313   0.581  11.089 -0.0035 -0.3279 -0.2272
  339MOL0     O46680   7.178   0.598  11.121 -0.1354 -0.2202 -0.2161
  339MOL0     C46681   7.107   0.480  11.178  0.1515 -0.0789  0.9287
  339MOL0     C46682   6.964   0.465  11.125 -0.0948  0.0834  1.2371
  339MOL0     C46683   6.853   0.512  11.216  0.6525 -0.1044  0.3647
  339MOL0     C46684   6.722   0.528  11.137  0.3015 -0.6579  0.0312
  339MOL0     C46685   6.617   0.561  11.237  0.4296 -0.5411  0.0171
  339MOL0     C46686   6.480   0.587  11.168  0.0791 -0.5819  0.2680
  339MOL0     C46687   6.489   0.705  11.065  0.4299 -0.1322  0.2843
  339MOL0     C46688   6.354   0.747  11.027  0.6832 -0.7016 -0.2916
  339MOL0    Cl46689   6.269   0.611  10.955 -0.2540 -0.0149 -0.0073
  339MOL0     C46690   7.370   0.629  10.975 -0.0111  0.0602  0.0667
  339MOL0     C46691   7.498   0.606  10.935  0.0636  1.0931 -0.4434
  339MOL0     O46692   7.793   0.688  11.019 -0.0930  0.1646 -0.1312
  339MOL0     C46693   7.948   0.401  10.891 -0.1110  0.0305  0.3232
  339MOL0     C46694   8.072   0.341  10.864 -0.0186 -0.9187 -0.4480
  339MOL0     N46695   8.668   0.012  10.527 -0.3909 -0.2444 -0.0782
  339MOL0     N46696   8.667   0.054  10.406 -0.4899  0.0155  0.3058
  339MOL0     C46697   8.092   0.459   9.773  0.9868 -0.5404 -0.0589
  339MOL0     C46698   7.953   0.480   9.745 -0.1255 -0.3672  0.4638
  339MOL0     C46699   7.580   0.573   9.466  0.1942  1.2077  0.0536
  339MOL0     C46700   7.488   0.491   9.407 -0.5279  0.4487 -1.0410
  339MOL0     C46701   7.354   0.510   9.387 -0.4477  0.8002 -0.2698
  339MOL0     C46702   7.296   0.626   9.442 -0.7801  1.2519 -0.9197
  339MOL0     O46703   7.163   0.643   9.455  0.5000 -0.3771 -0.4091
  339MOL0     C46704   7.121   0.777   9.460  0.1289 -0.3697 -0.2471
  339MOL0     C46705   6.968   0.794   9.430 -0.4124 -0.6032 -0.5222
  339MOL0     C46706   6.948   0.799   9.285 -0.0426 -0.2250  0.5626
  339MOL0     C46707   6.796   0.783   9.253 -0.9470 -0.0849  0.4489
  339MOL0     C46708   6.785   0.790   9.119 -0.0585 -0.4072  0.5278
  339MOL0     C46709   6.769   0.778   9.001  0.2973 -0.8705 -0.4878
  339MOL0     C46710   7.387   0.714   9.504  0.1363 -0.6170 -0.4716
  339MOL0     C46711   7.525   0.690   9.518 -0.2549  0.8933 -0.2066
  339MOL0     C46712   7.627   0.801   9.563  0.3730  0.6403 -0.1915
  339MOL0     H46713   7.987   0.557   9.421 -2.3861  2.8958  2.0680
  339MOL0     H46714   8.224   0.546   9.482  0.6474 -0.4089  0.3084
  339MOL0     H46715   8.440   0.434   9.521 -1.3584 -2.0134 -0.6507
  339MOL0     H46716   8.351   0.294   9.578 -0.2461 -0.3411 -0.1255
  339MOL0     H46717   8.610   0.300   9.618 -0.0556  0.1275  0.8504
  339MOL0     H46718   8.588   0.434   9.714 -1.1526  1.5981  0.7163
  339MOL0     H46719   8.606   0.185   9.822  0.6290  1.4422  1.6894
  339MOL0     H46720   8.503   0.294   9.898 -0.8041 -1.9094  1.5428
  339MOL0     H46721   8.295   0.181   9.789 -0.5937  0.6419 -0.5694
  339MOL0     H46722   8.416   0.071   9.711  1.2360  2.8770 -2.2834
  339MOL0     H46723   8.483   0.007   9.937  0.0578  1.4680 -0.6978
  339MOL0     H46724   8.312  -0.026   9.907 -1.3495  0.6295  1.4471
  339MOL0     H46725   8.373   0.225  10.034 -3.6617  2.1549  1.0825
  339MOL0     H46726   8.230   0.134  10.049  1.0777  2.0091 -1.5829
  339MOL0     H46727   8.426  -0.033  10.184  0.3171  0.4903  0.4252
  339MOL0     H46728   8.304   0.083  10.263  1.3291  0.5653  2.1569
  339MOL0     H46729   8.589   0.134  10.171 -0.6450 -1.1538 -1.1538
  339MOL0     H46730   8.488   0.257  10.250  0.2720  0.5912 -0.6062
  339MOL0     H46731   8.359   0.104  10.494 -0.2899  0.4533 -1.2807
  339MOL0     H46732   8.542  -0.101  10.743 -1.1059 -0.6430  0.0854
  339MOL0     H46733   8.394  -0.016  10.728 -0.4184 -1.7579  0.1679
  339MOL0     H46734   8.538   0.041  10.920 -0.1769  0.4735  0.5884
  339MOL0     H46735   8.660   0.099  10.807 -1.1060  2.4998 -3.5368
  339MOL0     H46736   8.544   0.286  10.913  1.6696 -1.1483 -1.1371
  339MOL0     H46737   8.528   0.285  10.744 -1.8744  2.3071  0.3225
  339MOL0     H46738   8.297   0.189  10.747  0.6396  4.2344 -2.5388
  339MOL0     H46739   8.303   0.187  10.926 -0.1593  1.0679  0.6673
  339MOL0     H46740   8.259   0.617  10.868  3.0652 -3.1000  2.3827
  339MOL0     H46741   8.142   0.804  10.888 -0.5666 -0.6195 -3.1547
  339MOL0     H46742   8.029   0.803  11.025 -0.1375  1.9513 -0.1326
  339MOL0     H46743   7.960   0.820  10.874 -0.8868  0.7949  3.6397
  339MOL0     H46744   7.571   0.417  11.211  0.4216  0.8709 -0.5546
  339MOL0     H46745   7.349   0.455  11.262 -0.9355 -1.0846 -1.0219
  339MOL0     H46746   7.157   0.388  11.145  2.5019  1.2618  0.5942
  339MOL0     H46747   7.096   0.486  11.286 -0.2988 -1.6454  0.9921
  339MOL0     H46748   6.962   0.521  11.031 -3.9877 -1.6221  0.1075
  339MOL0     H46749   6.939   0.364  11.092 -0.9784  0.7876 -0.3054
  339MOL0     H46750   6.871   0.612  11.259 -2.9158  0.5974  0.5689
  339MOL0     H46751   6.830   0.448  11.302 -1.4484 -2.5236 -1.8579
  339MOL0     H46752   6.697   0.433  11.088  0.5413  0.0923 -1.5952
  339MOL0     H46753   6.734   0.604  11.060  0.3665  0.0801  0.7561
  339MOL0     H46754   6.601   0.477  11.305  0.3398 -0.5559 -0.0230
  339MOL0     H46755   6.644   0.641  11.306  0.8717  0.9048 -1.7629
  339MOL0     H46756   6.398   0.598  11.239 -2.3064  0.2949 -2.4282
  339MOL0     H46757   6.459   0.495  11.113  0.7301  0.4146 -1.7543
  339MOL0     H46758   6.549   0.680  10.977  2.0649  0.4175  1.1872
  339MOL0     H46759   6.543   0.790  11.109  2.5922 -0.5919 -1.2804
  339MOL0     H46760   6.365   0.835  10.963 -0.0984  0.9459  1.7483
  339MOL0     H46761   6.296   0.786  11.111  2.3348  0.5058  0.3645
  339MOL0     H46762   7.319   0.693  10.903 -0.3506 -2.0618 -1.6851
  339MOL0     H46763   7.540   0.651  10.846 -3.0052 -0.2720 -2.7977
  339MOL0     H46764   7.865   0.333  10.877  1.5794 -2.0533 -0.1481
  339MOL0     H46765   8.072   0.241  10.824 -0.1317 -0.1338 -2.5399
  339MOL0     H46766   8.124   0.411   9.866  2.8126  0.7959  0.0590
  339MOL0     H46767   7.875   0.461   9.818 -0.5729  6.1842  2.3231
  339MOL0     H46768   7.519   0.391   9.379  0.1273  0.6474 -1.0255
  339MOL0     H46769   7.286   0.442   9.337 -1.6171  3.8934 -3.3260
  339MOL0     H46770   7.134   0.824   9.558  1.4137  0.3062 -0.7196
  339MOL0     H46771   7.167   0.848   9.391  0.5213  0.9868  1.3464
  339MOL0     H46772   6.948   0.896   9.464  3.6090  0.6886 -1.4226
  339MOL0     H46773   6.903   0.718   9.474 -0.7912  0.0056 -0.0198
  339MOL0     H46774   6.996   0.887   9.241  1.7863 -1.6847 -0.4813
  339MOL0     H46775   7.001   0.709   9.252 -1.2694 -0.0978 -2.0292
  339MOL0     H46776   6.743   0.867   9.299 -0.1656  0.9273 -0.4598
  339MOL0     H46777   6.762   0.687   9.294  0.9060 -2.2967 -2.8022
  339MOL0     H46778   6.750   0.758   8.898 -2.5582 -2.5289  0.2626
  339MOL0     H46779   7.352   0.807   9.548 -0.3105 -0.3784 -1.3114
  339MOL0     H46780   7.571   0.876   9.620  0.8855 -0.9783  2.6013
  339MOL0     H46781   7.686   0.758   9.644  2.0036  1.9400 -0.6402
  339MOL0     H46782   7.674   0.855   9.480  0.3823  0.8256 -0.0677
  340MOL0     O46783   7.108   5.207   6.561  0.4015  0.7790  0.0578
  340MOL0     C46784   7.064   5.091   6.584  0.2174 -0.4063 -0.1863
  340MOL0     O46785   7.140   4.977   6.574 -0.3591  0.3374 -0.8230
  340MOL0     C46786   7.268   4.985   6.520 -0.1478  0.3783  0.6413
  340MOL0     C46787   7.293   5.038   6.393 -0.6865 -0.3050 -0.0617
  340MOL0     C46788   7.415   5.012   6.322 -1.0611  0.4268 -0.1274
  340MOL0     C46789   7.506   4.923   6.381  0.0203  0.3613 -0.4815
  340MOL0     O46790   7.626   4.904   6.316  0.0955 -0.0912 -0.6657
  340MOL0     C46791   7.750   4.947   6.374  0.5982 -0.7655 -0.0030
  340MOL0     C46792   7.734   5.065   6.476 -0.3502 -0.1732 -0.1158
  340MOL0     C46793   7.873   5.108   6.529  0.3993  0.0653 -0.7940
  340MOL0     C46794   7.920   5.021   6.654 -0.0756 -0.7537  0.5539
  340MOL0     C46795   8.047   5.089   6.698 -0.6672 -0.0704  0.9380
  340MOL0     C46796   8.086   5.044   6.839  0.3083  0.7696 -0.2053
  340MOL0     C46797   8.235   5.072   6.860  0.1349 -0.0540  0.1484
  340MOL0     C46798   8.266   5.221   6.880 -0.8096  0.1276 -0.4079
  340MOL0     N46799   8.404   5.257   6.916  0.1141 -0.3646  0.1717
  340MOL0     C46800   8.507   5.252   6.825 -0.3098 -0.3993 -0.6486
  340MOL0     C46801   8.618   5.276   6.901 -0.5700  0.3017 -0.4358
  340MOL0     C46802   8.768   5.288   6.873  0.1472 -0.2400 -0.2591
  340MOL0     C46803   8.844   5.155   6.906 -0.0506 -0.7881  0.9757
  340MOL0     C46804   8.986   5.155   6.848 -0.2221  0.2652  0.6490
  340MOL0     C46805   9.088   5.256   6.912 -0.1833 -0.2993  0.2488
  340MOL0     O46806   9.211   5.209   6.851 -0.6537  0.9903  0.1278
  340MOL0     C46807   9.330   5.263   6.898  0.5187  0.9750 -0.4161
  340MOL0     C46808   9.450   5.203   6.852  0.2835 -0.8573 -0.1247
  340MOL0     C46809   9.574   5.240   6.911 -0.2134  0.6005  0.4236
  340MOL0     C46810   9.682   5.148   6.854 -0.3176 -0.2293 -0.3075
  340MOL0     C46811   9.592   5.355   6.997  0.5842  0.6340  0.5211
  340MOL0     C46812   9.720   5.404   7.041 -0.5412 -0.0613 -0.0562
  340MOL0     O46813   9.727   5.529   7.092  0.8341  0.4810 -0.7252
  340MOL0     C46814   9.847   5.578   7.128 -0.5096 -0.1431 -0.0182
  340MOL0     C46815   9.926   5.634   7.030 -0.0408  0.1126 -0.5664
  340MOL0     C46816  10.062   5.665   7.062 -0.2813  0.0021 -0.5782
  340MOL0     C46817  10.122   5.640   7.188  0.5138  0.2968  0.0115
  340MOL0     O46818  10.255   5.658   7.205 -0.0477 -0.8093  0.0340
  340MOL0     C46819  10.294   5.689   7.347 -0.8602 -0.9151 -0.0592
  340MOL0     C46820  10.384   5.575   7.400 -0.4147  0.4789  1.0054
  340MOL0     C46821  10.506   5.547   7.307  0.8001  0.1891  0.6168
  340MOL0     C46822  10.595   5.435   7.354 -0.2214 -0.0309 -0.7136
  340MOL0     C46823  10.735   5.444   7.299 -0.2521  0.1392  0.2721
  340MOL0     C46824  10.746   5.390   7.152  0.5534 -0.0933 -0.3250
  340MOL0     C46825  10.872   5.447   7.080  0.0936 -0.1975  0.2755
  340MOL0     C46826  10.870   5.427   6.926 -1.0344  0.7112 -1.1210
  340MOL0    Cl46827  11.040   5.457   6.879  0.0177 -0.5006  0.0621
  340MOL0     C46828  10.039   5.582   7.287 -0.4293 -0.1460 -0.7209
  340MOL0     C46829   9.910   5.551   7.254 -0.4626  0.2087  0.0665
  340MOL0     O46830   9.815   5.323   7.030 -1.0559 -0.4436 -0.1363
  340MOL0     C46831   9.470   5.408   7.039  1.1453  0.0971 -1.0809
  340MOL0     C46832   9.342   5.367   6.996 -0.3693  0.6304  0.6563
  340MOL0     N46833   8.582   5.269   7.035  0.0799  0.3339  0.6712
  340MOL0     N46834   8.450   5.261   7.043  0.7467  0.5828 -0.3589
  340MOL0     C46835   7.484   4.868   6.501 -0.5063 -1.2755 -0.3315
  340MOL0     C46836   7.367   4.896   6.568 -0.5262  0.6687  1.0956
  340MOL0     C46837   6.923   5.082   6.635 -0.4306 -0.1383 -0.0201
  340MOL0     C46838   6.889   4.954   6.677 -0.0581  0.2720  0.1404
  340MOL0     C46839   6.766   4.925   6.731  0.1531  0.9324  0.4584
  340MOL0     C46840   6.674   5.021   6.764  0.6283 -0.0592  0.7275
  340MOL0     O46841   6.554   4.979   6.825 -0.8488 -0.6219 -0.6176
  340MOL0     C46842   6.441   5.065   6.802 -0.0060 -0.1056  0.6637
  340MOL0     C46843   6.318   4.982   6.829 -0.2651 -0.3905  0.5927
  340MOL0     C46844   6.185   5.062   6.793 -0.2845  1.1091 -0.8333
  340MOL0     C46845   6.144   5.023   6.646  0.6810 -0.5117  0.4679
  340MOL0     C46846   6.029   5.107   6.598 -0.6323  0.0275  0.2448
  340MOL0     C46847   5.941   5.183   6.565  0.3117 -0.4066 -0.6341
  340MOL0     C46848   6.711   5.159   6.723 -0.1827  1.2909 -0.9537
  340MOL0     C46849   6.836   5.188   6.659  0.3204  0.4788  0.3392
  340MOL0     C46850   6.862   5.334   6.637 -0.2512  0.2145  0.1552
  340MOL0     H46851   7.228   5.113   6.351 -1.4592  0.3012  2.0986
  340MOL0     H46852   7.435   5.046   6.221  0.4694 -0.1212 -0.0239
  340MOL0     H46853   7.812   4.972   6.288 -0.1274  1.5125  0.0503
  340MOL0     H46854   7.800   4.869   6.431  4.4444  1.8477  0.5707
  340MOL0     H46855   7.677   5.141   6.422  0.7384  0.8084  0.0894
  340MOL0     H46856   7.679   5.030   6.564  1.3669  1.8538  1.8935
  340MOL0     H46857   7.941   5.109   6.443 -0.8454 -1.2190 -1.8345
  340MOL0     H46858   7.865   5.214   6.553 -1.3018 -0.4099  1.0134
  340MOL0     H46859   7.849   5.032   6.736  1.8216  0.8869  2.0922
  340MOL0     H46860   7.935   4.914   6.640  2.3172 -0.6464  1.7761
  340MOL0     H46861   8.044   5.197   6.682  1.1639 -0.1922 -0.6579
  340MOL0     H46862   8.124   5.050   6.630 -0.2252  2.3522 -0.0581
  340MOL0     H46863   8.020   5.090   6.914  0.7075 -1.0037  1.3007
  340MOL0     H46864   8.064   4.937   6.849  1.8974  0.2336 -1.9338
  340MOL0     H46865   8.274   5.031   6.767 -2.4480  1.1623 -1.6015
  340MOL0     H46866   8.270   5.008   6.941 -1.3930 -0.7921  0.2559
  340MOL0     H46867   8.243   5.281   6.792 -1.0932  1.7590  0.7411
  340MOL0     H46868   8.201   5.258   6.959  2.2958  2.1385  1.3600
  340MOL0     H46869   8.500   5.240   6.717  2.1985 -1.2860 -0.7734
  340MOL0     H46870   8.815   5.366   6.933  0.0957 -0.7442  0.4406
  340MOL0     H46871   8.786   5.314   6.768  1.4032 -3.5810 -0.9974
  340MOL0     H46872   8.851   5.140   7.014  2.2340  3.1493  1.5621
  340MOL0     H46873   8.799   5.073   6.849 -0.0691 -1.0637  1.3787
  340MOL0     H46874   9.021   5.051   6.860 -2.1884 -0.3565  1.2978
  340MOL0     H46875   8.983   5.148   6.739  0.4057  0.3947  0.6163
  340MOL0     H46876   9.073   5.363   6.900 -1.1777 -0.1528  2.3480
  340MOL0     H46877   9.078   5.237   7.019  2.2426 -1.8334  0.2710
  340MOL0     H46878   9.431   5.131   6.773 -4.5431 -0.4717  0.3652
  340MOL0     H46879   9.726   5.089   6.935  0.8060  0.6501 -0.2413
  340MOL0     H46880   9.765   5.196   6.801  1.4605 -1.5755  1.1257
  340MOL0     H46881   9.641   5.090   6.771  0.0400  0.5281 -1.0313
  340MOL0     H46882   9.898   5.639   6.925 -1.1350 -1.5392 -0.3989
  340MOL0     H46883  10.123   5.694   6.977 -0.0934  1.3581 -0.0073
  340MOL0     H46884  10.360   5.776   7.340 -0.6791 -0.9290  1.3506
  340MOL0     H46885  10.215   5.720   7.415 -0.9596 -0.6493 -0.2951
  340MOL0     H46886  10.441   5.606   7.489  0.2532  2.5133 -0.0717
  340MOL0     H46887  10.334   5.480   7.421  1.4346 -0.4917  1.3338
  340MOL0     H46888  10.567   5.636   7.290 -1.3103  1.6473  0.2667
  340MOL0     H46889  10.478   5.513   7.207  1.5138  0.5890  0.2728
  340MOL0     H46890  10.553   5.340   7.321  1.8949 -1.7447  1.1998
  340MOL0     H46891  10.616   5.427   7.461 -0.3504 -2.3955 -0.8254
  340MOL0     H46892  10.775   5.545   7.304 -0.4515  0.3895 -1.9994
  340MOL0     H46893  10.803   5.390   7.365  1.3904  2.4251  0.5717
  340MOL0     H46894  10.657   5.432   7.105  1.5980  0.0946 -2.2275
  340MOL0     H46895  10.745   5.281   7.142 -1.9283 -0.1897  0.1242
  340MOL0     H46896  10.955   5.390   7.123 -0.2210 -1.1462 -0.3452
  340MOL0     H46897  10.876   5.554   7.103 -2.2173  0.8008 -3.1922
  340MOL0     H46898  10.808   5.498   6.870  0.1424  2.0787 -0.7374
  340MOL0     H46899  10.850   5.320   6.910  0.4267  0.3035 -0.3831
  340MOL0     H46900  10.071   5.534   7.380 -2.7594 -3.8602 -1.5999
  340MOL0     H46901   9.858   5.487   7.325 -0.5002 -1.3303 -1.2973
  340MOL0     H46902   9.476   5.487   7.113  3.0769 -0.9830 -0.0098
  340MOL0     H46903   9.251   5.405   7.041 -2.1255 -1.4015 -0.9436
  340MOL0     H46904   7.557   4.799   6.542 -1.8814 -2.1584  0.6838
  340MOL0     H46905   7.344   4.839   6.658  1.4930 -0.4134  0.9794
  340MOL0     H46906   6.960   4.874   6.663 -0.0253  0.2776  0.2770
  340MOL0     H46907   6.731   4.825   6.754  0.9722 -0.0717 -2.2387
  340MOL0     H46908   6.443   5.156   6.863  1.0002  0.7030 -0.5152
  340MOL0     H46909   6.443   5.095   6.697  1.5387 -1.4923  0.2608
  340MOL0     H46910   6.315   4.959   6.936  1.4529  1.4441  1.0849
  340MOL0     H46911   6.311   4.890   6.769 -0.4468  0.9309 -1.5425
  340MOL0     H46912   6.106   5.044   6.866  1.0901  0.9801  0.6779
  340MOL0     H46913   6.193   5.170   6.807  0.5790  0.8915  0.5242
  340MOL0     H46914   6.110   4.920   6.663 -0.3662 -0.3219 -0.3384
  340MOL0     H46915   6.223   5.027   6.571  0.6919  2.1574  0.5333
  340MOL0     H46916   5.881   5.267   6.533 -1.3684  0.6006  4.3416
  340MOL0     H46917   6.650   5.246   6.748  0.0488  1.2532 -0.2347
  340MOL0     H46918   6.958   5.359   6.683 -2.2476  0.7558  4.5191
  340MOL0     H46919   6.860   5.340   6.528 -2.6549  2.1995  0.2332
  340MOL0     H46920   6.788   5.402   6.679 -0.1981  2.1435 -2.6167
  341MOL0     O46921   6.037   4.606  10.162  0.2197  0.3040  0.4474
  341MOL0     C46922   6.056   4.653  10.053 -0.2732 -0.9148 -0.6629
  341MOL0     O46923   6.013   4.779  10.015 -0.3872  0.0638  0.1501
  341MOL0     C46924   5.959   4.857  10.116 -0.4558  0.1321 -0.6833
  341MOL0     C46925   6.030   4.966  10.174  0.3010  0.8217  0.2072
  341MOL0     C46926   5.967   5.041  10.270 -0.3176  0.7898 -0.0730
  341MOL0     C46927   5.835   5.020  10.310  0.2240  1.1576 -0.7514
  341MOL0     O46928   5.766   5.097  10.405 -0.8345  0.4237  0.5852
  341MOL0     C46929   5.832   5.160  10.514  0.1473 -0.5016  0.0833
  341MOL0     C46930   5.857   5.063  10.626  0.3693 -0.1996 -1.2993
  341MOL0     C46931   5.901   5.126  10.758 -0.7019 -0.0808  1.0062
  341MOL0     C46932   5.905   5.011  10.861  0.2866  0.1416  0.0554
  341MOL0     C46933   5.929   5.070  11.004  0.4061 -0.1680 -0.2489
  341MOL0     C46934   6.079   5.078  11.024  0.9282 -0.6069 -0.1690
  341MOL0     C46935   6.117   5.121  11.169 -0.1413  0.3488  0.5857
  341MOL0     C46936   6.266   5.139  11.181 -0.0503 -0.1195 -0.2225
  341MOL0     N46937   6.303   5.185  11.314 -0.7263 -0.0222 -0.3272
  341MOL0     C46938   6.311   5.316  11.355  0.3320 -0.0504 -0.2449
  341MOL0     C46939   6.339   5.302  11.489 -0.2495 -0.5675  0.1643
  341MOL0     C46940   6.326   5.422  11.579 -0.6330  0.0605 -0.5411
  341MOL0     C46941   6.467   5.488  11.606  0.3262 -0.6888 -0.6891
  341MOL0     C46942   6.562   5.374  11.667  0.3922 -0.2434  0.2575
  341MOL0     C46943   6.705   5.404  11.687  0.2728 -0.0410 -1.0233
  341MOL0     O46944   6.777   5.287  11.681  0.5168 -0.3219 -0.3162
  341MOL0     C46945   6.907   5.295  11.726  0.1742  0.8116  0.3483
  341MOL0     C46946   6.983   5.412  11.752 -0.0585  0.1693  0.0527
  341MOL0     C46947   7.114   5.404  11.802  0.3020  0.8865  0.4707
  341MOL0     C46948   7.180   5.534  11.827  0.0969  0.5009  0.4488
  341MOL0     C46949   7.172   5.278  11.821 -0.5435  0.0640 -0.2101
  341MOL0     C46950   7.315   5.258  11.888 -0.6141  0.4099 -0.6071
  341MOL0     O46951   7.379   5.134  11.882 -0.0020 -0.4232 -0.1369
  341MOL0     C46952   7.509   5.134  11.917 -0.3815  0.5760  0.2377
  341MOL0     C46953   7.543   5.097  12.039  0.0104 -0.7001 -0.1503
  341MOL0     C46954   7.676   5.117  12.080  0.3060  1.0006 -0.2743
  341MOL0     C46955   7.774   5.160  11.992  0.1867 -0.4528 -0.0385
  341MOL0     O46956   7.900   5.172  12.043 -0.2452  0.8883  0.2065
  341MOL0     C46957   7.962   5.299  12.046  0.6858 -0.4486 -0.3024
  341MOL0     C46958   8.115   5.278  12.080  0.2725 -0.0407  0.5362
  341MOL0     C46959   8.177   5.399  12.154  1.0393  0.0205 -0.8031
  341MOL0     C46960   8.220   5.505  12.053 -0.3623 -0.1078 -0.1888
  341MOL0     C46961   8.303   5.616  12.115  0.2396  0.1397 -0.0097
  341MOL0     C46962   8.237   5.694  12.230 -0.2133  0.3402  0.0041
  341MOL0     C46963   8.094   5.733  12.212  0.1904  0.0217 -0.4259
  341MOL0     C46964   8.040   5.776  12.349  0.1763  0.0161  0.3090
  341MOL0    Cl46965   8.031   5.628  12.462  0.2068 -0.3595 -0.0303
  341MOL0     C46966   7.735   5.204  11.866  0.1870  0.3063  0.6536
  341MOL0     C46967   7.602   5.192  11.831 -0.1616  0.1633 -0.4561
  341MOL0     O46968   7.354   5.347  11.968 -0.4309  0.5201  0.2725
  341MOL0     C46969   7.098   5.160  11.791 -0.2065 -0.6985  0.5645
  341MOL0     C46970   6.965   5.168  11.753 -0.3558  0.9066 -0.0176
  341MOL0     N46971   6.341   5.168  11.527 -0.6678 -0.8546  0.0581
  341MOL0     N46972   6.314   5.101  11.423  0.1145  0.8613 -0.2277
  341MOL0     C46973   5.766   4.920  10.240 -0.0990  0.6017  0.3758
  341MOL0     C46974   5.824   4.829  10.153 -0.4381  0.0344 -0.5193
  341MOL0     C46975   6.129   4.577   9.946 -0.4215 -1.3987 -0.7610
  341MOL0     C46976   6.164   4.646   9.833 -0.2044 -0.1117  0.7542
  341MOL0     C46977   6.256   4.595   9.739  0.6000  0.0018 -0.2992
  341MOL0     C46978   6.308   4.472   9.754 -0.0064  0.5092  0.6283
  341MOL0     O46979   6.398   4.442   9.655  0.6404 -0.3612  0.0204
  341MOL0     C46980   6.476   4.320   9.670 -0.1431  0.1735  0.1065
  341MOL0     C46981   6.581   4.342   9.783  0.7286 -0.0470 -0.7503
  341MOL0     C46982   6.689   4.234   9.775  0.3307 -0.0822  0.2357
  341MOL0     C46983   6.632   4.110   9.847 -1.1134  0.9696 -0.0676
  341MOL0     C46984   6.716   3.986   9.836 -0.3290 -0.5802 -0.3251
  341MOL0     C46985   6.798   3.893   9.840 -0.2473 -1.4440  0.5094
  341MOL0     C46986   6.255   4.392   9.857  0.0853 -0.2839  0.2486
  341MOL0     C46987   6.169   4.444   9.960 -0.3005 -0.5861  0.5227
  341MOL0     C46988   6.112   4.352  10.069 -0.0262  0.3503 -0.5356
  341MOL0     H46989   6.132   4.994  10.150 -0.0074  3.3183  1.4661
  341MOL0     H46990   6.015   5.122  10.324 -2.3277  0.6169  2.1649
  341MOL0     H46991   5.765   5.240  10.545  1.5315  0.5924  0.3289
  341MOL0     H46992   5.925   5.210  10.484 -0.0797 -0.6135 -0.8254
  341MOL0     H46993   5.758   5.019  10.640  0.9097 -0.9905  0.1336
  341MOL0     H46994   5.933   4.989  10.601 -1.8419 -3.3852  0.7161
  341MOL0     H46995   5.997   5.175  10.737 -1.5780  0.9027 -1.0145
  341MOL0     H46996   5.835   5.208  10.787  1.8553  2.2717  0.6885
  341MOL0     H46997   5.812   4.953  10.853 -1.9896  3.1752  2.0843
  341MOL0     H46998   5.982   4.939  10.832  0.3397  0.1465  0.1826
  341MOL0     H46999   5.887   4.997  11.073  1.4562  0.2557  0.8706
  341MOL0     H47000   5.881   5.168  11.012  0.3426  0.0148 -2.2452
  341MOL0     H47001   6.124   4.980  11.004  2.4457 -0.1120  0.6177
  341MOL0     H47002   6.136   5.145  10.960 -0.0802 -0.0299 -0.4762
  341MOL0     H47003   6.079   5.046  11.239  0.9256 -0.0247  0.7924
  341MOL0     H47004   6.073   5.219  11.190 -0.1366  0.0690  2.0472
  341MOL0     H47005   6.308   5.040  11.158 -0.1834 -0.1745 -0.2316
  341MOL0     H47006   6.300   5.215  11.110 -0.6456  0.2898 -0.0751
  341MOL0     H47007   6.281   5.397  11.289 -1.9116 -1.8041 -1.5532
  341MOL0     H47008   6.267   5.394  11.667 -1.3538  1.5042 -0.5337
  341MOL0     H47009   6.270   5.507  11.539 -1.1906  0.8794  1.8606
  341MOL0     H47010   6.505   5.524  11.510  0.2007 -0.8159 -0.7865
  341MOL0     H47011   6.453   5.579  11.665 -0.3135 -0.6049 -0.9618
  341MOL0     H47012   6.520   5.340  11.762 -3.6980  0.5966 -1.0536
  341MOL0     H47013   6.575   5.292  11.596  2.1384  0.7948 -0.6637
  341MOL0     H47014   6.743   5.468  11.607  1.6978 -0.3201 -0.6001
  341MOL0     H47015   6.716   5.453  11.785  1.1354 -0.9322 -0.6566
  341MOL0     H47016   6.950   5.510  11.722  1.7377 -0.2758 -4.0718
  341MOL0     H47017   7.143   5.571  11.923  0.4100 -1.0546  1.1977
  341MOL0     H47018   7.137   5.606  11.757  0.8638 -0.2063 -0.7818
  341MOL0     H47019   7.287   5.540  11.805 -0.3514  2.1423 -1.6428
  341MOL0     H47020   7.471   5.051  12.106 -0.7542 -1.2303 -1.2993
  341MOL0     H47021   7.704   5.088  12.181 -3.1884  0.7430  0.7763
  341MOL0     H47022   7.951   5.362  11.957  0.8197  0.5597  0.3755
  341MOL0     H47023   7.907   5.354  12.123  1.4077  0.1517 -0.2040
  341MOL0     H47024   8.114   5.184  12.135 -1.7910 -1.0423 -1.0763
  341MOL0     H47025   8.169   5.255  11.988 -0.0819 -1.7606  0.7270
  341MOL0     H47026   8.263   5.367  12.213 -0.1427 -0.4518  0.7170
  341MOL0     H47027   8.101   5.435  12.224  1.7843 -1.9341  1.1413
  341MOL0     H47028   8.139   5.542  11.990 -0.1825 -0.8372 -0.8651
  341MOL0     H47029   8.283   5.459  11.976 -0.4600 -0.6908  0.0735
  341MOL0     H47030   8.397   5.566  12.140 -0.5537 -1.5545 -0.3066
  341MOL0     H47031   8.324   5.686  12.033  0.8165  2.3652  1.9095
  341MOL0     H47032   8.300   5.783  12.238  0.3562  0.0910 -1.4072
  341MOL0     H47033   8.256   5.637  12.322 -0.1330  0.2776 -0.0509
  341MOL0     H47034   8.038   5.644  12.182 -2.2841  1.6280 -0.8460
  341MOL0     H47035   8.088   5.809  12.134 -0.8317 -0.9167 -1.3013
  341MOL0     H47036   7.937   5.810  12.338 -0.2051 -0.0603  2.9523
  341MOL0     H47037   8.096   5.859  12.392 -0.3394  1.2784 -1.3506
  341MOL0     H47038   7.803   5.240  11.790 -2.0342  0.9518 -1.1573
  341MOL0     H47039   7.568   5.231  11.736 -1.8007  1.9393  0.7802
  341MOL0     H47040   7.137   5.059  11.797 -2.8378 -1.7536  1.2988
  341MOL0     H47041   6.915   5.074  11.734  0.5705  0.2630  0.6412
  341MOL0     H47042   5.660   4.916  10.264 -0.0268  2.9671  1.3920
  341MOL0     H47043   5.773   4.745  10.107 -2.2705  1.2114 -0.7267
  341MOL0     H47044   6.128   4.747   9.815 -0.6435 -0.8442 -3.7133
  341MOL0     H47045   6.272   4.661   9.654  0.1341  1.7000  0.8758
  341MOL0     H47046   6.418   4.231   9.698  2.5441 -2.6703 -2.6540
  341MOL0     H47047   6.508   4.318   9.565 -0.7052  3.1405 -0.2025
  341MOL0     H47048   6.533   4.326   9.880  0.0127 -2.2041 -1.3971
  341MOL0     H47049   6.627   4.441   9.773 -2.5210  1.6657  0.0046
  341MOL0     H47050   6.719   4.226   9.670  2.0999 -0.0724  0.7129
  341MOL0     H47051   6.771   4.272   9.837 -1.5047  0.3172  2.5472
  341MOL0     H47052   6.531   4.083   9.814 -0.8720 -1.0270  0.6919
  341MOL0     H47053   6.625   4.138   9.952  3.1746 -1.2788  1.0649
  341MOL0     H47054   6.874   3.818   9.831 -0.5400 -1.5260 -2.0277
  341MOL0     H47055   6.285   4.288   9.861 -0.4539 -0.4533 -0.0788
  341MOL0     H47056   6.154   4.383  10.165 -0.8528 -0.0721 -0.0261
  341MOL0     H47057   6.007   4.383  10.072  0.2075  1.1330  2.3109
  341MOL0     H47058   6.121   4.248  10.037  1.8405  0.6366 -1.0647
  342MOL0     O47059   9.854  10.093  10.119 -0.7244  0.1863 -0.0247
  342MOL0     C47060   9.776  10.048  10.194  0.5337  0.2533  0.1696
  342MOL0     O47061   9.786  10.024  10.328  0.2513  0.2431  0.6148
  342MOL0     C47062   9.899  10.050  10.399  0.0586 -0.0472 -0.3148
  342MOL0     C47063   9.884  10.079  10.535 -0.8970  0.6638  0.3407
  342MOL0     C47064  10.003  10.117  10.601 -1.2381  0.0907  0.5171
  342MOL0     C47065  10.138  10.127  10.539  0.2386  0.1297 -1.1882
  342MOL0     O47066  10.248  10.157  10.615  0.3324  0.4193 -0.0400
  342MOL0     C47067  10.225  10.227  10.735  0.7811  0.0239  0.8261
  342MOL0     C47068  10.358  10.280  10.783  0.6591 -0.2859 -0.9791
  342MOL0     C47069  10.459  10.166  10.791 -0.0139 -0.4235 -0.0607
  342MOL0     C47070  10.585  10.217  10.868  0.1689  1.5045  0.2979
  342MOL0     C47071  10.690  10.105  10.879  0.4149  0.4092 -0.9200
  342MOL0     C47072  10.829  10.153  10.921 -0.0521 -0.3141  0.0684
  342MOL0     C47073  10.823  10.220  11.060 -0.1354 -0.2205  0.1778
  342MOL0     C47074  10.866  10.367  11.041  0.5800  0.8185  0.0305
  342MOL0     N47075  10.877  10.442  11.168 -0.1473 -0.2207 -0.6154
  342MOL0     C47076  10.974  10.435  11.264 -0.8566 -0.0440  0.2765
  342MOL0     C47077  10.941  10.519  11.367 -0.0007  0.0610  0.2801
  342MOL0     C47078  11.015  10.531  11.490 -0.1998 -0.4705 -0.2140
  342MOL0     C47079  11.171  10.537  11.472  0.2100 -0.1733  0.0129
  342MOL0     C47080  11.236  10.591  11.589 -1.1130 -0.6762 -0.6517
  342MOL0     C47081  11.253  10.492  11.704  0.3218 -1.4065 -0.6765
  342MOL0     O47082  11.336  10.384  11.680  0.6488 -0.0555  0.5903
  342MOL0     C47083  11.375  10.305  11.781 -0.0696 -0.0309  0.6480
  342MOL0     C47084  11.484  10.214  11.752 -0.4749 -1.2311  0.8429
  342MOL0     C47085  11.548  10.128  11.847 -0.1241 -1.0802  0.3658
  342MOL0     C47086  11.668  10.055  11.792  0.6094  0.0057  0.2559
  342MOL0     C47087  11.476  10.118  11.969  0.0394  0.6646 -1.6955
  342MOL0     C47088  11.512  10.017  12.073  0.6373 -0.4177 -0.2423
  342MOL0     O47089  11.448  10.030  12.188 -0.4700 -0.0610  0.2235
  342MOL0     C47090  11.512   9.994  12.304  0.3053 -0.0455  0.2351
  342MOL0     C47091  11.550  10.090  12.394  0.0733  0.1405  0.2056
  342MOL0     C47092  11.598  10.045  12.517 -1.4017  0.4867 -0.2924
  342MOL0     C47093  11.604   9.906  12.553 -0.1645  0.4272  0.4825
  342MOL0     O47094  11.645   9.883  12.682  0.2461 -0.3157  0.2525
  342MOL0     C47095  11.661   9.745  12.719  0.2076  0.1563 -0.6190
  342MOL0     C47096  11.736   9.718  12.842 -0.1544 -0.7961  0.1433
  342MOL0     C47097  11.872   9.649  12.827 -0.2776 -0.2944 -0.3927
  342MOL0     C47098  11.979   9.737  12.748 -0.7033 -0.8551 -0.5947
  342MOL0     C47099  12.132   9.691  12.772 -0.0951 -0.3152 -0.2658
  342MOL0     C47100  12.230   9.772  12.693  0.2224  0.1284  0.0155
  342MOL0     C47101  12.375   9.733  12.728 -0.2027  0.3532  0.4264
  342MOL0     C47102  12.411   9.583  12.739  0.3038  0.1640 -0.7471
  342MOL0    Cl47103  12.567   9.562  12.812  0.0421 -0.4019  0.5647
  342MOL0     C47104  11.566   9.816  12.456  0.7903 -0.0201 -0.1941
  342MOL0     C47105  11.518   9.858  12.331  0.1832  0.3627 -0.4705
  342MOL0     O47106  11.603   9.934  12.054 -0.0478 -0.2351  1.0141
  342MOL0     C47107  11.371  10.208  12.000  0.7106 -0.0998  0.7644
  342MOL0     C47108  11.325  10.306  11.911  0.1828  0.0866  0.0164
  342MOL0     N47109  10.832  10.586  11.320 -0.0402  0.1027 -0.3390
  342MOL0     N47110  10.784  10.543  11.202 -0.2533 -0.1342 -0.1178
  342MOL0     C47111  10.146  10.088  10.405  1.1809  0.6339 -0.5538
  342MOL0     C47112  10.026  10.049  10.344  0.3963  0.0288  0.5831
  342MOL0     C47113   9.647  10.000  10.149  0.5095 -0.2519  0.1007
  342MOL0     C47114   9.610   9.876  10.202  0.6337  0.5045  0.2635
  342MOL0     C47115   9.504   9.804  10.157  0.7436 -0.9853 -0.5958
  342MOL0     C47116   9.418   9.863  10.061  0.0981 -1.6816  0.3605
  342MOL0     O47117   9.305   9.795  10.037  0.3099  0.8039  0.4973
  342MOL0     C47118   9.197   9.855   9.966 -0.2479 -0.6623  0.3113
  342MOL0     C47119   9.069   9.774   9.998 -0.3518 -0.6091 -0.3553
  342MOL0     C47120   8.942   9.860   9.966  0.4169  0.3038 -1.3591
  342MOL0     C47121   8.802   9.800  10.004 -0.3859  0.2971 -0.3003
  342MOL0     C47122   8.804   9.772  10.147  0.6687 -0.0278 -0.5967
  342MOL0     C47123   8.795   9.738  10.267  0.7161  0.5430 -0.8752
  342MOL0     C47124   9.466   9.985   9.992 -0.2431  0.3416  0.0193
  342MOL0     C47125   9.578  10.050  10.037 -0.2881 -0.1677  0.7696
  342MOL0     C47126   9.634  10.157   9.951  0.5556 -0.8558  0.1294
  342MOL0     H47127   9.790  10.065  10.587 -0.7855 -1.0541  0.1252
  342MOL0     H47128   9.987  10.152  10.702 -1.4639  1.5000  0.0040
  342MOL0     H47129  10.187  10.170  10.820  1.9422  1.7299  2.5685
  342MOL0     H47130  10.158  10.308  10.704  1.2779  0.0614 -0.1997
  342MOL0     H47131  10.394  10.352  10.710  2.3520 -1.0965 -0.9992
  342MOL0     H47132  10.347  10.318  10.885 -0.1976 -1.6953 -0.5154
  342MOL0     H47133  10.415  10.084  10.849  0.0249 -1.8365 -1.9293
  342MOL0     H47134  10.495  10.131  10.694 -2.1882 -2.0406 -0.3490
  342MOL0     H47135  10.631  10.305  10.825 -0.7027  2.8534  1.9884
  342MOL0     H47136  10.557  10.242  10.971  3.5999  0.1096  1.7286
  342MOL0     H47137  10.696  10.049  10.785 -0.2621 -0.9713 -0.1791
  342MOL0     H47138  10.660  10.032  10.955  0.5179  1.6163  0.3178
  342MOL0     H47139  10.889  10.063  10.931 -2.4456 -2.0910 -0.7053
  342MOL0     H47140  10.875  10.216  10.845 -1.5185  1.2856  0.4321
  342MOL0     H47141  10.892  10.170  11.128  0.1964  2.0035  1.5705
  342MOL0     H47142  10.723  10.218  11.106 -0.5938  1.1601 -0.6821
  342MOL0     H47143  10.967  10.370  10.999  1.6439  2.4997  2.4498
  342MOL0     H47144  10.784  10.421  10.993 -0.4851  1.8472  2.7908
  342MOL0     H47145  11.049  10.357  11.273 -1.7869 -0.9800  0.0467
  342MOL0     H47146  10.992  10.464  11.573  0.9155 -1.6526 -0.8035
  342MOL0     H47147  10.988  10.632  11.521  1.0193 -1.0619  3.1773
  342MOL0     H47148  11.209  10.439  11.439 -0.7916  0.4012 -3.1650
  342MOL0     H47149  11.202  10.600  11.388  3.7054 -3.5021 -1.5533
  342MOL0     H47150  11.332  10.637  11.565  0.0834 -0.8718  3.1008
  342MOL0     H47151  11.181  10.677  11.629 -1.6822 -2.3249  2.4095
  342MOL0     H47152  11.282  10.556  11.788  0.5156  0.5244 -2.1343
  342MOL0     H47153  11.153  10.453  11.727  0.4336 -1.5028 -0.3437
  342MOL0     H47154  11.524  10.211  11.651 -1.6011 -1.7414  0.3896
  342MOL0     H47155  11.710  10.107  11.706 -2.2073  1.8524 -0.1216
  342MOL0     H47156  11.623   9.959  11.765 -1.1810  0.8005  0.2668
  342MOL0     H47157  11.746  10.042  11.868  1.6712 -0.3049 -0.8654
  342MOL0     H47158  11.527  10.195  12.380  1.7275  0.7716  1.8084
  342MOL0     H47159  11.614  10.104  12.607  0.7721 -1.7371  0.8727
  342MOL0     H47160  11.568   9.689  12.710  0.2421  0.3740 -2.9022
  342MOL0     H47161  11.717   9.695  12.639  1.2154 -0.7945  0.6357
  342MOL0     H47162  11.744   9.813  12.896  3.1629 -1.0950  0.3537
  342MOL0     H47163  11.668   9.654  12.899 -1.4398  1.0966  0.8362
  342MOL0     H47164  11.861   9.555  12.772  0.6620  1.0653 -3.1035
  342MOL0     H47165  11.924   9.616  12.917  0.0955 -1.0881 -0.8847
  342MOL0     H47166  11.965   9.838  12.788 -0.7629 -1.3486  0.6546
  342MOL0     H47167  11.961   9.741  12.640  1.3546 -1.8996 -1.0319
  342MOL0     H47168  12.153   9.695  12.879 -1.8449  0.3126  0.0982
  342MOL0     H47169  12.148   9.588  12.739  1.1294  0.4521 -2.2489
  342MOL0     H47170  12.213   9.875  12.726 -0.1071  0.2337 -0.4731
  342MOL0     H47171  12.216   9.757  12.586 -1.2106 -1.0356  0.3273
  342MOL0     H47172  12.398   9.784  12.822 -0.1434  0.0987  0.5534
  342MOL0     H47173  12.431   9.776  12.645 -0.3617  0.1757  0.2254
  342MOL0     H47174  12.406   9.542  12.638 -1.2791 -3.2894  0.5971
  342MOL0     H47175  12.342   9.522  12.797  2.1187  0.2514  1.6461
  342MOL0     H47176  11.559   9.710  12.476  1.7583  0.2649  1.8415
  342MOL0     H47177  11.471   9.794  12.257 -0.4184 -0.9190  0.9802
  342MOL0     H47178  11.333  10.218  12.101  0.7065 -1.9867  0.9776
  342MOL0     H47179  11.264  10.391  11.942  0.6553  1.4606 -2.5710
  342MOL0     H47180  10.237  10.085  10.346  0.0575  1.2644 -2.3915
  342MOL0     H47181  10.037  10.012  10.242 -0.3979 -0.7330  0.7679
  342MOL0     H47182   9.668   9.838  10.286 -0.5220  2.4872  2.0585
  342MOL0     H47183   9.483   9.712  10.212 -0.0196  0.2158  1.2175
  342MOL0     H47184   9.184   9.960   9.994 -1.1081  0.0498 -2.4403
  342MOL0     H47185   9.209   9.856   9.857 -0.4190 -1.1912  0.2855
  342MOL0     H47186   9.068   9.738  10.101  0.2511  0.4437  0.0333
  342MOL0     H47187   9.070   9.694   9.923  1.9796  0.7990 -1.9679
  342MOL0     H47188   8.965   9.951  10.022  0.0406 -0.5358  0.2373
  342MOL0     H47189   8.937   9.886   9.860 -2.2100  1.1561 -1.0999
  342MOL0     H47190   8.772   9.711   9.948 -0.4933  0.3719 -0.3633
  342MOL0     H47191   8.724   9.873   9.978  0.3003  0.3608 -2.3187
  342MOL0     H47192   8.777   9.687  10.359 -0.6257  1.8759 -0.3427
  342MOL0     H47193   9.415  10.007   9.899 -0.4517 -0.4119 -0.0466
  342MOL0     H47194   9.725  10.123   9.901  1.1227  3.5634 -2.3401
  342MOL0     H47195   9.565  10.176   9.869  1.3657 -3.5076 -1.2973
  342MOL0     H47196   9.654  10.252  10.000 -4.1175  0.3296  0.2225
  343MOL0     O47197   6.654   4.660   3.022  0.7553  0.4447  0.4729
  343MOL0     C47198   6.601   4.550   3.029  0.4438  0.1376 -0.1401
  343MOL0     O47199   6.665   4.433   2.998 -0.4286  0.4022  0.8794
  343MOL0     C47200   6.790   4.448   2.948  0.2605 -0.1627  0.4674
  343MOL0     C47201   6.906   4.449   3.022  0.0635  0.1368 -0.0733
  343MOL0     C47202   7.031   4.466   2.976  0.1025 -0.3042  0.0610
  343MOL0     C47203   7.055   4.474   2.839  0.3389 -0.1150 -0.3065
  343MOL0     O47204   7.176   4.494   2.773 -0.3733 -0.0828  0.0128
  343MOL0     C47205   7.303   4.501   2.831  0.7256 -0.5824 -0.6895
  343MOL0     C47206   7.395   4.491   2.703  0.1437 -0.0641 -0.4383
  343MOL0     C47207   7.405   4.615   2.617 -0.1072 -0.1580 -0.8116
  343MOL0     C47208   7.445   4.578   2.482 -0.2804  0.1619 -0.4387
  343MOL0     C47209   7.586   4.548   2.473 -0.0566  0.8286 -0.8177
  343MOL0     C47210   7.631   4.551   2.324  0.3357  1.0314 -0.6007
  343MOL0     C47211   7.775   4.502   2.302 -0.1573 -0.1012  0.0470
  343MOL0     C47212   7.825   4.531   2.163 -1.3645  0.2373 -0.2639
  343MOL0     N47213   7.977   4.528   2.144 -0.4889  0.1632 -0.7649
  343MOL0     C47214   8.059   4.640   2.129  0.4610  0.6564  0.4013
  343MOL0     C47215   8.187   4.595   2.151  0.2796 -0.2506 -0.8933
  343MOL0     C47216   8.301   4.675   2.159 -0.0186 -0.1197  1.0757
  343MOL0     C47217   8.407   4.602   2.247  0.1810 -0.2014  0.4576
  343MOL0     C47218   8.540   4.689   2.237  0.6026  0.3018  0.1266
  343MOL0     C47219   8.633   4.673   2.354 -0.5990 -0.6889  0.4526
  343MOL0     O47220   8.743   4.763   2.351  0.4193 -0.3291 -0.2105
  343MOL0     C47221   8.866   4.710   2.368  0.1732 -0.4702 -0.0075
  343MOL0     C47222   8.931   4.689   2.488  0.0829  0.0618  0.3895
  343MOL0     C47223   9.046   4.615   2.489  0.2840  0.9139  0.1350
  343MOL0     C47224   9.089   4.591   2.630 -0.1452 -0.3950  0.0593
  343MOL0     C47225   9.106   4.571   2.370  0.4741 -0.1720 -0.7568
  343MOL0     C47226   9.234   4.496   2.376 -0.7140  0.1682 -0.1494
  343MOL0     O47227   9.247   4.408   2.273 -0.6681 -0.1599 -0.0266
  343MOL0     C47228   9.379   4.375   2.244 -0.5466  0.8343  0.0411
  343MOL0     C47229   9.450   4.298   2.332 -0.0341  0.4810  0.6394
  343MOL0     C47230   9.582   4.257   2.292  0.4764 -0.8713  0.5974
  343MOL0     C47231   9.637   4.288   2.164  0.4431 -0.3048  0.7713
  343MOL0     O47232   9.760   4.250   2.115 -0.0989 -0.3105 -0.4195
  343MOL0     C47233   9.806   4.132   2.180  0.0641  0.1344  0.7180
  343MOL0     C47234   9.922   4.079   2.088 -0.0332  0.1414 -0.3454
  343MOL0     C47235   9.903   4.067   1.940  0.0439  0.0695 -0.3323
  343MOL0     C47236   9.772   4.007   1.901 -0.0457 -0.1431 -0.0312
  343MOL0     C47237   9.767   3.862   1.946  0.6054 -0.5649 -0.3536
  343MOL0     C47238   9.621   3.819   1.959  0.3127 -1.0027  0.0820
  343MOL0     C47239   9.558   3.759   1.838 -0.3618  0.5442  0.0118
  343MOL0     C47240   9.414   3.709   1.858  0.0252 -0.8898  0.4448
  343MOL0    Cl47241   9.388   3.619   2.019 -0.0841 -0.1058  0.0898
  343MOL0     C47242   9.562   4.378   2.078  0.1803  0.0310  0.3747
  343MOL0     C47243   9.441   4.428   2.126 -0.0509  0.4215 -0.2024
  343MOL0     O47244   9.318   4.516   2.463  0.0452 -0.0444 -0.0516
  343MOL0     C47245   9.042   4.595   2.251  0.3783  0.1230 -0.6734
  343MOL0     C47246   8.925   4.670   2.247 -0.5821 -0.1630  0.4373
  343MOL0     N47247   8.181   4.458   2.161  0.0147  0.6841  0.4466
  343MOL0     N47248   8.055   4.419   2.155  0.0081 -0.2485  0.1060
  343MOL0     C47249   6.943   4.461   2.757  0.0440 -0.2528  0.8360
  343MOL0     C47250   6.807   4.451   2.806 -0.3408  0.4532  0.0123
  343MOL0     C47251   6.451   4.534   3.063 -0.7998  0.8439  0.1818
  343MOL0     C47252   6.385   4.412   3.036 -0.1405 -0.9060 -0.3106
  343MOL0     C47253   6.251   4.401   3.069  0.1651 -0.3213  0.3531
  343MOL0     C47254   6.178   4.497   3.138 -0.5704  0.0222  0.9840
  343MOL0     O47255   6.052   4.480   3.181  0.3363  0.6607 -0.6036
  343MOL0     C47256   5.983   4.367   3.123  0.2335  0.0475  0.4922
  343MOL0     C47257   5.835   4.389   3.149  0.4583  0.0875  0.1377
  343MOL0     C47258   5.741   4.285   3.073 -0.4991 -0.0027  0.1476
  343MOL0     C47259   5.589   4.292   3.093 -0.2931  0.9141 -0.4370
  343MOL0     C47260   5.511   4.209   2.996 -0.5704  0.0976 -0.6867
  343MOL0     C47261   5.439   4.139   2.933  0.0364 -0.1716  0.9948
  343MOL0     C47262   6.246   4.613   3.159  0.0165  0.5855  0.0948
  343MOL0     C47263   6.376   4.639   3.123 -0.2989 -0.1257  0.4057
  343MOL0     C47264   6.428   4.776   3.155  0.0777  0.1400 -0.1796
  343MOL0     H47265   6.884   4.447   3.129  1.0878  0.9687  0.1718
  343MOL0     H47266   7.119   4.465   3.039  0.8815 -3.0407 -0.9233
  343MOL0     H47267   7.320   4.425   2.907  0.1618  0.2339  0.2783
  343MOL0     H47268   7.301   4.601   2.875 -1.6374 -1.1279  0.5697
  343MOL0     H47269   7.493   4.450   2.730 -0.1149 -2.0772 -2.2687
  343MOL0     H47270   7.352   4.406   2.650 -1.5212  0.3251  0.2359
  343MOL0     H47271   7.310   4.669   2.606  1.4753  2.8499 -0.7495
  343MOL0     H47272   7.483   4.684   2.649 -0.0260 -0.5029 -0.2581
  343MOL0     H47273   7.383   4.494   2.447  1.8818 -0.1167 -4.1817
  343MOL0     H47274   7.418   4.656   2.410 -1.5995  0.1939  0.0645
  343MOL0     H47275   7.602   4.449   2.517 -0.1130  0.7736 -0.9207
  343MOL0     H47276   7.655   4.617   2.523  2.1290 -0.8591 -1.3359
  343MOL0     H47277   7.564   4.478   2.278 -0.0377  0.0460  1.3974
  343MOL0     H47278   7.612   4.645   2.272 -0.4027  1.8268  1.0131
  343MOL0     H47279   7.774   4.394   2.323  0.0922 -0.0699  0.2305
  343MOL0     H47280   7.841   4.556   2.371  1.4215 -1.6565 -0.1807
  343MOL0     H47281   7.772   4.483   2.080  0.0214 -0.1088 -0.9889
  343MOL0     H47282   7.802   4.638   2.155 -3.5384 -0.1109  0.5675
  343MOL0     H47283   8.020   4.741   2.131 -2.6986 -0.4330 -0.1794
  343MOL0     H47284   8.282   4.774   2.203  0.9921  1.0315 -0.9579
  343MOL0     H47285   8.341   4.691   2.059 -1.4747  1.5505  0.7117
  343MOL0     H47286   8.375   4.608   2.351 -2.1041 -0.7265 -0.1613
  343MOL0     H47287   8.417   4.498   2.216 -1.0290  0.3717 -2.1082
  343MOL0     H47288   8.597   4.668   2.146  3.3889  1.2308  1.5332
  343MOL0     H47289   8.514   4.795   2.228  0.0019  0.0502 -1.4367
  343MOL0     H47290   8.567   4.692   2.440  0.0621 -0.6353  0.9546
  343MOL0     H47291   8.673   4.573   2.371  0.3104 -0.7504 -1.7528
  343MOL0     H47292   8.891   4.723   2.583 -3.2096  0.1030 -0.8808
  343MOL0     H47293   9.144   4.499   2.650  1.5031  0.2954 -1.0798
  343MOL0     H47294   9.001   4.579   2.694 -0.1657  0.6112  0.2329
  343MOL0     H47295   9.153   4.675   2.659 -0.8422 -0.3125  1.4601
  343MOL0     H47296   9.402   4.288   2.429 -0.9799  0.8213  0.2195
  343MOL0     H47297   9.641   4.208   2.369  0.6742 -0.7837  0.5035
  343MOL0     H47298   9.852   4.163   2.274  0.1286  3.0309 -0.1896
  343MOL0     H47299   9.729   4.054   2.188  0.2028  0.0990  1.7196
  343MOL0     H47300  10.013   4.139   2.099 -0.4833  0.6967  0.5105
  343MOL0     H47301   9.950   3.985   2.137  0.9884  1.1770  1.1830
  343MOL0     H47302   9.982   4.010   1.891  0.5735 -0.0139  0.5980
  343MOL0     H47303   9.899   4.163   1.888 -1.1581  0.5565  0.6192
  343MOL0     H47304   9.754   4.018   1.794  1.0118  2.6856  0.0014
  343MOL0     H47305   9.696   4.071   1.945  0.1249 -0.9148  1.4425
  343MOL0     H47306   9.827   3.800   1.879  2.3644  0.3933  0.2804
  343MOL0     H47307   9.817   3.856   2.043  1.5545 -0.0166 -0.8043
  343MOL0     H47308   9.564   3.908   1.988  0.2515 -0.5018 -1.5153
  343MOL0     H47309   9.596   3.750   2.040 -0.9360 -1.5006 -0.7092
  343MOL0     H47310   9.611   3.672   1.800 -1.7478  0.1636 -1.1623
  343MOL0     H47311   9.567   3.823   1.749  1.3840  1.1046  0.5537
  343MOL0     H47312   9.392   3.652   1.768  0.1617  0.2840 -0.3528
  343MOL0     H47313   9.353   3.799   1.868 -3.4635 -3.0581  0.3401
  343MOL0     H47314   9.597   4.404   1.979 -1.6390 -1.6662 -0.7881
  343MOL0     H47315   9.375   4.497   2.074  0.2128  0.6548 -0.2238
  343MOL0     H47316   9.066   4.542   2.159  0.3528 -0.4146 -0.3764
  343MOL0     H47317   8.869   4.699   2.159  0.0202  3.6797  1.1450
  343MOL0     H47318   6.954   4.467   2.649 -0.4941  0.6620  0.8208
  343MOL0     H47319   6.736   4.420   2.730 -0.1281 -0.4550  0.1684
  343MOL0     H47320   6.439   4.323   3.006  0.0328 -0.4510 -1.3797
  343MOL0     H47321   6.209   4.306   3.039 -0.5463  0.4769 -1.2740
  343MOL0     H47322   5.998   4.359   3.015 -3.9655 -2.0061 -0.1252
  343MOL0     H47323   6.011   4.272   3.170  0.9053 -1.1851 -2.1792
  343MOL0     H47324   5.800   4.484   3.108  2.4211 -0.0755 -2.0984
  343MOL0     H47325   5.813   4.392   3.256 -0.4479 -0.4007 -0.0220
  343MOL0     H47326   5.762   4.299   2.966  0.1038 -0.0774  0.2568
  343MOL0     H47327   5.780   4.188   3.103 -2.1293 -1.3095 -1.6932
  343MOL0     H47328   5.552   4.394   3.078  0.0654  0.8245 -2.2514
  343MOL0     H47329   5.555   4.259   3.191 -1.1256  3.9985  0.4271
  343MOL0     H47330   5.377   4.072   2.877 -0.7965  0.4083  1.1973
  343MOL0     H47331   6.187   4.681   3.219  1.1665 -1.9801  4.6211
  343MOL0     H47332   6.350   4.822   3.217 -1.4327 -0.7620 -1.3388
  343MOL0     H47333   6.526   4.778   3.203  0.7983  0.2622 -1.5755
  343MOL0     H47334   6.449   4.841   3.069  6.2141  3.7890  3.3118
  344MOL0     O47335  10.020   3.008   6.882 -0.7093 -0.7136 -0.2794
  344MOL0     C47336   9.961   3.005   6.775 -0.0501  0.3212 -1.0787
  344MOL0     O47337  10.023   2.984   6.652  0.4738 -0.5386 -0.0587
  344MOL0     C47338  10.158   2.960   6.647 -0.4536  0.4784 -0.2208
  344MOL0     C47339  10.247   3.059   6.665 -0.3234 -0.7382 -0.5956
  344MOL0     C47340  10.382   3.041   6.659 -0.0324  0.9592  0.1788
  344MOL0     C47341  10.437   2.913   6.646 -0.7958  0.1412  0.5510
  344MOL0     O47342  10.570   2.878   6.647  0.4251 -0.3881  0.4191
  344MOL0     C47343  10.666   2.984   6.675  0.3681  0.1289 -0.4842
  344MOL0     C47344  10.799   2.917   6.695  0.0563 -0.0231 -0.1298
  344MOL0     C47345  10.918   3.006   6.699  0.1776 -1.0906 -0.1385
  344MOL0     C47346  11.052   2.938   6.718 -0.0137  0.0754  0.7616
  344MOL0     C47347  11.167   3.042   6.739 -0.1189 -0.2054 -0.1989
  344MOL0     C47348  11.228   3.070   6.597 -0.0327  0.5480  0.1506
  344MOL0     C47349  11.363   3.133   6.626 -0.3457  0.0519 -0.3160
  344MOL0     C47350  11.436   3.176   6.500  1.0067  0.0567  0.1514
  344MOL0     N47351  11.580   3.195   6.515  0.1959  0.2732  0.2728
  344MOL0     C47352  11.627   3.308   6.577  0.6946  0.5895 -0.1419
  344MOL0     C47353  11.752   3.323   6.541  0.3135  0.4526 -0.3544
  344MOL0     C47354  11.849   3.430   6.573 -0.1376 -0.2091  0.4539
  344MOL0     C47355  11.917   3.441   6.708  0.5164 -0.2703  0.9655
  344MOL0     C47356  11.995   3.313   6.747 -0.3254  1.0208 -1.2126
  344MOL0     C47357  12.139   3.320   6.707  0.3554 -0.3694  0.0341
  344MOL0     O47358  12.212   3.415   6.784 -0.0282  1.0406  0.4641
  344MOL0     C47359  12.345   3.436   6.749 -0.0079 -0.3992 -0.1941
  344MOL0     C47360  12.412   3.530   6.826  0.6366  0.7498  0.3903
  344MOL0     C47361  12.545   3.561   6.798  0.6177  0.5568  0.3377
  344MOL0     C47362  12.614   3.664   6.881 -0.2764  0.4407 -0.5265
  344MOL0     C47363  12.600   3.513   6.673  0.4379  0.6889 -0.9498
  344MOL0     C47364  12.730   3.559   6.628  0.5708  0.4929 -0.4929
  344MOL0     O47365  12.837   3.479   6.631 -0.0242  0.1944 -0.5009
  344MOL0     C47366  12.962   3.536   6.614 -0.1078  0.0631 -0.9192
  344MOL0     C47367  13.062   3.476   6.529  0.0646 -0.3870  0.0448
  344MOL0     C47368  13.196   3.526   6.533  0.4809 -0.2145 -0.5646
  344MOL0     C47369  13.229   3.631   6.616 -0.7832 -0.0167 -0.4443
  344MOL0     O47370  13.355   3.671   6.605  0.2766  0.1499  0.2223
  344MOL0     C47371  13.456   3.600   6.680  0.7525  0.0765 -0.4266
  344MOL0     C47372  13.575   3.693   6.712 -0.2657  0.6799 -0.0949
  344MOL0     C47373  13.675   3.624   6.804  0.0489 -0.6880  0.6056
  344MOL0     C47374  13.803   3.698   6.822  0.6925 -0.4868  0.5915
  344MOL0     C47375  13.902   3.621   6.914  0.0845  0.0852 -0.4549
  344MOL0     C47376  14.050   3.667   6.912 -0.6890 -0.8275 -0.3514
  344MOL0     C47377  14.066   3.799   6.989  0.1264  0.2155 -0.4842
  344MOL0     C47378  14.199   3.877   6.954 -0.1860  0.7267  0.2087
  344MOL0    Cl47379  14.340   3.775   6.967 -0.8364  0.4286 -0.4133
  344MOL0     C47380  13.138   3.693   6.702 -0.0529  0.2523 -0.4149
  344MOL0     C47381  13.001   3.649   6.697 -0.1047 -0.5479 -0.2351
  344MOL0     O47382  12.717   3.679   6.601  0.1400  0.5239  0.7381
  344MOL0     C47383  12.534   3.412   6.605  0.6625 -0.0105 -0.4174
  344MOL0     C47384  12.400   3.380   6.639 -1.4632 -0.2156 -0.4392
  344MOL0     N47385  11.782   3.226   6.449 -0.4806 -0.4821  0.5365
  344MOL0     N47386  11.671   3.156   6.422 -0.1693  0.1376 -0.1252
  344MOL0     C47387  10.349   2.804   6.621  0.2547  0.1736  0.0991
  344MOL0     C47388  10.212   2.826   6.612  0.6649 -0.5817 -0.3862
  344MOL0     C47389   9.810   3.033   6.779 -0.4838 -0.3351 -1.0022
  344MOL0     C47390   9.751   3.024   6.653 -0.3431 -0.2651  0.7248
  344MOL0     C47391   9.614   3.017   6.634 -0.2562 -0.6514 -0.4336
  344MOL0     C47392   9.527   3.043   6.738 -0.2552  0.5193 -0.5912
  344MOL0     O47393   9.389   3.042   6.723 -0.0376 -0.0924 -0.3390
  344MOL0     C47394   9.324   3.009   6.604 -1.1169 -0.5458  0.7222
  344MOL0     C47395   9.177   2.996   6.626  0.3144 -0.2298  0.0779
  344MOL0     C47396   9.105   2.970   6.492  1.1570 -0.4970 -0.9495
  344MOL0     C47397   8.956   2.973   6.514 -0.1507 -0.2346 -0.3847
  344MOL0     C47398   8.914   2.857   6.587 -1.2537  0.6963  0.5094
  344MOL0     C47399   8.892   2.756   6.648  0.4261 -0.6421  0.4853
  344MOL0     C47400   9.589   3.071   6.862  0.6223 -0.8812  0.3318
  344MOL0     C47401   9.726   3.064   6.888  0.1084  0.3862  0.8736
  344MOL0     C47402   9.776   3.050   7.031  0.0842  0.6806 -0.2184
  344MOL0     H47403  10.214   3.161   6.685 -0.2918 -0.1377 -3.2046
  344MOL0     H47404  10.450   3.125   6.665 -0.0316  0.8530  2.6070
  344MOL0     H47405  10.638   3.040   6.764 -0.1898 -0.7224 -0.1105
  344MOL0     H47406  10.674   3.055   6.592  3.4110  0.4952  0.0275
  344MOL0     H47407  10.795   2.862   6.789 -2.7969 -2.4709 -1.4995
  344MOL0     H47408  10.829   2.846   6.617 -0.3444 -0.9462  0.5351
  344MOL0     H47409  10.928   3.066   6.608  2.2785  0.8266  1.2429
  344MOL0     H47410  10.908   3.080   6.778  1.6391 -1.8733  0.8292
  344MOL0     H47411  11.045   2.878   6.809 -0.3689 -0.5698  0.3172
  344MOL0     H47412  11.079   2.867   6.640 -0.2735  1.4400 -0.6250
  344MOL0     H47413  11.245   2.990   6.795  1.1704 -0.2886 -1.9703
  344MOL0     H47414  11.143   3.132   6.796  0.2630 -0.1062 -0.1960
  344MOL0     H47415  11.245   2.979   6.538  2.1857  0.4034  0.9365
  344MOL0     H47416  11.164   3.146   6.550 -1.1294  1.5167  2.9785
  344MOL0     H47417  11.422   3.053   6.671 -1.5505  0.1801  1.6146
  344MOL0     H47418  11.359   3.214   6.700  0.5556  1.0195 -1.2946
  344MOL0     H47419  11.426   3.108   6.415  1.6581  3.5856 -3.0053
  344MOL0     H47420  11.392   3.269   6.465 -2.4678 -1.2406  0.7218
  344MOL0     H47421  11.568   3.367   6.646  0.1858 -3.4621  3.2680
  344MOL0     H47422  11.795   3.521   6.542 -0.6010  0.3435  2.7234
  344MOL0     H47423  11.930   3.418   6.501 -1.4094 -0.1306 -1.0526
  344MOL0     H47424  11.979   3.531   6.716 -2.1470  1.7632  0.3372
  344MOL0     H47425  11.841   3.467   6.782 -1.2844  0.8579 -1.1615
  344MOL0     H47426  11.998   3.302   6.856  1.4171 -2.1974 -1.4584
  344MOL0     H47427  11.950   3.223   6.704 -0.1826 -0.5174  1.6058
  344MOL0     H47428  12.184   3.220   6.701  0.5031 -0.2442 -3.6393
  344MOL0     H47429  12.141   3.353   6.602  2.7902 -3.0809 -0.9184
  344MOL0     H47430  12.371   3.595   6.902  1.5923  0.8822  0.8148
  344MOL0     H47431  12.581   3.659   6.985 -0.1613  0.9923 -0.4583
  344MOL0     H47432  12.606   3.763   6.834  0.4154  1.6845  1.7887
  344MOL0     H47433  12.720   3.637   6.887 -0.2897  0.6634  1.7506
  344MOL0     H47434  13.039   3.396   6.459  0.9039 -0.5259 -0.0885
  344MOL0     H47435  13.281   3.483   6.481  1.4715  0.5958  0.3442
  344MOL0     H47436  13.419   3.571   6.779  2.8404  1.8216  0.9665
  344MOL0     H47437  13.485   3.513   6.620  1.0072 -0.3971  0.3599
  344MOL0     H47438  13.625   3.708   6.615 -2.1641  2.1896 -0.9245
  344MOL0     H47439  13.548   3.795   6.742 -2.0768  0.6256 -1.3412
  344MOL0     H47440  13.691   3.531   6.749  2.0853  1.0052 -1.9326
  344MOL0     H47441  13.631   3.616   6.904  1.8885 -0.0228  1.5158
  344MOL0     H47442  13.779   3.793   6.870 -2.1318 -1.4669  1.3259
  344MOL0     H47443  13.843   3.719   6.723 -0.4722 -3.4497 -0.6359
  344MOL0     H47444  13.854   3.637   7.011  0.1286 -0.3101 -0.3661
  344MOL0     H47445  13.899   3.515   6.890  1.6174 -0.2199  0.6012
  344MOL0     H47446  14.088   3.693   6.812 -1.4405 -1.2849 -0.7649
  344MOL0     H47447  14.108   3.589   6.962  0.1673  0.9313  1.5696
  344MOL0     H47448  14.050   3.799   7.097  0.7729  0.2576 -0.3851
  344MOL0     H47449  13.990   3.862   6.941 -1.1181 -3.0917 -3.2084
  344MOL0     H47450  14.218   3.962   7.021 -0.0587 -0.1190  1.2641
  344MOL0     H47451  14.197   3.907   6.849 -0.9453 -2.2161 -0.7069
  344MOL0     H47452  13.169   3.775   6.766 -0.2181 -0.2626  0.3433
  344MOL0     H47453  12.922   3.693   6.757 -0.7432 -3.1389  0.9651
  344MOL0     H47454  12.581   3.363   6.521  0.6795 -0.0415 -0.3901
  344MOL0     H47455  12.349   3.305   6.579  2.1236 -3.6568  0.4115
  344MOL0     H47456  10.404   2.711   6.614 -1.0408 -0.5810 -0.2433
  344MOL0     H47457  10.146   2.741   6.599  1.0195 -2.7283  7.0390
  344MOL0     H47458   9.813   3.005   6.565 -0.0930 -1.7745  1.1936
  344MOL0     H47459   9.581   3.005   6.531 -0.0410  2.1428 -0.9136
  344MOL0     H47460   9.347   3.088   6.532  0.4305 -2.8235 -1.4433
  344MOL0     H47461   9.364   2.917   6.560  2.4389 -0.1165  2.6279
  344MOL0     H47462   9.140   3.092   6.663 -1.3593 -1.2377  1.1458
  344MOL0     H47463   9.137   2.916   6.688 -1.1432  0.8863  0.6285
  344MOL0     H47464   9.134   3.049   6.421  1.6415  0.0715 -0.1372
  344MOL0     H47465   9.126   2.872   6.448 -0.8742 -1.3078 -0.1896
  344MOL0     H47466   8.901   2.984   6.420 -1.5982 -1.4664  0.2819
  344MOL0     H47467   8.931   3.054   6.582  0.3525  0.2198 -0.7308
  344MOL0     H47468   8.867   2.658   6.682 -1.4354 -0.7152 -0.9077
  344MOL0     H47469   9.522   3.092   6.946  0.6538  0.7146 -0.0220
  344MOL0     H47470   9.830   2.960   7.059 -0.5925  0.6302  1.0192
  344MOL0     H47471   9.848   3.129   7.054  1.8145 -0.9117  0.0137
  344MOL0     H47472   9.687   3.051   7.096 -0.2617 -0.4376 -0.6524
  345MOL0     O47473   5.367   8.907   6.146 -0.5474 -0.2637  0.1467
  345MOL0     C47474   5.346   8.810   6.213  0.0722  0.6196 -0.0867
  345MOL0     O47475   5.428   8.754   6.305 -0.0430  0.0584 -0.6644
  345MOL0     C47476   5.565   8.753   6.284 -0.4135  0.3824 -0.7468
  345MOL0     C47477   5.637   8.764   6.166  0.0242 -0.1331 -0.1705
  345MOL0     C47478   5.781   8.773   6.178  1.0680 -0.3965 -0.2127
  345MOL0     C47479   5.847   8.767   6.299  0.2781  0.1407  0.6521
  345MOL0     O47480   5.981   8.762   6.294 -0.3155 -0.4729  0.2522
  345MOL0     C47481   6.053   8.771   6.415 -0.4083  0.5270 -1.0224
  345MOL0     C47482   6.208   8.775   6.378  0.1081 -0.5822  0.2563
  345MOL0     C47483   6.290   8.739   6.502 -0.3943  1.1842  0.9439
  345MOL0     C47484   6.435   8.723   6.458 -0.3683 -0.4161  0.7395
  345MOL0     C47485   6.529   8.688   6.571 -0.2641 -1.3195 -0.2642
  345MOL0     C47486   6.523   8.540   6.608 -0.2338  0.6204  1.0041
  345MOL0     C47487   6.608   8.512   6.728  0.3685  0.2134  0.1603
  345MOL0     C47488   6.760   8.530   6.704  0.1854 -0.1824  0.5822
  345MOL0     N47489   6.840   8.468   6.813  0.9617  0.1300  0.1718
  345MOL0     C47490   6.879   8.336   6.814 -0.3927  1.1048 -0.2040
  345MOL0     C47491   6.949   8.326   6.931 -0.7110 -0.6192  0.2463
  345MOL0     C47492   7.012   8.196   6.978  0.2575  0.5879 -0.1128
  345MOL0     C47493   7.163   8.186   6.943 -0.4020 -0.4343 -0.1513
  345MOL0     C47494   7.243   8.267   7.057  0.4014  0.9005  0.2097
  345MOL0     C47495   7.381   8.315   7.010  0.0693 -0.5462 -0.3538
  345MOL0     O47496   7.477   8.271   7.099 -0.1346  0.1056  0.0624
  345MOL0     C47497   7.611   8.291   7.060 -0.4136  1.3381  0.5635
  345MOL0     C47498   7.667   8.411   7.008  0.2058  0.4307 -0.1531
  345MOL0     C47499   7.799   8.417   6.962 -0.8974  0.5902 -0.0709
  345MOL0     C47500   7.858   8.551   6.921 -0.1962  0.1129 -0.1750
  345MOL0     C47501   7.886   8.297   6.965  1.4412  0.6883  0.2522
  345MOL0     C47502   8.024   8.283   6.918 -0.9597 -0.3329 -0.0365
  345MOL0     O47503   8.104   8.181   6.963 -0.2233  0.1021 -0.2165
  345MOL0     C47504   8.223   8.151   6.903 -0.6999 -0.3642 -0.7311
  345MOL0     C47505   8.313   8.241   6.837  0.6079 -1.2256 -0.4643
  345MOL0     C47506   8.439   8.188   6.790  0.4888 -0.2561 -0.4943
  345MOL0     C47507   8.475   8.065   6.802 -0.2743  0.8806 -0.0076
  345MOL0     O47508   8.597   8.028   6.744  0.4031  0.0841 -0.1368
  345MOL0     C47509   8.612   7.891   6.703  0.6770 -0.4452 -0.8110
  345MOL0     C47510   8.756   7.872   6.656  0.0273  0.4929 -0.4790
  345MOL0     C47511   8.871   7.897   6.768 -0.2446  0.6157 -0.2952
  345MOL0     C47512   9.000   7.840   6.711  0.4202  0.3781  0.1606
  345MOL0     C47513   9.128   7.851   6.794  0.2352 -0.7783 -0.3677
  345MOL0     C47514   9.257   7.822   6.718  0.7961  0.2642  0.1015
  345MOL0     C47515   9.384   7.822   6.804  0.0421  0.0693 -0.0954
  345MOL0     C47516   9.471   7.944   6.775  1.5025 -0.4256 -0.5154
  345MOL0    Cl47517   9.531   7.967   6.603 -0.4617  0.2689 -0.5123
  345MOL0     C47518   8.389   7.978   6.871 -0.2856  0.5652 -0.0150
  345MOL0     C47519   8.270   8.022   6.930 -0.3290 -0.3733  0.0748
  345MOL0     O47520   8.057   8.363   6.830 -0.3457  0.4600 -0.1762
  345MOL0     C47521   7.828   8.181   7.020  0.0366 -0.0563 -0.3048
  345MOL0     C47522   7.696   8.179   7.061 -0.6443  0.2207  0.1606
  345MOL0     N47523   6.955   8.450   6.991 -0.5556  0.7368 -0.0092
  345MOL0     N47524   6.885   8.537   6.922  0.5748 -0.1513  0.2974
  345MOL0     C47525   5.775   8.767   6.415  0.4345 -0.3569 -0.2842
  345MOL0     C47526   5.633   8.763   6.408 -0.7537  1.2313 -0.2467
  345MOL0     C47527   5.207   8.770   6.199 -0.1954  0.1269 -0.4313
  345MOL0     C47528   5.127   8.752   6.320 -0.3394 -0.0826  0.0600
  345MOL0     C47529   4.996   8.708   6.310 -0.5281  0.7732 -0.0848
  345MOL0     C47530   4.948   8.653   6.190  0.6256  0.0663 -0.5027
  345MOL0     O47531   4.825   8.594   6.178 -0.4951  0.5785 -0.1203
  345MOL0     C47532   4.797   8.484   6.268  0.2124  0.4159  0.1598
  345MOL0     C47533   4.668   8.514   6.342 -0.7503 -0.8685  0.9021
  345MOL0     C47534   4.603   8.384   6.396 -0.0649  0.0674 -0.3075
  345MOL0     C47535   4.551   8.415   6.535 -0.1933 -0.2753  0.2810
  345MOL0     C47536   4.429   8.501   6.521 -0.0060  0.1521 -0.0941
  345MOL0     C47537   4.337   8.578   6.510 -0.5594  0.2354 -0.6895
  345MOL0     C47538   5.025   8.657   6.081 -0.0250 -1.0517  0.1876
  345MOL0     C47539   5.148   8.728   6.077  0.3278 -0.0982  0.5212
  345MOL0     C47540   5.210   8.702   5.943  0.0272  0.5923 -0.5134
  345MOL0     H47541   5.579   8.763   6.074  2.9347 -0.4557 -2.1133
  345MOL0     H47542   5.846   8.788   6.092  2.2015  0.6361  0.8011
  345MOL0     H47543   6.030   8.684   6.476  1.2596  1.0242  0.4098
  345MOL0     H47544   6.029   8.861   6.472 -3.2942 -1.9238  1.9940
  345MOL0     H47545   6.214   8.709   6.291 -0.5547 -0.1221 -0.1487
  345MOL0     H47546   6.235   8.872   6.337 -1.5436 -0.4280 -0.5454
  345MOL0     H47547   6.271   8.815   6.578  1.1214  0.7278  1.8186
  345MOL0     H47548   6.256   8.643   6.541  0.2538 -0.8078 -2.9258
  345MOL0     H47549   6.445   8.645   6.382 -3.7458  0.9373 -1.3230
  345MOL0     H47550   6.458   8.823   6.421 -0.8892 -0.7314 -0.4629
  345MOL0     H47551   6.498   8.747   6.657  0.4306 -1.9348  0.4256
  345MOL0     H47552   6.634   8.703   6.541 -0.6318  2.2807 -0.1677
  345MOL0     H47553   6.422   8.507   6.631 -0.6537  0.2569 -1.1028
  345MOL0     H47554   6.565   8.487   6.521 -2.7336  0.0005  0.0774
  345MOL0     H47555   6.590   8.405   6.744 -0.2123  0.4665  1.3164
  345MOL0     H47556   6.576   8.572   6.814 -0.1552  0.3896 -0.1535
  345MOL0     H47557   6.793   8.497   6.605  0.8312  0.5337  0.5479
  345MOL0     H47558   6.778   8.638   6.700 -0.0852 -0.1340  0.6377
  345MOL0     H47559   6.854   8.256   6.745  0.3974  0.3904  0.3235
  345MOL0     H47560   6.966   8.106   6.935  1.2384  0.6339 -1.3059
  345MOL0     H47561   6.982   8.188   7.083 -4.7851  1.4153 -1.2312
  345MOL0     H47562   7.194   8.082   6.943  0.3659 -0.2739 -2.4077
  345MOL0     H47563   7.183   8.228   6.843 -0.8892  0.5725  0.1558
  345MOL0     H47564   7.186   8.350   7.100  1.4440  2.3074 -1.0263
  345MOL0     H47565   7.255   8.195   7.138 -3.2536 -0.3482 -0.1668
  345MOL0     H47566   7.407   8.261   6.919  3.4906 -0.9872  0.7697
  345MOL0     H47567   7.376   8.424   7.013 -2.4090 -0.6048 -0.1294
  345MOL0     H47568   7.605   8.500   7.007 -1.0952 -0.4546 -0.2860
  345MOL0     H47569   7.777   8.625   6.919 -1.6773 -1.3964  0.8187
  345MOL0     H47570   7.906   8.546   6.823 -1.0597  2.2058 -0.7520
  345MOL0     H47571   7.934   8.580   6.995 -1.5682  0.9168  0.9712
  345MOL0     H47572   8.276   8.343   6.833 -3.9270 -2.6869 -1.5805
  345MOL0     H47573   8.513   8.252   6.743 -0.1768  0.4577 -0.5883
  345MOL0     H47574   8.592   7.816   6.780 -1.0038 -1.5231 -2.2314
  345MOL0     H47575   8.538   7.875   6.624  0.0764 -1.9640  0.0213
  345MOL0     H47576   8.766   7.775   6.607 -3.7440 -0.4976  0.3781
  345MOL0     H47577   8.763   7.954   6.584 -1.7401 -0.4786 -1.8439
  345MOL0     H47578   8.852   7.841   6.860 -0.9056  1.4395  0.0812
  345MOL0     H47579   8.894   8.002   6.790  1.8750  0.2909 -0.7474
  345MOL0     H47580   9.030   7.885   6.616 -0.4145  0.1052 -0.2411
  345MOL0     H47581   8.969   7.736   6.693 -3.3211  1.3836  0.1448
  345MOL0     H47582   9.126   7.952   6.836  1.0164 -0.6134 -0.7050
  345MOL0     H47583   9.105   7.779   6.874  0.4726  1.9400  2.3237
  345MOL0     H47584   9.265   7.894   6.636  2.8808  0.7256  0.6356
  345MOL0     H47585   9.242   7.723   6.675  1.1178 -0.4301  1.5051
  345MOL0     H47586   9.439   7.729   6.808  0.1780  0.2001  1.3804
  345MOL0     H47587   9.360   7.827   6.910  0.1231 -0.6866 -0.0399
  345MOL0     H47588   9.560   7.936   6.837  1.6282 -1.5137 -0.8307
  345MOL0     H47589   9.402   8.024   6.804 -0.4377 -2.8124  2.0369
  345MOL0     H47590   8.420   7.874   6.871  0.8829  0.8928 -0.3837
  345MOL0     H47591   8.218   7.950   6.992  1.0992  0.0635  1.8735
  345MOL0     H47592   7.888   8.091   7.024 -1.3964 -1.0074  1.1085
  345MOL0     H47593   7.654   8.088   7.103 -0.4355  0.6119  1.2317
  345MOL0     H47594   5.821   8.783   6.511  2.0707  3.9801 -1.5384
  345MOL0     H47595   5.573   8.773   6.497  1.7524 -0.1165  1.7457
  345MOL0     H47596   5.165   8.787   6.415 -3.4426 -0.4327  1.5571
  345MOL0     H47597   4.931   8.707   6.397 -2.1823  0.8466 -1.2799
  345MOL0     H47598   4.794   8.385   6.220  0.9637  1.5888 -2.4813
  345MOL0     H47599   4.881   8.472   6.337 -0.5516  1.9726  1.4064
  345MOL0     H47600   4.595   8.566   6.279  0.1496 -0.9842 -0.2645
  345MOL0     H47601   4.701   8.587   6.416 -0.9256 -0.9489  1.0608
  345MOL0     H47602   4.535   8.336   6.324 -0.0563 -1.6636  0.7654
  345MOL0     H47603   4.686   8.314   6.411 -0.3742 -0.6351 -1.6754
  345MOL0     H47604   4.621   8.478   6.590 -0.4258 -0.1621  0.4468
  345MOL0     H47605   4.532   8.319   6.584  0.9622 -0.1134  1.0892
  345MOL0     H47606   4.264   8.654   6.494  0.3214  0.9763 -1.2687
  345MOL0     H47607   4.978   8.616   5.992 -1.5317 -0.3916  0.6572
  345MOL0     H47608   5.306   8.656   5.968 -2.5374 -4.6490  1.2223
  345MOL0     H47609   5.162   8.629   5.877 -0.0321 -0.5019  0.7067
  345MOL0     H47610   5.206   8.800   5.894 -2.3791  0.5258 -0.5772
  346MOL0     O47611   1.826   5.501  10.009 -0.7941  0.4208 -0.0174
  346MOL0     C47612   1.744   5.570  10.077 -0.2488  0.0063 -0.6355
  346MOL0     O47613   1.778   5.685  10.145  0.0664  0.0058  0.1694
  346MOL0     C47614   1.886   5.770  10.108  0.6126  0.1521 -0.6724
  346MOL0     C47615   1.944   5.773   9.986 -0.0036 -0.2264  0.8232
  346MOL0     C47616   2.041   5.860   9.953 -0.5237 -0.5724 -0.1923
  346MOL0     C47617   2.079   5.949  10.042 -0.7805 -0.2717 -0.4427
  346MOL0     O47618   2.186   6.032  10.000  0.3407 -0.2188  0.3416
  346MOL0     C47619   2.216   6.147  10.081  0.2193 -0.9764  0.5014
  346MOL0     C47620   2.307   6.246   9.995  0.4062  0.1643 -0.2875
  346MOL0     C47621   2.453   6.197   9.973 -0.3852 -0.2406 -0.1827
  346MOL0     C47622   2.475   6.087   9.872 -0.1125  1.1328 -0.2117
  346MOL0     C47623   2.628   6.077   9.832 -0.3632 -0.6426 -0.5831
  346MOL0     C47624   2.639   5.983   9.708  0.5146  0.4055 -0.3232
  346MOL0     C47625   2.789   5.956   9.682 -0.5406 -0.5433  1.1227
  346MOL0     C47626   2.815   5.887   9.552  0.3320 -0.7521 -0.1885
  346MOL0     N47627   2.959   5.866   9.535  0.1217 -0.6912  0.4992
  346MOL0     C47628   3.023   5.761   9.591 -0.7368  0.3960  0.0572
  346MOL0     C47629   3.148   5.776   9.530 -0.0759  1.0038 -0.1668
  346MOL0     C47630   3.262   5.681   9.566 -1.1474 -0.4525  0.3077
  346MOL0     C47631   3.343   5.753   9.674  0.0985  0.2908  0.5813
  346MOL0     C47632   3.481   5.688   9.693 -0.2082  0.1994 -0.3208
  346MOL0     C47633   3.552   5.758   9.807  0.3260  0.0590  0.1080
  346MOL0     O47634   3.587   5.890   9.788 -0.5903  0.2019 -0.0481
  346MOL0     C47635   3.720   5.912   9.760 -0.1393  0.4579 -0.4505
  346MOL0     C47636   3.796   5.839   9.675  0.6519  0.2409 -0.6520
  346MOL0     C47637   3.931   5.865   9.655  0.1789 -0.4661  0.3359
  346MOL0     C47638   4.004   5.768   9.563  0.1738 -0.3674 -0.1218
  346MOL0     C47639   3.988   5.971   9.733 -0.4396  0.3589 -0.7639
  346MOL0     C47640   4.138   6.005   9.740  0.5928 -0.1959 -0.2352
  346MOL0     O47641   4.179   6.129   9.795  0.3579 -0.1923  0.4271
  346MOL0     C47642   4.315   6.153   9.804  0.1424  0.2978  0.4172
  346MOL0     C47643   4.396   6.066   9.878  0.4254 -0.1361 -1.1948
  346MOL0     C47644   4.528   6.100   9.905 -0.4058  0.6314  0.1918
  346MOL0     C47645   4.595   6.199   9.837 -0.0686  0.0185  0.0321
  346MOL0     O47646   4.727   6.218   9.880 -0.4440  0.4203  0.3156
  346MOL0     C47647   4.789   6.340   9.836  0.4923  0.2762 -1.1192
  346MOL0     C47648   4.925   6.358   9.910  0.3160  0.2175 -0.8245
  346MOL0     C47649   5.022   6.242   9.888 -0.8236  0.0269  0.4790
  346MOL0     C47650   5.138   6.245   9.978  0.1562 -0.1020 -1.6101
  346MOL0     C47651   5.229   6.121   9.960  0.4805 -0.2012  0.5423
  346MOL0     C47652   5.347   6.094  10.060 -0.4528 -0.0958  0.5553
  346MOL0     C47653   5.437   5.985  10.005  0.8604 -0.2690  0.6167
  346MOL0     C47654   5.541   6.048   9.913  0.0054 -0.0292 -0.1143
  346MOL0    Cl47655   5.653   5.908   9.866 -0.0612  0.2318 -0.2949
  346MOL0     C47656   4.515   6.282   9.747 -0.5783  0.1078  0.2368
  346MOL0     C47657   4.378   6.265   9.739  0.3952  0.0240  0.7359
  346MOL0     O47658   4.210   5.912   9.707  0.1878  0.7865 -0.4404
  346MOL0     C47659   3.911   6.045   9.819 -0.5581 -0.6051  0.3913
  346MOL0     C47660   3.782   6.012   9.827  0.1302 -0.3700  0.2894
  346MOL0     N47661   3.149   5.885   9.448 -0.2840 -0.6719  0.1482
  346MOL0     N47662   3.037   5.935   9.446  0.1040  0.0089 -0.6715
  346MOL0     C47663   2.023   5.954  10.172  0.2139  0.0732  0.7052
  346MOL0     C47664   1.924   5.867  10.202 -0.1630 -0.3578 -0.8840
  346MOL0     C47665   1.615   5.504  10.093  0.0145 -0.6987 -0.1720
  346MOL0     C47666   1.598   5.378  10.040 -0.3935 -0.1216 -0.2695
  346MOL0     C47667   1.497   5.293  10.068 -0.7328 -0.3466 -0.4800
  346MOL0     C47668   1.390   5.332  10.141 -0.0841 -0.5382  0.3608
  346MOL0     O47669   1.287   5.245  10.149  0.1918  0.1780 -0.0492
  346MOL0     C47670   1.176   5.267  10.236 -0.2556  0.1268 -0.7901
  346MOL0     C47671   1.089   5.146  10.243  0.0590 -0.5492  1.1683
  346MOL0     C47672   1.034   5.115  10.103 -0.8504  0.1033  0.1857
  346MOL0     C47673   0.967   4.974  10.100  0.8151 -0.8071  0.0605
  346MOL0     C47674   0.825   4.985  10.145  0.2870  0.6880  0.6912
  346MOL0     C47675   0.710   4.998  10.178 -0.6925  0.8186 -0.4309
  346MOL0     C47676   1.397   5.460  10.199  0.8776  0.4129  0.5161
  346MOL0     C47677   1.507   5.544  10.173 -0.0495 -0.1437  0.2947
  346MOL0     C47678   1.495   5.691  10.210  0.4243  0.5406  0.0309
  346MOL0     H47679   1.910   5.705   9.909 -0.2793  0.2453  0.5198
  346MOL0     H47680   2.093   5.867   9.858  2.8228  1.2844  1.5824
  346MOL0     H47681   2.273   6.111  10.167  0.2225  1.4287  1.5955
  346MOL0     H47682   2.124   6.201  10.103  0.5665  0.5632 -1.4519
  346MOL0     H47683   2.256   6.257   9.898 -1.1381  2.9447  0.7119
  346MOL0     H47684   2.307   6.344  10.043 -0.3129  0.9144 -1.7277
  346MOL0     H47685   2.503   6.288   9.939 -4.3252  3.1107  2.0411
  346MOL0     H47686   2.485   6.171  10.075 -1.6934 -0.8970  0.0910
  346MOL0     H47687   2.417   5.998   9.898 -0.6846  1.0457 -1.6633
  346MOL0     H47688   2.425   6.111   9.778  0.9570 -2.2122 -1.7871
  346MOL0     H47689   2.694   6.034   9.908  0.1082 -0.8849 -1.1260
  346MOL0     H47690   2.655   6.177   9.797 -5.8130  1.0761 -0.8973
  346MOL0     H47691   2.583   5.891   9.726 -2.1832  2.5906  3.9416
  346MOL0     H47692   2.595   6.042   9.627 -3.0797  0.2559  1.3340
  346MOL0     H47693   2.847   5.908   9.762  2.5219 -0.5599 -0.9058
  346MOL0     H47694   2.834   6.055   9.671  0.0365 -0.5747  2.8507
  346MOL0     H47695   2.772   5.786   9.548  0.6904 -0.8736 -2.1553
  346MOL0     H47696   2.776   5.934   9.461  3.3586  0.0982 -1.1654
  346MOL0     H47697   2.973   5.698   9.663 -2.1027  0.5640 -0.7131
  346MOL0     H47698   3.320   5.670   9.475 -2.3386 -0.2570 -0.5048
  346MOL0     H47699   3.225   5.582   9.592 -1.4873  0.0419  1.8469
  346MOL0     H47700   3.361   5.852   9.631 -0.9401  0.7977  1.2679
  346MOL0     H47701   3.283   5.775   9.763 -0.4515  4.3975 -0.6045
  346MOL0     H47702   3.478   5.581   9.716  3.0656  0.1430  0.3183
  346MOL0     H47703   3.535   5.707   9.600  0.2741  0.3052 -0.0194
  346MOL0     H47704   3.484   5.744   9.891  0.6036 -1.7756  0.0648
  346MOL0     H47705   3.639   5.696   9.829 -0.8049 -0.4725  3.5473
  346MOL0     H47706   3.745   5.762   9.618 -1.5029  1.7699 -0.8971
  346MOL0     H47707   4.074   5.832   9.510  0.2879  0.5550  1.1042
  346MOL0     H47708   3.935   5.727   9.488 -0.2466  3.8096 -2.3144
  346MOL0     H47709   4.064   5.699   9.623  1.1939  1.0796  0.5790
  346MOL0     H47710   4.354   5.985   9.936  0.0426  0.0090 -1.2616
  346MOL0     H47711   4.585   6.037   9.972 -0.6442 -0.6592 -0.7741
  346MOL0     H47712   4.801   6.342   9.727 -0.2414 -2.8911 -1.3709
  346MOL0     H47713   4.719   6.420   9.860 -0.0983 -1.1486  2.4023
  346MOL0     H47714   4.966   6.456   9.883 -0.2550 -0.1555 -3.3715
  346MOL0     H47715   4.901   6.363  10.016  1.9795  0.4676 -0.4361
  346MOL0     H47716   5.069   6.244   9.790 -0.9494 -1.2527  0.3671
  346MOL0     H47717   4.964   6.150   9.900 -3.2443  1.4937  0.7626
  346MOL0     H47718   5.106   6.244  10.083 -0.4298 -1.4879 -1.7814
  346MOL0     H47719   5.195   6.338   9.969 -1.8822  1.5280  0.9547
  346MOL0     H47720   5.164   6.033   9.967 -0.0014  0.1121  0.1028
  346MOL0     H47721   5.259   6.125   9.855 -1.5773 -0.1375 -0.0738
  346MOL0     H47722   5.308   6.077  10.160 -0.8413 -0.8464  0.2873
  346MOL0     H47723   5.406   6.185  10.075 -2.0539  1.1281 -0.2650
  346MOL0     H47724   5.373   5.920   9.944 -0.4740  1.9316 -0.4555
  346MOL0     H47725   5.486   5.925  10.082 -1.0064 -0.7095  1.5048
  346MOL0     H47726   5.596   6.130   9.960  0.6596  0.5941 -1.8865
  346MOL0     H47727   5.503   6.082   9.816 -2.5950 -3.2959 -0.4447
  346MOL0     H47728   4.563   6.357   9.686 -0.1166  0.6774  1.2871
  346MOL0     H47729   4.311   6.323   9.677  1.8641  0.9476 -0.0352
  346MOL0     H47730   3.942   6.128   9.881  0.7520 -2.2953  2.1020
  346MOL0     H47731   3.724   6.072   9.897  0.5556 -0.1703  0.4715
  346MOL0     H47732   2.059   6.029  10.242  2.0638 -0.0110 -0.1092
  346MOL0     H47733   1.869   5.864  10.295  0.3138 -0.4643 -0.6010
  346MOL0     H47734   1.675   5.328   9.983  0.8921 -1.3295  2.3460
  346MOL0     H47735   1.487   5.188  10.040  1.4222 -0.4680 -0.9288
  346MOL0     H47736   1.212   5.284  10.338  1.7489 -1.2442 -1.2026
  346MOL0     H47737   1.112   5.349  10.203  1.1896  1.4675 -0.3848
  346MOL0     H47738   1.005   5.173  10.309 -0.0719  1.4086  0.2853
  346MOL0     H47739   1.148   5.066  10.287 -0.1097 -1.3749 -0.0423
  346MOL0     H47740   0.966   5.190  10.061 -2.8968 -2.2413 -0.9857
  346MOL0     H47741   1.120   5.114  10.036 -0.0234  0.2789  1.2173
  346MOL0     H47742   1.015   4.889  10.149 -0.5828 -1.2074  0.7696
  346MOL0     H47743   0.965   4.949   9.993  1.1872  1.9471 -0.6750
  346MOL0     H47744   0.613   4.997  10.222  0.5887 -1.1281  2.7272
  346MOL0     H47745   1.313   5.486  10.263 -0.6385 -0.8591 -0.8676
  346MOL0     H47746   1.544   5.706  10.307 -0.2930  2.2607  0.1677
  346MOL0     H47747   1.539   5.742  10.124  0.6702 -1.1427 -0.8819
  346MOL0     H47748   1.390   5.724  10.204  0.2582 -0.1192 -0.9512
  347MOL0     O47749   5.789   3.565   0.587 -0.2974  0.0490  0.2180
  347MOL0     C47750   5.698   3.511   0.651  0.4604  0.0130  0.0431
  347MOL0     O47751   5.715   3.415   0.745  0.0969  0.1791  0.2258
  347MOL0     C47752   5.842   3.376   0.775  0.7549  1.2747 -0.2112
  347MOL0     C47753   5.914   3.454   0.869 -0.3391 -0.0769  0.0362
  347MOL0     C47754   6.037   3.414   0.921  0.6148  0.5312 -0.0915
  347MOL0     C47755   6.100   3.303   0.865  0.1850  0.1286  1.5900
  347MOL0     O47756   6.226   3.256   0.893 -0.2982 -0.3415  0.6759
  347MOL0     C47757   6.331   3.351   0.894 -0.6855  0.9038  0.8062
  347MOL0     C47758   6.464   3.288   0.942  0.1652  0.5245 -1.3509
  347MOL0     C47759   6.559   3.220   0.833 -0.5500 -0.3541 -0.0656
  347MOL0     C47760   6.677   3.313   0.793 -0.9244 -0.2627  0.3340
  347MOL0     C47761   6.787   3.248   0.705  0.4333  0.5394  0.4367
  347MOL0     C47762   6.915   3.331   0.692  0.9832  0.3184 -0.0275
  347MOL0     C47763   6.997   3.288   0.576  0.5817  0.1062  0.3142
  347MOL0     C47764   7.123   3.367   0.560 -0.5397 -0.1439 -0.4163
  347MOL0     N47765   7.229   3.312   0.645  0.2730 -0.6297 -0.4828
  347MOL0     C47766   7.300   3.196   0.626 -0.2506 -0.2065 -0.3846
  347MOL0     C47767   7.403   3.197   0.715  0.1928  0.4904  0.2661
  347MOL0     C47768   7.506   3.081   0.710 -0.0124  0.1156  0.2775
  347MOL0     C47769   7.591   3.110   0.586 -0.2693  0.3616  0.0250
  347MOL0     C47770   7.718   3.022   0.586  0.2249 -0.3097 -0.0590
  347MOL0     C47771   7.841   3.103   0.540 -0.5943 -0.5231 -0.7917
  347MOL0     O47772   7.959   3.029   0.555 -0.5999 -0.3103 -0.1868
  347MOL0     C47773   8.060   3.062   0.466 -0.4975 -0.1796 -0.1079
  347MOL0     C47774   8.047   3.011   0.339 -0.1239  0.2171 -0.2915
  347MOL0     C47775   8.143   3.043   0.243  0.4374 -0.4538  0.7038
  347MOL0     C47776   8.125   2.993   0.105  0.0835 -0.4932 -0.3442
  347MOL0     C47777   8.255   3.133   0.268  0.0033  0.9391 -0.6850
  347MOL0     C47778   8.356   3.182   0.179  0.0682 -0.7540 -0.2189
  347MOL0     O47779   8.459   3.241   0.241 -0.2333 -0.2964 -0.2961
  347MOL0     C47780   8.572   3.291   0.170 -0.1780  0.5452 -0.3040
  347MOL0     C47781   8.664   3.212   0.100  0.2039  0.8399 -0.3763
  347MOL0     C47782   8.759   3.264   0.012  0.1348 -0.1861 -0.1589
  347MOL0     C47783   8.771   3.401   0.000  0.2213 -0.1870  0.3176
  347MOL0     O47784   8.851   3.462  -0.091 -0.4555  0.8058 -0.0889
  347MOL0     C47785   8.995   3.434  -0.077  0.2349  0.2827  0.4085
  347MOL0     C47786   9.069   3.510   0.038 -0.3049 -0.8084 -0.0093
  347MOL0     C47787   9.217   3.491   0.011 -0.0722  0.2938  0.2621
  347MOL0     C47788   9.304   3.541   0.134  0.3809  0.2490  0.0413
  347MOL0     C47789   9.447   3.555   0.093 -0.7098 -0.1339 -0.5661
  347MOL0     C47790   9.527   3.626   0.212  0.1509  0.1204  0.5279
  347MOL0     C47791   9.671   3.660   0.182  0.3032 -0.3653  0.0872
  347MOL0     C47792   9.763   3.693   0.299 -0.4532 -0.9462 -0.6165
  347MOL0    Cl47793   9.691   3.835   0.367 -0.0931  0.0078 -0.0235
  347MOL0     C47794   8.683   3.481   0.064  0.5350  0.2175  0.1361
  347MOL0     C47795   8.576   3.431   0.148 -1.2818 -0.0574 -0.3341
  347MOL0     O47796   8.332   3.192   0.055  0.0984  0.0121  0.2577
  347MOL0     C47797   8.262   3.176   0.405 -0.0446 -0.0551 -0.2627
  347MOL0     C47798   8.164   3.146   0.501 -0.2013  0.0009  0.0909
  347MOL0     N47799   7.394   3.321   0.785 -0.3908 -0.4914  1.1667
  347MOL0     N47800   7.288   3.383   0.743  0.2193  0.6183  0.5255
  347MOL0     C47801   6.035   3.231   0.767 -0.3983 -0.1950  0.1176
  347MOL0     C47802   5.903   3.266   0.719 -0.3303  0.4028  0.6173
  347MOL0     C47803   5.562   3.566   0.626  0.0005 -0.3342  0.2083
  347MOL0     C47804   5.549   3.662   0.516 -0.3944  0.4955 -0.6198
  347MOL0     C47805   5.423   3.705   0.474  0.3500  0.6087  0.6303
  347MOL0     C47806   5.303   3.657   0.532 -0.5954  0.1567  0.0465
  347MOL0     O47807   5.175   3.695   0.495 -0.4839 -0.1124  0.2880
  347MOL0     C47808   5.148   3.720   0.351  0.7583 -0.3756  0.7441
  347MOL0     C47809   5.000   3.696   0.331 -0.1958  0.3466 -0.3201
  347MOL0     C47810   4.927   3.820   0.370 -0.6445  0.2928  0.5567
  347MOL0     C47811   4.771   3.816   0.365 -0.7821  0.1005  0.9685
  347MOL0     C47812   4.716   3.821   0.224 -0.4762  0.8696  0.3837
  347MOL0     C47813   4.672   3.816   0.108 -0.6166  0.3342 -0.2078
  347MOL0     C47814   5.322   3.576   0.645 -0.2713 -0.0214  0.9135
  347MOL0     C47815   5.443   3.525   0.686 -0.9224  0.5831  0.6810
  347MOL0     C47816   5.439   3.435   0.806  0.2643 -0.8420 -0.3441
  347MOL0     H47817   5.893   3.554   0.906  1.0672  0.2030  0.1319
  347MOL0     H47818   6.091   3.482   0.987 -0.0402  0.2595  0.7435
  347MOL0     H47819   6.303   3.439   0.953 -2.9689  0.0280  1.1509
  347MOL0     H47820   6.350   3.395   0.796  2.4697  0.1269  0.9582
  347MOL0     H47821   6.525   3.367   0.986 -2.0477  0.7114  1.6422
  347MOL0     H47822   6.433   3.208   1.009  2.0843  1.2698  0.5340
  347MOL0     H47823   6.602   3.125   0.866  0.1842 -0.2473 -0.6675
  347MOL0     H47824   6.511   3.194   0.738  2.3172 -1.6887 -1.2808
  347MOL0     H47825   6.640   3.397   0.734  0.0360  0.1059  0.2453
  347MOL0     H47826   6.721   3.354   0.884 -0.9926 -1.5597  0.9801
  347MOL0     H47827   6.733   3.237   0.610  0.2236  2.5956  0.2743
  347MOL0     H47828   6.799   3.143   0.733 -0.3847  0.1853 -0.4763
  347MOL0     H47829   6.882   3.434   0.677  1.6458  0.4403 -0.7042
  347MOL0     H47830   6.971   3.325   0.786  0.1792  0.1501  0.4432
  347MOL0     H47831   6.930   3.295   0.490  0.2069  2.1041  0.7093
  347MOL0     H47832   7.026   3.187   0.605  1.1398  0.6758  1.8560
  347MOL0     H47833   7.146   3.354   0.454  1.5628 -0.6042  0.0512
  347MOL0     H47834   7.132   3.472   0.589 -1.3132  0.1599 -1.2447
  347MOL0     H47835   7.289   3.121   0.548 -2.4307 -1.6122  1.1474
  347MOL0     H47836   7.471   2.978   0.706  2.8693 -0.9381 -0.8114
  347MOL0     H47837   7.569   3.090   0.799  0.1274 -1.6081  0.3820
  347MOL0     H47838   7.538   3.089   0.492 -1.6300  1.3252  0.5369
  347MOL0     H47839   7.618   3.216   0.589 -1.1909  0.6340 -0.6959
  347MOL0     H47840   7.742   2.997   0.690  0.0243 -1.6192 -0.3117
  347MOL0     H47841   7.694   2.931   0.531 -1.0941 -0.7681  1.2220
  347MOL0     H47842   7.834   3.137   0.436  1.8134 -3.3982 -2.0417
  347MOL0     H47843   7.849   3.195   0.599 -1.5346  0.1557 -1.6844
  347MOL0     H47844   7.954   2.959   0.316 -0.1612  0.5076 -0.8167
  347MOL0     H47845   8.051   2.911   0.106 -2.6161  1.7865 -0.5328
  347MOL0     H47846   8.216   2.952   0.062  0.6218  0.8514 -0.5018
  347MOL0     H47847   8.095   3.070   0.034  0.1681 -0.2752 -0.1454
  347MOL0     H47848   8.650   3.104   0.090  2.8598  0.5595 -2.0263
  347MOL0     H47849   8.820   3.194  -0.043 -0.4539  0.1238 -1.2373
  347MOL0     H47850   9.019   3.329  -0.094  0.1587  0.3708 -0.2718
  347MOL0     H47851   9.038   3.478  -0.168 -1.1978 -0.8809 -0.8753
  347MOL0     H47852   9.034   3.614   0.031 -0.3890 -0.8158  0.3262
  347MOL0     H47853   9.046   3.475   0.138  1.2941  1.1019  1.0958
  347MOL0     H47854   9.239   3.559  -0.072  0.7247 -1.8349 -1.3535
  347MOL0     H47855   9.244   3.391  -0.024 -1.0589 -0.7309  2.2216
  347MOL0     H47856   9.303   3.473   0.220  0.6827  1.4616  1.0360
  347MOL0     H47857   9.264   3.640   0.157  0.1027  0.5652 -1.6931
  347MOL0     H47858   9.495   3.457   0.084 -0.2329  0.1112 -0.6732
  347MOL0     H47859   9.455   3.606  -0.003 -2.2535 -0.7703 -1.0657
  347MOL0     H47860   9.537   3.555   0.295 -0.4883 -1.3316 -0.5914
  347MOL0     H47861   9.470   3.715   0.238 -0.1313  1.0129 -2.7426
  347MOL0     H47862   9.671   3.741   0.109 -1.2671 -2.0664 -1.9012
  347MOL0     H47863   9.720   3.569   0.146 -2.2753 -1.1519 -1.6618
  347MOL0     H47864   9.861   3.721   0.258 -0.8359  1.7616  0.0731
  347MOL0     H47865   9.787   3.609   0.364  3.7478  1.0315  0.8024
  347MOL0     H47866   8.690   3.590   0.060  0.9024  0.1560 -2.7781
  347MOL0     H47867   8.508   3.496   0.201  2.9470  3.4796  1.3899
  347MOL0     H47868   8.343   3.236   0.444  1.1495 -2.3976  1.0750
  347MOL0     H47869   8.162   3.191   0.599 -1.5623  0.1776  0.0083
  347MOL0     H47870   6.075   3.143   0.717 -0.2270 -1.2608  2.0400
  347MOL0     H47871   5.856   3.215   0.636  2.0185  1.8448 -1.7570
  347MOL0     H47872   5.639   3.709   0.480  1.6460 -1.1727  1.9317
  347MOL0     H47873   5.427   3.775   0.391  1.5395  0.9932  0.9990
  347MOL0     H47874   5.169   3.822   0.317 -0.4062 -0.9888 -2.0859
  347MOL0     H47875   5.198   3.640   0.296 -0.8952  0.7496 -2.6747
  347MOL0     H47876   4.975   3.615   0.400  1.4461  2.6056  3.2589
  347MOL0     H47877   4.970   3.660   0.232 -1.5640 -1.3433  0.6602
  347MOL0     H47878   4.954   3.847   0.473 -0.8414  0.3092  0.6050
  347MOL0     H47879   4.964   3.905   0.312  1.3817 -1.1647 -0.3721
  347MOL0     H47880   4.730   3.908   0.407 -0.7465  1.0347 -0.9494
  347MOL0     H47881   4.728   3.728   0.414  0.2912 -0.7950  0.3499
  347MOL0     H47882   4.620   3.820   0.014  1.1784 -1.8173 -1.3768
  347MOL0     H47883   5.233   3.539   0.694 -0.6234 -0.5225 -0.0673
  347MOL0     H47884   5.343   3.442   0.858  0.3405 -1.2785 -0.1397
  347MOL0     H47885   5.462   3.333   0.776 -1.1092 -1.4556  0.5732
  347MOL0     H47886   5.512   3.464   0.883 -1.5381 -0.2083  1.2094
  348MOL0     O47887   2.434   2.440   6.010 -0.3803  0.7683 -0.2449
  348MOL0     C47888   2.439   2.322   5.978 -0.1054  0.0505 -0.6976
  348MOL0     O47889   2.551   2.248   5.993 -0.4811  0.0043 -0.1168
  348MOL0     C47890   2.666   2.312   6.029  0.5144 -0.0194 -0.8854
  348MOL0     C47891   2.748   2.240   6.113 -0.0631  0.4081  0.2057
  348MOL0     C47892   2.879   2.282   6.153  0.1852  0.1826 -0.9976
  348MOL0     C47893   2.933   2.405   6.105  0.0777 -0.0371  0.2243
  348MOL0     O47894   3.060   2.450   6.142 -0.1217 -0.1663 -0.1971
  348MOL0     C47895   3.168   2.358   6.119 -0.1269  0.2473  0.2425
  348MOL0     C47896   3.300   2.432   6.125 -0.1512 -0.2211 -0.6557
  348MOL0     C47897   3.416   2.330   6.159 -0.0441  0.0635  0.8967
  348MOL0     C47898   3.532   2.402   6.235 -0.6063  0.0103  0.1122
  348MOL0     C47899   3.500   2.460   6.379  0.6983  0.7424  0.1329
  348MOL0     C47900   3.630   2.498   6.462 -0.6411  0.0284 -0.3700
  348MOL0     C47901   3.715   2.602   6.389  0.3418  0.1658  0.1606
  348MOL0     C47902   3.847   2.634   6.457 -0.1402 -0.9544  0.0513
  348MOL0     N47903   3.957   2.676   6.367  0.1476  0.2498  0.1007
  348MOL0     C47904   3.954   2.740   6.247 -0.5011 -1.3019 -0.2828
  348MOL0     C47905   4.081   2.732   6.199  0.6818  0.6416  0.3205
  348MOL0     C47906   4.138   2.778   6.069 -0.3335 -0.9740  0.4727
  348MOL0     C47907   4.251   2.881   6.083  0.7277  0.4002 -0.4745
  348MOL0     C47908   4.306   2.917   5.942 -0.4571 -0.2808  0.5207
  348MOL0     C47909   4.438   2.996   5.940 -0.3379 -0.0641  0.9224
  348MOL0     O47910   4.543   2.905   5.970  0.2506 -0.5444 -0.0330
  348MOL0     C47911   4.665   2.928   5.907  0.5013  0.4833 -0.0963
  348MOL0     C47912   4.749   2.822   5.905 -0.0599 -0.3524 -0.0903
  348MOL0     C47913   4.873   2.819   5.844 -0.0510  0.4469 -0.7366
  348MOL0     C47914   4.954   2.690   5.847 -0.4115  0.8585  0.1424
  348MOL0     C47915   4.923   2.939   5.782  0.7625  1.0681  0.0890
  348MOL0     C47916   5.041   2.953   5.697 -0.6479  0.3214 -1.1116
  348MOL0     O47917   5.078   2.843   5.622  0.4977  0.3132  0.3634
  348MOL0     C47918   5.189   2.838   5.546  0.5352 -0.1114 -0.0733
  348MOL0     C47919   5.306   2.811   5.610  0.0133 -0.2782 -0.4562
  348MOL0     C47920   5.427   2.818   5.535  0.2366  0.0448  0.1447
  348MOL0     C47921   5.423   2.848   5.397  0.8786  0.9158  0.4623
  348MOL0     O47922   5.545   2.857   5.336 -0.2231 -0.3793  0.0643
  348MOL0     C47923   5.544   2.884   5.197  0.2002 -0.3603  0.7506
  348MOL0     C47924   5.681   2.890   5.134  0.7379  0.2013 -0.0683
  348MOL0     C47925   5.673   2.908   4.981  0.4087  0.1715 -0.1038
  348MOL0     C47926   5.809   2.868   4.916 -0.8716  0.3519  0.3867
  348MOL0     C47927   5.815   2.896   4.767  0.6989 -0.4661  0.0579
  348MOL0     C47928   5.961   2.908   4.721 -0.2055  0.2168  0.4840
  348MOL0     C47929   5.962   2.976   4.586 -0.0490 -0.4961  0.4667
  348MOL0     C47930   5.873   2.911   4.474  0.8652 -0.2567  0.2722
  348MOL0    Cl47931   5.934   2.986   4.315  0.3357 -0.0543 -0.2745
  348MOL0     C47932   5.305   2.868   5.336  0.5140  0.2844  0.8113
  348MOL0     C47933   5.182   2.868   5.408 -0.1059 -0.3675 -0.3363
  348MOL0     O47934   5.094   3.062   5.683  0.5433  0.5360  0.2070
  348MOL0     C47935   4.833   3.050   5.789 -0.3910 -0.5649  1.0666
  348MOL0     C47936   4.714   3.049   5.854  0.6718  1.2638  0.0901
  348MOL0     N47937   4.155   2.650   6.282  0.0042  0.2534  0.2256
  348MOL0     N47938   4.078   2.620   6.382 -0.2738 -0.1642 -0.0779
  348MOL0     C47939   2.859   2.471   6.008  0.5544  0.5065  0.3133
  348MOL0     C47940   2.721   2.426   5.979 -0.8061  0.3279 -0.0649
  348MOL0     C47941   2.322   2.264   5.910 -0.0668 -0.6992 -0.5301
  348MOL0     C47942   2.352   2.149   5.836 -0.7658 -0.4251 -0.4747
  348MOL0     C47943   2.248   2.092   5.756 -0.7855  0.6448 -1.0676
  348MOL0     C47944   2.118   2.132   5.768 -0.5846 -0.5285  0.2877
  348MOL0     O47945   2.027   2.062   5.693  0.2952  0.2764 -0.7269
  348MOL0     C47946   1.900   2.034   5.750 -0.0830  0.0005 -0.3925
  348MOL0     C47947   1.807   1.958   5.660 -0.0074 -1.0304  0.4752
  348MOL0     C47948   1.691   1.901   5.736 -0.6738 -1.6950  0.3486
  348MOL0     C47949   1.603   1.814   5.636 -0.3015 -0.4069 -0.9889
  348MOL0     C47950   1.525   1.905   5.557  0.4214  0.7996 -0.0155
  348MOL0     C47951   1.451   1.963   5.483 -0.0648 -0.0161  0.2134
  348MOL0     C47952   2.086   2.238   5.855  0.5084  0.0962 -0.1576
  348MOL0     C47953   2.187   2.292   5.928 -0.1248 -1.0065  0.1344
  348MOL0     C47954   2.141   2.400   6.018  0.5453 -0.6763 -0.2900
  348MOL0     H47955   2.712   2.152   6.166 -0.6828  0.0629 -0.7686
  348MOL0     H47956   2.935   2.225   6.227 -2.4267 -1.4402 -0.1549
  348MOL0     H47957   3.168   2.290   6.033  1.2607  1.8274 -1.0774
  348MOL0     H47958   3.149   2.295   6.206  0.1772  0.5492  0.5316
  348MOL0     H47959   3.324   2.484   6.032  0.8097 -0.6118 -0.6390
  348MOL0     H47960   3.282   2.505   6.205 -0.4279  0.3056 -1.1922
  348MOL0     H47961   3.374   2.248   6.219  1.0847  0.4723  2.3157
  348MOL0     H47962   3.447   2.273   6.071  1.1481  0.6932  0.8890
  348MOL0     H47963   3.614   2.329   6.239  1.1295  1.7173 -2.0098
  348MOL0     H47964   3.571   2.488   6.180  2.0776 -2.2778 -1.8918
  348MOL0     H47965   3.431   2.397   6.435  1.0942 -1.0551 -1.3274
  348MOL0     H47966   3.456   2.559   6.361 -1.7664 -0.1378  0.9030
  348MOL0     H47967   3.599   2.537   6.559 -1.9601 -1.8795  0.0264
  348MOL0     H47968   3.697   2.416   6.490  0.2590  1.1683  0.9333
  348MOL0     H47969   3.659   2.695   6.377 -0.3939 -0.4723 -1.7224
  348MOL0     H47970   3.745   2.561   6.293  1.4661 -1.0861  1.0093
  348MOL0     H47971   3.827   2.710   6.533 -1.8479 -0.1377 -1.1589
  348MOL0     H47972   3.890   2.550   6.513  0.5833 -0.6732 -0.0725
  348MOL0     H47973   3.869   2.790   6.201  1.3193  2.6621  0.3015
  348MOL0     H47974   4.056   2.815   6.007  0.1456 -1.9646 -0.8089
  348MOL0     H47975   4.188   2.695   6.019  0.2556  0.9563 -2.3818
  348MOL0     H47976   4.207   2.973   6.122 -0.7702  0.3273 -1.9272
  348MOL0     H47977   4.329   2.845   6.151  1.9827  1.3935 -1.3561
  348MOL0     H47978   4.329   2.823   5.891  1.0801  0.3395  0.0072
  348MOL0     H47979   4.232   2.983   5.895  2.6064  1.2822 -2.6314
  348MOL0     H47980   4.443   3.037   5.838 -3.3747 -0.3484  0.5680
  348MOL0     H47981   4.441   3.074   6.016  1.1124  1.8211 -0.9444
  348MOL0     H47982   4.708   2.726   5.935 -2.6789 -0.1151 -2.5299
  348MOL0     H47983   4.928   2.614   5.921  0.5940  2.3478  2.1396
  348MOL0     H47984   5.058   2.715   5.867  0.1150 -1.4834  0.5920
  348MOL0     H47985   4.952   2.655   5.743 -2.3871  2.3033 -0.3759
  348MOL0     H47986   5.294   2.792   5.716 -0.3244  1.2088 -0.2089
  348MOL0     H47987   5.519   2.794   5.586  1.4000  1.2205 -1.3178
  348MOL0     H47988   5.483   2.811   5.144  0.2905  1.5930 -2.3264
  348MOL0     H47989   5.479   2.971   5.178 -0.6394 -0.3927  3.1303
  348MOL0     H47990   5.736   2.978   5.170 -1.2693  0.9514  1.3541
  348MOL0     H47991   5.738   2.799   5.151  0.6836  0.1764 -0.0207
  348MOL0     H47992   5.659   3.016   4.973 -4.8220 -0.1181  1.5936
  348MOL0     H47993   5.582   2.860   4.945 -0.5506  0.2788  2.0342
  348MOL0     H47994   5.823   2.762   4.938 -4.2959 -0.3601 -0.3196
  348MOL0     H47995   5.888   2.925   4.967 -0.8091  1.1576 -0.5767
  348MOL0     H47996   5.766   2.820   4.707  0.2647  1.5336 -2.2556
  348MOL0     H47997   5.752   2.984   4.752 -0.5766 -0.8630  2.5387
  348MOL0     H47998   5.997   2.805   4.718 -2.4677 -0.6200 -1.7177
  348MOL0     H47999   6.028   2.973   4.778 -2.3490  1.9401  1.1858
  348MOL0     H48000   6.065   2.982   4.550  0.6887 -0.4750  2.4601
  348MOL0     H48001   5.926   3.078   4.598 -0.7417 -0.5057 -1.1482
  348MOL0     H48002   5.771   2.935   4.503  0.9507 -0.8984  1.1573
  348MOL0     H48003   5.879   2.801   4.476  0.2865 -0.3124 -0.4371
  348MOL0     H48004   5.288   2.883   5.230 -1.4629 -4.7212  0.1461
  348MOL0     H48005   5.089   2.896   5.360 -1.7488 -3.7045  0.6341
  348MOL0     H48006   4.874   3.143   5.751  2.2906 -2.1400 -0.1683
  348MOL0     H48007   4.668   3.148   5.853  0.1712  1.0730  1.4190
  348MOL0     H48008   2.898   2.553   5.949 -0.7618  1.0817  0.2178
  348MOL0     H48009   2.661   2.486   5.912  1.5013  1.3989 -1.2973
  348MOL0     H48010   2.455   2.118   5.828 -1.0706 -1.1804 -1.7846
  348MOL0     H48011   2.269   2.007   5.692 -0.4367  1.2087 -1.7135
  348MOL0     H48012   1.917   1.985   5.847  1.1956  1.0872 -0.0378
  348MOL0     H48013   1.848   2.130   5.755  1.9906  1.3235 -2.3193
  348MOL0     H48014   1.861   1.879   5.606 -0.6625 -1.1304 -0.0374
  348MOL0     H48015   1.770   2.030   5.587  0.6174 -1.1172  0.0607
  348MOL0     H48016   1.733   1.833   5.811  0.0682 -3.7386 -1.8012
  348MOL0     H48017   1.632   1.974   5.792  0.1910  1.0278 -2.0470
  348MOL0     H48018   1.533   1.761   5.701  0.8819  0.1503  0.8210
  348MOL0     H48019   1.670   1.744   5.585  2.8046  0.7408  1.1892
  348MOL0     H48020   1.385   2.024   5.424  0.4230 -1.3193 -1.7804
  348MOL0     H48021   1.981   2.261   5.873  0.5132 -0.8135  1.1949
  348MOL0     H48022   2.191   2.492   5.987 -1.6246  0.5373 -0.3839
  348MOL0     H48023   2.033   2.408   6.003  0.5679 -0.5959 -0.4121
  348MOL0     H48024   2.167   2.372   6.120 -0.3966 -0.5230 -0.0007
  349MOL0     O48025   5.096   4.297   8.901  0.3341  0.2970 -0.3900
  349MOL0     C48026   5.123   4.334   9.021  0.4287 -0.1023 -0.1296
  349MOL0     O48027   5.255   4.347   9.067  0.3532  0.4946  0.6616
  349MOL0     C48028   5.350   4.264   9.008 -0.2329  0.3875 -0.1899
  349MOL0     C48029   5.479   4.309   9.025  0.3143 -0.7116  0.9809
  349MOL0     C48030   5.590   4.238   8.994  1.0966 -0.4835  0.6381
  349MOL0     C48031   5.567   4.107   8.934 -0.1600  0.2128  0.1369
  349MOL0     O48032   5.673   4.019   8.902  0.0979  0.2020 -0.6163
  349MOL0     C48033   5.802   4.054   8.949  1.4579 -0.2015  0.0447
  349MOL0     C48034   5.907   3.954   8.921 -1.0515 -0.8222 -0.3304
  349MOL0     C48035   5.945   3.940   8.773 -0.4486 -0.2155  1.1106
  349MOL0     C48036   6.012   3.802   8.717  0.5450 -0.1789  0.2108
  349MOL0     C48037   6.162   3.802   8.755  0.7210 -0.2700  0.1355
  349MOL0     C48038   6.220   3.665   8.699 -0.7019 -0.3000 -0.5577
  349MOL0     C48039   6.366   3.636   8.745  0.4143  0.1154  0.2579
  349MOL0     C48040   6.414   3.501   8.678 -0.6250 -0.2425  0.0133
  349MOL0     N48041   6.508   3.528   8.565 -0.1118  0.1639 -0.5532
  349MOL0     C48042   6.488   3.582   8.441  0.0375  0.7007  0.1056
  349MOL0     C48043   6.604   3.564   8.379 -0.2194  0.7334 -0.1159
  349MOL0     C48044   6.646   3.601   8.241 -0.2865  0.4497  0.3449
  349MOL0     C48045   6.633   3.496   8.131 -0.4712  1.2679 -0.4002
  349MOL0     C48046   6.679   3.564   7.998  0.7847 -0.8959 -0.1857
  349MOL0     C48047   6.815   3.613   7.965  0.5555  0.3272  0.3851
  349MOL0     O48048   6.917   3.508   7.938  0.6560 -0.3583  0.6244
  349MOL0     C48049   7.044   3.547   7.912  0.1573  0.1482  0.3866
  349MOL0     C48050   7.113   3.656   7.965  0.7362 -0.7929 -0.7451
  349MOL0     C48051   7.239   3.696   7.926  0.7398  0.2027 -0.5210
  349MOL0     C48052   7.289   3.816   8.004  0.1128  0.0618  0.3352
  349MOL0     C48053   7.307   3.629   7.816 -0.0736  0.5166  0.0095
  349MOL0     C48054   7.433   3.674   7.749  0.5357  0.2300 -0.4643
  349MOL0     O48055   7.502   3.574   7.683 -0.2604 -0.5264  0.3242
  349MOL0     C48056   7.628   3.604   7.636  0.0587  0.1875 -0.0297
  349MOL0     C48057   7.645   3.719   7.555  0.4435 -0.6263 -0.1277
  349MOL0     C48058   7.774   3.738   7.499  0.2272  0.7097  0.4941
  349MOL0     C48059   7.877   3.649   7.501 -0.0193  0.5524 -0.3996
  349MOL0     O48060   7.992   3.678   7.431  0.2428  0.3521 -0.5249
  349MOL0     C48061   8.101   3.581   7.410  0.5442  0.4014 -0.2990
  349MOL0     C48062   8.073   3.456   7.322 -0.1356  0.0108  0.6494
  349MOL0     C48063   8.187   3.352   7.323  0.7704  0.2202 -0.7337
  349MOL0     C48064   8.299   3.373   7.225 -0.0659 -0.2391 -0.2579
  349MOL0     C48065   8.412   3.264   7.207  0.6289  0.3775  0.2834
  349MOL0     C48066   8.507   3.244   7.331  0.2855 -0.0939 -0.9673
  349MOL0     C48067   8.629   3.153   7.291  0.0987 -0.3644 -0.8152
  349MOL0     C48068   8.756   3.192   7.375 -0.1097  1.0658  0.3211
  349MOL0    Cl48069   8.893   3.083   7.356 -0.1677  0.0519  0.0037
  349MOL0     C48070   7.858   3.535   7.583  0.0648  0.3521 -0.5165
  349MOL0     C48071   7.739   3.514   7.649 -0.2330 -0.2654 -0.0711
  349MOL0     O48072   7.476   3.790   7.763 -0.3979 -0.3882 -0.1392
  349MOL0     C48073   7.231   3.517   7.763  0.1309  0.0189 -0.6570
  349MOL0     C48074   7.103   3.481   7.805  0.4038  0.7384  0.6566
  349MOL0     N48075   6.694   3.505   8.471  0.4208 -0.0557 -0.0464
  349MOL0     N48076   6.641   3.490   8.589  0.1426 -0.4334  0.2886
  349MOL0     C48077   5.438   4.060   8.919  0.3336 -0.6737  0.2274
  349MOL0     C48078   5.329   4.134   8.955  0.0267 -0.6495 -0.6676
  349MOL0     C48079   5.015   4.363   9.121  0.1867 -0.5556  0.8797
  349MOL0     C48080   5.045   4.453   9.225  0.1196  0.0857 -0.1611
  349MOL0     C48081   4.943   4.511   9.302 -0.2483 -0.0288 -1.0713
  349MOL0     C48082   4.815   4.462   9.292  0.3987 -0.3716  0.5409
  349MOL0     O48083   4.717   4.493   9.382 -0.3525 -0.5560  0.0776
  349MOL0     C48084   4.747   4.566   9.500  0.2539 -0.3790  1.0165
  349MOL0     C48085   4.617   4.581   9.575 -0.2759 -0.2501  0.4501
  349MOL0     C48086   4.530   4.676   9.497  1.5614  0.4069  0.4202
  349MOL0     C48087   4.405   4.709   9.582 -0.6477  0.7290  0.1342
  349MOL0     C48088   4.294   4.754   9.496  0.5985  0.4311  0.0569
  349MOL0     C48089   4.195   4.778   9.425 -0.3344  0.4318 -0.2387
  349MOL0     C48090   4.792   4.359   9.201  0.6851 -0.4710 -0.5877
  349MOL0     C48091   4.881   4.313   9.107  0.9479 -0.5490 -0.2074
  349MOL0     C48092   4.841   4.199   9.023  0.2478 -0.5306  0.0965
  349MOL0     H48093   5.486   4.403   9.079 -1.4135 -0.2446  0.4616
  349MOL0     H48094   5.687   4.282   9.016  1.6270 -1.6518  0.6875
  349MOL0     H48095   5.794   4.066   9.057 -0.8963  0.4913 -0.1501
  349MOL0     H48096   5.838   4.147   8.904 -0.5741 -0.0772 -1.4731
  349MOL0     H48097   5.996   3.987   8.976 -1.8705 -1.2179  1.2877
  349MOL0     H48098   5.884   3.855   8.960  1.3729 -0.8061  1.3514
  349MOL0     H48099   5.858   3.968   8.712  0.8825  1.3698 -0.1601
  349MOL0     H48100   6.021   4.015   8.749 -1.1065  0.4224  0.9678
  349MOL0     H48101   5.967   3.716   8.768 -0.4648  0.4859  0.4595
  349MOL0     H48102   5.997   3.801   8.609 -2.8410  0.7896  0.5675
  349MOL0     H48103   6.169   3.808   8.864 -1.2174  0.8724  0.2326
  349MOL0     H48104   6.215   3.891   8.717  3.6171 -2.7863 -2.2427
  349MOL0     H48105   6.165   3.580   8.740  2.2481 -0.7545  2.9778
  349MOL0     H48106   6.217   3.663   8.590  3.1301  0.4932 -0.8223
  349MOL0     H48107   6.355   3.621   8.852 -0.6248 -1.0293  0.0172
  349MOL0     H48108   6.438   3.718   8.740 -1.3853  1.8493  1.1690
  349MOL0     H48109   6.449   3.429   8.752 -1.3498 -1.2755 -0.6169
  349MOL0     H48110   6.324   3.453   8.637 -1.1039 -0.0931  0.8676
  349MOL0     H48111   6.398   3.629   8.404 -0.6152  0.5646  1.4596
  349MOL0     H48112   6.754   3.614   8.242 -0.0664 -1.1498 -0.0913
  349MOL0     H48113   6.594   3.694   8.213  0.3965  1.3088  1.7867
  349MOL0     H48114   6.693   3.405   8.147 -1.6675  0.5865  0.3985
  349MOL0     H48115   6.530   3.460   8.121  0.4994 -1.6917 -1.0073
  349MOL0     H48116   6.649   3.495   7.918  0.0620 -1.2225  0.3607
  349MOL0     H48117   6.613   3.650   7.983  2.1292  0.5642  1.8376
  349MOL0     H48118   6.807   3.683   7.881 -0.8596  0.8593  0.9501
  349MOL0     H48119   6.846   3.666   8.055  0.4318 -1.5812  1.5952
  349MOL0     H48120   7.059   3.714   8.039 -0.2024  0.4853 -2.3599
  349MOL0     H48121   7.375   3.785   8.065 -0.6813 -0.0086  1.4492
  349MOL0     H48122   7.215   3.848   8.078  1.5679  0.3729  1.7071
  349MOL0     H48123   7.313   3.902   7.941  2.8155  0.7916  2.1699
  349MOL0     H48124   7.576   3.801   7.536 -1.7881 -2.1991  0.6537
  349MOL0     H48125   7.801   3.826   7.442 -0.5309 -0.4170 -1.7095
  349MOL0     H48126   8.187   3.632   7.365  0.7782  1.1921  0.9755
  349MOL0     H48127   8.129   3.538   7.507 -0.5075 -0.8191 -0.5003
  349MOL0     H48128   7.989   3.400   7.364 -0.5321  0.0483 -0.0799
  349MOL0     H48129   8.039   3.485   7.222 -1.0856 -1.3668  0.5457
  349MOL0     H48130   8.144   3.254   7.299  0.2005 -0.1911  1.7021
  349MOL0     H48131   8.209   3.341   7.430  1.6253  0.4782 -0.8765
  349MOL0     H48132   8.353   3.459   7.266  0.4774 -0.4015 -0.6140
  349MOL0     H48133   8.257   3.403   7.129  0.8432  0.2588 -0.5128
  349MOL0     H48134   8.367   3.166   7.193  1.0336  0.5222 -2.6491
  349MOL0     H48135   8.472   3.289   7.119  0.1748  2.1666  0.4416
  349MOL0     H48136   8.453   3.198   7.414  1.1118  1.7725  0.6910
  349MOL0     H48137   8.538   3.345   7.360 -2.6591  0.4761  0.5001
  349MOL0     H48138   8.653   3.159   7.185 -1.5573 -0.0242 -1.2021
  349MOL0     H48139   8.605   3.051   7.321  0.0193 -0.5742 -1.5867
  349MOL0     H48140   8.714   3.195   7.476 -3.0064 -3.0873 -0.5182
  349MOL0     H48141   8.773   3.292   7.334  0.8958  0.6930 -0.1945
  349MOL0     H48142   7.934   3.467   7.623  0.0008  0.7167  0.2458
  349MOL0     H48143   7.715   3.437   7.721  0.5800  0.9587  1.5787
  349MOL0     H48144   7.255   3.459   7.674  0.1525  0.8920 -1.2380
  349MOL0     H48145   7.046   3.407   7.750 -1.4752  1.4028  1.6110
  349MOL0     H48146   5.433   3.962   8.873  0.2298 -0.3465 -0.4651
  349MOL0     H48147   5.228   4.095   8.946 -1.3891  1.1346  4.1511
  349MOL0     H48148   5.140   4.497   9.256  0.6262 -0.5173 -0.8339
  349MOL0     H48149   4.973   4.592   9.368 -4.1633  1.0209 -0.2906
  349MOL0     H48150   4.818   4.510   9.562  0.8518 -0.6955  0.0709
  349MOL0     H48151   4.787   4.664   9.473 -2.3798  0.1366 -1.4745
  349MOL0     H48152   4.645   4.626   9.671 -0.4968  0.6915  0.0817
  349MOL0     H48153   4.572   4.483   9.597  0.3515 -0.2479  1.8738
  349MOL0     H48154   4.574   4.769   9.459 -0.0917  1.9273  2.0378
  349MOL0     H48155   4.488   4.623   9.411 -1.8877 -2.7077  3.6740
  349MOL0     H48156   4.428   4.782   9.661 -2.4745  0.8236  0.6349
  349MOL0     H48157   4.362   4.619   9.627 -0.9969 -0.9355 -3.2280
  349MOL0     H48158   4.114   4.802   9.359 -1.7007 -0.0101  1.2386
  349MOL0     H48159   4.688   4.331   9.204  0.3572  0.3584 -2.6894
  349MOL0     H48160   4.920   4.123   9.019  0.4023 -0.4218  0.9382
  349MOL0     H48161   4.756   4.146   9.067  1.0094 -2.3824 -0.5628
  349MOL0     H48162   4.807   4.231   8.924 -2.6493 -0.7501  0.9194
  350MOL0     O48163  10.857   0.490  10.047  0.2787  0.0991  0.3384
  350MOL0     C48164  10.819   0.376  10.079 -0.2180 -0.9190 -0.3533
  350MOL0     O48165  10.895   0.284  10.135  0.2683  0.7433  0.2357
  350MOL0     C48166  11.026   0.310  10.158  0.0608 -0.0832 -0.1814
  350MOL0     C48167  11.119   0.340  10.057 -0.1091  0.6671  0.1453
  350MOL0     C48168  11.252   0.356  10.087 -0.1049 -1.1452 -0.1004
  350MOL0     C48169  11.300   0.353  10.214 -0.6379 -0.3289 -0.5464
  350MOL0     O48170  11.432   0.379  10.234  0.4318 -0.3024 -0.8238
  350MOL0     C48171  11.479   0.393  10.364  0.3265  0.0087 -0.7047
  350MOL0     C48172  11.635   0.396  10.367  0.2065 -0.1224 -1.0958
  350MOL0     C48173  11.671   0.364  10.516 -0.2729  0.0779  0.2191
  350MOL0     C48174  11.830   0.356  10.521  0.5281 -0.1793 -0.0652
  350MOL0     C48175  11.884   0.355  10.660  0.3207 -0.9936  0.0303
  350MOL0     C48176  12.038   0.340  10.657  0.0227  0.0657 -1.3703
  350MOL0     C48177  12.111   0.333  10.799  0.0725  0.3580  0.1059
  350MOL0     C48178  12.265   0.326  10.764  0.3873  1.3084  0.0621
  350MOL0     N48179  12.304   0.187  10.739  0.2010 -0.2456 -0.6000
  350MOL0     C48180  12.425   0.147  10.694 -0.0613  0.1781  0.8305
  350MOL0     C48181  12.429   0.013  10.717 -1.1695  0.8666 -0.4200
  350MOL0     C48182  12.539  -0.076  10.665  0.2387 -0.3685  0.4772
  350MOL0     C48183  12.592  -0.187  10.762  0.2471  0.4236 -0.1921
  350MOL0     C48184  12.690  -0.278  10.693 -0.2887  0.2978 -0.2595
  350MOL0     C48185  12.744  -0.405  10.772  0.0736 -0.0100  0.5580
  350MOL0     O48186  12.832  -0.387  10.883  0.5568 -0.1479  0.2374
  350MOL0     C48187  12.949  -0.322  10.846  0.8445  0.0130  0.7445
  350MOL0     C48188  13.004  -0.246  10.943  0.5916 -0.8178  0.2903
  350MOL0     C48189  13.130  -0.187  10.936 -0.2072  0.1431 -0.0995
  350MOL0     C48190  13.179  -0.109  11.056  0.0860  0.2909  0.0924
  350MOL0     C48191  13.215  -0.209  10.825  0.2398 -0.1099  0.0690
  350MOL0     C48192  13.351  -0.148  10.806  0.0835  0.2608 -0.5346
  350MOL0     O48193  13.390  -0.153  10.674 -0.3583  0.2573 -0.4494
  350MOL0     C48194  13.510  -0.126  10.625 -0.6916 -1.3511  0.3718
  350MOL0     C48195  13.530  -0.150  10.484 -0.0336 -0.1599 -0.5761
  350MOL0     C48196  13.659  -0.128  10.429  0.7032  0.5688 -0.2549
  350MOL0     C48197  13.763  -0.068  10.505  0.2413 -0.0396  0.0743
  350MOL0     O48198  13.880  -0.049  10.445 -0.7838  0.5438 -0.1251
  350MOL0     C48199  13.975   0.049  10.494  0.8359  0.8359  0.2410
  350MOL0     C48200  14.093   0.041  10.398  0.0608 -0.0237 -0.2320
  350MOL0     C48201  14.066   0.031  10.246 -0.7384 -0.5180 -0.2220
  350MOL0     C48202  14.033   0.174  10.207  0.5607  0.3168 -0.3006
  350MOL0     C48203  13.991   0.186  10.060 -0.2435 -0.0194 -0.1641
  350MOL0     C48204  14.000   0.327  10.009 -0.5290  1.1009  0.2374
  350MOL0     C48205  13.957   0.333   9.863  0.1604 -0.3276 -0.2290
  350MOL0     C48206  13.960   0.474   9.815 -0.0067  0.3172  0.2648
  350MOL0    Cl48207  13.933   0.507   9.639  0.1780  0.6937 -0.0105
  350MOL0     C48208  13.743  -0.036  10.631 -0.1502 -0.0062 -0.1196
  350MOL0     C48209  13.614  -0.058  10.695 -0.4855  0.5133 -0.2850
  350MOL0     O48210  13.408  -0.089  10.896 -0.0376 -0.2762 -0.2609
  350MOL0     C48211  13.151  -0.283  10.719 -0.3409  0.1518  0.9159
  350MOL0     C48212  13.025  -0.332  10.724  0.6328 -0.1936 -0.2931
  350MOL0     N48213  12.316  -0.022  10.790  0.2028 -0.7254  0.4439
  350MOL0     N48214  12.245   0.081  10.809  0.1051  0.4483 -0.0414
  350MOL0     C48215  11.209   0.322  10.316  0.1625 -0.2714 -0.5880
  350MOL0     C48216  11.073   0.308  10.291  0.2336 -0.5762 -0.3073
  350MOL0     C48217  10.683   0.346  10.063 -0.4542  0.6762  0.2291
  350MOL0     C48218  10.660   0.217  10.010  0.3088  0.5274  0.1219
  350MOL0     C48219  10.534   0.178   9.966  0.5406  0.2219  0.1618
  350MOL0     C48220  10.425   0.270   9.980 -0.0155  0.6031  0.2877
  350MOL0     O48221  10.293   0.237   9.943 -0.5081 -0.1034  0.4192
  350MOL0     C48222  10.290   0.184   9.812 -0.6813  0.0529 -0.0734
  350MOL0     C48223  10.153   0.197   9.747  0.2189 -0.4920 -0.5888
  350MOL0     C48224  10.151   0.134   9.602  0.4535 -0.7198 -0.2002
  350MOL0     C48225  10.270   0.169   9.513 -0.3113 -0.3745  0.3186
  350MOL0     C48226  10.276   0.073   9.404 -0.3963 -0.3171  0.5132
  350MOL0     C48227  10.278  -0.009   9.312 -1.1953  0.1175 -0.5329
  350MOL0     C48228  10.441   0.389  10.051 -0.0706  0.0356 -0.2728
  350MOL0     C48229  10.571   0.436  10.086  0.7202  0.2026 -0.0623
  350MOL0     C48230  10.579   0.555  10.170 -0.0556 -0.1769  0.7247
  350MOL0     H48231  11.084   0.337   9.954 -0.3523 -1.8331  0.2310
  350MOL0     H48232  11.327   0.381  10.012 -0.6554  0.6112 -0.1011
  350MOL0     H48233  11.446   0.304  10.419  0.3761  0.7420  0.5469
  350MOL0     H48234  11.448   0.490  10.404  0.6395  0.5509 -1.7419
  350MOL0     H48235  11.685   0.320  10.307 -0.2587 -1.2532 -0.0915
  350MOL0     H48236  11.671   0.497  10.343  3.7418 -1.0073 -0.0742
  350MOL0     H48237  11.631   0.437  10.587 -2.0464 -0.8268  0.1789
  350MOL0     H48238  11.639   0.263  10.543 -2.7456  0.2883 -1.5923
  350MOL0     H48239  11.860   0.265  10.468  1.3027  0.5723 -0.9397
  350MOL0     H48240  11.866   0.447  10.472 -0.5438  1.6538  2.3220
  350MOL0     H48241  11.832   0.278  10.717  0.0673 -0.4248  0.5803
  350MOL0     H48242  11.861   0.446  10.717 -0.2114 -0.1745 -1.4208
  350MOL0     H48243  12.068   0.248  10.607 -2.4380 -1.2391 -0.6211
  350MOL0     H48244  12.071   0.429  10.603  1.0619  0.6906  0.2069
  350MOL0     H48245  12.078   0.244  10.854 -3.1271  2.1686  1.3593
  350MOL0     H48246  12.090   0.420  10.861 -0.8091  0.6987 -0.6533
  350MOL0     H48247  12.307   0.386  10.683  1.6502  0.7404  0.2765
  350MOL0     H48248  12.317   0.350  10.858 -0.6152 -2.9935  1.9394
  350MOL0     H48249  12.501   0.212  10.653 -0.9583  0.5541 -0.3047
  350MOL0     H48250  12.614  -0.002  10.637  0.2485  0.2164  1.9868
  350MOL0     H48251  12.498  -0.123  10.575 -0.6959 -0.9382  1.1814
  350MOL0     H48252  12.639  -0.142  10.850  2.1248  0.0460 -0.9517
  350MOL0     H48253  12.502  -0.244  10.786  1.0787 -0.3423  1.2701
  350MOL0     H48254  12.638  -0.316  10.605  1.0497 -0.9500 -0.5500
  350MOL0     H48255  12.772  -0.212  10.663  0.3904  1.8212  4.1331
  350MOL0     H48256  12.653  -0.455  10.803 -1.0261  2.3808  1.4486
  350MOL0     H48257  12.794  -0.461  10.692 -2.0765 -1.0801 -0.1198
  350MOL0     H48258  12.942  -0.233  11.032  0.8955  0.2113  0.3637
  350MOL0     H48259  13.276  -0.136  11.099  2.7281  5.1742 -1.9753
  350MOL0     H48260  13.103  -0.113  11.134  0.5176 -0.5370  0.4878
  350MOL0     H48261  13.195  -0.004  11.030 -1.7995  0.5070 -0.3567
  350MOL0     H48262  13.443  -0.194  10.435 -0.1959  0.2354 -0.6487
  350MOL0     H48263  13.677  -0.161  10.327 -1.8062 -0.0075 -0.5967
  350MOL0     H48264  13.938   0.152  10.491  0.4679  0.7363 -3.1487
  350MOL0     H48265  14.002   0.018  10.595  2.8018 -0.7185 -0.6814
  350MOL0     H48266  14.161   0.123  10.422  1.0342 -0.6703 -0.6985
  350MOL0     H48267  14.143  -0.050  10.433 -4.1485 -2.4984  0.0815
  350MOL0     H48268  13.990  -0.044  10.222  1.3498 -3.1157  0.7346
  350MOL0     H48269  14.152  -0.005  10.188 -1.1264 -1.0177 -0.4979
  350MOL0     H48270  14.110   0.250  10.225  0.1036  0.5245  0.9058
  350MOL0     H48271  13.953   0.222  10.264  0.0781 -1.3957  0.5504
  350MOL0     H48272  14.053   0.112  10.007  0.8014 -1.1461  2.4864
  350MOL0     H48273  13.890   0.145  10.053 -0.2089 -0.1302 -0.0151
  350MOL0     H48274  14.104   0.359  10.014 -0.1340  0.0071 -0.5500
  350MOL0     H48275  13.941   0.393  10.073 -0.5452  1.1207  0.2015
  350MOL0     H48276  13.861   0.283   9.850  1.0365 -2.1150 -0.2897
  350MOL0     H48277  14.027   0.280   9.797 -0.8308 -1.7612 -0.1681
  350MOL0     H48278  14.062   0.503   9.840  0.8670 -3.1353  1.1593
  350MOL0     H48279  13.910   0.549   9.877  0.9066  2.4365 -1.4450
  350MOL0     H48280  13.811   0.017  10.698  1.4807  0.9676 -2.4099
  350MOL0     H48281  13.612  -0.043  10.803  1.9347 -4.4798  0.7757
  350MOL0     H48282  13.207  -0.305  10.628  2.5030  1.2182  2.2865
  350MOL0     H48283  12.993  -0.400  10.646 -1.5917 -2.0242  2.0761
  350MOL0     H48284  11.238   0.310  10.420  1.0298  1.7484 -0.5525
  350MOL0     H48285  11.006   0.274  10.369  0.5573 -2.0908 -0.6692
  350MOL0     H48286  10.740   0.151   9.980 -2.8309 -1.9197 -3.7533
  350MOL0     H48287  10.524   0.082   9.917  3.1896 -1.6040  2.8209
  350MOL0     H48288  10.367   0.233   9.752 -0.7337  0.3914  0.1350
  350MOL0     H48289  10.312   0.077   9.822 -0.5550  0.1035  0.1874
  350MOL0     H48290  10.108   0.296   9.739 -2.1315 -1.5653 -1.6226
  350MOL0     H48291  10.083   0.150   9.816 -0.1128  2.3352  1.1611
  350MOL0     H48292  10.154   0.025   9.614  2.0044 -0.6969 -0.0830
  350MOL0     H48293  10.067   0.176   9.546  0.9449 -0.7538 -0.9683
  350MOL0     H48294  10.370   0.156   9.555 -0.1333  0.8843  0.3459
  350MOL0     H48295  10.259   0.274   9.482  0.2569 -0.3001  0.3673
  350MOL0     H48296  10.280  -0.069   9.224 -0.3139 -1.8559  0.7761
  350MOL0     H48297  10.356   0.450  10.083 -0.3146  0.7372 -2.1550
  350MOL0     H48298  10.674   0.565  10.222  0.7158 -0.9826 -0.4787
  350MOL0     H48299  10.553   0.652  10.127  2.3688  1.3698  2.4874
  350MOL0     H48300  10.500   0.544  10.246 -0.3708  2.2995  0.8488
  351MOL0     O48301   7.446   1.580   2.079  0.4434 -0.8401 -0.7290
  351MOL0     C48302   7.429   1.522   1.974 -0.4997 -1.0540 -0.2095
  351MOL0     O48303   7.521   1.426   1.928  0.5941 -0.3944  0.0260
  351MOL0     C48304   7.610   1.364   2.025  0.4330  0.2228  0.1457
  351MOL0     C48305   7.610   1.228   2.054 -0.0344  1.2914  0.1346
  351MOL0     C48306   7.718   1.167   2.127  0.3537  0.8693  0.0326
  351MOL0     C48307   7.811   1.241   2.195  0.6269 -0.2004 -0.1518
  351MOL0     O48308   7.908   1.183   2.265 -0.5378  0.3974 -0.3300
  351MOL0     C48309   7.949   1.233   2.395 -0.5867 -0.0334  0.0108
  351MOL0     C48310   8.061   1.145   2.441 -0.0070  0.0416 -0.7903
  351MOL0     C48311   8.136   1.220   2.555 -0.1057  0.6528  0.0939
  351MOL0     C48312   8.202   1.357   2.531 -0.4759  0.6141  0.6681
  351MOL0     C48313   8.328   1.363   2.619 -0.2473 -0.1801 -0.1076
  351MOL0     C48314   8.294   1.344   2.773 -0.4113 -0.0180 -0.0589
  351MOL0     C48315   8.415   1.381   2.864 -0.0040 -0.7201 -0.6084
  351MOL0     C48316   8.541   1.309   2.833  0.6854  0.1351  0.3474
  351MOL0     N48317   8.522   1.163   2.859 -1.3446  0.3152  0.5912
  351MOL0     C48318   8.595   1.092   2.947  0.3312  0.7889 -0.4483
  351MOL0     C48319   8.590   0.965   2.903 -0.4934 -0.2213 -0.0339
  351MOL0     C48320   8.694   0.866   2.956 -0.1129  0.4804 -0.4438
  351MOL0     C48321   8.835   0.913   2.948 -0.1229 -0.5143 -0.2769
  351MOL0     C48322   8.892   0.954   2.811  0.5446  0.5389 -0.5110
  351MOL0     C48323   9.049   0.965   2.814 -0.0100  0.1132 -0.4768
  351MOL0     O48324   9.080   0.979   2.676  0.3778  0.9141 -0.5085
  351MOL0     C48325   9.202   0.929   2.631  0.1784  0.0726 -0.3665
  351MOL0     C48326   9.219   0.906   2.497 -0.1111  0.2664 -0.4697
  351MOL0     C48327   9.341   0.860   2.437  0.5479 -0.2959  0.2451
  351MOL0     C48328   9.335   0.813   2.298  0.1956  0.4840  0.6577
  351MOL0     C48329   9.455   0.837   2.518  0.0225  0.8354  0.3846
  351MOL0     C48330   9.596   0.794   2.470  0.4616 -0.5292  0.8120
  351MOL0     O48331   9.683   0.757   2.563 -0.5181 -0.2432  0.2636
  351MOL0     C48332   9.821   0.753   2.533  0.6186 -0.5418 -0.1149
  351MOL0     C48333   9.899   0.865   2.563 -0.3162  0.4542 -0.5944
  351MOL0     C48334  10.032   0.863   2.551  0.3802  0.3416  0.0258
  351MOL0     C48335  10.096   0.750   2.498  0.0519  0.1743  0.4486
  351MOL0     O48336  10.233   0.740   2.481  0.1946  0.3241  0.0861
  351MOL0     C48337  10.324   0.826   2.545  0.0924 -0.0274 -0.0166
  351MOL0     C48338  10.363   0.950   2.455  1.2651 -0.1496 -0.3672
  351MOL0     C48339  10.438   1.061   2.541  0.0745 -0.6197 -0.8981
  351MOL0     C48340  10.476   1.169   2.445  0.9776 -0.0621  0.2290
  351MOL0     C48341  10.593   1.262   2.493 -0.4356  0.8512  0.0202
  351MOL0     C48342  10.658   1.352   2.380  0.1049  0.6199  0.1344
  351MOL0     C48343  10.773   1.425   2.442 -0.1523 -0.0596  0.6816
  351MOL0     C48344  10.804   1.553   2.353  0.5413  0.2287 -0.1461
  351MOL0    Cl48345  10.974   1.593   2.390 -0.1305 -0.4371 -0.3188
  351MOL0     C48346  10.020   0.644   2.443  0.2177  0.5068 -0.7731
  351MOL0     C48347   9.880   0.641   2.471 -0.5289 -1.3509  0.2572
  351MOL0     O48348   9.624   0.826   2.355  0.1699  0.4684 -0.7559
  351MOL0     C48349   9.440   0.856   2.657 -0.3092 -0.3842  0.9497
  351MOL0     C48350   9.311   0.905   2.702  0.2268  1.4424  0.6009
  351MOL0     N48351   8.511   0.953   2.796 -0.1409 -0.6864  0.0693
  351MOL0     N48352   8.476   1.080   2.765  0.1782  0.6492  0.5482
  351MOL0     C48353   7.811   1.376   2.166  0.0773 -0.0771 -0.3141
  351MOL0     C48354   7.713   1.437   2.084 -0.0947 -0.5146 -0.9885
  351MOL0     C48355   7.320   1.581   1.888  0.3669 -0.4671 -0.3756
  351MOL0     C48356   7.323   1.536   1.757 -0.1122  0.2849 -0.6443
  351MOL0     C48357   7.226   1.576   1.669 -0.3567 -0.3300 -0.8510
  351MOL0     C48358   7.124   1.659   1.703  0.6812  0.5113  0.4174
  351MOL0     O48359   7.029   1.684   1.615 -0.5863  0.1278 -0.0212
  351MOL0     C48360   6.916   1.767   1.658 -0.0693  0.5212  0.6274
  351MOL0     C48361   6.810   1.746   1.549 -0.4958 -0.4112  0.3352
  351MOL0     C48362   6.687   1.833   1.583  1.0842  0.1806 -0.3477
  351MOL0     C48363   6.553   1.799   1.514 -0.4793 -0.3686  0.6681
  351MOL0     C48364   6.453   1.900   1.550 -0.8626 -0.3197  0.6377
  351MOL0     C48365   6.380   1.994   1.588  0.1846  0.0239  0.0669
  351MOL0     C48366   7.107   1.696   1.838 -0.6367  0.3353 -0.6524
  351MOL0     C48367   7.207   1.656   1.931  0.1115 -0.1625  0.9293
  351MOL0     C48368   7.177   1.683   2.075 -0.0366  0.0577  0.1239
  351MOL0     H48369   7.546   1.160   1.999  1.2211 -0.3749  0.6433
  351MOL0     H48370   7.713   1.059   2.141  0.4825  0.8241 -0.2691
  351MOL0     H48371   7.871   1.234   2.471  0.2006 -1.1317  0.8757
  351MOL0     H48372   7.985   1.336   2.390  0.5015 -0.3691  0.6385
  351MOL0     H48373   8.014   1.062   2.495  1.8450  0.5533  1.8075
  351MOL0     H48374   8.136   1.111   2.369  0.7818  0.8313 -0.3577
  351MOL0     H48375   8.058   1.235   2.631  0.9489 -1.1566  1.5990
  351MOL0     H48376   8.214   1.153   2.592 -0.6461 -0.1724 -0.2400
  351MOL0     H48377   8.226   1.361   2.424  1.7301  0.8997  1.1266
  351MOL0     H48378   8.135   1.441   2.551 -2.4719 -0.7807  0.1328
  351MOL0     H48379   8.383   1.457   2.606 -0.0303 -0.2570  0.2304
  351MOL0     H48380   8.393   1.279   2.594  2.1233  1.7635 -0.9172
  351MOL0     H48381   8.220   1.425   2.780  1.9345  2.3234 -0.7642
  351MOL0     H48382   8.254   1.247   2.803  0.6549  0.0804  1.8906
  351MOL0     H48383   8.382   1.365   2.967 -3.3949  1.4169 -1.2295
  351MOL0     H48384   8.431   1.489   2.863  0.3624 -0.6904  1.8292
  351MOL0     H48385   8.579   1.328   2.732  2.7461 -1.7848  0.6691
  351MOL0     H48386   8.623   1.340   2.899  2.0816 -0.8567 -0.8614
  351MOL0     H48387   8.661   1.121   3.028 -1.0864 -0.4903  1.2491
  351MOL0     H48388   8.695   0.775   2.896  1.6158  0.5504 -0.5828
  351MOL0     H48389   8.668   0.844   3.060 -0.1303  0.3877 -0.4683
  351MOL0     H48390   8.848   1.001   3.012  0.2715  0.2880 -1.4257
  351MOL0     H48391   8.899   0.837   2.992 -0.0307 -1.0965 -1.3866
  351MOL0     H48392   8.872   0.882   2.731  3.0912 -0.0208 -0.7454
  351MOL0     H48393   8.848   1.049   2.778  0.9300  0.9745  0.2020
  351MOL0     H48394   9.077   1.053   2.872  1.0968  0.8096 -2.0019
  351MOL0     H48395   9.101   0.873   2.846  0.3945  0.8258  0.9954
  351MOL0     H48396   9.130   0.929   2.440 -0.3111  0.4693 -0.0825
  351MOL0     H48397   9.232   0.816   2.261  0.0807 -0.2372  0.9141
  351MOL0     H48398   9.365   0.708   2.292  1.5835  0.9399 -1.1267
  351MOL0     H48399   9.397   0.881   2.238  1.2682 -1.0887 -0.0649
  351MOL0     H48400   9.862   0.961   2.598  0.5249  0.6103 -0.1102
  351MOL0     H48401  10.089   0.949   2.585 -1.0192  1.6199 -0.7476
  351MOL0     H48402  10.299   0.855   2.648 -1.3669 -1.9560  0.2166
  351MOL0     H48403  10.413   0.764   2.561 -1.3006 -2.3689 -0.8655
  351MOL0     H48404  10.431   0.906   2.382  1.1804 -0.0829 -0.4858
  351MOL0     H48405  10.273   0.993   2.411  2.1092 -0.9970 -3.0894
  351MOL0     H48406  10.523   1.014   2.593 -0.3630 -1.1647 -0.6535
  351MOL0     H48407  10.361   1.085   2.615 -1.6034 -3.5535 -1.5362
  351MOL0     H48408  10.386   1.232   2.435  0.6046 -0.6916 -0.5124
  351MOL0     H48409  10.501   1.124   2.349 -0.6972 -0.9293  0.1574
  351MOL0     H48410  10.563   1.323   2.579  2.9547  1.4131  0.9550
  351MOL0     H48411  10.674   1.204   2.537 -1.0344  2.0641  2.9682
  351MOL0     H48412  10.585   1.423   2.338  0.0345 -0.0809 -0.9761
  351MOL0     H48413  10.694   1.288   2.299  1.9394  0.7704  0.7931
  351MOL0     H48414  10.864   1.366   2.455 -0.9541 -1.4813  0.0932
  351MOL0     H48415  10.750   1.456   2.545 -0.7719  2.2989 -0.1112
  351MOL0     H48416  10.741   1.637   2.384  1.4668  0.8721  0.0293
  351MOL0     H48417  10.781   1.538   2.247 -1.0357  0.3597  0.1526
  351MOL0     H48418  10.071   0.558   2.401 -0.1322 -0.8617  1.4703
  351MOL0     H48419   9.827   0.559   2.424 -1.8080  0.0623 -0.8435
  351MOL0     H48420   9.526   0.837   2.721  2.3266  1.9324 -1.6112
  351MOL0     H48421   9.307   0.929   2.808  2.6905 -0.9289  1.3548
  351MOL0     H48422   7.897   1.434   2.197  0.6125 -0.7541 -0.5308
  351MOL0     H48423   7.715   1.543   2.061  1.4153 -0.6557 -1.6694
  351MOL0     H48424   7.400   1.470   1.718  0.5984 -0.4097  1.7156
  351MOL0     H48425   7.228   1.531   1.571 -1.0369  0.5715 -1.2919
  351MOL0     H48426   6.877   1.744   1.757  0.4609 -1.3166  0.4529
  351MOL0     H48427   6.933   1.875   1.668 -6.3134  1.7240  2.7147
  351MOL0     H48428   6.780   1.641   1.552  0.6807 -0.9083 -2.3773
  351MOL0     H48429   6.847   1.778   1.451  1.1988 -2.1516  0.3583
  351MOL0     H48430   6.678   1.817   1.690  0.6780  2.8049  0.0733
  351MOL0     H48431   6.717   1.935   1.558 -0.9762  0.8578 -0.2317
  351MOL0     H48432   6.513   1.702   1.547 -0.3174 -1.6859 -2.6231
  351MOL0     H48433   6.569   1.799   1.406 -1.6988  0.8243  0.4699
  351MOL0     H48434   6.317   2.071   1.626  1.2419  1.2614 -0.6154
  351MOL0     H48435   7.021   1.744   1.883 -1.7005 -1.6364 -0.4929
  351MOL0     H48436   7.107   1.765   2.096  0.2316 -0.2742  2.5744
  351MOL0     H48437   7.129   1.598   2.125  0.5424  0.9009  2.2146
  351MOL0     H48438   7.269   1.712   2.127  1.2840 -1.3717 -1.3036
  352MOL0     O48439   0.690   3.080   4.020  0.2231 -0.3715  0.4025
  352MOL0     C48440   0.643   3.128   3.914  0.3676 -0.1366 -0.5812
  352MOL0     O48441   0.705   3.188   3.819 -0.2605 -0.4944  0.0569
  352MOL0     C48442   0.841   3.178   3.796  0.2959  0.2364  0.0501
  352MOL0     C48443   0.885   3.205   3.662  0.0255 -0.2981 -0.3291
  352MOL0     C48444   1.022   3.198   3.629 -0.4173 -0.3075 -0.1876
  352MOL0     C48445   1.122   3.169   3.721 -0.1541 -0.4077 -0.3351
  352MOL0     O48446   1.258   3.146   3.689  0.1878  0.0706 -0.2178
  352MOL0     C48447   1.294   3.040   3.600  0.0043 -0.8696  0.1887
  352MOL0     C48448   1.313   3.100   3.458 -0.2969  0.0182  0.1177
  352MOL0     C48449   1.380   3.002   3.354  0.3129  0.9431 -0.5268
  352MOL0     C48450   1.281   2.888   3.316 -0.1858  0.3231 -0.2175
  352MOL0     C48451   1.333   2.802   3.187  0.3209 -0.1722 -0.8645
  352MOL0     C48452   1.310   2.886   3.062  0.3782 -0.2917 -0.6894
  352MOL0     C48453   1.355   2.812   2.943 -0.5272  0.6597 -0.2859
  352MOL0     C48454   1.494   2.759   2.952 -0.1584  0.4016  0.3543
  352MOL0     N48455   1.549   2.698   2.833 -0.0682 -0.0185  0.0097
  352MOL0     C48456   1.512   2.587   2.757 -0.1377 -0.2923  0.0683
  352MOL0     C48457   1.611   2.568   2.670  0.0320 -0.3321  0.2952
  352MOL0     C48458   1.613   2.459   2.570  0.4649  0.7178  0.0003
  352MOL0     C48459   1.723   2.354   2.611 -0.0441 -0.3753 -0.1972
  352MOL0     C48460   1.865   2.408   2.614  0.4124  0.0158 -0.4861
  352MOL0     C48461   1.966   2.294   2.626  0.1794  0.2045  0.1847
  352MOL0     O48462   2.091   2.348   2.669 -0.0570 -0.4127  0.0037
  352MOL0     C48463   2.209   2.330   2.597  1.1112  0.1828 -0.7649
  352MOL0     C48464   2.299   2.431   2.577 -0.1637 -1.0511  0.3690
  352MOL0     C48465   2.416   2.417   2.497 -0.4130  0.0669  0.1864
  352MOL0     C48466   2.506   2.537   2.461  0.3012 -0.3267  0.8320
  352MOL0     C48467   2.447   2.291   2.449  0.0993 -0.3089  0.9428
  352MOL0     C48468   2.571   2.252   2.371 -0.0903 -0.2444  0.2726
  352MOL0     O48469   2.684   2.310   2.403 -0.2111  0.1959  0.4336
  352MOL0     C48470   2.797   2.313   2.332  1.0349 -0.3670  0.1510
  352MOL0     C48471   2.840   2.444   2.304 -0.5302  0.6999  0.2145
  352MOL0     C48472   2.954   2.466   2.231  0.0466  0.5044  0.2411
  352MOL0     C48473   3.042   2.354   2.198  1.1813 -0.3121  0.0994
  352MOL0     O48474   3.160   2.382   2.134  0.0162 -0.2470 -1.0899
  352MOL0     C48475   3.147   2.440   2.005  0.0667 -0.1017  0.1046
  352MOL0     C48476   3.282   2.506   1.966 -0.2560  0.3910  0.0380
  352MOL0     C48477   3.375   2.389   1.923  0.4954  0.0405  0.2195
  352MOL0     C48478   3.503   2.454   1.867  0.7700  0.5516 -0.2246
  352MOL0     C48479   3.616   2.365   1.818 -0.2611 -0.0139  0.2367
  352MOL0     C48480   3.707   2.461   1.751 -1.1458 -0.7932  0.1406
  352MOL0     C48481   3.824   2.380   1.690  0.5320 -0.6861  0.0721
  352MOL0     C48482   3.947   2.460   1.645  0.9457 -0.2707 -0.0738
  352MOL0    Cl48483   4.081   2.367   1.560  0.0890 -0.3069  0.3923
  352MOL0     C48484   2.996   2.223   2.216 -0.4669 -0.6836 -0.1898
  352MOL0     C48485   2.872   2.202   2.279  0.1819 -0.4602 -0.5101
  352MOL0     O48486   2.559   2.166   2.279  0.2329  0.3278 -0.2019
  352MOL0     C48487   2.354   2.186   2.473 -0.4652 -0.3754  1.2037
  352MOL0     C48488   2.239   2.209   2.540  0.4984  0.4625  0.4889
  352MOL0     N48489   1.700   2.669   2.685 -0.6803 -0.5658  0.6549
  352MOL0     N48490   1.661   2.749   2.779  0.6163  0.0622 -0.0651
  352MOL0     C48491   1.085   3.142   3.857  0.9029  0.8160 -0.3305
  352MOL0     C48492   0.949   3.151   3.893 -0.2772  0.3076  0.3095
  352MOL0     C48493   0.490   3.126   3.910  0.4422  0.2444 -0.6884
  352MOL0     C48494   0.423   3.014   3.967 -0.0488 -0.3613  0.5608
  352MOL0     C48495   0.282   2.989   3.932 -0.9883  0.4182 -0.1002
  352MOL0     C48496   0.210   3.077   3.865 -0.6316  0.1508 -0.0279
  352MOL0     O48497   0.071   3.063   3.832 -0.6168 -0.4013 -0.2907
  352MOL0     C48498  -0.017   3.007   3.926  0.1979  1.0427 -0.4190
  352MOL0     C48499  -0.151   3.039   3.890  0.3101  0.4198  0.3406
  352MOL0     C48500  -0.258   2.992   3.988 -0.7441 -0.1604  0.0168
  352MOL0     C48501  -0.396   3.002   3.925  0.1447  0.0209  0.5673
  352MOL0     C48502  -0.441   2.868   3.869  0.3823 -0.4374  0.6043
  352MOL0     C48503  -0.480   2.770   3.815  0.0711 -0.7727  0.9788
  352MOL0     C48504   0.276   3.188   3.822  0.7884  0.5559  0.5789
  352MOL0     C48505   0.410   3.220   3.840  0.0331  0.4284  1.1708
  352MOL0     C48506   0.458   3.350   3.782  0.0034  0.4200  0.1128
  352MOL0     H48507   0.810   3.229   3.587 -0.0429 -0.0574 -0.1849
  352MOL0     H48508   1.055   3.218   3.527 -1.1405  1.1194 -0.1645
  352MOL0     H48509   1.221   2.958   3.599 -0.4976 -0.4530  1.2088
  352MOL0     H48510   1.391   3.003   3.634  0.4560  1.2371  1.3449
  352MOL0     H48511   1.219   3.132   3.412 -0.4852 -0.6965 -0.0053
  352MOL0     H48512   1.368   3.194   3.468  1.1544 -0.9741  2.2633
  352MOL0     H48513   1.398   3.056   3.261  1.2916  1.1790 -0.2055
  352MOL0     H48514   1.473   2.957   3.388  1.4087  3.2772 -0.2585
  352MOL0     H48515   1.271   2.819   3.401 -1.2963  1.6220  0.7362
  352MOL0     H48516   1.178   2.924   3.311  0.4549  2.1431 -0.9899
  352MOL0     H48517   1.270   2.714   3.170  0.8470 -0.1763 -3.1231
  352MOL0     H48518   1.437   2.774   3.205  1.1576  2.5207 -1.1369
  352MOL0     H48519   1.202   2.901   3.062  0.1538 -1.0705  2.6113
  352MOL0     H48520   1.365   2.980   3.070  0.4783 -0.3623 -0.5473
  352MOL0     H48521   1.355   2.883   2.860  3.1812  3.0793  1.5559
  352MOL0     H48522   1.280   2.734   2.923 -1.9884  2.1171 -0.7356
  352MOL0     H48523   1.563   2.836   2.986  2.1005 -1.5511  0.4128
  352MOL0     H48524   1.498   2.682   3.029  0.5813  0.4019  0.3241
  352MOL0     H48525   1.424   2.527   2.778  2.5033 -3.9024  1.8559
  352MOL0     H48526   1.640   2.504   2.475 -0.3691 -0.4568 -0.8228
  352MOL0     H48527   1.519   2.406   2.554  0.9156 -0.1276  0.0774
  352MOL0     H48528   1.708   2.302   2.706  0.6406 -1.2866 -0.5720
  352MOL0     H48529   1.701   2.278   2.536  0.4181 -0.3105 -0.4043
  352MOL0     H48530   1.879   2.461   2.518 -0.4583  2.8167  0.8140
  352MOL0     H48531   1.875   2.489   2.687 -0.2032 -0.1587 -0.2017
  352MOL0     H48532   1.927   2.220   2.697 -1.0908 -2.0111 -2.6245
  352MOL0     H48533   1.966   2.245   2.528 -0.4592 -3.4394  1.8479
  352MOL0     H48534   2.268   2.525   2.621  1.0840 -0.7783  0.7022
  352MOL0     H48535   2.599   2.547   2.518  0.0606 -0.3910  1.2440
  352MOL0     H48536   2.448   2.629   2.471 -0.0171 -0.0645 -2.3248
  352MOL0     H48537   2.531   2.527   2.355  0.5037 -1.9461  1.0098
  352MOL0     H48538   2.769   2.521   2.335 -0.9534  0.7007 -0.7369
  352MOL0     H48539   2.978   2.572   2.223  0.6609  0.7523  3.6789
  352MOL0     H48540   3.115   2.364   1.933 -2.3701  2.2341 -1.4657
  352MOL0     H48541   3.059   2.506   2.003 -1.2177 -1.7200  0.6436
  352MOL0     H48542   3.259   2.563   1.876 -2.7568 -0.3018  0.1594
  352MOL0     H48543   3.325   2.571   2.043  0.8860  1.9538 -1.8298
  352MOL0     H48544   3.337   2.325   1.843  2.0738  0.1451 -0.6569
  352MOL0     H48545   3.399   2.331   2.012 -0.2357 -0.5457  0.0421
  352MOL0     H48546   3.546   2.522   1.941  2.7473  1.3053 -1.9530
  352MOL0     H48547   3.461   2.527   1.796 -0.3543  3.6917  3.3280
  352MOL0     H48548   3.669   2.318   1.901  1.1793  1.6193  0.3024
  352MOL0     H48549   3.571   2.287   1.755  0.4272  0.0280 -0.3232
  352MOL0     H48550   3.745   2.535   1.822  0.8588  0.5248 -2.1451
  352MOL0     H48551   3.651   2.510   1.671  1.6010  2.6374  0.0667
  352MOL0     H48552   3.785   2.325   1.604  2.1897  2.2534 -2.7730
  352MOL0     H48553   3.869   2.303   1.753  2.1640  0.7724  0.7906
  352MOL0     H48554   3.992   2.512   1.730  0.3479 -1.9705  1.3472
  352MOL0     H48555   3.917   2.538   1.574  3.4958  0.2021 -0.7303
  352MOL0     H48556   3.065   2.152   2.170  0.1246  0.7206 -1.5676
  352MOL0     H48557   2.836   2.102   2.299 -0.4191 -0.1414  0.0565
  352MOL0     H48558   2.362   2.083   2.440  5.0835  0.5686 -1.4938
  352MOL0     H48559   2.169   2.126   2.534  3.6269 -2.4125  0.7507
  352MOL0     H48560   1.150   3.110   3.937 -1.3324  0.0586  1.2836
  352MOL0     H48561   0.936   3.133   4.000  0.0261  4.0218  1.0972
  352MOL0     H48562   0.481   2.939   4.020 -0.3724 -0.3303  0.9692
  352MOL0     H48563   0.227   2.896   3.941 -0.5446  0.2493  0.9817
  352MOL0     H48564  -0.011   2.899   3.942 -1.8247  0.7914 -1.1119
  352MOL0     H48565   0.001   3.055   4.023  0.8160  2.5457 -1.2401
  352MOL0     H48566  -0.170   3.002   3.789 -0.5838  1.6149  0.0510
  352MOL0     H48567  -0.161   3.147   3.877  1.2503  0.2767 -2.0653
  352MOL0     H48568  -0.225   2.893   4.023 -0.9149 -0.8560 -1.6570
  352MOL0     H48569  -0.258   3.050   4.080  1.8826 -0.9742  0.6419
  352MOL0     H48570  -0.399   3.079   3.847  1.3005 -0.0157  0.4649
  352MOL0     H48571  -0.477   3.028   3.994  1.4694  0.9912  1.8025
  352MOL0     H48572  -0.520   2.679   3.775 -1.7499  1.4038 -2.6311
  352MOL0     H48573   0.212   3.261   3.774  1.9119  2.2785  1.5509
  352MOL0     H48574   0.384   3.431   3.779 -0.3094  0.1139 -0.7263
  352MOL0     H48575   0.541   3.397   3.835  0.1963  1.4230 -1.0404
  352MOL0     H48576   0.496   3.327   3.682  0.8272 -0.3068  0.5858
  353MOL0     O48577   4.825   0.514   1.598  0.0581 -0.2126  0.3059
  353MOL0     C48578   4.747   0.416   1.604 -0.3004  0.0314  0.4113
  353MOL0     O48579   4.776   0.287   1.573 -0.5847  0.0114 -0.6414
  353MOL0     C48580   4.908   0.259   1.569 -0.1401  0.4205  0.5692
  353MOL0     C48581   4.986   0.271   1.452 -0.7061 -0.9427 -0.0551
  353MOL0     C48582   5.126   0.241   1.456 -0.1614  0.6713 -0.9049
  353MOL0     C48583   5.198   0.202   1.571  0.7815 -0.0943 -0.3132
  353MOL0     O48584   5.333   0.190   1.557 -0.7813  0.0229  0.1375
  353MOL0     C48585   5.413   0.200   1.670 -0.4122 -0.5433 -0.2123
  353MOL0     C48586   5.552   0.254   1.636  0.3812  0.1875  0.1541
  353MOL0     C48587   5.640   0.278   1.760 -0.6115  0.0374  0.1860
  353MOL0     C48588   5.696   0.136   1.810  0.0584  1.0571 -0.4532
  353MOL0     C48589   5.770   0.147   1.939 -0.4390  0.3744 -0.0981
  353MOL0     C48590   5.833   0.015   1.984  0.2840  0.3018  0.1975
  353MOL0     C48591   5.906   0.032   2.108 -0.3779  0.4966  0.0178
  353MOL0     C48592   5.999  -0.089   2.143 -0.9993 -0.1206 -0.3827
  353MOL0     N48593   6.098  -0.113   2.049 -0.6211  0.5867 -0.0503
  353MOL0     C48594   6.205  -0.024   2.026  0.0897  0.0125 -0.3736
  353MOL0     C48595   6.278  -0.090   1.931  0.6440 -0.5504 -0.3490
  353MOL0     C48596   6.385  -0.015   1.847 -0.1240  0.7783  0.6388
  353MOL0     C48597   6.485  -0.104   1.768 -0.0019  0.4641  0.5245
  353MOL0     C48598   6.566  -0.175   1.869 -0.4272 -0.0602  0.3620
  353MOL0     C48599   6.662  -0.275   1.803  0.6853  0.1274 -0.1177
  353MOL0     O48600   6.762  -0.310   1.901 -0.4569  0.2569  0.1951
  353MOL0     C48601   6.869  -0.391   1.875 -0.0052 -0.0197  0.5826
  353MOL0     C48602   6.880  -0.456   1.749 -0.3565  0.5507  0.6171
  353MOL0     C48603   6.988  -0.545   1.724  0.4555 -0.4645  0.0786
  353MOL0     C48604   6.999  -0.596   1.578  0.1590 -0.2631 -0.5613
  353MOL0     C48605   7.085  -0.564   1.828  0.1325  0.7435  0.8393
  353MOL0     C48606   7.205  -0.660   1.817 -0.3727 -0.7471 -0.0512
  353MOL0     O48607   7.207  -0.730   1.704 -0.1775 -0.3323  0.6580
  353MOL0     C48608   7.311  -0.811   1.683  0.9588 -0.2970 -0.3667
  353MOL0     C48609   7.447  -0.771   1.674 -0.3234 -0.0891  0.2203
  353MOL0     C48610   7.537  -0.859   1.629 -0.5945  0.3708 -0.8397
  353MOL0     C48611   7.500  -0.989   1.578 -0.9922 -0.0153  0.6147
  353MOL0     O48612   7.589  -1.069   1.515  0.7529  1.3171  0.7258
  353MOL0     C48613   7.729  -1.055   1.524 -0.4995 -0.1137 -0.4768
  353MOL0     C48614   7.790  -1.149   1.427 -0.0570 -0.1805  0.4106
  353MOL0     C48615   7.933  -1.137   1.439 -0.7282  0.1200 -0.3516
  353MOL0     C48616   7.999  -1.231   1.328 -0.4423  0.7950 -0.1907
  353MOL0     C48617   8.153  -1.235   1.328 -0.1763 -0.5830  0.2471
  353MOL0     C48618   8.219  -1.303   1.205 -0.3310 -0.0731 -0.1230
  353MOL0     C48619   8.370  -1.327   1.222 -0.3959 -1.7766 -0.1607
  353MOL0     C48620   8.426  -1.403   1.106 -0.4264  0.2307 -0.6781
  353MOL0    Cl48621   8.370  -1.573   1.140 -0.0966 -0.1372  0.1959
  353MOL0     C48622   7.369  -1.030   1.588  0.1564  0.2041 -0.0700
  353MOL0     C48623   7.275  -0.944   1.647  0.5927 -0.6520 -0.8741
  353MOL0     O48624   7.292  -0.669   1.907 -0.0946 -0.7768  0.4042
  353MOL0     C48625   7.072  -0.494   1.951  0.1673  0.4416  0.3590
  353MOL0     C48626   6.963  -0.409   1.969  0.2802  0.1237  0.0576
  353MOL0     N48627   6.211  -0.206   1.892 -0.9515  0.6628 -0.2609
  353MOL0     N48628   6.101  -0.221   1.961  0.0803  0.5635  0.6372
  353MOL0     C48629   5.119   0.189   1.685 -0.0565 -0.2787  0.6070
  353MOL0     C48630   4.979   0.215   1.681 -0.1690 -0.0709 -1.1351
  353MOL0     C48631   4.605   0.448   1.644 -0.2017  0.2116  0.0279
  353MOL0     C48632   4.512   0.337   1.659 -0.1962 -0.1373 -0.1894
  353MOL0     C48633   4.377   0.342   1.696 -0.4839 -0.3883  0.4345
  353MOL0     C48634   4.318   0.469   1.710 -0.4094 -0.6466 -0.2316
  353MOL0     O48635   4.181   0.462   1.744 -0.2869  0.0502  1.0060
  353MOL0     C48636   4.116   0.594   1.741  1.4557  0.1738  0.2584
  353MOL0     C48637   3.965   0.586   1.740  0.5791  0.3064 -0.2000
  353MOL0     C48638   3.914   0.480   1.634 -0.0520 -0.4113  0.0893
  353MOL0     C48639   3.757   0.491   1.624  0.4994  0.1539 -0.7091
  353MOL0     C48640   3.699   0.614   1.569 -0.4534  0.9684  0.1549
  353MOL0     C48641   3.653   0.721   1.543 -0.5613 -1.1560 -0.1797
  353MOL0     C48642   4.409   0.579   1.686 -0.3372 -0.2664 -0.6210
  353MOL0     C48643   4.551   0.576   1.664 -0.2435 -0.0702 -0.4767
  353MOL0     C48644   4.632   0.708   1.660 -0.1691  0.6435 -0.4794
  353MOL0     H48645   4.937   0.306   1.362 -0.1011 -2.4602 -1.0326
  353MOL0     H48646   5.165   0.247   1.355 -3.0722  1.5416 -2.0886
  353MOL0     H48647   5.399   0.104   1.720 -3.7132 -0.6828 -1.1600
  353MOL0     H48648   5.363   0.270   1.738 -2.0494 -1.7158 -0.1523
  353MOL0     H48649   5.606   0.187   1.569 -0.4247 -0.4703  0.1464
  353MOL0     H48650   5.535   0.344   1.576  0.3252 -1.3095 -2.2041
  353MOL0     H48651   5.720   0.350   1.741 -0.5610  0.9397  3.2540
  353MOL0     H48652   5.572   0.313   1.838 -0.2986 -0.4773  0.6943
  353MOL0     H48653   5.615   0.062   1.813  0.4643  0.6240  0.3351
  353MOL0     H48654   5.766   0.099   1.735  2.2625 -1.1420  2.4484
  353MOL0     H48655   5.697   0.191   2.008 -0.9835 -0.3545 -0.2029
  353MOL0     H48656   5.844   0.225   1.917  2.2012 -2.3451 -1.4816
  353MOL0     H48657   5.756  -0.060   2.006 -0.9226  1.0366 -1.3421
  353MOL0     H48658   5.908  -0.017   1.912  1.2494  3.4548 -0.3275
  353MOL0     H48659   5.835   0.044   2.191  0.2208  0.6606  0.5199
  353MOL0     H48660   5.953   0.131   2.106 -0.3652  0.4807 -0.5873
  353MOL0     H48661   6.050  -0.071   2.238  0.7100 -1.5759 -0.9669
  353MOL0     H48662   5.935  -0.178   2.148  0.4099 -1.4710 -3.4357
  353MOL0     H48663   6.209   0.080   2.057  1.0311  0.0863 -0.7182
  353MOL0     H48664   6.436   0.054   1.915  1.5979  0.7330 -0.5356
  353MOL0     H48665   6.330   0.044   1.774 -0.7306  1.7542  1.8471
  353MOL0     H48666   6.429  -0.177   1.709 -0.9638  2.1013 -0.6908
  353MOL0     H48667   6.553  -0.037   1.715 -2.1091  3.4026  1.1968
  353MOL0     H48668   6.624  -0.103   1.928  1.2054 -1.4289  0.5320
  353MOL0     H48669   6.503  -0.226   1.942  0.0678  0.1208  0.9332
  353MOL0     H48670   6.598  -0.361   1.781  0.2090  0.7088 -1.0882
  353MOL0     H48671   6.710  -0.230   1.715  3.2578  2.4309  2.2886
  353MOL0     H48672   6.811  -0.425   1.671 -0.1617 -0.4563  0.0340
  353MOL0     H48673   7.089  -0.557   1.528  0.2907 -2.4607 -2.1932
  353MOL0     H48674   6.920  -0.566   1.508  0.6942  0.6340 -0.7972
  353MOL0     H48675   6.996  -0.705   1.573 -2.3495 -0.1981 -2.3562
  353MOL0     H48676   7.473  -0.671   1.708 -0.7334  0.5038 -1.1095
  353MOL0     H48677   7.640  -0.825   1.633 -0.6347  0.3695  2.2261
  353MOL0     H48678   7.770  -0.958   1.495 -1.3982  0.3570 -0.2348
  353MOL0     H48679   7.760  -1.080   1.626  3.2415  2.2706 -0.8362
  353MOL0     H48680   7.759  -1.253   1.445 -2.4239  0.6807  1.7350
  353MOL0     H48681   7.751  -1.114   1.330  3.0274  0.6368 -0.6338
  353MOL0     H48682   7.968  -1.170   1.537 -2.1972  0.9505  0.4853
  353MOL0     H48683   7.967  -1.034   1.423  0.5061 -0.6651 -3.5784
  353MOL0     H48684   7.974  -1.188   1.231 -1.1231 -2.1188 -1.4089
  353MOL0     H48685   7.966  -1.335   1.341 -0.1293  0.9222  2.0550
  353MOL0     H48686   8.195  -1.134   1.330  0.0678 -0.6775  0.0311
  353MOL0     H48687   8.178  -1.276   1.426 -0.1176  0.9140  0.8808
  353MOL0     H48688   8.209  -1.234   1.121 -0.8082  0.8676  0.6844
  353MOL0     H48689   8.170  -1.399   1.187 -0.2285  0.0046 -0.8608
  353MOL0     H48690   8.380  -1.381   1.316 -1.8985 -0.5091  0.7875
  353MOL0     H48691   8.416  -1.228   1.216 -1.8041 -0.9596  1.5599
  353MOL0     H48692   8.535  -1.393   1.110 -0.5950  2.3117 -0.2668
  353MOL0     H48693   8.391  -1.376   1.007  2.0115  0.0801 -1.6556
  353MOL0     H48694   7.333  -1.131   1.574  0.7697 -0.0399  0.1183
  353MOL0     H48695   7.169  -0.964   1.658 -0.0853  2.6949 -0.1903
  353MOL0     H48696   7.141  -0.524   2.029 -1.6552 -0.5940  1.6446
  353MOL0     H48697   6.948  -0.366   2.068  2.1361 -1.6724  1.1953
  353MOL0     H48698   5.168   0.177   1.781  1.9335  0.1479 -0.3003
  353MOL0     H48699   4.915   0.211   1.769  0.3920  1.5229 -0.6362
  353MOL0     H48700   4.550   0.238   1.635 -2.6500 -1.0784 -0.4792
  353MOL0     H48701   4.323   0.249   1.710 -0.2579 -0.9511 -1.9093
  353MOL0     H48702   4.140   0.657   1.826 -0.0181  2.4283 -0.8977
  353MOL0     H48703   4.148   0.649   1.652  1.0928 -0.6442 -0.3980
  353MOL0     H48704   3.923   0.682   1.707 -2.0493 -0.7794 -0.2473
  353MOL0     H48705   3.931   0.563   1.842 -0.2988  4.2919  0.6166
  353MOL0     H48706   3.950   0.515   1.537 -4.1567  0.2982 -1.3456
  353MOL0     H48707   3.941   0.379   1.667  0.4252 -1.4279 -3.0970
  353MOL0     H48708   3.714   0.476   1.723  0.7632  0.9721 -0.4559
  353MOL0     H48709   3.721   0.410   1.560 -1.8251  0.0442  0.6524
  353MOL0     H48710   3.613   0.815   1.512 -0.4663 -0.6012  1.2992
  353MOL0     H48711   4.373   0.681   1.694  0.0477 -0.1870  0.2161
  353MOL0     H48712   4.686   0.719   1.754 -1.1603  3.1548 -0.1377
  353MOL0     H48713   4.690   0.717   1.568  0.1101  0.1736 -0.3485
  353MOL0     H48714   4.557   0.788   1.660  1.3430  2.1330  1.0177
  354MOL0     O48715   3.704   3.091  10.225  0.2150 -0.3160  0.1375
  354MOL0     C48716   3.632   3.099  10.327 -0.3104  0.2349  0.0664
  354MOL0     O48717   3.630   3.005  10.428 -0.3058 -0.5818  0.6070
  354MOL0     C48718   3.702   2.887  10.416 -0.9649 -0.1436  0.0718
  354MOL0     C48719   3.650   2.758  10.419  0.6672  0.1055 -0.0027
  354MOL0     C48720   3.727   2.638  10.397  0.7406 -0.2194  0.3725
  354MOL0     C48721   3.863   2.654  10.377 -0.2788 -0.0794 -0.4789
  354MOL0     O48722   3.942   2.551  10.349 -0.3051  0.4061 -0.1760
  354MOL0     C48723   3.901   2.424  10.391 -0.7997  1.1114  1.1269
  354MOL0     C48724   4.013   2.323  10.367  0.0190  0.3017  0.1976
  354MOL0     C48725   4.032   2.286  10.211 -0.0553  0.1066 -0.4566
  354MOL0     C48726   4.153   2.197  10.192  0.4484 -0.3887 -0.2119
  354MOL0     C48727   4.183   2.170  10.043  0.2448 -0.3342 -0.2871
  354MOL0     C48728   4.239   2.297   9.964  0.0732  0.4542 -0.2216
  354MOL0     C48729   4.279   2.269   9.813 -0.2996 -0.3191  0.1231
  354MOL0     C48730   4.388   2.171   9.795 -0.1754 -0.5472 -0.0432
  354MOL0     N48731   4.513   2.245   9.815 -0.1826 -0.1346 -0.3160
  354MOL0     C48732   4.596   2.307   9.722 -0.3476  0.1917  0.4577
  354MOL0     C48733   4.702   2.347   9.796  0.0819 -0.7895  0.4008
  354MOL0     C48734   4.821   2.425   9.745  0.0377  0.1144 -0.2717
  354MOL0     C48735   4.955   2.356   9.798  0.3212  0.1701  0.9450
  354MOL0     C48736   5.092   2.404   9.739  0.1123 -0.4671 -0.7121
  354MOL0     C48737   5.116   2.366   9.591 -0.6825  0.7187 -0.2951
  354MOL0     O48738   5.124   2.225   9.572 -0.1696 -0.0147  0.1824
  354MOL0     C48739   5.243   2.160   9.589  0.0254 -0.2891 -0.0621
  354MOL0     C48740   5.249   2.023   9.550  0.0769 -0.4741  0.2943
  354MOL0     C48741   5.360   1.939   9.574  0.1972 -0.5680  0.6596
  354MOL0     C48742   5.346   1.801   9.517  0.5551  0.0870  0.9552
  354MOL0     C48743   5.476   1.990   9.637 -0.3695 -0.5001  0.3580
  354MOL0     C48744   5.594   1.911   9.662  0.4383 -0.1024 -0.2621
  354MOL0     O48745   5.691   1.985   9.727  0.0508 -0.2955  0.4498
  354MOL0     C48746   5.821   1.933   9.719 -0.0621 -0.5012  0.1998
  354MOL0     C48747   5.929   2.007   9.677  0.4932  0.2108  0.5619
  354MOL0     C48748   6.064   1.968   9.703  0.6042 -0.0141 -0.0084
  354MOL0     C48749   6.086   1.846   9.769 -0.7340  0.1983  0.4221
  354MOL0     O48750   6.212   1.794   9.792 -0.6832 -0.2625 -0.0539
  354MOL0     C48751   6.315   1.860   9.718 -0.5189 -0.0578 -0.5577
  354MOL0     C48752   6.455   1.812   9.756  0.9550  0.4663  0.1547
  354MOL0     C48753   6.494   1.818   9.903 -0.5195  0.0243 -0.3030
  354MOL0     C48754   6.644   1.788   9.913  0.5396 -0.6181  0.1274
  354MOL0     C48755   6.671   1.781  10.062  0.2969  0.7014  0.2387
  354MOL0     C48756   6.816   1.740  10.093 -0.3286 -0.5907  0.7972
  354MOL0     C48757   6.852   1.733  10.243  0.7244  0.1523  0.0269
  354MOL0     C48758   6.990   1.669  10.270  0.3900 -0.4716  1.3156
  354MOL0    Cl48759   7.115   1.781  10.215  0.3168 -0.1857 -0.0024
  354MOL0     C48760   5.982   1.762   9.813 -0.3279 -0.6891 -0.1040
  354MOL0     C48761   5.848   1.802   9.786  0.4446  0.8893  0.7348
  354MOL0     O48762   5.598   1.789   9.630 -0.6189 -0.7036  0.1531
  354MOL0     C48763   5.482   2.133   9.672 -0.0808 -0.2089  0.2647
  354MOL0     C48764   5.364   2.211   9.646  0.1775  0.4997  0.1113
  354MOL0     N48765   4.678   2.326   9.933 -0.7026 -0.5856 -0.3799
  354MOL0     N48766   4.568   2.264   9.939  0.1617  0.6079  0.4924
  354MOL0     C48767   3.927   2.780  10.378  0.3162 -0.6145  0.6095
  354MOL0     C48768   3.842   2.887  10.385  0.3669 -0.1785 -0.3109
  354MOL0     C48769   3.549   3.217  10.342  0.1158  0.0435  0.3362
  354MOL0     C48770   3.605   3.339  10.311 -0.8961  0.6746 -0.5099
  354MOL0     C48771   3.532   3.455  10.341  0.0627 -0.5352 -0.2126
  354MOL0     C48772   3.402   3.456  10.392 -0.2841 -1.3421 -0.2499
  354MOL0     O48773   3.358   3.584  10.430  0.7250 -0.0650 -0.4137
  354MOL0     C48774   3.218   3.597  10.460  0.1569 -0.2166 -0.3271
  354MOL0     C48775   3.145   3.620  10.325  0.2314 -0.6560  0.4882
  354MOL0     C48776   3.010   3.697  10.336 -0.4549 -0.7930 -0.5421
  354MOL0     C48777   2.937   3.687  10.202  0.4164  0.3165 -0.2590
  354MOL0     C48778   2.797   3.736  10.212  0.3977 -0.1479  1.0732
  354MOL0     C48779   2.695   3.785  10.216  0.4195  0.5222  0.1806
  354MOL0     C48780   3.348   3.327  10.417 -0.2740  0.6261  1.0172
  354MOL0     C48781   3.417   3.207  10.385  0.4469 -0.8373  0.3742
  354MOL0     C48782   3.346   3.072  10.401 -0.1676 -0.2212  0.4873
  354MOL0     H48783   3.546   2.744  10.447  0.9488  0.5306  1.3619
  354MOL0     H48784   3.675   2.543  10.406 -1.5992  0.9336 -0.2124
  354MOL0     H48785   3.815   2.384  10.336  0.6310 -0.2823 -0.1931
  354MOL0     H48786   3.882   2.420  10.499  0.0805  0.3726  1.2643
  354MOL0     H48787   4.112   2.345  10.408  0.2432 -1.3023  0.5919
  354MOL0     H48788   3.988   2.229  10.417 -0.7874  0.5743  0.3204
  354MOL0     H48789   3.950   2.227  10.169 -1.1724  2.2276 -1.3928
  354MOL0     H48790   4.034   2.381  10.157  0.7272 -0.5354 -1.5994
  354MOL0     H48791   4.244   2.228  10.244 -0.1452  0.5211  0.3060
  354MOL0     H48792   4.126   2.101  10.239  0.8428 -0.6908 -0.5871
  354MOL0     H48793   4.090   2.140   9.993 -0.2739  0.9771 -0.1508
  354MOL0     H48794   4.256   2.089  10.035 -1.0557 -1.4989 -0.8083
  354MOL0     H48795   4.177   2.386   9.974  1.1299  1.1482  0.2479
  354MOL0     H48796   4.334   2.316  10.014 -0.4673  0.4022  0.8454
  354MOL0     H48797   4.305   2.360   9.758  0.2965 -1.2326 -1.1507
  354MOL0     H48798   4.185   2.239   9.765 -1.1659  0.1877  1.4396
  354MOL0     H48799   4.376   2.094   9.872 -1.5533  0.8095  1.1525
  354MOL0     H48800   4.377   2.136   9.692 -2.7217 -2.5671  0.8155
  354MOL0     H48801   4.586   2.313   9.614 -0.4346  1.8830  0.5329
  354MOL0     H48802   4.826   2.531   9.770  2.1972  0.3650 -1.4822
  354MOL0     H48803   4.813   2.429   9.636  3.7056 -1.8781 -0.7836
  354MOL0     H48804   4.946   2.368   9.906 -1.2997 -1.9528  1.1201
  354MOL0     H48805   4.941   2.249   9.778  0.4634  0.7882 -3.4007
  354MOL0     H48806   5.108   2.510   9.757 -1.1912 -0.4212  0.3210
  354MOL0     H48807   5.167   2.349   9.796 -0.9045 -1.5867 -0.4046
  354MOL0     H48808   5.031   2.407   9.536  1.0116  2.1288 -2.0057
  354MOL0     H48809   5.207   2.412   9.551  0.2244  1.1192  2.0097
  354MOL0     H48810   5.152   1.994   9.510  1.1975  0.8140 -3.7530
  354MOL0     H48811   5.248   1.783   9.470  1.4868 -0.5220 -0.8569
  354MOL0     H48812   5.342   1.738   9.606  0.7346 -1.3569 -0.0126
  354MOL0     H48813   5.430   1.776   9.451  0.9985 -0.0574  1.5703
  354MOL0     H48814   5.928   2.107   9.635  1.0523 -0.0491 -0.0889
  354MOL0     H48815   6.130   2.048   9.672  0.1223  1.0907  1.6414
  354MOL0     H48816   6.292   1.861   9.611 -0.0013 -1.2533 -0.6992
  354MOL0     H48817   6.327   1.965   9.746  3.3249  0.1804 -2.4532
  354MOL0     H48818   6.480   1.719   9.704  2.4372  1.7636 -1.5943
  354MOL0     H48819   6.515   1.884   9.699  1.6218  2.4420  3.1592
  354MOL0     H48820   6.428   1.743   9.948 -0.2038  1.6579  3.2208
  354MOL0     H48821   6.466   1.915   9.944 -0.6250  1.4822 -3.4838
  354MOL0     H48822   6.699   1.874   9.874 -0.6343 -0.0280 -0.2634
  354MOL0     H48823   6.677   1.698   9.859  3.1491 -0.0679  0.7092
  354MOL0     H48824   6.660   1.877  10.114 -3.0007 -1.1851  3.5065
  354MOL0     H48825   6.610   1.713  10.122  1.9793 -1.7906 -0.6986
  354MOL0     H48826   6.889   1.806  10.045 -0.7700  0.3219  1.3607
  354MOL0     H48827   6.840   1.644  10.046  0.8062  0.8262 -1.7697
  354MOL0     H48828   6.775   1.666  10.282  1.8842 -0.8678  0.6405
  354MOL0     H48829   6.844   1.825  10.301 -1.8937  1.3166 -1.9616
  354MOL0     H48830   7.000   1.576  10.213  1.6623  0.9561 -0.8927
  354MOL0     H48831   6.987   1.658  10.379  1.4517  0.5485  1.4734
  354MOL0     H48832   5.996   1.665   9.859 -2.6801 -1.5043 -0.9301
  354MOL0     H48833   5.773   1.735   9.825  0.7069  1.2550  1.9176
  354MOL0     H48834   5.563   2.193   9.711 -1.2653 -0.5193  3.5053
  354MOL0     H48835   5.379   2.318   9.656  0.1279  0.7096 -1.8318
  354MOL0     H48836   4.034   2.786  10.357  0.1745 -1.3713 -0.4934
  354MOL0     H48837   3.885   2.986  10.375  0.3113 -0.2742 -1.5800
  354MOL0     H48838   3.710   3.342  10.285 -1.2057  1.2837 -1.7623
  354MOL0     H48839   3.574   3.555  10.342 -2.1616  0.4805 -1.3618
  354MOL0     H48840   3.180   3.515  10.521 -1.7228  1.0437  0.2732
  354MOL0     H48841   3.215   3.685  10.526  1.1467  0.6864 -1.4153
  354MOL0     H48842   3.120   3.526  10.275 -1.5945 -0.8101  1.6017
  354MOL0     H48843   3.219   3.678  10.269  2.0275 -0.0205  3.3387
  354MOL0     H48844   2.944   3.656  10.413 -0.8893  0.6460 -0.1010
  354MOL0     H48845   3.020   3.803  10.361 -0.7001 -0.5833 -1.2933
  354MOL0     H48846   2.945   3.587  10.158 -2.1575  1.0664 -2.6881
  354MOL0     H48847   2.995   3.742  10.127  2.3383 -3.9205 -2.1934
  354MOL0     H48848   2.603   3.836  10.239  1.6485  2.4114  1.1048
  354MOL0     H48849   3.248   3.332  10.459 -0.0666  3.0075  1.3471
  354MOL0     H48850   3.388   3.023  10.489 -2.4657  2.0330  3.0321
  354MOL0     H48851   3.241   3.075  10.430  0.5757  1.7867  3.4109
  354MOL0     H48852   3.359   3.006  10.314  2.7699  0.1779  0.5079
  355MOL0     O48853   8.677  10.535  10.300 -0.1735  0.0018 -0.2765
  355MOL0     C48854   8.630  10.577  10.201 -0.9774 -0.4801  0.6324
  355MOL0     O48855   8.703  10.615  10.090 -0.2041 -0.3153  0.8097
  355MOL0     C48856   8.837  10.639  10.090 -0.6687 -0.1347 -0.0191
  355MOL0     C48857   8.895  10.626   9.967  0.5891  0.2543  0.3528
  355MOL0     C48858   9.035  10.641   9.955 -0.8702 -0.0072 -0.0009
  355MOL0     C48859   9.115  10.677  10.071  0.1200 -0.3051 -0.9681
  355MOL0     O48860   9.252  10.683  10.060 -0.5944 -0.2479 -0.1484
  355MOL0     C48861   9.344  10.722  10.167 -0.2091 -0.2470 -0.5643
  355MOL0     C48862   9.362  10.589  10.242 -0.2107  0.1163  0.3940
  355MOL0     C48863   9.469  10.609  10.351  0.2945 -0.1066  0.0080
  355MOL0     C48864   9.588  10.519  10.321  0.1177 -0.0116  0.7016
  355MOL0     C48865   9.704  10.541  10.417  0.7118  0.1884 -0.5223
  355MOL0     C48866   9.801  10.418  10.406 -0.0834  0.2233 -0.2724
  355MOL0     C48867   9.862  10.410  10.265  0.0671 -0.2100  0.1034
  355MOL0     C48868   9.963  10.518  10.226  0.0760 -0.1927  0.3855
  355MOL0     N48869  10.077  10.537  10.317 -0.3165 -0.0257  0.4141
  355MOL0     C48870  10.214  10.538  10.284  0.5831 -0.2410  0.5924
  355MOL0     C48871  10.271  10.602  10.388  0.4939  0.4554  1.2099
  355MOL0     C48872  10.407  10.655  10.394  0.5298 -0.3337 -0.8515
  355MOL0     C48873  10.487  10.579  10.497  0.0432  0.2557  0.4441
  355MOL0     C48874  10.620  10.636  10.479  0.3139 -0.5677  0.4341
  355MOL0     C48875  10.715  10.580  10.577 -0.5371 -0.4073 -0.0970
  355MOL0     O48876  10.846  10.624  10.536  0.4041 -0.4110 -0.2403
  355MOL0     C48877  10.959  10.573  10.595  0.0929 -0.5237 -0.8777
  355MOL0     C48878  11.077  10.612  10.526 -0.4882  0.6722 -0.9904
  355MOL0     C48879  11.197  10.542  10.552  0.0795 -0.1547 -0.7220
  355MOL0     C48880  11.321  10.581  10.482  0.0294  0.3020 -0.2340
  355MOL0     C48881  11.185  10.440  10.648  0.1593 -0.3908  0.3230
  355MOL0     C48882  11.304  10.377  10.694  0.1055 -0.3526  0.4077
  355MOL0     O48883  11.398  10.454  10.755 -0.1985  0.8525  0.6615
  355MOL0     C48884  11.506  10.392  10.806  0.5514  0.0518  0.6233
  355MOL0     C48885  11.506  10.322  10.933  0.6636  0.0428  0.0904
  355MOL0     C48886  11.629  10.287  10.989  0.7488 -0.3116 -0.1896
  355MOL0     C48887  11.749  10.306  10.920 -0.0377 -0.0381  0.2583
  355MOL0     O48888  11.869  10.280  10.978 -0.2714 -0.0636 -0.2562
  355MOL0     C48889  11.883  10.158  11.045  0.2659 -0.6323 -0.4276
  355MOL0     C48890  12.030  10.129  11.069 -0.2487  0.5153  0.0927
  355MOL0     C48891  12.096  10.103  10.928  1.1750 -0.0097  0.7707
  355MOL0     C48892  12.247  10.130  10.923 -0.2319 -0.4777  0.0025
  355MOL0     C48893  12.314   9.998  10.963 -0.1827  0.7809  0.7113
  355MOL0     C48894  12.469  10.015  10.959  0.0446  0.0822  1.2324
  355MOL0     C48895  12.551   9.900  11.033  0.4510 -0.1497  0.1331
  355MOL0     C48896  12.685   9.894  10.962 -0.4911 -1.2395 -0.2047
  355MOL0    Cl48897  12.777  10.048  11.005 -0.2035  0.0466 -0.1239
  355MOL0     C48898  11.744  10.357  10.793 -0.1964 -0.2544 -0.5831
  355MOL0     C48899  11.624  10.394  10.735 -0.0938 -0.0967  0.1012
  355MOL0     O48900  11.318  10.256  10.671  0.4010  0.2359 -0.1832
  355MOL0     C48901  11.079  10.414  10.724  0.7551 -0.3688  1.0769
  355MOL0     C48902  10.958  10.476  10.696  0.1284 -0.4123 -0.0327
  355MOL0     N48903  10.173  10.634  10.482  0.4656  0.0645 -0.8373
  355MOL0     N48904  10.059  10.595  10.436 -0.0400 -0.8828  0.2399
  355MOL0     C48905   9.050  10.684  10.196 -0.8071  0.2720 -0.2104
  355MOL0     C48906   8.911  10.670  10.203 -0.1252  0.2057 -0.2506
  355MOL0     C48907   8.486  10.595  10.189  0.5786  1.0484 -0.7794
  355MOL0     C48908   8.405  10.609  10.306 -0.3078  1.3286 -0.2880
  355MOL0     C48909   8.263  10.625  10.306 -0.0095 -0.0594  0.0696
  355MOL0     C48910   8.192  10.629  10.191 -0.4489  0.1131  0.8529
  355MOL0     O48911   8.058  10.636  10.175 -0.2948  0.3050 -0.4217
  355MOL0     C48912   7.964  10.618  10.288 -0.9748 -0.7817 -0.9224
  355MOL0     C48913   7.936  10.755  10.350  0.1177 -0.2607  0.1145
  355MOL0     C48914   7.852  10.851  10.265 -0.3465  0.3133 -0.7522
  355MOL0     C48915   7.699  10.825  10.275 -0.1385  0.4323  0.4868
  355MOL0     C48916   7.657  10.858  10.411 -0.4930  0.1576 -0.9159
  355MOL0     C48917   7.613  10.877  10.524  0.0837  0.7283  0.7803
  355MOL0     C48918   8.271  10.622  10.076  0.0767 -0.2510  0.0862
  355MOL0     C48919   8.408  10.596  10.070 -0.3403  0.2049 -0.4971
  355MOL0     C48920   8.469  10.584   9.933  0.3760  0.2347 -0.1258
  355MOL0     H48921   8.829  10.599   9.885  0.0021  0.0818  0.8714
  355MOL0     H48922   9.076  10.617   9.857 -0.3043 -0.4879  0.3485
  355MOL0     H48923   9.311  10.808  10.227  2.2633 -1.3584  2.6181
  355MOL0     H48924   9.443  10.748  10.128  1.7108 -0.4791  3.5881
  355MOL0     H48925   9.270  10.544  10.279 -0.4455  0.1951 -0.0837
  355MOL0     H48926   9.402  10.520  10.167 -0.1508  0.9138 -0.3207
  355MOL0     H48927   9.497  10.715  10.348  0.8045 -0.2656 -1.0559
  355MOL0     H48928   9.427  10.594  10.451 -1.7472  2.9048 -0.2666
  355MOL0     H48929   9.550  10.416  10.316 -1.6870  0.6414  0.0545
  355MOL0     H48930   9.624  10.551  10.223 -3.1492  0.2622 -0.5508
  355MOL0     H48931   9.679  10.528  10.522  6.5137  0.0241  1.1582
  355MOL0     H48932   9.759  10.635  10.425 -3.0307  2.4291  2.0117
  355MOL0     H48933   9.882  10.417  10.479 -2.9838 -6.1264  3.7039
  355MOL0     H48934   9.748  10.326  10.433  1.2916  0.2389  2.8463
  355MOL0     H48935   9.787  10.412  10.185 -1.4304  0.8357  1.4749
  355MOL0     H48936   9.912  10.313  10.272 -0.6588 -0.6471 -0.5719
  355MOL0     H48937   9.991  10.495  10.122 -1.3271  0.3510 -0.1475
  355MOL0     H48938   9.914  10.615  10.211  3.2052  1.3128 -0.9352
  355MOL0     H48939  10.258  10.502  10.192 -1.3368  0.1932 -0.5645
  355MOL0     H48940  10.386  10.760  10.412 -0.5567 -0.0760 -3.1612
  355MOL0     H48941  10.443  10.659  10.290 -2.1864  1.8387 -1.8137
  355MOL0     H48942  10.447  10.588  10.598  1.3519 -0.3165  1.0306
  355MOL0     H48943  10.485  10.474  10.466  1.2002  0.6079 -0.9237
  355MOL0     H48944  10.653  10.618  10.376 -0.9002 -0.3202 -0.0274
  355MOL0     H48945  10.609  10.742  10.503 -3.7239 -0.3423 -1.4493
  355MOL0     H48946  10.688  10.618  10.677 -1.7209  2.9854 -1.5226
  355MOL0     H48947  10.708  10.472  10.587 -0.4645 -0.2502  2.3587
  355MOL0     H48948  11.080  10.688  10.449  1.4347  0.9776 -0.6768
  355MOL0     H48949  11.298  10.658  10.408 -0.4592  1.6099  1.2380
  355MOL0     H48950  11.356  10.489  10.434 -0.4308  0.2856 -0.5507
  355MOL0     H48951  11.402  10.614  10.548  0.7936  1.4345 -1.6700
  355MOL0     H48952  11.414  10.310  10.989 -1.1580 -1.1124 -2.8926
  355MOL0     H48953  11.642  10.253  11.091 -1.8014 -0.5951  0.1130
  355MOL0     H48954  11.848  10.160  11.148  1.3226  0.6177 -0.0709
  355MOL0     H48955  11.842  10.070  10.993 -0.7998 -1.2560  1.3593
  355MOL0     H48956  12.081  10.205  11.129 -1.5128  1.5647 -0.1402
  355MOL0     H48957  12.038  10.039  11.132  0.1882  0.0696 -0.5789
  355MOL0     H48958  12.048  10.168  10.854  0.6704 -0.4294  0.7266
  355MOL0     H48959  12.079  10.004  10.885 -0.6175  0.7065 -0.3021
  355MOL0     H48960  12.280  10.208  10.992  0.0074  0.1134 -0.7683
  355MOL0     H48961  12.285  10.166  10.827  1.0190 -0.3456  0.5356
  355MOL0     H48962  12.277   9.972  11.063 -2.2191  1.7354  0.2497
  355MOL0     H48963  12.285   9.908  10.908  1.3407 -1.2124  2.9465
  355MOL0     H48964  12.498  10.113  10.999  0.6712  0.2198  0.4539
  355MOL0     H48965  12.489  10.014  10.852 -0.7619 -0.4478  1.0784
  355MOL0     H48966  12.510   9.799  11.021  0.0348 -0.1663  1.5298
  355MOL0     H48967  12.555   9.910  11.142  0.2167  1.4038  0.0200
  355MOL0     H48968  12.673   9.898  10.853  0.1774 -3.0231 -0.3743
  355MOL0     H48969  12.749   9.811  10.992  2.0981  0.8569  0.4323
  355MOL0     H48970  11.840  10.371  10.744 -0.3206 -1.1936 -1.1233
  355MOL0     H48971  11.624  10.432  10.634  1.5460 -0.4515 -0.0576
  355MOL0     H48972  11.094  10.335  10.797  0.5609 -2.0913 -0.6709
  355MOL0     H48973  10.870  10.452  10.754 -0.5317 -1.1057 -1.2781
  355MOL0     H48974   9.100  10.700  10.291 -3.1959  0.2550  1.1274
  355MOL0     H48975   8.861  10.690  10.297 -2.7084 -0.2447 -1.4503
  355MOL0     H48976   8.457  10.614  10.402 -0.4777  0.9368 -0.1716
  355MOL0     H48977   8.212  10.638  10.400  0.5479  1.8462  0.1583
  355MOL0     H48978   7.875  10.569  10.247 -1.9657  0.1702  0.0212
  355MOL0     H48979   8.010  10.554  10.364 -0.1333 -1.7347 -2.1910
  355MOL0     H48980   8.033  10.803  10.367  1.4861 -3.1283  1.0505
  355MOL0     H48981   7.885  10.745  10.446  1.2554  1.5856  0.9868
  355MOL0     H48982   7.868  10.957  10.288 -1.6430  0.1413  1.1347
  355MOL0     H48983   7.893  10.835  10.165 -0.2023 -1.2411 -0.4651
  355MOL0     H48984   7.662  10.726  10.246 -1.0247  0.6567  0.8059
  355MOL0     H48985   7.660  10.901  10.206  1.0980  2.4158  1.8810
  355MOL0     H48986   7.563  10.896  10.616 -1.5895 -1.2186  0.3449
  355MOL0     H48987   8.231  10.645   9.978 -1.7164 -1.8799  0.3840
  355MOL0     H48988   8.393  10.571   9.855  0.1933 -0.3412  0.1365
  355MOL0     H48989   8.512  10.683   9.917 -1.5471  0.9420 -1.2926
  355MOL0     H48990   8.540  10.501   9.933  1.0161  0.7703 -0.8266
  356MOL0     O48991   9.565   8.196   6.195  0.1839 -0.2454  0.1393
  356MOL0     C48992   9.495   8.229   6.101 -0.0986 -0.4082  0.7427
  356MOL0     O48993   9.543   8.290   5.985 -0.0810 -0.7044  0.1068
  356MOL0     C48994   9.679   8.295   5.968  0.5046  0.0499  0.5656
  356MOL0     C48995   9.733   8.242   5.849  0.0074 -0.0880 -1.0820
  356MOL0     C48996   9.869   8.235   5.816 -0.6122 -0.0782 -0.6303
  356MOL0     C48997   9.962   8.296   5.900 -0.0398  0.0747 -0.0051
  356MOL0     O48998  10.096   8.291   5.892  0.0064 -0.3637  0.3119
  356MOL0     C48999  10.154   8.396   5.811  0.4091  1.0698 -0.3792
  356MOL0     C49000  10.303   8.354   5.769 -0.2683 -0.2381 -0.3658
  356MOL0     C49001  10.361   8.461   5.674  0.0517 -0.1026 -0.5592
  356MOL0     C49002  10.497   8.408   5.621 -0.9693 -0.3396 -0.1990
  356MOL0     C49003  10.572   8.511   5.542  0.3221  0.1580  0.7390
  356MOL0     C49004  10.716   8.469   5.496  0.5068  0.1638 -0.6468
  356MOL0     C49005  10.741   8.521   5.352  1.4847 -0.2273  0.8214
  356MOL0     C49006  10.880   8.517   5.291  0.4970  0.1104  0.3294
  356MOL0     N49007  10.980   8.606   5.350 -0.0466  0.1019 -0.2463
  356MOL0     C49008  11.109   8.588   5.393  0.2058  1.3369  0.1729
  356MOL0     C49009  11.141   8.700   5.460 -0.6946  0.0785 -0.1655
  356MOL0     C49010  11.268   8.728   5.524 -0.4682 -0.1815  0.2265
  356MOL0     C49011  11.361   8.610   5.542  0.0614  0.2285  0.4749
  356MOL0     C49012  11.504   8.653   5.588  0.0064  0.4214 -0.1920
  356MOL0     C49013  11.575   8.542   5.660 -0.1493 -0.4616 -0.4855
  356MOL0     O49014  11.615   8.443   5.576  0.0681  0.4513  0.1590
  356MOL0     C49015  11.735   8.380   5.597 -0.0480 -0.8311 -0.6806
  356MOL0     C49016  11.801   8.370   5.722 -0.0203 -0.6591 -0.1602
  356MOL0     C49017  11.935   8.327   5.737 -0.3357 -1.0781  0.3218
  356MOL0     C49018  11.989   8.313   5.872  0.0187  1.1484  0.3372
  356MOL0     C49019  12.004   8.277   5.617 -0.8946  0.3588 -0.1557
  356MOL0     C49020  12.136   8.220   5.625 -0.8862 -0.0483 -0.4882
  356MOL0     O49021  12.171   8.145   5.519  1.2809  0.3390 -0.3170
  356MOL0     C49022  12.298   8.114   5.495 -0.6328 -0.2404 -0.1445
  356MOL0     C49023  12.382   8.206   5.444 -0.7552 -0.5739  0.5177
  356MOL0     C49024  12.512   8.181   5.417  0.2435 -0.9178 -0.5339
  356MOL0     C49025  12.569   8.062   5.461 -0.3041 -0.0250  0.1193
  356MOL0     O49026  12.704   8.055   5.448 -0.1170 -0.3190  0.3714
  356MOL0     C49027  12.794   8.151   5.494  0.1833 -0.5304  0.3670
  356MOL0     C49028  12.932   8.084   5.510  0.6003 -0.0064  0.6988
  356MOL0     C49029  13.006   8.084   5.371 -0.6483  0.0109  0.3095
  356MOL0     C49030  13.092   8.211   5.342  0.2121  0.4297 -1.4564
  356MOL0     C49031  13.147   8.203   5.199  0.2931  0.7285  0.6421
  356MOL0     C49032  13.273   8.099   5.189  0.9403  0.0036  0.3179
  356MOL0     C49033  13.371   8.134   5.074 -0.6071  0.6405  0.4065
  356MOL0     C49034  13.482   8.037   5.065  0.1811  0.1928 -0.1231
  356MOL0    Cl49035  13.601   8.118   4.958  0.0511  0.1797  0.2544
  356MOL0     C49036  12.484   7.959   5.504 -0.1904  1.1320  0.6436
  356MOL0     C49037  12.349   7.992   5.530 -0.0613 -0.0266 -0.0045
  356MOL0     O49038  12.215   8.253   5.717 -0.2401 -0.2137  0.3134
  356MOL0     C49039  11.935   8.282   5.497 -1.0489  0.6405  0.5245
  356MOL0     C49040  11.810   8.335   5.488  0.1900 -0.1202 -0.1486
  356MOL0     N49041  11.048   8.796   5.430  0.8695 -0.3272 -0.0958
  356MOL0     N49042  10.962   8.742   5.360 -0.3265 -0.3680 -0.1252
  356MOL0     C49043   9.913   8.363   6.009 -0.0794 -0.9056  0.1152
  356MOL0     C49044   9.772   8.354   6.050 -0.4337 -0.7675  0.0595
  356MOL0     C49045   9.353   8.208   6.106  0.2812 -0.4082 -0.5072
  356MOL0     C49046   9.282   8.212   5.989 -0.3593  1.0192 -1.0722
  356MOL0     C49047   9.140   8.197   5.982 -0.1243 -0.6552 -0.3792
  356MOL0     C49048   9.062   8.181   6.100 -0.1597  0.3762 -0.6548
  356MOL0     O49049   8.926   8.191   6.091  0.7963  0.6358 -0.3737
  356MOL0     C49050   8.859   8.068   6.135  0.7388 -0.9454  0.3570
  356MOL0     C49051   8.700   8.077   6.124 -0.4400  0.4975  0.1976
  356MOL0     C49052   8.633   7.949   6.180  0.5984  0.3593 -0.0801
  356MOL0     C49053   8.484   7.985   6.216  1.1815 -0.2963  0.4755
  356MOL0     C49054   8.393   7.870   6.207 -0.3656  0.0990  0.2026
  356MOL0     C49055   8.333   7.768   6.202 -0.9207  0.1693  0.4872
  356MOL0     C49056   9.139   8.160   6.220  0.5146 -0.3069 -0.1588
  356MOL0     C49057   9.271   8.176   6.225  0.3884  0.0086  0.2631
  356MOL0     C49058   9.343   8.166   6.361  0.6978 -0.4026  0.0008
  356MOL0     H49059   9.654   8.202   5.785 -0.6527  1.0835 -1.0322
  356MOL0     H49060   9.904   8.191   5.724  0.1856 -1.3932  0.2701
  356MOL0     H49061  10.159   8.489   5.869 -2.3641  0.4937  0.9272
  356MOL0     H49062  10.096   8.411   5.719 -2.3467 -0.6952  0.9246
  356MOL0     H49063  10.367   8.359   5.858 -0.3871 -2.6932 -0.0756
  356MOL0     H49064  10.305   8.253   5.726 -0.3182 -1.3342  2.0552
  356MOL0     H49065  10.292   8.466   5.589 -1.0973  0.3181  0.3639
  356MOL0     H49066  10.377   8.560   5.716  0.7092 -0.9716  1.3723
  356MOL0     H49067  10.553   8.372   5.708 -0.6005 -0.3923 -0.4575
  356MOL0     H49068  10.469   8.324   5.557 -3.2439  1.6566 -2.0073
  356MOL0     H49069  10.572   8.603   5.602  0.7268 -1.1581  2.8322
  356MOL0     H49070  10.507   8.531   5.456  2.3268 -2.8155 -1.6575
  356MOL0     H49071  10.794   8.505   5.563  0.9398  3.3329 -2.6484
  356MOL0     H49072  10.722   8.359   5.498 -1.7774 -0.0110  0.5630
  356MOL0     H49073  10.714   8.626   5.340  3.1163  0.2818  1.2781
  356MOL0     H49074  10.667   8.474   5.287  0.5779  0.0296  1.6591
  356MOL0     H49075  10.920   8.415   5.284  2.3315  0.8573 -0.7020
  356MOL0     H49076  10.866   8.559   5.191 -0.7194  1.1348  0.9045
  356MOL0     H49077  11.167   8.496   5.394  5.5120  4.2522 -0.2805
  356MOL0     H49078  11.231   8.776   5.615 -4.9892  0.5455 -1.6845
  356MOL0     H49079  11.315   8.803   5.459  0.8448  0.4300  1.8294
  356MOL0     H49080  11.319   8.540   5.614  1.8735 -2.6125 -1.0535
  356MOL0     H49081  11.374   8.557   5.448 -1.6223  0.6727 -0.0334
  356MOL0     H49082  11.554   8.684   5.496 -3.6399 -1.9069 -3.3064
  356MOL0     H49083  11.502   8.734   5.662  2.9830  0.0311  0.4438
  356MOL0     H49084  11.656   8.591   5.715  0.2511 -0.7992 -0.7701
  356MOL0     H49085  11.508   8.494   5.732 -1.4023 -0.4456 -1.6023
  356MOL0     H49086  11.752   8.419   5.806 -0.3894  1.4587 -1.5156
  356MOL0     H49087  11.919   8.346   5.949  1.7080  0.2208  2.3761
  356MOL0     H49088  12.080   8.374   5.881 -0.3121  1.7288 -0.2134
  356MOL0     H49089  12.009   8.206   5.883 -0.0217  1.0708 -0.3106
  356MOL0     H49090  12.353   8.310   5.433  0.6925 -0.1484  0.4840
  356MOL0     H49091  12.576   8.258   5.376  0.4565  0.1408  1.6314
  356MOL0     H49092  12.796   8.236   5.424  1.8296 -0.7695  0.0720
  356MOL0     H49093  12.760   8.186   5.592  1.9343 -0.6223  1.0465
  356MOL0     H49094  12.989   8.137   5.587  1.3698 -2.8706  2.2838
  356MOL0     H49095  12.919   7.980   5.544  2.1604 -0.7720 -0.8813
  356MOL0     H49096  12.942   8.068   5.284  0.7750 -0.8931 -0.6065
  356MOL0     H49097  13.075   7.999   5.370  1.5232  1.6084 -2.9943
  356MOL0     H49098  13.175   8.229   5.410 -2.8316 -0.6156  2.9976
  356MOL0     H49099  13.027   8.299   5.346  0.5899  0.6813  2.0598
  356MOL0     H49100  13.077   8.184   5.117  0.0158  0.2856  0.9803
  356MOL0     H49101  13.182   8.305   5.179 -0.6962  1.0469  0.4941
  356MOL0     H49102  13.233   7.999   5.173 -0.3050  0.6324 -0.6823
  356MOL0     H49103  13.325   8.093   5.285 -1.1862 -0.8958  1.4777
  356MOL0     H49104  13.406   8.237   5.091  0.6909  0.0622  1.4224
  356MOL0     H49105  13.317   8.129   4.979 -1.9368 -1.3532  1.1899
  356MOL0     H49106  13.452   7.937   5.033  2.1671 -1.9794  4.0959
  356MOL0     H49107  13.526   8.019   5.163  1.6447  0.0244 -0.7900
  356MOL0     H49108  12.525   7.864   5.535 -3.8073 -0.6282  0.5398
  356MOL0     H49109  12.281   7.918   5.570 -0.7639 -0.0819 -1.2701
  356MOL0     H49110  11.979   8.250   5.403 -0.2761 -1.4659  1.5152
  356MOL0     H49111  11.767   8.341   5.389 -2.2347  3.4560  0.9395
  356MOL0     H49112   9.965   8.429   6.078 -0.1086 -0.0851 -0.6253
  356MOL0     H49113   9.745   8.414   6.136 -0.3024  3.1257 -2.3669
  356MOL0     H49114   9.329   8.229   5.893  1.0122  1.6200 -0.3187
  356MOL0     H49115   9.107   8.204   5.879  0.0128 -1.5461 -0.4964
  356MOL0     H49116   8.902   7.977   6.091 -2.1840 -2.0416 -0.4512
  356MOL0     H49117   8.890   8.063   6.240  0.3340  0.4023  0.5521
  356MOL0     H49118   8.668   8.092   6.020  1.5377  1.2969 -0.3330
  356MOL0     H49119   8.676   8.174   6.169  3.1909  2.0451 -0.8458
  356MOL0     H49120   8.634   7.866   6.108  0.3596  1.2892 -1.1968
  356MOL0     H49121   8.691   7.908   6.263  2.9586 -0.7659 -2.1343
  356MOL0     H49122   8.446   8.068   6.156 -0.8725 -0.3111  1.6316
  356MOL0     H49123   8.487   8.015   6.321  0.8767  2.3341 -0.2000
  356MOL0     H49124   8.289   7.671   6.192  1.2921 -1.0272  1.4496
  356MOL0     H49125   9.093   8.145   6.317  1.3784 -0.9065  0.1693
  356MOL0     H49126   9.411   8.080   6.367 -0.7187 -1.6723 -1.3131
  356MOL0     H49127   9.385   8.262   6.392  1.6043 -1.4178  2.1109
  356MOL0     H49128   9.267   8.144   6.437 -1.6305 -3.7493 -2.9688
  357MOL0     O49129   3.392   3.065   3.820  0.0346  0.3219 -0.3651
  357MOL0     C49130   3.344   3.178   3.819 -0.2518  1.0774  0.3383
  357MOL0     O49131   3.367   3.274   3.726 -0.0876 -0.0791 -0.1710
  357MOL0     C49132   3.472   3.264   3.637  0.5086 -0.0925 -0.2519
  357MOL0     C49133   3.605   3.256   3.688 -0.4457 -0.0935 -0.4021
  357MOL0     C49134   3.714   3.238   3.598  0.6519  0.4288  0.6822
  357MOL0     C49135   3.684   3.253   3.460 -0.4227  0.2870 -0.2088
  357MOL0     O49136   3.782   3.252   3.368 -0.1095  0.0131  0.1842
  357MOL0     C49137   3.893   3.163   3.405  0.4293 -0.0989 -0.2284
  357MOL0     C49138   3.982   3.140   3.280  0.0328 -0.4921 -0.6112
  357MOL0     C49139   4.109   3.056   3.294 -0.1795 -0.4427  0.0476
  357MOL0     C49140   4.235   3.135   3.324  0.1523 -0.7275 -0.4468
  357MOL0     C49141   4.347   3.022   3.341  0.0543 -0.7262 -0.0442
  357MOL0     C49142   4.485   3.078   3.367 -0.3431  1.0096 -0.5903
  357MOL0     C49143   4.485   3.132   3.511 -0.2586 -0.0212 -0.6075
  357MOL0     C49144   4.616   3.205   3.530 -0.0683  0.2701 -0.1535
  357MOL0     N49145   4.617   3.255   3.664 -0.5863 -0.4566  0.0547
  357MOL0     C49146   4.552   3.373   3.715  0.1318 -0.0605 -0.2577
  357MOL0     C49147   4.569   3.369   3.853 -0.1301 -0.1420 -0.0318
  357MOL0     C49148   4.528   3.468   3.951 -0.1766  0.4607 -0.1295
  357MOL0     C49149   4.407   3.417   4.042 -0.5681  0.9460  0.3961
  357MOL0     C49150   4.336   3.525   4.111  0.4124  0.0416 -0.9590
  357MOL0     C49151   4.420   3.566   4.230 -0.0899 -0.1783  0.5248
  357MOL0     O49152   4.531   3.643   4.197  0.0877  0.3165  0.2990
  357MOL0     C49153   4.643   3.643   4.271 -0.0047 -0.0734  0.0174
  357MOL0     C49154   4.660   3.586   4.396  0.0043  0.2574  0.6009
  357MOL0     C49155   4.794   3.584   4.457 -0.7058 -0.4610 -1.3105
  357MOL0     C49156   4.811   3.511   4.588 -0.1594  0.3180  0.2705
  357MOL0     C49157   4.901   3.656   4.398  0.4396  0.7420  0.5586
  357MOL0     C49158   5.042   3.655   4.452  0.2164  0.5339  0.0983
  357MOL0     O49159   5.051   3.659   4.586  0.5399 -0.1849  0.0243
  357MOL0     C49160   5.175   3.646   4.646  0.3175  0.1377 -0.2893
  357MOL0     C49161   5.286   3.585   4.601 -0.7536 -0.2923  1.1455
  357MOL0     C49162   5.407   3.594   4.675 -0.1854 -0.7627  0.0212
  357MOL0     C49163   5.416   3.681   4.794 -0.0075  1.0008 -0.0470
  357MOL0     O49164   5.519   3.681   4.877 -0.1700  0.1061 -0.2655
  357MOL0     C49165   5.516   3.744   5.008 -0.3658  0.3544  0.0389
  357MOL0     C49166   5.634   3.709   5.101  0.4515 -0.4033 -0.4966
  357MOL0     C49167   5.775   3.743   5.045 -0.5424  0.0103  0.0762
  357MOL0     C49168   5.881   3.714   5.157 -0.5970  0.3317 -0.2661
  357MOL0     C49169   6.021   3.727   5.097 -0.1749  0.8465 -0.0212
  357MOL0     C49170   6.132   3.681   5.191 -0.0922  0.0081 -0.0567
  357MOL0     C49171   6.268   3.677   5.128 -0.2297  0.1541  0.5577
  357MOL0     C49172   6.370   3.647   5.242  0.6467 -0.0131 -0.4668
  357MOL0    Cl49173   6.359   3.783   5.376 -0.4286  0.2774  0.2214
  357MOL0     C49174   5.300   3.740   4.834 -0.0856  0.1809  0.1853
  357MOL0     C49175   5.181   3.718   4.763 -0.5689 -0.3781 -0.1763
  357MOL0     O49176   5.132   3.655   4.373  0.0905 -0.3632  0.3895
  357MOL0     C49177   4.874   3.716   4.272 -0.1565 -0.8268 -0.1544
  357MOL0     C49178   4.745   3.712   4.218 -0.2013 -0.2802  0.5049
  357MOL0     N49179   4.632   3.251   3.884  0.7002 -0.2255  0.6790
  357MOL0     N49180   4.663   3.189   3.773 -0.9265 -0.5064  0.2702
  357MOL0     C49181   3.554   3.258   3.407 -0.2445 -0.5303 -0.7958
  357MOL0     C49182   3.443   3.271   3.502  0.6777 -0.0885 -0.0489
  357MOL0     C49183   3.253   3.205   3.937 -1.3289  0.6222  0.8519
  357MOL0     C49184   3.295   3.171   4.066  0.5785  0.1259  0.1450
  357MOL0     C49185   3.221   3.191   4.183 -0.3044 -0.2114  0.7315
  357MOL0     C49186   3.100   3.257   4.167  0.8580  0.3708  0.8429
  357MOL0     O49187   3.019   3.303   4.270 -0.6833 -0.1656  0.1374
  357MOL0     C49188   3.063   3.309   4.407  0.4988 -0.1963 -1.4570
  357MOL0     C49189   3.057   3.441   4.458  0.4599 -0.3740 -0.5676
  357MOL0     C49190   2.921   3.491   4.452  0.3017  0.3620  0.0375
  357MOL0     C49191   2.897   3.627   4.517  0.1018  0.5225 -0.0238
  357MOL0     C49192   2.762   3.675   4.491  0.4739  0.5623 -0.5609
  357MOL0     C49193   2.643   3.701   4.472 -0.5778  0.4188  0.0909
  357MOL0     C49194   3.059   3.294   4.039 -0.3035  0.2800  0.6247
  357MOL0     C49195   3.127   3.255   3.923 -0.9167 -0.8703  0.6143
  357MOL0     C49196   3.070   3.300   3.789 -0.4454  0.0697 -0.8057
  357MOL0     H49197   3.621   3.261   3.795  0.3537  0.1209 -0.5250
  357MOL0     H49198   3.816   3.237   3.634  0.7477 -0.9159  0.4389
  357MOL0     H49199   3.859   3.070   3.450  0.7254 -0.7137 -1.2379
  357MOL0     H49200   3.954   3.211   3.482 -2.6680  0.1028  2.3178
  357MOL0     H49201   3.913   3.090   3.211 -2.8990  2.3292  0.0115
  357MOL0     H49202   4.007   3.239   3.240 -1.5193  0.1432 -0.0692
  357MOL0     H49203   4.094   2.983   3.374 -2.1431 -0.0323  0.1112
  357MOL0     H49204   4.131   3.000   3.202  1.8456  0.3002  0.0288
  357MOL0     H49205   4.256   3.198   3.237 -2.8835  0.1296 -0.6748
  357MOL0     H49206   4.226   3.199   3.412  3.4526 -2.1721  1.0994
  357MOL0     H49207   4.338   2.965   3.248 -0.6024  0.2278 -0.5747
  357MOL0     H49208   4.322   2.949   3.419  2.7102 -3.1172 -1.2239
  357MOL0     H49209   4.561   3.000   3.361 -0.9989  0.3296 -0.2478
  357MOL0     H49210   4.510   3.157   3.296  1.8056  1.4562  0.5850
  357MOL0     H49211   4.475   3.042   3.572  0.4907  0.2671 -0.0414
  357MOL0     H49212   4.403   3.203   3.527  1.0179  1.9615 -2.3034
  357MOL0     H49213   4.696   3.130   3.525  0.6160  0.9572  0.1455
  357MOL0     H49214   4.636   3.287   3.460 -0.8809  0.1422 -0.5363
  357MOL0     H49215   4.498   3.448   3.658 -1.7238 -1.2121 -0.1167
  357MOL0     H49216   4.496   3.564   3.908 -0.3407  0.4505 -0.0318
  357MOL0     H49217   4.616   3.481   4.014 -0.4921 -0.6683  0.5690
  357MOL0     H49218   4.325   3.380   3.980  1.0757  1.4457 -2.2358
  357MOL0     H49219   4.456   3.350   4.114 -0.0297  1.8066  0.8551
  357MOL0     H49220   4.324   3.610   4.043 -0.5047 -1.0789 -2.2492
  357MOL0     H49221   4.242   3.484   4.149  0.7569  1.6972  1.9376
  357MOL0     H49222   4.366   3.635   4.296 -1.7623 -1.5742  0.6925
  357MOL0     H49223   4.437   3.476   4.289 -1.3050 -0.7843 -0.0205
  357MOL0     H49224   4.577   3.536   4.445  0.7676 -0.3692  1.2920
  357MOL0     H49225   4.842   3.578   4.669  3.1507  0.4507 -0.9863
  357MOL0     H49226   4.893   3.440   4.573 -0.1533 -0.1576  2.2085
  357MOL0     H49227   4.726   3.454   4.627 -1.4559  1.9051 -0.1372
  357MOL0     H49228   5.284   3.528   4.509  1.8276  1.4235 -0.0856
  357MOL0     H49229   5.493   3.538   4.640 -1.3864 -0.9830 -2.8409
  357MOL0     H49230   5.520   3.852   4.991  1.9246 -0.0692 -2.8485
  357MOL0     H49231   5.431   3.710   5.069  1.4466 -3.8623  0.5657
  357MOL0     H49232   5.621   3.753   5.201 -1.2221 -0.0492 -0.8440
  357MOL0     H49233   5.639   3.601   5.117  1.7557 -0.5688 -1.9102
  357MOL0     H49234   5.781   3.845   5.007  0.7594 -0.7532 -1.9616
  357MOL0     H49235   5.795   3.680   4.958 -0.1273  1.1664 -0.6828
  357MOL0     H49236   5.870   3.610   5.188 -1.2273  0.0095 -1.5474
  357MOL0     H49237   5.869   3.777   5.246 -0.1962 -1.2498  0.9445
  357MOL0     H49238   6.030   3.658   5.013 -1.2071  1.2231 -0.4644
  357MOL0     H49239   6.041   3.827   5.058 -0.6095  0.9978  0.1356
  357MOL0     H49240   6.112   3.586   5.242  0.6868  0.2103  0.6433
  357MOL0     H49241   6.121   3.751   5.274 -3.6827 -1.6920  1.1251
  357MOL0     H49242   6.301   3.769   5.080  1.5446 -0.3948  0.6498
  357MOL0     H49243   6.277   3.604   5.047 -2.3039  1.6293 -1.1121
  357MOL0     H49244   6.468   3.628   5.199  1.0978 -0.4751  0.7246
  357MOL0     H49245   6.345   3.554   5.294  1.7484  0.1253  0.3446
  357MOL0     H49246   5.297   3.803   4.922  2.1108  0.7306 -0.0938
  357MOL0     H49247   5.090   3.759   4.806 -0.7834 -2.8959  2.0433
  357MOL0     H49248   4.954   3.777   4.230  0.5145 -1.6810 -0.1487
  357MOL0     H49249   4.734   3.754   4.119  0.3633 -0.9133  0.1655
  357MOL0     H49250   3.535   3.255   3.300 -1.4607 -4.3458 -0.6051
  357MOL0     H49251   3.341   3.289   3.470  0.8770 -0.3556 -0.8592
  357MOL0     H49252   3.399   3.139   4.062  0.8290  0.9950 -0.8386
  357MOL0     H49253   3.262   3.169   4.281  0.2512 -0.3876  0.4642
  357MOL0     H49254   2.995   3.239   4.458 -0.2271  0.4047 -1.5863
  357MOL0     H49255   3.167   3.281   4.424 -0.2168 -1.5581  1.2207
  357MOL0     H49256   3.125   3.513   4.411  0.4583 -1.3160 -2.0717
  357MOL0     H49257   3.085   3.448   4.564 -1.3687  2.7951 -0.1653
  357MOL0     H49258   2.890   3.500   4.347 -0.6838  0.3178  0.3083
  357MOL0     H49259   2.848   3.418   4.488 -2.1771  0.9755 -3.2202
  357MOL0     H49260   2.973   3.697   4.482 -0.1063  0.4954 -0.5386
  357MOL0     H49261   2.923   3.616   4.623  0.2487  0.3870 -0.0741
  357MOL0     H49262   2.538   3.721   4.465 -1.0447 -1.5659  0.5628
  357MOL0     H49263   2.960   3.338   4.030  0.3302  2.0131  1.5718
  357MOL0     H49264   3.103   3.399   3.757  1.6388 -0.6615 -1.0837
  357MOL0     H49265   3.100   3.233   3.708  0.4982  2.2556 -2.3509
  357MOL0     H49266   2.961   3.311   3.791 -0.1790  4.4974 -1.0713
  358MOL0     O49267   5.478   4.536   8.345 -0.6272  0.0191  1.1193
  358MOL0     C49268   5.440   4.526   8.459 -0.2775 -0.1450  0.1795
  358MOL0     O49269   5.522   4.513   8.567  0.3425 -0.0088  0.4454
  358MOL0     C49270   5.660   4.501   8.547  0.0637  0.1089 -0.1992
  358MOL0     C49271   5.715   4.375   8.562 -0.3304 -0.2497  1.3890
  358MOL0     C49272   5.851   4.355   8.527 -0.3349 -0.6512 -0.0433
  358MOL0     C49273   5.931   4.460   8.471 -0.1123  0.0260 -0.3999
  358MOL0     O49274   6.062   4.429   8.444  0.1991 -0.5828  0.7729
  358MOL0     C49275   6.121   4.505   8.341  0.8779  0.5104  0.9355
  358MOL0     C49276   6.263   4.452   8.318 -0.0607 -0.8142  0.5383
  358MOL0     C49277   6.299   4.517   8.182 -0.8364 -0.8915  0.8375
  358MOL0     C49278   6.451   4.510   8.151  0.2868 -0.2994  1.2478
  358MOL0     C49279   6.504   4.368   8.158  0.6996  0.4735 -0.8349
  358MOL0     C49280   6.624   4.335   8.064 -0.1057  0.2624 -0.2659
  358MOL0     C49281   6.584   4.249   7.942 -0.1786  1.0252 -0.2292
  358MOL0     C49282   6.543   4.104   7.975  0.0841  0.3329 -0.1128
  358MOL0     N49283   6.643   4.025   8.047 -0.6165 -0.6814 -0.1520
  358MOL0     C49284   6.654   4.014   8.186 -0.4158  0.6988  0.5342
  358MOL0     C49285   6.773   3.949   8.194  0.2712  0.0063 -0.0264
  358MOL0     C49286   6.832   3.916   8.327 -0.2053  0.3628  0.0733
  358MOL0     C49287   6.914   4.036   8.379 -0.3155  0.3060  0.0374
  358MOL0     C49288   7.058   4.039   8.325 -0.7088  0.3552 -0.4004
  358MOL0     C49289   7.156   4.145   8.376  0.0263 -0.2365  0.1712
  358MOL0     O49290   7.189   4.125   8.513 -0.2361  0.1632 -0.3374
  358MOL0     C49291   7.280   4.217   8.569  0.4593  0.2878  0.4994
  358MOL0     C49292   7.295   4.210   8.708 -0.0016 -0.1536  0.4546
  358MOL0     C49293   7.386   4.287   8.776 -0.0025 -0.0441  0.0404
  358MOL0     C49294   7.386   4.285   8.928  0.2182  0.4473  0.6119
  358MOL0     C49295   7.477   4.362   8.703 -0.1605  0.8234  0.2463
  358MOL0     C49296   7.572   4.441   8.778 -0.6738 -1.4171  0.3376
  358MOL0     O49297   7.653   4.371   8.862  0.8118  0.0861  0.0537
  358MOL0     C49298   7.754   4.445   8.924  0.6393  1.1627 -0.2503
  358MOL0     C49299   7.879   4.458   8.863  0.2297 -0.5951  0.1183
  358MOL0     C49300   7.985   4.523   8.927 -0.2348  0.5351  0.4748
  358MOL0     C49301   7.956   4.583   9.052  0.0566 -0.5231 -0.2673
  358MOL0     O49302   8.049   4.651   9.129 -0.5816 -0.2796 -0.1473
  358MOL0     C49303   8.127   4.756   9.066 -0.3310 -0.1965 -1.1285
  358MOL0     C49304   8.272   4.719   9.030 -0.1790  0.6512 -0.2697
  358MOL0     C49305   8.374   4.750   9.136  0.6821  0.0139  1.0457
  358MOL0     C49306   8.457   4.873   9.107 -0.3947  1.0067  0.3066
  358MOL0     C49307   8.377   4.994   9.051  0.1529 -0.1881 -0.0040
  358MOL0     C49308   8.329   5.086   9.171 -0.8292 -0.0327  0.4994
  358MOL0     C49309   8.214   5.168   9.126 -0.5643 -0.1658 -0.6561
  358MOL0     C49310   8.160   5.258   9.238  0.2414  0.2449  0.1839
  358MOL0    Cl49311   8.265   5.391   9.264 -0.3865 -0.1646  0.4701
  358MOL0     C49312   7.830   4.564   9.111  0.2216 -0.5967 -0.0110
  358MOL0     C49313   7.732   4.493   9.053  0.1716 -0.2654  0.7140
  358MOL0     O49314   7.579   4.564   8.760  0.1032 -0.5325 -0.1320
  358MOL0     C49315   7.470   4.369   8.567  0.6765 -0.4330  0.4576
  358MOL0     C49316   7.372   4.295   8.496  0.2428  0.4978  0.4630
  358MOL0     N49317   6.823   3.920   8.068 -0.2957  0.2780 -0.1068
  358MOL0     N49318   6.737   3.959   7.986 -0.0112 -0.9657  0.3599
  358MOL0     C49319   5.875   4.590   8.470  0.0092 -0.2376 -0.7815
  358MOL0     C49320   5.736   4.604   8.502  0.9082  0.4376  0.1532
  358MOL0     C49321   5.301   4.555   8.479  0.7203 -0.7892 -0.3138
  358MOL0     C49322   5.231   4.661   8.419 -0.0235 -1.1769  0.5345
  358MOL0     C49323   5.094   4.699   8.454  0.3079 -1.0134 -0.5431
  358MOL0     C49324   5.026   4.639   8.555 -0.8525  0.0633 -0.1657
  358MOL0     O49325   4.901   4.687   8.588 -0.1445 -0.2763  0.1487
  358MOL0     C49326   4.781   4.620   8.537 -0.4419 -0.0040 -0.3684
  358MOL0     C49327   4.711   4.537   8.638  0.5213  0.3435 -0.2520
  358MOL0     C49328   4.656   4.624   8.753 -0.6221 -0.1217  0.8242
  358MOL0     C49329   4.613   4.522   8.859  0.1710 -0.4213  0.5461
  358MOL0     C49330   4.586   4.572   8.991  0.8239 -0.0275  0.2300
  358MOL0     C49331   4.563   4.619   9.102 -0.0852  0.4612  0.2413
  358MOL0     C49332   5.101   4.537   8.619  0.6730 -0.0714 -0.0856
  358MOL0     C49333   5.228   4.494   8.579  0.0109  0.3921 -0.4932
  358MOL0     C49334   5.283   4.372   8.659  0.0262  0.3966  0.5857
  358MOL0     H49335   5.656   4.299   8.613 -0.7266 -0.5483  0.5015
  358MOL0     H49336   5.890   4.254   8.526  0.1555 -0.4716 -1.3347
  358MOL0     H49337   6.139   4.608   8.374  2.7036 -0.1454  2.0953
  358MOL0     H49338   6.067   4.507   8.245  1.1970  1.9330  0.7637
  358MOL0     H49339   6.324   4.489   8.402 -0.3353 -0.4276  0.5709
  358MOL0     H49340   6.266   4.343   8.313 -3.1842 -1.0482  1.4770
  358MOL0     H49341   6.250   4.457   8.105  0.6260 -3.1521  1.5942
  358MOL0     H49342   6.269   4.623   8.186  2.2607  0.2872 -2.0396
  358MOL0     H49343   6.449   4.558   8.053 -0.6981 -0.9988  0.9176
  358MOL0     H49344   6.522   4.572   8.207  1.4416  0.4396 -0.8995
  358MOL0     H49345   6.421   4.297   8.149  0.1366  0.4343  3.0116
  358MOL0     H49346   6.539   4.345   8.259  1.2104 -1.6134 -1.4263
  358MOL0     H49347   6.668   4.430   8.033 -0.1099  1.0912  2.0943
  358MOL0     H49348   6.700   4.286   8.125 -1.7906 -0.1987  1.5862
  358MOL0     H49349   6.674   4.249   7.881 -1.3545  1.9571 -2.0460
  358MOL0     H49350   6.503   4.303   7.891 -0.2564  2.2621  1.1190
  358MOL0     H49351   6.450   4.105   8.033 -0.7896  1.2095 -1.4886
  358MOL0     H49352   6.535   4.045   7.883  0.3131  2.6202 -1.6552
  358MOL0     H49353   6.576   4.045   8.255  0.0955  0.0059  1.4403
  358MOL0     H49354   6.888   3.822   8.315  0.4828  0.5255  1.7859
  358MOL0     H49355   6.750   3.905   8.398 -0.6785 -1.3829 -0.6862
  358MOL0     H49356   6.863   4.125   8.342 -1.6143 -0.5916 -0.3998
  358MOL0     H49357   6.916   4.037   8.489 -1.1215 -0.1332  0.0658
  358MOL0     H49358   7.098   3.937   8.334 -0.8186  0.3934  0.5588
  358MOL0     H49359   7.052   4.058   8.217 -0.2407 -0.3234 -0.5539
  358MOL0     H49360   7.253   4.140   8.326 -0.5606  1.3460 -1.2394
  358MOL0     H49361   7.112   4.243   8.356 -1.2407 -1.0100 -1.0275
  358MOL0     H49362   7.231   4.146   8.768 -0.0886 -1.0370 -0.5512
  358MOL0     H49363   7.365   4.389   8.956  1.2417  1.1715 -1.2012
  358MOL0     H49364   7.480   4.254   8.975 -0.0501 -1.2512  0.0740
  358MOL0     H49365   7.301   4.222   8.957  0.2325 -1.0668 -2.3528
  358MOL0     H49366   7.883   4.425   8.760  1.6123 -1.6739  0.4953
  358MOL0     H49367   8.085   4.518   8.886  0.2760 -1.4667  1.8127
  358MOL0     H49368   8.068   4.773   8.976 -1.4708 -1.7616 -0.7293
  358MOL0     H49369   8.114   4.848   9.124  1.6184 -0.7750  0.3233
  358MOL0     H49370   8.285   4.612   9.008  0.1131  0.8708 -1.2194
  358MOL0     H49371   8.291   4.759   8.930  0.1449 -3.0337 -1.8497
  358MOL0     H49372   8.439   4.664   9.154 -0.8805 -1.3810  0.3577
  358MOL0     H49373   8.327   4.773   9.232  3.5929  2.3215  2.0884
  358MOL0     H49374   8.525   4.842   9.027  1.0956  1.9177  1.1590
  358MOL0     H49375   8.527   4.906   9.184  2.8865 -1.6430 -1.2634
  358MOL0     H49376   8.438   5.055   8.983 -0.2462  2.3750  1.8028
  358MOL0     H49377   8.293   4.954   8.993 -0.9482 -0.6790  1.8492
  358MOL0     H49378   8.417   5.144   9.200  0.3376 -0.5774 -1.6469
  358MOL0     H49379   8.291   5.020   9.250  1.0414 -0.7659  0.8390
  358MOL0     H49380   8.140   5.091   9.104  0.8146 -1.8030  0.1853
  358MOL0     H49381   8.237   5.234   9.041  0.4074  0.6600  0.2224
  358MOL0     H49382   8.152   5.191   9.323 -0.1330  0.2295  0.1417
  358MOL0     H49383   8.064   5.304   9.211  0.2261 -0.0867 -0.3495
  358MOL0     H49384   7.815   4.600   9.213 -2.7315  0.4453 -0.7244
  358MOL0     H49385   7.642   4.491   9.115  0.2858  0.6466  0.9326
  358MOL0     H49386   7.534   4.430   8.504 -1.9797  0.9415 -1.0666
  358MOL0     H49387   7.366   4.298   8.387  2.3730 -0.2147  0.2764
  358MOL0     H49388   5.927   4.681   8.441 -1.2437  1.5482  2.0594
  358MOL0     H49389   5.695   4.704   8.498  1.3138  0.6200  0.4280
  358MOL0     H49390   5.286   4.729   8.354 -1.1841  1.4564  2.1468
  358MOL0     H49391   5.045   4.780   8.402  0.8015 -0.4958 -0.2043
  358MOL0     H49392   4.711   4.698   8.508 -0.4068  0.7641  1.4626
  358MOL0     H49393   4.792   4.553   8.452  0.2379 -1.8860  1.1277
  358MOL0     H49394   4.776   4.462   8.683  0.0926  1.4131  2.3143
  358MOL0     H49395   4.627   4.480   8.597 -0.7748  0.3746  2.1374
  358MOL0     H49396   4.733   4.689   8.794  0.7151  1.1642 -3.2249
  358MOL0     H49397   4.571   4.690   8.735  0.6390  1.5985  1.0437
  358MOL0     H49398   4.688   4.443   8.870 -0.9403 -1.3923  1.4239
  358MOL0     H49399   4.520   4.475   8.825  0.5871 -1.0194  0.2251
  358MOL0     H49400   4.531   4.661   9.195 -1.0905  1.6336 -0.6116
  358MOL0     H49401   5.044   4.486   8.695  0.0310  1.1097  0.2499
  358MOL0     H49402   5.338   4.395   8.751 -1.6447  2.0808  1.2297
  358MOL0     H49403   5.200   4.301   8.671 -2.1227  2.7327  0.1776
  358MOL0     H49404   5.352   4.323   8.590  0.2411 -0.8758  1.6599
  359MOL0     O49405   7.723   6.043   9.613  0.4395  0.2766 -0.0814
  359MOL0     C49406   7.669   6.153   9.623 -0.0812  0.2428 -0.9519
  359MOL0     O49407   7.602   6.192   9.732  0.4502  0.1648  0.0142
  359MOL0     C49408   7.639   6.133   9.848 -1.1635 -0.1366  0.1441
  359MOL0     C49409   7.574   6.020   9.903 -0.7166  0.6568 -0.0049
  359MOL0     C49410   7.609   5.976  10.029  0.1938 -0.1153  0.4269
  359MOL0     C49411   7.709   6.038  10.101  0.4023 -0.6702 -0.4359
  359MOL0     O49412   7.763   5.998  10.217 -0.1831 -0.2479 -0.3589
  359MOL0     C49413   7.710   5.890  10.293  0.8235  0.3526  0.1721
  359MOL0     C49414   7.801   5.830  10.403 -0.5718 -0.1347  0.3814
  359MOL0     C49415   7.924   5.772  10.330  0.2335 -0.0778 -0.4458
  359MOL0     C49416   8.038   5.762  10.428  0.3448  0.3302 -0.5206
  359MOL0     C49417   8.173   5.765  10.355 -0.7023 -0.0625 -0.5474
  359MOL0     C49418   8.187   5.645  10.256  0.1744  0.5576  0.0282
  359MOL0     C49419   8.152   5.508  10.300 -0.7317 -0.4773  0.1572
  359MOL0     C49420   8.234   5.442  10.413  0.0846  0.7011  0.2152
  359MOL0     N49421   8.376   5.441  10.396 -0.0664  0.6529 -0.4187
  359MOL0     C49422   8.452   5.359  10.306  1.0997 -0.8163  0.1893
  359MOL0     C49423   8.576   5.409  10.324  0.4731 -0.2386 -0.3322
  359MOL0     C49424   8.701   5.336  10.283  0.5524 -0.1977  0.2625
  359MOL0     C49425   8.770   5.410  10.176  0.2141 -0.5487  0.2738
  359MOL0     C49426   8.691   5.415  10.046  0.3723 -0.8539  0.6516
  359MOL0     C49427   8.755   5.506   9.946 -1.2212 -0.2880 -0.6392
  359MOL0     O49428   8.877   5.433   9.910  0.3427  0.1599  0.7460
  359MOL0     C49429   8.946   5.467   9.794  0.6367  0.5339 -0.3027
  359MOL0     C49430   8.919   5.582   9.722 -0.0463 -0.3633 -0.2378
  359MOL0     C49431   8.995   5.612   9.606 -0.4155 -0.2142 -0.1491
  359MOL0     C49432   8.964   5.745   9.536  0.3620  0.2211  0.0656
  359MOL0     C49433   9.110   5.533   9.571 -0.9537  0.6189  0.6130
  359MOL0     C49434   9.207   5.557   9.461 -0.5650 -0.1520  0.7553
  359MOL0     O49435   9.193   5.677   9.394 -0.8218  0.1522  0.1801
  359MOL0     C49436   9.297   5.738   9.326  0.1421 -0.0932  0.0561
  359MOL0     C49437   9.273   5.818   9.212 -0.7558 -0.3571  0.5279
  359MOL0     C49438   9.383   5.875   9.143  0.2827  0.4192 -0.1164
  359MOL0     C49439   9.509   5.866   9.196 -0.0947 -0.4736 -0.3974
  359MOL0     O49440   9.609   5.923   9.121  0.8535 -0.5814 -0.1204
  359MOL0     C49441   9.731   5.955   9.191 -0.0105  1.4124  0.2922
  359MOL0     C49442   9.803   6.074   9.116  0.6634 -0.5135 -0.5194
  359MOL0     C49443   9.904   6.139   9.210 -0.0132 -0.3211 -0.2548
  359MOL0     C49444   9.979   6.267   9.154 -0.4220  0.6086  0.0547
  359MOL0     C49445  10.123   6.276   9.219  0.5118 -0.5852 -0.7982
  359MOL0     C49446  10.199   6.411   9.192  0.9557 -0.4775  0.3923
  359MOL0     C49447  10.289   6.413   9.070  0.6449  0.4604  0.2094
  359MOL0     C49448  10.384   6.535   9.063 -0.0486  0.1539 -0.4636
  359MOL0    Cl49449  10.509   6.530   8.931 -0.1625  0.1222 -0.3601
  359MOL0     C49450   9.530   5.782   9.300 -0.3386  0.4397 -0.1153
  359MOL0     C49451   9.426   5.719   9.366 -0.5763 -0.1444  0.0027
  359MOL0     O49452   9.295   5.473   9.432 -0.1402  0.4824  0.0935
  359MOL0     C49453   9.128   5.412   9.642  0.1639  0.2658  0.1978
  359MOL0     C49454   9.043   5.378   9.751 -0.2309  0.2949 -0.0938
  359MOL0     N49455   8.576   5.519  10.406  0.0636  0.0612  1.0251
  359MOL0     N49456   8.452   5.538  10.444 -0.8871  1.0951  0.0147
  359MOL0     C49457   7.777   6.147  10.045 -0.6674  0.2619 -0.1748
  359MOL0     C49458   7.741   6.199   9.917 -0.4970  0.0836 -0.9066
  359MOL0     C49459   7.664   6.245   9.509  0.9480  0.1826 -0.5937
  359MOL0     C49460   7.544   6.307   9.474  0.0205  0.5747 -0.5783
  359MOL0     C49461   7.534   6.395   9.374 -0.5079 -0.3191  0.0731
  359MOL0     C49462   7.633   6.414   9.276  0.8037 -0.5860  0.3167
  359MOL0     O49463   7.624   6.497   9.166 -0.4208 -0.2319 -0.1286
  359MOL0     C49464   7.534   6.448   9.062 -0.2767  0.4291  0.6836
  359MOL0     C49465   7.588   6.500   8.924  0.8652  0.3374  0.1829
  359MOL0     C49466   7.558   6.425   8.793 -0.3434  0.4818 -0.0251
  359MOL0     C49467   7.549   6.517   8.670  0.1583  0.9926 -0.1418
  359MOL0     C49468   7.496   6.448   8.549 -0.0251 -0.1333 -0.4476
  359MOL0     C49469   7.440   6.384   8.466  0.2265  0.7714  0.8109
  359MOL0     C49470   7.755   6.345   9.301 -0.4868 -0.5184  0.1833
  359MOL0     C49471   7.771   6.266   9.416 -0.0365 -0.3388  0.0051
  359MOL0     C49472   7.909   6.216   9.432 -0.3089 -0.8345 -0.2173
  359MOL0     H49473   7.508   5.965   9.837  1.7989  1.2621 -3.3398
  359MOL0     H49474   7.546   5.892  10.060 -1.2917  1.1834  1.0398
  359MOL0     H49475   7.686   5.815  10.217 -0.6057  0.0578  0.8677
  359MOL0     H49476   7.615   5.926  10.333  0.6916  1.5336 -1.1217
  359MOL0     H49477   7.830   5.912  10.468 -1.6616 -0.0229  0.7472
  359MOL0     H49478   7.745   5.753  10.457 -1.4335 -0.3544 -0.7707
  359MOL0     H49479   7.896   5.675  10.288 -1.3887 -0.0785  0.5376
  359MOL0     H49480   7.948   5.843  10.250  0.1981  1.2256  0.6547
  359MOL0     H49481   8.034   5.846  10.498 -0.3928 -1.1747  1.3279
  359MOL0     H49482   8.027   5.676  10.494 -1.5160  2.6366  2.4421
  359MOL0     H49483   8.261   5.768  10.421  0.1029  1.6977 -1.6387
  359MOL0     H49484   8.178   5.866  10.314  0.0658  0.5089  0.8616
  359MOL0     H49485   8.113   5.667  10.179 -0.0004  1.5844  0.4738
  359MOL0     H49486   8.283   5.654  10.204  0.0913  2.0265  0.0897
  359MOL0     H49487   8.156   5.439  10.215 -0.8960  0.0410 -0.2833
  359MOL0     H49488   8.049   5.523  10.334 -0.4530  2.6178 -0.0476
  359MOL0     H49489   8.218   5.500  10.505  1.8817  1.7786 -0.1058
  359MOL0     H49490   8.193   5.341  10.416  2.5399 -0.4489 -1.6268
  359MOL0     H49491   8.416   5.277  10.246  1.6936 -1.6563  0.9506
  359MOL0     H49492   8.686   5.234  10.247 -3.5118 -0.0412  1.0840
  359MOL0     H49493   8.767   5.339  10.370 -0.7157 -2.9881  1.3955
  359MOL0     H49494   8.788   5.511  10.215 -2.5609 -0.8989  2.8648
  359MOL0     H49495   8.869   5.370  10.152  0.6526  0.2695  0.6855
  359MOL0     H49496   8.679   5.314  10.005 -1.4967 -0.3262 -0.1703
  359MOL0     H49497   8.595   5.461  10.071  0.3266 -1.1955  1.1197
  359MOL0     H49498   8.692   5.517   9.857  0.7032  1.7853 -1.8456
  359MOL0     H49499   8.785   5.602   9.989  1.3563 -1.3371  0.0699
  359MOL0     H49500   8.837   5.648   9.749  0.0970 -1.4540  3.3720
  359MOL0     H49501   8.882   5.794   9.589 -0.8710  1.4332 -2.7482
  359MOL0     H49502   8.937   5.736   9.430 -1.9213  1.0887  0.5058
  359MOL0     H49503   9.054   5.807   9.539  1.3611 -1.1162 -0.8823
  359MOL0     H49504   9.171   5.823   9.174 -1.2750  0.2919  1.9533
  359MOL0     H49505   9.383   5.916   9.043  1.4167  0.5606 -0.0653
  359MOL0     H49506   9.697   5.988   9.290  0.1701  1.2774  0.3991
  359MOL0     H49507   9.797   5.870   9.206  0.8026  2.3627  2.5118
  359MOL0     H49508   9.850   6.034   9.025  0.3834 -2.3755  0.1136
  359MOL0     H49509   9.728   6.151   9.095  3.1774  3.9494  4.4965
  359MOL0     H49510   9.981   6.063   9.226 -0.1400 -0.3363  0.2834
  359MOL0     H49511   9.859   6.159   9.307  0.1150  0.9083 -0.4242
  359MOL0     H49512   9.915   6.353   9.176 -3.2450 -0.7827 -2.0583
  359MOL0     H49513   9.998   6.252   9.047 -0.2204  0.1826  0.1469
  359MOL0     H49514  10.121   6.268   9.328  2.6030 -1.7642 -0.7840
  359MOL0     H49515  10.180   6.189   9.184 -2.2563 -2.6070 -0.6703
  359MOL0     H49516  10.249   6.445   9.283 -1.3476 -1.3151  2.0526
  359MOL0     H49517  10.127   6.491   9.172 -1.2146 -1.8470  2.3244
  359MOL0     H49518  10.229   6.409   8.978  0.0152  2.5883  0.4750
  359MOL0     H49519  10.352   6.324   9.068  0.9449  0.6705  0.1592
  359MOL0     H49520  10.434   6.542   9.160  1.7860 -0.3845 -1.3274
  359MOL0     H49521  10.325   6.626   9.049 -1.7860 -0.7260  0.7947
  359MOL0     H49522   9.626   5.768   9.349 -1.2863 -1.7482  1.2600
  359MOL0     H49523   9.461   5.663   9.452 -0.5232  1.6851  1.2220
  359MOL0     H49524   9.207   5.341   9.620  0.0879 -0.1441  1.1757
  359MOL0     H49525   9.065   5.282   9.796 -1.0390 -1.0461 -2.3848
  359MOL0     H49526   7.865   6.172  10.104 -0.8389 -0.3194  0.3362
  359MOL0     H49527   7.789   6.290   9.884  2.0060 -0.6488  0.4501
  359MOL0     H49528   7.452   6.288   9.529 -0.0265  1.0666 -0.4889
  359MOL0     H49529   7.441   6.448   9.357 -0.4078 -0.8038 -2.2753
  359MOL0     H49530   7.532   6.339   9.050 -3.0998  0.5356 -0.5745
  359MOL0     H49531   7.430   6.478   9.079  0.0356  1.2017  1.2953
  359MOL0     H49532   7.697   6.490   8.937  0.5263 -2.3206  1.5125
  359MOL0     H49533   7.552   6.603   8.921  0.3912  0.2516  2.0179
  359MOL0     H49534   7.625   6.339   8.777 -2.7609 -1.1020 -2.3977
  359MOL0     H49535   7.464   6.375   8.818  0.2977 -0.8689 -0.2204
  359MOL0     H49536   7.651   6.553   8.654  1.1732 -1.0008  1.4731
  359MOL0     H49537   7.485   6.604   8.690  0.3229  1.4730 -1.5658
  359MOL0     H49538   7.404   6.318   8.389 -0.6248 -2.4287  3.6990
  359MOL0     H49539   7.835   6.371   9.233 -0.1162  1.2039  1.2100
  359MOL0     H49540   7.962   6.264   9.514  2.6512 -2.3170 -1.0933
  359MOL0     H49541   7.915   6.109   9.456 -0.5543 -0.5180  1.3219
  359MOL0     H49542   7.965   6.241   9.341  0.6707  0.5349  0.7203
  360MOL0     O49543  10.770  11.130  11.273 -0.3729 -0.4064  0.0696
  360MOL0     C49544  10.733  11.010  11.287 -0.0862 -0.2343  0.3349
  360MOL0     O49545  10.819  10.914  11.311  0.1293  0.5584 -0.7134
  360MOL0     C49546  10.954  10.934  11.324 -0.4858  0.1158  0.1786
  360MOL0     C49547  11.008  10.997  11.442 -0.0258 -0.1586 -0.6608
  360MOL0     C49548  11.149  11.009  11.462  0.3424  0.0856  0.5840
  360MOL0     C49549  11.234  10.937  11.372  0.3807 -0.2275 -0.7219
  360MOL0     O49550  11.370  10.936  11.384  0.2398  0.6948 -0.4322
  360MOL0     C49551  11.418  10.975  11.514 -0.2934 -0.0417  0.4338
  360MOL0     C49552  11.564  10.928  11.523 -0.0495 -0.5659 -0.5929
  360MOL0     C49553  11.670  11.021  11.462  0.0396  0.2886 -0.1253
  360MOL0     C49554  11.810  10.972  11.500  0.8999 -0.2315  0.6739
  360MOL0     C49555  11.910  11.066  11.449 -0.2245 -0.4399  0.0143
  360MOL0     C49556  12.050  10.998  11.444 -0.0118  0.4736 -0.2330
  360MOL0     C49557  12.158  11.106  11.421 -0.3826 -0.1521  0.5462
  360MOL0     C49558  12.300  11.044  11.431  0.5501 -0.8451  0.0985
  360MOL0     N49559  12.398  11.132  11.503  0.5038 -0.0772  0.2393
  360MOL0     C49560  12.474  11.090  11.609 -0.2491 -1.0494  0.1201
  360MOL0     C49561  12.552  11.192  11.655  0.3213  0.5370  0.4676
  360MOL0     C49562  12.667  11.189  11.758  0.6705 -0.1524  0.3853
  360MOL0     C49563  12.802  11.154  11.699  0.8324  0.0758  0.0690
  360MOL0     C49564  12.899  11.162  11.811  0.7533  0.3252  0.0062
  360MOL0     C49565  13.043  11.146  11.758 -0.4947 -0.4076  0.1259
  360MOL0     O49566  13.138  11.203  11.850 -0.1399 -0.2086 -0.6052
  360MOL0     C49567  13.273  11.189  11.836 -0.5059 -0.5111  0.5379
  360MOL0     C49568  13.363  11.253  11.924 -0.2773  0.1699  0.5407
  360MOL0     C49569  13.499  11.225  11.933  0.1429 -0.7920 -0.7070
  360MOL0     C49570  13.583  11.284  12.055  0.3262 -0.4928 -0.1312
  360MOL0     C49571  13.550  11.140  11.833  0.1518  0.9167 -0.2813
  360MOL0     C49572  13.689  11.099  11.834 -0.6226 -0.1749 -0.7623
  360MOL0     O49573  13.722  10.982  11.759  0.7788 -0.8692  0.4441
  360MOL0     C49574  13.856  10.960  11.758 -0.3465 -0.1424  0.6368
  360MOL0     C49575  13.906  10.870  11.854 -0.8464  0.5420 -0.5989
  360MOL0     C49576  14.035  10.829  11.844 -0.0278  0.0876  0.3916
  360MOL0     C49577  14.125  10.882  11.752  0.9252  0.3719 -1.0479
  360MOL0     O49578  14.252  10.827  11.765  0.1249 -0.3448 -0.0996
  360MOL0     C49579  14.354  10.905  11.694  0.5188  0.3567  1.0021
  360MOL0     C49580  14.498  10.843  11.729  0.2589  0.5493  0.0498
  360MOL0     C49581  14.529  10.706  11.668  0.1869 -0.5540 -0.4699
  360MOL0     C49582  14.664  10.641  11.721  0.2185 -1.0494 -0.4608
  360MOL0     C49583  14.794  10.720  11.682 -0.2098 -0.9189 -0.1114
  360MOL0     C49584  14.817  10.737  11.531 -0.2012 -0.1873 -0.7040
  360MOL0     C49585  14.962  10.772  11.498 -0.1913  0.6539  0.5230
  360MOL0     C49586  14.992  10.921  11.531  0.2199 -0.0979 -0.4009
  360MOL0    Cl49587  15.141  10.979  11.451 -0.0123 -0.6111 -0.1433
  360MOL0     C49588  14.082  10.981  11.663 -0.1862 -1.6047  0.1318
  360MOL0     C49589  13.949  11.024  11.672  0.5050 -0.5859  0.4171
  360MOL0     O49590  13.771  11.161  11.897  0.1226  0.2004 -0.1777
  360MOL0     C49591  13.464  11.084  11.734 -0.3618  0.1848 -0.7131
  360MOL0     C49592  13.330  11.107  11.734 -0.0304 -0.5615  0.5820
  360MOL0     N49593  12.522  11.302  11.579  0.0656  0.3995  0.0395
  360MOL0     N49594  12.432  11.269  11.491  0.2403  1.1284 -0.2978
  360MOL0     C49595  11.178  10.868  11.267 -0.2465  0.3787  0.2800
  360MOL0     C49596  11.043  10.867  11.238  1.0884  0.2595 -0.2511
  360MOL0     C49597  10.591  10.974  11.289 -0.3483 -0.1601  0.7040
  360MOL0     C49598  10.541  10.897  11.394  1.0056  0.8343  1.0215
  360MOL0     C49599  10.407  10.853  11.391 -0.4539  0.7788  0.4225
  360MOL0     C49600  10.325  10.880  11.278 -0.3459 -0.3986  0.8078
  360MOL0     O49601  10.198  10.856  11.290  0.2333  0.0856  0.4072
  360MOL0     C49602  10.141  10.773  11.183 -0.0119 -0.6339  0.2209
  360MOL0     C49603  10.027  10.847  11.114 -0.6737 -0.2927 -0.7429
  360MOL0     C49604   9.897  10.817  11.186  0.5835 -0.6332 -0.3905
  360MOL0     C49605   9.782  10.914  11.168  0.6136  0.3466  0.1764
  360MOL0     C49606   9.682  10.875  11.269  0.2335 -0.2797  0.3693
  360MOL0     C49607   9.594  10.855  11.344  0.2690  0.2294 -0.6732
  360MOL0     C49608  10.378  10.961  11.174  0.1262  0.5943  0.3782
  360MOL0     C49609  10.507  11.004  11.176 -0.2217  0.8248  0.0014
  360MOL0     C49610  10.560  11.101  11.069  0.1612  0.0479 -0.2177
  360MOL0     H49611  10.933  11.020  11.516  1.6702  1.1871  0.7176
  360MOL0     H49612  11.180  11.069  11.547  1.8505  2.1862 -1.3375
  360MOL0     H49613  11.357  10.937  11.596 -0.1220  2.2166  1.6960
  360MOL0     H49614  11.420  11.085  11.521  0.4441  0.1758 -2.1862
  360MOL0     H49615  11.589  10.930  11.630 -1.5246  2.0153 -0.2163
  360MOL0     H49616  11.568  10.828  11.480 -2.5035 -0.9978  0.0581
  360MOL0     H49617  11.671  11.019  11.353  1.1256  0.7431 -0.1406
  360MOL0     H49618  11.650  11.121  11.501 -0.8927  0.8655 -1.9811
  360MOL0     H49619  11.824  10.964  11.608 -1.0974  1.4105  1.1045
  360MOL0     H49620  11.829  10.877  11.449  2.4197  0.4141 -0.0378
  360MOL0     H49621  11.914  11.148  11.522 -1.3179 -1.1885  0.9633
  360MOL0     H49622  11.884  11.098  11.348  0.8131 -3.5763 -1.3951
  360MOL0     H49623  12.062  10.944  11.538  0.3234  0.3754 -0.3306
  360MOL0     H49624  12.048  10.935  11.354 -1.1870  1.4942 -0.9558
  360MOL0     H49625  12.160  11.193  11.487  2.6528  1.6030 -1.5802
  360MOL0     H49626  12.148  11.152  11.322 -2.2740  0.4014  0.9461
  360MOL0     H49627  12.290  10.944  11.475 -0.5989  0.0846  2.0895
  360MOL0     H49628  12.347  11.017  11.336  0.8822 -0.1445  0.0554
  360MOL0     H49629  12.490  10.989  11.645 -0.1366 -0.4213  1.8987
  360MOL0     H49630  12.647  11.107  11.827 -1.5503  0.6851  0.8317
  360MOL0     H49631  12.666  11.274  11.828  3.0868  0.2906 -0.0193
  360MOL0     H49632  12.802  11.054  11.655  1.0595 -0.0596  0.3701
  360MOL0     H49633  12.826  11.233  11.627  1.6162  0.1233  0.3718
  360MOL0     H49634  12.891  11.258  11.862  1.8617  2.9258 -4.2641
  360MOL0     H49635  12.883  11.084  11.887 -0.0223  0.7159  0.2593
  360MOL0     H49636  13.067  11.041  11.743 -1.3111 -0.7997  1.4332
  360MOL0     H49637  13.065  11.194  11.662 -2.0871 -0.1924 -0.1599
  360MOL0     H49638  13.325  11.327  11.994 -0.0642  0.0395  0.7980
  360MOL0     H49639  13.517  11.321  12.133  1.1943  0.1474  0.3153
  360MOL0     H49640  13.646  11.365  12.017 -0.1722 -1.0738 -2.3404
  360MOL0     H49641  13.633  11.200  12.104 -1.0545 -2.0773 -1.2987
  360MOL0     H49642  13.840  10.829  11.930  0.3178 -1.1028 -0.4024
  360MOL0     H49643  14.077  10.759  11.916  3.4720  0.6569 -0.9097
  360MOL0     H49644  14.341  10.891  11.586 -2.3581 -2.0857  1.5469
  360MOL0     H49645  14.353  11.008  11.730 -2.1109  0.0800  1.8664
  360MOL0     H49646  14.572  10.916  11.696 -0.2506  1.6859  1.3534
  360MOL0     H49647  14.509  10.834  11.837 -2.6180 -0.8193  0.3358
  360MOL0     H49648  14.544  10.720  11.561  0.6596  2.4653 -0.0871
  360MOL0     H49649  14.444  10.643  11.696  0.6998 -0.7481  0.7374
  360MOL0     H49650  14.672  10.541  11.676  1.9846 -0.4383 -1.6028
  360MOL0     H49651  14.657  10.632  11.829 -1.2053  1.2313 -0.2979
  360MOL0     H49652  14.791  10.823  11.718 -2.2003 -1.1175  0.4036
  360MOL0     H49653  14.882  10.672  11.725  0.1011  0.0281  0.3376
  360MOL0     H49654  14.746  10.809  11.488 -1.1070  0.3951  1.6476
  360MOL0     H49655  14.805  10.636  11.491  1.2675 -1.5811  2.1444
  360MOL0     H49656  14.973  10.761  11.390 -1.8773  1.7288  0.1966
  360MOL0     H49657  15.028  10.705  11.554 -0.3432  0.9372  1.0491
  360MOL0     H49658  14.991  10.946  11.637 -0.1194 -2.6228  0.2457
  360MOL0     H49659  14.906  10.978  11.497 -0.7408  0.2563  2.4018
  360MOL0     H49660  14.157  11.023  11.598 -1.2928  2.3194  1.1090
  360MOL0     H49661  13.915  11.104  11.606  2.2711 -0.2460 -0.1319
  360MOL0     H49662  13.514  11.013  11.669  0.1438 -0.6384  0.5326
  360MOL0     H49663  13.273  11.066  11.651  0.2531  2.0770 -1.0216
  360MOL0     H49664  11.246  10.809  11.206 -0.1211 -0.1142  0.8939
  360MOL0     H49665  10.978  10.809  11.173 -2.8147  1.0381  2.5578
  360MOL0     H49666  10.612  10.874  11.472  2.1761  1.1548  0.0677
  360MOL0     H49667  10.359  10.790  11.465 -0.1201  0.0456  0.0179
  360MOL0     H49668  10.227  10.760  11.117 -0.8238 -0.6067 -0.8786
  360MOL0     H49669  10.115  10.670  11.211  2.1354 -1.4731 -0.6876
  360MOL0     H49670  10.012  10.806  11.014 -1.7357 -0.0371 -0.7080
  360MOL0     H49671  10.044  10.955  11.119  2.3962 -0.7480  0.2292
  360MOL0     H49672   9.883  10.715  11.148  0.7237 -0.9144  0.2869
  360MOL0     H49673   9.933  10.814  11.290  1.5204 -1.3737 -0.7218
  360MOL0     H49674   9.731  10.913  11.071  0.5735  0.0352  0.1987
  360MOL0     H49675   9.817  11.016  11.184  2.3185 -0.0831 -0.5013
  360MOL0     H49676   9.518  10.848  11.419  1.8921 -3.7820  0.9126
  360MOL0     H49677  10.310  11.006  11.103  0.8951  1.2649  0.0539
  360MOL0     H49678  10.529  11.069  10.969 -1.2470  0.9676 -0.1102
  360MOL0     H49679  10.512  11.200  11.073 -1.5516 -0.6959 -0.9844
  360MOL0     H49680  10.669  11.112  11.069  0.4091 -2.0049  0.7500
  361MOL0     O49681   2.946   3.132   9.766 -0.1785  0.3923  0.6778
  361MOL0     C49682   2.891   3.072   9.866 -0.6636 -0.0412 -0.5251
  361MOL0     O49683   2.760   3.055   9.889  0.9209 -0.2925 -0.5635
  361MOL0     C49684   2.677   3.101   9.788 -0.3000  0.0737 -0.2454
  361MOL0     C49685   2.639   3.235   9.773  0.6365 -0.3364 -0.8599
  361MOL0     C49686   2.551   3.281   9.673 -0.5185  0.5769 -0.1718
  361MOL0     C49687   2.501   3.191   9.581  0.7483  0.6444 -0.7809
  361MOL0     O49688   2.412   3.218   9.483 -0.7517  0.0565 -0.2356
  361MOL0     C49689   2.327   3.332   9.490 -0.6441  0.3029  0.5681
  361MOL0     C49690   2.243   3.342   9.363 -0.7670 -0.2492  0.2298
  361MOL0     C49691   2.129   3.446   9.380 -0.7020 -0.3016  0.7031
  361MOL0     C49692   2.026   3.448   9.273  0.5311  0.8023 -0.8381
  361MOL0     C49693   1.923   3.335   9.269 -0.1435 -0.5303 -0.0604
  361MOL0     C49694   1.815   3.364   9.169  0.0771 -0.1700 -0.1033
  361MOL0     C49695   1.699   3.261   9.185 -0.3007  0.1932  0.1130
  361MOL0     C49696   1.584   3.288   9.081  0.0335  0.1172 -0.7308
  361MOL0     N49697   1.610   3.297   8.939 -0.7841 -1.1022 -1.0549
  361MOL0     C49698   1.629   3.190   8.853  0.3789  0.4140 -0.5269
  361MOL0     C49699   1.699   3.245   8.755 -1.2895  0.6481 -0.1500
  361MOL0     C49700   1.751   3.161   8.640  0.7244 -0.0015 -0.1059
  361MOL0     C49701   1.649   3.167   8.524 -0.0122  0.0435 -0.8517
  361MOL0     C49702   1.702   3.111   8.395  0.0769 -0.0505  0.4950
  361MOL0     C49703   1.620   3.153   8.270 -0.1448 -0.0830  0.5420
  361MOL0     O49704   1.661   3.286   8.233 -0.0031 -0.4430 -0.1989
  361MOL0     C49705   1.791   3.305   8.199 -0.6370  0.2839  0.8176
  361MOL0     C49706   1.845   3.424   8.234  0.2090 -0.0932  0.5754
  361MOL0     C49707   1.976   3.463   8.193  0.1060 -0.4116 -0.2754
  361MOL0     C49708   2.024   3.605   8.203  0.6915  0.4434  0.3244
  361MOL0     C49709   2.060   3.365   8.125 -0.5963  0.2238 -1.0279
  361MOL0     C49710   2.197   3.393   8.073  0.3186  0.7861 -0.0157
  361MOL0     O49711   2.258   3.517   8.088 -1.1067  0.8877 -0.3226
  361MOL0     C49712   2.394   3.509   8.056  0.8836 -1.0410 -0.4471
  361MOL0     C49713   2.487   3.491   8.157  0.1271 -0.0533 -0.4788
  361MOL0     C49714   2.622   3.497   8.128  0.2622  0.5800 -0.0071
  361MOL0     C49715   2.668   3.523   7.997 -0.5410 -1.1600 -0.2863
  361MOL0     O49716   2.809   3.547   7.974 -0.0875 -0.4079 -1.0196
  361MOL0     C49717   2.853   3.504   7.847 -0.1717 -0.1392 -0.4307
  361MOL0     C49718   3.001   3.471   7.859  0.0400  0.1270 -0.8503
  361MOL0     C49719   3.028   3.341   7.942  0.5445 -0.0217  1.3018
  361MOL0     C49720   3.170   3.276   7.944  0.1037 -0.5166 -0.0061
  361MOL0     C49721   3.172   3.133   8.010 -0.4871 -0.0848  0.3022
  361MOL0     C49722   3.100   3.021   7.931  0.3992  1.0285  0.3197
  361MOL0     C49723   3.078   2.896   8.016  0.1979  1.0796  0.5827
  361MOL0     C49724   3.043   2.781   7.915 -0.4610 -0.6700  0.0069
  361MOL0    Cl49725   3.000   2.636   8.000  0.4920  0.2996 -0.2805
  361MOL0     C49726   2.577   3.550   7.896  0.2373  0.9549 -0.3606
  361MOL0     C49727   2.441   3.550   7.926  0.0214 -0.5115 -0.1330
  361MOL0     O49728   2.245   3.298   8.012 -0.9295  0.0684 -0.4163
  361MOL0     C49729   2.001   3.245   8.101  0.0867  0.3111 -0.4055
  361MOL0     C49730   1.871   3.208   8.135  0.0004  0.5016  0.4751
  361MOL0     N49731   1.727   3.373   8.765 -0.1697  0.2218  0.0919
  361MOL0     N49732   1.674   3.404   8.882  0.3492  0.3898 -0.0234
  361MOL0     C49733   2.538   3.058   9.594 -0.9582 -0.1003  0.6449
  361MOL0     C49734   2.626   3.012   9.689  0.9635  0.5693  0.2443
  361MOL0     C49735   2.986   3.008   9.965  1.0640 -0.2708 -0.2234
  361MOL0     C49736   2.921   2.917  10.053 -0.2732  0.1497  0.5376
  361MOL0     C49737   3.004   2.852  10.146  0.1974 -0.3169  0.6413
  361MOL0     C49738   3.146   2.865  10.145 -0.3787 -0.6634 -0.8578
  361MOL0     O49739   3.228   2.804  10.230  0.1255  0.2160  0.2789
  361MOL0     C49740   3.196   2.679  10.288 -0.0426 -0.8971 -0.3601
  361MOL0     C49741   3.306   2.582  10.299 -0.7722  0.5054 -0.1227
  361MOL0     C49742   3.358   2.547  10.159 -0.1178 -0.7405  0.4565
  361MOL0     C49743   3.507   2.501  10.160  0.4463 -0.6416 -0.3548
  361MOL0     C49744   3.524   2.379  10.239 -0.3350  0.1012 -0.0131
  361MOL0     C49745   3.538   2.276  10.296  0.0876 -0.4699  0.0911
  361MOL0     C49746   3.206   2.955  10.059 -0.2803 -0.4702 -0.3850
  361MOL0     C49747   3.130   3.031   9.971  0.8224 -0.7266  0.2408
  361MOL0     C49748   3.197   3.146   9.912  0.3923  0.9011  0.6594
  361MOL0     H49749   2.673   3.304   9.849  0.7828 -0.3897 -0.8781
  361MOL0     H49750   2.520   3.385   9.672 -0.5512  0.5649 -0.5005
  361MOL0     H49751   2.389   3.422   9.488  0.8378 -0.6920 -0.7130
  361MOL0     H49752   2.275   3.318   9.585 -0.6870  0.9777  0.6471
  361MOL0     H49753   2.295   3.367   9.270 -0.3314 -1.1903  0.2174
  361MOL0     H49754   2.205   3.242   9.340  1.8831 -0.7003 -2.9433
  361MOL0     H49755   2.087   3.415   9.476 -2.3970  2.7860  1.1062
  361MOL0     H49756   2.173   3.547   9.382 -1.1001 -0.0804 -0.6395
  361MOL0     H49757   1.963   3.538   9.271  0.2232  0.5976 -0.5066
  361MOL0     H49758   2.080   3.445   9.178  3.5432 -3.2626  0.7272
  361MOL0     H49759   1.876   3.319   9.367  0.3237 -0.2248  0.2229
  361MOL0     H49760   1.969   3.241   9.240 -1.0451 -0.6645 -1.1153
  361MOL0     H49761   1.773   3.465   9.175  1.4654  0.5419 -1.5568
  361MOL0     H49762   1.852   3.357   9.066  0.5835 -2.1377  0.1846
  361MOL0     H49763   1.654   3.261   9.285 -0.7495  0.7106 -0.0825
  361MOL0     H49764   1.731   3.160   9.157 -1.4635 -0.5700  1.3710
  361MOL0     H49765   1.504   3.216   9.103  1.6537 -0.8908  2.3634
  361MOL0     H49766   1.549   3.388   9.108  1.6243  0.0863  1.8123
  361MOL0     H49767   1.602   3.087   8.873  2.5183  0.1912  1.6423
  361MOL0     H49768   1.764   3.055   8.662 -1.0156 -0.5648 -1.5327
  361MOL0     H49769   1.851   3.194   8.609  0.2777  0.7010 -0.8655
  361MOL0     H49770   1.552   3.123   8.552  0.0244  1.0477  0.9875
  361MOL0     H49771   1.621   3.273   8.516 -1.7529 -0.2720  0.2899
  361MOL0     H49772   1.808   3.132   8.377 -0.1670 -0.2805 -1.4999
  361MOL0     H49773   1.711   3.003   8.411  1.8232  0.0932  0.7075
  361MOL0     H49774   1.628   3.080   8.189 -1.0879  2.2157 -1.7703
  361MOL0     H49775   1.513   3.152   8.292 -0.6722 -0.0943 -1.7544
  361MOL0     H49776   1.796   3.504   8.289  1.0295  1.0138 -0.2535
  361MOL0     H49777   2.043   3.641   8.102 -2.3445  1.9152  0.1583
  361MOL0     H49778   2.116   3.612   8.263  0.4107 -1.5344  1.0684
  361MOL0     H49779   1.946   3.670   8.243 -0.1640 -1.2642  1.5644
  361MOL0     H49780   2.458   3.462   8.257 -1.2651  1.6646 -0.3340
  361MOL0     H49781   2.692   3.483   8.211  0.2557  1.2791  0.1254
  361MOL0     H49782   2.795   3.415   7.823 -0.9713  0.0825  0.6084
  361MOL0     H49783   2.848   3.587   7.776  2.4621  2.5558  2.1850
  361MOL0     H49784   3.039   3.447   7.759  0.0859  1.2021 -1.1014
  361MOL0     H49785   3.047   3.561   7.900 -0.0488 -0.8553  1.5756
  361MOL0     H49786   2.958   3.266   7.903  1.5256 -0.7885  0.9690
  361MOL0     H49787   3.005   3.363   8.047  1.7606  2.0092  1.1915
  361MOL0     H49788   3.234   3.340   8.007 -1.6133  1.5718 -0.2525
  361MOL0     H49789   3.219   3.264   7.847  2.8466 -0.7068  1.3106
  361MOL0     H49790   3.270   3.098   8.042 -0.3413  1.4349  1.6708
  361MOL0     H49791   3.113   3.152   8.100  0.3395  0.6577  0.7012
  361MOL0     H49792   3.160   3.001   7.841 -0.0066 -0.4687  0.3564
  361MOL0     H49793   3.001   3.061   7.910 -0.4403 -1.0208  0.1219
  361MOL0     H49794   2.991   2.908   8.082 -0.6546 -0.1917 -0.2669
  361MOL0     H49795   3.161   2.865   8.081 -0.1773 -1.5644 -0.1201
  361MOL0     H49796   3.132   2.771   7.852 -0.3308  2.0084 -0.3732
  361MOL0     H49797   2.958   2.825   7.861 -0.3988 -0.6196 -0.0508
  361MOL0     H49798   2.600   3.555   7.790 -2.7878 -1.2605 -1.2733
  361MOL0     H49799   2.367   3.557   7.847 -0.0059  1.3386  0.0033
  361MOL0     H49800   2.052   3.161   8.055  0.8984  1.3666 -1.5021
  361MOL0     H49801   1.836   3.108   8.112 -4.7651  1.7133  1.3650
  361MOL0     H49802   2.496   3.000   9.512 -0.7605  2.6041 -1.5014
  361MOL0     H49803   2.650   2.907   9.696  4.6179  1.1347 -1.4907
  361MOL0     H49804   2.817   2.886  10.045 -0.2937  0.6500 -1.7427
  361MOL0     H49805   2.954   2.786  10.216  1.6788 -2.3211 -0.0778
  361MOL0     H49806   3.167   2.692  10.393 -3.4789 -1.2325 -1.1547
  361MOL0     H49807   3.119   2.623  10.234 -3.0397  1.4931  1.0840
  361MOL0     H49808   3.278   2.487  10.346  1.5636 -0.0612  0.2956
  361MOL0     H49809   3.383   2.624  10.364  0.0090 -0.6472 -0.2656
  361MOL0     H49810   3.294   2.469  10.117 -1.6074 -1.0615  3.0824
  361MOL0     H49811   3.362   2.631  10.089 -3.2193 -0.4810  0.4402
  361MOL0     H49812   3.561   2.582  10.211 -1.1281 -0.0610  0.4468
  361MOL0     H49813   3.555   2.492  10.062 -0.8690  0.1794 -1.1124
  361MOL0     H49814   3.557   2.185  10.350 -1.8978 -0.4998  0.8197
  361MOL0     H49815   3.313   2.963  10.074 -0.0807 -4.3000  1.4250
  361MOL0     H49816   3.222   3.118   9.810 -1.7965 -2.6701  0.9234
  361MOL0     H49817   3.130   3.232   9.915 -0.6784  0.1475 -0.5458
  361MOL0     H49818   3.284   3.176   9.970  0.6629  1.2304  0.0894
  362MOL0     O49819   9.848   3.847   1.009  0.4502  0.3479  0.2230
  362MOL0     C49820   9.879   3.899   1.113 -0.0319  0.0256  0.5300
  362MOL0     O49821  10.002   3.920   1.155  0.3303  0.5466  0.5219
  362MOL0     C49822  10.113   3.851   1.091  0.5190 -0.3492 -0.4670
  362MOL0     C49823  10.243   3.893   1.137 -0.0998 -0.7881  0.1600
  362MOL0     C49824  10.358   3.843   1.085 -0.0709 -0.4931 -0.7725
  362MOL0     C49825  10.363   3.744   0.989  0.2302  0.0797 -0.5767
  362MOL0     O49826  10.490   3.720   0.940 -0.3831 -0.1627 -0.3623
  362MOL0     C49827  10.503   3.592   0.887 -0.2451  0.3984  0.4145
  362MOL0     C49828  10.572   3.591   0.749 -0.2496 -0.1446 -0.2978
  362MOL0     C49829  10.707   3.675   0.739  0.1889 -0.4172 -0.4532
  362MOL0     C49830  10.805   3.613   0.643 -0.4152 -0.3913  0.1491
  362MOL0     C49831  10.921   3.710   0.612 -0.0719  0.5977 -0.2628
  362MOL0     C49832  11.023   3.648   0.517 -0.1151  0.4538 -0.0886
  362MOL0     C49833  11.133   3.745   0.474  0.2470 -0.7095 -0.3717
  362MOL0     C49834  11.243   3.672   0.390 -0.1391  0.0517  0.2029
  362MOL0     N49835  11.353   3.771   0.367  0.2405 -0.4322  0.7020
  362MOL0     C49836  11.351   3.871   0.269  0.2449  0.7913  0.9128
  362MOL0     C49837  11.470   3.936   0.282  0.2104  0.0483  0.2260
  362MOL0     C49838  11.500   4.069   0.223  0.0272 -0.4562  0.1416
  362MOL0     C49839  11.638   4.074   0.172 -0.2794  0.0379  0.0467
  362MOL0     C49840  11.732   4.147   0.271  0.5338  0.4646 -0.2874
  362MOL0     C49841  11.876   4.150   0.203  0.3654 -0.2768 -0.3422
  362MOL0     O49842  11.971   4.192   0.307  0.2862 -0.4454  0.1385
  362MOL0     C49843  12.091   4.238   0.270  0.2119 -0.1459 -0.0492
  362MOL0     C49844  12.148   4.251   0.134  0.3995 -0.0945 -0.7269
  362MOL0     C49845  12.288   4.277   0.113  0.0661 -0.1274  0.1294
  362MOL0     C49846  12.334   4.289  -0.032 -0.0853  0.0888  0.3083
  362MOL0     C49847  12.370   4.287   0.222 -0.2540  0.5709  0.6884
  362MOL0     C49848  12.515   4.315   0.207  0.3775  0.4374 -0.4571
  362MOL0     O49849  12.590   4.248   0.295 -0.6162  0.1047  0.1319
  362MOL0     C49850  12.725   4.257   0.299  0.4603 -0.1791  0.3025
  362MOL0     C49851  12.762   4.234   0.430  0.4001  0.2283  0.2298
  362MOL0     C49852  12.898   4.234   0.462 -0.1668  0.4669  0.2540
  362MOL0     C49853  13.000   4.266   0.362  0.5961 -0.3652 -0.8290
  362MOL0     O49854  13.129   4.260   0.402 -0.0199 -0.0843 -0.2176
  362MOL0     C49855  13.212   4.361   0.347 -0.5088  0.3033 -0.0469
  362MOL0     C49856  13.355   4.312   0.371  0.0034 -0.2645  0.2856
  362MOL0     C49857  13.451   4.412   0.311 -0.5062 -0.3414  0.1259
  362MOL0     C49858  13.595   4.400   0.349 -0.5139 -0.2461  0.0214
  362MOL0     C49859  13.694   4.485   0.259 -0.6965 -0.1747 -1.0562
  362MOL0     C49860  13.838   4.458   0.309  0.1981 -0.1047  0.5735
  362MOL0     C49861  13.952   4.556   0.270 -0.2410 -0.0049  0.1560
  362MOL0     C49862  14.083   4.495   0.313 -1.1783  0.3065  0.4144
  362MOL0    Cl49863  14.225   4.598   0.280 -0.3928 -0.3006 -0.4685
  362MOL0     C49864  12.956   4.293   0.232 -0.0831 -1.1714  0.1463
  362MOL0     C49865  12.818   4.291   0.200 -0.3131  0.2536 -0.5079
  362MOL0     O49866  12.551   4.405   0.136  0.3223 -0.4862 -0.2609
  362MOL0     C49867  12.309   4.286   0.347  0.3093 -0.3641  0.2201
  362MOL0     C49868  12.178   4.258   0.371 -0.6707 -0.4416  0.2155
  362MOL0     N49869  11.552   3.868   0.366 -0.9554 -0.0901  0.4211
  362MOL0     N49870  11.483   3.770   0.420  0.5776  0.1307  0.5985
  362MOL0     C49871  10.234   3.694   0.937  0.5075 -0.1823 -0.0728
  362MOL0     C49872  10.111   3.746   0.993 -0.8336 -0.3923 -0.6677
  362MOL0     C49873   9.766   3.933   1.203  0.0881  1.4103 -0.8510
  362MOL0     C49874   9.812   3.992   1.324 -0.3022  0.5401 -0.3288
  362MOL0     C49875   9.720   4.028   1.426 -0.6462 -0.0822 -0.0390
  362MOL0     C49876   9.583   3.998   1.403 -0.1504  0.7984 -0.8378
  362MOL0     O49877   9.497   4.012   1.511  0.0248  0.2492  0.8292
  362MOL0     C49878   9.405   4.116   1.480  0.5373 -0.3568  0.6842
  362MOL0     C49879   9.345   4.182   1.609 -0.5820  0.2285  0.2396
  362MOL0     C49880   9.263   4.080   1.692  0.7053  0.0429 -0.2007
  362MOL0     C49881   9.286   4.114   1.837  0.4442 -0.5049 -1.1959
  362MOL0     C49882   9.227   4.247   1.878 -0.4531  0.4838  0.4230
  362MOL0     C49883   9.177   4.357   1.885 -0.8306 -0.2547 -0.0638
  362MOL0     C49884   9.536   3.935   1.289 -0.3053 -0.3635 -0.0337
  362MOL0     C49885   9.621   3.909   1.186 -0.3222  0.5573 -0.2431
  362MOL0     C49886   9.560   3.861   1.054  0.0603 -0.3552  0.0504
  362MOL0     H49887  10.262   3.969   1.212 -3.0150  0.4726 -0.2579
  362MOL0     H49888  10.451   3.885   1.119 -0.1273  0.4736 -1.7510
  362MOL0     H49889  10.407   3.539   0.880 -1.4251  2.2234  1.9409
  362MOL0     H49890  10.559   3.531   0.959 -3.2742 -1.3803  1.4528
  362MOL0     H49891  10.596   3.493   0.706 -0.6273 -0.9683  1.2846
  362MOL0     H49892  10.503   3.634   0.676 -1.0867 -0.4267  0.3069
  362MOL0     H49893  10.682   3.779   0.717  0.2231 -0.0435  1.1103
  362MOL0     H49894  10.761   3.672   0.834  0.2591 -0.2780 -0.4886
  362MOL0     H49895  10.835   3.509   0.661 -3.1217 -1.2249  0.2044
  362MOL0     H49896  10.746   3.606   0.551 -1.5131 -1.9860  0.9242
  362MOL0     H49897  10.967   3.731   0.709 -0.4132  1.1627 -0.2220
  362MOL0     H49898  10.892   3.809   0.575  0.5776 -0.0205 -2.6463
  362MOL0     H49899  11.074   3.562   0.561  3.1516  1.8789 -0.8187
  362MOL0     H49900  10.962   3.611   0.434 -1.3784 -1.5903  1.6245
  362MOL0     H49901  11.179   3.773   0.569 -0.5862 -0.7869  0.0586
  362MOL0     H49902  11.085   3.830   0.425  0.1057 -1.5635 -1.7599
  362MOL0     H49903  11.287   3.581   0.433 -1.4663  0.0631  1.6928
  362MOL0     H49904  11.192   3.636   0.301 -0.7671 -0.6838  0.8405
  362MOL0     H49905  11.273   3.895   0.197  2.1998  1.2786 -1.1619
  362MOL0     H49906  11.486   4.139   0.306  0.2864 -0.5851  0.2951
  362MOL0     H49907  11.425   4.098   0.149 -0.8255  1.2493  1.6108
  362MOL0     H49908  11.664   3.970   0.153 -1.2708 -0.2573  0.2504
  362MOL0     H49909  11.637   4.135   0.081  0.2054  2.7264  1.7265
  362MOL0     H49910  11.699   4.248   0.296 -0.8496  0.5973 -2.4132
  362MOL0     H49911  11.729   4.091   0.365  1.8845 -1.8424 -1.5137
  362MOL0     H49912  11.907   4.053   0.163  0.5932 -0.3278 -0.0410
  362MOL0     H49913  11.875   4.214   0.114 -0.2891 -2.3911 -1.9661
  362MOL0     H49914  12.075   4.238   0.055 -0.6262 -0.0588  0.1976
  362MOL0     H49915  12.411   4.213  -0.050  1.3113  1.3536  0.7191
  362MOL0     H49916  12.386   4.384  -0.050  0.2413 -0.6610 -3.7626
  362MOL0     H49917  12.255   4.276  -0.107  2.9080  0.1885 -3.1668
  362MOL0     H49918  12.684   4.207   0.500  1.7483 -4.5680  0.2346
  362MOL0     H49919  12.930   4.217   0.564  0.7458 -0.2908 -0.1347
  362MOL0     H49920  13.204   4.354   0.238 -0.0774 -2.3029  0.0073
  362MOL0     H49921  13.192   4.461   0.385 -1.0789 -0.3834  1.5759
  362MOL0     H49922  13.365   4.320   0.479 -1.2212  1.8379  0.2936
  362MOL0     H49923  13.385   4.212   0.338 -3.0384 -1.4813  0.7950
  362MOL0     H49924  13.411   4.514   0.317 -0.6704 -0.4781  1.7325
  362MOL0     H49925  13.455   4.392   0.204  2.5414 -0.8504  0.2479
  362MOL0     H49926  13.621   4.294   0.339  0.2230  0.0839 -2.0359
  362MOL0     H49927  13.614   4.440   0.449 -1.3470  1.2597 -0.3961
  362MOL0     H49928  13.691   4.458   0.153 -0.1484  0.1409 -1.1572
  362MOL0     H49929  13.683   4.594   0.265  1.7569  0.1645 -1.5603
  362MOL0     H49930  13.872   4.368   0.259  0.6020 -1.0986  2.5179
  362MOL0     H49931  13.843   4.451   0.418  0.9519 -1.1200  0.4811
  362MOL0     H49932  13.943   4.651   0.323  0.8477  0.5679 -0.6318
  362MOL0     H49933  13.947   4.568   0.161 -1.4667  0.2282  0.2285
  362MOL0     H49934  14.097   4.398   0.263 -0.6545  0.2788  0.6017
  362MOL0     H49935  14.070   4.481   0.421  2.7198 -0.9740  0.8815
  362MOL0     H49936  13.014   4.330   0.149 -0.9270 -1.4991 -0.6093
  362MOL0     H49937  12.791   4.318   0.098  2.7133 -1.6328 -1.9697
  362MOL0     H49938  12.377   4.303   0.430 -1.1561  1.3354  1.1264
  362MOL0     H49939  12.147   4.245   0.474  0.5115 -3.1876  0.3234
  362MOL0     H49940  10.231   3.618   0.860  1.0288 -1.9459  1.5665
  362MOL0     H49941  10.020   3.702   0.954 -2.6462  2.2487  0.3594
  362MOL0     H49942   9.916   4.010   1.348 -0.1934 -1.3091  0.8009
  362MOL0     H49943   9.746   4.080   1.518 -2.3525 -1.5586  1.3592
  362MOL0     H49944   9.462   4.192   1.427 -0.2229 -1.3649 -1.6869
  362MOL0     H49945   9.323   4.091   1.412  2.0598  1.5458 -2.0165
  362MOL0     H49946   9.277   4.265   1.587 -1.7493 -0.9246 -0.6148
  362MOL0     H49947   9.434   4.217   1.664  0.5450 -1.2832 -0.5653
  362MOL0     H49948   9.156   4.087   1.669  0.6584  1.8785  0.4373
  362MOL0     H49949   9.299   3.979   1.671  2.9435  0.4183  1.4856
  362MOL0     H49950   9.391   4.100   1.864 -0.1639 -2.7190  0.2357
  362MOL0     H49951   9.237   4.046   1.907 -0.6213 -0.1308 -1.5582
  362MOL0     H49952   9.157   4.462   1.883 -0.6485 -0.1632  1.3247
  362MOL0     H49953   9.431   3.914   1.277 -0.5621 -0.5345  2.1434
  362MOL0     H49954   9.594   3.760   1.030  0.0066 -0.4795  0.4828
  362MOL0     H49955   9.452   3.860   1.067  0.2615  1.4585  2.7417
  362MOL0     H49956   9.584   3.930   0.973  0.9425 -2.0406 -1.1873
  363MOL0     O49957   9.002   0.499   4.611  0.3165  0.0023  0.6095
  363MOL0     C49958   8.994   0.435   4.508 -1.0377  0.7002 -0.5400
  363MOL0     O49959   9.096   0.367   4.448 -0.7101 -0.0989 -0.0241
  363MOL0     C49960   9.231   0.384   4.491 -0.9005 -0.2296  0.5448
  363MOL0     C49961   9.267   0.378   4.629  0.1171 -0.4642 -0.0047
  363MOL0     C49962   9.396   0.416   4.673  0.1717  0.3430  0.1293
  363MOL0     C49963   9.493   0.445   4.575 -0.8248 -0.3824  0.0849
  363MOL0     O49964   9.628   0.461   4.614  0.0733  0.4807 -0.6207
  363MOL0     C49965   9.660   0.475   4.759 -0.7316 -0.3136 -0.2258
  363MOL0     C49966   9.804   0.504   4.788  0.0671 -0.0410 -0.0939
  363MOL0     C49967   9.860   0.643   4.748  0.1611  0.1306 -0.7129
  363MOL0     C49968   9.993   0.667   4.819 -0.2696 -0.0676  0.5198
  363MOL0     C49969  10.053   0.803   4.772 -0.2352 -0.0839 -1.5488
  363MOL0     C49970  10.115   0.887   4.884  0.0401  0.2973 -0.9839
  363MOL0     C49971  10.153   1.023   4.837  0.3778  0.3377  0.5428
  363MOL0     C49972  10.187   1.132   4.946  0.0676  0.5490  0.7980
  363MOL0     N49973  10.285   1.085   5.048  0.5338 -0.2778  0.5070
  363MOL0     C49974  10.420   1.072   5.022  0.0046  0.0047  0.6153
  363MOL0     C49975  10.470   0.989   5.119  0.3762  0.6378  0.0371
  363MOL0     C49976  10.609   0.938   5.138 -0.4432 -0.5448 -0.0578
  363MOL0     C49977  10.679   1.041   5.238 -0.0389  0.4288  0.0342
  363MOL0     C49978  10.794   0.977   5.314  1.2607  0.0042 -0.1523
  363MOL0     C49979  10.914   0.948   5.223  0.3699 -0.2699 -0.2384
  363MOL0     O49980  10.968   1.077   5.185 -0.2737 -0.2862 -0.5008
  363MOL0     C49981  11.072   1.083   5.096 -0.1632 -0.0868  0.1055
  363MOL0     C49982  11.139   0.970   5.047 -0.0887 -0.2912  0.0347
  363MOL0     C49983  11.251   0.988   4.961  0.7567 -0.5377 -0.0862
  363MOL0     C49984  11.318   0.862   4.916  0.3787  0.0430 -0.5290
  363MOL0     C49985  11.299   1.121   4.936 -0.5252 -0.1097 -0.2991
  363MOL0     C49986  11.420   1.156   4.855 -0.0041 -0.3982  0.3220
  363MOL0     O49987  11.497   1.063   4.812  0.1737 -0.2704 -0.6590
  363MOL0     C49988  11.614   1.084   4.745  0.2269  0.2053  0.1887
  363MOL0     C49989  11.607   1.098   4.611 -0.2221  0.1349  0.3584
  363MOL0     C49990  11.725   1.104   4.539  0.1967 -0.1628 -0.4437
  363MOL0     C49991  11.854   1.097   4.606 -0.1057 -0.2594 -0.0988
  363MOL0     O49992  11.964   1.090   4.524  0.0276 -0.1102  0.3803
  363MOL0     C49993  12.083   1.160   4.560  0.3829 -0.1089  0.4947
  363MOL0     C49994  12.196   1.063   4.605  0.8197  0.2079 -0.3899
  363MOL0     C49995  12.311   1.147   4.663 -0.7094 -0.8501  0.3295
  363MOL0     C49996  12.374   1.244   4.555  0.0070  0.7797 -0.2429
  363MOL0     C49997  12.520   1.269   4.590  0.1465 -0.4444 -0.1840
  363MOL0     C49998  12.587   1.343   4.476  0.2489 -0.2894 -0.0159
  363MOL0     C49999  12.731   1.356   4.511 -0.3066  0.3534  0.2196
  363MOL0     C50000  12.806   1.436   4.410 -0.1894  0.0164 -0.2021
  363MOL0    Cl50001  12.762   1.603   4.432  0.2115  0.4354  0.1940
  363MOL0     C50002  11.854   1.085   4.741  0.1823 -0.3820 -0.6190
  363MOL0     C50003  11.737   1.079   4.815  0.4905  0.6496  0.1435
  363MOL0     O50004  11.444   1.273   4.828  0.2028  0.1495 -0.3199
  363MOL0     C50005  11.220   1.227   4.983  0.1239  0.0358 -0.2450
  363MOL0     C50006  11.111   1.211   5.059  0.1794 -0.3633 -0.1978
  363MOL0     N50007  10.363   0.951   5.202 -0.3977 -0.7518 -0.2959
  363MOL0     N50008  10.248   1.005   5.154 -0.5685  0.2813 -0.2316
  363MOL0     C50009   9.458   0.449   4.437  0.6719 -0.4056  0.7782
  363MOL0     C50010   9.327   0.423   4.391  0.1130  0.2625  0.2313
  363MOL0     C50011   8.863   0.410   4.440  0.8337 -0.3995 -0.0053
  363MOL0     C50012   8.864   0.347   4.316 -0.3531  0.1717 -0.3944
  363MOL0     C50013   8.745   0.318   4.254 -0.1059  0.2787  0.1754
  363MOL0     C50014   8.624   0.344   4.308  0.9536  0.5031 -0.3104
  363MOL0     O50015   8.504   0.294   4.264 -0.2784  0.6733 -0.1116
  363MOL0     C50016   8.501   0.149   4.234 -0.8196  0.2056 -0.5218
  363MOL0     C50017   8.385   0.103   4.141 -0.3088 -0.4156 -0.0653
  363MOL0     C50018   8.253   0.158   4.187 -0.2915 -0.4733 -0.8023
  363MOL0     C50019   8.206   0.101   4.321 -0.0470  0.0468  0.3457
  363MOL0     C50020   8.062   0.087   4.340 -1.1153  0.0635 -0.4880
  363MOL0     C50021   7.936   0.092   4.335  0.6560 -0.3867  0.5843
  363MOL0     C50022   8.624   0.417   4.427 -0.0158  0.0619  0.1610
  363MOL0     C50023   8.738   0.450   4.503 -0.1956  0.2333  0.0221
  363MOL0     C50024   8.724   0.525   4.630  0.2755 -1.3660 -0.2799
  363MOL0     H50025   9.205   0.343   4.710  0.4534  0.5691  0.7174
  363MOL0     H50026   9.417   0.416   4.780  1.2171  0.7885 -0.0538
  363MOL0     H50027   9.642   0.380   4.809 -1.6470  0.0847  0.2308
  363MOL0     H50028   9.614   0.565   4.801 -0.0589  0.7794 -1.7400
  363MOL0     H50029   9.830   0.471   4.889 -2.6223 -1.4358  0.2438
  363MOL0     H50030   9.864   0.435   4.728  0.8844  1.0148 -0.5176
  363MOL0     H50031   9.877   0.642   4.640  0.6824 -2.1075 -0.6479
  363MOL0     H50032   9.787   0.722   4.768 -2.0281 -1.5033 -1.8244
  363MOL0     H50033   9.984   0.675   4.927  5.2658 -2.9272  1.5795
  363MOL0     H50034  10.062   0.584   4.798 -0.4743 -0.9884  3.1765
  363MOL0     H50035   9.977   0.867   4.727 -0.4335  1.2059  0.4986
  363MOL0     H50036  10.125   0.771   4.696 -0.4884 -3.0808 -0.6564
  363MOL0     H50037  10.037   0.892   4.961 -0.5669 -2.4436 -1.3179
  363MOL0     H50038  10.198   0.833   4.930 -1.1111 -0.9146 -0.2736
  363MOL0     H50039  10.079   1.057   4.764  1.0894  1.2423  0.2200
  363MOL0     H50040  10.246   1.009   4.781  0.3332  1.4593  0.1691
  363MOL0     H50041  10.228   1.225   4.905 -0.7217  0.5850  0.0500
  363MOL0     H50042  10.088   1.156   4.986 -0.8316  0.7487 -1.4123
  363MOL0     H50043  10.479   1.110   4.939 -0.4814 -3.3814 -1.4631
  363MOL0     H50044  10.665   0.936   5.044 -0.6577  0.7188 -0.2245
  363MOL0     H50045  10.610   0.838   5.183 -1.3185 -1.6741 -2.3912
  363MOL0     H50046  10.719   1.127   5.185  1.2961 -1.2145 -1.7874
  363MOL0     H50047  10.593   1.065   5.302 -1.1069  0.3641 -1.3200
  363MOL0     H50048  10.813   1.049   5.394  0.6014  0.3817 -0.3250
  363MOL0     H50049  10.759   0.889   5.368  2.5015 -0.0767  0.5503
  363MOL0     H50050  10.992   0.890   5.274  0.0048  0.8147  1.6521
  363MOL0     H50051  10.882   0.893   5.134  1.7885 -1.3906 -0.1082
  363MOL0     H50052  11.110   0.870   5.076  2.1388 -0.4583  1.9893
  363MOL0     H50053  11.324   0.862   4.807  3.4781  0.5887 -0.4413
  363MOL0     H50054  11.261   0.775   4.949 -1.6021  1.5021  0.1185
  363MOL0     H50055  11.417   0.858   4.960 -0.1651 -0.8582  0.6543
  363MOL0     H50056  11.512   1.097   4.559 -0.0745  0.3190  0.0867
  363MOL0     H50057  11.731   1.109   4.431 -1.0683 -2.8414 -0.7147
  363MOL0     H50058  12.120   1.226   4.481  2.7301 -0.6183  1.0849
  363MOL0     H50059  12.056   1.218   4.648 -4.1185 -0.4838 -0.4188
  363MOL0     H50060  12.167   1.002   4.691  3.0057  0.1760  0.3890
  363MOL0     H50061  12.224   0.993   4.526  0.0800  0.2679 -0.7153
  363MOL0     H50062  12.380   1.082   4.716 -2.8889 -1.9932  1.9068
  363MOL0     H50063  12.261   1.205   4.741 -2.1178  1.3346 -2.0269
  363MOL0     H50064  12.319   1.338   4.557 -1.3082  0.0187  1.6724
  363MOL0     H50065  12.377   1.186   4.462 -0.3838  0.5723 -0.1275
  363MOL0     H50066  12.520   1.329   4.681 -0.7137 -1.6483  0.6572
  363MOL0     H50067  12.571   1.173   4.604 -1.1665 -1.1520 -0.0527
  363MOL0     H50068  12.550   1.446   4.468  0.8078 -0.2150 -2.5175
  363MOL0     H50069  12.574   1.288   4.383 -4.0239 -2.2784  1.4813
  363MOL0     H50070  12.763   1.252   4.511 -1.9098 -0.2653 -3.1854
  363MOL0     H50071  12.739   1.393   4.614 -0.0856 -1.0660  0.7261
  363MOL0     H50072  12.793   1.406   4.306  1.4737 -1.3171 -0.0797
  363MOL0     H50073  12.913   1.416   4.425 -0.1589  0.2292 -0.1322
  363MOL0     H50074  11.936   1.081   4.811  0.9668  2.0920 -1.3114
  363MOL0     H50075  11.736   1.069   4.923  3.6833 -0.9203  0.1486
  363MOL0     H50076  11.260   1.326   4.962  2.7330 -0.7180  0.6990
  363MOL0     H50077  11.063   1.306   5.081  0.9742 -0.1135  0.5109
  363MOL0     H50078   9.536   0.475   4.366  0.2698  0.7392  0.7312
  363MOL0     H50079   9.297   0.433   4.287 -1.7529  1.1742  0.8157
  363MOL0     H50080   8.954   0.303   4.275 -0.6610 -1.4804  0.5874
  363MOL0     H50081   8.743   0.267   4.158  0.3294 -0.2747  0.4513
  363MOL0     H50082   8.593   0.112   4.188  0.0151 -0.9168  1.9188
  363MOL0     H50083   8.499   0.088   4.325  0.5969  0.1315 -0.5221
  363MOL0     H50084   8.381  -0.006   4.143 -0.3039 -0.4213 -0.3314
  363MOL0     H50085   8.411   0.130   4.038 -1.4852  0.7976 -0.0871
  363MOL0     H50086   8.243   0.267   4.185 -0.9486 -0.5109 -0.2447
  363MOL0     H50087   8.180   0.125   4.112  0.0800  0.0222 -1.3835
  363MOL0     H50088   8.245   0.164   4.402 -0.2462  1.1548 -0.3948
  363MOL0     H50089   8.253   0.003   4.336  4.6689  2.1225  1.0179
  363MOL0     H50090   7.833   0.114   4.316  0.2673 -1.9425  0.7623
  363MOL0     H50091   8.531   0.443   4.477  1.0308  2.6597  0.8572
  363MOL0     H50092   8.770   0.478   4.718 -1.3194 -0.5953  1.0339
  363MOL0     H50093   8.769   0.625   4.621  0.3089 -0.9820  2.9578
  363MOL0     H50094   8.617   0.539   4.650  0.3383  0.5003 -1.0403
  364MOL0     O50095  10.202   4.160   8.237 -0.4465 -0.4116 -0.2342
  364MOL0     C50096  10.279   4.079   8.289  1.5446  0.3800  0.3545
  364MOL0     O50097  10.253   3.942   8.300 -0.7199  0.2675 -0.1528
  364MOL0     C50098  10.135   3.904   8.262 -0.3969 -0.6217  0.7881
  364MOL0     C50099  10.019   3.953   8.329 -0.2778 -0.4569 -0.3490
  364MOL0     C50100   9.888   3.919   8.286 -0.0946  0.6087 -0.1577
  364MOL0     C50101   9.871   3.824   8.186 -0.2638 -0.2460 -0.1188
  364MOL0     O50102   9.733   3.800   8.163 -0.0812 -0.0782 -0.0231
  364MOL0     C50103   9.712   3.760   8.035 -0.2895 -0.2201  0.4582
  364MOL0     C50104   9.576   3.812   7.993 -0.1436  0.3464  0.4998
  364MOL0     C50105   9.469   3.735   8.057 -0.4297  0.6049  0.2513
  364MOL0     C50106   9.336   3.763   7.995 -0.5825  0.3727 -0.1694
  364MOL0     C50107   9.225   3.711   8.071  0.5444  0.0284 -0.0638
  364MOL0     C50108   9.088   3.760   8.007  0.8803  0.0355 -0.3044
  364MOL0     C50109   8.964   3.713   8.084  0.0097  0.7528  0.3118
  364MOL0     C50110   8.836   3.750   8.006 -0.6133  0.0659  0.3163
  364MOL0     N50111   8.835   3.714   7.863 -0.1543  0.5934 -0.2189
  364MOL0     C50112   8.811   3.588   7.809 -0.2136 -0.1559 -0.3416
  364MOL0     C50113   8.843   3.599   7.679 -0.7026  0.1619 -0.3098
  364MOL0     C50114   8.865   3.490   7.580 -0.6003 -0.2748 -0.2433
  364MOL0     C50115   9.015   3.461   7.585 -0.7873  0.0878  0.1643
  364MOL0     C50116   9.050   3.366   7.695 -0.0534  0.1342 -0.3035
  364MOL0     C50117   9.195   3.307   7.675  0.7003 -0.2796  1.0032
  364MOL0     O50118   9.292   3.402   7.680 -0.7763 -0.6419 -0.4159
  364MOL0     C50119   9.421   3.376   7.711  0.6532 -0.5696 -0.9288
  364MOL0     C50120   9.476   3.249   7.702 -0.8235 -0.0063  0.1903
  364MOL0     C50121   9.615   3.233   7.732 -0.2878 -0.3223  0.7275
  364MOL0     C50122   9.660   3.092   7.700  0.2207  0.0738 -0.0752
  364MOL0     C50123   9.699   3.342   7.755  0.4438  0.1098 -0.2435
  364MOL0     C50124   9.845   3.333   7.761  0.5497  0.2869 -0.7782
  364MOL0     O50125   9.909   3.208   7.737  0.3279 -0.2275 -0.4141
  364MOL0     C50126  10.031   3.189   7.779  0.2788 -0.5569  0.0720
  364MOL0     C50127  10.146   3.251   7.738  0.4554  0.3572 -0.1822
  364MOL0     C50128  10.271   3.225   7.801  0.1858 -0.2281 -0.0559
  364MOL0     C50129  10.280   3.136   7.910  0.1201 -0.4105 -0.4781
  364MOL0     O50130  10.394   3.124   7.978  0.2041 -0.1947 -0.0990
  364MOL0     C50131  10.495   3.055   7.906  0.1249  0.4586 -0.0478
  364MOL0     C50132  10.574   2.999   8.027 -0.5961 -0.0395  0.2441
  364MOL0     C50133  10.720   3.009   8.003 -0.1750 -0.3444  0.3240
  364MOL0     C50134  10.805   2.974   8.122 -0.6167 -0.7884 -0.1956
  364MOL0     C50135  10.937   3.050   8.115  0.3356  0.5746 -0.0142
  364MOL0     C50136  11.043   2.964   8.196  1.0252 -0.2424  0.4171
  364MOL0     C50137  11.182   3.037   8.178 -0.1456 -0.0807  1.0891
  364MOL0     C50138  11.297   2.962   8.236 -0.0669 -0.1426  0.4449
  364MOL0    Cl50139  11.445   3.056   8.213  0.0546  0.1760  0.0706
  364MOL0     C50140  10.167   3.066   7.944 -0.0987  0.1112 -0.2434
  364MOL0     C50141  10.044   3.095   7.880  0.1643  0.6102  0.2733
  364MOL0     O50142   9.902   3.437   7.777 -0.5335 -0.3532 -0.5483
  364MOL0     C50143   9.641   3.472   7.762  1.1977 -0.8939 -0.3747
  364MOL0     C50144   9.503   3.483   7.748 -0.8324  0.1452 -0.0599
  364MOL0     N50145   8.868   3.732   7.655 -0.1146  0.3952 -0.3499
  364MOL0     N50146   8.860   3.798   7.766 -0.4826 -1.0184  0.1395
  364MOL0     C50147   9.989   3.775   8.119  0.7705 -0.5619 -0.6917
  364MOL0     C50148  10.117   3.814   8.157 -0.1198  0.8272 -0.0623
  364MOL0     C50149  10.404   4.131   8.362 -0.3484  0.9032 -0.4468
  364MOL0     C50150  10.468   4.039   8.450 -0.1530 -0.0199 -0.6304
  364MOL0     C50151  10.577   4.079   8.531 -1.0238  0.4891  0.7039
  364MOL0     C50152  10.635   4.205   8.518 -0.2688 -0.3772  0.6743
  364MOL0     O50153  10.730   4.242   8.611 -0.3837 -0.1355  0.0310
  364MOL0     C50154  10.833   4.332   8.564 -0.3394  0.0159 -0.8700
  364MOL0     C50155  10.936   4.242   8.491 -1.0284  0.0492 -0.1251
  364MOL0     C50156  11.049   4.321   8.442  0.1707  0.1312 -0.5359
  364MOL0     C50157  11.144   4.386   8.542 -0.5278  0.1616 -1.1795
  364MOL0     C50158  11.198   4.515   8.505 -0.1783 -0.3089 -0.1585
  364MOL0     C50159  11.239   4.624   8.472 -1.1203 -0.1282 -0.7011
  364MOL0     C50160  10.584   4.295   8.422  0.4247  0.8657  0.2188
  364MOL0     C50161  10.462   4.257   8.358  0.1002  0.0596 -0.3876
  364MOL0     C50162  10.416   4.359   8.267  0.4829 -1.3308  0.1196
  364MOL0     H50163  10.020   4.028   8.408 -0.6858 -0.2532 -0.5292
  364MOL0     H50164   9.802   3.971   8.329  0.7308  3.1278 -1.3628
  364MOL0     H50165   9.727   3.652   8.025 -1.3031 -0.4479  1.2060
  364MOL0     H50166   9.787   3.805   7.969 -2.0803  0.4712 -1.2050
  364MOL0     H50167   9.557   3.915   8.022 -0.4473 -0.0089  1.5894
  364MOL0     H50168   9.573   3.814   7.883 -0.4657 -1.0505  0.4601
  364MOL0     H50169   9.483   3.630   8.031 -1.2433  0.7975 -1.0413
  364MOL0     H50170   9.465   3.749   8.165  0.3588 -1.7048  0.6375
  364MOL0     H50171   9.316   3.869   7.979 -1.9492 -0.0104 -1.1920
  364MOL0     H50172   9.342   3.720   7.894  0.2132  0.4774 -0.1768
  364MOL0     H50173   9.208   3.751   8.171 -0.7445  1.6040 -0.8702
  364MOL0     H50174   9.228   3.602   8.061 -2.1229 -0.1993  0.8640
  364MOL0     H50175   9.079   3.868   7.997  1.3378 -0.0800 -2.4770
  364MOL0     H50176   9.091   3.715   7.907  5.2991  0.3205 -0.4803
  364MOL0     H50177   8.969   3.750   8.186  0.7546  2.0509 -0.1735
  364MOL0     H50178   8.975   3.605   8.095  1.3821  0.7123 -1.0969
  364MOL0     H50179   8.744   3.706   8.045 -1.3520  2.6360  1.7813
  364MOL0     H50180   8.817   3.857   8.021 -0.1676 -0.0526  1.8972
  364MOL0     H50181   8.795   3.488   7.848  0.5857 -0.4429 -0.7352
  364MOL0     H50182   8.839   3.543   7.488  0.2862  0.1670 -0.2517
  364MOL0     H50183   8.797   3.406   7.598  0.3719 -1.2451 -0.8939
  364MOL0     H50184   9.034   3.404   7.494 -0.4340  1.3999 -0.6100
  364MOL0     H50185   9.077   3.552   7.586  2.5146 -1.9929 -0.9081
  364MOL0     H50186   9.023   3.401   7.796  2.2083 -0.0512  0.4138
  364MOL0     H50187   8.989   3.279   7.671 -2.0087  1.4573 -0.4431
  364MOL0     H50188   9.207   3.249   7.768  0.2190 -0.5967  0.8728
  364MOL0     H50189   9.215   3.240   7.591  1.1537  0.3680  0.5934
  364MOL0     H50190   9.426   3.161   7.662 -1.0906 -2.5745  5.3175
  364MOL0     H50191   9.580   3.032   7.656 -0.6527  0.1399  1.3883
  364MOL0     H50192   9.688   3.041   7.792  2.5743 -0.7070 -1.1256
  364MOL0     H50193   9.741   3.086   7.626 -0.2374 -0.1026 -0.5715
  364MOL0     H50194  10.144   3.327   7.661 -2.5763  2.5899  1.8436
  364MOL0     H50195  10.357   3.284   7.770 -0.2600  0.8976  0.8042
  364MOL0     H50196  10.470   2.974   7.838  1.9851 -1.0974  1.0072
  364MOL0     H50197  10.560   3.128   7.858  4.4087 -1.9738  1.4370
  364MOL0     H50198  10.555   3.064   8.112  0.8678  0.6236  0.0962
  364MOL0     H50199  10.539   2.900   8.058 -0.9542 -0.0043 -0.0372
  364MOL0     H50200  10.754   3.107   7.969 -0.0408 -0.1687  0.9614
  364MOL0     H50201  10.758   2.934   7.932  2.4271 -0.8284  2.0833
  364MOL0     H50202  10.825   2.867   8.131 -0.4041 -0.5884  2.6092
  364MOL0     H50203  10.771   3.020   8.216  1.8942  1.2738 -0.1925
  364MOL0     H50204  10.977   3.056   8.013  4.2601 -3.3657  0.9405
  364MOL0     H50205  10.927   3.149   8.159 -2.6710  0.0384  0.7286
  364MOL0     H50206  11.050   2.862   8.157 -5.0937 -0.8656  0.0110
  364MOL0     H50207  11.013   2.950   8.300 -0.4982  0.4482  0.0928
  364MOL0     H50208  11.171   3.133   8.230 -1.8065 -1.8177  4.2861
  364MOL0     H50209  11.217   3.046   8.075  0.3078 -0.1988  1.2300
  364MOL0     H50210  11.308   2.867   8.184 -0.2239  0.4495 -0.7004
  364MOL0     H50211  11.278   2.946   8.342 -0.8273 -0.1953  0.3012
  364MOL0     H50212  10.166   2.986   8.018  0.7212  1.4471  1.2860
  364MOL0     H50213   9.956   3.047   7.920  0.9984  0.5416  2.1131
  364MOL0     H50214   9.701   3.560   7.781  0.5058 -0.6882  1.0172
  364MOL0     H50215   9.448   3.577   7.750  1.2045  1.5949 -3.5502
  364MOL0     H50216   9.966   3.712   8.034 -0.6827 -2.5937  1.1185
  364MOL0     H50217  10.203   3.777   8.102  0.0850  2.2962 -0.7901
  364MOL0     H50218  10.438   3.934   8.453  0.7482 -0.2893 -0.6780
  364MOL0     H50219  10.628   4.013   8.601  2.2553  2.9209  0.8525
  364MOL0     H50220  10.796   4.412   8.500 -0.8082  1.2025  0.8091
  364MOL0     H50221  10.867   4.399   8.644  1.4554  2.6122 -3.6286
  364MOL0     H50222  10.909   4.185   8.402 -1.3473 -1.5101  0.9435
  364MOL0     H50223  10.964   4.168   8.565 -1.5749 -0.1447 -0.1124
  364MOL0     H50224  11.100   4.261   8.366 -1.3092 -0.1257 -1.3545
  364MOL0     H50225  11.001   4.399   8.382 -1.1227  0.2684  0.6281
  364MOL0     H50226  11.225   4.314   8.550 -0.4899  0.3715  0.7587
  364MOL0     H50227  11.094   4.406   8.637  2.9291 -0.5608  0.9419
  364MOL0     H50228  11.285   4.714   8.439 -0.4828 -0.9424 -2.0955
  364MOL0     H50229  10.627   4.388   8.387 -2.1133  2.2757  0.5665
  364MOL0     H50230  10.476   4.451   8.259 -1.9980  0.2287 -2.1831
  364MOL0     H50231  10.411   4.317   8.166 -0.5736 -0.1686 -0.3348
  364MOL0     H50232  10.316   4.388   8.298  0.7940 -0.5087  0.3767
  365MOL0     O50233  10.061   9.941   8.989  0.4827 -0.6969 -0.2383
  365MOL0     C50234  10.096   9.830   8.945  0.3716 -0.2233  0.6975
  365MOL0     O50235  10.223   9.782   8.949 -0.8763  0.0830  0.2109
  365MOL0     C50236  10.333   9.862   8.989 -0.5596 -0.2200 -0.2963
  365MOL0     C50237  10.353   9.993   8.945  0.5907 -0.1158 -0.1435
  365MOL0     C50238  10.468  10.062   8.986  0.7461 -0.1362 -0.1762
  365MOL0     C50239  10.560  10.001   9.066 -0.2068  0.2927 -0.3519
  365MOL0     O50240  10.683  10.046   9.111  0.6432  0.5378  0.1841
  365MOL0     C50241  10.728  10.175   9.067 -0.1086  0.7258 -0.4544
  365MOL0     C50242  10.864  10.227   9.115 -0.2079  0.1265 -0.2361
  365MOL0     C50243  10.858  10.271   9.269 -0.4834 -0.3096  0.0362
  365MOL0     C50244  10.778  10.398   9.294  0.7712 -0.4113 -0.3522
  365MOL0     C50245  10.798  10.436   9.441  0.5577  0.4306  0.7648
  365MOL0     C50246  10.681  10.520   9.494 -0.3903 -0.7046  0.2359
  365MOL0     C50247  10.569  10.442   9.565 -0.5582  0.7650 -0.1732
  365MOL0     C50248  10.454  10.537   9.606 -0.6383 -0.2592 -0.4274
  365MOL0     N50249  10.491  10.625   9.718 -0.2985  0.0028 -0.5855
  365MOL0     C50250  10.526  10.580   9.839  1.0959 -0.0651 -0.3539
  365MOL0     C50251  10.559  10.693   9.905 -0.1339 -0.5084 -1.2266
  365MOL0     C50252  10.605  10.706  10.049 -1.0392  0.1354 -0.3839
  365MOL0     C50253  10.753  10.754  10.042  1.1713  0.3742  0.5920
  365MOL0     C50254  10.818  10.757  10.175 -0.0921  0.4119  0.0458
  365MOL0     C50255  10.969  10.751  10.169  0.2534  0.3332 -0.9118
  365MOL0     O50256  11.004  10.616  10.115  0.4833  0.3240  0.1824
  365MOL0     C50257  11.136  10.575  10.104  1.2102  0.1176 -0.7194
  365MOL0     C50258  11.159  10.443  10.059 -0.0627 -0.0589  0.1464
  365MOL0     C50259  11.286  10.389  10.063  0.4962  0.1813 -0.2385
  365MOL0     C50260  11.300  10.241  10.017 -0.6180 -0.5887 -0.5979
  365MOL0     C50261  11.391  10.474  10.105 -0.1111  0.3933  0.2171
  365MOL0     C50262  11.530  10.424  10.126  0.3399 -0.1312  0.2658
  365MOL0     O50263  11.592  10.460  10.247  0.3322 -0.2155  0.1334
  365MOL0     C50264  11.714  10.407  10.269  1.1010  0.7794  0.7221
  365MOL0     C50265  11.810  10.496  10.291 -0.1633  0.2560 -0.3775
  365MOL0     C50266  11.943  10.456  10.309  0.1712 -0.1623  0.1014
  365MOL0     C50267  11.979  10.321  10.312 -0.4092  0.3158  0.1816
  365MOL0     O50268  12.107  10.267  10.333 -0.8582 -0.2646  0.3013
  365MOL0     C50269  12.216  10.358  10.334  0.4855  0.3560 -0.9067
  365MOL0     C50270  12.354  10.278  10.359 -0.2480  0.2202  0.4540
  365MOL0     C50271  12.362  10.229  10.503 -1.0110  0.2758  0.3738
  365MOL0     C50272  12.497  10.160  10.534  0.1860 -0.2774 -0.0569
  365MOL0     C50273  12.624  10.255  10.564  0.2111  0.4086  0.2199
  365MOL0     C50274  12.728  10.167  10.636  0.0723 -0.4242 -0.1987
  365MOL0     C50275  12.851  10.244  10.672  0.1433 -0.1327 -0.0816
  365MOL0     C50276  12.969  10.147  10.685 -0.4769 -0.7244 -0.7031
  365MOL0    Cl50277  13.026  10.102  10.522 -0.4488  0.4980 -0.0150
  365MOL0     C50278  11.871  10.232  10.302  0.2917 -0.3779 -0.4541
  365MOL0     C50279  11.743  10.269  10.277  0.0722 -0.2045  0.4717
  365MOL0     O50280  11.575  10.355  10.041 -0.4032  0.6798  0.5194
  365MOL0     C50281  11.362  10.605  10.148  0.2292  0.1391 -0.3738
  365MOL0     C50282  11.237  10.660  10.143  0.4897  0.3070  0.2785
  365MOL0     N50283  10.564  10.798   9.822 -0.0587 -0.1697  0.5048
  365MOL0     N50284  10.519  10.760   9.705  0.2438 -0.6046 -0.3094
  365MOL0     C50285  10.544   9.868   9.100 -0.3988  0.6081 -0.7840
  365MOL0     C50286  10.432   9.795   9.056 -0.6206  1.1536 -0.1775
  365MOL0     C50287   9.980   9.736   8.900  0.4449 -0.1041  0.2247
  365MOL0     C50288   9.844   9.789   8.909  0.2398  0.7629 -0.5350
  365MOL0     C50289   9.733   9.714   8.860  0.1067  0.0304 -0.3587
  365MOL0     C50290   9.757   9.589   8.808  0.0703  0.9501  0.2669
  365MOL0     O50291   9.658   9.519   8.756 -0.3542  0.5864  0.0128
  365MOL0     C50292   9.654   9.523   8.617  0.2344  0.1012  0.5189
  365MOL0     C50293   9.520   9.511   8.551  0.3313  0.0954  0.3136
  365MOL0     C50294   9.413   9.606   8.615  0.0470  0.5734 -0.0418
  365MOL0     C50295   9.287   9.628   8.532 -0.3871  0.3974  0.0617
  365MOL0     C50296   9.301   9.708   8.410 -0.5741 -0.2157 -0.5371
  365MOL0     C50297   9.319   9.779   8.310 -0.1013 -0.2462 -0.2095
  365MOL0     C50298   9.882   9.525   8.815 -0.0612 -0.7765  0.5812
  365MOL0     C50299   9.995   9.595   8.865 -0.2403 -1.0460 -0.2474
  365MOL0     C50300  10.122   9.515   8.862 -0.7207  0.5812 -0.1701
  365MOL0     H50301  10.281  10.055   8.893  1.4073  3.7488  2.8379
  365MOL0     H50302  10.480  10.162   8.946 -1.8125 -0.8526 -3.2325
  365MOL0     H50303  10.662  10.256   9.097 -0.6359  0.6286 -1.2930
  365MOL0     H50304  10.722  10.173   8.957 -0.2689 -3.9957 -0.5578
  365MOL0     H50305  10.934  10.144   9.100 -1.9879 -1.5146  0.0333
  365MOL0     H50306  10.900  10.310   9.054 -0.5010 -0.4161 -1.1762
  365MOL0     H50307  10.822  10.196   9.340 -0.0432  0.3547  0.9811
  365MOL0     H50308  10.961  10.282   9.305 -0.1684 -4.8908  1.1341
  365MOL0     H50309  10.794  10.487   9.232 -2.6991  2.6564  2.7025
  365MOL0     H50310  10.672  10.374   9.287  1.0808 -2.9629  1.8826
  365MOL0     H50311  10.891  10.494   9.448  0.1955  0.8690  2.3450
  365MOL0     H50312  10.802  10.351   9.510 -1.5679  1.5400  2.3534
  365MOL0     H50313  10.716  10.598   9.562  0.7173  0.3275 -1.4282
  365MOL0     H50314  10.645  10.569   9.403 -2.7013 -1.4473  0.6661
  365MOL0     H50315  10.610  10.398   9.656 -2.8813  1.1450  1.1181
  365MOL0     H50316  10.533  10.357   9.506 -0.8706 -2.0275  3.6750
  365MOL0     H50317  10.424  10.598   9.520 -0.5694 -1.0692 -1.0413
  365MOL0     H50318  10.368  10.480   9.642 -0.3293 -0.2955  0.2557
  365MOL0     H50319  10.537  10.484   9.890  0.4822  0.7562  1.4265
  365MOL0     H50320  10.603  10.603  10.087  0.3741 -0.5151 -1.9290
  365MOL0     H50321  10.546  10.762  10.123  1.1148  0.8540  0.8729
  365MOL0     H50322  10.807  10.682   9.981  0.5519 -0.3839  0.9237
  365MOL0     H50323  10.753  10.850   9.990 -1.6390 -1.3047 -2.9192
  365MOL0     H50324  10.786  10.851  10.222  1.1935 -0.0416  1.9483
  365MOL0     H50325  10.792  10.664  10.226  2.6039  0.4026  1.5367
  365MOL0     H50326  11.014  10.828  10.105  1.4656  0.3041 -0.1376
  365MOL0     H50327  11.010  10.775  10.268  3.3071  0.2052 -2.0542
  365MOL0     H50328  11.073  10.382  10.036  1.9714 -3.0125 -0.1034
  365MOL0     H50329  11.352  10.185  10.096 -2.2899  1.8661  2.4707
  365MOL0     H50330  11.361  10.251   9.927  0.8100 -0.6544  0.3343
  365MOL0     H50331  11.206  10.185  10.009  0.1079 -2.1366  1.0079
  365MOL0     H50332  11.793  10.603  10.300 -0.6700  0.0547  1.7789
  365MOL0     H50333  12.025  10.525  10.316 -0.8174  1.1304 -0.6079
  365MOL0     H50334  12.217  10.414  10.240 -1.7705  0.2950 -1.0208
  365MOL0     H50335  12.205  10.436  10.410 -4.0670  1.4651 -2.3588
  365MOL0     H50336  12.368  10.190  10.296  2.0600  0.1536  0.9622
  365MOL0     H50337  12.437  10.346  10.336  0.4413 -0.9126 -0.5337
  365MOL0     H50338  12.277  10.161  10.520  0.6444 -2.2583 -0.8580
  365MOL0     H50339  12.349  10.318  10.566  2.2232  1.6958 -0.7590
  365MOL0     H50340  12.522  10.094  10.450  1.1566  0.2325 -0.1813
  365MOL0     H50341  12.488  10.098  10.624  1.9160  0.2624  0.5247
  365MOL0     H50342  12.663  10.308  10.477 -0.3995 -0.0388 -0.3277
  365MOL0     H50343  12.582  10.332  10.630 -0.8240  0.4714 -0.4927
  365MOL0     H50344  12.750  10.080  10.573 -0.4549 -1.0795  0.5095
  365MOL0     H50345  12.690  10.131  10.732 -0.5749  1.0339  0.1175
  365MOL0     H50346  12.825  10.309  10.756 -1.3470  3.5568 -3.0989
  365MOL0     H50347  12.873  10.322  10.599  1.0744 -0.7807 -0.5210
  365MOL0     H50348  12.933  10.060  10.741 -2.0248 -0.5040 -1.3133
  365MOL0     H50349  13.049  10.198  10.739 -0.9961  0.1495 -0.7525
  365MOL0     H50350  11.895  10.126  10.311  0.0629 -0.4877 -1.0702
  365MOL0     H50351  11.663  10.197  10.261  1.1588 -1.3414  0.0432
  365MOL0     H50352  11.433  10.661  10.208 -0.8688 -0.0951  1.2201
  365MOL0     H50353  11.211  10.759  10.181 -0.4345  1.7496 -3.7050
  365MOL0     H50354  10.623   9.824   9.161 -1.7730  1.1608  1.5172
  365MOL0     H50355  10.419   9.691   9.082  0.5584  1.6466  2.8212
  365MOL0     H50356   9.822   9.891   8.940 -0.2215  0.9043 -1.2988
  365MOL0     H50357   9.632   9.753   8.865  0.6672  1.6707  5.0094
  365MOL0     H50358   9.697   9.608   8.563 -1.4416 -1.5424 -3.8366
  365MOL0     H50359   9.716   9.440   8.583  1.5466  0.8897  0.8708
  365MOL0     H50360   9.493   9.407   8.573  2.6078 -0.4499  0.8193
  365MOL0     H50361   9.532   9.518   8.443  2.2681 -1.8535  0.3215
  365MOL0     H50362   9.392   9.577   8.718 -1.0346  0.9590 -0.1374
  365MOL0     H50363   9.469   9.700   8.619  2.5456 -0.7483 -1.1628
  365MOL0     H50364   9.217   9.678   8.600 -3.0812 -2.2012 -0.6096
  365MOL0     H50365   9.234   9.533   8.518  3.3295 -1.9648  0.5936
  365MOL0     H50366   9.337   9.832   8.218  0.7839 -1.1110 -0.5599
  365MOL0     H50367   9.889   9.423   8.777  0.3278  0.0050 -1.5272
  365MOL0     H50368  10.176   9.518   8.957 -1.5977 -0.5611  0.3942
  365MOL0     H50369  10.108   9.407   8.849  2.5513 -0.5229  3.4601
  365MOL0     H50370  10.183   9.554   8.780  0.0609 -0.7296 -0.2410
  366MOL0     O50371   2.967   9.499   9.876  0.7647  0.4054 -0.1288
  366MOL0     C50372   2.908   9.547   9.778 -0.1456  0.0643 -0.3777
  366MOL0     O50373   2.968   9.578   9.653 -0.5791 -0.0640 -0.2638
  366MOL0     C50374   3.104   9.599   9.634  0.5500 -0.2132 -0.5663
  366MOL0     C50375   3.166   9.541   9.525 -0.6346 -0.3308  0.0372
  366MOL0     C50376   3.303   9.553   9.512 -0.2294 -0.0301  0.2446
  366MOL0     C50377   3.383   9.634   9.599 -0.0174  0.0714  0.3658
  366MOL0     O50378   3.514   9.650   9.570  0.3297 -0.0458  0.6823
  366MOL0     C50379   3.596   9.712   9.656 -0.3528 -0.0457 -0.3876
  366MOL0     C50380   3.733   9.727   9.596  0.9749 -0.1490  0.6106
  366MOL0     C50381   3.802   9.587   9.605  0.0785 -0.2883  0.0470
  366MOL0     C50382   3.904   9.566   9.502 -0.4031  0.1036  0.4531
  366MOL0     C50383   3.975   9.428   9.515  0.0963  0.5126 -0.4362
  366MOL0     C50384   4.084   9.404   9.401  0.4102 -0.6669 -0.2220
  366MOL0     C50385   4.157   9.274   9.437 -0.5277  0.2221 -0.4778
  366MOL0     C50386   4.275   9.255   9.341 -0.5213  0.7969  0.4234
  366MOL0     N50387   4.242   9.193   9.209 -0.1414  0.1367  0.3835
  366MOL0     C50388   4.211   9.060   9.192  0.3562  0.1047 -0.7644
  366MOL0     C50389   4.177   9.048   9.058  0.4374  0.4039 -0.1465
  366MOL0     C50390   4.148   8.928   8.965 -0.8730  0.5648  0.3405
  366MOL0     C50391   4.264   8.834   8.926  0.5414 -0.6354 -0.8018
  366MOL0     C50392   4.340   8.776   9.044  0.3694  0.2547 -0.2454
  366MOL0     C50393   4.432   8.659   8.990  0.5063 -0.5865  0.4037
  366MOL0     O50394   4.545   8.713   8.917 -0.1574  0.4435  0.1575
  366MOL0     C50395   4.647   8.629   8.880  0.7678  0.3085  0.6029
  366MOL0     C50396   4.659   8.499   8.938  0.2446  0.4803  0.3555
  366MOL0     C50397   4.780   8.428   8.911  0.4543 -0.1220  0.4286
  366MOL0     C50398   4.794   8.281   8.972  0.6581 -0.8090  0.3560
  366MOL0     C50399   4.882   8.482   8.832  0.1095  0.6898  0.0577
  366MOL0     C50400   5.015   8.406   8.792  0.6580 -0.2114 -0.1745
  366MOL0     O50401   5.006   8.271   8.786  0.2183 -0.3600  0.1718
  366MOL0     C50402   5.129   8.214   8.750 -0.3354  0.2944  0.5397
  366MOL0     C50403   5.181   8.112   8.830  0.4627 -0.9005 -0.1346
  366MOL0     C50404   5.292   8.044   8.797 -0.2901  0.1890  0.8465
  366MOL0     C50405   5.349   8.056   8.673  0.8489  0.6745  0.7936
  366MOL0     O50406   5.462   7.979   8.647  0.4742 -0.0121 -0.1711
  366MOL0     C50407   5.537   8.001   8.529 -0.1962 -0.4721  0.2024
  366MOL0     C50408   5.620   8.123   8.544  0.5996 -0.2451 -0.1786
  366MOL0     C50409   5.686   8.160   8.412  0.6505  0.7762  0.8409
  366MOL0     C50410   5.761   8.294   8.418 -0.2758 -0.0213  0.5771
  366MOL0     C50411   5.917   8.286   8.449  0.3671  0.0764  0.6351
  366MOL0     C50412   5.990   8.422   8.415  0.9299  0.5620 -0.6721
  366MOL0     C50413   6.149   8.408   8.409  0.0620  0.2358 -0.3357
  366MOL0     C50414   6.217   8.540   8.375 -0.0252 -0.1644  1.0628
  366MOL0    Cl50415   6.399   8.519   8.400 -0.2223  0.0078 -0.1439
  366MOL0     C50416   5.286   8.146   8.581  0.1539  0.5122 -1.0479
  366MOL0     C50417   5.177   8.227   8.619 -0.0207 -0.7404 -0.4399
  366MOL0     O50418   5.114   8.471   8.778  0.2472  0.5378  1.4269
  366MOL0     C50419   4.873   8.613   8.789  0.3894 -0.6485 -0.1101
  366MOL0     C50420   4.746   8.683   8.803 -0.4450  1.0696  0.2960
  366MOL0     N50421   4.195   9.166   8.998 -0.0818 -0.1386 -0.4176
  366MOL0     N50422   4.239   9.251   9.092 -0.3310  0.8800 -0.3530
  366MOL0     C50423   3.313   9.698   9.700 -0.0647 -0.1284 -0.2391
  366MOL0     C50424   3.178   9.679   9.726  0.0028  0.0751 -0.0805
  366MOL0     C50425   2.766   9.556   9.774 -0.1700 -0.0440  1.0600
  366MOL0     C50426   2.690   9.541   9.649 -0.0436  0.0377  0.3678
  366MOL0     C50427   2.551   9.532   9.649  0.4410 -0.0973 -0.6078
  366MOL0     C50428   2.483   9.536   9.767 -0.3045  0.6502 -0.4947
  366MOL0     O50429   2.345   9.542   9.763 -0.2178 -0.0195  0.3765
  366MOL0     C50430   2.270   9.592   9.877  0.7060  0.8809  0.3574
  366MOL0     C50431   2.143   9.654   9.815 -0.0612  0.0539  0.2449
  366MOL0     C50432   2.054   9.730   9.913 -1.5422  0.3620  0.6190
  366MOL0     C50433   1.916   9.684   9.929 -0.2962 -0.0398 -0.2601
  366MOL0     C50434   1.859   9.753  10.039 -0.5828  1.3169 -0.1217
  366MOL0     C50435   1.804   9.810  10.137 -0.2528 -0.5169 -0.0782
  366MOL0     C50436   2.560   9.557   9.890  0.8161  0.3842  0.0365
  366MOL0     C50437   2.696   9.579   9.895  0.0571 -0.1158 -0.2930
  366MOL0     C50438   2.768   9.640  10.018  0.8546 -0.3552 -0.3462
  366MOL0     H50439   3.112   9.477   9.456 -2.5621  2.7482 -1.5585
  366MOL0     H50440   3.359   9.498   9.437 -1.2265  0.9290 -1.2536
  366MOL0     H50441   3.616   9.646   9.741 -2.3454 -1.2509 -0.7817
  366MOL0     H50442   3.565   9.810   9.694  3.6003  0.0694  3.3997
  366MOL0     H50443   3.718   9.756   9.492  0.0633  1.3296  1.1255
  366MOL0     H50444   3.793   9.801   9.650 -0.0188  1.0627  0.1131
  366MOL0     H50445   3.856   9.561   9.696 -1.9671 -3.5996  0.4830
  366MOL0     H50446   3.724   9.510   9.607 -0.5116  0.2581 -0.8383
  366MOL0     H50447   3.857   9.565   9.404 -0.3112 -0.3991  0.4117
  366MOL0     H50448   3.986   9.639   9.503 -1.7145  1.6262  1.3868
  366MOL0     H50449   3.895   9.355   9.506 -1.6839  1.7092  3.3817
  366MOL0     H50450   4.011   9.421   9.619 -1.1108  2.9782  0.2352
  366MOL0     H50451   4.034   9.390   9.304 -0.4451 -1.8797  0.3643
  366MOL0     H50452   4.150   9.491   9.407 -1.7207  0.9125  2.7294
  366MOL0     H50453   4.090   9.188   9.432 -0.5756  0.2886 -0.9868
  366MOL0     H50454   4.192   9.280   9.541 -0.6871 -3.5556 -0.0756
  366MOL0     H50455   4.325   9.351   9.328  1.6352 -0.1759  1.1788
  366MOL0     H50456   4.340   9.179   9.384 -0.3178 -0.2661 -1.5994
  366MOL0     H50457   4.203   8.977   9.261 -1.1341  0.8255 -0.0281
  366MOL0     H50458   4.104   8.972   8.876  3.4346  1.9518 -1.3424
  366MOL0     H50459   4.085   8.863   9.026 -1.3523  0.4379 -0.2890
  366MOL0     H50460   4.209   8.758   8.871 -1.0218 -0.4058  0.3770
  366MOL0     H50461   4.336   8.882   8.858  0.1694  0.0352 -0.7334
  366MOL0     H50462   4.406   8.850   9.090  2.4304 -0.6875 -1.5861
  366MOL0     H50463   4.271   8.739   9.121 -0.2111 -1.1571 -1.4070
  366MOL0     H50464   4.470   8.602   9.076  2.1980 -1.6980 -1.0061
  366MOL0     H50465   4.372   8.603   8.919  2.0836  0.1629 -1.6315
  366MOL0     H50466   4.583   8.453   9.000  0.0615  0.3305  0.0162
  366MOL0     H50467   4.704   8.259   9.031  0.1749 -0.3226 -0.1772
  366MOL0     H50468   4.887   8.266   9.027  0.5135 -1.1916  0.5016
  366MOL0     H50469   4.783   8.210   8.889 -1.4535 -0.8019  0.5570
  366MOL0     H50470   5.121   8.096   8.919  0.3344  2.2699  0.4374
  366MOL0     H50471   5.332   7.975   8.871  0.0540  1.8185  2.2510
  366MOL0     H50472   5.607   7.918   8.516 -0.3200 -0.3097 -1.9063
  366MOL0     H50473   5.483   8.010   8.434  0.0000  0.1037  0.1431
  366MOL0     H50474   5.548   8.200   8.574  0.3558  0.0675 -1.5257
  366MOL0     H50475   5.690   8.123   8.628 -0.3742 -2.7347  0.7543
  366MOL0     H50476   5.605   8.178   8.340  0.5919 -0.6057  0.5282
  366MOL0     H50477   5.745   8.072   8.382 -0.3448 -0.2471  1.7732
  366MOL0     H50478   5.709   8.355   8.493 -1.9817 -3.1541  2.1651
  366MOL0     H50479   5.764   8.346   8.322  3.8002 -0.0432  0.4927
  366MOL0     H50480   5.940   8.245   8.547  2.9446 -1.0725 -0.3576
  366MOL0     H50481   5.963   8.217   8.377  0.6436  1.0082 -0.1079
  366MOL0     H50482   5.958   8.502   8.482 -3.1875 -0.9093 -0.6112
  366MOL0     H50483   5.965   8.446   8.311  0.6483  0.9986 -0.5057
  366MOL0     H50484   6.161   8.346   8.320  0.6749  0.5394 -0.4698
  366MOL0     H50485   6.192   8.374   8.504  0.9907 -0.7131 -1.0840
  366MOL0     H50486   6.180   8.622   8.437 -1.0356  1.4417 -1.4973
  366MOL0     H50487   6.192   8.571   8.273  1.5137 -2.0877  0.0280
  366MOL0     H50488   5.336   8.164   8.486  0.5554  2.3424 -0.5295
  366MOL0     H50489   5.117   8.288   8.553  0.9747  0.0003 -0.6905
  366MOL0     H50490   4.961   8.663   8.748  0.7872  2.3406  3.7797
  366MOL0     H50491   4.722   8.785   8.778 -1.9821  0.4077 -1.0778
  366MOL0     H50492   3.365   9.778   9.752  2.1786 -0.5554 -1.6690
  366MOL0     H50493   3.128   9.720   9.814  1.2800 -2.6371  2.0596
  366MOL0     H50494   2.737   9.536   9.552  2.6134 -0.7301  1.5982
  366MOL0     H50495   2.499   9.507   9.558 -2.0225  3.5510 -0.4043
  366MOL0     H50496   2.247   9.512   9.949  3.6265  1.5317  2.1830
  366MOL0     H50497   2.323   9.675   9.925 -0.0986  1.3349  0.4883
  366MOL0     H50498   2.087   9.571   9.772  1.0849  0.5215 -2.3371
  366MOL0     H50499   2.166   9.718   9.729 -3.1954  0.3787 -0.4785
  366MOL0     H50500   2.111   9.720  10.005  1.4318 -2.4531 -1.2988
  366MOL0     H50501   2.060   9.838   9.897  1.2274 -0.0361 -1.8644
  366MOL0     H50502   1.928   9.579   9.957  1.8673  0.0681 -0.5838
  366MOL0     H50503   1.845   9.685   9.845  0.0069 -0.0061 -0.5205
  366MOL0     H50504   1.732   9.872  10.187 -0.1616  1.3437 -2.0626
  366MOL0     H50505   2.515   9.554   9.989  0.5579 -1.4278 -0.0918
  366MOL0     H50506   2.827   9.724   9.981 -1.2035  0.9007 -0.9199
  366MOL0     H50507   2.696   9.681  10.090 -0.2827 -0.9322 -1.1382
  366MOL0     H50508   2.836   9.566  10.061 -0.2632 -1.4669 -0.4404
  367MOL0     O50509   3.180   5.324   9.654 -0.4436 -0.9323 -0.0111
  367MOL0     C50510   3.128   5.272   9.749  0.1259  0.0537 -0.4698
  367MOL0     O50511   3.191   5.180   9.825  0.0948 -0.2768  0.3883
  367MOL0     C50512   3.322   5.144   9.804  0.2737 -0.3760  0.5572
  367MOL0     C50513   3.357   5.006   9.818 -0.3183  0.1024  0.6063
  367MOL0     C50514   3.490   4.959   9.797 -0.6523 -1.0038  0.3350
  367MOL0     C50515   3.589   5.056   9.778  0.3868  0.3616 -0.5414
  367MOL0     O50516   3.714   5.008   9.777 -1.2095 -0.4012 -0.6990
  367MOL0     C50517   3.824   5.082   9.725  0.2254 -0.2424 -0.2219
  367MOL0     C50518   3.943   4.983   9.705 -0.2461  0.0985  0.0201
  367MOL0     C50519   3.995   4.924   9.833 -0.2707 -0.1877 -0.5295
  367MOL0     C50520   4.118   4.838   9.819 -0.6123  1.1769  0.3795
  367MOL0     C50521   4.140   4.755   9.951 -0.1681  0.0334  0.1906
  367MOL0     C50522   4.255   4.650   9.936 -0.2543  0.9322  0.0379
  367MOL0     C50523   4.259   4.551  10.050 -0.0249 -0.2596 -0.3811
  367MOL0     C50524   4.347   4.424  10.022 -0.3304 -0.7152 -0.2975
  367MOL0     N50525   4.499   4.457  10.018 -0.4976  0.3534 -0.4544
  367MOL0     C50526   4.584   4.442  10.120  0.5186  0.2113 -0.2682
  367MOL0     C50527   4.695   4.507  10.074 -0.7736 -0.2090 -0.6447
  367MOL0     C50528   4.821   4.498  10.154  0.2858  1.3772  0.0395
  367MOL0     C50529   4.860   4.344  10.163 -0.7568 -0.1994 -0.7821
  367MOL0     C50530   5.009   4.327  10.186  0.3126 -0.6439 -0.0983
  367MOL0     C50531   5.039   4.206  10.270  0.4401 -0.4011  0.1006
  367MOL0     O50532   5.190   4.185  10.258  0.6506 -0.4111 -0.1883
  367MOL0     C50533   5.261   4.115  10.361  0.5629  0.0815  0.2171
  367MOL0     C50534   5.399   4.123  10.359 -0.3059  0.0359  0.3234
  367MOL0     C50535   5.478   4.071  10.462  0.5955  0.1933 -0.6236
  367MOL0     C50536   5.622   4.125  10.483  0.1026 -0.0789  0.1998
  367MOL0     C50537   5.421   3.968  10.546 -0.3061 -0.7277  0.1513
  367MOL0     C50538   5.497   3.890  10.652  0.6764 -0.3669  0.0461
  367MOL0     O50539   5.632   3.880  10.645  0.5747 -0.5463 -0.3123
  367MOL0     C50540   5.705   3.793  10.721 -0.5657 -0.0966  0.4869
  367MOL0     C50541   5.847   3.830  10.733  1.3648 -0.5338  0.4040
  367MOL0     C50542   5.927   3.764  10.822 -0.1208  0.1639 -0.3093
  367MOL0     C50543   5.894   3.643  10.880  0.8423 -1.0582  0.5802
  367MOL0     O50544   5.994   3.589  10.954  0.9764  0.1215 -0.3728
  367MOL0     C50545   5.947   3.537  11.075 -0.1174  0.0201  0.9395
  367MOL0     C50546   6.059   3.524  11.181  0.2424  0.0298  0.4129
  367MOL0     C50547   5.992   3.548  11.313  0.1297 -0.1172 -0.1000
  367MOL0     C50548   6.089   3.540  11.432  0.4540 -0.1198  0.9752
  367MOL0     C50549   6.198   3.649  11.420  0.8464  0.7450 -0.7379
  367MOL0     C50550   6.256   3.692  11.559  0.7341 -0.2352  0.0321
  367MOL0     C50551   6.345   3.808  11.528 -0.4405 -0.1538 -0.0558
  367MOL0     C50552   6.409   3.867  11.652 -0.1474 -1.0759  0.1202
  367MOL0    Cl50553   6.276   3.939  11.755 -0.1974 -0.4873  0.0947
  367MOL0     C50554   5.763   3.588  10.866 -0.2322 -0.0737  0.7140
  367MOL0     C50555   5.671   3.669  10.785  0.2865 -0.0616 -0.5999
  367MOL0     O50556   5.429   3.831  10.731  0.1869 -0.8986  0.3267
  367MOL0     C50557   5.280   3.958  10.540 -0.6066 -0.0486 -0.1209
  367MOL0     C50558   5.203   4.040  10.462  0.2303  0.1043  0.0903
  367MOL0     N50559   4.673   4.566   9.948 -0.2294  0.3436 -0.4787
  367MOL0     N50560   4.554   4.536   9.923  0.5348 -0.2563 -0.1463
  367MOL0     C50561   3.555   5.192   9.774 -1.1434  0.3936  0.6394
  367MOL0     C50562   3.427   5.234   9.785  0.0060 -0.1332 -0.2003
  367MOL0     C50563   2.988   5.310   9.792 -0.3515  0.5739  0.8939
  367MOL0     C50564   2.904   5.356   9.692  0.0148 -0.0618  0.4920
  367MOL0     C50565   2.771   5.383   9.714 -0.5469 -0.0758  0.4714
  367MOL0     C50566   2.707   5.368   9.839 -0.5902 -0.0893  0.5851
  367MOL0     O50567   2.582   5.406   9.835  0.0736 -0.1807  0.2896
  367MOL0     C50568   2.514   5.432   9.954 -0.8830 -0.6591  0.0328
  367MOL0     C50569   2.399   5.529   9.937 -0.5296  0.8677  0.1441
  367MOL0     C50570   2.295   5.471   9.839 -0.0196 -0.8160 -0.2521
  367MOL0     C50571   2.195   5.585   9.811 -0.6918  0.0061  0.1326
  367MOL0     C50572   2.256   5.705   9.730  1.0949  0.0092 -0.5508
  367MOL0     C50573   2.303   5.793   9.661 -0.3239 -0.4906  0.6390
  367MOL0     C50574   2.796   5.331   9.945 -0.0289 -0.6534 -0.3138
  367MOL0     C50575   2.936   5.312   9.927  0.0814  1.5686  0.4561
  367MOL0     C50576   3.015   5.250  10.043 -0.4292  0.1016  0.0986
  367MOL0     H50577   3.284   4.930   9.847 -0.2195 -0.4194 -0.4703
  367MOL0     H50578   3.508   4.852   9.790 -0.5870 -0.8670 -2.3148
  367MOL0     H50579   3.855   5.162   9.794  2.8836 -1.3385 -0.0295
  367MOL0     H50580   3.794   5.125   9.629  0.3827 -2.5286 -1.3674
  367MOL0     H50581   3.908   4.907   9.635 -0.6293 -0.7646  1.1223
  367MOL0     H50582   4.016   5.044   9.652 -0.4338 -0.5898 -1.0625
  367MOL0     H50583   4.013   5.002   9.907  1.1618 -0.9690 -0.0054
  367MOL0     H50584   3.921   4.858   9.879  0.1470  0.9118  1.8795
  367MOL0     H50585   4.107   4.769   9.734  0.5835 -0.2242  1.3036
  367MOL0     H50586   4.212   4.890   9.797 -0.0929 -0.1107 -0.6151
  367MOL0     H50587   4.046   4.701   9.967 -0.1163 -0.5014 -1.1817
  367MOL0     H50588   4.162   4.818  10.038  0.7654  0.6813 -0.4854
  367MOL0     H50589   4.234   4.596   9.844  0.5713  0.7292 -0.0406
  367MOL0     H50590   4.345   4.711   9.925  0.3772  0.6743  2.9568
  367MOL0     H50591   4.162   4.512  10.084  0.6539  0.9419  3.4173
  367MOL0     H50592   4.299   4.611  10.133 -2.4185 -0.8234  1.2908
  367MOL0     H50593   4.332   4.355  10.105 -1.8422 -0.7929 -0.6138
  367MOL0     H50594   4.326   4.381   9.923 -0.6944  0.5219 -0.7724
  367MOL0     H50595   4.576   4.395  10.218 -1.5660  0.2823 -0.3548
  367MOL0     H50596   4.806   4.547  10.251 -2.6937  0.1370  0.3195
  367MOL0     H50597   4.901   4.549  10.100  1.2325 -0.8389 -0.7745
  367MOL0     H50598   4.813   4.303  10.253  1.1462  0.5525  0.6186
  367MOL0     H50599   4.828   4.292  10.072  0.7504 -0.3291 -1.2559
  367MOL0     H50600   5.059   4.319  10.089  1.0289  1.6446  0.0256
  367MOL0     H50601   5.051   4.414  10.237  0.9131  0.5733 -2.5429
  367MOL0     H50602   5.003   4.227  10.371  2.8077  0.7696  0.7788
  367MOL0     H50603   4.992   4.122  10.218 -0.5263  0.7451 -0.9292
  367MOL0     H50604   5.458   4.170  10.280 -0.3554 -0.8005 -0.2237
  367MOL0     H50605   5.637   4.153  10.588  1.3050 -0.2640  0.0821
  367MOL0     H50606   5.636   4.210  10.416  1.7517 -0.2680  0.2825
  367MOL0     H50607   5.694   4.049  10.453 -0.2992  0.6445 -2.9866
  367MOL0     H50608   5.883   3.915  10.676 -0.5007 -0.0731 -0.1415
  367MOL0     H50609   6.030   3.799  10.832  0.2509 -1.3902  1.9926
  367MOL0     H50610   5.862   3.597  11.108 -0.2893  0.5205 -0.3735
  367MOL0     H50611   5.910   3.437  11.055 -0.6398  0.7105 -1.9564
  367MOL0     H50612   6.097   3.422  11.172  0.6334 -0.1111  2.8909
  367MOL0     H50613   6.140   3.596  11.167 -0.6129  0.6376 -1.8405
  367MOL0     H50614   5.922   3.465  11.326  0.4207 -0.2938  0.3795
  367MOL0     H50615   5.929   3.636  11.320  1.1926  0.8269 -1.6753
  367MOL0     H50616   6.143   3.445  11.434  0.6136 -0.0878 -0.5902
  367MOL0     H50617   6.021   3.564  11.515 -0.1504  1.7693 -0.0128
  367MOL0     H50618   6.279   3.618  11.353  0.4020  1.1657 -1.4880
  367MOL0     H50619   6.148   3.739  11.380  1.0264  2.2333  2.1533
  367MOL0     H50620   6.310   3.605  11.598 -1.3928 -2.1778 -1.1608
  367MOL0     H50621   6.175   3.724  11.625  0.7075 -0.7572  0.2606
  367MOL0     H50622   6.285   3.880  11.472 -0.5374 -1.4771 -1.7348
  367MOL0     H50623   6.428   3.761  11.473  0.4794  0.0718  1.0960
  367MOL0     H50624   6.475   3.952  11.630 -0.0441 -1.6400 -2.0233
  367MOL0     H50625   6.466   3.795  11.711  0.4504  2.7514  4.7961
  367MOL0     H50626   5.743   3.485  10.892 -0.6258 -0.5130 -1.2043
  367MOL0     H50627   5.568   3.637  10.771  0.7331 -1.1463 -1.6412
  367MOL0     H50628   5.218   3.898  10.605 -1.0306  0.7884  0.2577
  367MOL0     H50629   5.096   4.023  10.469  0.3303 -0.4293  0.4092
  367MOL0     H50630   3.639   5.260   9.762  0.3952 -1.6763 -1.3890
  367MOL0     H50631   3.412   5.341   9.778  0.5890 -0.0599 -0.3342
  367MOL0     H50632   2.941   5.349   9.590 -1.0618 -1.2248  0.1543
  367MOL0     H50633   2.706   5.396   9.628  0.2670 -0.5287 -0.2270
  367MOL0     H50634   2.466   5.342   9.993 -0.2713 -0.7097  0.6929
  367MOL0     H50635   2.587   5.472  10.025  1.2116 -2.0852 -1.2077
  367MOL0     H50636   2.441   5.624   9.902 -2.1118  1.0261 -1.4822
  367MOL0     H50637   2.354   5.522  10.036  3.9163  0.3501  2.4016
  367MOL0     H50638   2.344   5.429   9.751 -0.6246  0.0978 -1.0486
  367MOL0     H50639   2.240   5.386   9.879  0.4265 -1.2315 -0.5131
  367MOL0     H50640   2.156   5.617   9.908 -2.6504 -0.3501 -0.4894
  367MOL0     H50641   2.110   5.541   9.758 -0.1667 -0.3473 -0.4326
  367MOL0     H50642   2.338   5.875   9.601 -1.1842 -0.0789  0.6825
  367MOL0     H50643   2.746   5.334  10.042 -2.7380  0.3733 -1.6274
  367MOL0     H50644   2.953   5.245  10.133  0.4886 -0.7113  0.6995
  367MOL0     H50645   3.053   5.149  10.025 -0.9932 -0.0134 -0.5099
  367MOL0     H50646   3.101   5.311  10.071  1.7538 -0.8566 -3.7829
  368MOL0     O50647  10.574   1.828   9.377 -0.1178  0.2425  0.1537
  368MOL0     C50648  10.458   1.804   9.411  0.7443  0.1787  0.0716
  368MOL0     O50649  10.420   1.798   9.544 -0.0862  0.5758 -0.0232
  368MOL0     C50650  10.506   1.844   9.644  0.4115 -0.5905 -0.2468
  368MOL0     C50651  10.534   1.772   9.761 -0.0221 -0.2169  0.2422
  368MOL0     C50652  10.639   1.808   9.846  0.2968  0.5300 -0.3773
  368MOL0     C50653  10.696   1.938   9.837  0.9280  0.0511 -0.2114
  368MOL0     O50654  10.782   1.995   9.929  0.4694 -0.0460 -0.1816
  368MOL0     C50655  10.892   1.909   9.967  0.5141 -0.0985  0.4313
  368MOL0     C50656  11.005   1.988  10.039  0.4531 -0.3780  1.0226
  368MOL0     C50657  10.971   2.065  10.164  0.0361  0.1266  0.5465
  368MOL0     C50658  11.099   2.112  10.227  1.0257  0.5963  0.6017
  368MOL0     C50659  11.086   2.177  10.359 -0.9173  0.6401 -0.2000
  368MOL0     C50660  11.221   2.221  10.414  0.7244 -0.7324 -0.3308
  368MOL0     C50661  11.191   2.306  10.545 -0.1411  0.1769 -0.4537
  368MOL0     C50662  11.315   2.380  10.604  1.3867  0.1055  0.9195
  368MOL0     N50663  11.405   2.283  10.660  0.4307 -0.5029  0.2306
  368MOL0     C50664  11.539   2.277  10.637 -0.0551 -0.4511  0.0577
  368MOL0     C50665  11.586   2.176  10.708  0.5038  0.1663 -0.2072
  368MOL0     C50666  11.724   2.122  10.712 -0.4108  0.6954  0.0811
  368MOL0     C50667  11.725   1.972  10.754 -0.1338  0.3783  0.1916
  368MOL0     C50668  11.850   1.888  10.713  0.0011  0.0604 -0.3371
  368MOL0     C50669  11.977   1.951  10.783  0.1833  0.9187  0.0464
  368MOL0     O50670  12.020   2.073  10.727  0.1561  0.1882  0.6240
  368MOL0     C50671  12.132   2.131  10.785  0.3353 -0.6650  0.2428
  368MOL0     C50672  12.167   2.260  10.750 -0.2306 -1.1180  0.3779
  368MOL0     C50673  12.282   2.322  10.801  0.1243 -0.2794  0.4707
  368MOL0     C50674  12.308   2.460  10.760 -0.6912  0.8439 -0.7853
  368MOL0     C50675  12.358   2.260  10.903 -0.0320 -0.4388  0.0119
  368MOL0     C50676  12.473   2.316  10.972 -0.4743 -0.2348 -1.0626
  368MOL0     O50677  12.545   2.408  10.905 -0.0539  0.2748  0.3810
  368MOL0     C50678  12.670   2.452  10.946  0.5825 -0.1988  0.2594
  368MOL0     C50679  12.777   2.366  10.966 -0.4038  0.0677  0.0430
  368MOL0     C50680  12.898   2.413  11.016  0.6002  0.0198  0.5394
  368MOL0     C50681  12.920   2.546  11.046  0.1308 -0.9082 -0.2026
  368MOL0     O50682  13.043   2.581  11.092  0.1012  0.8696 -0.5790
  368MOL0     C50683  13.103   2.698  11.031 -0.2504 -0.1832 -0.1469
  368MOL0     C50684  13.254   2.699  11.051  0.0497 -0.8041  0.7757
  368MOL0     C50685  13.319   2.590  10.958  0.8285  0.5920  0.0037
  368MOL0     C50686  13.459   2.547  11.009 -0.1369 -0.3407  0.4819
  368MOL0     C50687  13.528   2.437  10.919  0.3109  0.0069 -0.5966
  368MOL0     C50688  13.586   2.495  10.791  0.2869 -0.1269  0.3082
  368MOL0     C50689  13.637   2.377  10.704 -0.7760 -0.9136 -0.0959
  368MOL0     C50690  13.676   2.429  10.560  0.6079  0.1741 -0.2228
  368MOL0    Cl50691  13.819   2.518  10.599  0.2809 -0.0339 -0.0899
  368MOL0     C50692  12.814   2.633  11.018 -0.0052  0.4101  0.6332
  368MOL0     C50693  12.684   2.587  10.970 -0.3421 -0.5773 -0.0604
  368MOL0     O50694  12.503   2.270  11.082  0.3492 -1.0838 -0.1754
  368MOL0     C50695  12.322   2.129  10.936 -0.3622 -0.2513  0.0853
  368MOL0     C50696  12.213   2.067  10.880 -0.4308 -0.3198  0.6862
  368MOL0     N50697  11.478   2.127  10.783  0.2352 -0.6082  0.3451
  368MOL0     N50698  11.369   2.187  10.743  0.1328 -0.1278 -0.6387
  368MOL0     C50699  10.656   2.016   9.731  0.6130 -0.0119  0.3610
  368MOL0     C50700  10.571   1.967   9.633  0.1646  0.5053 -0.0629
  368MOL0     C50701  10.354   1.784   9.311  0.5691  0.5362  0.3752
  368MOL0     C50702  10.218   1.816   9.336  0.4497  1.0758  0.7942
  368MOL0     C50703  10.111   1.787   9.253  0.4936 -0.7591 -0.3928
  368MOL0     C50704  10.139   1.761   9.121  0.1101 -0.2787  0.7310
  368MOL0     O50705  10.045   1.776   9.030 -0.6177  0.5551  0.3067
  368MOL0     C50706   9.935   1.685   9.041 -0.8907 -0.3731 -0.5822
  368MOL0     C50707   9.964   1.541   8.979  0.2025  0.0966 -0.2157
  368MOL0     C50708  10.046   1.440   9.066  0.1022  0.5108  0.2168
  368MOL0     C50709  10.050   1.303   8.996  0.4329  0.2840  0.5249
  368MOL0     C50710  10.186   1.265   8.949  0.9567 -1.3810 -0.2925
  368MOL0     C50711  10.299   1.241   8.923 -0.3894 -0.3778  0.8094
  368MOL0     C50712  10.274   1.733   9.088 -0.4655  0.3789 -0.2893
  368MOL0     C50713  10.382   1.747   9.173 -0.1685  0.7198  0.7075
  368MOL0     C50714  10.517   1.724   9.116  0.1509 -0.3202 -0.2551
  368MOL0     H50715  10.482   1.678   9.776  0.7470 -0.5150  1.1145
  368MOL0     H50716  10.670   1.750   9.933  2.7498  0.9646 -0.8899
  368MOL0     H50717  10.938   1.867   9.877  0.6346  1.4663 -0.2738
  368MOL0     H50718  10.853   1.846  10.047 -1.7224  0.1287 -0.3962
  368MOL0     H50719  11.082   1.911  10.050  0.0486 -1.6729 -3.2632
  368MOL0     H50720  11.041   2.059   9.963  1.1727 -2.4483 -0.6962
  368MOL0     H50721  10.908   2.150  10.138  0.9074  0.6639  0.1438
  368MOL0     H50722  10.910   2.002  10.229 -2.7933  0.4052 -1.6575
  368MOL0     H50723  11.167   2.026  10.230  1.4016  0.8138 -0.7747
  368MOL0     H50724  11.141   2.188  10.161  1.5034 -1.1139 -1.1886
  368MOL0     H50725  11.026   2.123  10.433  0.7138 -0.8913  0.0661
  368MOL0     H50726  11.038   2.272  10.332 -1.9073 -0.2828 -1.8203
  368MOL0     H50727  11.276   2.135  10.453  0.4527 -0.2937  1.0614
  368MOL0     H50728  11.266   2.279  10.333 -2.9586  2.6485 -0.2622
  368MOL0     H50729  11.152   2.241  10.624  0.7430 -1.6394 -1.4429
  368MOL0     H50730  11.115   2.378  10.513 -0.8452 -1.7529 -3.5925
  368MOL0     H50731  11.359   2.444  10.526 -1.2543 -0.7327 -1.4480
  368MOL0     H50732  11.278   2.448  10.681 -2.1265 -1.2421  0.6478
  368MOL0     H50733  11.597   2.337  10.568  0.6851  1.0019  1.8586
  368MOL0     H50734  11.784   2.172  10.788 -0.1773 -2.4104  2.0827
  368MOL0     H50735  11.764   2.128  10.610 -1.5022  2.3300 -0.2953
  368MOL0     H50736  11.712   1.971  10.863 -1.0803  1.6010  0.1061
  368MOL0     H50737  11.638   1.929  10.704 -1.5031  2.1868  0.8947
  368MOL0     H50738  11.839   1.782  10.738 -1.8821  0.7150  2.0185
  368MOL0     H50739  11.868   1.877  10.606  4.3626  0.0853  0.1935
  368MOL0     H50740  11.948   1.962  10.888 -1.0769 -4.6854  0.6181
  368MOL0     H50741  12.060   1.880  10.777  0.1337  0.9620 -1.7303
  368MOL0     H50742  12.099   2.307  10.678  0.8210 -1.7204 -1.0493
  368MOL0     H50743  12.392   2.461  10.688 -0.0638  1.8733 -0.0730
  368MOL0     H50744  12.341   2.521  10.845  0.9821  2.1198 -2.2430
  368MOL0     H50745  12.216   2.499  10.715 -1.5101  0.1359  0.2394
  368MOL0     H50746  12.769   2.258  10.960 -0.4617 -0.0666  1.8137
  368MOL0     H50747  12.983   2.345  11.021 -1.3169 -3.1072 -3.6805
  368MOL0     H50748  13.070   2.707  10.927 -1.5577 -2.3144  0.0298
  368MOL0     H50749  13.060   2.788  11.077 -0.2500 -0.5350  0.5499
  368MOL0     H50750  13.285   2.802  11.027  1.9155 -1.7606 -1.2102
  368MOL0     H50751  13.283   2.682  11.155 -1.0835 -3.3109  0.7427
  368MOL0     H50752  13.311   2.636  10.859 -0.1699  0.8564  0.2033
  368MOL0     H50753  13.261   2.499  10.972 -1.3584  1.9151 -0.0691
  368MOL0     H50754  13.453   2.496  11.106  0.9372  0.0015  0.7394
  368MOL0     H50755  13.526   2.633  11.018  0.4697 -0.4460 -2.2003
  368MOL0     H50756  13.595   2.394  10.994 -2.5208 -1.0249  1.5248
  368MOL0     H50757  13.451   2.366  10.890  0.6165 -0.6979  0.2581
  368MOL0     H50758  13.659   2.568  10.828 -0.0439  1.4895 -1.9832
  368MOL0     H50759  13.514   2.553  10.734 -0.5650  0.0224  1.5000
  368MOL0     H50760  13.561   2.298  10.702  1.3278 -3.1444  2.0143
  368MOL0     H50761  13.723   2.341  10.759  1.3287  3.2289 -0.3052
  368MOL0     H50762  13.601   2.493  10.513  1.5902  1.7622  0.2938
  368MOL0     H50763  13.695   2.345  10.492  0.0731  1.2334 -1.7361
  368MOL0     H50764  12.834   2.737  11.039  3.5116 -0.7207  4.0973
  368MOL0     H50765  12.609   2.665  10.964 -0.7037 -1.0280 -2.5336
  368MOL0     H50766  12.384   2.081  11.011 -1.8159 -0.0409  1.4847
  368MOL0     H50767  12.173   1.973  10.917 -4.1634 -0.0221 -1.9903
  368MOL0     H50768  10.707   2.111   9.716  0.7559 -0.0787  0.4281
  368MOL0     H50769  10.571   2.022   9.539  2.6172  1.7293  0.5686
  368MOL0     H50770  10.199   1.840   9.441  0.0841 -1.0147  1.2527
  368MOL0     H50771  10.007   1.805   9.279  0.4067 -1.8379  0.0596
  368MOL0     H50772   9.901   1.670   9.145 -0.1239  0.6823 -0.1680
  368MOL0     H50773   9.855   1.731   8.982  1.6136  3.5921 -1.2787
  368MOL0     H50774  10.004   1.538   8.877 -2.0964 -2.7948 -1.1707
  368MOL0     H50775   9.861   1.506   8.981 -1.2596  3.6730 -2.7406
  368MOL0     H50776  10.150   1.471   9.083 -0.2344  0.7789  1.9318
  368MOL0     H50777   9.996   1.430   9.163  1.4668  1.6557  1.0819
  368MOL0     H50778   9.980   1.300   8.912 -1.5809  2.8535  1.9441
  368MOL0     H50779  10.023   1.222   9.065 -1.5684  1.8080  1.6677
  368MOL0     H50780  10.404   1.236   8.903 -0.0265  1.7689  1.8755
  368MOL0     H50781  10.291   1.702   8.985  1.2368 -1.8604  0.5810
  368MOL0     H50782  10.583   1.810   9.131 -0.2895 -0.2245  1.3205
  368MOL0     H50783  10.556   1.635   9.164 -1.4949 -0.0897  1.6392
  368MOL0     H50784  10.509   1.699   9.010 -4.6611 -1.9916  0.2241
  369MOL0     O50785   6.077   6.833   6.755 -0.5144 -0.2876 -0.3088
  369MOL0     C50786   6.186   6.798   6.712 -0.7478  0.2490  0.0236
  369MOL0     O50787   6.212   6.765   6.581  0.1121 -0.5305  0.5417
  369MOL0     C50788   6.110   6.750   6.491  0.2670  0.3366  0.2235
  369MOL0     C50789   6.077   6.620   6.446  0.0801 -0.5078  0.2088
  369MOL0     C50790   5.965   6.583   6.373 -0.2551  0.7608 -0.7821
  369MOL0     C50791   5.873   6.682   6.334 -0.2895 -0.1897 -0.1322
  369MOL0     O50792   5.750   6.644   6.285 -0.7166  0.1880 -0.2372
  369MOL0     C50793   5.641   6.729   6.318 -0.3200 -0.8650  1.1516
  369MOL0     C50794   5.521   6.651   6.278 -0.6587  0.0805 -0.4285
  369MOL0     C50795   5.393   6.728   6.271 -0.1600 -0.8588 -0.0683
  369MOL0     C50796   5.358   6.795   6.408  0.1749 -0.5382 -0.8765
  369MOL0     C50797   5.211   6.763   6.430 -0.1298  0.1093 -0.1830
  369MOL0     C50798   5.155   6.827   6.567  0.3092  0.8019 -0.0828
  369MOL0     C50799   5.176   6.972   6.574  1.3874 -0.4355 -0.2165
  369MOL0     C50800   5.086   7.035   6.697 -0.7780 -0.8618 -0.0025
  369MOL0     N50801   5.132   7.170   6.736 -0.5011  0.4774 -0.4062
  369MOL0     C50802   5.236   7.195   6.819 -0.3943 -0.4813 -0.1907
  369MOL0     C50803   5.230   7.335   6.837  0.1272  0.5796  0.0215
  369MOL0     C50804   5.320   7.416   6.921 -1.2010 -1.3354  0.5057
  369MOL0     C50805   5.426   7.496   6.835 -0.1129 -0.5197 -0.6259
  369MOL0     C50806   5.549   7.409   6.808  0.5018 -0.1712  0.0545
  369MOL0     C50807   5.656   7.492   6.737 -1.1268 -0.8598 -0.3212
  369MOL0     O50808   5.776   7.418   6.746  0.3307  0.2350  0.4358
  369MOL0     C50809   5.887   7.479   6.686  0.7964 -0.1092 -0.6794
  369MOL0     C50810   5.881   7.588   6.609 -0.2763 -0.6995  0.2776
  369MOL0     C50811   6.007   7.642   6.549 -0.0516  0.0590 -0.1341
  369MOL0     C50812   5.997   7.766   6.461 -0.1248  0.4138 -0.6406
  369MOL0     C50813   6.131   7.583   6.581  0.3410 -0.3851 -0.1444
  369MOL0     C50814   6.256   7.643   6.536 -0.1676  0.1860  0.0722
  369MOL0     O50815   6.347   7.550   6.488 -0.4063  0.7234  0.1491
  369MOL0     C50816   6.472   7.592   6.464 -0.1466  0.0576  0.0147
  369MOL0     C50817   6.551   7.644   6.569 -1.0572  0.2157 -0.7159
  369MOL0     C50818   6.676   7.702   6.536  0.6736  0.3320 -0.2742
  369MOL0     C50819   6.723   7.706   6.404 -0.5554  0.2044  0.3502
  369MOL0     O50820   6.849   7.765   6.380 -0.7196 -0.1989  0.4266
  369MOL0     C50821   6.948   7.657   6.373 -0.0861 -0.7580  0.1429
  369MOL0     C50822   7.095   7.701   6.352  0.4297  1.1863 -0.5007
  369MOL0     C50823   7.177   7.571   6.316  0.7730 -0.2220 -0.3018
  369MOL0     C50824   7.317   7.610   6.278 -0.3824 -0.1171 -0.7503
  369MOL0     C50825   7.410   7.481   6.267 -0.4454  0.0573  0.4172
  369MOL0     C50826   7.510   7.466   6.380  0.4969  0.6287 -1.0564
  369MOL0     C50827   7.438   7.443   6.516 -0.3511 -1.1785  0.4855
  369MOL0     C50828   7.523   7.375   6.618 -0.5074  0.4554 -0.0782
  369MOL0    Cl50829   7.574   7.214   6.550 -0.2666  0.0990  0.0584
  369MOL0     C50830   6.650   7.632   6.304 -0.1242 -0.0976  0.9041
  369MOL0     C50831   6.519   7.588   6.333  0.3138 -0.0617 -0.0037
  369MOL0     O50832   6.279   7.762   6.542 -0.0797  0.0783 -0.6996
  369MOL0     C50833   6.126   7.469   6.657  0.3088  0.1480 -0.2720
  369MOL0     C50834   6.010   7.410   6.703  0.0751  0.2439  0.4728
  369MOL0     N50835   5.125   7.376   6.759  0.6746  0.2901 -0.5176
  369MOL0     N50836   5.060   7.282   6.702  0.0596 -0.2425 -0.0200
  369MOL0     C50837   5.900   6.812   6.382 -0.0836  0.4090 -1.0623
  369MOL0     C50838   6.018   6.847   6.455  0.3878  0.6464  0.3930
  369MOL0     C50839   6.302   6.810   6.801 -0.2607 -0.4097 -0.1312
  369MOL0     C50840   6.432   6.801   6.742  0.3655  0.0449  0.3477
  369MOL0     C50841   6.546   6.821   6.824  0.0534 -0.0144 -0.0834
  369MOL0     C50842   6.541   6.835   6.961  0.0509 -0.5219  0.7113
  369MOL0     O50843   6.647   6.853   7.046  0.0206 -0.1550  0.1975
  369MOL0     C50844   6.771   6.901   6.987  0.7857 -0.5187  1.3791
  369MOL0     C50845   6.877   6.930   7.093 -0.3944 -0.1526 -0.1005
  369MOL0     C50846   7.003   6.959   7.014  0.9983  0.2967 -0.0562
  369MOL0     C50847   7.108   7.026   7.096 -0.1948  0.9091 -0.2514
  369MOL0     C50848   7.178   6.914   7.174  0.4539  0.4705  0.7766
  369MOL0     C50849   7.231   6.822   7.232 -0.1210 -0.3074 -0.2279
  369MOL0     C50850   6.412   6.838   7.020 -0.8338  0.2810 -0.7549
  369MOL0     C50851   6.293   6.815   6.946  0.8938 -0.6212 -0.4162
  369MOL0     C50852   6.167   6.809   7.019  0.1593  0.2747 -0.0704
  369MOL0     H50853   6.142   6.543   6.487 -1.2034 -1.9959 -0.4441
  369MOL0     H50854   5.955   6.478   6.348 -0.0525  1.3049 -3.3916
  369MOL0     H50855   5.646   6.823   6.264  1.4466 -1.9161 -0.6288
  369MOL0     H50856   5.643   6.740   6.427  0.7388 -1.8030  1.2419
  369MOL0     H50857   5.551   6.612   6.181  2.5243  1.5552 -0.1472
  369MOL0     H50858   5.510   6.570   6.351  1.7650 -1.7123 -1.9179
  369MOL0     H50859   5.411   6.804   6.194  1.1276 -0.2692  0.7928
  369MOL0     H50860   5.317   6.662   6.230 -0.9831  0.5147 -0.8543
  369MOL0     H50861   5.411   6.758   6.496 -2.2260 -3.2678 -0.4282
  369MOL0     H50862   5.380   6.900   6.390 -0.0768 -0.7853 -2.8919
  369MOL0     H50863   5.198   6.656   6.411 -2.3966  0.9984 -5.7444
  369MOL0     H50864   5.155   6.812   6.349 -1.0995 -0.3556  0.1900
  369MOL0     H50865   5.046   6.813   6.569  0.4725 -1.2136 -1.8175
  369MOL0     H50866   5.204   6.786   6.656  1.6980 -1.9445 -1.9787
  369MOL0     H50867   5.149   7.027   6.484  1.5915  1.2191  0.6924
  369MOL0     H50868   5.282   6.995   6.588  1.4617  1.1827 -2.8557
  369MOL0     H50869   4.982   7.055   6.674 -0.7573 -1.1589 -0.3596
  369MOL0     H50870   5.095   6.968   6.784  1.0417  1.8015  2.0476
  369MOL0     H50871   5.311   7.127   6.860 -1.0918  0.7923  3.6866
  369MOL0     H50872   5.369   7.354   6.996  1.4457 -2.2439 -1.7927
  369MOL0     H50873   5.253   7.480   6.979 -1.3101 -0.7164 -0.2774
  369MOL0     H50874   5.379   7.517   6.739  1.1722  1.7968 -0.8020
  369MOL0     H50875   5.445   7.591   6.886 -0.9683 -1.0778  0.8021
  369MOL0     H50876   5.585   7.377   6.906  0.7590 -0.8017 -0.2367
  369MOL0     H50877   5.533   7.318   6.749  1.0017  0.6924 -1.4798
  369MOL0     H50878   5.631   7.523   6.635  1.7617 -0.0446 -0.8639
  369MOL0     H50879   5.670   7.584   6.795  0.7332 -1.9083  1.0086
  369MOL0     H50880   5.794   7.651   6.592  0.3016 -0.1745 -0.8602
  369MOL0     H50881   5.893   7.787   6.436 -0.0740  1.9338  0.2496
  369MOL0     H50882   6.050   7.749   6.367 -0.1172 -1.5099 -0.3199
  369MOL0     H50883   6.041   7.849   6.518 -0.2255  0.2834 -0.3680
  369MOL0     H50884   6.516   7.644   6.672  1.2705 -0.6195  0.1332
  369MOL0     H50885   6.742   7.739   6.614 -0.9626  3.1371 -0.0668
  369MOL0     H50886   6.959   7.601   6.467  0.6175 -2.0841 -0.7004
  369MOL0     H50887   6.916   7.596   6.288 -1.8628  1.2086 -0.6950
  369MOL0     H50888   7.091   7.770   6.267 -1.0808 -2.5422 -3.7773
  369MOL0     H50889   7.133   7.753   6.440 -1.1814  3.6984 -1.1651
  369MOL0     H50890   7.136   7.523   6.227 -0.3683 -2.1044  1.1641
  369MOL0     H50891   7.171   7.506   6.404 -2.3630 -1.2456 -1.1508
  369MOL0     H50892   7.350   7.681   6.355 -2.1479  0.4225 -0.4460
  369MOL0     H50893   7.323   7.666   6.185  5.2925 -0.6799 -1.0927
  369MOL0     H50894   7.345   7.394   6.261 -1.0177  0.5271 -0.4364
  369MOL0     H50895   7.473   7.492   6.178 -0.3792  1.0563  0.5785
  369MOL0     H50896   7.577   7.551   6.394  2.6248 -1.3070  1.5057
  369MOL0     H50897   7.573   7.378   6.365  2.4416  1.8855 -0.5699
  369MOL0     H50898   7.349   7.383   6.496 -1.7287  0.3940  1.5875
  369MOL0     H50899   7.411   7.547   6.538  1.1197 -0.3493 -1.3176
  369MOL0     H50900   7.466   7.353   6.709 -0.4520  0.1973 -0.1054
  369MOL0     H50901   7.609   7.437   6.641 -0.6172  0.8404 -0.6801
  369MOL0     H50902   6.677   7.630   6.198 -2.4941  0.6244  0.2337
  369MOL0     H50903   6.461   7.549   6.250  2.9053 -0.3102 -1.8192
  369MOL0     H50904   6.217   7.422   6.692  2.3743  3.2279 -1.1521
  369MOL0     H50905   6.005   7.322   6.768 -3.4726  1.9388  2.8185
  369MOL0     H50906   5.823   6.888   6.373 -1.1586 -0.6052 -0.7223
  369MOL0     H50907   6.013   6.951   6.483 -3.3022  0.8161 -0.4621
  369MOL0     H50908   6.447   6.777   6.637 -1.3611  0.9896 -0.1552
  369MOL0     H50909   6.648   6.814   6.786 -0.0956  2.7253 -1.1877
  369MOL0     H50910   6.802   6.817   6.924  1.3640  0.0027  0.9668
  369MOL0     H50911   6.759   6.996   6.935  1.7928 -0.7099  0.7830
  369MOL0     H50912   6.886   6.845   7.162 -0.7979  0.4902  0.7539
  369MOL0     H50913   6.854   7.022   7.146  2.6772 -1.4661  4.0108
  369MOL0     H50914   7.042   6.867   6.970 -0.5123  0.0249 -0.9123
  369MOL0     H50915   6.984   7.025   6.929 -1.3048 -1.8564 -1.3520
  369MOL0     H50916   7.063   7.091   7.172 -0.2605 -0.0099  0.5179
  369MOL0     H50917   7.181   7.078   7.033 -0.6627 -0.7996 -2.2940
  369MOL0     H50918   7.280   6.745   7.289  2.3841 -0.8544 -2.8650
  369MOL0     H50919   6.407   6.838   7.128  0.5789  0.8635 -0.6665
  369MOL0     H50920   6.194   6.793   7.124 -2.1196 -0.0824  0.5091
  369MOL0     H50921   6.102   6.897   7.008  1.0450  0.7694 -1.6208
  369MOL0     H50922   6.101   6.724   7.000 -0.8037  1.0453 -0.2548
  370MOL0     O50923   4.311   9.466  10.445  0.4025  0.1016  0.0646
  370MOL0     C50924   4.325   9.498  10.566 -0.1463 -0.2672  0.3648
  370MOL0     O50925   4.402   9.607  10.604  0.6344  0.8838 -0.0544
  370MOL0     C50926   4.491   9.662  10.516 -0.0925 -0.4751 -0.2047
  370MOL0     C50927   4.519   9.797  10.530  0.9957  0.3713  0.1833
  370MOL0     C50928   4.598   9.861  10.432  0.3302 -0.5145 -0.6142
  370MOL0     C50929   4.666   9.791  10.337 -0.3051 -0.9637  0.1652
  370MOL0     O50930   4.727   9.868  10.247  0.0567 -0.3957 -0.1647
  370MOL0     C50931   4.820   9.819  10.152 -0.4166  0.8161 -0.0221
  370MOL0     C50932   4.884   9.909  10.052 -0.7925  0.0545 -0.7286
  370MOL0     C50933   4.960   9.824   9.942  0.7330  0.4822 -0.8071
  370MOL0     C50934   5.005   9.919   9.835  0.5342 -0.3278  0.2513
  370MOL0     C50935   5.141   9.987   9.873 -0.2829 -0.3673 -0.3491
  370MOL0     C50936   5.222  10.040   9.746 -0.6529 -0.7101 -0.5248
  370MOL0     C50937   5.366  10.076   9.788  0.6570 -0.0909  0.4734
  370MOL0     C50938   5.366  10.189   9.888  0.4223 -0.2763 -0.1956
  370MOL0     N50939   5.507  10.232   9.904  0.1740  0.2776  0.0726
  370MOL0     C50940   5.567  10.260  10.028 -0.4186 -0.9233  0.2356
  370MOL0     C50941   5.692  10.297   9.988  0.4763  0.1971  0.5960
  370MOL0     C50942   5.803  10.329  10.077  0.2824  0.3240 -1.2663
  370MOL0     C50943   5.864  10.194  10.137  0.8686 -0.0638  0.7893
  370MOL0     C50944   5.915  10.108  10.033 -0.6223  0.1997  0.8757
  370MOL0     C50945   6.037  10.167   9.969 -0.3234 -0.5941 -1.0381
  370MOL0     O50946   6.093  10.065   9.885  0.5321 -0.3770  0.0364
  370MOL0     C50947   6.226  10.080   9.842 -0.2935  0.8482  0.1619
  370MOL0     C50948   6.293   9.971   9.784  0.3921  0.4354 -0.1480
  370MOL0     C50949   6.436   9.976   9.752  0.1504  0.0092  0.3122
  370MOL0     C50950   6.504   9.860   9.681  0.0277  0.1387 -0.0525
  370MOL0     C50951   6.500  10.098   9.792  0.4840  0.3516 -0.4518
  370MOL0     C50952   6.647  10.116   9.781  0.5218 -0.3588  0.1512
  370MOL0     O50953   6.711  10.159   9.895 -0.0144  0.1616  0.1847
  370MOL0     C50954   6.845  10.168   9.890  0.3580  0.1275  0.2695
  370MOL0     C50955   6.927  10.051   9.900  0.0297 -0.4929  0.2884
  370MOL0     C50956   7.066  10.056   9.900 -0.4910 -0.7841  1.0555
  370MOL0     C50957   7.131  10.178   9.898 -0.4564  0.1339 -0.2897
  370MOL0     O50958   7.269  10.188   9.915  0.5259 -1.1971  0.7641
  370MOL0     C50959   7.351  10.066   9.870  0.8951 -0.0264 -0.7164
  370MOL0     C50960   7.499  10.104   9.839 -0.0034  0.2337  0.6323
  370MOL0     C50961   7.498  10.152   9.695  0.1024 -0.3845  0.3707
  370MOL0     C50962   7.641  10.177   9.645  0.1169 -0.5209  0.3134
  370MOL0     C50963   7.655  10.211   9.491 -0.0878  0.8703 -0.0199
  370MOL0     C50964   7.792  10.248   9.457 -0.0700  0.2287  0.9456
  370MOL0     C50965   7.805  10.278   9.306  0.5588  0.0003 -0.0968
  370MOL0     C50966   7.954  10.309   9.266 -0.5589  0.3219  0.2048
  370MOL0    Cl50967   8.019  10.454   9.350  0.6707 -0.1301 -0.0991
  370MOL0     C50968   7.055  10.298   9.887  0.8214  0.6099 -0.2079
  370MOL0     C50969   6.910  10.297   9.879 -1.1149 -0.3465 -0.3367
  370MOL0     O50970   6.706  10.089   9.679 -0.1162  0.3983  0.2487
  370MOL0     C50971   6.426  10.207   9.840  0.5689  0.2519  0.0047
  370MOL0     C50972   6.291  10.199   9.858 -0.1477  0.3491  0.4033
  370MOL0     N50973   5.706  10.303   9.853 -0.4014  0.5308  0.5306
  370MOL0     N50974   5.592  10.274   9.801  0.4803 -0.4050 -0.7849
  370MOL0     C50975   4.654   9.647  10.328 -0.1244 -0.6622 -0.0614
  370MOL0     C50976   4.565   9.589  10.418 -0.0909 -0.0248  0.4149
  370MOL0     C50977   4.247   9.429  10.664  0.1952 -0.0427 -0.2630
  370MOL0     C50978   4.107   9.406  10.645 -0.8239  0.0606  0.2390
  370MOL0     C50979   4.030   9.336  10.736 -1.3242  0.0221  0.7033
  370MOL0     C50980   4.094   9.281  10.848  0.6180 -1.0765 -0.2339
  370MOL0     O50981   4.024   9.205  10.937  0.5711  0.0324 -0.2599
  370MOL0     C50982   3.897   9.161  10.893 -0.0914 -0.5536  0.2028
  370MOL0     C50983   3.827   9.060  10.990 -0.5539  0.1156 -0.6818
  370MOL0     C50984   3.685   9.031  10.947  0.8803 -0.2804 -0.5754
  370MOL0     C50985   3.659   8.974  10.802  0.0796  0.0303 -0.8608
  370MOL0     C50986   3.666   9.095  10.716  0.2107 -0.4798  0.4938
  370MOL0     C50987   3.647   9.192  10.642  0.8351  0.7375  0.0978
  370MOL0     C50988   4.224   9.311  10.879 -0.6254 -0.8029  0.2735
  370MOL0     C50989   4.305   9.376  10.784 -0.5344 -0.4254  1.1063
  370MOL0     C50990   4.447   9.388  10.823 -0.3975 -0.0360  0.4736
  370MOL0     H50991   4.467   9.851  10.609 -0.6905 -0.7093 -0.1262
  370MOL0     H50992   4.604   9.970  10.438 -2.7224 -0.2387 -1.1930
  370MOL0     H50993   4.764   9.746  10.093  1.7795 -0.4019 -0.7419
  370MOL0     H50994   4.899   9.756  10.195 -1.2684 -0.6937 -0.6025
  370MOL0     H50995   4.814   9.975  10.000  0.8494  1.4472 -1.2453
  370MOL0     H50996   4.953   9.968  10.113 -0.0184 -1.8799  0.3785
  370MOL0     H50997   5.044   9.767   9.986  0.3554 -1.3501 -2.3106
  370MOL0     H50998   4.882   9.755   9.908 -0.9982  2.0133 -0.0907
  370MOL0     H50999   5.019   9.861   9.744  1.8743  1.4860 -0.7453
  370MOL0     H51000   4.930   9.996   9.816 -1.4022 -1.7430  1.7288
  370MOL0     H51001   5.206   9.906   9.909 -0.0193 -0.0032 -0.0107
  370MOL0     H51002   5.138  10.060   9.954  4.0433 -1.4451  1.0513
  370MOL0     H51003   5.223   9.958   9.673 -0.9234 -1.1868 -0.0018
  370MOL0     H51004   5.185  10.132   9.702  0.3113 -0.4745 -0.8639
  370MOL0     H51005   5.414  10.108   9.695 -1.3418 -0.0676 -0.6067
  370MOL0     H51006   5.415   9.985   9.823 -1.1048 -1.0844  0.4945
  370MOL0     H51007   5.302  10.274   9.862 -0.6854 -1.3582 -1.1103
  370MOL0     H51008   5.336  10.145   9.983  2.0835 -3.5887 -1.0545
  370MOL0     H51009   5.536  10.237  10.130  1.6086 -0.5377  0.9781
  370MOL0     H51010   5.777  10.400  10.156  2.2496  1.1444 -1.2846
  370MOL0     H51011   5.882  10.392  10.034  1.7149  2.1843  3.4024
  370MOL0     H51012   5.941  10.210  10.212  0.6634  0.5804  0.8664
  370MOL0     H51013   5.789  10.143  10.199  2.5197 -2.8155  0.6579
  370MOL0     H51014   5.948  10.019  10.088  1.4853  0.4508  0.0816
  370MOL0     H51015   5.841  10.082   9.957 -0.1168  1.9966 -0.2794
  370MOL0     H51016   6.014  10.253   9.906  1.8504  1.1878  0.4551
  370MOL0     H51017   6.113  10.203  10.039 -0.8876  1.0996 -1.2516
  370MOL0     H51018   6.230   9.885   9.763 -1.9287  1.9376  0.2855
  370MOL0     H51019   6.573   9.803   9.744  0.3673 -3.6710 -3.4891
  370MOL0     H51020   6.562   9.899   9.597  0.3676  1.3231  0.7123
  370MOL0     H51021   6.426   9.792   9.644 -0.4175 -0.7892  2.4045
  370MOL0     H51022   6.875   9.957   9.916  0.9900 -1.3366 -1.3202
  370MOL0     H51023   7.119   9.963   9.913  3.0370  1.3110  3.3072
  370MOL0     H51024   7.353  10.002   9.959  0.0832  1.8114  0.6985
  370MOL0     H51025   7.304  10.019   9.784  0.9989  0.2297 -0.9156
  370MOL0     H51026   7.542  10.181   9.905  1.3751  1.6403 -1.7661
  370MOL0     H51027   7.563  10.017   9.850 -1.8028 -0.8535  3.7188
  370MOL0     H51028   7.429  10.236   9.683 -1.7363 -1.5457  2.2710
  370MOL0     H51029   7.464  10.071   9.630  2.3856  1.1354 -3.0436
  370MOL0     H51030   7.714  10.101   9.672  0.1654  0.5304  3.5896
  370MOL0     H51031   7.679  10.269   9.690  1.0313 -0.9217  0.3732
  370MOL0     H51032   7.628  10.121   9.435  1.0475 -0.1518  1.0184
  370MOL0     H51033   7.589  10.291   9.458 -0.7564  0.6262  0.7033
  370MOL0     H51034   7.862  10.169   9.488  0.8116  0.7333  0.2679
  370MOL0     H51035   7.822  10.340   9.509 -0.8157  0.5238  0.8650
  370MOL0     H51036   7.751  10.370   9.282  0.3627  0.3253  1.4539
  370MOL0     H51037   7.756  10.199   9.249  0.2009 -1.0597  1.5868
  370MOL0     H51038   7.952  10.321   9.157 -3.5346  2.8547  0.3742
  370MOL0     H51039   8.026  10.231   9.292  3.4709  2.4585 -3.3300
  370MOL0     H51040   7.104  10.395   9.883  1.5123  0.5770  3.3867
  370MOL0     H51041   6.860  10.393   9.870 -1.7462 -0.5284  0.9354
  370MOL0     H51042   6.480  10.297   9.868 -1.0925  1.7226 -1.3114
  370MOL0     H51043   6.238  10.288   9.889 -1.2721 -0.0719 -0.2630
  370MOL0     H51044   4.691   9.583  10.249 -0.8899  0.3642 -1.2939
  370MOL0     H51045   4.548   9.482  10.416 -0.3169 -0.0308  1.6778
  370MOL0     H51046   4.051   9.456  10.566 -0.7299  1.4098  0.9912
  370MOL0     H51047   3.926   9.314  10.716 -1.0285 -1.7084  0.9316
  370MOL0     H51048   3.824   9.239  10.873  0.6474 -0.0645 -0.6589
  370MOL0     H51049   3.913   9.108  10.799 -1.7576 -1.7396  0.5413
  370MOL0     H51050   3.820   9.109  11.087  1.5850  0.3236 -0.6000
  370MOL0     H51051   3.893   8.973  10.985  1.1567  1.1176  2.1605
  370MOL0     H51052   3.667   8.950  11.019  3.7217  1.1508  1.9671
  370MOL0     H51053   3.619   9.115  10.970 -1.5073 -1.3092 -3.0763
  370MOL0     H51054   3.561   8.928  10.790 -0.8848  1.8439 -0.2994
  370MOL0     H51055   3.739   8.905  10.774  0.5588  0.0502  0.3736
  370MOL0     H51056   3.638   9.281  10.583  2.8212  2.5014  2.2193
  370MOL0     H51057   4.271   9.296  10.976 -0.0232  1.3048  0.3537
  370MOL0     H51058   4.507   9.421  10.738 -0.8600 -2.8041 -1.0289
  370MOL0     H51059   4.466   9.451  10.910 -1.0986  1.2898 -0.3066
  370MOL0     H51060   4.493   9.291  10.842  1.1819  0.5357 -0.2918
  371MOL0     O51061   4.797   3.307   2.618 -0.9194 -0.0722 -0.4911
  371MOL0     C51062   4.779   3.416   2.673 -0.4225  0.3304 -0.2152
  371MOL0     O51063   4.877   3.499   2.714  0.1713 -0.1878 -0.1909
  371MOL0     C51064   5.006   3.456   2.720  0.0675 -0.5516 -0.0928
  371MOL0     C51065   5.070   3.380   2.624  0.3495  0.1319 -0.7933
  371MOL0     C51066   5.201   3.339   2.650 -0.0920  0.2770  0.5832
  371MOL0     C51067   5.265   3.348   2.777  0.4515 -0.0965  0.0651
  371MOL0     O51068   5.395   3.301   2.784  0.2936  0.5044 -0.5713
  371MOL0     C51069   5.472   3.353   2.894  0.3499  0.3032  0.0373
  371MOL0     C51070   5.623   3.316   2.893  0.2879 -0.5793  0.3941
  371MOL0     C51071   5.689   3.373   3.022 -0.0866 -0.1072 -0.4583
  371MOL0     C51072   5.841   3.362   3.015  0.4067  0.8976  0.3573
  371MOL0     C51073   5.894   3.369   3.155  0.1124 -1.1905 -0.7982
  371MOL0     C51074   6.046   3.355   3.166 -0.6452  0.0832  0.2623
  371MOL0     C51075   6.097   3.360   3.313  0.1227  0.0520 -0.4373
  371MOL0     C51076   6.121   3.217   3.371 -1.0794 -0.4522  0.6716
  371MOL0     N51077   6.265   3.189   3.361  0.0553  0.2700  0.0304
  371MOL0     C51078   6.338   3.171   3.242  1.1724  0.3917 -0.5978
  371MOL0     C51079   6.455   3.108   3.274 -0.1719  0.2432 -0.3161
  371MOL0     C51080   6.561   3.061   3.177 -0.0357  0.2666  1.1111
  371MOL0     C51081   6.566   2.899   3.176 -0.6148 -0.1700 -0.1655
  371MOL0     C51082   6.675   2.871   3.290  0.5828 -0.2874  1.0196
  371MOL0     C51083   6.699   2.723   3.309 -0.7046 -0.6104  0.3086
  371MOL0     O51084   6.817   2.705   3.391 -1.0914 -0.5680  0.3052
  371MOL0     C51085   6.944   2.726   3.352  0.5294  0.0040 -0.7538
  371MOL0     C51086   7.045   2.714   3.446  0.7989  0.3068 -0.4250
  371MOL0     C51087   7.179   2.730   3.402  0.1609 -0.1211  0.2427
  371MOL0     C51088   7.286   2.709   3.500 -0.6667 -0.2356 -0.4348
  371MOL0     C51089   7.208   2.771   3.263 -0.8083  0.9581  0.9503
  371MOL0     C51090   7.346   2.803   3.219  0.2687 -0.8474  0.1895
  371MOL0     O51091   7.354   2.924   3.143 -0.3903  0.5580 -0.1210
  371MOL0     C51092   7.483   2.967   3.128  0.2977  0.5514 -1.0245
  371MOL0     C51093   7.575   2.896   3.044  0.0433 -0.6416  0.4092
  371MOL0     C51094   7.704   2.949   3.035 -0.9105  0.8072  1.1091
  371MOL0     C51095   7.742   3.064   3.108 -0.5804  0.3843 -0.5528
  371MOL0     O51096   7.868   3.109   3.093 -0.3804  0.1737  0.8771
  371MOL0     C51097   7.910   3.223   3.168 -0.4438  0.0275 -0.7020
  371MOL0     C51098   8.056   3.256   3.141  0.7297  0.1743 -0.5175
  371MOL0     C51099   8.169   3.159   3.187  1.1430  0.1945 -0.0176
  371MOL0     C51100   8.147   3.107   3.332  0.2649  0.7540  0.1216
  371MOL0     C51101   8.270   3.020   3.383 -0.5922 -0.3154 -0.2744
  371MOL0     C51102   8.408   3.093   3.404  0.1362  0.0208 -0.3148
  371MOL0     C51103   8.428   3.123   3.557  0.7863 -0.6433 -0.4200
  371MOL0     C51104   8.555   3.212   3.575 -0.4453 -0.0549 -0.0093
  371MOL0    Cl51105   8.694   3.121   3.498  0.0953  0.3146 -0.1400
  371MOL0     C51106   7.645   3.128   3.181 -0.3692 -0.2783 -0.3063
  371MOL0     C51107   7.517   3.079   3.198  0.1701 -1.0248 -0.6494
  371MOL0     O51108   7.440   2.728   3.249 -0.2341 -0.1908 -0.5058
  371MOL0     C51109   7.094   2.801   3.180 -0.3160  0.3932 -0.6678
  371MOL0     C51110   6.967   2.771   3.218  0.4273 -0.2867 -0.5366
  371MOL0     N51111   6.445   3.080   3.414 -0.0738 -0.1772  0.5556
  371MOL0     N51112   6.333   3.131   3.465 -0.4989  0.0053 -0.2893
  371MOL0     C51113   5.190   3.415   2.879 -0.3801  0.9194 -0.0313
  371MOL0     C51114   5.066   3.466   2.846  0.3716  0.9660 -0.1681
  371MOL0     C51115   4.647   3.483   2.670 -0.2135  0.3300  0.8329
  371MOL0     C51116   4.631   3.621   2.689 -0.8914  0.1723  0.0890
  371MOL0     C51117   4.505   3.680   2.701 -0.2812  0.8406 -0.0593
  371MOL0     C51118   4.392   3.610   2.665 -0.2277  0.6117  0.3590
  371MOL0     O51119   4.275   3.682   2.665 -0.2564  0.1263 -1.0187
  371MOL0     C51120   4.166   3.639   2.750  0.2232 -0.9870 -0.1263
  371MOL0     C51121   4.103   3.761   2.812 -0.6250  0.1659  0.4932
  371MOL0     C51122   4.197   3.849   2.894  0.3825  0.3470  0.6501
  371MOL0     C51123   4.108   3.955   2.956 -0.8899  0.2644 -0.1240
  371MOL0     C51124   4.177   4.023   3.059 -0.6845  0.2320 -0.6029
  371MOL0     C51125   4.226   4.070   3.162  0.6253  0.1697  0.6903
  371MOL0     C51126   4.405   3.472   2.641 -0.0036 -0.9786 -0.2586
  371MOL0     C51127   4.528   3.411   2.658  0.5689  0.4164  0.0948
  371MOL0     C51128   4.520   3.261   2.664 -0.3488  0.0177  0.3681
  371MOL0     H51129   5.030   3.390   2.524 -2.4446  0.5948  0.2650
  371MOL0     H51130   5.263   3.305   2.568  2.7755  2.6081  1.5861
  371MOL0     H51131   5.434   3.316   2.990  0.5094 -2.8669 -1.0047
  371MOL0     H51132   5.475   3.462   2.896 -3.1242  0.5744 -1.7366
  371MOL0     H51133   5.627   3.208   2.877  1.0004 -0.5219  0.1380
  371MOL0     H51134   5.663   3.380   2.813  1.0662 -1.1338  0.3286
  371MOL0     H51135   5.651   3.472   3.050 -0.9028 -0.4798 -0.2357
  371MOL0     H51136   5.663   3.303   3.102 -1.1956 -0.0201 -0.7298
  371MOL0     H51137   5.860   3.260   2.981 -1.9514 -0.3644  2.4886
  371MOL0     H51138   5.886   3.437   2.949  2.6820 -2.2267 -1.9586
  371MOL0     H51139   5.847   3.288   3.212 -0.1476  0.9636  2.3234
  371MOL0     H51140   5.864   3.462   3.204 -1.3188 -1.9124 -0.2387
  371MOL0     H51141   6.079   3.266   3.111 -1.3242 -0.2031  0.3053
  371MOL0     H51142   6.091   3.440   3.115  1.1849 -1.5072 -0.9244
  371MOL0     H51143   6.043   3.428   3.380  0.9976  2.4988 -2.0617
  371MOL0     H51144   6.194   3.411   3.309  0.3390 -0.1713  1.1615
  371MOL0     H51145   6.081   3.195   3.470 -0.9849 -2.9480  0.2274
  371MOL0     H51146   6.072   3.149   3.300 -0.1737 -0.9124  0.4737
  371MOL0     H51147   6.306   3.201   3.143  1.3343  0.5347 -0.6078
  371MOL0     H51148   6.653   3.115   3.204 -0.3386  0.5217  1.6562
  371MOL0     H51149   6.530   3.095   3.078 -1.9154  0.3905  1.7105
  371MOL0     H51150   6.470   2.856   3.206 -0.3239 -0.1766  0.7622
  371MOL0     H51151   6.604   2.854   3.083 -1.6638 -3.0696  0.6934
  371MOL0     H51152   6.765   2.923   3.258  0.3685  0.2115  1.2107
  371MOL0     H51153   6.643   2.910   3.388 -2.3216 -1.6495  0.7408
  371MOL0     H51154   6.610   2.680   3.356 -0.2908 -1.1825  0.5793
  371MOL0     H51155   6.717   2.684   3.209  2.0431  0.2000  0.4204
  371MOL0     H51156   7.024   2.684   3.548  1.2233  2.0713  0.2068
  371MOL0     H51157   7.351   2.797   3.504 -1.2226  0.2597 -1.6629
  371MOL0     H51158   7.350   2.625   3.473  0.6849 -0.6833  3.4887
  371MOL0     H51159   7.254   2.684   3.602  1.3718 -1.3708 -0.0292
  371MOL0     H51160   7.541   2.811   2.986 -0.4595  0.4330 -0.9211
  371MOL0     H51161   7.778   2.901   2.973 -1.2125  2.9204 -1.0249
  371MOL0     H51162   7.854   3.311   3.136  1.4441  1.2750 -0.7257
  371MOL0     H51163   7.893   3.208   3.275 -1.8453 -1.7126 -1.1184
  371MOL0     H51164   8.073   3.270   3.033  2.1156  1.9532 -0.1083
  371MOL0     H51165   8.074   3.353   3.187 -1.5525  0.3789  0.0275
  371MOL0     H51166   8.262   3.215   3.179  0.3797  2.0227  2.5573
  371MOL0     H51167   8.168   3.065   3.130 -1.3772 -0.7434  1.4147
  371MOL0     H51168   8.063   3.038   3.322  0.3984  0.6291 -0.1582
  371MOL0     H51169   8.125   3.189   3.401  1.4334 -2.3678  4.6862
  371MOL0     H51170   8.233   2.968   3.472  2.4630 -4.1016 -0.9517
  371MOL0     H51171   8.289   2.940   3.310  0.2613 -1.3192  0.9922
  371MOL0     H51172   8.418   3.184   3.343  1.2660 -0.2727 -0.5970
  371MOL0     H51173   8.486   3.026   3.366 -0.7839  0.5137 -3.2932
  371MOL0     H51174   8.445   3.036   3.621  0.9866 -0.3119 -0.0211
  371MOL0     H51175   8.348   3.183   3.602  1.7068 -1.1677  2.0619
  371MOL0     H51176   8.575   3.235   3.680 -2.4743 -1.1611  0.6631
  371MOL0     H51177   8.543   3.307   3.521  0.6014 -1.3254 -2.6776
  371MOL0     H51178   7.673   3.211   3.246 -1.0433  0.2093 -0.6158
  371MOL0     H51179   7.441   3.137   3.251  0.7547 -1.2944  0.5176
  371MOL0     H51180   7.123   2.820   3.077 -0.5482 -1.1772 -1.0378
  371MOL0     H51181   6.891   2.773   3.141  0.3971  0.0209 -0.5025
  371MOL0     H51182   5.233   3.440   2.975  0.5342  1.5526 -0.5871
  371MOL0     H51183   5.010   3.530   2.913  0.4881  1.9115 -0.9634
  371MOL0     H51184   4.710   3.695   2.692 -1.4013  0.7180  0.1689
  371MOL0     H51185   4.492   3.785   2.728  4.2169  1.0575  2.1951
  371MOL0     H51186   4.088   3.598   2.686  0.0340  1.0715 -1.2876
  371MOL0     H51187   4.200   3.571   2.829 -0.6050 -0.3998  0.7517
  371MOL0     H51188   4.024   3.726   2.880 -1.1520 -0.7457 -0.5489
  371MOL0     H51189   4.064   3.826   2.733 -0.8046 -0.1766  0.2947
  371MOL0     H51190   4.230   3.790   2.981  1.0598  1.4589  1.1661
  371MOL0     H51191   4.284   3.891   2.843 -0.1613  1.0449  0.2798
  371MOL0     H51192   4.022   3.910   3.007 -0.6565  2.5054  2.4519
  371MOL0     H51193   4.070   4.030   2.886  2.6083  2.1088 -0.2339
  371MOL0     H51194   4.264   4.114   3.252  2.4751  2.4449 -1.0712
  371MOL0     H51195   4.320   3.408   2.618 -1.9548  1.3394  0.0660
  371MOL0     H51196   4.573   3.223   2.752  1.1262  1.9626  0.3906
  371MOL0     H51197   4.417   3.225   2.661  0.1906 -1.5068 -2.3457
  371MOL0     H51198   4.570   3.210   2.582 -1.5052 -0.5255 -0.0170
  372MOL0     O51199   8.346   0.380  11.171 -0.1862 -0.4211  0.1658
  372MOL0     C51200   8.315   0.323  11.279 -0.3304 -0.0297 -0.4159
  372MOL0     O51201   8.398   0.233  11.342  0.1637  0.0870  0.4187
  372MOL0     C51202   8.531   0.221  11.305 -0.5947 -0.1769  0.3059
  372MOL0     C51203   8.570   0.160  11.184 -0.7016 -0.3112 -0.5675
  372MOL0     C51204   8.702   0.112  11.157 -0.8259  0.0366  0.0724
  372MOL0     C51205   8.800   0.129  11.253  0.3108 -0.1222 -0.3962
  372MOL0     O51206   8.928   0.098  11.219  0.9487 -0.3054 -0.1774
  372MOL0     C51207   9.034   0.157  11.294  0.5839  0.5720 -0.4223
  372MOL0     C51208   9.161   0.110  11.222 -0.5857 -0.7295 -0.2009
  372MOL0     C51209   9.285   0.183  11.282  0.4384  0.3613 -0.2205
  372MOL0     C51210   9.381   0.198  11.166 -0.0803  0.1175  0.2109
  372MOL0     C51211   9.516   0.235  11.214  0.2999  0.9579 -0.4512
  372MOL0     C51212   9.624   0.244  11.106 -0.4273 -0.1102  0.1522
  372MOL0     C51213   9.758   0.305  11.152  0.1383  0.4490  0.9133
  372MOL0     C51214   9.833   0.213  11.240  0.2120  0.5220  0.2723
  372MOL0     N51215   9.962   0.264  11.267  0.5218  0.4679 -0.0457
  372MOL0     C51216  10.015   0.328  11.373  0.4536  0.2648 -0.7417
  372MOL0     C51217  10.142   0.350  11.341  0.2978 -0.0339 -0.1450
  372MOL0     C51218  10.243   0.413  11.430  0.3176  0.5521  0.1659
  372MOL0     C51219  10.313   0.305  11.513  0.2014  0.2103  0.6705
  372MOL0     C51220  10.365   0.379  11.633 -0.1986 -0.4668  1.0312
  372MOL0     C51221  10.449   0.275  11.711 -0.4018 -0.8521 -0.9267
  372MOL0     O51222  10.515   0.351  11.814 -0.3425 -0.8913  0.2444
  372MOL0     C51223  10.639   0.328  11.851 -0.1766 -0.3255  0.6120
  372MOL0     C51224  10.680   0.399  11.967 -0.0944  0.2797 -1.0213
  372MOL0     C51225  10.805   0.369  12.025 -0.2199  0.5684 -0.5183
  372MOL0     C51226  10.831   0.430  12.157 -0.5053  0.0448 -0.0729
  372MOL0     C51227  10.901   0.291  11.950 -0.1016  0.6636  0.0418
  372MOL0     C51228  11.036   0.272  12.006 -0.1264  0.3803 -0.8798
  372MOL0     O51229  11.130   0.238  11.917  0.8573 -0.1643  0.4725
  372MOL0     C51230  11.255   0.208  11.953 -0.6142 -0.3448  0.3448
  372MOL0     C51231  11.292   0.097  12.015 -0.4574  0.1312  0.0723
  372MOL0     C51232  11.423   0.070  12.050 -0.1902 -0.3274 -0.4447
  372MOL0     C51233  11.528   0.158  12.009  0.3816  0.4520 -0.1281
  372MOL0     O51234  11.656   0.135  12.021 -0.1047 -0.0037 -0.3666
  372MOL0     C51235  11.717   0.105  12.149 -0.4050  0.0431  0.5695
  372MOL0     C51236  11.805  -0.019  12.145 -1.6811  0.2505  0.3814
  372MOL0     C51237  11.868  -0.075  12.270 -0.0639  1.0583 -0.2074
  372MOL0     C51238  11.967  -0.184  12.224 -0.6937 -0.1553 -0.4037
  372MOL0     C51239  12.048  -0.253  12.337  0.1970  0.4437  0.2536
  372MOL0     C51240  12.106  -0.380  12.291 -0.0154 -0.0537  0.2182
  372MOL0     C51241  12.211  -0.438  12.388 -0.9462  0.0272  1.2440
  372MOL0     C51242  12.160  -0.478  12.525  0.7234  0.6515  0.5957
  372MOL0    Cl51243  12.284  -0.576  12.611 -0.0716  0.1541  0.0117
  372MOL0     C51244  11.488   0.269  11.947  0.1726  0.2673  0.4178
  372MOL0     C51245  11.360   0.295  11.917  0.2406  0.0462  0.1112
  372MOL0     O51246  11.058   0.280  12.129 -0.0451 -0.2568  0.3960
  372MOL0     C51247  10.865   0.229  11.829 -0.6550 -0.1302  0.1001
  372MOL0     C51248  10.733   0.245  11.784 -0.7044  0.0451  0.7770
  372MOL0     N51249  10.167   0.314  11.211 -0.5518  0.3622  0.4519
  372MOL0     N51250  10.059   0.260  11.171  0.9356  0.5527 -0.3059
  372MOL0     C51251   8.766   0.190  11.374 -0.4016 -0.4548  0.1035
  372MOL0     C51252   8.639   0.239  11.403 -0.8863  0.1182 -0.2759
  372MOL0     C51253   8.176   0.337  11.322  0.6115  0.5033 -0.1453
  372MOL0     C51254   8.093   0.431  11.246  0.1408 -1.1784  0.0820
  372MOL0     C51255   7.955   0.441  11.275 -0.6520 -0.2821 -0.0603
  372MOL0     C51256   7.893   0.365  11.376 -0.1705  0.1060  0.7911
  372MOL0     O51257   7.756   0.379  11.383 -0.4083  0.2929  0.0729
  372MOL0     C51258   7.683   0.356  11.500 -0.5490 -0.1207 -0.3977
  372MOL0     C51259   7.563   0.448  11.515  0.0127  0.0960 -0.6265
  372MOL0     C51260   7.608   0.588  11.487  0.6885  0.6364  0.3081
  372MOL0     C51261   7.516   0.689  11.547  0.1517  0.0950  0.4824
  372MOL0     C51262   7.387   0.695  11.498  1.0446  0.3766 -0.0965
  372MOL0     C51263   7.283   0.706  11.442 -0.0362  0.0446 -0.2694
  372MOL0     C51264   7.981   0.279  11.447 -0.4052  0.7450 -0.0702
  372MOL0     C51265   8.113   0.264  11.421  0.1116 -0.2295  0.0106
  372MOL0     C51266   8.180   0.157  11.500 -0.4867 -0.0493 -0.2754
  372MOL0     H51267   8.483   0.141  11.122 -0.4475 -1.9883 -0.4591
  372MOL0     H51268   8.726   0.072  11.059  1.3727  2.6203 -0.5630
  372MOL0     H51269   9.037   0.119  11.396  1.6247  1.5765 -0.0535
  372MOL0     H51270   9.031   0.266  11.299 -0.6394  0.4826  2.2013
  372MOL0     H51271   9.161   0.000  11.225 -1.3564 -0.7608 -0.8968
  372MOL0     H51272   9.150   0.139  11.117 -1.5400 -0.4736 -0.0406
  372MOL0     H51273   9.263   0.284  11.316 -1.2319 -0.3056  0.7871
  372MOL0     H51274   9.332   0.122  11.359  2.7875  1.8976 -0.3291
  372MOL0     H51275   9.388   0.107  11.104  0.4343 -0.9857  1.8202
  372MOL0     H51276   9.338   0.270  11.095  1.5365 -0.8785 -1.8993
  372MOL0     H51277   9.544   0.159  11.288 -1.5520 -1.5309 -2.1414
  372MOL0     H51278   9.512   0.330  11.267  1.7053 -0.8161  3.1572
  372MOL0     H51279   9.651   0.148  11.061  2.7115  1.2519 -1.1772
  372MOL0     H51280   9.578   0.313  11.035 -1.1339  1.2181  1.8184
  372MOL0     H51281   9.733   0.401  11.197 -1.6257  1.0658 -1.2037
  372MOL0     H51282   9.814   0.327  11.060 -0.7483 -3.4150 -0.7481
  372MOL0     H51283   9.771   0.194  11.328  0.9322 -2.9994  0.1944
  372MOL0     H51284   9.836   0.112  11.196  0.6803 -0.0504  1.5769
  372MOL0     H51285   9.968   0.349  11.469 -0.6632 -3.7751 -0.1901
  372MOL0     H51286  10.184   0.486  11.486 -2.7689 -0.8997 -0.9283
  372MOL0     H51287  10.312   0.469  11.366 -0.8011  0.8857 -0.7848
  372MOL0     H51288  10.238   0.231  11.541  1.6167 -1.9168 -0.7787
  372MOL0     H51289  10.394   0.269  11.448 -1.3832 -0.5771 -0.9767
  372MOL0     H51290  10.420   0.469  11.605  0.1025 -0.9562  0.0038
  372MOL0     H51291  10.273   0.408  11.684  0.4636 -0.7872  2.4586
  372MOL0     H51292  10.387   0.199  11.760 -1.0607 -0.1989 -0.7375
  372MOL0     H51293  10.525   0.227  11.647 -1.1518 -1.4817 -1.3672
  372MOL0     H51294  10.609   0.459  12.023 -0.4322 -0.7785 -0.2781
  372MOL0     H51295  10.829   0.357  12.239  0.2204  0.7414  0.5886
  372MOL0     H51296  10.753   0.499  12.189  0.5399  0.2377  2.3279
  372MOL0     H51297  10.928   0.479  12.145  0.6214 -2.4651 -2.2988
  372MOL0     H51298  11.210   0.030  12.035 -2.7390  2.3287 -1.4003
  372MOL0     H51299  11.437  -0.016  12.114  0.6962  1.9792  2.7312
  372MOL0     H51300  11.780   0.191  12.173  1.9824 -1.5350  0.3473
  372MOL0     H51301  11.632   0.087  12.215 -0.4280 -2.3343  0.0116
  372MOL0     H51302  11.738  -0.097  12.109 -1.7656  0.0405  0.9850
  372MOL0     H51303  11.880   0.011  12.071 -4.5591  2.5350 -1.9102
  372MOL0     H51304  11.786  -0.119  12.328 -0.7358 -0.5752 -2.2819
  372MOL0     H51305  11.924  -0.007  12.335 -0.2470  1.3588 -0.3623
  372MOL0     H51306  12.037  -0.145  12.149 -2.2285 -1.5633 -2.6877
  372MOL0     H51307  11.905  -0.254  12.167  0.2777 -1.5354  0.1709
  372MOL0     H51308  12.120  -0.178  12.371 -0.4453  0.4115  1.8266
  372MOL0     H51309  11.996  -0.288  12.427  1.3338 -1.6987  0.1403
  372MOL0     H51310  12.155  -0.361  12.195 -2.5543 -5.6794 -2.6636
  372MOL0     H51311  12.020  -0.447  12.286 -0.4210  0.4610  0.2578
  372MOL0     H51312  12.299  -0.374  12.394 -0.3256 -0.5747 -0.6941
  372MOL0     H51313  12.247  -0.521  12.325 -2.1034  1.1139 -0.9650
  372MOL0     H51314  12.073  -0.541  12.511  1.2669  0.1165 -0.6072
  372MOL0     H51315  12.138  -0.384  12.577  0.5069  0.9204  0.0314
  372MOL0     H51316  11.562   0.331  11.899  0.6710 -0.8507 -0.2971
  372MOL0     H51317  11.332   0.383  11.859 -1.3113  0.0630  0.8472
  372MOL0     H51318  10.931   0.156  11.783 -1.1463  0.2347 -1.2250
  372MOL0     H51319  10.717   0.190  11.692  3.8766 -0.0968 -0.1631
  372MOL0     H51320   8.844   0.205  11.447 -1.9360  0.3944  1.6341
  372MOL0     H51321   8.618   0.268  11.506 -1.9763  1.9414 -0.9620
  372MOL0     H51322   8.132   0.494  11.166  0.3837 -0.2310  0.9212
  372MOL0     H51323   7.893   0.517  11.228 -1.4526  0.3586  1.9604
  372MOL0     H51324   7.638   0.256  11.504 -1.8526  0.4947  2.1533
  372MOL0     H51325   7.742   0.356  11.592 -4.1126 -0.4839  2.0822
  372MOL0     H51326   7.516   0.433  11.613 -2.5320  1.1720 -1.5755
  372MOL0     H51327   7.478   0.426  11.449 -0.7321  0.1326  0.2934
  372MOL0     H51328   7.711   0.594  11.523  1.0408  1.0600 -0.7106
  372MOL0     H51329   7.618   0.604  11.379 -1.9852 -2.0933 -0.4693
  372MOL0     H51330   7.557   0.789  11.528 -2.0778  0.9122 -0.3302
  372MOL0     H51331   7.510   0.681  11.656  0.1508 -1.0300  0.4097
  372MOL0     H51332   7.189   0.708  11.390 -0.1126  1.9173 -0.1414
  372MOL0     H51333   7.928   0.212  11.513 -1.3581 -0.0089 -1.5458
  372MOL0     H51334   8.190   0.057  11.456  1.7695 -0.0451  0.0845
  372MOL0     H51335   8.274   0.204  11.533  0.1507 -2.6110  1.9226
  372MOL0     H51336   8.129   0.148  11.596  0.1054  0.7776  0.1354
  373MOL0     O51337  10.570   0.772   0.135 -1.0431 -0.2751  0.6330
  373MOL0     C51338  10.590   0.700   0.040 -0.1292  0.2907 -0.3986
  373MOL0     O51339  10.694   0.612   0.026  0.4360  0.0950  0.2733
  373MOL0     C51340  10.793   0.618   0.120  0.5969  0.0398 -0.7809
  373MOL0     C51341  10.828   0.512   0.201  0.7474 -0.4298 -0.7882
  373MOL0     C51342  10.928   0.529   0.301  0.1408 -1.3087 -0.5392
  373MOL0     C51343  10.995   0.656   0.313 -0.9917  0.0152 -0.0296
  373MOL0     O51344  11.093   0.674   0.411  0.3447  0.3680 -0.0641
  373MOL0     C51345  11.049   0.647   0.543 -0.3655 -0.2591 -0.4660
  373MOL0     C51346  11.120   0.749   0.638  0.2240  0.6884  0.2966
  373MOL0     C51347  11.278   0.741   0.639 -0.2080  0.1143 -1.1689
  373MOL0     C51348  11.328   0.833   0.742 -0.1824  0.0605  0.2877
  373MOL0     C51349  11.474   0.862   0.719 -0.2570 -0.1334 -0.2523
  373MOL0     C51350  11.574   0.748   0.749 -0.7284 -0.2222 -0.1415
  373MOL0     C51351  11.732   0.798   0.734  0.6539  0.1005  0.5557
  373MOL0     C51352  11.826   0.686   0.750 -0.9632  0.4564  0.1562
  373MOL0     N51353  11.961   0.738   0.735 -0.6055 -0.1612 -0.1205
  373MOL0     C51354  12.014   0.798   0.620 -0.0399 -0.4891  0.0473
  373MOL0     C51355  12.141   0.824   0.659 -0.1538 -0.4942 -0.2099
  373MOL0     C51356  12.248   0.881   0.578  0.4065 -0.2333  0.7342
  373MOL0     C51357  12.399   0.832   0.608  0.3427 -0.3675  0.3516
  373MOL0     C51358  12.502   0.945   0.604  0.9132  0.8449  0.1032
  373MOL0     C51359  12.638   0.901   0.592 -0.4514 -0.3782 -0.3372
  373MOL0     O51360  12.718   1.006   0.628  0.8284 -0.1534 -0.3532
  373MOL0     C51361  12.846   0.992   0.583  0.7823 -0.8404 -0.2331
  373MOL0     C51362  12.928   0.899   0.650 -0.0295  1.0371  0.6152
  373MOL0     C51363  13.067   0.886   0.624 -0.0375 -0.3805  0.0895
  373MOL0     C51364  13.135   0.783   0.707 -0.7366  0.2380 -0.0300
  373MOL0     C51365  13.126   0.966   0.526 -0.2238 -0.4956  0.1154
  373MOL0     C51366  13.267   0.956   0.479  0.5017 -0.8935  0.3614
  373MOL0     O51367  13.326   1.080   0.455  0.1789 -0.1846  0.4724
  373MOL0     C51368  13.456   1.095   0.416 -0.2691 -0.4854  0.2763
  373MOL0     C51369  13.466   1.187   0.316 -0.0444  0.1206 -0.3358
  373MOL0     C51370  13.587   1.207   0.247 -0.0590 -0.0694 -1.1570
  373MOL0     C51371  13.706   1.153   0.298 -0.1935 -0.3898 -0.2639
  373MOL0     O51372  13.828   1.171   0.229  0.5767 -0.5377  0.2888
  373MOL0     C51373  13.923   1.062   0.212  0.2051 -0.0708  0.3397
  373MOL0     C51374  14.033   1.063   0.330  0.7390  0.0116  0.3683
  373MOL0     C51375  14.163   1.127   0.283  0.3782  1.0767 -0.5770
  373MOL0     C51376  14.274   1.096   0.393 -0.1978  0.4833 -0.2326
  373MOL0     C51377  14.399   1.184   0.369  0.5399  0.4930 -0.4145
  373MOL0     C51378  14.479   1.141   0.253 -0.4582  0.2858  0.5316
  373MOL0     C51379  14.606   1.232   0.230  0.7236 -0.5828  0.8124
  373MOL0     C51380  14.713   1.172   0.135  0.7971  0.3027 -0.2311
  373MOL0    Cl51381  14.845   1.075   0.210 -0.1140  0.1020 -0.2341
  373MOL0     C51382  13.697   1.059   0.406 -0.2022 -0.0604  0.5300
  373MOL0     C51383  13.570   1.034   0.465 -0.5575 -0.3627 -0.0118
  373MOL0     O51384  13.325   0.849   0.471  0.6266  0.1784 -1.0686
  373MOL0     C51385  13.044   1.062   0.455 -0.3390  0.0964 -0.3238
  373MOL0     C51386  12.903   1.075   0.483 -0.2378 -0.0150  0.1983
  373MOL0     N51387  12.160   0.771   0.789 -0.1507  0.6163  0.3360
  373MOL0     N51388  12.052   0.718   0.834 -0.2054 -0.1721  0.3114
  373MOL0     C51389  10.960   0.756   0.223  0.2052 -0.9028  0.0569
  373MOL0     C51390  10.861   0.736   0.126 -0.0143 -0.8967  0.0156
  373MOL0     C51391  10.498   0.690  -0.081  0.8580 -0.8345 -0.5706
  373MOL0     C51392  10.554   0.627  -0.192  0.4646 -0.7171 -0.0206
  373MOL0     C51393  10.465   0.605  -0.300 -0.7429 -0.7833 -0.7192
  373MOL0     C51394  10.333   0.646  -0.295  0.1513  0.4551  0.2913
  373MOL0     O51395  10.252   0.622  -0.400  0.5352 -0.3186  0.3325
  373MOL0     C51396  10.303   0.571  -0.524 -0.3617 -0.0589 -0.2182
  373MOL0     C51397  10.204   0.598  -0.638 -0.8350 -0.2078 -0.5065
  373MOL0     C51398  10.222   0.744  -0.685  0.4731 -0.8318 -0.3008
  373MOL0     C51399  10.104   0.764  -0.781 -0.6898 -0.7100  0.1114
  373MOL0     C51400  10.089   0.906  -0.820 -0.3121 -0.3036  0.4647
  373MOL0     C51401  10.096   1.025  -0.855 -0.2467 -0.5704 -0.2543
  373MOL0     C51402  10.280   0.695  -0.182  0.5393 -0.1611  0.4940
  373MOL0     C51403  10.358   0.724  -0.076  0.2119  0.3167 -0.0188
  373MOL0     C51404  10.298   0.790   0.043 -1.0527  0.4856  0.6640
  373MOL0     H51405  10.766   0.423   0.197 -1.9673  1.3573 -0.6436
  373MOL0     H51406  10.957   0.449   0.369  0.5002  0.0710  1.0060
  373MOL0     H51407  11.075   0.548   0.583 -2.0855  0.2786  2.2355
  373MOL0     H51408  10.943   0.661   0.565  0.4622  1.9322  2.8381
  373MOL0     H51409  11.080   0.849   0.625  0.0645  0.6394  0.4032
  373MOL0     H51410  11.083   0.744   0.741 -0.8237  0.6454 -0.0688
  373MOL0     H51411  11.304   0.641   0.675 -0.9051  0.0541 -0.8088
  373MOL0     H51412  11.324   0.758   0.542  0.8791 -1.0989 -0.8920
  373MOL0     H51413  11.280   0.931   0.728 -1.3217 -0.7167 -1.7332
  373MOL0     H51414  11.311   0.796   0.844  1.0026 -0.6409  0.2435
  373MOL0     H51415  11.501   0.948   0.780 -2.7221  0.5664 -0.0248
  373MOL0     H51416  11.488   0.918   0.626  0.0654  4.4390  2.2307
  373MOL0     H51417  11.558   0.719   0.853 -1.3899 -1.1607 -0.4900
  373MOL0     H51418  11.559   0.657   0.690  2.2213 -1.0463  0.2277
  373MOL0     H51419  11.743   0.883   0.801 -0.5923  0.2493  0.6014
  373MOL0     H51420  11.735   0.850   0.637 -1.2321  0.5975  0.7198
  373MOL0     H51421  11.812   0.622   0.837 -1.8774  1.7727  1.0116
  373MOL0     H51422  11.818   0.618   0.664  0.6855 -0.0830  0.3852
  373MOL0     H51423  11.960   0.828   0.531  0.7809 -0.5351 -0.4824
  373MOL0     H51424  12.245   0.989   0.590  0.4919  0.0015 -1.1171
  373MOL0     H51425  12.229   0.866   0.472  1.6397 -1.0861  0.6199
  373MOL0     H51426  12.399   0.781   0.705  0.3214 -2.7905 -0.8324
  373MOL0     H51427  12.423   0.756   0.533 -2.0827 -0.2496 -0.6332
  373MOL0     H51428  12.475   1.010   0.520  0.2312  0.8591  0.3262
  373MOL0     H51429  12.491   0.986   0.705  0.4856 -0.9577  0.8393
  373MOL0     H51430  12.669   0.817   0.654  2.7811  0.7801 -0.1685
  373MOL0     H51431  12.652   0.881   0.485 -5.1570  0.2137 -1.2974
  373MOL0     H51432  12.887   0.833   0.726  1.1266  0.5937  0.8842
  373MOL0     H51433  13.155   0.700   0.638 -1.5928 -0.2477  0.2952
  373MOL0     H51434  13.074   0.753   0.793 -0.7201 -2.5437 -0.8982
  373MOL0     H51435  13.232   0.825   0.735 -1.0887  0.2956  1.1796
  373MOL0     H51436  13.371   1.227   0.282 -0.1772  0.6050  0.5812
  373MOL0     H51437  13.589   1.279   0.166 -2.3201 -0.9376 -2.0575
  373MOL0     H51438  13.864   0.972   0.192 -0.1493 -0.0011  1.0573
  373MOL0     H51439  13.976   1.076   0.117  0.0241  0.3812  0.2996
  373MOL0     H51440  13.995   1.118   0.417  1.8253  3.3246 -1.1074
  373MOL0     H51441  14.047   0.962   0.367 -2.1400  0.4347  3.0518
  373MOL0     H51442  14.149   1.236   0.283 -3.6242  0.7157 -0.9578
  373MOL0     H51443  14.196   1.090   0.185  1.9838  1.3750 -0.1663
  373MOL0     H51444  14.303   0.990   0.396 -0.8432  0.2867 -0.6131
  373MOL0     H51445  14.233   1.116   0.492  0.2983  0.3928 -0.0068
  373MOL0     H51446  14.377   1.291   0.363  1.4028  0.6125 -1.8961
  373MOL0     H51447  14.467   1.175   0.454  1.1064  1.7349 -0.7136
  373MOL0     H51448  14.415   1.157   0.166 -2.0126 -3.2541  0.8493
  373MOL0     H51449  14.506   1.035   0.259  2.0431  0.5683 -2.9169
  373MOL0     H51450  14.654   1.261   0.324  1.9022 -2.5087  0.8516
  373MOL0     H51451  14.578   1.325   0.180 -1.7049 -1.5008  0.3430
  373MOL0     H51452  14.749   1.260   0.082 -1.0724 -0.5262 -3.1201
  373MOL0     H51453  14.676   1.117   0.048  0.9845  0.8421 -0.6533
  373MOL0     H51454  13.781   1.008   0.451 -1.7967 -1.3191  2.2063
  373MOL0     H51455  13.560   0.968   0.551 -2.3225 -0.4483 -0.2606
  373MOL0     H51456  13.091   1.121   0.376  5.3452 -3.2979 -0.0277
  373MOL0     H51457  12.839   1.147   0.434  2.8880  2.0022 -1.2618
  373MOL0     H51458  11.012   0.851   0.226  0.3819 -1.0264  1.6249
  373MOL0     H51459  10.848   0.818   0.056 -1.0772 -0.7918  0.3167
  373MOL0     H51460  10.659   0.599  -0.196  1.1829  1.7268 -0.1097
  373MOL0     H51461  10.515   0.559  -0.385  0.6486  1.7782 -1.3625
  373MOL0     H51462  10.400   0.613  -0.550  1.5614 -3.9399 -0.0697
  373MOL0     H51463  10.325   0.464  -0.526  0.7662  0.1591 -2.3924
  373MOL0     H51464  10.100   0.588  -0.603 -2.0683  3.4793 -2.5673
  373MOL0     H51465  10.220   0.528  -0.720  0.5701  0.1675 -0.5675
  373MOL0     H51466  10.199   0.817  -0.607  0.4735 -1.8168  0.6536
  373MOL0     H51467  10.320   0.761  -0.729  0.3797 -0.0362 -0.2069
  373MOL0     H51468  10.010   0.722  -0.744  1.7525 -3.9531  3.3978
  373MOL0     H51469  10.116   0.706  -0.873 -2.9099 -1.7682  0.4119
  373MOL0     H51470  10.101   1.129  -0.880  0.5822 -0.9823 -1.9324
  373MOL0     H51471  10.181   0.741  -0.185  1.4267  1.8176 -1.2439
  373MOL0     H51472  10.190   0.802   0.032 -1.2773 -0.6872  1.3936
  373MOL0     H51473  10.320   0.722   0.126 -3.4829 -2.4506 -0.8731
  373MOL0     H51474  10.349   0.886   0.039  1.7007 -0.8722  0.3911
  374MOL0     O51475   3.308   4.607   1.915 -0.1389  0.7107 -0.0388
  374MOL0     C51476   3.219   4.590   1.996 -0.2604 -0.0858  0.5683
  374MOL0     O51477   3.241   4.535   2.108 -0.5378  0.9633  0.0532
  374MOL0     C51478   3.350   4.530   2.185 -0.1962 -0.9693 -0.4753
  374MOL0     C51479   3.358   4.429   2.279  0.7951  0.0370 -0.1773
  374MOL0     C51480   3.475   4.405   2.340 -0.6309 -0.4119 -0.0354
  374MOL0     C51481   3.586   4.493   2.333  0.5866  0.0267  0.6112
  374MOL0     O51482   3.710   4.476   2.395 -0.1720  0.1719  0.1996
  374MOL0     C51483   3.763   4.343   2.426 -0.4516 -0.6095  0.1698
  374MOL0     C51484   3.923   4.340   2.428  0.1208  0.0512  0.3193
  374MOL0     C51485   3.969   4.199   2.479 -1.1850 -0.3899  0.2302
  374MOL0     C51486   4.122   4.192   2.484  0.4979  0.3640 -0.5783
  374MOL0     C51487   4.166   4.056   2.564 -0.2930 -0.3236  1.0460
  374MOL0     C51488   4.317   4.064   2.590  0.6124  0.3418  0.1569
  374MOL0     C51489   4.349   4.145   2.715  0.2496 -0.2618 -0.0078
  374MOL0     C51490   4.497   4.157   2.755  0.0753  0.0509  0.5267
  374MOL0     N51491   4.536   4.064   2.862 -0.7368 -0.2389 -0.3442
  374MOL0     C51492   4.510   4.083   2.998  0.4157  0.0744  1.1973
  374MOL0     C51493   4.572   3.980   3.064 -0.6559 -0.5053  0.9758
  374MOL0     C51494   4.565   3.952   3.212  0.3205  0.1010 -0.3699
  374MOL0     C51495   4.646   3.837   3.257  0.1251  0.1260 -0.5115
  374MOL0     C51496   4.620   3.813   3.408 -0.7280  0.6499  0.1440
  374MOL0     C51497   4.702   3.697   3.468  0.1755 -0.7182  0.8194
  374MOL0     O51498   4.836   3.735   3.449 -0.2327  0.4874  0.1538
  374MOL0     C51499   4.926   3.627   3.465 -0.4146  0.7405 -0.3564
  374MOL0     C51500   4.901   3.518   3.549  0.2543  0.5034 -0.0646
  374MOL0     C51501   5.006   3.443   3.596  0.3280 -0.4071  0.2120
  374MOL0     C51502   4.983   3.340   3.705  0.0269 -0.0291  0.3977
  374MOL0     C51503   5.137   3.456   3.537  0.0315 -0.5464 -0.3599
  374MOL0     C51504   5.252   3.359   3.555  0.3683  0.3196  0.1549
  374MOL0     O51505   5.376   3.402   3.519  0.1584 -0.6251 -0.4694
  374MOL0     C51506   5.494   3.331   3.552  0.7625 -0.9310  0.3014
  374MOL0     C51507   5.613   3.390   3.507 -0.1472 -0.2953  0.1513
  374MOL0     C51508   5.733   3.322   3.512 -0.6364  0.2238 -0.5397
  374MOL0     C51509   5.738   3.197   3.589 -0.7559  0.5860 -0.7100
  374MOL0     O51510   5.863   3.140   3.602 -0.1380 -0.1706  0.1583
  374MOL0     C51511   5.873   3.012   3.660 -0.3929 -0.4718 -0.8214
  374MOL0     C51512   6.009   2.939   3.616 -1.0422  0.0737 -0.2979
  374MOL0     C51513   6.128   2.981   3.714  0.2743 -0.3109  0.0801
  374MOL0     C51514   6.235   2.873   3.717  0.3797 -0.0453 -0.2738
  374MOL0     C51515   6.326   2.894   3.841  0.0273 -1.0557 -0.5264
  374MOL0     C51516   6.450   2.804   3.842  0.6630 -0.4827 -0.0537
  374MOL0     C51517   6.533   2.825   3.716  0.4171  0.8209 -0.0673
  374MOL0     C51518   6.679   2.786   3.744 -0.0697  0.2720 -0.1288
  374MOL0    Cl51519   6.695   2.620   3.809 -0.1310  0.3480 -0.0743
  374MOL0     C51520   5.617   3.144   3.638  0.6788 -0.5809 -0.1467
  374MOL0     C51521   5.496   3.208   3.627 -0.7286 -0.4986  0.1611
  374MOL0     O51522   5.221   3.244   3.579 -0.4788 -0.3423  0.2724
  374MOL0     C51523   5.153   3.555   3.441  0.3090  0.0461  1.0041
  374MOL0     C51524   5.046   3.643   3.411 -0.0862  0.1724  0.1428
  374MOL0     N51525   4.641   3.907   2.964 -1.0629  0.3753  1.0079
  374MOL0     N51526   4.621   3.958   2.846 -0.2688  0.1400 -0.1897
  374MOL0     C51527   3.567   4.605   2.247 -0.2097 -0.0412  0.2334
  374MOL0     C51528   3.452   4.625   2.171  0.5458 -0.5469  0.2628
  374MOL0     C51529   3.075   4.611   1.965  0.2800  0.7818  0.2345
  374MOL0     C51530   3.038   4.712   1.875  0.8230 -0.6934 -0.3321
  374MOL0     C51531   2.905   4.739   1.834  0.0344  0.4782 -0.2714
  374MOL0     C51532   2.804   4.673   1.896  0.1661  0.0450  1.2448
  374MOL0     O51533   2.677   4.710   1.856  0.1462  0.1258 -0.1703
  374MOL0     C51534   2.563   4.690   1.941 -0.9615  0.3642 -0.0733
  374MOL0     C51535   2.466   4.590   1.887  0.1932 -1.2316 -0.3834
  374MOL0     C51536   2.378   4.663   1.777 -0.3700  0.7366  1.0557
  374MOL0     C51537   2.289   4.789   1.811 -0.6862 -0.1776 -0.4782
  374MOL0     C51538   2.355   4.915   1.804 -0.4497 -0.0541 -0.2849
  374MOL0     C51539   2.419   5.015   1.787 -0.7202  0.9276  0.4071
  374MOL0     C51540   2.829   4.576   1.993  0.1573  0.7133 -0.4740
  374MOL0     C51541   2.964   4.540   2.032 -0.4094  0.3944 -0.9345
  374MOL0     C51542   2.985   4.428   2.133  0.0283 -0.4461  0.3700
  374MOL0     H51543   3.276   4.359   2.286  0.3883  0.6424  1.5391
  374MOL0     H51544   3.476   4.312   2.397  0.5005 -0.8651 -0.7678
  374MOL0     H51545   3.723   4.269   2.357 -1.6911  0.6844 -0.5444
  374MOL0     H51546   3.726   4.311   2.524 -1.7850 -1.8963 -0.7105
  374MOL0     H51547   3.968   4.356   2.329  0.1412 -1.9711 -0.0433
  374MOL0     H51548   3.965   4.421   2.489 -0.3478  0.3664  0.2292
  374MOL0     H51549   3.919   4.183   2.575 -2.6734  0.7249 -0.3261
  374MOL0     H51550   3.935   4.122   2.408  1.8996 -1.9538  0.2680
  374MOL0     H51551   4.166   4.202   2.385 -0.0026  0.0860 -0.8302
  374MOL0     H51552   4.156   4.280   2.540 -1.7998 -0.3675  2.2338
  374MOL0     H51553   4.146   3.972   2.498  3.4971  0.5383 -1.5115
  374MOL0     H51554   4.105   4.043   2.654 -1.9311 -0.5706 -0.0668
  374MOL0     H51555   4.357   3.966   2.617 -0.2657  0.0177  0.3354
  374MOL0     H51556   4.380   4.094   2.506  0.4686  1.6087  0.4721
  374MOL0     H51557   4.287   4.109   2.798  1.1880 -0.6439  0.5347
  374MOL0     H51558   4.321   4.250   2.699 -0.6099 -0.2410  1.4367
  374MOL0     H51559   4.551   4.125   2.665 -0.2101 -2.3066  1.1158
  374MOL0     H51560   4.520   4.261   2.778  0.4925  0.5295 -1.7714
  374MOL0     H51561   4.468   4.167   3.052 -0.1621  2.1844 -2.2155
  374MOL0     H51562   4.462   3.933   3.243 -0.2596  1.0487 -1.6420
  374MOL0     H51563   4.604   4.042   3.262 -0.6022 -0.2622  1.0746
  374MOL0     H51564   4.619   3.749   3.198  0.4454 -0.0442 -0.4056
  374MOL0     H51565   4.749   3.866   3.236 -0.0439 -0.0603 -1.6145
  374MOL0     H51566   4.650   3.902   3.464  0.3589 -0.4567  1.3877
  374MOL0     H51567   4.515   3.791   3.426 -0.2723 -2.8210 -0.7487
  374MOL0     H51568   4.669   3.684   3.571  0.2423  0.5991  1.0265
  374MOL0     H51569   4.676   3.610   3.407 -1.4613  0.2231  0.1075
  374MOL0     H51570   4.809   3.510   3.605  0.1028 -0.5319 -0.4432
  374MOL0     H51571   5.057   3.363   3.781  0.9899  0.8197 -0.7622
  374MOL0     H51572   5.001   3.236   3.677 -1.0267  0.2440 -1.4836
  374MOL0     H51573   4.879   3.350   3.739 -0.4760  0.0146 -1.0767
  374MOL0     H51574   5.621   3.483   3.452 -0.1624 -1.5764 -2.1189
  374MOL0     H51575   5.825   3.371   3.481  0.0945 -0.9110 -0.2249
  374MOL0     H51576   5.861   3.009   3.769  1.4363  2.9565 -0.4094
  374MOL0     H51577   5.792   2.949   3.621 -2.5785  0.5882  1.7030
  374MOL0     H51578   5.998   2.830   3.621  2.4058 -0.4359 -1.3595
  374MOL0     H51579   6.031   2.971   3.514 -0.8064  0.8583 -0.0041
  374MOL0     H51580   6.089   2.984   3.816  1.1749 -1.0313  0.4582
  374MOL0     H51581   6.163   3.081   3.686  0.8011 -0.0397  1.6142
  374MOL0     H51582   6.291   2.886   3.624 -0.5398  1.8803 -0.6112
  374MOL0     H51583   6.197   2.771   3.716 -1.9310  0.7707 -1.5308
  374MOL0     H51584   6.371   2.993   3.826  0.2330 -1.1708 -0.6759
  374MOL0     H51585   6.267   2.887   3.933 -0.3690  0.5309 -0.6317
  374MOL0     H51586   6.426   2.698   3.850 -1.5249 -0.0333  0.1168
  374MOL0     H51587   6.499   2.829   3.936 -2.3479 -0.5988  1.6682
  374MOL0     H51588   6.540   2.929   3.681  1.8927  0.9902  0.6434
  374MOL0     H51589   6.497   2.763   3.634  1.8495 -0.5250  0.2746
  374MOL0     H51590   6.713   2.854   3.823  0.3622 -0.7936  0.6387
  374MOL0     H51591   6.738   2.795   3.652  2.2792  0.6538  1.3106
  374MOL0     H51592   5.620   3.064   3.711  0.1776 -1.7337 -1.3524
  374MOL0     H51593   5.415   3.157   3.677  1.6606 -2.9495  1.8420
  374MOL0     H51594   5.252   3.574   3.401  0.9136  0.2793  2.5418
  374MOL0     H51595   5.056   3.725   3.341 -0.9435  0.0716 -0.1176
  374MOL0     H51596   3.652   4.673   2.239 -0.1508 -0.0662  0.6358
  374MOL0     H51597   3.439   4.719   2.119 -0.7249 -0.3614  0.8838
  374MOL0     H51598   3.115   4.773   1.831 -1.1387  0.7661 -1.9083
  374MOL0     H51599   2.886   4.808   1.752  1.5045  0.4558 -0.6600
  374MOL0     H51600   2.580   4.673   2.048 -1.2926 -0.9746 -0.2024
  374MOL0     H51601   2.509   4.785   1.941  1.5659  1.9031  1.0237
  374MOL0     H51602   2.405   4.553   1.969  3.2959 -1.2474  2.1218
  374MOL0     H51603   2.519   4.504   1.844  0.5548 -1.0848 -0.2328
  374MOL0     H51604   2.450   4.693   1.701  2.0852 -0.7231  2.6647
  374MOL0     H51605   2.316   4.580   1.741  1.4235 -1.0960  1.9367
  374MOL0     H51606   2.240   4.789   1.909 -0.3939  2.9792 -0.2215
  374MOL0     H51607   2.209   4.799   1.737 -1.0647 -1.5174 -0.2687
  374MOL0     H51608   2.469   5.110   1.785  0.0578  0.5350 -2.4628
  374MOL0     H51609   2.754   4.518   2.046 -1.1670  2.3561 -0.4665
  374MOL0     H51610   3.072   4.367   2.106  0.1471 -0.3465  0.5298
  374MOL0     H51611   2.999   4.473   2.232 -0.7342 -0.0979  0.3231
  374MOL0     H51612   2.898   4.363   2.132 -1.4327  1.4297 -0.2553
  375MOL0     O51613   8.247   8.024  11.240  0.3599 -0.3983 -0.0652
  375MOL0     C51614   8.169   8.024  11.141 -0.1055 -0.7428  0.6634
  375MOL0     O51615   8.194   7.966  11.014 -0.5997 -0.4428 -1.0908
  375MOL0     C51616   8.327   7.936  10.987 -0.0112 -0.0821  0.1475
  375MOL0     C51617   8.357   7.842  10.890 -0.3325  0.0657 -0.7061
  375MOL0     C51618   8.490   7.814  10.850  0.0914 -0.0796 -0.6687
  375MOL0     C51619   8.602   7.886  10.907  0.5020 -0.4201  1.2426
  375MOL0     O51620   8.731   7.868  10.883  0.1588 -0.5565 -0.2464
  375MOL0     C51621   8.772   7.764  10.787 -0.1313  0.2824 -0.4317
  375MOL0     C51622   8.920   7.790  10.749  0.6127  0.2635 -0.6056
  375MOL0     C51623   9.019   7.770  10.871  0.0398  0.1456 -0.0783
  375MOL0     C51624   9.085   7.634  10.876 -0.6658  1.1847 -0.1943
  375MOL0     C51625   9.195   7.617  10.980 -0.1746  0.1281  0.4234
  375MOL0     C51626   9.324   7.681  10.929  0.0091  0.7294 -0.2278
  375MOL0     C51627   9.440   7.652  11.026 -0.2226 -1.2336  0.0318
  375MOL0     C51628   9.552   7.721  10.957 -0.4953 -0.4639 -0.2811
  375MOL0     N51629   9.680   7.681  11.023  0.0478  0.0667 -0.4547
  375MOL0     C51630   9.701   7.673  11.163  0.8423  0.3995 -1.0966
  375MOL0     C51631   9.828   7.625  11.159 -0.5732  0.0252 -1.2076
  375MOL0     C51632   9.896   7.595  11.288  0.1895 -0.0589 -0.5995
  375MOL0     C51633  10.041   7.547  11.259 -0.2267  0.0210  0.2500
  375MOL0     C51634  10.118   7.509  11.393  0.1694 -1.1409  0.1132
  375MOL0     C51635  10.193   7.618  11.470 -0.3988  0.6561  0.3604
  375MOL0     O51636  10.296   7.671  11.385 -0.0611 -0.3991  0.3755
  375MOL0     C51637  10.422   7.714  11.424  0.7290 -0.1169 -0.1190
  375MOL0     C51638  10.494   7.667  11.528 -0.4801  0.3115 -0.3642
  375MOL0     C51639  10.629   7.696  11.550 -0.2333 -0.2079 -0.3769
  375MOL0     C51640  10.688   7.640  11.680  0.6250  0.1015 -0.2735
  375MOL0     C51641  10.699   7.766  11.452 -0.0029  0.5790  0.7384
  375MOL0     C51642  10.847   7.797  11.461 -0.0702 -1.0063  0.2540
  375MOL0     O51643  10.923   7.786  11.573  0.8819 -0.3556 -0.5803
  375MOL0     C51644  11.063   7.819  11.575 -0.0194 -0.5338  0.6631
  375MOL0     C51645  11.148   7.776  11.477  0.1701 -0.1467 -0.3607
  375MOL0     C51646  11.286   7.789  11.494 -0.1434  0.0539 -0.0656
  375MOL0     C51647  11.346   7.854  11.602  0.4912  0.0683 -0.1495
  375MOL0     O51648  11.473   7.872  11.626  0.0651 -0.5694 -0.2472
  375MOL0     C51649  11.575   7.839  11.535 -0.5123 -0.2640 -0.2742
  375MOL0     C51650  11.708   7.880  11.591 -0.0161  0.6812 -0.2032
  375MOL0     C51651  11.825   7.832  11.501 -0.3491  0.0423  0.5006
  375MOL0     C51652  11.965   7.869  11.563  0.2790  0.0554 -0.5040
  375MOL0     C51653  12.068   7.827  11.458 -0.1699 -0.7041 -1.1555
  375MOL0     C51654  12.207   7.880  11.484  0.6302  0.1707  0.7547
  375MOL0     C51655  12.287   7.822  11.600  0.3937 -0.6286  0.2972
  375MOL0     C51656  12.349   7.684  11.563 -0.1246 -0.7947 -0.3426
  375MOL0    Cl51657  12.464   7.715  11.423  0.0768  0.1763  0.2670
  375MOL0     C51658  11.259   7.921  11.696  1.5421 -0.1050  0.1923
  375MOL0     C51659  11.117   7.898  11.681 -0.6102 -0.6219 -0.1091
  375MOL0     O51660  10.888   7.824  11.352  0.0689  0.1924  0.7689
  375MOL0     C51661  10.625   7.824  11.340  0.5504  0.7838  0.2683
  375MOL0     C51662  10.488   7.796  11.328  0.2541  0.4029  0.0213
  375MOL0     N51663   9.876   7.595  11.033 -0.4899 -0.5298 -0.4425
  375MOL0     N51664   9.783   7.633  10.952  0.1492 -0.1623 -0.1909
  375MOL0     C51665   8.573   7.985  11.005 -0.1097  0.4851 -0.0728
  375MOL0     C51666   8.438   8.007  11.038 -0.4346  0.4088  0.6251
  375MOL0     C51667   8.032   8.083  11.151 -0.3770  1.4039 -0.1364
  375MOL0     C51668   7.962   8.113  11.036  0.4888  0.2731 -0.1248
  375MOL0     C51669   7.835   8.168  11.039 -0.1085  0.3087  0.2356
  375MOL0     C51670   7.766   8.176  11.151  0.3637  0.5687  0.2253
  375MOL0     O51671   7.639   8.217  11.144  0.4391 -0.3884 -0.3106
  375MOL0     C51672   7.544   8.197  11.247  0.4748  0.3757  0.4447
  375MOL0     C51673   7.406   8.232  11.187 -0.5480  0.0593  0.0259
  375MOL0     C51674   7.314   8.316  11.273 -0.0694 -0.1377 -0.5637
  375MOL0     C51675   7.169   8.304  11.218  0.3145  0.6732 -0.5124
  375MOL0     C51676   7.080   8.416  11.271 -0.0097  0.4236  0.4494
  375MOL0     C51677   7.019   8.502  11.328  0.1282 -0.1366 -0.1042
  375MOL0     C51678   7.844   8.163  11.279  0.2671  0.8632  0.8790
  375MOL0     C51679   7.972   8.107  11.273 -0.2977 -0.0045 -0.0110
  375MOL0     C51680   8.043   8.085  11.407  1.0221 -0.1269  0.8246
  375MOL0     H51681   8.283   7.785  10.833  0.3846 -1.4593 -0.1815
  375MOL0     H51682   8.495   7.736  10.775 -3.7295  1.3035 -2.6317
  375MOL0     H51683   8.715   7.764  10.693 -0.9598  2.3356  0.0008
  375MOL0     H51684   8.764   7.660  10.819 -1.4329  0.4711 -0.0966
  375MOL0     H51685   8.942   7.713  10.675  1.4786  0.7970 -0.9047
  375MOL0     H51686   8.937   7.890  10.708  2.5892  0.1287 -0.1862
  375MOL0     H51687   9.101   7.841  10.857 -0.3110  0.3044 -1.4142
  375MOL0     H51688   8.970   7.799  10.964  1.4859  3.7830 -0.2639
  375MOL0     H51689   9.003   7.569  10.909 -0.4482  1.6598  1.3675
  375MOL0     H51690   9.128   7.603  10.780 -3.0739  0.0312 -0.9817
  375MOL0     H51691   9.213   7.509  10.989 -0.5587 -0.0251 -0.5333
  375MOL0     H51692   9.159   7.662  11.073 -2.1878  0.9625 -0.6829
  375MOL0     H51693   9.344   7.651  10.826 -2.4836 -2.8064  0.1204
  375MOL0     H51694   9.299   7.787  10.922 -0.8485  0.5588  0.0755
  375MOL0     H51695   9.455   7.544  11.029  1.4730 -1.0085  1.9422
  375MOL0     H51696   9.428   7.694  11.126  2.6051 -0.2774  0.0496
  375MOL0     H51697   9.559   7.701  10.850 -1.6696 -1.9110 -0.1122
  375MOL0     H51698   9.533   7.829  10.958 -0.0283 -0.3164 -2.5756
  375MOL0     H51699   9.626   7.691  11.239  0.7622  0.6241 -1.2312
  375MOL0     H51700   9.841   7.517  11.342  0.9348 -0.4015 -0.3245
  375MOL0     H51701   9.891   7.684  11.351 -0.1316  1.4202 -2.6297
  375MOL0     H51702  10.035   7.467  11.185 -1.5088 -1.5950  2.0191
  375MOL0     H51703  10.092   7.623  11.199 -3.9357  0.5010 -2.7242
  375MOL0     H51704  10.050   7.454  11.459 -0.2755 -0.2224  0.4353
  375MOL0     H51705  10.196   7.438  11.362  1.7886  0.2279  0.9345
  375MOL0     H51706  10.122   7.697  11.497 -2.8909 -1.4331  0.4001
  375MOL0     H51707  10.246   7.575  11.555 -2.0787 -1.4655  0.4207
  375MOL0     H51708  10.449   7.597  11.597 -0.9535 -0.9795 -1.9283
  375MOL0     H51709  10.616   7.592  11.746 -1.4742  2.3776 -0.7599
  375MOL0     H51710  10.744   7.717  11.733  0.1643  1.3092 -1.4600
  375MOL0     H51711  10.753   7.557  11.651 -0.6854 -1.5058  1.1737
  375MOL0     H51712  11.109   7.729  11.387  0.8563 -0.0306 -0.7214
  375MOL0     H51713  11.345   7.742  11.416 -0.5972  0.1864 -0.4942
  375MOL0     H51714  11.568   7.731  11.517 -1.2154 -0.5229  1.3794
  375MOL0     H51715  11.556   7.890  11.440  0.6309 -0.3476 -0.5628
  375MOL0     H51716  11.703   7.989  11.602 -0.1040  0.5726  0.9160
  375MOL0     H51717  11.727   7.839  11.690 -0.2611  0.7560 -0.1246
  375MOL0     H51718  11.818   7.880  11.403  1.2235 -0.3758  0.1494
  375MOL0     H51719  11.817   7.723  11.488 -1.1581 -0.0299  1.5119
  375MOL0     H51720  11.984   7.814  11.655 -0.0887 -0.8741 -0.9773
  375MOL0     H51721  11.967   7.979  11.567 -0.3670  0.0932 -1.0132
  375MOL0     H51722  12.070   7.718  11.454 -0.0426 -0.8011  0.5662
  375MOL0     H51723  12.037   7.861  11.359  2.2138  0.6617 -1.4968
  375MOL0     H51724  12.193   7.984  11.514 -1.4924 -0.2041  1.2099
  375MOL0     H51725  12.256   7.876  11.386  1.0533 -1.8461  1.0061
  375MOL0     H51726  12.225   7.819  11.690 -0.2571  2.6272  0.0947
  375MOL0     H51727  12.371   7.889  11.622 -0.3900  1.6961 -2.9655
  375MOL0     H51728  12.275   7.614  11.524 -1.0631  0.7968 -1.5446
  375MOL0     H51729  12.405   7.646  11.649 -1.7286 -2.8166 -0.1058
  375MOL0     H51730  11.288   7.982  11.782 -1.1146  4.4163 -1.7486
  375MOL0     H51731  11.059   7.932  11.766 -0.9824 -0.9408 -0.2350
  375MOL0     H51732  10.658   7.883  11.256  0.8687 -2.2920 -1.9170
  375MOL0     H51733  10.429   7.825  11.242 -1.7107  1.0792  1.5366
  375MOL0     H51734   8.652   8.046  11.048  0.2025 -0.0500  0.1181
  375MOL0     H51735   8.421   8.095  11.100 -2.1621  1.1224 -0.7873
  375MOL0     H51736   8.005   8.105  10.936  2.3076 -0.7265  0.6923
  375MOL0     H51737   7.783   8.190  10.946 -1.2532  1.1677  1.0607
  375MOL0     H51738   7.553   8.090  11.271  0.9641  0.3777  0.2973
  375MOL0     H51739   7.564   8.256  11.336  1.2027 -0.5425  0.9062
  375MOL0     H51740   7.359   8.135  11.168 -2.4003  0.7144  1.0130
  375MOL0     H51741   7.415   8.281  11.090 -1.1314 -0.4105 -0.2771
  375MOL0     H51742   7.305   8.274  11.374 -0.8311  1.6221  0.1286
  375MOL0     H51743   7.347   8.420  11.271 -2.1052  0.5799  0.6728
  375MOL0     H51744   7.124   8.210  11.252  0.3723  0.4498 -1.0460
  375MOL0     H51745   7.163   8.315  11.110  2.2334  3.8606 -0.4041
  375MOL0     H51746   6.967   8.575  11.385  0.0689 -1.2563  1.3315
  375MOL0     H51747   7.802   8.179  11.377  0.4535  1.0609  0.9255
  375MOL0     H51748   8.135   8.143  11.410  1.0339 -0.1399  0.7401
  375MOL0     H51749   7.976   8.117  11.487 -2.1127  1.1347 -2.0495
  375MOL0     H51750   8.059   7.982  11.440  2.4547  0.7056  2.9032
  376MOL0     O51751  10.774  10.976  10.760  0.8773  0.0189  0.0649
  376MOL0     C51752  10.758  10.870  10.827  0.4709 -0.5650 -0.1030
  376MOL0     O51753  10.853  10.811  10.905 -0.0176  0.0406  0.4095
  376MOL0     C51754  10.976  10.869  10.896 -1.0838 -0.1676 -0.6866
  376MOL0     C51755  11.009  11.001  10.947 -0.3079  0.8773  0.1326
  376MOL0     C51756  11.140  11.050  10.944  0.7498  0.2139  0.9738
  376MOL0     C51757  11.241  10.978  10.887  0.5489  0.8611  0.1092
  376MOL0     O51758  11.375  11.007  10.895  0.2104 -0.1073  0.0360
  376MOL0     C51759  11.421  11.135  10.882  0.1825 -0.3790  0.0081
  376MOL0     C51760  11.465  11.195  11.023  0.2172  0.1108  0.1644
  376MOL0     C51761  11.569  11.113  11.093  0.1907  0.2435  0.2193
  376MOL0     C51762  11.690  11.086  10.997  1.2501 -0.3221  0.5561
  376MOL0     C51763  11.826  11.073  11.064  0.0741 -0.7516  0.0657
  376MOL0     C51764  11.920  11.027  10.957  0.1676  0.0407  0.7998
  376MOL0     C51765  12.054  11.036  11.008 -0.8128 -0.1805 -0.0342
  376MOL0     C51766  12.160  10.942  10.933 -0.2669 -0.2653 -0.0313
  376MOL0     N51767  12.291  10.963  10.980 -0.0427  0.7758  0.3791
  376MOL0     C51768  12.356  11.075  11.028 -0.3276 -0.2985  0.0222
  376MOL0     C51769  12.478  11.029  11.067 -0.4160  0.1981 -0.6826
  376MOL0     C51770  12.586  11.121  11.132  0.1849  0.1257  0.3453
  376MOL0     C51771  12.691  11.041  11.207  0.2308 -0.8225  0.1967
  376MOL0     C51772  12.795  11.145  11.258  0.2627  0.3702 -0.1907
  376MOL0     C51773  12.914  11.072  11.316  1.1893  0.2604 -0.3499
  376MOL0     O51774  13.011  11.159  11.373  0.3823 -0.0929  0.1676
  376MOL0     C51775  13.137  11.110  11.395 -0.2959 -0.3798  0.6989
  376MOL0     C51776  13.241  11.195  11.379  1.2441  0.0245 -0.3994
  376MOL0     C51777  13.376  11.156  11.387  1.1869  1.2881 -0.0837
  376MOL0     C51778  13.474  11.267  11.393  0.0123 -0.4155 -0.6393
  376MOL0     C51779  13.406  11.015  11.405 -0.8079  0.2193 -0.9758
  376MOL0     C51780  13.542  10.961  11.405  0.3393 -0.7252 -0.3969
  376MOL0     O51781  13.558  10.826  11.423  0.4188  0.5239 -0.2964
  376MOL0     C51782  13.685  10.768  11.421 -0.5098  0.8514 -0.9211
  376MOL0     C51783  13.745  10.745  11.300  0.0257  0.7827  0.0361
  376MOL0     C51784  13.867  10.682  11.286 -0.2904  0.6695 -0.0993
  376MOL0     C51785  13.936  10.648  11.398  0.4798  0.5756  1.0677
  376MOL0     O51786  14.057  10.585  11.384 -0.7843 -0.2089 -0.4849
  376MOL0     C51787  14.152  10.656  11.464 -0.2248  0.5134 -0.2045
  376MOL0     C51788  14.289  10.641  11.394  0.9328 -0.7136 -0.2844
  376MOL0     C51789  14.338  10.499  11.400 -0.7059  0.5855  0.7984
  376MOL0     C51790  14.472  10.493  11.327  0.6149 -1.1271  0.8457
  376MOL0     C51791  14.534  10.356  11.339  0.2010  0.2741  0.0596
  376MOL0     C51792  14.673  10.349  11.279  0.3190  0.0094 -0.1245
  376MOL0     C51793  14.741  10.211  11.305 -0.4095  0.2363 -0.5793
  376MOL0     C51794  14.888  10.214  11.291  0.0839  0.8880  0.3489
  376MOL0    Cl51795  14.963  10.312  11.421  0.1879 -0.2318 -0.3070
  376MOL0     C51796  13.887  10.675  11.522  1.0124 -0.3661 -0.4448
  376MOL0     C51797  13.763  10.743  11.534 -0.5173  0.3288 -0.0210
  376MOL0     O51798  13.639  11.040  11.400  0.5277  0.1507  0.5818
  376MOL0     C51799  13.298  10.925  11.413 -0.5739 -0.7143 -0.0359
  376MOL0     C51800  13.173  10.978  11.405  0.6888 -0.0396 -0.1080
  376MOL0     N51801  12.489  10.898  11.041 -0.0394 -0.6546  0.2440
  376MOL0     N51802  12.382  10.858  10.981  0.4310  0.1590  0.5205
  376MOL0     C51803  11.212  10.849  10.826 -0.0016  0.0556 -0.0699
  376MOL0     C51804  11.081  10.792  10.839 -0.6739 -0.2803 -0.2463
  376MOL0     C51805  10.619  10.811  10.838  1.0090 -0.6341  0.3081
  376MOL0     C51806  10.604  10.699  10.917  0.3699  0.8771 -0.3402
  376MOL0     C51807  10.489  10.639  10.950  0.2629 -0.1321 -0.2137
  376MOL0     C51808  10.366  10.675  10.888  0.2188 -0.0390  0.3247
  376MOL0     O51809  10.259  10.594  10.918 -0.2400  0.3002 -0.1215
  376MOL0     C51810  10.143  10.607  10.833  0.0586  0.0416  0.1820
  376MOL0     C51811  10.022  10.523  10.876 -0.6339  0.1029 -0.2139
  376MOL0     C51812   9.922  10.513  10.757  0.0345  0.1694 -1.6409
  376MOL0     C51813   9.796  10.440  10.803  0.1011  0.4059 -0.2395
  376MOL0     C51814   9.715  10.534  10.885 -0.0357  0.7147 -0.1555
  376MOL0     C51815   9.646  10.611  10.947  1.0695 -0.1569  0.0752
  376MOL0     C51816  10.379  10.790  10.804  0.0831 -0.9921  0.2120
  376MOL0     C51817  10.497  10.862  10.785 -0.1447  0.0945 -0.1076
  376MOL0     C51818  10.499  10.973  10.686 -0.0713  0.1449  0.2345
  376MOL0     H51819  10.930  11.047  11.005 -0.8232 -0.3972  0.4898
  376MOL0     H51820  11.150  11.148  10.990  0.1213  0.5080  0.4904
  376MOL0     H51821  11.338  11.195  10.844 -2.9910 -3.6078  1.2933
  376MOL0     H51822  11.504  11.152  10.814  2.3149  1.1928  2.7793
  376MOL0     H51823  11.499  11.297  11.004 -0.4203 -0.1764 -3.3885
  376MOL0     H51824  11.371  11.197  11.078  0.2892  0.8187  0.2700
  376MOL0     H51825  11.608  11.161  11.183  3.1118  1.1939 -1.4214
  376MOL0     H51826  11.526  11.018  11.125  1.2018  0.5785  2.8128
  376MOL0     H51827  11.669  10.988  10.954  2.4829 -0.6158  0.6005
  376MOL0     H51828  11.688  11.170  10.926 -0.2516 -1.4001 -0.7336
  376MOL0     H51829  11.815  10.996  11.141 -0.2106 -1.2711 -0.4850
  376MOL0     H51830  11.858  11.162  11.118  0.8829 -2.0199  1.7718
  376MOL0     H51831  11.902  10.924  10.926 -0.9840 -0.0105  1.5678
  376MOL0     H51832  11.912  11.095  10.872  3.2413 -1.2194 -0.6567
  376MOL0     H51833  12.055  11.018  11.116 -1.4326  0.0113  0.0074
  376MOL0     H51834  12.091  11.137  10.987 -1.2181 -0.4071 -2.0119
  376MOL0     H51835  12.134  10.836  10.940  1.2618 -0.8811 -2.4349
  376MOL0     H51836  12.156  10.963  10.826  0.6007 -2.0746 -0.4624
  376MOL0     H51837  12.310  11.173  11.037  1.0007  0.6369 -2.5033
  376MOL0     H51838  12.542  11.194  11.200 -1.2868 -1.9028  1.6854
  376MOL0     H51839  12.624  11.191  11.056 -1.7761  1.9997  1.0032
  376MOL0     H51840  12.646  10.990  11.292  0.6383 -0.2686  0.7536
  376MOL0     H51841  12.735  10.963  11.145 -1.3462 -1.2718 -0.4005
  376MOL0     H51842  12.834  11.213  11.182  1.7228 -0.0905  0.1177
  376MOL0     H51843  12.750  11.195  11.344  1.5175  0.6443  0.3293
  376MOL0     H51844  12.885  10.996  11.389 -2.5760  1.3008 -0.5592
  376MOL0     H51845  12.958  11.012  11.236 -0.4861  0.5601 -1.5350
  376MOL0     H51846  13.220  11.301  11.380 -0.2994 -0.2506 -1.0605
  376MOL0     H51847  13.544  11.266  11.477  1.7056  0.4353 -1.9654
  376MOL0     H51848  13.415  11.358  11.400  0.3870  0.0362 -2.5678
  376MOL0     H51849  13.531  11.265  11.299  1.0336  1.4591 -0.0987
  376MOL0     H51850  13.691  10.765  11.207 -0.6771  1.5038  0.5892
  376MOL0     H51851  13.905  10.661  11.186 -1.9813 -1.8093 -0.2961
  376MOL0     H51852  14.127  10.762  11.466 -0.4883  0.4536 -0.3330
  376MOL0     H51853  14.142  10.610  11.563 -3.0634  2.0044  0.2911
  376MOL0     H51854  14.287  10.681  11.292 -0.7019  0.8009  0.2926
  376MOL0     H51855  14.357  10.703  11.452  0.7880  0.4101 -1.2774
  376MOL0     H51856  14.268  10.426  11.357  0.1366 -1.8110  3.1510
  376MOL0     H51857  14.359  10.464  11.502 -0.5353 -2.1656 -0.0831
  376MOL0     H51858  14.536  10.571  11.369 -0.2385  1.0737 -1.6595
  376MOL0     H51859  14.448  10.502  11.221 -0.4720  0.7975  1.2000
  376MOL0     H51860  14.543  10.341  11.447 -0.6509  2.7079  0.5276
  376MOL0     H51861  14.475  10.278  11.289  2.8552 -1.5734 -0.4078
  376MOL0     H51862  14.739  10.427  11.318 -1.3914  0.3341  2.3094
  376MOL0     H51863  14.673  10.365  11.170  1.3640  0.5869 -0.0511
  376MOL0     H51864  14.705  10.139  11.231  3.3244 -2.3061 -0.2112
  376MOL0     H51865  14.717  10.169  11.403  0.7781  0.5245 -0.1470
  376MOL0     H51866  14.925  10.256  11.197 -0.1326  0.3207  0.0021
  376MOL0     H51867  14.923  10.110  11.288 -1.5390  0.3414 -0.4974
  376MOL0     H51868  13.953  10.662  11.608  4.1905  0.9802 -2.4777
  376MOL0     H51869  13.729  10.764  11.635  0.1936 -3.6341  1.2217
  376MOL0     H51870  13.326  10.821  11.425  2.5349 -0.0338 -0.6913
  376MOL0     H51871  13.104  10.895  11.420  0.2573  0.6647  2.3306
  376MOL0     H51872  11.278  10.774  10.785 -0.1872 -0.3968  0.4587
  376MOL0     H51873  11.074  10.692  10.796  1.4548 -0.8969  0.6794
  376MOL0     H51874  10.695  10.659  10.960 -0.4149 -0.8713 -0.2306
  376MOL0     H51875  10.486  10.556  11.021  1.2633  0.3698  0.4458
  376MOL0     H51876  10.116  10.714  10.833  1.0807  0.3271  1.3132
  376MOL0     H51877  10.176  10.580  10.733  1.2847 -0.6822  0.7558
  376MOL0     H51878   9.981  10.563  10.969  0.8182 -0.6310  0.7610
  376MOL0     H51879  10.060  10.423  10.899 -0.9639  0.3456  1.4528
  376MOL0     H51880   9.896  10.607  10.709 -0.4341  1.1853  0.4774
  376MOL0     H51881   9.963  10.435  10.691  1.5127 -0.0939 -0.4765
  376MOL0     H51882   9.817  10.351  10.863 -2.7389  0.6546  1.2812
  376MOL0     H51883   9.731  10.412  10.719  3.4989 -0.7172 -2.7373
  376MOL0     H51884   9.567  10.666  10.995 -0.3896 -0.9940 -1.2407
  376MOL0     H51885  10.298  10.831  10.743  0.9450  1.6702  0.7076
  376MOL0     H51886  10.398  11.000  10.653  0.2892  0.2926 -0.7609
  376MOL0     H51887  10.538  11.067  10.727  0.9329 -0.1184 -0.0927
  376MOL0     H51888  10.556  10.939  10.600  2.4876  0.8917  1.5479
  377MOL0     O51889   9.525   5.694  10.188 -0.6273  0.0351 -0.1684
  377MOL0     C51890   9.509   5.811  10.153  0.5106 -0.7376 -0.3127
  377MOL0     O51891   9.601   5.904  10.165 -0.0642  0.6726 -0.1183
  377MOL0     C51892   9.723   5.871  10.224  0.1696 -0.6849  0.0097
  377MOL0     C51893   9.748   5.909  10.358 -0.2597 -0.3762  0.8325
  377MOL0     C51894   9.864   5.874  10.426  0.6640 -0.1184 -0.5804
  377MOL0     C51895   9.952   5.786  10.364 -0.1201  0.1756 -0.6455
  377MOL0     O51896  10.050   5.749  10.454 -0.0702 -0.2591  0.5901
  377MOL0     C51897  10.170   5.682  10.408  0.4243 -0.5968  0.4329
  377MOL0     C51898  10.265   5.666  10.521  0.9453 -0.1808 -1.0679
  377MOL0     C51899  10.390   5.598  10.470 -0.3734 -0.0853 -0.0199
  377MOL0     C51900  10.480   5.564  10.586  0.3519  0.1067  0.0502
  377MOL0     C51901  10.631   5.550  10.557  0.7134  0.1173 -0.1811
  377MOL0     C51902  10.714   5.664  10.604  0.3484  0.2701 -0.7731
  377MOL0     C51903  10.846   5.666  10.533 -0.2782  0.1722  0.4987
  377MOL0     C51904  10.837   5.738  10.393  0.0630 -0.1425 -0.2640
  377MOL0     N51905  10.956   5.709  10.318 -0.4645 -0.2610 -0.2162
  377MOL0     C51906  11.079   5.766  10.336  0.6872 -0.1892 -1.0895
  377MOL0     C51907  11.173   5.707  10.253  0.0997 -0.1000 -1.3429
  377MOL0     C51908  11.321   5.728  10.240 -0.3437  0.0833  0.0145
  377MOL0     C51909  11.406   5.642  10.330  0.0853  0.4802 -0.9454
  377MOL0     C51910  11.561   5.680  10.335  0.1988  0.3776  0.1286
  377MOL0     C51911  11.626   5.683  10.200 -0.3538 -0.7870  0.3875
  377MOL0     O51912  11.632   5.823  10.163 -0.6117  0.1235  0.0272
  377MOL0     C51913  11.737   5.899  10.194 -0.0560 -0.2161 -0.3829
  377MOL0     C51914  11.866   5.873  10.160 -0.5602  0.2800  0.0007
  377MOL0     C51915  11.970   5.969  10.171 -0.8299  0.2372  0.0112
  377MOL0     C51916  12.106   5.942  10.126  0.6005 -0.3020  0.3522
  377MOL0     C51917  11.949   6.089  10.240  0.1040  0.8067 -0.4126
  377MOL0     C51918  12.058   6.184  10.268  0.4822 -0.5492 -0.1410
  377MOL0     O51919  12.164   6.152  10.350  0.3430  0.3909  0.9488
  377MOL0     C51920  12.265   6.246  10.345 -0.3221 -0.0935 -0.2554
  377MOL0     C51921  12.274   6.322  10.457  0.0464  0.4051  0.6661
  377MOL0     C51922  12.375   6.407  10.482 -0.3385 -0.0309 -0.8461
  377MOL0     C51923  12.477   6.416  10.388  0.3618  0.1776  0.3365
  377MOL0     O51924  12.583   6.496  10.435 -0.1971 -0.3608 -0.2343
  377MOL0     C51925  12.673   6.541  10.327 -0.4893  0.4108 -0.6696
  377MOL0     C51926  12.756   6.666  10.383 -0.5356 -0.2486  0.3937
  377MOL0     C51927  12.834   6.626  10.508  0.1502 -0.0584 -0.6501
  377MOL0     C51928  12.890   6.740  10.592 -0.1518 -0.0349  0.1449
  377MOL0     C51929  12.973   6.713  10.714  0.1505  0.5687  0.6086
  377MOL0     C51930  13.092   6.621  10.682 -0.0826 -0.1298  0.6295
  377MOL0     C51931  13.196   6.625  10.787  0.5845 -0.0110  0.1321
  377MOL0     C51932  13.327   6.553  10.738 -0.4078 -0.6001 -0.4179
  377MOL0    Cl51933  13.282   6.380  10.705  0.1551  0.5725 -0.2832
  377MOL0     C51934  12.466   6.348  10.266  0.5771 -0.7307 -0.0318
  377MOL0     C51935  12.365   6.252  10.254  0.2109 -1.0463  0.4316
  377MOL0     O51936  12.027   6.289  10.211 -0.2641  0.9666  0.1379
  377MOL0     C51937  11.815   6.104  10.287  0.3276 -0.9578  0.9497
  377MOL0     C51938  11.714   6.016  10.262 -0.1189  0.5591 -0.2011
  377MOL0     N51939  11.099   5.633  10.170  0.8829 -0.3554 -0.3329
  377MOL0     N51940  10.970   5.635  10.206  0.5116 -0.1744  0.3502
  377MOL0     C51941   9.926   5.750  10.226  0.6638  0.1590 -0.1172
  377MOL0     C51942   9.815   5.794  10.159 -0.0048 -0.0337  0.2695
  377MOL0     C51943   9.373   5.844  10.096 -0.0430  0.0495  0.1425
  377MOL0     C51944   9.281   5.740  10.069  0.1091 -0.3118 -0.1780
  377MOL0     C51945   9.160   5.770  10.000 -0.6058  0.8034  0.5300
  377MOL0     C51946   9.122   5.893   9.960  0.4870  0.1684 -0.0479
  377MOL0     O51947   8.994   5.903   9.909 -0.1500  0.4073  0.3290
  377MOL0     C51948   8.932   6.029   9.906 -0.2959  0.0070  0.1711
  377MOL0     C51949   8.783   6.022   9.880  0.5092  0.0169  0.5020
  377MOL0     C51950   8.707   5.930   9.986 -0.1028 -0.5970 -0.6552
  377MOL0     C51951   8.554   5.960   9.981  0.1152  0.0677 -0.5261
  377MOL0     C51952   8.479   5.831   9.985 -0.5959 -0.7026 -0.2036
  377MOL0     C51953   8.415   5.732   9.978 -0.3518  0.2650 -1.0744
  377MOL0     C51954   9.206   5.996  10.000 -0.1719 -0.3185 -0.4111
  377MOL0     C51955   9.337   5.976  10.057 -0.6769 -0.7993  0.6938
  377MOL0     C51956   9.427   6.100  10.074 -0.0516 -0.3042 -1.0155
  377MOL0     H51957   9.677   5.978  10.403 -0.0088  1.5407 -1.4670
  377MOL0     H51958   9.875   5.907  10.529  0.4629 -1.4589 -0.1212
  377MOL0     H51959  10.213   5.736  10.323  0.7935  0.8971  1.5384
  377MOL0     H51960  10.128   5.584  10.383 -1.2105  0.0045  0.7456
  377MOL0     H51961  10.302   5.765  10.548  1.2700 -0.8141  0.9321
  377MOL0     H51962  10.221   5.614  10.607  1.7546 -1.6212 -1.4956
  377MOL0     H51963  10.354   5.509  10.418 -1.1211 -0.1387  0.5685
  377MOL0     H51964  10.444   5.665  10.403 -2.9002 -0.0109 -2.1716
  377MOL0     H51965  10.477   5.640  10.665  0.3016  1.8205 -1.5233
  377MOL0     H51966  10.434   5.473  10.625  1.9067 -0.6856  0.1293
  377MOL0     H51967  10.643   5.544  10.448  0.9482  0.0756 -0.1528
  377MOL0     H51968  10.666   5.463  10.613  2.2832 -0.2924 -1.7198
  377MOL0     H51969  10.658   5.758  10.598 -0.2002  0.1273  1.2202
  377MOL0     H51970  10.724   5.641  10.710 -1.8608  0.3244 -0.5062
  377MOL0     H51971  10.885   5.564  10.526 -0.2710  0.2205 -0.3318
  377MOL0     H51972  10.916   5.724  10.593 -0.5523  3.0214 -1.6801
  377MOL0     H51973  10.748   5.708  10.336  1.0494  2.0145 -3.1796
  377MOL0     H51974  10.830   5.846  10.407  0.5650 -0.0858 -0.4248
  377MOL0     H51975  11.100   5.844  10.408  2.0716 -1.7515  0.2749
  377MOL0     H51976  11.340   5.834  10.259 -1.2138  0.2200  0.1290
  377MOL0     H51977  11.355   5.712  10.137  0.5598 -1.0226  0.4608
  377MOL0     H51978  11.364   5.658  10.430 -3.0805 -2.1555 -1.6924
  377MOL0     H51979  11.390   5.538  10.298  0.5972  0.1500 -0.1744
  377MOL0     H51980  11.575   5.779  10.381  0.7774  1.0122 -1.3724
  377MOL0     H51981  11.619   5.604  10.388 -1.8142 -2.4440 -1.4393
  377MOL0     H51982  11.730   5.648  10.196 -0.4152 -1.0822  1.1367
  377MOL0     H51983  11.569   5.634  10.121  2.5838 -1.9649 -1.1880
  377MOL0     H51984  11.885   5.773  10.122  4.1338  0.1007  2.0999
  377MOL0     H51985  12.102   5.845  10.075 -0.3567 -0.4593  0.7095
  377MOL0     H51986  12.189   5.949  10.197  2.5910  0.3977 -1.9102
  377MOL0     H51987  12.136   6.018  10.053 -1.6855  0.0083 -0.3499
  377MOL0     H51988  12.198   6.312  10.533  1.1674 -2.9489  1.4979
  377MOL0     H51989  12.367   6.468  10.570 -4.6121 -1.4015 -0.0477
  377MOL0     H51990  12.738   6.456  10.305 -0.1692  0.1770  1.0556
  377MOL0     H51991  12.615   6.569  10.238  0.3037 -0.7097 -1.5687
  377MOL0     H51992  12.826   6.706  10.309 -3.3453  2.5441 -0.9247
  377MOL0     H51993  12.683   6.745  10.397  0.7783  1.6278 -2.4971
  377MOL0     H51994  12.912   6.553  10.484  2.2692  0.9413  2.5120
  377MOL0     H51995  12.762   6.578  10.575 -0.1353  0.9348 -0.2175
  377MOL0     H51996  12.806   6.806  10.616 -1.4596 -1.2285 -0.9614
  377MOL0     H51997  12.961   6.792  10.526  0.4812 -0.7183  0.2795
  377MOL0     H51998  13.008   6.810  10.750 -0.2148  1.3053 -0.9410
  377MOL0     H51999  12.909   6.668  10.791 -0.4434  2.1739  1.0836
  377MOL0     H52000  13.138   6.656  10.590  1.6812 -2.4167  0.5794
  377MOL0     H52001  13.064   6.518  10.660 -0.8318  0.4945 -1.6125
  377MOL0     H52002  13.155   6.567  10.870 -0.3720 -0.6294 -0.7530
  377MOL0     H52003  13.227   6.721  10.830  1.4650 -0.9614  1.7348
  377MOL0     H52004  13.408   6.565  10.811 -1.4368  2.0393  0.3937
  377MOL0     H52005  13.361   6.609  10.651  1.2649  1.4339  1.4280
  377MOL0     H52006  12.547   6.343  10.194 -0.8455 -2.5244 -1.6412
  377MOL0     H52007  12.361   6.187  10.168 -0.2003  0.7717 -0.9697
  377MOL0     H52008  11.783   6.201  10.325 -1.2994 -1.9461  2.2312
  377MOL0     H52009  11.611   6.037  10.291 -0.5139 -1.4636  0.0041
  377MOL0     H52010   9.996   5.679  10.181  2.6826  0.9660  1.6082
  377MOL0     H52011   9.793   5.758  10.058  1.4613  0.4609 -0.2567
  377MOL0     H52012   9.303   5.640  10.104 -1.9744 -0.0934  1.9886
  377MOL0     H52013   9.080   5.697   9.991  0.1133 -0.0338  0.8115
  377MOL0     H52014   8.946   6.068  10.007 -1.2005  2.1364 -0.4661
  377MOL0     H52015   8.984   6.096   9.836  0.7917  0.1695  1.1075
  377MOL0     H52016   8.761   5.982   9.781  0.1866 -2.0529  1.3565
  377MOL0     H52017   8.741   6.123   9.876 -0.0439  0.0022  3.4540
  377MOL0     H52018   8.733   5.825   9.968  0.0747 -0.9766  1.5520
  377MOL0     H52019   8.758   5.954  10.079  1.5461  1.9438 -2.1099
  377MOL0     H52020   8.523   6.008   9.888 -0.2513 -0.4215 -0.6663
  377MOL0     H52021   8.514   6.021  10.062  0.5474 -0.9935  0.5321
  377MOL0     H52022   8.371   5.638   9.953  2.1248 -1.4516  0.5688
  377MOL0     H52023   9.179   6.097   9.970  2.9729  1.5333  2.2714
  377MOL0     H52024   9.439   6.119  10.181  0.1662 -2.0550 -0.6869
  377MOL0     H52025   9.522   6.092  10.019  0.2858 -3.3863 -0.1947
  377MOL0     H52026   9.377   6.190  10.037  0.0414  0.9903  1.7569
  378MOL0     O52027   4.659   7.111   4.117  0.3140 -0.1490  0.6335
  378MOL0     C52028   4.667   7.185   4.216  0.5356  0.7704  0.4704
  378MOL0     O52029   4.780   7.247   4.258  0.1868  0.6513  1.2008
  378MOL0     C52030   4.891   7.231   4.182  0.5638  1.4972  0.5999
  378MOL0     C52031   5.013   7.175   4.233  0.0976 -0.1693  0.2663
  378MOL0     C52032   5.126   7.157   4.153 -0.1676  0.0626 -0.0688
  378MOL0     C52033   5.129   7.207   4.018 -0.2979 -0.1887  0.3780
  378MOL0     O52034   5.241   7.205   3.934 -1.2947  0.5497  0.2067
  378MOL0     C52035   5.354   7.117   3.955 -0.2929  0.4759 -0.0245
  378MOL0     C52036   5.437   7.118   3.835  0.7752 -0.1039  0.6658
  378MOL0     C52037   5.465   7.260   3.775 -0.7122  0.1776 -0.5466
  378MOL0     C52038   5.564   7.343   3.861 -0.3950 -0.4095 -0.6175
  378MOL0     C52039   5.577   7.487   3.822 -0.0774 -0.2391 -0.4045
  378MOL0     C52040   5.612   7.511   3.679 -0.5533  1.0469 -0.2348
  378MOL0     C52041   5.735   7.437   3.635  0.1172 -0.4130  0.2157
  378MOL0     C52042   5.731   7.438   3.481 -0.0841 -1.1310  0.0962
  378MOL0     N52043   5.834   7.358   3.412 -0.2913 -0.2868 -0.2295
  378MOL0     C52044   5.954   7.398   3.359  0.7232  0.0100  0.1585
  378MOL0     C52045   5.998   7.295   3.286  0.1652  1.1960 -0.1152
  378MOL0     C52046   6.117   7.287   3.210 -0.2283 -0.7212 -0.1429
  378MOL0     C52047   6.246   7.266   3.300 -0.0439 -0.6870  1.0076
  378MOL0     C52048   6.361   7.242   3.196  0.4455 -0.1364  0.0877
  378MOL0     C52049   6.496   7.219   3.268  0.6612  0.1449  0.2091
  378MOL0     O52050   6.578   7.334   3.275  0.1267  0.2357  0.2801
  378MOL0     C52051   6.717   7.320   3.282 -0.5632 -0.2599 -0.3146
  378MOL0     C52052   6.794   7.205   3.295  0.7415  0.5170  0.3963
  378MOL0     C52053   6.930   7.204   3.307 -0.1168  0.3964  0.5722
  378MOL0     C52054   7.013   7.073   3.292  0.2512  0.3839  0.8184
  378MOL0     C52055   7.003   7.324   3.320 -0.3848 -0.6700  0.4241
  378MOL0     C52056   7.144   7.339   3.357  0.1116 -0.1359 -0.0587
  378MOL0     O52057   7.218   7.226   3.394 -0.1191 -0.0773 -0.1529
  378MOL0     C52058   7.344   7.246   3.451  1.1256  1.1819  1.0902
  378MOL0     C52059   7.448   7.177   3.396 -0.8194  0.2915 -0.3006
  378MOL0     C52060   7.581   7.195   3.442 -0.8633  0.3940 -0.4703
  378MOL0     C52061   7.612   7.273   3.551 -0.8639  1.2201  0.1258
  378MOL0     O52062   7.743   7.300   3.573  0.1497  0.1194 -0.5658
  378MOL0     C52063   7.780   7.350   3.703 -0.4171 -0.7371 -0.1016
  378MOL0     C52064   7.925   7.301   3.722 -0.0897  0.3671  0.1358
  378MOL0     C52065   7.974   7.359   3.859 -0.9076  0.5199  0.0632
  378MOL0     C52066   8.120   7.312   3.890  0.8309  0.9422 -0.0075
  378MOL0     C52067   8.130   7.160   3.886  0.5470 -0.1555  0.8799
  378MOL0     C52068   8.243   7.117   3.987  0.3186 -0.1825  0.7970
  378MOL0     C52069   8.254   6.966   3.982 -0.4124  0.3848 -0.9524
  378MOL0     C52070   8.350   6.897   4.082  0.2425 -0.0624  0.3691
  378MOL0    Cl52071   8.524   6.928   4.043  0.1883 -0.3683  0.1461
  378MOL0     C52072   7.505   7.336   3.614  0.1659 -0.0350  0.4367
  378MOL0     C52073   7.381   7.325   3.553  0.6768 -0.3077 -0.4400
  378MOL0     O52074   7.192   7.455   3.345  0.5886 -0.1383  0.2036
  378MOL0     C52075   6.923   7.438   3.309  0.1543 -0.2713 -0.2403
  378MOL0     C52076   6.781   7.440   3.292  0.3156 -0.1795 -0.2086
  378MOL0     N52077   5.899   7.195   3.287 -0.6356 -0.0539  0.8056
  378MOL0     N52078   5.801   7.236   3.358  0.5269 -0.1446  0.4442
  378MOL0     C52079   5.021   7.284   3.978  0.2016 -1.0426  0.2460
  378MOL0     C52080   4.903   7.290   4.056 -0.2529  0.5565 -0.0086
  378MOL0     C52081   4.562   7.190   4.314  0.2236 -0.4358 -0.2051
  378MOL0     C52082   4.532   7.318   4.371  0.8959  0.1500  0.0788
  378MOL0     C52083   4.440   7.337   4.483 -1.3254  0.2353  0.0673
  378MOL0     C52084   4.381   7.222   4.535  1.1232 -0.1969 -0.8925
  378MOL0     O52085   4.299   7.251   4.639 -0.2280 -0.5341  0.2462
  378MOL0     C52086   4.221   7.151   4.710  0.4478  0.3038  0.6037
  378MOL0     C52087   4.148   7.224   4.821  0.2663  0.0855  0.1996
  378MOL0     C52088   4.052   7.339   4.772  1.6361 -0.4267 -0.5550
  378MOL0     C52089   4.009   7.428   4.886  0.6223 -0.5037 -0.0542
  378MOL0     C52090   3.890   7.510   4.854 -0.1626 -0.1293  1.0794
  378MOL0     C52091   3.793   7.574   4.829 -0.5272 -0.0694  0.3756
  378MOL0     C52092   4.398   7.095   4.475  0.1702 -0.5357  0.4000
  378MOL0     C52093   4.481   7.079   4.358 -0.9695 -0.2603 -0.5762
  378MOL0     C52094   4.481   6.941   4.298  0.3355  0.1921 -0.4155
  378MOL0     H52095   5.003   7.143   4.336  0.1017  0.7517  0.5664
  378MOL0     H52096   5.211   7.106   4.197  0.1293  0.2696 -0.3920
  378MOL0     H52097   5.316   7.014   3.963 -2.1297  1.1900  1.0844
  378MOL0     H52098   5.409   7.141   4.047 -2.9468  0.1214  1.7717
  378MOL0     H52099   5.525   7.068   3.876 -0.9521 -1.7122  2.6210
  378MOL0     H52100   5.380   7.068   3.756  0.8611 -0.9184  1.1070
  378MOL0     H52101   5.495   7.257   3.670 -2.3650  2.7273 -1.2051
  378MOL0     H52102   5.372   7.317   3.764 -0.5613  0.4289 -0.5422
  378MOL0     H52103   5.519   7.351   3.961 -2.9572  3.2727 -1.8435
  378MOL0     H52104   5.658   7.288   3.870 -0.5326 -1.0326 -2.6169
  378MOL0     H52105   5.647   7.529   3.896  2.2664 -2.2238 -1.3649
  378MOL0     H52106   5.485   7.543   3.839 -0.4331 -0.2433 -2.1623
  378MOL0     H52107   5.524   7.481   3.622 -1.6492 -0.8211  2.3037
  378MOL0     H52108   5.620   7.619   3.659 -1.3582  0.7769 -2.1879
  378MOL0     H52109   5.731   7.334   3.671 -2.5162 -0.1769  0.7722
  378MOL0     H52110   5.819   7.488   3.683 -1.5413  0.8193  1.9690
  378MOL0     H52111   5.638   7.386   3.457 -1.3607  0.7628  0.6950
  378MOL0     H52112   5.739   7.540   3.442 -0.2644 -0.7260  1.0797
  378MOL0     H52113   6.012   7.490   3.363 -1.6288  1.8282 -2.9650
  378MOL0     H52114   6.125   7.377   3.148 -0.3331 -1.7126 -1.6437
  378MOL0     H52115   6.111   7.202   3.141  0.1510 -1.1383  0.3252
  378MOL0     H52116   6.264   7.351   3.367 -0.4609  0.2708 -0.0599
  378MOL0     H52117   6.243   7.170   3.352  1.0039 -0.5962  1.2482
  378MOL0     H52118   6.340   7.152   3.137  2.1388  0.1737 -1.0714
  378MOL0     H52119   6.366   7.332   3.134 -1.6403  1.0413  1.4937
  378MOL0     H52120   6.478   7.184   3.370  1.1576  0.2150  0.3232
  378MOL0     H52121   6.531   7.138   3.202 -2.8061 -0.6382 -0.8481
  378MOL0     H52122   6.734   7.114   3.290 -0.1896  0.9300  2.6841
  378MOL0     H52123   7.102   7.094   3.232 -0.9688 -1.9438 -2.1258
  378MOL0     H52124   6.950   7.003   3.235 -2.1703  3.5158 -0.6747
  378MOL0     H52125   7.030   7.031   3.391 -1.2095 -0.6411  0.6647
  378MOL0     H52126   7.438   7.115   3.308  0.1346 -1.8874  1.0530
  378MOL0     H52127   7.658   7.155   3.378 -0.5592  1.1367 -0.5781
  378MOL0     H52128   7.777   7.459   3.694  0.7003 -0.7574 -1.0106
  378MOL0     H52129   7.731   7.320   3.796  2.7962 -0.2659  1.8995
  378MOL0     H52130   7.933   7.192   3.726  0.1509  0.3806  0.0350
  378MOL0     H52131   7.996   7.330   3.645  1.0873  1.8946  1.6975
  378MOL0     H52132   7.908   7.325   3.940 -2.1144  0.1128 -1.0565
  378MOL0     H52133   7.974   7.468   3.858  1.8027  0.5934 -0.6363
  378MOL0     H52134   8.144   7.343   3.992 -3.7704  0.3759  1.5206
  378MOL0     H52135   8.192   7.357   3.821 -0.2898  1.9444 -0.5824
  378MOL0     H52136   8.042   7.104   3.916  0.6597 -0.9712 -0.2452
  378MOL0     H52137   8.149   7.142   3.780 -0.2257  3.2629  0.0208
  378MOL0     H52138   8.210   7.146   4.087 -2.5155  0.7525 -0.3056
  378MOL0     H52139   8.338   7.165   3.962 -0.1274  0.2104 -0.1879
  378MOL0     H52140   8.274   6.932   3.880 -1.1616  0.9778 -1.3148
  378MOL0     H52141   8.160   6.923   4.018 -0.0714 -0.2346 -0.7923
  378MOL0     H52142   8.334   6.789   4.084 -1.5684  0.1134 -1.6309
  378MOL0     H52143   8.341   6.941   4.182  2.4876  0.0558  0.5813
  378MOL0     H52144   7.532   7.400   3.697  1.5496  0.3147 -0.2597
  378MOL0     H52145   7.301   7.376   3.606  2.1354  0.0624  1.4890
  378MOL0     H52146   6.979   7.531   3.313  0.0286 -0.1994 -0.1596
  378MOL0     H52147   6.722   7.531   3.288  0.1877  0.2000  4.6795
  378MOL0     H52148   5.019   7.348   3.891 -1.3493 -0.3894  0.7370
  378MOL0     H52149   4.813   7.341   4.023 -1.2256 -1.9391 -1.4905
  378MOL0     H52150   4.586   7.404   4.334  0.2292  0.0439 -1.1854
  378MOL0     H52151   4.420   7.440   4.513  0.1101  0.8183 -0.8723
  378MOL0     H52152   4.148   7.119   4.635  1.3466 -1.2882  0.3821
  378MOL0     H52153   4.275   7.065   4.751 -0.4580 -0.1674  0.8469
  378MOL0     H52154   4.222   7.258   4.894 -0.3290 -0.5634  1.1317
  378MOL0     H52155   4.081   7.159   4.879 -0.4011  1.7489  1.3699
  378MOL0     H52156   4.101   7.396   4.692 -0.6363  0.2484 -1.5259
  378MOL0     H52157   3.970   7.280   4.731  0.7116 -0.2085  0.9229
  378MOL0     H52158   4.100   7.485   4.908  0.9103 -1.1714  0.5088
  378MOL0     H52159   3.988   7.367   4.974  1.4748 -0.2770  0.3144
  378MOL0     H52160   3.708   7.628   4.792  0.3337  0.5819 -0.7347
  378MOL0     H52161   4.354   7.002   4.509  2.1225 -1.9488 -0.7203
  378MOL0     H52162   4.406   6.930   4.220 -1.7371 -0.6025  1.6004
  378MOL0     H52163   4.578   6.914   4.254 -0.2344  1.5681 -2.7145
  378MOL0     H52164   4.456   6.857   4.362  1.4974  0.3406  0.2690
  379MOL0     O52165  11.235  10.418   1.729  1.0963  0.0163 -0.2560
  379MOL0     C52166  11.325  10.457   1.797  0.1019  0.5400  0.2324
  379MOL0     O52167  11.426  10.370   1.836 -0.2638 -0.3504 -0.5056
  379MOL0     C52168  11.417  10.238   1.809 -0.8591  0.8018  0.4097
  379MOL0     C52169  11.339  10.141   1.884 -0.6273  0.3868 -0.0236
  379MOL0     C52170  11.330  10.011   1.840 -0.4192 -0.2893  0.3274
  379MOL0     C52171  11.392   9.965   1.726 -0.4977 -0.2338  0.1527
  379MOL0     O52172  11.363   9.835   1.693  0.0336  0.5852 -0.3965
  379MOL0     C52173  11.342   9.802   1.555  0.4917 -0.7251  0.3663
  379MOL0     C52174  11.340   9.654   1.516  0.2004  0.5453 -0.4255
  379MOL0     C52175  11.225   9.596   1.590 -0.2206  1.3288 -0.0082
  379MOL0     C52176  11.189   9.467   1.520 -0.4169  0.2516  0.2453
  379MOL0     C52177  11.089   9.384   1.594  0.7893  0.0385 -0.1045
  379MOL0     C52178  10.957   9.447   1.633 -0.9662 -0.5860  0.3964
  379MOL0     C52179  10.876   9.513   1.517  0.1454  0.1130 -0.3818
  379MOL0     C52180  10.748   9.578   1.574  1.0322  0.1883  1.2036
  379MOL0     N52181  10.632   9.481   1.594  0.2269  0.0901  1.1546
  379MOL0     C52182  10.628   9.368   1.668 -0.4323  0.6836 -0.0829
  379MOL0     C52183  10.525   9.289   1.616  0.6991  0.4361  0.2023
  379MOL0     C52184  10.492   9.149   1.663  0.0082 -0.0923 -0.9886
  379MOL0     C52185  10.617   9.058   1.686 -0.0574 -0.1554  0.6334
  379MOL0     C52186  10.586   8.924   1.634  0.0073 -0.0093 -0.1201
  379MOL0     C52187  10.706   8.839   1.615 -0.5737  0.5701  0.0800
  379MOL0     O52188  10.785   8.851   1.728 -0.5020  0.0546 -0.1497
  379MOL0     C52189  10.895   8.769   1.750 -0.3070  0.2057  0.1868
  379MOL0     C52190  10.948   8.790   1.878  0.5967 -0.2094 -1.0819
  379MOL0     C52191  11.075   8.751   1.913 -0.5743  0.1036  0.4269
  379MOL0     C52192  11.131   8.778   2.053  0.3071 -0.0020 -0.2321
  379MOL0     C52193  11.156   8.687   1.811  0.0923  0.6688  0.2337
  379MOL0     C52194  11.285   8.624   1.839 -0.0876 -0.0418  0.1152
  379MOL0     O52195  11.359   8.611   1.729  0.4145  1.0673 -0.4329
  379MOL0     C52196  11.467   8.525   1.727 -1.0219 -0.9332 -0.4219
  379MOL0     C52197  11.541   8.527   1.613 -0.3880  0.2880  0.0421
  379MOL0     C52198  11.655   8.438   1.605 -0.3673  0.7489 -0.2115
  379MOL0     C52199  11.696   8.350   1.697  0.1427  0.3587 -0.2882
  379MOL0     O52200  11.810   8.279   1.658  0.5777 -0.4297  0.2567
  379MOL0     C52201  11.902   8.236   1.762  0.3625 -0.5284 -0.0989
  379MOL0     C52202  12.011   8.183   1.676 -0.2805 -0.1718  0.3964
  379MOL0     C52203  12.145   8.152   1.754 -0.0281  0.2760 -0.0383
  379MOL0     C52204  12.234   8.070   1.665  0.7437 -0.0812  0.1821
  379MOL0     C52205  12.380   8.065   1.707  0.6186  0.2016  0.9074
  379MOL0     C52206  12.473   7.986   1.608  1.3520 -0.4294 -0.8318
  379MOL0     C52207  12.478   8.069   1.484 -0.4220  0.1049  0.8850
  379MOL0     C52208  12.562   7.995   1.376  0.3056 -0.8253 -0.4647
  379MOL0    Cl52209  12.731   8.009   1.418  0.7124  0.2805  0.1388
  379MOL0     C52210  11.606   8.337   1.812 -0.4267  0.2678  0.1425
  379MOL0     C52211  11.510   8.435   1.834 -0.3149  0.3036 -0.1001
  379MOL0     O52212  11.318   8.608   1.955 -0.1079 -0.0956  0.0449
  379MOL0     C52213  11.097   8.664   1.681 -0.1945 -0.3420  0.0341
  379MOL0     C52214  10.972   8.714   1.645  0.0073  0.1207 -0.0728
  379MOL0     N52215  10.463   9.362   1.520 -0.4283  0.2311 -0.4871
  379MOL0     N52216  10.524   9.481   1.510  0.0558 -0.6131 -0.6840
  379MOL0     C52217  11.460  10.057   1.642  0.4151  0.2998 -0.2131
  379MOL0     C52218  11.480  10.193   1.690 -0.2719  1.2062 -0.8302
  379MOL0     C52219  11.340  10.593   1.844 -0.4675  0.2520  0.3419
  379MOL0     C52220  11.465  10.637   1.898  0.0042 -1.1203  0.4957
  379MOL0     C52221  11.480  10.769   1.947  0.0113  0.3204  0.0216
  379MOL0     C52222  11.371  10.853   1.943  0.5171  0.1241 -0.2348
  379MOL0     O52223  11.402  10.975   2.004  0.8563 -0.1623  0.1917
  379MOL0     C52224  11.297  11.075   2.019  0.4441 -0.0321  1.1746
  379MOL0     C52225  11.355  11.192   2.095  1.1626 -0.2347  1.1599
  379MOL0     C52226  11.404  11.153   2.236 -0.5375  0.2106  0.7790
  379MOL0     C52227  11.462  11.270   2.307 -0.5813 -0.2587 -0.0442
  379MOL0     C52228  11.354  11.365   2.346 -0.1399 -1.5164 -0.1854
  379MOL0     C52229  11.265  11.445   2.361 -0.6915 -0.3019  0.7855
  379MOL0     C52230  11.245  10.810   1.894  0.0286  0.6135 -0.5565
  379MOL0     C52231  11.228  10.684   1.840  0.2881  0.4161  0.3844
  379MOL0     C52232  11.098  10.656   1.773  0.0634 -0.2835 -0.6415
  379MOL0     H52233  11.289  10.179   1.972  0.1515  0.7882  0.2555
  379MOL0     H52234  11.283   9.933   1.898  0.4666  0.3489  1.9627
  379MOL0     H52235  11.422   9.838   1.489  1.0151  1.2189  1.9456
  379MOL0     H52236  11.247   9.848   1.527  0.1759 -1.2082  0.6470
  379MOL0     H52237  11.328   9.651   1.407 -0.6482 -1.5369 -0.3187
  379MOL0     H52238  11.436   9.603   1.532  0.0776  0.1018 -1.0918
  379MOL0     H52239  11.244   9.583   1.697 -0.4236 -1.4155 -0.2171
  379MOL0     H52240  11.138   9.662   1.582  1.5423  3.9095  1.0078
  379MOL0     H52241  11.146   9.497   1.424 -0.7824 -0.4711  0.1751
  379MOL0     H52242  11.280   9.408   1.505 -0.9939 -0.5306 -0.2417
  379MOL0     H52243  11.129   9.336   1.684  0.1588  2.0112  1.2758
  379MOL0     H52244  11.057   9.295   1.538 -1.1632 -0.2965  1.4447
  379MOL0     H52245  10.902   9.381   1.700 -0.6081 -0.7945  0.4871
  379MOL0     H52246  10.978   9.525   1.707  1.5846 -2.4343  1.7713
  379MOL0     H52247  10.853   9.442   1.438  2.5312  0.8034 -1.7982
  379MOL0     H52248  10.921   9.600   1.468 -1.8893  1.3537 -0.1462
  379MOL0     H52249  10.762   9.629   1.670  0.2368 -0.3529  1.6235
  379MOL0     H52250  10.713   9.651   1.500 -0.1505 -0.6273  0.9363
  379MOL0     H52251  10.697   9.341   1.748  0.2429  0.1207 -0.8371
  379MOL0     H52252  10.429   9.102   1.587  0.7195 -3.3502  0.2828
  379MOL0     H52253  10.423   9.145   1.748  0.1218  2.0329 -0.7508
  379MOL0     H52254  10.707   9.104   1.644  0.2309  1.1974  2.5804
  379MOL0     H52255  10.637   9.053   1.794 -1.7454  0.7104  1.0089
  379MOL0     H52256  10.517   8.876   1.704  1.1812 -0.2267  0.9179
  379MOL0     H52257  10.548   8.944   1.533  1.9896  0.5678 -0.8053
  379MOL0     H52258  10.678   8.735   1.595  0.8481  0.2575 -0.3754
  379MOL0     H52259  10.774   8.881   1.540  2.2390  0.2253  2.2697
  379MOL0     H52260  10.900   8.846   1.957  0.0831 -0.9596 -0.8500
  379MOL0     H52261  11.232   8.819   2.064 -0.0509  0.2470  3.2288
  379MOL0     H52262  11.139   8.691   2.119  1.3293  2.0721  2.6222
  379MOL0     H52263  11.064   8.847   2.105  2.4709  3.3780 -1.5347
  379MOL0     H52264  11.526   8.597   1.531 -2.4536 -1.6819 -1.3613
  379MOL0     H52265  11.722   8.457   1.522  0.9572  0.5476  0.7867
  379MOL0     H52266  11.940   8.315   1.827 -0.4488 -0.8148  0.7640
  379MOL0     H52267  11.849   8.157   1.817 -2.2049  0.4014 -1.0814
  379MOL0     H52268  11.974   8.088   1.636  0.5600 -0.9355  1.3949
  379MOL0     H52269  12.025   8.250   1.590 -1.7129  0.6012  0.7220
  379MOL0     H52270  12.114   8.111   1.851 -1.9448  1.2993 -0.1679
  379MOL0     H52271  12.188   8.249   1.783 -0.8546  0.4363  0.7207
  379MOL0     H52272  12.225   8.120   1.568 -2.6185 -0.4470  0.2064
  379MOL0     H52273  12.200   7.969   1.640  0.7427  0.1994 -1.0431
  379MOL0     H52274  12.415   8.168   1.714 -0.7408  0.6322  1.5782
  379MOL0     H52275  12.393   8.018   1.805 -2.2262 -1.1351  0.7410
  379MOL0     H52276  12.426   7.889   1.595 -2.1807  1.1177 -0.6058
  379MOL0     H52277  12.575   7.977   1.649  0.8148  2.4543  1.5114
  379MOL0     H52278  12.530   8.164   1.502 -0.9118  0.6993 -0.6754
  379MOL0     H52279  12.383   8.105   1.443 -0.6346 -0.4055  0.9253
  379MOL0     H52280  12.543   8.033   1.275 -0.8649 -2.3064 -0.8430
  379MOL0     H52281  12.533   7.890   1.377 -2.9411 -0.0349 -0.4341
  379MOL0     H52282  11.644   8.263   1.881  1.4846  1.6682  0.6898
  379MOL0     H52283  11.462   8.432   1.932  1.5937  0.4760  0.8827
  379MOL0     H52284  11.156   8.609   1.608 -0.5723 -0.9416  0.1716
  379MOL0     H52285  10.939   8.689   1.545  1.0435  1.2916 -0.7361
  379MOL0     H52286  11.503  10.036   1.544  1.6762  0.7676  0.2241
  379MOL0     H52287  11.538  10.263   1.632  3.0934 -1.1327 -0.5576
  379MOL0     H52288  11.555  10.577   1.901 -0.5061 -1.9617 -0.5007
  379MOL0     H52289  11.564  10.798   2.009  1.1055  0.6186 -1.5214
  379MOL0     H52290  11.268  11.100   1.917  0.3174  2.2303  1.7154
  379MOL0     H52291  11.214  11.024   2.069  0.4187 -2.2964 -0.9655
  379MOL0     H52292  11.278  11.268   2.108  0.8965 -0.4140  0.6613
  379MOL0     H52293  11.441  11.223   2.034  0.3843 -0.9159 -0.3532
  379MOL0     H52294  11.318  11.113   2.291 -1.8711  1.5018 -0.2813
  379MOL0     H52295  11.479  11.076   2.218 -0.4062  0.4033  0.5011
  379MOL0     H52296  11.544  11.315   2.251 -0.9460 -2.3546 -2.4587
  379MOL0     H52297  11.505  11.231   2.399 -0.4632  1.0759  0.4834
  379MOL0     H52298  11.192  11.521   2.380 -2.1502 -1.0535 -1.4906
  379MOL0     H52299  11.158  10.874   1.894 -0.5043 -0.0937 -0.4985
  379MOL0     H52300  11.039  10.747   1.784 -3.4336 -2.4868  0.3234
  379MOL0     H52301  11.112  10.634   1.667 -1.4199 -0.9316 -0.7221
  379MOL0     H52302  11.041  10.571   1.811 -0.9078 -0.5432 -2.5487
  380MOL0     O52303   5.800   6.770   5.559 -0.2576 -0.2517  0.3477
  380MOL0     C52304   5.762   6.692   5.647 -0.0438  0.8065 -0.2033
  380MOL0     O52305   5.831   6.582   5.694 -0.4507  0.2394  0.3017
  380MOL0     C52306   5.959   6.569   5.650 -0.3877 -0.6131 -0.6424
  380MOL0     C52307   6.062   6.663   5.664 -0.0315 -0.0224  0.7779
  380MOL0     C52308   6.190   6.635   5.608  0.9206 -0.3132  0.1251
  380MOL0     C52309   6.219   6.522   5.544 -0.6749  0.5382 -0.5774
  380MOL0     O52310   6.347   6.501   5.495  0.6607  0.0056  0.2604
  380MOL0     C52311   6.355   6.503   5.349  0.3307 -0.1854 -0.4404
  380MOL0     C52312   6.477   6.433   5.303 -0.0302  0.3621 -0.2443
  380MOL0     C52313   6.601   6.481   5.372  0.3487  0.3912  0.0690
  380MOL0     C52314   6.721   6.462   5.268 -0.3802 -0.2792 -0.0622
  380MOL0     C52315   6.850   6.490   5.349 -0.2172  0.1898  0.2506
  380MOL0     C52316   6.965   6.542   5.253 -0.1921  0.4930  0.1438
  380MOL0     C52317   7.090   6.588   5.330 -0.9276 -0.4384  0.7144
  380MOL0     C52318   7.183   6.669   5.244  0.2113 -0.5377  0.8235
  380MOL0     N52319   7.281   6.762   5.311  0.5211 -0.1714 -0.5670
  380MOL0     C52320   7.326   6.874   5.256  0.5839 -0.8611 -0.0786
  380MOL0     C52321   7.392   6.939   5.356  0.2297  1.3178 -0.7879
  380MOL0     C52322   7.438   7.081   5.351 -1.6338 -0.1609 -0.3494
  380MOL0     C52323   7.572   7.099   5.283 -0.5230  0.5394  0.0417
  380MOL0     C52324   7.596   7.251   5.265  1.1721  1.1771 -0.0529
  380MOL0     C52325   7.730   7.288   5.207  0.3472 -0.8232  0.1336
  380MOL0     O52326   7.767   7.421   5.234 -0.6340 -0.9302 -0.6285
  380MOL0     C52327   7.888   7.443   5.299 -0.4581  0.4581  0.1848
  380MOL0     C52328   7.970   7.531   5.248 -0.6689  0.1106  0.2645
  380MOL0     C52329   8.104   7.554   5.285  0.8698 -0.0391 -0.9530
  380MOL0     C52330   8.174   7.662   5.216 -0.6629  0.0525  0.6461
  380MOL0     C52331   8.162   7.475   5.390 -0.5992 -0.5301 -0.2355
  380MOL0     C52332   8.301   7.486   5.440 -0.0925  0.6437 -0.4170
  380MOL0     O52333   8.326   7.414   5.547 -0.0740 -0.1246  0.0885
  380MOL0     C52334   8.457   7.388   5.570  0.2575  0.7185 -0.5848
  380MOL0     C52335   8.534   7.300   5.487  0.4443 -0.4389  0.1712
  380MOL0     C52336   8.653   7.265   5.539  0.6014  0.5424  0.0058
  380MOL0     C52337   8.708   7.305   5.663 -0.2042 -0.1315 -0.2857
  380MOL0     O52338   8.809   7.247   5.736 -1.0247 -0.0671  0.3649
  380MOL0     C52339   8.920   7.188   5.668  0.6765 -1.2009 -0.2274
  380MOL0     C52340   9.016   7.125   5.763  0.3367  0.0084  0.3220
  380MOL0     C52341   9.154   7.110   5.704 -0.0555 -0.5283 -0.1149
  380MOL0     C52342   9.153   6.996   5.597  0.2796  0.0411 -0.2419
  380MOL0     C52343   9.298   6.985   5.542 -0.6312 -0.8082  1.3283
  380MOL0     C52344   9.340   6.851   5.482  0.2992 -0.4370 -0.8336
  380MOL0     C52345   9.256   6.830   5.365  0.3011  0.2567  0.6171
  380MOL0     C52346   9.290   6.683   5.317  0.1364 -0.0552  0.0996
  380MOL0    Cl52347   9.218   6.659   5.150 -0.1373 -0.6185  0.0557
  380MOL0     C52348   8.636   7.399   5.737 -0.0093  0.4868  0.3503
  380MOL0     C52349   8.509   7.429   5.694 -0.4637 -0.2749  0.8876
  380MOL0     O52350   8.387   7.545   5.372  0.4514  0.2733 -0.0598
  380MOL0     C52351   8.078   7.379   5.449  0.4096  0.1256  0.0359
  380MOL0     C52352   7.941   7.365   5.406 -0.5614 -0.3865 -0.5451
  380MOL0     N52353   7.386   6.856   5.468  0.5249 -0.1643 -0.2583
  380MOL0     N52354   7.335   6.741   5.432  0.2692  0.6389  0.9496
  380MOL0     C52355   6.113   6.430   5.519  0.0550 -0.2205 -0.1067
  380MOL0     C52356   5.989   6.457   5.575  0.0080 -0.1910 -0.1760
  380MOL0     C52357   5.631   6.711   5.709 -0.5586  0.3498  0.2029
  380MOL0     C52358   5.585   6.608   5.790 -0.5512  0.3923  0.4283
  380MOL0     C52359   5.471   6.611   5.870  0.4336  0.0202  0.4493
  380MOL0     C52360   5.382   6.715   5.848 -0.7314 -0.1059  0.3648
  380MOL0     O52361   5.258   6.709   5.905  0.1782 -0.5438 -0.1210
  380MOL0     C52362   5.198   6.833   5.959  0.1447 -0.4904 -0.2444
  380MOL0     C52363   5.072   6.805   6.036 -0.0921  0.5494  0.2437
  380MOL0     C52364   4.952   6.767   5.940  0.0576 -0.0572 -0.5936
  380MOL0     C52365   4.819   6.797   6.017 -0.4453 -0.2610 -0.3469
  380MOL0     C52366   4.704   6.744   5.938 -0.1465  0.4180  0.1853
  380MOL0     C52367   4.609   6.718   5.863  0.1417  0.0747  0.1527
  380MOL0     C52368   5.421   6.820   5.758  0.2693 -0.3907 -0.2377
  380MOL0     C52369   5.549   6.824   5.691  0.1321 -0.1998  0.6294
  380MOL0     C52370   5.597   6.951   5.623  0.8475 -0.1946 -0.0506
  380MOL0     H52371   6.049   6.754   5.722  2.5709  0.1753  1.2143
  380MOL0     H52372   6.270   6.707   5.617 -0.4442  1.2361  0.3244
  380MOL0     H52373   6.356   6.604   5.307 -1.7244 -0.8789 -2.3544
  380MOL0     H52374   6.265   6.457   5.308 -0.8369  0.4987  1.2344
  380MOL0     H52375   6.465   6.330   5.337  0.5063  0.4075  0.1007
  380MOL0     H52376   6.482   6.443   5.194 -0.4958  2.4800 -0.1037
  380MOL0     H52377   6.585   6.584   5.406 -1.8552  0.7460 -1.7332
  380MOL0     H52378   6.624   6.418   5.458 -1.0946 -0.1253  0.1147
  380MOL0     H52379   6.715   6.358   5.234  0.0959 -1.6505  3.5921
  380MOL0     H52380   6.697   6.537   5.192 -3.6106  1.1546  2.1285
  380MOL0     H52381   6.876   6.394   5.395  0.9958  1.1291  1.6283
  380MOL0     H52382   6.826   6.562   5.428 -1.6966  1.8532 -1.6067
  380MOL0     H52383   6.987   6.450   5.197 -0.5743  0.7115 -0.3660
  380MOL0     H52384   6.938   6.624   5.186  2.1416  2.5447  1.5164
  380MOL0     H52385   7.130   6.490   5.360 -1.4686 -1.2412 -1.0457
  380MOL0     H52386   7.069   6.643   5.421  2.0356  1.3385  0.4680
  380MOL0     H52387   7.247   6.591   5.200 -1.7958 -2.2578  0.7759
  380MOL0     H52388   7.138   6.727   5.163  1.9471 -0.1304  0.0959
  380MOL0     H52389   7.316   6.904   5.152 -0.9761  0.4825  0.4119
  380MOL0     H52390   7.440   7.121   5.453  0.2615 -0.2530 -0.3144
  380MOL0     H52391   7.363   7.141   5.299  0.1226 -0.5716 -3.5816
  380MOL0     H52392   7.653   7.055   5.342  1.5060  2.5639 -1.0724
  380MOL0     H52393   7.584   7.046   5.188  1.0292  1.0561 -0.0706
  380MOL0     H52394   7.511   7.288   5.207 -1.0657 -0.8842  1.7165
  380MOL0     H52395   7.586   7.288   5.367  0.6970  0.8212  0.0362
  380MOL0     H52396   7.802   7.209   5.232 -0.0926 -0.8476  1.4140
  380MOL0     H52397   7.713   7.278   5.099  0.3928 -1.1423  0.1547
  380MOL0     H52398   7.919   7.585   5.170 -0.4778 -2.6281 -1.9116
  380MOL0     H52399   8.111   7.716   5.145  0.0624 -0.2387 -0.2465
  380MOL0     H52400   8.252   7.618   5.153 -1.8453 -0.7261 -0.3262
  380MOL0     H52401   8.224   7.731   5.284  1.2354 -1.0698  0.4924
  380MOL0     H52402   8.515   7.259   5.389  1.4738 -2.3328  0.7162
  380MOL0     H52403   8.699   7.197   5.469  0.2360 -0.5233  0.7802
  380MOL0     H52404   8.886   7.116   5.593 -0.9556 -1.2509  0.5286
  380MOL0     H52405   8.977   7.265   5.616 -0.3250  0.8275  1.4974
  380MOL0     H52406   9.024   7.190   5.851  0.8877  1.8518 -1.0143
  380MOL0     H52407   8.968   7.030   5.787 -1.9957  0.5013 -1.9616
  380MOL0     H52408   9.233   7.087   5.776 -0.1087 -1.4189 -0.3364
  380MOL0     H52409   9.183   7.201   5.650  2.1098 -1.6719 -1.0295
  380MOL0     H52410   9.073   7.007   5.523 -0.4713  1.1706  0.7033
  380MOL0     H52411   9.124   6.908   5.655 -1.3039  0.3724 -0.4856
  380MOL0     H52412   9.329   7.067   5.477 -2.9569 -0.0426  1.0920
  380MOL0     H52413   9.368   6.994   5.625  0.7297  0.2620  0.1362
  380MOL0     H52414   9.324   6.776   5.560  1.2211  0.8071  0.6080
  380MOL0     H52415   9.447   6.846   5.460  1.6697  4.3352  3.0594
  380MOL0     H52416   9.300   6.888   5.283  0.3693 -0.1974  0.3238
  380MOL0     H52417   9.148   6.848   5.367  0.4200  0.8828  1.9614
  380MOL0     H52418   9.243   6.615   5.389 -0.8934  0.5103 -0.0229
  380MOL0     H52419   9.396   6.659   5.312  0.5330  1.7811 -1.1235
  380MOL0     H52420   8.672   7.449   5.826 -1.1888 -1.7089  2.1579
  380MOL0     H52421   8.446   7.487   5.761 -0.9371 -1.0674  1.1401
  380MOL0     H52422   8.107   7.316   5.533  2.6937 -0.5046 -1.1263
  380MOL0     H52423   7.874   7.294   5.453 -1.4964 -0.5585 -2.0763
  380MOL0     H52424   6.136   6.333   5.476  1.0387 -0.2040  0.3499
  380MOL0     H52425   5.903   6.396   5.548 -3.3623  4.1246 -0.1792
  380MOL0     H52426   5.647   6.520   5.804  0.7899  1.5644  2.3472
  380MOL0     H52427   5.439   6.535   5.940  0.7427  0.5020  1.1292
  380MOL0     H52428   5.261   6.893   6.025 -2.7435 -0.4289  2.7196
  380MOL0     H52429   5.164   6.902   5.881  1.5081 -2.2235 -2.5000
  380MOL0     H52430   5.043   6.902   6.079  4.2208  3.2361 -2.2370
  380MOL0     H52431   5.088   6.726   6.110  2.7670  0.2638 -0.5679
  380MOL0     H52432   4.951   6.822   5.846  1.9917 -1.5229 -1.5522
  380MOL0     H52433   4.957   6.663   5.907 -1.6324 -0.7460  1.1250
  380MOL0     H52434   4.812   6.906   6.021  1.1645 -0.1289 -0.5149
  380MOL0     H52435   4.813   6.760   6.120  0.8112  2.7459  0.9467
  380MOL0     H52436   4.527   6.685   5.801 -0.2774 -0.8601  1.1753
  380MOL0     H52437   5.359   6.905   5.732  1.8529  1.1693  0.8351
  380MOL0     H52438   5.672   7.008   5.679 -0.8135  1.1870  0.8882
  380MOL0     H52439   5.621   6.938   5.518  1.1409  1.6101 -0.2328
  380MOL0     H52440   5.509   7.017   5.623 -0.9018 -2.2937 -3.0107
  381MOL0     O52441   4.578   0.762   4.531 -0.2742 -0.2858  0.0712
  381MOL0     C52442   4.614   0.678   4.446 -0.0051  0.3614  0.3644
  381MOL0     O52443   4.728   0.690   4.371  0.1255  0.1513  0.2664
  381MOL0     C52444   4.810   0.789   4.403  0.8786 -0.5164 -0.3975
  381MOL0     C52445   4.910   0.773   4.503  0.6950 -0.0520 -0.1804
  381MOL0     C52446   4.991   0.873   4.543  0.6701 -0.9114 -0.1638
  381MOL0     C52447   4.984   0.996   4.478 -1.0173  0.0812 -0.1922
  381MOL0     O52448   5.060   1.096   4.530  0.0008 -0.2760 -0.1493
  381MOL0     C52449   5.045   1.230   4.481  0.2249 -0.1516  0.2539
  381MOL0     C52450   5.154   1.318   4.543  0.3528  0.7540 -0.7703
  381MOL0     C52451   5.295   1.275   4.501 -0.4120  0.0649 -0.7086
  381MOL0     C52452   5.340   1.333   4.362 -0.4993 -0.2372  0.2067
  381MOL0     C52453   5.488   1.322   4.341  0.3004 -0.4323 -1.2750
  381MOL0     C52454   5.516   1.387   4.198 -0.3577 -0.0397  0.3734
  381MOL0     C52455   5.521   1.273   4.102  0.1194  0.2754  0.4433
  381MOL0     C52456   5.655   1.187   4.099  0.4714  1.3100 -0.7484
  381MOL0     N52457   5.744   1.247   4.005 -0.1142  0.2300  0.2578
  381MOL0     C52458   5.841   1.339   4.017 -0.2539  0.0234  0.4180
  381MOL0     C52459   5.898   1.352   3.895  0.0522 -0.6091 -0.4447
  381MOL0     C52460   6.010   1.459   3.858  0.1917  0.5047  0.2683
  381MOL0     C52461   6.121   1.377   3.789  0.1238 -0.2950 -0.5808
  381MOL0     C52462   6.248   1.458   3.774 -0.0886 -1.1221  0.9674
  381MOL0     C52463   6.367   1.383   3.713  0.7135 -0.2899  0.0785
  381MOL0     O52464   6.478   1.461   3.717  0.2393  0.0493 -0.3441
  381MOL0     C52465   6.600   1.394   3.726 -0.2780 -0.8428  0.1360
  381MOL0     C52466   6.701   1.454   3.807 -0.2205 -0.2572 -0.0446
  381MOL0     C52467   6.834   1.397   3.811  0.2355  0.6228 -0.6515
  381MOL0     C52468   6.927   1.470   3.894  0.0131 -0.2865  0.5238
  381MOL0     C52469   6.861   1.274   3.740  0.3433  0.0506  0.4762
  381MOL0     C52470   6.993   1.205   3.741 -0.6281  0.3481  0.6080
  381MOL0     O52471   7.006   1.103   3.652 -0.0483 -0.3222  0.2835
  381MOL0     C52472   7.117   1.021   3.668  0.6263 -0.2590  0.6091
  381MOL0     C52473   7.253   1.063   3.677 -0.3669 -0.0682 -0.0453
  381MOL0     C52474   7.357   0.977   3.675 -0.5989 -0.5643  0.1684
  381MOL0     C52475   7.341   0.837   3.671 -1.0890 -0.2451 -0.3436
  381MOL0     O52476   7.436   0.741   3.659 -0.1055 -0.0504  0.6587
  381MOL0     C52477   7.564   0.771   3.701 -0.8618 -0.5820  0.2477
  381MOL0     C52478   7.658   0.647   3.689 -0.1821 -0.2013  0.3568
  381MOL0     C52479   7.804   0.670   3.707 -0.4688 -0.1606 -0.2928
  381MOL0     C52480   7.836   0.733   3.843 -0.4926  0.1792  1.1772
  381MOL0     C52481   7.985   0.729   3.867  0.9145 -0.3550  0.7543
  381MOL0     C52482   8.068   0.814   3.772 -1.0492 -0.8437  0.4674
  381MOL0     C52483   8.212   0.783   3.786 -0.4131 -0.4200 -0.2383
  381MOL0     C52484   8.297   0.870   3.698 -0.3193 -0.5836 -0.2380
  381MOL0    Cl52485   8.462   0.803   3.705 -0.4566  0.4343  0.1943
  381MOL0     C52486   7.211   0.794   3.653  0.4013 -0.4360  0.0026
  381MOL0     C52487   7.104   0.886   3.659  0.3820  0.1828  0.5058
  381MOL0     O52488   7.083   1.234   3.825  0.4305 -0.0569 -0.2819
  381MOL0     C52489   6.759   1.223   3.659  0.3980  0.6415  0.4312
  381MOL0     C52490   6.636   1.288   3.648  0.1345 -0.1338 -0.0485
  381MOL0     N52491   5.841   1.253   3.812 -0.1243  0.0652  0.2371
  381MOL0     N52492   5.750   1.197   3.879  0.4839  0.0372 -0.3618
  381MOL0     C52493   4.880   1.021   4.384  0.4076  0.2156  0.3305
  381MOL0     C52494   4.799   0.915   4.341  0.1084 -0.0668 -1.4261
  381MOL0     C52495   4.519   0.563   4.419 -0.2098  0.0232  0.3938
  381MOL0     C52496   4.387   0.567   4.474  0.6067  0.0381 -0.7756
  381MOL0     C52497   4.288   0.471   4.460 -1.2461 -0.4253  0.3623
  381MOL0     C52498   4.320   0.350   4.399  0.0717 -0.1585  0.4556
  381MOL0     O52499   4.225   0.243   4.409 -0.5182  0.3573 -0.3073
  381MOL0     C52500   4.267   0.114   4.364  0.2380 -0.6629 -0.1467
  381MOL0     C52501   4.178   0.000   4.421  0.7859 -0.5971  0.0926
  381MOL0     C52502   4.249  -0.131   4.410 -0.8384 -0.0719 -0.2156
  381MOL0     C52503   4.155  -0.244   4.426  0.6082  0.5942  0.0332
  381MOL0     C52504   4.215  -0.365   4.379 -0.7564 -0.1261 -0.2857
  381MOL0     C52505   4.256  -0.472   4.344 -0.0191  0.0160 -0.7267
  381MOL0     C52506   4.449   0.339   4.340  1.0951 -1.0113  0.2564
  381MOL0     C52507   4.544   0.438   4.358  0.4154 -0.5635 -0.6364
  381MOL0     C52508   4.680   0.404   4.318  0.5317 -0.1533  0.5422
  381MOL0     H52509   4.917   0.681   4.561 -0.0499 -0.4087 -0.6396
  381MOL0     H52510   5.061   0.863   4.626 -0.7960  3.2673  1.8879
  381MOL0     H52511   4.942   1.265   4.495  0.4181  0.3274  0.5186
  381MOL0     H52512   5.048   1.232   4.372 -1.7401  2.0745  0.1576
  381MOL0     H52513   5.144   1.421   4.509  2.7510  1.0152 -0.8577
  381MOL0     H52514   5.149   1.306   4.651 -0.1937  0.7511 -0.7950
  381MOL0     H52515   5.360   1.320   4.577 -1.2520  1.7720 -0.9492
  381MOL0     H52516   5.297   1.166   4.503 -0.7645  0.0504 -1.1500
  381MOL0     H52517   5.286   1.286   4.279 -2.2013  0.5333  0.8266
  381MOL0     H52518   5.304   1.436   4.364  0.1364 -0.0241  1.1442
  381MOL0     H52519   5.525   1.219   4.346  1.1597 -0.0940 -0.2222
  381MOL0     H52520   5.535   1.380   4.421 -1.5722 -0.5973  0.0004
  381MOL0     H52521   5.434   1.453   4.166  0.6317 -0.3199 -3.2077
  381MOL0     H52522   5.607   1.448   4.198 -0.3448 -0.0105  2.1103
  381MOL0     H52523   5.500   1.304   3.999 -2.1972 -1.6680  0.2547
  381MOL0     H52524   5.430   1.216   4.120 -0.7163  1.4629  0.1318
  381MOL0     H52525   5.697   1.174   4.199  0.2285  1.2074 -0.6590
  381MOL0     H52526   5.632   1.085   4.067  0.1803  0.8232  0.9208
  381MOL0     H52527   5.858   1.394   4.109  2.0794 -0.4691  0.3515
  381MOL0     H52528   6.036   1.508   3.952 -1.1195  2.4143 -0.3106
  381MOL0     H52529   5.965   1.525   3.784  0.5609  2.6115  1.8218
  381MOL0     H52530   6.128   1.285   3.848  2.7927 -0.6675 -1.3214
  381MOL0     H52531   6.100   1.339   3.689  0.5247  1.4195 -1.3484
  381MOL0     H52532   6.223   1.540   3.706  1.6232  1.3256  3.1292
  381MOL0     H52533   6.278   1.497   3.871 -1.6578  2.5962  0.1262
  381MOL0     H52534   6.373   1.297   3.780  1.9461  0.9397  1.6431
  381MOL0     H52535   6.335   1.346   3.615 -0.3915 -2.9262  1.3391
  381MOL0     H52536   6.664   1.546   3.852 -2.6499 -0.6519 -1.0678
  381MOL0     H52537   7.023   1.479   3.842 -0.2185  1.2873  0.3259
  381MOL0     H52538   6.935   1.421   3.992  3.0037  0.6796  0.8620
  381MOL0     H52539   6.896   1.572   3.920  0.4523 -0.1048  0.3400
  381MOL0     H52540   7.274   1.170   3.675 -0.4439 -0.0143  1.1706
  381MOL0     H52541   7.456   1.023   3.670 -0.7035 -0.1825  1.2948
  381MOL0     H52542   7.617   0.842   3.636  1.4111 -0.0988  2.4447
  381MOL0     H52543   7.578   0.819   3.798  1.4357  0.2290 -0.4077
  381MOL0     H52544   7.615   0.573   3.757 -0.5508  0.4797  0.8762
  381MOL0     H52545   7.651   0.617   3.584 -0.4433  0.9715  0.0255
  381MOL0     H52546   7.826   0.738   3.625  0.4766  0.8731  0.7804
  381MOL0     H52547   7.862   0.581   3.681 -0.1371  0.4276 -1.6193
  381MOL0     H52548   7.788   0.674   3.922  0.7907 -0.5203  1.4730
  381MOL0     H52549   7.802   0.837   3.841 -2.6143 -0.4999  0.2673
  381MOL0     H52550   8.004   0.761   3.970  3.0755  1.3390 -0.0920
  381MOL0     H52551   8.028   0.628   3.863 -3.7286 -2.5458 -1.5452
  381MOL0     H52552   8.039   0.919   3.786 -4.6022 -1.4930 -1.1443
  381MOL0     H52553   8.032   0.793   3.672 -2.6080 -1.7369  1.1815
  381MOL0     H52554   8.230   0.682   3.748  1.7801  0.3649 -1.4797
  381MOL0     H52555   8.247   0.781   3.889 -0.6796 -2.2771 -0.1559
  381MOL0     H52556   8.296   0.973   3.734 -0.1691 -0.2501 -1.1572
  381MOL0     H52557   8.253   0.874   3.598 -0.6483 -0.4630 -0.0878
  381MOL0     H52558   7.192   0.688   3.639  2.2996 -0.5810 -2.1546
  381MOL0     H52559   7.006   0.841   3.660  1.7431 -3.0608  0.2856
  381MOL0     H52560   6.781   1.140   3.593  5.0539  3.8323 -2.7048
  381MOL0     H52561   6.572   1.255   3.567  1.8279  2.6621 -2.7304
  381MOL0     H52562   4.869   1.126   4.359  1.0863  1.2643  3.8784
  381MOL0     H52563   4.716   0.938   4.275  0.2973  1.6829 -1.1071
  381MOL0     H52564   4.352   0.651   4.533  2.9360  2.7082 -2.8867
  381MOL0     H52565   4.189   0.499   4.497 -1.8181 -3.5645  1.5770
  381MOL0     H52566   4.271   0.107   4.255 -0.4857  2.9792 -0.5335
  381MOL0     H52567   4.367   0.094   4.404 -0.1545  0.1057  1.3005
  381MOL0     H52568   4.078  -0.010   4.378  0.4948 -1.5070  0.9479
  381MOL0     H52569   4.158   0.028   4.525 -0.7090 -0.8093 -0.1264
  381MOL0     H52570   4.299  -0.139   4.313 -0.6202  0.2800 -0.1357
  381MOL0     H52571   4.328  -0.139   4.486  1.1917 -0.1121 -2.2203
  381MOL0     H52572   4.065  -0.215   4.372  1.7160  1.6764 -1.2910
  381MOL0     H52573   4.139  -0.263   4.533  0.9428 -0.1827 -0.0467
  381MOL0     H52574   4.264  -0.579   4.336 -0.4580 -0.1484  0.8418
  381MOL0     H52575   4.480   0.249   4.288  3.3289  0.0491 -0.3769
  381MOL0     H52576   4.698   0.421   4.212  2.4275 -1.0710  0.6675
  381MOL0     H52577   4.749   0.455   4.386 -1.4124  2.3842  0.7623
  381MOL0     H52578   4.701   0.300   4.346 -0.7941  0.1578  3.0265
  382MOL0     O52579   0.696   4.606   0.849  0.6740 -0.2575 -0.3429
  382MOL0     C52580   0.624   4.695   0.889 -0.7039 -0.1292  0.7009
  382MOL0     O52581   0.659   4.821   0.900 -0.2310  0.2128  0.2521
  382MOL0     C52582   0.788   4.848   0.864  0.0247 -0.3428  0.5968
  382MOL0     C52583   0.842   4.885   0.738  0.2335 -0.5284  0.2488
  382MOL0     C52584   0.974   4.929   0.713  0.5434  0.2454 -0.8516
  382MOL0     C52585   1.061   4.932   0.827  0.5772 -0.3976 -0.3102
  382MOL0     O52586   1.194   4.954   0.799 -0.0181  0.1923  0.3044
  382MOL0     C52587   1.289   4.950   0.909  0.5870  0.6039 -0.5479
  382MOL0     C52588   1.434   4.995   0.874 -0.3054  0.1664 -0.3446
  382MOL0     C52589   1.497   4.910   0.770 -0.8337  0.4646  1.2869
  382MOL0     C52590   1.643   4.946   0.736  0.6867  0.7208 -0.3406
  382MOL0     C52591   1.753   4.902   0.835  0.3776  0.5356 -0.0159
  382MOL0     C52592   1.803   5.017   0.922 -0.2834  0.5781  0.1147
  382MOL0     C52593   1.926   4.978   1.008 -0.7468  0.1530  0.1797
  382MOL0     C52594   1.983   5.103   1.076 -0.3784 -1.0220 -0.1732
  382MOL0     N52595   2.084   5.066   1.176  0.1634  0.7025 -0.3192
  382MOL0     C52596   2.215   5.040   1.152  0.6604  0.3988  0.5882
  382MOL0     C52597   2.278   5.010   1.266 -0.6238  0.1977  0.1807
  382MOL0     C52598   2.421   4.983   1.306  0.0601 -0.3015 -1.1329
  382MOL0     C52599   2.454   5.020   1.451  0.5819 -0.1564 -0.5736
  382MOL0     C52600   2.607   5.018   1.488  0.5877  0.3677 -0.1325
  382MOL0     C52601   2.641   4.885   1.560 -0.9504  0.4648 -0.0569
  382MOL0     O52602   2.787   4.869   1.544 -0.4373  0.2063  0.1646
  382MOL0     C52603   2.830   4.747   1.498 -0.7059  0.4611  0.6460
  382MOL0     C52604   2.777   4.625   1.532  0.2990 -0.4326  0.0181
  382MOL0     C52605   2.820   4.506   1.484  0.0355 -0.8119 -0.3752
  382MOL0     C52606   2.751   4.388   1.516 -0.6228  0.0790  0.3422
  382MOL0     C52607   2.934   4.500   1.402  0.6387 -0.8462  0.7534
  382MOL0     C52608   3.001   4.374   1.366 -0.0093  0.1488  0.5767
  382MOL0     O52609   3.075   4.389   1.244  0.0610  0.4847 -0.0147
  382MOL0     C52610   3.119   4.270   1.189 -0.0751 -0.0082  0.3161
  382MOL0     C52611   3.259   4.251   1.176  1.0177  0.7550 -0.2502
  382MOL0     C52612   3.305   4.139   1.115 -0.6594  0.1370  0.4299
  382MOL0     C52613   3.230   4.036   1.070  0.0170 -0.2517 -0.1366
  382MOL0     O52614   3.289   3.932   1.002  0.5150  0.5182  0.1796
  382MOL0     C52615   3.235   3.875   0.876 -0.2508 -0.4266 -0.1075
  382MOL0     C52616   3.256   3.971   0.763 -0.1338 -0.4961 -0.2190
  382MOL0     C52617   3.402   3.998   0.725  0.8983 -0.7115  0.0934
  382MOL0     C52618   3.499   3.885   0.721  0.4661 -0.4523 -0.1456
  382MOL0     C52619   3.634   3.958   0.702 -0.8150 -0.3632 -0.5489
  382MOL0     C52620   3.749   3.869   0.657  0.6167 -0.1845  0.0438
  382MOL0     C52621   3.881   3.940   0.640 -0.4560  0.2303 -0.4196
  382MOL0     C52622   4.003   3.842   0.627 -0.8339  0.4551 -0.0885
  382MOL0    Cl52623   3.999   3.751   0.471  0.1414  0.1447 -0.3888
  382MOL0     C52624   3.093   4.046   1.085 -1.0738 -0.5284 -0.8854
  382MOL0     C52625   3.038   4.164   1.135 -0.1914  0.1486  0.2397
  382MOL0     O52626   2.994   4.274   1.438 -0.0491  0.5799 -0.0079
  382MOL0     C52627   2.993   4.630   1.374 -0.0674  0.5419 -0.7659
  382MOL0     C52628   2.944   4.747   1.421 -0.0002  0.2725 -0.5656
  382MOL0     N52629   2.174   5.040   1.362  0.5412  0.5684  0.1120
  382MOL0     N52630   2.055   5.053   1.306  0.0451 -0.1246  0.1917
  382MOL0     C52631   1.005   4.909   0.958 -0.4242 -0.6040  0.1405
  382MOL0     C52632   0.869   4.871   0.967  0.1459  0.0955 -0.2357
  382MOL0     C52633   0.473   4.664   0.923 -0.5234  0.2792 -0.0538
  382MOL0     C52634   0.385   4.774   0.947 -0.0643  0.1364 -0.5700
  382MOL0     C52635   0.250   4.744   0.959  0.2492  0.0807  0.5387
  382MOL0     C52636   0.196   4.615   0.952  0.5696 -0.4594 -1.0298
  382MOL0     O52637   0.060   4.606   0.986  0.2927 -0.3546  0.5629
  382MOL0     C52638   0.005   4.478   1.004  0.5771 -0.0219  0.1013
  382MOL0     C52639  -0.152   4.472   1.003 -0.2442  1.0302  0.2773
  382MOL0     C52640  -0.194   4.333   1.064  0.5624 -0.1470  0.1829
  382MOL0     C52641  -0.197   4.213   0.960  0.1189 -0.0908 -0.9821
  382MOL0     C52642  -0.065   4.173   0.910  0.1664 -0.9192  0.2015
  382MOL0     C52643   0.035   4.138   0.846  0.1482 -0.2289 -0.3233
  382MOL0     C52644   0.282   4.508   0.935  0.5380  0.3427 -0.1062
  382MOL0     C52645   0.413   4.537   0.917  0.1371  0.1676  0.6279
  382MOL0     C52646   0.485   4.403   0.892 -0.1088 -1.3066 -0.1836
  382MOL0     H52647   0.786   4.863   0.648  1.2025 -0.2210 -0.4316
  382MOL0     H52648   1.005   4.948   0.611  0.9380  0.6093 -0.6666
  382MOL0     H52649   1.285   4.845   0.939  1.9957  0.5195 -0.5873
  382MOL0     H52650   1.260   5.014   0.993 -1.1347  0.3549 -0.9301
  382MOL0     H52651   1.437   5.101   0.844 -1.5214  0.4912  0.6121
  382MOL0     H52652   1.501   4.984   0.959  0.5746 -0.4910 -1.1051
  382MOL0     H52653   1.493   4.806   0.803  0.4437 -0.7672 -2.0411
  382MOL0     H52654   1.447   4.922   0.673  1.2601  2.2401  0.3527
  382MOL0     H52655   1.686   4.903   0.645  0.0680  1.0217 -0.7820
  382MOL0     H52656   1.640   5.052   0.709  1.6083  2.1759  4.4009
  382MOL0     H52657   1.830   4.840   0.788  0.6071  0.6113  0.2550
  382MOL0     H52658   1.713   4.828   0.905  1.0126  0.2238  0.0309
  382MOL0     H52659   1.841   5.087   0.847  0.8178  0.3934  0.4846
  382MOL0     H52660   1.726   5.057   0.989  0.6843  3.8114 -0.5355
  382MOL0     H52661   2.001   4.935   0.941 -2.9112  2.4817 -4.1863
  382MOL0     H52662   1.891   4.910   1.085 -0.3204 -2.4734 -1.8082
  382MOL0     H52663   2.025   5.167   0.997 -1.7774  2.5662  1.7225
  382MOL0     H52664   1.908   5.163   1.128 -0.4873 -0.1412 -1.2839
  382MOL0     H52665   2.252   5.030   1.050 -3.2547 -1.8610 -0.8269
  382MOL0     H52666   2.483   5.041   1.237  0.5649 -0.6318 -0.9611
  382MOL0     H52667   2.440   4.877   1.287  3.6197  0.0282 -0.0097
  382MOL0     H52668   2.421   5.123   1.463  0.1005 -0.0577 -2.5144
  382MOL0     H52669   2.402   4.954   1.521  2.8455 -1.2052  0.2454
  382MOL0     H52670   2.668   5.031   1.397 -0.5399 -1.8283 -1.2701
  382MOL0     H52671   2.630   5.093   1.564  1.4255 -0.3808  0.3692
  382MOL0     H52672   2.610   4.898   1.664  1.1839  2.9819  0.3699
  382MOL0     H52673   2.583   4.803   1.515  0.0617 -0.0991 -0.3731
  382MOL0     H52674   2.691   4.620   1.598 -3.3723 -2.2452 -4.3074
  382MOL0     H52675   2.785   4.349   1.613 -1.4786  1.7067  1.3449
  382MOL0     H52676   2.758   4.298   1.454 -1.5476 -1.6706  2.5869
  382MOL0     H52677   2.644   4.408   1.531 -0.2681  1.8309  0.7407
  382MOL0     H52678   3.322   4.334   1.207 -0.2089  2.7345 -2.6612
  382MOL0     H52679   3.413   4.133   1.102 -0.4439 -1.4942  2.4707
  382MOL0     H52680   3.285   3.787   0.835 -0.4798  0.4118 -2.3356
  382MOL0     H52681   3.134   3.837   0.892  0.1953 -1.2949  0.6817
  382MOL0     H52682   3.219   3.925   0.671 -0.9435  1.7278 -1.0612
  382MOL0     H52683   3.211   4.070   0.775 -0.6950 -0.5024 -1.9729
  382MOL0     H52684   3.437   4.074   0.795  3.0051 -2.6166  1.2139
  382MOL0     H52685   3.394   4.056   0.633 -0.8797 -0.2243  0.5145
  382MOL0     H52686   3.478   3.828   0.630 -0.3999  1.8118 -1.4517
  382MOL0     H52687   3.489   3.822   0.810  0.9805  0.0553  0.2713
  382MOL0     H52688   3.623   4.036   0.626 -0.0651 -0.8419 -1.1716
  382MOL0     H52689   3.658   4.004   0.798 -1.2159  0.4349 -0.8192
  382MOL0     H52690   3.704   3.825   0.568 -1.4615  3.6173 -1.0057
  382MOL0     H52691   3.755   3.800   0.742  0.1757 -0.0595  0.1792
  382MOL0     H52692   3.898   4.005   0.726 -1.1233  1.3077 -1.0699
  382MOL0     H52693   3.879   4.010   0.555  1.0239  0.5356 -0.2237
  382MOL0     H52694   4.002   3.778   0.716 -1.1091  0.3516 -0.1638
  382MOL0     H52695   4.099   3.893   0.632 -0.5993 -0.0631  1.0080
  382MOL0     H52696   3.026   3.967   1.050 -1.4496 -0.3042 -0.6821
  382MOL0     H52697   2.929   4.164   1.134 -0.2240 -1.1951  0.9696
  382MOL0     H52698   3.078   4.646   1.308 -0.8949  2.2193 -1.4777
  382MOL0     H52699   2.994   4.844   1.415  2.7156 -0.9855  0.1757
  382MOL0     H52700   1.057   4.916   1.052 -3.9493  1.4588  2.1589
  382MOL0     H52701   0.833   4.841   1.065  0.4388  1.0088  0.1557
  382MOL0     H52702   0.435   4.871   0.949  2.5250 -1.1187 -0.0864
  382MOL0     H52703   0.183   4.829   0.971  1.1518  0.7720  0.7513
  382MOL0     H52704   0.027   4.412   0.920  1.2323 -0.6721  0.7675
  382MOL0     H52705   0.045   4.432   1.094  1.3488  0.9792  0.2792
  382MOL0     H52706  -0.195   4.482   0.903 -1.0398 -1.3776  0.3152
  382MOL0     H52707  -0.187   4.551   1.069  2.0141  0.3585  2.4776
  382MOL0     H52708  -0.148   4.310   1.161 -2.4694  1.0607  2.0520
  382MOL0     H52709  -0.298   4.349   1.092  0.5139  0.9417 -0.5470
  382MOL0     H52710  -0.260   4.244   0.876 -1.2167  0.1843  0.0852
  382MOL0     H52711  -0.242   4.124   1.003 -0.8257  1.0142  0.3824
  382MOL0     H52712   0.122   4.109   0.790 -2.0387 -2.2304 -2.9757
  382MOL0     H52713   0.228   4.414   0.931  1.1419  0.0093 -0.6124
  382MOL0     H52714   0.477   4.369   0.788 -1.5947 -1.4931 -0.0400
  382MOL0     H52715   0.589   4.423   0.918 -0.5516  4.1764 -1.4056
  382MOL0     H52716   0.444   4.329   0.963  0.4985  0.5875  2.2862
  383MOL0     O52717   3.118   5.975   7.017  0.0132 -0.7299 -0.1559
  383MOL0     C52718   3.039   6.039   6.942 -0.1915 -0.3303 -0.2443
  383MOL0     O52719   3.065   6.071   6.813 -0.2693 -0.3708  0.5684
  383MOL0     C52720   3.192   6.042   6.762 -0.2376  0.4046  0.6095
  383MOL0     C52721   3.237   5.907   6.761 -0.0965 -0.0244 -0.5373
  383MOL0     C52722   3.360   5.876   6.707 -0.1294 -0.2758 -0.4280
  383MOL0     C52723   3.440   5.969   6.631  0.2576 -0.0153  0.6746
  383MOL0     O52724   3.555   5.939   6.559  0.0246 -0.1308  0.4185
  383MOL0     C52725   3.641   5.825   6.602 -0.5165  0.1609 -0.5012
  383MOL0     C52726   3.782   5.852   6.531 -0.4460  0.3047  0.2248
  383MOL0     C52727   3.883   5.734   6.535 -0.7910  0.4930  0.3415
  383MOL0     C52728   4.000   5.783   6.461 -0.3352  0.4665  0.4521
  383MOL0     C52729   4.107   5.670   6.439 -0.3758 -0.1041 -0.5032
  383MOL0     C52730   4.219   5.739   6.362  0.0131  0.2796 -0.1981
  383MOL0     C52731   4.339   5.641   6.343  0.6927 -0.0529 -0.3157
  383MOL0     C52732   4.464   5.726   6.314  0.5808  0.3088  0.8239
  383MOL0     N52733   4.586   5.646   6.299 -0.0716 -0.6016 -0.5423
  383MOL0     C52734   4.703   5.702   6.253 -0.7178 -0.1320 -0.1598
  383MOL0     C52735   4.805   5.613   6.287  0.3490  0.2957  0.2534
  383MOL0     C52736   4.944   5.628   6.237  0.6167  0.4153 -0.5531
  383MOL0     C52737   4.952   5.618   6.083 -0.5521 -0.2524 -1.1731
  383MOL0     C52738   5.100   5.624   6.056 -0.4267 -0.1404 -0.1316
  383MOL0     C52739   5.160   5.760   6.089 -0.0105  0.5399  0.3680
  383MOL0     O52740   5.259   5.791   5.982 -0.4528 -1.0944 -0.2323
  383MOL0     C52741   5.385   5.741   5.979 -0.1769 -0.5328  0.5330
  383MOL0     C52742   5.439   5.668   6.079 -0.0801  0.7379  0.3002
  383MOL0     C52743   5.578   5.634   6.089  1.0075  0.2388  0.4865
  383MOL0     C52744   5.639   5.595   6.220  0.2384 -0.6824 -0.4445
  383MOL0     C52745   5.659   5.663   5.977  0.8565 -0.7046 -0.4385
  383MOL0     C52746   5.808   5.640   5.975  0.1567 -1.1714  0.2135
  383MOL0     O52747   5.882   5.732   5.907  0.6132  0.8080 -0.4445
  383MOL0     C52748   6.005   5.751   5.960  0.4967 -0.1704  0.2822
  383MOL0     C52749   6.108   5.706   5.882  0.0300 -0.1525  0.6276
  383MOL0     C52750   6.239   5.739   5.916 -0.0062  0.2822  0.9170
  383MOL0     C52751   6.268   5.817   6.025  0.1563  0.3885  0.0520
  383MOL0     O52752   6.396   5.850   6.049 -0.6895  0.0324  0.2696
  383MOL0     C52753   6.421   5.992   6.026  0.2575 -0.3810  0.2620
  383MOL0     C52754   6.563   6.031   6.023  0.4275 -0.1882 -0.3544
  383MOL0     C52755   6.637   5.946   5.917  0.3383 -0.6637 -0.2444
  383MOL0     C52756   6.783   5.989   5.942  0.4911  0.4795  0.4459
  383MOL0     C52757   6.886   5.905   5.858  0.3955 -1.0248 -0.2444
  383MOL0     C52758   7.026   5.894   5.924  0.0977  0.8406 -0.3231
  383MOL0     C52759   7.120   5.823   5.833  0.4409  0.5183 -0.2766
  383MOL0     C52760   7.268   5.809   5.886  0.5531 -1.0053 -0.1449
  383MOL0    Cl52761   7.268   5.712   6.032 -0.1726  0.0205 -0.6000
  383MOL0     C52762   6.161   5.865   6.105  0.1416 -0.5219  0.4034
  383MOL0     C52763   6.028   5.832   6.065 -1.0227 -0.2656 -0.9611
  383MOL0     O52764   5.854   5.544   6.037  0.1570  0.4169  0.8931
  383MOL0     C52765   5.603   5.728   5.866 -0.2236  0.1729 -0.1852
  383MOL0     C52766   5.468   5.764   5.868  0.4562 -0.0106 -0.5819
  383MOL0     N52767   4.754   5.511   6.356 -0.8974  0.0435 -0.4706
  383MOL0     N52768   4.625   5.527   6.357 -0.0282  0.1690  0.4309
  383MOL0     C52769   3.388   6.102   6.625  0.1968 -0.0695  0.6285
  383MOL0     C52770   3.274   6.132   6.697  0.2109 -0.0694 -0.0638
  383MOL0     C52771   2.903   6.071   6.984  0.5594  0.1623 -0.5493
  383MOL0     C52772   2.834   6.180   6.926 -0.3796 -0.4647 -0.0943
  383MOL0     C52773   2.710   6.229   6.967 -1.0624 -0.4031  0.0353
  383MOL0     C52774   2.651   6.158   7.072  0.5952 -0.1968  0.8713
  383MOL0     O52775   2.521   6.215   7.100  0.3246 -0.1295 -0.1477
  383MOL0     C52776   2.440   6.158   7.210  0.1590  0.1462 -0.8186
  383MOL0     C52777   2.362   6.032   7.162 -0.2983  0.5826 -0.2841
  383MOL0     C52778   2.251   6.055   7.058 -0.6398 -0.3237  0.7114
  383MOL0     C52779   2.183   5.913   7.052  0.0268 -0.2524 -0.1328
  383MOL0     C52780   2.062   5.930   6.971  0.6087  0.0828  0.7751
  383MOL0     C52781   1.966   5.942   6.890 -0.5002 -0.2384  0.1097
  383MOL0     C52782   2.705   6.045   7.124 -0.1832  0.2871 -0.3990
  383MOL0     C52783   2.837   5.995   7.085  0.1005 -0.6255  0.0692
  383MOL0     C52784   2.879   5.864   7.143  0.3673 -0.0908  0.2135
  383MOL0     H52785   3.177   5.832   6.811 -0.8697  1.6143  1.0893
  383MOL0     H52786   3.405   5.778   6.717 -0.1669 -0.1381  1.3266
  383MOL0     H52787   3.598   5.726   6.587 -3.9703  1.3491  0.5690
  383MOL0     H52788   3.652   5.833   6.711 -0.2396 -1.3287 -0.4001
  383MOL0     H52789   3.768   5.872   6.424  0.0247 -1.4889 -0.2003
  383MOL0     H52790   3.824   5.945   6.570 -1.4483  0.4875  0.8981
  383MOL0     H52791   3.905   5.701   6.637 -0.7349 -0.3732  0.0553
  383MOL0     H52792   3.838   5.649   6.484  0.3140  0.4032 -0.5100
  383MOL0     H52793   3.961   5.795   6.359 -1.2917 -0.8341  0.6348
  383MOL0     H52794   4.047   5.874   6.500  0.4082  1.2385 -2.0402
  383MOL0     H52795   4.071   5.580   6.389 -1.9778 -1.0365  2.0960
  383MOL0     H52796   4.150   5.626   6.530  1.4574  1.7126 -0.4266
  383MOL0     H52797   4.176   5.765   6.264 -0.0611  2.6218  0.3983
  383MOL0     H52798   4.263   5.827   6.410 -0.0648  0.4585 -0.4483
  383MOL0     H52799   4.316   5.585   6.252  2.2957 -0.2237 -0.6452
  383MOL0     H52800   4.354   5.575   6.428 -0.9840 -1.1818 -0.8584
  383MOL0     H52801   4.452   5.789   6.225  2.3296  0.5675  0.7422
  383MOL0     H52802   4.487   5.801   6.389 -1.2871  3.2382 -1.3081
  383MOL0     H52803   4.731   5.798   6.210 -0.8879  1.2624  2.5932
  383MOL0     H52804   5.012   5.551   6.276  0.6861  0.0405 -1.3771
  383MOL0     H52805   4.984   5.722   6.275 -2.8616  2.6396 -1.9541
  383MOL0     H52806   4.908   5.524   6.046  1.4827 -1.3444 -1.0067
  383MOL0     H52807   4.904   5.705   6.037  1.4440  0.8542 -1.2887
  383MOL0     H52808   5.147   5.545   6.115 -2.2003 -1.6584 -0.6531
  383MOL0     H52809   5.117   5.610   5.949 -1.9570  1.5968 -0.6441
  383MOL0     H52810   5.086   5.840   6.093 -1.3470 -0.6584  0.5209
  383MOL0     H52811   5.213   5.770   6.184 -1.5519 -1.8744  1.5813
  383MOL0     H52812   5.380   5.641   6.166 -0.7788  0.6975 -0.1826
  383MOL0     H52813   5.574   5.620   6.304  1.2210  3.3530 -0.6636
  383MOL0     H52814   5.728   5.656   6.237  0.6737 -1.2081 -0.8059
  383MOL0     H52815   5.674   5.491   6.223  1.8358 -0.1595 -0.2703
  383MOL0     H52816   6.088   5.657   5.787 -2.2027  2.3232 -0.3392
  383MOL0     H52817   6.315   5.703   5.847  0.9389  0.9849  1.5624
  383MOL0     H52818   6.382   6.033   5.932  0.0329  1.2191  1.0191
  383MOL0     H52819   6.376   6.041   6.113 -0.6638 -1.5188  0.4425
  383MOL0     H52820   6.569   6.138   6.002  1.0691 -0.2952 -0.7502
  383MOL0     H52821   6.608   6.021   6.122  2.6827  2.2626 -1.0146
  383MOL0     H52822   6.611   5.963   5.812 -2.1599 -1.0713  0.2412
  383MOL0     H52823   6.619   5.840   5.937 -0.8794 -0.4169  0.0461
  383MOL0     H52824   6.793   5.968   6.049  0.0888 -0.6570  0.2795
  383MOL0     H52825   6.806   6.095   5.927 -2.3450  1.3509  1.5488
  383MOL0     H52826   6.849   5.802   5.861  0.1764 -0.9893 -1.2931
  383MOL0     H52827   6.891   5.953   5.760 -1.6645 -1.5805 -0.6781
  383MOL0     H52828   7.027   5.839   6.018 -1.9932  0.3989 -0.5036
  383MOL0     H52829   7.065   5.992   5.954 -0.6627  1.3661 -0.9839
  383MOL0     H52830   7.126   5.875   5.736 -1.2873  2.0494  0.3663
  383MOL0     H52831   7.085   5.722   5.810  1.9008 -0.3607  1.2067
  383MOL0     H52832   7.312   5.909   5.899 -1.1600  0.2415 -2.9375
  383MOL0     H52833   7.327   5.769   5.803 -0.5709  2.0577 -2.6211
  383MOL0     H52834   6.172   5.940   6.182  1.3525  0.5697 -0.7809
  383MOL0     H52835   5.950   5.863   6.133 -1.5135  0.5741 -1.8911
  383MOL0     H52836   5.665   5.751   5.780 -0.7518 -1.7000 -1.1340
  383MOL0     H52837   5.430   5.818   5.781  0.1391  1.0939  0.2217
  383MOL0     H52838   3.442   6.177   6.569 -0.8467 -1.4542 -2.4487
  383MOL0     H52839   3.241   6.234   6.681  1.2485  0.6439  1.9335
  383MOL0     H52840   2.887   6.231   6.846  0.7055  0.5974  1.2574
  383MOL0     H52841   2.665   6.316   6.919  1.0505 -0.3856 -2.0895
  383MOL0     H52842   2.507   6.139   7.294  1.4149  3.3308 -0.9407
  383MOL0     H52843   2.368   6.233   7.244  1.5206  1.2803 -0.3248
  383MOL0     H52844   2.312   5.996   7.253 -0.3204  1.4940  0.0684
  383MOL0     H52845   2.438   5.960   7.129 -1.4691  0.5603 -3.2530
  383MOL0     H52846   2.183   6.134   7.092 -0.5979  0.4563 -0.9162
  383MOL0     H52847   2.286   6.092   6.961 -4.1133 -2.4060 -1.5962
  383MOL0     H52848   2.155   5.880   7.152  0.5613 -0.7827 -0.1467
  383MOL0     H52849   2.242   5.834   7.004 -0.1630 -0.1944 -0.4654
  383MOL0     H52850   1.889   5.940   6.816  2.5843 -0.4416 -3.4096
  383MOL0     H52851   2.651   5.996   7.205 -0.8444 -0.5383 -1.3142
  383MOL0     H52852   2.901   5.783   7.072  2.7111 -1.6847  2.5227
  383MOL0     H52853   2.972   5.882   7.198  1.1559 -1.1445 -0.7297
  383MOL0     H52854   2.817   5.819   7.221 -1.8368  0.4930 -1.1378
  384MOL0     O52855   5.830   1.854   2.050 -0.4236  0.7087 -0.2840
  384MOL0     C52856   5.716   1.814   2.094 -0.4221  0.4035  0.3719
  384MOL0     O52857   5.709   1.727   2.205  0.1450 -0.5497  0.8353
  384MOL0     C52858   5.823   1.711   2.276 -0.2133  0.2547 -0.4399
  384MOL0     C52859   5.823   1.744   2.414  0.0189 -0.4401 -1.1009
  384MOL0     C52860   5.939   1.729   2.493  0.1318 -0.3925 -0.1094
  384MOL0     C52861   6.054   1.673   2.443  1.0587  0.7750 -0.2574
  384MOL0     O52862   6.168   1.668   2.518 -0.5977  0.1259 -0.0016
  384MOL0     C52863   6.251   1.557   2.496  0.7682 -0.4917  0.0682
  384MOL0     C52864   6.341   1.551   2.613 -0.9351  0.7850 -0.4192
  384MOL0     C52865   6.446   1.436   2.595  0.2532  0.2853 -0.2226
  384MOL0     C52866   6.539   1.435   2.717 -0.2535 -0.2097  0.3075
  384MOL0     C52867   6.654   1.329   2.711 -0.3489  1.0589 -0.1284
  384MOL0     C52868   6.750   1.331   2.825 -0.1817 -0.6394 -0.6264
  384MOL0     C52869   6.836   1.205   2.822 -0.7983 -0.3622 -1.2680
  384MOL0     C52870   6.916   1.191   2.954  0.3673 -0.3895  0.8232
  384MOL0     N52871   7.057   1.206   2.918  0.1253 -0.2693  0.5844
  384MOL0     C52872   7.131   1.316   2.945 -0.9149 -0.1249 -0.0794
  384MOL0     C52873   7.257   1.290   2.893  0.3004  0.6334  0.2754
  384MOL0     C52874   7.379   1.375   2.883 -0.7209 -0.9707 -0.6684
  384MOL0     C52875   7.458   1.399   3.007  0.5924 -0.0589  1.1073
  384MOL0     C52876   7.371   1.444   3.118 -0.1814 -0.3070  0.0264
  384MOL0     C52877   7.445   1.544   3.201  0.2281 -0.5697 -0.0718
  384MOL0     O52878   7.554   1.475   3.266 -0.1928 -0.0555  1.0147
  384MOL0     C52879   7.658   1.539   3.333  1.2555 -0.0515  0.6098
  384MOL0     C52880   7.663   1.676   3.356  0.4136 -0.4551 -0.5381
  384MOL0     C52881   7.763   1.732   3.438  0.4253  1.1269  0.4127
  384MOL0     C52882   7.755   1.872   3.473  0.5636 -0.1698  0.3974
  384MOL0     C52883   7.865   1.644   3.497 -0.2804 -0.7053 -0.8101
  384MOL0     C52884   7.983   1.689   3.581 -0.1693 -1.1334  0.1032
  384MOL0     O52885   7.999   1.616   3.692  0.3996 -0.8319 -0.3243
  384MOL0     C52886   8.105   1.647   3.772  1.0811 -0.3923  0.2771
  384MOL0     C52887   8.222   1.574   3.754 -0.1978  0.3016  0.6374
  384MOL0     C52888   8.342   1.611   3.828  0.0272 -0.3198 -0.2998
  384MOL0     C52889   8.334   1.727   3.904  0.0261  0.3215  0.3100
  384MOL0     O52890   8.435   1.767   3.990  0.0775 -0.2624  0.4994
  384MOL0     C52891   8.554   1.691   4.001  0.4087  0.9800  0.0394
  384MOL0     C52892   8.662   1.716   3.895 -0.0872  0.1481 -0.1566
  384MOL0     C52893   8.804   1.688   3.940  0.2566 -0.2493  1.2495
  384MOL0     C52894   8.907   1.747   3.847 -0.3424 -0.4655 -0.2229
  384MOL0     C52895   9.049   1.747   3.899 -0.9477 -0.4982 -0.6707
  384MOL0     C52896   9.161   1.809   3.809  0.5014  0.6892 -0.0451
  384MOL0     C52897   9.166   1.750   3.665  0.1456 -0.3138 -0.1778
  384MOL0     C52898   9.251   1.845   3.578 -0.2226  0.1140  0.5647
  384MOL0    Cl52899   9.419   1.865   3.635 -0.0446 -0.1752  0.4055
  384MOL0     C52900   8.222   1.807   3.911 -0.4792  0.3259  0.7742
  384MOL0     C52901   8.104   1.770   3.840 -0.3892 -0.0369 -1.1359
  384MOL0     O52902   8.044   1.784   3.553 -0.8181 -0.4014 -0.2126
  384MOL0     C52903   7.850   1.510   3.475 -1.1955  0.3068  0.0542
  384MOL0     C52904   7.755   1.463   3.387 -0.3796 -0.8334  0.5846
  384MOL0     N52905   7.251   1.164   2.840  0.3309  0.4435  0.0655
  384MOL0     N52906   7.135   1.118   2.857 -0.4543 -0.1501 -0.5227
  384MOL0     C52907   6.055   1.630   2.313  0.7732 -0.3335  0.7352
  384MOL0     C52908   5.947   1.658   2.232  1.3103  0.4266  0.0031
  384MOL0     C52909   5.597   1.843   2.015  0.7231  0.1818 -0.4685
  384MOL0     C52910   5.485   1.762   2.013  0.1132 -0.3442  0.0318
  384MOL0     C52911   5.374   1.786   1.929 -0.9624 -0.1815  0.4976
  384MOL0     C52912   5.381   1.895   1.844  0.2211  0.5105 -1.3763
  384MOL0     O52913   5.273   1.925   1.772 -0.3011  0.8549  0.7232
  384MOL0     C52914   5.150   1.839   1.756 -0.3531  0.5117  0.0642
  384MOL0     C52915   5.045   1.923   1.673 -0.0699  1.0008 -0.8719
  384MOL0     C52916   5.009   2.053   1.731 -0.9083  0.6605  0.5773
  384MOL0     C52917   4.903   2.037   1.841  0.7526  1.1846  0.1914
  384MOL0     C52918   4.832   2.152   1.890 -0.1633  0.2588  0.0398
  384MOL0     C52919   4.771   2.250   1.895 -0.0357  0.2038 -0.2766
  384MOL0     C52920   5.476   1.987   1.851 -0.4039  0.0992  0.0130
  384MOL0     C52921   5.580   1.967   1.943  0.3193 -0.3148 -0.7146
  384MOL0     C52922   5.679   2.082   1.949  0.8801  0.3991  0.0330
  384MOL0     H52923   5.735   1.788   2.460 -0.3074  0.1095 -2.2002
  384MOL0     H52924   5.939   1.764   2.596  0.9326 -1.9214  0.4337
  384MOL0     H52925   6.313   1.570   2.407  0.4283  1.7107  0.0956
  384MOL0     H52926   6.185   1.470   2.496  0.2474 -0.1196 -1.2626
  384MOL0     H52927   6.399   1.644   2.625 -0.1374  0.2582 -0.0797
  384MOL0     H52928   6.283   1.549   2.706  2.2134  1.8184  1.7859
  384MOL0     H52929   6.400   1.337   2.590 -1.3382  1.0486 -2.1246
  384MOL0     H52930   6.507   1.453   2.506  1.4749  2.5526  0.9649
  384MOL0     H52931   6.586   1.533   2.733 -0.9541  0.9560 -3.6300
  384MOL0     H52932   6.483   1.416   2.809 -0.7608  0.0555  0.0622
  384MOL0     H52933   6.710   1.338   2.617 -2.1824 -0.8008 -1.4987
  384MOL0     H52934   6.595   1.237   2.705 -2.4040  2.2731  0.6119
  384MOL0     H52935   6.818   1.415   2.810  0.3424 -1.1233 -1.0425
  384MOL0     H52936   6.692   1.329   2.917  0.3349 -0.8495 -0.3010
  384MOL0     H52937   6.906   1.222   2.740 -1.2518  1.9103 -1.2513
  384MOL0     H52938   6.780   1.115   2.796  2.5922 -2.4027 -2.0418
  384MOL0     H52939   6.883   1.257   3.035  0.5772  0.6803  0.0561
  384MOL0     H52940   6.900   1.090   2.991 -0.2914 -0.5791  0.0466
  384MOL0     H52941   7.117   1.410   2.996 -1.1442  0.9410 -2.0251
  384MOL0     H52942   7.335   1.470   2.852  0.8179 -0.2521 -0.7230
  384MOL0     H52943   7.446   1.343   2.803 -0.5387  2.6763 -2.1811
  384MOL0     H52944   7.505   1.311   3.052  1.1982  0.4805  1.5502
  384MOL0     H52945   7.523   1.484   2.986  0.2085 -0.4378 -2.1477
  384MOL0     H52946   7.286   1.500   3.079 -0.6445 -0.9964  0.0154
  384MOL0     H52947   7.335   1.363   3.183  4.1865  0.3725  3.8172
  384MOL0     H52948   7.484   1.633   3.152 -3.6830  0.7722 -1.1255
  384MOL0     H52949   7.372   1.592   3.267  1.0711 -1.0563  1.2483
  384MOL0     H52950   7.584   1.739   3.317 -0.8850 -1.6187  0.1244
  384MOL0     H52951   7.673   1.920   3.419 -1.3390 -2.7009  0.8752
  384MOL0     H52952   7.847   1.919   3.436 -1.8894  4.5577 -0.5231
  384MOL0     H52953   7.748   1.890   3.580  2.5012 -0.3919  0.5949
  384MOL0     H52954   8.216   1.476   3.708  0.0024  0.1738  0.8854
  384MOL0     H52955   8.428   1.544   3.825  0.0367 -0.3311  0.1600
  384MOL0     H52956   8.602   1.724   4.094  1.6726 -2.1679  0.6555
  384MOL0     H52957   8.532   1.584   4.006 -2.7234  1.5034 -0.3644
  384MOL0     H52958   8.637   1.659   3.805 -2.8293  0.7055  0.1694
  384MOL0     H52959   8.657   1.821   3.867 -0.5903  0.0177 -0.5567
  384MOL0     H52960   8.824   1.581   3.949 -3.4425 -1.6812 -3.0889
  384MOL0     H52961   8.825   1.735   4.036  0.7144  1.1202  0.4997
  384MOL0     H52962   8.869   1.848   3.836 -1.5413 -1.0500 -1.7770
  384MOL0     H52963   8.907   1.686   3.756  1.1618  0.2466 -0.7380
  384MOL0     H52964   9.056   1.786   4.001 -0.9170 -1.2208 -0.3884
  384MOL0     H52965   9.074   1.640   3.899  3.3924  0.3243 -1.8393
  384MOL0     H52966   9.253   1.786   3.863 -0.7672 -0.1924  1.8337
  384MOL0     H52967   9.140   1.916   3.797  2.6683  1.0547 -1.1143
  384MOL0     H52968   9.067   1.751   3.618 -0.7237  0.0188  1.5915
  384MOL0     H52969   9.195   1.644   3.669  1.5288  0.0085  4.9590
  384MOL0     H52970   9.202   1.943   3.578 -1.0021 -0.1823  3.5342
  384MOL0     H52971   9.252   1.807   3.476  1.5896  1.3056  0.0851
  384MOL0     H52972   8.214   1.891   3.980  0.6447  3.0969 -2.1959
  384MOL0     H52973   8.023   1.842   3.849  1.2976  1.8335  0.2522
  384MOL0     H52974   7.908   1.430   3.520 -0.9756  1.0392  1.1111
  384MOL0     H52975   7.746   1.357   3.364  0.2523 -1.0135  1.1293
  384MOL0     H52976   6.136   1.576   2.265 -0.5920  1.1149 -3.6807
  384MOL0     H52977   5.952   1.613   2.134  0.4443  1.8555 -0.7290
  384MOL0     H52978   5.486   1.672   2.074 -2.5833  0.5527  1.5963
  384MOL0     H52979   5.289   1.719   1.941  1.0897 -3.0905 -0.1468
  384MOL0     H52980   5.176   1.744   1.708 -1.2206 -0.7447  1.9890
  384MOL0     H52981   5.109   1.818   1.855 -1.7488  0.0878 -0.5780
  384MOL0     H52982   4.954   1.864   1.673 -1.2624  2.7292  0.6268
  384MOL0     H52983   5.088   1.936   1.573 -0.4071 -2.3520 -1.5774
  384MOL0     H52984   5.100   2.086   1.783 -1.9205  1.5123  1.8837
  384MOL0     H52985   4.982   2.132   1.660 -0.5169  1.6672  1.5110
  384MOL0     H52986   4.957   1.996   1.926  0.6359  0.7764  0.0739
  384MOL0     H52987   4.836   1.963   1.796  0.5752  1.6042 -0.2524
  384MOL0     H52988   4.713   2.340   1.896  0.1285  0.3209  1.3041
  384MOL0     H52989   5.476   2.072   1.784 -0.1231  0.5806  0.6149
  384MOL0     H52990   5.705   2.096   2.054  1.5987  0.3696 -0.1343
  384MOL0     H52991   5.770   2.052   1.895  0.3050 -0.7186 -0.3332
  384MOL0     H52992   5.633   2.175   1.914 -1.3784  0.1943  2.2230
  385MOL0     O52993   4.441   0.155   8.115  0.7404 -0.8248 -0.1024
  385MOL0     C52994   4.505   0.071   8.181  0.4242  1.2291  0.4632
  385MOL0     O52995   4.489   0.050   8.311  0.1458  0.0885  0.2914
  385MOL0     C52996   4.377   0.115   8.366 -0.1404  0.1873  0.5204
  385MOL0     C52997   4.267   0.033   8.367  0.6091  0.0696 -1.3312
  385MOL0     C52998   4.148   0.085   8.428 -0.4448 -0.5266  0.7042
  385MOL0     C52999   4.149   0.219   8.477  0.6725  0.4386  0.1319
  385MOL0     O53000   4.043   0.286   8.540 -0.0024  0.0526 -0.0755
  385MOL0     C53001   3.952   0.215   8.632  0.2119  0.1104  0.1983
  385MOL0     C53002   3.822   0.181   8.552 -1.2777 -0.1152 -0.2490
  385MOL0     C53003   3.721   0.290   8.548 -0.2409 -0.3915  0.0402
  385MOL0     C53004   3.581   0.243   8.496  0.9415  0.2496 -0.1034
  385MOL0     C53005   3.467   0.349   8.514  0.1394 -0.2202  0.8410
  385MOL0     C53006   3.335   0.307   8.453 -0.2883  0.4036 -0.0811
  385MOL0     C53007   3.233   0.430   8.446  0.8939  0.1119  0.3248
  385MOL0     C53008   3.163   0.476   8.574 -0.6836 -0.2203 -1.3166
  385MOL0     N53009   3.057   0.571   8.571 -0.6456  0.0760  0.2631
  385MOL0     C53010   2.942   0.557   8.495 -0.4720  0.0312 -0.3702
  385MOL0     C53011   2.873   0.668   8.524  0.9268  0.3624  0.4776
  385MOL0     C53012   2.750   0.722   8.461 -0.0079  0.6981 -0.1828
  385MOL0     C53013   2.755   0.871   8.425 -0.1296  0.5776 -0.5375
  385MOL0     C53014   2.846   0.908   8.310 -0.6859  0.0212 -0.0336
  385MOL0     C53015   2.995   0.886   8.340 -0.0973 -0.1090  0.3181
  385MOL0     O53016   3.086   0.953   8.252  0.2830 -0.6264 -0.2421
  385MOL0     C53017   3.219   0.934   8.280  0.9293  1.1330  0.4188
  385MOL0     C53018   3.315   0.973   8.181  1.0835 -0.5347 -0.1930
  385MOL0     C53019   3.458   0.950   8.195  0.2932 -0.2966 -0.5963
  385MOL0     C53020   3.540   0.995   8.079  0.1368 -0.3995  0.1843
  385MOL0     C53021   3.504   0.867   8.307  0.2843  0.4156 -0.2129
  385MOL0     C53022   3.641   0.824   8.339  0.6028  0.4691  0.7182
  385MOL0     O53023   3.730   0.799   8.238 -0.3874 -0.7348  0.2310
  385MOL0     C53024   3.858   0.771   8.285  0.5971 -1.1095  0.5334
  385MOL0     C53025   3.954   0.879   8.303  0.3440 -0.3548 -0.0776
  385MOL0     C53026   4.072   0.857   8.363 -0.2748  0.4973 -0.0334
  385MOL0     C53027   4.109   0.726   8.402 -0.0164  0.4073 -0.7121
  385MOL0     O53028   4.227   0.702   8.471  0.0745  0.0554  0.2959
  385MOL0     C53029   4.347   0.731   8.395  0.4922 -0.0271  0.0114
  385MOL0     C53030   4.403   0.603   8.334  0.3779 -0.1260  0.1585
  385MOL0     C53031   4.540   0.628   8.278  0.0397 -0.3496 -0.0910
  385MOL0     C53032   4.617   0.505   8.224  0.7277 -0.4742  0.4342
  385MOL0     C53033   4.765   0.518   8.192 -0.8487 -0.5248  0.3568
  385MOL0     C53034   4.812   0.396   8.111  0.0936  0.9359  0.4180
  385MOL0     C53035   4.962   0.375   8.106  0.0678  0.2562  0.1315
  385MOL0     C53036   5.004   0.227   8.108 -0.6253 -0.1274  0.8470
  385MOL0    Cl53037   5.174   0.193   8.039 -0.4290 -0.2867  0.4568
  385MOL0     C53038   4.016   0.619   8.390  0.4580 -0.2350 -0.0689
  385MOL0     C53039   3.889   0.644   8.336 -0.1055  0.2779  0.1210
  385MOL0     O53040   3.666   0.827   8.461  0.3860 -0.1307 -0.0455
  385MOL0     C53041   3.407   0.828   8.401 -0.8963 -0.2053  0.6274
  385MOL0     C53042   3.273   0.861   8.392  0.7361 -0.2134 -0.1029
  385MOL0     N53043   2.939   0.741   8.623  0.3159  0.4226  0.8399
  385MOL0     N53044   3.055   0.684   8.648 -0.0642  0.0751  0.1406
  385MOL0     C53045   4.273   0.290   8.482  0.7329  0.3679 -0.7778
  385MOL0     C53046   4.388   0.239   8.437  0.5468 -0.1899 -0.5160
  385MOL0     C53047   4.622  -0.008   8.128 -1.0186 -0.2289  1.0556
  385MOL0     C53048   4.734  -0.012   8.219 -0.8091 -0.2505  0.2429
  385MOL0     C53049   4.855  -0.076   8.178 -0.1561  0.6734 -0.3076
  385MOL0     C53050   4.857  -0.144   8.050  0.1906 -0.3882 -0.4115
  385MOL0     O53051   4.971  -0.205   8.005 -0.3309 -0.3605 -0.6802
  385MOL0     C53052   5.097  -0.186   8.081 -0.4175 -0.2917 -0.1829
  385MOL0     C53053   5.214  -0.249   8.003 -0.0504  0.0022 -0.1234
  385MOL0     C53054   5.354  -0.215   8.060  0.3332 -0.1061  0.6684
  385MOL0     C53055   5.463  -0.254   7.957  0.0515  0.2257  0.9657
  385MOL0     C53056   5.488  -0.396   7.931  0.4193  1.1147  0.5495
  385MOL0     C53057   5.505  -0.517   7.924 -0.1739 -0.2968  0.2812
  385MOL0     C53058   4.743  -0.143   7.968 -0.6769 -0.1550 -0.6181
  385MOL0     C53059   4.624  -0.085   8.011  0.3245  0.0730  0.5402
  385MOL0     C53060   4.501  -0.099   7.922  0.6079 -0.3170 -0.4708
  385MOL0     H53061   4.255  -0.063   8.318  1.9290 -0.2506 -1.0692
  385MOL0     H53062   4.070   0.010   8.438 -0.3740 -0.8433 -0.9183
  385MOL0     H53063   3.922   0.279   8.716 -1.7055  0.2259 -0.5292
  385MOL0     H53064   3.995   0.122   8.670 -2.5047 -0.9130  1.0252
  385MOL0     H53065   3.853   0.154   8.450 -1.3132 -0.5285 -0.1546
  385MOL0     H53066   3.782   0.092   8.601  1.8794 -1.7303 -0.3071
  385MOL0     H53067   3.712   0.323   8.652  2.1471  0.8462 -0.0700
  385MOL0     H53068   3.760   0.375   8.491  1.0532  0.2574  1.7733
  385MOL0     H53069   3.607   0.235   8.390 -0.3477 -0.6206 -0.3673
  385MOL0     H53070   3.565   0.139   8.526  1.6258 -0.8339 -3.1680
  385MOL0     H53071   3.500   0.441   8.465 -1.7934 -0.2658 -0.6963
  385MOL0     H53072   3.449   0.351   8.622  1.7411 -2.1543  1.2017
  385MOL0     H53073   3.350   0.260   8.355  0.4119 -0.5663  0.4705
  385MOL0     H53074   3.289   0.225   8.509  1.2005 -1.6959 -1.7578
  385MOL0     H53075   3.153   0.391   8.383  0.2127  3.1787 -0.8615
  385MOL0     H53076   3.286   0.504   8.385  0.2650 -0.6806 -1.2226
  385MOL0     H53077   3.125   0.384   8.620 -1.0037  0.1369 -0.8631
  385MOL0     H53078   3.242   0.513   8.640  0.8229 -2.1530 -1.9208
  385MOL0     H53079   2.915   0.475   8.430 -0.2266  1.0054 -1.7459
  385MOL0     H53080   2.670   0.712   8.535  0.3622 -2.1910 -0.0651
  385MOL0     H53081   2.722   0.659   8.376 -1.3652 -0.8687  1.3259
  385MOL0     H53082   2.654   0.902   8.396  0.2396 -0.4228 -3.1590
  385MOL0     H53083   2.789   0.925   8.514  1.2841 -2.8648  1.1862
  385MOL0     H53084   2.826   0.863   8.212  2.1366  3.1997 -2.2900
  385MOL0     H53085   2.817   1.012   8.295 -0.4225 -0.0776 -1.3714
  385MOL0     H53086   3.013   0.922   8.441  0.1261  2.1198 -0.4647
  385MOL0     H53087   3.024   0.781   8.325  1.3432  0.3121  0.0001
  385MOL0     H53088   3.276   1.030   8.098 -1.0789 -2.0349 -0.2908
  385MOL0     H53089   3.484   0.980   7.987  1.7367  2.5438 -1.4183
  385MOL0     H53090   3.629   0.934   8.061 -1.5364 -3.0886  0.4957
  385MOL0     H53091   3.564   1.101   8.093 -0.5747 -0.3696  1.2529
  385MOL0     H53092   3.933   0.980   8.270  0.2617 -0.2105  0.4019
  385MOL0     H53093   4.144   0.935   8.384  3.0435 -1.7750 -2.0113
  385MOL0     H53094   4.331   0.804   8.316  0.1375  1.1703  1.1628
  385MOL0     H53095   4.420   0.768   8.468  1.3070 -3.1105  0.8996
  385MOL0     H53096   4.418   0.529   8.413  1.6574  0.1540  0.1931
  385MOL0     H53097   4.334   0.564   8.258  0.1332  1.1123 -0.2684
  385MOL0     H53098   4.596   0.679   8.357 -0.2705  0.4407 -0.3811
  385MOL0     H53099   4.538   0.698   8.194  1.1066  0.3690  0.4658
  385MOL0     H53100   4.562   0.469   8.136  0.3482  0.3343  0.3356
  385MOL0     H53101   4.599   0.443   8.312  1.3360 -1.9932 -0.4721
  385MOL0     H53102   4.769   0.603   8.124  2.8371 -1.0463 -0.2765
  385MOL0     H53103   4.823   0.547   8.279 -0.3123  1.1440 -0.5219
  385MOL0     H53104   4.773   0.398   8.009  1.2429  3.5171 -0.0519
  385MOL0     H53105   4.775   0.308   8.164  1.8633  0.3172  0.7143
  385MOL0     H53106   5.007   0.422   8.194 -0.8350 -2.0604  1.9633
  385MOL0     H53107   5.003   0.415   8.013  0.1674  1.5210  0.7042
  385MOL0     H53108   4.932   0.169   8.049 -0.0549  1.5113 -1.5725
  385MOL0     H53109   4.996   0.195   8.213  0.7255  2.6577  1.8979
  385MOL0     H53110   4.025   0.519   8.430 -0.3022  0.5294  2.1936
  385MOL0     H53111   3.823   0.559   8.323 -0.3653  0.4569  0.2490
  385MOL0     H53112   3.430   0.780   8.495 -2.3844  0.1644  1.2117
  385MOL0     H53113   3.214   0.829   8.476  1.3437 -1.3899 -0.1129
  385MOL0     H53114   4.270   0.384   8.536  1.1189 -0.2329  0.3024
  385MOL0     H53115   4.478   0.298   8.452  0.8508 -1.2649  2.5086
  385MOL0     H53116   4.743   0.046   8.310  1.9546  1.0533 -0.7355
  385MOL0     H53117   4.937  -0.072   8.249 -1.4036  1.8131  1.0990
  385MOL0     H53118   5.131  -0.084   8.101 -1.4591  0.1082 -0.3896
  385MOL0     H53119   5.077  -0.226   8.181  1.1051  2.3416  1.2887
  385MOL0     H53120   5.207  -0.216   7.899 -0.2482 -0.9643 -0.4288
  385MOL0     H53121   5.193  -0.356   8.011 -4.2379  0.7703  3.7875
  385MOL0     H53122   5.360  -0.106   8.071 -1.9706  0.4410 -2.1363
  385MOL0     H53123   5.366  -0.270   8.153 -3.0172 -1.4694  0.4205
  385MOL0     H53124   5.553  -0.210   7.999  0.8789 -1.8492  1.4904
  385MOL0     H53125   5.446  -0.216   7.856  1.7583 -1.8229 -0.1826
  385MOL0     H53126   5.525  -0.622   7.938  1.4759  0.1770  1.7941
  385MOL0     H53127   4.739  -0.207   7.881 -0.4104 -2.3081  0.8619
  385MOL0     H53128   4.415  -0.088   7.989  0.3203  1.9423 -1.1268
  385MOL0     H53129   4.498  -0.027   7.840 -1.1516 -2.3992 -2.3848
  385MOL0     H53130   4.505  -0.203   7.889  2.1439 -0.7083  0.8300
  386MOL0     O53131   8.641   5.994   8.105 -0.7043 -0.4554  0.4140
  386MOL0     C53132   8.629   6.021   8.226 -0.0389  0.0618 -0.3420
  386MOL0     O53133   8.698   5.966   8.329  0.4055 -0.4386  0.6814
  386MOL0     C53134   8.781   5.870   8.299  0.2594  0.7495  0.2085
  386MOL0     C53135   8.727   5.746   8.267 -0.3429  0.1904 -0.2051
  386MOL0     C53136   8.813   5.640   8.238  0.2054 -0.6611  0.1894
  386MOL0     C53137   8.955   5.663   8.245  0.1756  0.4673  0.2630
  386MOL0     O53138   9.036   5.551   8.228 -0.6716  0.3467 -0.0510
  386MOL0     C53139   9.162   5.576   8.172 -0.0377 -0.6955  0.7837
  386MOL0     C53140   9.253   5.454   8.171 -0.6271  0.1973  0.0644
  386MOL0     C53141   9.388   5.493   8.102  0.1270 -0.4032 -1.0263
  386MOL0     C53142   9.488   5.385   8.093 -0.3636 -0.2298 -0.7089
  386MOL0     C53143   9.598   5.425   7.994  0.0365 -0.2140  0.6502
  386MOL0     C53144   9.678   5.550   8.025 -0.3002 -1.5930  0.6893
  386MOL0     C53145   9.827   5.542   7.983 -0.4562  0.1191 -0.5282
  386MOL0     C53146   9.842   5.523   7.831  0.1985  0.4423  0.6111
  386MOL0     N53147   9.973   5.500   7.777 -0.5276  0.4265 -0.9132
  386MOL0     C53148  10.052   5.388   7.800 -0.2699  0.1138 -0.5894
  386MOL0     C53149  10.153   5.386   7.706 -0.9885  0.0590 -0.1243
  386MOL0     C53150  10.252   5.276   7.694  0.1408 -0.0818  0.1504
  386MOL0     C53151  10.391   5.327   7.698 -0.4322 -0.5798 -0.2495
  386MOL0     C53152  10.438   5.362   7.835  0.5167  0.4992  0.3166
  386MOL0     C53153  10.551   5.470   7.835 -0.0279 -0.6105 -0.9563
  386MOL0     O53154  10.676   5.406   7.809  0.0259 -0.1627 -0.1201
  386MOL0     C53155  10.784   5.486   7.772  0.5169  0.1425 -1.1949
  386MOL0     C53156  10.858   5.475   7.657  0.4408  0.4608 -0.4153
  386MOL0     C53157  10.963   5.560   7.624  0.2378  0.3884  0.0965
  386MOL0     C53158  11.048   5.538   7.495  0.2800 -0.1273 -0.0550
  386MOL0     C53159  10.997   5.660   7.724 -0.9410 -0.5568  0.4166
  386MOL0     C53160  11.098   5.767   7.711  0.0317 -0.6397  0.0072
  386MOL0     O53161  11.145   5.814   7.834 -0.3437 -0.3678 -0.4572
  386MOL0     C53162  11.246   5.904   7.840  0.0722  0.5523  0.0421
  386MOL0     C53163  11.371   5.865   7.901 -0.1707  0.2137  0.9991
  386MOL0     C53164  11.483   5.950   7.899  0.2311 -0.5727  0.7354
  386MOL0     C53165  11.474   6.081   7.851 -0.0433 -0.0222 -0.2477
  386MOL0     O53166  11.581   6.163   7.873  0.2217 -0.2445 -0.1154
  386MOL0     C53167  11.557   6.304   7.866 -0.3327  0.1685  0.3710
  386MOL0     C53168  11.678   6.374   7.929 -0.2795  0.4659 -0.2565
  386MOL0     C53169  11.674   6.522   7.907 -0.4505  0.1038  0.4125
  386MOL0     C53170  11.655   6.600   8.041  0.1330 -0.2128 -0.7044
  386MOL0     C53171  11.521   6.572   8.115 -0.0667 -0.4771 -0.2984
  386MOL0     C53172  11.509   6.655   8.250  0.1875  0.2049  0.7423
  386MOL0     C53173  11.487   6.807   8.243 -0.2314 -0.7808 -0.8601
  386MOL0     C53174  11.372   6.862   8.167 -0.7617 -0.7059 -0.4673
  386MOL0    Cl53175  11.410   6.891   7.993  0.0041  0.2641  0.0003
  386MOL0     C53176  11.349   6.122   7.797 -0.3846  0.2694  0.6389
  386MOL0     C53177  11.241   6.035   7.788  0.5063  1.2797 -0.4618
  386MOL0     O53178  11.146   5.790   7.603  0.4085  0.0838  0.2275
  386MOL0     C53179  10.927   5.659   7.843 -0.2514 -0.5390  0.5164
  386MOL0     C53180  10.822   5.581   7.861  0.0852 -0.1531 -0.8607
  386MOL0     N53181  10.143   5.510   7.636  0.5348  0.4775 -1.3649
  386MOL0     N53182  10.029   5.569   7.676  0.1654 -0.3338 -0.2341
  386MOL0     C53183   9.008   5.795   8.262  0.0798  0.4041 -0.1458
  386MOL0     C53184   8.917   5.895   8.298  0.1458 -0.2695 -0.7163
  386MOL0     C53185   8.516   6.090   8.278 -0.8307 -0.7078  0.0133
  386MOL0     C53186   8.535   6.228   8.311  0.2025 -0.0711  0.3706
  386MOL0     C53187   8.428   6.312   8.340 -0.9439 -0.7363 -0.0484
  386MOL0     C53188   8.300   6.261   8.354 -0.7194 -0.5607  0.7683
  386MOL0     O53189   8.183   6.327   8.391 -0.5440  0.1151  0.4973
  386MOL0     C53190   8.185   6.460   8.437  0.6258 -0.1803 -0.7135
  386MOL0     C53191   8.043   6.497   8.485  0.8322 -0.0190  0.5734
  386MOL0     C53192   7.998   6.391   8.596 -0.1249 -0.5618  0.7163
  386MOL0     C53193   7.987   6.448   8.736  0.2840  0.2028 -0.4420
  386MOL0     C53194   7.917   6.352   8.830 -0.0184 -0.1641 -0.0167
  386MOL0     C53195   7.861   6.270   8.901  1.0689 -0.1719 -0.1720
  386MOL0     C53196   8.287   6.126   8.327  0.1519  0.7476  0.3157
  386MOL0     C53197   8.388   6.037   8.286 -0.8247  0.3130 -0.5893
  386MOL0     C53198   8.363   5.885   8.267 -0.1199  0.5062 -0.8274
  386MOL0     H53199   8.621   5.725   8.257  0.0761 -3.0408  0.8138
  386MOL0     H53200   8.776   5.547   8.197  0.4899 -0.1883 -1.2101
  386MOL0     H53201   9.218   5.637   8.243  0.6145 -0.3516 -0.0129
  386MOL0     H53202   9.155   5.628   8.076 -1.0073  0.1602  1.3008
  386MOL0     H53203   9.271   5.415   8.272  2.4135 -0.3899 -0.5927
  386MOL0     H53204   9.187   5.390   8.113 -1.5006 -0.6525  1.9271
  386MOL0     H53205   9.357   5.527   8.003 -2.0302 -2.3847 -1.1268
  386MOL0     H53206   9.445   5.574   8.148  0.4094 -1.2791  0.2132
  386MOL0     H53207   9.544   5.371   8.186  1.9956  1.2082 -1.8336
  386MOL0     H53208   9.440   5.291   8.063 -2.6035  0.3786  0.7494
  386MOL0     H53209   9.553   5.433   7.895 -0.4210 -1.6676  0.7237
  386MOL0     H53210   9.666   5.341   7.980 -0.3169 -0.6002  1.2725
  386MOL0     H53211   9.637   5.637   7.972  0.6734 -1.0261  0.8357
  386MOL0     H53212   9.680   5.579   8.130 -2.3243 -0.0311  0.3533
  386MOL0     H53213   9.866   5.450   8.029  0.1915  0.5409 -0.2267
  386MOL0     H53214   9.888   5.625   8.018 -0.4505 -0.1636  0.1577
  386MOL0     H53215   9.777   5.438   7.805  1.6527 -0.0294 -1.8577
  386MOL0     H53216   9.798   5.608   7.778 -1.5170 -0.6981  0.1079
  386MOL0     H53217  10.032   5.307   7.869 -2.0418  0.7776 -0.2882
  386MOL0     H53218  10.235   5.228   7.597 -1.5881  1.6008 -0.4201
  386MOL0     H53219  10.227   5.207   7.775 -2.3431  1.5238  0.8439
  386MOL0     H53220  10.458   5.245   7.672 -0.5826 -0.4041 -1.2241
  386MOL0     H53221  10.402   5.416   7.635  1.2686  0.7454  1.7782
  386MOL0     H53222  10.348   5.403   7.881 -0.9564 -1.4204 -0.7369
  386MOL0     H53223  10.464   5.275   7.896  0.7200  2.2030  2.7801
  386MOL0     H53224  10.540   5.546   7.757  0.0697 -0.0520 -0.4333
  386MOL0     H53225  10.559   5.528   7.927 -0.4379  1.8233 -2.3538
  386MOL0     H53226  10.816   5.397   7.594 -1.9766  1.7417 -0.5093
  386MOL0     H53227  10.999   5.470   7.424  0.3327 -1.1825  0.8970
  386MOL0     H53228  11.141   5.491   7.529  0.6201  0.8597  0.4239
  386MOL0     H53229  11.067   5.633   7.444 -0.6514 -0.0542 -0.2883
  386MOL0     H53230  11.387   5.769   7.949 -0.5152 -0.8900 -1.0129
  386MOL0     H53231  11.582   5.925   7.937  1.1983 -1.0255 -1.8921
  386MOL0     H53232  11.548   6.345   7.765 -1.8870  0.0592  0.4530
  386MOL0     H53233  11.468   6.334   7.922 -0.5179 -1.7496  1.1739
  386MOL0     H53234  11.687   6.349   8.035 -0.2934  4.3284  0.7978
  386MOL0     H53235  11.769   6.331   7.886 -1.0824 -3.7868  1.7845
  386MOL0     H53236  11.601   6.547   7.830  1.4045  0.6162 -1.2526
  386MOL0     H53237  11.768   6.551   7.861  0.1326 -0.8488  0.9614
  386MOL0     H53238  11.670   6.705   8.016 -0.3215  0.4114  1.4282
  386MOL0     H53239  11.738   6.573   8.108 -0.5100 -0.8952 -0.1640
  386MOL0     H53240  11.440   6.605   8.050 -0.8068 -2.3348 -0.3695
  386MOL0     H53241  11.513   6.468   8.149  2.8976 -0.8046 -0.2766
  386MOL0     H53242  11.596   6.642   8.315 -0.1490  0.0992  1.1823
  386MOL0     H53243  11.422   6.617   8.305 -0.1996  1.7631  1.2563
  386MOL0     H53244  11.571   6.865   8.205 -2.4758  2.8387 -0.7883
  386MOL0     H53245  11.476   6.831   8.349 -0.0161  0.5323 -1.1178
  386MOL0     H53246  11.357   6.962   8.208 -3.2083 -1.0782 -0.3098
  386MOL0     H53247  11.290   6.793   8.190 -2.8019  2.1197  1.6205
  386MOL0     H53248  11.330   6.222   7.759  0.1693  0.1374  0.0003
  386MOL0     H53249  11.157   6.069   7.729  0.8729  0.1032 -1.7099
  386MOL0     H53250  10.956   5.727   7.922  2.3114  1.5653 -2.0154
  386MOL0     H53251  10.769   5.590   7.955 -1.3970  1.2079 -1.7541
  386MOL0     H53252   9.114   5.817   8.255  0.3280  0.1181  1.9945
  386MOL0     H53253   8.956   5.995   8.316  2.9776 -1.4301  0.1589
  386MOL0     H53254   8.635   6.269   8.299  1.7759 -4.0885 -2.9661
  386MOL0     H53255   8.452   6.415   8.363 -1.7245  0.3078 -3.3784
  386MOL0     H53256   8.261   6.473   8.515  2.4361 -3.7567 -1.6944
  386MOL0     H53257   8.204   6.531   8.356 -0.7501 -0.1911 -1.0692
  386MOL0     H53258   7.980   6.480   8.397  0.3254 -0.9759  1.1171
  386MOL0     H53259   8.047   6.601   8.520 -0.0093 -0.6130  2.5758
  386MOL0     H53260   7.904   6.341   8.571 -0.2559 -1.0538  2.1015
  386MOL0     H53261   8.067   6.307   8.599  0.0619 -0.4380  0.0467
  386MOL0     H53262   7.940   6.546   8.735  1.3872  0.7426 -1.4250
  386MOL0     H53263   8.087   6.470   8.774  0.6551 -1.9447 -0.0231
  386MOL0     H53264   7.821   6.206   8.978 -0.7361  0.6878 -0.3307
  386MOL0     H53265   8.187   6.084   8.339  0.4047 -0.9446 -2.3787
  386MOL0     H53266   8.425   5.828   8.338  0.9247  1.4898 -0.9212
  386MOL0     H53267   8.258   5.858   8.281 -0.2741  1.1693 -0.7094
  386MOL0     H53268   8.399   5.870   8.165  0.9796  0.6651 -0.4825
  387MOL0     O53269   2.439   8.882   7.060  0.7221  0.2817  0.2898
  387MOL0     C53270   2.317   8.900   7.062  0.2828  0.7520 -0.7555
  387MOL0     O53271   2.244   8.938   6.955 -0.4319 -0.1079 -0.0676
  387MOL0     C53272   2.307   8.967   6.836  0.0525  0.4176 -0.5809
  387MOL0     C53273   2.322   8.875   6.730  0.0014  0.0593 -0.1024
  387MOL0     C53274   2.398   8.894   6.615 -0.0259 -0.6612 -0.2545
  387MOL0     C53275   2.467   9.019   6.603  0.0951 -0.5254 -0.5281
  387MOL0     O53276   2.526   9.030   6.486  0.1439 -0.6495  0.6085
  387MOL0     C53277   2.585   9.156   6.452 -0.4126  0.7587 -0.3896
  387MOL0     C53278   2.636   9.137   6.309 -0.4508 -0.6280 -0.5425
  387MOL0     C53279   2.765   9.055   6.283 -0.1384  0.2134 -0.1785
  387MOL0     C53280   2.883   9.077   6.361 -0.2055  0.3206 -0.3074
  387MOL0     C53281   2.948   9.209   6.347  0.2102 -0.1589 -0.6513
  387MOL0     C53282   3.036   9.219   6.471  0.2989  0.5463 -0.2016
  387MOL0     C53283   3.151   9.318   6.462  0.2517 -0.1761 -0.4249
  387MOL0     C53284   3.241   9.290   6.589 -0.5253  0.2482  0.2384
  387MOL0     N53285   3.359   9.382   6.598  0.6383 -0.7705 -0.2213
  387MOL0     C53286   3.428   9.416   6.709  0.3434  0.0188 -0.3105
  387MOL0     C53287   3.547   9.465   6.678  0.2092  0.2359 -0.1843
  387MOL0     C53288   3.648   9.513   6.781  0.4624  0.2869  0.4918
  387MOL0     C53289   3.777   9.449   6.753 -0.4036 -0.5556  0.2802
  387MOL0     C53290   3.903   9.497   6.844  0.1582 -0.1529  0.8718
  387MOL0     C53291   3.915   9.651   6.855 -0.5780  0.0074  1.4100
  387MOL0     O53292   4.035   9.671   6.926 -0.1678 -0.3546  0.0030
  387MOL0     C53293   4.157   9.670   6.870  0.1879 -0.8215  0.0762
  387MOL0     C53294   4.192   9.625   6.741  0.6388  0.4825 -0.3782
  387MOL0     C53295   4.315   9.661   6.693  1.0123  0.3941  0.1329
  387MOL0     C53296   4.337   9.615   6.551 -0.3201  0.2129 -0.3575
  387MOL0     C53297   4.412   9.732   6.771  0.4710 -0.1638  0.0865
  387MOL0     C53298   4.543   9.755   6.719 -0.4704  0.1732 -0.1497
  387MOL0     O53299   4.597   9.647   6.654  0.1141 -0.4934 -0.6246
  387MOL0     C53300   4.732   9.652   6.618 -0.0881  0.0639  0.0980
  387MOL0     C53301   4.836   9.703   6.708 -0.7619 -0.3796  0.8243
  387MOL0     C53302   4.968   9.726   6.656  0.0817  1.3125 -0.6828
  387MOL0     C53303   4.988   9.708   6.520 -0.0303 -0.5304  0.1272
  387MOL0     O53304   5.118   9.716   6.471  0.2104 -0.0904  0.5300
  387MOL0     C53305   5.159   9.599   6.396  0.0945 -0.6927  0.5050
  387MOL0     C53306   5.313   9.600   6.381 -0.3085  0.8412  0.0264
  387MOL0     C53307   5.376   9.531   6.509 -0.0179 -0.1783  0.9065
  387MOL0     C53308   5.522   9.570   6.539  0.2899 -0.3525 -0.2387
  387MOL0     C53309   5.583   9.501   6.654 -0.0148  0.4314 -0.7331
  387MOL0     C53310   5.736   9.537   6.682  0.7224  0.2848 -0.4959
  387MOL0     C53311   5.799   9.469   6.815 -0.0083  0.2016  0.5023
  387MOL0     C53312   5.920   9.383   6.787 -0.0748 -0.3964 -0.0902
  387MOL0    Cl53313   6.048   9.469   6.690 -0.0348  0.2352  0.1787
  387MOL0     C53314   4.881   9.669   6.433 -0.1385 -0.2717  0.8234
  387MOL0     C53315   4.751   9.643   6.481  0.3358 -0.3929  0.3696
  387MOL0     O53316   4.599   9.863   6.747 -0.5865 -0.3430 -0.7207
  387MOL0     C53317   4.378   9.775   6.896 -0.4568 -0.6346 -0.1213
  387MOL0     C53318   4.260   9.736   6.945 -0.0799 -0.1222  0.4494
  387MOL0     N53319   3.549   9.466   6.540  0.8869  0.3254 -0.1381
  387MOL0     N53320   3.438   9.414   6.492  0.1332 -1.0652 -0.4389
  387MOL0     C53321   2.463   9.113   6.708  0.5030 -0.0836 -0.1358
  387MOL0     C53322   2.380   9.085   6.822 -0.0013 -0.3090  0.0398
  387MOL0     C53323   2.247   8.898   7.191 -0.1260 -0.6107  0.0804
  387MOL0     C53324   2.139   8.981   7.210  0.3539 -0.1923 -0.2160
  387MOL0     C53325   2.083   8.985   7.338  0.6460 -0.4445  0.9918
  387MOL0     C53326   2.113   8.896   7.438 -0.8579 -0.7696  0.9335
  387MOL0     O53327   2.052   8.889   7.557  0.3910 -0.2944 -0.6654
  387MOL0     C53328   1.910   8.919   7.561 -0.0993 -0.2337 -0.2725
  387MOL0     C53329   1.849   8.859   7.695 -0.5609  0.4856 -0.5348
  387MOL0     C53330   1.715   8.784   7.683  0.3621 -0.4937  0.3469
  387MOL0     C53331   1.685   8.702   7.811  1.0643  0.1421  1.0390
  387MOL0     C53332   1.673   8.770   7.939 -0.1078  0.0789 -0.3371
  387MOL0     C53333   1.672   8.841   8.041 -0.7120  0.4495  0.0491
  387MOL0     C53334   2.227   8.816   7.424  0.5076  0.0148  0.1417
  387MOL0     C53335   2.296   8.819   7.304 -0.0843  0.0413 -0.9878
  387MOL0     C53336   2.417   8.731   7.298 -0.4357  0.2950 -0.0129
  387MOL0     H53337   2.269   8.780   6.731 -0.4802  0.3001 -1.1176
  387MOL0     H53338   2.404   8.822   6.534  0.0330  0.4512 -1.2650
  387MOL0     H53339   2.668   9.181   6.519 -0.3660  0.7317 -0.4380
  387MOL0     H53340   2.506   9.231   6.444 -0.6081  1.0213  2.6769
  387MOL0     H53341   2.559   9.088   6.248  0.0368 -2.5071  0.3068
  387MOL0     H53342   2.653   9.241   6.278  1.5323 -1.0749 -1.0840
  387MOL0     H53343   2.744   8.948   6.298  2.6895 -0.1885  1.5078
  387MOL0     H53344   2.797   9.082   6.182  1.6614 -0.6270  0.1307
  387MOL0     H53345   2.854   9.065   6.466  1.9520  0.8691  0.4014
  387MOL0     H53346   2.963   9.004   6.346  1.2403  1.7411  0.2502
  387MOL0     H53347   2.872   9.288   6.357 -1.4572 -1.8677  1.0429
  387MOL0     H53348   3.009   9.221   6.258  1.2948 -2.8008 -0.3283
  387MOL0     H53349   2.973   9.243   6.557 -1.1116 -1.8682 -0.4895
  387MOL0     H53350   3.080   9.121   6.487  1.8668  0.9909 -1.5750
  387MOL0     H53351   3.123   9.424   6.468 -0.6269 -0.4898  1.5098
  387MOL0     H53352   3.207   9.302   6.369 -0.2302 -1.1533 -0.5559
  387MOL0     H53353   3.180   9.298   6.679 -1.8720  1.8592 -0.7564
  387MOL0     H53354   3.273   9.186   6.590  0.4049  0.5031  2.0644
  387MOL0     H53355   3.394   9.401   6.811 -4.1762  0.6532 -1.5306
  387MOL0     H53356   3.615   9.503   6.884 -2.9888  0.2965 -0.4959
  387MOL0     H53357   3.652   9.619   6.756  0.5047 -0.1604 -1.6363
  387MOL0     H53358   3.760   9.341   6.752  0.0510 -0.6345 -0.8480
  387MOL0     H53359   3.810   9.476   6.652 -1.6469  0.3210  0.0911
  387MOL0     H53360   3.880   9.454   6.942  3.0872 -0.4644  1.5450
  387MOL0     H53361   3.988   9.440   6.806 -0.4398 -0.4446 -0.0492
  387MOL0     H53362   3.914   9.701   6.757 -1.4966 -3.0264 -0.2691
  387MOL0     H53363   3.829   9.684   6.914  0.1732 -1.2771  3.3037
  387MOL0     H53364   4.113   9.588   6.676  0.8356  0.5820 -0.6735
  387MOL0     H53365   4.393   9.520   6.560  2.7986  2.0063  0.9751
  387MOL0     H53366   4.382   9.689   6.485 -1.9575  0.9068 -0.7251
  387MOL0     H53367   4.242   9.597   6.501  0.1875 -2.3854 -0.5387
  387MOL0     H53368   4.805   9.716   6.811  0.2022  1.5220  0.9355
  387MOL0     H53369   5.058   9.752   6.711  0.2327  2.7134 -1.5362
  387MOL0     H53370   5.131   9.515   6.459  0.2166 -1.1537 -0.0497
  387MOL0     H53371   5.114   9.582   6.298  1.3863 -1.7339  0.0571
  387MOL0     H53372   5.336   9.534   6.297  0.0057 -0.7224  1.2750
  387MOL0     H53373   5.358   9.699   6.371  2.6948 -0.0648  2.6439
  387MOL0     H53374   5.377   9.422   6.499 -0.7664 -0.3075  2.0857
  387MOL0     H53375   5.323   9.560   6.600 -0.3748  0.0622  0.6276
  387MOL0     H53376   5.546   9.676   6.550  1.7233 -0.9669  6.0089
  387MOL0     H53377   5.580   9.541   6.451  2.5414  2.9901 -0.0122
  387MOL0     H53378   5.523   9.533   6.740  0.8367 -0.9971  0.4430
  387MOL0     H53379   5.564   9.393   6.658 -3.2000  0.8592  4.4174
  387MOL0     H53380   5.749   9.644   6.695 -1.2748  0.6192 -0.9844
  387MOL0     H53381   5.785   9.501   6.591  0.0381 -0.2598 -0.6638
  387MOL0     H53382   5.728   9.392   6.844 -2.2355  0.9022 -2.6480
  387MOL0     H53383   5.822   9.550   6.885 -0.0868 -0.8020  1.7140
  387MOL0     H53384   5.890   9.294   6.732 -2.7543  0.4429 -0.1493
  387MOL0     H53385   5.965   9.354   6.883  0.4279 -0.4569 -0.3414
  387MOL0     H53386   4.908   9.665   6.328  1.9737 -0.9524  1.3384
  387MOL0     H53387   4.674   9.606   6.414  0.9574 -0.8522 -0.0934
  387MOL0     H53388   4.450   9.824   6.960 -0.0256 -0.0647 -1.0142
  387MOL0     H53389   4.230   9.777   7.041  3.1035  1.8402  0.7238
  387MOL0     H53390   2.516   9.207   6.706  1.0364 -0.3230  1.2330
  387MOL0     H53391   2.382   9.155   6.905  1.0719 -0.2159 -0.0504
  387MOL0     H53392   2.096   9.027   7.122  0.0026 -0.6611 -0.2893
  387MOL0     H53393   2.000   9.051   7.359  1.4084  0.6141  0.7818
  387MOL0     H53394   1.912   9.029   7.568 -0.6956 -0.2971  1.4235
  387MOL0     H53395   1.849   8.888   7.476 -1.6214  0.0688  0.6686
  387MOL0     H53396   1.847   8.935   7.774  0.6097  0.3441 -0.3490
  387MOL0     H53397   1.916   8.784   7.738  0.8985  0.2981 -2.9427
  387MOL0     H53398   1.638   8.861   7.668  2.5401  1.4229 -1.7452
  387MOL0     H53399   1.713   8.717   7.597 -2.8832 -0.3876  0.2248
  387MOL0     H53400   1.764   8.628   7.827 -0.2614 -2.3138 -2.5323
  387MOL0     H53401   1.597   8.640   7.795  0.2370  1.5447 -0.0258
  387MOL0     H53402   1.659   8.907   8.125 -0.9052  4.0442 -2.5535
  387MOL0     H53403   2.257   8.761   7.512 -2.0868  1.0942  1.8286
  387MOL0     H53404   2.509   8.788   7.315 -0.9374  1.4842 -1.0752
  387MOL0     H53405   2.413   8.643   7.363  1.8893  0.2477  0.1444
  387MOL0     H53406   2.413   8.675   7.204  0.6614 -3.7797  2.1299
  388MOL0     O53407   0.976   7.061   1.386 -0.1320 -0.2764  0.1992
  388MOL0     C53408   0.896   7.103   1.461  0.4201  0.6256 -0.3371
  388MOL0     O53409   0.913   7.116   1.597  0.3766  0.3252 -0.0284
  388MOL0     C53410   1.039   7.098   1.658  0.1488 -0.0551  1.2412
  388MOL0     C53411   1.074   7.200   1.750 -0.1582  0.5683  0.0434
  388MOL0     C53412   1.199   7.186   1.818 -0.4506 -0.5655 -0.4574
  388MOL0     C53413   1.277   7.070   1.800 -1.1674 -0.0791 -0.4274
  388MOL0     O53414   1.391   7.067   1.881  0.6219 -0.1749 -0.2057
  388MOL0     C53415   1.480   6.953   1.886 -0.1938 -0.1159 -0.1055
  388MOL0     C53416   1.439   6.870   2.012 -0.8855 -0.0680  1.0905
  388MOL0     C53417   1.451   6.935   2.156  0.2208 -0.0056 -0.0843
  388MOL0     C53418   1.582   6.998   2.197  0.1353  0.3107  0.2574
  388MOL0     C53419   1.598   7.033   2.345  0.3464 -0.1889 -0.1356
  388MOL0     C53420   1.726   7.095   2.382 -0.4201  0.0226 -0.2981
  388MOL0     C53421   1.768   7.098   2.532 -0.0475  0.3285 -0.4849
  388MOL0     C53422   1.825   6.970   2.574 -0.5201  0.2455  0.3281
  388MOL0     N53423   1.956   6.949   2.520  0.0653  0.1488 -1.1538
  388MOL0     C53424   1.982   6.852   2.434 -1.0464  0.0361  0.7753
  388MOL0     C53425   2.120   6.835   2.447 -0.1116  0.6045  0.2522
  388MOL0     C53426   2.217   6.750   2.373  0.0931  0.5015 -0.3591
  388MOL0     C53427   2.265   6.633   2.454  0.0995 -0.3220 -0.5686
  388MOL0     C53428   2.406   6.585   2.418  0.1323 -0.2256 -0.2019
  388MOL0     C53429   2.455   6.474   2.511 -0.5669  0.1850 -0.5070
  388MOL0     O53430   2.548   6.389   2.433  0.0686 -0.4051 -0.1903
  388MOL0     C53431   2.670   6.436   2.400 -0.4878  0.4990 -0.1469
  388MOL0     C53432   2.756   6.361   2.319  0.0716 -0.0491 -0.0369
  388MOL0     C53433   2.889   6.396   2.293  0.7477 -0.1657 -1.1182
  388MOL0     C53434   2.979   6.306   2.204  0.3377  0.1523 -0.0183
  388MOL0     C53435   2.948   6.509   2.355  0.0574 -0.6572 -0.0073
  388MOL0     C53436   3.082   6.559   2.328 -0.8115  0.0866  0.0383
  388MOL0     O53437   3.114   6.695   2.357 -0.9296  0.2706  0.5864
  388MOL0     C53438   3.249   6.729   2.369 -0.5482 -0.0560  0.7173
  388MOL0     C53439   3.322   6.671   2.473 -0.7524 -0.2743  0.2955
  388MOL0     C53440   3.461   6.678   2.475 -0.3994 -1.0480  0.5043
  388MOL0     C53441   3.521   6.754   2.379 -0.5968  0.5494 -0.3113
  388MOL0     O53442   3.659   6.777   2.371  0.8218 -0.6632 -0.0988
  388MOL0     C53443   3.711   6.850   2.487  0.5862 -0.1279  0.0754
  388MOL0     C53444   3.845   6.799   2.524  0.0595  0.5406 -0.4897
  388MOL0     C53445   3.856   6.645   2.561  0.6455 -0.3673 -0.1048
  388MOL0     C53446   3.986   6.617   2.625 -0.2051  0.6832 -0.4288
  388MOL0     C53447   4.019   6.462   2.654  0.2479 -0.7015 -1.0694
  388MOL0     C53448   4.167   6.462   2.719  1.4652  0.3004  0.3540
  388MOL0     C53449   4.212   6.313   2.738 -0.0286 -0.4283  0.2328
  388MOL0     C53450   4.339   6.307   2.813  0.0322 -0.2390  0.3750
  388MOL0    Cl53451   4.463   6.421   2.754 -0.0476 -0.4023  0.5322
  388MOL0     C53452   3.451   6.828   2.287  0.2327 -0.1015 -0.2770
  388MOL0     C53453   3.316   6.814   2.284  0.2083  0.4663 -0.0104
  388MOL0     O53454   3.172   6.475   2.306 -0.5539  0.9207 -0.1460
  388MOL0     C53455   2.863   6.576   2.443 -0.0926  0.4139  0.1685
  388MOL0     C53456   2.728   6.539   2.467 -0.5815  0.3437  0.3570
  388MOL0     N53457   2.165   6.924   2.538 -0.5334  0.0330 -0.1977
  388MOL0     N53458   2.065   6.991   2.588  0.1096 -0.5544 -0.3020
  388MOL0     C53459   1.233   6.969   1.717 -0.6545  0.4909 -0.1431
  388MOL0     C53460   1.114   6.979   1.647 -0.6251 -0.6907  0.1476
  388MOL0     C53461   0.765   7.156   1.402  0.6330 -0.3080 -0.7776
  388MOL0     C53462   0.727   7.100   1.280 -0.3791 -0.4311 -0.9897
  388MOL0     C53463   0.614   7.144   1.211  0.1488 -0.8677 -0.4120
  388MOL0     C53464   0.531   7.249   1.261  0.0455 -0.3031 -0.3648
  388MOL0     O53465   0.433   7.305   1.179 -0.4259  0.9638  0.2383
  388MOL0     C53466   0.300   7.293   1.232 -0.3630 -0.3637  0.0582
  388MOL0     C53467   0.213   7.402   1.187  0.5868  0.2613 -0.0674
  388MOL0     C53468   0.171   7.396   1.037  0.0623  0.0386 -0.6127
  388MOL0     C53469   0.100   7.524   0.996 -0.3057  0.7440 -0.7414
  388MOL0     C53470  -0.027   7.562   1.068 -0.2505  0.3192  0.3477
  388MOL0     C53471  -0.128   7.601   1.127 -0.3838  0.0074 -0.1357
  388MOL0     C53472   0.560   7.300   1.384 -0.2982  0.1852  1.5107
  388MOL0     C53473   0.681   7.261   1.460  0.3007 -0.1452 -0.4354
  388MOL0     C53474   0.711   7.334   1.588 -0.4218 -0.6334 -0.3557
  388MOL0     H53475   1.008   7.286   1.756  0.1940  0.9376 -1.1791
  388MOL0     H53476   1.231   7.265   1.885  0.6231  0.7012 -2.3679
  388MOL0     H53477   1.583   6.989   1.892 -0.9589  2.2441  0.3012
  388MOL0     H53478   1.473   6.891   1.797 -0.9495 -0.0450 -0.1095
  388MOL0     H53479   1.338   6.830   2.002 -0.5605 -1.1884  2.0239
  388MOL0     H53480   1.515   6.791   2.007  1.3791  2.0060  0.9711
  388MOL0     H53481   1.370   7.009   2.158  0.9444  0.7760  1.1743
  388MOL0     H53482   1.433   6.858   2.232  1.1821  1.3494  1.5834
  388MOL0     H53483   1.655   6.922   2.164  0.2357 -0.1292  1.4402
  388MOL0     H53484   1.598   7.086   2.134  0.3529  1.8485  2.3659
  388MOL0     H53485   1.585   6.941   2.403 -1.6852  1.0018  1.4530
  388MOL0     H53486   1.511   7.092   2.376  1.7022  2.4475 -1.0491
  388MOL0     H53487   1.813   7.064   2.323  3.9186  2.5384  4.0335
  388MOL0     H53488   1.712   7.201   2.360 -2.3521  0.3799  2.2676
  388MOL0     H53489   1.678   7.122   2.590  1.2248  1.2038  1.2057
  388MOL0     H53490   1.839   7.176   2.558  0.7251 -0.2127 -0.9367
  388MOL0     H53491   1.824   6.964   2.683  0.8638 -1.6144  0.2866
  388MOL0     H53492   1.766   6.890   2.529  2.1784 -1.3483 -0.6497
  388MOL0     H53493   1.911   6.803   2.368 -1.9263 -1.1453  2.5112
  388MOL0     H53494   2.296   6.815   2.333  0.8947 -1.1559 -1.6173
  388MOL0     H53495   2.175   6.700   2.285  0.4489 -0.3122 -0.0720
  388MOL0     H53496   2.271   6.676   2.555 -0.9574  1.1346 -1.0921
  388MOL0     H53497   2.183   6.561   2.453 -0.1960 -0.0081  0.1672
  388MOL0     H53498   2.410   6.553   2.314  2.5805  1.9018 -0.8602
  388MOL0     H53499   2.476   6.667   2.434 -0.4857  0.3516 -0.3701
  388MOL0     H53500   2.506   6.513   2.600 -1.0671 -0.7854  0.2279
  388MOL0     H53501   2.379   6.408   2.553  1.2011 -1.6208 -0.0006
  388MOL0     H53502   2.713   6.273   2.274 -1.1450  0.1747  0.6342
  388MOL0     H53503   2.921   6.214   2.194 -2.7883  1.9961 -0.1319
  388MOL0     H53504   3.069   6.278   2.259  1.4681  3.5850  0.1427
  388MOL0     H53505   2.996   6.345   2.103  2.2280 -1.6356 -0.4592
  388MOL0     H53506   3.271   6.603   2.541 -3.7495  0.9498 -0.5712
  388MOL0     H53507   3.522   6.623   2.545 -0.2805 -1.7967 -0.1750
  388MOL0     H53508   3.731   6.956   2.468  3.7986  0.1775  3.9034
  388MOL0     H53509   3.645   6.856   2.574  0.9231  1.2668  0.2514
  388MOL0     H53510   3.899   6.830   2.434 -1.2469  3.8246 -0.3182
  388MOL0     H53511   3.882   6.848   2.614  2.5097 -2.5323  0.3118
  388MOL0     H53512   3.845   6.580   2.474  1.7096  0.0144 -0.5541
  388MOL0     H53513   3.780   6.605   2.629  1.7574  0.2787  1.6093
  388MOL0     H53514   3.996   6.667   2.722  2.9674 -1.1469  0.3510
  388MOL0     H53515   4.059   6.653   2.551 -1.1489 -0.6714 -2.0985
  388MOL0     H53516   3.941   6.424   2.721 -0.1263  1.4615 -0.1886
  388MOL0     H53517   4.014   6.419   2.554 -0.9011  1.6107 -2.0831
  388MOL0     H53518   4.154   6.506   2.818 -1.6783 -1.5901  0.9120
  388MOL0     H53519   4.239   6.516   2.656  0.2031  1.5346 -0.0759
  388MOL0     H53520   4.232   6.270   2.640  2.0590  1.7263 -0.3622
  388MOL0     H53521   4.138   6.248   2.786  1.8117 -0.2779  3.5866
  388MOL0     H53522   4.378   6.205   2.814 -1.0369 -0.6544  1.3241
  388MOL0     H53523   4.323   6.341   2.916 -2.4348  1.8002 -0.5889
  388MOL0     H53524   3.509   6.894   2.222 -2.3579  1.4506 -1.1681
  388MOL0     H53525   3.259   6.871   2.211  1.9045 -0.0083 -1.7827
  388MOL0     H53526   2.891   6.667   2.496  0.9715  1.6301 -2.3106
  388MOL0     H53527   2.674   6.612   2.527 -0.2391  0.7917  0.1204
  388MOL0     H53528   1.283   6.873   1.710 -2.0152 -0.2751  0.2490
  388MOL0     H53529   1.078   6.900   1.582  3.1308 -2.7883  0.3217
  388MOL0     H53530   0.792   7.026   1.235  1.4552  0.6356 -0.2354
  388MOL0     H53531   0.586   7.110   1.112  1.4160  0.2168 -1.1742
  388MOL0     H53532   0.253   7.197   1.208  1.6667 -1.1016 -1.3069
  388MOL0     H53533   0.305   7.308   1.340 -0.4275 -0.3950  0.0657
  388MOL0     H53534   0.269   7.494   1.206  0.5459  0.5524 -1.2643
  388MOL0     H53535   0.120   7.404   1.245  0.0058  1.8047 -0.9896
  388MOL0     H53536   0.260   7.380   0.975  0.6693 -0.2555  0.3185
  388MOL0     H53537   0.108   7.307   1.035  2.2311 -1.6568  1.2464
  388MOL0     H53538   0.069   7.507   0.892  3.6488  0.1695 -1.9963
  388MOL0     H53539   0.175   7.604   1.000 -1.6706  2.0259  0.5547
  388MOL0     H53540  -0.219   7.628   1.178 -0.1236  2.6674 -0.9069
  388MOL0     H53541   0.507   7.390   1.415 -0.7959  0.4902 -0.1226
  388MOL0     H53542   0.812   7.371   1.572 -1.1059  2.0436  0.8762
  388MOL0     H53543   0.657   7.429   1.598  0.7671  0.1917 -1.4756
  388MOL0     H53544   0.700   7.271   1.676  1.2249  0.3159  0.5759
  389MOL0     O53545   0.502  11.239   3.954 -0.2502  0.6867 -0.8098
  389MOL0     C53546   0.600  11.225   3.880 -1.1855  0.9158  0.7572
  389MOL0     O53547   0.641  11.324   3.789  0.0587  0.3074 -0.6690
  389MOL0     C53548   0.568  11.433   3.780  0.2899 -0.6662  0.0264
  389MOL0     C53549   0.630  11.559   3.786 -0.3184 -0.6385  0.3383
  389MOL0     C53550   0.550  11.676   3.779  0.0308  0.1737 -0.0931
  389MOL0     C53551   0.408  11.674   3.754  0.4214  0.3542 -0.0753
  389MOL0     O53552   0.327  11.788   3.755 -0.1913 -0.2904 -0.4062
  389MOL0     C53553   0.200  11.769   3.832 -0.8051 -0.2371  0.4121
  389MOL0     C53554   0.211  11.741   3.978 -0.1487  0.0244 -0.0300
  389MOL0     C53555   0.094  11.664   4.021  0.1907  0.3868 -0.8941
  389MOL0     C53556   0.089  11.677   4.175 -0.5981  0.2515 -0.6412
  389MOL0     C53557  -0.037  11.623   4.222  0.3613  0.1308  0.2057
  389MOL0     C53558  -0.039  11.599   4.370  0.3259  0.2808  0.0367
  389MOL0     C53559   0.013  11.723   4.452  0.7086  0.1358  0.0366
  389MOL0     C53560  -0.045  11.704   4.599  0.6927 -0.3951  0.3947
  389MOL0     N53561   0.033  11.803   4.668 -0.0001 -0.1194 -0.5882
  389MOL0     C53562   0.037  11.939   4.655 -0.3338 -0.4935 -0.2804
  389MOL0     C53563   0.156  11.970   4.722 -0.2223 -0.0273  0.4101
  389MOL0     C53564   0.224  12.098   4.719 -0.0072 -0.6733 -0.6841
  389MOL0     C53565   0.347  12.101   4.635  0.0756 -1.3005  0.2201
  389MOL0     C53566   0.472  12.041   4.695  0.6691  0.2740  0.4561
  389MOL0     C53567   0.593  12.033   4.600 -0.5604 -0.5843 -0.6378
  389MOL0     O53568   0.715  12.023   4.675  0.1695 -0.4134  0.2614
  389MOL0     C53569   0.820  12.071   4.605 -0.6462 -0.5665  0.4143
  389MOL0     C53570   0.933  12.103   4.684  1.0724 -0.2940  0.2533
  389MOL0     C53571   1.051  12.141   4.624 -0.9019  0.3180 -0.2738
  389MOL0     C53572   1.172  12.165   4.708  0.2875 -0.3148  0.2047
  389MOL0     C53573   1.061  12.175   4.485 -0.0306  0.6246 -0.2888
  389MOL0     C53574   1.170  12.248   4.412 -0.0717  0.3755 -1.0876
  389MOL0     O53575   1.150  12.252   4.281 -0.3872 -0.0267 -0.3989
  389MOL0     C53576   1.238  12.318   4.200  0.5664 -0.2089 -1.0547
  389MOL0     C53577   1.219  12.451   4.170  0.1795 -0.0809 -1.0592
  389MOL0     C53578   1.309  12.511   4.087  0.8796  0.2021  0.9609
  389MOL0     C53579   1.421  12.445   4.041  0.2352 -1.1335 -0.3005
  389MOL0     O53580   1.504  12.524   3.963 -0.1893  0.4639 -0.5542
  389MOL0     C53581   1.636  12.471   3.952 -0.3810 -0.1324  0.1633
  389MOL0     C53582   1.734  12.572   3.891  0.0766  0.0046  1.0113
  389MOL0     C53583   1.746  12.689   3.982 -0.2510 -0.9541  0.2561
  389MOL0     C53584   1.817  12.663   4.119  0.0599  0.3321 -0.0806
  389MOL0     C53585   1.887  12.786   4.172 -0.2626 -0.8445 -0.7701
  389MOL0     C53586   1.971  12.764   4.298 -1.3185 -0.5465  0.1172
  389MOL0     C53587   2.031  12.897   4.361  0.1558 -0.8932 -0.4573
  389MOL0     C53588   2.118  12.974   4.262  0.1372  0.5880 -0.0500
  389MOL0    Cl53589   2.214  13.098   4.351 -0.5211 -0.2134  0.5390
  389MOL0     C53590   1.440  12.308   4.086 -0.4994 -0.5058  0.5626
  389MOL0     C53591   1.345  12.242   4.162 -0.4606 -0.8026 -0.1185
  389MOL0     O53592   1.257  12.308   4.471 -0.3139 -0.1776 -0.3014
  389MOL0     C53593   0.953  12.134   4.411 -0.9852 -0.4652  0.5346
  389MOL0     C53594   0.834  12.078   4.463 -0.4763  0.3298 -0.5639
  389MOL0     N53595   0.212  11.862   4.782  0.3816 -0.1016  0.1646
  389MOL0     N53596   0.138  11.760   4.747  0.5826 -0.6109  0.8727
  389MOL0     C53597   0.352  11.544   3.740 -0.3735 -0.0730 -0.1630
  389MOL0     C53598   0.427  11.428   3.756  0.5879  0.7130 -0.5127
  389MOL0     C53599   0.684  11.098   3.907 -0.4553 -0.4746  0.2215
  389MOL0     C53600   0.827  11.114   3.907 -1.1663  0.0133  0.5376
  389MOL0     C53601   0.908  11.013   3.939 -0.6648  0.2850  0.1421
  389MOL0     C53602   0.857  10.884   3.976  0.4839  0.3286  1.3066
  389MOL0     O53603   0.934  10.776   4.009  0.1892 -0.2545 -0.3168
  389MOL0     C53604   1.073  10.777   3.974  0.3456 -0.7996 -0.3260
  389MOL0     C53605   1.091  10.755   3.828  0.0989 -0.3237 -1.0730
  389MOL0     C53606   1.015  10.619   3.788  1.0827 -0.3504  0.7586
  389MOL0     C53607   1.068  10.565   3.655  0.9393 -0.0471 -0.1545
  389MOL0     C53608   1.047  10.641   3.536  0.8120  0.7900  0.5750
  389MOL0     C53609   1.036  10.720   3.446  0.1439 -0.4620 -0.1318
  389MOL0     C53610   0.717  10.870   3.989 -0.9580 -0.0971 -0.0065
  389MOL0     C53611   0.630  10.975   3.948 -0.7360  0.5189 -0.3389
  389MOL0     C53612   0.486  10.939   3.951 -0.0096 -0.0386 -0.4205
  389MOL0     H53613   0.737  11.563   3.803 -0.3724 -0.3338  0.6335
  389MOL0     H53614   0.599  11.771   3.796  1.5447 -0.9111  2.2749
  389MOL0     H53615   0.135  11.693   3.789 -0.6740  0.3399 -0.8671
  389MOL0     H53616   0.149  11.866   3.827 -2.8319 -1.2649  0.4760
  389MOL0     H53617   0.297  11.679   4.007 -0.6014 -2.1195 -2.7521
  389MOL0     H53618   0.231  11.835   4.030  0.6166  0.0907 -0.4293
  389MOL0     H53619   0.002  11.706   3.979 -1.0906  0.6738  1.9417
  389MOL0     H53620   0.100  11.560   3.989  0.7481  0.3605 -0.7208
  389MOL0     H53621   0.177  11.624   4.213 -0.9258 -1.5487 -2.2449
  389MOL0     H53622   0.093  11.783   4.202  3.0853  0.1357 -0.1214
  389MOL0     H53623  -0.045  11.526   4.173  2.0296  1.6318 -3.4913
  389MOL0     H53624  -0.117  11.689   4.187  0.2808 -0.5049 -0.8576
  389MOL0     H53625  -0.143  11.589   4.401  0.6114 -1.0045  0.6510
  389MOL0     H53626   0.019  11.510   4.398  0.3694  0.2422 -0.1705
  389MOL0     H53627  -0.021  11.818   4.410  1.8973  0.4308 -0.3007
  389MOL0     H53628   0.122  11.726   4.459  0.8684 -1.0992 -1.3877
  389MOL0     H53629  -0.148  11.737   4.608  1.1769  1.2008  0.3498
  389MOL0     H53630  -0.036  11.599   4.628 -1.1829 -0.8704 -0.6257
  389MOL0     H53631  -0.038  11.996   4.600  0.1154 -1.1001 -1.5618
  389MOL0     H53632   0.258  12.118   4.821 -2.2487  0.3160 -0.0780
  389MOL0     H53633   0.168  12.180   4.673  1.2693  0.6155 -0.0337
  389MOL0     H53634   0.314  12.045   4.547  0.7905 -1.8367  0.2842
  389MOL0     H53635   0.365  12.204   4.604 -4.1210 -0.9972 -1.8456
  389MOL0     H53636   0.492  12.101   4.784  0.4101  0.0406  0.6748
  389MOL0     H53637   0.455  11.937   4.723  3.9501 -0.3178  0.5926
  389MOL0     H53638   0.581  11.958   4.522 -2.0568  1.0951 -2.1006
  389MOL0     H53639   0.585  12.127   4.546 -0.1704  0.3263  0.8299
  389MOL0     H53640   0.922  12.084   4.791 -1.2309  0.9851  0.3079
  389MOL0     H53641   1.195  12.272   4.711  2.9070 -0.7929  0.0232
  389MOL0     H53642   1.257  12.113   4.662  1.1099  0.9658  0.2307
  389MOL0     H53643   1.148  12.132   4.810 -2.2154  0.9254  0.0904
  389MOL0     H53644   1.129  12.496   4.211  0.1410 -0.2226 -0.9851
  389MOL0     H53645   1.305  12.615   4.054 -0.5038 -0.2739 -0.5107
  389MOL0     H53646   1.681  12.431   4.043 -0.3090  1.1422  0.7071
  389MOL0     H53647   1.627  12.381   3.892 -0.7688 -1.5129  2.1840
  389MOL0     H53648   1.828  12.522   3.865 -0.0862 -0.3512  1.0921
  389MOL0     H53649   1.685  12.602   3.798 -0.9850  0.0894  1.5757
  389MOL0     H53650   1.651  12.741   3.990 -0.3421 -1.3881  2.6063
  389MOL0     H53651   1.814  12.758   3.932  0.1352 -0.4466  1.4433
  389MOL0     H53652   1.883  12.576   4.119 -0.1403  0.1083  2.4257
  389MOL0     H53653   1.739  12.640   4.192 -0.5770  2.4911  0.0045
  389MOL0     H53654   1.951  12.815   4.088 -1.1229  0.5388 -0.9790
  389MOL0     H53655   1.813  12.863   4.194  0.7148  0.2381 -1.2009
  389MOL0     H53656   2.057  12.704   4.265  1.1813  1.8674  1.7127
  389MOL0     H53657   1.920  12.703   4.372  0.5789 -1.8253  0.4443
  389MOL0     H53658   2.095  12.862   4.442  3.1352 -1.2682 -2.7863
  389MOL0     H53659   1.953  12.962   4.402  0.0916 -0.9334 -0.5153
  389MOL0     H53660   2.051  13.017   4.186  1.1124  1.0359 -0.6812
  389MOL0     H53661   2.187  12.905   4.213 -0.7518 -0.4973  0.1867
  389MOL0     H53662   1.530  12.264   4.044  0.0118  0.5020  0.5682
  389MOL0     H53663   1.360  12.140   4.193  1.7457 -0.9546 -1.4795
  389MOL0     H53664   0.953  12.129   4.303 -2.8907 -1.0177  0.5256
  389MOL0     H53665   0.762  12.040   4.391  1.0934 -0.4105 -1.8319
  389MOL0     H53666   0.247  11.541   3.712 -0.0125  1.4844 -1.8956
  389MOL0     H53667   0.373  11.334   3.757 -0.3763  1.2114 -2.1476
  389MOL0     H53668   0.884  11.202   3.876  1.3026 -2.0220 -1.1118
  389MOL0     H53669   1.014  11.032   3.943 -0.5990 -0.0913  0.2391
  389MOL0     H53670   1.116  10.872   4.009  0.1485 -0.7343 -0.2606
  389MOL0     H53671   1.120  10.689   4.017  3.1487 -0.0931 -1.6875
  389MOL0     H53672   1.199  10.756   3.810  0.3108 -1.1160  0.0984
  389MOL0     H53673   1.047  10.837   3.771 -0.2084 -0.4530 -1.0230
  389MOL0     H53674   1.042  10.544   3.863 -0.0764 -1.0601  0.4845
  389MOL0     H53675   0.908  10.638   3.783  1.0966 -0.6176 -2.4418
  389MOL0     H53676   1.035  10.461   3.642  0.3736  0.2516 -1.2732
  389MOL0     H53677   1.176  10.561   3.672  1.0668 -1.0951 -1.0896
  389MOL0     H53678   1.007  10.793   3.373  1.9045  2.4454  1.8891
  389MOL0     H53679   0.671  10.783   4.034  0.0204 -2.1145 -2.6326
  389MOL0     H53680   0.419  10.983   3.877 -0.7044 -0.0305  0.2008
  389MOL0     H53681   0.470  10.831   3.939 -0.3567  0.1256 -1.4900
  389MOL0     H53682   0.436  10.966   4.044 -3.0858  0.8167 -2.1909
  390MOL0     O53683   0.350   7.792   9.308 -0.2124  0.4017 -0.0737
  390MOL0     C53684   0.405   7.720   9.389 -0.2012  0.6662 -0.3498
  390MOL0     O53685   0.342   7.617   9.450  0.6330  0.1129  0.7502
  390MOL0     C53686   0.222   7.577   9.409 -0.3060 -0.0726  0.6113
  390MOL0     C53687   0.213   7.496   9.296  0.5719  0.2048  0.4643
  390MOL0     C53688   0.090   7.450   9.245  0.3869 -0.2495 -0.2970
  390MOL0     C53689  -0.029   7.484   9.307  1.0475  0.7565 -0.0748
  390MOL0     O53690  -0.148   7.430   9.257  0.4320  0.9128  0.1539
  390MOL0     C53691  -0.270   7.469   9.327 -0.1659 -0.3443  0.8054
  390MOL0     C53692  -0.389   7.383   9.276  0.2439 -0.4026 -0.4052
  390MOL0     C53693  -0.355   7.249   9.227 -0.2987  0.2207  0.9214
  390MOL0     C53694  -0.474   7.162   9.202 -0.6781  0.9813 -0.5503
  390MOL0     C53695  -0.446   7.010   9.175 -0.0011  0.0757  0.6754
  390MOL0     C53696  -0.409   6.996   9.031  0.4803  0.1786 -0.0216
  390MOL0     C53697  -0.382   6.851   9.001 -0.4737  0.6303 -0.2070
  390MOL0     C53698  -0.321   6.817   8.870  0.5095  0.8383  0.0727
  390MOL0     N53699  -0.333   6.666   8.845 -0.4958 -0.4243  1.2112
  390MOL0     C53700  -0.260   6.573   8.912  0.3003 -0.7344 -0.3234
  390MOL0     C53701  -0.329   6.456   8.883  0.3915  0.4369  0.2210
  390MOL0     C53702  -0.296   6.322   8.943 -0.1316  0.2094 -0.0440
  390MOL0     C53703  -0.155   6.270   8.908 -1.2583 -0.0277 -1.2650
  390MOL0     C53704  -0.135   6.132   8.967 -0.6397 -0.2337 -0.1970
  390MOL0     C53705  -0.083   6.110   9.101 -0.2668  0.8611  0.4354
  390MOL0     O53706   0.035   6.195   9.111 -0.2909  0.2545  0.5157
  390MOL0     C53707   0.162   6.149   9.103  0.1257 -0.4095 -0.4678
  390MOL0     C53708   0.264   6.241   9.101 -0.0144 -0.0638 -0.1972
  390MOL0     C53709   0.397   6.200   9.099  0.2258  0.2767 -0.5953
  390MOL0     C53710   0.500   6.305   9.110  0.0711  0.2342 -0.3398
  390MOL0     C53711   0.424   6.061   9.078 -0.6752 -0.3579  0.3584
  390MOL0     C53712   0.557   6.000   9.074 -0.0128  0.5355  1.1612
  390MOL0     O53713   0.571   5.861   9.115  0.5205 -0.3289 -0.6204
  390MOL0     C53714   0.688   5.791   9.108 -0.2949 -0.1743 -0.7029
  390MOL0     C53715   0.791   5.811   9.019  0.3020  0.4194  0.6249
  390MOL0     C53716   0.916   5.760   9.039  0.0800 -0.5372 -0.1277
  390MOL0     C53717   0.941   5.680   9.151 -0.4689  0.8874  0.5716
  390MOL0     O53718   1.073   5.633   9.154 -0.1178 -0.1722  0.1134
  390MOL0     C53719   1.118   5.586   9.282 -0.0669 -0.1942  0.0532
  390MOL0     C53720   1.264   5.584   9.278  0.4803  0.1789  0.1730
  390MOL0     C53721   1.333   5.571   9.409  0.4378 -0.1895  0.2640
  390MOL0     C53722   1.481   5.532   9.407  0.8222  0.1395 -0.1089
  390MOL0     C53723   1.534   5.473   9.548 -1.0522  1.1413 -0.0255
  390MOL0     C53724   1.678   5.402   9.533 -0.2093  0.2011 -0.3695
  390MOL0     C53725   1.735   5.338   9.670 -0.1858 -0.4938  0.4852
  390MOL0     C53726   1.849   5.251   9.624 -0.0289  0.3050 -0.3552
  390MOL0    Cl53727   1.991   5.350   9.597 -0.1424  0.2521 -0.0304
  390MOL0     C53728   0.840   5.637   9.227 -0.2152  0.0338 -0.3868
  390MOL0     C53729   0.712   5.692   9.209  0.0447 -0.5589  0.0318
  390MOL0     O53730   0.646   6.068   9.024 -0.0138  0.0139  0.1609
  390MOL0     C53731   0.316   5.978   9.073  0.1912  1.0083 -0.5910
  390MOL0     C53732   0.187   6.017   9.090  0.1203  0.5801 -1.0068
  390MOL0     N53733  -0.433   6.484   8.796 -0.2554  0.0781 -0.4480
  390MOL0     N53734  -0.441   6.614   8.783  0.8401 -0.0202 -0.1820
  390MOL0     C53735  -0.021   7.569   9.420 -0.0699 -0.0057  0.4278
  390MOL0     C53736   0.100   7.613   9.470  0.1866  0.2257  0.4035
  390MOL0     C53737   0.550   7.732   9.418 -0.5175 -0.0175  0.4021
  390MOL0     C53738   0.610   7.672   9.526  0.5111 -0.0386 -0.2478
  390MOL0     C53739   0.743   7.690   9.552  0.0584  0.0078 -1.0610
  390MOL0     C53740   0.833   7.754   9.461 -0.3625  1.1741  0.7788
  390MOL0     O53741   0.974   7.759   9.478  0.4162  0.4111 -0.3565
  390MOL0     C53742   1.028   7.738   9.612  0.4008  0.2443  0.3067
  390MOL0     C53743   1.174   7.761   9.586  0.5717  0.4839 -0.2665
  390MOL0     C53744   1.270   7.754   9.700 -0.7198 -0.2370 -0.5528
  390MOL0     C53745   1.306   7.893   9.772  0.9220 -0.1853 -0.3288
  390MOL0     C53746   1.412   7.977   9.710  0.3257 -0.1476  0.1261
  390MOL0     C53747   1.498   8.048   9.666  0.0728 -0.6883  0.6364
  390MOL0     C53748   0.778   7.801   9.343  0.4683  0.9039  0.3608
  390MOL0     C53749   0.635   7.802   9.325 -0.3718  0.9102 -0.5753
  390MOL0     C53750   0.600   7.860   9.197  0.0591 -0.3816 -0.1740
  390MOL0     H53751   0.304   7.478   9.239  0.3822  2.1387 -0.5569
  390MOL0     H53752   0.084   7.381   9.162  0.9940  0.4107 -0.9108
  390MOL0     H53753  -0.282   7.576   9.309 -1.1671 -0.8057 -1.5958
  390MOL0     H53754  -0.274   7.444   9.434  0.3022 -1.0021  0.6753
  390MOL0     H53755  -0.465   7.368   9.353  0.2312 -0.9022 -0.5096
  390MOL0     H53756  -0.427   7.429   9.185 -2.7586 -2.3143 -0.2730
  390MOL0     H53757  -0.312   7.267   9.128  2.1750 -0.2009  1.8444
  390MOL0     H53758  -0.285   7.183   9.280  1.3687  0.5114 -0.8104
  390MOL0     H53759  -0.525   7.165   9.298  2.2860  0.0541  1.1655
  390MOL0     H53760  -0.540   7.187   9.118 -1.6699  0.3338  0.0368
  390MOL0     H53761  -0.533   6.947   9.191 -0.3535 -0.4420 -2.5348
  390MOL0     H53762  -0.361   6.983   9.238  2.0888  0.5584 -1.7560
  390MOL0     H53763  -0.493   7.026   8.968 -1.2714 -0.5370  1.8419
  390MOL0     H53764  -0.319   7.053   9.008 -0.0721  1.1997  0.2892
  390MOL0     H53765  -0.478   6.798   8.999  0.3499 -1.1246  2.0420
  390MOL0     H53766  -0.316   6.807   9.076 -0.4279 -0.6069 -0.9453
  390MOL0     H53767  -0.382   6.861   8.789  1.5642  0.2681 -1.0630
  390MOL0     H53768  -0.214   6.836   8.866  1.4212 -3.4877 -0.0870
  390MOL0     H53769  -0.172   6.584   8.975 -0.6002 -1.2976  1.0705
  390MOL0     H53770  -0.369   6.244   8.920 -2.3713  0.6860  4.3690
  390MOL0     H53771  -0.301   6.348   9.049 -0.2839  1.8474 -0.4282
  390MOL0     H53772  -0.150   6.267   8.798  0.0273 -1.8925 -1.1908
  390MOL0     H53773  -0.082   6.344   8.941 -1.8731 -0.1799  0.5043
  390MOL0     H53774  -0.229   6.077   8.954 -0.1246 -1.1549 -0.1260
  390MOL0     H53775  -0.057   6.082   8.909 -0.1915 -2.2065  1.9680
  390MOL0     H53776  -0.147   6.140   9.185 -0.9336  1.0014 -0.1117
  390MOL0     H53777  -0.071   6.002   9.111 -1.4030  0.8184  1.6281
  390MOL0     H53778   0.247   6.347   9.116  0.1982 -0.1329  0.6186
  390MOL0     H53779   0.575   6.258   9.175  0.0786 -0.2233 -0.6700
  390MOL0     H53780   0.466   6.397   9.157 -0.0858  0.7549 -1.4302
  390MOL0     H53781   0.533   6.330   9.009  1.0549  2.6520  0.5181
  390MOL0     H53782   0.765   5.889   8.948  0.9745 -0.7255 -0.9419
  390MOL0     H53783   1.002   5.793   8.982 -0.0275  0.5541  0.3241
  390MOL0     H53784   1.088   5.655   9.361 -0.6346  1.3845 -1.4692
  390MOL0     H53785   1.078   5.485   9.295 -0.3688 -0.0517  0.2309
  390MOL0     H53786   1.285   5.505   9.205 -2.1922  1.8975 -2.6700
  390MOL0     H53787   1.301   5.676   9.232 -2.1196  1.6220  0.8021
  390MOL0     H53788   1.277   5.493   9.462  1.1560  0.4154  2.0133
  390MOL0     H53789   1.327   5.669   9.458 -0.0587 -0.5307  0.9050
  390MOL0     H53790   1.539   5.623   9.385 -0.0646  0.7370 -0.0246
  390MOL0     H53791   1.501   5.464   9.323 -1.2501 -1.2674  0.4810
  390MOL0     H53792   1.527   5.550   9.625 -2.8604 -0.1893  1.2122
  390MOL0     H53793   1.460   5.398   9.576 -1.6589  1.4853 -0.6755
  390MOL0     H53794   1.753   5.460   9.478  0.1607  0.8960  0.8492
  390MOL0     H53795   1.663   5.310   9.476  0.0275 -0.1693  0.1559
  390MOL0     H53796   1.650   5.285   9.714 -0.9779 -0.7041 -1.2397
  390MOL0     H53797   1.780   5.415   9.735  1.3664 -0.6215 -0.3789
  390MOL0     H53798   1.823   5.181   9.545 -0.7124  0.9010 -0.6780
  390MOL0     H53799   1.882   5.192   9.710 -0.6880 -2.3515 -1.8487
  390MOL0     H53800   0.852   5.572   9.314 -1.4725  1.8199  1.2122
  390MOL0     H53801   0.628   5.675   9.276 -0.9932  0.5980 -0.9151
  390MOL0     H53802   0.336   5.875   9.043  0.0532  0.5533  0.8183
  390MOL0     H53803   0.111   5.940   9.082 -0.2891  1.0184 -1.4961
  390MOL0     H53804  -0.115   7.598   9.467 -1.5460  1.7030 -3.2011
  390MOL0     H53805   0.092   7.677   9.557 -2.0028 -1.8327  1.8355
  390MOL0     H53806   0.547   7.624   9.599  0.8351  1.2594  0.9393
  390MOL0     H53807   0.763   7.658   9.654 -4.4575  1.3212  0.4593
  390MOL0     H53808   0.980   7.810   9.679 -0.3443 -0.8238  0.9510
  390MOL0     H53809   1.007   7.639   9.653  2.2448  0.4941  1.9838
  390MOL0     H53810   1.190   7.860   9.542 -1.7361  2.2184  2.4139
  390MOL0     H53811   1.207   7.687   9.513  3.3264  3.5991 -2.5082
  390MOL0     H53812   1.240   7.684   9.778  1.4204  1.9211  2.4391
  390MOL0     H53813   1.355   7.714   9.644 -0.4078  1.4392 -1.3491
  390MOL0     H53814   1.334   7.879   9.877  2.5420 -0.8722 -0.8156
  390MOL0     H53815   1.212   7.950   9.770 -0.0096 -1.6498 -0.0171
  390MOL0     H53816   1.565   8.128   9.645 -1.5594  1.1746  2.0782
  390MOL0     H53817   0.848   7.846   9.274  3.6693  1.5927  3.7296
  390MOL0     H53818   0.527   7.941   9.210 -1.1012 -1.3813 -0.1934
  390MOL0     H53819   0.683   7.897   9.136  3.5322  0.7386  4.6625
  390MOL0     H53820   0.552   7.785   9.133  2.3601 -1.8155 -0.2846
  391MOL0     O53821   6.839   4.322   1.972  0.1476 -0.3793  0.2226
  391MOL0     C53822   6.734   4.269   1.930 -0.2188 -0.3100  0.2250
  391MOL0     O53823   6.674   4.160   1.994  0.2703 -0.2517  0.2409
  391MOL0     C53824   6.738   4.095   2.092  0.6226 -0.3923 -0.1438
  391MOL0     C53825   6.645   4.065   2.196 -0.3639 -0.1335  0.6361
  391MOL0     C53826   6.698   3.986   2.300  0.6763  0.2069 -0.2803
  391MOL0     C53827   6.835   3.943   2.314  0.3950  0.4541 -0.7983
  391MOL0     O53828   6.886   3.877   2.419 -0.2054  0.4017  0.1938
  391MOL0     C53829   6.799   3.798   2.492  0.7586 -0.0686 -0.1904
  391MOL0     C53830   6.891   3.740   2.613  0.3354  0.0947  0.8417
  391MOL0     C53831   6.824   3.615   2.686  0.1364 -0.0052 -0.0875
  391MOL0     C53832   6.924   3.566   2.792 -0.4102 -0.0464 -1.0057
  391MOL0     C53833   6.896   3.423   2.844  0.2616  0.1425  0.1155
  391MOL0     C53834   7.013   3.365   2.934 -0.2111  0.4051 -0.1181
  391MOL0     C53835   6.976   3.225   2.982  0.1917  0.2693 -0.7514
  391MOL0     C53836   7.101   3.157   3.040 -0.2961  0.7217  0.3178
  391MOL0     N53837   7.117   3.188   3.185 -1.2966 -0.2302  0.3528
  391MOL0     C53838   7.027   3.147   3.268  0.3521  0.3439  0.1269
  391MOL0     C53839   7.068   3.181   3.391  0.4639 -1.1223  1.1532
  391MOL0     C53840   7.006   3.150   3.524  0.7369  0.0861 -0.1969
  391MOL0     C53841   6.863   3.208   3.534 -0.5395  0.8837  0.3167
  391MOL0     C53842   6.809   3.178   3.672 -0.0146 -0.7836  0.4487
  391MOL0     C53843   6.670   3.235   3.698 -0.6561  0.4210  0.2659
  391MOL0     O53844   6.667   3.378   3.695 -0.4965 -1.0096 -0.2463
  391MOL0     C53845   6.558   3.453   3.668 -0.0105  0.6466  0.4702
  391MOL0     C53846   6.577   3.587   3.637 -0.3219 -0.9983  0.3913
  391MOL0     C53847   6.469   3.671   3.598  0.8463 -0.3878  0.2892
  391MOL0     C53848   6.491   3.817   3.606 -0.4123  0.1696 -0.0307
  391MOL0     C53849   6.345   3.607   3.572  0.3218 -0.6477 -0.1672
  391MOL0     C53850   6.222   3.686   3.541  0.2779  0.5354 -0.1809
  391MOL0     O53851   6.109   3.639   3.599 -0.0261 -0.3462  0.5292
  391MOL0     C53852   5.987   3.688   3.559  0.2165  0.3573  0.7735
  391MOL0     C53853   5.898   3.722   3.662 -0.5080  0.4437  0.2750
  391MOL0     C53854   5.776   3.780   3.639 -0.0605  0.7834 -0.7844
  391MOL0     C53855   5.732   3.805   3.508 -0.2661 -0.2067  0.5799
  391MOL0     O53856   5.611   3.860   3.482  0.5339 -0.3134  0.1786
  391MOL0     C53857   5.542   3.838   3.358 -0.4674  0.2434 -0.1533
  391MOL0     C53858   5.420   3.927   3.328 -0.7967  0.1990 -0.3702
  391MOL0     C53859   5.316   3.900   3.443 -0.2199  1.5005  0.2932
  391MOL0     C53860   5.188   3.973   3.414  0.4778  0.4521  0.7996
  391MOL0     C53861   5.085   3.953   3.532  0.7509 -0.8585  0.0091
  391MOL0     C53862   4.945   4.012   3.507 -0.6096 -0.4063  0.0073
  391MOL0     C53863   4.943   4.172   3.513 -0.5146  0.6980  1.4335
  391MOL0     C53864   4.802   4.224   3.544  0.4979  0.2870 -0.1447
  391MOL0    Cl53865   4.794   4.399   3.539  0.4066 -0.0756  0.7076
  391MOL0     C53866   5.823   3.786   3.406 -0.2185  0.2464 -0.1344
  391MOL0     C53867   5.954   3.737   3.435 -0.5110  0.3073  0.5540
  391MOL0     O53868   6.231   3.779   3.463  0.0748 -0.4981 -0.3783
  391MOL0     C53869   6.328   3.473   3.587 -0.1524 -0.3809 -0.0765
  391MOL0     C53870   6.426   3.403   3.650 -0.8766 -0.6630  0.7155
  391MOL0     N53871   7.187   3.251   3.379  0.0705 -0.8272  0.0301
  391MOL0     N53872   7.217   3.263   3.253  0.5999  0.5110 -0.1503
  391MOL0     C53873   6.922   3.978   2.211  0.4941 -0.0254  0.6572
  391MOL0     C53874   6.870   4.057   2.102  1.0541 -0.2358  0.6123
  391MOL0     C53875   6.662   4.342   1.810 -0.3527 -1.2600  0.0290
  391MOL0     C53876   6.569   4.266   1.749  0.1107  0.2908 -0.3503
  391MOL0     C53877   6.491   4.302   1.633  0.4997 -0.1416  0.4499
  391MOL0     C53878   6.505   4.439   1.593  0.5542  0.5621 -0.0677
  391MOL0     O53879   6.437   4.507   1.492 -0.1597  0.6383  0.2800
  391MOL0     C53880   6.344   4.424   1.415 -0.5041  0.7579  0.6482
  391MOL0     C53881   6.257   4.499   1.316 -0.3380  0.1572  0.2401
  391MOL0     C53882   6.337   4.523   1.184  0.4315  0.1314 -0.0986
  391MOL0     C53883   6.285   4.639   1.104  0.8500 -0.6419 -0.1319
  391MOL0     C53884   6.312   4.621   0.962 -0.2539  0.3998 -0.3463
  391MOL0     C53885   6.365   4.600   0.850 -0.2061 -0.6041 -0.7573
  391MOL0     C53886   6.606   4.510   1.654 -0.2193  0.0947 -0.5001
  391MOL0     C53887   6.685   4.471   1.761  0.0486  0.0782  0.0955
  391MOL0     C53888   6.789   4.564   1.817 -0.4028 -0.0109 -0.5791
  391MOL0     H53889   6.542   4.099   2.198 -0.4807 -0.3882 -0.3917
  391MOL0     H53890   6.625   3.958   2.376  3.1319 -1.4804  1.6196
  391MOL0     H53891   6.765   3.707   2.441  2.2714 -1.1225  0.6382
  391MOL0     H53892   6.717   3.858   2.534  0.9116 -0.5791  0.8457
  391MOL0     H53893   6.989   3.713   2.575 -0.3233  0.8166 -1.5065
  391MOL0     H53894   6.906   3.824   2.682  0.6279  0.5456  0.2317
  391MOL0     H53895   6.729   3.650   2.728 -0.5555 -1.8680  0.0007
  391MOL0     H53896   6.798   3.539   2.611 -0.7689  0.0698  0.1307
  391MOL0     H53897   7.021   3.561   2.741 -0.0558 -1.1550 -0.2675
  391MOL0     H53898   6.934   3.634   2.877  0.7967  0.4658 -1.5360
  391MOL0     H53899   6.907   3.364   2.753  4.4609  0.1054  0.4823
  391MOL0     H53900   6.796   3.420   2.889  1.0891 -0.4454  1.9944
  391MOL0     H53901   7.105   3.366   2.875  0.1640  2.9903  0.4011
  391MOL0     H53902   7.020   3.436   3.017 -2.8582  2.3379 -1.4266
  391MOL0     H53903   6.937   3.179   2.891  1.5727 -0.4872 -0.9995
  391MOL0     H53904   6.890   3.225   3.050  2.8455  1.6392  2.9599
  391MOL0     H53905   7.098   3.049   3.027  1.3110  0.5286  1.2471
  391MOL0     H53906   7.191   3.192   2.989  0.0776 -1.5750 -0.7030
  391MOL0     H53907   6.942   3.086   3.237  0.6462 -1.0319  1.8923
  391MOL0     H53908   7.067   3.189   3.605 -0.1451  1.4526 -0.1544
  391MOL0     H53909   7.004   3.040   3.531  1.2562  0.1574  1.6373
  391MOL0     H53910   6.869   3.316   3.514 -0.9155  1.5613  3.3254
  391MOL0     H53911   6.791   3.164   3.464  0.0430 -0.0785  0.3088
  391MOL0     H53912   6.803   3.074   3.704  0.2644 -0.1828  2.6006
  391MOL0     H53913   6.868   3.226   3.749 -0.9368 -2.2332  2.1319
  391MOL0     H53914   6.607   3.203   3.615 -2.0885 -2.5070  2.3122
  391MOL0     H53915   6.637   3.192   3.793  0.8915  1.3294  1.2815
  391MOL0     H53916   6.678   3.623   3.651 -0.3638 -1.0735  0.9416
  391MOL0     H53917   6.479   3.851   3.503 -1.2801  0.9857  0.3271
  391MOL0     H53918   6.595   3.831   3.639 -0.4383  1.3935 -0.4137
  391MOL0     H53919   6.420   3.864   3.675  0.3131  2.8391 -0.9574
  391MOL0     H53920   5.913   3.695   3.767 -1.7046  1.9418  0.8662
  391MOL0     H53921   5.707   3.815   3.714 -2.7771  0.0746 -2.8049
  391MOL0     H53922   5.611   3.859   3.276 -0.5408  0.6469 -0.1105
  391MOL0     H53923   5.513   3.733   3.355 -2.9252  0.8967 -2.6469
  391MOL0     H53924   5.454   4.031   3.326  0.3515 -0.1061  1.4589
  391MOL0     H53925   5.392   3.901   3.226  2.4990  2.1532 -1.9465
  391MOL0     H53926   5.350   3.932   3.542 -0.9689  1.8993  0.4358
  391MOL0     H53927   5.292   3.795   3.428 -0.5086  1.7214 -0.9399
  391MOL0     H53928   5.140   3.927   3.327  0.7176  0.6008  0.5868
  391MOL0     H53929   5.199   4.077   3.380 -1.1222  1.1765  2.3584
  391MOL0     H53930   5.069   3.846   3.547  1.5343 -1.5480 -3.3561
  391MOL0     H53931   5.122   3.990   3.629  0.9046 -0.8475 -0.0525
  391MOL0     H53932   4.872   3.972   3.579 -2.5496 -1.5152 -2.4380
  391MOL0     H53933   4.911   3.974   3.411  0.0148  1.3634 -0.9527
  391MOL0     H53934   4.957   4.204   3.409  0.7290  0.6313  1.5691
  391MOL0     H53935   5.019   4.214   3.579 -0.3734  0.9704  1.1023
  391MOL0     H53936   4.787   4.194   3.649  2.6905  0.8445  0.3728
  391MOL0     H53937   4.734   4.170   3.477  3.1615 -0.9049 -2.0706
  391MOL0     H53938   5.809   3.809   3.301 -0.3915  0.1301 -0.1362
  391MOL0     H53939   6.027   3.749   3.355  1.4343 -2.6348  1.6893
  391MOL0     H53940   6.235   3.420   3.571  0.4924 -1.5940  0.0637
  391MOL0     H53941   6.408   3.297   3.665  1.8946 -1.5554 -1.3642
  391MOL0     H53942   7.029   3.968   2.225  0.8543  2.7875  0.5846
  391MOL0     H53943   6.932   4.075   2.014 -1.3410  0.3943 -1.0587
  391MOL0     H53944   6.550   4.161   1.769 -3.5152  0.6275 -1.3861
  391MOL0     H53945   6.432   4.230   1.577  0.2884 -1.1347  1.8747
  391MOL0     H53946   6.398   4.343   1.367 -1.3302  1.6077 -1.8935
  391MOL0     H53947   6.273   4.378   1.484 -0.9694  1.2693  0.5213
  391MOL0     H53948   6.225   4.597   1.353 -0.4768  0.4862 -0.7157
  391MOL0     H53949   6.171   4.435   1.290  0.1266  0.2233 -1.6206
  391MOL0     H53950   6.440   4.551   1.207 -0.2897  1.6691  1.4525
  391MOL0     H53951   6.330   4.429   1.129 -1.0969  0.8350 -1.1592
  391MOL0     H53952   6.335   4.730   1.140 -1.7048  0.6422  0.4438
  391MOL0     H53953   6.179   4.652   1.129  1.3239 -0.1639  1.8072
  391MOL0     H53954   6.418   4.594   0.757 -0.2706  1.3601 -0.9620
  391MOL0     H53955   6.621   4.614   1.624  0.6342  0.9057  2.4071
  391MOL0     H53956   6.777   4.579   1.924  0.1978 -1.3184 -0.3098
  391MOL0     H53957   6.891   4.525   1.811 -1.6368 -3.8247  0.3157
  391MOL0     H53958   6.778   4.665   1.775  0.8065 -0.5563 -2.2994
  392MOL0     O53959   4.481   1.469   6.808 -1.0768 -0.0703 -0.3755
  392MOL0     C53960   4.434   1.356   6.801  0.0457 -0.0544 -0.6861
  392MOL0     O53961   4.482   1.254   6.724  0.0271 -0.0515  0.5710
  392MOL0     C53962   4.546   1.293   6.612  0.4844  0.4882  0.0527
  392MOL0     C53963   4.509   1.402   6.531 -0.1380 -0.1709 -0.3196
  392MOL0     C53964   4.578   1.419   6.414  0.1637  1.0754  0.0081
  392MOL0     C53965   4.683   1.338   6.369  0.4208 -0.8767  0.7847
  392MOL0     O53966   4.737   1.352   6.244 -0.4671  0.2075  0.3854
  392MOL0     C53967   4.668   1.445   6.157  0.1468 -0.6341  0.2732
  392MOL0     C53968   4.686   1.399   6.007  0.1391 -0.2064 -0.5870
  392MOL0     C53969   4.605   1.498   5.916  0.6790  0.4968 -0.4872
  392MOL0     C53970   4.606   1.448   5.770 -0.6079  0.2044 -0.1540
  392MOL0     C53971   4.506   1.334   5.761  0.7660  0.1067 -0.1954
  392MOL0     C53972   4.471   1.284   5.621 -0.9219  1.0756 -0.1730
  392MOL0     C53973   4.331   1.225   5.600 -0.1705  0.1785 -0.7054
  392MOL0     C53974   4.314   1.089   5.663 -0.1068  0.3110 -0.0896
  392MOL0     N53975   4.175   1.052   5.669 -0.5811 -0.2377  0.7507
  392MOL0     C53976   4.127   0.948   5.596 -0.0324 -0.1603  0.0482
  392MOL0     C53977   3.995   0.955   5.622 -0.1672  0.3517  0.3275
  392MOL0     C53978   3.893   0.850   5.569  0.5918  0.1874 -0.4565
  392MOL0     C53979   3.752   0.880   5.614  0.3734 -0.3129  0.6101
  392MOL0     C53980   3.723   0.846   5.762 -0.1053  0.0060  0.1380
  392MOL0     C53981   3.576   0.823   5.797 -0.1877 -0.3599  0.1581
  392MOL0     O53982   3.487   0.888   5.701 -0.0636 -0.2232 -0.1342
  392MOL0     C53983   3.352   0.876   5.714 -0.6247 -0.0174 -0.0438
  392MOL0     C53984   3.283   0.929   5.611  0.5443  0.0495 -0.2797
  392MOL0     C53985   3.144   0.938   5.608  0.2786  0.1030 -0.3728
  392MOL0     C53986   3.087   1.005   5.488  0.0603  0.3936 -0.1050
  392MOL0     C53987   3.074   0.876   5.718  1.2783 -0.2937  0.0286
  392MOL0     C53988   2.930   0.894   5.737  0.2777  0.0815  0.3683
  392MOL0     O53989   2.876   0.891   5.859 -0.0818 -0.2371  0.7049
  392MOL0     C53990   2.743   0.866   5.871  1.1547  0.2078  0.0613
  392MOL0     C53991   2.696   0.740   5.918  0.3856  0.2234  0.1736
  392MOL0     C53992   2.557   0.722   5.935  0.0127 -0.8575 -0.3024
  392MOL0     C53993   2.466   0.813   5.887 -0.2416 -0.5620 -0.1477
  392MOL0     O53994   2.331   0.788   5.913  0.5238 -0.4673  0.0753
  392MOL0     C53995   2.238   0.901   5.902  0.3504  0.3539 -0.0691
  392MOL0     C53996   2.093   0.853   5.875  0.2330  0.4684  0.4025
  392MOL0     C53997   1.995   0.941   5.789 -0.3601 -0.2944 -0.2544
  392MOL0     C53998   2.041   0.963   5.640 -0.1938 -0.8369  0.1287
  392MOL0     C53999   1.931   1.032   5.550 -0.2000 -0.1716 -0.5079
  392MOL0     C54000   1.927   1.185   5.572  0.4357  0.0780 -0.8102
  392MOL0     C54001   1.812   1.230   5.480 -0.3050 -0.3587 -1.4207
  392MOL0     C54002   1.786   1.378   5.497  0.5087 -0.0383  0.3435
  392MOL0    Cl54003   1.934   1.474   5.473  0.1762  0.4215  0.3044
  392MOL0     C54004   2.515   0.940   5.830  0.1414 -0.3104  0.1156
  392MOL0     C54005   2.650   0.963   5.826  0.3027  0.2081 -0.4547
  392MOL0     O54006   2.860   0.910   5.636 -0.0362 -1.0976 -0.3664
  392MOL0     C54007   3.146   0.826   5.822  0.1229  0.1546 -0.3817
  392MOL0     C54008   3.286   0.816   5.817 -0.2937  0.3917 -1.0576
  392MOL0     N54009   3.963   1.061   5.708 -0.1654 -0.4105  0.0023
  392MOL0     N54010   4.075   1.123   5.727 -0.2253 -0.6134 -0.2124
  392MOL0     C54011   4.720   1.233   6.447  0.3603 -0.5336 -0.2344
  392MOL0     C54012   4.645   1.209   6.563 -0.0683  0.3577  0.0475
  392MOL0     C54013   4.331   1.320   6.896  0.6209  0.4440  1.1969
  392MOL0     C54014   4.302   1.176   6.907  0.8267 -0.4987 -0.1951
  392MOL0     C54015   4.190   1.132   6.975 -0.6591 -0.4346 -0.1119
  392MOL0     C54016   4.107   1.222   7.033 -0.2927 -0.2645  0.0885
  392MOL0     O54017   3.994   1.168   7.099 -0.2074  0.2005  0.2543
  392MOL0     C54018   3.895   1.254   7.156  0.5369 -0.7401  0.4337
  392MOL0     C54019   3.784   1.173   7.211 -0.3049  0.9552 -0.8665
  392MOL0     C54020   3.689   1.254   7.305  0.4043 -0.1647  0.3236
  392MOL0     C54021   3.554   1.182   7.323 -1.0083 -0.8095  0.1810
  392MOL0     C54022   3.586   1.052   7.393 -0.2705  0.2542  0.1510
  392MOL0     C54023   3.625   0.949   7.450 -0.3338  0.7995 -0.1911
  392MOL0     C54024   4.133   1.358   7.032 -0.3839 -0.5681 -0.5060
  392MOL0     C54025   4.242   1.411   6.958 -0.0942 -0.4594 -0.6700
  392MOL0     C54026   4.262   1.566   6.956 -0.0932 -0.8921 -0.0161
  392MOL0     H54027   4.437   1.478   6.559 -0.0413  0.3116 -1.3682
  392MOL0     H54028   4.550   1.512   6.366  0.7684  0.9603 -0.5789
  392MOL0     H54029   4.708   1.544   6.181  1.6378 -0.7590 -1.5231
  392MOL0     H54030   4.561   1.431   6.177  0.1450 -0.4376  0.4087
  392MOL0     H54031   4.791   1.398   5.974 -0.0185  1.7042 -1.2761
  392MOL0     H54032   4.649   1.296   6.001  0.2649 -0.2445 -0.7450
  392MOL0     H54033   4.509   1.493   5.968  0.5636  0.8247 -0.6644
  392MOL0     H54034   4.642   1.601   5.924  0.8313  0.5091 -1.3025
  392MOL0     H54035   4.586   1.533   5.704 -0.1563  2.3083  2.2745
  392MOL0     H54036   4.710   1.418   5.756 -1.1898 -2.1546  0.1708
  392MOL0     H54037   4.411   1.369   5.804 -0.0485  0.6269 -2.2785
  392MOL0     H54038   4.542   1.249   5.818  0.3811  1.7520  2.6991
  392MOL0     H54039   4.478   1.373   5.558  0.1282 -1.0385 -3.2995
  392MOL0     H54040   4.554   1.218   5.593 -2.0515  0.2359 -1.6613
  392MOL0     H54041   4.326   1.207   5.492 -1.5797 -3.0022 -0.2300
  392MOL0     H54042   4.258   1.300   5.632  1.9777  2.3705 -0.6542
  392MOL0     H54043   4.375   1.019   5.604  0.9599  0.0983  1.2086
  392MOL0     H54044   4.352   1.076   5.765 -0.6239  1.9176  0.3257
  392MOL0     H54045   4.186   0.887   5.529  0.4803  0.4798 -0.0888
  392MOL0     H54046   3.930   0.754   5.606  2.3033  1.1603  0.4598
  392MOL0     H54047   3.897   0.856   5.459 -1.3424  0.3762 -0.5530
  392MOL0     H54048   3.736   0.983   5.582 -1.2501 -1.1503 -1.5385
  392MOL0     H54049   3.679   0.822   5.558 -0.1901  1.9680 -1.1458
  392MOL0     H54050   3.777   0.755   5.787 -0.5036 -1.0226 -2.4226
  392MOL0     H54051   3.762   0.926   5.826  1.3861  0.3645 -1.1554
  392MOL0     H54052   3.558   0.716   5.789  0.8273 -0.5320  0.1160
  392MOL0     H54053   3.575   0.859   5.900  0.3824  0.6814 -0.1818
  392MOL0     H54054   3.343   0.965   5.528  2.6830 -1.7585  0.3750
  392MOL0     H54055   3.050   0.932   5.416 -0.2259  1.2663 -0.8596
  392MOL0     H54056   3.167   1.052   5.431 -0.0460 -0.0265 -0.6043
  392MOL0     H54057   3.007   1.079   5.496  0.8914  1.5328 -1.7847
  392MOL0     H54058   2.770   0.662   5.934  0.0091 -0.6916 -2.1272
  392MOL0     H54059   2.522   0.624   5.965  1.0767 -0.6300  1.8549
  392MOL0     H54060   2.251   0.958   5.995  0.3699 -0.8682  0.7049
  392MOL0     H54061   2.270   0.970   5.824  1.1391  0.7049  0.5395
  392MOL0     H54062   2.097   0.754   5.829 -1.2117  0.2583  0.6871
  392MOL0     H54063   2.044   0.837   5.971 -0.6136 -1.2739 -0.2822
  392MOL0     H54064   2.001   1.035   5.844 -1.8741  0.0356 -0.6112
  392MOL0     H54065   1.887   0.921   5.791 -0.9193  2.3409 -0.5166
  392MOL0     H54066   2.045   0.866   5.590  0.5309 -0.1243 -1.2558
  392MOL0     H54067   2.137   1.015   5.633 -1.0754  0.6279 -4.4438
  392MOL0     H54068   1.961   1.000   5.450 -0.4974 -2.2967  0.0345
  392MOL0     H54069   1.838   0.979   5.573  0.6995 -1.5128  0.1811
  392MOL0     H54070   2.021   1.228   5.538 -0.1507  1.9055 -0.2964
  392MOL0     H54071   1.914   1.211   5.678  3.2461 -3.7357  0.6851
  392MOL0     H54072   1.721   1.177   5.510 -0.0736  0.9060  2.0121
  392MOL0     H54073   1.836   1.221   5.374  0.6107  1.4215 -1.4095
  392MOL0     H54074   1.759   1.398   5.601  2.1693 -0.0694  0.8169
  392MOL0     H54075   1.712   1.418   5.427 -0.7327 -4.4463 -1.1757
  392MOL0     H54076   2.449   1.013   5.783  0.6565 -0.2194 -0.4735
  392MOL0     H54077   2.698   1.055   5.792  1.0905  0.1626  0.4786
  392MOL0     H54078   3.093   0.780   5.905 -2.2181  0.2028 -1.7828
  392MOL0     H54079   3.327   0.767   5.905 -1.5206 -1.9394 -1.7021
  392MOL0     H54080   4.787   1.151   6.423 -2.6153 -3.3639  0.4016
  392MOL0     H54081   4.669   1.119   6.620 -0.9044  0.5344  0.6967
  392MOL0     H54082   4.364   1.108   6.849 -0.1240  0.6206 -2.6681
  392MOL0     H54083   4.170   1.026   6.983 -0.6668 -0.3394  1.6197
  392MOL0     H54084   3.950   1.310   7.232  0.4048 -0.4784  0.3347
  392MOL0     H54085   3.856   1.324   7.082 -0.5282 -1.1841  0.5514
  392MOL0     H54086   3.830   1.088   7.263  1.6009 -0.2021 -4.1827
  392MOL0     H54087   3.725   1.140   7.125  1.6582  0.3634 -2.0466
  392MOL0     H54088   3.731   1.283   7.402  2.1455  0.2396 -0.4996
  392MOL0     H54089   3.662   1.349   7.259  0.1027 -0.0899  0.6520
  392MOL0     H54090   3.506   1.164   7.226  2.2160  0.3408 -1.8168
  392MOL0     H54091   3.493   1.242   7.390 -0.2496 -0.2598  0.3906
  392MOL0     H54092   3.659   0.863   7.504  1.3682 -0.5369 -3.1529
  392MOL0     H54093   4.069   1.431   7.081 -0.4414 -0.7353 -0.3297
  392MOL0     H54094   4.359   1.590   7.001 -0.6635  1.3436  0.1405
  392MOL0     H54095   4.267   1.618   6.860 -1.7811  0.5389  0.6261
  392MOL0     H54096   4.192   1.618   7.022  1.0096 -0.0640  0.5525
  393MOL0     O54097   8.362   6.074   2.783 -0.7236 -0.1211 -0.2639
  393MOL0     C54098   8.323   6.168   2.857  0.0174  0.8074  0.2370
  393MOL0     O54099   8.395   6.216   2.964 -0.1548  0.0852  0.0314
  393MOL0     C54100   8.524   6.166   2.978 -0.8766 -0.0541 -0.4361
  393MOL0     C54101   8.580   6.116   3.094  1.2297  0.0890 -0.2974
  393MOL0     C54102   8.709   6.059   3.103 -0.1769 -0.1774 -0.3176
  393MOL0     C54103   8.790   6.061   2.987 -0.4556 -0.0600  0.0107
  393MOL0     O54104   8.909   5.996   2.997  0.5084  0.5029 -0.1996
  393MOL0     C54105   8.987   5.969   2.876  0.0561  0.3767 -0.0990
  393MOL0     C54106   9.078   5.848   2.914  0.2961 -0.1170 -0.2325
  393MOL0     C54107   9.204   5.890   2.985 -0.2797  0.9482 -0.8151
  393MOL0     C54108   9.312   5.787   2.967 -0.7795  0.3177  0.6826
  393MOL0     C54109   9.434   5.845   3.038 -0.5841  0.1621  0.5780
  393MOL0     C54110   9.551   5.753   3.040  0.7666  0.5995  0.6102
  393MOL0     C54111   9.662   5.806   3.130 -0.2045 -0.1144 -0.3201
  393MOL0     C54112   9.783   5.716   3.124 -1.1679  0.4857 -0.3871
  393MOL0     N54113   9.874   5.775   3.030 -0.3195  1.6323  0.1453
  393MOL0     C54114   9.884   5.727   2.899  0.1593 -1.0028  0.3618
  393MOL0     C54115  10.012   5.763   2.861 -0.1016  0.4470  0.1070
  393MOL0     C54116  10.068   5.719   2.737 -0.3517 -0.6808  0.1737
  393MOL0     C54117  10.126   5.842   2.668  0.2564  0.3511 -0.3417
  393MOL0     C54118  10.229   5.797   2.565 -0.1586  0.2100  0.4888
  393MOL0     C54119  10.252   5.913   2.458 -0.2206  0.1259  0.3486
  393MOL0     O54120  10.351   5.870   2.374 -0.5017  0.7566 -0.0474
  393MOL0     C54121  10.327   5.779   2.271 -0.0072 -0.5010 -0.3663
  393MOL0     C54122  10.208   5.716   2.250 -0.7772  0.4944 -0.2946
  393MOL0     C54123  10.199   5.601   2.162 -0.2343  0.6923 -0.7654
  393MOL0     C54124  10.065   5.534   2.162 -0.3685  1.1662 -0.2670
  393MOL0     C54125  10.308   5.561   2.077  0.0001 -0.2289 -0.2368
  393MOL0     C54126  10.302   5.444   1.984 -0.9300 -0.4664  0.2525
  393MOL0     O54127  10.424   5.387   1.959  0.1295  0.3434  0.4256
  393MOL0     C54128  10.423   5.272   1.879 -0.7249  0.8981 -0.1926
  393MOL0     C54129  10.429   5.275   1.743 -1.4117  0.4191  0.4870
  393MOL0     C54130  10.453   5.163   1.660 -0.2994  1.3350  0.3197
  393MOL0     C54131  10.484   5.037   1.735 -0.0597 -0.7874  0.4794
  393MOL0     O54132  10.521   4.938   1.654 -0.0673 -0.4081 -0.1427
  393MOL0     C54133  10.479   4.804   1.697 -0.5305  0.3189 -0.2031
  393MOL0     C54134  10.331   4.788   1.735 -0.2345  0.0085 -0.6418
  393MOL0     C54135  10.244   4.808   1.612 -0.6855  0.8505 -0.8845
  393MOL0     C54136  10.098   4.763   1.628  0.3789  0.6945  0.7846
  393MOL0     C54137  10.097   4.606   1.626  0.9816 -0.3744 -0.3417
  393MOL0     C54138   9.951   4.554   1.608  0.0182 -0.0504 -0.6006
  393MOL0     C54139   9.854   4.554   1.733 -0.3696  0.1715  0.1775
  393MOL0     C54140   9.706   4.533   1.702  0.2769 -0.2152  0.2641
  393MOL0    Cl54141   9.692   4.377   1.617 -0.1038  0.0888  0.4939
  393MOL0     C54142  10.492   5.030   1.873 -0.1956 -0.2530  0.2203
  393MOL0     C54143  10.445   5.146   1.937  0.3382 -0.4444 -0.1508
  393MOL0     O54144  10.198   5.400   1.941  0.0759 -0.5188 -0.2130
  393MOL0     C54145  10.427   5.639   2.094  0.2549 -0.1885 -0.1484
  393MOL0     C54146  10.435   5.746   2.189  0.0652  1.2098 -0.0385
  393MOL0     N54147  10.064   5.840   2.968 -0.2671 -0.0890  0.8984
  393MOL0     N54148   9.991   5.842   3.069  0.2968 -0.3871 -0.6056
  393MOL0     C54149   8.749   6.134   2.878  0.3348  0.4390  0.4963
  393MOL0     C54150   8.614   6.182   2.870 -0.0574 -1.4556 -0.7933
  393MOL0     C54151   8.193   6.236   2.834 -0.8479  0.4268  0.1951
  393MOL0     C54152   8.155   6.332   2.933 -0.9080 -0.0354 -0.2499
  393MOL0     C54153   8.053   6.420   2.913  0.4794  0.1415 -0.1320
  393MOL0     C54154   7.981   6.421   2.793 -0.9298 -0.2292  0.4004
  393MOL0     O54155   7.876   6.506   2.765  0.0171  0.3438 -0.2488
  393MOL0     C54156   7.895   6.642   2.780 -0.3393 -0.3431  0.3314
  393MOL0     C54157   7.756   6.697   2.757  0.7929 -0.6129 -0.6527
  393MOL0     C54158   7.707   6.680   2.612 -0.4914  0.1290  0.3269
  393MOL0     C54159   7.624   6.549   2.596 -0.1488  0.2879  0.4574
  393MOL0     C54160   7.547   6.545   2.470 -0.0774 -0.8189 -0.6016
  393MOL0     C54161   7.475   6.545   2.373 -0.7573  0.6476 -0.1802
  393MOL0     C54162   8.012   6.326   2.692  0.6868 -0.4063  0.0401
  393MOL0     C54163   8.117   6.234   2.711  0.5718 -0.6408 -0.8058
  393MOL0     C54164   8.143   6.124   2.607  0.3158  0.1993 -0.6886
  393MOL0     H54165   8.523   6.102   3.185  1.1932  0.9953 -0.1795
  393MOL0     H54166   8.763   6.026   3.191 -2.3653 -0.5446  0.9677
  393MOL0     H54167   9.050   6.051   2.840 -0.6587  1.1778  0.4060
  393MOL0     H54168   8.919   5.945   2.793 -1.7143  0.3556  1.2872
  393MOL0     H54169   9.015   5.771   2.960  1.2757 -1.3152 -0.8312
  393MOL0     H54170   9.115   5.805   2.821 -1.6723  1.9699 -2.1201
  393MOL0     H54171   9.237   5.985   2.941 -1.6484  1.2201 -1.2965
  393MOL0     H54172   9.191   5.906   3.092  3.9895  0.2265  0.0037
  393MOL0     H54173   9.281   5.685   2.988 -2.5222  0.6544 -0.0554
  393MOL0     H54174   9.341   5.773   2.862 -0.2901 -0.1237  0.8726
  393MOL0     H54175   9.407   5.863   3.142 -2.7650 -2.0215  0.4717
  393MOL0     H54176   9.462   5.937   2.985 -1.8565  0.5532  0.5546
  393MOL0     H54177   9.511   5.656   3.072 -1.9294  1.1443 -0.8050
  393MOL0     H54178   9.584   5.736   2.937 -0.7912  3.3574 -0.4787
  393MOL0     H54179   9.629   5.809   3.234  2.9810 -1.2845  0.8545
  393MOL0     H54180   9.677   5.907   3.092 -0.5951 -0.0143 -0.2163
  393MOL0     H54181   9.830   5.709   3.223  0.6106  3.2042 -0.9208
  393MOL0     H54182   9.758   5.617   3.085 -0.0381  1.1033 -2.8782
  393MOL0     H54183   9.809   5.670   2.845 -0.7539  1.3089 -0.9532
  393MOL0     H54184   9.988   5.679   2.673 -2.9026  0.2399  2.5953
  393MOL0     H54185  10.152   5.652   2.755  0.9961  1.2196  1.2328
  393MOL0     H54186  10.042   5.895   2.622 -1.1310 -1.1398  0.3950
  393MOL0     H54187  10.165   5.922   2.733 -1.4908  0.4160  0.6819
  393MOL0     H54188  10.326   5.767   2.607  0.4146 -0.6636 -1.3405
  393MOL0     H54189  10.194   5.703   2.520 -0.0163  0.2531  0.2862
  393MOL0     H54190  10.163   5.946   2.403  0.7452  1.9566 -0.1975
  393MOL0     H54191  10.286   6.005   2.508  1.0458 -1.7645  3.2053
  393MOL0     H54192  10.116   5.742   2.301 -0.2157 -1.7772  2.1175
  393MOL0     H54193  10.072   5.425   2.162  2.8420  1.2200 -2.7472
  393MOL0     H54194  10.007   5.553   2.072  0.8242 -4.7624 -2.7258
  393MOL0     H54195  10.013   5.562   2.254 -0.3903  0.7719 -0.1589
  393MOL0     H54196  10.417   5.375   1.702  2.4204  0.4858 -0.9152
  393MOL0     H54197  10.455   5.166   1.552  1.0203 -2.2823  0.1114
  393MOL0     H54198  10.502   4.733   1.618  0.9838  0.6816 -0.1226
  393MOL0     H54199  10.536   4.775   1.786 -1.4735 -2.6723 -0.4942
  393MOL0     H54200  10.312   4.691   1.782  1.2792 -1.2960 -2.6114
  393MOL0     H54201  10.300   4.850   1.820 -0.7276 -3.6635  2.1294
  393MOL0     H54202  10.285   4.756   1.525 -0.3217 -1.6751  0.6828
  393MOL0     H54203  10.252   4.915   1.588  4.2518  1.1891  1.0308
  393MOL0     H54204  10.036   4.800   1.546  1.5697 -0.3226 -0.6405
  393MOL0     H54205  10.054   4.796   1.722 -0.4121 -2.7532  1.7642
  393MOL0     H54206  10.153   4.568   1.540 -1.2718 -2.7854 -0.8687
  393MOL0     H54207  10.133   4.574   1.724 -2.6081  2.4998  2.2011
  393MOL0     H54208   9.970   4.454   1.568  0.6716 -0.2442  0.1626
  393MOL0     H54209   9.901   4.624   1.541 -0.5500 -0.3757 -0.5282
  393MOL0     H54210   9.875   4.650   1.783  0.8443 -1.0175  2.1083
  393MOL0     H54211   9.891   4.484   1.808  1.2001  1.5251  0.7392
  393MOL0     H54212   9.661   4.603   1.631  2.8307  1.5162  0.2531
  393MOL0     H54213   9.647   4.536   1.794 -1.5490  1.2471 -0.8984
  393MOL0     H54214  10.535   4.951   1.932  3.8714  0.7895 -1.0248
  393MOL0     H54215  10.436   5.152   2.045 -2.3371  3.1213 -0.3602
  393MOL0     H54216  10.519   5.616   2.042  1.5066  2.9747  0.4616
  393MOL0     H54217  10.526   5.798   2.215  2.2145 -1.6938 -1.2415
  393MOL0     H54218   8.817   6.151   2.795  1.0926 -2.1637  0.4944
  393MOL0     H54219   8.579   6.233   2.781  0.3060 -1.0290 -0.6970
  393MOL0     H54220   8.211   6.352   3.024  1.9198 -2.5351 -1.2692
  393MOL0     H54221   8.022   6.495   2.986 -1.5159  0.9913 -1.7460
  393MOL0     H54222   7.924   6.673   2.881 -0.3320  2.1643 -0.3926
  393MOL0     H54223   7.967   6.687   2.712 -0.6769  0.6257  0.5974
  393MOL0     H54224   7.747   6.803   2.780  1.8108  0.2213 -3.6940
  393MOL0     H54225   7.687   6.644   2.824  3.0664 -0.7163  1.8331
  393MOL0     H54226   7.650   6.768   2.582  1.2142  1.5377  1.0284
  393MOL0     H54227   7.790   6.675   2.540 -0.4434 -2.4324  0.4671
  393MOL0     H54228   7.554   6.536   2.679 -0.9036 -0.6297 -0.2976
  393MOL0     H54229   7.679   6.455   2.601  0.8018  0.7665 -0.4894
  393MOL0     H54230   7.406   6.537   2.292  0.7126 -3.0741 -1.2459
  393MOL0     H54231   7.952   6.323   2.602 -0.0878 -1.7832  0.5755
  393MOL0     H54232   8.058   6.131   2.539 -1.2867 -1.2153  1.0742
  393MOL0     H54233   8.239   6.134   2.556 -0.5847  2.5447 -2.0836
  393MOL0     H54234   8.137   6.029   2.662  2.1436  0.1607 -0.4686
  394MOL0     O54235   7.111   9.563   4.638  0.8707  0.1212 -0.1099
  394MOL0     C54236   7.036   9.594   4.727  0.3805  0.3370  0.0949
  394MOL0     O54237   7.068   9.654   4.842  0.0098 -0.0618  0.0808
  394MOL0     C54238   7.190   9.649   4.904  0.8095 -0.2729 -0.1841
  394MOL0     C54239   7.212   9.742   5.003  0.2194 -0.0364  0.8459
  394MOL0     C54240   7.332   9.737   5.075  0.6000 -0.5951 -0.2986
  394MOL0     C54241   7.419   9.637   5.060  0.1189  0.7785 -0.8230
  394MOL0     O54242   7.521   9.630   5.152  0.2223  0.6349 -0.2589
  394MOL0     C54243   7.627   9.531   5.129 -1.1006 -0.5348 -0.9436
  394MOL0     C54244   7.724   9.584   5.024 -0.2791 -0.5247 -0.1709
  394MOL0     C54245   7.858   9.503   5.035 -0.0559 -0.2760  0.1478
  394MOL0     C54246   7.970   9.532   4.936  0.4856 -0.2006  0.4618
  394MOL0     C54247   8.097   9.453   4.964 -1.0761 -0.0620  0.4128
  394MOL0     C54248   8.199   9.469   4.850  0.3790  0.1559  0.7475
  394MOL0     C54249   8.340   9.430   4.891  0.5525  0.3205  0.1460
  394MOL0     C54250   8.351   9.306   4.985 -0.0233 -0.4197 -0.2426
  394MOL0     N54251   8.488   9.256   4.991 -0.6273  0.0171  0.4158
  394MOL0     C54252   8.605   9.328   4.991 -0.5794 -0.4947  0.0868
  394MOL0     C54253   8.707   9.242   4.976 -0.0053  0.1356 -0.7573
  394MOL0     C54254   8.850   9.287   4.956  0.0254 -0.6534  0.0751
  394MOL0     C54255   8.915   9.189   4.854 -0.4302  0.5307  0.0779
  394MOL0     C54256   9.063   9.203   4.820  0.2756 -0.7021 -0.8562
  394MOL0     C54257   9.140   9.337   4.830 -0.6102 -0.7508 -0.2400
  394MOL0     O54258   9.251   9.324   4.743  0.3187  0.4394 -0.4884
  394MOL0     C54259   9.347   9.425   4.762 -0.3556 -0.2255  0.0098
  394MOL0     C54260   9.322   9.544   4.827  0.2814 -0.2251 -0.5271
  394MOL0     C54261   9.417   9.641   4.859 -0.4560 -0.8599  0.4073
  394MOL0     C54262   9.363   9.763   4.928 -0.5449 -1.3945 -0.4388
  394MOL0     C54263   9.551   9.626   4.808  0.6267 -0.0829  0.4040
  394MOL0     C54264   9.656   9.722   4.826 -0.3086  0.8320  0.6340
  394MOL0     O54265   9.786   9.681   4.825 -0.2525  0.1905 -0.0668
  394MOL0     C54266   9.872   9.779   4.859 -0.7470 -1.1691 -0.0911
  394MOL0     C54267   9.904   9.814   4.990  0.4170  0.3681 -0.3086
  394MOL0     C54268  10.007   9.904   5.025  0.1679  0.2085 -0.2954
  394MOL0     C54269  10.077   9.954   4.914  0.6115 -0.3610  0.3949
  394MOL0     O54270  10.178  10.049   4.923  0.2586  0.0743  0.1115
  394MOL0     C54271  10.261  10.037   5.032  0.5693  0.0218  0.6553
  394MOL0     C54272  10.392  10.093   4.968  1.1370 -0.0102  0.0716
  394MOL0     C54273  10.500  10.088   5.073 -0.5842  0.1595  0.2745
  394MOL0     C54274  10.624  10.170   5.021 -0.2285  0.4469 -0.4391
  394MOL0     C54275  10.737  10.161   5.123  0.2233  0.5117 -0.5747
  394MOL0     C54276  10.709  10.223   5.261 -0.1769  0.1598  0.1490
  394MOL0     C54277  10.827  10.260   5.339 -0.3297  0.0939 -0.0166
  394MOL0     C54278  10.922  10.143   5.356  0.1149  0.3502 -0.4196
  394MOL0    Cl54279  10.864  10.033   5.495 -0.4246  0.0621 -0.3684
  394MOL0     C54280  10.056   9.914   4.780  0.2551  0.2993  0.5260
  394MOL0     C54281   9.951   9.832   4.749 -0.1034 -0.1825 -0.2643
  394MOL0     O54282   9.622   9.839   4.818  0.2106 -0.7771  0.9831
  394MOL0     C54283   9.575   9.503   4.736 -0.2333 -0.0993 -0.1619
  394MOL0     C54284   9.470   9.403   4.705 -0.6623 -0.7667 -0.5851
  394MOL0     N54285   8.657   9.111   4.983  0.9607 -0.2354 -0.1058
  394MOL0     N54286   8.528   9.116   4.986 -0.4527  0.9535 -0.4219
  394MOL0     C54287   7.405   9.541   4.955  0.6400 -0.2984 -0.6047
  394MOL0     C54288   7.287   9.550   4.878 -0.2997 -0.1111 -0.8897
  394MOL0     C54289   6.890   9.552   4.705 -0.0117 -0.3783  0.0508
  394MOL0     C54290   6.847   9.543   4.573  0.8436 -0.0661  0.3096
  394MOL0     C54291   6.713   9.518   4.548  0.0788 -0.0076 -0.5220
  394MOL0     C54292   6.611   9.504   4.652 -1.2434  0.4535  1.0434
  394MOL0     O54293   6.474   9.481   4.631  0.3194  0.5040  0.1978
  394MOL0     C54294   6.412   9.463   4.506 -0.4634 -0.2834 -0.0823
  394MOL0     C54295   6.391   9.585   4.429 -0.8264 -0.2687 -0.0736
  394MOL0     C54296   6.315   9.568   4.299  0.1418  0.4750 -0.0240
  394MOL0     C54297   6.323   9.682   4.197 -0.3174 -0.0689 -0.4502
  394MOL0     C54298   6.437   9.682   4.105  0.5402  0.0846  0.3141
  394MOL0     C54299   6.520   9.680   4.022 -0.2465  0.3154 -0.1435
  394MOL0     C54300   6.662   9.502   4.788  0.1317 -0.3831  0.7414
  394MOL0     C54301   6.803   9.527   4.813  0.0820 -0.1580  0.6239
  394MOL0     C54302   6.856   9.495   4.955 -0.1030  0.9583  0.1830
  394MOL0     H54303   7.130   9.814   5.009 -1.6435 -1.9567 -0.2878
  394MOL0     H54304   7.351   9.814   5.149  2.0769 -0.6864 -0.5650
  394MOL0     H54305   7.589   9.430   5.113  0.7669 -1.4095 -0.1531
  394MOL0     H54306   7.679   9.518   5.224  0.2926 -1.0104 -1.7358
  394MOL0     H54307   7.681   9.575   4.924 -0.9643  1.6452 -0.1129
  394MOL0     H54308   7.750   9.690   5.034 -1.3959  0.1431 -3.3664
  394MOL0     H54309   7.896   9.519   5.137  2.0001  0.4471 -0.6791
  394MOL0     H54310   7.830   9.397   5.036 -0.3415 -0.2566  2.6203
  394MOL0     H54311   7.917   9.504   4.844 -1.2679  3.7743  0.0249
  394MOL0     H54312   7.990   9.640   4.930  1.9787 -0.5177 -1.0560
  394MOL0     H54313   8.081   9.345   4.972 -0.3157 -0.1219  1.3349
  394MOL0     H54314   8.143   9.499   5.053 -0.9941 -0.3479  0.5198
  394MOL0     H54315   8.167   9.412   4.763 -1.9916 -0.0959  1.7221
  394MOL0     H54316   8.197   9.576   4.826 -0.5548  0.1224  0.6649
  394MOL0     H54317   8.375   9.512   4.955 -3.1168  1.5020  0.8887
  394MOL0     H54318   8.410   9.423   4.807  3.1404  0.4830  2.1775
  394MOL0     H54319   8.329   9.346   5.085  2.7088  0.6843  0.0007
  394MOL0     H54320   8.278   9.226   4.965 -0.4091 -0.3206  0.6724
  394MOL0     H54321   8.619   9.434   5.006  1.3362 -0.9361  1.7401
  394MOL0     H54322   8.886   9.293   5.059  2.2964 -0.8981 -0.6590
  394MOL0     H54323   8.863   9.383   4.905  2.5123 -1.3021 -0.6399
  394MOL0     H54324   8.909   9.088   4.896  2.0668  1.1427  2.1631
  394MOL0     H54325   8.857   9.196   4.762 -1.5477 -0.4705  0.6769
  394MOL0     H54326   9.117   9.121   4.869  2.1729  1.0842  0.1846
  394MOL0     H54327   9.070   9.178   4.713 -0.6547 -0.6421 -0.9367
  394MOL0     H54328   9.079   9.421   4.795  0.7036  0.7932  0.9959
  394MOL0     H54329   9.175   9.361   4.931 -0.7378 -2.4129  0.2197
  394MOL0     H54330   9.221   9.579   4.846  0.6252  0.8831 -0.6602
  394MOL0     H54331   9.375   9.857   4.874 -2.7082  0.9523  2.7106
  394MOL0     H54332   9.411   9.777   5.025 -3.3668  1.4931  0.7296
  394MOL0     H54333   9.257   9.756   4.956 -0.2380  0.0954  1.3116
  394MOL0     H54334   9.838   9.777   5.067 -0.0599  0.8365 -0.4847
  394MOL0     H54335  10.023   9.943   5.125  1.1088  2.2184 -1.1836
  394MOL0     H54336  10.212  10.099   5.107  0.2435 -1.3416  1.5952
  394MOL0     H54337  10.273   9.936   5.072  0.9231 -0.3283 -0.3118
  394MOL0     H54338  10.427  10.032   4.884  2.1046  0.2634  0.2697
  394MOL0     H54339  10.368  10.195   4.936  1.3101  0.3417  1.0315
  394MOL0     H54340  10.526   9.985   5.099 -0.7937 -0.7507 -2.7524
  394MOL0     H54341  10.463  10.135   5.165  1.0142  2.9612 -0.3830
  394MOL0     H54342  10.598  10.275   5.004 -0.3994  0.2410 -1.5093
  394MOL0     H54343  10.657  10.133   4.923 -1.5100  1.9262 -1.4910
  394MOL0     H54344  10.762  10.055   5.131  0.1942  0.5114 -0.4925
  394MOL0     H54345  10.826  10.212   5.086  0.4597  0.2047 -0.4328
  394MOL0     H54346  10.657  10.146   5.320 -0.5285 -1.6255 -2.3269
  394MOL0     H54347  10.634  10.302   5.257  1.2301  1.5373 -0.1047
  394MOL0     H54348  10.809  10.301   5.438  2.5056 -0.8119  0.9867
  394MOL0     H54349  10.875  10.342   5.284  1.2921 -1.8171 -1.6328
  394MOL0     H54350  11.021  10.172   5.394  0.3671 -1.7562  0.6563
  394MOL0     H54351  10.931  10.091   5.260 -1.0394 -1.3962  0.3717
  394MOL0     H54352  10.120   9.948   4.698  0.1685  1.1632  0.8098
  394MOL0     H54353   9.928   9.790   4.652 -0.9620 -1.0830  0.3069
  394MOL0     H54354   9.673   9.485   4.693  0.0138  0.3057  0.2355
  394MOL0     H54355   9.500   9.309   4.661  1.1671 -0.9834  1.0025
  394MOL0     H54356   7.461   9.450   4.934  0.1413 -0.9076  0.6296
  394MOL0     H54357   7.270   9.481   4.796 -1.1782 -1.4452  0.3545
  394MOL0     H54358   6.918   9.542   4.491  1.8478  0.3337  1.1427
  394MOL0     H54359   6.687   9.499   4.444 -0.7915 -0.9828 -0.1422
  394MOL0     H54360   6.462   9.388   4.444  0.1895  0.4967 -0.5222
  394MOL0     H54361   6.317   9.418   4.536  0.0642 -2.0634 -0.9171
  394MOL0     H54362   6.487   9.636   4.414  0.2066 -2.2955 -0.6132
  394MOL0     H54363   6.334   9.659   4.488 -0.1420 -0.4344  0.8167
  394MOL0     H54364   6.342   9.469   4.261 -0.2200 -0.2716  1.5345
  394MOL0     H54365   6.210   9.549   4.326 -0.2218  2.3539  0.0042
  394MOL0     H54366   6.317   9.773   4.257  2.0389 -0.6280  0.7717
  394MOL0     H54367   6.241   9.684   4.125  0.6436  2.1147 -1.6204
  394MOL0     H54368   6.608   9.672   3.962  0.4823  1.5366  0.7212
  394MOL0     H54369   6.594   9.468   4.866 -0.9580 -1.2270 -0.5290
  394MOL0     H54370   6.853   9.581   5.023  1.7950 -1.1339  3.1296
  394MOL0     H54371   6.798   9.416   5.003  1.7264 -0.8016 -0.3820
  394MOL0     H54372   6.959   9.460   4.953 -0.4799 -0.4212  2.0841
  395MOL0     O54373   9.257   0.096   9.470  0.7098  0.5361 -0.8314
  395MOL0     C54374   9.289   0.146   9.367  0.5248 -0.8759  0.1681
  395MOL0     O54375   9.304   0.285   9.350  0.3220 -0.6524  0.2110
  395MOL0     C54376   9.278   0.371   9.454 -0.1096 -1.1983 -0.2185
  395MOL0     C54377   9.323   0.350   9.589  0.1061  0.4565 -0.3817
  395MOL0     C54378   9.301   0.443   9.683 -0.0313  0.3482 -0.5370
  395MOL0     C54379   9.230   0.563   9.659  0.8306  0.5137  0.8707
  395MOL0     O54380   9.203   0.660   9.753  0.0074 -1.0281 -0.8322
  395MOL0     C54381   9.241   0.627   9.894  0.5180  0.1318 -0.2222
  395MOL0     C54382   9.221   0.752   9.984  0.9249  0.9455 -0.1423
  395MOL0     C54383   9.267   0.729  10.130  0.8485  0.2935 -0.5336
  395MOL0     C54384   9.177   0.777  10.238  1.0499 -0.7400 -0.1103
  395MOL0     C54385   9.242   0.776  10.376 -0.4298 -0.3589 -1.0930
  395MOL0     C54386   9.136   0.801  10.490 -0.0922 -0.3086  0.2958
  395MOL0     C54387   9.067   0.935  10.482  0.4941  0.4933 -0.4990
  395MOL0     C54388   9.168   1.046  10.533  0.0051 -0.1012  0.3577
  395MOL0     N54389   9.087   1.161  10.550 -0.1251 -0.6363 -0.0269
  395MOL0     C54390   9.037   1.228  10.445  0.7482  0.1320  0.0883
  395MOL0     C54391   8.994   1.348  10.500  0.2902  0.3375 -0.2909
  395MOL0     C54392   8.927   1.453  10.414  0.4075  0.1581  0.1334
  395MOL0     C54393   9.026   1.542  10.338 -0.9195 -0.2303  0.3054
  395MOL0     C54394   8.967   1.655  10.263  0.0573  0.1312  0.4863
  395MOL0     C54395   9.059   1.757  10.189  0.1061 -0.2175  0.3204
  395MOL0     O54396   9.140   1.821  10.291  0.9062 -0.3328  0.2461
  395MOL0     C54397   9.244   1.901  10.263 -0.5895 -0.0246 -0.8063
  395MOL0     C54398   9.299   1.920  10.130 -0.2624 -0.0400 -0.4330
  395MOL0     C54399   9.430   1.978  10.115  0.8880  0.9973  0.4888
  395MOL0     C54400   9.475   1.988   9.974  0.8233 -1.2713 -0.4594
  395MOL0     C54401   9.499   2.036  10.226 -0.2722 -0.3534 -0.2958
  395MOL0     C54402   9.637   2.094  10.222 -0.3849  0.4780 -0.0825
  395MOL0     O54403   9.672   2.184  10.323 -0.7704 -0.3792  0.0641
  395MOL0     C54404   9.800   2.217  10.353  0.1790 -0.1182  1.0882
  395MOL0     C54405   9.887   2.252  10.245 -0.3493  0.0655  0.1116
  395MOL0     C54406  10.023   2.298  10.266 -0.5563 -0.1610  0.2453
  395MOL0     C54407  10.074   2.311  10.397  0.3156 -0.3919  0.4208
  395MOL0     O54408  10.209   2.348  10.400  0.6745 -0.6205 -0.1164
  395MOL0     C54409  10.285   2.308  10.517  0.0527 -1.2461  0.3651
  395MOL0     C54410  10.282   2.431  10.604  0.7708  0.1777 -0.0676
  395MOL0     C54411  10.335   2.563  10.552  0.7762  0.3962 -0.0312
  395MOL0     C54412  10.477   2.566  10.607 -0.3290 -0.5699 -0.7643
  395MOL0     C54413  10.561   2.688  10.563  0.6293 -0.8595  0.2975
  395MOL0     C54414  10.695   2.687  10.647  0.6166  0.1666 -0.1737
  395MOL0     C54415  10.791   2.804  10.619 -0.3645  0.6297 -0.0160
  395MOL0     C54416  10.897   2.827  10.728  0.1920  0.8216  0.0685
  395MOL0    Cl54417  10.974   2.679  10.763  0.0729 -0.3780 -0.4594
  395MOL0     C54418   9.991   2.274  10.496 -0.1843  0.3219 -0.3434
  395MOL0     C54419   9.861   2.227  10.481  0.6861  0.7008  0.3042
  395MOL0     O54420   9.714   2.041  10.141 -1.1982 -0.2547  0.4634
  395MOL0     C54421   9.427   2.032  10.350 -0.4238  0.1928  0.0910
  395MOL0     C54422   9.306   1.965  10.372 -0.4797 -0.4042 -0.2303
  395MOL0     N54423   9.020   1.346  10.637  0.6083 -0.2646  0.2604
  395MOL0     N54424   9.078   1.229  10.663 -0.9379  0.0431  0.2260
  395MOL0     C54425   9.195   0.586   9.525 -0.0871  0.1926 -0.1590
  395MOL0     C54426   9.220   0.492   9.422  0.2273  0.7275  0.4106
  395MOL0     C54427   9.329   0.067   9.257 -0.1480 -0.1956 -0.3368
  395MOL0     C54428   9.274   0.098   9.128  0.5412  0.0762 -0.4648
  395MOL0     C54429   9.329   0.029   9.022 -0.2709 -0.3881 -1.2037
  395MOL0     C54430   9.408  -0.080   9.037 -0.0058 -0.8349  0.0369
  395MOL0     O54431   9.451  -0.152   8.928  0.0054 -0.6082  0.0950
  395MOL0     C54432   9.387  -0.149   8.802  0.9991  0.5079  0.5245
  395MOL0     C54433   9.463  -0.233   8.713  0.2777 -0.1917  0.2289
  395MOL0     C54434   9.421  -0.204   8.567  0.4645  0.0430 -0.1884
  395MOL0     C54435   9.329  -0.314   8.512 -1.2569 -0.1412 -0.0886
  395MOL0     C54436   9.204  -0.356   8.587  1.3347  0.5507  0.4778
  395MOL0     C54437   9.109  -0.397   8.655  0.1823 -1.3039 -0.2304
  395MOL0     C54438   9.460  -0.113   9.158  0.2382 -0.0563  0.5566
  395MOL0     C54439   9.424  -0.037   9.272 -0.4975  0.6007 -0.0941
  395MOL0     C54440   9.498  -0.080   9.402 -0.7981  0.1104  0.2197
  395MOL0     H54441   9.373   0.262   9.628 -0.0657  0.9176  0.9582
  395MOL0     H54442   9.322   0.417   9.786 -1.7894  1.8492  0.2569
  395MOL0     H54443   9.348   0.607   9.893  1.3807  4.0138 -1.7617
  395MOL0     H54444   9.188   0.541   9.937 -1.4313  0.8293 -1.1065
  395MOL0     H54445   9.279   0.838   9.950 -0.6148  1.3373 -1.9459
  395MOL0     H54446   9.114   0.778   9.983  0.2589 -1.5124 -2.2335
  395MOL0     H54447   9.278   0.622  10.150 -1.2250  0.3635  1.3020
  395MOL0     H54448   9.363   0.780  10.147  0.0146  1.6528  0.2979
  395MOL0     H54449   9.125   0.872  10.220 -1.8316 -1.8614  1.5207
  395MOL0     H54450   9.098   0.701  10.245 -2.4637  2.6764  1.4835
  395MOL0     H54451   9.321   0.849  10.395 -0.3592 -0.9255  1.1453
  395MOL0     H54452   9.283   0.675  10.386 -0.7128 -0.3708  0.2359
  395MOL0     H54453   9.063   0.719  10.488  0.6687 -1.0106 -1.8466
  395MOL0     H54454   9.194   0.803  10.583  1.2414 -0.5110 -0.5108
  395MOL0     H54455   8.982   0.940  10.551  0.6861 -2.5777  0.1186
  395MOL0     H54456   9.024   0.950  10.383  2.0292 -2.4276 -1.7287
  395MOL0     H54457   9.224   1.025  10.625  2.8971 -2.3384 -1.7275
  395MOL0     H54458   9.244   1.058  10.455  1.2169 -3.0243  0.9671
  395MOL0     H54459   9.024   1.195  10.343  0.9196  1.0059 -0.2259
  395MOL0     H54460   8.864   1.513  10.482  3.6698 -0.9611  4.5568
  395MOL0     H54461   8.854   1.410  10.345 -1.5118  2.6964  0.4270
  395MOL0     H54462   9.087   1.588  10.416  0.1373 -1.5324  0.2849
  395MOL0     H54463   9.083   1.483  10.267 -3.1022  0.2490 -1.9927
  395MOL0     H54464   8.908   1.608  10.184  2.1468 -0.7139 -0.6366
  395MOL0     H54465   8.910   1.711  10.337 -0.9473 -1.6474  1.1253
  395MOL0     H54466   9.122   1.708  10.114  0.0399 -0.2550  0.2899
  395MOL0     H54467   9.002   1.832  10.134  2.9235  0.6316 -1.6786
  395MOL0     H54468   9.247   1.864  10.053 -2.2906  1.7976 -0.4864
  395MOL0     H54469   9.497   2.092   9.948 -0.6448 -0.6242  0.7321
  395MOL0     H54470   9.389   1.972   9.908  0.1710  1.3073 -0.3398
  395MOL0     H54471   9.562   1.926   9.953  1.3333 -1.0710  0.9563
  395MOL0     H54472   9.852   2.251  10.143  3.0810 -0.1149 -1.1867
  395MOL0     H54473  10.082   2.318  10.177  2.1281 -0.6504  1.8120
  395MOL0     H54474  10.239   2.223  10.568  1.3509 -2.3851 -0.3044
  395MOL0     H54475  10.388   2.283  10.491  0.0069  0.2425 -1.5206
  395MOL0     H54476  10.175   2.454  10.614  1.1872  1.1895  2.8784
  395MOL0     H54477  10.327   2.408  10.700 -2.5985 -1.4372  1.2953
  395MOL0     H54478  10.274   2.642  10.596  1.0951 -0.0599  1.2855
  395MOL0     H54479  10.340   2.571  10.443  2.2708  1.5803  0.0873
  395MOL0     H54480  10.531   2.477  10.573  0.4108  0.0283 -1.1805
  395MOL0     H54481  10.474   2.565  10.716 -1.5685  1.0195 -0.7442
  395MOL0     H54482  10.575   2.674  10.456 -0.0007  0.8671 -0.0289
  395MOL0     H54483  10.503   2.779  10.580 -0.5640 -1.0568 -2.2732
  395MOL0     H54484  10.745   2.593  10.622 -1.0752 -1.0719  0.8843
  395MOL0     H54485  10.677   2.684  10.755 -0.0237 -0.2051 -0.2858
  395MOL0     H54486  10.728   2.892  10.608  0.0265  0.8586 -0.4372
  395MOL0     H54487  10.841   2.786  10.523  2.2445 -0.7467  1.4870
  395MOL0     H54488  10.840   2.859  10.816 -0.7625  2.6658 -1.1726
  395MOL0     H54489  10.960   2.908  10.692  0.5303 -0.0931 -1.4963
  395MOL0     H54490  10.021   2.276  10.600 -1.0830 -2.7411  0.0682
  395MOL0     H54491   9.795   2.193  10.561 -0.8081  1.5907 -0.5080
  395MOL0     H54492   9.468   2.082  10.437 -1.6559  0.7571  0.3745
  395MOL0     H54493   9.260   1.960  10.470 -2.2148  4.2076 -0.5225
  395MOL0     H54494   9.159   0.686   9.502 -0.2054  0.7401  2.1424
  395MOL0     H54495   9.176   0.500   9.322  1.3383  2.9765  0.0453
  395MOL0     H54496   9.197   0.172   9.110 -1.6002 -1.6670  0.9810
  395MOL0     H54497   9.293   0.071   8.929  0.2213  2.4506 -0.2066
  395MOL0     H54498   9.291  -0.200   8.812  1.7143 -0.9358  0.3054
  395MOL0     H54499   9.378  -0.046   8.768 -1.7713  0.8120  1.9481
  395MOL0     H54500   9.454  -0.341   8.720 -0.9473 -0.1642 -0.5477
  395MOL0     H54501   9.567  -0.201   8.719 -0.6677  3.0747  1.7396
  395MOL0     H54502   9.365  -0.111   8.557 -0.6103 -0.5109  0.4834
  395MOL0     H54503   9.509  -0.190   8.504 -0.3130  2.1362 -0.8796
  395MOL0     H54504   9.402  -0.396   8.510 -0.9801  0.0893 -2.3333
  395MOL0     H54505   9.296  -0.299   8.409  0.7731 -0.8947 -0.8933
  395MOL0     H54506   9.026  -0.433   8.712  0.6719 -2.1413 -0.0313
  395MOL0     H54507   9.519  -0.202   9.174 -2.3692 -1.7106  1.5627
  395MOL0     H54508   9.479   0.004   9.470  0.8137  1.4364 -0.8723
  395MOL0     H54509   9.448  -0.168   9.444 -1.8763  0.5892 -0.0198
  395MOL0     H54510   9.607  -0.087   9.395 -0.6623  1.2688  0.8907
  396MOL0     O54511   9.487  10.625   2.681  0.1190  0.0736  0.2297
  396MOL0     C54512   9.549  10.723   2.728  0.2928  0.2474  0.0600
  396MOL0     O54513   9.683  10.729   2.749 -0.5291 -0.4156 -0.2952
  396MOL0     C54514   9.768  10.639   2.696 -0.4488  0.2076 -0.8065
  396MOL0     C54515   9.764  10.583   2.564  0.0711 -0.3244 -0.5479
  396MOL0     C54516   9.863  10.496   2.522  0.3749  0.1254  0.4970
  396MOL0     C54517   9.968  10.462   2.601 -0.5614 -0.5207 -0.9016
  396MOL0     O54518  10.075  10.387   2.566  0.3017 -0.1663  0.6244
  396MOL0     C54519  10.086  10.373   2.425  0.0937  0.0939 -0.8594
  396MOL0     C54520  10.226  10.300   2.404 -0.1837  0.8654 -0.2896
  396MOL0     C54521  10.208  10.144   2.411  1.4828 -0.4812 -0.2436
  396MOL0     C54522  10.324  10.073   2.343  0.4986  0.6917 -0.3918
  396MOL0     C54523  10.281   9.935   2.303  0.3802 -0.4346  0.2336
  396MOL0     C54524  10.398   9.830   2.281  0.6951 -0.2113  0.3386
  396MOL0     C54525  10.345   9.684   2.238 -0.0999 -0.2034 -0.1665
  396MOL0     C54526  10.436   9.565   2.246 -0.1129 -0.2508  0.3796
  396MOL0     N54527  10.579   9.588   2.203 -0.1474  0.2349  0.1750
  396MOL0     C54528  10.666   9.659   2.273 -0.4125  0.0030 -0.4642
  396MOL0     C54529  10.776   9.677   2.188  0.4804 -0.2296 -0.2086
  396MOL0     C54530  10.891   9.772   2.210 -0.4318 -0.7196 -0.3616
  396MOL0     C54531  10.964   9.750   2.348  1.1630  0.2345 -0.1235
  396MOL0     C54532  11.045   9.877   2.368  0.2659 -0.0671  0.3958
  396MOL0     C54533  11.166   9.894   2.288  0.1257  0.5865  0.7662
  396MOL0     O54534  11.253   9.788   2.327 -0.1134 -0.1776 -0.4661
  396MOL0     C54535  11.393   9.793   2.298  0.2585  0.0663 -0.3770
  396MOL0     C54536  11.450   9.894   2.220  0.3888 -0.4543  0.1992
  396MOL0     C54537  11.589   9.905   2.204 -0.2701  0.8176  0.2775
  396MOL0     C54538  11.637  10.026   2.115 -0.6770  0.8510 -0.2088
  396MOL0     C54539  11.682   9.812   2.256 -0.0923 -0.4208 -0.8246
  396MOL0     C54540  11.830   9.827   2.236  0.1432  0.1592  0.4361
  396MOL0     O54541  11.901   9.710   2.223  0.5970 -0.0693  0.5479
  396MOL0     C54542  12.039   9.710   2.219 -0.0697  0.0539 -0.8258
  396MOL0     C54543  12.107   9.636   2.312 -0.1659  0.5175 -0.3967
  396MOL0     C54544  12.249   9.654   2.318 -0.2230  0.6036 -0.1803
  396MOL0     C54545  12.317   9.746   2.241 -0.9070 -0.2213  0.5599
  396MOL0     O54546  12.453   9.751   2.254 -0.7279 -0.1275 -0.3184
  396MOL0     C54547  12.522   9.842   2.168 -1.1388 -0.1583 -0.0523
  396MOL0     C54548  12.669   9.835   2.204  0.1350 -0.2034  0.2595
  396MOL0     C54549  12.702   9.883   2.343 -0.1456  0.4072  0.8443
  396MOL0     C54550  12.861   9.892   2.354  0.1501 -0.5533 -0.4365
  396MOL0     C54551  12.900   9.877   2.497  0.2178 -0.3522  0.5891
  396MOL0     C54552  13.055   9.885   2.518  0.5379  0.4521  0.0413
  396MOL0     C54553  13.133   9.770   2.443 -0.1797 -0.4928  0.2290
  396MOL0     C54554  13.212   9.695   2.548  0.0088 -0.1627  0.1044
  396MOL0    Cl54555  13.354   9.789   2.619  0.3932 -0.2294  0.0856
  396MOL0     C54556  12.238   9.819   2.142 -0.9295 -0.2087  0.2382
  396MOL0     C54557  12.103   9.798   2.133 -0.6580 -0.1606 -0.6080
  396MOL0     O54558  11.875   9.936   2.250  0.3729 -0.3755 -0.7092
  396MOL0     C54559  11.626   9.710   2.336 -0.5764  0.4598  0.3202
  396MOL0     C54560  11.484   9.699   2.349 -0.0286 -0.2725  0.1926
  396MOL0     N54561  10.756   9.609   2.078  0.3295  0.2945  0.1172
  396MOL0     N54562  10.638   9.551   2.090 -0.6111 -0.2177  0.1377
  396MOL0     C54563   9.969  10.509   2.729 -0.6761  0.2199  0.2306
  396MOL0     C54564   9.876  10.602   2.784  0.8852  0.2152  0.5452
  396MOL0     C54565   9.472  10.842   2.782 -0.3273  0.0435  0.0751
  396MOL0     C54566   9.541  10.954   2.818  0.0091  0.5730  0.9477
  396MOL0     C54567   9.474  11.075   2.853  0.2043  0.6753  0.1970
  396MOL0     C54568   9.335  11.069   2.874  0.9974  0.9006  0.3339
  396MOL0     O54569   9.255  11.168   2.922  0.2000 -0.1331 -0.2747
  396MOL0     C54570   9.273  11.296   2.854  0.1543  0.4675 -0.2187
  396MOL0     C54571   9.344  11.396   2.947  0.0550 -0.1458  0.5950
  396MOL0     C54572   9.258  11.453   3.063 -0.2147 -0.6526 -0.3176
  396MOL0     C54573   9.327  11.577   3.136 -0.3791  0.3444  0.5222
  396MOL0     C54574   9.462  11.549   3.187  0.5302  0.9058 -0.1093
  396MOL0     C54575   9.579  11.540   3.226  0.0499  0.1464  0.5799
  396MOL0     C54576   9.267  10.950   2.849  0.2194  0.2276 -0.1972
  396MOL0     C54577   9.328  10.837   2.799 -0.3592 -0.2524  0.5295
  396MOL0     C54578   9.241  10.723   2.766 -0.1958  0.4307 -0.6323
  396MOL0     H54579   9.680  10.615   2.503 -0.6633  1.2148  1.1452
  396MOL0     H54580   9.847  10.456   2.422  1.3026 -1.9971  1.1359
  396MOL0     H54581  10.071  10.468   2.373 -1.7775 -0.4397 -1.3691
  396MOL0     H54582  10.010  10.303   2.390  0.4820 -0.6984 -0.1811
  396MOL0     H54583  10.267  10.325   2.306 -1.4023  0.2376 -0.9763
  396MOL0     H54584  10.304  10.339   2.470  0.4581  0.5633 -0.8620
  396MOL0     H54585  10.189  10.112   2.513 -0.6540 -0.5761 -0.6071
  396MOL0     H54586  10.115  10.131   2.354  1.1099  0.2331  0.1785
  396MOL0     H54587  10.351  10.133   2.256 -0.3432  0.5012 -0.7937
  396MOL0     H54588  10.412  10.083   2.407 -0.7180 -1.5815  1.8212
  396MOL0     H54589  10.224   9.932   2.210  0.5975 -3.3355  0.1164
  396MOL0     H54590  10.214   9.898   2.382 -0.5422  0.2336 -0.2055
  396MOL0     H54591  10.476   9.870   2.216  0.8231  3.0488  2.2804
  396MOL0     H54592  10.441   9.822   2.381  2.4998  4.0715  0.1288
  396MOL0     H54593  10.293   9.689   2.142 -0.5902 -0.6109  0.0736
  396MOL0     H54594  10.266   9.662   2.311  0.3756  0.6228  0.6216
  396MOL0     H54595  10.458   9.540   2.350  0.1600  0.7014  0.5591
  396MOL0     H54596  10.386   9.481   2.195 -1.1352 -0.1965  1.2727
  396MOL0     H54597  10.649   9.694   2.375 -3.3011 -0.3554 -0.7501
  396MOL0     H54598  10.846   9.872   2.208 -0.1825 -0.6028 -0.2209
  396MOL0     H54599  10.964   9.755   2.130 -1.1484  2.3108 -1.8436
  396MOL0     H54600  10.897   9.741   2.434 -0.0065  0.7419 -0.9653
  396MOL0     H54601  11.023   9.658   2.347  2.8864  1.2122  1.7693
  396MOL0     H54602  10.978   9.963   2.365 -0.5010 -0.6371  0.7828
  396MOL0     H54603  11.088   9.883   2.469  4.3034  1.8648 -1.1837
  396MOL0     H54604  11.143   9.875   2.182  0.3344  3.8673  0.0218
  396MOL0     H54605  11.206   9.992   2.314 -2.7811  1.5764  1.9693
  396MOL0     H54606  11.398   9.971   2.164  2.8024  0.3246 -1.0839
  396MOL0     H54607  11.650  10.116   2.176  0.9672  1.0280 -0.7651
  396MOL0     H54608  11.555  10.049   2.047  0.3994 -0.5548 -2.1001
  396MOL0     H54609  11.721  10.005   2.047  0.8097  1.6414  1.2909
  396MOL0     H54610  12.052   9.562   2.369 -0.5505  2.3675  1.7860
  396MOL0     H54611  12.302   9.595   2.393 -0.7359  0.3802  0.0140
  396MOL0     H54612  12.507   9.828   2.061  0.0708  1.2271 -0.4400
  396MOL0     H54613  12.494   9.945   2.190 -1.0436 -0.2529  0.5398
  396MOL0     H54614  12.697   9.735   2.171  2.6756  0.6474 -0.3927
  396MOL0     H54615  12.721   9.904   2.137 -2.7733  0.6039 -1.3681
  396MOL0     H54616  12.662   9.815   2.419 -3.3808  0.6335 -0.4673
  396MOL0     H54617  12.658   9.984   2.347 -0.2583  0.3563  0.9118
  396MOL0     H54618  12.911   9.977   2.306  1.6528 -1.3993 -0.4529
  396MOL0     H54619  12.894   9.800   2.303  0.8446 -0.7480  0.3395
  396MOL0     H54620  12.849   9.952   2.557  1.4048  0.2019  0.9502
  396MOL0     H54621  12.862   9.783   2.538 -1.4022  1.4644  3.5646
  396MOL0     H54622  13.064   9.880   2.627  1.1970  2.4954  0.1266
  396MOL0     H54623  13.101   9.983   2.500 -0.0337  0.7278  0.0646
  396MOL0     H54624  13.191   9.810   2.359 -2.6199  0.9274 -0.8796
  396MOL0     H54625  13.054   9.703   2.407  0.6947 -1.5519  0.2382
  396MOL0     H54626  13.241   9.600   2.502  0.5676 -0.1671  0.4518
  396MOL0     H54627  13.156   9.670   2.639  0.3528 -0.1344  0.3267
  396MOL0     H54628  12.281   9.888   2.070  1.0284 -1.1678  0.4129
  396MOL0     H54629  12.038   9.862   2.074 -1.6790  2.1038  2.7255
  396MOL0     H54630  11.680   9.626   2.379 -3.4528 -1.6442  0.1309
  396MOL0     H54631  11.442   9.613   2.400 -0.3904 -0.6742 -0.7454
  396MOL0     H54632  10.055  10.477   2.787 -0.1024 -0.4255 -0.9490
  396MOL0     H54633   9.888  10.638   2.885  2.4305  2.2198 -0.3054
  396MOL0     H54634   9.649  10.959   2.811  0.0356 -0.2558  0.6185
  396MOL0     H54635   9.530  11.165   2.878 -0.7246  1.5399 -0.7171
  396MOL0     H54636   9.333  11.290   2.762  0.8020  2.9006 -0.0231
  396MOL0     H54637   9.175  11.336   2.825  0.4595  1.1332 -0.3495
  396MOL0     H54638   9.377  11.481   2.886  1.2800 -1.5536 -0.7594
  396MOL0     H54639   9.426  11.343   2.995 -0.6003 -0.2221  1.6846
  396MOL0     H54640   9.163  11.484   3.018 -0.9694 -2.3155  0.0708
  396MOL0     H54641   9.232  11.372   3.132 -0.8914  1.4225  2.0296
  396MOL0     H54642   9.261  11.608   3.217 -0.0867  1.5342  0.3265
  396MOL0     H54643   9.344  11.653   3.059  2.3056 -0.1288  0.5607
  396MOL0     H54644   9.682  11.520   3.249  0.4794 -0.7735 -1.8796
  396MOL0     H54645   9.161  10.940   2.870 -0.3894  0.5618 -2.8027
  396MOL0     H54646   9.145  10.734   2.819  1.0157  0.9053  1.5871
  396MOL0     H54647   9.234  10.713   2.658  1.3662 -1.2631 -0.6203
  396MOL0     H54648   9.276  10.628   2.807 -2.7264 -0.3466 -0.0874
  397MOL0     O54649   2.153   6.704   7.421  0.7013  0.3199 -0.4222
  397MOL0     C54650   2.140   6.720   7.305 -0.7512 -0.6037 -0.6519
  397MOL0     O54651   2.238   6.755   7.224  0.2432  0.2559 -0.2443
  397MOL0     C54652   2.363   6.695   7.245 -0.6969 -0.0382  0.2420
  397MOL0     C54653   2.485   6.776   7.225  0.0523 -0.5938 -0.0545
  397MOL0     C54654   2.611   6.706   7.229  0.5399  0.6006 -0.1722
  397MOL0     C54655   2.625   6.577   7.268 -0.4418  0.3496 -0.6694
  397MOL0     O54656   2.756   6.531   7.283 -0.4989 -0.0944  0.3695
  397MOL0     C54657   2.778   6.399   7.334 -0.5502 -0.6370  0.1129
  397MOL0     C54658   2.925   6.377   7.335  0.6116  0.6121  0.3904
  397MOL0     C54659   2.992   6.385   7.192 -0.1212  0.2045 -0.0853
  397MOL0     C54660   3.135   6.323   7.188 -0.0825  0.5861 -0.0854
  397MOL0     C54661   3.221   6.375   7.073 -0.2794 -0.1250 -0.4438
  397MOL0     C54662   3.366   6.325   7.091 -0.2799  0.5097 -0.4287
  397MOL0     C54663   3.385   6.169   7.063 -1.0865  0.1452  0.2772
  397MOL0     C54664   3.533   6.136   7.073 -0.2958  0.3062 -0.0534
  397MOL0     N54665   3.626   6.159   6.967  0.0564 -0.2205  0.1074
  397MOL0     C54666   3.726   6.250   6.962 -0.1485  0.0562 -0.4720
  397MOL0     C54667   3.789   6.232   6.847  0.3163  0.3123 -0.4065
  397MOL0     C54668   3.903   6.315   6.792  0.7329 -0.4978  1.0839
  397MOL0     C54669   4.003   6.222   6.715 -0.4916 -0.4898 -0.3578
  397MOL0     C54670   4.117   6.316   6.651  0.3953  0.0371 -0.4276
  397MOL0     C54671   4.204   6.222   6.565  0.2242 -0.0228 -0.2449
  397MOL0     O54672   4.291   6.158   6.655  0.1473 -0.3159 -0.1507
  397MOL0     C54673   4.418   6.140   6.608  0.3402 -0.5824  1.0509
  397MOL0     C54674   4.540   6.163   6.680  0.6757  0.3843 -0.0050
  397MOL0     C54675   4.663   6.113   6.636 -0.1790 -0.2292  0.2264
  397MOL0     C54676   4.769   6.149   6.729 -0.2559  0.7750 -0.0703
  397MOL0     C54677   4.679   6.070   6.502 -0.8558  0.1180 -0.4618
  397MOL0     C54678   4.805   6.041   6.440  0.1221  0.1523 -0.5635
  397MOL0     O54679   4.906   6.131   6.466  0.3504 -0.4205  0.4434
  397MOL0     C54680   5.019   6.093   6.409 -0.5888  0.0970 -0.2224
  397MOL0     C54681   5.043   6.103   6.275  0.2874  0.4339  0.0422
  397MOL0     C54682   5.164   6.067   6.212 -0.1078  0.1019  0.4790
  397MOL0     C54683   5.268   6.015   6.293 -0.3446 -0.8194  0.6135
  397MOL0     O54684   5.393   5.986   6.231  0.2989  0.5157 -0.1467
  397MOL0     C54685   5.441   6.109   6.170 -0.5043 -0.7035  0.4359
  397MOL0     C54686   5.594   6.101   6.158  0.4875 -0.0471 -0.1000
  397MOL0     C54687   5.651   6.236   6.117 -0.2884  0.3960  0.4431
  397MOL0     C54688   5.804   6.223   6.095  0.3013  0.5018  0.0236
  397MOL0     C54689   5.860   6.358   6.060 -0.4555  1.1516 -0.7492
  397MOL0     C54690   6.015   6.353   6.049 -0.5236  0.6186 -0.8414
  397MOL0     C54691   6.062   6.494   6.009 -0.1616  0.4602 -0.3040
  397MOL0     C54692   6.206   6.477   5.960  0.1215  0.0873 -0.1916
  397MOL0    Cl54693   6.326   6.400   6.072 -0.0848 -0.1717 -0.1078
  397MOL0     C54694   5.249   5.996   6.427 -0.1588 -0.1000 -1.0425
  397MOL0     C54695   5.122   6.039   6.485 -0.2186  0.9511  0.0660
  397MOL0     O54696   4.816   5.942   6.361  0.3018  0.0810  0.2467
  397MOL0     C54697   4.570   6.050   6.422  1.2076  0.0592 -0.6464
  397MOL0     C54698   4.436   6.083   6.476 -0.0186  1.1016 -0.4627
  397MOL0     N54699   3.725   6.132   6.778 -0.5673 -0.4168 -0.5704
  397MOL0     N54700   3.625   6.095   6.850  0.2928 -0.5436  0.5429
  397MOL0     C54701   2.505   6.505   7.292 -0.1625  0.7227 -0.6260
  397MOL0     C54702   2.382   6.558   7.281  0.6575  0.2205  0.3343
  397MOL0     C54703   2.004   6.712   7.257 -0.7309  0.8524 -0.2703
  397MOL0     C54704   1.912   6.621   7.319  0.7214  0.5168 -0.3779
  397MOL0     C54705   1.776   6.618   7.285 -0.0533  0.7406 -0.1879
  397MOL0     C54706   1.733   6.674   7.169  0.4644 -0.5497 -0.2453
  397MOL0     O54707   1.609   6.649   7.127  0.8145  0.4656  0.2676
  397MOL0     C54708   1.577   6.671   6.989 -0.3795  0.2149  0.3087
  397MOL0     C54709   1.431   6.714   6.985  0.0057  0.1725 -0.2953
  397MOL0     C54710   1.401   6.858   7.045 -0.1376  0.4623  1.0242
  397MOL0     C54711   1.256   6.890   7.012 -0.7681 -0.2653  0.2802
  397MOL0     C54712   1.242   6.916   6.869 -0.8997  0.4173  0.1391
  397MOL0     C54713   1.235   6.956   6.754  0.1722  0.2432 -0.2378
  397MOL0     C54714   1.820   6.759   7.102 -0.1875  0.2241  0.0276
  397MOL0     C54715   1.953   6.784   7.143  0.2027  0.1767  0.0346
  397MOL0     C54716   2.017   6.907   7.087 -1.0847  0.0707 -0.1525
  397MOL0     H54717   2.477   6.878   7.189  0.9893  0.5314  2.6954
  397MOL0     H54718   2.703   6.759   7.209  0.9820 -0.8129 -2.1738
  397MOL0     H54719   2.725   6.321   7.277  2.5362 -1.8362 -1.3395
  397MOL0     H54720   2.754   6.400   7.441  0.6213  0.7902  0.3953
  397MOL0     H54721   2.962   6.459   7.399  1.2395 -0.6873  1.7471
  397MOL0     H54722   2.939   6.279   7.381 -0.1836 -0.9996 -2.5441
  397MOL0     H54723   2.924   6.346   7.117 -0.6250 -3.2669  1.9762
  397MOL0     H54724   3.010   6.492   7.173 -0.9758  0.5082  0.7435
  397MOL0     H54725   3.184   6.349   7.282 -0.5801  2.1915 -0.2264
  397MOL0     H54726   3.110   6.219   7.166 -1.9502  0.8735  0.4629
  397MOL0     H54727   3.210   6.484   7.077  0.9309 -0.0124  2.1067
  397MOL0     H54728   3.190   6.335   6.977 -0.4574  1.7817 -1.2340
  397MOL0     H54729   3.425   6.375   7.014  0.0811 -0.1321 -0.5790
  397MOL0     H54730   3.410   6.367   7.182 -2.4977  0.8437  0.5508
  397MOL0     H54731   3.349   6.149   6.962  1.0287  1.7703 -0.8740
  397MOL0     H54732   3.330   6.107   7.134 -0.5398  3.7535  4.3084
  397MOL0     H54733   3.563   6.188   7.164 -1.5247  2.0695 -0.5988
  397MOL0     H54734   3.527   6.029   7.097 -1.3149  0.9861  3.2483
  397MOL0     H54735   3.749   6.321   7.041 -0.8030 -1.0203  0.7271
  397MOL0     H54736   3.957   6.382   6.860 -0.8437  0.9761  0.9588
  397MOL0     H54737   3.847   6.383   6.728 -2.6246 -2.2440  1.9495
  397MOL0     H54738   4.060   6.159   6.784 -0.7085 -3.9794 -3.0701
  397MOL0     H54739   3.959   6.168   6.630 -2.4275  2.0301 -1.1069
  397MOL0     H54740   4.074   6.392   6.586  0.6160  0.3498 -0.2098
  397MOL0     H54741   4.178   6.371   6.723 -1.3501  3.6391 -1.4715
  397MOL0     H54742   4.160   6.136   6.512  1.0097  0.7155 -2.2063
  397MOL0     H54743   4.247   6.282   6.484  2.5025 -0.5783  0.4943
  397MOL0     H54744   4.529   6.201   6.781 -0.6073 -0.3074  0.1327
  397MOL0     H54745   4.751   6.122   6.834  2.4918 -3.0110 -0.3578
  397MOL0     H54746   4.779   6.258   6.725  2.4937  0.5480 -1.7096
  397MOL0     H54747   4.866   6.108   6.701  1.4702  4.8538 -0.8132
  397MOL0     H54748   4.957   6.147   6.226  1.4299  3.3907  0.4598
  397MOL0     H54749   5.180   6.081   6.106 -0.1754  1.3624  0.6204
  397MOL0     H54750   5.404   6.109   6.067 -0.6100  0.9709  0.4540
  397MOL0     H54751   5.415   6.202   6.220  1.2726 -0.0960  0.3006
  397MOL0     H54752   5.629   6.065   6.255  1.2871 -0.1588 -0.4265
  397MOL0     H54753   5.621   6.020   6.090  1.1718 -0.9287  1.1918
  397MOL0     H54754   5.624   6.303   6.200  1.3096  0.8396  0.6364
  397MOL0     H54755   5.598   6.269   6.027  0.3737  1.3610  0.3891
  397MOL0     H54756   5.834   6.161   6.009 -1.1110  2.6276 -2.1329
  397MOL0     H54757   5.852   6.188   6.187  3.6211  0.3224 -1.6138
  397MOL0     H54758   5.825   6.389   5.961  0.9742 -1.6367 -2.2474
  397MOL0     H54759   5.833   6.414   6.150 -1.8471 -2.3226  1.1776
  397MOL0     H54760   6.045   6.270   5.984  0.8594  1.4658 -1.3148
  397MOL0     H54761   6.052   6.342   6.151 -4.4932 -0.6712  0.6662
  397MOL0     H54762   6.058   6.562   6.094 -1.1077 -0.8397  0.7306
  397MOL0     H54763   5.998   6.531   5.928 -1.1849 -0.2551  0.1633
  397MOL0     H54764   6.249   6.574   5.934  1.8372 -0.9879 -1.5842
  397MOL0     H54765   6.204   6.432   5.860 -1.7020  0.8157 -0.5265
  397MOL0     H54766   5.325   5.947   6.487  0.3703  1.0608 -0.7366
  397MOL0     H54767   5.118   6.030   6.593 -1.3771  2.1850  0.1557
  397MOL0     H54768   4.585   6.011   6.322  0.6726  0.2768 -0.8200
  397MOL0     H54769   4.344   6.054   6.426  0.7056  1.2486 -1.9390
  397MOL0     H54770   2.521   6.401   7.317  0.3117  0.7041 -0.9891
  397MOL0     H54771   2.295   6.494   7.297  1.3470 -0.7396  0.3447
  397MOL0     H54772   1.952   6.562   7.401 -0.2954 -0.9450 -0.8922
  397MOL0     H54773   1.714   6.548   7.339 -1.5217  0.7726 -1.7465
  397MOL0     H54774   1.637   6.730   6.920  1.8540 -2.4180 -0.1806
  397MOL0     H54775   1.583   6.571   6.945  2.7102  0.4344  0.0185
  397MOL0     H54776   1.378   6.648   7.055  0.6266  1.5678  1.5864
  397MOL0     H54777   1.397   6.712   6.881 -1.3552 -0.4346  0.1348
  397MOL0     H54778   1.417   6.861   7.153  0.3945 -0.6077  0.9771
  397MOL0     H54779   1.470   6.935   7.008 -3.7226  2.6813 -1.7074
  397MOL0     H54780   1.212   6.975   7.065 -1.5064  0.2735 -1.1220
  397MOL0     H54781   1.190   6.806   7.034 -0.2566 -0.9702 -0.7709
  397MOL0     H54782   1.215   6.984   6.653 -1.4026 -1.2239 -0.3851
  397MOL0     H54783   1.786   6.814   7.014 -1.7811 -0.1942  0.3434
  397MOL0     H54784   1.946   6.988   7.065 -3.2540 -1.8968 -0.8158
  397MOL0     H54785   2.101   6.942   7.149 -1.7502  1.5808 -0.0479
  397MOL0     H54786   2.054   6.880   6.988 -3.3967 -1.3826 -0.6980
  398MOL0     O54787   1.608   1.762   0.743  0.7309  0.1282 -0.2848
  398MOL0     C54788   1.610   1.736   0.866 -0.0902 -1.0251 -0.2800
  398MOL0     O54789   1.717   1.704   0.933  0.3195 -0.5636  0.0318
  398MOL0     C54790   1.833   1.756   0.891 -0.2475 -0.0147  0.1074
  398MOL0     C54791   1.850   1.883   0.839 -0.0897  0.1134  0.0868
  398MOL0     C54792   1.979   1.921   0.808  0.1417  1.1673 -0.5273
  398MOL0     C54793   2.089   1.828   0.834  0.0183 -0.6175  0.3586
  398MOL0     O54794   2.214   1.886   0.800 -0.4647 -0.0388 -0.4555
  398MOL0     C54795   2.319   1.822   0.860  0.4681  0.3359  0.0796
  398MOL0     C54796   2.450   1.900   0.839  0.2996  0.7723  0.6227
  398MOL0     C54797   2.573   1.836   0.911  2.1932  0.0292 -0.4802
  398MOL0     C54798   2.704   1.878   0.852 -0.8762  0.0288 -1.1061
  398MOL0     C54799   2.826   1.813   0.928  0.9114  0.4737  0.1005
  398MOL0     C54800   2.952   1.895   0.881  0.1399 -0.6618  0.4347
  398MOL0     C54801   3.093   1.840   0.930  0.3680 -0.1466 -0.5055
  398MOL0     C54802   3.099   1.687   0.914 -0.0858 -0.2092 -0.2467
  398MOL0     N54803   3.241   1.653   0.919 -0.4594  0.6922  0.2562
  398MOL0     C54804   3.332   1.656   0.817  0.2875 -0.4860 -0.3799
  398MOL0     C54805   3.446   1.595   0.863  0.1867  0.0128 -0.2393
  398MOL0     C54806   3.562   1.551   0.781  0.2753  0.1366  0.5128
  398MOL0     C54807   3.671   1.487   0.854  0.0465  0.3147 -0.0044
  398MOL0     C54808   3.766   1.590   0.930  0.8103  0.5600 -0.3186
  398MOL0     C54809   3.877   1.516   1.007 -0.1997  0.7059  0.0002
  398MOL0     O54810   3.980   1.463   0.913 -0.1903 -0.2885 -0.1583
  398MOL0     C54811   4.111   1.511   0.929  0.6584  0.2389 -0.9411
  398MOL0     C54812   4.212   1.415   0.934 -0.7647  0.5146  0.4795
  398MOL0     C54813   4.349   1.447   0.932 -0.2741  0.1729 -0.3134
  398MOL0     C54814   4.458   1.339   0.968 -0.4469  0.1798  0.3167
  398MOL0     C54815   4.383   1.582   0.917 -0.6884  0.1758  0.6789
  398MOL0     C54816   4.518   1.630   0.900  0.0028 -1.1151  0.4246
  398MOL0     O54817   4.521   1.727   0.809  0.5418 -0.4518 -0.2077
  398MOL0     C54818   4.634   1.797   0.779  0.2457 -0.6227 -0.6903
  398MOL0     C54819   4.731   1.767   0.676  0.2721 -0.1256 -0.3558
  398MOL0     C54820   4.851   1.827   0.661  0.3448  0.1306  0.5458
  398MOL0     C54821   4.891   1.939   0.743  0.4078  0.4231  0.1797
  398MOL0     O54822   5.004   2.005   0.730  0.5368  0.8073 -0.4048
  398MOL0     C54823   5.112   1.990   0.821 -0.7324 -0.6388 -0.4627
  398MOL0     C54824   5.213   1.889   0.766  0.0417  1.5927  0.0643
  398MOL0     C54825   5.339   1.890   0.853  0.2465 -0.1698 -0.2619
  398MOL0     C54826   5.328   1.893   1.008 -1.4961  0.0173  0.8775
  398MOL0     C54827   5.471   1.885   1.064 -0.8186  0.0982  0.1104
  398MOL0     C54828   5.467   1.862   1.217 -0.5752  0.5829  0.6164
  398MOL0     C54829   5.414   1.982   1.286  0.0117  1.1765  0.7641
  398MOL0     C54830   5.436   1.968   1.431 -0.8213 -0.0256 -0.2921
  398MOL0    Cl54831   5.612   1.965   1.467  0.1155 -0.3423 -0.1451
  398MOL0     C54832   4.792   1.976   0.844  0.0837  0.0710  0.1492
  398MOL0     C54833   4.668   1.908   0.862 -0.2877  0.4959  0.2583
  398MOL0     O54834   4.606   1.599   0.981  0.4820 -0.1666 -1.2828
  398MOL0     C54835   4.283   1.674   0.920  0.3538  0.2180  0.0829
  398MOL0     C54836   4.152   1.643   0.921  0.1935  1.1915 -0.4051
  398MOL0     N54837   3.423   1.571   0.998 -0.1619 -1.1818  0.0541
  398MOL0     N54838   3.300   1.601   1.028 -0.4668 -0.5308  0.2150
  398MOL0     C54839   2.060   1.703   0.891  0.2817  0.3626 -0.6579
  398MOL0     C54840   1.934   1.663   0.916  0.6370 -0.9019 -0.1345
  398MOL0     C54841   1.482   1.714   0.939  0.4046 -1.0867  0.3725
  398MOL0     C54842   1.488   1.628   1.057 -0.2267 -0.3806 -0.1768
  398MOL0     C54843   1.373   1.597   1.117  0.2441  0.0916 -0.3796
  398MOL0     C54844   1.249   1.637   1.072  0.6687  0.2193  0.0492
  398MOL0     O54845   1.134   1.614   1.141  0.1822  0.4288 -0.4293
  398MOL0     C54846   1.001   1.616   1.088  0.0691 -0.5467  0.1524
  398MOL0     C54847   0.947   1.483   1.112 -0.3566 -0.0097  0.2792
  398MOL0     C54848   0.810   1.476   1.044  0.2233  0.2170  0.1777
  398MOL0     C54849   0.717   1.376   1.123 -0.9075 -0.2746 -0.0129
  398MOL0     C54850   0.578   1.379   1.080  0.4117 -0.0269 -0.7665
  398MOL0     C54851   0.465   1.360   1.043  0.7636  0.3011 -0.2269
  398MOL0     C54852   1.242   1.727   0.959  0.1951 -0.6918 -0.3853
  398MOL0     C54853   1.357   1.764   0.893 -0.2997  0.1716 -0.4334
  398MOL0     C54854   1.342   1.851   0.765 -0.0707 -0.8017  1.3444
  398MOL0     H54855   1.771   1.953   0.815  0.0619  0.1092 -0.4252
  398MOL0     H54856   2.011   2.020   0.777  1.6960  0.6350 -0.6812
  398MOL0     H54857   2.334   1.719   0.826  0.6226  0.0295  1.0423
  398MOL0     H54858   2.302   1.808   0.967  1.7948  0.1894  0.2910
  398MOL0     H54859   2.482   1.904   0.734 -0.3017  1.8058  0.4671
  398MOL0     H54860   2.435   2.005   0.866 -3.6256 -0.1666  2.8241
  398MOL0     H54861   2.567   1.861   1.018  0.5553 -0.8973 -0.3272
  398MOL0     H54862   2.570   1.727   0.902 -1.0920  0.0536 -0.8334
  398MOL0     H54863   2.716   1.841   0.750  0.6757  2.0138 -1.7226
  398MOL0     H54864   2.701   1.988   0.846  0.1472  0.2628  1.3726
  398MOL0     H54865   2.820   1.707   0.905 -0.6950  0.8531 -1.4637
  398MOL0     H54866   2.822   1.829   1.037  0.5029  0.1329  0.1368
  398MOL0     H54867   2.955   1.906   0.772 -1.1165  3.0125  0.6541
  398MOL0     H54868   2.948   1.997   0.920  0.2058  0.5689 -2.4544
  398MOL0     H54869   3.097   1.865   1.036 -4.4602  0.0683 -0.1410
  398MOL0     H54870   3.169   1.889   0.868  1.9054 -1.5232  0.1982
  398MOL0     H54871   3.037   1.644   0.993 -0.6456  0.8643 -0.0914
  398MOL0     H54872   3.056   1.646   0.822 -1.5593  0.4671  0.1232
  398MOL0     H54873   3.306   1.680   0.715 -0.5050  1.1523  0.1800
  398MOL0     H54874   3.603   1.637   0.726 -1.2074 -0.0302 -0.9390
  398MOL0     H54875   3.531   1.476   0.708  0.4630  0.6818 -0.1470
  398MOL0     H54876   3.627   1.411   0.920 -1.2645 -1.3592 -2.6502
  398MOL0     H54877   3.740   1.436   0.786  1.3358  1.7245  0.1992
  398MOL0     H54878   3.809   1.660   0.858 -1.0617  2.7378  0.5695
  398MOL0     H54879   3.706   1.647   1.001 -0.7884 -1.5754  0.1656
  398MOL0     H54880   3.911   1.584   1.085 -0.9342  1.8081 -0.6108
  398MOL0     H54881   3.843   1.433   1.069  2.3250 -0.3774  0.0746
  398MOL0     H54882   4.184   1.313   0.958 -1.4895  1.0375  1.9843
  398MOL0     H54883   4.543   1.351   0.901 -0.1847 -2.6177  0.0248
  398MOL0     H54884   4.415   1.239   0.961  0.0467  0.0712 -1.9854
  398MOL0     H54885   4.495   1.337   1.071 -0.8262 -0.9151  0.4415
  398MOL0     H54886   4.709   1.688   0.604  2.1892 -0.5114 -0.5755
  398MOL0     H54887   4.926   1.798   0.588  0.6853  1.4496  0.3459
  398MOL0     H54888   5.152   2.091   0.832 -1.1216 -0.2078 -2.4732
  398MOL0     H54889   5.073   1.972   0.921 -0.6357  3.0095  0.3780
  398MOL0     H54890   5.164   1.791   0.772  0.5065  1.4030  1.3477
  398MOL0     H54891   5.238   1.914   0.663 -2.2835  2.0890 -0.4152
  398MOL0     H54892   5.401   1.975   0.825 -1.5992  1.7438  1.1367
  398MOL0     H54893   5.383   1.792   0.831 -0.6122 -0.5338 -0.3814
  398MOL0     H54894   5.272   1.806   1.045 -0.1034  0.3849  4.2090
  398MOL0     H54895   5.282   1.988   1.040 -2.3772  0.4462 -1.4514
  398MOL0     H54896   5.514   1.799   1.012 -1.1767  0.9044 -1.6246
  398MOL0     H54897   5.528   1.976   1.047 -0.3584  0.3906  2.7941
  398MOL0     H54898   5.568   1.833   1.246 -0.2630 -1.0537 -1.7688
  398MOL0     H54899   5.395   1.786   1.247 -0.9669  0.6085 -0.2341
  398MOL0     H54900   5.307   1.977   1.261  0.3154 -0.4369 -0.3764
  398MOL0     H54901   5.459   2.075   1.248 -0.8831  1.7901  1.1740
  398MOL0     H54902   5.397   1.872   1.463 -1.2647  0.5881  1.0805
  398MOL0     H54903   5.376   2.043   1.484  0.7037  1.3456 -0.3900
  398MOL0     H54904   4.806   2.059   0.912 -1.2290  0.8682 -0.5043
  398MOL0     H54905   4.608   1.937   0.947  1.4937  1.6047  1.2010
  398MOL0     H54906   4.315   1.778   0.924  0.3734  0.3283 -1.9655
  398MOL0     H54907   4.076   1.720   0.912 -0.9873  0.3468  1.7207
  398MOL0     H54908   2.139   1.631   0.907 -0.4592 -0.2754  0.2423
  398MOL0     H54909   1.911   1.567   0.960  2.9568  0.0436  3.4837
  398MOL0     H54910   1.583   1.601   1.102 -1.3527 -0.6914  2.1447
  398MOL0     H54911   1.382   1.556   1.217 -0.8392  1.1152  0.1681
  398MOL0     H54912   0.943   1.688   1.147  0.4594 -1.9941  2.3907
  398MOL0     H54913   0.993   1.637   0.981 -1.7426  0.7233  0.4708
  398MOL0     H54914   0.955   1.462   1.219  0.5071 -0.8160  0.0686
  398MOL0     H54915   1.017   1.413   1.065  0.5537 -0.0484  1.6141
  398MOL0     H54916   0.779   1.581   1.045  0.3236  0.2536 -0.3384
  398MOL0     H54917   0.818   1.438   0.942 -0.7127  0.5193 -0.0189
  398MOL0     H54918   0.716   1.414   1.226  1.0436  0.3776 -0.1967
  398MOL0     H54919   0.758   1.276   1.110  1.7613  0.7053  0.1755
  398MOL0     H54920   0.359   1.364   1.025  0.7270  0.3347 -0.0023
  398MOL0     H54921   1.151   1.765   0.915 -0.2256 -1.1560  0.0710
  398MOL0     H54922   1.356   1.786   0.678  0.4571  1.0908 -0.0352
  398MOL0     H54923   1.245   1.901   0.766  0.0173 -0.6340  1.5333
  398MOL0     H54924   1.421   1.927   0.765 -0.8992  0.0769  1.8896
  399MOL0     O54925   1.694   6.524   8.952  0.0697 -0.1545 -0.0037
  399MOL0     C54926   1.604   6.455   8.910 -0.6876  0.0745 -0.7723
  399MOL0     O54927   1.614   6.318   8.892  0.2961  0.2495 -0.2416
  399MOL0     C54928   1.727   6.255   8.946  0.0743  0.1020  0.4846
  399MOL0     C54929   1.756   6.248   9.082  0.2840 -0.6267  0.8155
  399MOL0     C54930   1.860   6.156   9.129  0.5416  1.1244 -0.1745
  399MOL0     C54931   1.915   6.065   9.053 -0.0303  0.1786  0.2285
  399MOL0     O54932   2.005   5.978   9.097 -0.1633  0.1062 -0.3197
  399MOL0     C54933   2.140   6.024   9.118 -0.1363 -0.1957  0.5942
  399MOL0     C54934   2.208   6.067   8.992  0.0089 -0.9219 -0.3276
  399MOL0     C54935   2.355   6.094   9.021  0.3383 -0.0423  0.0124
  399MOL0     C54936   2.432   6.117   8.883 -0.2625  1.0343 -0.4048
  399MOL0     C54937   2.587   6.123   8.922  0.4125  0.2099 -0.3797
  399MOL0     C54938   2.676   6.156   8.805 -0.1794  0.2184 -0.3970
  399MOL0     C54939   2.817   6.098   8.823 -0.1269 -0.6645 -0.3015
  399MOL0     C54940   2.890   6.168   8.938 -0.2054  0.1401  0.4959
  399MOL0     N54941   3.024   6.117   8.948 -1.1785  0.0701  0.1793
  399MOL0     C54942   3.066   6.014   9.023  0.5590  0.6596 -0.3253
  399MOL0     C54943   3.196   5.997   8.999 -0.5115 -0.7323 -0.0499
  399MOL0     C54944   3.276   5.881   9.059 -0.2342  0.4800  0.1025
  399MOL0     C54945   3.423   5.933   9.069  0.3477 -0.2643  0.8162
  399MOL0     C54946   3.525   5.820   9.106 -0.3444  0.6796 -0.1571
  399MOL0     C54947   3.529   5.801   9.264  1.0980 -0.2181 -0.0321
  399MOL0     O54948   3.540   5.909   9.353  1.1752  1.0595  0.2460
  399MOL0     C54949   3.663   5.966   9.370  0.2205 -0.9598 -0.3969
  399MOL0     C54950   3.661   6.078   9.457 -0.2687  0.7367  0.1689
  399MOL0     C54951   3.777   6.156   9.493 -0.6477  0.2307  0.9726
  399MOL0     C54952   3.766   6.265   9.596  0.1211  0.4431 -0.8152
  399MOL0     C54953   3.905   6.121   9.428  0.4513 -0.2777  0.1057
  399MOL0     C54954   4.039   6.191   9.453  0.1633 -0.4653  0.6653
  399MOL0     O54955   4.147   6.102   9.443  0.1789 -0.4012 -0.8255
  399MOL0     C54956   4.274   6.143   9.423  0.1722  0.4377 -0.0219
  399MOL0     C54957   4.384   6.063   9.461 -0.4694 -0.0766  0.2334
  399MOL0     C54958   4.516   6.116   9.444 -0.5481 -0.1901  0.6386
  399MOL0     C54959   4.544   6.247   9.386 -0.1229  0.2799 -0.0179
  399MOL0     O54960   4.666   6.313   9.368  0.5558  0.7815  0.3516
  399MOL0     C54961   4.794   6.247   9.386  0.8368  0.5824 -1.3219
  399MOL0     C54962   4.910   6.328   9.338  0.0580  0.3967  0.2714
  399MOL0     C54963   5.051   6.273   9.386 -1.0269 -0.1706  0.4177
  399MOL0     C54964   5.086   6.372   9.499 -0.5198  0.0952  0.5721
  399MOL0     C54965   5.225   6.359   9.562  0.1565  0.4495 -0.8881
  399MOL0     C54966   5.234   6.479   9.664  0.4418  0.2992  0.1723
  399MOL0     C54967   5.266   6.617   9.608  0.5718 -0.0175  0.7086
  399MOL0     C54968   5.359   6.608   9.494 -0.1953  0.2852  0.6523
  399MOL0    Cl54969   5.508   6.525   9.535 -0.0975  0.2727  0.1007
  399MOL0     C54970   4.430   6.317   9.345 -0.1482 -0.4288  1.0946
  399MOL0     C54971   4.305   6.268   9.360 -0.6148 -0.0044  0.6478
  399MOL0     O54972   4.035   6.309   9.486 -0.2728 -0.1561 -0.2361
  399MOL0     C54973   3.899   6.010   9.341 -1.1224  0.8709 -0.4594
  399MOL0     C54974   3.780   5.943   9.310 -0.3098  0.1716  0.3834
  399MOL0     N54975   3.231   6.093   8.901 -0.8771 -0.2032  0.1484
  399MOL0     N54976   3.131   6.169   8.875 -0.0211  0.3163 -0.3611
  399MOL0     C54977   1.882   6.069   8.918 -0.1936 -0.1995 -0.0600
  399MOL0     C54978   1.785   6.155   8.867  0.2540 -0.0198 -0.2586
  399MOL0     C54979   1.481   6.522   8.867  0.5763 -0.8469 -0.1716
  399MOL0     C54980   1.395   6.445   8.783  0.5489  0.0542 -0.1652
  399MOL0     C54981   1.273   6.492   8.727  0.5928 -0.4396  0.2836
  399MOL0     C54982   1.229   6.624   8.749 -0.2752 -0.7168  0.0687
  399MOL0     O54983   1.122   6.683   8.693  0.2442 -0.3439  0.2259
  399MOL0     C54984   1.034   6.599   8.617 -0.7012 -0.3769 -0.1490
  399MOL0     C54985   0.937   6.683   8.556 -0.5777 -0.0161  0.1333
  399MOL0     C54986   0.823   6.607   8.475 -0.0250 -0.4449  0.4886
  399MOL0     C54987   0.710   6.691   8.410  0.5815  0.4147  0.1134
  399MOL0     C54988   0.617   6.590   8.360  0.0361 -0.2861  0.9340
  399MOL0     C54989   0.547   6.496   8.315 -0.6221  0.0980 -0.5375
  399MOL0     C54990   1.308   6.702   8.833 -1.0169 -0.0166 -1.0488
  399MOL0     C54991   1.435   6.657   8.891  0.4664  0.8760 -0.6090
  399MOL0     C54992   1.507   6.755   8.986  0.3936 -0.9829  0.4469
  399MOL0     H54993   1.695   6.303   9.153  0.0857  1.2721 -0.7417
  399MOL0     H54994   1.880   6.153   9.235  1.1666  2.4413 -0.2388
  399MOL0     H54995   2.194   5.939   9.159 -0.3887 -1.1899 -1.0594
  399MOL0     H54996   2.148   6.100   9.197  1.4121 -1.7121  1.9768
  399MOL0     H54997   2.202   5.994   8.911  0.8423  0.5672 -1.8183
  399MOL0     H54998   2.159   6.158   8.958 -0.8571 -1.3784 -0.3111
  399MOL0     H54999   2.360   6.184   9.084 -2.2529  1.0000 -1.1396
  399MOL0     H55000   2.411   6.014   9.070  1.8655  1.5899  1.1085
  399MOL0     H55001   2.416   6.033   8.814 -0.1230 -3.0410  4.0142
  399MOL0     H55002   2.399   6.207   8.830 -1.7691  0.5054 -0.4140
  399MOL0     H55003   2.618   6.028   8.967 -0.2074 -0.4210 -1.2357
  399MOL0     H55004   2.596   6.188   9.009  1.3059  1.3213 -1.2767
  399MOL0     H55005   2.643   6.099   8.717 -0.6188  0.2930 -0.2809
  399MOL0     H55006   2.683   6.261   8.775  3.2727 -0.5094 -2.7152
  399MOL0     H55007   2.873   6.127   8.734 -1.5030 -0.6755 -1.2066
  399MOL0     H55008   2.826   5.989   8.834 -1.4316 -0.9313 -1.5121
  399MOL0     H55009   2.903   6.270   8.903  2.7042 -0.0675  0.6798
  399MOL0     H55010   2.844   6.159   9.037 -0.2044  2.7476  0.7923
  399MOL0     H55011   3.008   5.950   9.090  1.9869 -0.0714  0.2502
  399MOL0     H55012   3.266   5.793   8.996  0.2887  0.1231  0.5051
  399MOL0     H55013   3.244   5.847   9.158  0.4626 -2.2428 -0.5488
  399MOL0     H55014   3.456   5.974   8.973 -2.6145 -0.1950 -0.2744
  399MOL0     H55015   3.431   6.018   9.138  1.3140 -1.1056  1.7700
  399MOL0     H55016   3.500   5.728   9.051  2.4075 -0.1136 -0.2356
  399MOL0     H55017   3.627   5.846   9.075 -0.7347  1.6056 -0.6785
  399MOL0     H55018   3.432   5.756   9.287  1.6600 -1.9766 -0.9503
  399MOL0     H55019   3.597   5.721   9.294  2.9361  0.9531 -0.9277
  399MOL0     H55020   3.572   6.108   9.512  1.1979  1.5975  2.1908
  399MOL0     H55021   3.773   6.366   9.552 -0.8186  0.5582 -0.7131
  399MOL0     H55022   3.854   6.270   9.662  0.2316 -0.7637 -0.8584
  399MOL0     H55023   3.671   6.254   9.648 -1.0426  3.0144 -2.1813
  399MOL0     H55024   4.373   5.967   9.508 -0.7398 -0.1657 -0.0036
  399MOL0     H55025   4.598   6.048   9.468  0.8864  1.4961  0.6979
  399MOL0     H55026   4.810   6.225   9.492 -1.6439 -1.2902 -1.2146
  399MOL0     H55027   4.798   6.149   9.336  2.7514  1.0846 -2.2308
  399MOL0     H55028   4.900   6.328   9.229 -1.2266 -0.7912  0.3529
  399MOL0     H55029   4.890   6.429   9.377 -3.3694 -1.0164  2.6609
  399MOL0     H55030   5.125   6.286   9.306 -0.0804  1.1107  1.4395
  399MOL0     H55031   5.050   6.169   9.418 -2.9590 -0.6998 -1.1967
  399MOL0     H55032   5.009   6.369   9.577 -1.1291  1.6301  0.0760
  399MOL0     H55033   5.077   6.471   9.453  2.6290  0.4616  0.5850
  399MOL0     H55034   5.225   6.264   9.616 -1.2838  1.1337  0.4134
  399MOL0     H55035   5.299   6.356   9.482 -0.5024 -0.1271 -1.4938
  399MOL0     H55036   5.317   6.456   9.732 -1.4834 -2.4450  1.8075
  399MOL0     H55037   5.163   6.477   9.747  0.8197 -1.3097  0.4941
  399MOL0     H55038   5.311   6.680   9.685  0.8675  0.0208  0.5068
  399MOL0     H55039   5.166   6.657   9.587 -0.6922 -1.9122  2.7104
  399MOL0     H55040   5.393   6.709   9.470 -1.7371  0.6038 -0.3354
  399MOL0     H55041   5.304   6.582   9.403  1.4530  1.1256 -0.6375
  399MOL0     H55042   4.444   6.407   9.285 -0.8710  0.5852  2.3907
  399MOL0     H55043   4.230   6.337   9.324  0.5904  1.4279  0.7754
  399MOL0     H55044   3.988   5.971   9.292 -1.0264 -1.4329  1.3785
  399MOL0     H55045   3.788   5.864   9.235  0.3499 -0.0395  0.6722
  399MOL0     H55046   1.931   6.001   8.849  3.6863  0.5626  1.6954
  399MOL0     H55047   1.742   6.146   8.767 -3.2862  2.1055  0.9048
  399MOL0     H55048   1.433   6.344   8.770 -0.7274 -0.3827 -0.6837
  399MOL0     H55049   1.226   6.424   8.657 -1.1689 -1.1990  2.1328
  399MOL0     H55050   1.097   6.557   8.538  0.9750  1.0865  0.3445
  399MOL0     H55051   0.990   6.524   8.684 -0.3261  0.0299  0.5684
  399MOL0     H55052   0.986   6.753   8.488  1.3454 -0.2663  1.2099
  399MOL0     H55053   0.886   6.748   8.627  1.6189  1.0486  0.8009
  399MOL0     H55054   0.870   6.553   8.393  0.2626 -0.4994  0.6898
  399MOL0     H55055   0.773   6.535   8.541 -1.4857 -1.3007 -1.4593
  399MOL0     H55056   0.752   6.759   8.335 -2.9872  0.2907 -2.2493
  399MOL0     H55057   0.653   6.747   8.485 -0.6402  0.1719 -0.5955
  399MOL0     H55058   0.495   6.417   8.266  2.4232 -2.9797  0.7730
  399MOL0     H55059   1.278   6.805   8.848 -2.0322 -0.5404  0.9488
  399MOL0     H55060   1.453   6.850   8.988  1.2232 -0.4753 -0.6938
  399MOL0     H55061   1.516   6.722   9.090 -0.7665  1.5265  1.4278
  399MOL0     H55062   1.606   6.779   8.946 -0.4225  3.2199  0.5223
  400MOL0     O55063   6.487   6.901   5.639 -0.0365  0.6500  0.3475
  400MOL0     C55064   6.576   6.901   5.561  0.0853  0.2127  1.2116
  400MOL0     O55065   6.689   6.819   5.566 -0.1359  0.8992  0.3194
  400MOL0     C55066   6.695   6.730   5.670 -0.1032  0.0463 -0.2058
  400MOL0     C55067   6.584   6.655   5.709 -0.0369 -0.3149  0.0769
  400MOL0     C55068   6.596   6.563   5.810  0.0640  0.2197  0.5313
  400MOL0     C55069   6.717   6.539   5.870  0.4682 -0.4454 -0.7190
  400MOL0     O55070   6.724   6.454   5.971  0.2950  0.0516 -0.2001
  400MOL0     C55071   6.846   6.384   6.015  0.5967  0.4375  1.2153
  400MOL0     C55072   6.823   6.311   6.142  0.0253  0.5177 -0.3548
  400MOL0     C55073   6.942   6.232   6.188 -0.5259 -0.3254 -0.1240
  400MOL0     C55074   6.915   6.171   6.324 -0.1570 -0.4390  0.2261
  400MOL0     C55075   7.029   6.081   6.373  0.2573 -0.0535  0.3189
  400MOL0     C55076   6.985   6.009   6.500  0.1071 -0.5045  0.0994
  400MOL0     C55077   7.092   5.926   6.555 -0.7025  0.8892 -0.4787
  400MOL0     C55078   7.047   5.859   6.686  0.4739  0.0761  0.1639
  400MOL0     N55079   7.154   5.787   6.749 -0.1491 -0.1193 -0.5129
  400MOL0     C55080   7.143   5.656   6.804 -0.2637  0.1643 -0.1497
  400MOL0     C55081   7.271   5.634   6.858 -0.4092 -0.4088  0.4676
  400MOL0     C55082   7.317   5.513   6.939 -0.8232 -0.6146  0.5323
  400MOL0     C55083   7.259   5.500   7.081  0.7849 -0.8252  0.7284
  400MOL0     C55084   7.310   5.368   7.139  0.1384  0.1204  0.3342
  400MOL0     C55085   7.231   5.336   7.266 -0.0634  0.6138  0.3917
  400MOL0     O55086   7.281   5.224   7.341 -0.2097 -0.3899 -0.2971
  400MOL0     C55087   7.392   5.220   7.419  0.8883 -0.6671  0.2002
  400MOL0     C55088   7.447   5.098   7.454  0.3822 -0.1394 -0.1844
  400MOL0     C55089   7.560   5.087   7.526 -0.4989 -0.5636  0.9627
  400MOL0     C55090   7.591   4.943   7.565  0.0585  0.2105 -0.1564
  400MOL0     C55091   7.633   5.193   7.575 -0.4650 -0.4901  0.5759
  400MOL0     C55092   7.748   5.175   7.670  0.0128 -0.1909 -0.1599
  400MOL0     O55093   7.782   5.290   7.749  0.6067  0.7641 -0.3739
  400MOL0     C55094   7.914   5.298   7.795 -0.5878  1.1271  0.0876
  400MOL0     C55095   8.035   5.236   7.751 -0.7677  0.3793 -0.1207
  400MOL0     C55096   8.162   5.269   7.802  0.2481  0.5270  0.4880
  400MOL0     C55097   8.173   5.356   7.911 -0.1054  0.9813 -0.2512
  400MOL0     O55098   8.298   5.362   7.969 -0.0784  0.1134  0.1951
  400MOL0     C55099   8.327   5.476   8.055 -0.3872  0.2289 -0.5206
  400MOL0     C55100   8.478   5.485   8.099  0.5327 -0.2785 -0.6530
  400MOL0     C55101   8.568   5.514   7.973 -0.1628  0.3347 -0.1843
  400MOL0     C55102   8.541   5.661   7.925 -0.6784 -0.1817 -0.2912
  400MOL0     C55103   8.633   5.686   7.813 -0.0549  0.2981 -1.1950
  400MOL0     C55104   8.778   5.706   7.856  0.3393  0.2135 -0.7409
  400MOL0     C55105   8.870   5.731   7.741  0.7784  0.2762  0.2347
  400MOL0     C55106   9.014   5.728   7.780 -0.1298  0.2228 -0.3940
  400MOL0    Cl55107   9.070   5.848   7.887  0.3237  0.4101  0.0428
  400MOL0     C55108   8.061   5.425   7.948  0.9392  0.1240  0.0352
  400MOL0     C55109   7.934   5.406   7.887 -0.3629  0.5376 -0.5407
  400MOL0     O55110   7.818   5.071   7.663  0.0342  0.2087 -0.0778
  400MOL0     C55111   7.582   5.322   7.539  0.9602 -0.0329 -0.2433
  400MOL0     C55112   7.461   5.335   7.465  0.5813 -0.7703  0.3614
  400MOL0     N55113   7.352   5.745   6.832  0.0397  0.0396 -0.5380
  400MOL0     N55114   7.282   5.834   6.769 -0.3524 -0.6166 -0.1268
  400MOL0     C55115   6.830   6.606   5.825 -0.2833  0.2845  0.3055
  400MOL0     C55116   6.820   6.704   5.727 -0.7142  0.2186  0.2811
  400MOL0     C55117   6.569   7.005   5.451 -0.8240 -0.7501  0.2775
  400MOL0     C55118   6.467   7.109   5.458  0.4520 -0.5980  0.5150
  400MOL0     C55119   6.460   7.225   5.368 -0.2359 -0.4797  0.3857
  400MOL0     C55120   6.563   7.231   5.270  0.7989  0.3781  1.4032
  400MOL0     O55121   6.570   7.333   5.175 -0.1087  0.3010 -1.2318
  400MOL0     C55122   6.517   7.465   5.207  0.3410 -0.2022  0.6124
  400MOL0     C55123   6.591   7.552   5.303 -0.5059 -0.6648 -0.5789
  400MOL0     C55124   6.731   7.604   5.251  0.5725 -0.1691  0.6091
  400MOL0     C55125   6.795   7.502   5.153 -0.1348  0.1765 -0.0945
  400MOL0     C55126   6.934   7.548   5.128  0.1552  0.9436 -0.2794
  400MOL0     C55127   7.047   7.583   5.103  0.0921 -0.3414 -1.4468
  400MOL0     C55128   6.646   7.116   5.251 -0.3367  0.7251 -0.4860
  400MOL0     C55129   6.652   6.995   5.335  0.4198 -0.1347  0.3117
  400MOL0     C55130   6.760   6.891   5.312  0.4875 -0.3853  0.0504
  400MOL0     H55131   6.483   6.660   5.669  0.6819 -3.2140 -2.5009
  400MOL0     H55132   6.514   6.507   5.853 -2.4551  2.8163 -0.5675
  400MOL0     H55133   6.919   6.465   6.022  0.6502  0.9795 -2.8895
  400MOL0     H55134   6.885   6.315   5.939 -0.5932  2.1541 -1.0805
  400MOL0     H55135   6.804   6.382   6.223 -0.6276 -0.5527  0.4654
  400MOL0     H55136   6.740   6.239   6.134  0.0092  0.0891  2.5203
  400MOL0     H55137   6.965   6.149   6.120  0.0362 -2.0087  2.0131
  400MOL0     H55138   7.036   6.287   6.178  1.0024 -2.2651  2.3318
  400MOL0     H55139   6.903   6.250   6.398 -1.4814 -1.3408  1.0131
  400MOL0     H55140   6.822   6.114   6.333  0.3048 -1.2672 -0.1391
  400MOL0     H55141   7.116   6.144   6.393 -1.0435  1.3085  2.0702
  400MOL0     H55142   7.060   6.008   6.298 -2.2091 -1.3215  0.4291
  400MOL0     H55143   6.946   6.084   6.570  2.7254  0.6289  0.4820
  400MOL0     H55144   6.911   5.939   6.460  0.8960 -1.6061  0.5172
  400MOL0     H55145   7.178   5.991   6.577  0.2287  0.8018 -3.4601
  400MOL0     H55146   7.115   5.852   6.478 -0.3424  0.2672  0.2122
  400MOL0     H55147   7.006   5.932   6.757  1.2849  1.1937 -0.4705
  400MOL0     H55148   6.957   5.800   6.667  0.0716  0.6805  0.1596
  400MOL0     H55149   7.059   5.590   6.822  1.2737 -1.2050  2.8051
  400MOL0     H55150   7.426   5.510   6.946 -0.5817  2.3146 -0.6992
  400MOL0     H55151   7.294   5.420   6.886  1.2272 -1.1550  0.5336
  400MOL0     H55152   7.269   5.588   7.146  0.8136 -1.2675  1.3392
  400MOL0     H55153   7.152   5.487   7.069  0.5099  1.9424 -0.4349
  400MOL0     H55154   7.293   5.283   7.073 -0.0907 -0.0664  0.6339
  400MOL0     H55155   7.416   5.387   7.160  0.1274  1.9587 -0.9720
  400MOL0     H55156   7.203   5.423   7.326 -0.4843  0.4027  0.5096
  400MOL0     H55157   7.128   5.305   7.245  0.3289 -2.1458  2.1292
  400MOL0     H55158   7.390   5.018   7.407 -0.9177  2.6245 -3.7559
  400MOL0     H55159   7.523   4.871   7.520  2.2572 -1.6648 -0.7179
  400MOL0     H55160   7.596   4.937   7.674  1.6621  1.7802 -0.0916
  400MOL0     H55161   7.688   4.920   7.518 -0.4564 -0.7403 -0.7826
  400MOL0     H55162   8.036   5.173   7.663  0.9433 -2.6209  1.8725
  400MOL0     H55163   8.248   5.212   7.768 -0.1898 -1.0444  1.8882
  400MOL0     H55164   8.297   5.569   8.007  1.0063  0.8274 -0.2945
  400MOL0     H55165   8.273   5.469   8.150  0.7782  0.9794  0.2200
  400MOL0     H55166   8.480   5.561   8.177 -0.5053  0.8278 -1.6659
  400MOL0     H55167   8.511   5.390   8.144 -3.1270 -1.2620  0.2451
  400MOL0     H55168   8.559   5.433   7.900 -1.2793 -0.1392  0.4587
  400MOL0     H55169   8.668   5.509   8.017 -1.2753 -0.8777  2.4462
  400MOL0     H55170   8.549   5.730   8.010 -0.8649 -1.4928  0.8213
  400MOL0     H55171   8.437   5.679   7.895 -0.6829  1.0600  0.4116
  400MOL0     H55172   8.631   5.605   7.740  0.9209 -0.7744 -0.0680
  400MOL0     H55173   8.604   5.779   7.763 -0.7295  1.9846  2.0693
  400MOL0     H55174   8.814   5.619   7.911 -0.8442  0.2758  0.1856
  400MOL0     H55175   8.785   5.790   7.927  0.9416 -0.1488 -0.3589
  400MOL0     H55176   8.835   5.827   7.700 -2.3626 -0.7387  0.3297
  400MOL0     H55177   8.856   5.660   7.659  0.8872  1.6024 -0.9814
  400MOL0     H55178   9.073   5.725   7.689  0.5559  3.8857 -0.2128
  400MOL0     H55179   9.031   5.634   7.833  0.1008  1.2673  1.4982
  400MOL0     H55180   8.058   5.499   8.027 -0.7476  0.3280 -0.1728
  400MOL0     H55181   7.844   5.462   7.910 -0.9237  0.3433 -2.1135
  400MOL0     H55182   7.623   5.416   7.575 -2.8391  1.6942  0.0572
  400MOL0     H55183   7.419   5.433   7.448  0.3423 -0.8902  0.2492
  400MOL0     H55184   6.932   6.591   5.857  0.7678  0.8347 -2.5276
  400MOL0     H55185   6.916   6.741   5.694  0.1499  0.0936  2.4558
  400MOL0     H55186   6.394   7.103   5.538 -0.9009  2.2671 -0.3670
  400MOL0     H55187   6.385   7.301   5.384  0.7275  0.0486  2.7957
  400MOL0     H55188   6.500   7.511   5.109  1.6264  0.3394  0.6125
  400MOL0     H55189   6.414   7.464   5.244  0.3938  1.6566  0.9339
  400MOL0     H55190   6.613   7.501   5.398 -1.2721  0.8583  0.4689
  400MOL0     H55191   6.522   7.628   5.340  1.2971  0.4888  0.6146
  400MOL0     H55192   6.718   7.696   5.193  1.6081 -0.3636  0.0458
  400MOL0     H55193   6.785   7.627   5.343 -0.1926  1.5684  0.6656
  400MOL0     H55194   6.732   7.497   5.063  0.7280 -0.1631 -0.6873
  400MOL0     H55195   6.793   7.405   5.202  0.0673  1.3487  2.3858
  400MOL0     H55196   7.150   7.610   5.090  0.5031 -0.6058  0.9124
  400MOL0     H55197   6.714   7.113   5.166 -0.4345  0.4159 -0.5520
  400MOL0     H55198   6.848   6.910   5.375 -1.3484 -2.2559  3.4550
  400MOL0     H55199   6.733   6.790   5.345 -0.1456 -0.7098 -1.3791
  400MOL0     H55200   6.788   6.895   5.207  1.7548  1.6312  0.4070
  401MOL0     O55201   9.110  10.761   1.233  0.1716  0.5851  0.0377
  401MOL0     C55202   9.035  10.803   1.321 -0.2984 -1.0100  1.0835
  401MOL0     O55203   9.068  10.868   1.439 -0.3944 -0.2190 -0.0465
  401MOL0     C55204   9.198  10.888   1.481  0.0459  0.4688  0.8376
  401MOL0     C55205   9.202  10.958   1.607 -0.4781  0.3593  0.7975
  401MOL0     C55206   9.324  11.004   1.653  0.2875  0.3989 -0.1781
  401MOL0     C55207   9.443  10.968   1.587 -0.2099  0.1335  0.3196
  401MOL0     O55208   9.562  11.000   1.657 -0.5380  0.1606  0.3138
  401MOL0     C55209   9.691  10.994   1.595 -0.4741 -0.1871 -0.1498
  401MOL0     C55210   9.802  11.068   1.651 -0.0288 -0.1198 -0.4232
  401MOL0     C55211   9.770  11.220   1.659 -0.1471  0.3562 -0.3973
  401MOL0     C55212   9.864  11.279   1.767 -0.2037  0.2225  1.1463
  401MOL0     C55213  10.014  11.271   1.719 -0.0887  0.5685 -1.1953
  401MOL0     C55214  10.043  11.380   1.624 -0.3785  0.6596  1.0710
  401MOL0     C55215  10.201  11.391   1.626  0.2606 -0.1162 -0.1287
  401MOL0     C55216  10.236  11.497   1.531 -0.2311  0.2473 -0.0360
  401MOL0     N55217  10.380  11.494   1.508 -0.2506 -0.3193 -0.2435
  401MOL0     C55218  10.465  11.536   1.603 -0.1562 -0.5067  0.5831
  401MOL0     C55219  10.584  11.519   1.540  0.7893  0.4116 -0.0283
  401MOL0     C55220  10.736  11.550   1.584  0.4845  0.1870  0.3139
  401MOL0     C55221  10.766  11.694   1.553  0.2367 -0.6991  0.6529
  401MOL0     C55222  10.920  11.716   1.577  0.9408  0.4944  0.1030
  401MOL0     C55223  10.974  11.839   1.558 -0.5447  0.1075 -0.7715
  401MOL0     O55224  11.117  11.821   1.593  0.2586  0.2351  0.5268
  401MOL0     C55225  11.192  11.928   1.591 -0.7030  0.3648 -0.2071
  401MOL0     C55226  11.329  11.903   1.612 -0.2401  0.5089 -0.4540
  401MOL0     C55227  11.428  12.004   1.612  0.5791  0.4631  0.2651
  401MOL0     C55228  11.571  11.972   1.629  0.1027 -0.1071 -0.2825
  401MOL0     C55229  11.391  12.140   1.590  0.4965  0.5900 -0.4735
  401MOL0     C55230  11.480  12.250   1.569  0.3415  0.8290  0.2152
  401MOL0     O55231  11.460  12.369   1.640  0.2388 -0.0869 -0.1895
  401MOL0     C55232  11.558  12.464   1.637  0.1495 -0.0900  0.5658
  401MOL0     C55233  11.684  12.443   1.694  0.3756  0.7467  0.5422
  401MOL0     C55234  11.774  12.546   1.696  0.6706  0.1314 -0.1416
  401MOL0     C55235  11.741  12.673   1.636 -0.2962  1.4372 -0.3243
  401MOL0     O55236  11.840  12.773   1.639 -0.5689 -0.1839 -0.2694
  401MOL0     C55237  11.826  12.866   1.528 -0.0066 -0.0209 -0.8324
  401MOL0     C55238  11.946  12.952   1.502 -0.1254 -0.3184  0.8333
  401MOL0     C55239  11.913  13.063   1.390  0.0201 -0.1358 -0.6699
  401MOL0     C55240  12.038  13.156   1.359  0.9677  0.8164 -1.0291
  401MOL0     C55241  11.996  13.256   1.261 -0.2428 -0.9174  0.0595
  401MOL0     C55242  12.114  13.347   1.234  0.5914  0.0366 -0.1423
  401MOL0     C55243  12.098  13.407   1.096  0.2584 -0.1138 -0.6969
  401MOL0     C55244  12.224  13.482   1.042 -0.1571 -0.4546 -0.1640
  401MOL0    Cl55245  12.357  13.364   0.998  0.1141 -0.0931 -0.3683
  401MOL0     C55246  11.612  12.694   1.589  0.4372 -0.0336 -0.3185
  401MOL0     C55247  11.516  12.590   1.589  0.1648  0.2407 -0.3692
  401MOL0     O55248  11.581  12.233   1.496 -0.7735  0.0886  0.1513
  401MOL0     C55249  11.253  12.164   1.569 -0.0306 -0.6905  0.1454
  401MOL0     C55250  11.158  12.066   1.572 -0.8339  0.2922  0.2833
  401MOL0     N55251  10.563  11.462   1.413 -0.7377  0.0645 -0.4113
  401MOL0     N55252  10.442  11.448   1.391  0.0322  0.0585 -0.8158
  401MOL0     C55253   9.439  10.895   1.470 -0.4241  0.4487  0.2083
  401MOL0     C55254   9.322  10.843   1.413  0.1746 -0.0586 -0.1385
  401MOL0     C55255   8.893  10.808   1.281  1.2007  1.1346 -0.1696
  401MOL0     C55256   8.844  10.712   1.183 -0.2869 -0.2928 -0.4106
  401MOL0     C55257   8.713  10.711   1.138 -0.4261 -0.1198  0.0604
  401MOL0     C55258   8.620  10.802   1.183  0.3020 -0.0898 -0.2965
  401MOL0     O55259   8.484  10.807   1.137  0.6072 -0.1089 -1.0308
  401MOL0     C55260   8.475  10.890   1.023 -0.0729 -0.4752 -0.2273
  401MOL0     C55261   8.346  10.966   1.024  0.9159 -0.7083  0.4381
  401MOL0     C55262   8.226  10.872   0.998  0.2389  0.0359  0.2596
  401MOL0     C55263   8.095  10.936   1.008  0.9528 -0.5271 -0.3810
  401MOL0     C55264   8.002  10.843   0.931  0.2636 -0.5818 -0.0104
  401MOL0     C55265   7.919  10.766   0.884  0.0106 -0.6390  0.7986
  401MOL0     C55266   8.665  10.890   1.287 -0.2372  0.7929  0.5414
  401MOL0     C55267   8.794  10.887   1.342  0.3821  0.0167  0.0115
  401MOL0     C55268   8.815  11.004   1.440  0.4168 -0.3975  0.6380
  401MOL0     H55269   9.114  10.994   1.660 -1.0475  1.1380 -0.5986
  401MOL0     H55270   9.323  11.057   1.748  1.5706  1.7139 -0.8457
  401MOL0     H55271   9.680  11.034   1.494  3.1961  5.0018  1.1028
  401MOL0     H55272   9.729  10.892   1.585  0.8880 -0.0889  2.8041
  401MOL0     H55273   9.826  11.030   1.751  0.9232  1.0391 -0.1887
  401MOL0     H55274   9.895  11.064   1.594 -0.8459  2.7857 -2.1720
  401MOL0     H55275   9.784  11.272   1.564  3.3123 -1.1287 -0.8646
  401MOL0     H55276   9.670  11.247   1.695 -0.9620  0.2907 -2.4868
  401MOL0     H55277   9.837  11.381   1.798  3.1291  1.1703  1.3598
  401MOL0     H55278   9.862  11.220   1.859  2.2461 -0.3886  0.8868
  401MOL0     H55279  10.048  11.182   1.665 -1.4844 -0.4165 -0.4914
  401MOL0     H55280  10.085  11.260   1.802 -1.3549 -0.1211 -0.1769
  401MOL0     H55281  10.009  11.359   1.522 -0.1281  0.4060  1.0363
  401MOL0     H55282  10.003  11.476   1.659  4.2778  2.3141  2.7047
  401MOL0     H55283  10.246  11.300   1.586 -1.3685 -0.0941 -2.1212
  401MOL0     H55284  10.238  11.417   1.726  0.8320  1.6547 -0.7640
  401MOL0     H55285  10.188  11.470   1.437  2.7606 -2.3165 -0.9963
  401MOL0     H55286  10.200  11.594   1.566  1.5993  0.6762  0.7924
  401MOL0     H55287  10.444  11.573   1.703  2.1539  3.0776 -0.1193
  401MOL0     H55288  10.810  11.484   1.539  0.2099 -1.2544  1.9032
  401MOL0     H55289  10.744  11.537   1.692  2.4988  2.1213  0.4857
  401MOL0     H55290  10.750  11.714   1.447  0.6667  0.2649  0.7648
  401MOL0     H55291  10.705  11.760   1.615  0.8414  0.2493  0.2629
  401MOL0     H55292  10.946  11.677   1.676  0.5168 -1.3357 -0.4630
  401MOL0     H55293  10.969  11.650   1.505 -2.1931 -1.1869 -0.6920
  401MOL0     H55294  10.964  11.878   1.456 -1.8224  4.1888  0.7073
  401MOL0     H55295  10.934  11.915   1.625  1.0091  0.3281 -0.0367
  401MOL0     H55296  11.352  11.797   1.619 -1.5858  0.2048 -0.4453
  401MOL0     H55297  11.629  12.048   1.681 -1.9307  1.1197  0.3142
  401MOL0     H55298  11.616  11.952   1.531  1.9313  2.0169  0.0610
  401MOL0     H55299  11.581  11.879   1.686  0.9636  1.5804  2.4762
  401MOL0     H55300  11.717  12.352   1.744  2.7803  1.5720  0.5929
  401MOL0     H55301  11.872  12.528   1.739  0.6385  0.7682  0.2258
  401MOL0     H55302  11.803  12.821   1.431 -2.8575 -0.3261 -0.0896
  401MOL0     H55303  11.742  12.933   1.546 -0.0147 -0.4659  0.9790
  401MOL0     H55304  11.972  13.004   1.595 -1.5425 -3.0194  2.8916
  401MOL0     H55305  12.032  12.886   1.489  2.1644  2.8170 -1.4227
  401MOL0     H55306  11.830  13.120   1.433 -0.7736  0.2725 -2.6284
  401MOL0     H55307  11.861  13.028   1.301  1.4755 -2.0090 -0.8416
  401MOL0     H55308  12.126  13.098   1.332 -0.6648 -1.3434 -2.0268
  401MOL0     H55309  12.059  13.204   1.455  0.2504 -0.2636 -0.3050
  401MOL0     H55310  11.964  13.208   1.168  0.5588  1.6828 -1.6733
  401MOL0     H55311  11.912  13.308   1.307 -0.1154  0.2364 -0.9520
  401MOL0     H55312  12.192  13.270   1.230  0.1900 -0.3553 -0.5164
  401MOL0     H55313  12.133  13.417   1.315 -1.0452  0.2964  0.0459
  401MOL0     H55314  12.016  13.479   1.102 -0.3603 -0.8652  0.1152
  401MOL0     H55315  12.067  13.327   1.028 -4.0545 -0.8162  1.7465
  401MOL0     H55316  12.265  13.556   1.111  0.0779 -0.7928  0.0570
  401MOL0     H55317  12.182  13.544   0.962 -3.2141 -2.0149  0.1016
  401MOL0     H55318  11.591  12.792   1.549  3.8627  1.9014  2.0741
  401MOL0     H55319  11.418  12.609   1.546 -0.7236 -1.6152  0.6778
  401MOL0     H55320  11.224  12.265   1.544  0.1835 -0.7304 -0.2666
  401MOL0     H55321  11.061  12.100   1.538  0.3052  1.0417 -2.4192
  401MOL0     H55322   9.529  10.855   1.425 -0.2618  1.6964 -0.6277
  401MOL0     H55323   9.323  10.775   1.329 -2.6374  1.3795 -1.4796
  401MOL0     H55324   8.917  10.646   1.137  1.0699  1.8373 -1.4796
  401MOL0     H55325   8.693  10.642   1.056 -4.3556  2.6058 -1.5764
  401MOL0     H55326   8.560  10.957   1.008 -0.7716  0.4740 -0.0736
  401MOL0     H55327   8.474  10.828   0.933 -0.8918  1.8307 -1.8948
  401MOL0     H55328   8.347  11.047   0.951 -0.1891  0.4967  1.7101
  401MOL0     H55329   8.337  11.016   1.121 -2.7899 -0.3075  0.0285
  401MOL0     H55330   8.244  10.825   0.901 -0.4623  0.0011  0.1453
  401MOL0     H55331   8.217  10.787   1.066  2.6405  0.3249  1.0284
  401MOL0     H55332   8.085  11.035   0.962 -2.9521 -0.8238 -0.5006
  401MOL0     H55333   8.070  10.964   1.110  1.5060  0.8307 -0.5989
  401MOL0     H55334   7.840  10.697   0.864 -0.6871  0.3179  0.1495
  401MOL0     H55335   8.606  10.973   1.322  0.2798  1.3221  0.1816
  401MOL0     H55336   8.814  10.975   1.546 -0.0316  0.6441  0.9298
  401MOL0     H55337   8.918  11.037   1.423 -0.0880  0.9009  0.0368
  401MOL0     H55338   8.759  11.096   1.422  3.3157  1.9059  2.3549
  402MOL0     O55339   5.991   3.428   2.582  0.7372 -0.0397  0.0449
  402MOL0     C55340   5.949   3.414   2.467  0.2691 -0.0401 -0.3941
  402MOL0     O55341   6.022   3.398   2.357  0.0803  0.3806 -0.1290
  402MOL0     C55342   6.159   3.382   2.381  0.2912  0.1753 -0.3501
  402MOL0     C55343   6.234   3.494   2.420 -0.2942  0.0285  0.3779
  402MOL0     C55344   6.370   3.498   2.418  0.0870 -0.7271  1.2966
  402MOL0     C55345   6.445   3.383   2.383  0.0962 -0.4873 -0.7728
  402MOL0     O55346   6.582   3.396   2.399  0.3083  0.0553  0.1014
  402MOL0     C55347   6.657   3.275   2.391  0.4252 -0.0667 -0.4801
  402MOL0     C55348   6.806   3.313   2.425 -1.4054  0.4836 -0.2503
  402MOL0     C55349   6.898   3.223   2.341  0.6642  0.7910 -0.8566
  402MOL0     C55350   7.043   3.247   2.364 -0.2254  0.3833  0.2594
  402MOL0     C55351   7.119   3.127   2.301  0.6665 -0.5232  1.1344
  402MOL0     C55352   7.275   3.143   2.314  0.1449  0.3720 -0.0550
  402MOL0     C55353   7.347   3.024   2.255 -0.2933  0.8949 -0.2539
  402MOL0     C55354   7.355   3.035   2.094  0.0556  1.0418 -0.1209
  402MOL0     N55355   7.428   2.919   2.040 -0.3724 -0.1986  0.6137
  402MOL0     C55356   7.397   2.785   2.014  0.0946  0.0802 -0.3750
  402MOL0     C55357   7.511   2.728   1.958  0.5646  0.3657 -0.1799
  402MOL0     C55358   7.523   2.590   1.906  0.2974  0.8945  0.9250
  402MOL0     C55359   7.519   2.597   1.754  0.1799  0.5303  0.5183
  402MOL0     C55360   7.521   2.462   1.677  1.0706  0.2088 -0.9454
  402MOL0     C55361   7.606   2.359   1.741 -0.4215 -0.1688  0.0034
  402MOL0     O55362   7.745   2.390   1.753 -0.6533 -0.3675 -0.1131
  402MOL0     C55363   7.851   2.305   1.790 -0.0286  0.3788  0.2894
  402MOL0     C55364   7.876   2.199   1.718 -0.6287  0.4079  0.7295
  402MOL0     C55365   7.984   2.117   1.759 -0.5169 -0.2058  0.0003
  402MOL0     C55366   8.004   2.000   1.665  0.4974 -0.2093 -0.2599
  402MOL0     C55367   8.065   2.149   1.871 -0.0789  0.4568 -0.7671
  402MOL0     C55368   8.192   2.074   1.911  0.2143  0.4511  0.6344
  402MOL0     O55369   8.293   2.149   1.965  0.1434  0.1220 -0.0345
  402MOL0     C55370   8.410   2.097   2.004  0.2314  0.7230 -0.0213
  402MOL0     C55371   8.502   2.063   1.908 -0.2693  0.6429  0.5462
  402MOL0     C55372   8.633   2.028   1.948 -0.4529 -0.0223 -0.2541
  402MOL0     C55373   8.672   2.031   2.087 -0.1917 -0.2738  0.0648
  402MOL0     O55374   8.800   2.012   2.140  0.2034 -0.0205  0.2061
  402MOL0     C55375   8.908   2.023   2.042  0.7996 -0.1416 -0.6171
  402MOL0     C55376   9.045   2.008   2.096 -1.1457  0.1380 -0.1364
  402MOL0     C55377   9.160   2.063   2.008  0.1637  0.2083  0.0782
  402MOL0     C55378   9.296   1.992   2.044  0.1024 -0.3347 -0.0587
  402MOL0     C55379   9.409   2.028   1.952  0.2806 -0.7096 -0.2670
  402MOL0     C55380   9.518   1.925   1.964  0.8676 -0.2502 -0.8549
  402MOL0     C55381   9.606   1.953   2.078  0.7210  0.6303 -0.2709
  402MOL0     C55382   9.726   1.861   2.077  0.3798  0.3982 -0.1028
  402MOL0    Cl55383   9.686   1.736   2.195  0.5404  0.5349  0.6607
  402MOL0     C55384   8.573   2.060   2.177  0.0426 -0.7157 -0.3046
  402MOL0     C55385   8.441   2.084   2.138  1.0726 -0.6253 -0.0581
  402MOL0     O55386   8.195   1.953   1.885 -0.1150 -0.6725  0.3586
  402MOL0     C55387   8.041   2.281   1.924 -0.9939 -0.0019  0.5247
  402MOL0     C55388   7.939   2.356   1.883 -0.8976  0.1347 -0.3246
  402MOL0     N55389   7.608   2.819   1.973  0.3454 -0.5740 -0.9070
  402MOL0     N55390   7.556   2.927   2.017  0.1043 -1.0129  0.1300
  402MOL0     C55391   6.366   3.264   2.351  0.0205  0.3425  0.1930
  402MOL0     C55392   6.228   3.267   2.347  0.3009 -0.2108 -0.3432
  402MOL0     C55393   5.800   3.399   2.443  0.7752 -0.4243 -0.3581
  402MOL0     C55394   5.756   3.303   2.340 -0.0817  0.1507 -0.3661
  402MOL0     C55395   5.626   3.284   2.309 -0.0940 -0.7616 -0.5087
  402MOL0     C55396   5.524   3.343   2.392 -0.2221  1.6484  0.3863
  402MOL0     O55397   5.389   3.336   2.357 -0.2272  0.4120  0.2839
  402MOL0     C55398   5.348   3.253   2.245  0.7692 -0.6074  0.4611
  402MOL0     C55399   5.353   3.326   2.116 -0.1277 -0.3204 -0.1440
  402MOL0     C55400   5.248   3.438   2.093  0.2544 -0.1814 -0.1075
  402MOL0     C55401   5.269   3.498   1.961  0.5716 -0.8361  0.3161
  402MOL0     C55402   5.196   3.628   1.959 -0.5943  0.0598  0.6476
  402MOL0     C55403   5.121   3.719   1.981  0.2036  0.8865 -0.5532
  402MOL0     C55404   5.563   3.444   2.477 -0.1387  0.2675  0.1359
  402MOL0     C55405   5.699   3.471   2.503  0.2339 -0.5654 -0.1622
  402MOL0     C55406   5.725   3.575   2.608 -0.9472  0.7634 -0.0770
  402MOL0     H55407   6.170   3.578   2.447 -0.8451 -0.1147 -0.4325
  402MOL0     H55408   6.422   3.587   2.453 -0.4021  0.1381 -0.0632
  402MOL0     H55409   6.652   3.238   2.288  1.0934 -0.9069 -0.2217
  402MOL0     H55410   6.626   3.199   2.463  3.8340 -2.3201 -1.1387
  402MOL0     H55411   6.817   3.421   2.425  3.5766  0.3021  2.7156
  402MOL0     H55412   6.820   3.283   2.529  0.1903 -0.0796 -0.5941
  402MOL0     H55413   6.877   3.118   2.361 -1.0919  0.8282 -2.2191
  402MOL0     H55414   6.859   3.227   2.238 -4.6657 -0.8301  0.7702
  402MOL0     H55415   7.076   3.340   2.317  1.3844  0.0092  0.5790
  402MOL0     H55416   7.066   3.242   2.471 -2.9536 -6.9726  1.0988
  402MOL0     H55417   7.080   3.106   2.201 -1.5973 -0.8080  2.0142
  402MOL0     H55418   7.084   3.045   2.364  1.7115 -1.9329 -0.0774
  402MOL0     H55419   7.315   3.241   2.286  2.0987  0.0198  1.2242
  402MOL0     H55420   7.288   3.150   2.423  1.8892 -0.1525 -0.1890
  402MOL0     H55421   7.296   2.931   2.283  1.8017  0.0862  1.1035
  402MOL0     H55422   7.447   3.028   2.300 -0.0884  0.2824 -0.6321
  402MOL0     H55423   7.251   3.031   2.060 -0.2540  0.0636  0.8814
  402MOL0     H55424   7.398   3.127   2.053 -0.5891  0.7943 -1.4028
  402MOL0     H55425   7.302   2.734   2.025 -0.5511  1.3998  0.2787
  402MOL0     H55426   7.446   2.517   1.936  2.5457 -2.5580 -1.0089
  402MOL0     H55427   7.624   2.554   1.924 -0.4640 -0.8067  2.0420
  402MOL0     H55428   7.433   2.656   1.722  0.5265  0.3125 -0.9137
  402MOL0     H55429   7.609   2.648   1.718  0.6252 -1.5254 -1.5603
  402MOL0     H55430   7.416   2.431   1.676  1.7429 -2.4165  0.0016
  402MOL0     H55431   7.558   2.478   1.576  0.0302 -0.0947 -1.3878
  402MOL0     H55432   7.577   2.340   1.844  0.8169  0.0385  0.4114
  402MOL0     H55433   7.589   2.269   1.680  0.6291  1.2438 -2.5168
  402MOL0     H55434   7.802   2.167   1.645 -0.2705 -1.5451  1.1531
  402MOL0     H55435   7.919   2.002   1.596 -0.6424 -0.2498  1.0772
  402MOL0     H55436   7.998   1.905   1.719  1.7063 -0.1766 -0.0562
  402MOL0     H55437   8.102   2.007   1.617  2.8805 -2.4422  3.7161
  402MOL0     H55438   8.464   2.051   1.807  0.6632 -0.6759  0.3249
  402MOL0     H55439   8.697   2.036   1.861  0.6052 -0.1481  0.4927
  402MOL0     H55440   8.890   1.963   1.952 -1.2431  2.2144 -1.8916
  402MOL0     H55441   8.905   2.124   2.000 -2.3878 -1.0360 -2.9624
  402MOL0     H55442   9.052   2.074   2.184  0.7653 -1.6576  1.1546
  402MOL0     H55443   9.063   1.907   2.135 -3.4075 -0.5092 -0.6107
  402MOL0     H55444   9.166   2.172   2.009  1.8162  0.1534 -0.5903
  402MOL0     H55445   9.140   2.044   1.902 -1.6470  1.1432  0.2158
  402MOL0     H55446   9.274   1.887   2.026 -1.9236  0.5646 -3.8075
  402MOL0     H55447   9.333   2.021   2.143 -0.3728  0.5320 -0.1282
  402MOL0     H55448   9.369   2.022   1.850  0.0761  0.7474 -0.2872
  402MOL0     H55449   9.436   2.132   1.972  1.6746 -0.5219 -2.6911
  402MOL0     H55450   9.574   1.938   1.871 -0.9825 -1.4600 -2.1963
  402MOL0     H55451   9.473   1.825   1.962  1.5525 -0.5704 -0.4560
  402MOL0     H55452   9.552   1.945   2.172  1.0530 -0.3288 -0.1506
  402MOL0     H55453   9.651   2.052   2.070  1.7516  0.1284 -1.1470
  402MOL0     H55454   9.823   1.908   2.099 -0.5200  2.5240 -0.4631
  402MOL0     H55455   9.735   1.818   1.977 -2.4414 -2.1139  0.5655
  402MOL0     H55456   8.573   2.072   2.285 -5.4850  0.6054 -0.1503
  402MOL0     H55457   8.374   2.123   2.214  0.6718  1.1219 -1.2556
  402MOL0     H55458   8.092   2.314   2.014  0.4692 -2.0210  0.5158
  402MOL0     H55459   7.918   2.449   1.935  1.2079  0.9897 -0.8973
  402MOL0     H55460   6.407   3.165   2.334  0.1316  0.3831  0.2190
  402MOL0     H55461   6.175   3.175   2.323  1.1873 -0.7676 -0.2082
  402MOL0     H55462   5.835   3.255   2.282  1.2510 -0.2974  1.7311
  402MOL0     H55463   5.606   3.203   2.239 -3.4409 -0.2535 -0.3223
  402MOL0     H55464   5.406   3.161   2.236  0.5128 -0.7562  0.3137
  402MOL0     H55465   5.244   3.225   2.261  0.3289  0.9222  0.4138
  402MOL0     H55466   5.342   3.250   2.038 -0.4416 -0.4600  0.0370
  402MOL0     H55467   5.451   3.374   2.109  1.1262 -2.5307  0.9572
  402MOL0     H55468   5.144   3.403   2.092 -0.5041  1.8549  1.1157
  402MOL0     H55469   5.256   3.511   2.174 -2.1541 -0.8178  0.7822
  402MOL0     H55470   5.228   3.430   1.885 -0.9169  0.9255 -0.5254
  402MOL0     H55471   5.370   3.525   1.928 -0.9465  3.0361 -1.8114
  402MOL0     H55472   5.055   3.803   1.993  1.9728  2.4981 -1.4739
  402MOL0     H55473   5.493   3.500   2.538  1.2212  1.8441  0.3131
  402MOL0     H55474   5.810   3.639   2.581 -0.5565  0.8850  1.3616
  402MOL0     H55475   5.648   3.647   2.637  0.7709  2.3988  0.6887
  402MOL0     H55476   5.754   3.525   2.700 -2.0836  0.8745  0.3581
  403MOL0     O55477   8.767   4.903   0.465  0.4366  0.0486  0.3761
  403MOL0     C55478   8.670   4.974   0.452 -0.1683 -0.4391  0.2929
  403MOL0     O55479   8.573   4.953   0.361  0.5319 -0.0034 -0.0941
  403MOL0     C55480   8.588   4.867   0.253  0.4061  0.4363  0.3436
  403MOL0     C55481   8.640   4.741   0.262 -0.9417  0.3556  0.2493
  403MOL0     C55482   8.654   4.649   0.157  0.2852 -0.4393  0.1185
  403MOL0     C55483   8.604   4.691   0.035  0.4249 -0.4189  0.4767
  403MOL0     O55484   8.607   4.626  -0.084  0.9553 -0.3018  0.4999
  403MOL0     C55485   8.594   4.484  -0.086 -0.1968 -0.8617  0.2554
  403MOL0     C55486   8.536   4.448  -0.222 -0.3314 -0.0506 -0.0648
  403MOL0     C55487   8.502   4.291  -0.233  0.1980  0.3681  0.5926
  403MOL0     C55488   8.383   4.246  -0.148  0.2348 -0.4725  0.1052
  403MOL0     C55489   8.325   4.112  -0.176 -0.1281 -0.1652 -0.1899
  403MOL0     C55490   8.249   4.085  -0.309 -0.0384 -0.8397  0.1098
  403MOL0     C55491   8.109   4.151  -0.305 -0.0173  0.1517  0.4112
  403MOL0     C55492   8.033   4.096  -0.425 -0.3181 -1.2206 -0.7683
  403MOL0     N55493   8.083   4.119  -0.561 -0.1020  0.3377  0.5164
  403MOL0     C55494   8.135   4.024  -0.649 -0.3441  0.6255 -0.0965
  403MOL0     C55495   8.171   4.094  -0.763  0.3924  0.1893 -0.2140
  403MOL0     C55496   8.243   4.032  -0.877  0.6371  0.2258 -0.0812
  403MOL0     C55497   8.380   4.000  -0.828 -0.3965 -0.6378 -0.5647
  403MOL0     C55498   8.466   4.130  -0.807  0.0273  0.5869  0.0759
  403MOL0     C55499   8.607   4.102  -0.753 -0.1316 -0.1902 -0.5431
  403MOL0     O55500   8.674   4.223  -0.734  0.0579 -0.6588  0.3201
  403MOL0     C55501   8.807   4.235  -0.778 -0.2001  0.2272  0.6165
  403MOL0     C55502   8.871   4.170  -0.881 -0.3990 -1.2989  0.7983
  403MOL0     C55503   9.007   4.182  -0.908 -0.3733 -0.4540 -0.4258
  403MOL0     C55504   9.063   4.108  -1.021  0.1971 -0.2871 -0.3819
  403MOL0     C55505   9.089   4.272  -0.831  0.6840 -0.2630 -0.0852
  403MOL0     C55506   9.233   4.308  -0.842 -0.5651 -0.4338 -0.1160
  403MOL0     O55507   9.293   4.381  -0.737 -0.0098 -0.1445  0.2648
  403MOL0     C55508   9.423   4.424  -0.756  0.3512 -0.1219  0.3452
  403MOL0     C55509   9.522   4.330  -0.725  0.0409  0.0992 -0.3414
  403MOL0     C55510   9.658   4.354  -0.751  0.3936  1.1740 -0.7942
  403MOL0     C55511   9.692   4.478  -0.797 -0.1740  0.1495  0.7472
  403MOL0     O55512   9.826   4.514  -0.832 -0.4382  0.2536 -0.0270
  403MOL0     C55513   9.922   4.417  -0.876  0.4150  0.3358  0.4432
  403MOL0     C55514  10.040   4.424  -0.786  0.1234  0.2361  0.8396
  403MOL0     C55515  10.155   4.338  -0.832 -0.2937  0.6332  0.1240
  403MOL0     C55516  10.280   4.392  -0.757  0.2206  0.3316 -0.1036
  403MOL0     C55517  10.408   4.325  -0.810  0.0777 -0.1197 -0.5743
  403MOL0     C55518  10.536   4.378  -0.743  0.3407  0.5366 -0.0396
  403MOL0     C55519  10.660   4.291  -0.785 -0.2952 -0.1582  0.6535
  403MOL0     C55520  10.790   4.333  -0.711 -0.0725 -0.0193 -1.0655
  403MOL0    Cl55521  10.845   4.489  -0.772  0.0330 -0.1168 -0.0369
  403MOL0     C55522   9.587   4.574  -0.829 -0.7794  0.0879 -0.1586
  403MOL0     C55523   9.453   4.544  -0.816 -0.0136  0.5797 -0.0001
  403MOL0     O55524   9.292   4.276  -0.950  0.2932  0.8001 -0.4799
  403MOL0     C55525   9.018   4.336  -0.718 -0.9505  0.4419  0.2861
  403MOL0     C55526   8.884   4.315  -0.697 -0.1649  0.1324 -0.2948
  403MOL0     N55527   8.136   4.228  -0.747 -0.1897  0.5432 -0.2017
  403MOL0     N55528   8.089   4.244  -0.625  0.0038 -0.5184  0.1342
  403MOL0     C55529   8.547   4.825   0.015 -0.0060 -0.1410 -0.1454
  403MOL0     C55530   8.543   4.911   0.132  0.4198  0.1558  0.8809
  403MOL0     C55531   8.655   5.078   0.552  0.1357  0.6140  0.3413
  403MOL0     C55532   8.525   5.087   0.593 -0.5292  0.0038  0.5751
  403MOL0     C55533   8.498   5.168   0.707  0.1619 -0.2973  0.2731
  403MOL0     C55534   8.600   5.237   0.772  0.9900  0.4782  0.1897
  403MOL0     O55535   8.566   5.302   0.887 -0.3713  0.3815  0.5435
  403MOL0     C55536   8.638   5.426   0.907 -0.3256 -0.1508  0.2446
  403MOL0     C55537   8.597   5.489   1.027  1.6054 -0.1971 -0.1881
  403MOL0     C55538   8.626   5.423   1.158  0.1152  0.9979 -0.2671
  403MOL0     C55539   8.588   5.505   1.271  0.9710 -1.0051 -0.6928
  403MOL0     C55540   8.680   5.616   1.299 -0.6135  0.6416  1.4151
  403MOL0     C55541   8.749   5.718   1.302 -0.1234 -0.4345 -0.1388
  403MOL0     C55542   8.730   5.220   0.726 -0.5239  0.6435 -0.7509
  403MOL0     C55543   8.759   5.145   0.611  0.6637 -0.6666  0.3757
  403MOL0     C55544   8.897   5.148   0.556 -0.7039  0.2707 -0.6420
  403MOL0     H55545   8.669   4.697   0.357 -1.1630  1.7909  1.0141
  403MOL0     H55546   8.688   4.548   0.176  0.5692 -0.1875  0.9545
  403MOL0     H55547   8.527   4.440  -0.012  0.2851 -0.2646  1.0691
  403MOL0     H55548   8.694   4.442  -0.072  1.7477  3.0453 -0.4022
  403MOL0     H55549   8.444   4.506  -0.225  0.5505  1.6951  2.6342
  403MOL0     H55550   8.609   4.479  -0.297 -0.3837 -0.5319 -0.3189
  403MOL0     H55551   8.486   4.265  -0.338 -3.5289  1.9954  0.5961
  403MOL0     H55552   8.591   4.234  -0.206 -0.0050 -0.8097 -1.0821
  403MOL0     H55553   8.417   4.243  -0.044 -0.1233  0.0784  0.2455
  403MOL0     H55554   8.313   4.330  -0.147  1.5770  0.7009 -0.1462
  403MOL0     H55555   8.267   4.084  -0.087  1.4378  1.9562  1.6002
  403MOL0     H55556   8.408   4.042  -0.182 -0.8213 -0.9659 -0.6286
  403MOL0     H55557   8.295   4.130  -0.397  0.6483  1.0621  1.3505
  403MOL0     H55558   8.242   3.977  -0.322  0.9164 -0.8845 -0.1570
  403MOL0     H55559   8.109   4.260  -0.305  0.4316  0.2611  3.8899
  403MOL0     H55560   8.057   4.119  -0.214  0.8102 -0.4827  0.6715
  403MOL0     H55561   8.010   3.992  -0.403  1.0004 -1.2600  0.6134
  403MOL0     H55562   7.940   4.153  -0.426  0.8762  0.8914 -2.8907
  403MOL0     H55563   8.157   3.921  -0.620  0.3741  0.6060 -0.6737
  403MOL0     H55564   8.241   4.100  -0.963 -3.0191 -1.1135 -1.2616
  403MOL0     H55565   8.187   3.945  -0.913  0.7358 -0.5699  1.6200
  403MOL0     H55566   8.364   3.947  -0.733 -1.1990 -0.2196 -0.4519
  403MOL0     H55567   8.432   3.931  -0.895  1.0190  1.2061 -1.4443
  403MOL0     H55568   8.483   4.184  -0.900 -0.2388 -1.1493 -1.0214
  403MOL0     H55569   8.423   4.196  -0.731 -0.5047  0.2047  0.1107
  403MOL0     H55570   8.597   4.052  -0.656 -1.9358  2.5011  0.7726
  403MOL0     H55571   8.670   4.028  -0.803  1.1019 -1.9058  3.1704
  403MOL0     H55572   8.802   4.106  -0.936  0.1378 -1.1199 -0.1022
  403MOL0     H55573   9.156   4.064  -0.985  0.5682  1.2949  0.6849
  403MOL0     H55574   9.074   4.179  -1.104 -2.1299 -0.4206 -0.8577
  403MOL0     H55575   9.005   4.030  -1.070  1.0411  0.4978 -2.8045
  403MOL0     H55576   9.500   4.231  -0.685 -0.8822  0.3664 -0.1865
  403MOL0     H55577   9.726   4.274  -0.726  0.2730  1.7080  1.4870
  403MOL0     H55578   9.895   4.312  -0.885  0.1203  0.4783 -0.3562
  403MOL0     H55579   9.951   4.446  -0.978 -5.2166  0.5388 -1.4272
  403MOL0     H55580  10.067   4.529  -0.772 -0.5096  0.2374  2.3504
  403MOL0     H55581  10.004   4.395  -0.686 -3.8542  2.4175  0.2818
  403MOL0     H55582  10.167   4.336  -0.941 -2.0981  0.6776 -0.1205
  403MOL0     H55583  10.134   4.236  -0.799 -1.8396  0.5383 -0.9891
  403MOL0     H55584  10.273   4.377  -0.649  0.7960 -0.6547 -0.1890
  403MOL0     H55585  10.302   4.497  -0.779  0.1844  0.1338 -1.1272
  403MOL0     H55586  10.394   4.217  -0.797 -1.3143 -0.5186 -4.1000
  403MOL0     H55587  10.404   4.346  -0.917 -1.6384 -0.5261 -0.6312
  403MOL0     H55588  10.538   4.379  -0.634 -0.5698 -0.4598  0.0006
  403MOL0     H55589  10.549   4.483  -0.772 -2.3313  0.8736 -0.1876
  403MOL0     H55590  10.677   4.318  -0.889  2.1144  1.0233  1.2787
  403MOL0     H55591  10.642   4.183  -0.781 -0.3719 -0.4460 -3.2940
  403MOL0     H55592  10.877   4.268  -0.725  0.6250  0.6283  0.0596
  403MOL0     H55593  10.769   4.326  -0.604  0.5761 -0.5984 -0.9713
  403MOL0     H55594   9.614   4.671  -0.870  0.2550  0.9450  2.3775
  403MOL0     H55595   9.375   4.619  -0.829  0.3638  1.0329  0.3073
  403MOL0     H55596   9.079   4.394  -0.650  2.3513 -1.6495 -0.6105
  403MOL0     H55597   8.841   4.360  -0.609  0.9389  3.2222 -1.2093
  403MOL0     H55598   8.499   4.856  -0.077 -0.5423 -0.8428 -0.1131
  403MOL0     H55599   8.515   5.016   0.128  5.4604  1.7704  1.0799
  403MOL0     H55600   8.447   5.035   0.538 -0.3343  1.8123 -1.5979
  403MOL0     H55601   8.395   5.175   0.743 -0.1204  1.6347 -0.7518
  403MOL0     H55602   8.747   5.419   0.910 -0.3342 -0.3250  0.1721
  403MOL0     H55603   8.625   5.496   0.824  1.3270 -0.6675 -0.4911
  403MOL0     H55604   8.489   5.489   1.010  1.3295  1.8619  1.1954
  403MOL0     H55605   8.624   5.594   1.039  3.0233 -0.7742  2.2447
  403MOL0     H55606   8.578   5.325   1.160  0.3506  0.8852 -0.1730
  403MOL0     H55607   8.732   5.396   1.165  0.2610  1.5519 -0.3061
  403MOL0     H55608   8.577   5.444   1.361  0.8866 -1.4457 -0.9961
  403MOL0     H55609   8.490   5.546   1.248  0.3790 -0.4867  2.4060
  403MOL0     H55610   8.825   5.793   1.311 -1.0863  0.3877  1.5547
  403MOL0     H55611   8.809   5.282   0.767 -0.5939 -0.7130  1.6269
  403MOL0     H55612   8.897   5.196   0.458  2.4085 -0.6664 -1.2295
  403MOL0     H55613   8.959   5.212   0.620  3.5408 -2.4687 -1.5698
  403MOL0     H55614   8.946   5.050   0.549  1.8061  1.3246  0.7173
  404MOL0     O55615   5.389   2.953   1.669 -0.6927  0.5471 -0.1829
  404MOL0     C55616   5.376   2.976   1.786  0.0866 -0.3509  0.3994
  404MOL0     O55617   5.457   2.961   1.888  0.6041  0.1708 -0.3964
  404MOL0     C55618   5.591   2.930   1.854  0.0091  0.3070  0.2689
  404MOL0     C55619   5.661   2.860   1.954 -0.5884  0.0948 -0.4308
  404MOL0     C55620   5.797   2.821   1.940 -0.4370  0.6345  0.5626
  404MOL0     C55621   5.870   2.853   1.821 -0.6973 -1.2265 -0.0991
  404MOL0     O55622   6.002   2.805   1.808  0.2709 -0.6643  0.4621
  404MOL0     C55623   6.053   2.799   1.674  0.4753  0.2187 -0.7158
  404MOL0     C55624   6.198   2.757   1.678  1.2604  0.1582  0.5029
  404MOL0     C55625   6.221   2.619   1.740 -0.2327  0.4853  0.6137
  404MOL0     C55626   6.375   2.586   1.736 -0.6536  0.3332  0.1373
  404MOL0     C55627   6.406   2.433   1.786 -0.5856  0.2503 -0.2323
  404MOL0     C55628   6.551   2.418   1.809 -0.6866 -0.0712 -0.1037
  404MOL0     C55629   6.579   2.271   1.853 -0.5163 -0.2084  0.6256
  404MOL0     C55630   6.733   2.254   1.868  0.7979  0.4112  0.1098
  404MOL0     N55631   6.771   2.138   1.945 -0.1908  0.3406 -0.0969
  404MOL0     C55632   6.836   2.152   2.065  0.5972  0.0900 -0.2523
  404MOL0     C55633   6.877   2.030   2.097  0.3650 -0.9068 -0.5773
  404MOL0     C55634   6.952   1.990   2.221  0.2410 -1.1215 -0.7048
  404MOL0     C55635   7.083   2.070   2.221  0.7519 -0.0903 -0.2759
  404MOL0     C55636   7.178   2.019   2.328 -0.6440 -0.5183 -0.6922
  404MOL0     C55637   7.314   2.087   2.310  0.3015 -0.5381 -1.1760
  404MOL0     O55638   7.405   2.009   2.381 -0.5507  0.0479 -0.0123
  404MOL0     C55639   7.530   2.064   2.406  0.0384  0.1224  0.8522
  404MOL0     C55640   7.594   2.161   2.328  0.4316  0.1712  0.7964
  404MOL0     C55641   7.725   2.208   2.356 -0.6689  0.3689 -0.5261
  404MOL0     C55642   7.797   2.296   2.261  0.4521 -0.0087  0.1282
  404MOL0     C55643   7.793   2.155   2.476  0.4412 -0.3002  0.0881
  404MOL0     C55644   7.932   2.196   2.519  0.5599 -0.5916  0.5566
  404MOL0     O55645   8.032   2.182   2.431  0.6042  0.2429 -0.5639
  404MOL0     C55646   8.164   2.187   2.475 -0.5902  1.0766 -0.0129
  404MOL0     C55647   8.235   2.304   2.465  0.1754 -0.4645  0.3436
  404MOL0     C55648   8.383   2.298   2.475 -0.7932  0.3480  0.2900
  404MOL0     C55649   8.446   2.181   2.510  0.3609  0.5842  0.4089
  404MOL0     O55650   8.585   2.184   2.522 -0.1843  0.3796 -0.3740
  404MOL0     C55651   8.647   2.074   2.582 -0.0868 -0.1479  0.3686
  404MOL0     C55652   8.797   2.079   2.579  0.3856 -0.0202 -0.0051
  404MOL0     C55653   8.862   2.208   2.633  0.8197  1.1206  0.1832
  404MOL0     C55654   9.014   2.201   2.615 -0.2966  0.2026  0.7336
  404MOL0     C55655   9.090   2.327   2.641  0.3704 -0.4827  0.5435
  404MOL0     C55656   9.234   2.316   2.664 -0.4800 -0.1768 -0.2386
  404MOL0     C55657   9.288   2.462   2.680  0.0269 -0.5500  1.2990
  404MOL0     C55658   9.441   2.471   2.715 -0.7496 -0.4723  0.0626
  404MOL0    Cl55659   9.466   2.391   2.871 -0.1340  0.0342 -0.0405
  404MOL0     C55660   8.367   2.068   2.521 -0.6742 -0.1805  0.3680
  404MOL0     C55661   8.232   2.066   2.496  1.0358 -0.5717 -0.4847
  404MOL0     O55662   7.938   2.231   2.637  0.0799 -0.3036 -0.0775
  404MOL0     C55663   7.724   2.055   2.556  0.0696  0.2898  0.3663
  404MOL0     C55664   7.595   2.011   2.514  0.0242 -0.7491 -1.0660
  404MOL0     N55665   6.814   1.941   2.013  0.2375 -0.0038 -0.1839
  404MOL0     N55666   6.743   2.009   1.932  0.6813 -0.3122 -0.0062
  404MOL0     C55667   5.798   2.924   1.718 -0.4971  0.1085  0.1471
  404MOL0     C55668   5.664   2.960   1.730 -0.1953 -0.0090  0.8304
  404MOL0     C55669   5.241   3.037   1.821 -0.0912  0.0291 -0.4820
  404MOL0     C55670   5.177   2.994   1.946 -0.0041 -0.1631  0.4519
  404MOL0     C55671   5.052   3.031   1.978 -0.2779  0.5113  0.7294
  404MOL0     C55672   4.983   3.125   1.890  0.1733  0.9455 -0.7213
  404MOL0     O55673   4.860   3.172   1.932  0.1423 -0.2570 -0.0276
  404MOL0     C55674   4.753   3.168   1.833 -0.0476  0.0339 -0.2650
  404MOL0     C55675   4.634   3.131   1.917  1.2777 -0.6779  0.3419
  404MOL0     C55676   4.512   3.136   1.829 -0.8625 -0.5196 -0.0792
  404MOL0     C55677   4.382   3.090   1.885  0.0308 -0.5897 -0.2844
  404MOL0     C55678   4.299   3.207   1.923 -1.1274 -0.0672  0.7338
  404MOL0     C55679   4.220   3.288   1.963  0.4433  0.2378  0.6461
  404MOL0     C55680   5.050   3.175   1.785  0.6751 -0.9953 -0.9610
  404MOL0     C55681   5.173   3.130   1.739  0.1898  0.1436  0.3686
  404MOL0     C55682   5.233   3.196   1.619  0.1261 -0.0196 -1.0040
  404MOL0     H55683   5.609   2.842   2.048 -1.5594  1.1196 -0.7433
  404MOL0     H55684   5.858   2.776   2.018  3.3331  1.3708 -1.6818
  404MOL0     H55685   6.047   2.901   1.635 -1.3977  0.3791 -0.1063
  404MOL0     H55686   5.994   2.732   1.612  0.7148  3.8266 -5.4141
  404MOL0     H55687   6.240   2.759   1.577 -1.7670  1.2736 -0.8478
  404MOL0     H55688   6.258   2.821   1.743 -0.2545  0.5003  1.6037
  404MOL0     H55689   6.181   2.625   1.842 -2.2543  0.2768 -0.1065
  404MOL0     H55690   6.163   2.544   1.684  0.3704  0.6004 -0.1783
  404MOL0     H55691   6.421   2.619   1.642 -2.2105  2.1665 -0.0427
  404MOL0     H55692   6.416   2.656   1.809 -0.2053  0.2350 -0.0146
  404MOL0     H55693   6.382   2.364   1.705  0.6255 -0.0311 -0.3709
  404MOL0     H55694   6.336   2.419   1.869 -1.9422  1.5875 -1.0909
  404MOL0     H55695   6.603   2.432   1.714  1.3105 -3.0236  0.4101
  404MOL0     H55696   6.587   2.486   1.887  3.0569  2.4218 -3.5929
  404MOL0     H55697   6.545   2.207   1.772  0.4809  1.5049 -1.2370
  404MOL0     H55698   6.534   2.255   1.952  1.5284  0.9484  1.8233
  404MOL0     H55699   6.770   2.236   1.766  1.7107 -3.7913  1.0134
  404MOL0     H55700   6.767   2.351   1.904 -2.5456  2.1402 -0.9012
  404MOL0     H55701   6.839   2.245   2.122 -2.0646  0.3345 -0.4201
  404MOL0     H55702   6.983   1.886   2.205  2.4694 -0.4845 -0.8871
  404MOL0     H55703   6.896   2.000   2.314  0.9085 -3.9908  0.0976
  404MOL0     H55704   7.135   2.066   2.125  2.6471  1.5752  0.6035
  404MOL0     H55705   7.064   2.176   2.241 -3.2037 -0.4733 -1.1298
  404MOL0     H55706   7.132   2.030   2.427 -0.4929  0.7908 -0.7496
  404MOL0     H55707   7.196   1.914   2.304  0.8074 -0.2519 -0.8693
  404MOL0     H55708   7.326   2.098   2.202  2.4599  0.0138 -0.9179
  404MOL0     H55709   7.323   2.185   2.359 -0.2556 -0.4390 -1.2649
  404MOL0     H55710   7.549   2.184   2.233 -0.0045 -1.5819  0.5602
  404MOL0     H55711   7.727   2.346   2.193 -1.8522 -0.0573  2.3116
  404MOL0     H55712   7.871   2.241   2.203 -1.8642 -0.6735 -2.4260
  404MOL0     H55713   7.838   2.380   2.317  1.0867  0.1449 -0.5600
  404MOL0     H55714   8.192   2.400   2.436  0.0329 -1.3154 -2.5607
  404MOL0     H55715   8.440   2.388   2.452 -0.8626 -0.3092 -2.9059
  404MOL0     H55716   8.609   2.082   2.685 -0.5302  1.0143  0.1380
  404MOL0     H55717   8.611   1.985   2.529 -0.3602  0.7764 -1.0469
  404MOL0     H55718   8.825   1.985   2.626 -2.0482 -1.6178 -1.5156
  404MOL0     H55719   8.827   2.075   2.474 -2.2038 -2.1342 -0.7797
  404MOL0     H55720   8.835   2.220   2.738  2.9680 -0.6888  1.0121
  404MOL0     H55721   8.801   2.283   2.581 -2.9008 -1.4626  0.3846
  404MOL0     H55722   9.031   2.163   2.513 -1.0752 -2.2385  1.4391
  404MOL0     H55723   9.043   2.130   2.693 -1.0923 -0.0960  0.7670
  404MOL0     H55724   9.075   2.404   2.565 -4.4154 -1.5275  0.1273
  404MOL0     H55725   9.037   2.375   2.724  0.4857  1.9841 -0.7126
  404MOL0     H55726   9.280   2.265   2.579 -1.6808  1.0708 -1.6883
  404MOL0     H55727   9.254   2.254   2.752  0.0554  0.2528 -0.0496
  404MOL0     H55728   9.229   2.509   2.759 -0.6981 -1.4570  1.3281
  404MOL0     H55729   9.279   2.514   2.584 -0.0980 -0.7406  1.2048
  404MOL0     H55730   9.472   2.576   2.707 -0.1322 -0.6282  0.3275
  404MOL0     H55731   9.510   2.427   2.642  0.6670  0.2432  0.9074
  404MOL0     H55732   8.419   1.976   2.547  0.9223  0.8900  1.1834
  404MOL0     H55733   8.172   1.978   2.472  1.5896 -0.3068 -3.2721
  404MOL0     H55734   7.762   2.021   2.651  1.1594 -0.9786 -0.4908
  404MOL0     H55735   7.529   1.956   2.580  1.7548 -0.1964  1.2682
  404MOL0     H55736   5.832   2.930   1.616 -1.7546 -1.4137 -0.4093
  404MOL0     H55737   5.612   3.011   1.650 -1.9412 -1.6275  0.8683
  404MOL0     H55738   5.235   2.930   2.011  1.2063  3.4733  3.3124
  404MOL0     H55739   5.005   3.000   2.071 -0.7160  2.3409  1.1673
  404MOL0     H55740   4.746   3.268   1.788 -4.2309  0.3425  0.5999
  404MOL0     H55741   4.774   3.098   1.752 -0.9073  0.9097 -1.2906
  404MOL0     H55742   4.633   3.212   1.991 -2.4613 -1.1834  1.0307
  404MOL0     H55743   4.644   3.032   1.961  3.0125 -0.0893  1.3789
  404MOL0     H55744   4.499   3.244   1.813  0.8444  0.1657  2.5405
  404MOL0     H55745   4.522   3.098   1.727 -3.0482 -0.4407 -0.3729
  404MOL0     H55746   4.401   3.034   1.978 -0.7831  0.2814  0.4236
  404MOL0     H55747   4.330   3.041   1.802 -0.6909  3.4447 -2.4594
  404MOL0     H55748   4.157   3.366   2.001  1.4295  0.5199  1.7927
  404MOL0     H55749   5.003   3.250   1.721  0.5311 -0.0901  0.1691
  404MOL0     H55750   5.342   3.197   1.631 -0.0585 -0.4086  1.1376
  404MOL0     H55751   5.202   3.141   1.530 -0.7517  0.2530 -0.8785
  404MOL0     H55752   5.202   3.301   1.617 -2.0976 -0.6107 -0.2068
  405MOL0     O55753   1.960   8.001   0.355  0.0054  0.9156 -0.0125
  405MOL0     C55754   1.992   8.016   0.239 -1.2503 -0.2713  0.1331
  405MOL0     O55755   2.116   8.005   0.189 -0.4204 -0.2011  0.6996
  405MOL0     C55756   2.229   8.008   0.260  0.5800  0.3800 -0.7456
  405MOL0     C55757   2.303   8.125   0.259  0.2724 -0.7698 -0.9194
  405MOL0     C55758   2.428   8.133   0.310  0.1435  0.0301 -1.2621
  405MOL0     C55759   2.482   8.024   0.374 -0.6560  0.2557 -0.1955
  405MOL0     O55760   2.603   8.028   0.439 -0.2759 -0.4584 -0.6877
  405MOL0     C55761   2.606   7.999   0.590  0.4049 -0.1353 -0.1168
  405MOL0     C55762   2.739   8.042   0.653 -0.7271 -0.4649 -0.2259
  405MOL0     C55763   2.765   8.186   0.621 -0.1491  0.6587 -0.1414
  405MOL0     C55764   2.858   8.241   0.726 -0.3963 -1.0365  0.2531
  405MOL0     C55765   2.895   8.390   0.684 -0.1303 -0.2157 -0.4795
  405MOL0     C55766   2.989   8.455   0.780  0.8349  0.3291  0.6902
  405MOL0     C55767   2.993   8.613   0.780  0.2175 -0.2211  0.1013
  405MOL0     C55768   2.989   8.670   0.636 -1.0325  0.8049  0.4288
  405MOL0     N55769   3.111   8.631   0.570 -0.1741  0.0760 -0.6801
  405MOL0     C55770   3.129   8.569   0.454 -0.3848  0.0053  0.0960
  405MOL0     C55771   3.257   8.572   0.428 -0.5971  0.4886 -0.6554
  405MOL0     C55772   3.329   8.513   0.311 -0.0452 -0.4213  0.4990
  405MOL0     C55773   3.300   8.593   0.189 -0.6156 -0.9265  0.0837
  405MOL0     C55774   3.352   8.737   0.204 -0.1819  0.2931 -0.3506
  405MOL0     C55775   3.482   8.752   0.134  0.9079 -0.6488  0.3658
  405MOL0     O55776   3.462   8.718   0.000 -0.0117  0.1625  0.0112
  405MOL0     C55777   3.577   8.701  -0.080 -0.3481  0.1362 -0.2627
  405MOL0     C55778   3.559   8.641  -0.204 -0.7768 -0.7779 -0.2521
  405MOL0     C55779   3.668   8.614  -0.292 -0.7385 -0.6305 -0.5217
  405MOL0     C55780   3.639   8.532  -0.416 -0.2420 -0.0810 -0.2195
  405MOL0     C55781   3.805   8.655  -0.247 -0.4838  0.6675  0.2961
  405MOL0     C55782   3.934   8.615  -0.321  0.1217  0.2541 -0.6480
  405MOL0     O55783   4.039   8.610  -0.234 -0.4812  0.5575  0.2724
  405MOL0     C55784   4.156   8.547  -0.259  0.3371  0.2647 -0.2179
  405MOL0     C55785   4.276   8.610  -0.304 -0.4992  0.0889  0.1696
  405MOL0     C55786   4.385   8.529  -0.330  0.1107  0.7328  1.3025
  405MOL0     C55787   4.385   8.395  -0.298  0.3981 -0.3139  0.3871
  405MOL0     O55788   4.511   8.334  -0.289  0.8975 -0.0763  0.3825
  405MOL0     C55789   4.629   8.391  -0.361 -0.4840  0.1899  0.6542
  405MOL0     C55790   4.731   8.279  -0.386  0.5246  0.6833  0.4841
  405MOL0     C55791   4.855   8.333  -0.464 -0.1308  0.5726 -0.3032
  405MOL0     C55792   4.970   8.232  -0.471 -0.0051  0.1292  0.5868
  405MOL0     C55793   4.962   8.140  -0.604 -0.0520 -0.4419  0.6475
  405MOL0     C55794   5.018   8.203  -0.735  0.5176 -0.2660 -0.1310
  405MOL0     C55795   5.155   8.264  -0.719 -0.6613  0.5698 -0.2946
  405MOL0     C55796   5.228   8.276  -0.858  0.3592  0.6100  0.8659
  405MOL0    Cl55797   5.144   8.375  -0.986  0.5292 -0.6393  0.5958
  405MOL0     C55798   4.269   8.334  -0.249 -1.0311  0.6558  0.6211
  405MOL0     C55799   4.156   8.409  -0.236 -0.4725  0.4243  0.5136
  405MOL0     O55800   3.935   8.602  -0.441  0.0600  0.2383 -0.3410
  405MOL0     C55801   3.814   8.724  -0.122 -0.1871  0.0702 -0.0238
  405MOL0     C55802   3.706   8.741  -0.039 -0.8537  0.4039  0.2409
  405MOL0     N55803   3.330   8.635   0.529  0.5093 -0.2598 -0.1669
  405MOL0     N55804   3.235   8.671   0.616  0.4054  0.8894  0.5480
  405MOL0     C55805   2.402   7.909   0.387 -0.3710 -0.5171 -0.1262
  405MOL0     C55806   2.272   7.902   0.338  0.5881 -0.6580 -0.8092
  405MOL0     C55807   1.879   8.042   0.131  0.3183 -1.4959 -0.1409
  405MOL0     C55808   1.900   7.991   0.010  0.3521  0.5227  0.4443
  405MOL0     C55809   1.805   8.008  -0.096  0.4105 -0.4275  0.0442
  405MOL0     C55810   1.678   8.075  -0.073 -1.0346  0.0369 -0.7527
  405MOL0     O55811   1.595   8.099  -0.177  0.7118 -0.7288 -0.3585
  405MOL0     C55812   1.461   8.152  -0.158  0.6720 -0.5444 -0.4979
  405MOL0     C55813   1.395   8.154  -0.293  0.4044  0.9159  0.8075
  405MOL0     C55814   1.373   8.006  -0.352  0.3840  0.1958  0.3306
  405MOL0     C55815   1.283   7.993  -0.473  0.1588  1.1438 -0.0022
  405MOL0     C55816   1.347   8.059  -0.583 -1.4042  0.2350  0.0906
  405MOL0     C55817   1.420   8.110  -0.670  0.0416 -0.2563 -1.3546
  405MOL0     C55818   1.651   8.110   0.061 -0.0026 -0.5783  0.7875
  405MOL0     C55819   1.748   8.101   0.158 -0.3506  0.0946 -0.2617
  405MOL0     C55820   1.728   8.180   0.288 -0.2338 -0.1191 -0.5590
  405MOL0     H55821   2.258   8.193   0.188 -1.9619 -0.1957  0.9190
  405MOL0     H55822   2.493   8.219   0.294 -0.5768  0.8930  0.2247
  405MOL0     H55823   2.600   7.890   0.601  0.5270 -0.1203  0.1183
  405MOL0     H55824   2.524   8.050   0.640 -0.5211 -0.0881 -1.6462
  405MOL0     H55825   2.744   8.030   0.762  0.5345 -0.1916 -0.2308
  405MOL0     H55826   2.821   7.978   0.620 -1.7908 -2.6531  1.1134
  405MOL0     H55827   2.802   8.212   0.521 -0.1119  2.7287  0.3674
  405MOL0     H55828   2.674   8.245   0.636 -0.7292 -0.6623  1.9395
  405MOL0     H55829   2.831   8.233   0.831  2.8999  2.1154  1.5589
  405MOL0     H55830   2.958   8.198   0.733  0.9456  1.4297 -1.8392
  405MOL0     H55831   2.804   8.450   0.681  1.1000  1.8051  0.3438
  405MOL0     H55832   2.943   8.382   0.586  2.0439  0.4870  0.4583
  405MOL0     H55833   2.963   8.421   0.880 -0.8551  2.0520  0.8898
  405MOL0     H55834   3.095   8.431   0.764  0.7878  0.3586  0.3320
  405MOL0     H55835   3.085   8.640   0.833 -0.4721  2.8180 -0.0702
  405MOL0     H55836   2.909   8.657   0.835 -0.4407 -0.1538 -0.9181
  405MOL0     H55837   2.910   8.631   0.571  0.4955 -1.4145 -0.1768
  405MOL0     H55838   2.985   8.780   0.641  2.0085  0.9440  2.6054
  405MOL0     H55839   3.054   8.524   0.390  0.8744  0.0310 -1.4317
  405MOL0     H55840   3.299   8.408   0.304  2.6928 -1.3114  1.1172
  405MOL0     H55841   3.435   8.510   0.336 -0.5382 -3.3962  2.6625
  405MOL0     H55842   3.338   8.539   0.102 -1.1120 -0.6014 -0.3381
  405MOL0     H55843   3.192   8.596   0.176 -0.4807  0.2251 -0.8503
  405MOL0     H55844   3.287   8.789   0.133 -0.3822 -1.3386 -1.4036
  405MOL0     H55845   3.345   8.781   0.304  2.1042  0.2418 -0.1052
  405MOL0     H55846   3.510   8.857   0.134  2.4251 -0.9927 -1.7469
  405MOL0     H55847   3.563   8.688   0.170  0.6782 -1.0831  0.1199
  405MOL0     H55848   3.457   8.620  -0.235 -2.3760  3.0521  1.7349
  405MOL0     H55849   3.696   8.439  -0.425  0.7727  0.3442  1.4916
  405MOL0     H55850   3.653   8.589  -0.508  1.1866  0.8678  0.5494
  405MOL0     H55851   3.535   8.498  -0.420 -0.1997 -0.4881  1.4604
  405MOL0     H55852   4.270   8.717  -0.320 -2.5471 -0.0328 -0.1608
  405MOL0     H55853   4.465   8.588  -0.374 -0.3978  0.9589  0.6634
  405MOL0     H55854   4.599   8.432  -0.458 -0.2648 -0.7811  0.1693
  405MOL0     H55855   4.670   8.480  -0.312 -1.9230  1.0200  0.4330
  405MOL0     H55856   4.786   8.243  -0.299  0.1057 -1.3435 -0.0517
  405MOL0     H55857   4.678   8.200  -0.439 -0.9510  1.9730 -0.0635
  405MOL0     H55858   4.900   8.417  -0.410  0.1372 -0.0474  0.4537
  405MOL0     H55859   4.830   8.372  -0.563  3.2464  1.7602 -0.8063
  405MOL0     H55860   4.964   8.164  -0.385 -0.4757 -0.6451 -0.0400
  405MOL0     H55861   5.068   8.281  -0.469 -0.1109  0.4666 -1.0828
  405MOL0     H55862   5.003   8.040  -0.586 -1.2651 -0.6806  2.3499
  405MOL0     H55863   4.857   8.118  -0.624 -0.4641  1.7092  0.1318
  405MOL0     H55864   4.951   8.277  -0.779 -0.6529 -0.9049  0.5363
  405MOL0     H55865   5.022   8.120  -0.806 -0.4041 -1.8145  1.5398
  405MOL0     H55866   5.222   8.198  -0.662 -0.2978 -0.3191 -1.7128
  405MOL0     H55867   5.163   8.361  -0.668  0.8013  0.0282  0.5868
  405MOL0     H55868   5.234   8.175  -0.899 -2.0723  0.5855  0.4429
  405MOL0     H55869   5.326   8.317  -0.833  0.8672  0.7840 -1.2334
  405MOL0     H55870   4.271   8.227  -0.230  0.2941  0.0049 -2.5843
  405MOL0     H55871   4.060   8.372  -0.202 -1.1150 -0.5608 -2.1101
  405MOL0     H55872   3.910   8.764  -0.092 -0.7962  0.9731  0.7525
  405MOL0     H55873   3.717   8.796   0.054 -4.2740  0.3316  0.8260
  405MOL0     H55874   2.434   7.821   0.443 -1.2928 -0.3843  0.6276
  405MOL0     H55875   2.210   7.812   0.339 -0.5430  0.0881 -1.4351
  405MOL0     H55876   1.996   7.946  -0.015 -0.3467 -0.9562  0.3552
  405MOL0     H55877   1.817   7.966  -0.195  0.1674  1.2273 -0.7149
  405MOL0     H55878   1.409   8.099  -0.077  0.5927  1.4643  0.8340
  405MOL0     H55879   1.470   8.257  -0.131  1.3308 -0.3328 -1.5160
  405MOL0     H55880   1.457   8.215  -0.360 -2.4661  2.8183 -0.3424
  405MOL0     H55881   1.296   8.201  -0.291 -0.2862 -0.0672 -2.7867
  405MOL0     H55882   1.469   7.959  -0.372  0.0628 -0.5302  0.4539
  405MOL0     H55883   1.327   7.945  -0.274  2.9895 -0.5329  1.3873
  405MOL0     H55884   1.183   8.035  -0.457  0.1702  1.0489  0.3083
  405MOL0     H55885   1.282   7.888  -0.505  3.7931  1.0626 -0.3217
  405MOL0     H55886   1.486   8.147  -0.745  1.0393 -2.3674 -1.6029
  405MOL0     H55887   1.558   8.158   0.092  0.4445  0.2998  0.8277
  405MOL0     H55888   1.811   8.244   0.316 -0.4194 -0.2428  0.2840
  405MOL0     H55889   1.647   8.253   0.275 -0.3202 -0.0785  0.1929
  405MOL0     H55890   1.707   8.119   0.376  1.2662  0.9077  0.5448
  406MOL0     O55891   7.147   9.437   1.979 -0.0440 -0.3723  0.5345
  406MOL0     C55892   7.092   9.529   2.042 -0.3765 -0.5227  0.3187
  406MOL0     O55893   7.161   9.608   2.136  0.3212  0.3433  0.2129
  406MOL0     C55894   7.295   9.611   2.130  0.4121 -0.2638 -0.1875
  406MOL0     C55895   7.366   9.645   2.010 -0.1967  0.4081  0.0418
  406MOL0     C55896   7.506   9.623   2.009  0.3081  0.5993 -0.1622
  406MOL0     C55897   7.580   9.586   2.117 -0.4535  0.0758  0.0107
  406MOL0     O55898   7.714   9.567   2.107 -0.4120 -0.6510 -0.2379
  406MOL0     C55899   7.790   9.640   2.206 -0.3870  0.0795 -0.0568
  406MOL0     C55900   7.945   9.653   2.165  0.3299 -0.7157  0.1831
  406MOL0     C55901   8.013   9.734   2.280  0.0273  0.8457  0.2832
  406MOL0     C55902   8.001   9.891   2.254  0.3177 -0.0056 -0.0032
  406MOL0     C55903   8.063   9.972   2.374  0.5888  0.5680  0.5137
  406MOL0     C55904   7.974   9.965   2.496 -0.3558 -1.2496 -0.0371
  406MOL0     C55905   8.025  10.059   2.603  0.2130 -1.1786  0.2772
  406MOL0     C55906   7.937  10.055   2.730 -0.1539  0.0357 -0.2903
  406MOL0     N55907   7.789  10.062   2.706 -0.0011 -0.2084  0.5087
  406MOL0     C55908   7.720  10.179   2.686 -0.9469  0.1294 -0.3232
  406MOL0     C55909   7.597  10.141   2.633 -0.0152  0.6552  0.8480
  406MOL0     C55910   7.480  10.222   2.609 -0.4069 -0.6139  0.8470
  406MOL0     C55911   7.507  10.377   2.607 -0.0404  0.1247 -0.6579
  406MOL0     C55912   7.505  10.436   2.746  0.3036  0.0509  0.0456
  406MOL0     C55913   7.544  10.578   2.748 -0.6446 -0.3058  0.2617
  406MOL0     O55914   7.677  10.605   2.711  0.2557  0.3015  0.5791
  406MOL0     C55915   7.778  10.535   2.767 -0.1170  0.4408  0.7174
  406MOL0     C55916   7.776  10.494   2.895  0.0816  0.7730 -0.2962
  406MOL0     C55917   7.888  10.430   2.949 -0.4040 -0.1910 -0.8598
  406MOL0     C55918   7.889  10.406   3.102  0.5553  0.3076  0.9649
  406MOL0     C55919   8.009  10.409   2.874  0.0690  0.2767  0.1641
  406MOL0     C55920   8.135  10.338   2.919  0.5303 -0.0253 -0.0176
  406MOL0     O55921   8.256  10.359   2.840  0.1075 -0.5874  0.2406
  406MOL0     C55922   8.372  10.303   2.868  0.3027 -0.2906  0.6679
  406MOL0     C55923   8.479  10.394   2.893  0.0495 -0.3508 -0.7063
  406MOL0     C55924   8.600  10.344   2.939  1.0890  0.0973  0.2601
  406MOL0     C55925   8.626  10.206   2.955  0.0797  0.2075  0.2915
  406MOL0     O55926   8.751  10.168   2.996  0.5076  0.3262 -0.0560
  406MOL0     C55927   8.763  10.177   3.137  0.6084 -0.2544 -0.5459
  406MOL0     C55928   8.910  10.161   3.177  0.5580 -1.1973  0.0609
  406MOL0     C55929   8.946  10.184   3.328  1.1794  0.5606  1.5108
  406MOL0     C55930   9.052  10.068   3.368 -0.2893  0.2657 -0.3961
  406MOL0     C55931   9.121  10.117   3.495 -0.3362  0.4497 -0.5782
  406MOL0     C55932   9.214  10.006   3.542  0.4862 -0.2009 -0.4665
  406MOL0     C55933   9.363  10.016   3.507  0.4412 -0.5169  0.2473
  406MOL0     C55934   9.395  10.007   3.358 -0.7678  0.1520  0.1659
  406MOL0    Cl55935   9.337   9.864   3.283 -0.2705  0.1526  0.2405
  406MOL0     C55936   8.526  10.122   2.907 -0.3386  0.7763 -0.8587
  406MOL0     C55937   8.398  10.165   2.868  0.3303 -0.8835  0.0704
  406MOL0     O55938   8.135  10.269   3.024  0.0460 -0.3322  0.2719
  406MOL0     C55939   8.010  10.458   2.747 -0.5398 -0.6614  0.5801
  406MOL0     C55940   7.897  10.516   2.695 -0.0481 -0.0142  0.1489
  406MOL0     N55941   7.602  10.002   2.625  0.4594  0.8351 -0.1593
  406MOL0     N55942   7.708   9.953   2.682  0.6343  0.5808  0.1305
  406MOL0     C55943   7.510   9.571   2.238 -0.2625 -0.4590 -0.1180
  406MOL0     C55944   7.368   9.583   2.248  0.0890  0.1394  0.0421
  406MOL0     C55945   6.953   9.578   2.009 -0.1263 -0.2621 -0.1622
  406MOL0     C55946   6.915   9.705   2.062 -0.3824 -0.4490  0.2389
  406MOL0     C55947   6.789   9.759   2.036  0.5024  0.7805 -0.5621
  406MOL0     C55948   6.696   9.680   1.970 -0.2747 -0.4321  0.5814
  406MOL0     O55949   6.571   9.727   1.940  0.6256  0.4516  0.4088
  406MOL0     C55950   6.528   9.855   1.992 -0.4920  0.1024  0.0855
  406MOL0     C55951   6.378   9.844   1.981 -0.2060 -0.8139 -0.3981
  406MOL0     C55952   6.304   9.980   2.003 -0.5947 -0.5871 -0.3360
  406MOL0     C55953   6.150   9.969   1.996 -0.1588  0.1201  0.3972
  406MOL0     C55954   6.098   9.948   1.857  0.7470  0.1715 -0.2301
  406MOL0     C55955   6.051   9.935   1.744  0.1291  0.5283 -0.7844
  406MOL0     C55956   6.738   9.550   1.917 -0.2180 -0.1248  0.4028
  406MOL0     C55957   6.861   9.497   1.939  0.3592 -1.0695  0.1311
  406MOL0     C55958   6.878   9.359   1.887 -0.4285 -0.2154  0.1992
  406MOL0     H55959   7.317   9.654   1.914  1.9076  3.0270 -0.9252
  406MOL0     H55960   7.561   9.638   1.917  0.5668 -2.9230 -0.7019
  406MOL0     H55961   7.786   9.581   2.298  0.5079  0.1821  0.0562
  406MOL0     H55962   7.758   9.744   2.212 -0.0846  0.5845 -4.1865
  406MOL0     H55963   7.985   9.551   2.159  2.9467  0.2726 -1.1782
  406MOL0     H55964   7.953   9.705   2.069  1.3987  0.0566  0.6669
  406MOL0     H55965   7.964   9.707   2.374 -0.5764 -0.7471 -0.4578
  406MOL0     H55966   8.117   9.701   2.287 -1.2390 -3.5393  1.7509
  406MOL0     H55967   8.055   9.918   2.163 -0.9547 -0.3830 -0.8969
  406MOL0     H55968   7.895   9.915   2.239  0.0377  0.8510  2.6839
  406MOL0     H55969   8.068  10.075   2.337  0.4760 -0.3872 -2.5111
  406MOL0     H55970   8.165   9.936   2.389 -0.8263 -2.5190  4.1463
  406MOL0     H55971   7.874   9.998   2.469 -0.7976 -0.4672  2.2879
  406MOL0     H55972   7.970   9.859   2.526 -0.7798 -1.6519 -1.4442
  406MOL0     H55973   8.020  10.160   2.561 -2.3297 -0.8280  1.2362
  406MOL0     H55974   8.131  10.042   2.627  0.4849  0.8551  0.7758
  406MOL0     H55975   7.957   9.953   2.765  2.1192 -0.7249 -3.2882
  406MOL0     H55976   7.969  10.131   2.802 -1.0235 -1.1203  1.3809
  406MOL0     H55977   7.755  10.281   2.703  0.4439 -0.5173  0.9128
  406MOL0     H55978   7.404  10.206   2.687 -1.9833 -0.3099 -0.5655
  406MOL0     H55979   7.433  10.184   2.518 -1.6003  1.3307  0.6117
  406MOL0     H55980   7.600  10.398   2.552 -0.2755  0.2081 -1.0281
  406MOL0     H55981   7.429  10.417   2.542 -1.2630  0.4083  0.9511
  406MOL0     H55982   7.401  10.430   2.781  0.0968  2.7960  0.1343
  406MOL0     H55983   7.567  10.374   2.811 -0.6511 -1.6306 -0.5898
  406MOL0     H55984   7.471  10.639   2.693  0.9172 -0.0808 -1.6579
  406MOL0     H55985   7.540  10.616   2.851  3.8120 -0.2571  0.6274
  406MOL0     H55986   7.690  10.513   2.958  0.6991  0.4299  0.6735
  406MOL0     H55987   7.795  10.433   3.152 -2.0044  0.3679 -3.3429
  406MOL0     H55988   7.974  10.463   3.139  1.6047  0.9129 -2.0693
  406MOL0     H55989   7.911  10.303   3.129  2.7202  0.7710  1.1442
  406MOL0     H55990   8.458  10.501   2.887  0.1308 -0.1746  1.3084
  406MOL0     H55991   8.674  10.417   2.971 -1.3752  1.9352  2.1944
  406MOL0     H55992   8.722  10.269   3.181  1.3876 -0.1325 -0.0637
  406MOL0     H55993   8.718  10.093   3.191  2.3389 -0.9678 -0.1427
  406MOL0     H55994   8.949  10.067   3.135  0.1070 -2.4217  2.2168
  406MOL0     H55995   8.960  10.238   3.118  0.8161 -0.5088  1.1560
  406MOL0     H55996   8.856  10.167   3.387  1.0071 -2.8641  0.4572
  406MOL0     H55997   8.973  10.288   3.350 -1.7899  1.6571  0.4318
  406MOL0     H55998   9.133  10.058   3.295  3.0215 -1.1172  3.0983
  406MOL0     H55999   9.003   9.971   3.381 -0.8436  0.6639  0.5775
  406MOL0     H56000   9.159  10.219   3.485 -2.3866  1.0466 -3.4137
  406MOL0     H56001   9.045  10.131   3.573  1.0286 -2.0803  1.3255
  406MOL0     H56002   9.188   9.905   3.509  0.6630 -0.1639 -0.7211
  406MOL0     H56003   9.217  10.007   3.651  1.4740  1.2419 -0.4841
  406MOL0     H56004   9.423   9.935   3.549  2.3775  0.5788 -0.2862
  406MOL0     H56005   9.409  10.109   3.543  0.6838 -0.5136 -0.0587
  406MOL0     H56006   9.501  10.003   3.333 -1.0653 -1.0184 -1.0264
  406MOL0     H56007   9.361  10.095   3.302 -0.3023  1.1181  1.3564
  406MOL0     H56008   8.546  10.015   2.909 -2.2580  0.3533  1.9264
  406MOL0     H56009   8.324  10.094   2.833 -1.4005  1.3791 -1.0860
  406MOL0     H56010   8.092  10.442   2.677 -1.5267  1.8880 -1.3257
  406MOL0     H56011   7.891  10.545   2.590 -0.8840  0.1400  0.2318
  406MOL0     H56012   7.555   9.519   2.321 -1.8427 -0.5968  0.6871
  406MOL0     H56013   7.326   9.559   2.345  0.9330  1.1796  0.6870
  406MOL0     H56014   6.984   9.759   2.126 -1.4474  2.3487 -0.8269
  406MOL0     H56015   6.756   9.854   2.077  0.9314 -0.1400  2.1664
  406MOL0     H56016   6.539   9.881   2.097 -3.3953  3.8708 -0.3164
  406MOL0     H56017   6.570   9.938   1.934 -1.2096  0.8204  0.5768
  406MOL0     H56018   6.336   9.766   2.046  0.5670 -1.8371 -1.1002
  406MOL0     H56019   6.358   9.809   1.879 -0.3427  1.9005 -1.3722
  406MOL0     H56020   6.323  10.023   2.102  0.9539  1.4801 -1.4461
  406MOL0     H56021   6.330  10.057   1.929 -2.5438 -0.0523 -0.5186
  406MOL0     H56022   6.096  10.056   2.036 -0.4230  0.6952 -1.1248
  406MOL0     H56023   6.131   9.886   2.063  0.0491  0.7445  1.2426
  406MOL0     H56024   6.006   9.938   1.646 -1.9077  2.1980  0.1124
  406MOL0     H56025   6.658   9.503   1.861 -0.7158  2.5767 -1.3365
  406MOL0     H56026   6.909   9.363   1.782 -0.6334 -0.4140  0.1289
  406MOL0     H56027   6.960   9.310   1.940  2.2299  1.3516 -2.2333
  406MOL0     H56028   6.791   9.293   1.894  0.0853 -1.3267 -2.5918
  407MOL0     O56029   6.402  10.599   1.815  0.8668 -0.2950 -0.7196
  407MOL0     C56030   6.507  10.664   1.829  0.1779  0.5767 -0.0531
  407MOL0     O56031   6.620  10.649   1.762 -0.3037 -0.1768 -0.1783
  407MOL0     C56032   6.641  10.552   1.660 -0.7066 -1.1508  0.6359
  407MOL0     C56033   6.547  10.506   1.577 -0.5243 -0.0218 -0.3215
  407MOL0     C56034   6.577  10.411   1.480  0.1934  0.5108  0.0296
  407MOL0     C56035   6.708  10.366   1.454 -0.9005 -0.4352  0.4767
  407MOL0     O56036   6.751  10.284   1.349  0.1953 -1.0655  0.2297
  407MOL0     C56037   6.650  10.245   1.262  0.0832  0.1425 -0.8168
  407MOL0     C56038   6.710  10.167   1.142 -0.2492  0.1706  0.0977
  407MOL0     C56039   6.595  10.104   1.064  0.0142  0.4965  0.1032
  407MOL0     C56040   6.645  10.075   0.921  0.4120  0.4735  0.1215
  407MOL0     C56041   6.553   9.986   0.846  0.2039 -0.2909 -0.6003
  407MOL0     C56042   6.571   9.959   0.702  0.3086  0.1610 -0.7690
  407MOL0     C56043   6.571  10.088   0.625 -0.2509  0.6371 -0.2309
  407MOL0     C56044   6.558  10.094   0.473 -0.0134 -0.7704 -0.0034
  407MOL0     N56045   6.531  10.233   0.433 -0.5939 -0.3566  0.1518
  407MOL0     C56046   6.410  10.284   0.395 -0.0231 -0.7172 -0.5712
  407MOL0     C56047   6.430  10.418   0.355  0.4567  0.2184  0.3229
  407MOL0     C56048   6.335  10.518   0.308 -0.0097 -0.1426  0.3818
  407MOL0     C56049   6.202  10.456   0.243 -0.3660 -0.1699 -0.0280
  407MOL0     C56050   6.099  10.579   0.221 -0.6019  1.0492 -0.8637
  407MOL0     C56051   5.962  10.528   0.246 -0.4714  0.0843  0.0549
  407MOL0     O56052   5.930  10.425   0.156  0.2179  0.1166  0.2875
  407MOL0     C56053   5.806  10.363   0.169 -0.4740 -1.1122  0.2017
  407MOL0     C56054   5.704  10.403   0.252  0.0536  0.1615  0.1067
  407MOL0     C56055   5.593  10.327   0.268 -0.3567  0.3640  1.0140
  407MOL0     C56056   5.485  10.373   0.360 -0.1898 -0.5560  0.0199
  407MOL0     C56057   5.576  10.212   0.175 -0.1177 -0.2607 -0.9039
  407MOL0     C56058   5.457  10.123   0.178 -0.6538  0.8059 -0.0230
  407MOL0     O56059   5.389  10.114   0.057  0.6120  0.1769  0.4192
  407MOL0     C56060   5.269  10.050   0.064 -0.4037  0.3459 -0.3177
  407MOL0     C56061   5.252   9.946  -0.027 -0.3352 -1.7070 -0.4652
  407MOL0     C56062   5.141   9.866  -0.031  0.7839  0.4577 -0.1173
  407MOL0     C56063   5.032   9.897   0.053  0.4738 -0.8091 -0.1047
  407MOL0     O56064   4.922   9.809   0.049 -0.7090 -0.4030 -0.8073
  407MOL0     C56065   4.893   9.754   0.178 -0.2554  0.6154 -0.2358
  407MOL0     C56066   4.819   9.625   0.164  1.2541  0.1611 -0.0781
  407MOL0     C56067   4.908   9.508   0.128  0.2465  0.6817 -0.2884
  407MOL0     C56068   4.998   9.515   0.006 -0.6463 -0.5627 -0.7764
  407MOL0     C56069   5.057   9.376  -0.022 -0.2531 -0.4298  0.1007
  407MOL0     C56070   5.162   9.393  -0.141  0.4986 -0.5734 -0.0374
  407MOL0     C56071   5.090   9.403  -0.279 -0.4508  0.2938  0.2659
  407MOL0     C56072   5.184   9.484  -0.373 -0.3957  0.9012 -0.0148
  407MOL0    Cl56073   5.339   9.378  -0.395  0.0274 -0.1850 -0.4453
  407MOL0     C56074   5.038  10.008   0.140  0.7878  0.9808 -0.1643
  407MOL0     C56075   5.158  10.084   0.145  0.5314 -0.3771  0.1294
  407MOL0     O56076   5.431  10.070   0.287  1.1054 -0.4359  0.1138
  407MOL0     C56077   5.682  10.175   0.093  0.4173  0.4992  0.4518
  407MOL0     C56078   5.797  10.256   0.079 -0.3771  0.3977 -0.0729
  407MOL0     N56079   6.564  10.440   0.366 -0.4736 -0.7997 -0.9383
  407MOL0     N56080   6.619  10.327   0.409  0.1767  0.2482  0.3226
  407MOL0     C56081   6.806  10.412   1.540 -0.9917  0.2426 -0.9729
  407MOL0     C56082   6.772  10.499   1.644 -0.1329  0.3821  0.1674
  407MOL0     C56083   6.509  10.754   1.947 -0.4496  0.4003 -0.5670
  407MOL0     C56084   6.629  10.768   2.011  0.0167  0.3465  0.4170
  407MOL0     C56085   6.645  10.836   2.129  0.2754 -0.0072  0.0227
  407MOL0     C56086   6.543  10.909   2.182 -0.5831 -0.1245 -0.4897
  407MOL0     O56087   6.559  10.973   2.303 -0.6011  0.2979 -0.0050
  407MOL0     C56088   6.649  11.087   2.296  0.0755  0.4864 -0.4659
  407MOL0     C56089   6.575  11.208   2.257 -0.8962  0.0435  0.5010
  407MOL0     C56090   6.467  11.239   2.356  0.2600 -0.3602  0.8905
  407MOL0     C56091   6.512  11.290   2.490 -0.5947 -0.4134  0.4853
  407MOL0     C56092   6.398  11.332   2.574  0.2007  0.4269  0.0542
  407MOL0     C56093   6.305  11.370   2.643  0.2869 -0.7073 -0.3495
  407MOL0     C56094   6.414  10.893   2.123 -0.1558 -0.0294 -0.1520
  407MOL0     C56095   6.395  10.812   2.009 -0.5207 -0.6779 -1.7305
  407MOL0     C56096   6.245  10.804   1.965 -0.2828  0.2411 -0.6529
  407MOL0     H56097   6.448  10.549   1.573 -0.0876  1.6652  3.1081
  407MOL0     H56098   6.501  10.380   1.409  0.4090  1.7351 -0.7698
  407MOL0     H56099   6.612  10.338   1.218  0.4998  0.3737 -0.7040
  407MOL0     H56100   6.575  10.182   1.310  0.3813  0.5554  0.2186
  407MOL0     H56101   6.773  10.229   1.078  2.4189 -0.7440  1.6842
  407MOL0     H56102   6.774  10.088   1.183 -0.9551 -1.0527 -1.0688
  407MOL0     H56103   6.563  10.007   1.103 -1.4277 -1.9098 -5.8796
  407MOL0     H56104   6.507  10.170   1.061  0.1517  1.1015  4.0241
  407MOL0     H56105   6.662  10.173   0.876 -1.5883  1.5647  1.5668
  407MOL0     H56106   6.740  10.020   0.922  0.6190  0.8229 -0.1706
  407MOL0     H56107   6.453  10.028   0.857  1.1117  1.9915 -0.5412
  407MOL0     H56108   6.562   9.889   0.896 -0.5779 -0.8883 -1.5755
  407MOL0     H56109   6.663   9.901   0.685  0.6365  0.7482 -1.0009
  407MOL0     H56110   6.486   9.896   0.673  2.0915 -2.7070 -0.2291
  407MOL0     H56111   6.674  10.119   0.645  0.6872 -0.2559 -3.0581
  407MOL0     H56112   6.509  10.163   0.674  1.6523  0.2722  3.0299
  407MOL0     H56113   6.656  10.070   0.431  0.7503  3.1534 -0.8612
  407MOL0     H56114   6.477  10.028   0.439 -1.1503 -0.0072  1.1787
  407MOL0     H56115   6.320  10.224   0.398  0.1643 -1.0679  3.6520
  407MOL0     H56116   6.375  10.573   0.222 -0.2282 -1.1300 -0.3680
  407MOL0     H56117   6.308  10.591   0.385  0.9880  1.5458 -0.8049
  407MOL0     H56118   6.223  10.403   0.150  1.0409  0.2168  0.0434
  407MOL0     H56119   6.159  10.395   0.323 -0.6522  1.1206  0.8303
  407MOL0     H56120   6.118  10.654   0.298 -1.0129  2.0753 -1.7334
  407MOL0     H56121   6.093  10.628   0.123  1.3343  1.8881 -0.6002
  407MOL0     H56122   5.958  10.495   0.350 -2.5796 -0.4419 -0.1520
  407MOL0     H56123   5.890  10.607   0.222 -1.0024 -0.9422 -1.9545
  407MOL0     H56124   5.716  10.485   0.323 -1.2942  0.5303 -0.0708
  407MOL0     H56125   5.512  10.466   0.409  1.3364  0.3041 -2.2859
  407MOL0     H56126   5.457  10.289   0.424  0.1616  0.8927  2.1700
  407MOL0     H56127   5.396  10.399   0.301 -1.2615 -1.9953  0.9381
  407MOL0     H56128   5.334   9.923  -0.095  0.8299  0.7173  0.0228
  407MOL0     H56129   5.139   9.773  -0.086  0.2019  0.9444 -0.9360
  407MOL0     H56130   4.982   9.738   0.240 -0.2177 -0.2360 -0.4992
  407MOL0     H56131   4.830   9.827   0.229  0.1615  0.8721 -0.0779
  407MOL0     H56132   4.787   9.597   0.264  2.1958 -1.4123 -0.1904
  407MOL0     H56133   4.732   9.629   0.097  0.4863  0.1936  0.8911
  407MOL0     H56134   4.839   9.424   0.118  0.9065  0.0435  0.4046
  407MOL0     H56135   4.958   9.476   0.220 -1.2479 -0.3802  0.1888
  407MOL0     H56136   5.081   9.576   0.044 -3.3057  0.7956  3.6515
  407MOL0     H56137   4.944   9.554  -0.080 -2.5054 -0.9964  0.1342
  407MOL0     H56138   5.111   9.342   0.066  1.7417  3.2468  0.5155
  407MOL0     H56139   4.985   9.298  -0.046  0.8016 -0.9479 -1.5578
  407MOL0     H56140   5.235   9.313  -0.144  0.2680 -0.7802 -2.7980
  407MOL0     H56141   5.211   9.489  -0.123 -1.0112  0.4426 -1.0759
  407MOL0     H56142   4.994   9.455  -0.276 -1.4667 -1.5167  0.7853
  407MOL0     H56143   5.068   9.303  -0.318 -0.3564  0.0374  0.8665
  407MOL0     H56144   5.208   9.583  -0.334  1.8532  0.5928 -0.4566
  407MOL0     H56145   5.150   9.492  -0.477  2.4801  1.4518 -1.0056
  407MOL0     H56146   4.954  10.052   0.192 -0.3695 -0.0349 -1.1028
  407MOL0     H56147   5.160  10.176   0.203  1.2820 -0.5876  0.4510
  407MOL0     H56148   5.683  10.080   0.041  1.5601  0.9731 -0.4498
  407MOL0     H56149   5.886  10.232   0.021  0.1819 -1.2319  1.3655
  407MOL0     H56150   6.909  10.378   1.531  0.1062  2.7146  0.8790
  407MOL0     H56151   6.850  10.539   1.708  0.3492  0.7368 -0.6154
  407MOL0     H56152   6.718  10.709   1.991 -0.3366 -0.2770  0.6657
  407MOL0     H56153   6.740  10.830   2.181 -0.2319  0.4011  1.0276
  407MOL0     H56154   6.697  11.098   2.394  0.5418 -1.0448 -0.4955
  407MOL0     H56155   6.725  11.083   2.218 -1.1038 -2.0329 -1.6026
  407MOL0     H56156   6.537  11.191   2.156 -1.3342 -0.1379  0.6934
  407MOL0     H56157   6.653  11.285   2.258 -2.4466  1.6642  1.4163
  407MOL0     H56158   6.403  11.315   2.310  1.1912  0.0785  0.2760
  407MOL0     H56159   6.406  11.149   2.366  1.0466 -0.8989  0.9933
  407MOL0     H56160   6.586  11.370   2.473 -0.4292  0.0363  3.0193
  407MOL0     H56161   6.572  11.216   2.543 -0.3603 -0.2847  0.4011
  407MOL0     H56162   6.223  11.404   2.702  1.4042  2.5442 -0.4511
  407MOL0     H56163   6.328  10.942   2.168  2.7836  2.6726  3.0555
  407MOL0     H56164   6.200  10.708   1.991  0.3545  0.2584  0.5819
  407MOL0     H56165   6.172  10.876   2.002 -3.0555 -3.0301  0.7522
  407MOL0     H56166   6.241  10.807   1.855 -0.5326  1.2278 -0.6305
  408MOL0     O56167   6.577   9.103   4.390 -0.0940 -0.3762  0.2319
  408MOL0     C56168   6.571   9.054   4.280  0.6513  0.2413 -0.1411
  408MOL0     O56169   6.660   9.063   4.178  0.0063 -0.6410 -0.2428
  408MOL0     C56170   6.760   9.156   4.182 -0.2669 -0.2885  0.0441
  408MOL0     C56171   6.890   9.115   4.180 -0.1217 -0.0648 -0.5839
  408MOL0     C56172   6.996   9.202   4.177 -0.0828  0.5364  0.0743
  408MOL0     C56173   6.970   9.341   4.177  0.3669  0.8823  0.2392
  408MOL0     O56174   7.064   9.447   4.166  0.8295  0.2604 -0.5051
  408MOL0     C56175   7.202   9.406   4.178 -0.2088  0.2210  0.7694
  408MOL0     C56176   7.289   9.524   4.190  0.7327 -0.7804 -0.2941
  408MOL0     C56177   7.261   9.614   4.313  0.2326 -0.0836 -0.3227
  408MOL0     C56178   7.369   9.717   4.312 -0.9273  0.1748 -0.0239
  408MOL0     C56179   7.375   9.829   4.420 -0.1602 -0.0435 -0.6213
  408MOL0     C56180   7.425   9.775   4.556  0.4553  0.4480  0.0862
  408MOL0     C56181   7.457   9.890   4.658 -0.0044  0.8300  0.3499
  408MOL0     C56182   7.550   9.833   4.760 -0.3250  1.0397  0.1993
  408MOL0     N56183   7.690   9.837   4.740  0.1550 -0.2555 -0.0855
  408MOL0     C56184   7.747   9.818   4.622 -0.5665  0.7262 -0.1949
  408MOL0     C56185   7.878   9.839   4.633  0.8906  0.3698  0.2091
  408MOL0     C56186   7.983   9.842   4.526 -0.2159 -0.1937 -0.3287
  408MOL0     C56187   8.108   9.770   4.580  0.2120 -0.1321  0.2230
  408MOL0     C56188   8.217   9.768   4.472 -0.0026  0.2874 -0.8525
  408MOL0     C56189   8.342   9.706   4.519 -0.7056 -0.1223 -0.3286
  408MOL0     O56190   8.373   9.726   4.661 -0.3660  0.5166  0.0089
  408MOL0     C56191   8.501   9.701   4.714 -0.0015 -0.2701  1.1063
  408MOL0     C56192   8.609   9.650   4.642 -0.4982 -0.8358 -0.2444
  408MOL0     C56193   8.730   9.627   4.714 -0.5705  0.5468  0.2626
  408MOL0     C56194   8.837   9.565   4.620  0.1862 -0.5736 -0.3371
  408MOL0     C56195   8.749   9.660   4.850 -0.9166 -0.2577 -0.6305
  408MOL0     C56196   8.880   9.666   4.917  0.0681 -0.3479 -0.1753
  408MOL0     O56197   8.872   9.654   5.053 -0.4259  0.0836  0.4635
  408MOL0     C56198   8.994   9.666   5.120 -0.0585  0.4088  0.3190
  408MOL0     C56199   9.079   9.557   5.129 -0.4308  0.9794  0.0274
  408MOL0     C56200   9.203   9.562   5.209  0.7840  0.3058  0.7182
  408MOL0     C56201   9.230   9.683   5.273 -0.0792 -0.1461 -0.6325
  408MOL0     O56202   9.359   9.679   5.333  0.2557  0.2066 -0.6438
  408MOL0     C56203   9.424   9.802   5.348  0.4277  0.9603  0.3109
  408MOL0     C56204   9.558   9.772   5.400  0.0264  0.8067  0.7168
  408MOL0     C56205   9.641   9.644   5.350 -0.4488  0.1616 -0.6517
  408MOL0     C56206   9.627   9.614   5.205 -0.0308  0.0679 -0.6015
  408MOL0     C56207   9.723   9.506   5.151  0.3889 -0.0197 -0.7443
  408MOL0     C56208   9.700   9.372   5.217 -0.6197  0.0398  0.2614
  408MOL0     C56209   9.554   9.330   5.211  0.1343  0.2300  0.1683
  408MOL0     C56210   9.528   9.187   5.219  1.3121  0.4369  0.5605
  408MOL0    Cl56211   9.584   9.113   5.362 -0.4699 -0.2128 -0.3406
  408MOL0     C56212   9.143   9.801   5.264  1.1469  1.0215 -0.1060
  408MOL0     C56213   9.020   9.785   5.192  0.7418 -0.2853 -0.0029
  408MOL0     O56214   8.987   9.676   4.855 -0.1663 -0.5600 -0.3686
  408MOL0     C56215   8.634   9.711   4.914 -1.0360  0.2361 -0.4332
  408MOL0     C56216   8.521   9.727   4.846 -0.2213 -0.0859  0.3577
  408MOL0     N56217   7.895   9.851   4.768  0.3457  0.0106 -0.7148
  408MOL0     N56218   7.788   9.872   4.828  0.5191  1.1752  0.9089
  408MOL0     C56219   6.838   9.389   4.192  0.4956  0.5107 -0.1235
  408MOL0     C56220   6.736   9.290   4.194  0.1388 -0.8589  0.7752
  408MOL0     C56221   6.467   8.962   4.246  0.6278  0.0638  0.5711
  408MOL0     C56222   6.509   8.838   4.187 -0.7362 -0.4121  0.7829
  408MOL0     C56223   6.417   8.738   4.166  0.5460  0.4273  0.0596
  408MOL0     C56224   6.277   8.755   4.201  0.1997 -0.6939 -0.5931
  408MOL0     O56225   6.180   8.663   4.175 -0.4278 -0.3899 -0.2563
  408MOL0     C56226   6.171   8.558   4.275  0.2684 -0.7393 -0.0913
  408MOL0     C56227   6.084   8.595   4.390 -0.3961  0.4775 -0.1864
  408MOL0     C56228   5.933   8.600   4.361 -0.1882 -0.0556  0.0281
  408MOL0     C56229   5.851   8.643   4.484  0.9195 -0.0396  0.3452
  408MOL0     C56230   5.708   8.624   4.462  1.1836  0.2066 -0.2213
  408MOL0     C56231   5.592   8.577   4.457 -0.2596  0.4098  0.1213
  408MOL0     C56232   6.238   8.880   4.260 -0.1607  0.0053  0.6849
  408MOL0     C56233   6.332   8.978   4.289 -0.3601 -0.4021  1.1684
  408MOL0     C56234   6.287   9.112   4.339 -0.4671  0.4898  0.1946
  408MOL0     H56235   6.921   9.011   4.174  1.4961  0.0860  2.7442
  408MOL0     H56236   7.096   9.170   4.148  0.0277 -0.2585  1.2546
  408MOL0     H56237   7.226   9.342   4.093  0.4929  2.8763 -1.1699
  408MOL0     H56238   7.218   9.340   4.264  0.7076  0.2112  0.6014
  408MOL0     H56239   7.389   9.480   4.199 -0.5099 -3.9407 -0.4412
  408MOL0     H56240   7.281   9.584   4.099 -0.2770 -0.9566 -0.3351
  408MOL0     H56241   7.161   9.654   4.294 -0.5458 -1.5820  0.3780
  408MOL0     H56242   7.255   9.563   4.410  0.1331 -1.1200 -0.8651
  408MOL0     H56243   7.465   9.665   4.322 -1.1717 -0.2642  0.0869
  408MOL0     H56244   7.382   9.763   4.214  0.2942 -1.2665 -0.5872
  408MOL0     H56245   7.278   9.876   4.436  0.4513  1.3093 -0.7836
  408MOL0     H56246   7.451   9.902   4.391 -1.1496  2.5638  2.7258
  408MOL0     H56247   7.348   9.710   4.598  0.1143  1.4796  1.1236
  408MOL0     H56248   7.514   9.719   4.527  0.3336  1.4618 -2.4868
  408MOL0     H56249   7.359   9.912   4.702 -0.3930  1.4268 -0.7855
  408MOL0     H56250   7.506   9.978   4.616  3.0202 -2.1592 -3.1195
  408MOL0     H56251   7.534   9.876   4.859  0.8602  1.6298  0.1500
  408MOL0     H56252   7.514   9.731   4.772 -2.4844  1.7049 -0.1008
  408MOL0     H56253   7.696   9.799   4.528 -2.4282 -1.5957  1.1495
  408MOL0     H56254   8.016   9.945   4.516  1.4398 -0.6409  0.2025
  408MOL0     H56255   7.951   9.816   4.425 -1.7329  1.9456 -0.4583
  408MOL0     H56256   8.145   9.831   4.664 -1.0178  1.0777 -0.0603
  408MOL0     H56257   8.092   9.668   4.614  1.3786 -0.2260  0.5268
  408MOL0     H56258   8.177   9.714   4.386 -0.2742  2.3764 -2.1022
  408MOL0     H56259   8.236   9.869   4.435  1.3298  0.4965  0.3093
  408MOL0     H56260   8.353   9.603   4.482 -2.3875  0.2508 -2.0594
  408MOL0     H56261   8.422   9.764   4.473 -1.4727 -0.0036 -1.5795
  408MOL0     H56262   8.617   9.631   4.535  5.1363  1.3721 -0.5710
  408MOL0     H56263   8.920   9.524   4.677  0.5845  2.2282  1.2529
  408MOL0     H56264   8.888   9.643   4.563  3.0112 -1.6398  0.5527
  408MOL0     H56265   8.792   9.497   4.547  0.5720  1.3369 -2.4725
  408MOL0     H56266   9.053   9.458   5.093 -0.6206 -0.4859  3.7857
  408MOL0     H56267   9.272   9.478   5.219  1.3562  0.4133 -1.6150
  408MOL0     H56268   9.440   9.855   5.254 -2.2283 -0.3026 -0.9764
  408MOL0     H56269   9.376   9.857   5.430 -0.4384 -1.2114  1.3407
  408MOL0     H56270   9.615   9.863   5.380  1.6150 -0.2320  0.4054
  408MOL0     H56271   9.542   9.757   5.508 -0.6510  1.3185  0.6962
  408MOL0     H56272   9.620   9.550   5.402  0.2688 -0.5218 -1.5600
  408MOL0     H56273   9.746   9.667   5.370  0.1229 -2.8930  0.3436
  408MOL0     H56274   9.646   9.706   5.149  1.2497  1.1121  1.4124
  408MOL0     H56275   9.521   9.591   5.193  0.3569 -1.6919 -0.8679
  408MOL0     H56276   9.711   9.500   5.042  2.2657  1.3491 -1.0939
  408MOL0     H56277   9.821   9.552   5.168 -1.4954  3.9225  0.8062
  408MOL0     H56278   9.729   9.371   5.322  4.8554 -0.4891 -0.9490
  408MOL0     H56279   9.759   9.296   5.164 -1.4974 -0.6934  0.3059
  408MOL0     H56280   9.510   9.378   5.122 -0.7577  2.5368  1.7461
  408MOL0     H56281   9.505   9.376   5.297  4.2147  2.1163  1.7469
  408MOL0     H56282   9.579   9.140   5.134 -0.1788  0.0187 -0.1446
  408MOL0     H56283   9.419   9.179   5.212  1.2931  0.3059  0.9843
  408MOL0     H56284   9.182   9.893   5.306  0.4405  1.4113 -0.2864
  408MOL0     H56285   8.957   9.873   5.189  1.4367  0.2171 -0.2487
  408MOL0     H56286   8.633   9.739   5.019 -2.5074  0.0931 -0.3989
  408MOL0     H56287   8.438   9.777   4.895 -0.8221  1.9235 -2.4837
  408MOL0     H56288   6.825   9.497   4.187 -1.1621  0.3426  0.1905
  408MOL0     H56289   6.632   9.318   4.206  0.6177  1.2187  0.4854
  408MOL0     H56290   6.611   8.822   4.153 -0.6869  0.3953  0.5396
  408MOL0     H56291   6.459   8.642   4.136  1.8370  0.7330  0.8204
  408MOL0     H56292   6.124   8.471   4.228 -0.9314  1.0159 -2.3578
  408MOL0     H56293   6.273   8.528   4.298  1.4033  3.3909  1.1260
  408MOL0     H56294   6.122   8.688   4.432  3.7997 -0.4224 -1.4648
  408MOL0     H56295   6.100   8.517   4.465 -1.6842 -0.3247 -0.6969
  408MOL0     H56296   5.909   8.670   4.280 -3.2180  0.3389  1.1371
  408MOL0     H56297   5.898   8.501   4.332 -1.5210  0.3964  0.0407
  408MOL0     H56298   5.862   8.750   4.501  0.0023 -0.2104  2.2879
  408MOL0     H56299   5.880   8.586   4.573 -1.9665 -1.5390  0.4531
  408MOL0     H56300   5.496   8.531   4.449  0.5682 -1.2900 -0.3889
  408MOL0     H56301   6.137   8.911   4.283 -0.1516  1.3088 -0.9002
  408MOL0     H56302   6.179   9.116   4.354 -0.7105 -3.1885  0.3810
  408MOL0     H56303   6.334   9.141   4.433 -0.6350  3.0078 -0.4407
  408MOL0     H56304   6.318   9.179   4.259 -0.2755 -1.6572 -1.6198
  409MOL0     O56305   6.278   1.077   6.610  0.7745  0.9057  0.2008
  409MOL0     C56306   6.279   1.118   6.489 -0.2370 -0.4603  0.3194
  409MOL0     O56307   6.384   1.116   6.404  0.2867 -0.4083  0.1918
  409MOL0     C56308   6.503   1.063   6.439 -0.9431 -0.1202  0.5961
  409MOL0     C56309   6.567   1.083   6.559 -1.1344 -0.1324 -0.2628
  409MOL0     C56310   6.698   1.026   6.577 -0.3234 -0.1558  0.0529
  409MOL0     C56311   6.766   0.960   6.476 -0.3604  0.1698  0.0297
  409MOL0     O56312   6.903   0.935   6.504  0.1972 -0.4953  1.5561
  409MOL0     C56313   6.970   0.842   6.416  0.0063 -0.3149 -0.2890
  409MOL0     C56314   7.108   0.802   6.473  0.7031  0.8599  0.2126
  409MOL0     C56315   7.206   0.918   6.463 -0.6323  0.7887 -0.0392
  409MOL0     C56316   7.355   0.868   6.484 -0.0773  0.7892  0.5501
  409MOL0     C56317   7.453   0.988   6.472 -0.0781 -0.6572  1.1967
  409MOL0     C56318   7.588   0.955   6.395 -0.7993  0.0960  0.4573
  409MOL0     C56319   7.684   1.076   6.391  0.4553  0.8369  0.4152
  409MOL0     C56320   7.832   1.034   6.359  1.2133 -0.1423 -0.3270
  409MOL0     N56321   7.853   0.976   6.225 -0.0415  0.7871 -0.3722
  409MOL0     C56322   7.855   1.042   6.105 -1.3177  0.4901  0.3732
  409MOL0     C56323   7.884   0.953   6.005  0.2871 -0.3183  0.0954
  409MOL0     C56324   7.882   0.982   5.857 -0.1734 -0.1698 -0.4585
  409MOL0     C56325   7.826   0.871   5.768 -0.1603  0.0797  0.0560
  409MOL0     C56326   7.818   0.911   5.620 -0.3044  0.3353 -0.4273
  409MOL0     C56327   7.692   1.001   5.591 -0.2122  0.0152  0.4999
  409MOL0     O56328   7.681   1.014   5.452  0.3097  0.1307  0.8761
  409MOL0     C56329   7.559   1.039   5.394  0.2179  1.0644 -0.0329
  409MOL0     C56330   7.457   1.103   5.458  0.6458 -0.6918 -0.3690
  409MOL0     C56331   7.322   1.120   5.416 -0.8473 -0.1138  0.5922
  409MOL0     C56332   7.224   1.182   5.513  0.2452  0.3880 -0.0460
  409MOL0     C56333   7.285   1.058   5.295  0.7311 -0.5283 -0.5423
  409MOL0     C56334   7.139   1.055   5.245 -0.1922  0.7875 -0.7723
  409MOL0     O56335   7.130   0.996   5.121  0.5337  0.4248 -0.2632
  409MOL0     C56336   7.007   0.965   5.087  0.4893  0.2276 -0.1478
  409MOL0     C56337   6.925   1.051   5.011 -0.3005  0.2499 -0.4971
  409MOL0     C56338   6.802   1.016   4.958  0.7308  0.2109 -0.8033
  409MOL0     C56339   6.748   0.890   4.992  1.0777 -0.0031  1.2333
  409MOL0     O56340   6.623   0.857   4.943  0.3652  0.2565 -0.4136
  409MOL0     C56341   6.528   0.795   5.034  0.0200 -0.2558  0.2859
  409MOL0     C56342   6.389   0.794   4.957 -0.1169  0.3308  0.0411
  409MOL0     C56343   6.285   0.725   5.053  0.1554 -0.1693  0.2371
  409MOL0     C56344   6.139   0.746   4.998  0.2173  0.1097  0.1314
  409MOL0     C56345   6.039   0.708   5.102 -0.0931 -0.5025 -0.5043
  409MOL0     C56346   5.991   0.557   5.090 -0.5296 -0.6047  1.1319
  409MOL0     C56347   5.887   0.518   5.191 -0.0101 -0.1392 -0.1709
  409MOL0     C56348   5.934   0.520   5.334  0.1021 -0.5197  0.1077
  409MOL0    Cl56349   6.036   0.380   5.356  0.1424  0.2314 -0.0155
  409MOL0     C56350   6.813   0.808   5.082 -0.6602  0.0525 -0.3260
  409MOL0     C56351   6.947   0.848   5.129 -0.0077  0.6003  0.6706
  409MOL0     O56352   7.049   1.097   5.314 -0.4057  0.0469 -0.4365
  409MOL0     C56353   7.389   0.987   5.226  0.3799 -0.1015  0.0058
  409MOL0     C56354   7.516   0.974   5.276 -0.4934  0.1291 -0.2807
  409MOL0     N56355   7.904   0.833   6.071 -0.1199 -0.3607  0.5719
  409MOL0     N56356   7.886   0.845   6.203 -0.1285 -0.2515  0.4069
  409MOL0     C56357   6.702   0.943   6.353  0.6023  0.3913  0.1694
  409MOL0     C56358   6.570   0.995   6.337  0.3763  0.7335  0.0645
  409MOL0     C56359   6.153   1.184   6.447 -0.2592  0.5073 -0.2959
  409MOL0     C56360   6.060   1.224   6.544  0.5476  0.0868 -0.1004
  409MOL0     C56361   5.933   1.269   6.509 -0.8243  0.2240  0.7727
  409MOL0     C56362   5.900   1.291   6.375  0.3574  0.3182 -0.2828
  409MOL0     O56363   5.793   1.365   6.324  0.1606  0.2223  0.3275
  409MOL0     C56364   5.673   1.368   6.399 -0.1896  0.2251  0.4865
  409MOL0     C56365   5.559   1.372   6.306  0.7273 -0.9828  0.1942
  409MOL0     C56366   5.423   1.390   6.384  0.1983 -0.6434  0.1767
  409MOL0     C56367   5.394   1.261   6.457 -0.3410 -0.1624  0.7424
  409MOL0     C56368   5.253   1.250   6.497  0.3493 -0.3008 -0.5405
  409MOL0     C56369   5.137   1.249   6.529 -0.0125 -0.3649  0.3187
  409MOL0     C56370   5.993   1.252   6.280 -0.7363 -0.8358 -0.1014
  409MOL0     C56371   6.116   1.196   6.313 -0.6067  0.2910  0.2929
  409MOL0     C56372   6.205   1.154   6.196 -0.1250 -0.3279  0.2106
  409MOL0     H56373   6.520   1.146   6.633  0.1598  1.1101 -0.4445
  409MOL0     H56374   6.749   1.025   6.673 -2.1660  0.5853  1.0861
  409MOL0     H56375   6.993   0.894   6.323  0.4776 -0.0403 -0.0235
  409MOL0     H56376   6.908   0.753   6.401 -1.7007  0.7724  0.0499
  409MOL0     H56377   7.104   0.768   6.577  0.6248  3.2637  1.0563
  409MOL0     H56378   7.143   0.721   6.408 -1.6849 -0.1369  0.0770
  409MOL0     H56379   7.192   0.970   6.368 -0.9857 -2.1580 -1.6921
  409MOL0     H56380   7.181   0.985   6.546 -0.7220  1.0471 -0.2735
  409MOL0     H56381   7.363   0.812   6.578  2.4028  0.6784  0.3490
  409MOL0     H56382   7.387   0.809   6.397 -0.1885  0.3134  0.8313
  409MOL0     H56383   7.486   1.012   6.573 -0.8439 -1.4788  1.6641
  409MOL0     H56384   7.399   1.074   6.432  0.0615  0.0116  2.3962
  409MOL0     H56385   7.641   0.883   6.459  1.3274 -0.1407 -1.4447
  409MOL0     H56386   7.577   0.920   6.292  0.0099  0.1308  0.3505
  409MOL0     H56387   7.686   1.115   6.493  2.5151 -0.1741  0.8053
  409MOL0     H56388   7.636   1.143   6.319 -0.9560  0.6404  1.1424
  409MOL0     H56389   7.898   1.121   6.365  0.6950  0.3781 -1.8177
  409MOL0     H56390   7.844   0.962   6.441 -0.5009 -1.1123 -0.8771
  409MOL0     H56391   7.853   1.149   6.086 -1.8181  1.0337  3.0309
  409MOL0     H56392   7.987   1.004   5.837  0.4422 -3.2175 -1.0922
  409MOL0     H56393   7.820   1.070   5.840  0.6955  0.3334 -1.0938
  409MOL0     H56394   7.884   0.779   5.781 -1.4990 -0.9152 -0.7647
  409MOL0     H56395   7.722   0.850   5.798 -0.3588 -2.5188 -2.1094
  409MOL0     H56396   7.904   0.975   5.600  0.9093  0.8466  4.8597
  409MOL0     H56397   7.806   0.827   5.551 -0.5539 -1.5204  1.7402
  409MOL0     H56398   7.603   0.955   5.633 -0.9586  2.1218  1.3418
  409MOL0     H56399   7.701   1.098   5.640 -0.5918 -0.3876  1.3924
  409MOL0     H56400   7.481   1.164   5.544  1.4777 -1.9714  0.3396
  409MOL0     H56401   7.152   1.106   5.547  0.4448  1.1296  2.1949
  409MOL0     H56402   7.166   1.256   5.457 -1.7282  1.1458  2.7745
  409MOL0     H56403   7.269   1.228   5.602  1.7470 -0.7754 -0.1551
  409MOL0     H56404   6.962   1.154   5.007  1.1843 -0.0130  2.9394
  409MOL0     H56405   6.756   1.093   4.898  1.4080 -0.1955 -1.8686
  409MOL0     H56406   6.561   0.694   5.058  0.3114  0.3004  2.4294
  409MOL0     H56407   6.514   0.847   5.129  0.5416  0.5337 -0.0540
  409MOL0     H56408   6.361   0.898   4.943 -0.2121  0.3769  0.5327
  409MOL0     H56409   6.393   0.746   4.859  1.4779 -0.1914  0.3416
  409MOL0     H56410   6.303   0.773   5.150  1.9274 -0.6638  0.1930
  409MOL0     H56411   6.292   0.618   5.074 -3.5491 -0.8032 -0.9829
  409MOL0     H56412   6.126   0.690   4.905 -1.7712  1.0185 -0.1925
  409MOL0     H56413   6.118   0.853   4.986 -0.5668  0.1194  1.3240
  409MOL0     H56414   6.071   0.730   5.204 -0.4456 -0.5196 -0.3916
  409MOL0     H56415   5.949   0.766   5.083  0.0783  0.0032  0.2006
  409MOL0     H56416   6.079   0.498   5.118  0.2442  0.6978  1.5216
  409MOL0     H56417   5.966   0.537   4.985 -1.7539 -1.9165  1.6334
  409MOL0     H56418   5.865   0.414   5.166  1.3623 -1.5115  3.6217
  409MOL0     H56419   5.800   0.580   5.169  0.3271 -0.3191 -2.2327
  409MOL0     H56420   5.847   0.515   5.401  0.4526 -2.3284  0.4591
  409MOL0     H56421   5.996   0.610   5.347  0.4155 -0.5662 -0.9791
  409MOL0     H56422   6.771   0.717   5.124  1.1207 -0.4167  0.5054
  409MOL0     H56423   7.011   0.782   5.187  1.4966  0.6762 -0.8168
  409MOL0     H56424   7.357   0.935   5.136  0.0227  0.4291 -0.1756
  409MOL0     H56425   7.591   0.913   5.227 -0.9736  1.9888 -3.5979
  409MOL0     H56426   6.737   0.881   6.270  1.5533  0.6258  0.3818
  409MOL0     H56427   6.528   0.984   6.238  1.6727 -0.9949 -0.3467
  409MOL0     H56428   6.082   1.211   6.649 -1.4401 -2.6491  0.0786
  409MOL0     H56429   5.867   1.296   6.591  1.2738  2.0664  1.9762
  409MOL0     H56430   5.655   1.283   6.465  0.1901  1.0963  1.7357
  409MOL0     H56431   5.673   1.460   6.458  1.7808  0.5730  0.0111
  409MOL0     H56432   5.565   1.277   6.253  1.3432 -0.1183 -1.3668
  409MOL0     H56433   5.569   1.449   6.229  3.9061  0.4495  1.8651
  409MOL0     H56434   5.427   1.472   6.457  0.2372  1.4482 -2.0565
  409MOL0     H56435   5.341   1.411   6.314 -1.7643  1.5398  2.8965
  409MOL0     H56436   5.461   1.245   6.542  3.4360  3.2371 -1.2712
  409MOL0     H56437   5.426   1.186   6.384 -0.7110 -0.1777  0.5928
  409MOL0     H56438   5.037   1.253   6.569 -0.0978 -1.2693  0.2067
  409MOL0     H56439   5.974   1.272   6.175 -0.1338 -3.2295 -0.7471
  409MOL0     H56440   6.281   1.231   6.183  1.1435 -1.3650  1.2558
  409MOL0     H56441   6.265   1.065   6.215  2.6212  1.7558  2.0494
  409MOL0     H56442   6.147   1.146   6.103 -0.2570  1.2690  0.1237
  410MOL0     O56443   4.216   2.946   6.917  0.0512  0.1641  0.6140
  410MOL0     C56444   4.243   2.857   7.004  1.0765 -0.1186  0.4613
  410MOL0     O56445   4.321   2.750   6.978 -0.9647 -0.2194  0.7190
  410MOL0     C56446   4.376   2.723   6.855 -0.2625 -0.0262  0.7156
  410MOL0     C56447   4.298   2.694   6.731 -0.8729 -0.0335 -0.4459
  410MOL0     C56448   4.368   2.665   6.611  0.2207  0.0072 -0.1932
  410MOL0     C56449   4.510   2.653   6.608  0.0828  0.1450  0.4130
  410MOL0     O56450   4.580   2.618   6.492 -0.5195  0.3142 -0.0330
  410MOL0     C56451   4.509   2.602   6.367  0.4761 -0.2937 -0.2114
  410MOL0     C56452   4.607   2.556   6.259 -0.3242  0.0250  0.0602
  410MOL0     C56453   4.539   2.548   6.121 -0.5778  0.0267 -1.0412
  410MOL0     C56454   4.622   2.473   6.017 -0.2019  0.0711  0.1356
  410MOL0     C56455   4.571   2.453   5.876 -0.0298 -0.3271 -0.0500
  410MOL0     C56456   4.425   2.500   5.869  0.0078 -0.2919  0.6326
  410MOL0     C56457   4.328   2.392   5.916  0.5163 -0.0904 -0.9430
  410MOL0     C56458   4.212   2.372   5.821  0.2648  0.4421  0.0643
  410MOL0     N56459   4.144   2.245   5.839 -0.2342  0.3309 -0.2066
  410MOL0     C56460   4.039   2.229   5.926  0.6645  0.4294 -0.7834
  410MOL0     C56461   4.002   2.092   5.924 -1.4079 -0.7348 -1.2930
  410MOL0     C56462   3.920   2.016   6.015  0.4001 -0.2382  0.7391
  410MOL0     C56463   3.778   1.966   5.963  0.0174  0.6556 -1.0622
  410MOL0     C56464   3.706   2.087   5.895  0.5087  0.8710 -0.0274
  410MOL0     C56465   3.581   2.041   5.819  0.0605 -0.0586 -0.1185
  410MOL0     O56466   3.487   2.144   5.802 -1.0979 -0.5151 -0.1789
  410MOL0     C56467   3.353   2.134   5.786 -0.5617 -0.5575 -0.8374
  410MOL0     C56468   3.278   2.021   5.774  0.4123 -0.2421  0.9111
  410MOL0     C56469   3.144   2.028   5.748 -0.8725 -0.5385 -1.1636
  410MOL0     C56470   3.062   1.902   5.738  0.2753  0.0142  0.8042
  410MOL0     C56471   3.078   2.150   5.744 -0.3984  0.1652  0.1603
  410MOL0     C56472   2.937   2.158   5.729  0.1708 -0.0881 -0.4535
  410MOL0     O56473   2.913   2.269   5.655  0.1425  0.2555 -0.2288
  410MOL0     C56474   2.787   2.299   5.625 -0.4578  0.6156  0.2358
  410MOL0     C56475   2.705   2.201   5.582 -0.8549 -0.0794 -0.1967
  410MOL0     C56476   2.574   2.239   5.570  0.0459 -0.6344 -0.1145
  410MOL0     C56477   2.520   2.371   5.598 -0.1927 -0.1522 -0.4975
  410MOL0     O56478   2.395   2.419   5.585  0.3783  0.2265  0.4218
  410MOL0     C56479   2.303   2.344   5.503 -0.1733  0.2548 -0.8142
  410MOL0     C56480   2.168   2.410   5.496  0.0242  0.8425 -0.8013
  410MOL0     C56481   2.056   2.327   5.446 -0.7277 -0.6925  0.0551
  410MOL0     C56482   1.939   2.412   5.397  1.1963  0.2583  0.0372
  410MOL0     C56483   1.825   2.324   5.335 -0.3345 -0.0158  0.0881
  410MOL0     C56484   1.716   2.410   5.274  0.0247 -0.2399  0.1618
  410MOL0     C56485   1.578   2.347   5.267 -0.6375 -0.0330  0.6195
  410MOL0     C56486   1.510   2.342   5.401 -0.4042  0.0377  0.3270
  410MOL0    Cl56487   1.334   2.291   5.370  0.1818  0.5152  0.4676
  410MOL0     C56488   2.605   2.466   5.654 -0.2771 -0.3863 -0.3002
  410MOL0     C56489   2.740   2.427   5.657  0.1312 -0.0751 -0.0811
  410MOL0     O56490   2.859   2.089   5.796  0.2524 -0.0816 -0.8865
  410MOL0     C56491   3.155   2.261   5.759 -0.3471  0.3453  0.2119
  410MOL0     C56492   3.291   2.256   5.789  0.4836  0.6791  0.3104
  410MOL0     N56493   4.082   2.041   5.821  0.2118 -0.5293  0.0621
  410MOL0     N56494   4.166   2.134   5.775  0.0890 -0.1441  0.3253
  410MOL0     C56495   4.582   2.670   6.722  0.1239  0.2315 -0.1761
  410MOL0     C56496   4.516   2.709   6.847  0.1513  0.1398  0.4651
  410MOL0     C56497   4.178   2.854   7.140 -0.3408  0.3309 -0.4660
  410MOL0     C56498   4.247   2.784   7.253  0.5673 -0.8798  0.3486
  410MOL0     C56499   4.203   2.793   7.384  0.6091 -0.0071 -0.2992
  410MOL0     C56500   4.076   2.855   7.408 -0.3913 -0.5489  1.2533
  410MOL0     O56501   4.011   2.858   7.531  0.1739  0.1394 -0.5688
  410MOL0     C56502   4.075   2.790   7.637  0.7499  0.1052 -0.6122
  410MOL0     C56503   3.986   2.791   7.762 -0.4442  0.2384 -0.7129
  410MOL0     C56504   3.966   2.939   7.818 -0.5010 -0.4322  0.9926
  410MOL0     C56505   3.918   2.923   7.962  0.4214  0.2440 -0.0081
  410MOL0     C56506   3.961   3.037   8.032 -0.1212  0.2804 -0.4018
  410MOL0     C56507   3.986   3.139   8.091 -0.3648 -0.2763  0.3249
  410MOL0     C56508   4.006   2.906   7.302 -1.6160 -0.4781  0.3206
  410MOL0     C56509   4.055   2.912   7.170  0.2311  0.1195  0.2563
  410MOL0     C56510   3.970   2.987   7.066 -0.4165 -0.4034  0.0251
  410MOL0     H56511   4.190   2.683   6.737 -0.6886 -3.5060 -1.2414
  410MOL0     H56512   4.313   2.648   6.519  0.0975 -2.0567  0.2132
  410MOL0     H56513   4.464   2.698   6.340  1.3669 -0.1970 -1.4239
  410MOL0     H56514   4.427   2.529   6.376 -1.5329  1.9706  0.9180
  410MOL0     H56515   4.678   2.639   6.247 -0.9726  0.6734  0.6143
  410MOL0     H56516   4.646   2.460   6.293 -2.7998 -0.6355  1.2687
  410MOL0     H56517   4.443   2.500   6.144 -0.1441  0.1631  1.3396
  410MOL0     H56518   4.518   2.648   6.083  0.0373  1.4461  2.0147
  410MOL0     H56519   4.723   2.515   6.014  0.6628 -1.9021 -0.0448
  410MOL0     H56520   4.650   2.382   6.070 -0.0576  1.6444  2.9038
  410MOL0     H56521   4.593   2.356   5.832 -1.2235 -0.7364  0.2205
  410MOL0     H56522   4.623   2.525   5.812 -1.9207 -0.0527 -1.3706
  410MOL0     H56523   4.404   2.594   5.921  3.8824  0.5764  0.8773
  410MOL0     H56524   4.403   2.522   5.764  0.3872 -0.0374  0.6055
  410MOL0     H56525   4.288   2.406   6.017 -2.1295 -2.9916 -1.4113
  410MOL0     H56526   4.372   2.292   5.919  1.4346  0.3056  2.3615
  410MOL0     H56527   4.142   2.455   5.830 -1.0615 -0.6167 -0.1598
  410MOL0     H56528   4.247   2.367   5.717  0.8296  2.0043  0.1628
  410MOL0     H56529   4.001   2.296   6.002  0.1143 -0.5788 -0.1415
  410MOL0     H56530   3.910   2.055   6.117  2.7688  3.5848 -0.3073
  410MOL0     H56531   3.984   1.928   6.028  3.7968  1.8798 -0.4998
  410MOL0     H56532   3.799   1.889   5.889  2.3348  2.1795 -2.1024
  410MOL0     H56533   3.713   1.924   6.041 -0.0164 -1.7510 -2.3115
  410MOL0     H56534   3.665   2.155   5.971  0.1906  0.9973 -0.3065
  410MOL0     H56535   3.767   2.146   5.826 -0.5372 -0.7508 -2.4833
  410MOL0     H56536   3.598   1.998   5.720 -0.0467 -1.3919  0.4285
  410MOL0     H56537   3.533   1.966   5.883 -2.1687  0.8719 -0.5956
  410MOL0     H56538   3.321   1.921   5.770 -1.7449 -1.2539  1.4813
  410MOL0     H56539   3.117   1.807   5.733 -0.3540 -0.5321  2.9854
  410MOL0     H56540   2.986   1.889   5.661 -0.0158 -1.4732  1.2905
  410MOL0     H56541   3.012   1.884   5.834  0.8418  1.2002  1.3373
  410MOL0     H56542   2.727   2.097   5.559 -0.5971 -0.5903  2.1402
  410MOL0     H56543   2.510   2.163   5.528 -3.1519  1.3149  0.8694
  410MOL0     H56544   2.346   2.318   5.406 -0.0008 -0.0690 -0.6520
  410MOL0     H56545   2.279   2.247   5.547 -2.4186  0.6094 -1.1242
  410MOL0     H56546   2.137   2.447   5.594  1.7432  0.0253  0.0880
  410MOL0     H56547   2.191   2.494   5.430  2.4714  1.0319  0.2001
  410MOL0     H56548   2.020   2.259   5.525 -0.8533  0.4210  0.9803
  410MOL0     H56549   2.092   2.266   5.363  0.4688 -1.6796  1.2574
  410MOL0     H56550   1.980   2.484   5.325  3.0049 -1.6071 -0.8903
  410MOL0     H56551   1.904   2.482   5.475  1.5088  0.0582  0.3589
  410MOL0     H56552   1.860   2.262   5.253 -1.3988 -1.2328  0.5342
  410MOL0     H56553   1.788   2.262   5.417  2.2412  0.2602  1.5813
  410MOL0     H56554   1.749   2.436   5.173  0.9780 -1.0681  0.2402
  410MOL0     H56555   1.704   2.502   5.332 -1.3633 -0.1917 -0.1656
  410MOL0     H56556   1.584   2.248   5.221  4.6648  0.3351 -0.1609
  410MOL0     H56557   1.516   2.407   5.199  2.2699  1.6130 -0.7778
  410MOL0     H56558   1.507   2.440   5.451 -0.5745  1.2967 -1.9929
  410MOL0     H56559   1.560   2.272   5.469 -2.5054  1.3222  3.4036
  410MOL0     H56560   2.572   2.565   5.684  1.1215 -0.6850  2.5602
  410MOL0     H56561   2.817   2.491   5.699 -1.7398 -0.6907  5.0882
  410MOL0     H56562   3.108   2.359   5.747 -1.3377 -0.3942 -3.2565
  410MOL0     H56563   3.357   2.343   5.789 -0.2827  1.2783 -0.5365
  410MOL0     H56564   4.689   2.661   6.705  0.2839  0.8117  0.5091
  410MOL0     H56565   4.581   2.727   6.932 -0.8349 -0.7115  1.4202
  410MOL0     H56566   4.334   2.722   7.236  1.3131  0.0748  0.6411
  410MOL0     H56567   4.258   2.738   7.460 -1.8478  2.7987  3.8663
  410MOL0     H56568   4.096   2.685   7.615 -0.5012 -0.2849 -0.0443
  410MOL0     H56569   4.168   2.837   7.671  0.3159 -0.3040  1.2479
  410MOL0     H56570   4.034   2.728   7.838 -2.2498 -1.7182 -1.1114
  410MOL0     H56571   3.889   2.743   7.747  0.0610 -2.0395  2.3319
  410MOL0     H56572   4.055   3.001   7.801  0.2279 -1.3095  1.5241
  410MOL0     H56573   3.899   3.002   7.759 -0.3211  3.4757  4.5284
  410MOL0     H56574   3.968   2.838   8.010 -1.2811  0.0365  1.4891
  410MOL0     H56575   3.811   2.906   7.970  0.2545  1.1585 -0.1453
  410MOL0     H56576   4.021   3.229   8.138  2.5384 -0.8957 -0.4512
  410MOL0     H56577   3.912   2.951   7.331 -1.8122 -0.5571 -0.1838
  410MOL0     H56578   3.865   2.984   7.096 -0.7371  0.1113 -1.0312
  410MOL0     H56579   3.997   3.093   7.059  0.7155 -0.7954 -2.3520
  410MOL0     H56580   3.979   2.931   6.973  1.7868  0.1324 -0.1418
  411MOL0     O56581   7.290   7.498   2.876  0.1614 -0.4374 -0.2731
  411MOL0     C56582   7.232   7.500   2.769 -0.9961  0.6096  0.0992
  411MOL0     O56583   7.285   7.435   2.663 -0.1522 -0.3881  0.2715
  411MOL0     C56584   7.422   7.436   2.646  0.0510  0.0905  0.2726
  411MOL0     C56585   7.503   7.541   2.682 -0.4597 -0.0042  0.6739
  411MOL0     C56586   7.636   7.555   2.662  0.1492 -0.0388  0.7476
  411MOL0     C56587   7.698   7.446   2.609  0.2322  0.8418  0.7344
  411MOL0     O56588   7.831   7.428   2.593 -0.6130 -0.8810 -0.1265
  411MOL0     C56589   7.913   7.543   2.573 -0.4797  0.5828 -0.6535
  411MOL0     C56590   8.011   7.508   2.461  0.4908  0.1356 -0.4587
  411MOL0     C56591   8.101   7.383   2.501  0.3618  0.1877 -0.2218
  411MOL0     C56592   8.202   7.358   2.392  0.2395  0.1449 -0.4120
  411MOL0     C56593   8.235   7.208   2.366  0.1902  0.1446 -0.0669
  411MOL0     C56594   8.318   7.161   2.246 -0.3453 -0.2943  0.3508
  411MOL0     C56595   8.473   7.184   2.266 -0.0369  0.3427 -0.4869
  411MOL0     C56596   8.545   7.135   2.135 -0.4782  0.3725  0.3253
  411MOL0     N56597   8.694   7.168   2.138  0.9363 -0.1443  0.0888
  411MOL0     C56598   8.762   7.271   2.208  0.2589  0.6328  0.3948
  411MOL0     C56599   8.895   7.252   2.198  0.3528 -0.2703  0.2912
  411MOL0     C56600   8.997   7.353   2.254 -0.2144 -0.1477  0.6151
  411MOL0     C56601   9.147   7.312   2.287 -0.5684  0.4909 -0.5750
  411MOL0     C56602   9.165   7.220   2.408 -0.6993 -0.0691 -0.2132
  411MOL0     C56603   9.321   7.201   2.428  1.0063  0.1717  0.0005
  411MOL0     O56604   9.399   7.199   2.309 -0.0835  0.6324  0.0057
  411MOL0     C56605   9.500   7.109   2.326 -0.5961 -0.5362 -0.2254
  411MOL0     C56606   9.494   6.991   2.271 -0.2334  0.3220  0.8470
  411MOL0     C56607   9.592   6.894   2.277 -0.2411  0.0656 -0.0885
  411MOL0     C56608   9.559   6.759   2.227  0.5021 -0.3125 -0.1398
  411MOL0     C56609   9.724   6.927   2.340  1.4593 -0.0290  0.3211
  411MOL0     C56610   9.833   6.831   2.362 -0.0010 -0.1798  0.6580
  411MOL0     O56611   9.931   6.869   2.446  0.5579 -0.3426  0.1006
  411MOL0     C56612  10.024   6.775   2.486  0.0709  0.2404 -0.5851
  411MOL0     C56613  10.148   6.819   2.528  0.2750 -0.5669  0.6344
  411MOL0     C56614  10.253   6.737   2.580  0.6175  0.2939  0.9830
  411MOL0     C56615  10.222   6.605   2.606  0.8417  0.2120  0.1195
  411MOL0     O56616  10.314   6.519   2.667 -0.0850  0.3544  0.0078
  411MOL0     C56617  10.424   6.480   2.581 -0.1456  0.5724  1.0265
  411MOL0     C56618  10.497   6.369   2.653 -0.2466 -0.5965 -0.5681
  411MOL0     C56619  10.411   6.245   2.651 -0.0815  0.9816  0.4347
  411MOL0     C56620  10.506   6.122   2.668 -0.1290  1.4260  0.0176
  411MOL0     C56621  10.576   6.083   2.541 -0.3716 -0.7533  0.8332
  411MOL0     C56622  10.648   5.944   2.563  0.8280  0.6963  0.3876
  411MOL0     C56623  10.744   5.907   2.450  0.1135 -0.2663 -0.2591
  411MOL0     C56624  10.880   5.978   2.452  0.3435 -0.5539 -0.6346
  411MOL0    Cl56625  10.963   5.969   2.605 -0.0219  0.8338  0.0116
  411MOL0     C56626  10.087   6.555   2.579 -0.5383  0.2283 -0.1092
  411MOL0     C56627   9.991   6.645   2.523 -0.0311  0.2525 -0.4836
  411MOL0     O56628   9.828   6.733   2.294  0.0075  0.4778  0.0705
  411MOL0     C56629   9.732   7.061   2.388 -0.5286  0.4448 -0.2726
  411MOL0     C56630   9.620   7.146   2.385  0.5751 -0.2296  0.0683
  411MOL0     N56631   8.913   7.135   2.129 -0.0179  0.1707  0.3937
  411MOL0     N56632   8.795   7.090   2.091  0.1983 -0.6108 -0.5849
  411MOL0     C56633   7.624   7.329   2.580 -0.1678  0.4788  0.5654
  411MOL0     C56634   7.487   7.328   2.597  0.0171  0.6603  0.0702
  411MOL0     C56635   7.098   7.569   2.767 -0.0744 -0.4307 -0.1806
  411MOL0     C56636   7.035   7.577   2.642 -0.2371 -0.7443 -0.4040
  411MOL0     C56637   6.908   7.635   2.625  0.1533 -0.1731 -0.5806
  411MOL0     C56638   6.835   7.665   2.740  0.0076  0.6830 -0.3719
  411MOL0     O56639   6.702   7.704   2.736 -0.1887  0.3683  0.9094
  411MOL0     C56640   6.609   7.637   2.647  0.3826  0.4531 -0.3615
  411MOL0     C56641   6.524   7.728   2.558  0.4953  0.2454 -0.2026
  411MOL0     C56642   6.433   7.831   2.632  0.9094  0.1595  0.5909
  411MOL0     C56643   6.324   7.876   2.522  0.3021  0.2185 -0.1042
  411MOL0     C56644   6.225   7.970   2.577 -0.4193 -0.4393 -1.1893
  411MOL0     C56645   6.158   8.059   2.629 -1.3923  0.6722 -0.0812
  411MOL0     C56646   6.898   7.642   2.862  0.5700 -0.4929  0.2541
  411MOL0     C56647   7.027   7.603   2.881 -0.3301 -0.9381 -0.5169
  411MOL0     C56648   7.064   7.590   3.033  0.1554  0.0341 -0.0384
  411MOL0     H56649   7.451   7.631   2.713 -1.0421  0.2689 -0.9845
  411MOL0     H56650   7.678   7.652   2.685  1.3344 -1.0106  3.0706
  411MOL0     H56651   7.967   7.577   2.662 -0.8781  0.1542 -0.2415
  411MOL0     H56652   7.853   7.630   2.546  0.0647  1.0614 -0.3376
  411MOL0     H56653   7.948   7.480   2.376 -2.8975  0.5629  1.7257
  411MOL0     H56654   8.078   7.590   2.436  1.0682 -1.0723 -3.3243
  411MOL0     H56655   8.142   7.396   2.602 -0.6187 -1.4269  0.4295
  411MOL0     H56656   8.040   7.292   2.499  1.8335 -0.8286 -0.6691
  411MOL0     H56657   8.172   7.389   2.291 -0.8519 -0.5579 -0.3142
  411MOL0     H56658   8.295   7.411   2.417 -1.4799  3.4070 -0.2934
  411MOL0     H56659   8.133   7.177   2.341 -0.0823  1.7325 -1.0676
  411MOL0     H56660   8.274   7.164   2.459  0.9843  2.7275  0.9015
  411MOL0     H56661   8.310   7.052   2.242  0.1486 -0.2851 -1.6333
  411MOL0     H56662   8.279   7.205   2.154  1.2585 -1.4685 -0.9387
  411MOL0     H56663   8.518   7.126   2.347 -0.2461 -1.5831 -1.6931
  411MOL0     H56664   8.498   7.289   2.282  1.0832  0.1404 -0.7775
  411MOL0     H56665   8.540   7.027   2.118 -2.9005  0.5834 -0.7814
  411MOL0     H56666   8.501   7.186   2.048  4.2019  0.7477 -2.1426
  411MOL0     H56667   8.718   7.361   2.249 -0.6403  0.9297 -1.1366
  411MOL0     H56668   8.950   7.394   2.344  0.4503  0.1165  0.8463
  411MOL0     H56669   8.997   7.427   2.173  1.5238 -1.5525 -0.7323
  411MOL0     H56670   9.184   7.254   2.202 -1.9454 -0.5772 -0.4784
  411MOL0     H56671   9.206   7.405   2.292 -1.3627  1.0726 -1.5768
  411MOL0     H56672   9.111   7.268   2.489  0.2647 -0.5481  0.7381
  411MOL0     H56673   9.126   7.121   2.381  1.1512 -1.1562  0.9164
  411MOL0     H56674   9.343   7.285   2.496 -4.8368 -0.3126  3.1828
  411MOL0     H56675   9.325   7.108   2.486 -0.9238  0.2674  0.3411
  411MOL0     H56676   9.401   6.972   2.218 -0.5386 -0.1019  1.5285
  411MOL0     H56677   9.534   6.692   2.310  3.0517 -1.1560  0.0442
  411MOL0     H56678   9.641   6.724   2.164  1.8421  2.4001 -0.0455
  411MOL0     H56679   9.474   6.774   2.160  1.5467 -0.3369 -1.5167
  411MOL0     H56680  10.158   6.926   2.512 -0.9258 -0.2598  1.8170
  411MOL0     H56681  10.354   6.772   2.599  2.2258 -3.2863 -0.0505
  411MOL0     H56682  10.385   6.437   2.489 -0.7065 -1.6405  2.2263
  411MOL0     H56683  10.492   6.565   2.573  2.2298 -1.4161 -2.4316
  411MOL0     H56684  10.594   6.357   2.605  1.4393  3.2728  1.4389
  411MOL0     H56685  10.515   6.378   2.760 -2.0085 -2.4607 -0.0420
  411MOL0     H56686  10.369   6.230   2.552  1.8632  0.7152 -0.3962
  411MOL0     H56687  10.330   6.245   2.725  1.5988  0.2623  2.3752
  411MOL0     H56688  10.445   6.039   2.704  0.9963  1.2581  1.6533
  411MOL0     H56689  10.583   6.132   2.745  1.4388 -2.2946 -0.8558
  411MOL0     H56690  10.513   6.086   2.452  0.1910  1.1011  0.4521
  411MOL0     H56691  10.652   6.158   2.516 -0.8939 -0.6477 -0.5097
  411MOL0     H56692  10.570   5.869   2.581  0.3334  1.1975  0.3694
  411MOL0     H56693  10.694   5.961   2.661 -1.6744  2.4645  1.3884
  411MOL0     H56694  10.693   5.923   2.355 -2.7114 -1.4013  0.9400
  411MOL0     H56695  10.766   5.802   2.468  0.1057 -0.7164 -2.5644
  411MOL0     H56696  10.879   6.085   2.433  1.6432 -0.1476  1.2753
  411MOL0     H56697  10.938   5.921   2.378  1.1746 -3.3143  1.9235
  411MOL0     H56698  10.056   6.452   2.597  0.6068  0.3767  3.4514
  411MOL0     H56699   9.892   6.605   2.505  0.9184 -1.6915 -1.6825
  411MOL0     H56700   9.825   7.104   2.424  0.6937 -0.4662 -2.1485
  411MOL0     H56701   9.625   7.247   2.425  3.1587 -0.0949 -0.4445
  411MOL0     H56702   7.665   7.231   2.556 -2.2236 -1.2392  3.3062
  411MOL0     H56703   7.433   7.238   2.571  1.3187 -0.3812  0.8036
  411MOL0     H56704   7.087   7.543   2.552 -0.7893  0.1116 -1.0653
  411MOL0     H56705   6.873   7.657   2.524  2.3458  2.0522 -0.9660
  411MOL0     H56706   6.659   7.558   2.590  0.1792 -2.6528  3.3491
  411MOL0     H56707   6.536   7.581   2.707 -1.7956  5.3870  2.1525
  411MOL0     H56708   6.468   7.660   2.493  0.2831 -0.5202  0.7646
  411MOL0     H56709   6.591   7.790   2.498 -2.6898  0.5124 -3.9138
  411MOL0     H56710   6.378   7.778   2.710 -1.8741  0.3801 -1.0999
  411MOL0     H56711   6.489   7.919   2.665 -0.2625  0.7030  1.1690
  411MOL0     H56712   6.265   7.793   2.481  0.2293  0.4514 -0.4777
  411MOL0     H56713   6.378   7.922   2.439 -1.3078 -0.9192 -1.8670
  411MOL0     H56714   6.096   8.142   2.654 -1.9720 -0.0534  0.9749
  411MOL0     H56715   6.831   7.671   2.942 -0.2880 -2.5517  0.3285
  411MOL0     H56716   7.059   7.483   3.054 -2.4978  0.1336  0.1645
  411MOL0     H56717   7.163   7.634   3.047 -0.0882  0.2930  0.9483
  411MOL0     H56718   6.996   7.650   3.095  0.3887  1.4588 -1.1107
  412MOL0     O56719   7.954   1.996   8.589 -1.0546  0.7064 -0.2221
  412MOL0     C56720   7.932   1.912   8.675  0.2200  0.1421 -0.5023
  412MOL0     O56721   8.020   1.872   8.772  0.0065 -0.7333 -0.0690
  412MOL0     C56722   8.159   1.899   8.747  0.9275 -0.0783 -0.3350
  412MOL0     C56723   8.213   2.019   8.691 -0.1858  0.0270  0.2023
  412MOL0     C56724   8.353   2.038   8.695  0.8248 -0.3095  0.2662
  412MOL0     C56725   8.439   1.942   8.749 -0.3453 -0.0467 -0.0784
  412MOL0     O56726   8.574   1.945   8.738 -0.3989 -0.6255  0.6637
  412MOL0     C56727   8.646   2.064   8.704  0.4135 -0.9636 -0.0448
  412MOL0     C56728   8.802   2.044   8.717  0.1973 -0.3308  0.0114
  412MOL0     C56729   8.827   2.021   8.870  0.5951  0.5312  0.4839
  412MOL0     C56730   8.967   1.961   8.895 -0.7307 -0.4806 -0.5640
  412MOL0     C56731   8.966   1.805   8.895  0.0052  0.6027 -0.4301
  412MOL0     C56732   9.102   1.751   8.940 -0.7896  0.4508 -0.0121
  412MOL0     C56733   9.114   1.602   8.905  0.1155 -0.5868  0.0983
  412MOL0     C56734   9.233   1.537   8.968  0.7674 -0.3001  0.0583
  412MOL0     N56735   9.361   1.585   8.909  0.7584  0.1401  0.1875
  412MOL0     C56736   9.400   1.599   8.774 -0.4663  0.0068 -1.1024
  412MOL0     C56737   9.529   1.654   8.783 -0.4688  0.1160 -0.0154
  412MOL0     C56738   9.606   1.681   8.663  0.6680  0.7930  0.6680
  412MOL0     C56739   9.751   1.667   8.698  0.2660  0.7050 -0.0245
  412MOL0     C56740   9.838   1.680   8.574  0.0925 -0.1920 -0.8739
  412MOL0     C56741   9.990   1.654   8.608 -0.0736  0.2306  0.0487
  412MOL0     O56742  10.076   1.692   8.496 -0.4705 -0.5514 -0.4095
  412MOL0     C56743  10.203   1.706   8.528 -0.9242  0.3490  0.3788
  412MOL0     C56744  10.281   1.626   8.618 -0.0129 -0.2515 -0.4235
  412MOL0     C56745  10.423   1.648   8.628  0.5742  0.5514  0.7466
  412MOL0     C56746  10.491   1.566   8.736  0.1930  0.2520  0.3909
  412MOL0     C56747  10.487   1.753   8.551 -0.3320  0.3076 -0.1357
  412MOL0     C56748  10.637   1.798   8.565 -0.1916  0.7101 -0.1152
  412MOL0     O56749  10.720   1.709   8.626 -0.0543  0.7182  0.0381
  412MOL0     C56750  10.851   1.742   8.673 -0.4123 -0.0850  0.4485
  412MOL0     C56751  10.888   1.670   8.785  1.1027  0.3078  0.1020
  412MOL0     C56752  11.020   1.686   8.832 -0.1629  0.2381 -0.0703
  412MOL0     C56753  11.089   1.808   8.804  1.0751  0.4264 -0.0180
  412MOL0     O56754  11.215   1.845   8.853  0.0466 -0.5423 -0.5171
  412MOL0     C56755  11.311   1.741   8.885 -0.5006  0.4277 -0.0295
  412MOL0     C56756  11.447   1.818   8.883 -0.6957 -0.2523 -0.0706
  412MOL0     C56757  11.569   1.726   8.906  0.1234 -0.4879 -0.7829
  412MOL0     C56758  11.590   1.628   8.793 -0.6917 -0.4284 -0.0283
  412MOL0     C56759  11.742   1.587   8.772 -0.2883  0.1885 -0.5447
  412MOL0     C56760  11.793   1.491   8.874 -0.3875 -0.0340  0.6842
  412MOL0     C56761  11.953   1.471   8.873  0.7048 -0.7906  0.2555
  412MOL0     C56762  11.997   1.416   8.736 -0.5387  0.0405 -0.7031
  412MOL0    Cl56763  12.180   1.373   8.724  0.0511  0.1238  0.4209
  412MOL0     C56764  11.041   1.884   8.694  0.1567 -1.1414 -0.9200
  412MOL0     C56765  10.931   1.846   8.624 -0.1461  0.3255 -1.3437
  412MOL0     O56766  10.666   1.902   8.510  0.6530  0.4436  0.8138
  412MOL0     C56767  10.403   1.837   8.481  0.4933  0.5173  0.2128
  412MOL0     C56768  10.267   1.817   8.460  0.7711 -0.1991 -0.0389
  412MOL0     N56769   9.561   1.670   8.917 -0.0900  0.4420 -0.6033
  412MOL0     N56770   9.466   1.621   8.985 -0.0718  0.4735 -0.1191
  412MOL0     C56771   8.379   1.832   8.813  0.4470  0.1317  0.0761
  412MOL0     C56772   8.242   1.812   8.815 -0.3248  0.4902  0.3781
  412MOL0     C56773   7.798   1.863   8.662 -0.0278  1.3303 -0.0712
  412MOL0     C56774   7.696   1.931   8.591  0.7640 -0.3444  0.8881
  412MOL0     C56775   7.567   1.877   8.562 -0.2213 -0.0291  0.2988
  412MOL0     C56776   7.536   1.749   8.609  0.1156 -0.3566  0.8744
  412MOL0     O56777   7.413   1.692   8.603  0.6275  0.1001  0.1354
  412MOL0     C56778   7.332   1.726   8.493 -0.3911 -0.8949 -0.6849
  412MOL0     C56779   7.260   1.598   8.456 -0.2180  0.0630  0.5529
  412MOL0     C56780   7.159   1.544   8.563  0.2079 -0.4585 -0.2218
  412MOL0     C56781   7.110   1.412   8.516  0.3878  0.3733 -0.4384
  412MOL0     C56782   7.039   1.416   8.387 -0.1447  0.2484 -0.4880
  412MOL0     C56783   6.988   1.405   8.278  0.0110 -0.0811  0.0127
  412MOL0     C56784   7.633   1.676   8.684  0.0578  0.0063  0.1350
  412MOL0     C56785   7.765   1.730   8.712 -0.4155  0.1623 -0.3687
  412MOL0     C56786   7.858   1.639   8.780  0.0115 -0.2043 -0.1216
  412MOL0     H56787   8.153   2.094   8.639  0.2467  0.4511  0.3093
  412MOL0     H56788   8.394   2.130   8.654  0.1948 -1.0431 -2.2124
  412MOL0     H56789   8.626   2.149   8.769 -0.2844 -0.2736 -1.1284
  412MOL0     H56790   8.630   2.103   8.603  2.2176 -3.1738 -1.3046
  412MOL0     H56791   8.848   1.969   8.652  1.2661  1.8358 -1.8472
  412MOL0     H56792   8.847   2.140   8.692 -2.8673  0.8957 -1.2765
  412MOL0     H56793   8.825   2.122   8.911  1.0710  0.5262  0.5206
  412MOL0     H56794   8.747   1.967   8.922  2.4276  0.2167  3.1670
  412MOL0     H56795   9.036   2.005   8.823  1.5688  1.2407  2.4481
  412MOL0     H56796   8.986   1.993   8.998  0.8666  1.7877 -1.4693
  412MOL0     H56797   8.922   1.754   8.808  1.0132  0.8813 -1.1278
  412MOL0     H56798   8.899   1.772   8.975  3.4827 -0.0026  2.4929
  412MOL0     H56799   9.185   1.807   8.898  0.6550 -1.1597  0.5843
  412MOL0     H56800   9.098   1.754   9.049 -0.2122  0.3987  0.0108
  412MOL0     H56801   9.119   1.596   8.796  0.0080  0.8073 -0.0048
  412MOL0     H56802   9.028   1.550   8.948  2.5784 -3.2734  2.1780
  412MOL0     H56803   9.237   1.550   9.076  0.4156 -2.2706  0.3383
  412MOL0     H56804   9.231   1.430   8.943 -2.1174 -0.0540 -1.0738
  412MOL0     H56805   9.343   1.574   8.685 -2.0042 -1.5061  0.2068
  412MOL0     H56806   9.575   1.780   8.626 -1.0835  0.9422  2.3415
  412MOL0     H56807   9.580   1.604   8.590 -0.5906  1.1160  0.7495
  412MOL0     H56808   9.781   1.745   8.768  0.4883 -1.6937  2.7344
  412MOL0     H56809   9.763   1.569   8.745  1.8117  2.1867  2.9473
  412MOL0     H56810   9.807   1.613   8.493 -0.8664 -0.1441 -0.5575
  412MOL0     H56811   9.836   1.783   8.536  1.6601  0.7654  1.3886
  412MOL0     H56812  10.026   1.710   8.695 -1.1487 -2.6785  2.5598
  412MOL0     H56813  10.000   1.547   8.630 -2.8437 -0.0561  0.3803
  412MOL0     H56814  10.241   1.545   8.679 -0.1178 -1.6617 -2.2820
  412MOL0     H56815  10.542   1.644   8.792  1.6570 -0.5058  0.1699
  412MOL0     H56816  10.563   1.500   8.687  0.3736  1.0292 -0.4113
  412MOL0     H56817  10.421   1.517   8.805  1.4633  1.8940  3.0309
  412MOL0     H56818  10.824   1.600   8.837  0.7440  0.5766  0.0286
  412MOL0     H56819  11.056   1.619   8.909  0.8311 -0.7168 -1.3238
  412MOL0     H56820  11.294   1.703   8.986  0.5306  2.4628  0.9725
  412MOL0     H56821  11.315   1.657   8.816 -1.8921  1.2275 -1.1366
  412MOL0     H56822  11.450   1.883   8.795 -4.0243 -0.5327 -0.5445
  412MOL0     H56823  11.448   1.884   8.970  0.4715 -2.7516  1.9150
  412MOL0     H56824  11.546   1.677   9.001  0.1550 -2.2663 -1.6474
  412MOL0     H56825  11.660   1.786   8.915 -1.6339  2.3676 -0.7542
  412MOL0     H56826  11.540   1.671   8.706 -2.2058 -1.5725  0.2504
  412MOL0     H56827  11.548   1.532   8.822  0.1962  0.1374  3.7196
  412MOL0     H56828  11.751   1.539   8.674 -0.5036 -1.9028  0.4033
  412MOL0     H56829  11.804   1.677   8.771 -0.7422  0.5068 -1.2605
  412MOL0     H56830  11.741   1.394   8.871  2.8850 -1.9600 -1.4575
  412MOL0     H56831  11.767   1.540   8.968 -0.8012  0.7001  0.1903
  412MOL0     H56832  11.982   1.401   8.952  2.4198  0.7638  1.0613
  412MOL0     H56833  12.005   1.563   8.899 -0.4524  0.6831 -2.3195
  412MOL0     H56834  11.963   1.468   8.646 -2.4944  1.2646  0.6654
  412MOL0     H56835  11.948   1.319   8.731 -1.2000  0.2925  0.5231
  412MOL0     H56836  11.098   1.970   8.660  0.6582 -0.6759  0.9958
  412MOL0     H56837  10.900   1.913   8.545 -1.8765 -0.5405 -1.4276
  412MOL0     H56838  10.439   1.935   8.452 -0.1796  0.5608 -0.5103
  412MOL0     H56839  10.214   1.881   8.390  1.1750 -2.0217 -2.1393
  412MOL0     H56840   8.444   1.758   8.859 -0.8203  0.2193  2.1208
  412MOL0     H56841   8.215   1.728   8.879  2.0845  0.2512  1.1723
  412MOL0     H56842   7.715   2.032   8.555 -1.0073 -1.1415 -2.7314
  412MOL0     H56843   7.506   1.926   8.486  4.0545  0.2591 -3.3332
  412MOL0     H56844   7.257   1.802   8.520  1.8987  1.0314  0.6604
  412MOL0     H56845   7.391   1.759   8.407  0.7167 -0.8077  0.0928
  412MOL0     H56846   7.335   1.522   8.435  0.2808  0.4799  0.8117
  412MOL0     H56847   7.202   1.611   8.364 -0.8737  0.8788  1.0638
  412MOL0     H56848   7.198   1.537   8.665  1.0671 -2.4463 -0.6456
  412MOL0     H56849   7.073   1.611   8.568 -1.0206 -1.9277 -0.8919
  412MOL0     H56850   7.049   1.361   8.590  1.6193  1.9945  1.8279
  412MOL0     H56851   7.197   1.345   8.516 -1.5259 -2.4130  2.5702
  412MOL0     H56852   6.945   1.392   8.180  1.3199  1.3675 -0.7943
  412MOL0     H56853   7.602   1.575   8.710 -1.5131  0.6541  0.9652
  412MOL0     H56854   7.815   1.545   8.817  1.1453 -0.7119 -0.0436
  412MOL0     H56855   7.942   1.605   8.719  1.8168 -3.3776  3.6610
  412MOL0     H56856   7.906   1.679   8.869  1.5048 -3.2452  0.5698
  413MOL0     O56857   9.396   6.155   5.106  0.3700 -0.1426 -0.5236
  413MOL0     C56858   9.332   6.177   5.007  1.1155 -0.1650 -0.0947
  413MOL0     O56859   9.372   6.145   4.879 -1.0386 -0.7696  0.0705
  413MOL0     C56860   9.504   6.152   4.842 -0.1110  0.0144 -0.3950
  413MOL0     C56861   9.601   6.230   4.897  0.0677  0.1514  0.3043
  413MOL0     C56862   9.732   6.235   4.845  0.1136  0.4900 -0.1457
  413MOL0     C56863   9.774   6.154   4.739 -0.8142  0.8842 -0.0713
  413MOL0     O56864   9.902   6.162   4.693 -0.2636  0.4623 -0.8586
  413MOL0     C56865   9.958   6.066   4.609  0.0301  0.4903 -0.5876
  413MOL0     C56866  10.095   6.113   4.549 -0.3897  0.1680  1.1095
  413MOL0     C56867  10.213   6.136   4.651  0.1350  0.7447  0.0615
  413MOL0     C56868  10.342   6.166   4.571  0.2995 -0.1730 -0.3945
  413MOL0     C56869  10.459   6.154   4.669 -1.1889  0.1716  0.6616
  413MOL0     C56870  10.448   6.252   4.778 -1.1024 -0.6704 -0.1678
  413MOL0     C56871  10.584   6.270   4.856 -0.3810 -0.5051 -0.4224
  413MOL0     C56872  10.592   6.161   4.965 -1.1354  0.7167  0.0923
  413MOL0     N56873  10.724   6.186   5.031  0.2297 -0.2560 -0.5173
  413MOL0     C56874  10.808   6.096   5.090  0.1787  1.0422  0.1672
  413MOL0     C56875  10.916   6.156   5.136  0.5444 -0.2980 -0.1769
  413MOL0     C56876  11.027   6.089   5.208 -0.9625 -0.3102 -0.3452
  413MOL0     C56877  11.160   6.131   5.151 -0.8593  0.2755 -0.1208
  413MOL0     C56878  11.274   6.060   5.220 -0.6346  0.2622  0.4812
  413MOL0     C56879  11.415   6.102   5.182  0.0240  0.9075 -0.5191
  413MOL0     O56880  11.508   6.078   5.283  0.1793  0.4826 -0.6493
  413MOL0     C56881  11.641   6.106   5.256 -0.3378 -0.1444  0.5013
  413MOL0     C56882  11.700   6.143   5.133  0.4657 -0.9854  0.0892
  413MOL0     C56883  11.830   6.196   5.124  0.3767  0.1370 -0.3736
  413MOL0     C56884  11.880   6.252   4.997  0.0551 -0.5552  0.3105
  413MOL0     C56885  11.913   6.186   5.243 -0.1493 -0.2561 -0.2127
  413MOL0     C56886  12.053   6.243   5.250 -0.2081 -1.0848 -0.9264
  413MOL0     O56887  12.121   6.271   5.140  0.0398 -0.0318 -0.0852
  413MOL0     C56888  12.245   6.332   5.157  0.1091 -0.7279  0.5080
  413MOL0     C56889  12.362   6.260   5.170 -0.2075  0.1564 -0.2012
  413MOL0     C56890  12.484   6.327   5.172 -0.5043  0.8436 -0.0677
  413MOL0     C56891  12.496   6.463   5.163  0.0606 -0.2780 -0.8818
  413MOL0     O56892  12.611   6.529   5.176  0.1371 -0.5449  0.8233
  413MOL0     C56893  12.737   6.470   5.193 -0.1806 -0.2040  0.1209
  413MOL0     C56894  12.773   6.443   5.340  0.2207 -0.5810 -0.2409
  413MOL0     C56895  12.814   6.579   5.408 -0.1132 -0.8513 -0.3274
  413MOL0     C56896  12.815   6.573   5.562 -0.8399  0.4871  0.0391
  413MOL0     C56897  12.841   6.720   5.610  0.4628 -0.1206 -0.7468
  413MOL0     C56898  12.858   6.730   5.753 -0.5013 -0.2717  0.5238
  413MOL0     C56899  12.850   6.872   5.811 -0.3409 -0.0730 -0.0320
  413MOL0     C56900  12.703   6.906   5.862 -1.4939 -0.6356 -0.0066
  413MOL0    Cl56901  12.690   6.824   6.013 -0.2213 -0.2136  0.1536
  413MOL0     C56902  12.374   6.540   5.145 -0.5321 -0.3601  0.5633
  413MOL0     C56903  12.254   6.473   5.132 -0.7138  0.1621 -0.2287
  413MOL0     O56904  12.101   6.254   5.368 -0.1122 -0.9783  0.0269
  413MOL0     C56905  11.861   6.142   5.369  0.4049  0.5195  0.3671
  413MOL0     C56906  11.725   6.100   5.369 -0.2208  0.2536 -0.4789
  413MOL0     N56907  10.890   6.293   5.111  0.0909 -0.6410  0.1449
  413MOL0     N56908  10.770   6.312   5.059  0.1765  0.4526  0.2284
  413MOL0     C56909   9.674   6.069   4.682 -0.2648  0.1357 -1.5074
  413MOL0     C56910   9.549   6.075   4.734 -0.0435 -0.8477 -0.1844
  413MOL0     C56911   9.194   6.244   5.024  0.7511 -0.3557 -0.4904
  413MOL0     C56912   9.120   6.251   4.904 -0.3673 -0.8935  0.2058
  413MOL0     C56913   8.992   6.304   4.900 -0.1844  0.7170  0.0376
  413MOL0     C56914   8.933   6.367   5.011  0.7440  0.2386  0.0010
  413MOL0     O56915   8.804   6.415   5.005  0.2400  0.4077  0.5831
  413MOL0     C56916   8.725   6.440   5.118  0.2243  0.4458  0.2907
  413MOL0     C56917   8.597   6.507   5.064 -0.0781 -0.1604  0.0461
  413MOL0     C56918   8.496   6.548   5.172  0.7265  0.4260 -0.7010
  413MOL0     C56919   8.423   6.431   5.235 -1.0315 -0.3209 -0.7639
  413MOL0     C56920   8.313   6.468   5.321  0.3984  0.4912 -0.5279
  413MOL0     C56921   8.225   6.474   5.404  0.1751  0.5382  0.1510
  413MOL0     C56922   9.003   6.358   5.130 -0.6940 -0.3642  0.5919
  413MOL0     C56923   9.130   6.306   5.142  0.2063  1.2515  0.3351
  413MOL0     C56924   9.204   6.324   5.276 -0.1157  0.9631  0.2087
  413MOL0     H56925   9.578   6.294   4.982  0.0744  0.5652 -0.0073
  413MOL0     H56926   9.807   6.300   4.889  0.8489 -0.5592  0.1895
  413MOL0     H56927   9.899   6.039   4.521  1.5904 -1.4769 -1.1116
  413MOL0     H56928   9.967   5.971   4.663 -1.9044  1.9185  2.4890
  413MOL0     H56929  10.127   6.034   4.481 -1.9641  0.8051 -0.4818
  413MOL0     H56930  10.085   6.212   4.501 -2.8558 -1.4335 -2.1258
  413MOL0     H56931  10.183   6.218   4.717 -1.8504  0.7525 -0.7746
  413MOL0     H56932  10.231   6.040   4.701  1.3984  0.9497  0.0348
  413MOL0     H56933  10.360   6.083   4.501  0.2017 -1.2685  0.8437
  413MOL0     H56934  10.331   6.265   4.527  1.3774  2.1269  3.9559
  413MOL0     H56935  10.548   6.190   4.617 -1.4710 -1.4644 -1.0570
  413MOL0     H56936  10.477   6.055   4.712  2.1120  1.8209  3.5533
  413MOL0     H56937  10.413   6.348   4.740 -0.9448  1.3573  4.1477
  413MOL0     H56938  10.371   6.222   4.851 -3.0014 -0.7091 -2.0859
  413MOL0     H56939  10.579   6.374   4.889  2.3239 -0.1664 -0.8254
  413MOL0     H56940  10.671   6.280   4.790 -0.0677  1.5260  0.2238
  413MOL0     H56941  10.513   6.168   5.041 -1.1282 -3.4495  0.6876
  413MOL0     H56942  10.582   6.060   4.925 -0.2980  1.0724 -1.0672
  413MOL0     H56943  10.787   5.990   5.104  1.0128  0.7426 -0.7077
  413MOL0     H56944  11.006   5.982   5.199 -0.6017 -0.4723  0.6129
  413MOL0     H56945  11.026   6.107   5.316 -2.9637  1.1111 -0.5297
  413MOL0     H56946  11.175   6.125   5.043 -0.3551 -0.2011 -0.0343
  413MOL0     H56947  11.173   6.238   5.166  3.2864  0.6638 -4.1169
  413MOL0     H56948  11.256   6.076   5.327  1.3709 -0.4774  0.9631
  413MOL0     H56949  11.271   5.954   5.194 -1.9637  0.6666 -1.2162
  413MOL0     H56950  11.444   6.061   5.084 -2.4775  0.0254 -0.9691
  413MOL0     H56951  11.416   6.210   5.169  0.8667  0.8252 -1.2824
  413MOL0     H56952  11.645   6.152   5.040  2.2942 -1.1080 -1.0557
  413MOL0     H56953  11.976   6.200   4.986  0.6683  0.0515  2.3675
  413MOL0     H56954  11.891   6.360   5.012 -1.9810 -0.3072  0.2732
  413MOL0     H56955  11.822   6.237   4.906 -1.7153  2.1611  0.8714
  413MOL0     H56956  12.364   6.152   5.157 -1.4609  0.2956 -2.0044
  413MOL0     H56957  12.568   6.258   5.170 -2.6991 -2.2539  2.9104
  413MOL0     H56958  12.737   6.370   5.150 -1.8164  0.1645 -0.8374
  413MOL0     H56959  12.816   6.525   5.142  0.6522 -2.1118 -0.7411
  413MOL0     H56960  12.696   6.391   5.399 -1.1233  0.2902 -1.1912
  413MOL0     H56961  12.867   6.389   5.356  0.1127  0.1549  4.2055
  413MOL0     H56962  12.751   6.660   5.372  2.0826  1.2169  0.2515
  413MOL0     H56963  12.916   6.612   5.387  1.1413 -2.4681  2.5478
  413MOL0     H56964  12.894   6.501   5.584 -2.1881 -1.2458 -0.5827
  413MOL0     H56965  12.716   6.542   5.594 -0.8356  0.7424  0.3021
  413MOL0     H56966  12.941   6.746   5.575  2.6980 -2.1148  3.3477
  413MOL0     H56967  12.761   6.785   5.574  0.5753  0.7174  0.4405
  413MOL0     H56968  12.957   6.694   5.781 -0.8156 -0.0471  2.0133
  413MOL0     H56969  12.784   6.669   5.806 -1.9401  0.4433 -0.5852
  413MOL0     H56970  12.875   6.945   5.732 -3.0353  2.8282  1.5478
  413MOL0     H56971  12.926   6.886   5.889  2.8897  2.3117 -3.2377
  413MOL0     H56972  12.621   6.869   5.799  1.2131 -3.0493 -2.3772
  413MOL0     H56973  12.688   7.014   5.875  2.6490  0.3203 -1.6347
  413MOL0     H56974  12.384   6.648   5.154 -0.6329 -0.3444  0.4852
  413MOL0     H56975  12.161   6.529   5.124 -0.2486  1.8862  4.0736
  413MOL0     H56976  11.922   6.149   5.459  2.6890  1.0640 -1.1384
  413MOL0     H56977  11.681   6.063   5.461  0.0037 -0.0577 -0.4931
  413MOL0     H56978   9.695   6.005   4.597  0.2492  2.6461 -3.4034
  413MOL0     H56979   9.468   6.027   4.681 -1.1273  0.7578 -0.0424
  413MOL0     H56980   9.150   6.201   4.812  1.9405  0.7016  0.0211
  413MOL0     H56981   8.923   6.301   4.817 -1.8018  1.6339  1.2746
  413MOL0     H56982   8.702   6.350   5.177  2.3122  1.3409  2.6680
  413MOL0     H56983   8.773   6.505   5.192 -0.6010 -1.0261  2.2122
  413MOL0     H56984   8.557   6.441   4.987 -0.2525  1.9455 -1.7657
  413MOL0     H56985   8.626   6.607   5.030 -2.2626  0.1685 -1.0352
  413MOL0     H56986   8.547   6.602   5.252 -0.1193 -0.1234  0.2293
  413MOL0     H56987   8.422   6.618   5.132  1.7062  2.4346  0.8068
  413MOL0     H56988   8.492   6.364   5.287  1.7487  3.5446  1.0730
  413MOL0     H56989   8.387   6.362   5.158 -1.6380 -1.8145  0.7884
  413MOL0     H56990   8.145   6.485   5.474 -1.7709  0.0828 -1.9087
  413MOL0     H56991   8.963   6.405   5.220 -1.0755  1.9295 -0.7068
  413MOL0     H56992   9.150   6.391   5.343 -2.4514  0.5540 -1.1552
  413MOL0     H56993   9.208   6.228   5.329 -1.5996  0.4681 -0.5224
  413MOL0     H56994   9.299   6.373   5.254 -1.5296  3.1572 -1.4166
  414MOL0     O56995  10.383   9.337   8.284  0.0482 -0.1107 -0.2999
  414MOL0     C56996  10.385   9.436   8.217 -0.4161 -0.5179  0.0353
  414MOL0     O56997  10.498   9.492   8.170  0.1721  0.4618  0.5070
  414MOL0     C56998  10.613   9.443   8.216 -0.3364  0.0489  0.2647
  414MOL0     C56999  10.672   9.496   8.330  0.0664 -0.2798  2.0025
  414MOL0     C57000  10.786   9.444   8.387  0.5556 -0.0699 -0.1593
  414MOL0     C57001  10.850   9.337   8.332 -0.0786  0.4101  0.2858
  414MOL0     O57002  10.972   9.290   8.374  0.4481 -0.2942  0.3623
  414MOL0     C57003  11.074   9.394   8.352 -0.7903  0.8453 -0.0174
  414MOL0     C57004  11.184   9.368   8.450  0.2978 -0.1195 -0.0759
  414MOL0     C57005  11.275   9.484   8.470  1.1949  0.5664  0.8474
  414MOL0     C57006  11.382   9.442   8.573  1.1238  0.6117  0.3707
  414MOL0     C57007  11.505   9.523   8.543 -0.4306  0.3114 -0.4223
  414MOL0     C57008  11.634   9.470   8.617  0.4681  0.7041 -0.6879
  414MOL0     C57009  11.759   9.556   8.580  0.6359  0.6792  0.8000
  414MOL0     C57010  11.880   9.519   8.672 -0.1568  0.4824 -0.0399
  414MOL0     N57011  12.010   9.581   8.650 -0.1091 -0.0736 -0.0358
  414MOL0     C57012  12.036   9.719   8.668  0.2676  0.7297  0.5918
  414MOL0     C57013  12.164   9.731   8.623  0.1075  0.0903  0.1884
  414MOL0     C57014  12.244   9.856   8.611  0.1638  0.1370 -0.0066
  414MOL0     C57015  12.390   9.822   8.633 -0.0292  0.1577  0.3480
  414MOL0     C57016  12.464   9.945   8.654  0.2483 -0.2060 -0.8152
  414MOL0     C57017  12.598   9.896   8.711 -0.2498 -0.8866 -0.3088
  414MOL0     O57018  12.671   9.805   8.628 -0.2722 -0.3820  0.4544
  414MOL0     C57019  12.773   9.864   8.566  0.0539  0.4676  0.3649
  414MOL0     C57020  12.897   9.887   8.631 -0.3561  0.5936 -0.4138
  414MOL0     C57021  13.003   9.939   8.568 -0.4710 -0.8381 -0.7072
  414MOL0     C57022  13.121   9.938   8.654 -0.1170  0.0265 -0.4180
  414MOL0     C57023  12.988   9.976   8.433 -0.4040  0.1158  0.7123
  414MOL0     C57024  13.097  10.049   8.359 -0.0184 -0.5356 -0.0052
  414MOL0     O57025  13.052  10.131   8.258 -0.1916  0.4278  0.1589
  414MOL0     C57026  13.130  10.178   8.157  0.2680 -1.2192  0.3608
  414MOL0     C57027  13.070  10.280   8.082  0.5851  0.3200 -0.1010
  414MOL0     C57028  13.137  10.326   7.970 -0.1544 -0.7726 -0.9465
  414MOL0     C57029  13.252  10.267   7.920 -0.4367  0.2971  0.2947
  414MOL0     O57030  13.298  10.311   7.800 -0.1386  0.2959 -0.2337
  414MOL0     C57031  13.348  10.224   7.699 -0.6309 -0.1964 -0.5995
  414MOL0     C57032  13.261  10.106   7.668 -0.0851  1.0347  1.4778
  414MOL0     C57033  13.323  10.030   7.542  0.9268 -0.1992  0.6412
  414MOL0     C57034  13.215   9.924   7.486 -0.8375 -0.3311  0.1485
  414MOL0     C57035  13.268   9.834   7.368  0.0170 -0.5185 -0.0163
  414MOL0     C57036  13.271   9.910   7.230  0.6478  0.2089 -0.8857
  414MOL0     C57037  13.326   9.815   7.118 -0.4253 -0.0236 -0.0706
  414MOL0     C57038  13.362   9.897   6.999  0.5973 -0.2604 -0.7872
  414MOL0    Cl57039  13.423   9.770   6.882  0.0218 -0.2553  0.2880
  414MOL0     C57040  13.321  10.180   7.997  0.0610 -0.9218  0.2042
  414MOL0     C57041  13.258  10.127   8.115 -0.0217  0.5784 -0.4042
  414MOL0     O57042  13.217  10.016   8.378 -0.6269 -0.3360  0.7986
  414MOL0     C57043  12.872   9.938   8.364 -0.0049  0.1061  0.1256
  414MOL0     C57044  12.766   9.883   8.429  0.3608  0.4071 -0.3137
  414MOL0     N57045  12.209   9.610   8.573  0.2463 -0.3933 -0.9137
  414MOL0     N57046  12.120   9.527   8.595  0.6532 -0.5866 -0.4433
  414MOL0     C57047  10.791   9.277   8.224  0.3773  0.1241 -0.0529
  414MOL0     C57048  10.671   9.318   8.163  0.2502 -0.4337 -0.2610
  414MOL0     C57049  10.258   9.506   8.190  0.0655  0.0737 -0.1822
  414MOL0     C57050  10.264   9.595   8.078  0.0267  0.6676 -0.2941
  414MOL0     C57051  10.141   9.652   8.035 -1.1473 -0.6234 -0.1163
  414MOL0     C57052  10.018   9.616   8.093  0.4245 -0.3772  0.1597
  414MOL0     O57053   9.892   9.659   8.052 -0.5118  0.4862  0.2171
  414MOL0     C57054   9.883   9.743   7.944  0.8629 -0.2225 -0.2597
  414MOL0     C57055   9.749   9.828   7.943 -0.3852 -0.2092  0.0422
  414MOL0     C57056   9.630   9.731   7.949  0.1471  0.1687  0.7739
  414MOL0     C57057   9.506   9.799   7.915  0.7077 -0.6560  0.0087
  414MOL0     C57058   9.384   9.708   7.915  0.3064 -0.0604 -0.3681
  414MOL0     C57059   9.285   9.643   7.904  0.0443  0.4215 -0.5310
  414MOL0     C57060  10.011   9.520   8.190  0.9200  0.6636 -0.0398
  414MOL0     C57061  10.129   9.468   8.240  0.5745  0.1783  0.5938
  414MOL0     C57062  10.108   9.386   8.361  0.0069  0.7097  0.6747
  414MOL0     H57063  10.615   9.580   8.368 -1.3834 -0.5442  0.5499
  414MOL0     H57064  10.826   9.488   8.478  1.9865 -1.7175  0.0816
  414MOL0     H57065  11.032   9.493   8.373 -1.1220  0.7824 -0.3641
  414MOL0     H57066  11.104   9.399   8.247 -1.7822  1.1565 -0.2960
  414MOL0     H57067  11.147   9.327   8.544  3.3490 -2.0175  0.4317
  414MOL0     H57068  11.244   9.287   8.407 -0.5543 -1.3715  1.0187
  414MOL0     H57069  11.309   9.501   8.367 -0.0076  3.0466  0.7844
  414MOL0     H57070  11.225   9.578   8.494  0.4392  1.1612 -2.4712
  414MOL0     H57071  11.336   9.451   8.672 -1.5892 -0.1243 -0.7268
  414MOL0     H57072  11.398   9.334   8.568 -1.5785  0.0343  1.9197
  414MOL0     H57073  11.492   9.629   8.571 -1.4048 -0.2619  1.4816
  414MOL0     H57074  11.521   9.524   8.435  0.9117 -0.2178 -0.2451
  414MOL0     H57075  11.605   9.466   8.722 -1.9302 -0.2309 -1.3140
  414MOL0     H57076  11.647   9.367   8.582 -1.0786 -0.0010  0.6936
  414MOL0     H57077  11.732   9.661   8.598  2.1055  1.6318 -1.9658
  414MOL0     H57078  11.771   9.544   8.472 -0.9453 -1.2953  0.7745
  414MOL0     H57079  11.852   9.553   8.773  2.9198 -0.5623  1.2895
  414MOL0     H57080  11.895   9.411   8.672  2.4751  0.7950  0.4293
  414MOL0     H57081  11.968   9.799   8.696 -0.7599  0.3030 -0.5639
  414MOL0     H57082  12.201   9.927   8.683 -0.8812  0.8477 -1.2823
  414MOL0     H57083  12.233   9.904   8.513  0.6732 -3.4713 -2.0117
  414MOL0     H57084  12.408   9.753   8.716  5.5776 -0.5159 -1.0201
  414MOL0     H57085  12.437   9.764   8.553 -0.1491 -0.0535  0.4280
  414MOL0     H57086  12.479   9.993   8.557 -1.7348  4.1406  0.7595
  414MOL0     H57087  12.408  10.009   8.723  0.1834  0.1470 -1.1925
  414MOL0     H57088  12.653   9.989   8.727  1.0050 -1.6337 -0.1031
  414MOL0     H57089  12.594   9.863   8.815 -0.2520  2.5137  0.8927
  414MOL0     H57090  12.912   9.865   8.736 -1.8503  1.5373  0.0423
  414MOL0     H57091  13.108   9.931   8.762 -0.7607  1.4381 -0.3896
  414MOL0     H57092  13.171  10.035   8.644  0.7215 -0.4611 -1.1410
  414MOL0     H57093  13.198   9.863   8.633  0.0568  0.1296 -0.1605
  414MOL0     H57094  12.970  10.319   8.097  0.0538 -0.6096 -1.1372
  414MOL0     H57095  13.086  10.397   7.905 -1.7066  1.2127  2.1644
  414MOL0     H57096  13.360  10.280   7.606 -0.6631 -0.7155 -0.9219
  414MOL0     H57097  13.447  10.193   7.734 -0.4918 -0.9672 -1.6260
  414MOL0     H57098  13.235  10.036   7.748  1.2693 -1.6079 -0.2324
  414MOL0     H57099  13.169  10.158   7.639 -0.3262 -0.2471 -0.2181
  414MOL0     H57100  13.406   9.965   7.571 -0.4932 -2.4779 -0.0506
  414MOL0     H57101  13.347  10.095   7.457 -1.5684  0.2276  0.1689
  414MOL0     H57102  13.125   9.982   7.462 -1.9722 -0.9203  2.5678
  414MOL0     H57103  13.182   9.854   7.564 -1.3455 -1.2558 -0.8704
  414MOL0     H57104  13.371   9.809   7.394  0.7825  3.6245  1.7773
  414MOL0     H57105  13.211   9.742   7.354  1.3365 -1.4306  0.4536
  414MOL0     H57106  13.341   9.991   7.250 -0.4333  0.6570  1.5194
  414MOL0     H57107  13.171   9.945   7.203 -0.1808 -1.7414 -0.5262
  414MOL0     H57108  13.246   9.747   7.087 -1.6151  1.3796 -0.1768
  414MOL0     H57109  13.414   9.756   7.144 -0.5221 -0.6193 -1.0387
  414MOL0     H57110  13.434   9.974   7.029  1.6463 -1.1783 -0.8807
  414MOL0     H57111  13.273   9.948   6.961  0.6158  1.0463  0.8598
  414MOL0     H57112  13.426  10.162   7.976  0.1081 -1.2580  0.6893
  414MOL0     H57113  13.307  10.046   8.167  2.8102  1.5308 -1.3742
  414MOL0     H57114  12.864   9.952   8.257  0.9021  1.9539  0.2579
  414MOL0     H57115  12.682   9.860   8.365  0.8548  2.1707 -1.6949
  414MOL0     H57116  10.842   9.190   8.183 -1.0013 -0.4112 -0.7175
  414MOL0     H57117  10.619   9.264   8.085 -2.6327  0.3689  0.9827
  414MOL0     H57118  10.359   9.603   8.025  2.1502  2.3559  3.4104
  414MOL0     H57119  10.140   9.723   7.953 -3.1900  0.1442  0.5086
  414MOL0     H57120   9.964   9.816   7.930 -2.2868  3.1963 -2.5654
  414MOL0     H57121   9.896   9.692   7.849  2.9711  2.0158 -1.2882
  414MOL0     H57122   9.746   9.887   7.851 -2.4491 -0.3459 -0.0268
  414MOL0     H57123   9.744   9.900   8.025  0.1841 -0.0727 -0.0378
  414MOL0     H57124   9.650   9.664   7.864  0.6656 -1.1941  1.9264
  414MOL0     H57125   9.623   9.667   8.037 -0.8457 -1.2708 -0.2911
  414MOL0     H57126   9.512   9.840   7.814 -2.8237 -3.3636 -1.5431
  414MOL0     H57127   9.497   9.882   7.985  1.0276 -0.2319 -0.4462
  414MOL0     H57128   9.206   9.571   7.911  2.4602 -2.2543  2.3921
  414MOL0     H57129   9.915   9.489   8.229 -0.0134  1.0447 -1.9264
  414MOL0     H57130  10.164   9.292   8.353  0.8481  1.3473 -2.6560
  414MOL0     H57131  10.166   9.448   8.430  0.8022  3.4220 -2.1850
  414MOL0     H57132  10.003   9.378   8.390 -0.6825  0.6296 -1.6849
  415MOL0     O57133   5.191   7.396  10.821 -0.1215 -1.0055 -0.4617
  415MOL0     C57134   5.164   7.455  10.925  0.6916 -0.4320 -0.1723
  415MOL0     O57135   5.257   7.513  11.012 -0.2492 -0.4928  0.3705
  415MOL0     C57136   5.395   7.499  10.995  0.3123  0.1574 -1.4310
  415MOL0     C57137   5.481   7.603  11.051  0.7739 -0.2595  0.9099
  415MOL0     C57138   5.617   7.596  11.031 -0.2770  0.5621  0.3986
  415MOL0     C57139   5.680   7.494  10.958  0.1615  0.6664 -1.0893
  415MOL0     O57140   5.812   7.499  10.932  0.3461 -0.5878 -0.4231
  415MOL0     C57141   5.899   7.389  10.972 -0.4051  0.7332 -0.3319
  415MOL0     C57142   5.971   7.325  10.853  0.4808  0.9044  0.1405
  415MOL0     C57143   6.078   7.226  10.902 -0.8024  0.1059 -0.2839
  415MOL0     C57144   6.154   7.165  10.784  0.3328  0.2068 -0.1147
  415MOL0     C57145   6.280   7.082  10.830 -0.1253  0.2803  0.0545
  415MOL0     C57146   6.410   7.170  10.845  0.8493 -0.0306  0.0257
  415MOL0     C57147   6.536   7.093  10.883  0.2584 -0.0853 -0.3799
  415MOL0     C57148   6.653   7.190  10.885  0.3243 -0.8290 -0.4815
  415MOL0     N57149   6.771   7.128  10.954 -0.1350  0.4361  1.0257
  415MOL0     C57150   6.785   7.102  11.084 -0.0973  0.1614 -0.2563
  415MOL0     C57151   6.902   7.033  11.090  0.0483  0.7843  0.1781
  415MOL0     C57152   6.957   6.976  11.218 -0.0421 -0.5889  0.2512
  415MOL0     C57153   7.018   7.085  11.306 -0.3539 -0.1579  0.8923
  415MOL0     C57154   7.160   7.122  11.280  0.3893  0.4574 -0.1719
  415MOL0     C57155   7.217   7.222  11.375 -0.7510  0.8412  0.2490
  415MOL0     O57156   7.314   7.296  11.305 -0.9521 -0.3051 -0.3325
  415MOL0     C57157   7.403   7.355  11.393 -0.3588 -0.1778  0.3458
  415MOL0     C57158   7.543   7.357  11.351  0.7291  1.1506 -0.1268
  415MOL0     C57159   7.644   7.408  11.432 -0.0132  0.1662  0.7545
  415MOL0     C57160   7.786   7.406  11.378  0.3914 -0.3402 -0.2889
  415MOL0     C57161   7.615   7.450  11.562 -0.5638 -0.7297 -0.1545
  415MOL0     C57162   7.716   7.493  11.666 -0.4020  0.1588 -0.6795
  415MOL0     O57163   7.668   7.572  11.765 -0.0165 -0.1743 -0.1204
  415MOL0     C57164   7.758   7.637  11.857  0.5116  0.1654  0.2303
  415MOL0     C57165   7.879   7.602  11.912 -0.1718 -0.0558 -0.0444
  415MOL0     C57166   7.942   7.677  12.009 -0.0530 -0.3139  0.8349
  415MOL0     C57167   7.883   7.797  12.055 -0.1606  0.6484  0.0869
  415MOL0     O57168   7.937   7.875  12.156 -0.5072  0.7097  0.3260
  415MOL0     C57169   8.075   7.884  12.175 -0.7726 -0.5232  0.1771
  415MOL0     C57170   8.117   8.012  12.249  0.6185  0.0705  0.7562
  415MOL0     C57171   8.260   7.999  12.309 -0.2619  0.2388 -0.2931
  415MOL0     C57172   8.328   8.135  12.328  0.8370  0.4253  0.3910
  415MOL0     C57173   8.461   8.123  12.423 -0.4333  0.2962 -0.5855
  415MOL0     C57174   8.433   8.056  12.561  0.2735  0.5272 -0.3638
  415MOL0     C57175   8.541   8.077  12.669 -0.1823 -0.4237  0.5209
  415MOL0     C57176   8.493   8.095  12.811  0.0274  0.6346 -0.1450
  415MOL0    Cl57177   8.360   8.219  12.835  0.0267  0.0600 -0.2158
  415MOL0     C57178   7.757   7.834  12.006 -0.6540  0.3636 -0.0688
  415MOL0     C57179   7.704   7.762  11.901  0.3761  0.4069  0.0118
  415MOL0     O57180   7.826   7.449  11.655  0.7325  0.1446 -0.7951
  415MOL0     C57181   7.472   7.458  11.594  0.3621 -0.5750 -0.7120
  415MOL0     C57182   7.372   7.412  11.514  0.0006 -0.5081  0.9313
  415MOL0     N57183   6.961   7.025  10.961  0.4919 -0.8303 -0.4734
  415MOL0     N57184   6.885   7.096  10.884  0.4580  0.8936 -0.3453
  415MOL0     C57185   5.594   7.393  10.910  0.2405 -0.1307  0.7019
  415MOL0     C57186   5.453   7.387  10.935 -1.0433 -0.0080  0.5323
  415MOL0     C57187   5.026   7.449  10.979  0.2688  0.5544 -0.2507
  415MOL0     C57188   4.976   7.536  11.089 -0.8917  0.1735 -0.6424
  415MOL0     C57189   4.851   7.519  11.144 -0.1956 -0.8428 -0.2242
  415MOL0     C57190   4.761   7.421  11.099  0.2839 -0.5418  0.2750
  415MOL0     O57191   4.635   7.400  11.160  0.1255  0.1569  1.1996
  415MOL0     C57192   4.605   7.431  11.298  0.3517  0.5734 -0.7243
  415MOL0     C57193   4.504   7.334  11.356 -0.6686 -0.8419  0.0257
  415MOL0     C57194   4.368   7.349  11.278 -0.2121 -0.0679 -0.5054
  415MOL0     C57195   4.242   7.300  11.365 -0.4577  0.1350 -0.8698
  415MOL0     C57196   4.246   7.156  11.393  0.3270  0.1549  0.9560
  415MOL0     C57197   4.266   7.039  11.409  0.2985 -0.0343 -0.0107
  415MOL0     C57198   4.797   7.335  10.992 -0.7732  0.0290  0.0265
  415MOL0     C57199   4.933   7.345  10.936 -0.4898 -0.8384  0.3254
  415MOL0     C57200   4.964   7.242  10.836 -0.3278 -0.3884  0.2644
  415MOL0     H57201   5.438   7.689  11.102 -0.9749 -0.8446  0.4917
  415MOL0     H57202   5.682   7.675  11.068  3.7804 -0.3896 -3.8399
  415MOL0     H57203   5.844   7.318  11.035  1.5356 -2.8290 -2.3666
  415MOL0     H57204   5.971   7.432  11.042 -0.9698 -2.6794  2.5848
  415MOL0     H57205   5.903   7.267  10.790  0.7284  2.2970 -1.4636
  415MOL0     H57206   6.014   7.405  10.793  1.0005  0.5330  0.0095
  415MOL0     H57207   6.153   7.274  10.966 -0.8741 -0.5293  0.2951
  415MOL0     H57208   6.031   7.154  10.969  1.1048 -0.8537  0.0745
  415MOL0     H57209   6.079   7.102  10.735 -0.2384  1.2880 -0.6475
  415MOL0     H57210   6.186   7.243  10.715  0.4635  0.5198  0.2977
  415MOL0     H57211   6.313   7.019  10.747 -0.6750 -2.0667  1.5302
  415MOL0     H57212   6.266   7.014  10.915 -2.3957 -0.3073 -0.7204
  415MOL0     H57213   6.431   7.214  10.747  0.6536 -0.1056 -0.0501
  415MOL0     H57214   6.393   7.246  10.921 -1.5863 -2.6066  2.2650
  415MOL0     H57215   6.553   7.014  10.809  1.3236  0.9067 -1.2074
  415MOL0     H57216   6.530   7.037  10.977 -1.4806  1.0912  0.2580
  415MOL0     H57217   6.688   7.215  10.784 -2.1042  0.4432 -1.0724
  415MOL0     H57218   6.626   7.285  10.932 -1.6111 -2.6657  2.4707
  415MOL0     H57219   6.723   7.127  11.169 -3.1395 -2.2857 -1.5307
  415MOL0     H57220   7.037   6.906  11.195  1.2954  1.8901 -3.5840
  415MOL0     H57221   6.874   6.925  11.269  0.1599 -1.9824 -0.7445
  415MOL0     H57222   6.959   7.174  11.283 -1.8101 -1.2848  0.1978
  415MOL0     H57223   7.015   7.065  11.414  1.5009  2.3282  1.5107
  415MOL0     H57224   7.223   7.033  11.270  0.2654  0.2671  0.7347
  415MOL0     H57225   7.166   7.168  11.181  1.2212  0.0594 -0.3139
  415MOL0     H57226   7.143   7.289  11.420 -1.6196  0.2312 -0.2547
  415MOL0     H57227   7.268   7.169  11.456  1.7182  0.5577 -1.3885
  415MOL0     H57228   7.566   7.304  11.259  1.4948 -1.2463  1.3343
  415MOL0     H57229   7.776   7.385  11.271  1.9155  0.1257 -0.5516
  415MOL0     H57230   7.845   7.325  11.423  0.0688 -0.1842  0.4270
  415MOL0     H57231   7.832   7.505  11.384 -2.9038  1.3460 -0.6700
  415MOL0     H57232   7.927   7.511  11.876  0.2908 -0.4977  1.5964
  415MOL0     H57233   8.034   7.650  12.059  0.0029  1.1644  1.5967
  415MOL0     H57234   8.112   7.796  12.228 -2.5725 -3.5176 -3.1401
  415MOL0     H57235   8.121   7.888  12.076 -0.3315 -1.0876  0.3506
  415MOL0     H57236   8.118   8.098  12.181  2.4702 -0.0293  0.6180
  415MOL0     H57237   8.042   8.035  12.326  2.4267  0.0917  2.6051
  415MOL0     H57238   8.320   7.931  12.249 -1.9165 -1.8877  0.3387
  415MOL0     H57239   8.254   7.947  12.406  1.6094  0.7802  0.1506
  415MOL0     H57240   8.257   8.201  12.379 -0.0623 -1.3782  1.5938
  415MOL0     H57241   8.360   8.180  12.234  1.7314 -0.1262  0.4188
  415MOL0     H57242   8.538   8.068  12.367 -0.5275 -0.5522  0.0978
  415MOL0     H57243   8.503   8.222  12.442 -0.4484 -0.1919  2.4664
  415MOL0     H57244   8.427   7.949  12.538 -1.3965  1.0096 -2.5656
  415MOL0     H57245   8.334   8.084  12.600  1.3086  0.7445  2.2942
  415MOL0     H57246   8.599   8.162  12.633 -1.1837 -0.1959 -0.5980
  415MOL0     H57247   8.607   7.989  12.665 -0.9472 -1.2345  3.4200
  415MOL0     H57248   8.577   8.119  12.877 -1.3224  1.4409  1.3703
  415MOL0     H57249   8.455   8.003  12.856 -0.2498  1.2082  0.8510
  415MOL0     H57250   7.718   7.928  12.044  2.0682  1.0906  1.1721
  415MOL0     H57251   7.608   7.796  11.863 -0.0317  1.5121  1.9067
  415MOL0     H57252   7.430   7.507  11.682 -0.2135  2.7623 -2.6812
  415MOL0     H57253   7.268   7.420  11.544 -1.1298 -1.3675 -2.2520
  415MOL0     H57254   5.635   7.311  10.852 -0.4889 -1.4327  1.9515
  415MOL0     H57255   5.388   7.304  10.907 -0.3288 -0.2845 -0.3594
  415MOL0     H57256   5.055   7.593  11.137  0.6055 -1.2390 -1.3349
  415MOL0     H57257   4.822   7.573  11.233 -0.2743 -3.6816  1.6147
  415MOL0     H57258   4.702   7.421  11.348  1.0327  0.0973 -2.0691
  415MOL0     H57259   4.573   7.534  11.316 -0.0184  0.5223 -1.0845
  415MOL0     H57260   4.490   7.365  11.460 -1.7736 -0.4272 -0.2305
  415MOL0     H57261   4.545   7.233  11.347  1.3106  0.0170 -1.0285
  415MOL0     H57262   4.362   7.457  11.269  0.7705  0.3814  2.7605
  415MOL0     H57263   4.384   7.302  11.181  3.8653 -0.9474  0.4129
  415MOL0     H57264   4.145   7.333  11.330  0.5860  6.0851  0.7671
  415MOL0     H57265   4.264   7.355  11.457  4.0498  0.5851 -1.9721
  415MOL0     H57266   4.300   6.938  11.421 -0.1323 -0.2235 -0.3090
  415MOL0     H57267   4.726   7.270  10.942  0.2148 -0.3419 -0.9382
  415MOL0     H57268   4.969   7.282  10.735 -2.6668 -1.1894 -0.2107
  415MOL0     H57269   5.060   7.197  10.864 -1.1584 -0.9728  2.3913
  415MOL0     H57270   4.890   7.163  10.827  0.4487 -1.2840  1.3942
  416MOL0     O57271  10.183   7.356   8.735  0.1042 -0.2809  0.2165
  416MOL0     C57272  10.167   7.303   8.843 -0.0641  0.3362 -0.8086
  416MOL0     O57273  10.258   7.304   8.945 -0.2348 -0.7356 -0.3873
  416MOL0     C57274  10.361   7.405   8.959 -0.3380  0.0485  0.2291
  416MOL0     C57275  10.456   7.367   9.055  0.4774 -0.3895 -0.3700
  416MOL0     C57276  10.581   7.438   9.073 -0.5427  0.2906  0.9035
  416MOL0     C57277  10.606   7.554   8.997 -0.4368  0.5001 -0.1678
  416MOL0     O57278  10.721   7.623   9.012  0.1187  0.3124 -0.1203
  416MOL0     C57279  10.731   7.760   8.979  0.0541  0.0897  0.3219
  416MOL0     C57280  10.830   7.842   9.057 -0.0092 -0.2102  0.1432
  416MOL0     C57281  10.973   7.777   9.043 -0.1443  0.3238  0.1265
  416MOL0     C57282  11.087   7.886   9.042  0.4208  0.1999 -0.2326
  416MOL0     C57283  11.231   7.849   8.988 -0.0562 -0.5266  0.0954
  416MOL0     C57284  11.324   7.970   9.012 -0.3468  0.3893  0.1087
  416MOL0     C57285  11.453   7.962   8.922 -0.5034  0.0684 -0.5107
  416MOL0     C57286  11.569   7.912   9.016  0.1967  0.2843 -0.9370
  416MOL0     N57287  11.702   7.953   8.964 -0.0390 -0.6178 -0.5660
  416MOL0     C57288  11.745   7.918   8.840 -0.5599 -0.0954  0.2054
  416MOL0     C57289  11.863   7.990   8.818  0.2756  0.1377 -0.0063
  416MOL0     C57290  11.950   7.987   8.697  0.0525 -0.3758  0.3085
  416MOL0     C57291  12.045   7.865   8.705 -0.0105 -0.4494  0.0857
  416MOL0     C57292  12.115   7.831   8.576  0.0548  0.9146  0.3500
  416MOL0     C57293  12.221   7.928   8.525 -0.1396 -0.0604 -0.3212
  416MOL0     O57294  12.316   7.944   8.627 -0.4626  0.4982 -0.0325
  416MOL0     C57295  12.439   8.006   8.605  0.6941 -0.1053  0.5695
  416MOL0     C57296  12.476   8.060   8.484  0.0419  0.6680  0.2014
  416MOL0     C57297  12.598   8.116   8.462  0.0917 -0.7508  0.7333
  416MOL0     C57298  12.626   8.154   8.316  0.4811  0.0475  0.1216
  416MOL0     C57299  12.691   8.123   8.571  0.3850 -1.0838  0.1900
  416MOL0     C57300  12.828   8.196   8.553 -0.1075  0.3967 -0.5131
  416MOL0     O57301  12.927   8.182   8.647 -0.1572 -0.2822 -0.1413
  416MOL0     C57302  13.047   8.252   8.642 -0.2406 -0.0358 -0.0544
  416MOL0     C57303  13.045   8.392   8.614 -0.4311  0.8738 -0.0198
  416MOL0     C57304  13.170   8.454   8.612  0.4323 -0.1451  0.5136
  416MOL0     C57305  13.287   8.399   8.647  0.2395  0.3230 -1.0911
  416MOL0     O57306  13.403   8.470   8.627  0.6574  0.5660 -0.4914
  416MOL0     C57307  13.532   8.437   8.685 -0.5830  0.0519 -0.1031
  416MOL0     C57308  13.645   8.541   8.637  0.4546  0.0452 -0.3797
  416MOL0     C57309  13.648   8.570   8.489  0.3863  0.3274  0.7738
  416MOL0     C57310  13.556   8.678   8.436  0.5042 -0.2530  0.0446
  416MOL0     C57311  13.594   8.736   8.297 -0.8694  0.8203 -0.5380
  416MOL0     C57312  13.608   8.639   8.175  0.9852  0.6362  0.4629
  416MOL0     C57313  13.590   8.716   8.043 -0.3034 -0.0994 -0.1433
  416MOL0     C57314  13.589   8.625   7.928 -0.3553  0.6214  0.2791
  416MOL0    Cl57315  13.407   8.577   7.905 -0.2817 -0.1823 -0.0654
  416MOL0     C57316  13.286   8.264   8.689  0.4912 -0.5472 -0.3474
  416MOL0     C57317  13.168   8.194   8.688  0.9331  0.2168  0.0420
  416MOL0     O57318  12.836   8.281   8.465  0.4878  0.1930  0.2028
  416MOL0     C57319  12.662   8.059   8.693 -0.0908 -1.0146 -0.3519
  416MOL0     C57320  12.539   8.000   8.708  0.3558 -1.0086  0.2584
  416MOL0     N57321  11.881   8.064   8.930  0.9835  0.0648 -0.8887
  416MOL0     N57322  11.782   8.046   9.016  0.4243 -0.0802  0.2133
  416MOL0     C57323  10.497   7.595   8.914 -0.8175  0.9120  0.4957
  416MOL0     C57324  10.385   7.520   8.884  0.0046 -0.1844  0.3457
  416MOL0     C57325  10.044   7.221   8.864  0.4914 -0.2588 -0.7252
  416MOL0     C57326   9.969   7.187   8.755  0.6159  0.4142 -0.2002
  416MOL0     C57327   9.839   7.132   8.773 -0.0058  0.4623  1.5078
  416MOL0     C57328   9.777   7.111   8.891 -0.1194  0.3864 -0.4149
  416MOL0     O57329   9.651   7.066   8.895  0.0029  0.4268  0.6198
  416MOL0     C57330   9.582   7.073   9.020 -0.1333 -0.5933 -0.5481
  416MOL0     C57331   9.436   7.041   9.017  0.2972 -0.7238 -0.3189
  416MOL0     C57332   9.352   7.120   9.123  0.1534 -0.2803  0.1572
  416MOL0     C57333   9.209   7.070   9.150  0.6346 -0.1939 -0.0468
  416MOL0     C57334   9.209   6.929   9.207  0.9883  0.1887 -0.0022
  416MOL0     C57335   9.208   6.827   9.271 -0.5881 -0.1065 -0.6760
  416MOL0     C57336   9.858   7.129   9.003  0.1355  0.9618  0.2716
  416MOL0     C57337   9.981   7.196   8.996 -0.2782  0.9352  0.1177
  416MOL0     C57338  10.045   7.227   9.133  0.0847  0.3640 -0.1116
  416MOL0     H57339  10.436   7.280   9.116  2.2151 -1.5820 -1.4205
  416MOL0     H57340  10.657   7.410   9.145  0.0556  1.5083  0.7691
  416MOL0     H57341  10.636   7.813   8.994  0.4689  1.1189 -0.5204
  416MOL0     H57342  10.767   7.763   8.876  2.3902 -1.3292  1.0338
  416MOL0     H57343  10.840   7.940   9.010 -1.2538  0.0263  0.3492
  416MOL0     H57344  10.800   7.842   9.162 -0.1676  0.8367  0.1104
  416MOL0     H57345  11.000   7.711   9.126  1.8015 -2.2344 -2.3549
  416MOL0     H57346  10.977   7.713   8.954  1.2820 -0.0645  0.4515
  416MOL0     H57347  11.058   7.970   8.978  0.1988 -1.0223 -1.8040
  416MOL0     H57348  11.091   7.922   9.145 -0.0136 -1.3789  0.3619
  416MOL0     H57349  11.218   7.811   8.886  1.0880 -1.7012  0.3636
  416MOL0     H57350  11.266   7.767   9.051  0.1537 -1.4508 -1.1892
  416MOL0     H57351  11.272   8.062   8.985 -0.9351 -0.3610 -1.4515
  416MOL0     H57352  11.350   7.978   9.118 -0.5104  2.7788  0.0172
  416MOL0     H57353  11.489   8.059   8.887 -1.1335  1.1317  1.6662
  416MOL0     H57354  11.438   7.907   8.828  0.4122 -0.4737 -0.3533
  416MOL0     H57355  11.564   7.952   9.118  0.5875 -1.7458 -0.0822
  416MOL0     H57356  11.569   7.803   9.017 -1.7328  0.2268 -1.8836
  416MOL0     H57357  11.688   7.849   8.778  0.1818 -1.1739  0.6924
  416MOL0     H57358  12.002   8.082   8.680 -1.5706  0.5455  0.1877
  416MOL0     H57359  11.885   7.974   8.609 -1.2381  0.0809  1.1585
  416MOL0     H57360  12.128   7.888   8.773 -1.4939  1.6510  1.2948
  416MOL0     H57361  11.992   7.781   8.751 -0.1688  0.6535  2.0406
  416MOL0     H57362  12.178   7.745   8.604  0.6643  1.7075  1.4765
  416MOL0     H57363  12.046   7.793   8.500  2.1016 -2.1917 -0.1756
  416MOL0     H57364  12.274   7.878   8.443  1.5025 -0.3202  0.8400
  416MOL0     H57365  12.172   8.023   8.503 -0.4921 -0.1063  0.2501
  416MOL0     H57366  12.403   8.065   8.403  0.4975  0.1120 -0.2560
  416MOL0     H57367  12.622   8.263   8.306  1.4256  0.1890  1.0279
  416MOL0     H57368  12.545   8.114   8.254  1.8902 -0.6782 -1.3097
  416MOL0     H57369  12.720   8.116   8.275  0.5052 -0.5809  0.7474
  416MOL0     H57370  12.952   8.443   8.592 -0.1627  0.4376 -2.3724
  416MOL0     H57371  13.159   8.556   8.576 -0.7412 -0.5743 -0.4444
  416MOL0     H57372  13.520   8.448   8.793 -0.6330  1.1637 -0.2046
  416MOL0     H57373  13.570   8.339   8.658  0.9928  0.6355 -0.0934
  416MOL0     H57374  13.620   8.640   8.678 -1.0424 -0.0310 -1.0199
  416MOL0     H57375  13.741   8.503   8.672 -0.4210  0.1018  2.3212
  416MOL0     H57376  13.616   8.477   8.440 -1.9492  2.1990 -1.5537
  416MOL0     H57377  13.752   8.583   8.457  0.4934 -2.6909 -0.5194
  416MOL0     H57378  13.548   8.758   8.510 -2.0872 -0.2182 -0.1618
  416MOL0     H57379  13.454   8.643   8.417  1.2636 -1.5774 -2.0191
  416MOL0     H57380  13.518   8.814   8.281  0.3392  2.4510  1.2083
  416MOL0     H57381  13.696   8.774   8.295 -0.4056 -0.3856 -0.8630
  416MOL0     H57382  13.543   8.551   8.176  0.9139  0.6092 -1.7977
  416MOL0     H57383  13.707   8.592   8.177  1.1829  0.8568 -1.6772
  416MOL0     H57384  13.668   8.792   8.033 -0.7916  0.4847  0.3359
  416MOL0     H57385  13.499   8.777   8.039  0.1859  0.5966 -1.3188
  416MOL0     H57386  13.636   8.527   7.943 -0.7656  0.1252 -1.4940
  416MOL0     H57387  13.620   8.674   7.836  0.1533  0.1233  0.1765
  416MOL0     H57388  13.379   8.213   8.711 -0.7743 -3.3371 -1.0328
  416MOL0     H57389  13.157   8.094   8.730  1.2358  0.5449  0.9319
  416MOL0     H57390  12.750   8.065   8.757 -0.1023  2.4792 -0.4898
  416MOL0     H57391  12.517   7.953   8.803 -1.6808  0.8766  0.8009
  416MOL0     H57392  10.509   7.685   8.854  1.1751  0.6979  0.4781
  416MOL0     H57393  10.313   7.553   8.809  2.1293  1.6879 -0.9916
  416MOL0     H57394  10.001   7.203   8.652 -0.8337  1.2030 -0.5533
  416MOL0     H57395   9.788   7.104   8.682  1.7946  1.2868  0.1828
  416MOL0     H57396   9.642   7.011   9.088  1.4602  1.0096 -0.3974
  416MOL0     H57397   9.597   7.175   9.057 -0.5669 -1.7398  3.2821
  416MOL0     H57398   9.423   6.939   9.054  0.0134 -0.6849 -0.3073
  416MOL0     H57399   9.403   7.056   8.914  0.7368 -0.3295 -0.4052
  416MOL0     H57400   9.409   7.119   9.216 -0.5444 -1.2774  0.5902
  416MOL0     H57401   9.361   7.225   9.094  2.8239 -0.5659 -0.3170
  416MOL0     H57402   9.158   7.071   9.053  0.5191 -0.2125  0.0150
  416MOL0     H57403   9.152   7.129   9.222 -2.8142 -1.9827 -1.1001
  416MOL0     H57404   9.207   6.736   9.328  2.5165  0.2343  0.1023
  416MOL0     H57405   9.817   7.086   9.094 -0.4270  0.1444 -0.3512
  416MOL0     H57406  10.131   7.160   9.140 -2.0435 -2.4508  0.5221
  416MOL0     H57407  10.078   7.332   9.137  0.2440  0.3973 -1.6406
  416MOL0     H57408   9.985   7.209   9.222  0.1499  3.6599  0.7308
  417MOL0     O57409   5.316   4.715   0.761 -0.3293 -0.0467  0.2817
  417MOL0     C57410   5.254   4.618   0.727 -0.0627  0.7329 -0.4619
  417MOL0     O57411   5.291   4.488   0.766 -0.1719 -0.2272 -0.3330
  417MOL0     C57412   5.411   4.474   0.818  0.0682 -0.1853 -0.6211
  417MOL0     C57413   5.422   4.386   0.923 -0.1196  0.8002 -0.2775
  417MOL0     C57414   5.547   4.339   0.976  0.2030  0.1235  0.0220
  417MOL0     C57415   5.663   4.393   0.915  0.6539 -0.5210  0.2114
  417MOL0     O57416   5.786   4.341   0.959  0.0904 -0.3850  0.0639
  417MOL0     C57417   5.887   4.443   0.975  0.2379  0.7814  0.6274
  417MOL0     C57418   6.020   4.383   1.016  0.0273  0.7299 -0.4573
  417MOL0     C57419   6.072   4.273   0.919 -0.2869  0.4111 -0.3695
  417MOL0     C57420   6.144   4.320   0.794  0.2840  0.2248 -0.0694
  417MOL0     C57421   6.199   4.210   0.709 -0.6577  0.2160 -0.7884
  417MOL0     C57422   6.299   4.123   0.797  0.0075 -0.3699  0.7473
  417MOL0     C57423   6.439   4.176   0.777  0.1682 -0.7439  0.0641
  417MOL0     C57424   6.543   4.080   0.837  0.2461 -0.1949  1.0010
  417MOL0     N57425   6.573   4.119   0.971  0.0326 -0.1969  0.3358
  417MOL0     C57426   6.670   4.213   0.999  0.5220  0.8533 -0.0322
  417MOL0     C57427   6.638   4.253   1.122  0.6488 -0.8065 -0.1528
  417MOL0     C57428   6.703   4.370   1.190 -0.0290  0.4219  0.2467
  417MOL0     C57429   6.812   4.319   1.281 -0.0114  0.9935 -0.2024
  417MOL0     C57430   6.778   4.299   1.431  0.2683 -0.3099  0.2199
  417MOL0     C57431   6.880   4.236   1.528  0.3128 -0.0018  0.1038
  417MOL0     O57432   6.975   4.334   1.543  0.4527  0.3758 -0.2289
  417MOL0     C57433   7.102   4.289   1.584  1.0768  0.4187 -0.0972
  417MOL0     C57434   7.121   4.265   1.719 -0.7003  1.0859  1.0227
  417MOL0     C57435   7.226   4.179   1.761 -0.0250 -0.5821  0.5996
  417MOL0     C57436   7.222   4.143   1.909 -0.9388 -0.4802  0.1356
  417MOL0     C57437   7.324   4.138   1.670  0.3062  0.8229  0.7172
  417MOL0     C57438   7.442   4.051   1.702  0.1865 -0.6232  0.7737
  417MOL0     O57439   7.548   4.067   1.620  0.1606 -0.1479  0.2182
  417MOL0     C57440   7.670   4.018   1.662  0.5962 -0.5140  1.0164
  417MOL0     C57441   7.690   3.884   1.662  0.2309 -0.3393 -0.1199
  417MOL0     C57442   7.821   3.838   1.676  0.2426  0.3158 -0.9582
  417MOL0     C57443   7.925   3.923   1.699 -0.0067 -0.2249 -0.2464
  417MOL0     O57444   8.047   3.863   1.729 -0.4295  0.4813  0.3567
  417MOL0     C57445   8.170   3.927   1.697  1.0234 -0.1567  0.5331
  417MOL0     C57446   8.280   3.856   1.776 -0.6032  0.8678  0.0721
  417MOL0     C57447   8.267   3.848   1.935 -0.4402  0.1754 -0.1837
  417MOL0     C57448   8.393   3.804   2.005  0.3778 -0.4274 -0.1681
  417MOL0     C57449   8.431   3.664   1.962 -0.7161  0.2570 -0.5274
  417MOL0     C57450   8.545   3.600   2.035 -0.1257  0.4418  0.4109
  417MOL0     C57451   8.552   3.456   1.960 -0.1294 -0.1478 -0.0741
  417MOL0     C57452   8.587   3.354   2.067 -0.5738  0.4255 -0.1756
  417MOL0    Cl57453   8.757   3.373   2.129 -0.3249  0.0857  0.4330
  417MOL0     C57454   7.902   4.059   1.698  0.0023  0.1949  0.3529
  417MOL0     C57455   7.774   4.105   1.668  1.1391  0.9863 -0.0309
  417MOL0     O57456   7.429   3.955   1.777  0.2271 -0.9438 -0.1300
  417MOL0     C57457   7.303   4.170   1.535 -0.8020  0.0450  1.1921
  417MOL0     C57458   7.197   4.246   1.492  0.5622 -0.2056 -0.3012
  417MOL0     N57459   6.532   4.185   1.169  0.3190 -0.3020  0.2333
  417MOL0     N57460   6.495   4.101   1.081  0.5078 -0.0881  0.1424
  417MOL0     C57461   5.649   4.466   0.797  0.2204 -0.3122  0.4419
  417MOL0     C57462   5.527   4.509   0.753 -0.5389  0.2306 -0.2506
  417MOL0     C57463   5.128   4.643   0.657  0.8210  0.1265 -0.6910
  417MOL0     C57464   5.070   4.775   0.678 -0.4115  0.2007 -0.0892
  417MOL0     C57465   4.954   4.821   0.607  0.1007  0.3095 -0.1382
  417MOL0     C57466   4.893   4.730   0.515  0.7052  0.1341  0.2323
  417MOL0     O57467   4.784   4.776   0.439  0.2796 -0.4490 -0.2696
  417MOL0     C57468   4.708   4.681   0.368 -0.3131  0.1643  0.1204
  417MOL0     C57469   4.594   4.751   0.309  0.5292  0.3731 -0.5221
  417MOL0     C57470   4.487   4.656   0.256 -0.2815 -0.1633 -0.3639
  417MOL0     C57471   4.391   4.707   0.157  0.1050 -0.8289 -0.3533
  417MOL0     C57472   4.279   4.614   0.137 -0.2676  0.1789 -0.4593
  417MOL0     C57473   4.200   4.546   0.093  0.1036 -0.2142 -0.5147
  417MOL0     C57474   4.949   4.602   0.495 -1.0383  0.2540 -0.0617
  417MOL0     C57475   5.060   4.555   0.570  0.1165 -0.7011  0.1598
  417MOL0     C57476   5.111   4.413   0.538  0.5899  0.1358 -0.4335
  417MOL0     H57477   5.329   4.345   0.962  0.8560 -0.9260  0.3092
  417MOL0     H57478   5.548   4.263   1.053  0.0821 -0.6058 -0.6909
  417MOL0     H57479   5.847   4.505   1.056  0.7904  0.4859  1.1334
  417MOL0     H57480   5.890   4.499   0.881 -0.3865 -1.3632 -0.7668
  417MOL0     H57481   6.096   4.461   1.025  2.8603 -1.4476 -3.1352
  417MOL0     H57482   6.001   4.339   1.114  4.2394  0.3932  0.4313
  417MOL0     H57483   6.143   4.217   0.981 -0.2817  0.9407  0.1044
  417MOL0     H57484   5.989   4.208   0.889  0.6796 -1.1408  0.1952
  417MOL0     H57485   6.072   4.375   0.734  1.6492  2.4561  0.1990
  417MOL0     H57486   6.227   4.389   0.816  0.8026  0.7133 -3.1430
  417MOL0     H57487   6.253   4.250   0.623  0.7773  0.2295  0.0858
  417MOL0     H57488   6.129   4.142   0.659  0.5080 -1.2347 -0.5231
  417MOL0     H57489   6.286   4.113   0.905  1.2548  1.0052  1.0629
  417MOL0     H57490   6.304   4.026   0.747 -0.2152  1.5246 -3.3902
  417MOL0     H57491   6.445   4.276   0.822 -0.3488 -0.8333  0.3373
  417MOL0     H57492   6.453   4.189   0.670 -1.9903  2.5195  0.0163
  417MOL0     H57493   6.511   3.976   0.823  0.2316 -0.1568  0.7479
  417MOL0     H57494   6.638   4.079   0.783  0.3283 -3.0578  1.0158
  417MOL0     H57495   6.750   4.242   0.933  4.1599 -2.1977  2.6042
  417MOL0     H57496   6.628   4.416   1.256  1.2303  2.1497  0.5167
  417MOL0     H57497   6.735   4.450   1.123 -0.0500  0.1414 -0.1062
  417MOL0     H57498   6.847   4.231   1.227 -0.0102  1.4968 -1.0610
  417MOL0     H57499   6.897   4.387   1.273  2.3351 -1.7586  0.1774
  417MOL0     H57500   6.754   4.394   1.480 -2.1002 -0.9574  0.4361
  417MOL0     H57501   6.686   4.241   1.440 -1.5123  2.1285 -1.0045
  417MOL0     H57502   6.840   4.202   1.623 -1.6680  2.3984  0.2223
  417MOL0     H57503   6.929   4.151   1.480  1.6485 -1.5137  3.7833
  417MOL0     H57504   7.049   4.306   1.790 -1.6930  0.6379  0.3080
  417MOL0     H57505   7.121   4.116   1.941 -1.4967  1.0372 -0.2561
  417MOL0     H57506   7.258   4.222   1.975  0.5860 -3.1692  2.7815
  417MOL0     H57507   7.288   4.058   1.930  1.0781  0.5120 -1.8317
  417MOL0     H57508   7.608   3.816   1.643 -1.3276  0.1971  3.8300
  417MOL0     H57509   7.830   3.731   1.686  0.4208  0.2078 -2.1367
  417MOL0     H57510   8.172   3.920   1.588  0.9576  3.2120  0.2086
  417MOL0     H57511   8.162   4.031   1.730  1.7510 -0.5291  1.9606
  417MOL0     H57512   8.297   3.754   1.742  0.2765  1.2897 -0.7942
  417MOL0     H57513   8.371   3.909   1.749 -0.2967 -0.3757 -1.4347
  417MOL0     H57514   8.186   3.785   1.971  2.6904 -3.3538  1.3240
  417MOL0     H57515   8.248   3.951   1.969  1.8258  0.7212 -0.4257
  417MOL0     H57516   8.366   3.812   2.111  0.1321  1.0951 -0.3226
  417MOL0     H57517   8.476   3.874   1.993  0.5639 -0.4082  1.0857
  417MOL0     H57518   8.341   3.603   1.977  0.1127 -0.7605  0.5420
  417MOL0     H57519   8.457   3.656   1.856  0.7925 -0.4450 -0.1235
  417MOL0     H57520   8.534   3.594   2.144  2.3456 -1.9151  0.6395
  417MOL0     H57521   8.637   3.656   2.016 -1.7333  2.3943 -2.2794
  417MOL0     H57522   8.615   3.463   1.871 -1.2757  0.7679 -0.8366
  417MOL0     H57523   8.456   3.427   1.918  0.6779  1.0024 -2.8939
  417MOL0     H57524   8.591   3.252   2.029  1.3306  0.3618  0.1232
  417MOL0     H57525   8.525   3.373   2.155 -0.0400 -1.8230  0.7327
  417MOL0     H57526   7.979   4.133   1.719  2.7098 -2.0764 -0.8388
  417MOL0     H57527   7.745   4.210   1.672  0.4355  0.7617  1.1722
  417MOL0     H57528   7.371   4.124   1.464 -0.8795  2.2737 -0.4445
  417MOL0     H57529   7.170   4.269   1.390  1.4862  1.2575 -0.2533
  417MOL0     H57530   5.731   4.491   0.730  2.1303  0.9444  3.0723
  417MOL0     H57531   5.516   4.559   0.657 -0.8236  0.2099 -0.2281
  417MOL0     H57532   5.120   4.848   0.740 -0.9416  1.1844 -0.7834
  417MOL0     H57533   4.917   4.919   0.634  0.3881 -0.3733  3.1108
  417MOL0     H57534   4.770   4.650   0.284 -0.1204  2.2518 -0.5687
  417MOL0     H57535   4.677   4.596   0.429  2.7310  0.9317  3.0215
  417MOL0     H57536   4.638   4.810   0.228  1.5482 -0.8278 -0.8688
  417MOL0     H57537   4.558   4.816   0.389  1.4546 -0.9059  0.9720
  417MOL0     H57538   4.538   4.567   0.218  2.3623  1.8271 -1.7448
  417MOL0     H57539   4.431   4.633   0.348  2.3151 -4.1178  0.4569
  417MOL0     H57540   4.437   4.722   0.059 -0.1364  0.9803 -0.2167
  417MOL0     H57541   4.340   4.798   0.189 -1.7264 -1.3328 -1.6897
  417MOL0     H57542   4.129   4.475   0.056  0.4039 -2.1554  2.3125
  417MOL0     H57543   4.919   4.533   0.417 -0.2435  2.2391 -2.2442
  417MOL0     H57544   5.059   4.373   0.450  0.4353 -1.8849  0.5255
  417MOL0     H57545   5.217   4.419   0.510  1.1627 -0.8657  1.3367
  417MOL0     H57546   5.104   4.340   0.619 -2.7981 -0.9144 -1.5121
  418MOL0     O57547   5.064   1.644   4.265  0.6322 -0.0826 -0.4342
  418MOL0     C57548   5.037   1.532   4.217  0.0658 -0.1684 -0.6932
  418MOL0     O57549   4.940   1.450   4.269  0.5516 -0.2123 -0.4459
  418MOL0     C57550   4.857   1.490   4.373 -0.0076  0.5014  0.4382
  418MOL0     C57551   4.887   1.575   4.475 -0.5031  0.3575 -0.8973
  418MOL0     C57552   4.784   1.613   4.568 -0.4194  0.1539  0.0205
  418MOL0     C57553   4.649   1.566   4.553  0.1165  0.0715 -0.0831
  418MOL0     O57554   4.537   1.605   4.628  0.1224  0.0645 -0.2309
  418MOL0     C57555   4.532   1.748   4.635  0.3867 -0.3578 -0.5559
  418MOL0     C57556   4.382   1.784   4.651  0.1564  0.2362 -0.1318
  418MOL0     C57557   4.353   1.919   4.594  0.1529 -0.4402  0.2167
  418MOL0     C57558   4.224   1.987   4.656 -0.2303  0.4141  0.6621
  418MOL0     C57559   4.205   2.129   4.606  0.1559  0.1424 -0.1859
  418MOL0     C57560   4.308   2.232   4.654  0.1504  0.7668 -0.1640
  418MOL0     C57561   4.321   2.249   4.801  0.0542  0.7184 -1.1349
  418MOL0     C57562   4.415   2.367   4.826  0.5507  0.3049  0.2055
  418MOL0     N57563   4.494   2.338   4.946  0.2546 -0.4082 -0.2928
  418MOL0     C57564   4.466   2.356   5.079  0.2848 -0.2945  0.4974
  418MOL0     C57565   4.580   2.332   5.146 -0.0359  0.4094 -0.1095
  418MOL0     C57566   4.600   2.340   5.294 -0.2000 -0.1326 -0.0354
  418MOL0     C57567   4.513   2.242   5.366 -0.4434  0.3899  0.4891
  418MOL0     C57568   4.506   2.261   5.525 -0.2875  0.9973 -0.7836
  418MOL0     C57569   4.448   2.137   5.598 -0.2452  0.1019 -0.3241
  418MOL0     O57570   4.551   2.046   5.624 -1.0556 -1.0523 -0.5174
  418MOL0     C57571   4.563   1.926   5.553  0.8991  0.7279 -0.1316
  418MOL0     C57572   4.684   1.869   5.519 -0.6083  0.7783  0.3695
  418MOL0     C57573   4.712   1.755   5.451  0.6961  0.9323  0.2401
  418MOL0     C57574   4.855   1.707   5.456  0.7804  0.1760 -0.1288
  418MOL0     C57575   4.604   1.680   5.412 -0.3201  0.8528 -0.0604
  418MOL0     C57576   4.604   1.559   5.326  0.1896 -0.3675 -0.0403
  418MOL0     O57577   4.484   1.509   5.290 -0.4301  0.4295 -0.2578
  418MOL0     C57578   4.501   1.434   5.175 -0.0590 -0.3160 -0.1350
  418MOL0     C57579   4.476   1.477   5.046  0.3988 -0.2764  0.2636
  418MOL0     C57580   4.504   1.389   4.937 -0.0536 -1.1707  0.4064
  418MOL0     C57581   4.541   1.258   4.944  0.1533  1.0245  0.1524
  418MOL0     O57582   4.566   1.166   4.840  0.7711 -0.0890 -0.1710
  418MOL0     C57583   4.679   1.194   4.755  0.3475  0.4344 -0.3512
  418MOL0     C57584   4.812   1.226   4.828  0.4362  0.0186  0.0509
  418MOL0     C57585   4.848   1.105   4.908  0.5278 -0.1890 -0.3363
  418MOL0     C57586   4.965   1.134   5.005  0.2015 -0.2557  0.7182
  418MOL0     C57587   5.009   1.007   5.068 -0.7726  0.3233  0.0087
  418MOL0     C57588   5.087   1.015   5.199 -0.5120  0.2794 -0.0107
  418MOL0     C57589   5.094   0.876   5.265  0.1097  0.0407  0.0496
  418MOL0     C57590   5.184   0.876   5.396 -0.3143 -0.1536  0.1805
  418MOL0    Cl57591   5.345   0.900   5.329  0.0570 -0.0307  0.4580
  418MOL0     C57592   4.551   1.214   5.074  0.9214  0.7700  0.3556
  418MOL0     C57593   4.525   1.295   5.188 -0.6402  0.3370  0.1570
  418MOL0     O57594   4.716   1.511   5.294  0.2344 -0.3226  0.1094
  418MOL0     C57595   4.475   1.719   5.457  0.3312 -0.6729 -0.3812
  418MOL0     C57596   4.454   1.844   5.517  0.1703  0.0653 -0.3724
  418MOL0     N57597   4.673   2.290   5.052  0.2617 -0.0352  0.5277
  418MOL0     N57598   4.619   2.293   4.938  0.2268  0.0311 -0.5209
  418MOL0     C57599   4.626   1.475   4.454 -0.1991 -0.1162  0.3234
  418MOL0     C57600   4.728   1.440   4.359  0.3798 -0.2157 -0.1821
  418MOL0     C57601   5.116   1.486   4.101  0.7230  0.0075  0.2308
  418MOL0     C57602   5.223   1.569   4.055  0.0612  0.1332  0.8143
  418MOL0     C57603   5.297   1.548   3.936 -0.2475 -0.3519 -0.3482
  418MOL0     C57604   5.282   1.433   3.865  1.1888 -0.8777  0.4417
  418MOL0     O57605   5.338   1.399   3.745 -0.7613  0.0274  0.1976
  418MOL0     C57606   5.459   1.469   3.691  0.6749 -0.8991  0.5134
  418MOL0     C57607   5.430   1.607   3.613  0.0405 -0.4133  1.2337
  418MOL0     C57608   5.287   1.616   3.553  0.1993 -0.2494 -0.2562
  418MOL0     C57609   5.274   1.539   3.422 -0.1383  0.3039  0.9279
  418MOL0     C57610   5.147   1.529   3.354  0.5600  0.6167 -0.2582
  418MOL0     C57611   5.043   1.534   3.295 -0.5093  0.1164  0.5420
  418MOL0     C57612   5.184   1.345   3.911 -0.3149 -0.0317 -0.4042
  418MOL0     C57613   5.092   1.372   4.020  0.0886  0.2012  0.0584
  418MOL0     C57614   4.966   1.286   4.039  0.3694 -0.5663  0.1546
  418MOL0     H57615   4.987   1.614   4.490  0.1594 -1.9635  1.2895
  418MOL0     H57616   4.793   1.686   4.648  0.9152 -0.6385  0.6165
  418MOL0     H57617   4.584   1.797   4.552 -1.0543  3.9539  0.8532
  418MOL0     H57618   4.583   1.782   4.725 -0.6327 -1.0933  0.3205
  418MOL0     H57619   4.323   1.718   4.586 -0.9769  0.1217  0.9592
  418MOL0     H57620   4.354   1.775   4.756  0.7362  0.5939  0.0530
  418MOL0     H57621   4.435   1.991   4.600  1.5708 -1.3282 -4.2171
  418MOL0     H57622   4.333   1.912   4.487 -0.5904  3.8343 -0.0734
  418MOL0     H57623   4.141   1.928   4.616 -0.3707  0.9802  0.0990
  418MOL0     H57624   4.224   1.973   4.765  1.0297 -2.0203  0.3981
  418MOL0     H57625   4.113   2.172   4.647  1.0546  4.1674 -1.8694
  418MOL0     H57626   4.205   2.133   4.496 -3.7035 -0.9536 -0.3605
  418MOL0     H57627   4.408   2.199   4.624 -0.7583 -0.6963 -1.7804
  418MOL0     H57628   4.292   2.328   4.605 -0.8134  2.0214  2.4546
  418MOL0     H57629   4.360   2.154   4.840  1.7087  1.9407  0.3500
  418MOL0     H57630   4.218   2.265   4.836  0.2827  2.4033 -1.1855
  418MOL0     H57631   4.483   2.384   4.742 -0.3285  4.9647  0.1440
  418MOL0     H57632   4.365   2.464   4.828 -0.7435 -0.2810 -1.6532
  418MOL0     H57633   4.375   2.398   5.120  0.4762 -0.1386  0.7678
  418MOL0     H57634   4.584   2.443   5.329  1.1775 -0.1340  0.6767
  418MOL0     H57635   4.704   2.318   5.320  0.0922 -1.1598 -1.9388
  418MOL0     H57636   4.407   2.257   5.347 -0.1540  2.2614  0.1457
  418MOL0     H57637   4.544   2.139   5.343 -1.9620 -0.2115  0.9976
  418MOL0     H57638   4.609   2.270   5.560 -0.7188  3.2010  0.0899
  418MOL0     H57639   4.454   2.354   5.551 -1.5318 -0.5146  2.7641
  418MOL0     H57640   4.405   2.145   5.699  0.2959  0.1976 -0.0968
  418MOL0     H57641   4.373   2.089   5.535 -0.9639  1.8246 -0.8586
  418MOL0     H57642   4.769   1.928   5.553  0.7308 -1.4941  1.2386
  418MOL0     H57643   4.911   1.769   5.527  1.1935  0.7398 -0.9441
  418MOL0     H57644   4.906   1.713   5.360  1.2699 -1.1444  0.0230
  418MOL0     H57645   4.851   1.607   5.502 -2.3053  0.4295  0.3781
  418MOL0     H57646   4.440   1.578   5.025 -3.5812 -1.6126 -0.3174
  418MOL0     H57647   4.499   1.451   4.848 -1.6146  2.8654  3.0316
  418MOL0     H57648   4.702   1.122   4.676 -1.2733 -0.6890  0.1616
  418MOL0     H57649   4.652   1.290   4.710  1.0965  0.7074 -0.2391
  418MOL0     H57650   4.885   1.254   4.751 -0.5726  1.4722 -0.4221
  418MOL0     H57651   4.788   1.310   4.894  0.7010 -0.9751  1.4476
  418MOL0     H57652   4.863   1.023   4.837  1.1809  0.4259 -0.9348
  418MOL0     H57653   4.760   1.080   4.968  0.2487  0.8886 -0.2837
  418MOL0     H57654   4.940   1.209   5.080 -0.5431  0.2138  0.0243
  418MOL0     H57655   5.049   1.165   4.942  1.4359 -1.3972  1.7551
  418MOL0     H57656   4.929   0.936   5.093  1.3268 -2.2040  0.0136
  418MOL0     H57657   5.072   0.957   4.993 -0.2393 -2.3108  2.0286
  418MOL0     H57658   5.037   1.092   5.258  2.1068  0.4437  2.1794
  418MOL0     H57659   5.182   1.058   5.164  0.1639 -1.2653 -0.2017
  418MOL0     H57660   5.139   0.818   5.184 -2.9320 -0.6674 -1.2837
  418MOL0     H57661   4.992   0.844   5.288  0.1408 -0.7114 -0.7984
  418MOL0     H57662   5.183   0.781   5.450  1.0646 -0.1102  0.3088
  418MOL0     H57663   5.139   0.954   5.458  0.0702  0.8897 -0.8123
  418MOL0     H57664   4.587   1.113   5.092 -1.7990 -0.0186  1.7929
  418MOL0     H57665   4.529   1.251   5.287  1.3383 -2.1506 -0.9095
  418MOL0     H57666   4.382   1.665   5.453  0.4580 -0.8687 -3.6974
  418MOL0     H57667   4.355   1.870   5.553  0.6423  1.6753 -0.1743
  418MOL0     H57668   4.534   1.421   4.437  1.4826 -2.4636 -2.1944
  418MOL0     H57669   4.713   1.358   4.289 -0.3970 -2.3320  2.3265
  418MOL0     H57670   5.241   1.663   4.108  2.4740 -0.2518  0.7666
  418MOL0     H57671   5.381   1.612   3.911 -1.0659  1.2843  0.9218
  418MOL0     H57672   5.536   1.481   3.768  1.0312 -0.3043  0.0700
  418MOL0     H57673   5.503   1.410   3.610 -1.9521  0.8059 -2.3610
  418MOL0     H57674   5.510   1.625   3.541 -0.8058 -2.0558 -0.1712
  418MOL0     H57675   5.432   1.690   3.685  2.3071 -0.6168  1.4960
  418MOL0     H57676   5.223   1.570   3.628  0.5487  2.1793  1.6608
  418MOL0     H57677   5.263   1.722   3.536 -1.1715 -0.7110 -1.3060
  418MOL0     H57678   5.320   1.440   3.431 -1.8091 -0.9693 -2.5298
  418MOL0     H57679   5.335   1.594   3.349  1.5989  2.0187  3.4996
  418MOL0     H57680   4.958   1.524   3.230 -0.2434  0.7042  0.0880
  418MOL0     H57681   5.167   1.265   3.840  2.9359 -1.9454  0.7754
  418MOL0     H57682   4.960   1.234   4.135  0.9374  2.8544  2.2087
  418MOL0     H57683   4.873   1.343   4.040  0.3661 -0.5567  2.1351
  418MOL0     H57684   4.961   1.217   3.954 -1.4043  3.4278 -3.3211
  419MOL0     O57685  10.915  11.298   6.772  0.6582 -0.4782  0.0404
  419MOL0     C57686  10.834  11.223   6.825  0.6852 -0.1221 -0.6130
  419MOL0     O57687  10.865  11.104   6.882  0.1201  0.1016 -0.1262
  419MOL0     C57688  10.991  11.061   6.888 -0.5974  0.3348 -0.6211
  419MOL0     C57689  11.073  11.065   6.775  0.1173 -0.4894  0.3331
  419MOL0     C57690  11.206  11.021   6.783 -0.8183 -0.6325 -0.4338
  419MOL0     C57691  11.257  10.970   6.902 -0.0818  0.0881  0.2927
  419MOL0     O57692  11.388  10.931   6.914 -0.4475 -0.0140 -0.3189
  419MOL0     C57693  11.474  10.930   6.803  0.2359 -0.4830  0.7759
  419MOL0     C57694  11.625  10.929   6.839  0.6877 -0.0680  0.3392
  419MOL0     C57695  11.647  11.058   6.916  0.0303  0.9757  0.0346
  419MOL0     C57696  11.795  11.058   6.956  0.4516  0.3272 -0.3078
  419MOL0     C57697  11.814  11.179   7.058  0.2013  0.3550  0.3123
  419MOL0     C57698  11.962  11.212   7.085 -0.0465 -0.0526 -0.5206
  419MOL0     C57699  12.044  11.236   6.956  0.8094 -0.6871  0.5217
  419MOL0     C57700  12.182  11.269   7.009  0.7364  0.0797 -0.3135
  419MOL0     N57701  12.268  11.351   6.916  0.5946 -0.0905 -0.4524
  419MOL0     C57702  12.356  11.294   6.833 -0.6006  0.1517 -0.0407
  419MOL0     C57703  12.434  11.399   6.790 -2.0767 -0.1437  0.0814
  419MOL0     C57704  12.553  11.413   6.696  0.4905 -0.1866 -0.6208
  419MOL0     C57705  12.660  11.315   6.733  0.8229  0.5341 -0.0975
  419MOL0     C57706  12.807  11.363   6.704  0.2367 -0.0123  0.0728
  419MOL0     C57707  12.903  11.266   6.644  0.1620  0.4008 -0.0389
  419MOL0     O57708  13.037  11.308   6.668  0.4839  0.3345  0.6483
  419MOL0     C57709  13.145  11.225   6.630 -0.7157  0.1164  0.8387
  419MOL0     C57710  13.148  11.098   6.563  0.6775  0.0226  0.0137
  419MOL0     C57711  13.264  11.038   6.513 -0.0443 -0.6290 -0.2382
  419MOL0     C57712  13.257  10.898   6.450 -0.2675 -0.3215  0.1353
  419MOL0     C57713  13.385  11.100   6.542 -0.5455  0.6096  0.5410
  419MOL0     C57714  13.517  11.050   6.481 -0.6755  0.3108 -0.0933
  419MOL0     O57715  13.632  11.078   6.561 -0.8205 -0.0350  0.8159
  419MOL0     C57716  13.749  11.036   6.501  1.1578 -0.5310 -0.2300
  419MOL0     C57717  13.769  10.902   6.470  1.1509 -0.9134  0.0765
  419MOL0     C57718  13.882  10.862   6.412  0.1824 -0.0526  0.4767
  419MOL0     C57719  13.989  10.948   6.375 -0.1060  0.1071 -0.3780
  419MOL0     O57720  14.101  10.909   6.320  0.1111 -1.0659  0.3492
  419MOL0     C57721  14.107  10.773   6.280  0.0550 -0.0690 -0.4400
  419MOL0     C57722  14.229  10.760   6.191  0.1207 -0.0461 -0.5099
  419MOL0     C57723  14.263  10.619   6.156 -0.4988  0.2292 -0.3646
  419MOL0     C57724  14.345  10.614   6.018 -0.2715 -0.3424 -0.4653
  419MOL0     C57725  14.477  10.681   6.041 -0.6246 -0.2781 -0.0366
  419MOL0     C57726  14.568  10.648   5.927 -0.0907  0.7760 -0.1013
  419MOL0     C57727  14.703  10.711   5.934 -0.1057  0.5155  0.1319
  419MOL0     C57728  14.792  10.665   5.818  0.5703 -1.1035  0.1084
  419MOL0    Cl57729  14.950  10.766   5.804 -0.0566  0.4642 -0.3726
  419MOL0     C57730  13.976  11.080   6.421  0.1013 -0.2699 -0.3559
  419MOL0     C57731  13.860  11.125   6.487  1.1077  0.9670  0.4394
  419MOL0     O57732  13.519  10.983   6.370 -0.5162 -0.2851 -0.4432
  419MOL0     C57733  13.387  11.219   6.616  0.0725  0.0637 -0.1247
  419MOL0     C57734  13.267  11.283   6.656 -0.1405 -0.5508  0.3150
  419MOL0     N57735  12.380  11.514   6.841 -0.2741  0.0525  0.3740
  419MOL0     N57736  12.286  11.486   6.926 -0.5261 -0.3226  0.0408
  419MOL0     C57737  11.175  10.973   7.011 -0.0435 -0.3105 -0.1230
  419MOL0     C57738  11.037  11.012   7.011 -0.7522  0.1681  0.6108
  419MOL0     C57739  10.689  11.251   6.808  1.0590  0.0103 -0.1434
  419MOL0     C57740  10.654  11.374   6.736 -0.5920  0.4502  0.7666
  419MOL0     C57741  10.526  11.404   6.693  0.1046  0.7379 -0.0012
  419MOL0     C57742  10.420  11.323   6.719  0.1902 -0.8735 -0.6487
  419MOL0     O57743  10.295  11.352   6.665  0.1260  0.1533  0.7842
  419MOL0     C57744  10.186  11.261   6.685 -0.1860 -0.3697 -0.5983
  419MOL0     C57745  10.115  11.298   6.817 -0.0572  0.2126 -0.8180
  419MOL0     C57746  10.003  11.198   6.836  0.6636  0.1513 -0.4080
  419MOL0     C57747   9.902  11.246   6.942 -0.5072  0.5585 -0.1538
  419MOL0     C57748   9.818  11.360   6.902 -0.2534  0.6296  0.1445
  419MOL0     C57749   9.753  11.456   6.873  0.1992 -0.1451  0.4809
  419MOL0     C57750  10.452  11.202   6.794 -0.3049 -0.5596 -0.2762
  419MOL0     C57751  10.576  11.163   6.838 -0.8107 -0.0569 -0.0791
  419MOL0     C57752  10.594  11.040   6.931 -0.6387 -0.5359  0.1127
  419MOL0     H57753  11.028  11.101   6.683 -0.7154 -0.7919  0.6117
  419MOL0     H57754  11.261  11.027   6.690  0.0640  3.3610  0.1843
  419MOL0     H57755  11.453  11.023   6.750  0.2098 -0.8842  0.0740
  419MOL0     H57756  11.454  10.850   6.731  1.1441  0.5389 -0.6474
  419MOL0     H57757  11.651  10.842   6.901 -0.6649  1.3296  3.0370
  419MOL0     H57758  11.686  10.930   6.749  1.6015  0.6846  0.9576
  419MOL0     H57759  11.633  11.137   6.842 -1.2294 -0.6316 -1.5310
  419MOL0     H57760  11.577  11.072   6.999 -0.8121  1.5052 -0.7495
  419MOL0     H57761  11.819  10.956   6.989  1.3378  0.3392 -0.9007
  419MOL0     H57762  11.844  11.078   6.861  1.0403  4.6959  0.7047
  419MOL0     H57763  11.767  11.160   7.154  0.6652 -2.3675  0.0809
  419MOL0     H57764  11.765  11.270   7.022 -1.6287 -0.1382  1.4460
  419MOL0     H57765  11.967  11.289   7.163 -2.1445 -0.7230  0.3700
  419MOL0     H57766  12.014  11.129   7.133  0.8204  0.7492 -0.0278
  419MOL0     H57767  12.004  11.315   6.891  3.4428  0.9028  0.6892
  419MOL0     H57768  12.062  11.140   6.907 -3.1033 -0.6908 -1.2857
  419MOL0     H57769  12.171  11.333   7.097  2.2730  1.1807 -0.8965
  419MOL0     H57770  12.227  11.173   7.035 -0.4910 -0.2546  0.7132
  419MOL0     H57771  12.377  11.188   6.823  1.7001  0.4032  1.5955
  419MOL0     H57772  12.599  11.509   6.720  0.4998 -0.9535  2.9610
  419MOL0     H57773  12.520  11.408   6.591  2.2527 -0.0441 -1.2190
  419MOL0     H57774  12.655  11.279   6.836 -0.4473 -1.1990 -0.7154
  419MOL0     H57775  12.654  11.226   6.671  2.0573  1.3580 -1.4747
  419MOL0     H57776  12.799  11.439   6.625  0.2404 -3.2152 -3.2835
  419MOL0     H57777  12.841  11.397   6.802 -0.9142 -0.2701  0.5841
  419MOL0     H57778  12.875  11.166   6.677 -0.4373 -0.5999 -3.2465
  419MOL0     H57779  12.897  11.259   6.535  0.1220  0.5931 -0.0500
  419MOL0     H57780  13.055  11.045   6.545  1.2123 -1.7301  2.0279
  419MOL0     H57781  13.299  10.898   6.349  0.8205 -0.8622  0.5659
  419MOL0     H57782  13.156  10.859   6.437 -1.0237  1.5622  0.2198
  419MOL0     H57783  13.316  10.833   6.515  0.3589  0.5171  0.4160
  419MOL0     H57784  13.699  10.823   6.495 -0.8781  0.2415 -1.6127
  419MOL0     H57785  13.886  10.757   6.385  0.7263 -0.4511  1.9793
  419MOL0     H57786  14.127  10.709   6.366  0.3673 -1.1934 -1.3209
  419MOL0     H57787  14.015  10.743   6.229 -0.4139 -0.9405  0.8532
  419MOL0     H57788  14.209  10.820   6.102  2.3497  1.4194 -0.0879
  419MOL0     H57789  14.323  10.801   6.229  2.3499 -0.1439 -5.3044
  419MOL0     H57790  14.167  10.569   6.141 -1.2771  0.8892  1.9216
  419MOL0     H57791  14.305  10.567   6.242 -0.6217 -0.9973 -1.0300
  419MOL0     H57792  14.288  10.648   5.931  1.8058 -0.2887 -1.8844
  419MOL0     H57793  14.360  10.509   5.988 -0.1146  0.0726 -1.9437
  419MOL0     H57794  14.469  10.789   6.049  1.6950  0.1629 -2.1370
  419MOL0     H57795  14.515  10.644   6.137  0.3836  1.0902  0.1171
  419MOL0     H57796  14.516  10.671   5.834 -0.6150  2.1984  0.5230
  419MOL0     H57797  14.587  10.540   5.936  0.1326  0.9250  1.3536
  419MOL0     H57798  14.755  10.688   6.028  2.3548 -0.1076 -1.2860
  419MOL0     H57799  14.690  10.819   5.923  1.9054  0.5840 -2.9884
  419MOL0     H57800  14.744  10.682   5.721  1.2941  2.8715  0.2934
  419MOL0     H57801  14.812  10.560   5.842 -0.9066 -1.5532 -0.5534
  419MOL0     H57802  14.057  11.150   6.404  0.1297 -0.7146 -2.2925
  419MOL0     H57803  13.840  11.229   6.510  0.8043  0.8046  0.9273
  419MOL0     H57804  13.482  11.268   6.636  0.2636  0.1390 -1.1338
  419MOL0     H57805  13.280  11.385   6.689  2.4068  1.3331 -5.2031
  419MOL0     H57806  11.214  10.920   7.097  2.6051  1.7122  0.0306
  419MOL0     H57807  10.971  10.997   7.096  1.4651  0.8846  2.5689
  419MOL0     H57808  10.730  11.450   6.720 -1.4753  1.3337  0.6343
  419MOL0     H57809  10.504  11.490   6.630 -1.3514 -0.6540 -1.4853
  419MOL0     H57810  10.113  11.278   6.607 -2.1489 -0.2415  1.1749
  419MOL0     H57811  10.223  11.158   6.684 -0.4599 -0.5877  2.0918
  419MOL0     H57812  10.084  11.403   6.812  1.5037  0.6898 -1.2789
  419MOL0     H57813  10.188  11.301   6.898 -0.3610  2.0636 -0.5626
  419MOL0     H57814   9.945  11.185   6.745  1.5373 -1.9352 -0.7171
  419MOL0     H57815  10.026  11.094   6.859 -4.2369 -0.8006  1.6001
  419MOL0     H57816   9.954  11.279   7.032 -4.1046  0.2301  2.2586
  419MOL0     H57817   9.845  11.157   6.970  0.3632 -0.9757 -2.7975
  419MOL0     H57818   9.690  11.541   6.856 -0.9000 -1.4653 -2.7923
  419MOL0     H57819  10.375  11.130   6.820 -1.9580  1.0000 -0.6282
  419MOL0     H57820  10.639  10.957   6.875  0.7985 -1.2059  2.1616
  419MOL0     H57821  10.658  11.076   7.012  0.1708 -1.7574  0.0529
  419MOL0     H57822  10.498  11.004   6.968 -0.8189  0.3360  0.5013
  420MOL0     O57823   5.850  11.333   1.409 -0.0203 -0.3332  1.2611
  420MOL0     C57824   5.851  11.457   1.408 -0.3792 -0.4998 -0.0797
  420MOL0     O57825   5.771  11.532   1.334 -0.1112 -1.1709  0.1728
  420MOL0     C57826   5.661  11.481   1.273 -0.5574 -0.5906 -1.9200
  420MOL0     C57827   5.549  11.556   1.289 -0.1504 -0.1184  0.2492
  420MOL0     C57828   5.434  11.536   1.224  0.3363  0.4508 -0.2399
  420MOL0     C57829   5.426  11.437   1.119  0.2180  0.5568  0.5338
  420MOL0     O57830   5.330  11.416   1.025  0.2429  0.1832 -0.1647
  420MOL0     C57831   5.198  11.380   1.085  0.1183  0.1033 -0.6224
  420MOL0     C57832   5.080  11.414   0.998 -0.1258  1.7087 -0.1517
  420MOL0     C57833   4.951  11.377   1.081 -0.0045  0.4605  0.1296
  420MOL0     C57834   4.830  11.413   0.997 -0.1163 -0.7859  0.1895
  420MOL0     C57835   4.702  11.384   1.065 -0.0332 -0.2586 -0.3288
  420MOL0     C57836   4.570  11.447   0.999 -0.6676  0.5353 -0.2638
  420MOL0     C57837   4.447  11.444   1.093 -0.1286 -0.0193  0.0144
  420MOL0     C57838   4.321  11.481   1.022  0.3168  0.6086 -0.2680
  420MOL0     N57839   4.196  11.466   1.106 -0.3985  0.0368  0.6166
  420MOL0     C57840   4.193  11.528   1.232 -0.1361  0.3092  0.3718
  420MOL0     C57841   4.059  11.514   1.269 -0.1899  0.2152 -0.2072
  420MOL0     C57842   4.007  11.568   1.394  0.5906  0.0820  0.4492
  420MOL0     C57843   4.046  11.477   1.513 -0.4676  0.4012  0.2329
  420MOL0     C57844   4.026  11.329   1.485 -0.1829  0.4007  0.1759
  420MOL0     C57845   4.150  11.243   1.441 -0.4855  0.0878 -0.7904
  420MOL0     O57846   4.251  11.267   1.546  0.2023 -0.2802  0.3804
  420MOL0     C57847   4.385  11.250   1.520  0.4433 -0.4601  0.5103
  420MOL0     C57848   4.483  11.299   1.597 -0.3151  0.9054  0.0280
  420MOL0     C57849   4.624  11.272   1.567 -0.3414 -1.3030 -0.4043
  420MOL0     C57850   4.715  11.315   1.683 -0.4367 -0.2036  1.1752
  420MOL0     C57851   4.662  11.203   1.452 -0.7503 -0.4489  0.6117
  420MOL0     C57852   4.799  11.160   1.429  0.2451 -0.2131 -1.8759
  420MOL0     O57853   4.882  11.164   1.539  0.6395 -0.3779 -0.1221
  420MOL0     C57854   5.014  11.144   1.495  0.4848 -0.0197 -0.2435
  420MOL0     C57855   5.069  11.018   1.508 -0.1646  1.0729 -0.0092
  420MOL0     C57856   5.198  10.999   1.468  0.8227 -0.0843  0.6394
  420MOL0     C57857   5.280  11.114   1.441 -0.7750 -0.0769  0.1416
  420MOL0     O57858   5.411  11.104   1.406 -0.0300 -0.1922  0.1345
  420MOL0     C57859   5.512  11.198   1.423  0.0705 -0.3033 -0.4567
  420MOL0     C57860   5.562  11.206   1.572  0.2186  0.4380 -0.2422
  420MOL0     C57861   5.602  11.067   1.637  0.3676  0.6306 -0.5727
  420MOL0     C57862   5.660  11.069   1.777 -0.3407  1.1231  0.3507
  420MOL0     C57863   5.649  10.930   1.853  0.4275 -0.2681  0.7003
  420MOL0     C57864   5.688  10.940   2.003 -0.5874  0.0915  0.8049
  420MOL0     C57865   5.633  10.828   2.090 -0.1516 -0.7794  1.1708
  420MOL0     C57866   5.705  10.811   2.228  0.6196 -0.7507 -0.0251
  420MOL0    Cl57867   5.724  10.964   2.317  0.2227  0.0782  0.1419
  420MOL0     C57868   5.223  11.242   1.437  0.0201  1.2239 -0.3757
  420MOL0     C57869   5.083  11.256   1.449 -0.3752  0.5616 -0.5630
  420MOL0     O57870   4.820  11.100   1.322 -0.0277 -0.4329  0.4280
  420MOL0     C57871   4.555  11.159   1.363 -0.9933  1.0012  0.4363
  420MOL0     C57872   4.421  11.179   1.405 -0.2210 -0.0472  0.7036
  420MOL0     N57873   3.984  11.449   1.169  0.1447  0.0703  0.1905
  420MOL0     N57874   4.070  11.438   1.068  0.3049  0.1164 -0.5010
  420MOL0     C57875   5.542  11.353   1.110  0.9689  0.5774  0.5026
  420MOL0     C57876   5.658  11.376   1.183  0.7887  0.2525 -0.5676
  420MOL0     C57877   5.935  11.528   1.511  0.3104 -0.2669 -0.1076
  420MOL0     C57878   5.928  11.669   1.500  0.4841 -0.4870  0.2128
  420MOL0     C57879   5.980  11.752   1.596 -0.0963  0.2580  0.1152
  420MOL0     C57880   6.067  11.712   1.697  0.1893 -0.1852 -0.2197
  420MOL0     O57881   6.142  11.799   1.777 -0.1544 -0.4096 -0.0339
  420MOL0     C57882   6.185  11.928   1.720  0.1438  0.1420  0.6844
  420MOL0     C57883   6.315  11.973   1.784  0.1352 -0.1465  0.8712
  420MOL0     C57884   6.436  11.888   1.745  0.0239 -0.1064  0.1672
  420MOL0     C57885   6.576  11.923   1.816  0.5036  0.5822 -0.3236
  420MOL0     C57886   6.687  11.828   1.781  0.1686 -0.3690  0.6873
  420MOL0     C57887   6.787  11.766   1.759 -0.8649  0.2397  0.4246
  420MOL0     C57888   6.080  11.571   1.713  0.8681 -0.2879  0.6516
  420MOL0     C57889   6.020  11.479   1.626 -0.1338  0.4100  0.2477
  420MOL0     C57890   6.054  11.339   1.635  0.0539  0.6785 -0.8630
  420MOL0     H57891   5.558  11.652   1.339  3.4445  0.2914 -0.8897
  420MOL0     H57892   5.360  11.614   1.235 -0.5920 -0.3712 -0.4948
  420MOL0     H57893   5.188  11.424   1.185  1.1079  0.7482 -0.7953
  420MOL0     H57894   5.200  11.272   1.101  0.5378  0.3492  1.2788
  420MOL0     H57895   5.077  11.522   0.978  0.9843  2.1426  1.7174
  420MOL0     H57896   5.078  11.362   0.903 -2.5792 -1.0034  1.2493
  420MOL0     H57897   4.941  11.276   1.121  0.5338  0.5512  0.5044
  420MOL0     H57898   4.958  11.433   1.175  0.2327  1.4931 -0.4928
  420MOL0     H57899   4.829  11.521   0.985  0.3812 -0.8326 -0.3054
  420MOL0     H57900   4.835  11.366   0.898 -0.3622  2.6031 -1.5737
  420MOL0     H57901   4.705  11.422   1.167 -1.8904 -4.3483  1.4786
  420MOL0     H57902   4.693  11.275   1.072  1.4206 -0.3745  0.2485
  420MOL0     H57903   4.596  11.551   0.976  0.1528 -0.0578 -2.2396
  420MOL0     H57904   4.550  11.391   0.907 -0.7872 -1.1613  0.7495
  420MOL0     H57905   4.470  11.499   1.185  0.7356  1.4184 -1.0336
  420MOL0     H57906   4.447  11.339   1.126  5.9046 -0.9088 -1.4909
  420MOL0     H57907   4.337  11.575   0.969  1.9508 -0.4406 -1.7613
  420MOL0     H57908   4.307  11.403   0.946  0.3860 -2.0784  2.2744
  420MOL0     H57909   4.280  11.562   1.287 -0.3948  0.9330  0.4071
  420MOL0     H57910   3.898  11.568   1.395  0.5508 -0.2813 -1.3824
  420MOL0     H57911   4.040  11.672   1.397  1.6671 -0.0570 -3.0384
  420MOL0     H57912   4.147  11.497   1.549 -0.3393  2.1388 -1.0032
  420MOL0     H57913   3.976  11.504   1.593  0.8317  1.1806  1.1345
  420MOL0     H57914   4.002  11.283   1.582  0.1486  0.3574  0.2409
  420MOL0     H57915   3.949  11.300   1.414  1.8581 -0.5614 -1.7814
  420MOL0     H57916   4.112  11.141   1.437  0.9302 -0.5909  1.3218
  420MOL0     H57917   4.184  11.279   1.343 -2.0719  0.5806 -1.1771
  420MOL0     H57918   4.464  11.348   1.691 -0.7228  1.8878 -0.5545
  420MOL0     H57919   4.800  11.365   1.635 -2.1823 -0.5500 -2.6762
  420MOL0     H57920   4.750  11.225   1.735  0.0504 -0.5950  0.1996
  420MOL0     H57921   4.673  11.391   1.749  1.0049  2.8179 -1.1653
  420MOL0     H57922   5.008  10.935   1.541  1.4771 -0.1917 -0.0167
  420MOL0     H57923   5.251  10.905   1.458  2.0519  0.7235 -0.9027
  420MOL0     H57924   5.595  11.165   1.361  0.6423  0.7217 -0.2641
  420MOL0     H57925   5.490  11.301   1.391  2.6616  0.3482 -0.3459
  420MOL0     H57926   5.652  11.268   1.583  0.2887  0.9220 -2.9962
  420MOL0     H57927   5.481  11.248   1.633  0.3896  1.2861 -0.5915
  420MOL0     H57928   5.659  11.003   1.569 -2.2664 -2.8460  0.1496
  420MOL0     H57929   5.504  11.018   1.650  1.0186 -0.8612 -1.0410
  420MOL0     H57930   5.604  11.156   1.813  1.0984  2.0616  0.3939
  420MOL0     H57931   5.760  11.105   1.754  0.0719 -0.9434 -1.3669
  420MOL0     H57932   5.545  10.896   1.853 -0.7761  3.0434 -0.7326
  420MOL0     H57933   5.710  10.855   1.803  1.2638  0.2757  0.8879
  420MOL0     H57934   5.660  11.041   2.032 -0.1970  0.9012 -1.4337
  420MOL0     H57935   5.798  10.942   2.004 -0.5798  0.1871  0.2946
  420MOL0     H57936   5.640  10.732   2.039 -2.2770 -0.6408  0.5032
  420MOL0     H57937   5.526  10.848   2.103 -0.3340 -0.4636 -0.5843
  420MOL0     H57938   5.802  10.763   2.215  2.1439  1.9602  0.6349
  420MOL0     H57939   5.648  10.740   2.289  2.5911 -2.1410  0.2761
  420MOL0     H57940   5.274  11.333   1.407  0.7441  1.1703  0.6290
  420MOL0     H57941   5.031  11.349   1.426  3.0031  3.2640  1.7207
  420MOL0     H57942   4.585  11.109   1.272  1.5734  2.1205  0.5976
  420MOL0     H57943   4.346  11.135   1.341 -1.1305  2.0604  0.2492
  420MOL0     H57944   5.536  11.272   1.039 -1.7890 -0.7925  2.1059
  420MOL0     H57945   5.745  11.315   1.160 -0.4971 -1.3864 -1.3106
  420MOL0     H57946   5.880  11.719   1.416 -0.2044 -2.7610 -0.8190
  420MOL0     H57947   5.959  11.858   1.587  0.8042  0.4575  0.2426
  420MOL0     H57948   6.207  11.918   1.613 -0.5727  1.3004  0.4175
  420MOL0     H57949   6.113  12.010   1.718  2.8349  2.7387 -2.0170
  420MOL0     H57950   6.301  11.965   1.892  2.8257  0.6560  1.3521
  420MOL0     H57951   6.338  12.077   1.760  3.9342 -0.5731  2.0704
  420MOL0     H57952   6.403  11.784   1.751  0.0347 -0.2278 -1.3118
  420MOL0     H57953   6.461  11.903   1.639 -1.7308  1.6358 -0.0567
  420MOL0     H57954   6.553  11.914   1.923  2.2622 -0.8233 -0.0172
  420MOL0     H57955   6.620  12.020   1.795  1.7098 -0.4490 -2.9160
  420MOL0     H57956   6.879  11.714   1.742 -0.9090  0.7655 -1.7469
  420MOL0     H57957   6.134  11.527   1.796 -2.2921  0.1336  3.1294
  420MOL0     H57958   5.969  11.292   1.686 -0.7224  1.3019 -1.5685
  420MOL0     H57959   6.081  11.278   1.549 -2.5033 -3.5923  1.0343
  420MOL0     H57960   6.133  11.324   1.709 -1.2030  2.1629  0.8969
  421MOL0     O57961   8.232   3.823   8.523  0.2978 -0.1140 -0.8993
  421MOL0     C57962   8.165   3.728   8.481  0.2187  0.0240  0.1964
  421MOL0     O57963   8.207   3.635   8.388 -0.1715 -0.4176 -0.3206
  421MOL0     C57964   8.343   3.636   8.366 -0.0298 -0.4768  0.1943
  421MOL0     C57965   8.423   3.578   8.460 -0.1743  0.4224 -1.2131
  421MOL0     C57966   8.561   3.572   8.443 -0.0671  0.0467 -0.1111
  421MOL0     C57967   8.623   3.636   8.341 -0.2341 -0.4876  0.5926
  421MOL0     O57968   8.758   3.671   8.338  0.0440 -0.1396 -0.4632
  421MOL0     C57969   8.816   3.703   8.465  0.1056  0.3834 -0.1740
  421MOL0     C57970   8.965   3.734   8.453  0.4993 -0.1306  0.3728
  421MOL0     C57971   9.049   3.605   8.438 -1.3163  0.1521 -0.5830
  421MOL0     C57972   9.073   3.532   8.573 -0.3996  0.5383 -0.6038
  421MOL0     C57973   9.190   3.438   8.566 -0.0727 -0.2559 -0.3373
  421MOL0     C57974   9.214   3.347   8.688 -0.2999 -0.4571  0.2553
  421MOL0     C57975   9.347   3.276   8.669 -0.3755  1.0978  0.8797
  421MOL0     C57976   9.472   3.376   8.651  0.1246 -0.2107 -0.2225
  421MOL0     N57977   9.613   3.327   8.683 -1.0082  0.3708  0.6641
  421MOL0     C57978   9.698   3.382   8.770 -0.1540 -0.3221  0.3943
  421MOL0     C57979   9.805   3.303   8.763  0.7038  0.7421 -0.3891
  421MOL0     C57980   9.933   3.329   8.837  0.0470 -0.1116  0.2431
  421MOL0     C57981  10.046   3.395   8.760 -0.3333  0.8920 -0.7041
  421MOL0     C57982  10.013   3.514   8.671 -0.5298  0.4658 -0.2490
  421MOL0     C57983  10.132   3.554   8.588 -0.0341  0.6446  0.5877
  421MOL0     O57984  10.227   3.590   8.684  0.5652  0.4899  0.2183
  421MOL0     C57985  10.351   3.617   8.629 -0.5782 -0.3914 -0.4489
  421MOL0     C57986  10.383   3.637   8.493 -0.1599 -0.0736  0.8127
  421MOL0     C57987  10.510   3.671   8.446  0.5346  0.4792 -0.6200
  421MOL0     C57988  10.518   3.695   8.297 -0.3606  0.8450  0.3090
  421MOL0     C57989  10.617   3.685   8.544  0.9392 -0.2477 -0.9340
  421MOL0     C57990  10.762   3.714   8.518  0.1951  0.0896 -0.8383
  421MOL0     O57991  10.804   3.730   8.394  1.1504  0.2853  0.3635
  421MOL0     C57992  10.929   3.783   8.362  0.5936  0.6900  0.3897
  421MOL0     C57993  11.000   3.877   8.444 -0.6822 -0.0725 -0.3836
  421MOL0     C57994  11.127   3.923   8.415  0.2251  0.5033  0.6070
  421MOL0     C57995  11.193   3.869   8.304  0.2464  0.7547 -0.1181
  421MOL0     O57996  11.323   3.904   8.290  0.2383  0.0678 -0.6417
  421MOL0     C57997  11.381   3.893   8.159 -0.2907  0.4927 -0.2202
  421MOL0     C57998  11.529   3.925   8.144 -0.3992 -0.0294  0.3269
  421MOL0     C57999  11.574   3.902   7.997 -0.4431 -0.4732  0.3433
  421MOL0     C58000  11.732   3.905   7.980 -0.7911 -0.1569 -1.1427
  421MOL0     C58001  11.781   3.878   7.837  0.4918  0.8315 -0.4177
  421MOL0     C58002  11.736   3.973   7.715 -0.5022 -0.2154 -0.4886
  421MOL0     C58003  11.787   4.115   7.728  0.1775 -0.2123 -0.5050
  421MOL0     C58004  11.708   4.218   7.651 -0.0718 -0.2915 -0.2241
  421MOL0    Cl58005  11.711   4.179   7.475  0.1923 -0.1049  0.0250
  421MOL0     C58006  11.113   3.785   8.214 -0.6792 -0.4272  0.0609
  421MOL0     C58007  10.990   3.733   8.253  0.5020 -0.4645 -0.5257
  421MOL0     O58008  10.836   3.723   8.619  0.2871 -0.2656  0.1086
  421MOL0     C58009  10.581   3.658   8.682  0.2139 -0.0909  0.7706
  421MOL0     C58010  10.458   3.632   8.716  0.1699 -0.0986 -0.3995
  421MOL0     N58011   9.784   3.195   8.681 -0.8190  0.3430 -0.2079
  421MOL0     N58012   9.675   3.214   8.627 -0.4659 -0.6585  0.7230
  421MOL0     C58013   8.541   3.696   8.244 -0.0561 -0.5322 -0.0989
  421MOL0     C58014   8.403   3.703   8.255  1.2376  1.0716  0.0393
  421MOL0     C58015   8.029   3.710   8.531  0.3022 -0.5797 -0.2416
  421MOL0     C58016   7.935   3.711   8.437  1.1989  0.1034  0.6336
  421MOL0     C58017   7.795   3.688   8.467  0.0356 -0.3018  0.7212
  421MOL0     C58018   7.762   3.673   8.599 -0.2388  0.1963  0.6372
  421MOL0     O58019   7.632   3.664   8.636  0.3301 -0.6352 -0.3326
  421MOL0     C58020   7.541   3.587   8.561 -0.5806  0.6138 -0.6518
  421MOL0     C58021   7.453   3.674   8.480  0.0580 -0.5337  0.0664
  421MOL0     C58022   7.336   3.594   8.440  0.6292 -0.0890  0.0345
  421MOL0     C58023   7.228   3.684   8.366 -0.8552 -0.2101 -0.1079
  421MOL0     C58024   7.104   3.613   8.334  0.6032 -0.9335 -0.2581
  421MOL0     C58025   7.008   3.540   8.327  0.3676  0.2940 -0.2715
  421MOL0     C58026   7.855   3.685   8.701  0.4754 -0.2554  0.7950
  421MOL0     C58027   7.990   3.708   8.667 -0.8151 -1.4406  0.0582
  421MOL0     C58028   8.085   3.716   8.773 -0.4965 -0.4539 -0.3238
  421MOL0     H58029   8.380   3.525   8.543  0.9497  0.3686 -0.6418
  421MOL0     H58030   8.619   3.522   8.520 -1.9246 -0.1513  1.2606
  421MOL0     H58031   8.794   3.635   8.548 -2.2367  2.1106  0.7577
  421MOL0     H58032   8.762   3.796   8.485 -1.0394 -0.1378 -0.7031
  421MOL0     H58033   8.993   3.794   8.366 -1.7091 -0.5343 -0.7001
  421MOL0     H58034   8.988   3.795   8.541  0.2302 -2.3806  2.0771
  421MOL0     H58035   9.002   3.524   8.382  2.4548 -2.7581 -0.0162
  421MOL0     H58036   9.140   3.623   8.379  0.0129  1.5347  1.7463
  421MOL0     H58037   9.088   3.614   8.644 -2.5118  2.4109 -2.1643
  421MOL0     H58038   8.985   3.479   8.610  0.1762 -0.5497 -0.7566
  421MOL0     H58039   9.281   3.496   8.548 -0.4751  0.7949  0.8803
  421MOL0     H58040   9.175   3.375   8.478  2.4119  0.5565 -1.4460
  421MOL0     H58041   9.222   3.404   8.781 -1.7980  0.4936 -0.1788
  421MOL0     H58042   9.128   3.280   8.692 -0.7871  0.2026  1.1311
  421MOL0     H58043   9.341   3.213   8.580 -0.1554  0.0491  1.5883
  421MOL0     H58044   9.355   3.209   8.756 -3.5598  0.8814  1.1368
  421MOL0     H58045   9.473   3.418   8.550 -2.9125 -2.2552 -1.2467
  421MOL0     H58046   9.467   3.462   8.718  2.8096  2.4491 -3.0914
  421MOL0     H58047   9.689   3.481   8.814  0.3424  0.6917 -1.6776
  421MOL0     H58048   9.966   3.245   8.898 -2.0116 -0.7279  0.6062
  421MOL0     H58049   9.909   3.402   8.915  2.3274  2.8869 -1.6550
  421MOL0     H58050  10.123   3.424   8.833 -1.1560  2.4190 -0.3935
  421MOL0     H58051  10.098   3.322   8.698 -0.7533  0.6820 -0.8084
  421MOL0     H58052   9.933   3.481   8.604  2.4673 -4.6343 -1.8205
  421MOL0     H58053   9.970   3.594   8.732 -2.6189 -1.5554  1.1343
  421MOL0     H58054  10.163   3.465   8.532 -2.4946  0.2970 -0.3512
  421MOL0     H58055  10.104   3.637   8.523 -0.7260 -0.7782 -0.9861
  421MOL0     H58056  10.304   3.630   8.419  0.3090  1.0997  0.1906
  421MOL0     H58057  10.542   3.606   8.238  0.0343  0.4368  1.0842
  421MOL0     H58058  10.597   3.769   8.280  1.2456 -0.9572 -0.3742
  421MOL0     H58059  10.423   3.724   8.250 -0.6849 -1.8425 -0.8820
  421MOL0     H58060  10.953   3.933   8.523 -0.4561  1.9095 -1.5820
  421MOL0     H58061  11.176   3.992   8.483 -0.3416  0.2999  1.2289
  421MOL0     H58062  11.389   3.791   8.121  3.9543  1.1006 -1.5311
  421MOL0     H58063  11.332   3.954   8.083  2.3357  0.5538 -2.0074
  421MOL0     H58064  11.553   4.028   8.171  1.3091 -0.6321  1.2271
  421MOL0     H58065  11.579   3.852   8.208 -2.5751 -0.1652  2.0083
  421MOL0     H58066  11.538   3.976   7.925  0.6356 -2.0406 -1.9230
  421MOL0     H58067  11.539   3.801   7.975 -0.5080 -1.1853  3.2852
  421MOL0     H58068  11.786   3.831   8.041 -2.3339 -0.5899 -0.2371
  421MOL0     H58069  11.766   4.003   8.016  1.3054 -0.7463 -1.3660
  421MOL0     H58070  11.890   3.867   7.839  0.2979 -2.0013  2.2556
  421MOL0     H58071  11.757   3.773   7.817  0.7366  0.9148 -1.1852
  421MOL0     H58072  11.627   3.979   7.710 -0.7506 -1.9680  1.1822
  421MOL0     H58073  11.770   3.929   7.621  0.7497 -0.0571 -0.1294
  421MOL0     H58074  11.891   4.108   7.697 -0.2602 -1.5843 -1.7997
  421MOL0     H58075  11.785   4.153   7.830  1.5175  0.9852 -0.8887
  421MOL0     H58076  11.752   4.318   7.660 -0.6941  0.0618 -0.9844
  421MOL0     H58077  11.607   4.233   7.691 -0.6010  1.9764 -2.2049
  421MOL0     H58078  11.161   3.739   8.129  2.7621  2.2320  0.3098
  421MOL0     H58079  10.934   3.668   8.188 -1.2707 -1.9849  2.3268
  421MOL0     H58080  10.660   3.650   8.755  0.8496  0.5718  0.1787
  421MOL0     H58081  10.430   3.615   8.819  0.0123  0.9040 -0.2686
  421MOL0     H58082   8.576   3.758   8.161 -0.0929  1.4243  1.2835
  421MOL0     H58083   8.343   3.770   8.195 -3.7251 -2.1144  0.8212
  421MOL0     H58084   7.962   3.731   8.334 -1.0482  1.0932  0.1600
  421MOL0     H58085   7.711   3.699   8.399 -2.5309 -2.9146  3.1656
  421MOL0     H58086   7.586   3.511   8.497 -0.4874 -0.6218  0.8056
  421MOL0     H58087   7.481   3.548   8.644  1.5590  0.9924  1.1708
  421MOL0     H58088   7.497   3.724   8.393 -1.2635 -0.4748 -0.6009
  421MOL0     H58089   7.402   3.750   8.541 -1.3295  1.2464 -3.0545
  421MOL0     H58090   7.369   3.513   8.374 -0.1637  1.1241 -1.9501
  421MOL0     H58091   7.293   3.556   8.533 -0.1573  2.3680  0.7483
  421MOL0     H58092   7.271   3.703   8.267 -1.6571 -2.2919 -0.9145
  421MOL0     H58093   7.220   3.779   8.420  1.7795 -1.1692  2.1716
  421MOL0     H58094   6.933   3.464   8.319  3.2967 -2.8654 -0.4404
  421MOL0     H58095   7.825   3.673   8.804 -1.9839 -0.9093  0.0806
  421MOL0     H58096   8.095   3.819   8.807 -1.4232 -0.5461  0.2691
  421MOL0     H58097   8.042   3.652   8.851 -1.0854 -0.2393 -0.4713
  421MOL0     H58098   8.189   3.685   8.758  0.6946  2.1417  1.7528
  422MOL0     O58099   1.400   2.690   3.599  0.7488 -0.1764  0.2830
  422MOL0     C58100   1.417   2.568   3.589 -0.2018  0.9195  0.0565
  422MOL0     O58101   1.529   2.503   3.550  0.4070  0.0362  0.7287
  422MOL0     C58102   1.629   2.581   3.497  0.1473  0.1848  0.6881
  422MOL0     C58103   1.718   2.642   3.579  0.0864  0.3604 -0.0147
  422MOL0     C58104   1.814   2.720   3.518 -0.1922 -0.6955 -0.5694
  422MOL0     C58105   1.823   2.755   3.379  0.0045  0.1760 -0.0286
  422MOL0     O58106   1.926   2.832   3.336  0.7475  0.1536  0.4313
  422MOL0     C58107   1.902   2.911   3.220  0.5229 -0.4716  0.2760
  422MOL0     C58108   1.970   3.046   3.250  0.0670  0.4130  0.1191
  422MOL0     C58109   2.118   3.023   3.201  0.3226 -1.3229 -0.3471
  422MOL0     C58110   2.190   3.149   3.233  0.4421  0.2394 -0.0095
  422MOL0     C58111   2.337   3.147   3.188  0.1683  0.0088  0.5832
  422MOL0     C58112   2.423   3.249   3.265  0.3869  0.2075  0.4505
  422MOL0     C58113   2.573   3.233   3.234  0.1204  0.4933  0.0580
  422MOL0     C58114   2.656   3.336   3.316 -0.7834  0.0282 -0.8295
  422MOL0     N58115   2.793   3.349   3.254  0.1415  0.6231  0.4348
  422MOL0     C58116   2.828   3.402   3.133 -0.1238 -0.0043 -0.4452
  422MOL0     C58117   2.956   3.359   3.120 -0.1813 -0.9962 -0.4649
  422MOL0     C58118   3.021   3.386   2.989  0.0567 -0.9834  0.3113
  422MOL0     C58119   3.149   3.302   2.963  0.4254 -0.0191  0.2187
  422MOL0     C58120   3.259   3.344   3.058  0.4078  0.0913  0.5023
  422MOL0     C58121   3.396   3.277   3.038 -0.0076 -0.4752  0.5726
  422MOL0     O58122   3.506   3.358   3.071 -0.8285  0.2400  0.4913
  422MOL0     C58123   3.631   3.307   3.037  0.5259 -0.4827  0.4111
  422MOL0     C58124   3.738   3.393   3.057  0.6264 -0.3317 -0.0248
  422MOL0     C58125   3.873   3.370   3.028 -0.1109  0.1619 -0.3894
  422MOL0     C58126   3.975   3.463   3.065 -0.1632  0.0649  0.1471
  422MOL0     C58127   3.898   3.239   2.970  0.2423 -0.2426 -0.6390
  422MOL0     C58128   4.030   3.203   2.921 -0.2196  1.3405 -0.0533
  422MOL0     O58129   4.053   3.066   2.894  0.1365 -0.3756 -0.0890
  422MOL0     C58130   4.178   3.020   2.863 -0.4100 -0.1037  0.5540
  422MOL0     C58131   4.188   2.906   2.784 -0.9501  0.0582  0.3926
  422MOL0     C58132   4.312   2.848   2.739 -0.9466  0.3382 -0.0663
  422MOL0     C58133   4.431   2.909   2.800  0.6736 -0.6466  0.3304
  422MOL0     O58134   4.564   2.878   2.763  0.2627 -0.2851  0.2558
  422MOL0     C58135   4.578   2.801   2.646 -1.0174 -0.1439 -0.1361
  422MOL0     C58136   4.727   2.799   2.615 -0.7355 -0.1507 -0.9336
  422MOL0     C58137   4.803   2.716   2.710 -0.1718 -0.1286 -0.0346
  422MOL0     C58138   4.953   2.699   2.668 -0.3229  0.4980  0.1419
  422MOL0     C58139   5.028   2.627   2.784 -0.4432 -0.6162 -0.0046
  422MOL0     C58140   5.177   2.622   2.766  0.2784  0.4038  0.4136
  422MOL0     C58141   5.236   2.538   2.647  0.9107 -0.9411 -0.5086
  422MOL0     C58142   5.389   2.540   2.648 -0.4760 -0.2645 -0.4511
  422MOL0    Cl58143   5.438   2.460   2.491  0.1500 -0.5294  0.0914
  422MOL0     C58144   4.429   3.021   2.889 -0.5943 -0.2357  0.1391
  422MOL0     C58145   4.299   3.075   2.915 -0.5800 -0.0053 -0.4355
  422MOL0     O58146   4.109   3.294   2.885  0.0815 -0.1369  0.1226
  422MOL0     C58147   3.797   3.143   2.955  0.9758  0.3663 -0.7038
  422MOL0     C58148   3.660   3.186   2.980  0.1186 -0.1361 -0.2448
  422MOL0     N58149   2.986   3.267   3.221  0.2491 -0.3768 -0.5105
  422MOL0     N58150   2.886   3.260   3.297  0.3374 -0.1829 -0.7404
  422MOL0     C58151   1.731   2.681   3.298 -0.0309  0.8008  0.3270
  422MOL0     C58152   1.641   2.592   3.357  0.0547  0.0593  0.3038
  422MOL0     C58153   1.296   2.491   3.640 -0.0853  0.3030 -0.5774
  422MOL0     C58154   1.331   2.362   3.681 -0.3819  0.3255  0.4666
  422MOL0     C58155   1.231   2.277   3.733 -0.7352 -0.1991 -0.0189
  422MOL0     C58156   1.096   2.318   3.737 -0.1737 -0.5532 -0.2127
  422MOL0     O58157   0.997   2.229   3.772  0.5570 -0.2187  0.8349
  422MOL0     C58158   1.033   2.102   3.829 -0.1634 -0.7557  0.2161
  422MOL0     C58159   0.920   2.046   3.912  0.2168  0.5197 -0.0059
  422MOL0     C58160   0.798   2.018   3.821 -0.0835 -0.0970 -0.5197
  422MOL0     C58161   0.687   1.924   3.884 -0.4927  0.1040  0.0227
  422MOL0     C58162   0.724   1.781   3.886 -0.2571  0.2808 -0.5995
  422MOL0     C58163   0.738   1.658   3.881 -0.6721 -0.3149 -1.0664
  422MOL0     C58164   1.064   2.446   3.701  0.1267 -0.2109 -1.0030
  422MOL0     C58165   1.160   2.534   3.660  0.2843 -0.9300  0.3187
  422MOL0     C58166   1.097   2.668   3.618  0.1442 -0.0495 -0.2751
  422MOL0     H58167   1.723   2.628   3.687  0.4115 -1.2596 -0.2081
  422MOL0     H58168   1.890   2.766   3.580 -0.5864 -1.2590  0.3503
  422MOL0     H58169   1.799   2.944   3.203  1.7199  4.5110  0.8942
  422MOL0     H58170   1.935   2.863   3.127  2.8342  0.6547  0.4303
  422MOL0     H58171   1.932   3.134   3.197  0.2578  1.6461  1.9627
  422MOL0     H58172   1.966   3.063   3.358  1.9227 -3.5506  0.9801
  422MOL0     H58173   2.155   2.929   3.242 -0.3700 -1.2804  0.4052
  422MOL0     H58174   2.116   3.005   3.093 -2.4548 -1.2759 -0.3710
  422MOL0     H58175   2.132   3.233   3.195 -1.1560 -1.4507 -1.5337
  422MOL0     H58176   2.189   3.167   3.341 -2.7986  0.5141  0.0175
  422MOL0     H58177   2.329   3.167   3.080  0.8832  2.6225  0.9408
  422MOL0     H58178   2.375   3.045   3.199  0.4882  0.3058  2.4588
  422MOL0     H58179   2.381   3.345   3.236 -3.6209 -2.0064 -1.9102
  422MOL0     H58180   2.410   3.220   3.369  1.0236 -2.2469 -0.0739
  422MOL0     H58181   2.585   3.233   3.126 -0.9473 -0.2168 -0.0794
  422MOL0     H58182   2.602   3.130   3.259  3.0466  0.7945 -1.6095
  422MOL0     H58183   2.605   3.433   3.313 -0.7754  0.1173  0.8209
  422MOL0     H58184   2.656   3.301   3.420  1.5835 -0.6329 -0.9949
  422MOL0     H58185   2.770   3.459   3.061  0.7209 -0.8639 -1.8524
  422MOL0     H58186   3.045   3.492   2.972 -1.8411 -0.9125 -2.7272
  422MOL0     H58187   2.946   3.360   2.913  0.4310 -0.6256 -0.1915
  422MOL0     H58188   3.114   3.201   2.990 -1.4716  0.9140  1.4739
  422MOL0     H58189   3.166   3.310   2.856 -2.2416  0.7585 -0.2350
  422MOL0     H58190   3.272   3.452   3.041 -0.6762  0.4902  2.0457
  422MOL0     H58191   3.223   3.329   3.160 -1.1743  1.7091  0.2302
  422MOL0     H58192   3.400   3.187   3.100  3.7623 -0.4161  0.6294
  422MOL0     H58193   3.406   3.241   2.935 -2.0055  1.1322 -0.2563
  422MOL0     H58194   3.712   3.489   3.101 -1.1994 -1.0948  0.6316
  422MOL0     H58195   4.072   3.415   3.080  0.6115  2.3291  3.2030
  422MOL0     H58196   3.948   3.498   3.165 -1.7425 -3.7850  1.2657
  422MOL0     H58197   3.985   3.534   2.982  0.6172  0.6427  0.7273
  422MOL0     H58198   4.097   2.870   2.739  0.2284 -3.7491  0.6896
  422MOL0     H58199   4.317   2.755   2.685 -0.1143 -0.8027  1.8754
  422MOL0     H58200   4.543   2.698   2.653  1.5534 -1.2801 -2.2191
  422MOL0     H58201   4.521   2.849   2.566 -3.2328  0.8131  1.8642
  422MOL0     H58202   4.759   2.769   2.515  1.6767 -0.4067 -0.1507
  422MOL0     H58203   4.761   2.903   2.617 -1.2058  0.0272  1.2984
  422MOL0     H58204   4.761   2.614   2.710  1.2742 -0.7649 -1.2302
  422MOL0     H58205   4.807   2.755   2.812  0.6582 -0.8364  0.2132
  422MOL0     H58206   4.992   2.799   2.645 -2.1855  0.7698 -2.2656
  422MOL0     H58207   4.967   2.637   2.579 -0.4783 -0.5877  0.8640
  422MOL0     H58208   4.993   2.689   2.867 -3.0284 -0.8780 -0.8064
  422MOL0     H58209   4.995   2.523   2.784  2.1048 -1.4939 -0.1704
  422MOL0     H58210   5.221   2.584   2.859 -0.6878  1.3703  1.3104
  422MOL0     H58211   5.213   2.725   2.758  1.7015 -0.1880 -1.4093
  422MOL0     H58212   5.204   2.585   2.554 -0.7494  1.4880  1.1762
  422MOL0     H58213   5.191   2.439   2.650  0.5107 -0.7508  2.2611
  422MOL0     H58214   5.425   2.486   2.736  1.1074  1.5263  0.0780
  422MOL0     H58215   5.434   2.639   2.659 -1.7423  0.2576  0.2130
  422MOL0     H58216   4.511   3.083   2.922 -1.9653  1.1130  1.1725
  422MOL0     H58217   4.285   3.164   2.977  0.3090 -1.9638  2.7919
  422MOL0     H58218   3.810   3.042   2.917 -1.8696 -0.7623  0.9934
  422MOL0     H58219   3.579   3.113   2.979 -0.5777  0.6241 -0.8052
  422MOL0     H58220   1.741   2.691   3.191 -2.9186  1.1985  0.0308
  422MOL0     H58221   1.578   2.533   3.291  3.9025 -2.9960 -1.0372
  422MOL0     H58222   1.436   2.339   3.670 -0.0378  2.6504 -2.2269
  422MOL0     H58223   1.273   2.191   3.783  2.7756  1.6039  0.3987
  422MOL0     H58224   1.074   2.028   3.760 -1.0062 -1.3067  0.2892
  422MOL0     H58225   1.112   2.111   3.905  0.7355 -2.7501 -0.4219
  422MOL0     H58226   0.883   2.117   3.987  0.9831 -2.0145  2.9588
  422MOL0     H58227   0.958   1.956   3.960 -0.6467  1.2376  2.1813
  422MOL0     H58228   0.752   2.113   3.793  1.8665  0.8065 -0.8441
  422MOL0     H58229   0.841   1.971   3.733  1.1840 -0.0335  0.0422
  422MOL0     H58230   0.598   1.936   3.822  0.0730  3.2283 -0.3151
  422MOL0     H58231   0.667   1.966   3.983  0.3244 -2.1317  1.2008
  422MOL0     H58232   0.758   1.553   3.890 -0.9614 -0.5516 -2.7957
  422MOL0     H58233   0.957   2.466   3.700 -0.0139 -0.8836 -2.8622
  422MOL0     H58234   0.992   2.676   3.648  0.3089 -3.5818  1.8297
  422MOL0     H58235   1.157   2.742   3.671  0.5975 -1.9752  2.1057
  422MOL0     H58236   1.111   2.685   3.511 -0.8114 -2.7791 -0.9179
  423MOL0     O58237   3.868   0.590   7.120 -0.3354  0.4500 -0.0797
  423MOL0     C58238   3.817   0.694   7.082 -0.5074  0.4872  0.3018
  423MOL0     O58239   3.865   0.785   6.986  0.2911  0.4421  0.3009
  423MOL0     C58240   3.996   0.774   6.948 -0.4699 -0.6235 -0.2058
  423MOL0     C58241   4.096   0.776   7.048 -1.3150  0.1447 -0.4870
  423MOL0     C58242   4.237   0.759   7.016 -0.0828  0.1860  0.5186
  423MOL0     C58243   4.270   0.764   6.880  0.7124  0.1119 -0.4326
  423MOL0     O58244   4.395   0.732   6.837 -1.0747 -1.2285 -0.3993
  423MOL0     C58245   4.508   0.805   6.902  0.3083 -0.2376 -0.2090
  423MOL0     C58246   4.617   0.816   6.803 -0.2496  0.0725  0.1598
  423MOL0     C58247   4.738   0.890   6.865  0.5057  0.2112  0.2593
  423MOL0     C58248   4.857   0.868   6.775  0.9664 -0.5319 -0.6725
  423MOL0     C58249   4.982   0.937   6.838  0.8812  0.2619  0.8976
  423MOL0     C58250   5.106   0.935   6.741  0.6484 -0.3033  0.3866
  423MOL0     C58251   5.238   0.969   6.805  0.3323  0.3330  0.2578
  423MOL0     C58252   5.357   0.906   6.724 -0.3188 -0.5891  0.6521
  423MOL0     N58253   5.490   0.969   6.763 -0.5056 -0.0989 -0.7920
  423MOL0     C58254   5.557   0.920   6.879  0.0558  1.0240  0.1633
  423MOL0     C58255   5.661   1.008   6.874 -0.0249  0.2230  0.3547
  423MOL0     C58256   5.779   1.009   6.972  0.4496  0.4354  0.3536
  423MOL0     C58257   5.920   1.017   6.910 -0.1491 -0.0717 -0.1653
  423MOL0     C58258   6.025   1.045   7.020 -0.3187  0.4233  0.0817
  423MOL0     C58259   6.168   1.015   6.979 -0.1388 -0.2877  0.3427
  423MOL0     O58260   6.264   1.079   7.062 -0.2776 -0.5191  0.7142
  423MOL0     C58261   6.392   1.045   7.046  0.0909  1.1022 -0.4174
  423MOL0     C58262   6.478   1.049   7.152 -0.0874 -0.6062 -0.5682
  423MOL0     C58263   6.613   1.010   7.151 -0.6601 -0.7595 -0.8164
  423MOL0     C58264   6.695   1.023   7.287 -0.2458  0.2925  0.2399
  423MOL0     C58265   6.662   0.973   7.019 -0.1898  0.1043 -0.7423
  423MOL0     C58266   6.798   0.937   6.999 -0.5835  0.2566 -0.1565
  423MOL0     O58267   6.842   0.871   6.881  0.2926 -0.0769  0.3958
  423MOL0     C58268   6.978   0.843   6.887  0.1627 -0.7008  0.2085
  423MOL0     C58269   7.070   0.935   6.828  0.6361  0.6769 -0.1841
  423MOL0     C58270   7.204   0.917   6.854 -0.2233 -0.5056 -0.0469
  423MOL0     C58271   7.256   0.809   6.927 -0.2388 -0.8346 -1.0039
  423MOL0     O58272   7.393   0.802   6.951  0.0620  0.1748 -0.4694
  423MOL0     C58273   7.489   0.876   6.871  0.4268  0.0614  0.1907
  423MOL0     C58274   7.631   0.836   6.912  0.0084 -0.0619 -0.1415
  423MOL0     C58275   7.736   0.878   6.804 -0.3612 -0.8246  0.4582
  423MOL0     C58276   7.870   0.884   6.870 -0.6714 -0.0517  0.2592
  423MOL0     C58277   7.985   0.883   6.773  0.1238  0.1615 -0.9365
  423MOL0     C58278   8.005   0.745   6.699  0.4932  0.0404  0.0797
  423MOL0     C58279   8.067   0.772   6.559  0.6452  0.4134 -0.0294
  423MOL0     C58280   8.081   0.651   6.465 -0.7257 -0.3790  0.2874
  423MOL0    Cl58281   7.942   0.554   6.436 -0.0709  0.4236 -0.1525
  423MOL0     C58282   7.163   0.719   6.983 -0.7230 -0.5530 -0.2087
  423MOL0     C58283   7.032   0.736   6.964  0.7993  0.4385 -0.4495
  423MOL0     O58284   6.875   0.983   7.084  0.2591 -0.7649 -0.5635
  423MOL0     C58285   6.575   0.971   6.911 -0.3447 -0.1866  0.4384
  423MOL0     C58286   6.445   1.008   6.927 -0.3104  0.4568  1.6481
  423MOL0     N58287   5.652   1.099   6.769  0.2178 -0.1662 -1.0776
  423MOL0     N58288   5.541   1.082   6.719  0.2291  0.1041  0.8539
  423MOL0     C58289   4.173   0.779   6.777  0.3363 -0.8398 -0.5537
  423MOL0     C58290   4.038   0.781   6.815  0.0911  0.3488 -0.3115
  423MOL0     C58291   3.679   0.725   7.136 -0.4391  0.3195  0.4779
  423MOL0     C58292   3.620   0.846   7.099 -0.0338 -0.0735 -0.3425
  423MOL0     C58293   3.491   0.882   7.132 -1.0262 -0.1844  0.6643
  423MOL0     C58294   3.415   0.805   7.210  0.0199  0.4009 -0.6559
  423MOL0     O58295   3.287   0.852   7.238  0.4295 -0.1012 -0.6738
  423MOL0     C58296   3.208   0.778   7.334 -0.1485 -0.1584 -0.7737
  423MOL0     C58297   3.073   0.836   7.302  0.1602  0.7773 -0.1330
  423MOL0     C58298   2.966   0.794   7.397 -0.1862  0.3903 -0.2739
  423MOL0     C58299   2.836   0.836   7.333  0.0446  0.0174  0.1323
  423MOL0     C58300   2.732   0.794   7.434  0.1304  0.2317 -0.3879
  423MOL0     C58301   2.666   0.742   7.523 -0.3352  0.2060  0.2250
  423MOL0     C58302   3.465   0.683   7.246  0.3318 -0.3293  0.4408
  423MOL0     C58303   3.603   0.637   7.221 -0.1858 -0.6726  0.6436
  423MOL0     C58304   3.653   0.513   7.283  0.2224  1.0299 -0.1379
  423MOL0     H58305   4.066   0.779   7.153  0.7693  2.5600  0.1234
  423MOL0     H58306   4.308   0.745   7.097  0.5756 -0.0293 -0.0805
  423MOL0     H58307   4.539   0.748   6.990 -1.3973 -1.9921 -0.6731
  423MOL0     H58308   4.468   0.904   6.927 -0.9090 -0.7092 -0.2453
  423MOL0     H58309   4.640   0.710   6.787 -0.1745  0.1735 -0.4089
  423MOL0     H58310   4.585   0.859   6.708 -0.3967  1.3362  0.7667
  423MOL0     H58311   4.725   0.999   6.855  0.7169  0.0648 -2.3531
  423MOL0     H58312   4.760   0.856   6.966  1.0935 -0.3228 -0.0406
  423MOL0     H58313   4.883   0.763   6.761  2.0032 -0.8043  2.5691
  423MOL0     H58314   4.842   0.929   6.685  1.0961 -1.3195 -1.2421
  423MOL0     H58315   5.018   0.881   6.926  3.0323 -1.0112 -0.6690
  423MOL0     H58316   4.955   1.042   6.852  1.0207  1.6710 -5.8582
  423MOL0     H58317   5.114   0.837   6.694 -1.3187  0.9153 -2.9117
  423MOL0     H58318   5.093   1.011   6.662 -2.6202 -0.4847  0.6051
  423MOL0     H58319   5.237   0.935   6.909  1.7560 -3.3372 -0.7755
  423MOL0     H58320   5.255   1.077   6.808  2.3332  0.0879 -0.7933
  423MOL0     H58321   5.348   0.799   6.744  2.0821 -1.5124 -2.4903
  423MOL0     H58322   5.344   0.913   6.616 -0.9947 -0.6344  0.7231
  423MOL0     H58323   5.533   0.838   6.946 -0.5304  2.5799  1.9688
  423MOL0     H58324   5.765   0.927   7.043 -2.0601 -0.9894 -1.6063
  423MOL0     H58325   5.784   1.099   7.034  1.8886  1.8324 -1.6599
  423MOL0     H58326   5.955   0.925   6.863  2.7517  2.8125 -4.3625
  423MOL0     H58327   5.920   1.101   6.840  3.6264  1.3564  1.3051
  423MOL0     H58328   6.020   1.153   7.039 -1.0001  0.3623  0.2675
  423MOL0     H58329   6.007   0.992   7.114  0.3759 -0.1873 -0.1196
  423MOL0     H58330   6.183   0.906   6.980 -0.2175 -0.3672 -1.6959
  423MOL0     H58331   6.175   1.052   6.876 -3.5456  0.3292  0.1902
  423MOL0     H58332   6.433   1.080   7.246 -2.4401 -2.1547 -1.0908
  423MOL0     H58333   6.766   0.941   7.298 -0.2791  0.1782 -0.3510
  423MOL0     H58334   6.634   1.032   7.377 -1.1842 -1.7041 -0.1354
  423MOL0     H58335   6.763   1.108   7.283 -1.9624  1.6908 -1.9926
  423MOL0     H58336   7.042   1.021   6.767 -1.7574 -0.9273 -1.4754
  423MOL0     H58337   7.278   0.984   6.811 -0.7524 -0.7780 -1.4422
  423MOL0     H58338   7.464   0.854   6.767  0.1760 -1.0399  0.4664
  423MOL0     H58339   7.470   0.981   6.895 -1.1452 -0.6220  2.2261
  423MOL0     H58340   7.662   0.902   6.993  2.1170 -0.1232 -0.8452
  423MOL0     H58341   7.639   0.731   6.942  0.5546 -0.0726 -0.3301
  423MOL0     H58342   7.727   0.977   6.758  0.4668 -0.8113  0.3156
  423MOL0     H58343   7.739   0.807   6.720 -2.1743  0.7599 -1.0527
  423MOL0     H58344   7.882   0.808   6.948  0.4755  1.4898  1.6750
  423MOL0     H58345   7.877   0.979   6.923 -0.8905  0.9278 -1.4044
  423MOL0     H58346   7.984   0.962   6.697  2.7139 -0.7906 -2.1173
  423MOL0     H58347   8.072   0.902   6.837 -0.9214 -1.7619  1.1846
  423MOL0     H58348   7.910   0.698   6.674  1.1661 -0.1946 -2.1891
  423MOL0     H58349   8.068   0.684   6.765 -2.1524 -0.9366  1.8490
  423MOL0     H58350   8.167   0.813   6.573  1.9297 -1.4886 -2.6862
  423MOL0     H58351   8.011   0.850   6.507  0.2637  1.7829  2.2662
  423MOL0     H58352   8.156   0.587   6.512 -2.2557 -2.2650  0.2766
  423MOL0     H58353   8.139   0.673   6.375  1.3632 -2.8961  0.8941
  423MOL0     H58354   7.214   0.642   7.041  2.1636  2.1725  1.1235
  423MOL0     H58355   6.964   0.659   7.001  2.1749 -0.6556 -0.1155
  423MOL0     H58356   6.625   0.945   6.819  2.8751  1.6558  1.4968
  423MOL0     H58357   6.388   0.986   6.837  1.3386 -1.2203  0.9609
  423MOL0     H58358   4.200   0.785   6.672 -3.3107  2.7029 -1.5662
  423MOL0     H58359   3.962   0.789   6.737  0.1822 -1.5546 -0.6446
  423MOL0     H58360   3.673   0.925   7.046 -1.2443  1.5488  0.7619
  423MOL0     H58361   3.443   0.976   7.105 -1.7304 -0.2198  1.7626
  423MOL0     H58362   3.208   0.669   7.323  2.7256 -0.4494  1.0981
  423MOL0     H58363   3.239   0.807   7.435  2.4606 -0.1645 -1.4903
  423MOL0     H58364   3.042   0.792   7.206  1.0362 -2.7718  1.0398
  423MOL0     H58365   3.071   0.945   7.301  0.3730  0.8540  2.0675
  423MOL0     H58366   2.966   0.685   7.410  0.4980  0.2043 -1.5886
  423MOL0     H58367   2.984   0.843   7.493 -0.3062 -1.0686  0.5228
  423MOL0     H58368   2.802   0.788   7.241 -5.1927  3.3174 -0.1002
  423MOL0     H58369   2.831   0.944   7.317  1.0324 -0.0353 -0.6022
  423MOL0     H58370   2.619   0.696   7.608  0.4968  0.9951  1.1297
  423MOL0     H58371   3.413   0.613   7.311  1.1378 -1.8836 -0.5238
  423MOL0     H58372   3.585   0.480   7.362 -1.6020 -0.9125 -2.3603
  423MOL0     H58373   3.670   0.434   7.209 -1.8914  1.0010 -0.6813
  423MOL0     H58374   3.755   0.522   7.320  1.1758  0.8858 -2.5324
  424MOL0     O58375   8.524   4.982   3.626  0.0011  0.2031 -0.7039
  424MOL0     C58376   8.530   4.931   3.518 -0.4715  0.9983  0.4472
  424MOL0     O58377   8.451   4.954   3.407 -0.0077 -0.5634  0.1536
  424MOL0     C58378   8.360   5.056   3.420 -0.8253  0.0608 -0.0382
  424MOL0     C58379   8.231   5.029   3.437 -0.3005  0.6452  0.7679
  424MOL0     C58380   8.131   5.126   3.437  0.5394 -0.6104  0.1376
  424MOL0     C58381   8.161   5.260   3.431  0.3175  0.0016 -0.6083
  424MOL0     O58382   8.058   5.352   3.428 -0.2253 -0.0445  0.4029
  424MOL0     C58383   8.041   5.415   3.301  0.0039 -0.3085 -0.7423
  424MOL0     C58384   7.904   5.486   3.289 -0.1822  0.2665 -0.0848
  424MOL0     C58385   7.794   5.377   3.299  0.1662  0.3679  0.6726
  424MOL0     C58386   7.661   5.445   3.301 -0.2017 -0.0091 -0.0678
  424MOL0     C58387   7.555   5.350   3.349  0.3964  0.0684 -0.4262
  424MOL0     C58388   7.421   5.415   3.351  0.2815  0.2255  0.1190
  424MOL0     C58389   7.367   5.441   3.206 -0.6074  0.2736  0.0494
  424MOL0     C58390   7.343   5.317   3.119 -0.6155  0.1501  0.2579
  424MOL0     N58391   7.461   5.277   3.037 -0.7634 -0.8512  0.6946
  424MOL0     C58392   7.528   5.354   2.949  0.1420 -0.5796 -0.0302
  424MOL0     C58393   7.629   5.278   2.901  0.3690  0.2829 -0.3441
  424MOL0     C58394   7.725   5.324   2.802  0.4356 -0.1292 -0.0012
  424MOL0     C58395   7.864   5.325   2.871 -0.0817 -0.8568 -0.0007
  424MOL0     C58396   7.958   5.416   2.794  1.1061 -1.3085  0.2654
  424MOL0     C58397   8.099   5.408   2.856 -0.5751  0.1249 -0.2843
  424MOL0     O58398   8.178   5.516   2.806  0.1274  0.2352  0.2354
  424MOL0     C58399   8.321   5.515   2.809  0.5342  0.0225 -0.4467
  424MOL0     C58400   8.383   5.641   2.796 -0.5666  0.2791 -0.0859
  424MOL0     C58401   8.521   5.644   2.821 -0.7038  0.3327 -0.1552
  424MOL0     C58402   8.587   5.767   2.791 -0.1528 -0.8339 -0.1090
  424MOL0     C58403   8.593   5.529   2.868  0.2850  0.3492 -0.2135
  424MOL0     C58404   8.735   5.513   2.909 -1.2831 -0.2796  0.2351
  424MOL0     O58405   8.786   5.383   2.917 -0.4819  0.0004 -0.4465
  424MOL0     C58406   8.909   5.353   2.976 -0.0697  0.0900  0.4580
  424MOL0     C58407   9.026   5.432   2.961  0.7522 -0.3808  0.2881
  424MOL0     C58408   9.148   5.393   3.018 -0.7965 -0.3984  0.7743
  424MOL0     C58409   9.151   5.278   3.097 -0.1980  0.0037  0.0804
  424MOL0     O58410   9.280   5.252   3.145  0.6305  0.9366  0.1594
  424MOL0     C58411   9.302   5.132   3.217 -0.0672 -0.5692 -0.3018
  424MOL0     C58412   9.331   5.007   3.135 -0.2152  0.5740 -0.0387
  424MOL0     C58413   9.483   4.979   3.098  0.1127 -0.3658 -0.1365
  424MOL0     C58414   9.552   5.094   3.026  0.7781 -0.5540  0.8987
  424MOL0     C58415   9.512   5.112   2.877 -0.2719 -0.4622 -0.4417
  424MOL0     C58416   9.578   5.248   2.829 -0.8310  0.5668 -0.4006
  424MOL0     C58417   9.543   5.285   2.677  0.3997 -0.0305 -0.1883
  424MOL0     C58418   9.571   5.430   2.651 -0.4297 -0.0424 -0.2216
  424MOL0    Cl58419   9.457   5.538   2.734 -0.1463  0.3299 -0.0547
  424MOL0     C58420   9.040   5.208   3.114  0.5458  0.4312  0.0884
  424MOL0     C58421   8.918   5.239   3.056  0.2395 -0.1553  0.6659
  424MOL0     O58422   8.804   5.618   2.914  0.5866  0.8078 -0.2976
  424MOL0     C58423   8.524   5.409   2.870  0.3657  0.2931 -0.6260
  424MOL0     C58424   8.391   5.411   2.843 -0.8222  0.2046  0.2079
  424MOL0     N58425   7.617   5.153   2.958  0.0041 -0.1770 -0.7551
  424MOL0     N58426   7.513   5.150   3.040 -0.0880 -0.7128  0.0190
  424MOL0     C58427   8.297   5.292   3.408  0.0952 -0.4273 -0.5858
  424MOL0     C58428   8.393   5.193   3.402  0.4489  0.3285 -0.4252
  424MOL0     C58429   8.631   4.824   3.491 -0.7163 -0.9996  0.4960
  424MOL0     C58430   8.652   4.777   3.366 -0.1675 -0.1370  0.1533
  424MOL0     C58431   8.747   4.673   3.337  0.3194 -0.6068  0.2062
  424MOL0     C58432   8.830   4.627   3.436  0.1852 -0.0762  0.3213
  424MOL0     O58433   8.925   4.532   3.401  0.2682  0.1492  0.3503
  424MOL0     C58434   8.990   4.460   3.504 -0.8377  0.1222 -0.4119
  424MOL0     C58435   9.084   4.344   3.454  0.9514 -0.0717 -0.7815
  424MOL0     C58436   9.168   4.374   3.326 -0.7180  0.1665 -0.1547
  424MOL0     C58437   9.246   4.250   3.285  0.2655  0.2966 -0.2325
  424MOL0     C58438   9.357   4.216   3.373  0.7497  0.4429 -0.6949
  424MOL0     C58439   9.446   4.189   3.452 -0.9177 -0.2299  0.0274
  424MOL0     C58440   8.813   4.675   3.568  0.0102 -0.3606  0.3802
  424MOL0     C58441   8.712   4.773   3.596 -0.9454  0.4954  0.3527
  424MOL0     C58442   8.717   4.818   3.745  0.4162 -0.0695  0.2322
  424MOL0     H58443   8.200   4.925   3.440 -1.2098  0.9298  2.1141
  424MOL0     H58444   8.033   5.082   3.453  1.5379 -4.9925 -3.6938
  424MOL0     H58445   8.044   5.343   3.218 -3.1821  0.5226 -1.6938
  424MOL0     H58446   8.118   5.492   3.292 -1.2221  0.9252 -0.8404
  424MOL0     H58447   7.890   5.558   3.370 -1.3051 -2.9413  2.8021
  424MOL0     H58448   7.898   5.539   3.193 -2.4213  0.7371  0.2661
  424MOL0     H58449   7.803   5.305   3.218 -1.8955  0.6614  0.1180
  424MOL0     H58450   7.809   5.336   3.399  4.1633  3.0838  1.4241
  424MOL0     H58451   7.666   5.528   3.371 -2.7387  0.4333 -0.3050
  424MOL0     H58452   7.646   5.484   3.200  0.3505 -0.7964 -0.4644
  424MOL0     H58453   7.585   5.314   3.448 -0.3418 -0.5473 -0.4159
  424MOL0     H58454   7.559   5.257   3.291 -0.3281 -2.1152  2.7427
  424MOL0     H58455   7.347   5.360   3.410  0.2489  1.3676  1.1753
  424MOL0     H58456   7.428   5.514   3.397  0.7366  1.8492 -3.1672
  424MOL0     H58457   7.432   5.516   3.160 -1.9320  0.8976 -0.8806
  424MOL0     H58458   7.272   5.494   3.215 -1.2310 -0.9271  0.7762
  424MOL0     H58459   7.312   5.240   3.190  2.1197 -0.8130  0.4988
  424MOL0     H58460   7.259   5.339   3.053 -1.6074  3.1102  2.3042
  424MOL0     H58461   7.505   5.459   2.929  0.2248 -0.3750  0.9022
  424MOL0     H58462   7.703   5.427   2.774 -0.5182 -0.1468  0.6334
  424MOL0     H58463   7.713   5.255   2.718 -0.5387 -0.4769  0.4051
  424MOL0     H58464   7.860   5.360   2.975  0.7345 -0.8866  0.0465
  424MOL0     H58465   7.906   5.224   2.876 -0.2132 -0.9462 -0.6213
  424MOL0     H58466   7.971   5.380   2.691  0.1571  0.1479 -0.4021
  424MOL0     H58467   7.916   5.517   2.804  2.3315 -0.9035  1.6527
  424MOL0     H58468   8.100   5.394   2.965  0.1172  0.3875 -0.2531
  424MOL0     H58469   8.139   5.312   2.823 -1.1830  0.0268 -0.7399
  424MOL0     H58470   8.315   5.718   2.763 -1.3718 -1.5801 -3.1690
  424MOL0     H58471   8.678   5.738   2.738 -0.5889 -1.1569 -0.6846
  424MOL0     H58472   8.618   5.814   2.885  0.7131  0.5277 -1.0423
  424MOL0     H58473   8.536   5.830   2.718 -2.7192 -2.1564  0.4275
  424MOL0     H58474   9.020   5.519   2.896 -0.9774  0.9140  2.0421
  424MOL0     H58475   9.245   5.434   2.996 -1.4481  0.6143 -0.2836
  424MOL0     H58476   9.387   5.155   3.281 -1.6018 -1.0353  2.0103
  424MOL0     H58477   9.226   5.113   3.293  1.0391 -1.6711  0.5701
  424MOL0     H58478   9.297   4.915   3.184  0.3349  1.3417  1.8689
  424MOL0     H58479   9.274   5.021   3.043 -0.7414 -0.3050  0.1366
  424MOL0     H58480   9.489   4.899   3.025 -0.6183 -0.1697 -0.4218
  424MOL0     H58481   9.532   4.942   3.188 -0.7462 -1.5950 -0.1576
  424MOL0     H58482   9.661   5.089   3.029  0.8206 -0.0292  0.4469
  424MOL0     H58483   9.533   5.187   3.082 -0.8581 -0.7416  0.7070
  424MOL0     H58484   9.545   5.025   2.820  4.1029 -1.7605  3.4427
  424MOL0     H58485   9.406   5.136   2.881  0.5066  3.6591  1.8159
  424MOL0     H58486   9.687   5.249   2.842 -0.7626 -1.9041 -0.4029
  424MOL0     H58487   9.539   5.313   2.908  1.2341 -0.7939  1.8844
  424MOL0     H58488   9.436   5.271   2.664  0.1963  0.8182  0.4551
  424MOL0     H58489   9.614   5.232   2.613  3.1572  0.9589  1.8061
  424MOL0     H58490   9.563   5.458   2.546  2.1256  2.7390  0.1773
  424MOL0     H58491   9.673   5.456   2.680 -0.2159 -1.5836  0.5694
  424MOL0     H58492   9.030   5.119   3.176 -3.2399 -0.4885 -1.5449
  424MOL0     H58493   8.841   5.163   3.056 -0.1585  0.2212  1.8931
  424MOL0     H58494   8.570   5.317   2.906  1.0298  1.4040  1.5524
  424MOL0     H58495   8.355   5.309   2.852  2.3419 -0.9871  0.4932
  424MOL0     H58496   8.326   5.395   3.385  2.3485 -1.0681 -0.8173
  424MOL0     H58497   8.496   5.226   3.391  0.0342  2.4019  1.1729
  424MOL0     H58498   8.587   4.813   3.287 -1.0513  2.2288  1.8562
  424MOL0     H58499   8.759   4.654   3.231 -1.7910  0.9126 -0.3754
  424MOL0     H58500   9.052   4.534   3.555 -0.1361 -0.3149 -0.6211
  424MOL0     H58501   8.921   4.421   3.579 -0.5680  2.9653  1.4877
  424MOL0     H58502   9.019   4.257   3.443  2.4468 -1.2394 -0.5515
  424MOL0     H58503   9.154   4.336   3.538  2.7410  5.6307 -1.2425
  424MOL0     H58504   9.094   4.401   3.251 -0.2381 -2.1892 -1.6067
  424MOL0     H58505   9.241   4.451   3.351  2.3075 -2.5233  0.0207
  424MOL0     H58506   9.276   4.261   3.181  4.4296 -0.8535  0.6814
  424MOL0     H58507   9.173   4.169   3.280  0.2878  0.0776  1.8572
  424MOL0     H58508   9.522   4.179   3.526  0.7916  2.8602 -1.1321
  424MOL0     H58509   8.874   4.644   3.651  1.3373 -0.4382 -0.5916
  424MOL0     H58510   8.770   4.737   3.796 -0.0079  0.6353  1.8451
  424MOL0     H58511   8.780   4.904   3.769 -0.1275  0.1558  0.8660
  424MOL0     H58512   8.618   4.824   3.790  0.0355  2.3902 -0.7806
  425MOL0     O58513   2.425   6.925   0.869  0.4124  0.1223 -0.4414
  425MOL0     C58514   2.366   6.861   0.782  0.3927 -0.3144  0.1232
  425MOL0     O58515   2.393   6.846   0.650 -0.1787 -0.3915 -0.0952
  425MOL0     C58516   2.499   6.914   0.610 -0.2560 -0.2934  1.0479
  425MOL0     C58517   2.626   6.855   0.623  0.2129 -0.1730  0.1792
  425MOL0     C58518   2.739   6.899   0.558 -0.7554 -0.8086 -0.6504
  425MOL0     C58519   2.722   7.020   0.482  0.3038  0.4695  0.1547
  425MOL0     O58520   2.836   7.065   0.419 -0.1087 -0.1054 -0.1558
  425MOL0     C58521   2.869   7.207   0.437  0.2698  0.0188 -0.2988
  425MOL0     C58522   3.021   7.231   0.431 -0.2808  0.5588  0.6568
  425MOL0     C58523   3.067   7.344   0.521  0.2378  0.2159 -0.6133
  425MOL0     C58524   3.074   7.290   0.671  0.4334  0.4590  0.1723
  425MOL0     C58525   3.150   7.389   0.753 -0.0614  0.1088  0.3974
  425MOL0     C58526   3.093   7.539   0.745  0.5381  1.0137 -0.1162
  425MOL0     C58527   3.166   7.634   0.647 -0.4000  0.0048  0.3722
  425MOL0     C58528   3.093   7.766   0.620 -0.5144  0.9263  0.0547
  425MOL0     N58529   3.110   7.863   0.722  0.2980 -0.2333  0.3521
  425MOL0     C58530   3.205   7.960   0.737  0.4385 -0.6292  0.4303
  425MOL0     C58531   3.160   8.029   0.845 -0.4590 -1.1479  0.6858
  425MOL0     C58532   3.232   8.148   0.884  0.1567 -1.3038 -0.7532
  425MOL0     C58533   3.365   8.131   0.967  0.4903 -0.0893  0.8913
  425MOL0     C58534   3.443   8.265   0.979 -0.4546  0.2144  0.0833
  425MOL0     C58535   3.379   8.378   1.057 -0.3312 -0.6807  0.0066
  425MOL0     O58536   3.452   8.510   1.037 -0.4629 -0.0237 -0.1061
  425MOL0     C58537   3.589   8.515   1.034  0.2746  0.0923 -0.8617
  425MOL0     C58538   3.656   8.606   0.950  0.3758 -0.0286 -0.4698
  425MOL0     C58539   3.789   8.630   0.949 -0.0522  0.0082 -0.6442
  425MOL0     C58540   3.834   8.714   0.832 -0.2192  0.8553 -0.1528
  425MOL0     C58541   3.878   8.559   1.035  0.3603  0.5326 -0.8691
  425MOL0     C58542   4.024   8.582   1.029  0.6102  0.7122 -0.1290
  425MOL0     O58543   4.106   8.469   1.039 -0.1976 -0.3785  0.0339
  425MOL0     C58544   4.242   8.485   1.022  0.3685  0.5761 -0.2458
  425MOL0     C58545   4.313   8.367   1.043 -0.2285 -0.0734  0.2253
  425MOL0     C58546   4.447   8.364   1.033 -0.4086  0.0584 -0.3437
  425MOL0     C58547   4.520   8.481   1.010 -1.5299 -0.2033 -0.1149
  425MOL0     O58548   4.660   8.476   0.980 -0.7833 -0.1961  0.1161
  425MOL0     C58549   4.740   8.553   1.068 -0.3626  0.1646 -0.2479
  425MOL0     C58550   4.868   8.477   1.108  0.2946  0.1524 -0.1627
  425MOL0     C58551   4.959   8.546   1.215 -0.0920 -0.4373  0.2903
  425MOL0     C58552   4.933   8.496   1.356  0.1596 -0.2910 -0.2271
  425MOL0     C58553   5.019   8.567   1.458 -0.7172  0.3136  0.0553
  425MOL0     C58554   5.172   8.512   1.464  0.2124 -0.6117  0.7928
  425MOL0     C58555   5.258   8.594   1.559 -0.0785  0.9193 -0.1324
  425MOL0     C58556   5.399   8.552   1.558 -0.6673 -0.4463 -1.2539
  425MOL0    Cl58557   5.485   8.635   1.696  0.0635  0.7049 -0.0024
  425MOL0     C58558   4.448   8.602   0.986  0.4720 -0.3019 -0.0722
  425MOL0     C58559   4.309   8.600   0.994 -0.3669 -0.5416  0.1527
  425MOL0     O58560   4.059   8.703   1.042  0.1291 -1.1459 -0.4696
  425MOL0     C58561   3.809   8.468   1.123 -1.4528 -0.3676  0.3832
  425MOL0     C58562   3.670   8.452   1.131  0.2014 -0.2967 -0.2232
  425MOL0     N58563   3.044   7.979   0.901  0.2292 -0.1220 -0.3058
  425MOL0     N58564   3.019   7.877   0.822 -0.0709  0.0686  0.5711
  425MOL0     C58565   2.604   7.085   0.471 -1.0404 -0.1066 -0.2230
  425MOL0     C58566   2.490   7.035   0.545 -0.1192 -0.1593  1.3012
  425MOL0     C58567   2.247   6.782   0.833  0.5803 -0.3575  0.0878
  425MOL0     C58568   2.178   6.696   0.741 -0.3883  0.6082  0.1865
  425MOL0     C58569   2.074   6.620   0.775  1.3225 -0.1078 -0.1393
  425MOL0     C58570   2.027   6.623   0.907  0.2392  0.7097 -0.7323
  425MOL0     O58571   1.917   6.558   0.955 -0.5873  0.0914  0.0491
  425MOL0     C58572   1.833   6.464   0.873  0.0305 -0.6148 -0.8548
  425MOL0     C58573   1.735   6.537   0.777 -0.3694 -0.1918  0.9157
  425MOL0     C58574   1.613   6.603   0.841 -0.0769  1.0685 -0.1764
  425MOL0     C58575   1.519   6.640   0.728 -0.0366  0.3004  0.0741
  425MOL0     C58576   1.583   6.726   0.622  0.9371  0.8494  1.0023
  425MOL0     C58577   1.635   6.791   0.532 -0.1138  0.6702  0.1350
  425MOL0     C58578   2.092   6.698   1.001 -0.0027 -1.4212 -0.6384
  425MOL0     C58579   2.205   6.781   0.966  0.0742  0.8703  1.2977
  425MOL0     C58580   2.265   6.867   1.068  0.4820 -0.0073 -0.1244
  425MOL0     H58581   2.630   6.761   0.677 -1.7746 -1.0603 -1.0958
  425MOL0     H58582   2.831   6.842   0.566  0.3261  0.6447 -2.1885
  425MOL0     H58583   2.829   7.239   0.534 -0.0995 -0.4198 -0.2999
  425MOL0     H58584   2.818   7.272   0.365  0.6127  1.7381  0.9775
  425MOL0     H58585   3.073   7.138   0.456  1.0993  1.0373 -0.2967
  425MOL0     H58586   3.044   7.246   0.325  0.3526  0.0733  0.7160
  425MOL0     H58587   3.164   7.381   0.487  0.7063  0.8499  1.2714
  425MOL0     H58588   3.006   7.435   0.519  0.3032  0.2786  0.0289
  425MOL0     H58589   2.981   7.264   0.722 -0.8622  0.3482 -2.1405
  425MOL0     H58590   3.124   7.192   0.667 -0.5880 -0.0458 -0.4923
  425MOL0     H58591   3.258   7.392   0.732 -0.3336  2.4040 -1.1103
  425MOL0     H58592   3.141   7.359   0.857  2.1946 -0.1246  0.5701
  425MOL0     H58593   2.987   7.542   0.719 -0.0323  0.1449  1.9021
  425MOL0     H58594   3.098   7.590   0.842  2.8616  2.4148 -0.8819
  425MOL0     H58595   3.188   7.582   0.554 -0.7216  1.0613 -0.3089
  425MOL0     H58596   3.264   7.651   0.693 -0.4080 -1.3497  0.9280
  425MOL0     H58597   3.141   7.810   0.532  1.0232  4.4694  2.3919
  425MOL0     H58598   2.988   7.750   0.596 -0.6368  1.7258  0.0062
  425MOL0     H58599   3.282   7.989   0.665 -1.7715  1.7357 -1.1508
  425MOL0     H58600   3.169   8.220   0.937  1.6519  0.9818 -1.9142
  425MOL0     H58601   3.247   8.206   0.792 -0.8190  1.4500  0.7078
  425MOL0     H58602   3.345   8.091   1.067  2.3424  0.9876  1.7447
  425MOL0     H58603   3.423   8.053   0.915  0.0528 -0.1109  0.4318
  425MOL0     H58604   3.543   8.254   1.020 -1.2309  1.0507  2.3333
  425MOL0     H58605   3.459   8.299   0.876 -2.2590 -3.1524 -1.4568
  425MOL0     H58606   3.276   8.393   1.024  0.5743 -2.5741 -4.5298
  425MOL0     H58607   3.373   8.358   1.164 -1.3548  0.7767  0.2490
  425MOL0     H58608   3.593   8.670   0.889  0.7225 -0.6438 -1.4898
  425MOL0     H58609   3.934   8.684   0.800 -0.1134  1.2071 -0.1584
  425MOL0     H58610   3.837   8.821   0.853 -3.8753  1.3252 -1.3160
  425MOL0     H58611   3.772   8.693   0.744 -0.7867 -3.4174  1.0298
  425MOL0     H58612   4.258   8.276   1.059  1.0115 -0.8142  0.4035
  425MOL0     H58613   4.495   8.267   1.042 -0.2272 -0.0111 -1.8134
  425MOL0     H58614   4.775   8.650   1.032 -0.2752  1.3142  2.7125
  425MOL0     H58615   4.692   8.574   1.164  0.3685  0.5918  0.0300
  425MOL0     H58616   4.843   8.373   1.131  0.1876  0.1137 -0.4547
  425MOL0     H58617   4.933   8.463   1.021 -2.2509  0.0532 -2.1429
  425MOL0     H58618   4.953   8.655   1.206 -1.6533 -0.6627 -2.6422
  425MOL0     H58619   5.063   8.521   1.192  0.4173  0.2431  1.7330
  425MOL0     H58620   4.956   8.390   1.371  0.7920 -0.3824 -1.6865
  425MOL0     H58621   4.829   8.522   1.374  0.5853  2.1759 -0.8651
  425MOL0     H58622   5.017   8.674   1.438 -1.9327 -0.1551 -2.7026
  425MOL0     H58623   4.974   8.549   1.556  1.8543  0.0620  1.2797
  425MOL0     H58624   5.217   8.501   1.365 -0.5388 -1.8605  0.5690
  425MOL0     H58625   5.174   8.407   1.497  1.9416 -0.8182  0.1709
  425MOL0     H58626   5.225   8.566   1.660  3.2674 -0.7400  0.6375
  425MOL0     H58627   5.244   8.702   1.547  0.2232  0.9003 -0.6436
  425MOL0     H58628   5.445   8.594   1.468  0.3933  1.2526  0.0294
  425MOL0     H58629   5.418   8.445   1.566  4.3086  0.1927 -1.6230
  425MOL0     H58630   4.498   8.696   0.962  0.1371  0.2104  1.1226
  425MOL0     H58631   4.264   8.697   0.976  0.6188  0.3389  2.0682
  425MOL0     H58632   3.871   8.406   1.188 -1.6040 -1.6314 -0.6338
  425MOL0     H58633   3.624   8.392   1.208  0.4974 -0.2326  0.0069
  425MOL0     H58634   2.597   7.175   0.410  1.7798  0.4780  0.1581
  425MOL0     H58635   2.394   7.081   0.522  0.9514  0.8477 -1.7288
  425MOL0     H58636   2.224   6.679   0.644  1.0954  1.6935  0.6574
  425MOL0     H58637   2.033   6.536   0.718  1.6751  0.8970 -1.9641
  425MOL0     H58638   1.904   6.396   0.825  2.0850  0.4325  0.5697
  425MOL0     H58639   1.772   6.400   0.938 -1.5663 -0.1518 -1.8417
  425MOL0     H58640   1.705   6.468   0.698  1.0903  1.4007 -1.1484
  425MOL0     H58641   1.786   6.618   0.725  0.3933 -0.5082  1.1463
  425MOL0     H58642   1.557   6.536   0.907  1.4528 -0.4888 -0.3789
  425MOL0     H58643   1.636   6.691   0.903  0.4547 -0.2586  1.5898
  425MOL0     H58644   1.439   6.705   0.764  1.4681  1.1418  2.1011
  425MOL0     H58645   1.476   6.554   0.676  0.1156  0.4294 -0.2721
  425MOL0     H58646   1.686   6.849   0.458  1.4760 -0.9628 -0.1284
  425MOL0     H58647   2.048   6.703   1.100 -0.1193 -2.5889 -0.6135
  425MOL0     H58648   2.196   6.885   1.151  2.3671  1.2523  1.2272
  425MOL0     H58649   2.358   6.824   1.107 -0.2652  0.1007  1.8989
  425MOL0     H58650   2.274   6.970   1.032  0.1651 -0.0403 -0.3027
  426MOL0     O58651   2.935   6.918   6.113  0.2532  0.0392  0.4945
  426MOL0     C58652   2.928   7.038   6.080  0.7796 -0.2264  0.2712
  426MOL0     O58653   3.004   7.103   5.981 -0.5235 -0.1845 -0.3705
  426MOL0     C58654   3.113   7.031   5.922  0.0465 -0.3565 -0.1253
  426MOL0     C58655   3.177   6.914   5.974 -0.7547 -0.5944  0.4325
  426MOL0     C58656   3.275   6.855   5.897 -0.6506 -0.1189 -0.6653
  426MOL0     C58657   3.328   6.916   5.784 -0.3504  0.3407  0.1446
  426MOL0     O58658   3.416   6.854   5.705  0.0134  1.0764 -0.0510
  426MOL0     C58659   3.550   6.854   5.742 -0.3320 -0.4677 -0.3227
  426MOL0     C58660   3.634   6.780   5.642  0.3890 -0.2117  0.3300
  426MOL0     C58661   3.780   6.801   5.666  0.6439 -0.2806 -0.3577
  426MOL0     C58662   3.865   6.730   5.555  0.3344 -0.4519  0.6052
  426MOL0     C58663   4.015   6.732   5.593 -0.0146 -0.3206  0.2294
  426MOL0     C58664   4.086   6.714   5.452  0.2166  0.6637 -0.5455
  426MOL0     C58665   4.244   6.671   5.472  0.4951 -0.2119 -0.4797
  426MOL0     C58666   4.326   6.784   5.528 -0.0114  0.5453  0.0283
  426MOL0     N58667   4.466   6.779   5.484  0.0582  0.2120 -0.2485
  426MOL0     C58668   4.562   6.679   5.509  0.1540 -0.3346  0.4583
  426MOL0     C58669   4.674   6.725   5.447 -0.0230  0.2011  0.2993
  426MOL0     C58670   4.808   6.656   5.460  0.1857 -0.1490 -0.3343
  426MOL0     C58671   4.875   6.699   5.594  0.6011  0.7742  0.3931
  426MOL0     C58672   5.015   6.646   5.581 -0.2942 -0.2610  1.0216
  426MOL0     C58673   5.100   6.723   5.480 -0.5542  0.9479  1.3620
  426MOL0     O58674   5.234   6.672   5.477  0.0817  0.3505 -0.0781
  426MOL0     C58675   5.317   6.739   5.386  0.3920  0.6451  0.3209
  426MOL0     C58676   5.447   6.689   5.373 -0.1334 -0.0710  0.1805
  426MOL0     C58677   5.540   6.737   5.285  0.0009 -0.8260  0.2381
  426MOL0     C58678   5.670   6.654   5.266  0.6093  0.4267 -0.2773
  426MOL0     C58679   5.517   6.854   5.206  0.3761 -0.6651 -0.2652
  426MOL0     C58680   5.611   6.901   5.102  0.6622  0.1013 -0.2604
  426MOL0     O58681   5.561   7.001   5.026  0.1008 -0.3089 -0.2880
  426MOL0     C58682   5.641   7.078   4.948 -0.0417  0.5279  0.8651
  426MOL0     C58683   5.769   7.120   4.988  1.3074  0.3181  0.6045
  426MOL0     C58684   5.866   7.182   4.911 -0.1179 -0.1425 -0.5290
  426MOL0     C58685   5.821   7.227   4.785  0.1579  0.2611  0.3815
  426MOL0     O58686   5.898   7.306   4.715 -0.0732 -0.3407 -0.4972
  426MOL0     C58687   5.935   7.259   4.581 -0.1995  0.3519 -0.3280
  426MOL0     C58688   6.085   7.242   4.570 -0.5526 -0.2298  0.2380
  426MOL0     C58689   6.145   7.383   4.590  0.2463 -0.5949  0.2742
  426MOL0     C58690   6.286   7.384   4.537  0.3574 -0.4385 -0.2533
  426MOL0     C58691   6.376   7.476   4.615 -0.5867 -0.1510  0.0165
  426MOL0     C58692   6.520   7.468   4.559 -0.0759 -0.4737 -0.5869
  426MOL0     C58693   6.619   7.544   4.640  0.3538  0.3365  1.2601
  426MOL0     C58694   6.753   7.519   4.575  0.1777 -0.0309  0.9702
  426MOL0    Cl58695   6.878   7.631   4.630  0.2395  0.1088 -0.0414
  426MOL0     C58696   5.694   7.186   4.736  0.2240  0.1389 -0.2347
  426MOL0     C58697   5.602   7.114   4.820  0.6889  0.5095 -0.5798
  426MOL0     O58698   5.713   6.842   5.077 -0.0271  0.2626  0.1490
  426MOL0     C58699   5.390   6.918   5.223 -0.3772  0.4765 -0.5527
  426MOL0     C58700   5.288   6.853   5.307 -0.1905 -0.0985  0.9579
  426MOL0     N58701   4.649   6.846   5.392  0.8365 -0.0132 -0.3015
  426MOL0     N58702   4.529   6.882   5.420 -0.3738  0.3467 -0.3880
  426MOL0     C58703   3.280   7.045   5.752  0.5360 -0.2725  0.6720
  426MOL0     C58704   3.171   7.098   5.815  0.0100 -0.2476  0.6675
  426MOL0     C58705   2.816   7.122   6.129  0.6900  0.1555  1.0516
  426MOL0     C58706   2.845   7.258   6.152  0.0417  0.8525 -0.1981
  426MOL0     C58707   2.744   7.346   6.194  0.0694  0.7172  0.2988
  426MOL0     C58708   2.609   7.308   6.196 -0.9181 -0.0098  0.1113
  426MOL0     O58709   2.510   7.397   6.234 -0.0278  0.2067 -0.1089
  426MOL0     C58710   2.540   7.522   6.297  0.5237 -0.0959 -0.6447
  426MOL0     C58711   2.597   7.497   6.439  0.7769 -0.2224  0.3001
  426MOL0     C58712   2.657   7.634   6.480  0.0878  0.3974 -0.7724
  426MOL0     C58713   2.732   7.608   6.607  0.6450 -0.2668 -0.3228
  426MOL0     C58714   2.853   7.526   6.597  0.5753 -0.6251 -0.4309
  426MOL0     C58715   2.950   7.457   6.602  0.6313  0.0755  0.6603
  426MOL0     C58716   2.583   7.167   6.183  0.2069 -0.2644 -0.3502
  426MOL0     C58717   2.682   7.074   6.144 -0.8201 -0.2164  0.5725
  426MOL0     C58718   2.637   6.931   6.122 -0.1464  0.0321 -0.9130
  426MOL0     H58719   3.167   6.877   6.075  2.9084  3.8935  2.8004
  426MOL0     H58720   3.339   6.776   5.935  1.7143  1.8039 -0.4122
  426MOL0     H58721   3.575   6.811   5.839  2.4737 -0.7255 -1.0476
  426MOL0     H58722   3.574   6.961   5.737 -0.8207 -0.2630  1.3055
  426MOL0     H58723   3.606   6.675   5.645  2.1184 -0.6713  1.8788
  426MOL0     H58724   3.617   6.815   5.539 -0.5649 -1.2184  0.1217
  426MOL0     H58725   3.800   6.908   5.650 -1.3182  0.3558  1.1090
  426MOL0     H58726   3.810   6.766   5.765  0.3160 -0.5793 -0.3667
  426MOL0     H58727   3.836   6.625   5.551 -0.2539 -0.3149  1.1147
  426MOL0     H58728   3.837   6.776   5.460  1.5115  0.0838  0.5096
  426MOL0     H58729   4.023   6.645   5.658 -1.1738 -0.4104  0.2682
  426MOL0     H58730   4.030   6.826   5.647 -2.4684 -1.1501  2.5864
  426MOL0     H58731   4.035   6.640   5.389  1.2547 -0.1234 -0.4974
  426MOL0     H58732   4.086   6.807   5.394  0.8174  1.3762  0.5724
  426MOL0     H58733   4.284   6.641   5.375  3.4751 -0.0141  0.6096
  426MOL0     H58734   4.260   6.586   5.539  0.6500 -0.4112 -0.7669
  426MOL0     H58735   4.283   6.876   5.486 -1.3308  0.1201  0.4235
  426MOL0     H58736   4.322   6.782   5.637 -1.0524 -3.3263  0.0633
  426MOL0     H58737   4.546   6.579   5.549  0.8197 -1.0370 -0.9851
  426MOL0     H58738   4.867   6.680   5.371  2.2781 -1.5910  0.6021
  426MOL0     H58739   4.800   6.547   5.463  0.1513 -0.1430 -0.2163
  426MOL0     H58740   4.872   6.807   5.614 -2.6494  0.8974 -0.3315
  426MOL0     H58741   4.827   6.649   5.679  2.0060  1.0698  1.4084
  426MOL0     H58742   5.076   6.653   5.671  0.6010  0.6518  0.3588
  426MOL0     H58743   5.012   6.540   5.552 -0.3138  0.2138 -0.8635
  426MOL0     H58744   5.060   6.722   5.378 -0.5018  3.1213  1.2770
  426MOL0     H58745   5.094   6.828   5.512 -1.2698  0.9315  1.3024
  426MOL0     H58746   5.479   6.614   5.445 -0.9599  1.0196  1.7190
  426MOL0     H58747   5.682   6.597   5.359 -0.0212  1.2523  0.3272
  426MOL0     H58748   5.760   6.716   5.264  0.7974  0.1742  0.1463
  426MOL0     H58749   5.666   6.591   5.176  0.0275  1.8363 -1.2659
  426MOL0     H58750   5.813   7.109   5.087  2.0847  3.1546  0.6586
  426MOL0     H58751   5.962   7.210   4.954 -0.5999 -0.1649  0.5944
  426MOL0     H58752   5.897   7.162   4.549  2.4407 -0.2113 -2.1065
  426MOL0     H58753   5.908   7.339   4.512  1.4238  2.4740  1.3247
  426MOL0     H58754   6.113   7.176   4.652  0.0759 -1.7773 -1.1603
  426MOL0     H58755   6.111   7.183   4.482  0.6237  0.1207  0.3327
  426MOL0     H58756   6.137   7.424   4.691 -2.3569  0.8359 -0.4170
  426MOL0     H58757   6.090   7.456   4.530 -1.5360 -1.4597  0.7768
  426MOL0     H58758   6.282   7.412   4.431 -0.4158 -0.5469 -0.2623
  426MOL0     H58759   6.341   7.289   4.538  0.5672 -0.3214  1.1268
  426MOL0     H58760   6.335   7.578   4.609 -1.4233 -0.4142  0.9216
  426MOL0     H58761   6.378   7.445   4.720  3.1033 -0.8328 -0.1568
  426MOL0     H58762   6.513   7.500   4.455 -0.1154  2.6530  0.2886
  426MOL0     H58763   6.546   7.362   4.564 -2.2461 -1.0181  1.2881
  426MOL0     H58764   6.625   7.520   4.746  1.9294 -1.2552  0.8398
  426MOL0     H58765   6.585   7.648   4.636 -1.1646 -0.1400  0.9668
  426MOL0     H58766   6.732   7.539   4.470  0.2127 -0.9008  0.7917
  426MOL0     H58767   6.788   7.417   4.590  0.9225 -0.1746 -1.3417
  426MOL0     H58768   5.661   7.222   4.639 -0.6193 -0.0898 -0.0433
  426MOL0     H58769   5.503   7.085   4.788 -0.0179  1.2755  0.8362
  426MOL0     H58770   5.359   7.009   5.174 -0.8392  1.0290  0.7206
  426MOL0     H58771   5.196   6.913   5.309  1.6221  2.9063  0.8340
  426MOL0     H58772   3.320   7.105   5.670 -0.7292 -1.3264 -0.7648
  426MOL0     H58773   3.127   7.193   5.785  1.4947  0.9229  1.9532
  426MOL0     H58774   2.948   7.287   6.132  0.4997 -0.2971  0.3784
  426MOL0     H58775   2.773   7.445   6.226  1.9546  0.6450 -1.0901
  426MOL0     H58776   2.617   7.573   6.238  0.8450  1.0646  0.7302
  426MOL0     H58777   2.450   7.583   6.303  0.3055 -0.5672  1.6622
  426MOL0     H58778   2.673   7.418   6.443  5.1653  3.4354 -1.2011
  426MOL0     H58779   2.520   7.465   6.509  0.1985 -2.7918 -1.3838
  426MOL0     H58780   2.725   7.666   6.401 -0.1584  1.3975 -0.5939
  426MOL0     H58781   2.594   7.718   6.510  0.6621  0.6150 -0.1516
  426MOL0     H58782   2.672   7.572   6.691  1.7553  2.7782  1.9769
  426MOL0     H58783   2.769   7.705   6.642  0.1958  0.2164 -1.1514
  426MOL0     H58784   3.044   7.408   6.615 -1.1361 -4.4609 -1.3424
  426MOL0     H58785   2.486   7.127   6.211 -0.6929  3.1683  2.0521
  426MOL0     H58786   2.656   6.891   6.021  4.9779 -0.4294 -0.0604
  426MOL0     H58787   2.691   6.859   6.185 -0.6258 -1.1172 -1.7647
  426MOL0     H58788   2.529   6.924   6.131 -0.3053 -1.5843 -3.0823
  427MOL0     O58789   7.094   6.555   9.802 -0.6728 -0.5137 -0.1920
  427MOL0     C58790   7.088   6.503   9.692  0.8513 -0.1100 -0.3734
  427MOL0     O58791   7.193   6.460   9.616  0.0025 -0.0415 -0.5176
  427MOL0     C58792   7.314   6.492   9.670  0.2651  0.5468  0.4913
  427MOL0     C58793   7.388   6.595   9.613 -0.2239  0.3368 -0.4205
  427MOL0     C58794   7.508   6.640   9.675 -0.1640 -0.8774  0.0577
  427MOL0     C58795   7.557   6.580   9.789  0.3052 -0.6674  0.6646
  427MOL0     O58796   7.668   6.610   9.856  0.7660  0.1346  0.2390
  427MOL0     C58797   7.782   6.589   9.770  0.3364  0.3997 -0.5644
  427MOL0     C58798   7.913   6.592   9.843  0.1529 -0.0906  0.0504
  427MOL0     C58799   7.944   6.721   9.915  0.1992 -0.2511 -0.4928
  427MOL0     C58800   7.993   6.821   9.809  0.4705  0.2414  0.1654
  427MOL0     C58801   7.941   6.962   9.827 -0.7776  0.7751 -0.4304
  427MOL0     C58802   7.799   6.975   9.774 -0.1323  0.0869  0.4438
  427MOL0     C58803   7.732   7.106   9.811  0.5085  1.2223  0.5626
  427MOL0     C58804   7.588   7.119   9.813 -0.3499 -0.7919  0.5263
  427MOL0     N58805   7.536   7.107   9.674 -0.0155  0.3553 -0.1040
  427MOL0     C58806   7.547   7.200   9.574  0.2403  0.2760  0.0119
  427MOL0     C58807   7.514   7.143   9.455 -0.0076 -0.0099  0.5305
  427MOL0     C58808   7.526   7.195   9.315  0.2679 -0.1536  0.0671
  427MOL0     C58809   7.668   7.249   9.300  0.0312  0.1926 -0.4557
  427MOL0     C58810   7.674   7.291   9.151  0.7622  0.2317 -0.0341
  427MOL0     C58811   7.817   7.304   9.100  0.9233 -1.0473 -0.2582
  427MOL0     O58812   7.815   7.315   8.956 -0.1350  0.0575  0.4858
  427MOL0     C58813   7.919   7.256   8.886 -0.0325  0.6748  0.6827
  427MOL0     C58814   8.057   7.274   8.920 -0.3614 -1.0672  0.5300
  427MOL0     C58815   8.156   7.206   8.860 -0.4206 -0.0571  0.2759
  427MOL0     C58816   8.303   7.231   8.904  0.0574  0.5003 -1.0630
  427MOL0     C58817   8.121   7.109   8.754  0.2355 -0.4163 -0.0475
  427MOL0     C58818   8.214   7.027   8.673 -0.2941  0.2525 -0.1083
  427MOL0     O58819   8.156   6.951   8.574 -0.1224 -0.0941 -0.0607
  427MOL0     C58820   8.237   6.881   8.491  0.9599  0.1292  0.8906
  427MOL0     C58821   8.228   6.897   8.351  0.8373  0.3844  0.1221
  427MOL0     C58822   8.312   6.820   8.265  0.0539 -0.4890  0.1429
  427MOL0     C58823   8.390   6.711   8.319  0.7770 -0.5898 -0.2366
  427MOL0     O58824   8.469   6.634   8.236 -0.0524  0.2011 -0.2095
  427MOL0     C58825   8.474   6.661   8.096  0.4497  0.0479 -0.0917
  427MOL0     C58826   8.592   6.599   8.024  0.2648 -0.4563 -0.2886
  427MOL0     C58827   8.587   6.454   8.014  0.3769 -0.6406 -0.4481
  427MOL0     C58828   8.508   6.408   7.885 -0.9635  0.1003 -0.2668
  427MOL0     C58829   8.528   6.254   7.863  0.0631 -0.5315 -0.2636
  427MOL0     C58830   8.404   6.191   7.780 -0.1422  0.6752 -0.3646
  427MOL0     C58831   8.418   6.039   7.775 -0.5779 -0.6524  0.6629
  427MOL0     C58832   8.372   5.984   7.911  1.4076  0.9495 -0.8335
  427MOL0    Cl58833   8.195   6.008   7.918 -0.1821  0.2971  0.0056
  427MOL0     C58834   8.391   6.697   8.461 -0.3201  0.3194  0.2216
  427MOL0     C58835   8.317   6.780   8.545  0.1644 -0.7662  0.0696
  427MOL0     O58836   8.338   7.052   8.684  0.2600  0.8725 -0.2739
  427MOL0     C58837   7.989   7.103   8.711 -0.0000  0.2193  0.0370
  427MOL0     C58838   7.888   7.174   8.771 -0.2024  0.5484  0.1659
  427MOL0     N58839   7.490   7.010   9.489 -0.5662 -0.0426  0.2974
  427MOL0     N58840   7.493   6.989   9.621  0.3452 -0.1515  0.4034
  427MOL0     C58841   7.478   6.480   9.847 -0.1573  0.4744  0.0110
  427MOL0     C58842   7.362   6.439   9.792 -0.4326  0.2964  0.6955
  427MOL0     C58843   6.953   6.463   9.648  0.2509 -0.2794 -0.7018
  427MOL0     C58844   6.934   6.431   9.511 -0.1219 -0.2121  0.7491
  427MOL0     C58845   6.803   6.398   9.452 -0.1464  0.2303  0.6008
  427MOL0     C58846   6.696   6.379   9.537 -0.5315 -1.5487 -0.2375
  427MOL0     O58847   6.571   6.359   9.483 -0.3838  0.3605  0.3101
  427MOL0     C58848   6.487   6.266   9.546  0.2842 -0.4930 -0.0585
  427MOL0     C58849   6.365   6.235   9.471 -0.2127  0.0504 -0.1539
  427MOL0     C58850   6.276   6.360   9.445 -0.2560 -0.6030 -0.3639
  427MOL0     C58851   6.192   6.335   9.326  0.2818 -0.4004 -0.0094
  427MOL0     C58852   6.057   6.288   9.384  0.1282 -0.5359  0.0207
  427MOL0     C58853   5.949   6.257   9.435  0.0788 -0.0687 -0.1904
  427MOL0     C58854   6.714   6.393   9.670 -0.3071  0.3239  0.1870
  427MOL0     C58855   6.838   6.433   9.726  0.9010 -0.3987  0.1532
  427MOL0     C58856   6.829   6.433   9.877  0.4755  0.3329 -0.0202
  427MOL0     H58857   7.351   6.637   9.520 -0.0266  0.9273 -0.2394
  427MOL0     H58858   7.554   6.727   9.629 -0.1630 -0.7538  0.2905
  427MOL0     H58859   7.780   6.675   9.703 -3.2028  0.6411 -0.2898
  427MOL0     H58860   7.766   6.496   9.713  1.4954 -0.5642  0.6053
  427MOL0     H58861   7.926   6.508   9.912  6.2592  0.6546  0.2817
  427MOL0     H58862   7.995   6.576   9.773  0.9162  3.2877  0.0030
  427MOL0     H58863   7.854   6.757   9.966  0.8152 -0.2933  0.6467
  427MOL0     H58864   8.021   6.704   9.991 -0.4016 -0.4550  0.0822
  427MOL0     H58865   8.102   6.819   9.812  0.7726  4.4121 -1.3646
  427MOL0     H58866   7.970   6.788   9.707  0.6370  0.5361  0.0299
  427MOL0     H58867   8.004   7.039   9.781  0.1445 -1.4144 -3.1665
  427MOL0     H58868   7.940   6.984   9.934  0.3511  2.3514 -0.7090
  427MOL0     H58869   7.806   6.973   9.665 -0.3596  1.6203  0.3884
  427MOL0     H58870   7.730   6.894   9.801 -0.7528  0.1540 -0.8331
  427MOL0     H58871   7.770   7.187   9.748  1.0459  2.1180  2.0026
  427MOL0     H58872   7.761   7.119   9.916  0.7233  0.3184  0.6305
  427MOL0     H58873   7.550   7.037   9.874 -0.1401 -1.6546 -0.4527
  427MOL0     H58874   7.562   7.215   9.857  1.0796 -0.3048  0.3774
  427MOL0     H58875   7.599   7.295   9.577  0.8557  0.0651 -2.4404
  427MOL0     H58876   7.444   7.267   9.306  0.9042  0.7749  1.2064
  427MOL0     H58877   7.518   7.118   9.239  1.0804  1.9576 -2.2982
  427MOL0     H58878   7.694   7.335   9.362  1.3963  1.5495 -2.7747
  427MOL0     H58879   7.749   7.178   9.322  0.1992  0.0292 -1.5565
  427MOL0     H58880   7.610   7.226   9.090 -0.7926  1.8297 -0.2070
  427MOL0     H58881   7.615   7.383   9.154 -1.9072 -1.3395 -1.0154
  427MOL0     H58882   7.855   7.397   9.141  0.6499 -1.2281  0.4242
  427MOL0     H58883   7.875   7.225   9.148 -0.4910  1.0872  5.8166
  427MOL0     H58884   8.070   7.347   8.999  2.7347  0.4586 -1.2008
  427MOL0     H58885   8.310   7.306   8.984 -0.0969 -0.1489 -0.4244
  427MOL0     H58886   8.356   7.268   8.817  1.9606 -0.9657 -0.5985
  427MOL0     H58887   8.350   7.136   8.932  0.0543  0.8149  0.0520
  427MOL0     H58888   8.169   6.980   8.313  0.0445 -0.1409  0.1943
  427MOL0     H58889   8.307   6.838   8.158  1.5499 -3.1426 -0.4807
  427MOL0     H58890   8.379   6.624   8.056  0.3390 -0.2137  0.4086
  427MOL0     H58891   8.477   6.768   8.074 -1.2027 -0.0146 -0.8226
  427MOL0     H58892   8.600   6.650   7.927  0.2063 -1.8089 -1.0232
  427MOL0     H58893   8.680   6.631   8.080 -0.8562  1.9979  0.1993
  427MOL0     H58894   8.540   6.411   8.103  0.7717  1.2307  0.7270
  427MOL0     H58895   8.686   6.410   8.005 -0.6911 -3.6925  1.2025
  427MOL0     H58896   8.551   6.454   7.796  2.6002 -1.8715  0.2644
  427MOL0     H58897   8.403   6.436   7.900 -0.6922  0.3833  1.2963
  427MOL0     H58898   8.624   6.243   7.814  0.3929 -1.8367  0.6156
  427MOL0     H58899   8.529   6.202   7.960 -3.8796  0.9155  0.7823
  427MOL0     H58900   8.400   6.240   7.683 -3.6313  1.5444  0.0438
  427MOL0     H58901   8.310   6.220   7.830  0.1231  0.2551  0.3999
  427MOL0     H58902   8.521   6.011   7.753 -0.8678 -2.2460  1.1871
  427MOL0     H58903   8.349   6.009   7.695 -0.3082  1.3742 -0.3845
  427MOL0     H58904   8.431   6.015   7.997 -1.1663  1.9225  0.7058
  427MOL0     H58905   8.383   5.875   7.911  0.8748  0.8682  1.0156
  427MOL0     H58906   8.460   6.617   8.488  0.3986  2.0362  4.0589
  427MOL0     H58907   8.322   6.763   8.652  1.1951  0.9558  0.3352
  427MOL0     H58908   7.958   7.050   8.622  1.1612  0.8797 -0.7795
  427MOL0     H58909   7.783   7.170   8.745 -0.2411  0.0960  0.3856
  427MOL0     H58910   7.516   6.452   9.945  1.3996  1.3794 -0.2923
  427MOL0     H58911   7.299   6.358   9.828 -1.5923 -0.3639 -2.4754
  427MOL0     H58912   7.008   6.457   9.436  1.0680 -1.1010  1.5623
  427MOL0     H58913   6.796   6.387   9.344 -0.6910 -2.5946  0.8448
  427MOL0     H58914   6.537   6.172   9.569  0.3993 -0.9284 -1.9649
  427MOL0     H58915   6.454   6.315   9.638  1.4845 -2.0644  1.2609
  427MOL0     H58916   6.312   6.154   9.522 -1.3626  0.8487 -0.0621
  427MOL0     H58917   6.393   6.181   9.379 -1.6528 -0.0444 -0.5609
  427MOL0     H58918   6.221   6.386   9.536  0.1296 -0.6424 -0.1173
  427MOL0     H58919   6.337   6.450   9.431  2.3837 -1.7908  2.3925
  427MOL0     H58920   6.242   6.267   9.257 -0.8312 -1.0180 -0.2375
  427MOL0     H58921   6.178   6.433   9.278 -0.3617 -0.2681  0.4345
  427MOL0     H58922   5.851   6.231   9.471 -0.0261 -0.2900 -0.6317
  427MOL0     H58923   6.635   6.370   9.740 -0.0576  0.8285  0.6404
  427MOL0     H58924   6.741   6.384   9.919 -1.2054  2.3601 -1.0163
  427MOL0     H58925   6.922   6.396   9.922  0.5923  1.4551  0.7019
  427MOL0     H58926   6.828   6.536   9.915  2.4487  0.1996  0.5296
  428MOL0     O58927   9.994   4.085   3.167 -0.4356  0.4762  0.1446
  428MOL0     C58928   9.974   3.973   3.108 -0.6225 -0.7885  0.1101
  428MOL0     O58929  10.073   3.892   3.051 -0.6075  0.5224 -0.4086
  428MOL0     C58930  10.206   3.927   3.036  0.1651  0.0612 -0.4379
  428MOL0     C58931  10.250   4.051   2.997  0.7336  0.2460  0.1083
  428MOL0     C58932  10.378   4.072   2.970  0.4415 -0.9201 -0.9258
  428MOL0     C58933  10.480   3.971   2.992 -0.9778 -0.7918  0.2882
  428MOL0     O58934  10.615   3.998   2.979  0.5501  0.0368  0.6078
  428MOL0     C58935  10.656   4.125   2.935 -0.6105  0.4935  0.3361
  428MOL0     C58936  10.813   4.138   2.919  0.5856  0.6347 -0.1458
  428MOL0     C58937  10.885   4.094   3.041  0.3598 -0.1292 -0.0054
  428MOL0     C58938  11.031   4.127   3.027  0.1890  0.1162  0.1620
  428MOL0     C58939  11.121   4.033   2.955 -0.1806 -0.2141  0.1614
  428MOL0     C58940  11.261   4.090   2.928 -0.4016  0.4686  0.2788
  428MOL0     C58941  11.346   4.070   3.057 -0.6962  0.1009 -0.8280
  428MOL0     C58942  11.494   4.117   3.036  0.8518  0.5014 -0.2251
  428MOL0     N58943  11.494   4.264   3.022 -0.6097 -0.1348  0.0663
  428MOL0     C58944  11.519   4.340   2.906  0.0011  0.6444 -0.5272
  428MOL0     C58945  11.537   4.463   2.953  0.5742 -0.2464  0.1988
  428MOL0     C58946  11.569   4.579   2.857 -0.0633  0.6865  0.6265
  428MOL0     C58947  11.643   4.696   2.933  0.6832  0.7051  0.1993
  428MOL0     C58948  11.781   4.635   2.986  0.0622  0.0837 -0.1338
  428MOL0     C58949  11.886   4.738   3.016 -0.3309 -0.9130 -0.1019
  428MOL0     O58950  11.913   4.811   2.900 -0.7731 -0.1626  0.2417
  428MOL0     C58951  12.047   4.850   2.880  0.6282  0.6403 -0.1684
  428MOL0     C58952  12.149   4.869   2.981 -0.2173  0.0794  0.1348
  428MOL0     C58953  12.282   4.894   2.940 -0.3131 -0.2461 -0.1173
  428MOL0     C58954  12.380   4.928   3.053 -0.6460 -0.3450 -0.1404
  428MOL0     C58955  12.316   4.886   2.801 -0.7606  0.1520  1.1021
  428MOL0     C58956  12.458   4.887   2.747  0.4295 -0.1285 -0.7699
  428MOL0     O58957  12.556   4.929   2.829  1.0540  0.3197  0.1049
  428MOL0     C58958  12.676   4.948   2.770  1.2466 -0.2037  0.1059
  428MOL0     C58959  12.701   5.061   2.698 -0.1794  0.5538  0.4332
  428MOL0     C58960  12.817   5.067   2.614  0.5281 -0.3722 -0.2942
  428MOL0     C58961  12.920   4.973   2.628  0.2072 -0.5069 -0.0939
  428MOL0     O58962  13.030   5.006   2.555 -0.5378 -0.0906 -0.0982
  428MOL0     C58963  13.143   4.913   2.567 -0.2461 -0.3131 -0.0088
  428MOL0     C58964  13.266   4.957   2.485 -0.1270 -0.2996 -0.1139
  428MOL0     C58965  13.364   4.838   2.470 -0.0801 -0.1219 -0.2971
  428MOL0     C58966  13.472   4.867   2.377 -0.8753  0.2709  0.4166
  428MOL0     C58967  13.582   4.765   2.379 -0.0581  0.1566 -0.0165
  428MOL0     C58968  13.699   4.814   2.296 -0.8137 -0.2176  0.0685
  428MOL0     C58969  13.828   4.730   2.299 -0.7569 -0.0790  0.3042
  428MOL0     C58970  13.896   4.690   2.433  0.4594  0.6329  0.6593
  428MOL0    Cl58971  14.051   4.613   2.380 -0.5549 -0.0918 -0.2602
  428MOL0     C58972  12.890   4.867   2.716 -0.1085 -0.0444 -0.5185
  428MOL0     C58973  12.769   4.850   2.785 -0.1260  0.7299 -0.7001
  428MOL0     O58974  12.471   4.847   2.634 -0.2107  0.3230  0.8448
  428MOL0     C58975  12.211   4.872   2.712  0.7151 -0.0467  0.1521
  428MOL0     C58976  12.080   4.857   2.743  0.2688  0.2852  0.2592
  428MOL0     N58977  11.544   4.465   3.090  0.5422  0.0013 -0.0001
  428MOL0     N58978  11.511   4.344   3.133  0.2715 -0.3121  0.0269
  428MOL0     C58979  10.437   3.846   3.039  0.2225  0.0879 -0.1140
  428MOL0     C58980  10.300   3.825   3.047  0.4140 -0.5808 -0.7497
  428MOL0     C58981   9.832   3.917   3.107  0.8602 -0.2916 -0.1217
  428MOL0     C58982   9.823   3.778   3.129  1.5010  0.7979 -0.0928
  428MOL0     C58983   9.702   3.717   3.152 -0.0785 -0.2624 -1.0283
  428MOL0     C58984   9.589   3.794   3.147  1.0323  0.3615 -0.0347
  428MOL0     O58985   9.465   3.738   3.162 -0.2727  0.3738  0.1658
  428MOL0     C58986   9.347   3.808   3.133 -0.6990  0.9187  1.0771
  428MOL0     C58987   9.222   3.725   3.117  0.8440 -0.0177 -0.2823
  428MOL0     C58988   9.242   3.615   3.016  0.4867  0.0808 -0.4521
  428MOL0     C58989   9.109   3.535   3.011 -0.8088 -0.2605 -0.3305
  428MOL0     C58990   9.123   3.420   2.915  0.8465 -0.0073 -0.3510
  428MOL0     C58991   9.125   3.317   2.847  0.6060  0.3183  0.4231
  428MOL0     C58992   9.596   3.931   3.126 -0.6695  0.1591  0.5139
  428MOL0     C58993   9.716   3.993   3.101 -1.0974 -0.2250 -0.0008
  428MOL0     C58994   9.720   4.141   3.059 -0.8896  0.3197 -0.5589
  428MOL0     H58995  10.178   4.132   2.988  1.2482  0.9567  1.8360
  428MOL0     H58996  10.412   4.172   2.945  0.8316 -1.4160 -2.4768
  428MOL0     H58997  10.633   4.196   3.016 -0.5913 -1.0480  1.7523
  428MOL0     H58998  10.599   4.161   2.850 -0.6774  1.7955  0.8998
  428MOL0     H58999  10.843   4.078   2.833 -4.7297 -0.3721 -1.6500
  428MOL0     H59000  10.849   4.239   2.894  1.7074 -0.0249 -1.3154
  428MOL0     H59001  10.862   4.155   3.128  2.5463  0.3412  0.3037
  428MOL0     H59002  10.873   3.987   3.061  0.9628 -0.4159 -1.0831
  428MOL0     H59003  11.049   4.229   2.991 -1.8169  0.3473 -0.3281
  428MOL0     H59004  11.055   4.128   3.134 -4.1657 -1.7681  1.3753
  428MOL0     H59005  11.074   4.022   2.857 -1.5228 -1.4647  0.9167
  428MOL0     H59006  11.128   3.932   2.997  0.7667  0.2928  1.3068
  428MOL0     H59007  11.309   4.028   2.852 -0.6384 -2.8164  2.6382
  428MOL0     H59008  11.254   4.196   2.899  0.8471  0.7267  0.8426
  428MOL0     H59009  11.345   3.962   3.074 -1.3926  0.0424 -1.2095
  428MOL0     H59010  11.309   4.113   3.150 -1.3188 -2.0201 -0.0437
  428MOL0     H59011  11.538   4.078   3.129 -3.4739 -2.5395  0.8732
  428MOL0     H59012  11.542   4.085   2.943  2.2970  0.5670  0.4625
  428MOL0     H59013  11.528   4.321   2.800 -0.6906 -0.7430 -0.3557
  428MOL0     H59014  11.478   4.607   2.803 -0.2186  0.5135  0.7957
  428MOL0     H59015  11.639   4.553   2.778 -0.6588  3.7463 -1.0596
  428MOL0     H59016  11.670   4.781   2.869  0.6381  0.8030  0.3087
  428MOL0     H59017  11.590   4.734   3.021 -0.9037 -1.3343  0.1904
  428MOL0     H59018  11.758   4.590   3.083  0.1216  0.5879  0.1209
  428MOL0     H59019  11.813   4.551   2.923  1.8248 -0.0201  0.8218
  428MOL0     H59020  11.854   4.811   3.091  2.9155  1.1036 -0.4400
  428MOL0     H59021  11.974   4.686   3.056 -2.5496 -1.9097  4.1295
  428MOL0     H59022  12.124   4.868   3.086 -1.6565  1.7772 -0.1392
  428MOL0     H59023  12.459   4.854   3.066  0.1173  0.4126 -0.4114
  428MOL0     H59024  12.330   4.939   3.150 -1.7210 -1.4470 -0.5419
  428MOL0     H59025  12.431   5.022   3.030  2.1665 -1.1574  2.2107
  428MOL0     H59026  12.623   5.137   2.690  0.7625  1.6818  1.4488
  428MOL0     H59027  12.833   5.155   2.552  3.7531  0.1082  1.0659
  428MOL0     H59028  13.168   4.907   2.674 -2.1623  0.6469  0.5465
  428MOL0     H59029  13.120   4.810   2.538  1.0009 -0.2630 -1.2642
  428MOL0     H59030  13.236   5.002   2.390  0.0915  2.3836  1.0199
  428MOL0     H59031  13.320   5.031   2.544 -0.1622  0.1907 -0.6882
  428MOL0     H59032  13.306   4.752   2.435 -0.8697  0.3293 -0.1492
  428MOL0     H59033  13.403   4.806   2.567  0.2265  0.2431 -0.3013
  428MOL0     H59034  13.511   4.967   2.395  1.5948  0.2618 -3.6955
  428MOL0     H59035  13.427   4.872   2.278  0.3243  1.4112 -0.0926
  428MOL0     H59036  13.619   4.741   2.479 -2.5941  0.0980  0.9698
  428MOL0     H59037  13.537   4.675   2.338 -0.4813 -1.5133  3.7404
  428MOL0     H59038  13.724   4.913   2.336 -1.9060  0.2894 -0.4509
  428MOL0     H59039  13.665   4.832   2.194 -3.4445 -0.8158  0.7569
  428MOL0     H59040  13.908   4.782   2.246  2.4048 -3.3712  1.4040
  428MOL0     H59041  13.801   4.634   2.253 -1.2557  1.1112 -2.0385
  428MOL0     H59042  13.840   4.614   2.488  0.8749  1.1366  1.8189
  428MOL0     H59043  13.895   4.773   2.505  2.1336  3.4181 -2.2724
  428MOL0     H59044  12.964   4.789   2.728 -1.1410 -0.8606  0.8514
  428MOL0     H59045  12.760   4.752   2.831  0.5822  0.1800 -1.6850
  428MOL0     H59046  12.234   4.863   2.606  2.2294  1.3422  0.3244
  428MOL0     H59047  12.002   4.838   2.669  0.7151  0.9263 -0.3827
  428MOL0     H59048  10.512   3.771   3.062  0.1441  0.6842  2.4237
  428MOL0     H59049  10.274   3.726   3.083  0.0617 -0.2638 -0.1119
  428MOL0     H59050   9.907   3.710   3.130  0.5580 -0.4325  1.2590
  428MOL0     H59051   9.693   3.609   3.159 -0.5117 -0.2148 -0.7821
  428MOL0     H59052   9.333   3.890   3.203 -0.7372  0.3206  1.7736
  428MOL0     H59053   9.348   3.865   3.039  0.0130  1.4271  1.3910
  428MOL0     H59054   9.147   3.800   3.090  1.0306  0.1159 -0.4369
  428MOL0     H59055   9.202   3.683   3.216  3.0078  1.5588  0.8945
  428MOL0     H59056   9.262   3.655   2.916 -1.2314  2.0899 -0.0632
  428MOL0     H59057   9.324   3.549   3.044  1.8039  1.2335 -1.4290
  428MOL0     H59058   9.030   3.606   2.983 -1.5751 -0.6882  0.7009
  428MOL0     H59059   9.065   3.484   3.097 -0.3060 -0.4976 -0.2098
  428MOL0     H59060   9.122   3.228   2.788  0.3160 -1.6853  3.2233
  428MOL0     H59061   9.512   3.999   3.123 -0.6166  0.4597  3.2042
  428MOL0     H59062   9.756   4.213   3.133 -0.6103 -0.4001  0.0161
  428MOL0     H59063   9.777   4.145   2.966  2.7356 -0.6382  1.4031
  428MOL0     H59064   9.616   4.171   3.041 -1.0267  0.8306  0.9258
  429MOL0     O59065   1.584   6.193   0.442 -0.6074  0.5977 -0.2327
  429MOL0     C59066   1.563   6.204   0.324  0.1645  0.0377  0.1862
  429MOL0     O59067   1.650   6.266   0.235  0.2534  0.1823 -0.6750
  429MOL0     C59068   1.754   6.342   0.272 -0.9432 -0.7310  0.1006
  429MOL0     C59069   1.755   6.426   0.386  0.4774  0.9178 -0.1989
  429MOL0     C59070   1.875   6.496   0.428  0.1030  0.0516  0.1635
  429MOL0     C59071   1.992   6.476   0.351  0.8553  0.1962  0.9092
  429MOL0     O59072   2.103   6.543   0.405  0.5437 -0.1550  0.1396
  429MOL0     C59073   2.206   6.578   0.320  0.0825 -0.0646  0.6007
  429MOL0     C59074   2.175   6.698   0.236  0.3548 -0.6361  0.4125
  429MOL0     C59075   2.298   6.764   0.184 -0.1279 -0.1117 -0.6140
  429MOL0     C59076   2.271   6.871   0.070  0.7985  0.7528  0.0827
  429MOL0     C59077   2.398   6.950   0.023  0.4113  0.7075  0.3640
  429MOL0     C59078   2.445   7.051   0.123 -0.2658 -0.6078  0.5860
  429MOL0     C59079   2.589   7.113   0.098  0.3290  0.4268 -0.3285
  429MOL0     C59080   2.706   7.001   0.091  0.2655 -1.0832  0.3626
  429MOL0     N59081   2.831   7.069   0.082 -0.7171  0.4520  0.1326
  429MOL0     C59082   2.955   6.999   0.094  0.6408 -0.3780  0.6779
  429MOL0     C59083   3.041   7.101   0.065 -0.0287 -0.3755  0.2728
  429MOL0     C59084   3.188   7.084   0.080 -0.0497  0.3411  0.8527
  429MOL0     C59085   3.249   7.140  -0.053  0.7123  0.1746  0.4382
  429MOL0     C59086   3.397   7.149  -0.062  0.0311  0.6634  0.7630
  429MOL0     C59087   3.436   7.285  -0.121 -0.1391 -0.5547  0.5374
  429MOL0     O59088   3.580   7.303  -0.121 -0.7644  0.8263  0.4045
  429MOL0     C59089   3.662   7.236  -0.217  0.3976  0.1600  0.2774
  429MOL0     C59090   3.619   7.196  -0.343 -0.2520  0.2189 -0.4839
  429MOL0     C59091   3.696   7.127  -0.432  0.1322 -0.3909  0.5816
  429MOL0     C59092   3.629   7.084  -0.562  0.1527  0.9279 -0.3344
  429MOL0     C59093   3.837   7.113  -0.400 -0.3080  0.2473  0.1649
  429MOL0     C59094   3.923   7.052  -0.498  0.2528  0.2403  0.1528
  429MOL0     O59095   4.042   7.118  -0.507 -0.1513  0.2213  0.2980
  429MOL0     C59096   4.142   7.099  -0.600  0.1294 -0.2429  0.1179
  429MOL0     C59097   4.117   7.041  -0.731 -1.0246  0.3850  0.3434
  429MOL0     C59098   4.219   7.018  -0.816  0.0335 -0.3396  0.0769
  429MOL0     C59099   4.347   7.052  -0.785  0.4206  0.3228  0.3708
  429MOL0     O59100   4.434   7.018  -0.881 -0.4218 -0.1035  0.0567
  429MOL0     C59101   4.545   6.941  -0.841  0.2629 -0.2277 -0.6424
  429MOL0     C59102   4.674   7.008  -0.888 -0.3953 -0.7998 -0.4324
  429MOL0     C59103   4.789   6.910  -0.903 -0.7413 -0.1648  0.0591
  429MOL0     C59104   4.921   6.975  -0.947 -0.6712 -0.3256 -0.2749
  429MOL0     C59105   5.041   6.880  -0.951 -0.1534  1.4061 -0.1939
  429MOL0     C59106   5.188   6.937  -0.981 -0.5006  0.1191  0.0114
  429MOL0     C59107   5.288   6.826  -0.971 -0.4991  0.2616 -0.3237
  429MOL0     C59108   5.417   6.871  -1.038 -0.4910 -0.8254  0.2510
  429MOL0    Cl59109   5.541   6.745  -1.029  0.2168  0.4202  0.1569
  429MOL0     C59110   4.372   7.114  -0.669 -0.1101  0.2823  0.9348
  429MOL0     C59111   4.273   7.139  -0.575 -0.0612 -0.4987 -0.3362
  429MOL0     O59112   3.892   6.951  -0.560 -0.0144 -0.0058 -0.2377
  429MOL0     C59113   3.880   7.168  -0.286 -0.0697 -0.3681  0.1791
  429MOL0     C59114   3.798   7.225  -0.187  0.7922 -1.0072 -0.7504
  429MOL0     N59115   2.977   7.223   0.040 -0.1786 -0.4271  0.1100
  429MOL0     N59116   2.851   7.197   0.051 -0.1147 -0.2111  0.0153
  429MOL0     C59117   1.983   6.407   0.225  0.6319 -0.5919 -0.6303
  429MOL0     C59118   1.865   6.335   0.189 -0.5934  0.5489  0.6276
  429MOL0     C59119   1.444   6.147   0.250 -0.5013 -0.1706  0.1988
  429MOL0     C59120   1.453   6.133   0.108  0.0302 -0.9344 -0.2639
  429MOL0     C59121   1.345   6.085   0.027  0.3976  0.2737  0.5035
  429MOL0     C59122   1.221   6.052   0.090  0.0554 -0.1872  0.6600
  429MOL0     O59123   1.124   6.000   0.015 -0.4264  0.6997 -0.2822
  429MOL0     C59124   0.996   5.975   0.069 -0.0937  0.4821 -0.6432
  429MOL0     C59125   0.902   5.931  -0.047  0.2610 -0.1388  0.6373
  429MOL0     C59126   0.914   5.782  -0.070 -0.1611  0.9394  0.1365
  429MOL0     C59127   0.840   5.743  -0.194  0.2541 -0.4063 -0.0328
  429MOL0     C59128   0.870   5.597  -0.225 -0.6020  0.2635  0.5639
  429MOL0     C59129   0.909   5.488  -0.254  0.2862  0.2021 -0.1181
  429MOL0     C59130   1.210   6.071   0.229  0.6256 -0.8855 -0.3123
  429MOL0     C59131   1.318   6.118   0.312 -0.5571 -0.7160  0.3749
  429MOL0     C59132   1.286   6.151   0.450  0.0978 -0.8098 -0.2627
  429MOL0     H59133   1.661   6.441   0.439  0.4413 -1.0588  0.4059
  429MOL0     H59134   1.886   6.570   0.506  1.0293 -0.6008  0.6718
  429MOL0     H59135   2.246   6.498   0.256 -2.6969 -0.9847 -0.1614
  429MOL0     H59136   2.283   6.604   0.393 -2.2444  0.6956  2.9355
  429MOL0     H59137   2.104   6.667   0.159  1.1411  0.2433 -0.7071
  429MOL0     H59138   2.130   6.776   0.298  0.1431  0.7096 -1.3613
  429MOL0     H59139   2.329   6.824   0.270 -1.3827  2.6473 -1.9754
  429MOL0     H59140   2.385   6.699   0.170  0.7093 -0.0294  3.1588
  429MOL0     H59141   2.234   6.825  -0.022 -0.7850  2.7640 -0.3511
  429MOL0     H59142   2.196   6.940   0.111 -0.1339 -0.5393  0.6240
  429MOL0     H59143   2.382   7.004  -0.070 -0.8168  0.5916  0.4830
  429MOL0     H59144   2.481   6.881   0.008  0.0397 -0.6290  3.6517
  429MOL0     H59145   2.376   7.137   0.120  0.2920 -0.1923 -1.4259
  429MOL0     H59146   2.442   7.012   0.226 -1.5566 -1.6024  0.1934
  429MOL0     H59147   2.617   7.186   0.175 -2.2537  1.3791 -0.1941
  429MOL0     H59148   2.596   7.175   0.009 -0.7251  2.2486  0.7922
  429MOL0     H59149   2.715   6.935   0.178  4.9431  0.1207  1.0909
  429MOL0     H59150   2.697   6.946  -0.003 -0.7221  3.2729 -2.3789
  429MOL0     H59151   2.967   6.895   0.121  2.1387 -0.4419 -0.1387
  429MOL0     H59152   3.226   6.982   0.080 -0.9965 -0.0216  0.9178
  429MOL0     H59153   3.230   7.137   0.166 -0.5126 -0.5295  1.6372
  429MOL0     H59154   3.200   7.081  -0.132 -0.0630 -0.6130  1.4795
  429MOL0     H59155   3.211   7.243  -0.061  0.1045 -0.0638  0.1885
  429MOL0     H59156   3.433   7.142   0.041  1.0057 -0.4379  0.3705
  429MOL0     H59157   3.431   7.067  -0.126 -3.1835  2.2983 -3.5334
  429MOL0     H59158   3.389   7.298  -0.219  0.0268  1.0794  0.6382
  429MOL0     H59159   3.387   7.365  -0.065 -0.4812 -0.7364  0.4997
  429MOL0     H59160   3.515   7.209  -0.370 -0.3245  2.1684  0.6127
  429MOL0     H59161   3.521   7.099  -0.565  0.1259  1.7250  2.2215
  429MOL0     H59162   3.656   6.979  -0.579 -1.3956  0.5361 -0.5732
  429MOL0     H59163   3.672   7.136  -0.648  3.5867 -0.0051  0.6436
  429MOL0     H59164   4.014   7.019  -0.756 -0.8687  0.2569 -0.1980
  429MOL0     H59165   4.201   6.973  -0.912  0.3513  0.5691 -0.4233
  429MOL0     H59166   4.550   6.916  -0.735  2.2859  1.6153 -0.2419
  429MOL0     H59167   4.540   6.851  -0.904  4.2026 -0.5314 -0.7635
  429MOL0     H59168   4.661   7.071  -0.976 -0.9688 -0.4164 -0.0844
  429MOL0     H59169   4.698   7.078  -0.807 -0.4466  0.7350 -1.6953
  429MOL0     H59170   4.758   6.832  -0.973 -0.0829  0.8827 -1.4524
  429MOL0     H59171   4.814   6.865  -0.806 -0.3130 -0.0473  0.0051
  429MOL0     H59172   4.952   7.059  -0.883  2.7957 -0.3995 -1.6376
  429MOL0     H59173   4.908   7.012  -1.050 -0.1004 -2.1234 -1.0285
  429MOL0     H59174   5.050   6.822  -0.860 -1.6466 -0.7666 -1.3466
  429MOL0     H59175   5.020   6.813  -1.035 -0.8410  0.9286  0.3509
  429MOL0     H59176   5.223   7.012  -0.910  0.4764 -0.7059  0.4345
  429MOL0     H59177   5.201   6.983  -1.080 -0.0362  0.1585  0.0865
  429MOL0     H59178   5.244   6.741  -1.024 -0.8335  2.2588 -3.5623
  429MOL0     H59179   5.305   6.807  -0.865 -0.6374  1.2082 -0.1253
  429MOL0     H59180   5.456   6.967  -1.005 -0.8984 -0.9032  0.9818
  429MOL0     H59181   5.394   6.885  -1.144  0.7123 -0.8865 -0.0305
  429MOL0     H59182   4.473   7.150  -0.651 -0.1242  0.9321 -0.1474
  429MOL0     H59183   4.292   7.177  -0.475  0.0768  0.8094 -0.8366
  429MOL0     H59184   3.988   7.181  -0.274  0.0528  0.4801 -1.6316
  429MOL0     H59185   3.838   7.263  -0.093 -2.3044 -1.0754  0.6984
  429MOL0     H59186   2.070   6.401   0.159  2.9743 -1.9420  2.3240
  429MOL0     H59187   1.861   6.264   0.107  1.6011 -1.3864  2.0703
  429MOL0     H59188   1.545   6.154   0.056  1.0246 -2.9409  0.5943
  429MOL0     H59189   1.357   6.077  -0.080  0.5159  0.8086  0.4758
  429MOL0     H59190   0.996   5.898   0.146  0.0906  0.9782 -0.1457
  429MOL0     H59191   0.956   6.059   0.126  1.8674 -0.9625  3.2085
  429MOL0     H59192   0.924   5.984  -0.140  0.5196  0.6659  1.1414
  429MOL0     H59193   0.800   5.967  -0.026 -1.5975 -2.2907 -3.5353
  429MOL0     H59194   1.016   5.745  -0.085 -0.1886  0.3672  1.2819
  429MOL0     H59195   0.875   5.721   0.012  1.4426 -1.3423 -0.6735
  429MOL0     H59196   0.878   5.801  -0.280 -1.8614  1.0569 -0.0504
  429MOL0     H59197   0.734   5.766  -0.180  0.1751 -0.0668 -1.0551
  429MOL0     H59198   0.943   5.394  -0.291  0.4835 -0.0420  0.6843
  429MOL0     H59199   1.117   6.043   0.278 -0.0137 -1.6565 -1.9056
  429MOL0     H59200   1.187   6.110   0.474 -0.3781  0.3333 -0.2228
  429MOL0     H59201   1.349   6.103   0.525  0.4353 -2.0108 -1.2826
  429MOL0     H59202   1.283   6.260   0.453  1.1234 -0.6796 -2.4888
  430MOL0     O59203   2.843   6.861   2.712  0.0814 -0.4360  0.2003
  430MOL0     C59204   2.830   6.954   2.791  0.7289  0.6208  0.0402
  430MOL0     O59205   2.931   7.011   2.864  0.5850  0.9973  0.1561
  430MOL0     C59206   3.061   6.967   2.847  0.0221  0.6626  0.0073
  430MOL0     C59207   3.127   6.963   2.720 -0.5909 -0.5403 -0.3545
  430MOL0     C59208   3.266   6.921   2.713 -1.0042 -0.6794  0.9765
  430MOL0     C59209   3.341   6.884   2.826  0.5275  0.5402 -0.3456
  430MOL0     O59210   3.479   6.854   2.808  0.9934 -0.2399  0.0002
  430MOL0     C59211   3.569   6.861   2.916 -0.5900  0.4294 -0.5948
  430MOL0     C59212   3.597   7.004   2.964 -0.3330  0.1607 -0.4099
  430MOL0     C59213   3.687   7.090   2.862  0.3390  0.0398 -0.0295
  430MOL0     C59214   3.709   7.222   2.933 -0.1748  0.3895  0.5508
  430MOL0     C59215   3.764   7.326   2.832 -0.3944  0.3580  0.1557
  430MOL0     C59216   3.749   7.465   2.887  0.6962  0.1871  0.2367
  430MOL0     C59217   3.613   7.533   2.858 -0.0072  0.2851 -0.0404
  430MOL0     C59218   3.600   7.591   2.721 -1.0065  0.5796 -0.1157
  430MOL0     N59219   3.464   7.642   2.711  0.1230  0.7895 -0.0060
  430MOL0     C59220   3.405   7.735   2.799 -0.3869  0.6071 -0.8798
  430MOL0     C59221   3.273   7.736   2.771  0.1774  0.2651 -0.0233
  430MOL0     C59222   3.168   7.822   2.838 -0.1858  0.0184 -0.7042
  430MOL0     C59223   3.144   7.775   2.987  0.1870 -0.2517  0.3823
  430MOL0     C59224   3.256   7.781   3.081 -0.5203  0.9884  0.0101
  430MOL0     C59225   3.317   7.917   3.086  1.1133 -0.2741 -0.2161
  430MOL0     O59226   3.415   7.895   3.184 -0.6232 -0.4057  0.5521
  430MOL0     C59227   3.533   7.834   3.156 -0.0952  0.0090 -0.8849
  430MOL0     C59228   3.571   7.718   3.219 -0.4795  0.5599  0.7581
  430MOL0     C59229   3.707   7.668   3.220  1.0058 -0.4693  0.0074
  430MOL0     C59230   3.732   7.556   3.319  0.5655 -0.4769  0.4317
  430MOL0     C59231   3.801   7.736   3.130  0.2349  1.1591 -0.1524
  430MOL0     C59232   3.951   7.713   3.140  0.4110 -0.1671  0.6106
  430MOL0     O59233   4.030   7.767   3.042  0.2927 -0.4951 -0.6330
  430MOL0     C59234   4.164   7.785   3.067 -0.1942  1.1140  1.2448
  430MOL0     C59235   4.218   7.911   3.083 -0.9780 -0.3735  0.9893
  430MOL0     C59236   4.362   7.925   3.101 -0.3014  0.5400 -0.2019
  430MOL0     C59237   4.443   7.810   3.095  0.6857  0.2032  0.2729
  430MOL0     O59238   4.576   7.807   3.136 -0.2287 -0.0411  0.6226
  430MOL0     C59239   4.662   7.793   3.025 -0.4616 -0.2575  0.4414
  430MOL0     C59240   4.793   7.726   3.056  0.0208  0.3821  0.5372
  430MOL0     C59241   4.888   7.809   3.141 -0.5894 -0.0431 -0.7303
  430MOL0     C59242   4.998   7.724   3.212 -0.3062 -0.4099  1.1632
  430MOL0     C59243   5.097   7.801   3.297  0.3945  0.7795 -0.1036
  430MOL0     C59244   5.221   7.716   3.342 -0.2480  1.1111 -0.9182
  430MOL0     C59245   5.334   7.805   3.399 -0.5404 -0.2123  0.5948
  430MOL0     C59246   5.444   7.717   3.462 -0.5466 -0.3163  0.2933
  430MOL0    Cl59247   5.588   7.814   3.498 -0.3716 -0.1899  0.1221
  430MOL0     C59248   4.380   7.685   3.070 -0.0054 -0.3796 -0.0846
  430MOL0     C59249   4.244   7.668   3.049 -1.1083  0.5377 -0.9331
  430MOL0     O59250   3.993   7.631   3.220  0.4544 -0.2493 -0.7001
  430MOL0     C59251   3.750   7.842   3.058 -0.1913 -0.3323 -0.3470
  430MOL0     C59252   3.621   7.893   3.072 -0.1839 -0.1089 -0.5306
  430MOL0     N59253   3.254   7.644   2.679 -0.5121  0.0060  0.3060
  430MOL0     N59254   3.367   7.596   2.637 -0.5947 -0.3627  0.1146
  430MOL0     C59255   3.279   6.897   2.949  0.1410 -0.9088 -0.8157
  430MOL0     C59256   3.142   6.935   2.957  0.7784 -0.1583 -0.2882
  430MOL0     C59257   2.700   7.030   2.792 -1.0720 -0.2842 -1.2263
  430MOL0     C59258   2.681   7.143   2.879 -0.9424  0.8614  0.3582
  430MOL0     C59259   2.560   7.204   2.896 -0.7433  1.1092  0.3011
  430MOL0     C59260   2.456   7.181   2.816 -0.6296 -0.2139 -0.6139
  430MOL0     O59261   2.339   7.257   2.843  0.2243 -0.3358 -0.4101
  430MOL0     C59262   2.225   7.241   2.758  0.2088  0.2471  1.2492
  430MOL0     C59263   2.144   7.367   2.776  0.1212 -0.0328 -0.9896
  430MOL0     C59264   1.993   7.341   2.766  0.2144 -0.0896 -0.5931
  430MOL0     C59265   1.910   7.462   2.716 -0.4825  0.0892  0.5331
  430MOL0     C59266   1.765   7.436   2.706 -0.0875 -0.2804  0.0585
  430MOL0     C59267   1.637   7.420   2.706 -0.2674 -0.0832  0.6978
  430MOL0     C59268   2.471   7.087   2.710  0.0687 -0.1934 -0.6474
  430MOL0     C59269   2.589   7.002   2.705  0.1723 -0.6131 -0.6317
  430MOL0     C59270   2.579   6.896   2.602  0.7687  0.1103  0.6600
  430MOL0     H59271   3.070   6.984   2.630 -0.3666 -2.2817 -0.9515
  430MOL0     H59272   3.303   6.934   2.611 -0.7183  4.2609  1.4825
  430MOL0     H59273   3.655   6.806   2.875 -1.4890 -1.5469  0.0775
  430MOL0     H59274   3.535   6.801   3.000  0.1458  0.0434 -0.5665
  430MOL0     H59275   3.499   7.048   2.983 -0.5891 -0.9266  1.0154
  430MOL0     H59276   3.653   6.996   3.058 -1.3825 -2.0857  0.0801
  430MOL0     H59277   3.784   7.046   2.839  0.4757 -0.6434  1.7067
  430MOL0     H59278   3.623   7.104   2.774  0.1075 -0.0782  0.1188
  430MOL0     H59279   3.613   7.259   2.971 -1.3941 -0.8448 -1.1674
  430MOL0     H59280   3.773   7.208   3.020  1.3776 -0.7769 -0.7118
  430MOL0     H59281   3.707   7.312   2.740 -0.4578 -1.2416  0.4153
  430MOL0     H59282   3.868   7.300   2.811  0.3356  2.5320  0.8451
  430MOL0     H59283   3.780   7.471   2.992  0.4804 -2.2828  0.5165
  430MOL0     H59284   3.822   7.528   2.836 -1.6941  0.8341 -2.6385
  430MOL0     H59285   3.608   7.621   2.923 -2.3214  0.7423 -0.7500
  430MOL0     H59286   3.531   7.464   2.881  0.2285  0.8656  3.0465
  430MOL0     H59287   3.673   7.673   2.719  0.7719 -0.9132  0.0127
  430MOL0     H59288   3.631   7.516   2.647 -1.4011  0.2863  0.0154
  430MOL0     H59289   3.467   7.788   2.870  3.4907 -1.5264 -2.3597
  430MOL0     H59290   3.076   7.808   2.780 -0.9109  0.4863  0.3129
  430MOL0     H59291   3.198   7.927   2.839  0.5157 -0.1840 -0.3511
  430MOL0     H59292   3.054   7.815   3.034  0.9246  0.6184  1.0910
  430MOL0     H59293   3.127   7.668   2.972 -1.6233  0.1943 -1.0912
  430MOL0     H59294   3.230   7.744   3.180  0.7816  1.3575  0.5087
  430MOL0     H59295   3.329   7.707   3.046 -0.8057  1.7540 -2.3870
  430MOL0     H59296   3.358   7.958   2.993  2.5321  1.2138  0.9997
  430MOL0     H59297   3.246   7.987   3.131  1.5540 -0.1298  0.2818
  430MOL0     H59298   3.497   7.677   3.286  2.0528  0.8296  3.9798
  430MOL0     H59299   3.804   7.598   3.390  0.7532  2.8369 -1.4730
  430MOL0     H59300   3.760   7.465   3.266 -1.0482  0.6716 -2.7256
  430MOL0     H59301   3.640   7.526   3.369 -1.3690 -1.2467 -3.2083
  430MOL0     H59302   4.151   7.995   3.067 -1.0085 -1.0934 -4.4631
  430MOL0     H59303   4.420   8.015   3.113  0.6877  0.0495 -1.1008
  430MOL0     H59304   4.621   7.722   2.953  1.0754 -1.0039  0.2570
  430MOL0     H59305   4.676   7.890   2.977 -0.6238 -1.1983 -1.5987
  430MOL0     H59306   4.755   7.636   3.107 -1.8574 -0.0787 -1.5379
  430MOL0     H59307   4.847   7.686   2.970  0.7601 -1.0156  1.6067
  430MOL0     H59308   4.822   7.849   3.219 -1.4043  0.3448 -1.5992
  430MOL0     H59309   4.937   7.886   3.081  1.5882 -1.9523 -1.5540
  430MOL0     H59310   5.050   7.665   3.136  0.4295  2.7957 -1.0143
  430MOL0     H59311   4.940   7.652   3.270  0.0115 -5.0769 -3.5766
  430MOL0     H59312   5.132   7.898   3.261 -0.5931  2.7443  3.7561
  430MOL0     H59313   5.035   7.840   3.378 -0.5504  2.5633 -1.6042
  430MOL0     H59314   5.264   7.661   3.258 -0.0888  0.3172 -0.3231
  430MOL0     H59315   5.175   7.643   3.410  4.5346 -1.0686  0.4407
  430MOL0     H59316   5.287   7.872   3.472  0.0149 -0.0731  0.8297
  430MOL0     H59317   5.377   7.860   3.314  1.2361  0.5847  1.9393
  430MOL0     H59318   5.476   7.641   3.391 -0.9386 -0.2528  0.0449
  430MOL0     H59319   5.413   7.667   3.555  0.0627 -2.0169 -0.3875
  430MOL0     H59320   4.446   7.599   3.076 -3.0171 -2.8245  1.3424
  430MOL0     H59321   4.193   7.577   3.017 -0.4052  0.0532 -0.6898
  430MOL0     H59322   3.818   7.890   2.989 -1.2465 -1.2706 -2.1295
  430MOL0     H59323   3.600   7.990   3.029 -0.5161  1.8527  3.5402
  430MOL0     H59324   3.323   6.879   3.046 -1.9050 -0.9565  0.1462
  430MOL0     H59325   3.094   6.936   3.054  1.1122  1.5642 -0.1236
  430MOL0     H59326   2.758   7.164   2.952  2.3393  0.5818 -2.7107
  430MOL0     H59327   2.557   7.292   2.959  0.3451  1.5624 -0.2401
  430MOL0     H59328   2.252   7.224   2.653  0.3142  2.8856  0.7814
  430MOL0     H59329   2.172   7.154   2.797 -1.4438 -0.2582 -1.7981
  430MOL0     H59330   2.177   7.437   2.699  2.9281 -1.3920 -1.1252
  430MOL0     H59331   2.158   7.406   2.877 -2.3971 -1.8323  0.1768
  430MOL0     H59332   1.968   7.267   2.689 -1.2684  1.7239 -1.9767
  430MOL0     H59333   1.955   7.297   2.859 -0.1627  0.6440 -0.3932
  430MOL0     H59334   1.950   7.498   2.621 -0.0995  1.4691  1.1859
  430MOL0     H59335   1.924   7.547   2.785 -2.1910  1.3771 -0.6227
  430MOL0     H59336   1.534   7.398   2.728  0.1219 -0.9881  1.7487
  430MOL0     H59337   2.392   7.074   2.636  0.0308 -1.1277 -0.4614
  430MOL0     H59338   2.653   6.915   2.523 -0.6546 -0.9894 -1.0101
  430MOL0     H59339   2.610   6.809   2.661  0.0850  0.5487  1.6959
  430MOL0     H59340   2.479   6.877   2.562  1.3018 -0.4678 -0.4482
  431MOL0     O59341   1.890  10.282   3.565  0.2642 -0.0769 -0.9798
  431MOL0     C59342   1.961  10.203   3.627  0.1023  1.0548 -0.2332
  431MOL0     O59343   2.096  10.218   3.631 -0.4944  0.4309  0.4623
  431MOL0     C59344   2.137  10.349   3.642  0.4777 -0.6732  1.1610
  431MOL0     C59345   2.103  10.427   3.754 -0.6971  0.8436  0.1610
  431MOL0     C59346   2.150  10.560   3.763 -1.2355 -0.4366  0.1442
  431MOL0     C59347   2.231  10.616   3.659  0.2771 -0.9621 -1.2361
  431MOL0     O59348   2.266  10.754   3.669 -0.0601  0.0757 -0.1799
  431MOL0     C59349   2.395  10.788   3.614  0.3184 -0.4212  0.0051
  431MOL0     C59350   2.405  10.936   3.595  0.0307 -1.2499  0.2782
  431MOL0     C59351   2.530  10.976   3.508 -0.1383  0.1843  0.2956
  431MOL0     C59352   2.662  10.964   3.578 -0.6510  0.4469  0.0417
  431MOL0     C59353   2.785  10.989   3.483 -0.2257 -0.0690  0.2882
  431MOL0     C59354   2.791  11.138   3.430 -0.4999 -0.3693 -0.5138
  431MOL0     C59355   2.934  11.170   3.387 -0.1856 -0.5709  0.2898
  431MOL0     C59356   2.985  11.092   3.262  0.2586 -0.1693  0.0763
  431MOL0     N59357   3.124  11.054   3.262  0.3158 -0.1569 -0.6211
  431MOL0     C59358   3.208  10.998   3.362  1.3461  0.2301  0.2459
  431MOL0     C59359   3.323  10.957   3.308  0.2399  0.0910 -0.2157
  431MOL0     C59360   3.437  10.883   3.374  0.1638  0.0065  0.2938
  431MOL0     C59361   3.482  10.744   3.311  0.8952  0.0275 -0.5332
  431MOL0     C59362   3.360  10.651   3.308 -0.8257 -0.5707  0.8917
  431MOL0     C59363   3.391  10.531   3.221  0.6475  0.2170 -0.3277
  431MOL0     O59364   3.490  10.438   3.275 -0.1939 -0.5070  1.1062
  431MOL0     C59365   3.587  10.393   3.201  0.2014  0.5112 -0.5947
  431MOL0     C59366   3.576  10.381   3.066 -0.5912 -0.6620  0.1381
  431MOL0     C59367   3.684  10.349   2.983  0.8247 -0.4820  0.1695
  431MOL0     C59368   3.662  10.328   2.834 -0.1722  0.4740 -0.2486
  431MOL0     C59369   3.810  10.338   3.042  0.0653  0.5523 -0.1718
  431MOL0     C59370   3.929  10.315   2.956  0.6944  0.1485 -0.9657
  431MOL0     O59371   3.972  10.409   2.881  0.0887 -0.6257  0.0785
  431MOL0     C59372   4.074  10.389   2.793 -0.3409  0.3281  0.4504
  431MOL0     C59373   4.112  10.262   2.736  0.3864 -0.2085  0.1207
  431MOL0     C59374   4.217  10.249   2.646 -0.7054 -0.5878 -0.1421
  431MOL0     C59375   4.298  10.368   2.622 -0.3818  0.2818  0.6870
  431MOL0     O59376   4.411  10.362   2.539 -0.4264 -0.0377 -0.2143
  431MOL0     C59377   4.420  10.260   2.440  0.5614 -0.5589  0.0590
  431MOL0     C59378   4.549  10.281   2.359 -0.0269  0.0556  0.0598
  431MOL0     C59379   4.685  10.239   2.431  0.5424  0.5588 -0.3050
  431MOL0     C59380   4.807  10.274   2.358 -0.8862  0.4581  0.1541
  431MOL0     C59381   4.933  10.204   2.429 -0.0823  0.4772 -0.3604
  431MOL0     C59382   5.066  10.255   2.382  0.1807 -0.5155 -0.2155
  431MOL0     C59383   5.089  10.224   2.230 -0.6845 -0.5053  0.5703
  431MOL0     C59384   5.220  10.280   2.175 -0.2441 -0.5841 -0.5457
  431MOL0    Cl59385   5.285  10.185   2.047  0.1795 -0.0230 -0.0215
  431MOL0     C59386   4.262  10.493   2.675  1.7426  0.5580 -0.1949
  431MOL0     C59387   4.147  10.506   2.751  0.2356 -0.5614 -0.0907
  431MOL0     O59388   3.995  10.215   2.992  0.0887 -0.7966  0.3071
  431MOL0     C59389   3.815  10.328   3.185 -0.0375  0.5075 -0.4050
  431MOL0     C59390   3.701  10.360   3.261 -0.7558 -0.6590  0.7605
  431MOL0     N59391   3.326  11.007   3.172  0.0698 -0.2390 -0.6126
  431MOL0     N59392   3.211  11.064   3.155  0.5542 -0.0591  0.4321
  431MOL0     C59393   2.249  10.542   3.543 -0.2637  0.2060  0.1356
  431MOL0     C59394   2.205  10.410   3.530  0.4034 -0.2401  1.0649
  431MOL0     C59395   1.898  10.069   3.654  0.0789 -0.3464  0.1088
  431MOL0     C59396   1.770  10.040   3.596 -0.0537  0.4222 -0.9668
  431MOL0     C59397   1.705   9.917   3.624 -0.0127  0.2264 -0.5760
  431MOL0     C59398   1.768   9.814   3.693  0.2751  0.8965 -0.3674
  431MOL0     O59399   1.710   9.694   3.728 -0.4872  0.4295 -0.0792
  431MOL0     C59400   1.581   9.667   3.687 -0.0157 -0.1858 -0.5648
  431MOL0     C59401   1.488   9.724   3.792  0.4454 -0.0105 -0.3820
  431MOL0     C59402   1.333   9.698   3.771 -0.3235  0.0274  0.1318
  431MOL0     C59403   1.298   9.554   3.809 -0.6329 -0.4520  0.1496
  431MOL0     C59404   1.158   9.534   3.792  0.8949 -0.4030  0.7476
  431MOL0     C59405   1.042   9.500   3.773  0.5173  0.2151  0.0548
  431MOL0     C59406   1.888   9.839   3.747  0.1021  0.0384  0.0779
  431MOL0     C59407   1.956   9.962   3.736  0.4624  0.5887  1.2784
  431MOL0     C59408   2.082   9.984   3.816  0.5686  0.2416 -0.8296
  431MOL0     H59409   2.042  10.389   3.835 -1.3056  0.4292 -0.4860
  431MOL0     H59410   2.112  10.618   3.846  1.9126 -2.1229  3.0632
  431MOL0     H59411   2.415  10.744   3.516  1.9821  1.7391 -0.7154
  431MOL0     H59412   2.474  10.748   3.679  0.2178 -2.6332 -1.1481
  431MOL0     H59413   2.307  10.955   3.550  1.3317  0.4376 -2.0943
  431MOL0     H59414   2.402  10.991   3.690  1.4256  1.7531 -1.2646
  431MOL0     H59415   2.536  10.914   3.418 -1.1304  0.0647  0.2981
  431MOL0     H59416   2.512  11.080   3.477 -1.1668 -0.1427 -0.2767
  431MOL0     H59417   2.668  11.026   3.668 -0.1014  0.8843 -0.2846
  431MOL0     H59418   2.684  10.858   3.595  0.6895 -0.0073 -3.6903
  431MOL0     H59419   2.780  10.920   3.398  0.0703  1.7567 -1.3083
  431MOL0     H59420   2.875  10.964   3.540 -1.1181  0.2937  1.9072
  431MOL0     H59421   2.734  11.156   3.338  0.7159 -0.5606 -1.3330
  431MOL0     H59422   2.755  11.211   3.502  4.3505  0.1566  1.7916
  431MOL0     H59423   2.995  11.141   3.473  0.7324  0.5955  0.0525
  431MOL0     H59424   2.945  11.277   3.366 -0.3159 -0.4759  0.7035
  431MOL0     H59425   2.934  10.997   3.246 -2.5224  1.1149  0.6565
  431MOL0     H59426   2.964  11.149   3.170  0.3177  1.3881  0.9897
  431MOL0     H59427   3.173  10.964   3.459 -1.0180  1.1329 -0.2276
  431MOL0     H59428   3.414  10.884   3.480 -1.0874 -0.5240  0.0417
  431MOL0     H59429   3.524  10.949   3.370 -0.2671  0.6816  1.6960
  431MOL0     H59430   3.513  10.752   3.206 -1.6974 -0.3702 -1.3985
  431MOL0     H59431   3.559  10.699   3.373  1.8154  0.4737 -1.3203
  431MOL0     H59432   3.338  10.620   3.410  3.3071  0.6231  2.3345
  431MOL0     H59433   3.275  10.699   3.257  0.5925  0.0410 -1.0233
  431MOL0     H59434   3.296  10.478   3.208  1.3415 -0.6292 -2.3696
  431MOL0     H59435   3.411  10.564   3.119 -0.7346 -0.7900 -0.9628
  431MOL0     H59436   3.482  10.396   3.014 -0.5167  4.5736  0.9545
  431MOL0     H59437   3.558  10.338   2.803 -0.1038  2.6331  0.0718
  431MOL0     H59438   3.704  10.232   2.803  1.5582  1.4707 -1.2070
  431MOL0     H59439   3.723  10.402   2.781  0.6715 -1.4348 -2.1009
  431MOL0     H59440   4.063  10.170   2.766  3.5583 -1.7661  0.8572
  431MOL0     H59441   4.241  10.154   2.599 -1.1281  0.7001 -3.2083
  431MOL0     H59442   4.442  10.167   2.493  1.0785 -2.1313 -2.7107
  431MOL0     H59443   4.334  10.243   2.374  0.5568 -0.3247  0.0026
  431MOL0     H59444   4.544  10.223   2.266 -4.3412 -0.6377  0.5047
  431MOL0     H59445   4.549  10.388   2.339 -1.9175  0.0429 -0.1797
  431MOL0     H59446   4.681  10.130   2.431 -3.7675  0.4562 -3.3143
  431MOL0     H59447   4.692  10.294   2.525 -1.0570 -0.4347  0.4242
  431MOL0     H59448   4.819  10.382   2.370  3.2834 -0.0525  2.3327
  431MOL0     H59449   4.810  10.248   2.252 -2.2982  0.5540  0.0793
  431MOL0     H59450   4.940  10.226   2.536  2.1054 -1.9548  0.1026
  431MOL0     H59451   4.926  10.095   2.415 -0.8811  0.1647  1.9305
  431MOL0     H59452   5.139  10.204   2.445  0.2564  1.9232  1.8316
  431MOL0     H59453   5.090  10.360   2.399  0.8587 -0.5482 -0.9192
  431MOL0     H59454   5.021  10.280   2.165  1.5641  0.4746 -1.1094
  431MOL0     H59455   5.087  10.116   2.212  0.2498 -0.5218  0.4952
  431MOL0     H59456   5.294  10.271   2.256  0.0275 -2.0388 -0.9204
  431MOL0     H59457   5.201  10.384   2.146 -3.7630 -0.7097  0.9109
  431MOL0     H59458   4.319  10.574   2.633  0.0731  0.5059 -2.8292
  431MOL0     H59459   4.111  10.603   2.783 -2.2904 -1.2103 -0.7554
  431MOL0     H59460   3.903  10.300   3.242 -0.8444 -1.3776 -0.0162
  431MOL0     H59461   3.689  10.364   3.369 -0.0973  0.3723  0.8131
  431MOL0     H59462   2.282  10.590   3.451 -1.4668  1.6875  0.4239
  431MOL0     H59463   2.208  10.370   3.430 -0.0054 -0.2953  1.0755
  431MOL0     H59464   1.721  10.115   3.534 -2.4719  0.3105  0.6753
  431MOL0     H59465   1.607   9.926   3.578 -0.2656 -1.1332 -0.3387
  431MOL0     H59466   1.553   9.721   3.595 -1.3066  1.5047  0.7619
  431MOL0     H59467   1.551   9.563   3.670 -1.3784  0.2517 -0.9506
  431MOL0     H59468   1.517   9.828   3.806  2.0821 -0.4220 -0.4767
  431MOL0     H59469   1.502   9.678   3.890 -0.2547  0.0126 -0.2681
  431MOL0     H59470   1.287   9.769   3.841 -1.4514 -0.2835 -0.2768
  431MOL0     H59471   1.304   9.716   3.667  0.9842 -1.1083 -0.4523
  431MOL0     H59472   1.330   9.535   3.912 -0.1880 -1.4524 -0.1642
  431MOL0     H59473   1.360   9.489   3.747  0.1054  0.5235 -0.1729
  431MOL0     H59474   0.940   9.467   3.761  1.0536 -1.1481 -1.0208
  431MOL0     H59475   1.932   9.758   3.805  1.4009  1.6030  1.3775
  431MOL0     H59476   2.166   9.952   3.754  1.8491  0.6073  0.6684
  431MOL0     H59477   2.084  10.092   3.832 -2.0250  0.8685 -3.6451
  431MOL0     H59478   2.075   9.931   3.911  1.5336 -1.0821 -1.4625
  432MOL0     O59479   7.064   0.210   2.469  0.0925  0.5709  0.5315
  432MOL0     C59480   7.040   0.329   2.491 -0.4951 -0.3591  1.0299
  432MOL0     O59481   7.138   0.430   2.502  0.1183 -0.5960 -0.0607
  432MOL0     C59482   7.269   0.393   2.505  0.4595  0.0737  0.7209
  432MOL0     C59483   7.324   0.323   2.613 -0.1367 -1.4448 -0.1615
  432MOL0     C59484   7.461   0.305   2.625  1.4342  0.0067 -0.0060
  432MOL0     C59485   7.546   0.375   2.544  0.6758 -0.2580  0.7595
  432MOL0     O59486   7.681   0.379   2.570  0.0104  0.1668  0.0636
  432MOL0     C59487   7.732   0.341   2.696  0.4120 -0.0981 -0.0260
  432MOL0     C59488   7.876   0.373   2.692 -0.0780 -0.3362 -0.0818
  432MOL0     C59489   7.902   0.526   2.678  0.0420 -0.0215 -0.3266
  432MOL0     C59490   8.053   0.557   2.681 -1.0912 -0.4836  0.2098
  432MOL0     C59491   8.084   0.706   2.714 -0.0639 -0.7487  1.2011
  432MOL0     C59492   8.086   0.738   2.866 -0.3316  0.3570  0.3910
  432MOL0     C59493   8.170   0.858   2.900 -0.3094  0.3452  0.2472
  432MOL0     C59494   8.178   0.886   3.047 -0.4311  0.0363 -0.4729
  432MOL0     N59495   8.245   0.793   3.134  0.2361  0.2954  0.0336
  432MOL0     C59496   8.317   0.678   3.096 -0.4228  0.0433  0.5492
  432MOL0     C59497   8.363   0.623   3.215 -0.1784 -0.3032  0.5878
  432MOL0     C59498   8.465   0.514   3.226 -0.2450 -0.6080 -0.3273
  432MOL0     C59499   8.577   0.568   3.323 -0.0170  0.1629  0.1485
  432MOL0     C59500   8.690   0.468   3.335 -0.0039  0.1970 -0.2117
  432MOL0     C59501   8.791   0.521   3.440  0.5900  0.2624  0.4101
  432MOL0     O59502   8.910   0.446   3.433  0.1508 -0.1473  0.5289
  432MOL0     C59503   9.030   0.506   3.479 -0.6475 -0.0387 -0.2419
  432MOL0     C59504   9.136   0.429   3.467  0.1229  0.5397  0.5091
  432MOL0     C59505   9.269   0.474   3.502 -0.2509 -0.2727  0.4792
  432MOL0     C59506   9.383   0.370   3.483  0.3516 -0.2481  0.0184
  432MOL0     C59507   9.283   0.606   3.553  0.1303 -0.3046  0.6783
  432MOL0     C59508   9.422   0.657   3.589  0.6662  0.1517  0.4180
  432MOL0     O59509   9.433   0.742   3.689  0.3747 -0.2142  0.0562
  432MOL0     C59510   9.550   0.793   3.725 -0.1994 -0.1875  0.1666
  432MOL0     C59511   9.547   0.926   3.757  0.1169 -0.4393  0.7428
  432MOL0     C59512   9.666   0.988   3.805  0.2589  0.0679  0.0456
  432MOL0     C59513   9.785   0.915   3.808 -0.4220 -0.1129 -0.2624
  432MOL0     O59514   9.900   0.971   3.859 -0.0787 -0.0399 -0.3886
  432MOL0     C59515   9.885   1.039   3.982  0.3651 -1.6435 -0.5548
  432MOL0     C59516  10.025   1.045   4.041 -0.1876  0.3324  0.2015
  432MOL0     C59517  10.122   1.149   3.971 -0.2554  0.0014 -0.6225
  432MOL0     C59518  10.247   1.175   4.055  0.2812 -0.4968 -0.3992
  432MOL0     C59519  10.333   1.278   3.978  0.1198 -0.0895 -0.2753
  432MOL0     C59520  10.400   1.231   3.851 -0.6745 -0.5239 -0.1267
  432MOL0     C59521  10.503   1.321   3.782 -0.5059 -0.3595  0.0669
  432MOL0     C59522  10.642   1.299   3.845 -0.0323  0.1825 -0.0785
  432MOL0    Cl59523  10.719   1.152   3.785 -0.0218 -0.1773 -0.0496
  432MOL0     C59524   9.794   0.782   3.753 -0.5861  0.6290 -0.0675
  432MOL0     C59525   9.673   0.722   3.720 -0.4308 -0.0367  0.5279
  432MOL0     O59526   9.512   0.634   3.506  0.4350 -0.4049 -0.5169
  432MOL0     C59527   9.170   0.686   3.569 -0.1630 -0.3054  0.6297
  432MOL0     C59528   9.038   0.632   3.547 -0.3673  1.0633 -0.4254
  432MOL0     N59529   8.304   0.692   3.314  0.3455 -0.2068 -0.3163
  432MOL0     N59530   8.242   0.800   3.266 -0.0045 -0.3088 -0.7904
  432MOL0     C59531   7.495   0.462   2.445 -0.7291  0.1815 -0.8452
  432MOL0     C59532   7.355   0.472   2.420 -0.1449  0.6522  0.4553
  432MOL0     C59533   6.897   0.374   2.487 -0.0666  0.3769  0.4456
  432MOL0     C59534   6.877   0.513   2.463 -0.1162  0.6505  0.6025
  432MOL0     C59535   6.745   0.558   2.438 -0.8763  0.3004  0.6158
  432MOL0     C59536   6.642   0.470   2.457 -0.5702 -0.4630 -0.1667
  432MOL0     O59537   6.512   0.510   2.434 -0.0268 -0.5176 -0.2331
  432MOL0     C59538   6.471   0.643   2.459  0.0566  0.8213 -0.1071
  432MOL0     C59539   6.416   0.673   2.595  0.2292 -0.3169 -1.0473
  432MOL0     C59540   6.353   0.559   2.672 -0.2145  0.2778 -0.0986
  432MOL0     C59541   6.239   0.607   2.774 -0.3850  0.1102  0.2092
  432MOL0     C59542   6.137   0.689   2.710  0.5192 -0.2603  0.8534
  432MOL0     C59543   6.041   0.756   2.670  0.3940 -0.0352  0.0397
  432MOL0     C59544   6.656   0.338   2.500  0.0611  0.6946 -0.5288
  432MOL0     C59545   6.788   0.289   2.511  0.4902  0.2355 -0.6520
  432MOL0     C59546   6.801   0.152   2.569 -0.0412 -0.3982  0.0755
  432MOL0     H59547   7.265   0.289   2.698  2.5153 -1.7098  1.6853
  432MOL0     H59548   7.496   0.241   2.706 -0.6111 -0.8550  0.2630
  432MOL0     H59549   7.723   0.233   2.709  2.6476 -0.9882 -4.3717
  432MOL0     H59550   7.663   0.391   2.766  1.3364 -0.2489  1.0282
  432MOL0     H59551   7.913   0.323   2.782 -0.7696  0.0474  0.4194
  432MOL0     H59552   7.927   0.326   2.607  0.3254 -0.6307  0.3183
  432MOL0     H59553   7.859   0.572   2.588 -2.1213  0.3327  0.8266
  432MOL0     H59554   7.845   0.570   2.760  0.8957 -0.7157  0.6567
  432MOL0     H59555   8.097   0.493   2.758  0.4307  0.8125  0.4888
  432MOL0     H59556   8.086   0.522   2.583  1.0784  1.3433  0.2053
  432MOL0     H59557   8.011   0.771   2.664  0.0784 -2.6880 -1.7631
  432MOL0     H59558   8.183   0.724   2.671 -0.8440  2.7403  0.5614
  432MOL0     H59559   7.980   0.757   2.888 -0.9634 -1.5046 -0.8245
  432MOL0     H59560   8.129   0.655   2.923  1.8527  2.5664  2.2321
  432MOL0     H59561   8.128   0.946   2.850  3.9101  1.9828 -0.8727
  432MOL0     H59562   8.264   0.838   2.848 -1.5398  0.3602 -2.1227
  432MOL0     H59563   8.232   0.980   3.059  0.9065 -0.8897  1.3089
  432MOL0     H59564   8.073   0.893   3.077 -0.7887  0.7512 -1.7985
  432MOL0     H59565   8.343   0.647   2.995  3.4526 -0.9320  1.7161
  432MOL0     H59566   8.505   0.486   3.128  0.7988  0.4091 -0.2108
  432MOL0     H59567   8.414   0.428   3.271 -2.7751 -0.1628 -2.1366
  432MOL0     H59568   8.628   0.659   3.291  0.6809 -0.2558  0.0347
  432MOL0     H59569   8.533   0.586   3.422  2.5747  2.1237  1.0572
  432MOL0     H59570   8.660   0.369   3.369 -0.8020  1.0889  1.8401
  432MOL0     H59571   8.742   0.459   3.239 -0.2962 -0.4875 -0.3123
  432MOL0     H59572   8.801   0.628   3.423 -0.8744  0.3746  0.1106
  432MOL0     H59573   8.752   0.510   3.542 -0.1226 -1.6724 -0.0301
  432MOL0     H59574   9.123   0.334   3.415  0.7702  1.7215 -1.9869
  432MOL0     H59575   9.328   0.280   3.453 -0.1779  0.5001 -1.3550
  432MOL0     H59576   9.449   0.348   3.568  2.4084 -1.3057 -1.7360
  432MOL0     H59577   9.451   0.393   3.401  2.4974  0.8006  1.9710
  432MOL0     H59578   9.456   0.985   3.751 -0.2278 -0.9637  0.7738
  432MOL0     H59579   9.668   1.091   3.840 -2.6960  0.2940 -0.1883
  432MOL0     H59580   9.845   1.140   3.975 -0.8621 -2.1371 -0.9404
  432MOL0     H59581   9.823   0.982   4.053 -0.0980 -3.0660 -2.0481
  432MOL0     H59582  10.022   1.080   4.144 -2.4761  1.7822 -0.2869
  432MOL0     H59583  10.065   0.943   4.033  1.4259  0.9673 -0.3470
  432MOL0     H59584  10.086   1.252   3.961  1.4453  0.6860 -0.2020
  432MOL0     H59585  10.142   1.116   3.869  0.2086 -1.2111 -0.1607
  432MOL0     H59586  10.297   1.079   4.072  0.2202  0.0498  3.9893
  432MOL0     H59587  10.219   1.218   4.151 -0.3078 -0.8996 -0.3850
  432MOL0     H59588  10.282   1.374   3.974  0.3692  0.2527  2.4297
  432MOL0     H59589  10.414   1.293   4.050  0.4304 -1.2406 -0.3627
  432MOL0     H59590  10.327   1.222   3.770 -0.5464 -2.7270 -0.0566
  432MOL0     H59591  10.438   1.130   3.869 -1.6567 -0.5924  1.8757
  432MOL0     H59592  10.476   1.427   3.792  0.1812  0.0258 -1.7275
  432MOL0     H59593  10.505   1.310   3.673 -0.6810 -1.4164  0.1579
  432MOL0     H59594  10.632   1.300   3.954 -0.5204  0.8300 -0.1217
  432MOL0     H59595  10.700   1.390   3.825  0.0264  0.0834 -0.3562
  432MOL0     H59596   9.893   0.737   3.755 -2.2733 -3.5267  1.3167
  432MOL0     H59597   9.680   0.616   3.697 -0.9234 -0.1074  0.6803
  432MOL0     H59598   9.187   0.785   3.610  1.9573 -0.3801  0.0645
  432MOL0     H59599   8.945   0.688   3.557 -1.9766 -1.3112 -1.1950
  432MOL0     H59600   7.564   0.514   2.379  0.6570  0.8135  0.9814
  432MOL0     H59601   7.313   0.544   2.351  1.5990  0.2863 -1.1028
  432MOL0     H59602   6.951   0.590   2.442  1.8906 -1.7107 -1.5964
  432MOL0     H59603   6.729   0.659   2.403  0.1017  0.0536 -0.6241
  432MOL0     H59604   6.544   0.720   2.429 -1.1114  2.5360  1.3189
  432MOL0     H59605   6.388   0.652   2.388  0.7613  1.1416 -0.9221
  432MOL0     H59606   6.348   0.759   2.590  0.4745  0.1349  1.6039
  432MOL0     H59607   6.494   0.709   2.662  0.0099  1.1748 -1.5729
  432MOL0     H59608   6.318   0.480   2.606  1.5420 -0.0949 -0.6417
  432MOL0     H59609   6.433   0.504   2.723 -0.5915 -0.7911 -0.6498
  432MOL0     H59610   6.287   0.672   2.848 -0.1337 -1.5819  1.5862
  432MOL0     H59611   6.195   0.526   2.832  1.6203 -0.8957  0.3979
  432MOL0     H59612   5.963   0.828   2.656  0.1884 -0.5173 -1.4454
  432MOL0     H59613   6.568   0.279   2.523  0.8657  0.0715  1.1016
  432MOL0     H59614   6.872   0.152   2.652 -0.5365  0.2988  0.5061
  432MOL0     H59615   6.699   0.128   2.600 -0.3664  0.1046 -0.5767
  432MOL0     H59616   6.845   0.086   2.493  2.9237  4.5512 -3.0488
  433MOL0     O59617   8.625   4.267   0.195 -0.3909 -0.0323 -0.5235
  433MOL0     C59618   8.667   4.156   0.162 -0.1511 -0.1977 -0.5626
  433MOL0     O59619   8.795   4.125   0.159  0.0975 -0.4858 -0.2385
  433MOL0     C59620   8.886   4.223   0.176 -0.3960 -0.6199 -0.5956
  433MOL0     C59621   8.924   4.246   0.313 -0.0674 -0.3507  0.3917
  433MOL0     C59622   9.030   4.344   0.333  0.3364 -0.6189  0.0329
  433MOL0     C59623   9.084   4.429   0.239  0.3003  0.7248  0.2485
  433MOL0     O59624   9.195   4.519   0.261  1.0757  0.0044 -0.0203
  433MOL0     C59625   9.228   4.575   0.391 -0.2840  0.1674  0.0682
  433MOL0     C59626   9.123   4.656   0.467 -0.3724  0.3520  0.4643
  433MOL0     C59627   9.102   4.797   0.415 -0.4435 -0.2988  0.3347
  433MOL0     C59628   9.053   4.803   0.269  0.0165 -0.2715  0.1357
  433MOL0     C59629   9.020   4.942   0.214 -0.4345 -0.0831  1.0150
  433MOL0     C59630   9.012   4.953   0.063 -0.2426  0.6747  0.1119
  433MOL0     C59631   8.893   4.869   0.001  0.8774  0.3306 -0.2512
  433MOL0     C59632   8.896   4.844  -0.151  0.7355 -0.4079  1.0378
  433MOL0     N59633   8.990   4.740  -0.196 -0.0564 -0.0962 -0.2333
  433MOL0     C59634   8.961   4.607  -0.224 -0.2730  0.4264 -0.1578
  433MOL0     C59635   9.077   4.554  -0.267  0.1117 -0.2390 -0.2899
  433MOL0     C59636   9.080   4.403  -0.301  0.3245  0.1476 -0.8114
  433MOL0     C59637   9.221   4.345  -0.317  0.6176  0.3104  0.4320
  433MOL0     C59638   9.298   4.344  -0.185  0.1886  0.0436 -0.1695
  433MOL0     C59639   9.418   4.250  -0.177 -0.5956 -0.4090  0.0889
  433MOL0     O59640   9.519   4.295  -0.277  0.5821 -0.3185 -0.1982
  433MOL0     C59641   9.639   4.225  -0.281  1.1447 -0.2573  0.7631
  433MOL0     C59642   9.688   4.145  -0.181  0.6106  0.8672 -0.8878
  433MOL0     C59643   9.815   4.078  -0.182 -0.0781 -0.5965  0.1704
  433MOL0     C59644   9.853   4.013  -0.050 -0.1377  0.3039  0.1220
  433MOL0     C59645   9.897   4.100  -0.304 -0.6698 -0.0763  0.1501
  433MOL0     C59646  10.042   4.062  -0.319  0.0662 -0.7829 -0.1251
  433MOL0     O59647  10.108   4.105  -0.434 -0.4647  0.3308 -0.5751
  433MOL0     C59648  10.239   4.083  -0.441 -0.7938  0.3072  0.7389
  433MOL0     C59649  10.335   4.178  -0.404 -0.2198 -0.8434  0.1223
  433MOL0     C59650  10.469   4.160  -0.431 -0.0206 -0.7077  0.4470
  433MOL0     C59651  10.511   4.053  -0.510  0.3166 -1.1961 -0.3598
  433MOL0     O59652  10.647   4.027  -0.541  0.3265 -0.8745  0.3075
  433MOL0     C59653  10.756   4.069  -0.454 -0.2391  0.9296  0.1378
  433MOL0     C59654  10.881   3.983  -0.490  0.5974  0.4756 -0.0401
  433MOL0     C59655  10.885   3.842  -0.420 -0.6089  0.0770 -0.6107
  433MOL0     C59656  11.002   3.755  -0.464 -0.3430  0.8177  0.3712
  433MOL0     C59657  11.015   3.635  -0.372  0.4681  0.9361  0.7096
  433MOL0     C59658  11.145   3.555  -0.408 -0.0626  0.8870  1.2317
  433MOL0     C59659  11.268   3.619  -0.348  0.1418 -0.1793  0.5210
  433MOL0     C59660  11.382   3.526  -0.369  0.2692  0.0523  0.5278
  433MOL0    Cl59661  11.439   3.536  -0.535  0.3487 -0.1306 -0.2366
  433MOL0     C59662  10.417   3.960  -0.549  0.2674 -0.1817 -0.3754
  433MOL0     C59663  10.280   3.979  -0.517  0.0202  0.6240 -0.3072
  433MOL0     O59664  10.091   4.008  -0.218 -0.4300  0.7176  0.2011
  433MOL0     C59665   9.845   4.181  -0.407 -0.3430  0.4816  0.0671
  433MOL0     C59666   9.715   4.237  -0.399 -0.2239 -0.0121 -0.2435
  433MOL0     N59667   9.169   4.651  -0.292  0.4235 -0.5472 -0.3628
  433MOL0     N59668   9.122   4.759  -0.240 -1.0304 -0.9379 -0.0318
  433MOL0     C59669   9.035   4.414   0.109 -0.8319 -0.6637  0.0183
  433MOL0     C59670   8.942   4.309   0.076 -0.0265  0.5610  0.2424
  433MOL0     C59671   8.563   4.048   0.132  0.6234  0.4979  0.1680
  433MOL0     C59672   8.605   3.936   0.054 -0.2199 -0.0567  0.3062
  433MOL0     C59673   8.522   3.825   0.026 -0.1527  0.2631  0.1057
  433MOL0     C59674   8.396   3.824   0.081 -0.5372  0.2967 -0.1998
  433MOL0     O59675   8.320   3.708   0.054 -0.3575 -0.1404  1.0048
  433MOL0     C59676   8.178   3.714   0.067  0.9436 -0.0471 -0.1443
  433MOL0     C59677   8.132   3.658   0.197  0.4150  0.1498  0.0636
  433MOL0     C59678   8.164   3.502   0.198 -0.2957 -0.3564 -0.0400
  433MOL0     C59679   8.040   3.415   0.156  1.0513 -1.3181  0.9931
  433MOL0     C59680   7.934   3.411   0.260  0.3927 -0.4154  0.4727
  433MOL0     C59681   7.843   3.400   0.349 -0.4149  0.1205 -0.2700
  433MOL0     C59682   8.358   3.928   0.159 -0.0404 -0.8264  0.3516
  433MOL0     C59683   8.430   4.048   0.173 -0.1162 -0.6107 -0.1426
  433MOL0     C59684   8.377   4.140   0.276 -0.6491  0.0615  0.1359
  433MOL0     H59685   8.892   4.187   0.398 -0.2664  1.1525  1.4020
  433MOL0     H59686   9.085   4.339   0.426  0.0598 -2.1038  0.1498
  433MOL0     H59687   9.314   4.635   0.361  0.0227  0.1671  0.9150
  433MOL0     H59688   9.266   4.495   0.456 -0.3858 -1.1702 -1.4520
  433MOL0     H59689   9.030   4.600   0.455  0.5284 -1.1308  0.0470
  433MOL0     H59690   9.150   4.656   0.573  1.0099  0.1555  0.1432
  433MOL0     H59691   9.034   4.848   0.483  0.5328  1.3426  0.1401
  433MOL0     H59692   9.198   4.849   0.421  1.0165 -2.8092  0.3909
  433MOL0     H59693   9.136   4.751   0.221  0.9885 -1.0784  2.5387
  433MOL0     H59694   8.966   4.740   0.251 -0.4673  0.4875 -0.2295
  433MOL0     H59695   9.100   5.003   0.257  0.4660 -0.8582  0.4650
  433MOL0     H59696   8.926   4.984   0.250 -1.1287  0.0409 -0.8381
  433MOL0     H59697   9.001   5.059   0.040 -1.1724  0.5235 -0.1644
  433MOL0     H59698   9.098   4.913   0.010  0.1620  0.8873  0.5988
  433MOL0     H59699   8.800   4.923   0.022  1.5657  2.2941 -1.9215
  433MOL0     H59700   8.893   4.767   0.041  0.4481  0.8449  1.1233
  433MOL0     H59701   8.791   4.829  -0.179  0.3694  1.4214  1.3687
  433MOL0     H59702   8.930   4.933  -0.204  1.6659 -1.5790 -0.4556
  433MOL0     H59703   8.868   4.552  -0.211  0.8991 -1.2148  1.9040
  433MOL0     H59704   9.023   4.376  -0.391  1.2537  1.3469 -1.8056
  433MOL0     H59705   9.035   4.360  -0.212  1.5516 -1.3178 -0.8466
  433MOL0     H59706   9.226   4.245  -0.360  0.0283 -0.1856  1.4903
  433MOL0     H59707   9.273   4.401  -0.395  1.5312  0.4034  1.0821
  433MOL0     H59708   9.328   4.446  -0.160  0.4586  0.1728 -0.9925
  433MOL0     H59709   9.225   4.312  -0.109  0.1650 -1.1496 -0.6735
  433MOL0     H59710   9.457   4.250  -0.075 -0.5555 -1.2214  0.0784
  433MOL0     H59711   9.379   4.149  -0.195  0.7051 -0.5972 -1.9273
  433MOL0     H59712   9.636   4.148  -0.086 -1.5883  3.0884 -2.0472
  433MOL0     H59713   9.915   4.087   0.001 -1.3754  0.9699  0.7004
  433MOL0     H59714   9.911   3.921  -0.061 -0.4500  0.2790 -1.6560
  433MOL0     H59715   9.763   3.990   0.007  0.0952  2.4009  1.4287
  433MOL0     H59716  10.303   4.266  -0.349 -0.6787 -0.6635 -0.4152
  433MOL0     H59717  10.537   4.239  -0.400  1.1799 -2.4437  2.4854
  433MOL0     H59718  10.770   4.177  -0.470  0.6217  0.4490 -2.9418
  433MOL0     H59719  10.730   4.065  -0.348 -1.2075  0.7043 -0.0989
  433MOL0     H59720  10.881   3.976  -0.600  1.9194  0.3168 -0.0435
  433MOL0     H59721  10.971   4.036  -0.457 -0.1768  1.4451  0.5720
  433MOL0     H59722  10.787   3.795  -0.428 -0.4903 -1.3794  3.8646
  433MOL0     H59723  10.905   3.863  -0.314 -3.5219  1.5812 -0.2405
  433MOL0     H59724  11.093   3.815  -0.473  0.7025 -0.5976  1.0770
  433MOL0     H59725  10.987   3.709  -0.562 -1.4788 -1.2955  1.4656
  433MOL0     H59726  11.020   3.670  -0.268 -1.4016  0.3123  1.0514
  433MOL0     H59727  10.932   3.564  -0.378  1.7814 -0.6510  0.6392
  433MOL0     H59728  11.147   3.539  -0.516 -0.2595  1.6085  1.1138
  433MOL0     H59729  11.130   3.454  -0.369 -0.7053  0.3184 -0.4023
  433MOL0     H59730  11.240   3.640  -0.245 -0.8103  1.3663 -0.0252
  433MOL0     H59731  11.296   3.710  -0.401 -0.3689 -0.3453 -0.0523
  433MOL0     H59732  11.357   3.421  -0.355 -1.5267  0.3374 -0.2654
  433MOL0     H59733  11.471   3.551  -0.311  0.5702 -1.9629  0.9978
  433MOL0     H59734  10.446   3.866  -0.594 -1.1726 -0.5636 -0.5364
  433MOL0     H59735  10.216   3.897  -0.548  1.4799 -0.4671 -0.5051
  433MOL0     H59736   9.905   4.188  -0.497  0.9683 -0.2513  0.8552
  433MOL0     H59737   9.684   4.297  -0.484 -0.4126 -1.5335 -1.2943
  433MOL0     H59738   9.063   4.485   0.032  1.6979  1.1523  2.4086
  433MOL0     H59739   8.908   4.303  -0.027  1.2768  0.3027 -0.2037
  433MOL0     H59740   8.705   3.927   0.013  0.4630  3.4249  0.8926
  433MOL0     H59741   8.556   3.750  -0.044  0.8206  0.0565  0.7766
  433MOL0     H59742   8.142   3.817   0.056  0.5157 -0.4437 -3.6951
  433MOL0     H59743   8.124   3.660  -0.011 -0.3919 -0.8100  1.2488
  433MOL0     H59744   8.024   3.674   0.201  0.6931  3.2207 -1.9614
  433MOL0     H59745   8.181   3.700   0.285  1.3269  0.4603 -0.5798
  433MOL0     H59746   8.250   3.477   0.135 -1.1678 -1.3523 -0.8825
  433MOL0     H59747   8.196   3.478   0.299 -0.7951 -0.1044  0.1806
  433MOL0     H59748   8.059   3.311   0.132  0.8818 -0.8765 -1.2430
  433MOL0     H59749   8.007   3.469   0.067 -2.2424 -2.0913  1.6277
  433MOL0     H59750   7.747   3.392   0.396  0.0870  0.4513  0.8416
  433MOL0     H59751   8.263   3.927   0.212  0.5879 -0.4620  1.5273
  433MOL0     H59752   8.292   4.096   0.329 -0.2926  0.3165  0.9321
  433MOL0     H59753   8.452   4.163   0.352  0.8862 -1.1154 -0.9456
  433MOL0     H59754   8.333   4.232   0.236  1.4904  1.7911  1.5466
  434MOL0     O59755   8.284   6.360   0.895  0.1659  0.1587 -0.3608
  434MOL0     C59756   8.378   6.344   0.978 -0.0100  0.3519  0.8614
  434MOL0     O59757   8.473   6.254   0.964  0.3111 -0.4256 -0.0510
  434MOL0     C59758   8.494   6.188   0.845 -0.7763  0.6494  0.2519
  434MOL0     C59759   8.406   6.089   0.799 -0.3405 -0.1874 -0.3953
  434MOL0     C59760   8.419   6.024   0.678  0.1108  1.5393 -0.3678
  434MOL0     C59761   8.523   6.058   0.586 -0.1197  0.1395 -0.8488
  434MOL0     O59762   8.546   6.003   0.468 -0.5407  0.4065 -0.2980
  434MOL0     C59763   8.436   5.945   0.392  1.0402  0.4435 -0.0843
  434MOL0     C59764   8.477   5.864   0.274  0.6315  0.5177  0.2500
  434MOL0     C59765   8.586   5.939   0.184  0.6449 -0.6604 -0.2251
  434MOL0     C59766   8.534   6.073   0.112 -0.0050 -0.1800 -0.1340
  434MOL0     C59767   8.643   6.128   0.014 -0.1433  0.1484  0.8289
  434MOL0     C59768   8.591   6.249  -0.068  0.2965  0.4526 -0.8373
  434MOL0     C59769   8.691   6.308  -0.170  0.4922  0.8675  0.6636
  434MOL0     C59770   8.778   6.418  -0.123 -0.1873  0.4812 -0.0855
  434MOL0     N59771   8.902   6.449  -0.199  0.3059 -0.6258  0.2572
  434MOL0     C59772   9.013   6.371  -0.200  0.1282  0.7311  0.4782
  434MOL0     C59773   9.105   6.433  -0.284  0.2027 -0.0813 -0.4528
  434MOL0     C59774   9.253   6.395  -0.311 -0.0359  0.1384  0.1823
  434MOL0     C59775   9.297   6.447  -0.446  0.1440 -0.4121  0.4829
  434MOL0     C59776   9.243   6.371  -0.565  0.1299  0.0555 -0.4208
  434MOL0     C59777   9.280   6.431  -0.693 -0.3908  0.2238 -0.2206
  434MOL0     O59778   9.417   6.398  -0.720 -0.3217 -0.3308  0.1014
  434MOL0     C59779   9.483   6.391  -0.832 -0.4082  0.6788  0.8967
  434MOL0     C59780   9.434   6.447  -0.952  0.5543  0.5121  0.0892
  434MOL0     C59781   9.515   6.451  -1.060 -0.6063  0.2547  1.3380
  434MOL0     C59782   9.462   6.524  -1.190  0.3229 -0.6025  0.0620
  434MOL0     C59783   9.646   6.384  -1.066 -0.1290  0.4640  0.3344
  434MOL0     C59784   9.738   6.380  -1.187  0.6144  0.3090 -0.2435
  434MOL0     O59785   9.872   6.327  -1.169 -0.3171 -0.5991  0.3334
  434MOL0     C59786   9.937   6.301  -1.289  0.6881 -0.4304 -0.5823
  434MOL0     C59787   9.939   6.168  -1.332 -0.8923  0.8898 -0.2785
  434MOL0     C59788  10.000   6.133  -1.449  0.5180  0.2650 -0.3860
  434MOL0     C59789  10.057   6.235  -1.533  0.1091  0.2072  0.5059
  434MOL0     O59790  10.113   6.196  -1.654  0.8355 -0.6597  0.1430
  434MOL0     C59791  10.226   6.274  -1.696  0.4394  0.5761 -0.2502
  434MOL0     C59792  10.340   6.269  -1.593 -0.9927  0.0711  0.5983
  434MOL0     C59793  10.446   6.378  -1.624 -0.6681  0.4567 -0.2926
  434MOL0     C59794  10.501   6.394  -1.764 -0.0561 -0.0969 -0.8916
  434MOL0     C59795  10.647   6.439  -1.775  1.1146 -0.7308 -0.3509
  434MOL0     C59796  10.686   6.466  -1.916  0.5260  0.1948 -0.9130
  434MOL0     C59797  10.818   6.531  -1.921 -0.0446  1.3916 -1.3252
  434MOL0     C59798  10.845   6.569  -2.066 -0.1300 -0.1147  0.3244
  434MOL0    Cl59799  10.753   6.717  -2.100  0.1964  0.4178 -0.2229
  434MOL0     C59800  10.048   6.369  -1.490  0.3152 -0.1346  0.3199
  434MOL0     C59801   9.975   6.405  -1.378  0.6955  1.1093  0.2165
  434MOL0     O59802   9.693   6.405  -1.297 -0.1954  0.0197 -0.2477
  434MOL0     C59803   9.679   6.312  -0.948 -0.1759  0.5397  0.1679
  434MOL0     C59804   9.606   6.333  -0.831  0.4917  0.2477  0.0837
  434MOL0     N59805   9.034   6.553  -0.320 -0.5831  0.2618 -0.8067
  434MOL0     N59806   8.915   6.556  -0.275 -0.1884  0.0581 -0.8584
  434MOL0     C59807   8.608   6.158   0.636 -0.3979 -0.0010  0.1927
  434MOL0     C59808   8.594   6.218   0.754  0.4642 -0.2449 -0.8417
  434MOL0     C59809   8.378   6.406   1.112  0.1474 -0.6580  0.4993
  434MOL0     C59810   8.493   6.388   1.192 -0.1947 -0.1885 -0.2723
  434MOL0     C59811   8.497   6.442   1.321 -0.0800 -0.5950  0.4827
  434MOL0     C59812   8.389   6.514   1.377  1.4261  0.8234 -0.3086
  434MOL0     O59813   8.401   6.561   1.510  0.0526 -0.4282  0.3896
  434MOL0     C59814   8.332   6.679   1.552 -0.4414  0.2494 -0.9731
  434MOL0     C59815   8.411   6.732   1.673 -0.0849  0.1356 -0.0789
  434MOL0     C59816   8.551   6.774   1.628 -0.2682 -0.3516  0.4945
  434MOL0     C59817   8.638   6.846   1.744  0.1887  0.8637  0.1143
  434MOL0     C59818   8.761   6.902   1.683 -0.4415 -1.6453  0.6472
  434MOL0     C59819   8.864   6.958   1.651  0.9873  0.6010  0.0965
  434MOL0     C59820   8.280   6.545   1.289 -0.1955  0.5276  0.3464
  434MOL0     C59821   8.268   6.490   1.159 -0.0854 -0.5619 -0.8972
  434MOL0     C59822   8.136   6.507   1.085  0.0724 -0.7695  0.8869
  434MOL0     H59823   8.334   6.056   0.873  2.7620 -1.9902  2.1087
  434MOL0     H59824   8.345   5.951   0.648 -0.4441  2.9923 -2.8082
  434MOL0     H59825   8.367   6.023   0.358  0.5573 -0.3720 -1.0323
  434MOL0     H59826   8.387   5.871   0.456 -0.4411 -1.6343 -3.3550
  434MOL0     H59827   8.522   5.771   0.307  0.7972 -0.0748 -1.5498
  434MOL0     H59828   8.389   5.852   0.210  0.6236  0.0469  0.3515
  434MOL0     H59829   8.677   5.966   0.237  0.6703 -1.2522  0.0346
  434MOL0     H59830   8.608   5.878   0.096 -2.5848  0.1716 -1.7745
  434MOL0     H59831   8.435   6.050   0.072 -0.5034 -0.8016  1.3670
  434MOL0     H59832   8.519   6.157   0.180  2.5145  0.4722 -0.3124
  434MOL0     H59833   8.680   6.056  -0.060 -1.2782 -0.6524  1.0128
  434MOL0     H59834   8.733   6.166   0.064  0.6608 -1.9901  1.1302
  434MOL0     H59835   8.494   6.233  -0.114 -0.1465  3.2701 -1.1027
  434MOL0     H59836   8.570   6.334  -0.002 -0.4754  0.7778 -1.4813
  434MOL0     H59837   8.623   6.332  -0.252  0.7881 -2.9891 -0.9017
  434MOL0     H59838   8.754   6.231  -0.215 -3.1911 -0.1745 -3.3962
  434MOL0     H59839   8.722   6.512  -0.113  0.8138  1.1663 -0.7153
  434MOL0     H59840   8.817   6.385  -0.026 -1.8000 -2.2227 -0.2425
  434MOL0     H59841   9.028   6.280  -0.143 -1.5405 -0.3134 -0.6587
  434MOL0     H59842   9.261   6.286  -0.311 -1.2590 -0.0827 -3.3224
  434MOL0     H59843   9.322   6.435  -0.237  0.6560  0.4775 -0.6206
  434MOL0     H59844   9.285   6.555  -0.458  2.6795 -0.0994  0.3097
  434MOL0     H59845   9.404   6.428  -0.460  0.2752  0.1091  0.7729
  434MOL0     H59846   9.270   6.266  -0.572  2.1198  0.6364 -3.2155
  434MOL0     H59847   9.134   6.387  -0.563 -0.0338 -0.7673 -1.5455
  434MOL0     H59848   9.220   6.377  -0.766 -2.4546  0.0240  1.5504
  434MOL0     H59849   9.266   6.538  -0.710  3.0172  1.1600  1.7525
  434MOL0     H59850   9.336   6.493  -0.952 -0.3256 -1.2583 -1.1572
  434MOL0     H59851   9.536   6.572  -1.256 -2.8487 -2.1476 -5.2429
  434MOL0     H59852   9.387   6.599  -1.167  0.8593 -0.1566  0.3804
  434MOL0     H59853   9.407   6.454  -1.254 -1.4900  1.3100 -0.6059
  434MOL0     H59854   9.902   6.088  -1.269 -1.1625  0.6790 -0.7016
  434MOL0     H59855  10.004   6.028  -1.478  2.3645  0.0768  0.4181
  434MOL0     H59856  10.258   6.235  -1.793  1.4506  2.6396 -0.8041
  434MOL0     H59857  10.206   6.379  -1.724  1.9401  2.2047  4.0540
  434MOL0     H59858  10.303   6.285  -1.492 -1.8072  0.5400  0.2339
  434MOL0     H59859  10.388   6.171  -1.594 -0.1157  0.4711 -1.3263
  434MOL0     H59860  10.532   6.353  -1.562  1.1434  0.7973 -2.5046
  434MOL0     H59861  10.404   6.475  -1.595 -0.8961  0.6730 -1.2943
  434MOL0     H59862  10.450   6.470  -1.824 -1.8258 -1.5448 -1.3369
  434MOL0     H59863  10.486   6.298  -1.813  0.8579 -1.1712  0.8325
  434MOL0     H59864  10.673   6.527  -1.716  5.2718 -0.0672 -2.7578
  434MOL0     H59865  10.714   6.364  -1.731  0.1609 -0.6883  1.2793
  434MOL0     H59866  10.614   6.536  -1.958 -0.5340 -0.6782 -0.6019
  434MOL0     H59867  10.678   6.369  -1.965 -0.6782  0.5170 -1.3875
  434MOL0     H59868  10.900   6.463  -1.895  0.5226  3.2404  2.3961
  434MOL0     H59869  10.813   6.614  -1.850 -0.0085 -0.1464  0.5509
  434MOL0     H59870  10.818   6.487  -2.133 -0.2143 -1.3046  1.7835
  434MOL0     H59871  10.950   6.590  -2.085 -0.7162  1.8042 -1.2016
  434MOL0     H59872  10.090   6.450  -1.549 -1.1693 -0.7755 -1.7017
  434MOL0     H59873   9.963   6.507  -1.342  1.8204  0.2935  3.2167
  434MOL0     H59874   9.772   6.257  -0.938 -0.1890  0.5725  0.4852
  434MOL0     H59875   9.646   6.296  -0.737 -2.1495 -0.9796  0.8184
  434MOL0     H59876   8.678   6.202   0.566  0.2088  0.7077  1.2267
  434MOL0     H59877   8.656   6.304   0.779 -0.5716 -0.0910  1.4069
  434MOL0     H59878   8.578   6.332   1.155  0.1498 -0.9439  1.5689
  434MOL0     H59879   8.583   6.425   1.384 -0.5241  0.3561  1.3796
  434MOL0     H59880   8.342   6.759   1.479 -1.2383 -0.0706 -1.4418
  434MOL0     H59881   8.228   6.656   1.575 -0.4966 -0.0821 -1.5293
  434MOL0     H59882   8.410   6.658   1.753 -1.0229 -1.0252 -1.1239
  434MOL0     H59883   8.364   6.825   1.707  0.0438  0.1217  0.1390
  434MOL0     H59884   8.610   6.692   1.585 -1.6199 -0.2087 -1.7859
  434MOL0     H59885   8.538   6.847   1.548 -3.2707 -0.2093  1.0087
  434MOL0     H59886   8.670   6.768   1.813 -1.5557 -1.1429 -1.2230
  434MOL0     H59887   8.577   6.920   1.796 -1.2882  0.0999 -0.4633
  434MOL0     H59888   8.950   7.013   1.617  1.8323 -0.9300 -0.3810
  434MOL0     H59889   8.204   6.612   1.329 -0.2495  1.2768 -0.9284
  434MOL0     H59890   8.151   6.537   0.981  0.1903 -1.3630  0.7275
  434MOL0     H59891   8.093   6.407   1.091 -2.1265  0.0742  0.1392
  434MOL0     H59892   8.064   6.578   1.127 -0.4852 -0.4659 -0.5280
  435MOL0     O59893   3.620  10.223   9.324 -0.2433 -0.7422  0.0482
  435MOL0     C59894   3.584  10.113   9.356 -0.0859  0.4961  0.1930
  435MOL0     O59895   3.665  10.009   9.382  0.5066  0.0569  0.2135
  435MOL0     C59896   3.798  10.015   9.369 -0.2391 -0.2161  0.5928
  435MOL0     C59897   3.875  10.089   9.457  0.2733 -0.5215 -0.5366
  435MOL0     C59898   4.019  10.090   9.448 -0.4818 -0.4583  0.6001
  435MOL0     C59899   4.085  10.022   9.342  0.8668 -0.2226 -1.1219
  435MOL0     O59900   4.223  10.013   9.332 -0.8607 -0.4895 -0.5630
  435MOL0     C59901   4.288  10.138   9.367  0.7576  0.2713 -0.4815
  435MOL0     C59902   4.435  10.131   9.348  0.7381 -0.1831  0.6280
  435MOL0     C59903   4.481  10.135   9.199  0.0256 -0.0641 -0.3337
  435MOL0     C59904   4.628  10.126   9.181  0.2514 -0.1586  0.6636
  435MOL0     C59905   4.706  10.248   9.138  0.2453  0.1270  0.4765
  435MOL0     C59906   4.719  10.335   9.263 -0.8776  0.5383  0.4054
  435MOL0     C59907   4.840  10.431   9.235 -0.6988 -0.5359 -0.1953
  435MOL0     C59908   4.809  10.552   9.136 -0.5495 -0.0094  0.6599
  435MOL0     N59909   4.910  10.654   9.126  0.9962 -0.3618  0.8279
  435MOL0     C59910   4.974  10.719   9.227  0.3463  0.1119 -0.5709
  435MOL0     C59911   5.064  10.802   9.174 -0.1053 -0.5939 -0.3187
  435MOL0     C59912   5.178  10.871   9.241 -1.0485 -0.2433  0.1276
  435MOL0     C59913   5.307  10.859   9.161 -0.8478  0.1031 -0.0058
  435MOL0     C59914   5.358  10.714   9.172  0.9698  0.4696  0.5900
  435MOL0     C59915   5.507  10.693   9.143  0.3947  0.0683 -0.2699
  435MOL0     O59916   5.577  10.730   9.262  0.4373 -0.4786 -0.2552
  435MOL0     C59917   5.718  10.742   9.264  0.2009 -0.3883  0.7415
  435MOL0     C59918   5.811  10.709   9.158 -0.4431  0.1235 -0.7747
  435MOL0     C59919   5.949  10.733   9.165 -0.5834  0.5408 -0.9600
  435MOL0     C59920   6.036  10.685   9.048 -0.4136  0.0272 -0.5410
  435MOL0     C59921   6.002  10.787   9.285 -0.5291 -0.0167 -0.4641
  435MOL0     C59922   6.148  10.814   9.315  0.5193  0.2206 -0.2833
  435MOL0     O59923   6.193  10.816   9.451 -0.4249  0.0751  1.1174
  435MOL0     C59924   6.326  10.842   9.466 -0.8282  0.5509 -0.7251
  435MOL0     C59925   6.425  10.759   9.428 -0.4634  0.6218  0.1798
  435MOL0     C59926   6.555  10.792   9.465 -0.9949  0.5751 -0.7702
  435MOL0     C59927   6.588  10.905   9.540 -0.9778  0.5382  0.4167
  435MOL0     O59928   6.713  10.934   9.602 -0.1145 -0.1234 -0.3572
  435MOL0     C59929   6.782  10.818   9.658  0.2950  0.2961  0.2607
  435MOL0     C59930   6.900  10.843   9.754  0.1907  0.0635 -0.1177
  435MOL0     C59931   7.015  10.922   9.683 -0.4966  0.1187  0.6316
  435MOL0     C59932   7.130  10.920   9.780  0.5311  0.1210 -0.3773
  435MOL0     C59933   7.247  11.016   9.728 -0.4694  0.2279  0.0395
  435MOL0     C59934   7.367  11.011   9.829 -0.8953 -0.1391 -0.7188
  435MOL0     C59935   7.450  11.133   9.803 -0.3774  0.4369 -0.2845
  435MOL0     C59936   7.557  11.158   9.911 -0.4220 -0.1013 -0.1906
  435MOL0    Cl59937   7.659  11.021   9.941 -0.0969  0.1883  0.3755
  435MOL0     C59938   6.486  10.990   9.573  0.1763  0.0779 -0.1531
  435MOL0     C59939   6.355  10.949   9.547 -0.7407 -0.5271 -0.0655
  435MOL0     O59940   6.216  10.839   9.216  0.1182 -0.3874  0.0698
  435MOL0     C59941   5.909  10.812   9.389 -0.3487 -0.5525  0.5589
  435MOL0     C59942   5.772  10.798   9.376  0.7515  0.3913 -0.1440
  435MOL0     N59943   5.043  10.797   9.035 -0.4125 -0.2246  0.0667
  435MOL0     N59944   4.961  10.702   9.005  0.3878  0.5114 -0.4469
  435MOL0     C59945   4.001   9.942   9.262  0.7948 -0.1331 -0.7668
  435MOL0     C59946   3.868   9.940   9.274 -0.4697 -0.3401 -0.4820
  435MOL0     C59947   3.446  10.096   9.393  0.3608 -0.6059  0.0819
  435MOL0     C59948   3.400   9.966   9.416  0.3929  0.3863 -0.5717
  435MOL0     C59949   3.265   9.931   9.445  0.9847 -0.1771  0.3822
  435MOL0     C59950   3.171  10.039   9.455 -0.3166 -0.2595  0.5891
  435MOL0     O59951   3.045  10.026   9.486  1.1589 -0.0416  0.0352
  435MOL0     C59952   2.972   9.897   9.490  0.1264  0.2951  0.2360
  435MOL0     C59953   2.830   9.944   9.451  0.0402 -0.8143  0.2301
  435MOL0     C59954   2.731   9.830   9.439  0.4046 -0.4302 -0.5367
  435MOL0     C59955   2.614   9.883   9.357 -0.2178 -0.4879 -0.2665
  435MOL0     C59956   2.485   9.809   9.363 -0.0357 -0.1329  0.6307
  435MOL0     C59957   2.374   9.763   9.359  0.8272  0.3560 -0.3246
  435MOL0     C59958   3.214  10.168   9.427  0.3110 -0.7371 -0.9356
  435MOL0     C59959   3.349  10.201   9.397  0.2461  0.9509  0.5241
  435MOL0     C59960   3.373  10.347   9.364 -0.2443 -0.1743 -0.3224
  435MOL0     H59961   3.811  10.129   9.534  0.1143  2.6995 -2.1679
  435MOL0     H59962   4.072  10.144   9.526  2.1107 -0.4099 -1.0838
  435MOL0     H59963   4.280  10.166   9.473  1.6389  3.7336 -1.1897
  435MOL0     H59964   4.253  10.228   9.315 -3.2232 -1.0069 -0.3420
  435MOL0     H59965   4.488  10.215   9.394  1.9674 -1.6805  2.0742
  435MOL0     H59966   4.476  10.046   9.403 -0.2472  1.9424  5.1417
  435MOL0     H59967   4.434  10.044   9.161 -1.0226  2.0659 -4.7084
  435MOL0     H59968   4.451  10.222   9.140  1.4904  0.1119 -0.8510
  435MOL0     H59969   4.681  10.095   9.271  0.8558 -0.2695  0.2746
  435MOL0     H59970   4.642  10.050   9.104 -2.5086  0.5203 -0.6304
  435MOL0     H59971   4.646  10.288   9.056 -1.3573 -0.6634  1.2249
  435MOL0     H59972   4.805  10.213   9.107  0.5021  1.7078 -0.5651
  435MOL0     H59973   4.630  10.398   9.278  0.5798  3.2899 -1.5205
  435MOL0     H59974   4.747  10.277   9.351  0.1541 -0.9180 -0.8442
  435MOL0     H59975   4.929  10.387   9.188 -2.3151 -0.7838 -3.2866
  435MOL0     H59976   4.877  10.474   9.328  1.9698  0.2928 -1.5280
  435MOL0     H59977   4.797  10.510   9.035  0.2914 -0.8089  0.8824
  435MOL0     H59978   4.716  10.602   9.164  1.2113  3.1750  1.2193
  435MOL0     H59979   4.965  10.707   9.334  1.9208 -1.4153 -0.5815
  435MOL0     H59980   5.191  10.835   9.344 -0.3681  4.4000  1.9301
  435MOL0     H59981   5.147  10.973   9.265 -2.3926 -0.9923  1.8347
  435MOL0     H59982   5.293  10.885   9.056 -0.2665  0.0476 -0.1007
  435MOL0     H59983   5.386  10.923   9.202 -1.7274  0.2063  1.6465
  435MOL0     H59984   5.337  10.671   9.270  1.7229 -3.6824 -0.8795
  435MOL0     H59985   5.305  10.650   9.102  5.0832 -1.1291 -1.3616
  435MOL0     H59986   5.509  10.585   9.129 -0.3813  0.1848 -1.5205
  435MOL0     H59987   5.536  10.754   9.057  1.6118  0.0471  0.1048
  435MOL0     H59988   5.770  10.661   9.070 -1.6483 -0.0915 -0.1088
  435MOL0     H59989   5.989  10.610   8.982 -0.4985 -0.2353 -0.1883
  435MOL0     H59990   6.132  10.642   9.078  1.1658  3.6463  0.0829
  435MOL0     H59991   6.072  10.774   8.996  0.6295 -0.4659 -0.7036
  435MOL0     H59992   6.402  10.662   9.384 -0.7029 -0.6178  2.8117
  435MOL0     H59993   6.630  10.719   9.435  0.3688  1.7205 -0.2562
  435MOL0     H59994   6.709  10.762   9.717  0.9868 -2.2144 -1.1242
  435MOL0     H59995   6.826  10.756   9.579  2.8700  0.9476  1.0950
  435MOL0     H59996   6.865  10.905   9.837  1.6885  4.0372 -2.2269
  435MOL0     H59997   6.941  10.746   9.784  2.0583  0.2788 -1.7925
  435MOL0     H59998   6.980  11.025   9.666 -0.0429  0.2032  0.1754
  435MOL0     H59999   7.042  10.869   9.591  1.5362  0.3110  1.0775
  435MOL0     H60000   7.165  10.817   9.775  0.6276  0.1726 -0.8214
  435MOL0     H60001   7.098  10.940   9.882  0.6053 -1.5941  0.0014
  435MOL0     H60002   7.290  10.991   9.630  0.8760  3.1037 -0.2103
  435MOL0     H60003   7.204  11.114   9.708 -0.3574 -0.2308 -2.9307
  435MOL0     H60004   7.427  10.921   9.809  0.5562  0.9199 -1.3484
  435MOL0     H60005   7.330  11.018   9.932  0.6905  0.5348 -0.1596
  435MOL0     H60006   7.383  11.219   9.796  1.4857  2.0797  0.8363
  435MOL0     H60007   7.509  11.133   9.711 -1.3201  0.4738 -0.9005
  435MOL0     H60008   7.509  11.164  10.009 -3.0853 -2.3174 -1.2256
  435MOL0     H60009   7.620  11.243   9.885  0.1562  0.2724  2.1795
  435MOL0     H60010   6.500  11.072   9.643 -2.3740 -0.6875  1.3888
  435MOL0     H60011   6.270  11.006   9.585 -0.6406  1.3933 -2.4637
  435MOL0     H60012   5.946  10.847   9.485  2.2703 -2.7534  0.4777
  435MOL0     H60013   5.707  10.828   9.457 -0.4650 -0.2410 -0.8493
  435MOL0     H60014   4.045   9.876   9.188 -0.4009  0.4650 -2.0537
  435MOL0     H60015   3.804   9.881   9.210  1.3707 -0.7533 -2.0514
  435MOL0     H60016   3.472   9.888   9.396  1.0181  0.5472  0.8938
  435MOL0     H60017   3.233   9.827   9.453 -0.5708  0.1970 -0.5128
  435MOL0     H60018   3.008   9.821   9.420  0.4562  1.1796 -0.5789
  435MOL0     H60019   2.963   9.852   9.589 -1.8316  1.8271  0.8153
  435MOL0     H60020   2.831  10.002   9.358 -2.5724 -2.3565 -0.8799
  435MOL0     H60021   2.781  10.014   9.520  0.9496 -0.4529  0.5142
  435MOL0     H60022   2.774   9.747   9.384  0.3261 -0.4525 -0.5647
  435MOL0     H60023   2.708   9.800   9.542  1.2343  1.8256  0.3653
  435MOL0     H60024   2.643   9.887   9.251 -0.1588  3.7233 -0.2402
  435MOL0     H60025   2.578   9.981   9.389 -2.3836 -1.5308  0.7124
  435MOL0     H60026   2.276   9.719   9.358  0.4720  1.1314 -0.3470
  435MOL0     H60027   3.141  10.247   9.444 -0.4841 -1.5419 -0.4845
  435MOL0     H60028   3.294  10.409   9.407 -0.0531 -1.9237  2.8265
  435MOL0     H60029   3.468  10.380   9.406  0.1518 -0.3029 -1.1042
  435MOL0     H60030   3.380  10.368   9.257  3.0150  0.8986 -0.0034
  436MOL0     O60031   5.804  11.131   8.549  0.6503  0.0205 -0.7716
  436MOL0     C60032   5.772  11.015   8.521  0.8499 -0.2590 -0.5523
  436MOL0     O60033   5.858  10.907   8.516 -0.2097  0.3520  0.0809
  436MOL0     C60034   5.984  10.913   8.555 -0.6503 -0.1403  0.0488
  436MOL0     C60035   6.035  10.961   8.678 -0.1454  0.3509 -0.9356
  436MOL0     C60036   6.172  10.977   8.702 -0.7130  0.1842 -0.2753
  436MOL0     C60037   6.267  10.937   8.608 -0.3226  0.1675 -0.5123
  436MOL0     O60038   6.400  10.953   8.649 -0.9033 -0.0817 -0.2802
  436MOL0     C60039   6.514  10.914   8.570 -0.5075  0.4853 -0.6702
  436MOL0     C60040   6.648  10.926   8.646 -0.0014  0.5243 -0.6562
  436MOL0     C60041   6.769  10.953   8.554 -0.7131  0.9560 -0.2502
  436MOL0     C60042   6.895  10.966   8.641  0.8398 -0.0495  0.2987
  436MOL0     C60043   7.015  11.011   8.557  0.2376  0.9262 -0.0166
  436MOL0     C60044   7.155  10.967   8.623  0.5202  0.4146 -0.0474
  436MOL0     C60045   7.155  10.971   8.780  0.6807 -1.4585  0.9481
  436MOL0     C60046   7.139  11.120   8.843 -0.2388 -0.5870  0.9336
  436MOL0     N60047   7.272  11.186   8.871  0.6031  0.1952 -0.9388
  436MOL0     C60048   7.317  11.302   8.822 -0.0556  0.4747  0.6042
  436MOL0     C60049   7.428  11.332   8.886  0.3635 -0.5518 -0.8064
  436MOL0     C60050   7.492  11.470   8.893 -0.5030 -0.2916 -0.0164
  436MOL0     C60051   7.393  11.583   8.860  0.0078 -1.2448 -0.5430
  436MOL0     C60052   7.454  11.720   8.870 -0.1165 -0.6299  0.2149
  436MOL0     C60053   7.477  11.769   9.016 -0.1196  0.3868 -1.0390
  436MOL0     O60054   7.609  11.733   9.055  0.6462 -0.4345  0.1002
  436MOL0     C60055   7.719  11.806   9.013 -0.6953 -0.5329 -0.1974
  436MOL0     C60056   7.726  11.907   8.921  0.2802  0.4969  0.0345
  436MOL0     C60057   7.843  11.958   8.878 -0.2883  0.3159 -1.0128
  436MOL0     C60058   7.832  12.066   8.773  0.7282 -0.6135  1.2770
  436MOL0     C60059   7.964  11.923   8.934 -0.5046  1.2430  0.9544
  436MOL0     C60060   8.100  11.980   8.894 -0.3572 -1.0389  0.0539
  436MOL0     O60061   8.207  11.913   8.939 -0.5774  0.4163 -0.0513
  436MOL0     C60062   8.335  11.949   8.915 -0.5087  0.1621  0.1872
  436MOL0     C60063   8.424  11.971   9.023 -0.2738  0.5076  0.3752
  436MOL0     C60064   8.557  12.014   8.999  0.5730  0.4143 -0.2216
  436MOL0     C60065   8.599  12.032   8.867  0.7537  0.1001 -0.1688
  436MOL0     O60066   8.726  12.059   8.839 -0.3155  0.7447  0.2996
  436MOL0     C60067   8.790  12.147   8.928 -0.2837 -0.6594  0.3383
  436MOL0     C60068   8.909  12.240   8.881 -0.2654  0.3182  0.5673
  436MOL0     C60069   9.019  12.171   8.805  0.4071  0.5198 -0.3474
  436MOL0     C60070   9.101  12.249   8.706  0.3186  0.2993 -0.3850
  436MOL0     C60071   9.213  12.159   8.639  0.3734 -0.0377 -0.9630
  436MOL0     C60072   9.329  12.238   8.582 -0.7915  0.3111 -0.1991
  436MOL0     C60073   9.418  12.152   8.498 -0.3895 -0.2135  0.4129
  436MOL0     C60074   9.550  12.229   8.494 -0.8500 -0.8098 -0.4955
  436MOL0    Cl60075   9.688  12.139   8.431 -0.2188  0.1786 -0.1140
  436MOL0     C60076   8.510  12.015   8.758  0.8706  0.1585 -0.0620
  436MOL0     C60077   8.379  11.973   8.784 -0.7926  0.1862  0.3981
  436MOL0     O60078   8.101  12.093   8.846  0.3309  0.0248  0.2193
  436MOL0     C60079   7.959  11.819   9.023  0.4128  0.1020 -0.5295
  436MOL0     C60080   7.840  11.759   9.064 -0.2272 -0.3281  0.2272
  436MOL0     N60081   7.441  11.238   8.979 -0.6296  1.1629  0.0082
  436MOL0     N60082   7.356  11.144   8.968 -0.1868  0.2914 -0.5344
  436MOL0     C60083   6.219  10.890   8.487 -0.2680  0.4208  0.7157
  436MOL0     C60084   6.083  10.894   8.456  0.5831 -0.6665  0.0404
  436MOL0     C60085   5.639  11.002   8.460  0.0590  0.7270 -0.7857
  436MOL0     C60086   5.626  10.924   8.347  0.8743 -0.2957 -0.4133
  436MOL0     C60087   5.496  10.877   8.302  0.3138 -0.5761 -0.8172
  436MOL0     C60088   5.379  10.918   8.363 -0.3523 -0.3424 -0.4125
  436MOL0     O60089   5.261  10.884   8.313  0.2426 -0.3506  0.6804
  436MOL0     C60090   5.140  10.915   8.379  0.6330  0.3923  0.1011
  436MOL0     C60091   5.027  10.869   8.279 -0.5222 -0.5253  0.0863
  436MOL0     C60092   4.879  10.923   8.313 -0.7268  0.8446 -0.4135
  436MOL0     C60093   4.790  10.898   8.184  0.4781  0.1628 -0.5937
  436MOL0     C60094   4.652  10.957   8.208 -0.5371  0.2843 -0.0867
  436MOL0     C60095   4.546  11.007   8.226  0.1487  1.3267 -0.5443
  436MOL0     C60096   5.395  11.009   8.469  0.1501 -0.6476  0.0933
  436MOL0     C60097   5.520  11.050   8.518  0.0931  0.0530 -0.5496
  436MOL0     C60098   5.527  11.132   8.644 -0.6111  0.6508 -0.6861
  436MOL0     H60099   5.964  10.981   8.758  0.4028  2.7053 -0.9721
  436MOL0     H60100   6.195  11.016   8.801  1.2874 -1.8893  0.1615
  436MOL0     H60101   6.517  10.976   8.480 -0.0775  0.3841 -0.7300
  436MOL0     H60102   6.494  10.807   8.557  0.1620 -0.0240  2.0000
  436MOL0     H60103   6.639  11.003   8.723  0.2185  0.0298 -0.1316
  436MOL0     H60104   6.652  10.836   8.707 -2.2714 -0.0245 -1.2503
  436MOL0     H60105   6.788  10.865   8.491  0.4298  1.6629 -0.9254
  436MOL0     H60106   6.749  11.047   8.503 -0.0161  0.7038 -1.0036
  436MOL0     H60107   6.878  11.041   8.718  1.4026  0.4808 -0.0826
  436MOL0     H60108   6.923  10.866   8.676  2.9139  0.3982  0.0947
  436MOL0     H60109   7.014  11.120   8.560  0.7484  0.9721 -1.1510
  436MOL0     H60110   7.010  10.973   8.455  1.8768  1.4175 -0.3096
  436MOL0     H60111   7.172  10.863   8.594 -0.8273  0.1554  0.0289
  436MOL0     H60112   7.239  11.023   8.581  0.9944 -0.6601 -0.5734
  436MOL0     H60113   7.252  10.926   8.804  1.7541 -0.9642 -2.0106
  436MOL0     H60114   7.068  10.910   8.805 -1.1349 -0.4447 -2.2873
  436MOL0     H60115   7.080  11.180   8.774 -2.1827 -0.8551  2.3011
  436MOL0     H60116   7.087  11.112   8.939 -1.7798  1.6934  0.3806
  436MOL0     H60117   7.281  11.369   8.744  0.8506 -0.1388 -0.3699
  436MOL0     H60118   7.572  11.470   8.817 -0.6319 -1.6063 -0.1815
  436MOL0     H60119   7.536  11.480   8.993  2.0670 -0.2274 -1.0682
  436MOL0     H60120   7.359  11.559   8.758 -1.0945 -0.5200 -0.3638
  436MOL0     H60121   7.306  11.584   8.926  0.1598 -0.8103 -0.3449
  436MOL0     H60122   7.548  11.714   8.814  0.3390  2.8565  0.3556
  436MOL0     H60123   7.393  11.788   8.810 -0.9983 -0.3637  1.3571
  436MOL0     H60124   7.466  11.877   9.016  1.9560  0.6341 -1.3082
  436MOL0     H60125   7.402  11.722   9.081 -0.0126  1.3062 -0.2408
  436MOL0     H60126   7.633  11.939   8.876 -0.8219 -2.4614  0.0038
  436MOL0     H60127   7.736  12.052   8.722  2.3767 -0.4421 -2.1479
  436MOL0     H60128   7.907  12.063   8.693  0.1392  2.6279  0.4679
  436MOL0     H60129   7.830  12.168   8.813  1.0824  1.2264 -2.9048
  436MOL0     H60130   8.381  11.958   9.122 -0.7739 -0.1682  0.0670
  436MOL0     H60131   8.624  12.039   9.080  0.2690  1.4474 -0.2696
  436MOL0     H60132   8.714  12.213   8.972  0.3085 -1.2007  2.2793
  436MOL0     H60133   8.832  12.087   9.010 -0.3006 -0.1853  0.7029
  436MOL0     H60134   8.861  12.314   8.817 -1.9098 -1.4209 -0.3407
  436MOL0     H60135   8.951  12.289   8.969 -0.4730  0.3737  0.6354
  436MOL0     H60136   8.970  12.089   8.754 -1.8255 -0.2921  2.8087
  436MOL0     H60137   9.088  12.117   8.870 -0.6006 -1.2340 -0.6891
  436MOL0     H60138   9.149  12.333   8.757  0.5932 -0.7511  1.1384
  436MOL0     H60139   9.035  12.283   8.626 -0.3164 -0.9786 -0.4237
  436MOL0     H60140   9.237  12.086   8.718 -1.7703  1.0114  0.7690
  436MOL0     H60141   9.157  12.096   8.569  0.9054 -0.2361 -1.2153
  436MOL0     H60142   9.380  12.268   8.674 -0.9117 -2.1980  0.7726
  436MOL0     H60143   9.299  12.319   8.515 -1.8210 -0.6879 -0.9807
  436MOL0     H60144   9.370  12.128   8.402  0.4766  0.6618 -0.2618
  436MOL0     H60145   9.434  12.063   8.560 -2.1297  0.7901  2.4441
  436MOL0     H60146   9.582  12.277   8.587 -0.9517  3.4782 -2.4648
  436MOL0     H60147   9.537  12.322   8.439 -1.9291 -0.2285  0.6762
  436MOL0     H60148   8.526  12.053   8.658 -3.1701  0.3932 -0.7829
  436MOL0     H60149   8.299  11.966   8.711 -0.4842 -0.5120  0.1210
  436MOL0     H60150   8.049  11.774   9.063 -0.3370 -1.6770 -0.7339
  436MOL0     H60151   7.841  11.692   9.149  1.9973  0.3601  0.8220
  436MOL0     H60152   6.284  10.868   8.402 -3.1403 -2.0500 -1.0543
  436MOL0     H60153   6.056  10.884   8.352 -0.4573 -0.2483  0.2624
  436MOL0     H60154   5.716  10.880   8.305  0.4930 -1.4024 -0.0894
  436MOL0     H60155   5.494  10.813   8.215  1.2920  0.1940 -1.4268
  436MOL0     H60156   5.123  10.852   8.467 -0.0686 -1.3684 -1.2286
  436MOL0     H60157   5.120  11.022   8.388  0.1929  0.4784 -1.6201
  436MOL0     H60158   5.025  10.759   8.275  1.5689 -0.6323  0.7803
  436MOL0     H60159   5.057  10.895   8.177 -1.0518  0.2771  0.1302
  436MOL0     H60160   4.851  10.868   8.402  2.8157 -2.7391 -1.2411
  436MOL0     H60161   4.889  11.031   8.332  1.9473  0.8965 -1.6145
  436MOL0     H60162   4.790  10.791   8.165  2.3150 -0.7380  3.4280
  436MOL0     H60163   4.831  10.950   8.097 -2.0131  1.4046 -1.1470
  436MOL0     H60164   4.444  11.038   8.236 -0.2428 -0.4732  2.0889
  436MOL0     H60165   5.315  11.058   8.524  1.4197  1.7870 -0.1299
  436MOL0     H60166   5.560  11.232   8.613  0.6435  0.5119  0.1723
  436MOL0     H60167   5.431  11.136   8.696 -1.0283 -2.3963 -1.0532
  436MOL0     H60168   5.603  11.094   8.713 -0.1901 -0.4525 -1.7230
  437MOL0     O60169   9.964  10.628   1.324 -0.4344  0.0450 -0.0712
  437MOL0     C60170  10.079  10.671   1.292 -0.6879 -0.6146 -0.3259
  437MOL0     O60171  10.179  10.608   1.212  0.3026  1.0401 -0.7270
  437MOL0     C60172  10.132  10.507   1.128 -0.4198 -0.4284  0.0150
  437MOL0     C60173  10.010  10.494   1.065  0.3139  0.0375 -0.6681
  437MOL0     C60174   9.983  10.395   0.977  0.2085  0.2898  0.8819
  437MOL0     C60175  10.081  10.291   0.952 -0.1614  0.4595  0.1542
  437MOL0     O60176  10.051  10.185   0.864 -0.2220  0.7233  0.6221
  437MOL0     C60177   9.915  10.163   0.814 -0.5082 -0.1001 -0.8100
  437MOL0     C60178   9.825  10.089   0.915 -0.7209 -0.2297  0.4419
  437MOL0     C60179   9.877   9.954   0.980  0.0848 -0.5636  0.1525
  437MOL0     C60180   9.913   9.841   0.888 -0.4907 -0.2084  0.4955
  437MOL0     C60181  10.056   9.862   0.828  1.6505  0.2991  0.4567
  437MOL0     C60182  10.079   9.736   0.743  0.2078  0.2480 -0.4206
  437MOL0     C60183  10.207   9.756   0.660  0.1401  0.0404 -0.9796
  437MOL0     C60184  10.335   9.750   0.749 -0.1446 -0.8467 -0.1676
  437MOL0     N60185  10.456   9.766   0.668 -0.2553 -0.0162  0.0559
  437MOL0     C60186  10.509   9.663   0.597  0.9992  0.3187 -0.8115
  437MOL0     C60187  10.617   9.720   0.544  0.3766 -0.2776 -0.2080
  437MOL0     C60188  10.712   9.649   0.439 -0.0668 -0.7681  0.6426
  437MOL0     C60189  10.845   9.594   0.497  0.6043  0.6844  0.6903
  437MOL0     C60190  10.935   9.690   0.574 -0.5682 -0.4531  0.6081
  437MOL0     C60191  10.911   9.715   0.719 -0.6226  0.1774  0.1322
  437MOL0     O60192  11.026   9.785   0.780  0.1530 -0.4491  0.3654
  437MOL0     C60193  11.027   9.925   0.799  0.5267  0.0004 -0.3977
  437MOL0     C60194  10.945  10.014   0.727 -0.3156 -0.2287 -0.3556
  437MOL0     C60195  10.952  10.147   0.755  0.2417  0.2582  0.7347
  437MOL0     C60196  10.846  10.237   0.686  0.8459 -0.4754  0.6592
  437MOL0     C60197  11.053  10.197   0.845  0.5374 -0.1991 -0.1002
  437MOL0     C60198  11.072  10.340   0.878  0.3630  0.1314  0.3282
  437MOL0     O60199  11.045  10.440   0.784  0.4102 -0.1412 -0.5631
  437MOL0     C60200  11.067  10.572   0.811  0.2623  0.1934 -1.0463
  437MOL0     C60201  10.973  10.650   0.878  0.0283  0.4349  0.2353
  437MOL0     C60202  11.007  10.778   0.915  0.2509  0.2070 -0.5741
  437MOL0     C60203  11.126  10.841   0.887 -0.2479 -0.1674  0.2768
  437MOL0     O60204  11.162  10.972   0.919 -0.0866  0.0170 -0.3220
  437MOL0     C60205  11.051  11.069   0.919  0.2345  0.4399 -0.2101
  437MOL0     C60206  11.113  11.209   0.921  0.4351  0.2342 -0.3077
  437MOL0     C60207  11.016  11.313   0.973  0.0229  0.0209 -0.3259
  437MOL0     C60208  10.899  11.342   0.887  0.5559  0.6472 -0.0614
  437MOL0     C60209  10.793  11.422   0.970  0.1759 -0.1682 -0.4295
  437MOL0     C60210  10.662  11.445   0.889  0.8889  0.1106 -0.3575
  437MOL0     C60211  10.546  11.491   0.980  0.4233 -0.3271  0.0768
  437MOL0     C60212  10.428  11.521   0.900  0.1618 -0.6830 -0.2994
  437MOL0    Cl60213  10.292  11.570   1.005 -0.0037  0.1572  0.0499
  437MOL0     C60214  11.217  10.765   0.811  0.0708  0.7990 -0.2674
  437MOL0     C60215  11.192  10.631   0.778 -0.0084  0.4587 -0.4323
  437MOL0     O60216  11.123  10.365   0.984 -0.0261  0.5923  0.5363
  437MOL0     C60217  11.137  10.101   0.901 -0.3169 -0.3228  0.1364
  437MOL0     C60218  11.126   9.968   0.882  0.3015 -0.3422  0.0295
  437MOL0     N60219  10.629   9.855   0.582 -0.0351 -0.4842 -0.0379
  437MOL0     N60220  10.530   9.879   0.653 -0.0027  0.6712 -0.5226
  437MOL0     C60221  10.206  10.297   1.008 -0.2026 -0.1117 -0.8594
  437MOL0     C60222  10.228  10.400   1.106 -0.0962  0.0398  0.3294
  437MOL0     C60223  10.095  10.810   1.327  0.5271 -0.4673 -0.4782
  437MOL0     C60224   9.988  10.908   1.354 -0.2638  1.2077  0.4910
  437MOL0     C60225   9.999  11.045   1.347 -0.5863 -1.3691 -0.5776
  437MOL0     C60226  10.125  11.101   1.328  0.1595  0.1301  0.4186
  437MOL0     O60227  10.128  11.233   1.313  0.3515 -0.4608  0.4993
  437MOL0     C60228  10.126  11.262   1.170  0.0997  0.1381 -0.3423
  437MOL0     C60229   9.992  11.320   1.122 -0.7270  0.2341  0.0765
  437MOL0     C60230   9.991  11.329   0.969 -0.7826  0.1079  0.3997
  437MOL0     C60231   9.850  11.368   0.910  0.6996 -0.8091 -0.1610
  437MOL0     C60232   9.855  11.405   0.767 -0.6733 -0.7846  0.3602
  437MOL0     C60233   9.846  11.432   0.648  0.1223 -0.3386 -0.3156
  437MOL0     C60234  10.236  11.019   1.328  0.7888  0.4522  0.3975
  437MOL0     C60235  10.225  10.878   1.329  0.5304  0.0867  0.4092
  437MOL0     C60236  10.351  10.799   1.327  0.3538 -0.6169 -0.4880
  437MOL0     H60237   9.931  10.566   1.081  0.5974  0.6479 -1.8576
  437MOL0     H60238   9.881  10.382   0.944  1.5330 -0.7292 -3.5319
  437MOL0     H60239   9.917  10.113   0.717  1.2633  1.0656 -1.4390
  437MOL0     H60240   9.879  10.264   0.793 -3.2380 -0.0587  3.0371
  437MOL0     H60241   9.796  10.154   0.998 -1.4468 -3.1833  2.6667
  437MOL0     H60242   9.736  10.079   0.851 -0.8379 -1.0134  0.7061
  437MOL0     H60243   9.965   9.982   1.039  0.8806  1.2944 -1.7796
  437MOL0     H60244   9.794   9.921   1.042 -1.5974  1.6852 -0.7486
  437MOL0     H60245   9.900   9.742   0.934 -2.5409  0.5452  1.6581
  437MOL0     H60246   9.835   9.843   0.811  0.5332  2.1283 -0.5590
  437MOL0     H60247  10.132   9.886   0.902  2.1871  0.3567 -0.1039
  437MOL0     H60248  10.055   9.948   0.761 -1.1973  1.7539  2.1772
  437MOL0     H60249  10.098   9.650   0.808  0.0983  1.4405  1.2695
  437MOL0     H60250   9.992   9.717   0.679  0.6270 -0.4458 -0.7940
  437MOL0     H60251  10.202   9.843   0.595 -3.0853 -0.8726 -2.1560
  437MOL0     H60252  10.207   9.669   0.594 -2.8909 -2.1313  1.5523
  437MOL0     H60253  10.333   9.836   0.817 -3.6016  0.0586 -1.2630
  437MOL0     H60254  10.340   9.658   0.808 -0.0645  0.7403  2.4576
  437MOL0     H60255  10.468   9.565   0.572 -2.6211  1.6381 -0.5505
  437MOL0     H60256  10.732   9.721   0.360 -1.6597  0.2012  1.0865
  437MOL0     H60257  10.657   9.569   0.389  1.0128  0.2718 -2.4468
  437MOL0     H60258  10.833   9.509   0.565  0.5893 -0.4364 -0.6796
  437MOL0     H60259  10.904   9.554   0.414 -1.9818  0.8341 -1.3176
  437MOL0     H60260  11.040   9.661   0.566  0.5333  2.3209  3.1616
  437MOL0     H60261  10.929   9.777   0.509 -0.2886 -0.9919 -0.1667
  437MOL0     H60262  10.819   9.769   0.743 -1.1477 -1.2089  1.4332
  437MOL0     H60263  10.896   9.617   0.767 -1.3681 -0.0808 -0.6027
  437MOL0     H60264  10.859   9.979   0.670 -0.1447  1.5896 -1.8137
  437MOL0     H60265  10.777  10.175   0.627  0.1367  0.7421  0.1710
  437MOL0     H60266  10.878  10.310   0.612 -0.7812 -1.5070 -1.1673
  437MOL0     H60267  10.784  10.295   0.755  1.8053  2.6075 -0.9137
  437MOL0     H60268  10.875  10.611   0.905 -0.0680  0.6482  0.1967
  437MOL0     H60269  10.933  10.829   0.977  0.7254 -0.4551  0.5795
  437MOL0     H60270  10.970  11.059   0.846 -0.3806  0.5927  0.4298
  437MOL0     H60271  11.008  11.064   1.020  1.7138 -1.2178  0.3792
  437MOL0     H60272  11.201  11.208   0.987 -0.3325 -1.6352  0.7739
  437MOL0     H60273  11.153  11.237   0.823 -0.5606 -0.6333 -0.9795
  437MOL0     H60274  11.072  11.407   0.984  0.0366 -0.0921  0.7096
  437MOL0     H60275  10.984  11.268   1.068 -0.7280 -0.4455 -0.7891
  437MOL0     H60276  10.842  11.252   0.859 -0.3110  1.8837 -2.6075
  437MOL0     H60277  10.928  11.397   0.796  0.8051 -0.8052 -0.8898
  437MOL0     H60278  10.773  11.379   1.069 -2.3548  0.2629 -0.7006
  437MOL0     H60279  10.841  11.519   0.991  2.6393 -1.3993 -0.0026
  437MOL0     H60280  10.618  11.357   0.840 -0.9563  1.8357 -1.9964
  437MOL0     H60281  10.686  11.511   0.805  0.4407  0.3787 -0.2767
  437MOL0     H60282  10.568  11.583   1.036 -1.6306  0.8686 -0.9888
  437MOL0     H60283  10.516  11.413   1.051 -1.3073 -0.7112 -1.0263
  437MOL0     H60284  10.398  11.429   0.848 -3.4527  0.0633  0.2492
  437MOL0     H60285  10.453  11.600   0.828 -2.5490  2.0074  1.4735
  437MOL0     H60286  11.318  10.801   0.793  0.5399 -1.1163 -1.7423
  437MOL0     H60287  11.263  10.563   0.731  0.4719 -0.8134  1.9943
  437MOL0     H60288  11.209  10.130   0.976  0.3995 -3.9140  1.0007
  437MOL0     H60289  11.191   9.894   0.928 -0.6480 -1.1535  0.1137
  437MOL0     H60290  10.286  10.228   0.984  0.5523  0.8307 -1.1295
  437MOL0     H60291  10.319  10.412   1.164 -0.1695  0.1773  0.4167
  437MOL0     H60292   9.886  10.872   1.363 -0.6959  2.1549 -0.4288
  437MOL0     H60293   9.913  11.111   1.355 -0.4804 -1.1959 -0.8700
  437MOL0     H60294  10.203  11.334   1.143 -0.7039  0.9328 -0.5670
  437MOL0     H60295  10.138  11.176   1.104  0.1094  0.8632 -1.3059
  437MOL0     H60296   9.980  11.415   1.175  1.6594  0.4181  0.4177
  437MOL0     H60297   9.908  11.254   1.146  0.2357 -0.3775  2.0306
  437MOL0     H60298  10.057  11.407   0.930 -0.8981  1.2916  2.4279
  437MOL0     H60299  10.029  11.236   0.926  3.4883  2.0912 -0.6391
  437MOL0     H60300   9.802  11.450   0.964  0.6803  0.3249 -1.8376
  437MOL0     H60301   9.774  11.294   0.937 -0.8115  1.3922  1.9864
  437MOL0     H60302   9.829  11.448   0.544  4.0397  0.4793 -0.9710
  437MOL0     H60303  10.333  11.064   1.306  0.5594  1.7236  1.7846
  437MOL0     H60304  10.378  10.758   1.230  1.5527 -0.9699 -0.0228
  437MOL0     H60305  10.437  10.864   1.347 -0.6994  0.1730  1.8428
  437MOL0     H60306  10.366  10.718   1.399  0.4355 -0.3044 -0.1494
  438MOL0     O60307   3.174   4.282   2.758 -0.2071  0.2917 -0.3637
  438MOL0     C60308   3.219   4.376   2.690 -0.7002 -0.5212  0.3645
  438MOL0     O60309   3.349   4.369   2.633  0.6282  0.1916  0.4813
  438MOL0     C60310   3.427   4.259   2.662  0.4811 -0.6930  0.3556
  438MOL0     C60311   3.393   4.138   2.600  0.0604  0.0370  0.1054
  438MOL0     C60312   3.460   4.019   2.640 -0.7748  1.0927  0.5645
  438MOL0     C60313   3.567   4.018   2.725  0.3886 -0.1525 -0.1553
  438MOL0     O60314   3.640   3.907   2.763 -0.2751  1.0321 -0.3223
  438MOL0     C60315   3.713   3.839   2.656  0.8463  0.1582 -0.4820
  438MOL0     C60316   3.707   3.690   2.708 -0.0642 -0.2616 -0.5919
  438MOL0     C60317   3.769   3.589   2.613 -0.0246  0.0834 -0.4580
  438MOL0     C60318   3.726   3.451   2.657  0.0839  0.2851 -0.2380
  438MOL0     C60319   3.822   3.337   2.619 -0.0487  0.3005  0.5944
  438MOL0     C60320   3.855   3.354   2.469  0.4421  0.2182 -0.1796
  438MOL0     C60321   3.941   3.236   2.415  0.4610 -0.3491 -0.4737
  438MOL0     C60322   4.084   3.280   2.466 -0.0882  0.0322  0.1801
  438MOL0     N60323   4.190   3.183   2.444  0.2058  0.1756 -0.1120
  438MOL0     C60324   4.282   3.208   2.345 -0.4676  0.6561 -1.1573
  438MOL0     C60325   4.338   3.089   2.347  0.1167  0.9217 -0.9950
  438MOL0     C60326   4.436   3.046   2.246  0.7190  0.8462 -0.0210
  438MOL0     C60327   4.561   3.008   2.322 -0.4306  0.6464 -0.3656
  438MOL0     C60328   4.695   3.064   2.260 -0.1345 -0.2885  0.3404
  438MOL0     C60329   4.815   3.053   2.357  0.2587 -0.9925 -0.6142
  438MOL0     O60330   4.871   2.921   2.364 -0.0557 -0.1026  0.3708
  438MOL0     C60331   5.011   2.922   2.388  0.3252 -0.2534  0.4274
  438MOL0     C60332   5.077   2.816   2.331 -0.6697 -0.1537  0.4780
  438MOL0     C60333   5.219   2.816   2.335  1.1206 -0.7239 -0.8710
  438MOL0     C60334   5.297   2.710   2.249  0.9687  0.0221 -0.1745
  438MOL0     C60335   5.290   2.913   2.408 -0.4254 -0.2530  0.6558
  438MOL0     C60336   5.441   2.927   2.393 -1.0210  0.6293  0.5833
  438MOL0     O60337   5.514   2.941   2.504 -0.0376 -0.3694 -0.3904
  438MOL0     C60338   5.648   2.960   2.499  0.2070 -0.0283 -0.7990
  438MOL0     C60339   5.733   2.882   2.410 -0.3696 -0.2580 -0.4806
  438MOL0     C60340   5.872   2.895   2.414  0.8181 -0.0718  0.3435
  438MOL0     C60341   5.931   2.988   2.503 -1.3025 -0.6801 -0.2188
  438MOL0     O60342   6.068   3.020   2.499 -0.1365  0.1532  0.2141
  438MOL0     C60343   6.149   2.906   2.499 -0.6040  0.1416 -0.3325
  438MOL0     C60344   6.293   2.941   2.460 -1.2407 -0.6366 -0.3965
  438MOL0     C60345   6.386   2.817   2.466 -0.1859 -0.0814 -0.1513
  438MOL0     C60346   6.533   2.868   2.431  0.4585  0.4295  0.8408
  438MOL0     C60347   6.618   2.744   2.414  0.3620 -0.3633 -0.2740
  438MOL0     C60348   6.767   2.780   2.379 -0.0036 -0.5454 -0.3126
  438MOL0     C60349   6.854   2.661   2.400 -0.1819 -0.1094  0.2032
  438MOL0     C60350   7.002   2.706   2.387  0.1643  0.4063  0.6591
  438MOL0    Cl60351   7.043   2.797   2.234 -0.0838  0.4193 -0.4681
  438MOL0     C60352   5.852   3.067   2.584 -0.2485  0.0823 -0.5012
  438MOL0     C60353   5.705   3.057   2.586  0.3624 -0.2985  0.2671
  438MOL0     O60354   5.486   2.940   2.274  0.9013  0.2385 -0.2509
  438MOL0     C60355   5.216   3.012   2.482 -0.1067  0.4070 -0.2098
  438MOL0     C60356   5.078   3.018   2.473  0.3031 -0.8362  0.5842
  438MOL0     N60357   4.281   3.001   2.437 -0.3564 -0.3179 -0.9644
  438MOL0     N60358   4.192   3.056   2.505 -0.1651  0.1793 -0.2194
  438MOL0     C60359   3.603   4.149   2.781 -0.2089 -0.2060  0.4808
  438MOL0     C60360   3.533   4.272   2.751  0.2981  0.3360 -0.5542
  438MOL0     C60361   3.135   4.491   2.634 -0.3299 -0.1342  0.7683
  438MOL0     C60362   3.191   4.560   2.526  0.3200 -1.3454 -0.2383
  438MOL0     C60363   3.126   4.669   2.473 -0.3959  0.1163  0.9106
  438MOL0     C60364   3.010   4.720   2.528 -0.0083 -0.5185 -0.4886
  438MOL0     O60365   2.937   4.824   2.468  0.0214  0.1499 -0.5433
  438MOL0     C60366   2.962   4.844   2.331  0.2527  0.1336 -0.2196
  438MOL0     C60367   2.854   4.937   2.280 -0.4663  0.2197  0.1986
  438MOL0     C60368   2.875   4.984   2.144  0.3986 -0.4153  1.4300
  438MOL0     C60369   2.742   4.973   2.064 -0.3154  0.6111  1.0844
  438MOL0     C60370   2.743   5.028   1.932 -0.1961 -0.4151  0.3424
  438MOL0     C60371   2.767   5.082   1.826 -0.4215  0.6304  0.1586
  438MOL0     C60372   2.958   4.640   2.627 -0.3294  0.8666 -0.5915
  438MOL0     C60373   3.009   4.530   2.681 -0.2660  0.4603 -0.5863
  438MOL0     C60374   2.935   4.452   2.789  0.2029  0.2623 -0.7215
  438MOL0     H60375   3.301   4.130   2.544 -0.5862 -1.9066  1.3582
  438MOL0     H60376   3.434   3.923   2.597  0.4561  0.6388  0.7948
  438MOL0     H60377   3.811   3.885   2.642  0.7218  0.2927 -0.9216
  438MOL0     H60378   3.668   3.838   2.556  0.0879  2.3702 -0.2235
  438MOL0     H60379   3.757   3.687   2.805 -1.2291 -2.2901 -0.0016
  438MOL0     H60380   3.603   3.666   2.732  0.2087  0.4491  1.5455
  438MOL0     H60381   3.742   3.608   2.509 -2.0661 -1.4610 -0.2862
  438MOL0     H60382   3.877   3.592   2.625 -0.1544  0.3938  0.7601
  438MOL0     H60383   3.697   3.459   2.762 -0.5727  0.3324 -0.4139
  438MOL0     H60384   3.628   3.422   2.617  0.2450 -0.7250  0.0612
  438MOL0     H60385   3.768   3.243   2.633  1.0130 -0.8734 -2.3433
  438MOL0     H60386   3.908   3.343   2.687  0.1759  1.0202  0.2578
  438MOL0     H60387   3.762   3.357   2.411 -0.6257 -0.0186  1.4647
  438MOL0     H60388   3.897   3.450   2.439 -2.7209  1.6515 -0.4848
  438MOL0     H60389   3.933   3.238   2.306  1.1490  0.7484 -0.5101
  438MOL0     H60390   3.893   3.151   2.465 -2.2033  2.6231  2.5797
  438MOL0     H60391   4.111   3.379   2.428 -1.3947  0.5470  0.5513
  438MOL0     H60392   4.094   3.286   2.575  3.6054 -1.3985  0.0592
  438MOL0     H60393   4.297   3.291   2.277  0.1325 -0.3795 -2.3298
  438MOL0     H60394   4.466   3.134   2.188  1.4007  1.6302  1.4489
  438MOL0     H60395   4.404   2.963   2.183 -0.5562  1.9447 -0.8899
  438MOL0     H60396   4.556   3.057   2.420  1.6808  1.4163 -0.5860
  438MOL0     H60397   4.570   2.901   2.341 -1.2521  0.6134 -0.1132
  438MOL0     H60398   4.720   3.012   2.167  0.0141  0.8080 -0.2459
  438MOL0     H60399   4.676   3.167   2.229 -0.3447 -0.7616 -1.1641
  438MOL0     H60400   4.890   3.129   2.333 -1.8281  1.0926 -0.8460
  438MOL0     H60401   4.782   3.080   2.457  1.3385 -0.9687 -0.2597
  438MOL0     H60402   5.022   2.736   2.281 -0.5152  0.1580 -0.1980
  438MOL0     H60403   5.403   2.706   2.275  0.9254  0.1432  0.0220
  438MOL0     H60404   5.301   2.747   2.146  1.8373  1.1072  0.2242
  438MOL0     H60405   5.245   2.614   2.255 -2.7801  1.6374 -2.5309
  438MOL0     H60406   5.699   2.799   2.349  1.5991 -0.5566 -1.2349
  438MOL0     H60407   5.927   2.842   2.338  0.9309  0.8011 -0.2004
  438MOL0     H60408   6.156   2.858   2.597 -2.0332  2.1532  0.8244
  438MOL0     H60409   6.110   2.838   2.423  0.0985  0.8926 -1.3905
  438MOL0     H60410   6.298   2.974   2.356 -3.1838  1.1241 -0.0073
  438MOL0     H60411   6.315   3.032   2.517 -1.6711 -0.8679  0.1460
  438MOL0     H60412   6.347   2.744   2.394 -1.1315  1.3353 -1.1255
  438MOL0     H60413   6.388   2.767   2.564  4.9806 -0.6597 -0.2520
  438MOL0     H60414   6.575   2.935   2.508  1.3020  2.0587 -0.9385
  438MOL0     H60415   6.531   2.925   2.337  0.9387 -2.8076 -1.2761
  438MOL0     H60416   6.607   2.686   2.506  0.5588 -0.5488 -0.3673
  438MOL0     H60417   6.576   2.694   2.326 -0.7445 -0.1010  0.0933
  438MOL0     H60418   6.807   2.857   2.446  0.7758 -1.1455 -0.0671
  438MOL0     H60419   6.772   2.822   2.279 -0.8591 -1.0863 -0.5875
  438MOL0     H60420   6.830   2.583   2.328 -0.9783  1.2910 -1.1159
  438MOL0     H60421   6.839   2.621   2.501  1.3998  2.8028  1.7282
  438MOL0     H60422   7.066   2.617   2.389  0.8925  0.8539 -1.0773
  438MOL0     H60423   7.040   2.756   2.476 -0.7513 -0.1357  1.3660
  438MOL0     H60424   5.896   3.142   2.648 -1.5383  0.2499  0.2190
  438MOL0     H60425   5.646   3.123   2.650  1.9618  1.0032  0.4695
  438MOL0     H60426   5.282   3.083   2.530 -0.8633 -0.4756  2.2845
  438MOL0     H60427   5.022   3.092   2.529  0.1738 -3.0394  3.6301
  438MOL0     H60428   3.681   4.162   2.855 -0.3976  4.1954  0.2081
  438MOL0     H60429   3.561   4.365   2.799 -0.2129  0.5290 -0.6227
  438MOL0     H60430   3.294   4.547   2.495  0.5684  0.3382 -0.2262
  438MOL0     H60431   3.186   4.717   2.395  1.6477 -0.6644  1.9244
  438MOL0     H60432   3.063   4.882   2.316  1.4705 -2.2736  1.3583
  438MOL0     H60433   2.965   4.747   2.280  0.3505 -0.0943  0.2150
  438MOL0     H60434   2.844   5.025   2.343 -1.5047  1.1128 -1.1367
  438MOL0     H60435   2.764   4.875   2.287  0.5506 -1.2165  0.9986
  438MOL0     H60436   2.893   5.092   2.146  1.9272 -0.5291 -1.3105
  438MOL0     H60437   2.960   4.943   2.089 -0.3937  0.2521 -0.3589
  438MOL0     H60438   2.666   5.019   2.127  0.3142  0.5830  1.8767
  438MOL0     H60439   2.717   4.867   2.062 -1.2033  0.8131  0.8562
  438MOL0     H60440   2.808   5.122   1.735  2.3046 -1.5681  0.2833
  438MOL0     H60441   2.857   4.660   2.659 -1.0289 -1.4851 -1.1333
  438MOL0     H60442   2.946   4.345   2.772  3.9676  0.3155  0.4648
  438MOL0     H60443   2.963   4.480   2.891  1.6783  3.4567 -1.8575
  438MOL0     H60444   2.831   4.488   2.789  0.5500  1.5302  1.9140
  439MOL0     O60445   9.244   8.122  11.132  0.4863  0.1415 -0.8644
  439MOL0     C60446   9.271   8.102  11.014 -0.0672  0.0534  0.2618
  439MOL0     O60447   9.390   8.078  10.962  0.0888 -0.0399  0.2810
  439MOL0     C60448   9.514   8.066  11.025  0.3526 -0.7362  0.0032
  439MOL0     C60449   9.634   8.083  10.953 -0.0553  0.1134 -0.2114
  439MOL0     C60450   9.759   8.079  11.010  0.5830 -0.3488  0.5998
  439MOL0     C60451   9.781   8.048  11.144 -0.4247 -0.0804  0.4903
  439MOL0     O60452   9.904   8.039  11.214  0.1601  0.1451 -0.4845
  439MOL0     C60453  10.027   8.014  11.143  0.3648  1.1407 -0.8322
  439MOL0     C60454  10.128   7.945  11.237  0.2744 -0.1381  0.3989
  439MOL0     C60455  10.186   8.034  11.344  0.3839 -0.1981  0.1728
  439MOL0     C60456  10.294   8.134  11.296  0.4075  0.6263  0.1841
  439MOL0     C60457  10.353   8.216  11.416  0.3299  0.1738 -0.8477
  439MOL0     C60458  10.495   8.275  11.396  0.4781 -0.7670  0.4924
  439MOL0     C60459  10.537   8.340  11.525 -0.3215 -0.1362 -0.4107
  439MOL0     C60460  10.671   8.416  11.509 -0.1470 -0.3143  0.2567
  439MOL0     N60461  10.786   8.325  11.508 -0.2647  0.2401 -0.4698
  439MOL0     C60462  10.859   8.297  11.397  0.2831 -0.6976  0.4394
  439MOL0     C60463  10.977   8.247  11.435  0.1367 -0.1511 -0.4800
  439MOL0     C60464  11.090   8.195  11.344  0.2098  0.4629 -0.1049
  439MOL0     C60465  11.225   8.255  11.387 -0.4343 -0.1409  0.2970
  439MOL0     C60466  11.329   8.212  11.281  0.3981  0.3124  0.5966
  439MOL0     C60467  11.390   8.076  11.319  0.2598 -0.0938  0.1239
  439MOL0     O60468  11.521   8.049  11.264 -0.3754  0.4124  0.6806
  439MOL0     C60469  11.624   8.115  11.317 -0.3197  1.4168 -0.6917
  439MOL0     C60470  11.754   8.096  11.257 -0.3127  0.0391 -0.6085
  439MOL0     C60471  11.872   8.160  11.300 -0.0284  0.6043  0.0416
  439MOL0     C60472  12.003   8.122  11.237 -0.5464  0.6115  1.1920
  439MOL0     C60473  11.864   8.254  11.403  0.1838  0.6439 -0.0477
  439MOL0     C60474  11.984   8.335  11.441 -0.3590 -0.3897 -0.8431
  439MOL0     O60475  11.983   8.379  11.576 -0.3067 -0.0526 -0.3422
  439MOL0     C60476  12.110   8.399  11.638 -0.0621  0.3778 -0.4690
  439MOL0     C60477  12.188   8.288  11.671 -0.4727  0.3037 -0.6605
  439MOL0     C60478  12.301   8.295  11.755  1.4129  0.1845  0.0381
  439MOL0     C60479  12.335   8.416  11.796 -0.3578 -0.8016  0.1220
  439MOL0     O60480  12.449   8.424  11.884  0.0446 -0.3719 -0.1283
  439MOL0     C60481  12.544   8.530  11.871  0.6570 -0.1519 -0.8638
  439MOL0     C60482  12.690   8.474  11.832 -0.3214 -0.1212  0.8657
  439MOL0     C60483  12.792   8.463  11.941 -0.1044  0.1711  0.4870
  439MOL0     C60484  12.928   8.405  11.888 -0.0283 -1.0824  0.0806
  439MOL0     C60485  13.041   8.395  11.989 -0.6015 -0.1151 -0.4909
  439MOL0     C60486  13.099   8.527  12.042  0.6131  0.1179  0.4982
  439MOL0     C60487  13.245   8.531  12.082 -0.1404 -0.5794 -0.7090
  439MOL0     C60488  13.269   8.439  12.205  0.2085  0.3566  0.0222
  439MOL0    Cl60489  13.451   8.448  12.248  0.1566 -0.2197  0.3298
  439MOL0     C60490  12.262   8.533  11.762 -0.1308  0.0247  0.2620
  439MOL0     C60491  12.155   8.523  11.672 -0.1977  0.0195  0.5156
  439MOL0     O60492  12.077   8.361  11.362 -0.5854 -0.2476 -0.2193
  439MOL0     C60493  11.740   8.269  11.470  0.0053 -0.3749  0.4895
  439MOL0     C60494  11.627   8.208  11.425  0.0253  0.5437 -0.5771
  439MOL0     N60495  10.976   8.243  11.576  0.7476 -0.1919  0.4601
  439MOL0     N60496  10.859   8.288  11.620 -0.5422  0.4231  0.5172
  439MOL0     C60497   9.662   8.027  11.211 -0.2952  0.3776  0.0165
  439MOL0     C60498   9.528   8.035  11.159 -0.6327 -0.0628  0.3052
  439MOL0     C60499   9.161   8.122  10.915 -0.8620  0.4748 -0.1966
  439MOL0     C60500   9.195   8.123  10.778  0.3841  0.0056 -0.0226
  439MOL0     C60501   9.105   8.138  10.670  0.0821 -0.1920  0.0198
  439MOL0     C60502   8.976   8.179  10.707 -0.0495  0.2000 -0.8646
  439MOL0     O60503   8.892   8.208  10.605 -0.0819  0.7008 -0.4344
  439MOL0     C60504   8.773   8.293  10.633 -0.2011 -0.3583 -0.2020
  439MOL0     C60505   8.821   8.428  10.685 -0.4866 -0.6566 -0.6833
  439MOL0     C60506   8.929   8.494  10.598  0.2778  0.7468  0.1189
  439MOL0     C60507   8.994   8.613  10.659 -0.2549 -0.3443  0.0280
  439MOL0     C60508   8.909   8.741  10.645  0.2133  0.0554 -0.1473
  439MOL0     C60509   8.840   8.846  10.646  0.0358  0.2596  0.3026
  439MOL0     C60510   8.944   8.182  10.848  0.8487  0.0053  0.4578
  439MOL0     C60511   9.025   8.156  10.952  0.6054  0.1062 -0.3637
  439MOL0     C60512   8.966   8.171  11.094 -0.0029  0.4392  0.1415
  439MOL0     H60513   9.625   8.108  10.848  0.1131  1.4286  0.0671
  439MOL0     H60514   9.837   8.105  10.939  0.3143 -0.1844  0.3630
  439MOL0     H60515  10.068   8.109  11.107  6.3886  0.2307  2.2741
  439MOL0     H60516  10.002   7.956  11.054 -1.8035 -0.8313  0.9363
  439MOL0     H60517  10.071   7.868  11.289 -1.6719  0.6284 -0.5106
  439MOL0     H60518  10.206   7.899  11.177 -2.1736 -2.3636 -1.2823
  439MOL0     H60519  10.102   8.074  11.402  0.7868  0.3055  0.4089
  439MOL0     H60520  10.247   7.981  11.418 -1.7668  0.9911  2.9900
  439MOL0     H60521  10.369   8.079  11.239  1.4962 -0.9877  2.9920
  439MOL0     H60522  10.252   8.209  11.228  1.3591  1.5273  0.5713
  439MOL0     H60523  10.381   8.147  11.496 -0.4587  0.5590 -0.2194
  439MOL0     H60524  10.283   8.294  11.448 -1.6007 -1.9357  0.2814
  439MOL0     H60525  10.563   8.191  11.381  1.0990 -0.4780  1.5754
  439MOL0     H60526  10.498   8.346  11.313 -2.2638 -0.1688  0.8154
  439MOL0     H60527  10.529   8.267  11.606 -1.1462  0.8854  0.4589
  439MOL0     H60528  10.461   8.414  11.553 -0.8498 -1.3579  1.5243
  439MOL0     H60529  10.659   8.477  11.419 -0.8739 -0.8589 -0.0236
  439MOL0     H60530  10.685   8.494  11.584  0.5041 -0.0481 -0.1340
  439MOL0     H60531  10.811   8.305  11.300 -2.4933  2.8829  1.8512
  439MOL0     H60532  11.069   8.232  11.244 -3.0728 -1.3095 -0.1962
  439MOL0     H60533  11.100   8.086  11.350 -1.0630  0.0929 -3.1593
  439MOL0     H60534  11.218   8.364  11.388 -2.0173 -0.2134  0.8587
  439MOL0     H60535  11.248   8.227  11.490 -1.4021 -0.8655  0.3414
  439MOL0     H60536  11.287   8.215  11.180  0.3394  1.7994  0.6350
  439MOL0     H60537  11.402   8.294  11.283 -2.4482  3.1763 -1.5198
  439MOL0     H60538  11.386   8.064  11.428 -0.2704 -3.1753 -0.1595
  439MOL0     H60539  11.325   7.992  11.292 -0.3450  0.8254 -1.4256
  439MOL0     H60540  11.750   8.027  11.174  1.8922 -1.1484  0.1891
  439MOL0     H60541  12.002   8.021  11.195  0.1376  0.5338  1.3457
  439MOL0     H60542  12.064   8.125  11.328 -3.2364  0.9500  3.0833
  439MOL0     H60543  12.033   8.182  11.151 -1.0219 -1.6451 -0.6259
  439MOL0     H60544  12.146   8.192  11.643  0.8711 -0.3697 -0.4456
  439MOL0     H60545  12.346   8.203  11.791 -0.0538 -1.3066 -1.7370
  439MOL0     H60546  12.515   8.591  11.786 -0.4080 -0.3831 -0.6839
  439MOL0     H60547  12.528   8.597  11.956  1.3113  0.1778 -1.0011
  439MOL0     H60548  12.670   8.386  11.770 -3.7090  1.9151 -1.2181
  439MOL0     H60549  12.729   8.547  11.761  0.1224  0.0738  1.3098
  439MOL0     H60550  12.760   8.406  12.029 -1.4892  0.6197  0.2993
  439MOL0     H60551  12.816   8.564  11.975  1.5871  0.9738 -2.6438
  439MOL0     H60552  12.963   8.455  11.797  1.8411  0.3302  1.5127
  439MOL0     H60553  12.905   8.300  11.868 -0.0626 -1.4645  1.9143
  439MOL0     H60554  13.012   8.332  12.073 -0.4301  0.1599 -0.2238
  439MOL0     H60555  13.115   8.342  11.927 -2.7657 -0.6974 -2.7369
  439MOL0     H60556  13.030   8.551  12.123 -1.3811 -2.5169 -0.2965
  439MOL0     H60557  13.084   8.605  11.967 -2.4989 -0.3234  0.5282
  439MOL0     H60558  13.272   8.633  12.110 -0.0529 -0.5124 -1.0323
  439MOL0     H60559  13.316   8.515  11.999 -0.7920  2.7393 -2.0698
  439MOL0     H60560  13.243   8.333  12.197  1.4351  0.0276  0.2276
  439MOL0     H60561  13.211   8.471  12.292 -1.2020 -2.3598  0.1829
  439MOL0     H60562  12.297   8.630  11.796  1.2766  1.0371 -3.4957
  439MOL0     H60563  12.093   8.609  11.648  0.1740 -0.1641 -1.2583
  439MOL0     H60564  11.722   8.337  11.553  1.1455  0.8293 -0.2129
  439MOL0     H60565  11.529   8.225  11.470 -1.7770  0.8309 -4.2641
  439MOL0     H60566   9.661   8.004  11.317 -3.1697 -2.9990 -0.5614
  439MOL0     H60567   9.449   8.036  11.234 -1.7429  1.4198 -0.8325
  439MOL0     H60568   9.301   8.113  10.759  0.2813 -0.5154 -0.3519
  439MOL0     H60569   9.143   8.140  10.569  0.5109  1.7901  0.1828
  439MOL0     H60570   8.710   8.297  10.544 -1.1333 -0.8077  0.4290
  439MOL0     H60571   8.706   8.251  10.708 -0.1234  0.9459  0.6123
  439MOL0     H60572   8.865   8.406  10.782 -0.4784 -1.8040 -0.9273
  439MOL0     H60573   8.732   8.489  10.702  1.7935  2.7869 -0.2048
  439MOL0     H60574   9.004   8.421  10.567 -0.0405  0.8927 -1.0451
  439MOL0     H60575   8.881   8.521  10.503  1.6222 -1.2221 -1.1884
  439MOL0     H60576   9.094   8.638  10.623 -1.4937  1.5517 -2.3630
  439MOL0     H60577   9.018   8.593  10.764  2.8026 -0.5224 -0.6321
  439MOL0     H60578   8.769   8.923  10.627  0.2341  0.9517  2.1703
  439MOL0     H60579   8.849   8.222  10.883  3.3221  4.0633  3.3861
  439MOL0     H60580   9.012   8.254  11.148 -1.0173  0.4790  0.9691
  439MOL0     H60581   8.858   8.185  11.102 -0.3880  0.0832 -2.9179
  439MOL0     H60582   8.996   8.082  11.150  2.3169 -0.3334 -2.1137
  440MOL0     O60583   3.095  10.407   3.748 -0.3244 -0.2421 -0.4253
  440MOL0     C60584   3.086  10.444   3.866 -0.2384  0.8730 -0.2451
  440MOL0     O60585   3.174  10.528   3.926  0.0747 -0.2338 -0.3215
  440MOL0     C60586   3.288  10.573   3.861 -0.2904  0.7477  0.2452
  440MOL0     C60587   3.354  10.677   3.925  0.7660 -0.5717  0.3055
  440MOL0     C60588   3.464  10.746   3.872 -0.1994  0.3470 -0.1386
  440MOL0     C60589   3.518  10.705   3.748  0.3429 -0.2601  0.7247
  440MOL0     O60590   3.624  10.764   3.687 -0.2648  0.2847  0.0895
  440MOL0     C60591   3.651  10.900   3.718 -0.3475  0.0291  0.4144
  440MOL0     C60592   3.768  10.948   3.638 -0.5147 -0.1233  0.1902
  440MOL0     C60593   3.897  10.877   3.679 -0.6342  0.6042  0.5630
  440MOL0     C60594   4.011  10.933   3.599 -0.3673  0.1108  0.0926
  440MOL0     C60595   4.136  10.850   3.622  0.0333  0.3923  0.5994
  440MOL0     C60596   4.264  10.915   3.561 -0.5858 -0.2541 -0.7277
  440MOL0     C60597   4.399  10.850   3.599  0.2688  0.5671  0.0447
  440MOL0     C60598   4.391  10.696   3.599 -0.0167  0.4753 -0.9037
  440MOL0     N60599   4.515  10.619   3.584 -0.4361  0.8196  0.4812
  440MOL0     C60600   4.612  10.638   3.484  0.8621 -0.1697  0.1927
  440MOL0     C60601   4.708  10.541   3.506  0.8851 -0.1833 -0.3188
  440MOL0     C60602   4.838  10.529   3.428  0.5774 -0.0066  0.7757
  440MOL0     C60603   4.804  10.456   3.293 -1.0664  0.2314  0.0624
  440MOL0     C60604   4.778  10.306   3.315  0.6306  0.3441  0.2426
  440MOL0     C60605   4.749  10.227   3.179 -0.2921 -0.3444 -0.3304
  440MOL0     O60606   4.859  10.217   3.097  0.3960 -0.2796 -0.0189
  440MOL0     C60607   4.951  10.125   3.127 -0.0647 -0.4130 -0.7016
  440MOL0     C60608   4.957  10.044   3.240 -0.4140 -0.3624 -0.5177
  440MOL0     C60609   5.062   9.945   3.268  0.6753  1.2388 -0.6143
  440MOL0     C60610   5.044   9.862   3.393  0.0815  0.2876 -0.2057
  440MOL0     C60611   5.170   9.943   3.184  0.5284 -0.0931 -0.7504
  440MOL0     C60612   5.283   9.850   3.196 -0.3517 -0.1469 -0.0828
  440MOL0     O60613   5.404   9.888   3.133 -0.2711 -0.3478  0.1654
  440MOL0     C60614   5.509   9.806   3.171  0.2059  0.2677  0.1428
  440MOL0     C60615   5.551   9.709   3.083 -0.0860 -0.1489 -0.0803
  440MOL0     C60616   5.659   9.628   3.120 -0.7081 -0.6668 -0.7818
  440MOL0     C60617   5.713   9.625   3.248 -0.2099 -0.2901  0.4987
  440MOL0     O60618   5.819   9.554   3.288 -0.2208  0.6926  0.0495
  440MOL0     C60619   5.905   9.495   3.183  0.4835  0.2587 -0.2710
  440MOL0     C60620   6.033   9.444   3.258 -0.3923 -1.1855  0.2273
  440MOL0     C60621   6.083   9.326   3.176  0.0287  0.3820 -0.2934
  440MOL0     C60622   6.205   9.277   3.249  0.1065 -0.1112  0.3644
  440MOL0     C60623   6.264   9.142   3.196 -0.8944 -0.3440 -0.0233
  440MOL0     C60624   6.345   9.150   3.062  0.3734 -0.1854  0.0661
  440MOL0     C60625   6.383   9.026   2.992  0.5243 -0.3146 -0.1995
  440MOL0     C60626   6.272   8.923   2.975  0.5623  0.1481  0.3931
  440MOL0    Cl60627   6.139   8.991   2.884  0.2284 -0.0404 -0.1057
  440MOL0     C60628   5.673   9.725   3.337  0.2132  0.8782  0.5669
  440MOL0     C60629   5.566   9.810   3.305 -0.4770  0.5026  0.7904
  440MOL0     O60630   5.274   9.752   3.268  0.5021 -0.4279 -0.2635
  440MOL0     C60631   5.159  10.019   3.062 -0.6902  0.2776 -0.7599
  440MOL0     C60632   5.058  10.110   3.039 -0.6150 -0.0594  0.2109
  440MOL0     N60633   4.664  10.457   3.611 -0.6750 -0.3170  0.3274
  440MOL0     N60634   4.555  10.511   3.657  0.7197 -0.6130 -0.0753
  440MOL0     C60635   3.458  10.591   3.687  0.2369 -0.0210  0.3733
  440MOL0     C60636   3.352  10.519   3.745 -0.2224  0.1956  0.1133
  440MOL0     C60637   2.974  10.403   3.953 -0.2919 -0.3023 -0.5621
  440MOL0     C60638   2.949  10.483   4.065 -0.1665 -0.9841 -0.0363
  440MOL0     C60639   2.859  10.448   4.161  1.2192  0.0255  0.8341
  440MOL0     C60640   2.770  10.341   4.136 -0.5919  0.2810  0.4648
  440MOL0     O60641   2.674  10.302   4.218  0.0913 -0.0238  0.5336
  440MOL0     C60642   2.644  10.378   4.339  0.2175  0.5092  0.3716
  440MOL0     C60643   2.736  10.355   4.463  0.4056  0.2834  0.8255
  440MOL0     C60644   2.718  10.210   4.526 -0.3744  0.1583 -0.1830
  440MOL0     C60645   2.820  10.196   4.634 -0.0967  0.1253  0.3147
  440MOL0     C60646   2.818  10.299   4.750  0.2306 -0.6474  0.2062
  440MOL0     C60647   2.814  10.367   4.854  0.7611  0.3826  0.3949
  440MOL0     C60648   2.781  10.271   4.019 -0.8201  0.1413  0.3566
  440MOL0     C60649   2.884  10.292   3.931  0.5604  0.3637 -0.7901
  440MOL0     C60650   2.901  10.187   3.823  0.0083 -1.1761  0.3590
  440MOL0     H60651   3.301  10.716   4.011 -0.5476  1.0370 -1.1607
  440MOL0     H60652   3.510  10.829   3.925  2.3903 -0.2751 -1.2047
  440MOL0     H60653   3.666  10.911   3.826 -2.0081 -0.5598  0.7423
  440MOL0     H60654   3.562  10.954   3.686 -0.0496  0.2737 -0.0044
  440MOL0     H60655   3.751  10.942   3.530 -0.1923  3.4194 -0.1794
  440MOL0     H60656   3.780  11.054   3.664 -4.0810  1.0183 -2.0282
  440MOL0     H60657   3.924  10.882   3.785  0.6284 -2.1939  0.4597
  440MOL0     H60658   3.878  10.771   3.655 -2.1046  0.6292  1.4780
  440MOL0     H60659   3.987  10.922   3.493  0.3641 -2.7580  0.1521
  440MOL0     H60660   4.033  11.038   3.621  1.1113  0.0985 -1.1749
  440MOL0     H60661   4.126  10.753   3.572  0.4570  0.2206  0.8436
  440MOL0     H60662   4.139  10.845   3.732 -2.2457  0.7668  0.7185
  440MOL0     H60663   4.247  10.932   3.455 -1.6170 -5.2095 -1.6061
  440MOL0     H60664   4.266  11.015   3.606  1.0496 -1.3476  1.8677
  440MOL0     H60665   4.433  10.889   3.695  0.0961  1.4060 -0.2270
  440MOL0     H60666   4.471  10.886   3.524  0.1086 -0.6862 -0.7547
  440MOL0     H60667   4.355  10.676   3.700 -1.6516  3.2619 -0.8569
  440MOL0     H60668   4.313  10.669   3.527 -1.2193  0.5750  0.3218
  440MOL0     H60669   4.621  10.702   3.397  1.8911 -0.2586  0.2208
  440MOL0     H60670   4.916  10.480   3.487  2.1737 -1.7063 -2.4812
  440MOL0     H60671   4.865  10.630   3.397 -1.0195  0.1404 -0.2877
  440MOL0     H60672   4.718  10.505   3.246  0.2428  1.6224 -0.9831
  440MOL0     H60673   4.882  10.487   3.222 -0.1719  0.9972  1.3340
  440MOL0     H60674   4.851  10.257   3.380  1.0236 -1.2248 -1.3149
  440MOL0     H60675   4.678  10.300   3.360  0.7027 -1.5029  0.2135
  440MOL0     H60676   4.713  10.125   3.195  0.3636 -0.3035  1.6208
  440MOL0     H60677   4.666  10.281   3.133  0.9806  2.9918  1.0064
  440MOL0     H60678   4.877  10.048   3.314 -0.8179 -1.7276 -0.8539
  440MOL0     H60679   5.130   9.864   3.460  0.8910 -0.0684 -1.2029
  440MOL0     H60680   5.026   9.757   3.368  2.6731 -1.0384  2.8158
  440MOL0     H60681   4.966   9.905   3.456 -1.3378 -2.6194  0.1893
  440MOL0     H60682   5.496   9.697   2.990  0.3443 -2.3335 -0.0968
  440MOL0     H60683   5.691   9.548   3.054 -0.0104 -1.0698  0.0333
  440MOL0     H60684   5.859   9.410   3.131  1.0902  0.4961 -1.2096
  440MOL0     H60685   5.938   9.570   3.111 -1.5464  0.7980 -0.6833
  440MOL0     H60686   6.111   9.521   3.261 -1.2305 -0.3267  0.2042
  440MOL0     H60687   6.014   9.419   3.363  3.4917  1.5051  1.8394
  440MOL0     H60688   6.107   9.344   3.071 -1.8118  1.8273 -0.5091
  440MOL0     H60689   6.006   9.248   3.178  1.2803 -0.8930  0.7444
  440MOL0     H60690   6.174   9.267   3.353 -1.1465  1.2849  0.1615
  440MOL0     H60691   6.286   9.349   3.252 -0.2201  0.3009 -0.3627
  440MOL0     H60692   6.337   9.113   3.273  0.4601  1.4917 -0.5504
  440MOL0     H60693   6.179   9.072   3.195 -1.2235  0.0596 -0.9505
  440MOL0     H60694   6.438   9.206   3.072 -0.6865  1.4292  1.6122
  440MOL0     H60695   6.284   9.219   3.003 -1.0387 -1.6543 -0.2635
  440MOL0     H60696   6.463   8.979   3.051  0.0595  1.6422  2.1486
  440MOL0     H60697   6.439   9.038   2.899  0.5768 -1.0186 -0.2647
  440MOL0     H60698   6.239   8.874   3.067 -1.3650 -3.7192 -2.0575
  440MOL0     H60699   6.307   8.844   2.908 -1.7890  1.5390 -2.6963
  440MOL0     H60700   5.721   9.730   3.434 -0.2093 -2.5906  1.0726
  440MOL0     H60701   5.534   9.897   3.361 -2.9440  2.2668 -2.9395
  440MOL0     H60702   5.246  10.027   2.999  2.4160  1.7087  3.2800
  440MOL0     H60703   5.059  10.178   2.955 -4.7759  1.4757  1.2002
  440MOL0     H60704   3.494  10.554   3.591  2.3139 -1.3090  1.5604
  440MOL0     H60705   3.319  10.431   3.690 -1.0171  0.7382 -0.2857
  440MOL0     H60706   3.007  10.573   4.082 -0.1534 -1.1260  0.6812
  440MOL0     H60707   2.863  10.505   4.254 -0.5382  0.9758  0.3700
  440MOL0     H60708   2.646  10.484   4.312 -0.1236  0.6933  1.0572
  440MOL0     H60709   2.541  10.351   4.364 -0.2870  1.8892 -0.0864
  440MOL0     H60710   2.713  10.437   4.531  1.9742  2.1728 -0.8272
  440MOL0     H60711   2.837  10.370   4.424  0.2637 -2.3687 -0.8416
  440MOL0     H60712   2.615  10.189   4.558 -0.3863  2.6617  1.7223
  440MOL0     H60713   2.737  10.128   4.457  2.2862  1.7934 -1.5584
  440MOL0     H60714   2.922  10.197   4.594  0.0060  0.0424  0.5721
  440MOL0     H60715   2.805  10.096   4.677 -1.6709  0.7111  1.2518
  440MOL0     H60716   2.786  10.426   4.939 -2.9771 -1.5985  0.7349
  440MOL0     H60717   2.706  10.196   3.997 -0.2086 -1.1867  2.4787
  440MOL0     H60718   2.844  10.095   3.838  0.0806 -1.0561  1.5182
  440MOL0     H60719   2.872  10.237   3.730  0.3621 -2.8101 -0.6658
  440MOL0     H60720   3.008  10.172   3.805  0.1224 -0.7328  0.6391
  441MOL0     O60721   3.261   1.026   4.898  0.5037 -0.2522  0.7354
  441MOL0     C60722   3.200   1.081   4.989 -0.0062  0.0005 -0.4571
  441MOL0     O60723   3.251   1.180   5.061 -0.2689  0.3156 -0.3053
  441MOL0     C60724   3.381   1.221   5.037 -0.5020  0.1907  0.5515
  441MOL0     C60725   3.484   1.121   5.048  0.0392 -0.3967  0.3770
  441MOL0     C60726   3.613   1.156   4.994 -0.8840 -0.1303  0.0819
  441MOL0     C60727   3.649   1.282   4.948 -0.7792  0.4188 -0.4993
  441MOL0     O60728   3.774   1.320   4.894 -0.1340  0.9750 -0.3907
  441MOL0     C60729   3.841   1.205   4.838 -0.4180  1.1781 -0.9003
  441MOL0     C60730   3.968   1.268   4.774 -0.7088 -0.4962  0.2767
  441MOL0     C60731   4.077   1.167   4.747  0.4410  0.1092  0.3293
  441MOL0     C60732   4.206   1.239   4.746 -0.3552 -0.2659 -0.2115
  441MOL0     C60733   4.229   1.327   4.624 -0.2423  0.2783  0.6120
  441MOL0     C60734   4.269   1.251   4.495 -0.1522 -0.2573 -0.0546
  441MOL0     C60735   4.404   1.174   4.500 -0.4420 -0.1786 -0.5720
  441MOL0     C60736   4.456   1.143   4.362  0.4832  0.7863 -0.4916
  441MOL0     N60737   4.371   1.065   4.282  0.0404  0.0167 -0.6272
  441MOL0     C60738   4.393   0.934   4.269 -0.1538 -0.6290  0.0308
  441MOL0     C60739   4.302   0.906   4.173 -0.6708  0.2482 -0.4493
  441MOL0     C60740   4.266   0.767   4.140  0.2958 -0.5053  0.7246
  441MOL0     C60741   4.391   0.687   4.094  0.1992 -0.0040  0.0225
  441MOL0     C60742   4.349   0.556   4.027 -0.4382 -0.5644  0.3541
  441MOL0     C60743   4.461   0.486   3.941  0.5322  0.6146 -0.5080
  441MOL0     O60744   4.590   0.510   3.994  0.6139  0.1553  0.0434
  441MOL0     C60745   4.682   0.586   3.927 -0.2074 -0.1336 -0.6452
  441MOL0     C60746   4.790   0.629   4.007 -0.5600 -0.2308  0.5099
  441MOL0     C60747   4.885   0.715   3.950 -0.1819 -0.4980  1.1554
  441MOL0     C60748   4.972   0.781   4.039 -0.0544 -0.3510 -0.5719
  441MOL0     C60749   4.887   0.751   3.812  0.0957 -0.6430  0.3823
  441MOL0     C60750   4.986   0.833   3.733  0.4992  0.8043  0.4925
  441MOL0     O60751   4.953   0.863   3.603  0.3315  0.0832  0.2078
  441MOL0     C60752   5.020   0.955   3.533  0.4321  0.2717  0.5384
  441MOL0     C60753   5.060   0.905   3.407  0.3824  0.2215  0.0524
  441MOL0     C60754   5.125   0.987   3.325 -0.1031  0.7794  0.3480
  441MOL0     C60755   5.168   1.118   3.365  0.0036 -0.1038 -0.0738
  441MOL0     O60756   5.243   1.205   3.282 -0.2262  0.0832  0.5998
  441MOL0     C60757   5.274   1.163   3.146  0.2248  0.5921  0.3640
  441MOL0     C60758   5.344   1.248   3.043  0.8331 -0.0019 -0.7853
  441MOL0     C60759   5.498   1.262   3.083  0.1526 -0.2330 -0.2292
  441MOL0     C60760   5.508   1.357   3.197  0.0857 -0.1975  0.2558
  441MOL0     C60761   5.658   1.393   3.235  0.2705  0.1001  1.1128
  441MOL0     C60762   5.664   1.495   3.349  0.6922  0.5343 -0.4413
  441MOL0     C60763   5.802   1.520   3.393 -1.1527 -0.3795  0.3017
  441MOL0     C60764   5.812   1.626   3.500  0.2853  0.0365 -0.4549
  441MOL0    Cl60765   5.985   1.652   3.536  0.7091  0.0849 -0.0458
  441MOL0     C60766   5.130   1.165   3.497 -0.0010 -0.2610 -0.5852
  441MOL0     C60767   5.052   1.083   3.581  0.7609  0.8235 -0.2717
  441MOL0     O60768   5.086   0.881   3.790  0.4184  0.7119  0.0395
  441MOL0     C60769   4.783   0.687   3.740 -0.2802  0.4616  0.2393
  441MOL0     C60770   4.682   0.610   3.790  0.8436  0.4951  0.0332
  441MOL0     N60771   4.227   1.011   4.140 -0.2310 -0.2499 -0.2775
  441MOL0     N60772   4.279   1.113   4.198 -0.1021 -0.7709  0.4269
  441MOL0     C60773   3.538   1.375   4.945  0.0650 -0.1888  0.0763
  441MOL0     C60774   3.408   1.344   4.992  0.1097 -0.0576  0.7138
  441MOL0     C60775   3.070   1.027   5.042  0.2253  0.1913  0.7485
  441MOL0     C60776   3.003   1.103   5.135 -0.2377  0.3862  0.9093
  441MOL0     C60777   2.895   1.045   5.208 -0.1345 -0.6938  0.2604
  441MOL0     C60778   2.847   0.912   5.183 -0.5602 -0.7575 -0.3458
  441MOL0     O60779   2.744   0.842   5.249 -0.0867  0.5648  0.0964
  441MOL0     C60780   2.685   0.892   5.363  0.4471 -0.0251 -0.6624
  441MOL0     C60781   2.554   0.962   5.334 -0.1856 -0.6884  0.3122
  441MOL0     C60782   2.424   0.883   5.334 -0.7520  0.0506  0.4026
  441MOL0     C60783   2.290   0.942   5.383 -0.1522 -0.6668 -0.0751
  441MOL0     C60784   2.188   0.848   5.339  0.0561  0.2891 -0.3189
  441MOL0     C60785   2.096   0.771   5.319  0.3726  0.0930 -0.5564
  441MOL0     C60786   2.915   0.850   5.085  0.3417  0.5592 -0.0878
  441MOL0     C60787   3.023   0.896   5.009 -0.8748  0.0046 -0.9472
  441MOL0     C60788   3.080   0.812   4.915  0.1599  0.8330  0.7680
  441MOL0     H60789   3.461   1.022   5.087  1.0953 -1.1845 -0.9443
  441MOL0     H60790   3.683   1.074   5.000 -0.9448 -0.5167 -2.9759
  441MOL0     H60791   3.792   1.145   4.760  1.7383  2.3273 -3.2666
  441MOL0     H60792   3.885   1.142   4.917  2.2663 -3.1018 -5.2363
  441MOL0     H60793   3.932   1.313   4.681 -0.2740  0.5530  0.6040
  441MOL0     H60794   3.994   1.353   4.837  0.9291  0.6967 -1.8811
  441MOL0     H60795   4.082   1.092   4.827 -2.1193 -1.1141 -0.5256
  441MOL0     H60796   4.066   1.117   4.650  2.5777  0.4286 -0.1152
  441MOL0     H60797   4.209   1.297   4.839  1.6047 -0.2551 -0.2526
  441MOL0     H60798   4.286   1.166   4.761  1.0258  1.1376 -0.5539
  441MOL0     H60799   4.316   1.391   4.643  0.6579  0.5192 -3.4012
  441MOL0     H60800   4.144   1.395   4.609 -0.0522  0.5200  0.6150
  441MOL0     H60801   4.193   1.177   4.469  0.8168 -1.3244  0.0427
  441MOL0     H60802   4.275   1.330   4.419  1.1185  1.9110  2.1700
  441MOL0     H60803   4.399   1.080   4.557 -1.7747 -0.5841 -1.3232
  441MOL0     H60804   4.474   1.236   4.558  3.5063 -2.5231 -2.3688
  441MOL0     H60805   4.487   1.233   4.308  2.9457  0.3832  0.1146
  441MOL0     H60806   4.549   1.089   4.379 -0.0876 -0.2619 -0.6051
  441MOL0     H60807   4.460   0.872   4.326  2.8362  2.3441  0.0631
  441MOL0     H60808   4.190   0.778   4.063  1.3767 -4.8342 -1.2718
  441MOL0     H60809   4.225   0.704   4.220 -0.2100 -0.9172  0.1418
  441MOL0     H60810   4.455   0.747   4.030 -2.5221  1.1373 -1.8005
  441MOL0     H60811   4.442   0.655   4.186 -2.3747  2.6781  2.6082
  441MOL0     H60812   4.319   0.488   4.106 -0.4315 -2.8767 -1.5281
  441MOL0     H60813   4.261   0.582   3.967 -1.8351 -0.1598  2.4784
  441MOL0     H60814   4.435   0.380   3.950  0.5936  0.7374  1.4326
  441MOL0     H60815   4.453   0.518   3.836 -1.4525  2.5555  0.1630
  441MOL0     H60816   4.790   0.618   4.115  2.9483  4.7899  1.3744
  441MOL0     H60817   5.074   0.752   4.013  0.2233 -0.7105  0.8410
  441MOL0     H60818   4.941   0.749   4.139  1.8092  0.3834  0.2838
  441MOL0     H60819   4.963   0.889   4.026 -0.6121 -0.6405 -3.0796
  441MOL0     H60820   5.025   0.812   3.363 -0.3137  0.0621  0.9179
  441MOL0     H60821   5.147   0.949   3.226  0.2453 -2.7283  1.6223
  441MOL0     H60822   5.335   1.072   3.151 -0.8792 -0.1496  0.8397
  441MOL0     H60823   5.180   1.138   3.096  2.3576 -1.9265 -2.8343
  441MOL0     H60824   5.343   1.196   2.947  0.2762 -0.5512 -0.4861
  441MOL0     H60825   5.299   1.347   3.036 -0.0351 -0.0940  2.1275
  441MOL0     H60826   5.554   1.299   2.997  0.4296 -0.4395 -0.1369
  441MOL0     H60827   5.538   1.165   3.113 -2.6308 -1.6110 -0.6089
  441MOL0     H60828   5.470   1.311   3.289  0.7982  0.4528  0.8874
  441MOL0     H60829   5.455   1.451   3.181  0.3245 -0.2369 -0.8408
  441MOL0     H60830   5.717   1.308   3.272  0.3091 -0.5184 -0.3007
  441MOL0     H60831   5.699   1.438   3.145 -0.2546 -0.6090  0.5045
  441MOL0     H60832   5.620   1.446   3.435 -2.4409  1.2822 -1.4882
  441MOL0     H60833   5.617   1.591   3.326  2.7090  1.0953 -2.7450
  441MOL0     H60834   5.849   1.557   3.302  0.2026 -2.6368  0.0010
  441MOL0     H60835   5.851   1.429   3.429 -0.0664  0.3643  0.7321
  441MOL0     H60836   5.756   1.590   3.587 -2.7162  3.8658 -0.5805
  441MOL0     H60837   5.773   1.724   3.472 -0.1265 -0.4976 -1.8314
  441MOL0     H60838   5.155   1.266   3.526  0.0223 -0.2804 -0.5374
  441MOL0     H60839   5.010   1.112   3.677 -0.1376  2.7019 -1.1582
  441MOL0     H60840   4.775   0.701   3.632 -0.2888 -1.9672 -0.1329
  441MOL0     H60841   4.600   0.578   3.727  0.2365  0.6765  0.7102
  441MOL0     H60842   3.562   1.469   4.897  1.8473 -0.9055 -0.5267
  441MOL0     H60843   3.330   1.418   4.977  0.4421  0.0423 -0.7363
  441MOL0     H60844   3.042   1.191   5.185 -1.2131  0.5409  1.4237
  441MOL0     H60845   2.854   1.113   5.282  2.7994 -1.2165  2.5958
  441MOL0     H60846   2.679   0.811   5.436  0.0582  0.6231  0.0392
  441MOL0     H60847   2.744   0.967   5.416 -2.9825  1.6310  1.2166
  441MOL0     H60848   2.571   1.015   5.240  1.0845 -0.4290  0.6746
  441MOL0     H60849   2.546   1.034   5.416 -0.9827  0.4771 -0.7542
  441MOL0     H60850   2.407   0.855   5.230  0.0782  3.3581 -0.7320
  441MOL0     H60851   2.449   0.793   5.392  1.1125 -0.8076 -1.6051
  441MOL0     H60852   2.269   1.039   5.338 -1.7898 -0.7321  0.4854
  441MOL0     H60853   2.303   0.950   5.491 -0.0195 -1.0373 -0.0616
  441MOL0     H60854   2.016   0.702   5.305 -1.1498  1.2887  1.7265
  441MOL0     H60855   2.890   0.750   5.051 -1.6297  1.0448 -0.1640
  441MOL0     H60856   3.033   0.716   4.893  1.3563  0.2891  0.5237
  441MOL0     H60857   3.067   0.861   4.817  0.1315 -0.4719  0.0980
  441MOL0     H60858   3.186   0.792   4.934 -0.2546 -2.6354  0.0472
  442MOL0     O60859  11.194   7.462   4.761 -0.6063  0.3453  0.2958
  442MOL0     C60860  11.216   7.430   4.646 -0.9532  0.3394 -0.2036
  442MOL0     O60861  11.331   7.468   4.585  0.1014  0.1766 -0.6350
  442MOL0     C60862  11.443   7.508   4.654  0.0013 -0.5754 -1.1902
  442MOL0     C60863  11.513   7.432   4.748 -0.3634 -0.1961 -0.7457
  442MOL0     C60864  11.623   7.494   4.824  0.3897  0.7444  0.9062
  442MOL0     C60865  11.662   7.626   4.801 -0.7381 -0.0843 -0.6064
  442MOL0     O60866  11.765   7.692   4.860  0.1320 -0.8361  0.3971
  442MOL0     C60867  11.862   7.614   4.929  0.2079 -0.6910  0.5494
  442MOL0     C60868  11.986   7.700   4.958  0.2508  0.3802 -0.2792
  442MOL0     C60869  12.055   7.739   4.831 -0.5151  0.5463 -0.5131
  442MOL0     C60870  12.193   7.789   4.865 -0.4666  0.4442  0.0694
  442MOL0     C60871  12.274   7.803   4.730  0.1529  0.3539 -0.7219
  442MOL0     C60872  12.398   7.893   4.738 -0.2219  0.0857 -0.1967
  442MOL0     C60873  12.525   7.826   4.801  0.5029  0.2590  0.7216
  442MOL0     C60874  12.560   7.698   4.725 -0.7059  0.2221 -1.0646
  442MOL0     N60875  12.588   7.722   4.585  0.1973 -0.3601  0.0325
  442MOL0     C60876  12.691   7.797   4.529  1.0673 -0.5572  0.8614
  442MOL0     C60877  12.692   7.770   4.395  0.2576  0.2511  0.2809
  442MOL0     C60878  12.797   7.817   4.297  0.4617  0.3930 -0.1783
  442MOL0     C60879  12.799   7.974   4.300 -0.6454 -0.1534 -0.5870
  442MOL0     C60880  12.905   8.029   4.207  0.3680 -0.7807  0.4060
  442MOL0     C60881  13.045   7.971   4.233  0.7328 -0.5131 -0.3118
  442MOL0     O60882  13.081   7.999   4.364  0.3476 -0.0645 -0.6537
  442MOL0     C60883  13.214   7.978   4.401  0.0261  0.4702 -0.2922
  442MOL0     C60884  13.252   7.966   4.532 -0.0573 -0.0521  0.9286
  442MOL0     C60885  13.389   7.944   4.572 -0.0814 -0.2282  0.7962
  442MOL0     C60886  13.408   7.934   4.721  0.2618 -0.3612  0.1244
  442MOL0     C60887  13.492   7.936   4.478 -0.4837  1.3401 -0.3998
  442MOL0     C60888  13.634   7.921   4.508  0.1715  0.6548 -0.0858
  442MOL0     O60889  13.665   7.883   4.626 -0.0957 -0.8619 -0.5306
  442MOL0     C60890  13.802   7.858   4.653  1.1109  0.7662  0.6935
  442MOL0     C60891  13.861   7.947   4.735  0.5340 -0.4008 -0.5666
  442MOL0     C60892  13.999   7.928   4.766  0.7516 -0.5245 -0.1757
  442MOL0     C60893  14.076   7.823   4.713  0.4600 -0.0164 -0.5339
  442MOL0     O60894  14.202   7.788   4.752 -0.3647  0.5197 -0.1065
  442MOL0     C60895  14.265   7.880   4.851 -0.7812  0.0376  0.6016
  442MOL0     C60896  14.402   7.822   4.906  0.7127 -0.4898  0.5962
  442MOL0     C60897  14.511   7.835   4.798  0.0685  0.1582  0.3005
  442MOL0     C60898  14.646   7.830   4.864  0.8431 -0.4982 -0.1633
  442MOL0     C60899  14.764   7.843   4.773 -0.5371  0.4471 -0.2858
  442MOL0     C60900  14.766   7.956   4.665  0.4958 -0.4862 -0.4260
  442MOL0     C60901  14.783   8.092   4.717 -0.3990 -0.6764 -0.1314
  442MOL0     C60902  14.924   8.152   4.724 -0.7861  0.1517 -0.0526
  442MOL0    Cl60903  14.921   8.327   4.704  0.1627 -0.2066  0.2209
  442MOL0     C60904  14.013   7.750   4.618 -0.1878  0.0159 -0.4008
  442MOL0     C60905  13.879   7.763   4.585  0.8251 -0.3395  0.1807
  442MOL0     O60906  13.718   7.939   4.428  0.0360  0.6088  0.8258
  442MOL0     C60907  13.450   7.943   4.343 -0.3694 -0.5081  1.0453
  442MOL0     C60908  13.320   7.970   4.308 -0.7526  0.2431 -0.2106
  442MOL0     N60909  12.578   7.703   4.366 -0.1733  0.0929 -0.0956
  442MOL0     N60910  12.517   7.672   4.481 -0.2752 -1.0511 -0.6943
  442MOL0     C60911  11.598   7.701   4.698  0.0365 -0.8584 -0.2609
  442MOL0     C60912  11.486   7.641   4.633  0.9466 -0.1653 -0.4493
  442MOL0     C60913  11.109   7.368   4.576 -0.1918 -0.0164 -0.3384
  442MOL0     C60914  10.987   7.340   4.644 -0.2438  0.7156 -0.1719
  442MOL0     C60915  10.881   7.275   4.579 -0.1406  0.0626 -0.4161
  442MOL0     C60916  10.892   7.244   4.446  0.0643  0.1363  0.8347
  442MOL0     O60917  10.780   7.192   4.393 -0.1001  0.1969  0.1309
  442MOL0     C60918  10.779   7.072   4.314  0.0401 -1.0138 -0.5099
  442MOL0     C60919  10.647   7.059   4.245 -0.4765 -0.5200 -0.9605
  442MOL0     C60920  10.653   6.933   4.157  0.3916  0.5760  0.2378
  442MOL0     C60921  10.509   6.890   4.110  0.3112 -0.9104  0.5889
  442MOL0     C60922  10.429   6.802   4.197 -0.4322 -0.5916  0.4672
  442MOL0     C60923  10.353   6.740   4.273  0.4102  1.1454 -0.5076
  442MOL0     C60924  11.012   7.273   4.380 -0.3831 -0.3704 -0.1163
  442MOL0     C60925  11.122   7.326   4.439 -1.0389 -0.5351  0.1615
  442MOL0     C60926  11.243   7.347   4.360 -0.6950 -0.1123  0.3209
  442MOL0     H60927  11.485   7.331   4.776  0.3697  0.5006  3.2147
  442MOL0     H60928  11.669   7.430   4.897  1.7605  0.9419  0.2554
  442MOL0     H60929  11.894   7.525   4.873  0.7260 -1.2370  1.6737
  442MOL0     H60930  11.813   7.580   5.020 -1.1816  0.9217  0.4423
  442MOL0     H60931  11.965   7.789   5.018  1.1894  1.1576 -1.0595
  442MOL0     H60932  12.049   7.634   5.019  0.2646  2.1386  1.7171
  442MOL0     H60933  12.049   7.655   4.762 -0.9490 -0.0853  0.2705
  442MOL0     H60934  12.007   7.822   4.779 -3.9183  0.0331  1.5176
  442MOL0     H60935  12.193   7.886   4.916  2.7221 -0.7862  2.7254
  442MOL0     H60936  12.243   7.715   4.928 -1.9217  1.3774  2.4589
  442MOL0     H60937  12.210   7.849   4.656 -0.4038 -2.6881 -2.3144
  442MOL0     H60938  12.297   7.702   4.694  0.6229 -0.1114  0.7802
  442MOL0     H60939  12.424   7.922   4.635 -1.0822 -0.4426 -0.5708
  442MOL0     H60940  12.371   7.987   4.786 -0.0987  0.2744 -0.4938
  442MOL0     H60941  12.507   7.809   4.907  3.8747  0.6993  1.5027
  442MOL0     H60942  12.610   7.893   4.783  1.9593 -1.6145  0.1966
  442MOL0     H60943  12.650   7.656   4.771 -1.6491  0.8395  1.5007
  442MOL0     H60944  12.487   7.617   4.724  2.8627 -3.3152 -1.4412
  442MOL0     H60945  12.771   7.841   4.588  2.6890 -0.0053 -1.6052
  442MOL0     H60946  12.771   7.781   4.198 -0.0235 -5.4536  1.6959
  442MOL0     H60947  12.889   7.778   4.343  0.5160  0.6602 -0.0589
  442MOL0     H60948  12.703   8.013   4.262 -0.8586 -0.1771 -0.0838
  442MOL0     H60949  12.809   8.013   4.402 -2.2513  0.9069 -0.7808
  442MOL0     H60950  12.871   8.016   4.104 -1.0170  0.6366  0.6432
  442MOL0     H60951  12.914   8.137   4.222 -0.0649 -0.6735 -0.0667
  442MOL0     H60952  13.046   7.867   4.198  2.9519 -0.5999 -0.1252
  442MOL0     H60953  13.107   8.026   4.161  0.3036 -1.6522 -1.6028
  442MOL0     H60954  13.166   7.967   4.599  0.7104 -1.5540  2.0127
  442MOL0     H60955  13.310   7.934   4.769 -0.2622  1.4863 -0.8528
  442MOL0     H60956  13.467   8.023   4.747 -1.9607  1.9290 -2.1347
  442MOL0     H60957  13.463   7.842   4.745  0.9472  0.4532  1.8943
  442MOL0     H60958  13.805   8.031   4.775  2.5232  0.4245  0.6347
  442MOL0     H60959  14.033   8.006   4.833 -0.3834 -1.0706  1.0890
  442MOL0     H60960  14.283   7.977   4.803  0.8909 -2.0228 -3.3823
  442MOL0     H60961  14.203   7.894   4.940 -0.4815  0.6811  0.7159
  442MOL0     H60962  14.419   7.870   5.002  0.3770 -2.2489  1.5743
  442MOL0     H60963  14.384   7.719   4.938  3.6972 -0.6902  1.9031
  442MOL0     H60964  14.504   7.932   4.747 -1.1754 -0.7113 -1.2733
  442MOL0     H60965  14.505   7.750   4.729 -0.6252  1.2972 -1.0863
  442MOL0     H60966  14.662   7.739   4.921  1.1856 -0.4137 -0.1267
  442MOL0     H60967  14.640   7.914   4.934 -1.6267  0.3026 -1.2063
  442MOL0     H60968  14.851   7.856   4.838 -0.4422 -3.9681  0.7863
  442MOL0     H60969  14.769   7.747   4.722 -1.3007  1.4647 -2.4156
  442MOL0     H60970  14.668   7.960   4.616  0.9868  2.0736 -1.3286
  442MOL0     H60971  14.841   7.938   4.587 -3.9767  0.0575 -5.4394
  442MOL0     H60972  14.729   8.101   4.812 -0.0728 -0.4401  0.0378
  442MOL0     H60973  14.739   8.154   4.639  0.0783 -0.7430 -0.4558
  442MOL0     H60974  14.980   8.103   4.643 -0.3276 -2.7586  1.8673
  442MOL0     H60975  14.971   8.132   4.821 -1.0396 -0.2400 -0.0124
  442MOL0     H60976  14.071   7.666   4.581  1.7238  1.1657 -0.2085
  442MOL0     H60977  13.830   7.713   4.502 -1.0828  0.7332  0.5857
  442MOL0     H60978  13.522   7.931   4.263 -1.5509  1.6819 -0.4396
  442MOL0     H60979  13.304   7.978   4.201 -0.7449 -0.5673 -0.2756
  442MOL0     H60980  11.626   7.804   4.680  0.7088 -0.7238  1.3217
  442MOL0     H60981  11.436   7.700   4.557  1.9938  2.4662  0.7531
  442MOL0     H60982  10.972   7.356   4.750  0.0317  0.9826 -0.1728
  442MOL0     H60983  10.794   7.234   4.630  1.2050 -1.5220  0.7485
  442MOL0     H60984  10.860   7.083   4.242 -0.1066  1.5591 -0.3614
  442MOL0     H60985  10.804   6.988   4.380  0.3599 -0.2108  0.4013
  442MOL0     H60986  10.623   7.145   4.182 -1.3916 -1.5163 -2.0321
  442MOL0     H60987  10.561   7.046   4.311 -0.7236 -1.9085 -1.5137
  442MOL0     H60988  10.710   6.964   4.069  1.7512  1.5093  1.4073
  442MOL0     H60989  10.700   6.845   4.202 -0.2093  0.1711  0.0821
  442MOL0     H60990  10.524   6.835   4.017  1.0260 -0.5141  0.4672
  442MOL0     H60991  10.451   6.978   4.082  1.6667 -0.1394  0.1201
  442MOL0     H60992  10.286   6.690   4.339 -1.4136 -0.4329 -3.3401
  442MOL0     H60993  11.019   7.252   4.274  4.5200 -2.7807  0.4054
  442MOL0     H60994  11.256   7.455   4.349  0.7289 -0.2884  0.0609
  442MOL0     H60995  11.336   7.308   4.402  0.2761  1.5050 -0.2143
  442MOL0     H60996  11.239   7.313   4.257 -2.1533  0.1523  0.2694
  443MOL0     O60997   5.591   0.643  10.117  0.5878 -0.3030 -0.9928
  443MOL0     C60998   5.493   0.717  10.124 -0.2172 -0.5644  0.2880
  443MOL0     O60999   5.380   0.709  10.047 -0.6163  0.0694 -0.2591
  443MOL0     C61000   5.393   0.613   9.955  0.2539 -0.2371  0.6657
  443MOL0     C61001   5.377   0.483   9.994 -0.7003  1.1431 -0.0889
  443MOL0     C61002   5.393   0.377   9.906  0.2086  0.1829 -0.6923
  443MOL0     C61003   5.426   0.405   9.766  1.0403 -0.1599  0.4661
  443MOL0     O61004   5.437   0.315   9.662 -0.0326 -0.1118 -0.4014
  443MOL0     C61005   5.394   0.182   9.696  0.4771 -0.6539  0.0433
  443MOL0     C61006   5.400   0.090   9.585 -0.7665 -0.2009  0.3585
  443MOL0     C61007   5.546   0.036   9.553 -0.8165 -0.2093  0.3503
  443MOL0     C61008   5.551  -0.059   9.427 -0.3595 -0.2382 -0.3102
  443MOL0     C61009   5.695  -0.087   9.381 -0.1281  0.0096  0.5590
  443MOL0     C61010   5.772  -0.151   9.493  0.2034 -0.2390  0.2238
  443MOL0     C61011   5.913  -0.180   9.435  1.3393 -1.0955 -0.3456
  443MOL0     C61012   6.012  -0.069   9.434 -0.2848  0.1720  0.1438
  443MOL0     N61013   6.146  -0.121   9.418  0.9807 -0.2251  0.3280
  443MOL0     C61014   6.183  -0.197   9.310  0.2153  0.6224  0.6478
  443MOL0     C61015   6.319  -0.194   9.310 -0.4893  0.0048  0.0755
  443MOL0     C61016   6.409  -0.266   9.213  0.3001 -0.4405 -0.5734
  443MOL0     C61017   6.363  -0.259   9.073  0.6202  0.0725  1.0721
  443MOL0     C61018   6.367  -0.112   9.017 -0.1635 -0.6612  0.3091
  443MOL0     C61019   6.508  -0.064   9.004 -0.4251  0.9500  0.5386
  443MOL0     O61020   6.501   0.076   8.980 -0.2517 -0.0680  0.0311
  443MOL0     C61021   6.627   0.142   8.979  0.5302  0.3565  0.6069
  443MOL0     C61022   6.760   0.075   8.991  0.8171  0.3742  0.0286
  443MOL0     C61023   6.882   0.145   8.970  0.7276  0.2770 -0.7291
  443MOL0     C61024   7.012   0.063   8.986 -0.0116  0.3862 -0.3748
  443MOL0     C61025   6.881   0.286   8.942  0.6086 -0.1490 -0.9534
  443MOL0     C61026   7.002   0.372   8.917  0.2241 -0.1933  0.6467
  443MOL0     O61027   6.999   0.506   8.943  0.0323  0.0563 -0.3279
  443MOL0     C61028   7.123   0.568   8.945  0.2217 -1.5380  0.4981
  443MOL0     C61029   7.178   0.629   8.835 -0.4670  0.3806  1.3045
  443MOL0     C61030   7.290   0.707   8.834  0.4851 -0.0727  1.0775
  443MOL0     C61031   7.350   0.734   8.958 -0.1173  0.0512 -0.6177
  443MOL0     O61032   7.446   0.834   8.961 -0.4041 -0.7082  0.3326
  443MOL0     C61033   7.530   0.845   9.082  0.1158 -0.3506 -0.0094
  443MOL0     C61034   7.620   0.964   9.061 -0.6827  0.0780  0.1452
  443MOL0     C61035   7.717   0.973   9.174 -0.2358  0.2995  0.1220
  443MOL0     C61036   7.831   0.872   9.158  0.2976  0.3619  0.4282
  443MOL0     C61037   7.938   0.889   9.271  0.0432 -0.0563 -0.1715
  443MOL0     C61038   8.050   0.991   9.238 -0.4434 -0.3463  0.6145
  443MOL0     C61039   8.169   0.989   9.334  0.3809  0.3195  0.1830
  443MOL0     C61040   8.246   0.857   9.356 -0.3777  0.3558  0.4234
  443MOL0    Cl61041   8.387   0.905   9.459 -0.3385 -0.1310  0.1155
  443MOL0     C61042   7.299   0.672   9.079 -0.8380  0.3070 -0.0431
  443MOL0     C61043   7.186   0.589   9.063 -0.2469 -0.8459 -0.5595
  443MOL0     O61044   7.067   0.322   8.826 -0.2011  0.1054  0.2143
  443MOL0     C61045   6.755   0.348   8.959  0.0354  0.1604  0.0513
  443MOL0     C61046   6.629   0.283   8.973 -0.1007  0.5212  0.3618
  443MOL0     N61047   6.357  -0.114   9.426  0.7297 -0.3546  0.7164
  443MOL0     N61048   6.249  -0.070   9.477 -0.3556  0.1154 -0.9874
  443MOL0     C61049   5.442   0.542   9.723 -0.2146 -0.3447 -0.2789
  443MOL0     C61050   5.421   0.645   9.829 -1.5428 -0.3256  0.2207
  443MOL0     C61051   5.492   0.815  10.241  0.2067 -0.2897  0.1437
  443MOL0     C61052   5.380   0.897  10.241  0.1416  0.8963 -0.6254
  443MOL0     C61053   5.365   0.981  10.349 -0.3363 -0.2309 -0.3555
  443MOL0     C61054   5.452   0.979  10.464  0.3881  0.3925  0.6394
  443MOL0     O61055   5.436   1.058  10.571 -0.3940 -0.0351  0.2513
  443MOL0     C61056   5.302   1.063  10.628  0.1397 -0.2100  0.3638
  443MOL0     C61057   5.321   1.104  10.771  0.5411 -1.7628  0.0724
  443MOL0     C61058   5.189   1.146  10.843 -0.3059  0.4113  0.0980
  443MOL0     C61059   5.202   1.132  10.995 -0.3713 -0.2540  0.3881
  443MOL0     C61060   5.077   1.156  11.066  0.0142  0.5881 -0.0529
  443MOL0     C61061   4.984   1.142  11.135  0.6708  0.9281  0.5152
  443MOL0     C61062   5.570   0.907  10.452 -0.8593  0.2106  0.1333
  443MOL0     C61063   5.595   0.821  10.343  0.3551 -0.0647  0.9888
  443MOL0     C61064   5.722   0.738  10.356  0.0444  0.3262  0.4419
  443MOL0     H61065   5.361   0.459  10.099 -0.3294 -1.6667 -0.6025
  443MOL0     H61066   5.378   0.276   9.942  1.0630 -0.7458 -2.7624
  443MOL0     H61067   5.289   0.187   9.726  0.5311 -1.2860  0.3599
  443MOL0     H61068   5.457   0.142   9.776 -1.6422  1.2339  2.8454
  443MOL0     H61069   5.331   0.006   9.596 -1.8960  0.4498 -1.3666
  443MOL0     H61070   5.367   0.145   9.497  2.0574  1.5314  0.2846
  443MOL0     H61071   5.617   0.118   9.543 -0.0895 -0.4994  2.5799
  443MOL0     H61072   5.586  -0.020   9.638  2.4139  1.4766  0.0703
  443MOL0     H61073   5.511  -0.154   9.466  2.7829 -1.9625 -0.9524
  443MOL0     H61074   5.500  -0.023   9.338  1.6970  0.2274 -1.3731
  443MOL0     H61075   5.753   0.003   9.357 -0.2200  0.3003  1.4026
  443MOL0     H61076   5.703  -0.143   9.287  1.1416 -0.0558  0.7020
  443MOL0     H61077   5.770  -0.091   9.584  1.3290 -0.5843  0.4926
  443MOL0     H61078   5.726  -0.247   9.514 -1.3348  0.6614  1.1442
  443MOL0     H61079   5.893  -0.225   9.337 -0.8307 -1.6111  0.2758
  443MOL0     H61080   5.937  -0.266   9.499  1.5997 -2.3129 -1.9967
  443MOL0     H61081   5.987  -0.007   9.348 -1.9296 -0.1174  0.3983
  443MOL0     H61082   6.019  -0.012   9.527  0.3104  1.0374 -0.4104
  443MOL0     H61083   6.120  -0.245   9.236  1.8017  1.0911 -1.0793
  443MOL0     H61084   6.402  -0.372   9.241 -0.8565 -0.9169 -2.4858
  443MOL0     H61085   6.513  -0.238   9.228  0.2656 -0.7958  0.3706
  443MOL0     H61086   6.408  -0.331   9.005  0.1002  0.2807  0.4967
  443MOL0     H61087   6.260  -0.296   9.079  1.1055 -1.1568  2.4134
  443MOL0     H61088   6.325  -0.121   8.917  1.1530 -2.6473 -0.1125
  443MOL0     H61089   6.314  -0.040   9.081  0.2779  1.0688 -1.1806
  443MOL0     H61090   6.563  -0.084   9.096 -1.5145  0.3789  1.0816
  443MOL0     H61091   6.560  -0.111   8.920  0.1895  0.5664  1.1208
  443MOL0     H61092   6.765  -0.033   9.000  0.6808  0.5034  2.1443
  443MOL0     H61093   7.079   0.106   9.061 -2.2278 -0.3537  2.2009
  443MOL0     H61094   7.063   0.063   8.890 -0.6969 -1.1701 -0.7761
  443MOL0     H61095   6.984  -0.040   9.010  0.6865  0.4826  0.9952
  443MOL0     H61096   7.123   0.613   8.743 -1.9246  1.5593  1.9398
  443MOL0     H61097   7.331   0.751   8.744  1.0956 -1.5949  0.5797
  443MOL0     H61098   7.463   0.863   9.167 -1.3198  0.1049 -1.2014
  443MOL0     H61099   7.582   0.749   9.094  0.3046 -0.3640 -0.9016
  443MOL0     H61100   7.670   0.951   8.965  0.3333 -0.2225  0.6938
  443MOL0     H61101   7.557   1.053   9.051 -1.2404 -0.4535 -1.3322
  443MOL0     H61102   7.668   0.969   9.271  2.7953  0.0861  1.7658
  443MOL0     H61103   7.766   1.071   9.177  4.0809 -1.6450  1.3787
  443MOL0     H61104   7.867   0.880   9.055 -3.5241  2.9140 -0.9418
  443MOL0     H61105   7.784   0.776   9.177  3.6197 -1.0954  2.0952
  443MOL0     H61106   7.884   0.927   9.358 -1.3082  2.0396 -1.8054
  443MOL0     H61107   7.993   0.797   9.290  1.5497  0.7288 -0.5871
  443MOL0     H61108   8.000   1.088   9.237  1.3956  0.6515  0.2937
  443MOL0     H61109   8.095   0.964   9.141 -1.9345 -0.1568 -0.1656
  443MOL0     H61110   8.134   1.024   9.432 -0.6894  1.3251 -0.5404
  443MOL0     H61111   8.236   1.065   9.293  2.1932 -0.4530  1.5660
  443MOL0     H61112   8.278   0.823   9.257 -0.0237 -1.0573  0.9958
  443MOL0     H61113   8.191   0.775   9.404  0.4744 -2.0880 -2.4477
  443MOL0     H61114   7.328   0.696   9.180 -2.3324 -2.0990  1.0509
  443MOL0     H61115   7.134   0.550   9.150 -0.7913 -0.4198 -0.6839
  443MOL0     H61116   6.746   0.456   8.965  1.3559  0.2889  0.0461
  443MOL0     H61117   6.534   0.334   8.973 -2.0666 -2.8428 -0.9307
  443MOL0     H61118   5.471   0.556   9.619 -2.3820 -1.0862 -1.0605
  443MOL0     H61119   5.438   0.745   9.789 -1.8815 -1.4530 -3.0624
  443MOL0     H61120   5.311   0.905  10.157 -0.4157  2.0286 -0.0703
  443MOL0     H61121   5.284   1.053  10.352 -1.1021 -1.0965  1.6105
  443MOL0     H61122   5.237   1.130  10.571 -0.1517  1.1380  2.1529
  443MOL0     H61123   5.251   0.966  10.625  1.6167 -1.0244  0.5671
  443MOL0     H61124   5.386   1.193  10.768  1.2386 -2.3038 -1.6206
  443MOL0     H61125   5.363   1.019  10.825  0.3217 -2.9745 -1.6158
  443MOL0     H61126   5.166   1.246  10.807  0.5453 -0.0423 -1.8343
  443MOL0     H61127   5.112   1.081  10.801  0.9669 -0.6825 -0.6253
  443MOL0     H61128   5.283   1.199  11.026 -0.0463 -0.1819 -0.6127
  443MOL0     H61129   5.233   1.030  11.018 -1.8171 -0.6544  0.6693
  443MOL0     H61130   4.891   1.136  11.189 -0.6401  1.0247 -1.5811
  443MOL0     H61131   5.642   0.915  10.533  1.2819 -1.5937 -1.4718
  443MOL0     H61132   5.704   0.631  10.372  2.2551 -0.0009  1.0900
  443MOL0     H61133   5.776   0.743  10.262 -0.6237 -0.2273  0.0234
  443MOL0     H61134   5.782   0.772  10.441 -0.0390  3.0292 -0.4851
  444MOL0     O61135   5.168   8.144   7.627  0.1598  0.0745  0.2092
  444MOL0     C61136   5.061   8.087   7.616  0.1610 -0.0063  0.4584
  444MOL0     O61137   5.030   7.995   7.524 -0.0104  0.0269  0.2985
  444MOL0     C61138   5.126   7.943   7.446  0.5800  0.7015 -0.1392
  444MOL0     C61139   5.104   7.927   7.311 -0.0262  0.3577  0.1835
  444MOL0     C61140   5.204   7.878   7.222  0.3676 -1.1833 -0.3539
  444MOL0     C61141   5.330   7.840   7.265  0.0347  0.0806  0.9254
  444MOL0     O61142   5.423   7.789   7.168  0.1897  0.1929 -0.7397
  444MOL0     C61143   5.550   7.746   7.213 -0.5062  0.2615 -0.1752
  444MOL0     C61144   5.645   7.740   7.089  0.2698 -0.4964 -0.8323
  444MOL0     C61145   5.795   7.736   7.141  0.2489  0.3796 -0.0311
  444MOL0     C61146   5.887   7.736   7.017  0.1757 -0.0767  0.0514
  444MOL0     C61147   6.022   7.670   7.045 -0.6228 -0.6557 -0.1215
  444MOL0     C61148   6.115   7.716   6.931 -0.0530 -0.9126 -0.3311
  444MOL0     C61149   6.244   7.635   6.931  0.4579  0.1557 -0.1976
  444MOL0     C61150   6.338   7.685   7.041 -0.6562  0.5075  0.4933
  444MOL0     N61151   6.473   7.628   7.035 -0.1305  0.0923 -0.2059
  444MOL0     C61152   6.505   7.510   7.092 -0.8654 -0.5292 -0.2099
  444MOL0     C61153   6.632   7.482   7.055  0.5451  0.0775  0.2770
  444MOL0     C61154   6.720   7.367   7.093  0.7163 -0.2598  0.0929
  444MOL0     C61155   6.838   7.405   7.180 -0.0865  0.3190 -0.0977
  444MOL0     C61156   6.966   7.468   7.117 -0.2409  0.1582  0.0832
  444MOL0     C61157   7.080   7.488   7.219 -0.1563 -0.3022  0.5069
  444MOL0     O61158   7.113   7.369   7.291 -0.5973  0.4180 -0.0739
  444MOL0     C61159   7.241   7.366   7.348  0.4347  0.9255 -0.5564
  444MOL0     C61160   7.287   7.239   7.388  0.7719 -0.0354  0.2519
  444MOL0     C61161   7.411   7.230   7.445  0.2281  0.4807  0.6400
  444MOL0     C61162   7.446   7.085   7.493 -0.6613  0.5218 -0.1639
  444MOL0     C61163   7.491   7.342   7.464 -0.6779 -0.8887 -0.4596
  444MOL0     C61164   7.621   7.340   7.516 -0.3688  0.1081  0.1900
  444MOL0     O61165   7.712   7.416   7.457 -0.8170 -0.2729  0.1354
  444MOL0     C61166   7.832   7.436   7.523 -0.2554 -1.0057  0.2990
  444MOL0     C61167   7.863   7.569   7.571  0.3349  0.0068 -0.1381
  444MOL0     C61168   7.987   7.598   7.619 -0.1519  0.5477  0.0549
  444MOL0     C61169   8.083   7.494   7.651  0.2475 -0.3903  0.9171
  444MOL0     O61170   8.210   7.510   7.702 -0.5098  0.1875 -0.2661
  444MOL0     C61171   8.234   7.635   7.760  0.0178  0.4623  0.6784
  444MOL0     C61172   8.186   7.636   7.903  0.2116 -0.1643  0.1337
  444MOL0     C61173   8.236   7.760   7.978 -0.1048 -0.4511  0.4003
  444MOL0     C61174   8.389   7.749   8.017  0.4331  0.5550  0.0652
  444MOL0     C61175   8.448   7.883   8.063 -0.6947 -0.2550  0.1280
  444MOL0     C61176   8.409   7.924   8.202  0.6070 -0.0813  0.5256
  444MOL0     C61177   8.444   8.070   8.238  0.8633  0.1853  0.2440
  444MOL0     C61178   8.322   8.143   8.304 -0.3298 -0.4705  0.0049
  444MOL0    Cl61179   8.190   8.173   8.191 -0.2468  0.4417  0.1249
  444MOL0     C61180   8.046   7.362   7.615 -0.0204 -0.3969  0.0896
  444MOL0     C61181   7.924   7.337   7.547  0.5914  0.2674 -0.1291
  444MOL0     O61182   7.624   7.306   7.631 -0.0115 -0.1499 -0.0929
  444MOL0     C61183   7.447   7.474   7.436  0.8906 -0.9541 -0.9106
  444MOL0     C61184   7.318   7.482   7.375  0.2954 -0.3183  0.5243
  444MOL0     N61185   6.675   7.599   6.992  0.3013  0.3656  0.1898
  444MOL0     N61186   6.583   7.678   6.967 -0.0714  0.7592  0.0986
  444MOL0     C61187   5.348   7.847   7.401 -0.2274  1.1509  0.5261
  444MOL0     C61188   5.255   7.900   7.491 -0.2322  0.3178 -0.0739
  444MOL0     C61189   4.942   8.124   7.702  0.6986 -0.2019  0.9898
  444MOL0     C61190   4.812   8.138   7.648  0.5625  0.4484 -0.8331
  444MOL0     C61191   4.708   8.194   7.723 -0.2321 -0.6763  0.6030
  444MOL0     C61192   4.719   8.231   7.854  0.2042 -0.3964  0.2624
  444MOL0     O61193   4.603   8.276   7.916  0.0734 -0.8051  0.0194
  444MOL0     C61194   4.616   8.338   8.052 -0.2277 -0.5461  0.3209
  444MOL0     C61195   4.486   8.418   8.067  0.4043 -0.0082  0.2093
  444MOL0     C61196   4.499   8.522   8.178  0.2173  0.7364  0.2443
  444MOL0     C61197   4.390   8.635   8.173 -0.2832  0.4369  0.1606
  444MOL0     C61198   4.260   8.589   8.208 -0.3773 -0.0050 -0.0151
  444MOL0     C61199   4.153   8.563   8.261  0.2600 -0.3040  0.2516
  444MOL0     C61200   4.845   8.217   7.919 -1.1613  1.3162  0.0835
  444MOL0     C61201   4.950   8.161   7.844 -0.2142 -0.7292  0.2475
  444MOL0     C61202   5.079   8.143   7.915  0.5825  0.2039  0.7272
  444MOL0     H61203   5.012   7.966   7.269 -0.0410  1.0103  0.7924
  444MOL0     H61204   5.186   7.875   7.115 -0.8988 -1.8660 -0.1426
  444MOL0     H61205   5.540   7.645   7.254 -1.6872  0.5109  0.1826
  444MOL0     H61206   5.585   7.815   7.290 -2.2165  0.1248  0.7871
  444MOL0     H61207   5.626   7.653   7.026  2.2630 -0.2484 -1.8681
  444MOL0     H61208   5.629   7.825   7.022  0.7592 -1.2044 -1.8823
  444MOL0     H61209   5.817   7.823   7.204  2.3142  0.7936 -1.2223
  444MOL0     H61210   5.797   7.646   7.204  3.0374 -0.3690 -1.0260
  444MOL0     H61211   5.834   7.689   6.933 -1.7965  3.0022 -0.5727
  444MOL0     H61212   5.906   7.842   6.997 -1.0064  0.1420 -0.0022
  444MOL0     H61213   6.007   7.562   7.043 -1.1100 -0.7254  2.8865
  444MOL0     H61214   6.062   7.690   7.145  2.0364 -2.9947 -0.5855
  444MOL0     H61215   6.065   7.710   6.833 -1.1151  1.7580 -0.0398
  444MOL0     H61216   6.147   7.819   6.946 -1.1914 -0.7958  1.6397
  444MOL0     H61217   6.295   7.638   6.834 -0.1998 -0.2627 -0.5577
  444MOL0     H61218   6.215   7.533   6.957  2.9366 -0.4049  0.6700
  444MOL0     H61219   6.350   7.793   7.036 -0.1092  0.4353  0.0681
  444MOL0     H61220   6.293   7.665   7.138  1.9328 -2.5103  1.2228
  444MOL0     H61221   6.443   7.436   7.143 -0.1777 -1.7079 -1.0413
  444MOL0     H61222   6.758   7.319   7.002  1.5077  2.4723 -1.1276
  444MOL0     H61223   6.665   7.292   7.149 -2.2449  2.0303  0.5262
  444MOL0     H61224   6.800   7.485   7.246 -4.1732 -0.7909 -0.8701
  444MOL0     H61225   6.860   7.320   7.246 -1.9398  1.8232  2.6868
  444MOL0     H61226   7.005   7.395   7.046 -1.9945 -3.2467  2.3814
  444MOL0     H61227   6.935   7.566   7.078 -1.7258 -0.0712  0.6404
  444MOL0     H61228   7.160   7.531   7.157 -0.7815  0.2832  0.0902
  444MOL0     H61229   7.060   7.565   7.294 -3.2535 -0.6470  0.1340
  444MOL0     H61230   7.220   7.154   7.385 -0.5393  0.9140  1.4649
  444MOL0     H61231   7.496   7.088   7.590 -0.0010 -0.9038 -0.4385
  444MOL0     H61232   7.502   7.042   7.410 -1.7104  1.6230 -1.4944
  444MOL0     H61233   7.360   7.017   7.499  2.1278 -3.2188  0.8334
  444MOL0     H61234   7.787   7.644   7.547 -1.7600 -2.0637 -0.3198
  444MOL0     H61235   8.014   7.701   7.640 -0.1876  0.0712  2.7860
  444MOL0     H61236   8.341   7.656   7.754  0.2811 -0.8732  0.4093
  444MOL0     H61237   8.195   7.713   7.694  2.6247  0.0190 -1.5945
  444MOL0     H61238   8.077   7.634   7.915 -0.0416  1.7297 -1.4006
  444MOL0     H61239   8.227   7.546   7.951 -0.2511 -1.6650 -2.1358
  444MOL0     H61240   8.174   7.771   8.068 -3.1569 -0.9808 -1.4899
  444MOL0     H61241   8.212   7.851   7.922 -0.8143  0.2306  1.7463
  444MOL0     H61242   8.442   7.713   7.928 -1.8348  0.5623 -1.3656
  444MOL0     H61243   8.401   7.677   8.098  0.4182  0.4648 -0.0121
  444MOL0     H61244   8.555   7.865   8.074 -0.3967  0.5318 -1.3480
  444MOL0     H61245   8.437   7.972   8.000 -1.0038  0.0776  0.6446
  444MOL0     H61246   8.450   7.852   8.273 -0.7176 -3.5949 -1.9689
  444MOL0     H61247   8.299   7.921   8.199  0.5013  0.7894  2.2289
  444MOL0     H61248   8.471   8.126   8.148  0.6042  0.8995  0.5996
  444MOL0     H61249   8.521   8.077   8.316 -1.4451 -3.9658  3.2983
  444MOL0     H61250   8.355   8.238   8.348 -1.2108 -0.4716  0.6876
  444MOL0     H61251   8.285   8.075   8.380  0.0399  0.3894  0.9832
  444MOL0     H61252   8.117   7.284   7.643  1.1276  0.8007  0.5799
  444MOL0     H61253   7.891   7.236   7.523  1.7034  0.1580 -1.3171
  444MOL0     H61254   7.495   7.569   7.457 -2.0268  0.4884 -0.2014
  444MOL0     H61255   7.282   7.581   7.350 -0.3601 -0.2917  1.4969
  444MOL0     H61256   5.429   7.789   7.445 -0.1604  0.2907 -0.6811
  444MOL0     H61257   5.281   7.912   7.595 -3.5388 -1.2341  1.0625
  444MOL0     H61258   4.797   8.120   7.542  0.5173 -1.5078 -0.5256
  444MOL0     H61259   4.615   8.193   7.667 -0.1244 -0.2066  0.4126
  444MOL0     H61260   4.625   8.260   8.128 -3.6897 -1.7330 -0.3066
  444MOL0     H61261   4.700   8.407   8.063  0.4580 -1.1940 -0.6374
  444MOL0     H61262   4.402   8.349   8.079  0.1534 -0.0508 -1.5185
  444MOL0     H61263   4.466   8.468   7.972 -1.2301  0.9421  1.0184
  444MOL0     H61264   4.489   8.467   8.272 -0.0978 -0.0035 -0.2176
  444MOL0     H61265   4.599   8.567   8.171  2.4356 -3.8242 -2.0318
  444MOL0     H61266   4.383   8.678   8.073 -1.4359  1.7901  0.7869
  444MOL0     H61267   4.433   8.704   8.247 -1.4326  1.3315  0.0196
  444MOL0     H61268   4.055   8.551   8.301 -0.5469  2.0790 -0.7925
  444MOL0     H61269   4.848   8.243   8.024 -1.3127  0.8690  0.2020
  444MOL0     H61270   5.110   8.038   7.910 -1.2089 -0.5168  2.8949
  444MOL0     H61271   5.158   8.205   7.872  2.4509 -0.9164  2.3717
  444MOL0     H61272   5.068   8.170   8.020 -1.8290  1.4065  0.2334
  445MOL0     O61273   8.960   4.995   1.928  0.4217 -0.6262 -0.8898
  445MOL0     C61274   8.902   4.879   1.937 -0.0802 -0.7009  0.6656
  445MOL0     O61275   8.967   4.761   1.928 -0.1873  0.4069 -0.1767
  445MOL0     C61276   9.101   4.772   1.904 -0.9813 -0.3179  0.5599
  445MOL0     C61277   9.153   4.739   1.781  0.1274  0.1844 -0.2349
  445MOL0     C61278   9.289   4.744   1.752  0.5639  0.1734 -0.4620
  445MOL0     C61279   9.388   4.771   1.845 -0.3043 -0.1450 -0.8680
  445MOL0     O61280   9.520   4.781   1.808  0.1486 -0.0797 -0.1298
  445MOL0     C61281   9.601   4.883   1.871 -0.0484  0.2841  0.5610
  445MOL0     C61282   9.663   4.974   1.758  0.8878  0.0543 -0.5983
  445MOL0     C61283   9.703   5.104   1.825 -0.3856  0.3057  0.6719
  445MOL0     C61284   9.824   5.093   1.909 -0.1221 -0.2079 -0.8246
  445MOL0     C61285   9.949   5.071   1.825 -0.1943  0.6696 -0.1317
  445MOL0     C61286  10.064   5.058   1.915 -0.3124 -0.1552 -0.5143
  445MOL0     C61287  10.062   4.931   2.008  0.3361 -0.4958  0.0616
  445MOL0     C61288  10.175   4.943   2.120  0.8201 -0.6064 -0.2386
  445MOL0     N61289  10.164   5.064   2.205  0.9730  0.0087  0.0614
  445MOL0     C61290  10.060   5.081   2.288 -0.0465  0.4204 -0.2369
  445MOL0     C61291  10.088   5.186   2.373 -0.5576 -0.2498  0.1519
  445MOL0     C61292   9.996   5.232   2.484  0.4881 -0.4653  0.1065
  445MOL0     C61293  10.039   5.364   2.563  0.0061  0.5583  0.2456
  445MOL0     C61294   9.971   5.348   2.702  0.1118  0.7309  0.1496
  445MOL0     C61295  10.069   5.287   2.802  0.3619 -0.3335  0.8441
  445MOL0     O61296  10.114   5.157   2.756  0.0648  0.4910 -0.0509
  445MOL0     C61297  10.240   5.126   2.795 -0.1597 -0.2770  1.3506
  445MOL0     C61298  10.262   5.084   2.923  0.3496 -0.1991 -0.3218
  445MOL0     C61299  10.391   5.056   2.972  0.4795  0.8147  0.0624
  445MOL0     C61300  10.400   4.998   3.111  0.1008 -0.3414  0.2600
  445MOL0     C61301  10.500   5.083   2.890  0.0282 -0.8200  0.0977
  445MOL0     C61302  10.641   5.088   2.947 -0.6978  0.0095  0.2507
  445MOL0     O61303  10.745   5.099   2.850  0.4599 -0.0410 -0.2382
  445MOL0     C61304  10.863   5.166   2.882  0.3606 -0.5469 -0.5390
  445MOL0     C61305  10.881   5.270   2.973 -0.1979  0.1807 -0.5662
  445MOL0     C61306  11.004   5.338   2.993 -0.2611  0.1465 -0.1618
  445MOL0     C61307  11.117   5.299   2.917 -0.2593  0.2403  0.1768
  445MOL0     O61308  11.238   5.357   2.936  0.0797 -0.0652 -0.0198
  445MOL0     C61309  11.324   5.294   3.035 -1.1449 -0.3707 -0.5128
  445MOL0     C61310  11.461   5.271   2.959  0.5912  0.0318 -0.5930
  445MOL0     C61311  11.578   5.215   3.046  0.0798  0.0772  0.0390
  445MOL0     C61312  11.611   5.313   3.161 -0.0167  0.0245 -0.5462
  445MOL0     C61313  11.740   5.278   3.230 -0.4808  0.0952  0.0249
  445MOL0     C61314  11.795   5.405   3.294 -1.2976 -0.3980 -0.3553
  445MOL0     C61315  11.923   5.378   3.373  0.1664 -0.2223 -0.3046
  445MOL0     C61316  11.904   5.302   3.511 -0.6497 -0.7775  0.2706
  445MOL0    Cl61317  11.878   5.128   3.483  0.0513 -0.1613 -0.1160
  445MOL0     C61318  11.104   5.192   2.835  0.3102  0.4623  0.2872
  445MOL0     C61319  10.976   5.138   2.810 -0.5667  0.2296  0.8612
  445MOL0     O61320  10.659   5.091   3.070 -0.2564 -0.4703 -0.2275
  445MOL0     C61321  10.479   5.125   2.759 -0.2054  0.2760  1.0499
  445MOL0     C61322  10.355   5.142   2.712 -0.2636 -1.0877 -0.8078
  445MOL0     N61323  10.207   5.242   2.320  1.1450  0.6388  0.2122
  445MOL0     N61324  10.252   5.168   2.222  0.4950  0.0587 -0.8610
  445MOL0     C61325   9.342   4.788   1.975  0.4890 -0.1230 -0.3934
  445MOL0     C61326   9.198   4.792   2.002 -1.2459 -1.0739  0.5251
  445MOL0     C61327   8.754   4.888   1.957 -0.1516 -0.3292 -0.4018
  445MOL0     C61328   8.701   5.005   2.029 -0.1569  0.1605  0.2994
  445MOL0     C61329   8.563   5.035   2.036 -0.6206  0.6220 -0.2506
  445MOL0     C61330   8.475   4.942   1.962 -0.9628 -0.8987 -0.6848
  445MOL0     O61331   8.347   4.984   1.963  0.4212 -0.3022  0.3013
  445MOL0     C61332   8.249   4.911   1.883 -0.1770  0.4622 -0.1945
  445MOL0     C61333   8.115   4.948   1.938 -0.3929 -0.0436 -0.1675
  445MOL0     C61334   8.004   4.919   1.833 -0.1877 -1.2677 -0.3204
  445MOL0     C61335   7.866   4.985   1.851 -0.7815 -0.4012  0.0737
  445MOL0     C61336   7.808   4.951   1.979  0.2070  0.6353 -0.1840
  445MOL0     C61337   7.754   4.908   2.081 -0.6487  0.0117  0.3978
  445MOL0     C61338   8.531   4.833   1.896  0.0377 -0.2187 -0.1269
  445MOL0     C61339   8.665   4.798   1.900 -0.0355 -0.6070 -0.7481
  445MOL0     C61340   8.700   4.685   1.809 -0.0639 -1.1427 -0.6339
  445MOL0     H61341   9.084   4.717   1.700 -3.3116  2.6026  1.7713
  445MOL0     H61342   9.333   4.727   1.654  1.9151  0.9869 -0.0216
  445MOL0     H61343   9.678   4.834   1.932  0.6561  0.0562 -0.4832
  445MOL0     H61344   9.550   4.948   1.942  0.9634  0.2005  1.3985
  445MOL0     H61345   9.752   4.918   1.725  0.7335 -0.8521  0.4756
  445MOL0     H61346   9.583   4.989   1.685 -0.2984 -1.0955  0.4250
  445MOL0     H61347   9.738   5.178   1.752  2.7048  1.4650  3.1009
  445MOL0     H61348   9.613   5.147   1.870 -0.5473  0.9241 -0.2152
  445MOL0     H61349   9.834   5.184   1.968 -1.2275  0.6660 -1.9172
  445MOL0     H61350   9.794   5.017   1.981 -2.4360  1.5988  0.2635
  445MOL0     H61351   9.970   5.157   1.761  1.5358  0.8419  0.6025
  445MOL0     H61352   9.939   4.978   1.769  1.9206 -0.8592  1.8516
  445MOL0     H61353  10.159   5.061   1.861 -0.1224  3.9113 -0.2449
  445MOL0     H61354  10.067   5.148   1.976  0.2204 -0.1875 -0.4910
  445MOL0     H61355  10.075   4.838   1.953 -2.9362 -0.3968 -1.1187
  445MOL0     H61356   9.969   4.915   2.063 -1.0356  2.2797 -1.2630
  445MOL0     H61357  10.168   4.855   2.184  1.9254 -0.9433 -0.5652
  445MOL0     H61358  10.275   4.950   2.076  1.4247 -1.0270  1.0368
  445MOL0     H61359   9.980   5.010   2.305  0.0564  0.9822  3.1711
  445MOL0     H61360   9.971   5.148   2.548 -0.6748 -0.7978 -0.7546
  445MOL0     H61361   9.907   5.272   2.434 -0.1002 -1.1317  0.6069
  445MOL0     H61362  10.147   5.382   2.565 -0.0942  1.1563  1.7369
  445MOL0     H61363   9.993   5.444   2.504 -1.2898 -2.4415 -3.2181
  445MOL0     H61364   9.950   5.448   2.743 -0.9594 -0.5984  3.0942
  445MOL0     H61365   9.874   5.298   2.713  0.5580 -0.6509 -1.6633
  445MOL0     H61366  10.144   5.362   2.827 -0.7151 -0.1439  3.9218
  445MOL0     H61367  10.015   5.274   2.897 -1.8338  0.6484 -0.2062
  445MOL0     H61368  10.182   5.085   2.995  0.9652  2.5677  0.4552
  445MOL0     H61369  10.307   4.945   3.137 -1.5998 -0.7614 -5.3722
  445MOL0     H61370  10.416   5.075   3.186 -0.3940  1.4709 -1.4188
  445MOL0     H61371  10.476   4.919   3.108 -0.1545 -0.6916  1.7752
  445MOL0     H61372  10.798   5.315   3.027 -1.1088 -0.7274 -1.1667
  445MOL0     H61373  11.019   5.420   3.063  0.5386  0.4190 -0.6376
  445MOL0     H61374  11.323   5.359   3.123 -2.2299 -2.0291  0.7688
  445MOL0     H61375  11.289   5.200   3.079  0.9288  0.2666  2.9304
  445MOL0     H61376  11.436   5.199   2.880 -0.5499  0.5616 -0.7216
  445MOL0     H61377  11.501   5.361   2.911 -1.1956 -0.5665 -3.4158
  445MOL0     H61378  11.671   5.199   2.991 -0.5555 -3.6922 -0.1728
  445MOL0     H61379  11.540   5.118   3.080 -0.5301  0.0087 -0.8197
  445MOL0     H61380  11.534   5.310   3.237 -0.9940  1.7241 -1.4280
  445MOL0     H61381  11.624   5.411   3.115  1.7906  0.1173  0.0699
  445MOL0     H61382  11.716   5.205   3.308  0.1780 -0.3909 -0.2115
  445MOL0     H61383  11.814   5.232   3.164 -2.3677 -0.4178 -1.8102
  445MOL0     H61384  11.720   5.469   3.341 -0.7869  0.5307 -0.7761
  445MOL0     H61385  11.832   5.462   3.209  1.5339  0.8814  1.5588
  445MOL0     H61386  11.960   5.479   3.396  3.3386 -1.3510  0.1167
  445MOL0     H61387  11.998   5.325   3.313  1.0460 -0.0174  0.5752
  445MOL0     H61388  11.815   5.334   3.565 -3.1655 -3.4250 -1.9794
  445MOL0     H61389  11.989   5.306   3.581  0.2045  0.0710 -0.7806
  445MOL0     H61390  11.190   5.158   2.779  0.3181 -1.4445  1.3976
  445MOL0     H61391  10.979   5.053   2.743  2.6904  1.6856 -1.0748
  445MOL0     H61392  10.565   5.131   2.693 -1.1871 -2.6318 -0.6728
  445MOL0     H61393  10.334   5.166   2.608 -2.5556 -2.5164 -0.7413
  445MOL0     H61394   9.413   4.812   2.053  1.0691  0.1924 -1.0072
  445MOL0     H61395   9.171   4.805   2.107 -0.8985 -0.7978  0.5815
  445MOL0     H61396   8.776   5.070   2.072 -0.4563  0.7249 -0.0323
  445MOL0     H61397   8.518   5.120   2.086  1.2700  2.1807 -1.0878
  445MOL0     H61398   8.249   4.945   1.779  1.8901  2.8161  0.4730
  445MOL0     H61399   8.263   4.803   1.884  4.0174  0.7624  3.2267
  445MOL0     H61400   8.120   5.057   1.945 -0.0782 -0.1643  2.4191
  445MOL0     H61401   8.102   4.912   2.040 -1.6630  2.1322  0.4882
  445MOL0     H61402   8.039   4.967   1.741  0.4399 -0.6711  0.2132
  445MOL0     H61403   8.001   4.810   1.825 -0.9940 -1.5576  2.6668
  445MOL0     H61404   7.798   4.959   1.770 -0.5667 -1.4822  0.2215
  445MOL0     H61405   7.871   5.094   1.858 -1.3070 -0.0735 -3.2583
  445MOL0     H61406   7.698   4.855   2.156 -0.8705 -1.3361 -0.6968
  445MOL0     H61407   8.472   4.760   1.842  0.9291 -2.2597  1.5133
  445MOL0     H61408   8.613   4.643   1.756 -2.5950  1.2005  1.3848
  445MOL0     H61409   8.780   4.722   1.744  3.0655 -0.6043  3.1620
  445MOL0     H61410   8.741   4.605   1.871  0.3099 -1.2841 -1.0539
  446MOL0     O61411  10.936   9.290   9.181  0.3440  0.2618 -0.0607
  446MOL0     C61412  10.990   9.302   9.070 -0.3917  0.2039  0.4880
  446MOL0     O61413  11.098   9.375   9.036  0.2098  0.1350  0.4038
  446MOL0     C61414  11.175   9.414   9.148  0.3551  0.5673  0.4635
  446MOL0     C61415  11.280   9.328   9.179  0.1564 -0.4155  1.1717
  446MOL0     C61416  11.367   9.366   9.288  0.3484 -0.1092  0.1489
  446MOL0     C61417  11.350   9.476   9.358 -0.0968 -0.1527 -0.1057
  446MOL0     O61418  11.435   9.518   9.454  0.1223  0.4285 -0.8590
  446MOL0     C61419  11.494   9.637   9.410 -0.1704 -0.1334 -0.1344
  446MOL0     C61420  11.613   9.679   9.487 -0.2168 -0.3778 -0.3014
  446MOL0     C61421  11.717   9.764   9.397  0.2389 -0.0239  0.4790
  446MOL0     C61422  11.852   9.788   9.472 -0.0919 -0.1028  0.5127
  446MOL0     C61423  11.932   9.892   9.388 -0.5800 -0.7642 -0.5195
  446MOL0     C61424  11.891  10.039   9.407 -0.2209  0.0762  0.0521
  446MOL0     C61425  12.000  10.130   9.354 -0.1522 -0.4254  0.3162
  446MOL0     C61426  11.977  10.275   9.373 -0.2440  0.1434  0.2354
  446MOL0     N61427  12.078  10.364   9.308  0.2547  0.5207 -0.3301
  446MOL0     C61428  12.207  10.336   9.280  0.6063  0.6454  0.2107
  446MOL0     C61429  12.264  10.455   9.233 -0.0230  0.7538 -0.2556
  446MOL0     C61430  12.411  10.468   9.212  0.8189 -0.5502  0.1669
  446MOL0     C61431  12.492  10.508   9.340 -0.2001  0.6642 -0.3975
  446MOL0     C61432  12.629  10.568   9.310 -0.2156 -0.1852  0.5815
  446MOL0     C61433  12.702  10.492   9.200  0.5898 -0.8427 -0.2603
  446MOL0     O61434  12.805  10.575   9.164 -0.2920 -0.7187  1.4517
  446MOL0     C61435  12.894  10.536   9.065 -0.1167 -0.0442 -1.0763
  446MOL0     C61436  12.882  10.406   9.008  0.0507  0.2991 -0.0209
  446MOL0     C61437  12.973  10.364   8.911 -0.4177 -0.2740 -0.1997
  446MOL0     C61438  12.948  10.217   8.865 -0.5644  0.0444 -0.2125
  446MOL0     C61439  13.084  10.448   8.875 -0.2768  0.2634 -0.9170
  446MOL0     C61440  13.188  10.402   8.778 -0.3963 -0.1647  0.2509
  446MOL0     O61441  13.262  10.510   8.729  0.6040  0.2951 -1.0472
  446MOL0     C61442  13.342  10.490   8.620  0.7167  0.3061  0.8095
  446MOL0     C61443  13.286  10.419   8.510  1.3779  0.5104 -0.3385
  446MOL0     C61444  13.347  10.418   8.388 -0.7439 -0.2162  0.2010
  446MOL0     C61445  13.469  10.488   8.373  0.3822  0.1292 -0.0294
  446MOL0     O61446  13.543  10.487   8.255  0.3362  0.1132 -1.0138
  446MOL0     C61447  13.507  10.387   8.161  0.6790  0.1375 -0.5778
  446MOL0     C61448  13.604  10.401   8.042  0.3422  0.2727 -0.5799
  446MOL0     C61449  13.736  10.351   8.098 -0.6530  0.2806  0.2738
  446MOL0     C61450  13.837  10.349   7.980 -0.1241 -0.5428 -0.1871
  446MOL0     C61451  13.964  10.268   8.008 -0.6326 -0.0614 -1.9832
  446MOL0     C61452  14.070  10.304   7.900  0.5450 -0.2947  0.1708
  446MOL0     C61453  14.204  10.233   7.929  0.4218 -0.1118 -0.1122
  446MOL0     C61454  14.298  10.258   7.808  1.1747  0.1710 -0.2111
  446MOL0    Cl61455  14.469  10.208   7.840 -0.5481 -0.3954  0.0122
  446MOL0     C61456  13.522  10.565   8.477  0.9121  0.2753 -0.5045
  446MOL0     C61457  13.461  10.564   8.602  0.5338 -0.3997  0.3530
  446MOL0     O61458  13.219  10.280   8.767  0.2396  0.2827 -0.1458
  446MOL0     C61459  13.089  10.576   8.932  0.1272  1.1862 -0.0150
  446MOL0     C61460  12.994  10.614   9.027 -0.4282 -0.0927  0.4432
  446MOL0     N61461  12.170  10.544   9.204 -0.0591  0.5582 -0.1781
  446MOL0     N61462  12.062  10.491   9.265 -0.5114 -0.6247  0.2237
  446MOL0     C61463  11.235   9.555   9.328 -0.3718  0.5018 -1.2490
  446MOL0     C61464  11.146   9.525   9.226 -0.1521  0.5436 -0.1347
  446MOL0     C61465  10.935   9.226   8.954  0.1735  0.3237  0.5609
  446MOL0     C61466  10.911   9.088   8.977  0.3261  0.6283 -0.0358
  446MOL0     C61467  10.892   9.001   8.872  0.1160 -0.1337  1.1248
  446MOL0     C61468  10.872   9.053   8.744  0.3243 -0.0033  0.2494
  446MOL0     O61469  10.851   8.956   8.648 -0.4835 -0.1351 -0.1439
  446MOL0     C61470  10.862   8.985   8.505 -0.4668 -0.0625 -0.3618
  446MOL0     C61471  10.829   8.855   8.427 -0.2693  0.0597  0.0411
  446MOL0     C61472  10.769   8.896   8.296 -0.3486 -0.6748 -0.2594
  446MOL0     C61473  10.725   8.777   8.210  0.1194  0.1875 -0.4879
  446MOL0     C61474  10.603   8.721   8.259 -0.0168  0.2485 -0.5941
  446MOL0     C61475  10.498   8.684   8.303 -0.0754 -0.1871  0.0442
  446MOL0     C61476  10.902   9.182   8.716  0.1939  0.6961  0.0034
  446MOL0     C61477  10.934   9.270   8.821 -0.3687 -0.3003  0.2153
  446MOL0     C61478  10.969   9.416   8.782  0.3429 -0.3704  0.5173
  446MOL0     H61479  11.292   9.237   9.121 -0.2120  0.3963 -0.1972
  446MOL0     H61480  11.450   9.300   9.309  0.4663 -0.3329 -0.9310
  446MOL0     H61481  11.422   9.719   9.410 -0.2798 -0.2315 -0.6789
  446MOL0     H61482  11.525   9.621   9.306  1.0698 -2.3760  0.5145
  446MOL0     H61483  11.581   9.740   9.572 -1.2759  0.7695 -1.4754
  446MOL0     H61484  11.662   9.591   9.530  2.8267  0.8767 -0.8915
  446MOL0     H61485  11.751   9.710   9.307  0.0217 -0.7523  0.8254
  446MOL0     H61486  11.668   9.857   9.367 -2.2076 -1.3407  0.1579
  446MOL0     H61487  11.834   9.819   9.575  1.8928 -0.0566  0.8743
  446MOL0     H61488  11.912   9.697   9.486 -0.0581 -0.4151 -1.3612
  446MOL0     H61489  11.931   9.867   9.282 -3.7723  1.9685 -1.3060
  446MOL0     H61490  12.029   9.885   9.439 -1.5954 -0.9211  1.4885
  446MOL0     H61491  11.798  10.056   9.352  0.1012  0.5199 -0.3609
  446MOL0     H61492  11.855  10.063   9.508 -0.2234 -0.0971  0.0924
  446MOL0     H61493  12.015  10.122   9.245 -2.5208  2.0513 -0.3019
  446MOL0     H61494  12.095  10.106   9.402 -1.4212 -0.3547  2.9969
  446MOL0     H61495  11.876  10.289   9.333 -0.8413  0.4120  1.7511
  446MOL0     H61496  11.977  10.298   9.480  0.2772 -2.1769  0.7924
  446MOL0     H61497  12.261  10.246   9.310 -0.0652 -0.0623 -0.6223
  446MOL0     H61498  12.412  10.550   9.140 -1.6874 -1.9039 -1.5571
  446MOL0     H61499  12.449  10.374   9.169 -3.1728 -1.9878 -0.6332
  446MOL0     H61500  12.427  10.577   9.394 -2.4771 -0.8164 -1.0973
  446MOL0     H61501  12.505  10.422   9.407  0.4162  2.6263  2.1509
  446MOL0     H61502  12.616  10.672   9.279  1.4271  0.0694  0.6529
  446MOL0     H61503  12.701  10.566   9.393  1.0858 -1.3843 -0.5176
  446MOL0     H61504  12.738  10.396   9.237 -1.0162 -1.8464 -1.1794
  446MOL0     H61505  12.628  10.491   9.119 -0.5049  0.5725  0.6789
  446MOL0     H61506  12.802  10.335   9.028  0.6126 -1.2865 -2.9113
  446MOL0     H61507  12.963  10.209   8.757  0.2800 -0.3888 -0.0657
  446MOL0     H61508  12.848  10.178   8.886  0.5774 -3.0730 -0.1431
  446MOL0     H61509  13.019  10.147   8.910 -1.4339 -0.9305 -0.3299
  446MOL0     H61510  13.189  10.370   8.521  1.2481  0.5571 -1.2160
  446MOL0     H61511  13.304  10.368   8.302  1.8522 -3.4512  0.5741
  446MOL0     H61512  13.512  10.294   8.218  1.5978  0.3271 -0.3258
  446MOL0     H61513  13.406  10.419   8.134  0.6226  1.5629  1.1115
  446MOL0     H61514  13.571  10.341   7.956 -1.6856 -1.0786  1.0528
  446MOL0     H61515  13.610  10.502   8.001  0.5702 -0.5208 -2.6017
  446MOL0     H61516  13.716  10.249   8.131  1.7024  0.1510  1.4815
  446MOL0     H61517  13.772  10.413   8.181 -0.0532  3.7635 -2.3184
  446MOL0     H61518  13.851  10.449   7.938 -1.4184 -0.4257 -0.3839
  446MOL0     H61519  13.788  10.295   7.899  1.4004  0.7993 -2.0915
  446MOL0     H61520  14.010  10.291   8.105 -2.5610 -1.7303 -0.5859
  446MOL0     H61521  13.944  10.161   8.009 -0.8167 -0.0261 -1.7522
  446MOL0     H61522  14.089  10.412   7.898 -1.9714  0.1919 -0.4397
  446MOL0     H61523  14.035  10.275   7.801  2.2206 -0.9604 -0.2645
  446MOL0     H61524  14.185  10.126   7.922 -1.2492  0.1948 -0.7128
  446MOL0     H61525  14.242  10.267   8.026 -0.2309  4.2010 -1.1464
  446MOL0     H61526  14.298  10.364   7.781  3.6345 -0.0217 -1.2164
  446MOL0     H61527  14.254  10.210   7.720  1.1551  2.4147 -1.4989
  446MOL0     H61528  13.621  10.605   8.454  1.2328  0.2826  0.8188
  446MOL0     H61529  13.503  10.620   8.686  1.0104  1.9145 -1.3324
  446MOL0     H61530  13.168  10.642   8.900  1.1339 -0.1557 -0.4180
  446MOL0     H61531  13.007  10.712   9.073  0.4781 -1.1267  2.5326
  446MOL0     H61532  11.213   9.636   9.396  2.1762 -0.1340  0.4841
  446MOL0     H61533  11.063   9.592   9.207 -0.7222  0.8582  2.9294
  446MOL0     H61534  10.914   9.054   9.080  3.3712 -1.3925 -0.6615
  446MOL0     H61535  10.869   8.895   8.880  2.6938 -1.1970 -2.6896
  446MOL0     H61536  10.791   9.065   8.481  0.4242  1.5646  1.9815
  446MOL0     H61537  10.963   9.019   8.482 -0.5964  0.2423 -0.4886
  446MOL0     H61538  10.742   8.807   8.474 -0.9113  1.7534  0.6930
  446MOL0     H61539  10.917   8.791   8.431 -0.0232  0.4090  4.0562
  446MOL0     H61540  10.695   8.977   8.297  0.2391 -0.0952 -1.3824
  446MOL0     H61541  10.857   8.947   8.255  0.0632 -1.9949 -1.0578
  446MOL0     H61542  10.807   8.706   8.198 -1.0606 -2.2113  3.6198
  446MOL0     H61543  10.699   8.819   8.112 -0.2523  2.5191  0.5328
  446MOL0     H61544  10.398   8.658   8.331 -0.5578  1.3596 -0.1904
  446MOL0     H61545  10.917   9.209   8.612  0.1832 -2.1979 -0.8275
  446MOL0     H61546  10.926   9.431   8.683 -0.9998  0.0650  1.1537
  446MOL0     H61547  10.927   9.490   8.851 -3.3897 -1.6409 -0.2113
  446MOL0     H61548  11.077   9.431   8.772  0.0230  0.7567 -1.8353
  447MOL0     O61549   5.854   3.244   6.721  0.3233 -0.1690  0.1291
  447MOL0     C61550   5.765   3.252   6.805  1.4926  0.3536  0.2718
  447MOL0     O61551   5.747   3.162   6.911  0.2683  0.2570 -0.0780
  447MOL0     C61552   5.855   3.094   6.964  0.0004  0.4286  0.6315
  447MOL0     C61553   5.828   2.965   7.002  0.0498  0.1456 -0.7493
  447MOL0     C61554   5.933   2.896   7.068  0.6490  0.1251  0.1813
  447MOL0     C61555   6.058   2.953   7.090 -1.4250  1.1103 -0.9623
  447MOL0     O61556   6.159   2.887   7.152  0.0806 -0.3987  0.7218
  447MOL0     C61557   6.139   2.751   7.201 -0.5492  0.4646  0.2575
  447MOL0     C61558   6.261   2.695   7.281 -0.5925 -0.1913  0.2439
  447MOL0     C61559   6.368   2.643   7.198 -0.8263 -0.6896  0.1403
  447MOL0     C61560   6.477   2.740   7.140  0.2189 -0.0666  0.8215
  447MOL0     C61561   6.557   2.797   7.254  0.2075  0.1181  0.1910
  447MOL0     C61562   6.653   2.903   7.199  0.5395 -0.8005  0.0455
  447MOL0     C61563   6.784   2.831   7.139  0.1708 -0.5002 -0.2857
  447MOL0     C61564   6.904   2.933   7.148 -0.6492  0.3838  0.1328
  447MOL0     N61565   7.029   2.863   7.106  0.0717  0.9537  0.0034
  447MOL0     C61566   7.078   2.750   7.167 -0.2439 -0.3739 -0.0041
  447MOL0     C61567   7.185   2.716   7.091  1.1377 -0.0531  0.3590
  447MOL0     C61568   7.279   2.595   7.113 -0.4660 -0.5120 -0.5361
  447MOL0     C61569   7.298   2.498   6.996 -0.3584  0.3351 -1.1030
  447MOL0     C61570   7.367   2.562   6.871 -0.1984  0.3099  0.4616
  447MOL0     C61571   7.521   2.568   6.877  0.3110  0.3562 -0.7258
  447MOL0     O61572   7.573   2.431   6.872 -0.4325  0.3870 -0.1881
  447MOL0     C61573   7.709   2.416   6.871  0.0294 -0.0416 -0.8295
  447MOL0     C61574   7.747   2.288   6.869 -0.3393  0.4488  0.8444
  447MOL0     C61575   7.885   2.254   6.861  0.4729 -0.3832  0.5448
  447MOL0     C61576   7.924   2.111   6.827 -0.7378 -0.0860 -0.8402
  447MOL0     C61577   7.982   2.358   6.837 -0.2054 -0.4758  0.0969
  447MOL0     C61578   8.124   2.333   6.801 -0.1386 -0.2426  0.5433
  447MOL0     O61579   8.198   2.443   6.789 -0.4583  0.0581  0.1279
  447MOL0     C61580   8.333   2.415   6.782  0.2365  0.3074  0.0205
  447MOL0     C61581   8.404   2.416   6.900 -0.3048 -0.1963 -0.0102
  447MOL0     C61582   8.546   2.401   6.896  0.1743 -0.1620 -1.0930
  447MOL0     C61583   8.611   2.368   6.780  0.7190 -1.1119  0.1886
  447MOL0     O61584   8.742   2.352   6.788 -0.3933 -0.6859  0.9683
  447MOL0     C61585   8.830   2.351   6.683 -0.1256 -0.5649 -0.2274
  447MOL0     C61586   8.973   2.325   6.722 -0.6307 -0.9454 -0.3466
  447MOL0     C61587   9.020   2.389   6.860 -0.3182 -0.0232  0.0365
  447MOL0     C61588   9.155   2.329   6.902  0.3465  0.1332 -1.1523
  447MOL0     C61589   9.158   2.186   6.954 -0.8475  0.6545 -0.3731
  447MOL0     C61590   9.284   2.107   6.952 -0.0854 -0.2966  0.1856
  447MOL0     C61591   9.415   2.183   6.985 -0.2515 -0.2134  0.8467
  447MOL0     C61592   9.395   2.238   7.129 -0.4044 -0.1773 -0.7893
  447MOL0    Cl61593   9.564   2.277   7.203 -0.1033 -0.5877  0.3606
  447MOL0     C61594   8.538   2.361   6.660  0.1030 -0.9850 -0.6594
  447MOL0     C61595   8.400   2.380   6.667 -0.1747 -0.7564 -0.5308
  447MOL0     O61596   8.167   2.216   6.792  0.3134 -0.1441 -0.2219
  447MOL0     C61597   7.934   2.487   6.816  0.1917 -0.1420 -0.1710
  447MOL0     C61598   7.803   2.521   6.849 -0.3574  0.2219  0.4313
  447MOL0     N61599   7.196   2.803   6.985  0.4073  0.0175 -0.6891
  447MOL0     N61600   7.103   2.888   6.996  0.3593 -0.8646  0.3012
  447MOL0     C61601   6.088   3.078   7.047  0.4612 -0.3413 -0.3750
  447MOL0     C61602   5.988   3.148   6.985  0.3125  0.0696  0.8419
  447MOL0     C61603   5.667   3.354   6.789  0.2741  0.4930 -0.1586
  447MOL0     C61604   5.533   3.330   6.834  0.1985 -0.7870  0.7104
  447MOL0     C61605   5.433   3.431   6.817 -0.4612 -1.0068  0.3062
  447MOL0     C61606   5.466   3.557   6.761  0.5321  0.1798 -0.0200
  447MOL0     O61607   5.361   3.647   6.747  0.0012 -0.0155  0.6372
  447MOL0     C61608   5.382   3.784   6.752 -0.7350  1.0718  0.0005
  447MOL0     C61609   5.254   3.829   6.834 -0.0682  0.1451  0.7748
  447MOL0     C61610   5.121   3.796   6.765  0.2503  0.5018  0.4980
  447MOL0     C61611   5.001   3.856   6.836  0.0483  0.0392 -0.2708
  447MOL0     C61612   4.868   3.806   6.800 -0.2351 -0.1518 -0.1986
  447MOL0     C61613   4.752   3.768   6.786  0.5883  0.5388  0.7454
  447MOL0     C61614   5.604   3.576   6.725  0.0901  0.8279  0.5919
  447MOL0     C61615   5.697   3.480   6.732  0.4615  0.6646  0.0201
  447MOL0     C61616   5.832   3.521   6.675  0.1037 -0.2724  0.4346
  447MOL0     H61617   5.726   2.926   7.001  0.0972 -0.2832  2.1104
  447MOL0     H61618   5.905   2.794   7.092  0.7254 -0.5411 -2.2463
  447MOL0     H61619   6.106   2.684   7.120 -0.2206 -0.4174  0.8297
  447MOL0     H61620   6.047   2.745   7.260  0.6449  1.0576  2.2763
  447MOL0     H61621   6.293   2.781   7.341  1.1304  0.1903 -1.1326
  447MOL0     H61622   6.226   2.608   7.337  0.8115 -1.1292 -0.2805
  447MOL0     H61623   6.433   2.576   7.255 -0.3030 -0.5503 -0.2798
  447MOL0     H61624   6.319   2.592   7.114  0.1533 -0.6143 -0.4998
  447MOL0     H61625   6.537   2.687   7.065 -1.3347 -1.2956  0.3833
  447MOL0     H61626   6.426   2.822   7.088  0.9599 -0.0377  0.1076
  447MOL0     H61627   6.619   2.717   7.297 -0.6539 -2.3354 -2.7515
  447MOL0     H61628   6.495   2.843   7.331 -2.8039 -0.0927 -1.9384
  447MOL0     H61629   6.607   2.966   7.122 -1.0088 -0.0087  1.5646
  447MOL0     H61630   6.679   2.961   7.288  1.1172  1.0432 -1.2458
  447MOL0     H61631   6.770   2.801   7.035 -1.1910  0.0851 -0.2916
  447MOL0     H61632   6.811   2.746   7.203 -0.6388 -0.9112 -0.4754
  447MOL0     H61633   6.893   3.019   7.081  2.1733  1.5286  1.0144
  447MOL0     H61634   6.911   2.975   7.249  0.2780 -0.5231  0.4574
  447MOL0     H61635   7.044   2.703   7.259 -2.8723  2.0186  0.3980
  447MOL0     H61636   7.236   2.531   7.191 -0.4994  1.8023  1.4858
  447MOL0     H61637   7.372   2.638   7.150 -0.6242 -0.8406  0.2750
  447MOL0     H61638   7.355   2.409   7.024 -0.1776  0.6906 -0.3031
  447MOL0     H61639   7.195   2.467   6.976 -0.6890  1.3153 -1.0006
  447MOL0     H61640   7.339   2.494   6.790  0.9921 -1.6788  1.6547
  447MOL0     H61641   7.327   2.664   6.864 -2.4679 -0.4284  1.6566
  447MOL0     H61642   7.564   2.620   6.790  3.4322  1.7633  1.4584
  447MOL0     H61643   7.549   2.624   6.967  0.7004 -0.8162 -0.1100
  447MOL0     H61644   7.665   2.217   6.874 -1.9995  1.8312 -2.8044
  447MOL0     H61645   7.954   2.096   6.723  0.8295 -0.0326 -0.4323
  447MOL0     H61646   7.835   2.051   6.848 -0.4259 -0.6293 -1.0602
  447MOL0     H61647   8.002   2.073   6.895 -1.1378 -1.8527 -1.3176
  447MOL0     H61648   8.351   2.434   6.993 -0.0794 -0.9271  0.2615
  447MOL0     H61649   8.605   2.395   6.987  4.2460 -3.7756 -3.5708
  447MOL0     H61650   8.797   2.271   6.616 -3.1580  0.4662 -0.1175
  447MOL0     H61651   8.825   2.447   6.631 -0.1945 -0.2108  0.4287
  447MOL0     H61652   8.984   2.216   6.721  2.5234 -0.7123  0.2361
  447MOL0     H61653   9.045   2.349   6.644 -1.0969  2.0493  0.0102
  447MOL0     H61654   8.941   2.366   6.932 -1.9076  2.2361 -0.8618
  447MOL0     H61655   9.029   2.497   6.845 -3.3396  0.1503 -1.2352
  447MOL0     H61656   9.206   2.402   6.966 -1.2813  0.0640  0.2757
  447MOL0     H61657   9.203   2.321   6.804  1.4188  0.0584 -0.6419
  447MOL0     H61658   9.128   2.206   7.058  0.3575  0.5057  0.0227
  447MOL0     H61659   9.080   2.131   6.901 -0.6664 -0.7816  0.7629
  447MOL0     H61660   9.295   2.072   6.849  1.6520  0.9446 -0.1052
  447MOL0     H61661   9.276   2.026   7.026  1.2802 -0.6359 -0.0035
  447MOL0     H61662   9.430   2.263   6.913 -2.3665 -1.6565 -1.3826
  447MOL0     H61663   9.496   2.110   6.976 -0.1666  0.1164 -1.5488
  447MOL0     H61664   9.351   2.159   7.191  0.9512 -0.7352 -0.5045
  447MOL0     H61665   9.318   2.315   7.140 -1.1906 -0.4878 -3.3817
  447MOL0     H61666   8.573   2.333   6.561 -1.9223  0.1707 -1.7801
  447MOL0     H61667   8.351   2.371   6.571  0.5435  0.2448 -1.0109
  447MOL0     H61668   8.000   2.567   6.787  0.3954 -0.4214 -0.4871
  447MOL0     H61669   7.777   2.625   6.833 -2.6272 -0.3558  0.0521
  447MOL0     H61670   6.176   3.142   7.057 -0.7955  1.7192 -1.8466
  447MOL0     H61671   6.011   3.253   6.969  1.3973 -0.3345 -0.4766
  447MOL0     H61672   5.498   3.231   6.861 -0.4426 -0.0390  2.7911
  447MOL0     H61673   5.331   3.403   6.841 -1.7340 -2.5123 -5.3444
  447MOL0     H61674   5.476   3.809   6.802  0.6379 -1.0807 -1.3349
  447MOL0     H61675   5.385   3.814   6.647  0.2625 -0.8645 -0.5674
  447MOL0     H61676   5.260   3.938   6.840  1.8443  0.3463 -2.4133
  447MOL0     H61677   5.254   3.776   6.929  0.9927  0.4245  0.9516
  447MOL0     H61678   5.120   3.818   6.658  0.3212 -2.6968 -0.2813
  447MOL0     H61679   5.109   3.687   6.763  0.7773  0.4240 -2.7351
  447MOL0     H61680   4.999   3.963   6.816 -1.4012  0.2830  1.0527
  447MOL0     H61681   5.017   3.847   6.943 -1.2003 -1.7865 -0.1895
  447MOL0     H61682   4.653   3.728   6.775  0.1683  1.5796  0.6431
  447MOL0     H61683   5.619   3.675   6.682  1.4953  0.3755  0.0079
  447MOL0     H61684   5.849   3.487   6.572 -0.2838  3.8387 -1.1920
  447MOL0     H61685   5.832   3.630   6.662  1.4203 -0.4329 -1.4448
  447MOL0     H61686   5.910   3.498   6.748  0.2394  1.2083  0.7915
  448MOL0     O61687   1.329   6.819   3.244 -0.5086 -0.5089 -0.6314
  448MOL0     C61688   1.237   6.796   3.324  0.5678  0.2811  0.1721
  448MOL0     O61689   1.243   6.821   3.460  0.0828 -0.2528  0.6269
  448MOL0     C61690   1.361   6.875   3.515 -0.1938  0.3347 -0.1314
  448MOL0     C61691   1.430   6.805   3.608  0.1026 -0.3995 -0.3819
  448MOL0     C61692   1.556   6.841   3.639 -0.5642  0.7615 -0.3678
  448MOL0     C61693   1.610   6.966   3.597  0.1718  0.0644 -0.0616
  448MOL0     O61694   1.740   6.998   3.611  0.4223 -0.9659 -0.7734
  448MOL0     C61695   1.830   6.932   3.710  0.4705 -0.3172  0.5910
  448MOL0     C61696   1.949   7.022   3.717 -0.7531 -0.2121 -0.0070
  448MOL0     C61697   2.045   6.977   3.828  1.2633 -0.0589  0.6897
  448MOL0     C61698   2.156   7.079   3.847 -1.0372  0.2181 -0.4974
  448MOL0     C61699   2.264   7.025   3.948 -0.2364  0.0459 -0.6927
  448MOL0     C61700   2.393   7.111   3.970  0.6852 -0.7519  0.1789
  448MOL0     C61701   2.491   7.075   3.867  0.3854 -0.2318 -0.0450
  448MOL0     C61702   2.630   7.145   3.879  0.2469 -0.4007 -0.5122
  448MOL0     N61703   2.742   7.075   3.813  0.7944  0.3005  0.5545
  448MOL0     C61704   2.793   6.951   3.846  0.1508 -0.4647  0.3070
  448MOL0     C61705   2.890   6.939   3.752 -0.5533 -0.5224  0.4933
  448MOL0     C61706   2.994   6.832   3.723  0.1954  0.2351 -0.4542
  448MOL0     C61707   2.970   6.727   3.833 -0.6361 -0.0464  0.0988
  448MOL0     C61708   3.055   6.604   3.832 -1.0907 -0.0640  0.0213
  448MOL0     C61709   3.202   6.632   3.839  1.0500 -0.7507 -0.3472
  448MOL0     O61710   3.266   6.501   3.846  0.3435  0.4638  0.6984
  448MOL0     C61711   3.406   6.478   3.862  1.0102  0.2025 -0.7632
  448MOL0     C61712   3.461   6.354   3.893  1.7558  0.3413  0.1246
  448MOL0     C61713   3.592   6.328   3.889 -0.3768 -0.2580  0.7564
  448MOL0     C61714   3.631   6.186   3.903 -0.4919 -0.4075 -0.1984
  448MOL0     C61715   3.678   6.439   3.867  0.3525  0.3904 -0.8400
  448MOL0     C61716   3.819   6.433   3.856 -0.0539  0.0517  0.4695
  448MOL0     O61717   3.880   6.510   3.768 -0.0172 -0.1945 -0.0118
  448MOL0     C61718   4.006   6.492   3.742 -1.0894 -0.1475  0.1139
  448MOL0     C61719   4.109   6.529   3.836 -0.3284  0.0383 -0.3197
  448MOL0     C61720   4.246   6.506   3.800 -0.4419 -0.8092  0.0838
  448MOL0     C61721   4.286   6.433   3.686 -0.2041  0.2633  0.3094
  448MOL0     O61722   4.416   6.410   3.654  0.1838  0.4199  0.0188
  448MOL0     C61723   4.493   6.527   3.650  0.0892  0.0342  0.1000
  448MOL0     C61724   4.567   6.518   3.513 -0.5453  0.0334  0.1086
  448MOL0     C61725   4.472   6.550   3.387 -0.4148  0.4729 -0.4042
  448MOL0     C61726   4.565   6.552   3.261  0.0878 -0.1746 -0.2415
  448MOL0     C61727   4.475   6.583   3.140 -0.2817  0.7456  0.1318
  448MOL0     C61728   4.402   6.717   3.152 -0.0265 -0.1821 -0.1284
  448MOL0     C61729   4.348   6.760   3.023  0.8549 -0.3531  0.5511
  448MOL0     C61730   4.247   6.875   3.037  0.7578  0.1413  0.8819
  448MOL0    Cl61731   4.169   6.880   2.871  0.1701 -0.2367 -0.5926
  448MOL0     C61732   4.183   6.392   3.597 -0.0719 -0.7241 -0.2427
  448MOL0     C61733   4.042   6.417   3.625 -0.8778 -0.0100 -0.8251
  448MOL0     O61734   3.876   6.354   3.937 -0.1143 -0.3151  0.3435
  448MOL0     C61735   3.631   6.567   3.853 -0.1090  0.2511  0.5011
  448MOL0     C61736   3.492   6.584   3.847 -0.5512 -0.4684  0.5141
  448MOL0     N61737   2.887   7.054   3.673 -0.4278 -0.5442  0.2501
  448MOL0     N61738   2.798   7.135   3.711 -0.0207 -0.1180 -0.4367
  448MOL0     C61739   1.537   7.044   3.507 -0.3290 -0.2577  0.0614
  448MOL0     C61740   1.405   7.004   3.477 -0.2683 -0.0115  0.4339
  448MOL0     C61741   1.124   6.710   3.287 -0.1022  0.1744 -0.0365
  448MOL0     C61742   1.064   6.635   3.392 -0.9334  1.0606 -0.1851
  448MOL0     C61743   0.963   6.544   3.364  0.2903  0.1405 -0.8988
  448MOL0     C61744   0.907   6.523   3.242  0.7306  0.7359 -0.0446
  448MOL0     O61745   0.800   6.450   3.218  0.2045  0.0036  0.0786
  448MOL0     C61746   0.701   6.423   3.322 -0.5091  0.3475 -0.1769
  448MOL0     C61747   0.569   6.487   3.286  0.9279 -0.2215  0.2070
  448MOL0     C61748   0.572   6.636   3.265 -0.5937 -0.6126 -0.2254
  448MOL0     C61749   0.425   6.695   3.251  0.5603 -0.0035  0.7207
  448MOL0     C61750   0.357   6.655   3.127 -0.6666 -0.6261 -0.5589
  448MOL0     C61751   0.282   6.608   3.043  0.3096 -0.0693  0.3073
  448MOL0     C61752   0.973   6.594   3.143  0.3717 -0.2853 -0.6519
  448MOL0     C61753   1.076   6.686   3.158  0.0576  0.0719 -0.4172
  448MOL0     C61754   1.117   6.780   3.045  0.4581  0.5082 -0.9449
  448MOL0     H61755   1.399   6.709   3.647  0.2398  0.6980  2.6352
  448MOL0     H61756   1.609   6.765   3.696  0.6586 -0.3147 -2.8104
  448MOL0     H61757   1.868   6.835   3.678  1.2600  1.0150 -2.9669
  448MOL0     H61758   1.778   6.903   3.802  1.1087 -3.8520 -0.0460
  448MOL0     H61759   2.006   7.028   3.624  0.8784  2.2395  1.0682
  448MOL0     H61760   1.923   7.127   3.729  2.6678  0.7989 -0.4230
  448MOL0     H61761   1.999   6.958   3.925  1.5196 -1.6752  0.5112
  448MOL0     H61762   2.085   6.880   3.799  0.9462 -0.4823  1.6298
  448MOL0     H61763   2.196   7.097   3.747 -0.9600  2.5363 -0.0865
  448MOL0     H61764   2.115   7.170   3.891 -0.3250  0.4573 -0.3202
  448MOL0     H61765   2.279   6.923   3.911 -1.3004 -0.7706  0.9765
  448MOL0     H61766   2.221   7.014   4.048  1.3073 -1.4029 -0.1297
  448MOL0     H61767   2.367   7.217   3.978 -1.3612 -1.2809  1.3113
  448MOL0     H61768   2.446   7.084   4.061  2.6445  0.4143 -0.5641
  448MOL0     H61769   2.448   7.107   3.772  0.5820  0.7893  0.1938
  448MOL0     H61770   2.507   6.967   3.867  0.0102 -0.3534  2.2533
  448MOL0     H61771   2.620   7.241   3.827 -0.5861 -0.5904 -0.7242
  448MOL0     H61772   2.666   7.169   3.979  1.5512 -3.2198 -0.1979
  448MOL0     H61773   2.780   6.876   3.923  2.1435 -1.7801 -0.5680
  448MOL0     H61774   3.089   6.880   3.745 -0.7767  1.1317  2.0761
  448MOL0     H61775   2.993   6.782   3.625  0.3741 -0.1833 -0.2446
  448MOL0     H61776   2.975   6.779   3.929 -0.9583 -1.6201  1.0064
  448MOL0     H61777   2.871   6.686   3.809 -0.2049 -0.1959 -1.5333
  448MOL0     H61778   3.031   6.541   3.918 -0.6033 -1.3231 -0.7302
  448MOL0     H61779   3.033   6.552   3.738 -2.3526 -0.6056  0.5887
  448MOL0     H61780   3.236   6.684   3.749  0.6689 -0.4284 -0.3107
  448MOL0     H61781   3.231   6.696   3.922 -0.3662  1.4933 -1.4698
  448MOL0     H61782   3.388   6.274   3.905  0.3508  0.8694 -3.6347
  448MOL0     H61783   3.656   6.166   4.008  0.0218  0.6485 -0.1123
  448MOL0     H61784   3.718   6.161   3.843  1.7898 -1.6281  3.2878
  448MOL0     H61785   3.551   6.118   3.872  1.2206 -1.5178 -2.3899
  448MOL0     H61786   4.075   6.582   3.924 -0.9795 -1.1108  0.1392
  448MOL0     H61787   4.327   6.535   3.865 -0.6095 -0.3814  0.1023
  448MOL0     H61788   4.439   6.621   3.664 -1.7177 -1.1503  1.6670
  448MOL0     H61789   4.574   6.519   3.723 -1.6198  0.0679  2.0865
  448MOL0     H61790   4.657   6.577   3.499 -0.2749 -0.7604 -1.9032
  448MOL0     H61791   4.600   6.414   3.505 -2.3624 -0.7324  1.7358
  448MOL0     H61792   4.425   6.648   3.387 -0.0158  0.8664 -4.9554
  448MOL0     H61793   4.392   6.475   3.377 -0.4838  0.6654 -1.3539
  448MOL0     H61794   4.620   6.458   3.248  0.2739  0.0397 -1.0576
  448MOL0     H61795   4.644   6.625   3.274 -0.0316 -0.0688 -0.1124
  448MOL0     H61796   4.526   6.579   3.044 -1.0806 -0.0499 -0.2717
  448MOL0     H61797   4.399   6.505   3.128  0.7030  0.0151 -1.7888
  448MOL0     H61798   4.472   6.795   3.186  3.7164 -1.7384 -3.4017
  448MOL0     H61799   4.317   6.701   3.219 -0.3653 -0.1358 -0.5468
  448MOL0     H61800   4.300   6.680   2.966 -2.3013  0.5772  1.7375
  448MOL0     H61801   4.435   6.789   2.964  0.6328 -2.8407 -1.1422
  448MOL0     H61802   4.307   6.962   3.065  0.0879 -0.1980  3.6989
  448MOL0     H61803   4.168   6.863   3.111 -0.3764  1.8039  0.0082
  448MOL0     H61804   4.209   6.337   3.507 -0.8610 -2.1433  0.3792
  448MOL0     H61805   3.966   6.387   3.554  1.2908 -0.1181 -3.2582
  448MOL0     H61806   3.700   6.650   3.844 -1.6781  1.6069  0.5769
  448MOL0     H61807   3.446   6.680   3.826 -2.0546 -0.7596  2.2572
  448MOL0     H61808   1.574   7.134   3.459 -1.5255  0.2798  0.1132
  448MOL0     H61809   1.342   7.052   3.402  2.0577  0.5569 -1.2858
  448MOL0     H61810   1.104   6.643   3.492 -0.9883  2.1995 -0.2430
  448MOL0     H61811   0.926   6.492   3.452 -1.0877  2.8463  0.2648
  448MOL0     H61812   0.688   6.315   3.322 -3.0648  0.6083 -0.5279
  448MOL0     H61813   0.725   6.468   3.419 -2.8169 -1.1003  1.1393
  448MOL0     H61814   0.502   6.455   3.366  0.8312  1.4773  0.8302
  448MOL0     H61815   0.542   6.459   3.184  0.0573  5.3069 -1.3681
  448MOL0     H61816   0.610   6.694   3.350 -2.0875  0.8548 -0.5010
  448MOL0     H61817   0.637   6.663   3.181 -0.6621  1.3770  0.3124
  448MOL0     H61818   0.428   6.804   3.262  1.0416  0.2630 -1.5290
  448MOL0     H61819   0.368   6.663   3.338 -0.5893 -1.3555 -0.4821
  448MOL0     H61820   0.224   6.564   2.965  0.4414 -0.2125  0.2905
  448MOL0     H61821   0.940   6.588   3.039 -0.7906 -1.0067 -0.2611
  448MOL0     H61822   1.111   6.886   3.072  1.5184  0.4767 -0.5370
  448MOL0     H61823   1.220   6.757   3.015 -0.1162 -0.5233 -2.2221
  448MOL0     H61824   1.051   6.755   2.961 -1.7563 -0.7254  1.0168
  449MOL0     O61825   6.430   2.600   3.138  0.2287  0.1557 -0.7418
  449MOL0     C61826   6.394   2.492   3.191 -0.4189 -0.2716  0.4233
  449MOL0     O61827   6.472   2.386   3.235  0.0718 -0.0948  0.9549
  449MOL0     C61828   6.606   2.394   3.234 -0.1356 -0.1236 -0.3032
  449MOL0     C61829   6.674   2.430   3.126  0.1803 -0.4284  1.1206
  449MOL0     C61830   6.818   2.424   3.114  0.3161 -0.2071 -0.8180
  449MOL0     C61831   6.887   2.384   3.230 -0.5931 -0.1316  0.5255
  449MOL0     O61832   7.023   2.394   3.203 -0.6776 -0.0653  0.0727
  449MOL0     C61833   7.117   2.340   3.295 -0.1353  0.0471 -0.1471
  449MOL0     C61834   7.257   2.370   3.240 -0.0485  0.0574 -0.0725
  449MOL0     C61835   7.367   2.303   3.331  0.1358 -0.2163  0.1425
  449MOL0     C61836   7.507   2.336   3.276 -0.0190  0.3371  0.6182
  449MOL0     C61837   7.613   2.255   3.357  0.5389 -0.4636 -0.0163
  449MOL0     C61838   7.747   2.314   3.320 -0.7456 -0.1088 -0.5011
  449MOL0     C61839   7.863   2.240   3.388  0.1221 -0.3352  0.3057
  449MOL0     C61840   7.849   2.248   3.542  0.4011  0.0508 -0.4022
  449MOL0     N61841   7.980   2.228   3.611  0.3520  0.4752  0.6513
  449MOL0     C61842   8.078   2.133   3.589 -0.0791 -0.7866  0.3645
  449MOL0     C61843   8.174   2.161   3.670 -1.2345 -0.0164 -0.5847
  449MOL0     C61844   8.316   2.086   3.663 -0.2805  0.0029 -0.0601
  449MOL0     C61845   8.428   2.186   3.660  0.4993  0.4087  0.5059
  449MOL0     C61846   8.485   2.212   3.804 -0.5468 -0.5932  0.4080
  449MOL0     C61847   8.583   2.117   3.857 -0.9990 -0.3109 -0.0289
  449MOL0     O61848   8.708   2.102   3.784  0.4333  0.2585 -0.1211
  449MOL0     C61849   8.826   2.141   3.846  0.0290  0.6139  0.0529
  449MOL0     C61850   8.925   2.195   3.767  0.2897 -0.3393 -0.3144
  449MOL0     C61851   9.047   2.241   3.828  0.3199  0.7450  0.2323
  449MOL0     C61852   9.160   2.293   3.743 -0.0071  0.6401  0.3080
  449MOL0     C61853   9.072   2.229   3.969 -0.0486  0.3941  0.8617
  449MOL0     C61854   9.206   2.261   4.038  0.4756  0.2878 -0.4053
  449MOL0     O61855   9.280   2.363   3.984 -0.0029  0.5857 -0.1530
  449MOL0     C61856   9.402   2.390   4.024  0.7870 -0.2692 -0.0709
  449MOL0     C61857   9.494   2.429   3.931 -0.1164 -0.3604  0.4247
  449MOL0     C61858   9.622   2.459   3.980 -0.0336 -1.8049  0.0203
  449MOL0     C61859   9.656   2.475   4.115  0.0198 -0.0306  0.2139
  449MOL0     O61860   9.784   2.500   4.143  0.3578  0.0925 -0.2514
  449MOL0     C61861   9.792   2.612   4.234 -0.7758 -0.9499  0.5166
  449MOL0     C61862   9.945   2.652   4.261 -0.0707 -0.5059 -0.8247
  449MOL0     C61863  10.010   2.543   4.355  0.3853  0.2363  0.2788
  449MOL0     C61864  10.080   2.617   4.476 -0.1812 -0.4519  0.3405
  449MOL0     C61865  10.123   2.506   4.570 -0.6455 -0.1528 -0.2152
  449MOL0     C61866  10.218   2.570   4.679  0.3657 -0.2644 -0.6701
  449MOL0     C61867  10.298   2.459   4.758  0.0712 -0.4318  0.4980
  449MOL0     C61868  10.212   2.346   4.797  0.9826 -0.7973  0.3962
  449MOL0    Cl61869  10.319   2.236   4.891 -0.2956  0.0091 -0.4769
  449MOL0     C61870   9.559   2.450   4.211  0.4033 -0.1045  0.3346
  449MOL0     C61871   9.429   2.405   4.164  0.2274  0.3504  0.7566
  449MOL0     O61872   9.256   2.177   4.108 -0.4428 -0.1910 -0.2688
  449MOL0     C61873   8.973   2.158   4.038 -0.2673 -0.4039 -0.4401
  449MOL0     C61874   8.849   2.125   3.981 -0.8286 -0.4558 -0.2102
  449MOL0     N61875   8.149   2.275   3.743  0.1782  0.0389 -0.1809
  449MOL0     N61876   8.030   2.313   3.704  0.0937  0.0385  0.1673
  449MOL0     C61877   6.819   2.341   3.342  0.2976 -0.4663  0.2750
  449MOL0     C61878   6.678   2.347   3.340  0.1066 -0.8623 -0.6229
  449MOL0     C61879   6.251   2.479   3.183  0.1959  0.0022  0.7834
  449MOL0     C61880   6.197   2.367   3.119  0.9972 -0.4777 -0.6364
  449MOL0     C61881   6.055   2.351   3.104  0.8899  0.0510  0.5289
  449MOL0     C61882   5.969   2.448   3.151  0.3482 -0.0607  0.5285
  449MOL0     O61883   5.834   2.446   3.137 -0.3288 -0.4080  0.2420
  449MOL0     C61884   5.776   2.341   3.062 -0.3419 -0.2587 -0.2366
  449MOL0     C61885   5.619   2.352   3.071  0.8425 -1.2520  0.0835
  449MOL0     C61886   5.544   2.401   3.196 -0.1722 -0.0850  0.7886
  449MOL0     C61887   5.394   2.378   3.180  0.1853 -0.3725 -0.0712
  449MOL0     C61888   5.338   2.443   3.296 -0.1970 -0.4325 -0.1894
  449MOL0     C61889   5.284   2.489   3.396  0.5519  0.4935  0.7058
  449MOL0     C61890   6.027   2.558   3.220 -0.0745  0.6014 -0.5071
  449MOL0     C61891   6.164   2.568   3.245  0.0498  0.2723  0.6081
  449MOL0     C61892   6.211   2.684   3.322 -0.0909 -0.8251 -0.0735
  449MOL0     H61893   6.624   2.472   3.040  2.5972  3.7616  1.4693
  449MOL0     H61894   6.864   2.468   3.026 -1.2300  1.0404 -1.0270
  449MOL0     H61895   7.106   2.231   3.305 -0.6970  0.0479 -0.7083
  449MOL0     H61896   7.112   2.384   3.395 -0.8468 -0.2771 -0.0311
  449MOL0     H61897   7.252   2.331   3.138 -3.5638 -2.3666  0.8325
  449MOL0     H61898   7.265   2.479   3.227  1.2592 -0.2998 -3.1251
  449MOL0     H61899   7.359   2.346   3.431  1.4872  0.3680  0.0173
  449MOL0     H61900   7.358   2.194   3.335 -0.5239 -0.2174 -0.8577
  449MOL0     H61901   7.515   2.294   3.176  0.3312 -0.3264  0.9157
  449MOL0     H61902   7.526   2.443   3.275  1.6007  0.0923 -1.4966
  449MOL0     H61903   7.607   2.151   3.324 -1.1168 -0.3188 -0.2694
  449MOL0     H61904   7.593   2.255   3.465 -2.4230 -2.8486 -0.4317
  449MOL0     H61905   7.755   2.306   3.211  0.1835 -1.3094 -0.3637
  449MOL0     H61906   7.760   2.419   3.346 -0.1040 -0.3546  0.2136
  449MOL0     H61907   7.957   2.294   3.367  0.6635 -1.4169 -0.1173
  449MOL0     H61908   7.873   2.139   3.348  2.3265 -0.6092  1.3752
  449MOL0     H61909   7.798   2.336   3.581 -1.6237 -1.0474 -0.4693
  449MOL0     H61910   7.789   2.164   3.578 -2.0985  1.9225  0.0004
  449MOL0     H61911   8.080   2.044   3.526  1.4097  0.0976 -0.9206
  449MOL0     H61912   8.321   2.018   3.577 -0.0048 -1.0902  0.7924
  449MOL0     H61913   8.327   2.022   3.751  0.7026 -0.6284 -0.6121
  449MOL0     H61914   8.510   2.149   3.598  0.6210  2.1401 -0.4414
  449MOL0     H61915   8.393   2.281   3.619 -2.0679 -0.4310  0.5949
  449MOL0     H61916   8.547   2.300   3.785  2.0409 -2.1173  1.2648
  449MOL0     H61917   8.402   2.230   3.873 -1.7592  0.4351 -1.2368
  449MOL0     H61918   8.600   2.134   3.963 -0.9940 -0.6820  0.0334
  449MOL0     H61919   8.534   2.019   3.852  0.9706 -1.3739  0.4950
  449MOL0     H61920   8.915   2.210   3.659  0.9116 -0.5828 -0.4107
  449MOL0     H61921   9.136   2.264   3.640 -2.8846  1.8625  0.5420
  449MOL0     H61922   9.254   2.246   3.774 -0.4983 -1.3883 -1.0533
  449MOL0     H61923   9.168   2.402   3.755  1.1292  0.5423  0.5062
  449MOL0     H61924   9.481   2.426   3.823 -1.2749 -2.1855  0.5724
  449MOL0     H61925   9.701   2.485   3.910 -1.8782  1.3781 -1.1159
  449MOL0     H61926   9.747   2.705   4.200  1.9718 -0.1043 -1.1228
  449MOL0     H61927   9.747   2.587   4.331 -0.3770  2.6853  1.7900
  449MOL0     H61928   9.994   2.664   4.164 -0.8693  1.0283 -1.0653
  449MOL0     H61929   9.948   2.754   4.298  1.2891 -0.5847 -0.6696
  449MOL0     H61930  10.077   2.485   4.291 -1.8503  0.1835 -2.2132
  449MOL0     H61931   9.939   2.471   4.397  0.5760 -0.0659  0.0847
  449MOL0     H61932  10.019   2.687   4.533  1.1906  0.4346  0.7841
  449MOL0     H61933  10.168   2.668   4.436 -0.9419  1.3351  0.8774
  449MOL0     H61934  10.029   2.468   4.611 -0.4463  0.3288  0.7187
  449MOL0     H61935  10.173   2.430   4.510 -1.1714 -0.1352 -0.6837
  449MOL0     H61936  10.153   2.631   4.742 -1.1531 -0.3288 -2.1197
  449MOL0     H61937  10.295   2.630   4.630  0.6208  0.1426  0.2139
  449MOL0     H61938  10.345   2.511   4.842 -1.4662 -0.1913  1.2325
  449MOL0     H61939  10.376   2.416   4.694  0.6781  0.7145  0.4366
  449MOL0     H61940  10.167   2.293   4.713  1.5450 -1.9703  0.8089
  449MOL0     H61941  10.137   2.377   4.870 -0.6688 -3.9352  0.2096
  449MOL0     H61942   9.598   2.445   4.312  2.1361 -3.9149 -0.3530
  449MOL0     H61943   9.350   2.381   4.234  1.2743 -1.4930  1.3804
  449MOL0     H61944   8.990   2.148   4.145 -0.9024  0.9893 -0.1900
  449MOL0     H61945   8.769   2.076   4.036 -1.8521  0.1655 -1.1037
  449MOL0     H61946   6.866   2.295   3.428 -0.4193  0.1366  1.0126
  449MOL0     H61947   6.622   2.300   3.421  2.0769 -2.9985 -0.4023
  449MOL0     H61948   6.258   2.283   3.088 -1.3847 -2.2811 -0.7686
  449MOL0     H61949   6.020   2.258   3.062 -0.9419 -0.2332  2.5008
  449MOL0     H61950   5.800   2.338   2.955  0.8007  1.0355 -0.0336
  449MOL0     H61951   5.810   2.249   3.110 -0.2944 -0.7571 -1.1966
  449MOL0     H61952   5.580   2.254   3.044 -0.0554 -0.8930  0.0587
  449MOL0     H61953   5.590   2.413   2.985  0.7992 -1.4863 -0.0694
  449MOL0     H61954   5.586   2.346   3.282  1.8402  0.9039  0.4859
  449MOL0     H61955   5.573   2.504   3.218 -1.6362  0.8561 -1.4235
  449MOL0     H61956   5.377   2.270   3.185  0.5867 -0.3754  1.7721
  449MOL0     H61957   5.361   2.427   3.088 -1.4819  0.5300  0.9559
  449MOL0     H61958   5.234   2.528   3.483 -0.4360  2.2941 -0.6032
  449MOL0     H61959   5.960   2.637   3.252 -0.9099 -0.5334  0.6639
  449MOL0     H61960   6.217   2.670   3.431  1.0039  2.0759  0.3343
  449MOL0     H61961   6.316   2.704   3.299  0.6561 -1.7821  2.2032
  449MOL0     H61962   6.154   2.776   3.301 -0.7917 -1.8886 -3.3867
  450MOL0     O61963   2.091   5.845  10.569 -0.2795  0.1712  0.0885
  450MOL0     C61964   2.093   5.727  10.602  0.2722 -0.5173 -0.7477
  450MOL0     O61965   2.207   5.650  10.593  0.4488  0.3232 -0.1599
  450MOL0     C61966   2.297   5.689  10.493  0.4843  0.6270  1.0814
  450MOL0     C61967   2.242   5.723  10.365  0.2095  0.9977  0.4615
  450MOL0     C61968   2.316   5.744  10.255  0.0306 -0.6784  0.1045
  450MOL0     C61969   2.457   5.726  10.266 -0.0649 -0.1329 -0.0834
  450MOL0     O61970   2.527   5.765  10.155 -0.1935 -1.1579  0.2473
  450MOL0     C61971   2.596   5.891  10.181  0.0121  0.2205 -0.4771
  450MOL0     C61972   2.746   5.869  10.204 -0.0504  0.5232 -0.2126
  450MOL0     C61973   2.818   5.774  10.105 -0.0939 -1.2080  0.2129
  450MOL0     C61974   2.955   5.724  10.159  0.0216  0.1186  0.2982
  450MOL0     C61975   3.044   5.664  10.061  0.2109  0.7582  1.0471
  450MOL0     C61976   3.153   5.579  10.125 -0.5146  0.0138 -0.7046
  450MOL0     C61977   3.245   5.534  10.013  0.3308 -0.1869  0.6760
  450MOL0     C61978   3.375   5.482  10.070  0.4707  0.3519  0.6911
  450MOL0     N61979   3.356   5.386  10.182 -0.1082  0.4083 -0.3895
  450MOL0     C61980   3.355   5.418  10.317 -0.4090 -0.3319  0.0678
  450MOL0     C61981   3.337   5.302  10.381 -0.2482 -0.2664  0.3193
  450MOL0     C61982   3.342   5.289  10.528 -0.1764 -0.3724  0.1555
  450MOL0     C61983   3.490   5.315  10.580  0.5091 -0.1886  0.8018
  450MOL0     C61984   3.476   5.343  10.730  0.2108 -0.2250  0.3929
  450MOL0     C61985   3.610   5.360  10.798 -0.5900  0.1280 -0.8348
  450MOL0     O61986   3.703   5.251  10.760  0.0646  0.3687 -0.0939
  450MOL0     C61987   3.837   5.283  10.777 -0.3193  0.0353  0.1883
  450MOL0     C61988   3.937   5.206  10.721 -1.1169  0.0264 -0.1803
  450MOL0     C61989   4.074   5.225  10.747  0.8147  0.7208  0.2913
  450MOL0     C61990   4.173   5.120  10.685 -0.0187  0.4126  0.0285
  450MOL0     C61991   4.115   5.334  10.825  0.2448  0.1571  0.1541
  450MOL0     C61992   4.253   5.375  10.849 -0.2546  0.5347  0.0251
  450MOL0     O61993   4.355   5.289  10.830 -0.6869  0.1944  0.3658
  450MOL0     C61994   4.473   5.328  10.887  0.1681  0.5605  0.1958
  450MOL0     C61995   4.501   5.329  11.023  0.6365 -0.4132 -0.9735
  450MOL0     C61996   4.621   5.378  11.073 -0.4929  0.6556 -0.0476
  450MOL0     C61997   4.733   5.407  10.988  0.3316  0.4885  0.3208
  450MOL0     O61998   4.858   5.451  11.025 -0.2945  0.8036 -0.6693
  450MOL0     C61999   4.894   5.429  11.169 -0.1326 -0.0769  0.0141
  450MOL0     C62000   5.038   5.460  11.208 -0.1646 -0.6515  1.0629
  450MOL0     C62001   5.078   5.411  11.350 -0.0316 -0.9411  0.3918
  450MOL0     C62002   5.226   5.412  11.367 -0.0037 -0.3105  0.3888
  450MOL0     C62003   5.279   5.558  11.354  0.5634  0.2301 -0.6981
  450MOL0     C62004   5.425   5.572  11.414  0.2947 -1.3290 -0.1754
  450MOL0     C62005   5.433   5.550  11.564 -0.2986 -0.5496 -0.5383
  450MOL0     C62006   5.371   5.651  11.660  0.1631  0.1487 -0.4670
  450MOL0    Cl62007   5.446   5.806  11.638  0.1605  0.0964  0.6765
  450MOL0     C62008   4.711   5.381  10.848 -0.3932  0.9830  0.4458
  450MOL0     C62009   4.584   5.353  10.798 -0.4158  0.1494  0.1922
  450MOL0     O62010   4.264   5.494  10.884 -0.7763  0.1459 -0.1867
  450MOL0     C62011   4.010   5.415  10.880 -0.6010  0.0067  0.2399
  450MOL0     C62012   3.880   5.389  10.857  1.2566 -0.2083 -0.1324
  450MOL0     N62013   3.339   5.198  10.288 -0.3195 -0.4802 -0.5877
  450MOL0     N62014   3.343   5.249  10.168  0.2836  0.0113  0.7597
  450MOL0     C62015   2.516   5.683  10.388  0.2693 -0.0216 -0.8887
  450MOL0     C62016   2.434   5.664  10.504 -0.4328 -0.0527  0.3916
  450MOL0     C62017   1.980   5.665  10.675 -0.3084  0.5243  0.0039
  450MOL0     C62018   2.007   5.546  10.746  0.1830  0.8915  0.1586
  450MOL0     C62019   1.905   5.486  10.825  0.3014 -0.6975 -0.2073
  450MOL0     C62020   1.776   5.529  10.828  0.4122 -0.1793 -0.3649
  450MOL0     O62021   1.687   5.454  10.897 -0.1024 -0.5736  0.1246
  450MOL0     C62022   1.555   5.505  10.921 -0.2997 -0.2243  0.1179
  450MOL0     C62023   1.466   5.424  11.010  0.4563 -0.1839  0.2370
  450MOL0     C62024   1.435   5.290  10.942  0.2349  0.2541 -0.1921
  450MOL0     C62025   1.288   5.238  10.958 -0.5205  0.2201 -0.4635
  450MOL0     C62026   1.259   5.194  11.096  0.1567 -0.6789  0.2016
  450MOL0     C62027   1.239   5.145  11.203 -0.2537  0.1127  0.3211
  450MOL0     C62028   1.747   5.648  10.756 -0.0709 -0.2402 -0.4344
  450MOL0     C62029   1.849   5.715  10.680  0.5758 -0.6988  0.1746
  450MOL0     C62030   1.808   5.831  10.589 -0.1115 -1.3359  0.4904
  450MOL0     H62031   2.136   5.739  10.347  0.2554 -0.5065 -1.4058
  450MOL0     H62032   2.277   5.781  10.161  0.1604  0.6871  0.5613
  450MOL0     H62033   2.557   5.939  10.271 -0.2873 -1.7883  0.5210
  450MOL0     H62034   2.584   5.961  10.098 -3.1328  0.3563 -0.0050
  450MOL0     H62035   2.797   5.964  10.191  2.0938 -0.1542  2.3816
  450MOL0     H62036   2.758   5.833  10.307  3.1811  0.2218 -0.5820
  450MOL0     H62037   2.755   5.688  10.081 -0.4303 -0.6257 -1.0673
  450MOL0     H62038   2.847   5.817  10.009  3.6942  0.2061  1.7837
  450MOL0     H62039   3.003   5.810  10.207 -3.0987  2.4432 -0.4292
  450MOL0     H62040   2.938   5.646  10.233 -2.3362 -0.9595 -1.2574
  450MOL0     H62041   3.090   5.736   9.993 -1.5275 -0.7409 -1.8835
  450MOL0     H62042   2.993   5.600   9.989 -1.4211  1.4523  1.5472
  450MOL0     H62043   3.208   5.646  10.191 -0.5697  0.4704 -1.1175
  450MOL0     H62044   3.108   5.498  10.184 -2.6334  2.6239  1.5689
  450MOL0     H62045   3.272   5.616   9.945  1.0481 -0.7939  0.2095
  450MOL0     H62046   3.205   5.455   9.948  0.8080  0.3635 -0.3095
  450MOL0     H62047   3.425   5.429   9.989  1.6825 -1.5834  2.6140
  450MOL0     H62048   3.444   5.564  10.094  1.2476  0.3315 -1.2920
  450MOL0     H62049   3.388   5.512  10.361 -2.3741  1.3004 -1.6810
  450MOL0     H62050   3.310   5.189  10.559 -1.0087 -0.8154 -2.0076
  450MOL0     H62051   3.275   5.364  10.572  1.6881  2.1374 -1.0306
  450MOL0     H62052   3.553   5.227  10.567  0.2081 -0.1165 -1.4984
  450MOL0     H62053   3.547   5.387  10.520 -0.8615  1.2352  1.1383
  450MOL0     H62054   3.412   5.431  10.743 -0.6029 -0.9879  1.6090
  450MOL0     H62055   3.426   5.257  10.773  1.3085 -1.2144 -0.2431
  450MOL0     H62056   3.653   5.457  10.771 -1.3741  0.3434 -1.3548
  450MOL0     H62057   3.604   5.358  10.907 -3.1025 -0.3947 -0.9312
  450MOL0     H62058   3.898   5.120  10.669 -1.6206  0.5344 -0.6590
  450MOL0     H62059   4.247   5.090  10.759  2.0759 -2.0579 -2.7735
  450MOL0     H62060   4.225   5.161  10.598 -1.7901 -1.4875 -2.0662
  450MOL0     H62061   4.133   5.023  10.652  1.2608 -0.1145 -0.0258
  450MOL0     H62062   4.420   5.323  11.095  0.4322  2.2863 -0.8653
  450MOL0     H62063   4.638   5.374  11.181  1.2958  0.0543 -0.3217
  450MOL0     H62064   4.835   5.505  11.221 -0.0804  0.3853 -0.5849
  450MOL0     H62065   4.868   5.330  11.208 -0.8872  0.0467 -0.1544
  450MOL0     H62066   5.094   5.406  11.130 -1.2915  2.8459 -2.5274
  450MOL0     H62067   5.067   5.564  11.194  2.1232 -1.3096  0.3509
  450MOL0     H62068   5.037   5.311  11.369 -0.0334 -0.9915  0.1302
  450MOL0     H62069   5.038   5.483  11.422  1.3774  0.7245 -0.4103
  450MOL0     H62070   5.268   5.351  11.287  2.6771  0.8247  0.8300
  450MOL0     H62071   5.237   5.357  11.462  0.7924 -0.4988  0.1898
  450MOL0     H62072   5.269   5.589  11.250 -0.3601  0.2790 -0.6037
  450MOL0     H62073   5.214   5.623  11.412 -0.3300 -1.6914  0.5710
  450MOL0     H62074   5.458   5.673  11.391  0.0855 -0.9951  0.9129
  450MOL0     H62075   5.496   5.512  11.357  2.4174  0.8744  0.0120
  450MOL0     H62076   5.539   5.541  11.594  0.6402  0.5212 -3.2839
  450MOL0     H62077   5.395   5.449  11.586 -0.7492 -0.4812 -0.9973
  450MOL0     H62078   5.382   5.616  11.763  2.3597 -3.2371 -1.7060
  450MOL0     H62079   5.263   5.652  11.642  0.3489 -0.2481 -1.6786
  450MOL0     H62080   4.793   5.402  10.781  0.5646 -1.9078  0.5811
  450MOL0     H62081   4.566   5.352  10.691  0.8697  0.8522 -0.0443
  450MOL0     H62082   4.039   5.501  10.940  2.1447 -0.0016 -0.9432
  450MOL0     H62083   3.812   5.455  10.911  0.8617 -0.4817 -0.2914
  450MOL0     H62084   2.621   5.662  10.404  0.2564 -0.2107 -1.0462
  450MOL0     H62085   2.460   5.632  10.604 -2.3170  0.1169  0.9655
  450MOL0     H62086   2.109   5.508  10.746 -0.7833 -1.9643 -0.8835
  450MOL0     H62087   1.920   5.400  10.888 -0.5816 -2.4802 -2.2897
  450MOL0     H62088   1.555   5.606  10.964  0.0178 -1.2713  2.7426
  450MOL0     H62089   1.504   5.512  10.824  0.1378  0.9821 -0.0481
  450MOL0     H62090   1.373   5.477  11.031  0.4258  0.3410 -1.0975
  450MOL0     H62091   1.518   5.416  11.106 -0.6375 -0.5237  0.8170
  450MOL0     H62092   1.456   5.292  10.835 -1.4240 -0.5521 -0.5671
  450MOL0     H62093   1.498   5.213  10.988 -0.2159 -0.2989 -0.4867
  450MOL0     H62094   1.280   5.151  10.893 -2.5356  1.6687 -2.2775
  450MOL0     H62095   1.212   5.304  10.915  0.2948  1.6524  0.2168
  450MOL0     H62096   1.221   5.114  11.303  2.5117  0.1639  0.9288
  450MOL0     H62097   1.642   5.675  10.746 -0.4918 -0.7538  1.8577
  450MOL0     H62098   1.847   5.922  10.635 -2.1810  0.1549 -0.5581
  450MOL0     H62099   1.854   5.809  10.492  0.3603 -0.1180  0.4327
  450MOL0     H62100   1.699   5.841  10.585 -0.0664 -0.4528  1.2632
  451MOL0     O62101   0.891   0.577  10.544  0.2186  0.0968 -0.0835
  451MOL0     C62102   0.815   0.661  10.591  0.1434 -0.0211 -0.7241
  451MOL0     O62103   0.820   0.705  10.719  0.6867  0.1436  0.1605
  451MOL0     C62104   0.926   0.693  10.804 -0.0629 -0.1047 -0.4976
  451MOL0     C62105   1.060   0.679  10.776  0.5554 -0.1991  0.2256
  451MOL0     C62106   1.156   0.653  10.881 -0.0177  0.2196  0.1823
  451MOL0     C62107   1.117   0.643  11.014  0.5700 -1.1120 -0.0295
  451MOL0     O62108   1.195   0.612  11.124  0.2395 -0.2855 -0.3299
  451MOL0     C62109   1.335   0.611  11.098 -0.0804  0.8008  0.0428
  451MOL0     C62110   1.419   0.609  11.224 -0.0970 -0.1169 -0.2795
  451MOL0     C62111   1.562   0.564  11.192 -0.5198 -0.2801 -0.4397
  451MOL0     C62112   1.590   0.409  11.199 -0.8448 -0.6851 -1.3255
  451MOL0     C62113   1.733   0.370  11.148  0.2049  0.0238 -0.1126
  451MOL0     C62114   1.777   0.233  11.199  0.2226 -0.5973  0.4935
  451MOL0     C62115   1.931   0.232  11.214  0.0096  0.5012  0.4991
  451MOL0     C62116   2.007   0.255  11.084  0.3558  0.4525 -0.6067
  451MOL0     N62117   2.151   0.220  11.080  0.3722  0.5505 -0.1013
  451MOL0     C62118   2.211   0.100  11.082 -0.2090 -0.2324 -0.7696
  451MOL0     C62119   2.342   0.127  11.058 -0.9369  0.7670  0.0213
  451MOL0     C62120   2.461   0.040  11.061 -0.5538  0.4782  0.5330
  451MOL0     C62121   2.443  -0.096  11.134 -0.8734 -0.5396 -0.1815
  451MOL0     C62122   2.567  -0.184  11.121 -0.2625  0.3060  0.2082
  451MOL0     C62123   2.546  -0.303  11.227 -0.1923 -0.7144 -0.7563
  451MOL0     O62124   2.653  -0.379  11.233 -0.5593  0.8207  0.1294
  451MOL0     C62125   2.774  -0.335  11.275  0.2056 -0.0975 -0.2102
  451MOL0     C62126   2.882  -0.404  11.230 -0.1601 -0.2575  0.3210
  451MOL0     C62127   3.004  -0.366  11.274 -1.6113 -0.5705  0.2074
  451MOL0     C62128   3.126  -0.454  11.227  0.4480 -0.1084 -1.1183
  451MOL0     C62129   3.030  -0.252  11.356  0.5345  0.3196 -0.5676
  451MOL0     C62130   3.156  -0.219  11.419  0.1374  0.3478  0.0671
  451MOL0     O62131   3.184  -0.083  11.421  0.0995  0.6525 -0.2065
  451MOL0     C62132   3.313  -0.043  11.434  0.1676  0.4062  0.4424
  451MOL0     C62133   3.423  -0.094  11.368 -0.0887 -1.1806  0.6805
  451MOL0     C62134   3.551  -0.048  11.386 -0.5211  0.8553  0.4221
  451MOL0     C62135   3.577   0.050  11.475  0.6125  0.1854  0.4868
  451MOL0     O62136   3.698   0.107  11.488  0.1976 -0.2545 -0.0190
  451MOL0     C62137   3.812   0.019  11.484 -0.3179  0.1992 -0.8634
  451MOL0     C62138   3.917   0.076  11.574  0.2916  0.5951 -0.1729
  451MOL0     C62139   4.052   0.006  11.542  0.8545  0.3166  0.5990
  451MOL0     C62140   4.149   0.048  11.660 -0.2506 -0.5216  0.5490
  451MOL0     C62141   4.290  -0.020  11.651  0.1669 -0.3140  0.3971
  451MOL0     C62142   4.355  -0.008  11.519  0.5540  0.2054  0.2342
  451MOL0     C62143   4.426   0.128  11.511 -0.5162  0.0460 -0.1852
  451MOL0     C62144   4.496   0.162  11.383 -0.1665  0.2055 -0.0215
  451MOL0    Cl62145   4.618   0.037  11.353  0.1519  0.2105 -0.1641
  451MOL0     C62146   3.465   0.110  11.536 -0.4550 -0.4090  0.1618
  451MOL0     C62147   3.334   0.067  11.519  0.4991  0.1807  0.4563
  451MOL0     O62148   3.233  -0.304  11.453  0.8041  0.2064 -0.1034
  451MOL0     C62149   2.919  -0.183  11.393  0.5773 -0.4271  0.1317
  451MOL0     C62150   2.791  -0.220  11.357 -0.1261 -0.2556  0.5048
  451MOL0     N62151   2.356   0.265  11.054  0.4374 -0.1494 -0.6241
  451MOL0     N62152   2.238   0.319  11.069 -0.5436  1.1974 -0.3905
  451MOL0     C62153   0.984   0.672  11.042 -0.4389 -0.7478 -0.7784
  451MOL0     C62154   0.892   0.686  10.940  0.0570 -0.0352 -0.0222
  451MOL0     C62155   0.706   0.707  10.497  1.0692  0.1592  0.4058
  451MOL0     C62156   0.700   0.666  10.360 -0.7135  0.3900  0.0157
  451MOL0     C62157   0.581   0.684  10.286  0.0602 -0.0140  0.1791
  451MOL0     C62158   0.469   0.748  10.333  0.1607 -0.9346 -0.6195
  451MOL0     O62159   0.368   0.762  10.246  0.0462  0.6709 -0.4810
  451MOL0     C62160   0.264   0.857  10.276 -1.2352  0.1804 -0.0614
  451MOL0     C62161   0.156   0.861  10.164  0.8109  0.1441  0.7696
  451MOL0     C62162   0.064   0.741  10.170  0.4528 -1.0974  0.9808
  451MOL0     C62163  -0.018   0.723  10.042 -0.6929  1.1647 -0.8090
  451MOL0     C62164  -0.089   0.844  10.014 -0.1410  0.6767 -0.2243
  451MOL0     C62165  -0.156   0.943   9.992 -0.6253 -0.0902  0.4936
  451MOL0     C62166   0.481   0.806  10.460  0.7893 -0.7877 -0.2489
  451MOL0     C62167   0.597   0.789  10.541 -0.3131  0.2370 -0.2433
  451MOL0     C62168   0.594   0.862  10.681  1.0071 -0.6775  0.3762
  451MOL0     H62169   1.106   0.677  10.678  1.6598  0.0926  0.7239
  451MOL0     H62170   1.257   0.633  10.847  0.4536  0.7638  1.1963
  451MOL0     H62171   1.373   0.697  11.043  1.0848 -0.0340 -0.4930
  451MOL0     H62172   1.365   0.517  11.051  4.5138 -0.0135  3.7509
  451MOL0     H62173   1.423   0.714  11.252 -0.2017 -0.4545  1.0508
  451MOL0     H62174   1.377   0.549  11.305 -0.9961 -0.5815 -1.0653
  451MOL0     H62175   1.587   0.608  11.095  0.8797  0.6612  0.3150
  451MOL0     H62176   1.633   0.605  11.264 -0.3858 -1.9245  0.4248
  451MOL0     H62177   1.579   0.390  11.306  0.0105  1.0336 -0.9142
  451MOL0     H62178   1.519   0.349  11.141  0.1732 -1.7755 -1.4858
  451MOL0     H62179   1.814   0.433  11.185  2.0736 -0.8885 -2.3892
  451MOL0     H62180   1.736   0.375  11.039  0.5048  0.2837 -0.0935
  451MOL0     H62181   1.730   0.205  11.294  0.5717 -0.7471  0.6230
  451MOL0     H62182   1.739   0.162  11.126 -1.9043 -0.6451  1.5455
  451MOL0     H62183   1.957   0.131  11.247  2.8553  1.2103  0.7195
  451MOL0     H62184   1.971   0.295  11.294 -2.7289  2.6619  0.3264
  451MOL0     H62185   1.963   0.215  10.992 -0.0349  0.9578 -0.6449
  451MOL0     H62186   1.999   0.364  11.084  1.3249  0.6035  2.0789
  451MOL0     H62187   2.163   0.003  11.089 -0.7130  0.1156  1.8311
  451MOL0     H62188   2.550   0.087  11.105  0.4423  0.1652 -1.0517
  451MOL0     H62189   2.486   0.012  10.958 -0.4625 -0.4828  0.8025
  451MOL0     H62190   2.423  -0.074  11.240  2.5958 -3.7654  1.3921
  451MOL0     H62191   2.367  -0.163  11.093 -2.1795  0.5128  0.4605
  451MOL0     H62192   2.589  -0.211  11.018 -2.7938  0.8583 -0.5670
  451MOL0     H62193   2.650  -0.121  11.154  0.5067  0.1392 -1.3362
  451MOL0     H62194   2.536  -0.248  11.322  1.6207  0.1727 -1.0436
  451MOL0     H62195   2.455  -0.363  11.212 -1.4877 -0.1789  3.5319
  451MOL0     H62196   2.873  -0.495  11.172  0.2188  1.0779 -1.9809
  451MOL0     H62197   3.201  -0.386  11.187  0.5075  0.3909 -0.1774
  451MOL0     H62198   3.099  -0.533  11.157 -1.4105 -2.1834  1.6961
  451MOL0     H62199   3.161  -0.502  11.319  1.1547 -1.7555 -2.1816
  451MOL0     H62200   3.402  -0.163  11.287  0.7938 -0.7858  0.0974
  451MOL0     H62201   3.634  -0.088  11.329  0.5814 -0.8399  3.0183
  451MOL0     H62202   3.798  -0.089  11.498  2.2878 -0.1254 -0.2857
  451MOL0     H62203   3.845   0.025  11.380  2.1038  3.3831 -0.0697
  451MOL0     H62204   3.932   0.182  11.554  2.7644  0.7043  1.7775
  451MOL0     H62205   3.889   0.050  11.677  0.8802  0.1872 -0.1115
  451MOL0     H62206   4.083   0.047  11.446  0.7172  2.0062  1.2366
  451MOL0     H62207   4.043  -0.103  11.538  0.4308  0.3871 -0.9356
  451MOL0     H62208   4.106   0.022  11.757 -0.7083  1.7589  1.0168
  451MOL0     H62209   4.164   0.156  11.655 -3.5528 -0.0061 -2.0290
  451MOL0     H62210   4.355   0.025  11.727 -0.3072  0.5023  0.3231
  451MOL0     H62211   4.274  -0.127  11.670 -0.8218  0.0102  1.5174
  451MOL0     H62212   4.281  -0.011  11.439  0.1843  0.8067  0.5477
  451MOL0     H62213   4.420  -0.095  11.502 -0.7477 -0.5858 -0.9545
  451MOL0     H62214   4.498   0.138  11.593  0.5208  0.0940 -1.0683
  451MOL0     H62215   4.361   0.215  11.519 -1.4346 -0.4940 -1.4785
  451MOL0     H62216   4.550   0.257  11.383 -0.6183  0.4794  1.5700
  451MOL0     H62217   4.424   0.160  11.300  0.0377  2.5126 -0.3184
  451MOL0     H62218   3.474   0.195  11.603 -1.3145 -0.0158 -0.2065
  451MOL0     H62219   3.248   0.121  11.558  0.0713 -0.3359  0.2312
  451MOL0     H62220   2.923  -0.096  11.457  2.3544 -0.0075 -0.5047
  451MOL0     H62221   2.706  -0.173  11.406 -0.5562  1.4150 -1.6906
  451MOL0     H62222   0.953   0.688  11.145  1.3916  1.7963 -0.5260
  451MOL0     H62223   0.790   0.702  10.973  0.0717 -0.0004  0.0075
  451MOL0     H62224   0.790   0.615  10.326 -1.1211 -2.4897  2.8065
  451MOL0     H62225   0.574   0.645  10.185  0.2294  1.6409 -0.5036
  451MOL0     H62226   0.214   0.855  10.373 -1.6960  3.7961 -0.0728
  451MOL0     H62227   0.318   0.952  10.269 -1.8911  0.4545 -1.9365
  451MOL0     H62228   0.202   0.881  10.067  0.6869 -2.6137  0.0598
  451MOL0     H62229   0.086   0.942  10.186 -1.1185 -0.9694 -0.8878
  451MOL0     H62230   0.115   0.644  10.177 -0.6677 -1.8306 -0.4127
  451MOL0     H62231   0.000   0.747  10.259 -0.8539 -0.2970  0.0356
  451MOL0     H62232  -0.089   0.641  10.056 -0.1649  1.1597  2.8496
  451MOL0     H62233   0.035   0.699   9.949 -1.7865 -0.7623 -0.9894
  451MOL0     H62234  -0.219   1.028   9.975 -2.0907 -1.4296 -1.2794
  451MOL0     H62235   0.401   0.867  10.499  0.1782 -2.8751  1.9632
  451MOL0     H62236   0.683   0.922  10.699 -1.0375  3.2862 -1.4558
  451MOL0     H62237   0.512   0.934  10.685  0.5188 -1.1892 -0.1502
  451MOL0     H62238   0.566   0.796  10.763 -0.4361  0.4805  0.8584
  452MOL0     O62239   5.766   4.463  10.064  0.4993 -0.7471  0.2301
  452MOL0     C62240   5.665   4.417  10.125  0.1010 -0.2969  0.3607
  452MOL0     O62241   5.634   4.290  10.132  0.0624 -0.2047  0.3959
  452MOL0     C62242   5.695   4.201  10.042 -0.8073  0.5662 -0.3039
  452MOL0     C62243   5.810   4.134  10.083 -0.2828 -1.3547  0.2971
  452MOL0     C62244   5.876   4.047   9.994  0.1811  0.7941  0.5137
  452MOL0     C62245   5.827   4.032   9.864  0.1051  1.0419  0.7090
  452MOL0     O62246   5.874   3.927   9.797  0.1519 -0.1996 -0.2204
  452MOL0     C62247   5.785   3.858   9.715 -0.9595 -0.1939  0.1555
  452MOL0     C62248   5.868   3.733   9.683  0.2995 -0.1865 -0.8327
  452MOL0     C62249   5.846   3.641   9.803  0.1323  0.7774 -0.8932
  452MOL0     C62250   5.875   3.489   9.776 -0.6447 -0.0982 -0.4953
  452MOL0     C62251   5.936   3.435   9.908  0.8121 -0.7300  1.0075
  452MOL0     C62252   5.982   3.292   9.900 -0.3887 -1.2545 -0.6201
  452MOL0     C62253   6.060   3.252  10.022  0.4557 -0.4129 -0.7340
  452MOL0     C62254   6.123   3.112  10.000 -0.3591  0.4053 -0.4342
  452MOL0     N62255   6.024   3.000   9.993 -0.0724  0.3899 -0.3585
  452MOL0     C62256   5.882   2.994  10.015  0.2032 -0.1671  0.4375
  452MOL0     C62257   5.853   2.862  10.021 -0.1548 -0.3812  0.2994
  452MOL0     C62258   5.732   2.773  10.043 -0.5476  0.3355  0.4151
  452MOL0     C62259   5.745   2.724  10.188 -0.3227  0.7986 -0.8217
  452MOL0     C62260   5.636   2.623  10.226  0.0180  0.3778 -0.4120
  452MOL0     C62261   5.653   2.579  10.375  0.1230 -1.0064  0.3318
  452MOL0     O62262   5.549   2.491  10.414 -0.4726  0.3780  0.1109
  452MOL0     C62263   5.506   2.499  10.551 -0.2780  0.2509  0.1708
  452MOL0     C62264   5.368   2.503  10.580  0.9579  1.0479  0.4963
  452MOL0     C62265   5.313   2.505  10.710  0.2101  1.2245 -0.0680
  452MOL0     C62266   5.165   2.522  10.713 -0.0013  0.1237 -1.2442
  452MOL0     C62267   5.396   2.499  10.820  0.4335 -0.5876  0.6414
  452MOL0     C62268   5.342   2.490  10.962 -0.4161 -0.4948 -0.3698
  452MOL0     O62269   5.441   2.471  11.054 -0.3716  0.2725 -0.6203
  452MOL0     C62270   5.416   2.443  11.184  0.1784 -0.1598 -1.3295
  452MOL0     C62271   5.527   2.473  11.268 -0.5916 -0.1803  0.1127
  452MOL0     C62272   5.508   2.456  11.407 -0.4570  0.3112  1.2264
  452MOL0     C62273   5.385   2.424  11.469  0.2182  0.8010  0.7113
  452MOL0     O62274   5.389   2.409  11.608  0.3082 -0.5005  0.0922
  452MOL0     C62275   5.271   2.355  11.671  0.8225  0.6680  0.2907
  452MOL0     C62276   5.250   2.406  11.819 -0.7267 -0.2301  0.1697
  452MOL0     C62277   5.167   2.314  11.910 -0.1005  0.4972 -0.7322
  452MOL0     C62278   5.166   2.369  12.052 -1.0527  0.6704 -0.2058
  452MOL0     C62279   5.078   2.500  12.055 -1.0953  0.6729  0.4425
  452MOL0     C62280   5.031   2.526  12.193  0.6932  0.1817 -0.1715
  452MOL0     C62281   4.896   2.458  12.209 -0.0345  0.6031 -0.2417
  452MOL0     C62282   4.838   2.454  12.350 -0.5029 -0.0249  0.6999
  452MOL0    Cl62283   4.798   2.620  12.405  0.3657  0.2404 -0.1244
  452MOL0     C62284   5.282   2.383  11.385  0.3822  0.0079  0.7909
  452MOL0     C62285   5.298   2.399  11.247  0.2060 -0.1025 -0.1264
  452MOL0     O62286   5.223   2.508  10.985  1.0462  0.3952  0.3145
  452MOL0     C62287   5.533   2.511  10.799 -0.4804  0.7478  0.0772
  452MOL0     C62288   5.590   2.508  10.665 -0.1446 -0.3861 -0.7589
  452MOL0     N62289   5.971   2.790   9.999  0.4652  0.0128  0.4723
  452MOL0     N62290   6.072   2.868   9.980  0.5055 -0.3872 -0.3017
  452MOL0     C62291   5.726   4.114   9.818 -0.4402 -0.1759 -0.8478
  452MOL0     C62292   5.650   4.192   9.911  0.0510  0.7951  0.8869
  452MOL0     C62293   5.598   4.504  10.231 -0.3671 -1.0471  0.5539
  452MOL0     C62294   5.682   4.571  10.326  0.5927  0.4549  0.4745
  452MOL0     C62295   5.626   4.645  10.430 -0.3900  0.5485  0.2341
  452MOL0     C62296   5.486   4.649  10.436 -0.0249  0.5381  0.7621
  452MOL0     O62297   5.431   4.706  10.548 -0.1664 -0.1556 -0.1299
  452MOL0     C62298   5.312   4.778  10.530  0.7874  0.1062 -0.2200
  452MOL0     C62299   5.311   4.918  10.592  0.4404  0.0615  0.3545
  452MOL0     C62300   5.421   5.019  10.525 -0.6240 -0.2079  0.1452
  452MOL0     C62301   5.443   5.156  10.590  0.3984 -0.5223  0.8099
  452MOL0     C62302   5.497   5.157  10.727 -0.0287  0.0258 -0.4465
  452MOL0     C62303   5.556   5.143  10.831  0.0500  0.3104  0.5112
  452MOL0     C62304   5.406   4.591  10.339 -0.0371  0.2209 -0.1984
  452MOL0     C62305   5.460   4.521  10.235 -0.2653  1.3050 -0.1827
  452MOL0     C62306   5.363   4.458  10.134 -0.2629  0.7294  0.7280
  452MOL0     H62307   5.849   4.149  10.183  3.0612  1.7477 -1.2458
  452MOL0     H62308   5.958   3.979  10.016 -0.8559 -1.1394 -1.1992
  452MOL0     H62309   5.752   3.909   9.624  0.1117 -0.5459 -0.4478
  452MOL0     H62310   5.696   3.832   9.774 -1.4928 -4.4450 -2.0829
  452MOL0     H62311   5.825   3.690   9.592 -0.7409 -0.4743 -0.2237
  452MOL0     H62312   5.975   3.748   9.666  0.4695  1.6538  1.4009
  452MOL0     H62313   5.903   3.674   9.890 -1.1738  0.4940  0.1025
  452MOL0     H62314   5.742   3.645   9.837 -0.2498 -1.0044 -1.6912
  452MOL0     H62315   5.792   3.423   9.749 -0.8169 -1.3189  2.6787
  452MOL0     H62316   5.948   3.484   9.694  0.1131  1.1235  0.0702
  452MOL0     H62317   5.861   3.436   9.987  0.7283  1.9599  0.9940
  452MOL0     H62318   6.012   3.505   9.942  0.5642 -0.2318  0.5523
  452MOL0     H62319   5.893   3.231   9.881 -1.9606  0.5586  0.4840
  452MOL0     H62320   6.054   3.280   9.819 -0.2692 -1.6840 -0.4504
  452MOL0     H62321   5.998   3.255  10.112  1.1315  2.8923 -0.2763
  452MOL0     H62322   6.144   3.319  10.041 -0.1433  0.3549 -0.7504
  452MOL0     H62323   6.197   3.113   9.919  0.2742 -2.0560  0.0394
  452MOL0     H62324   6.179   3.081  10.089 -0.8008 -1.4455 -0.7592
  452MOL0     H62325   5.816   3.072  10.050  1.7885 -0.0201  3.3435
  452MOL0     H62326   5.727   2.684   9.979  1.4222  0.3086  0.2279
  452MOL0     H62327   5.637   2.825  10.028 -1.0322 -0.3045  1.1699
  452MOL0     H62328   5.845   2.681  10.191  1.0855  3.8650  0.3366
  452MOL0     H62329   5.749   2.814  10.250 -0.6156  1.5040 -1.8085
  452MOL0     H62330   5.537   2.668  10.218 -2.1778 -3.2274  2.5618
  452MOL0     H62331   5.643   2.530  10.168  1.1476 -0.3839  0.8922
  452MOL0     H62332   5.756   2.546  10.392  1.1209  2.1301  1.0018
  452MOL0     H62333   5.638   2.669  10.436 -1.8657 -0.2944 -1.0979
  452MOL0     H62334   5.302   2.508  10.495  1.2117 -1.6104  0.0379
  452MOL0     H62335   5.117   2.571  10.629 -1.0279  1.3178 -0.0048
  452MOL0     H62336   5.141   2.589  10.796  0.3805 -0.8310 -0.3244
  452MOL0     H62337   5.114   2.432  10.749 -1.3454  1.1306 -0.5244
  452MOL0     H62338   5.623   2.499  11.224  0.4322 -1.3545  1.5581
  452MOL0     H62339   5.596   2.471  11.469  0.2026 -1.7511  0.8477
  452MOL0     H62340   5.180   2.390  11.621 -0.7624 -3.6092 -0.2285
  452MOL0     H62341   5.279   2.246  11.671  3.8102  0.7872  1.6275
  452MOL0     H62342   5.352   2.425  11.856 -1.2149  1.2106  0.8771
  452MOL0     H62343   5.193   2.500  11.818  0.2311  0.4390 -2.3624
  452MOL0     H62344   5.210   2.213  11.914 -0.0203  0.3813 -3.0330
  452MOL0     H62345   5.067   2.309  11.866 -0.7337  0.5888  0.6547
  452MOL0     H62346   5.270   2.385  12.084 -0.3291 -0.9788 -1.5277
  452MOL0     H62347   5.124   2.290  12.115 -0.0118  1.2285  1.2549
  452MOL0     H62348   5.147   2.579  12.026 -0.9641  0.3318 -0.1926
  452MOL0     H62349   5.000   2.491  11.978 -1.0969  5.1762 -0.3727
  452MOL0     H62350   5.019   2.634  12.207 -2.1890 -0.0760 -0.0233
  452MOL0     H62351   5.097   2.491  12.272  0.7651  0.4241 -0.1239
  452MOL0     H62352   4.908   2.357  12.167  1.8788  0.8758 -0.4479
  452MOL0     H62353   4.819   2.505  12.148 -0.8713 -2.2959 -1.5976
  452MOL0     H62354   4.904   2.404  12.421  0.3287 -0.7787 -0.5692
  452MOL0     H62355   4.744   2.399  12.349 -0.1165 -0.7009  0.9711
  452MOL0     H62356   5.186   2.352  11.426  0.9663 -1.3613  1.2010
  452MOL0     H62357   5.208   2.378  11.190 -0.6949  0.4217  1.0731
  452MOL0     H62358   5.600   2.508  10.885 -1.3505 -2.1209  0.7706
  452MOL0     H62359   5.698   2.517  10.662 -0.2296  1.2344 -0.2839
  452MOL0     H62360   5.692   4.105   9.716  0.5519 -4.6758 -0.9799
  452MOL0     H62361   5.568   4.251   9.872  0.7311  0.8762 -0.4866
  452MOL0     H62362   5.790   4.561  10.323  0.6665  1.3107 -0.1758
  452MOL0     H62363   5.684   4.686  10.512 -1.3486 -0.1784  1.3064
  452MOL0     H62364   5.297   4.799  10.424 -0.3552  1.5538  0.1972
  452MOL0     H62365   5.217   4.731  10.557  0.3459  2.1384  2.0992
  452MOL0     H62366   5.338   4.914  10.698  1.2163  1.3248  0.2308
  452MOL0     H62367   5.208   4.953  10.582  0.2488 -1.0091 -2.0414
  452MOL0     H62368   5.519   4.972  10.530  0.2447  1.5747  0.8700
  452MOL0     H62369   5.383   5.037  10.423 -2.8136 -1.7629  0.6133
  452MOL0     H62370   5.344   5.202  10.582  0.8607  0.2450 -1.2676
  452MOL0     H62371   5.511   5.225  10.538 -1.1719 -0.6261 -1.5524
  452MOL0     H62372   5.601   5.143  10.928  2.0014  1.9403 -0.3169
  452MOL0     H62373   5.298   4.605  10.343  0.2361  4.6613 -2.4782
  452MOL0     H62374   5.359   4.349  10.138 -3.0803  0.7796  1.6838
  452MOL0     H62375   5.257   4.484  10.148 -1.4469 -2.7774 -0.5396
  452MOL0     H62376   5.389   4.511  10.042  1.9112 -0.2574  0.7093
  453MOL0     O62377   9.141   7.744   8.770 -0.3838  0.9559 -0.5020
  453MOL0     C62378   9.138   7.701   8.655  0.1129 -0.4632  0.4387
  453MOL0     O62379   9.229   7.703   8.558  0.1352 -0.2088  0.2656
  453MOL0     C62380   9.347   7.791   8.566  0.1477  0.5399 -0.5641
  453MOL0     C62381   9.353   7.910   8.646 -0.0965  0.5316  0.6194
  453MOL0     C62382   9.464   7.994   8.652 -0.3796  0.6640  0.3919
  453MOL0     C62383   9.572   7.970   8.569 -1.1973  0.3085  0.5485
  453MOL0     O62384   9.696   8.039   8.560 -0.2519  0.5430 -0.3581
  453MOL0     C62385   9.743   8.109   8.675  0.3385 -0.3936  0.3733
  453MOL0     C62386   9.870   8.180   8.639  0.1792 -0.5314 -0.2522
  453MOL0     C62387   9.976   8.184   8.760  1.0871 -0.1540 -0.6733
  453MOL0     C62388  10.103   8.248   8.721 -0.3044  0.4530 -0.6280
  453MOL0     C62389  10.086   8.401   8.674  0.7064 -0.3061  0.3193
  453MOL0     C62390  10.221   8.467   8.642  0.9324 -0.5232 -0.5686
  453MOL0     C62391  10.216   8.602   8.576  0.1009 -0.1278  0.6070
  453MOL0     C62392  10.175   8.714   8.670 -0.3745 -0.5016 -0.2042
  453MOL0     N62393  10.276   8.747   8.773 -0.7232 -0.3411  0.0221
  453MOL0     C62394  10.412   8.775   8.748  1.1053  0.0731 -0.4509
  453MOL0     C62395  10.459   8.822   8.867 -0.0447 -1.0640 -0.1265
  453MOL0     C62396  10.595   8.851   8.898 -0.5768  0.7459  0.7901
  453MOL0     C62397  10.626   8.809   9.038  0.2279  0.5727 -0.2644
  453MOL0     C62398  10.571   8.922   9.138 -0.5851  0.7160 -0.0340
  453MOL0     C62399  10.556   8.872   9.283 -0.2781  1.4669 -0.9112
  453MOL0     O62400  10.665   8.786   9.334  0.1157  0.0232  0.0347
  453MOL0     C62401  10.792   8.832   9.315  0.6829 -0.0533 -0.1828
  453MOL0     C62402  10.883   8.735   9.300  0.6177  0.0971  1.1560
  453MOL0     C62403  11.020   8.755   9.291 -0.0197 -0.1208  1.0826
  453MOL0     C62404  11.104   8.633   9.270 -0.9989  0.4788  0.1217
  453MOL0     C62405  11.062   8.891   9.303 -0.2222 -0.4054  0.5037
  453MOL0     C62406  11.198   8.932   9.271  0.5206 -1.2583  0.5307
  453MOL0     O62407  11.309   8.895   9.343  0.5353  0.9455 -0.0651
  453MOL0     C62408  11.441   8.908   9.299  0.7255 -0.0005 -0.4580
  453MOL0     C62409  11.551   8.960   9.367 -0.4268  0.5672 -0.1889
  453MOL0     C62410  11.680   8.954   9.322  0.0349 -0.2440 -1.2542
  453MOL0     C62411  11.705   8.908   9.192 -0.2736  0.3765 -0.0006
  453MOL0     O62412  11.836   8.905   9.152  0.1005 -0.1821 -0.3400
  453MOL0     C62413  11.878   8.775   9.176 -0.4506 -0.3534 -0.2596
  453MOL0     C62414  12.026   8.777   9.128 -0.0478 -0.5689  0.2530
  453MOL0     C62415  12.105   8.889   9.205  0.1460 -0.4160 -0.5312
  453MOL0     C62416  12.113   8.861   9.358  0.3654  0.0888  0.2295
  453MOL0     C62417  12.205   8.958   9.432 -0.3080 -1.0630  0.5954
  453MOL0     C62418  12.131   9.081   9.476 -0.5217 -0.0083 -0.5886
  453MOL0     C62419  12.211   9.147   9.591 -0.2229 -0.1523  0.4512
  453MOL0     C62420  12.142   9.263   9.665 -0.2807  0.3716  0.6165
  453MOL0    Cl62421  12.130   9.396   9.549 -0.1712 -0.1140  0.2808
  453MOL0     C62422  11.594   8.869   9.113  0.3472 -0.6530 -0.3300
  453MOL0     C62423  11.468   8.856   9.169  0.1953 -0.2646  0.6427
  453MOL0     O62424  11.199   8.991   9.162 -0.3832  0.7177 -0.1827
  453MOL0     C62425  10.969   8.991   9.337 -0.2339 -0.0937 -0.1633
  453MOL0     C62426  10.834   8.959   9.335 -0.4718 -0.0976 -0.5545
  453MOL0     N62427  10.357   8.798   8.965 -0.1338  0.5197 -0.1552
  453MOL0     N62428  10.253   8.751   8.903  0.5543 -0.1464 -0.8561
  453MOL0     C62429   9.571   7.859   8.486  0.3952  0.5817 -0.0116
  453MOL0     C62430   9.459   7.770   8.477 -0.0784  0.1183  0.2185
  453MOL0     C62431   9.026   7.612   8.625  0.4065  0.4661  0.0844
  453MOL0     C62432   9.038   7.486   8.563  0.1236 -0.9282  0.8720
  453MOL0     C62433   8.934   7.395   8.555  0.7880 -0.4024 -0.0306
  453MOL0     C62434   8.801   7.437   8.584 -0.9863 -0.6688  0.2681
  453MOL0     O62435   8.688   7.350   8.570  0.0156 -0.4055 -0.3128
  453MOL0     C62436   8.688   7.222   8.503 -0.7939 -0.2567 -0.3952
  453MOL0     C62437   8.572   7.190   8.423  0.4254  0.2908  0.1260
  453MOL0     C62438   8.571   7.247   8.281 -0.5189  0.0095  0.0670
  453MOL0     C62439   8.558   7.400   8.271  0.6249  0.8766  0.1593
  453MOL0     C62440   8.551   7.424   8.129 -0.2414 -0.8801  0.1264
  453MOL0     C62441   8.543   7.439   8.012  0.3791  0.2874  0.5490
  453MOL0     C62442   8.789   7.554   8.653  0.1365 -1.1062  0.7317
  453MOL0     C62443   8.896   7.644   8.665  0.3679  0.0250 -0.3056
  453MOL0     C62444   8.861   7.782   8.711  0.3759  0.0302 -0.8945
  453MOL0     H62445   9.274   7.949   8.710  1.5906  1.8706  1.9881
  453MOL0     H62446   9.477   8.077   8.721  2.6311 -2.1970  3.6740
  453MOL0     H62447   9.768   8.031   8.747 -0.1591  1.0579  2.2051
  453MOL0     H62448   9.670   8.185   8.706  1.1279  0.9282 -0.8511
  453MOL0     H62449   9.922   8.133   8.555  0.3730  0.3222 -0.6267
  453MOL0     H62450   9.843   8.284   8.616 -0.2077 -0.8942 -1.5063
  453MOL0     H62451   9.931   8.232   8.847 -2.0982  0.1766 -2.3248
  453MOL0     H62452   9.999   8.084   8.799 -0.1185  0.9238  3.2400
  453MOL0     H62453  10.179   8.259   8.799  2.1443 -1.8733 -2.4967
  453MOL0     H62454  10.147   8.194   8.637  1.5131  1.3267 -0.2917
  453MOL0     H62455  10.037   8.462   8.751  1.6448 -0.0035  0.6930
  453MOL0     H62456  10.028   8.398   8.582  3.0850 -0.0283 -1.2716
  453MOL0     H62457  10.281   8.476   8.733  0.3067  1.9465 -0.3190
  453MOL0     H62458  10.270   8.393   8.578  0.1188 -0.8208 -0.8639
  453MOL0     H62459  10.144   8.589   8.494  1.2690  1.7907 -0.8378
  453MOL0     H62460  10.308   8.614   8.519  0.0944 -0.2771  0.5646
  453MOL0     H62461  10.153   8.807   8.615  2.3736 -0.8094 -1.9854
  453MOL0     H62462  10.083   8.688   8.724 -0.5714  0.1184 -0.2299
  453MOL0     H62463  10.465   8.774   8.653  1.6175 -0.7772 -0.1643
  453MOL0     H62464  10.615   8.959   8.889  1.8353  0.3359  0.5676
  453MOL0     H62465  10.659   8.803   8.823 -0.2016  1.6990  0.4815
  453MOL0     H62466  10.569   8.719   9.060  0.4702  0.6800  0.8725
  453MOL0     H62467  10.730   8.793   9.070 -0.3781  3.6839  4.2926
  453MOL0     H62468  10.646   9.002   9.142 -0.0213  0.3010 -1.6923
  453MOL0     H62469  10.476   8.963   9.101  0.4411  2.1718 -1.2086
  453MOL0     H62470  10.553   8.960   9.348 -1.7437  1.4529 -0.9196
  453MOL0     H62471  10.461   8.819   9.297  0.9726 -1.4301 -2.5965
  453MOL0     H62472  10.840   8.636   9.294  0.2213  0.1503  2.7062
  453MOL0     H62473  11.075   8.558   9.344 -0.8053  0.1666 -0.1147
  453MOL0     H62474  11.210   8.654   9.286 -1.6473  2.6954  2.0863
  453MOL0     H62475  11.082   8.592   9.171  0.3191 -0.7336  0.2970
  453MOL0     H62476  11.545   9.001   9.467  2.3475 -0.7824  0.6674
  453MOL0     H62477  11.764   8.990   9.381  0.0705 -1.1309 -0.7479
  453MOL0     H62478  11.885   8.749   9.282  0.1287 -0.5311 -0.3400
  453MOL0     H62479  11.820   8.696   9.128  2.3549 -2.2166 -0.7807
  453MOL0     H62480  12.072   8.682   9.154  2.4658 -0.2055 -2.3710
  453MOL0     H62481  12.027   8.788   9.019 -1.0341  1.5246  0.3915
  453MOL0     H62482  12.062   8.985   9.177 -1.0864 -1.5842 -2.9502
  453MOL0     H62483  12.209   8.880   9.171  0.3243 -0.4974  0.0298
  453MOL0     H62484  12.171   8.769   9.370  1.5223  0.3927 -2.4164
  453MOL0     H62485  12.013   8.857   9.401  0.2047  1.5184  0.0185
  453MOL0     H62486  12.243   8.913   9.525  2.7769  3.0070  1.5675
  453MOL0     H62487  12.285   8.985   9.363 -1.9469  0.2860 -0.8463
  453MOL0     H62488  12.032   9.063   9.519 -0.0426  0.1117  0.6286
  453MOL0     H62489  12.124   9.155   9.396  0.3218  1.3196  0.5151
  453MOL0     H62490  12.311   9.179   9.558 -0.1345  0.2118  1.0531
  453MOL0     H62491  12.229   9.072   9.668  1.3064 -0.6857 -0.3558
  453MOL0     H62492  12.202   9.295   9.751  1.0804  0.4863 -0.3409
  453MOL0     H62493  12.042   9.233   9.697 -0.1286 -1.0567 -0.2004
  453MOL0     H62494  11.618   8.838   9.011 -0.1621 -1.7186 -0.1435
  453MOL0     H62495  11.393   8.802   9.112 -0.0736  2.0422 -1.3301
  453MOL0     H62496  11.001   9.094   9.342 -1.9490  0.4149  1.3125
  453MOL0     H62497  10.772   9.042   9.364 -0.7297 -0.8704  1.2628
  453MOL0     H62498   9.654   7.831   8.422 -1.7965 -0.7567 -2.4503
  453MOL0     H62499   9.458   7.698   8.396  0.8550 -1.0896  1.2394
  453MOL0     H62500   9.138   7.446   8.545 -0.5519 -3.5653  2.3827
  453MOL0     H62501   8.966   7.297   8.521  2.2447 -0.0495  0.2471
  453MOL0     H62502   8.773   7.206   8.437 -1.9784  1.0510 -2.3319
  453MOL0     H62503   8.688   7.148   8.584 -0.3841  1.5180  1.3106
  453MOL0     H62504   8.478   7.222   8.469  0.0748 -0.9322  0.2928
  453MOL0     H62505   8.568   7.081   8.415  0.0185  0.3023  0.1417
  453MOL0     H62506   8.657   7.215   8.220 -0.8984  0.6162 -0.8054
  453MOL0     H62507   8.483   7.207   8.229 -1.0826  1.2305  0.0622
  453MOL0     H62508   8.649   7.447   8.309  0.4149  0.0959  1.7028
  453MOL0     H62509   8.465   7.420   8.325  1.6538 -0.4706  2.5858
  453MOL0     H62510   8.533   7.443   7.905  1.5756  2.0020  0.4533
  453MOL0     H62511   8.692   7.592   8.683  0.9593  1.7477  0.0979
  453MOL0     H62512   8.752   7.797   8.714  0.4576  0.5607 -0.0409
  453MOL0     H62513   8.896   7.802   8.813  1.2119  0.4292 -1.2580
  453MOL0     H62514   8.901   7.856   8.642  0.9605  0.2531 -0.3250
  454MOL0     O62515   5.448   7.921   9.232 -0.6873  0.5296  0.5655
  454MOL0     C62516   5.425   8.024   9.176 -0.7055  0.2181  0.3913
  454MOL0     O62517   5.510   8.083   9.086 -0.0552 -0.1753 -0.4798
  454MOL0     C62518   5.638   8.031   9.074  0.0375 -0.3057 -0.0660
  454MOL0     C62519   5.693   7.995   8.950 -0.6742 -0.1380  0.6385
  454MOL0     C62520   5.832   7.952   8.946 -0.3702 -0.0450 -0.5669
  454MOL0     C62521   5.907   7.952   9.067 -0.7711  0.2824 -0.1026
  454MOL0     O62522   6.038   7.906   9.056 -0.2140  0.6097 -0.2843
  454MOL0     C62523   6.082   7.799   9.150 -0.5824 -0.5212 -0.5570
  454MOL0     C62524   6.228   7.751   9.136 -0.3672 -0.0705  0.4529
  454MOL0     C62525   6.257   7.633   9.234  0.5049  0.4186 -0.3149
  454MOL0     C62526   6.315   7.673   9.366 -0.2416 -0.2693 -0.0172
  454MOL0     C62527   6.335   7.563   9.472 -0.6523  0.4552  0.2488
  454MOL0     C62528   6.313   7.607   9.616 -0.8560 -0.3372 -0.0742
  454MOL0     C62529   6.408   7.719   9.668  0.2158 -0.2131  0.3430
  454MOL0     C62530   6.383   7.858   9.617 -0.3646  0.0492  0.0910
  454MOL0     N62531   6.462   7.954   9.694 -0.2021  0.3714 -0.7003
  454MOL0     C62532   6.460   7.968   9.829 -0.1317 -0.3375  0.0130
  454MOL0     C62533   6.581   8.023   9.859 -0.1623 -0.6550 -0.4471
  454MOL0     C62534   6.613   8.041  10.004  0.4672 -0.1051  0.3977
  454MOL0     C62535   6.578   8.185  10.047  0.1951  0.8846  0.3767
  454MOL0     C62536   6.658   8.289   9.972 -0.5051  0.1973  0.3601
  454MOL0     C62537   6.811   8.274   9.971 -0.7322  0.5283 -0.1535
  454MOL0     O62538   6.874   8.405   9.965  0.2563  0.5309 -0.1356
  454MOL0     C62539   6.995   8.421  10.024 -0.1617 -0.0945  0.5675
  454MOL0     C62540   7.102   8.325  10.029  0.6845  0.4186  0.0367
  454MOL0     C62541   7.231   8.357  10.083 -0.1446 -0.0768 -0.4188
  454MOL0     C62542   7.341   8.256  10.077 -0.1107 -0.2624  0.4097
  454MOL0     C62543   7.246   8.490  10.147  1.1149 -0.1092 -0.1348
  454MOL0     C62544   7.368   8.530  10.217  0.4544  0.1483 -0.7900
  454MOL0     O62545   7.406   8.657  10.201  0.6464  0.7025 -0.8646
  454MOL0     C62546   7.505   8.720  10.281  0.8846  0.1607 -0.3508
  454MOL0     C62547   7.480   8.779  10.403 -0.4998 -1.2563 -0.1989
  454MOL0     C62548   7.575   8.851  10.473 -0.2292 -1.0577 -0.4161
  454MOL0     C62549   7.706   8.875  10.428 -0.3335  0.1876 -0.0811
  454MOL0     O62550   7.812   8.929  10.496 -0.2453  0.6624  0.0706
  454MOL0     C62551   7.787   8.960  10.632  0.6883  0.3803  0.5339
  454MOL0     C62552   7.885   9.063  10.683 -0.4541 -0.5271  0.9830
  454MOL0     C62553   7.897   9.190  10.592  0.6149  0.6295 -0.5575
  454MOL0     C62554   7.954   9.306  10.677  0.4137 -0.2575  1.2988
  454MOL0     C62555   7.994   9.432  10.592  0.6193 -1.4271  1.2225
  454MOL0     C62556   8.044   9.534  10.698  0.4285  0.5367 -0.0830
  454MOL0     C62557   8.176   9.505  10.775 -0.5320  0.8112  0.0550
  454MOL0     C62558   8.293   9.490  10.675  0.4907  0.9194 -0.3236
  454MOL0    Cl62559   8.349   9.629  10.591  0.1683 -0.1326  0.0051
  454MOL0     C62560   7.729   8.829  10.292 -0.4427  0.1112  0.5194
  454MOL0     C62561   7.633   8.747  10.222 -0.0844 -0.5891  0.8826
  454MOL0     O62562   7.429   8.447  10.286  0.6199  0.3386  0.1030
  454MOL0     C62563   7.140   8.580  10.140 -0.7895  0.1994 -0.7608
  454MOL0     C62564   7.015   8.538  10.086 -0.1536  0.5864 -1.4537
  454MOL0     N62565   6.660   8.038   9.747 -0.3899  0.5138  0.1216
  454MOL0     N62566   6.586   8.003   9.645  0.9458  0.1886 -0.3563
  454MOL0     C62567   5.852   7.996   9.184 -0.6638 -0.6094 -0.6450
  454MOL0     C62568   5.719   8.032   9.193  0.0825  0.9678  1.0922
  454MOL0     C62569   5.286   8.072   9.199  0.0827  0.0790 -0.2859
  454MOL0     C62570   5.184   7.983   9.250  0.1100  0.3416 -0.0313
  454MOL0     C62571   5.052   8.026   9.282 -0.6612 -0.1712 -0.3611
  454MOL0     C62572   5.015   8.156   9.261  0.2257 -0.0782 -0.1609
  454MOL0     O62573   4.889   8.210   9.281  0.4890 -0.3319  0.3258
  454MOL0     C62574   4.810   8.154   9.384  0.1552  1.3422  0.5134
  454MOL0     C62575   4.672   8.213   9.418  0.5313 -0.7578 -0.6245
  454MOL0     C62576   4.691   8.370   9.415 -0.1465  0.0938  1.2674
  454MOL0     C62577   4.572   8.455   9.467 -0.6004 -0.1681  0.4369
  454MOL0     C62578   4.457   8.443   9.377  0.1304 -0.3003 -1.2348
  454MOL0     C62579   4.360   8.450   9.303 -0.4543  0.5540  0.5796
  454MOL0     C62580   5.113   8.242   9.209  0.5591 -0.4018  0.2709
  454MOL0     C62581   5.242   8.204   9.171 -0.0990 -0.3885  0.0204
  454MOL0     C62582   5.311   8.313   9.086 -0.3486 -1.0977 -0.0827
  454MOL0     H62583   5.624   7.988   8.866  1.6385  1.5840 -1.5576
  454MOL0     H62584   5.875   7.896   8.864 -0.2700  0.9903 -1.2331
  454MOL0     H62585   6.023   7.708   9.132 -0.2446 -0.9524  0.4300
  454MOL0     H62586   6.065   7.828   9.254 -0.6616 -2.6053  0.0772
  454MOL0     H62587   6.240   7.730   9.029 -1.7618  2.4063 -0.2799
  454MOL0     H62588   6.292   7.834   9.169 -0.8172 -0.2235  1.7541
  454MOL0     H62589   6.171   7.566   9.246 -0.0681  0.7898 -2.0964
  454MOL0     H62590   6.334   7.579   9.178 -1.0001 -0.4748 -1.5943
  454MOL0     H62591   6.413   7.717   9.345 -0.2904  0.3200  0.9331
  454MOL0     H62592   6.257   7.752   9.413  1.6714  0.9547  0.4068
  454MOL0     H62593   6.439   7.532   9.459 -0.3129  1.0061  1.4186
  454MOL0     H62594   6.265   7.481   9.453  1.6912 -1.1722 -1.9947
  454MOL0     H62595   6.206   7.632   9.620 -0.4019  1.8126 -0.0845
  454MOL0     H62596   6.332   7.511   9.666 -0.4459 -0.6748 -0.8582
  454MOL0     H62597   6.510   7.687   9.645  0.5712  1.5985 -0.8111
  454MOL0     H62598   6.390   7.727   9.775 -0.0728  0.8268  0.2251
  454MOL0     H62599   6.407   7.870   9.511 -1.5295  0.0522 -0.1931
  454MOL0     H62600   6.278   7.891   9.621 -0.6589 -0.7260 -0.8272
  454MOL0     H62601   6.384   7.945   9.903 -0.7439  1.7310  0.0847
  454MOL0     H62602   6.719   8.019  10.022  0.2364 -2.3664 -0.7390
  454MOL0     H62603   6.548   7.980  10.067 -0.1191  0.4817  0.3773
  454MOL0     H62604   6.471   8.204  10.033  0.4158  1.1757 -1.0169
  454MOL0     H62605   6.605   8.174  10.152  0.5268 -0.0807  0.1992
  454MOL0     H62606   6.631   8.296   9.866 -0.3158 -0.6363  0.2490
  454MOL0     H62607   6.639   8.386  10.018 -2.2503 -0.0919  0.3118
  454MOL0     H62608   6.839   8.206  10.052 -0.9669 -1.3357 -1.5632
  454MOL0     H62609   6.829   8.213   9.882 -0.5741 -0.4928  0.5697
  454MOL0     H62610   7.077   8.231   9.981  1.0002 -0.1095  0.8839
  454MOL0     H62611   7.311   8.161  10.032 -2.0397  0.6428 -0.3200
  454MOL0     H62612   7.383   8.230  10.175  1.3446  1.3919  0.2826
  454MOL0     H62613   7.423   8.293  10.014 -1.2643 -2.0911 -2.3617
  454MOL0     H62614   7.383   8.759  10.448 -2.0159  1.4501 -1.9952
  454MOL0     H62615   7.531   8.894  10.563 -0.1714 -0.4549 -0.6716
  454MOL0     H62616   7.692   9.009  10.655  1.4017  1.7157  0.7696
  454MOL0     H62617   7.800   8.873  10.696  1.5777 -0.2581 -0.4852
  454MOL0     H62618   7.858   9.090  10.786  0.2056  0.9983  0.7865
  454MOL0     H62619   7.986   9.019  10.688 -0.1854  0.1803  2.4674
  454MOL0     H62620   7.799   9.216  10.550  0.7046  0.4780 -0.8660
  454MOL0     H62621   7.960   9.171  10.505 -0.8640  0.5016 -1.6535
  454MOL0     H62622   8.041   9.269  10.731  3.2009  0.7176 -2.1426
  454MOL0     H62623   7.874   9.341  10.744 -0.3667  3.3652 -1.2594
  454MOL0     H62624   8.061   9.409  10.509 -0.0101  1.2441 -0.1383
  454MOL0     H62625   7.904   9.467  10.541  0.9371 -1.7895  0.3992
  454MOL0     H62626   7.963   9.559  10.766  0.2809 -0.9659  0.3317
  454MOL0     H62627   8.078   9.630  10.659  1.1882  0.3589  0.1129
  454MOL0     H62628   8.164   9.416  10.838  2.3554  2.0920  2.6555
  454MOL0     H62629   8.187   9.590  10.843 -0.3433 -0.6619  1.9660
  454MOL0     H62630   8.273   9.424  10.590  0.1927 -1.7893  1.6927
  454MOL0     H62631   8.371   9.445  10.737  0.4355  1.5599  0.2223
  454MOL0     H62632   7.827   8.857  10.255 -0.9700 -0.0690 -1.1298
  454MOL0     H62633   7.648   8.732  10.115 -0.2508  1.8056  0.4666
  454MOL0     H62634   7.146   8.678  10.188 -2.6137 -0.4599  0.9879
  454MOL0     H62635   6.935   8.611  10.090 -0.5081  0.1445  0.7474
  454MOL0     H62636   5.907   7.994   9.277  0.0337 -0.5196 -1.0509
  454MOL0     H62637   5.671   8.067   9.284 -0.4659  2.2891  0.3317
  454MOL0     H62638   5.210   7.882   9.280 -1.2877  0.1584  0.6550
  454MOL0     H62639   4.977   7.961   9.325  2.0270 -2.3641  1.4072
  454MOL0     H62640   4.796   8.048   9.360  1.2577  0.9153  1.6676
  454MOL0     H62641   4.868   8.169   9.475  0.7954  1.0318  0.1584
  454MOL0     H62642   4.652   8.173   9.517 -0.6545  1.9243  0.3104
  454MOL0     H62643   4.591   8.181   9.351 -1.3533 -0.3454  1.3513
  454MOL0     H62644   4.785   8.395   9.465  1.2828 -1.4282 -0.5053
  454MOL0     H62645   4.702   8.389   9.308 -0.1698 -0.1748  1.2160
  454MOL0     H62646   4.584   8.562   9.487 -3.9572  0.1542  1.3110
  454MOL0     H62647   4.539   8.410   9.560 -1.6525 -0.4130 -0.0480
  454MOL0     H62648   4.275   8.451   9.239  0.4062  0.6251 -0.5856
  454MOL0     H62649   5.083   8.346   9.201 -1.4311 -0.7907  2.0103
  454MOL0     H62650   5.368   8.383   9.148 -2.8192  2.0737 -1.1127
  454MOL0     H62651   5.382   8.272   9.013  2.9511  0.3084  2.0870
  454MOL0     H62652   5.244   8.380   9.031  0.1096  0.4527  1.1759
  455MOL0     O62653   2.477   2.207   5.191 -0.3278 -0.0605 -0.4682
  455MOL0     C62654   2.499   2.193   5.073 -0.2574  0.7842 -0.9588
  455MOL0     O62655   2.629   2.199   5.026 -0.2613 -0.3499 -0.5177
  455MOL0     C62656   2.744   2.178   5.104 -0.2098 -0.4522  0.8065
  455MOL0     C62657   2.845   2.278   5.094  0.7032  0.2447  0.1663
  455MOL0     C62658   2.971   2.245   5.151 -0.0900  0.0975  0.4863
  455MOL0     C62659   2.991   2.122   5.219 -0.4075  0.4239  0.0258
  455MOL0     O62660   3.123   2.098   5.250  0.5382  0.5242 -0.9009
  455MOL0     C62661   3.145   2.027   5.367 -0.4861  0.3613  0.5088
  455MOL0     C62662   3.296   2.030   5.398  0.0231 -0.4601  0.3584
  455MOL0     C62663   3.349   2.170   5.438 -0.0350 -0.4953 -0.3208
  455MOL0     C62664   3.500   2.180   5.444 -0.5372  0.8188  0.2312
  455MOL0     C62665   3.533   2.329   5.435  0.9088  0.3854 -0.4758
  455MOL0     C62666   3.682   2.361   5.439 -1.2996  1.0481  0.3216
  455MOL0     C62667   3.758   2.299   5.560  0.4655 -0.0658  1.4878
  455MOL0     C62668   3.905   2.345   5.566 -0.3997 -0.4552 -0.2445
  455MOL0     N62669   3.992   2.304   5.453 -0.2681  0.2482 -0.4642
  455MOL0     C62670   4.050   2.180   5.459 -0.1013 -0.4424  0.9368
  455MOL0     C62671   4.106   2.172   5.332 -0.0929  0.8346 -0.1060
  455MOL0     C62672   4.185   2.060   5.274  0.6560 -0.2048  0.1300
  455MOL0     C62673   4.267   2.069   5.145  0.1131 -0.1441 -0.2697
  455MOL0     C62674   4.367   1.953   5.147  0.1194  0.0820 -0.2339
  455MOL0     C62675   4.435   1.942   5.013  0.1079 -0.5990  0.7107
  455MOL0     O62676   4.533   1.848   5.000  0.9140 -0.2992 -0.0348
  455MOL0     C62677   4.659   1.864   5.061  0.0368  0.4308  0.8256
  455MOL0     C62678   4.753   1.769   5.019  0.4858 -0.2769  0.2612
  455MOL0     C62679   4.890   1.781   5.046  0.1472  0.5214 -0.3284
  455MOL0     C62680   4.976   1.671   4.996 -0.4227 -0.6793  0.2367
  455MOL0     C62681   4.932   1.883   5.137 -0.0845  1.2310 -0.5378
  455MOL0     C62682   5.068   1.898   5.190 -1.3174  0.1350 -0.2370
  455MOL0     O62683   5.087   1.932   5.328  0.6971 -0.1166  0.2405
  455MOL0     C62684   5.210   1.950   5.378 -0.0502  0.2000 -1.0827
  455MOL0     C62685   5.267   1.860   5.478  0.6246  0.2816  0.0951
  455MOL0     C62686   5.400   1.891   5.522  0.0426  1.6005  0.0199
  455MOL0     C62687   5.467   2.007   5.477 -0.1883  0.5770 -0.4081
  455MOL0     O62688   5.587   2.033   5.540  0.2131 -0.3542 -0.3550
  455MOL0     C62689   5.690   2.100   5.462 -0.2964  0.2430 -0.1839
  455MOL0     C62690   5.819   2.095   5.531  0.9491 -0.5719  0.6925
  455MOL0     C62691   5.917   2.203   5.480  0.1327  0.1375  0.6920
  455MOL0     C62692   6.062   2.158   5.501 -0.4740  0.5016 -0.2183
  455MOL0     C62693   6.152   2.277   5.466  0.5768 -0.7387  0.0535
  455MOL0     C62694   6.285   2.258   5.543  1.0329  0.2016 -0.7889
  455MOL0     C62695   6.369   2.384   5.540  0.1246 -0.1709  0.6720
  455MOL0     C62696   6.519   2.360   5.530  0.3479 -0.1056 -0.2913
  455MOL0    Cl62697   6.605   2.509   5.549  0.1925  0.5770  0.0337
  455MOL0     C62698   5.403   2.090   5.390  0.1877 -0.0890  0.7274
  455MOL0     C62699   5.278   2.061   5.336 -0.8702  0.3809 -0.4971
  455MOL0     O62700   5.158   1.888   5.106 -0.3015  0.4315  0.4285
  455MOL0     C62701   4.836   1.973   5.184  0.4066  0.4742 -0.0961
  455MOL0     C62702   4.702   1.960   5.149 -0.2169  0.1472  1.2601
  455MOL0     N62703   4.092   2.295   5.270 -0.0971 -0.6161 -0.7240
  455MOL0     N62704   4.037   2.377   5.349 -0.1648 -0.5306 -0.6412
  455MOL0     C62705   2.888   2.028   5.219 -0.2190 -0.3451  0.2324
  455MOL0     C62706   2.762   2.060   5.170  0.5000 -0.2331 -0.0863
  455MOL0     C62707   2.392   2.168   4.970 -0.1687 -0.4090 -0.5255
  455MOL0     C62708   2.426   2.170   4.833 -0.1960 -0.5071  0.4427
  455MOL0     C62709   2.333   2.154   4.729  0.5962  0.3068  0.2302
  455MOL0     C62710   2.203   2.128   4.762  1.1328  0.0617 -0.3604
  455MOL0     O62711   2.092   2.110   4.680 -0.4261 -0.5164  0.0602
  455MOL0     C62712   2.110   2.069   4.544  0.4169  0.2545  0.3914
  455MOL0     C62713   1.962   2.029   4.500 -0.6597 -0.4961 -0.6287
  455MOL0     C62714   1.868   2.150   4.522  0.1289  0.5788 -0.4755
  455MOL0     C62715   1.728   2.109   4.477  0.5002  0.0902  0.0763
  455MOL0     C62716   1.681   1.986   4.544 -0.0096 -0.8598  0.0332
  455MOL0     C62717   1.652   1.892   4.612 -0.5547  0.2228  0.2960
  455MOL0     C62718   2.160   2.124   4.895 -0.5694 -0.6763  0.4825
  455MOL0     C62719   2.253   2.154   5.002 -0.4146  0.0119  0.7810
  455MOL0     C62720   2.196   2.206   5.134 -0.4233 -0.5339 -0.2853
  455MOL0     H62721   2.822   2.374   5.048 -3.2007 -0.8976 -0.6231
  455MOL0     H62722   3.051   2.319   5.142 -1.3299  1.8096  2.6142
  455MOL0     H62723   3.111   1.925   5.352  0.4798  0.1304 -0.1914
  455MOL0     H62724   3.088   2.078   5.446 -1.4891  1.3758 -0.8197
  455MOL0     H62725   3.317   1.960   5.479 -1.8279 -2.2199 -0.5875
  455MOL0     H62726   3.351   1.990   5.312 -0.6766  1.4982 -1.0719
  455MOL0     H62727   3.315   2.239   5.361  0.6474  1.0253  0.7016
  455MOL0     H62728   3.315   2.205   5.536  0.0540 -0.5093 -0.2843
  455MOL0     H62729   3.544   2.128   5.530  0.6818 -0.4164 -1.0882
  455MOL0     H62730   3.543   2.133   5.356  1.8962  1.2831  1.0999
  455MOL0     H62731   3.494   2.373   5.527  0.8990 -0.1186 -0.2385
  455MOL0     H62732   3.484   2.374   5.348 -0.5123  1.4845  0.8391
  455MOL0     H62733   3.727   2.320   5.348  1.3895  2.0121  1.1149
  455MOL0     H62734   3.695   2.470   5.437  0.6352  0.8348 -0.7622
  455MOL0     H62735   3.759   2.190   5.549 -3.2758 -0.1932  0.9125
  455MOL0     H62736   3.693   2.313   5.647 -2.8049 -1.4262 -0.5096
  455MOL0     H62737   3.899   2.454   5.580  1.0124 -0.4786  0.6649
  455MOL0     H62738   3.947   2.308   5.660  0.7246  1.0768 -0.1004
  455MOL0     H62739   4.045   2.107   5.539  0.6857  0.1404  1.5341
  455MOL0     H62740   4.122   1.974   5.254  3.0923 -1.5835 -2.4893
  455MOL0     H62741   4.258   2.025   5.347  0.5192 -0.6688  0.0423
  455MOL0     H62742   4.198   2.055   5.061 -0.4750  0.0039  0.1784
  455MOL0     H62743   4.318   2.165   5.129 -0.6293  0.5512  1.2562
  455MOL0     H62744   4.445   1.969   5.222  0.9958 -2.9419 -0.3821
  455MOL0     H62745   4.326   1.857   5.179 -0.8923  0.0345 -1.6102
  455MOL0     H62746   4.360   1.919   4.937  0.2904 -1.3760  0.7545
  455MOL0     H62747   4.475   2.041   4.989 -2.2397  1.0558  3.1041
  455MOL0     H62748   4.711   1.687   4.960  4.3092 -0.5783 -2.3813
  455MOL0     H62749   5.048   1.716   4.928  1.3215  3.4182  4.3201
  455MOL0     H62750   4.930   1.587   4.942 -2.5593  1.3772 -1.3493
  455MOL0     H62751   5.034   1.625   5.076 -0.2533  1.6002  1.4830
  455MOL0     H62752   5.210   1.779   5.521 -1.6044  1.1588 -1.0354
  455MOL0     H62753   5.454   1.844   5.604  0.4871  3.1067  0.6291
  455MOL0     H62754   5.685   2.051   5.364  0.4216  0.7805 -0.5012
  455MOL0     H62755   5.654   2.204   5.459  0.9115  0.6589 -1.9436
  455MOL0     H62756   5.802   2.114   5.638  0.5176  2.2558  0.2162
  455MOL0     H62757   5.857   1.994   5.520  1.2228 -0.5387  1.2774
  455MOL0     H62758   5.890   2.302   5.517  1.8149  1.2037 -0.8195
  455MOL0     H62759   5.904   2.218   5.372  0.6656  2.3200  0.8999
  455MOL0     H62760   6.086   2.072   5.438  0.9571  0.8118 -0.1259
  455MOL0     H62761   6.071   2.124   5.605 -0.1141 -0.2514 -0.4904
  455MOL0     H62762   6.176   2.286   5.359  2.3816  0.6896  0.5405
  455MOL0     H62763   6.099   2.362   5.509  0.3402 -0.4593 -0.7706
  455MOL0     H62764   6.339   2.176   5.494  0.9251  1.1968 -2.6707
  455MOL0     H62765   6.276   2.224   5.646  2.1648 -1.2618 -1.1226
  455MOL0     H62766   6.360   2.446   5.630  0.2085 -0.6969  1.0483
  455MOL0     H62767   6.343   2.443   5.451 -2.5849 -2.9408 -0.5311
  455MOL0     H62768   6.549   2.294   5.447 -1.8559 -1.6164  0.0146
  455MOL0     H62769   6.545   2.300   5.617 -0.8649 -0.8184 -0.3890
  455MOL0     H62770   5.442   2.187   5.360 -2.0594  1.1729  1.6292
  455MOL0     H62771   5.241   2.145   5.280  3.0157  2.8941  0.3180
  455MOL0     H62772   4.861   2.053   5.253 -0.3101 -0.0170  0.7650
  455MOL0     H62773   4.627   2.035   5.171  0.4722  1.5204 -0.7662
  455MOL0     H62774   2.899   1.928   5.259 -1.6117  0.1895  2.0303
  455MOL0     H62775   2.680   1.990   5.164  0.7957 -0.5404 -0.7463
  455MOL0     H62776   2.530   2.171   4.802 -0.2827  0.3154  0.1470
  455MOL0     H62777   2.366   2.159   4.626  0.4175 -3.4754 -0.1623
  455MOL0     H62778   2.146   2.155   4.487 -2.6703  1.7114  0.4171
  455MOL0     H62779   2.185   1.989   4.538  2.8435  2.4726 -1.2740
  455MOL0     H62780   1.932   1.938   4.553 -0.8957  0.2481  0.5450
  455MOL0     H62781   1.961   2.006   4.393  1.4094  0.1112 -0.8166
  455MOL0     H62782   1.874   2.167   4.630  4.5775  0.2397 -0.4914
  455MOL0     H62783   1.901   2.235   4.463  0.9991  1.9407  1.8310
  455MOL0     H62784   1.730   2.074   4.374  1.2508 -3.7976  1.2173
  455MOL0     H62785   1.667   2.197   4.497  2.8854  1.2357  3.2719
  455MOL0     H62786   1.609   1.798   4.641  0.7400 -1.2236 -2.1476
  455MOL0     H62787   2.055   2.114   4.917 -0.5172 -3.8591 -0.1992
  455MOL0     H62788   2.236   2.147   5.217  2.3251  0.8562 -0.4964
  455MOL0     H62789   2.228   2.310   5.145 -1.5221 -0.1092 -1.0054
  455MOL0     H62790   2.088   2.193   5.147 -0.5285  1.0411  0.6934
  456MOL0     O62791   9.410   9.237   2.419 -0.3371 -0.3634  0.0242
  456MOL0     C62792   9.323   9.240   2.331  0.3739  0.1402  0.4204
  456MOL0     O62793   9.237   9.136   2.300  0.0133 -1.2936  0.3600
  456MOL0     C62794   9.221   9.015   2.376  0.4289 -0.3292 -0.3402
  456MOL0     C62795   9.256   9.006   2.509  0.3459 -0.3391 -0.0825
  456MOL0     C62796   9.230   8.888   2.580 -0.8767  0.0186 -0.6474
  456MOL0     C62797   9.191   8.771   2.506 -0.9547  0.3021  0.4728
  456MOL0     O62798   9.206   8.651   2.581 -0.1209 -0.8267  0.2133
  456MOL0     C62799   9.277   8.543   2.522  0.6251 -0.0598  0.3497
  456MOL0     C62800   9.430   8.562   2.507  0.1416  0.4810 -0.5592
  456MOL0     C62801   9.496   8.602   2.643 -0.4512  0.4636  0.1864
  456MOL0     C62802   9.645   8.570   2.620  0.1537  0.1789 -0.2457
  456MOL0     C62803   9.723   8.651   2.720  0.0704 -0.7762  0.1084
  456MOL0     C62804   9.865   8.601   2.738  0.7357  0.5170  0.7326
  456MOL0     C62805   9.930   8.673   2.854 -0.1755 -0.0080 -0.0740
  456MOL0     C62806  10.072   8.706   2.820 -0.0605 -0.2838 -0.0204
  456MOL0     N62807  10.143   8.774   2.934  0.1253  0.2779  0.7519
  456MOL0     C62808  10.264   8.733   2.992  0.6643  0.5276  0.2514
  456MOL0     C62809  10.263   8.778   3.114  0.2173  0.9396 -0.5170
  456MOL0     C62810  10.379   8.750   3.210 -0.0333 -0.3771  0.2280
  456MOL0     C62811  10.510   8.763   3.148 -0.0856 -0.3448 -0.2791
  456MOL0     C62812  10.617   8.767   3.262 -0.4633  0.2557 -0.6754
  456MOL0     C62813  10.743   8.820   3.208  0.4097  0.2036 -0.5036
  456MOL0     O62814  10.844   8.814   3.310 -0.0409 -0.6845  0.3350
  456MOL0     C62815  10.957   8.883   3.284  0.5977 -0.8765 -0.5146
  456MOL0     C62816  11.074   8.824   3.330  0.4577 -0.6471 -0.5051
  456MOL0     C62817  11.199   8.873   3.297 -1.0673  0.3909  0.4724
  456MOL0     C62818  11.317   8.801   3.348  0.6979 -0.2010  0.1788
  456MOL0     C62819  11.208   9.004   3.235 -0.0187  0.4937 -0.0853
  456MOL0     C62820  11.340   9.064   3.196  0.1219  0.2395 -0.0004
  456MOL0     O62821  11.455   8.995   3.208 -0.0422  0.1998  1.0258
  456MOL0     C62822  11.583   9.045   3.195  0.3473  0.0331 -0.5480
  456MOL0     C62823  11.676   8.947   3.178 -0.0934 -0.2085 -0.0871
  456MOL0     C62824  11.806   8.977   3.148  0.4821  0.2382  0.1067
  456MOL0     C62825  11.849   9.106   3.152 -0.0083 -0.7116 -0.3174
  456MOL0     O62826  11.984   9.139   3.125  0.5930  0.1741  0.0355
  456MOL0     C62827  12.018   9.111   2.987 -0.1638  0.5710 -0.5064
  456MOL0     C62828  12.152   9.169   2.945  0.8381  0.4447 -0.3657
  456MOL0     C62829  12.281   9.117   3.008 -0.9591 -0.2268 -0.1487
  456MOL0     C62830  12.409   9.186   2.960 -0.3261 -0.0416  0.2427
  456MOL0     C62831  12.528   9.119   3.027  0.2348  0.3041 -0.3220
  456MOL0     C62832  12.656   9.194   3.015 -0.3531  0.5082  0.5881
  456MOL0     C62833  12.785   9.116   3.028  0.0876 -0.2135  0.3575
  456MOL0     C62834  12.812   9.071   3.178  0.5638  1.1417  1.0649
  456MOL0    Cl62835  12.928   8.937   3.180  0.7305 -0.1170 -0.4691
  456MOL0     C62836  11.758   9.205   3.179 -0.7448 -0.6550 -0.4950
  456MOL0     C62837  11.622   9.178   3.187 -0.1169 -0.4981 -0.3179
  456MOL0     O62838  11.331   9.171   3.141 -0.3222 -0.3794  0.4957
  456MOL0     C62839  11.085   9.080   3.219 -0.3060 -0.3815 -0.1202
  456MOL0     C62840  10.961   9.019   3.243  0.0449 -0.0741 -1.1075
  456MOL0     N62841  10.147   8.849   3.134 -0.0375 -0.4003 -0.6580
  456MOL0     N62842  10.073   8.848   3.030 -0.0595  0.2773 -0.2779
  456MOL0     C62843   9.164   8.779   2.369  0.2742 -0.2389  0.0174
  456MOL0     C62844   9.174   8.907   2.312 -0.6308  0.1692  0.6369
  456MOL0     C62845   9.324   9.365   2.232  0.1587  0.0369  1.0627
  456MOL0     C62846   9.248   9.354   2.119  0.5149 -0.3748  0.1429
  456MOL0     C62847   9.228   9.459   2.033  0.1974  0.2332 -0.1583
  456MOL0     C62848   9.300   9.577   2.038 -0.3509  0.2044 -0.2017
  456MOL0     O62849   9.298   9.677   1.934  0.0046  0.1423 -0.5256
  456MOL0     C62850   9.193   9.694   1.841  0.0878 -0.3897  0.8068
  456MOL0     C62851   9.082   9.770   1.922  0.1700 -0.2284  0.0740
  456MOL0     C62852   9.073   9.916   1.879 -0.1300 -0.6415 -0.5470
  456MOL0     C62853   8.947   9.993   1.943 -0.6336  0.5368 -0.1176
  456MOL0     C62854   8.957   9.995   2.087 -1.1194  0.2800  0.6153
  456MOL0     C62855   8.980  10.015   2.203 -1.2158  0.7313 -0.1820
  456MOL0     C62856   9.376   9.592   2.149 -0.8633  0.9594 -0.1479
  456MOL0     C62857   9.391   9.491   2.248  0.2187 -0.2370  0.0304
  456MOL0     C62858   9.475   9.529   2.373 -0.2719 -0.8220  0.3798
  456MOL0     H62859   9.273   9.094   2.570 -1.7214  0.2840 -0.3266
  456MOL0     H62860   9.243   8.874   2.686 -1.0870  0.0437 -0.6181
  456MOL0     H62861   9.224   8.519   2.429  0.3378 -2.0741  0.9919
  456MOL0     H62862   9.267   8.453   2.583 -0.7604 -0.4522 -0.3985
  456MOL0     H62863   9.468   8.469   2.465  0.4959 -0.6161  1.9797
  456MOL0     H62864   9.446   8.645   2.437  1.8508 -0.1241 -0.9191
  456MOL0     H62865   9.478   8.710   2.648  1.1253  0.8742 -1.7579
  456MOL0     H62866   9.453   8.549   2.729  0.5586 -1.8530 -0.6429
  456MOL0     H62867   9.655   8.462   2.638  0.3130  0.2345  0.0086
  456MOL0     H62868   9.675   8.606   2.522  1.1248  1.0224  0.3429
  456MOL0     H62869   9.665   8.654   2.814 -0.4986 -2.7936 -0.1261
  456MOL0     H62870   9.721   8.753   2.681 -2.3813 -1.0837 -0.7656
  456MOL0     H62871   9.858   8.495   2.765 -1.2054  0.5925  0.6995
  456MOL0     H62872   9.922   8.605   2.645  0.4334 -0.1217  0.5139
  456MOL0     H62873   9.927   8.610   2.943 -0.6094  0.8397  0.5295
  456MOL0     H62874   9.884   8.770   2.877  1.2299  1.3628 -2.5929
  456MOL0     H62875  10.119   8.609   2.800 -0.1715 -1.0426  2.8866
  456MOL0     H62876  10.070   8.780   2.739 -1.0905  1.1253  1.2532
  456MOL0     H62877  10.333   8.658   2.956  0.6424  1.2089 -1.2561
  456MOL0     H62878  10.372   8.647   3.245 -0.4015  0.0483  1.4668
  456MOL0     H62879  10.372   8.807   3.303  1.4199 -2.5675  1.7615
  456MOL0     H62880  10.530   8.689   3.070  1.2029  4.2109 -4.8496
  456MOL0     H62881  10.504   8.857   3.094 -1.0304  0.0350  0.4514
  456MOL0     H62882  10.580   8.834   3.340 -3.1754 -1.0916 -0.6844
  456MOL0     H62883  10.628   8.673   3.316  2.7195  1.0957  0.3530
  456MOL0     H62884  10.784   8.760   3.125 -1.2028  0.7087 -1.7148
  456MOL0     H62885  10.723   8.923   3.176  0.3873  1.6856  3.7121
  456MOL0     H62886  11.061   8.727   3.376  0.2452 -0.5319 -0.3191
  456MOL0     H62887  11.386   8.873   3.394  0.2251  0.7673 -0.5755
  456MOL0     H62888  11.375   8.755   3.268  1.6211  1.3832 -0.1174
  456MOL0     H62889  11.295   8.727   3.425  1.9230  1.1832  1.9692
  456MOL0     H62890  11.656   8.841   3.192  2.3845 -0.5507  1.4743
  456MOL0     H62891  11.871   8.891   3.142 -0.4344 -0.4307 -0.5550
  456MOL0     H62892  12.017   9.003   2.971  0.7734  0.3338  0.8341
  456MOL0     H62893  11.947   9.160   2.920 -0.6486  1.0014  0.3108
  456MOL0     H62894  12.166   9.159   2.837  1.9179  1.8114 -0.3819
  456MOL0     H62895  12.138   9.276   2.964 -1.9964  0.1192 -0.2074
  456MOL0     H62896  12.286   9.009   2.992 -0.9703 -0.1890 -0.4194
  456MOL0     H62897  12.277   9.141   3.114 -4.0130 -1.2360  0.0430
  456MOL0     H62898  12.413   9.293   2.982  2.9081  0.3026 -1.3988
  456MOL0     H62899  12.417   9.165   2.853 -0.0938 -0.5182  0.3492
  456MOL0     H62900  12.507   9.102   3.133  0.1493  1.5151 -0.1281
  456MOL0     H62901  12.543   9.018   2.988 -0.4209 -1.1589  2.9135
  456MOL0     H62902  12.651   9.271   3.092  0.4128  1.2738 -0.0998
  456MOL0     H62903  12.663   9.233   2.913 -0.7332  1.2427  0.8353
  456MOL0     H62904  12.875   9.172   2.999 -0.4010  2.6050  3.6505
  456MOL0     H62905  12.781   9.030   2.961 -0.5736  1.1317 -1.4374
  456MOL0     H62906  12.722   9.041   3.232  0.3613  1.1708  0.7528
  456MOL0     H62907  12.865   9.153   3.228  1.8627  0.9351  0.0864
  456MOL0     H62908  11.788   9.308   3.194 -0.1529 -0.7421 -1.0206
  456MOL0     H62909  11.559   9.265   3.205 -2.3995 -2.2611  0.7025
  456MOL0     H62910  11.072   9.180   3.178 -0.5193 -2.3347 -5.4760
  456MOL0     H62911  10.872   9.078   3.224 -1.4499 -1.8071  0.1274
  456MOL0     H62912   9.135   8.692   2.310 -0.1526  1.2605 -2.1080
  456MOL0     H62913   9.169   8.909   2.204 -0.1284  0.5410  0.6189
  456MOL0     H62914   9.197   9.259   2.106  1.4049 -0.6984 -1.1867
  456MOL0     H62915   9.153   9.440   1.957  0.8927 -1.5495 -0.4427
  456MOL0     H62916   9.236   9.754   1.760 -0.7226  0.6101  1.0920
  456MOL0     H62917   9.153   9.599   1.804 -2.3990  1.7373 -2.5601
  456MOL0     H62918   9.106   9.773   2.029 -0.0656  1.8936  0.1015
  456MOL0     H62919   8.987   9.718   1.908  0.6458 -0.6791 -1.7164
  456MOL0     H62920   9.165   9.964   1.914  0.3787 -3.2955  2.1391
  456MOL0     H62921   9.072   9.924   1.770  1.3107  0.3709 -0.5228
  456MOL0     H62922   8.860   9.932   1.918 -0.0109  0.0382 -1.1310
  456MOL0     H62923   8.932  10.096   1.907 -1.0943  0.6940  0.5196
  456MOL0     H62924   8.994  10.048   2.304  0.2869  0.0060 -0.1316
  456MOL0     H62925   9.437   9.682   2.154  0.3613  0.2249 -1.2067
  456MOL0     H62926   9.583   9.520   2.357 -0.0060 -0.4244  1.8542
  456MOL0     H62927   9.451   9.631   2.404  0.9530  0.2961 -2.0939
  456MOL0     H62928   9.459   9.466   2.461  0.4526 -0.6890  0.6083
  457MOL0     O62929   7.807   0.911   4.789  0.6660 -0.3641  0.6259
  457MOL0     C62930   7.794   1.034   4.777 -0.6373  0.4221  0.0008
  457MOL0     O62931   7.899   1.122   4.761 -0.2914  0.0445 -0.5880
  457MOL0     C62932   8.021   1.060   4.745 -1.3403 -0.2779  0.1954
  457MOL0     C62933   8.118   1.065   4.840 -0.2261  0.0276 -0.1581
  457MOL0     C62934   8.238   1.000   4.824  0.0773  0.5783  0.9974
  457MOL0     C62935   8.267   0.940   4.700 -0.6407 -0.3156  0.0254
  457MOL0     O62936   8.395   0.886   4.691  0.8473 -0.1748  0.0917
  457MOL0     C62937   8.443   0.835   4.562  0.9706  1.2100  0.2211
  457MOL0     C62938   8.593   0.818   4.563  0.2720  0.1067 -0.1799
  457MOL0     C62939   8.654   0.958   4.558  0.5478  0.9861 -0.0259
  457MOL0     C62940   8.800   0.950   4.608 -0.5439 -0.0057  0.2790
  457MOL0     C62941   8.908   0.896   4.501  1.2234 -0.7212 -0.5109
  457MOL0     C62942   9.047   0.922   4.568  0.2245 -0.7372  0.1910
  457MOL0     C62943   9.160   0.903   4.470  0.4813 -0.1603  0.0722
  457MOL0     C62944   9.190   0.760   4.428 -0.8278 -0.2212 -0.2630
  457MOL0     N62945   9.299   0.763   4.322  0.0924  0.5232 -0.0831
  457MOL0     C62946   9.430   0.811   4.347  0.4073 -0.0821  0.1126
  457MOL0     C62947   9.505   0.772   4.238  0.7964  0.1535 -0.4342
  457MOL0     C62948   9.640   0.817   4.197  0.4500  0.1008  0.0382
  457MOL0     C62949   9.740   0.707   4.245 -0.8723  0.2009 -1.0658
  457MOL0     C62950   9.878   0.774   4.278 -0.8158  0.0482  0.3400
  457MOL0     C62951   9.979   0.670   4.335  0.8678 -0.7273 -0.1634
  457MOL0     O62952  10.073   0.713   4.435  0.1175 -0.2085  0.9179
  457MOL0     C62953  10.158   0.811   4.391  0.1050  0.3088  0.8141
  457MOL0     C62954  10.145   0.930   4.440  0.7401  0.1193  0.3036
  457MOL0     C62955  10.235   1.033   4.409 -0.2977 -0.4044  0.2500
  457MOL0     C62956  10.212   1.170   4.471  0.6796 -0.0476  0.1794
  457MOL0     C62957  10.352   0.996   4.334  0.6380 -0.0807 -0.1618
  457MOL0     C62958  10.466   1.086   4.304  0.1587  0.9276 -0.9169
  457MOL0     O62959  10.551   1.047   4.204  0.5929  0.1767  0.2899
  457MOL0     C62960  10.680   1.076   4.185 -0.1283 -1.7477 -1.1931
  457MOL0     C62961  10.758   1.174   4.257 -0.1854 -0.4900  0.6993
  457MOL0     C62962  10.892   1.195   4.235  1.2884 -0.5457  0.2436
  457MOL0     C62963  10.958   1.107   4.145 -0.4114 -0.0295 -0.7225
  457MOL0     O62964  11.094   1.124   4.134  0.6831 -0.1642 -0.0859
  457MOL0     C62965  11.145   1.107   3.998 -0.9056 -0.8957  0.0522
  457MOL0     C62966  11.197   1.242   3.954  0.0872  0.5168  0.1212
  457MOL0     C62967  11.222   1.248   3.801  0.3439  0.1570 -0.7084
  457MOL0     C62968  11.097   1.252   3.717 -0.7271  0.1504  0.5401
  457MOL0     C62969  11.132   1.256   3.568  0.1084 -0.0185 -0.5502
  457MOL0     C62970  11.021   1.262   3.458 -0.7740  0.3095 -0.5941
  457MOL0     C62971  11.072   1.320   3.325 -0.6603 -0.0178 -0.5778
  457MOL0     C62972  10.965   1.344   3.224 -0.4882  0.6047 -0.2609
  457MOL0    Cl62973  10.870   1.192   3.165 -0.0233  0.1345  0.1902
  457MOL0     C62974  10.891   1.008   4.076  0.2747  0.3698  0.6010
  457MOL0     C62975  10.750   0.993   4.091 -0.3537 -0.1812 -0.4283
  457MOL0     O62976  10.479   1.179   4.384 -0.1840 -0.4869 -0.2703
  457MOL0     C62977  10.360   0.869   4.275  0.3561  0.0574 -0.3489
  457MOL0     C62978  10.265   0.772   4.308 -0.8986 -0.5641 -0.3869
  457MOL0     N62979   9.419   0.691   4.157 -0.6703 -0.1586 -0.4669
  457MOL0     N62980   9.297   0.684   4.206 -0.5157 -0.0070  0.2831
  457MOL0     C62981   8.166   0.933   4.605 -0.6185 -0.0414 -0.5557
  457MOL0     C62982   8.046   0.998   4.622  0.2002 -1.3280  0.2069
  457MOL0     C62983   7.653   1.089   4.770 -0.0659  0.5120 -0.9912
  457MOL0     C62984   7.623   1.205   4.706 -0.3545 -0.1673  0.1915
  457MOL0     C62985   7.494   1.273   4.704 -0.2525  0.3108  0.5173
  457MOL0     C62986   7.388   1.214   4.768  0.7070 -0.2163  0.4744
  457MOL0     O62987   7.263   1.268   4.786 -0.3293  0.5860  0.1288
  457MOL0     C62988   7.252   1.406   4.742  0.3072 -0.3723  0.4546
  457MOL0     C62989   7.116   1.462   4.782 -0.3817  0.2248  0.2614
  457MOL0     C62990   7.014   1.380   4.701  0.9559 -0.5145 -0.0134
  457MOL0     C62991   6.887   1.451   4.689 -0.4035 -0.0441  0.0155
  457MOL0     C62992   6.779   1.361   4.637  0.6331 -0.0074 -0.8372
  457MOL0     C62993   6.679   1.292   4.622 -0.9256  0.8587 -0.3476
  457MOL0     C62994   7.410   1.084   4.810 -0.8991 -0.2273  0.0026
  457MOL0     C62995   7.538   1.024   4.822 -0.4499  0.3807 -0.5277
  457MOL0     C62996   7.528   0.893   4.902 -0.7041  0.4390  0.4259
  457MOL0     H62997   8.092   1.114   4.933 -1.4791 -2.2838  0.8158
  457MOL0     H62998   8.318   0.998   4.898 -0.3732 -0.0080  1.4811
  457MOL0     H62999   8.410   0.901   4.481  0.6123  1.1473  0.3150
  457MOL0     H63000   8.407   0.732   4.548  3.4679  0.4554 -1.4697
  457MOL0     H63001   8.613   0.775   4.661 -0.6006  2.2100  0.9959
  457MOL0     H63002   8.636   0.764   4.478  0.1804 -0.9043  0.4003
  457MOL0     H63003   8.659   0.991   4.454 -0.9777  0.8962 -0.1408
  457MOL0     H63004   8.606   1.031   4.623  2.8731 -0.9392  4.2896
  457MOL0     H63005   8.828   1.053   4.630 -1.1232  0.3384 -0.5712
  457MOL0     H63006   8.804   0.886   4.697 -2.7089  0.7825  1.0094
  457MOL0     H63007   8.888   0.957   4.413 -0.2944  3.2660  2.2865
  457MOL0     H63008   8.891   0.791   4.479 -0.9782 -0.3897 -0.6568
  457MOL0     H63009   9.055   1.024   4.607  0.4540 -2.8617  7.0054
  457MOL0     H63010   9.059   0.859   4.656 -1.0916  2.9066  3.2337
  457MOL0     H63011   9.249   0.955   4.508 -0.0770  0.4057  0.6285
  457MOL0     H63012   9.135   0.956   4.378  1.6453  0.5197  0.1347
  457MOL0     H63013   9.228   0.711   4.518 -1.4846  0.6272  0.5052
  457MOL0     H63014   9.107   0.696   4.399 -0.2517 -1.0292 -0.1401
  457MOL0     H63015   9.458   0.870   4.433 -1.3949  0.0650  0.6496
  457MOL0     H63016   9.659   0.916   4.238  0.6881  0.3419 -0.6418
  457MOL0     H63017   9.648   0.838   4.090 -0.0092  3.9960  0.6307
  457MOL0     H63018   9.695   0.654   4.329  0.0713  0.3307 -0.4624
  457MOL0     H63019   9.747   0.635   4.163 -1.4636 -0.3590 -0.6295
  457MOL0     H63020   9.921   0.817   4.186 -1.1816  0.6077  0.4240
  457MOL0     H63021   9.867   0.856   4.350 -1.4466  0.1602  0.1293
  457MOL0     H63022   9.911   0.599   4.383  1.2959 -0.1182  1.4070
  457MOL0     H63023  10.017   0.614   4.250 -1.5327 -1.8400 -0.6020
  457MOL0     H63024  10.067   0.967   4.507 -0.7210 -0.6756 -0.9001
  457MOL0     H63025  10.295   1.187   4.540  1.5331  1.3798 -1.1478
  457MOL0     H63026  10.115   1.179   4.521  0.0603 -3.5641 -0.0848
  457MOL0     H63027  10.213   1.236   4.384 -0.1924  1.7946  1.5104
  457MOL0     H63028  10.710   1.242   4.326 -2.5930 -0.9398 -0.4326
  457MOL0     H63029  10.937   1.270   4.300 -0.2975 -0.5462  1.4034
  457MOL0     H63030  11.219   1.028   3.984 -1.2963 -1.1503 -0.6088
  457MOL0     H63031  11.061   1.090   3.930 -1.2745 -0.7066  0.4607
  457MOL0     H63032  11.121   1.316   3.984 -2.1261 -2.4676  2.5075
  457MOL0     H63033  11.298   1.258   3.994  1.1321  1.4888 -2.6758
  457MOL0     H63034  11.280   1.161   3.771 -0.3805 -0.2188 -1.0420
  457MOL0     H63035  11.284   1.337   3.788 -0.9883  1.4699  1.2371
  457MOL0     H63036  11.042   1.342   3.746  0.2558  0.3705  1.7717
  457MOL0     H63037  11.035   1.167   3.745  2.7610 -2.7177  0.1342
  457MOL0     H63038  11.208   1.331   3.544  0.3369 -0.2819 -0.6509
  457MOL0     H63039  11.192   1.165   3.560  0.1841  0.0484 -0.7278
  457MOL0     H63040  10.936   1.324   3.489  0.2040  2.4283 -1.9087
  457MOL0     H63041  10.978   1.162   3.440 -2.1908  0.6011  0.9423
  457MOL0     H63042  11.140   1.245   3.283  2.5494  1.7042  1.1118
  457MOL0     H63043  11.127   1.412   3.343 -0.2625  0.2031 -2.6788
  457MOL0     H63044  11.018   1.373   3.133 -0.4204 -1.3191 -0.8889
  457MOL0     H63045  10.896   1.415   3.271 -0.2655  0.4245  0.3427
  457MOL0     H63046  10.934   0.933   4.011 -1.3540 -0.5687  0.5494
  457MOL0     H63047  10.696   0.910   4.047 -1.4834 -1.0254  2.3363
  457MOL0     H63048  10.441   0.834   4.211 -0.5102  0.5887 -1.8064
  457MOL0     H63049  10.285   0.672   4.270  2.4809 -0.0542 -0.2738
  457MOL0     H63050   8.197   0.892   4.509  1.6156 -0.3918  0.2754
  457MOL0     H63051   7.980   0.987   4.537  1.6249 -0.4967 -1.0635
  457MOL0     H63052   7.710   1.261   4.673 -1.0824 -0.2760 -2.1320
  457MOL0     H63053   7.489   1.371   4.659  3.5807  0.2060 -0.4156
  457MOL0     H63054   7.333   1.470   4.779  0.6039  0.3093 -1.3083
  457MOL0     H63055   7.254   1.409   4.633  0.3873 -0.2679  0.4601
  457MOL0     H63056   7.098   1.569   4.768 -0.9167  0.1007 -0.0379
  457MOL0     H63057   7.093   1.445   4.887 -2.5236  1.4658  0.0395
  457MOL0     H63058   7.064   1.349   4.609  0.4985  1.7459 -1.0953
  457MOL0     H63059   7.000   1.288   4.758  1.8149 -0.5627  0.1316
  457MOL0     H63060   6.903   1.543   4.631 -0.0263  0.3218  0.6865
  457MOL0     H63061   6.855   1.482   4.789 -0.3133  2.0504 -0.5577
  457MOL0     H63062   6.596   1.226   4.608  0.4376 -1.2334  0.8675
  457MOL0     H63063   7.331   1.033   4.864  0.8189 -3.1983 -0.0722
  457MOL0     H63064   7.423   0.870   4.925 -1.2300  1.3775 -0.8747
  457MOL0     H63065   7.566   0.806   4.848 -1.5365 -1.3158  2.5554
  457MOL0     H63066   7.573   0.901   5.001  0.0048 -0.5811  0.1995
  458MOL0     O63067   9.899   1.628   7.346 -0.5298 -0.5710 -0.4516
  458MOL0     C63068   9.943   1.547   7.265 -0.0619  0.9734  0.6099
  458MOL0     O63069  10.070   1.538   7.216  0.3349  0.4546  0.3744
  458MOL0     C63070  10.179   1.582   7.285 -0.6768  0.5484 -0.8827
  458MOL0     C63071  10.187   1.628   7.419 -0.1139  0.0492 -0.0386
  458MOL0     C63072  10.307   1.650   7.478 -0.2404 -0.0304 -0.0476
  458MOL0     C63073  10.426   1.642   7.399 -0.7289  0.2337 -0.3028
  458MOL0     O63074  10.546   1.670   7.455 -0.1869 -0.4236  0.8045
  458MOL0     C63075  10.568   1.805   7.453  0.5991  0.5384 -0.3907
  458MOL0     C63076  10.703   1.844   7.505  0.3827 -0.8248  1.0542
  458MOL0     C63077  10.813   1.803   7.404 -0.4911  0.0274  0.0547
  458MOL0     C63078  10.913   1.906   7.394 -0.4063 -0.8878  0.1822
  458MOL0     C63079  11.041   1.853   7.324 -0.0600 -0.5484 -0.5754
  458MOL0     C63080  11.139   1.971   7.285  0.1228  0.4807 -1.0778
  458MOL0     C63081  11.092   2.058   7.170 -0.1847 -0.6178 -0.5849
  458MOL0     C63082  11.150   2.193   7.145 -0.1053 -0.6820  0.3060
  458MOL0     N63083  11.299   2.196   7.134 -0.8472  0.5084 -0.3531
  458MOL0     C63084  11.376   2.128   7.038  0.5367  0.4689  0.2773
  458MOL0     C63085  11.497   2.182   7.053 -0.3427 -0.4151  0.6472
  458MOL0     C63086  11.627   2.142   6.981 -0.4701  0.1643  0.1255
  458MOL0     C63087  11.736   2.113   7.092  0.1551  0.3579 -0.1464
  458MOL0     C63088  11.847   2.020   7.041  0.0120 -0.5387 -1.1352
  458MOL0     C63089  11.932   2.064   6.927 -0.4053  0.4354 -0.7642
  458MOL0     O63090  12.036   1.963   6.895  0.2413 -0.1877 -0.0360
  458MOL0     C63091  12.162   1.983   6.848 -1.1992 -1.0669 -0.2000
  458MOL0     C63092  12.231   2.103   6.874 -0.3071  0.1276  0.0373
  458MOL0     C63093  12.357   2.117   6.823  0.1846  0.3493 -0.0699
  458MOL0     C63094  12.410   2.262   6.843  0.0099  0.1824 -0.0830
  458MOL0     C63095  12.431   2.011   6.760  0.2854  0.1642 -1.0398
  458MOL0     C63096  12.564   2.020   6.706  0.8049  0.3249 -0.7643
  458MOL0     O63097  12.596   1.912   6.635  0.0522  0.1649  0.8463
  458MOL0     C63098  12.728   1.888   6.612  0.0642 -0.7900  0.2203
  458MOL0     C63099  12.801   1.956   6.513 -0.5630  0.1894 -0.2762
  458MOL0     C63100  12.936   1.950   6.496  0.3528 -0.0514 -0.3874
  458MOL0     C63101  13.011   1.875   6.595  0.5251  0.2787 -0.6306
  458MOL0     O63102  13.145   1.873   6.570 -0.1724 -0.0773  0.1516
  458MOL0     C63103  13.232   1.826   6.671 -0.2709 -0.1128 -0.0420
  458MOL0     C63104  13.367   1.854   6.622  0.4795 -0.5886  0.0599
  458MOL0     C63105  13.462   1.814   6.740  0.3275 -0.5565  0.4222
  458MOL0     C63106  13.599   1.770   6.694  0.7630  0.4676  0.0674
  458MOL0     C63107  13.709   1.778   6.797 -0.1425 -0.1083 -0.8409
  458MOL0     C63108  13.728   1.916   6.871 -0.1921  0.7882  0.5156
  458MOL0     C63109  13.875   1.943   6.915 -0.2453  0.3033 -0.0664
  458MOL0     C63110  13.873   2.084   6.989  0.1053  0.2044  0.5907
  458MOL0    Cl63111  13.826   2.066   7.164  0.2568 -0.2155 -0.3359
  458MOL0     C63112  12.944   1.812   6.694  0.3387  0.1671  0.2933
  458MOL0     C63113  12.806   1.821   6.712 -0.6549  0.5831 -0.5644
  458MOL0     O63114  12.631   2.117   6.727 -0.2992  0.3425 -0.3601
  458MOL0     C63115  12.365   1.887   6.749  0.1683 -0.9315 -0.0513
  458MOL0     C63116  12.235   1.870   6.793  0.0747  0.3216 -0.9890
  458MOL0     N63117  11.499   2.272   7.159  0.1982 -0.3777  0.0238
  458MOL0     N63118  11.380   2.281   7.203  0.1364  0.4472  0.7272
  458MOL0     C63119  10.424   1.611   7.266 -0.1971 -0.0700 -0.1087
  458MOL0     C63120  10.301   1.572   7.211 -0.4403 -0.6387  0.5644
  458MOL0     C63121   9.850   1.452   7.199  0.3192  0.4686 -1.0510
  458MOL0     C63122   9.914   1.330   7.182  0.2855  0.6441 -0.6710
  458MOL0     C63123   9.847   1.237   7.107 -0.3085  0.9489 -0.7010
  458MOL0     C63124   9.713   1.255   7.059 -0.2107  0.0980 -0.5293
  458MOL0     O63125   9.640   1.153   6.999 -0.0686 -0.1118 -0.6322
  458MOL0     C63126   9.493   1.145   7.000 -0.3323 -0.6354  0.8976
  458MOL0     C63127   9.456   1.011   7.071  1.0279  0.1042 -0.1752
  458MOL0     C63128   9.314   0.962   7.020  0.0805 -0.4023  0.3024
  458MOL0     C63129   9.287   0.813   7.043 -0.4325  0.6598  0.1314
  458MOL0     C63130   9.264   0.794   7.189 -0.1285 -0.7368 -0.6822
  458MOL0     C63131   9.224   0.788   7.297  0.0910 -0.6412  0.3955
  458MOL0     C63132   9.652   1.379   7.089  0.6205 -0.3696 -0.2946
  458MOL0     C63133   9.719   1.485   7.164 -0.0541  0.0034  0.2052
  458MOL0     C63134   9.654   1.614   7.193  0.0243 -0.8456  0.1132
  458MOL0     H63135  10.099   1.649   7.478 -0.6518 -0.1409 -0.7683
  458MOL0     H63136  10.311   1.665   7.585 -4.2092  0.2478  0.2214
  458MOL0     H63137  10.497   1.849   7.523  1.2918 -1.8160  1.9297
  458MOL0     H63138  10.563   1.847   7.352 -0.8104  0.0179 -0.5583
  458MOL0     H63139  10.713   1.951   7.526  0.9096 -1.1459  2.5811
  458MOL0     H63140  10.716   1.800   7.604  0.0529 -1.5636  0.7789
  458MOL0     H63141  10.850   1.708   7.444  0.6584 -0.4974 -2.1136
  458MOL0     H63142  10.772   1.784   7.304 -1.4257 -0.1323  0.4541
  458MOL0     H63143  10.868   1.990   7.340  1.3182  0.2469  0.4263
  458MOL0     H63144  10.948   1.947   7.489  0.6798 -2.7015  0.6223
  458MOL0     H63145  11.004   1.795   7.239 -1.6925 -2.6273  1.4271
  458MOL0     H63146  11.088   1.773   7.382  0.0440 -0.2624 -0.2629
  458MOL0     H63147  11.166   2.028   7.374 -0.7077  0.0575 -0.5445
  458MOL0     H63148  11.230   1.929   7.240  0.9306 -1.6020  2.1740
  458MOL0     H63149  10.984   2.073   7.175 -0.4862 -1.7576 -2.4703
  458MOL0     H63150  11.111   1.988   7.087  3.2150  0.5870 -0.9647
  458MOL0     H63151  11.103   2.225   7.051 -1.1651 -1.3205  0.6087
  458MOL0     H63152  11.118   2.266   7.220 -4.3596  0.8434 -2.6143
  458MOL0     H63153  11.355   2.054   6.961 -0.3349  0.0756  0.8763
  458MOL0     H63154  11.654   2.229   6.921 -3.1171  1.8476  1.2073
  458MOL0     H63155  11.613   2.053   6.919 -2.3301 -1.9914  3.3442
  458MOL0     H63156  11.783   2.203   7.133  1.9697 -0.3045 -0.6340
  458MOL0     H63157  11.680   2.071   7.176 -1.9684  3.5858  0.2035
  458MOL0     H63158  11.910   2.007   7.129  0.4503 -0.7766 -1.4803
  458MOL0     H63159  11.808   1.922   7.009  0.4430 -1.0034 -0.2675
  458MOL0     H63160  11.872   2.082   6.837 -0.3703 -0.5920 -1.0058
  458MOL0     H63161  11.979   2.159   6.954 -0.8486  0.2059  0.9009
  458MOL0     H63162  12.181   2.171   6.942 -1.1326 -0.9944  0.6025
  458MOL0     H63163  12.430   2.316   6.750 -0.5109  0.1200 -0.2353
  458MOL0     H63164  12.501   2.264   6.904 -0.3026  2.0720  0.3861
  458MOL0     H63165  12.341   2.328   6.896  0.6884  0.6222  0.2701
  458MOL0     H63166  12.737   1.998   6.436 -2.0921  0.0002  0.8536
  458MOL0     H63167  12.994   1.991   6.414  1.3643  0.2179  0.4298
  458MOL0     H63168  13.206   1.877   6.764  0.0363  0.9612 -0.5369
  458MOL0     H63169  13.227   1.718   6.690  0.2853 -0.4044 -1.4064
  458MOL0     H63170  13.385   1.794   6.532  0.2875 -0.1809 -0.2521
  458MOL0     H63171  13.374   1.959   6.594 -0.3586 -1.2288 -2.9188
  458MOL0     H63172  13.417   1.726   6.786 -1.4061 -0.3635 -0.7961
  458MOL0     H63173  13.458   1.894   6.816 -1.6850  0.5689 -0.7862
  458MOL0     H63174  13.628   1.842   6.617 -1.3970  0.2703 -1.0081
  458MOL0     H63175  13.605   1.670   6.649  0.6786  0.4612  0.0704
  458MOL0     H63176  13.692   1.702   6.874 -3.1615  3.1230  2.0466
  458MOL0     H63177  13.809   1.758   6.758  0.9640  0.5498  1.4917
  458MOL0     H63178  13.672   1.909   6.965  1.3559 -3.2203  1.3510
  458MOL0     H63179  13.704   1.999   6.805 -0.4565 -0.5968 -1.1996
  458MOL0     H63180  13.949   1.931   6.836  0.1623 -0.2007  0.3812
  458MOL0     H63181  13.910   1.863   6.981 -0.4785 -1.4373 -1.9838
  458MOL0     H63182  13.814   2.158   6.934  0.5730  0.3907  0.3229
  458MOL0     H63183  13.973   2.129   6.993 -0.6712  2.4418 -1.8442
  458MOL0     H63184  12.996   1.769   6.780 -1.5377 -2.5509  0.1777
  458MOL0     H63185  12.764   1.779   6.803  1.3520 -1.4701 -0.5014
  458MOL0     H63186  12.407   1.793   6.714  0.4042 -0.9613  0.3030
  458MOL0     H63187  12.180   1.779   6.771 -0.4317  0.7062 -1.3401
  458MOL0     H63188  10.515   1.601   7.207  0.5411 -1.9599  1.2394
  458MOL0     H63189  10.291   1.537   7.108 -0.5087 -1.9986  1.0173
  458MOL0     H63190  10.014   1.301   7.212 -0.2603  0.6726  1.3236
  458MOL0     H63191   9.894   1.142   7.084 -0.1909  0.8134  0.0577
  458MOL0     H63192   9.434   1.225   7.046  0.2622 -1.4735  3.2143
  458MOL0     H63193   9.468   1.144   6.893 -0.3085  0.0845  0.8795
  458MOL0     H63194   9.445   1.022   7.179  0.3349 -0.8731 -0.1408
  458MOL0     H63195   9.531   0.936   7.046  1.3744  0.5089 -0.3545
  458MOL0     H63196   9.238   1.028   7.062  0.6313  1.3898 -1.4041
  458MOL0     H63197   9.311   0.975   6.911  2.5680  0.9331  0.3288
  458MOL0     H63198   9.376   0.763   7.002 -0.4583  2.1032 -1.8202
  458MOL0     H63199   9.200   0.780   6.986 -1.1041 -0.6799  1.8404
  458MOL0     H63200   9.184   0.779   7.396  0.2677  1.8416  0.7343
  458MOL0     H63201   9.550   1.408   7.068  0.7531  0.5640  0.2866
  458MOL0     H63202   9.563   1.616   7.132 -0.4253 -0.3667  0.7923
  458MOL0     H63203   9.633   1.619   7.300 -0.4159  1.3233 -0.0296
  458MOL0     H63204   9.719   1.700   7.176 -1.9130  0.4823 -0.8513
  459MOL0     O63205   7.991   6.669   1.472  0.2028  0.4740  0.3612
  459MOL0     C63206   7.913   6.736   1.414 -0.5646  1.3387  0.3871
  459MOL0     O63207   7.938   6.860   1.379  0.5599  0.0992  0.6845
  459MOL0     C63208   8.039   6.928   1.450 -0.0686 -0.9953  0.8424
  459MOL0     C63209   8.037   6.969   1.587  0.3551  0.8426  0.2067
  459MOL0     C63210   8.135   7.056   1.650 -0.6479  1.1816 -0.2137
  459MOL0     C63211   8.242   7.095   1.572 -0.3390  0.1497 -0.1840
  459MOL0     O63212   8.338   7.176   1.611 -1.1107 -0.2294 -0.5356
  459MOL0     C63213   8.346   7.229   1.748  0.2188  0.4482  0.7614
  459MOL0     C63214   8.462   7.317   1.773 -0.2129 -0.2083  0.0331
  459MOL0     C63215   8.599   7.246   1.773  0.4318  0.8983 -1.6581
  459MOL0     C63216   8.702   7.354   1.803 -0.1204 -0.2755  0.1494
  459MOL0     C63217   8.836   7.290   1.816 -0.7089 -0.1530  0.5353
  459MOL0     C63218   8.938   7.391   1.860 -0.5293 -0.3806  0.3648
  459MOL0     C63219   9.082   7.327   1.887 -0.7892 -0.3491  0.3094
  459MOL0     C63220   9.184   7.432   1.928 -0.4325 -0.6136 -0.3464
  459MOL0     N63221   9.305   7.354   1.905 -0.7996 -0.9267  0.0336
  459MOL0     C63222   9.398   7.309   1.997 -0.3420 -0.0309  0.9394
  459MOL0     C63223   9.509   7.273   1.927 -0.1491 -0.1807 -0.8173
  459MOL0     C63224   9.638   7.233   1.997 -0.5504  0.3413  0.1490
  459MOL0     C63225   9.751   7.322   1.953 -0.6257 -0.3437 -0.2094
  459MOL0     C63226   9.889   7.298   2.029 -0.4043  0.5990 -0.2179
  459MOL0     C63227   9.938   7.160   1.992 -0.8423  0.1389 -0.1113
  459MOL0     O63228   9.910   7.127   1.859  0.2532  0.7019  0.2912
  459MOL0     C63229   9.948   7.008   1.802 -0.2998  0.4351  0.3283
  459MOL0     C63230   9.873   6.976   1.687 -0.4027  0.1197 -1.0072
  459MOL0     C63231   9.916   6.868   1.612  0.5752 -0.0473 -0.3137
  459MOL0     C63232   9.818   6.812   1.513 -0.1986 -1.3131  0.6813
  459MOL0     C63233  10.031   6.791   1.646 -0.9559 -0.7584 -0.1472
  459MOL0     C63234  10.091   6.675   1.577 -0.1460 -0.5830 -0.4376
  459MOL0     O63235  10.208   6.636   1.636  0.1528 -0.6599 -0.0124
  459MOL0     C63236  10.272   6.530   1.584  0.1832 -0.1172 -0.0058
  459MOL0     C63237  10.337   6.448   1.676 -0.0175 -0.3068  0.3352
  459MOL0     C63238  10.409   6.330   1.637  0.4019  1.0000  0.1896
  459MOL0     C63239  10.419   6.305   1.500  0.7333  0.0585 -0.5907
  459MOL0     O63240  10.471   6.189   1.448  0.1699 -0.9412  0.3326
  459MOL0     C63241  10.591   6.144   1.516 -0.0984 -0.5305 -0.0188
  459MOL0     C63242  10.644   6.015   1.455 -0.2460 -0.0844  0.0878
  459MOL0     C63243  10.778   5.984   1.526 -1.5199 -0.2506 -0.2121
  459MOL0     C63244  10.869   5.880   1.450 -0.5968  0.2438  0.1639
  459MOL0     C63245  11.009   5.872   1.517  0.2904  0.4718  0.0690
  459MOL0     C63246  11.079   5.744   1.481  0.0681 -1.0010  0.0424
  459MOL0     C63247  11.221   5.741   1.543 -0.0459  0.0402  0.6586
  459MOL0     C63248  11.235   5.734   1.696  0.8938  0.2373 -0.0339
  459MOL0    Cl63249  11.398   5.700   1.755 -0.0179 -0.0468  0.3027
  459MOL0     C63250  10.373   6.399   1.408  0.6091 -0.1216  0.0718
  459MOL0     C63251  10.299   6.508   1.451 -0.3589  0.9226  0.5330
  459MOL0     O63252  10.036   6.622   1.478 -0.8069  0.0328  0.5690
  459MOL0     C63253  10.106   6.833   1.757 -1.0472 -0.4122  0.0101
  459MOL0     C63254  10.062   6.937   1.838  0.5823 -0.0370 -0.6252
  459MOL0     N63255   9.489   7.292   1.789 -0.0111  0.2588 -0.5268
  459MOL0     N63256   9.366   7.335   1.784 -0.5311 -0.0465 -0.2504
  459MOL0     C63257   8.254   7.053   1.440 -0.1399 -0.1131  0.4956
  459MOL0     C63258   8.164   6.965   1.377  0.8821  0.3803 -0.9509
  459MOL0     C63259   7.779   6.685   1.397  0.5052  0.0844  0.7902
  459MOL0     C63260   7.674   6.779   1.382  0.3903  0.0403  0.2240
  459MOL0     C63261   7.537   6.741   1.354 -0.5226 -0.0238  0.7608
  459MOL0     C63262   7.501   6.600   1.357 -0.4315  0.5270  0.3866
  459MOL0     O63263   7.378   6.545   1.325 -0.9186 -0.2861 -0.1386
  459MOL0     C63264   7.260   6.613   1.362 -0.0580 -0.3026  0.6548
  459MOL0     C63265   7.145   6.518   1.423  0.2503  0.2575 -0.0872
  459MOL0     C63266   7.205   6.409   1.500  0.0068 -0.4405 -0.7150
  459MOL0     C63267   7.113   6.298   1.554 -0.4095  0.2492 -0.1970
  459MOL0     C63268   7.047   6.344   1.675 -0.0772  0.0251  0.1716
  459MOL0     C63269   7.002   6.378   1.780  0.2909 -0.3006 -0.5187
  459MOL0     C63270   7.603   6.512   1.368  0.3021  0.6431 -0.3184
  459MOL0     C63271   7.739   6.548   1.397  0.0976  0.1471 -0.2283
  459MOL0     C63272   7.838   6.431   1.407  0.1026 -0.2375  0.2733
  459MOL0     H63273   7.951   6.936   1.644  0.5604  0.9832  0.6067
  459MOL0     H63274   8.128   7.094   1.752 -1.2435 -1.2407  0.7246
  459MOL0     H63275   8.340   7.144   1.817 -2.2608  0.5530  0.7685
  459MOL0     H63276   8.249   7.280   1.752 -1.5550 -2.1366 -2.7471
  459MOL0     H63277   8.472   7.387   1.689 -0.7649  0.4077  0.4687
  459MOL0     H63278   8.445   7.373   1.865  2.0729  0.7998 -0.1067
  459MOL0     H63279   8.606   7.171   1.851  1.4421  0.4360 -2.1840
  459MOL0     H63280   8.612   7.184   1.684  0.5355 -3.2428  0.9909
  459MOL0     H63281   8.702   7.423   1.718  0.3891 -1.1394 -0.5720
  459MOL0     H63282   8.657   7.413   1.883 -1.9030  3.2915 -3.1650
  459MOL0     H63283   8.869   7.246   1.721 -1.8407  1.3985 -0.6189
  459MOL0     H63284   8.838   7.205   1.885  4.6087 -0.0153  0.9476
  459MOL0     H63285   8.938   7.473   1.788 -1.6055  0.5957  1.4369
  459MOL0     H63286   8.898   7.432   1.953 -1.8638 -0.6025 -0.0957
  459MOL0     H63287   9.111   7.271   1.797 -1.7162 -0.2135 -0.0831
  459MOL0     H63288   9.065   7.258   1.969  1.7711  0.4713  1.6559
  459MOL0     H63289   9.183   7.521   1.865  3.1133 -0.0264  0.2272
  459MOL0     H63290   9.177   7.455   2.034 -2.1664  1.0116 -0.7694
  459MOL0     H63291   9.376   7.304   2.103 -1.2812 -0.9623  0.7230
  459MOL0     H63292   9.652   7.124   1.991 -1.0298  0.1844  1.6281
  459MOL0     H63293   9.634   7.249   2.105 -1.9282  1.8815 -0.0946
  459MOL0     H63294   9.770   7.309   1.846  2.5730  0.2439  0.1704
  459MOL0     H63295   9.716   7.424   1.970 -0.8564 -0.1264 -1.7807
  459MOL0     H63296   9.971   7.363   1.997  0.2369  0.3444  0.8521
  459MOL0     H63297   9.875   7.308   2.137 -0.3655  0.3466 -0.1900
  459MOL0     H63298  10.045   7.165   2.010 -0.7157  3.2792 -1.1351
  459MOL0     H63299   9.890   7.080   2.051 -0.8390 -0.4769 -0.9232
  459MOL0     H63300   9.783   7.030   1.660  0.0827  1.0915 -0.7420
  459MOL0     H63301   9.741   6.879   1.474  1.2766 -0.3756 -0.7472
  459MOL0     H63302   9.772   6.729   1.565 -2.1732  0.3552  1.7338
  459MOL0     H63303   9.862   6.772   1.421 -1.6040  0.3285 -0.7877
  459MOL0     H63304  10.309   6.467   1.779  1.4759 -3.6311  1.5010
  459MOL0     H63305  10.440   6.256   1.711  0.4693  1.2694  0.4324
  459MOL0     H63306  10.668   6.219   1.498 -0.5781  0.4576  1.7520
  459MOL0     H63307  10.577   6.122   1.623 -1.0343 -1.7956 -0.3718
  459MOL0     H63308  10.573   5.934   1.473 -1.9258  1.7096  2.0984
  459MOL0     H63309  10.665   6.007   1.348 -0.7977 -1.6526  0.0735
  459MOL0     H63310  10.758   5.962   1.632 -1.9390  1.0628 -0.0052
  459MOL0     H63311  10.839   6.075   1.531  1.0510 -1.9187  1.7572
  459MOL0     H63312  10.881   5.902   1.343  1.5223  2.4699  0.7407
  459MOL0     H63313  10.826   5.781   1.461  1.7554 -0.7793  0.8345
  459MOL0     H63314  11.066   5.956   1.476 -1.9313  1.1463 -1.9099
  459MOL0     H63315  11.002   5.885   1.625  0.8868 -0.4715  0.2265
  459MOL0     H63316  11.100   5.741   1.373 -0.1333 -2.3840  0.0197
  459MOL0     H63317  11.038   5.647   1.512  1.2276 -1.0558  1.4630
  459MOL0     H63318  11.268   5.830   1.500  2.0951 -1.9945 -1.4730
  459MOL0     H63319  11.260   5.650   1.497  1.4873  1.5817 -1.2356
  459MOL0     H63320  11.172   5.653   1.733  1.3928  0.4129  1.2511
  459MOL0     H63321  11.196   5.827   1.738 -1.6285 -0.2905 -0.9723
  459MOL0     H63322  10.387   6.372   1.304  1.2134 -0.7704  0.3086
  459MOL0     H63323  10.266   6.565   1.365  0.8446  1.2788  0.2929
  459MOL0     H63324  10.190   6.782   1.802 -0.7928  0.3426  0.4098
  459MOL0     H63325  10.121   6.969   1.923 -0.1723  1.4322 -0.6289
  459MOL0     H63326   8.335   7.093   1.381 -0.1236  0.3917  0.8500
  459MOL0     H63327   8.183   6.946   1.272 -1.7714 -1.3114 -1.2171
  459MOL0     H63328   7.693   6.885   1.365 -1.3115  0.2585 -0.4870
  459MOL0     H63329   7.463   6.816   1.325  1.3304  0.7400 -2.5319
  459MOL0     H63330   7.283   6.697   1.428 -0.5090 -0.7207  1.3637
  459MOL0     H63331   7.213   6.663   1.277  0.4721 -1.6887 -0.4739
  459MOL0     H63332   7.077   6.478   1.347 -0.0422 -1.0731  0.8421
  459MOL0     H63333   7.081   6.576   1.491  0.6091  0.9922 -0.3691
  459MOL0     H63334   7.265   6.354   1.426  2.6882  0.3288  0.7543
  459MOL0     H63335   7.273   6.446   1.578  0.3141 -2.8182  0.2275
  459MOL0     H63336   7.170   6.208   1.577  1.2669  1.6299  1.3856
  459MOL0     H63337   7.038   6.267   1.481 -2.2665 -0.4351  1.8946
  459MOL0     H63338   6.960   6.404   1.876  1.6831 -1.9957  0.6183
  459MOL0     H63339   7.571   6.408   1.368  2.7876 -0.2225 -2.0499
  459MOL0     H63340   7.901   6.449   1.320 -0.8752  2.6562  0.0364
  459MOL0     H63341   7.888   6.430   1.504  0.5646  2.7361  0.1703
  459MOL0     H63342   7.784   6.337   1.402  0.9751 -0.8155  1.3086
  460MOL0     O63343   5.454  10.081   5.917 -0.3743 -0.2079  0.0434
  460MOL0     C63344   5.363  10.062   5.999 -0.6264  0.4983 -0.3657
  460MOL0     O63345   5.365  10.113   6.121  0.1492  1.0332 -0.0685
  460MOL0     C63346   5.476  10.183   6.166  0.2249  0.5083  0.0916
  460MOL0     C63347   5.464  10.324   6.173 -0.2419 -0.2506  0.2794
  460MOL0     C63348   5.576  10.398   6.205 -0.6983  0.4707  0.1327
  460MOL0     C63349   5.698  10.336   6.225 -0.3066 -0.2070 -0.9256
  460MOL0     O63350   5.815  10.408   6.246 -0.9909 -0.6018 -0.1853
  460MOL0     C63351   5.825  10.468   6.374 -0.2199  0.2600  0.0944
  460MOL0     C63352   5.907  10.385   6.478 -1.2213 -0.7664  0.2892
  460MOL0     C63353   6.055  10.392   6.469  0.7163 -0.9948  0.2966
  460MOL0     C63354   6.108  10.269   6.543 -0.3594 -0.1835  0.1511
  460MOL0     C63355   6.257  10.266   6.535 -0.4752 -0.4051  0.1355
  460MOL0     C63356   6.313  10.143   6.599 -0.0262  0.6512 -0.1888
  460MOL0     C63357   6.465  10.129   6.597 -0.2392 -0.9284  0.5363
  460MOL0     C63358   6.534  10.140   6.458 -0.1034  0.5230 -0.5987
  460MOL0     N63359   6.677  10.151   6.485  0.6221  0.2053 -0.3925
  460MOL0     C63360   6.740  10.271   6.499 -0.3708 -0.7662  0.0687
  460MOL0     C63361   6.868  10.235   6.525  0.6045 -0.0720 -0.6243
  460MOL0     C63362   6.984  10.330   6.554  0.1349 -0.0665  0.7670
  460MOL0     C63363   7.107  10.302   6.462  0.3820 -0.3564  0.4227
  460MOL0     C63364   7.190  10.176   6.512 -0.5187 -0.0150 -0.0029
  460MOL0     C63365   7.330  10.178   6.448  0.1394  0.5596 -0.4716
  460MOL0     O63366   7.401  10.088   6.530 -0.5626 -0.2102 -0.0222
  460MOL0     C63367   7.515  10.052   6.465  0.8049 -0.1739  0.1970
  460MOL0     C63368   7.622  10.133   6.455  0.5250 -0.1420  0.4509
  460MOL0     C63369   7.735  10.099   6.384 -0.0824  0.0905  0.2653
  460MOL0     C63370   7.860  10.173   6.417 -0.7412 -0.6529  1.6079
  460MOL0     C63371   7.730   9.981   6.307  0.2935  0.0019 -0.0678
  460MOL0     C63372   7.843   9.929   6.222  0.4920  0.1632 -0.7746
  460MOL0     O63373   7.971   9.966   6.261  0.7654  0.6622 -0.0503
  460MOL0     C63374   8.081   9.910   6.204 -1.5055  0.1297  0.5563
  460MOL0     C63375   8.187   9.999   6.165  0.1471 -0.1082  0.4206
  460MOL0     C63376   8.315   9.953   6.121 -0.1380  0.2450  0.2804
  460MOL0     C63377   8.342   9.816   6.124 -0.2405  0.3284 -0.1630
  460MOL0     O63378   8.471   9.787   6.079  0.0744  0.7861 -0.3071
  460MOL0     C63379   8.518   9.652   6.056  0.2054  0.1886  0.4704
  460MOL0     C63380   8.659   9.663   5.986 -0.2216  0.4180 -0.5623
  460MOL0     C63381   8.758   9.747   6.071 -0.3543 -1.3087  0.0418
  460MOL0     C63382   8.902   9.754   6.016  0.1094  0.0798 -0.2668
  460MOL0     C63383   8.991   9.825   6.121 -0.3005  1.1857 -0.2229
  460MOL0     C63384   9.149   9.815   6.098 -0.3526 -0.4937  0.3514
  460MOL0     C63385   9.235   9.896   6.204  0.6693  0.1920 -0.5723
  460MOL0     C63386   9.254   9.807   6.335 -0.4338 -0.3753 -0.7197
  460MOL0    Cl63387   9.379   9.682   6.318 -0.4809 -0.1569 -0.1012
  460MOL0     C63388   8.241   9.729   6.164 -0.0825 -0.2876 -0.0219
  460MOL0     C63389   8.110   9.774   6.201  0.0499 -0.0572 -0.3809
  460MOL0     O63390   7.821   9.851   6.132  0.5533  0.0445 -0.4384
  460MOL0     C63391   7.607   9.905   6.306 -0.0546 -0.4233 -0.3668
  460MOL0     C63392   7.500   9.941   6.386 -0.4850  0.0560  0.1323
  460MOL0     N63393   6.876  10.098   6.518  0.3009  0.5824  0.1831
  460MOL0     N63394   6.761  10.046   6.492 -0.5297 -0.3021 -0.3618
  460MOL0     C63395   5.709  10.197   6.201 -0.7598 -0.3340 -0.0592
  460MOL0     C63396   5.600  10.121   6.177  0.5588 -0.0329 -0.2086
  460MOL0     C63397   5.253   9.974   5.959  0.3601 -0.0764  0.4975
  460MOL0     C63398   5.159   9.941   6.051 -1.0543 -0.0731 -0.8854
  460MOL0     C63399   5.064   9.849   6.033  0.0119 -1.0036  0.6088
  460MOL0     C63400   5.041   9.791   5.906  0.0812  0.1515  0.1167
  460MOL0     O63401   4.931   9.709   5.879  0.1310  0.1622 -0.1204
  460MOL0     C63402   4.858   9.650   5.986  0.2945 -0.6877  0.0207
  460MOL0     C63403   4.792   9.528   5.934 -0.1814 -0.2013  0.2279
  460MOL0     C63404   4.707   9.452   6.033 -0.1536 -0.3510  0.3973
  460MOL0     C63405   4.580   9.522   6.064  0.3124  0.2888 -0.4124
  460MOL0     C63406   4.491   9.436   6.147 -0.2987  0.5964  0.0802
  460MOL0     C63407   4.413   9.365   6.210  0.0584  0.4153 -0.1401
  460MOL0     C63408   5.121   9.829   5.800  0.2111 -0.4597 -0.1053
  460MOL0     C63409   5.226   9.914   5.831 -0.3373 -0.9252  0.8925
  460MOL0     C63410   5.313   9.950   5.701 -0.0540 -0.1733 -0.7907
  460MOL0     H63411   5.370  10.369   6.144 -0.2086 -0.0019  0.5469
  460MOL0     H63412   5.578  10.507   6.208 -0.1805  0.4428  1.5223
  460MOL0     H63413   5.722  10.468   6.411 -1.3814  0.5220 -2.8454
  460MOL0     H63414   5.852  10.573   6.358 -2.5411  0.6494 -1.8516
  460MOL0     H63415   5.893  10.436   6.573  2.0796  3.9938 -1.3964
  460MOL0     H63416   5.869  10.283   6.466 -1.9931 -0.1752 -3.8343
  460MOL0     H63417   6.091  10.393   6.366  1.9051  0.2675  0.7009
  460MOL0     H63418   6.093  10.488   6.506 -0.6826  0.3095 -1.4901
  460MOL0     H63419   6.070  10.266   6.645 -1.1028  0.3921 -0.0992
  460MOL0     H63420   6.068  10.176   6.503 -0.9379 -0.0757  0.4675
  460MOL0     H63421   6.301  10.352   6.586  1.4598 -0.1225 -1.8669
  460MOL0     H63422   6.287  10.258   6.430 -3.3891  1.3336 -0.9611
  460MOL0     H63423   6.273  10.129   6.700 -1.3859  1.5667 -0.5801
  460MOL0     H63424   6.258  10.068   6.542 -1.9790  2.0149 -0.1865
  460MOL0     H63425   6.483  10.039   6.656 -0.3303  0.2236  2.3825
  460MOL0     H63426   6.502  10.214   6.654 -0.9973 -0.3676  0.2102
  460MOL0     H63427   6.496  10.049   6.411  0.3166 -1.7199  3.0469
  460MOL0     H63428   6.505  10.230   6.403  0.0892 -0.8928 -3.1736
  460MOL0     H63429   6.694  10.369   6.494 -0.0678 -0.5684  0.9457
  460MOL0     H63430   7.002  10.314   6.660 -2.3516 -0.7299  1.1400
  460MOL0     H63431   6.952  10.434   6.561  1.7175  0.4315  1.0287
  460MOL0     H63432   7.084  10.303   6.355  1.2835  2.5881  0.1685
  460MOL0     H63433   7.177  10.384   6.477  0.3280 -0.6314  2.4132
  460MOL0     H63434   7.200  10.174   6.621  2.0041  0.0515 -0.1741
  460MOL0     H63435   7.143  10.083   6.476 -2.4419  0.4188  1.2856
  460MOL0     H63436   7.316  10.141   6.345 -1.8691 -1.9689  0.5935
  460MOL0     H63437   7.372  10.278   6.456  1.1972  0.0195  1.1684
  460MOL0     H63438   7.608  10.231   6.499 -0.2377  0.6971 -1.5504
  460MOL0     H63439   7.931  10.108   6.469  3.9141 -0.2294 -3.2766
  460MOL0     H63440   7.854  10.263   6.478 -1.3299 -0.6997  1.6212
  460MOL0     H63441   7.919  10.196   6.327  1.2146 -0.1887  2.9395
  460MOL0     H63442   8.183  10.107   6.176 -0.3596 -0.3752  4.2210
  460MOL0     H63443   8.391  10.026   6.096 -3.8330  4.3108 -0.3117
  460MOL0     H63444   8.533   9.600   6.151  0.9510 -2.3577 -0.9649
  460MOL0     H63445   8.460   9.591   5.987 -0.0638 -0.6602  1.4273
  460MOL0     H63446   8.705   9.565   5.969 -0.2046  0.3345 -0.0491
  460MOL0     H63447   8.632   9.713   5.892  0.6538  1.3471 -0.3276
  460MOL0     H63448   8.758   9.705   6.172 -3.6219 -0.0399  0.6969
  460MOL0     H63449   8.728   9.850   6.090 -0.1635 -1.3722  0.7155
  460MOL0     H63450   8.905   9.811   5.922  1.9875 -1.2506 -1.0778
  460MOL0     H63451   8.926   9.650   5.988 -4.4016 -1.8104  1.8151
  460MOL0     H63452   8.947   9.925   6.126 -1.8720  0.6257 -1.7159
  460MOL0     H63453   8.975   9.782   6.220  1.0476  1.5158  0.1585
  460MOL0     H63454   9.168   9.869   6.005 -1.7258  1.8223  1.3357
  460MOL0     H63455   9.174   9.709   6.092  2.4187  0.0741  0.4186
  460MOL0     H63456   9.175   9.982   6.236 -1.1642 -1.8746  1.9529
  460MOL0     H63457   9.335   9.925   6.169 -0.5217  3.7790 -1.4750
  460MOL0     H63458   9.161   9.760   6.369 -1.6409  1.4523 -1.2931
  460MOL0     H63459   9.283   9.878   6.412 -0.6665  0.1939 -1.1444
  460MOL0     H63460   8.268   9.625   6.151  0.3402 -0.0283 -1.4023
  460MOL0     H63461   8.032   9.705   6.233 -0.0636  1.5792  3.4395
  460MOL0     H63462   7.599   9.823   6.236  2.3139  0.4170 -1.7515
  460MOL0     H63463   7.409   9.885   6.404  0.6647 -2.0937 -0.3469
  460MOL0     H63464   5.807  10.153   6.216 -0.9464 -1.4002 -1.6647
  460MOL0     H63465   5.598  10.012   6.176 -0.4656 -0.0255 -0.5812
  460MOL0     H63466   5.166   9.980   6.152  0.4525  2.2610 -1.7738
  460MOL0     H63467   4.985   9.834   6.106 -0.7533 -1.6835 -0.3337
  460MOL0     H63468   4.918   9.618   6.072  1.8029 -1.3962 -1.2626
  460MOL0     H63469   4.794   9.724   6.035  2.9931  1.1943  0.9767
  460MOL0     H63470   4.870   9.463   5.892 -2.9289 -1.6530 -3.1009
  460MOL0     H63471   4.724   9.555   5.852 -0.6013 -2.9189 -0.4236
  460MOL0     H63472   4.684   9.350   6.002  1.1476 -0.6715  0.4210
  460MOL0     H63473   4.770   9.449   6.122 -0.5967  0.0987  0.7338
  460MOL0     H63474   4.519   9.551   5.978 -0.5083  0.8253  0.3348
  460MOL0     H63475   4.606   9.614   6.118  0.1590  1.5268 -2.3381
  460MOL0     H63476   4.341   9.300   6.255  0.6621 -0.4243 -0.3654
  460MOL0     H63477   5.100   9.784   5.704 -0.0004 -1.6386  0.4682
  460MOL0     H63478   5.404   9.890   5.701 -1.0257 -1.8206  2.0474
  460MOL0     H63479   5.255   9.925   5.612 -1.2614  2.2465 -0.7808
  460MOL0     H63480   5.339  10.056   5.698  0.3239 -0.2012  0.7877
  461MOL0     O63481   9.901  11.133   4.939  0.7071  0.7496  0.7933
  461MOL0     C63482   9.869  11.018   4.901  0.2795 -0.3137 -0.3051
  461MOL0     O63483   9.951  10.926   4.852 -0.0025 -1.1723  0.0956
  461MOL0     C63484  10.086  10.935   4.869 -0.2747  0.1743  0.8511
  461MOL0     C63485  10.155  10.944   4.748  0.5946  0.0445 -0.6989
  461MOL0     C63486  10.294  10.969   4.752  0.2371 -0.3506 -0.3445
  461MOL0     C63487  10.352  10.982   4.880 -0.4552  0.8101  0.4047
  461MOL0     O63488  10.484  11.020   4.894  0.4266 -0.1902  0.1187
  461MOL0     C63489  10.509  11.161   4.881 -0.2208  0.0052 -1.0742
  461MOL0     C63490  10.660  11.190   4.861  0.1509  0.0328 -0.9742
  461MOL0     C63491  10.732  11.182   4.987  0.0260  0.2260 -0.5092
  461MOL0     C63492  10.886  11.200   4.970 -0.6547  0.4790  1.0250
  461MOL0     C63493  10.966  11.163   5.099 -0.5920 -0.0155  0.0566
  461MOL0     C63494  11.111  11.140   5.078 -0.1101 -0.3018  0.6720
  461MOL0     C63495  11.184  11.154   5.216  0.0301 -0.2551 -0.2265
  461MOL0     C63496  11.333  11.134   5.192  0.6740  0.2745  0.0934
  461MOL0     N63497  11.377  11.002   5.170 -0.0148  0.5093  0.3561
  461MOL0     C63498  11.490  10.948   5.226 -0.4269  0.7587  0.4652
  461MOL0     C63499  11.502  10.828   5.160  0.2690  0.2905 -0.1071
  461MOL0     C63500  11.605  10.730   5.197 -0.4721  1.2876 -0.1945
  461MOL0     C63501  11.583  10.666   5.335 -1.1207  0.2887 -0.6630
  461MOL0     C63502  11.653  10.535   5.358 -0.1405  0.0378  0.4967
  461MOL0     C63503  11.809  10.547   5.323 -0.7811  0.2915 -0.1798
  461MOL0     O63504  11.869  10.652   5.405 -0.2094 -0.7674  0.1265
  461MOL0     C63505  12.010  10.662   5.407 -0.6174  0.5257 -1.1031
  461MOL0     C63506  12.093  10.613   5.307 -0.0407 -0.6152  0.1479
  461MOL0     C63507  12.230  10.652   5.303 -0.1665  0.0845 -0.1273
  461MOL0     C63508  12.326  10.589   5.201 -0.1321  0.5151  0.0701
  461MOL0     C63509  12.279  10.742   5.409  0.2548 -0.5016 -0.0371
  461MOL0     C63510  12.419  10.799   5.412 -0.2910  0.3502  0.1618
  461MOL0     O63511  12.494  10.790   5.303 -0.3131  0.6533 -0.2300
  461MOL0     C63512  12.628  10.827   5.303 -0.4485  0.0687 -0.4179
  461MOL0     C63513  12.674  10.947   5.356 -0.0300  0.6580 -0.4009
  461MOL0     C63514  12.817  10.966   5.361 -0.2478 -0.2950 -0.1690
  461MOL0     C63515  12.907  10.867   5.317 -0.6579 -0.6098  1.5329
  461MOL0     O63516  13.042  10.913   5.329 -0.2494 -0.1125 -0.0775
  461MOL0     C63517  13.144  10.867   5.230  0.0203  0.2804 -0.4096
  461MOL0     C63518  13.283  10.912   5.273  0.6257 -0.9477 -0.4270
  461MOL0     C63519  13.318  11.052   5.206  0.3112  0.3972 -0.5632
  461MOL0     C63520  13.205  11.158   5.224  0.2654  0.1919 -0.4724
  461MOL0     C63521  13.266  11.295   5.199  0.1205 -0.1603  1.1309
  461MOL0     C63522  13.333  11.305   5.065  0.4478 -0.7960  0.4346
  461MOL0     C63523  13.389  11.447   5.030 -0.2818  0.3803  0.6107
  461MOL0     C63524  13.423  11.461   4.884  0.4151 -0.1411  0.0610
  461MOL0    Cl63525  13.491  11.618   4.842 -0.2382  0.2599  0.0957
  461MOL0     C63526  12.857  10.756   5.251 -0.0076 -0.1526  0.2872
  461MOL0     C63527  12.722  10.735   5.240  0.1219  0.0938  0.2879
  461MOL0     O63528  12.461  10.843   5.519  0.0393  0.1564 -0.3498
  461MOL0     C63529  12.199  10.774   5.517  0.3941  0.1859  0.1851
  461MOL0     C63530  12.068  10.733   5.507 -0.3165  0.1979 -0.5151
  461MOL0     N63531  11.417  10.823   5.057  0.1309  1.0525  1.4154
  461MOL0     N63532  11.340  10.929   5.066  0.0759 -0.7780  0.5731
  461MOL0     C63533  10.279  10.960   4.996 -0.9721 -0.2119 -0.5701
  461MOL0     C63534  10.142  10.948   4.987  0.0655 -0.1852 -0.5770
  461MOL0     C63535   9.729  10.995   4.897  0.2489  0.4370 -1.4601
  461MOL0     C63536   9.645  11.082   4.968 -0.2209  0.2639 -1.0473
  461MOL0     C63537   9.507  11.071   4.972 -0.3885  0.3637 -0.3577
  461MOL0     C63538   9.451  10.961   4.898  0.3909 -0.4205 -0.1232
  461MOL0     O63539   9.325  10.920   4.908 -0.0591 -0.0167  0.1761
  461MOL0     C63540   9.225  11.009   4.949  0.1555  0.0446  0.7305
  461MOL0     C63541   9.090  10.956   4.920  0.8930  0.8490  0.5764
  461MOL0     C63542   9.045  10.821   4.976 -0.4134  0.2783  0.3252
  461MOL0     C63543   8.939  10.749   4.887 -0.5808 -0.4894  0.2816
  461MOL0     C63544   8.820  10.837   4.883 -0.0712  0.4783  0.4248
  461MOL0     C63545   8.723  10.911   4.894 -0.2113  0.3458 -0.1502
  461MOL0     C63546   9.529  10.875   4.821  0.6207 -0.9291 -0.3079
  461MOL0     C63547   9.671  10.892   4.819  0.7741  0.0511  1.2302
  461MOL0     C63548   9.745  10.793   4.734 -0.0645  0.6066  0.6997
  461MOL0     H63549  10.098  10.939   4.655 -1.8833 -1.3539  0.7766
  461MOL0     H63550  10.354  10.979   4.662 -2.2729  1.7391 -1.9528
  461MOL0     H63551  10.478  11.218   4.969  4.8142 -2.3055  2.6615
  461MOL0     H63552  10.452  11.200   4.795 -0.6418  0.3546 -0.6467
  461MOL0     H63553  10.689  11.106   4.798  0.1935 -0.5574 -0.1938
  461MOL0     H63554  10.670  11.284   4.808 -2.0675 -1.3276 -4.0539
  461MOL0     H63555  10.693  11.252   5.062  0.6818 -0.8208  0.8573
  461MOL0     H63556  10.718  11.081   5.027  0.8938  0.4091  0.3193
  461MOL0     H63557  10.919  11.143   4.883 -1.1527  1.2308  0.3316
  461MOL0     H63558  10.914  11.302   4.943  0.9224 -0.3628 -0.8007
  461MOL0     H63559  10.938  11.060   5.123 -0.1740  0.4792  2.9476
  461MOL0     H63560  10.945  11.233   5.180 -0.5027 -1.7165  1.6019
  461MOL0     H63561  11.111  11.044   5.024 -2.1016  0.2904 -0.4784
  461MOL0     H63562  11.159  11.210   5.009 -2.4630 -0.3663 -1.1432
  461MOL0     H63563  11.160  11.072   5.285 -0.9697  0.9449  0.8851
  461MOL0     H63564  11.166  11.255   5.254  0.6914  0.0444 -0.6968
  461MOL0     H63565  11.361  11.196   5.106 -1.7595 -0.0765 -1.0129
  461MOL0     H63566  11.389  11.165   5.281  1.1731  1.5653 -0.6340
  461MOL0     H63567  11.549  10.984   5.310  1.8331 -1.7872  0.1235
  461MOL0     H63568  11.702  10.779   5.184 -0.4054  0.8433 -1.6249
  461MOL0     H63569  11.604  10.651   5.121 -1.6368  1.9755 -0.9184
  461MOL0     H63570  11.629  10.725   5.416  0.5050 -2.4730  0.5746
  461MOL0     H63571  11.476  10.656   5.355 -1.1956 -1.2508 -1.6614
  461MOL0     H63572  11.641  10.522   5.466  4.1968  0.7400  1.2165
  461MOL0     H63573  11.618  10.446   5.304 -1.7290 -0.8939  2.8748
  461MOL0     H63574  11.862  10.453   5.342  1.7724  1.1289 -2.4182
  461MOL0     H63575  11.830  10.565   5.217 -2.3281  0.0414 -0.5501
  461MOL0     H63576  12.055  10.560   5.221 -1.7869 -2.7410  2.0860
  461MOL0     H63577  12.420  10.562   5.250 -0.6178  0.0123  0.7622
  461MOL0     H63578  12.344  10.661   5.121 -0.0393  0.0502 -0.3354
  461MOL0     H63579  12.286  10.498   5.154  0.2852 -0.2504  1.1586
  461MOL0     H63580  12.598  11.015   5.394 -0.3114  0.8012 -1.1879
  461MOL0     H63581  12.854  11.063   5.392 -0.3706 -0.3323  0.0989
  461MOL0     H63582  13.141  10.758   5.221 -0.4001  0.4279 -2.3382
  461MOL0     H63583  13.126  10.905   5.129 -0.9703  0.5630 -0.1394
  461MOL0     H63584  13.294  10.914   5.382 -0.4519  0.8212 -0.3160
  461MOL0     H63585  13.360  10.845   5.235  0.6818 -1.8658  1.2052
  461MOL0     H63586  13.339  11.023   5.102 -1.0482 -0.7904 -0.5494
  461MOL0     H63587  13.408  11.092   5.252 -0.0946  1.8618 -0.9505
  461MOL0     H63588  13.166  11.143   5.325 -1.7134 -0.5926 -1.3019
  461MOL0     H63589  13.118  11.135   5.162 -0.7323  0.6948  0.7128
  461MOL0     H63590  13.182  11.365   5.197 -0.0967 -0.4359  0.2225
  461MOL0     H63591  13.328  11.339   5.278 -0.1540 -0.0075  1.2617
  461MOL0     H63592  13.258  11.280   4.989  1.4171  0.3028 -0.9417
  461MOL0     H63593  13.414  11.232   5.068  0.7858 -0.4010  2.3920
  461MOL0     H63594  13.480  11.468   5.086  1.4408  2.4779 -2.6692
  461MOL0     H63595  13.319  11.528   5.055  0.4271  1.2398 -0.0793
  461MOL0     H63596  13.332  11.441   4.826  0.8232  0.5959 -0.8439
  461MOL0     H63597  13.501  11.394   4.849  1.0817  1.4339 -1.6333
  461MOL0     H63598  12.917  10.675   5.210 -0.1993 -0.8922  1.4301
  461MOL0     H63599  12.667  10.649   5.202 -0.0805 -0.9428  2.7535
  461MOL0     H63600  12.240  10.826   5.603 -1.1718 -0.1817  1.2036
  461MOL0     H63601  12.002  10.753   5.591 -2.9854  1.5711 -2.7843
  461MOL0     H63602  10.334  10.966   5.090 -1.1216 -0.3753 -0.4715
  461MOL0     H63603  10.087  10.937   5.081  2.6498  0.7446  1.1346
  461MOL0     H63604   9.694  11.159   5.027  0.2687 -0.6920 -0.1671
  461MOL0     H63605   9.440  11.128   5.035 -0.7349  0.9693 -1.2642
  461MOL0     H63606   9.219  11.022   5.057 -0.4352  0.2988  0.6721
  461MOL0     H63607   9.240  11.109   4.907 -1.9585 -0.3325 -1.1446
  461MOL0     H63608   9.073  10.957   4.812  1.6596 -1.7179  0.3898
  461MOL0     H63609   9.015  11.027   4.957  0.2386  0.4973 -0.0553
  461MOL0     H63610   9.135  10.758   4.976 -0.2213  0.5543 -0.0942
  461MOL0     H63611   9.015  10.834   5.081 -3.0098 -0.1556 -0.2942
  461MOL0     H63612   8.911  10.656   4.937  0.6448  0.2064  2.4033
  461MOL0     H63613   8.962  10.718   4.784 -0.0445 -2.2687  0.9049
  461MOL0     H63614   8.653  10.987   4.919 -0.8944 -0.7529  1.4313
  461MOL0     H63615   9.489  10.789   4.770 -0.4396 -1.3136  1.1110
  461MOL0     H63616   9.787  10.713   4.797  0.3601  1.1745  1.1555
  461MOL0     H63617   9.677  10.753   4.659  0.8016 -0.0627  0.2439
  461MOL0     H63618   9.835  10.830   4.683 -0.1411 -0.6235 -0.3798
  462MOL0     O63619   5.061   4.839   6.538  0.9265  0.8177 -1.2060
  462MOL0     C63620   5.029   4.939   6.475 -0.7756  0.8121 -0.8845
  462MOL0     O63621   5.111   5.021   6.408  0.6738 -0.0963  0.7842
  462MOL0     C63622   5.244   4.978   6.391 -0.3807 -0.3786 -0.3388
  462MOL0     C63623   5.274   4.876   6.290 -0.3834 -0.0747 -0.4639
  462MOL0     C63624   5.404   4.815   6.289 -0.6655  0.2388  0.0578
  462MOL0     C63625   5.503   4.853   6.377  0.2176  0.1125  0.2363
  462MOL0     O63626   5.613   4.775   6.379 -0.2790 -0.0913 -0.0212
  462MOL0     C63627   5.737   4.843   6.398  0.1958  0.3557  0.1787
  462MOL0     C63628   5.844   4.742   6.361 -0.1065 -0.0996  0.7701
  462MOL0     C63629   5.983   4.806   6.383  0.1670 -0.2494  0.2733
  462MOL0     C63630   6.103   4.708   6.360  0.1474  0.2848 -0.8906
  462MOL0     C63631   6.238   4.773   6.393 -0.3304 -0.3326  0.5468
  462MOL0     C63632   6.356   4.672   6.399 -0.1373 -0.2415 -0.3359
  462MOL0     C63633   6.477   4.764   6.437 -0.7709  0.7767  0.2731
  462MOL0     C63634   6.555   4.824   6.323  0.4686 -1.2176  0.2750
  462MOL0     N63635   6.694   4.767   6.305  0.1566 -0.0232  0.8113
  462MOL0     C63636   6.739   4.648   6.243 -0.5198 -0.0949  0.2831
  462MOL0     C63637   6.879   4.649   6.258 -0.0015  0.3596 -0.4409
  462MOL0     C63638   6.977   4.563   6.183 -0.3056  0.4425 -0.4320
  462MOL0     C63639   7.079   4.647   6.109 -0.3882 -0.6390  0.0809
  462MOL0     C63640   7.210   4.643   6.201  0.6397 -0.0441 -0.0415
  462MOL0     C63641   7.344   4.706   6.139 -0.5190 -0.4896 -0.4381
  462MOL0     O63642   7.384   4.637   6.019 -0.5751  0.6347 -0.0042
  462MOL0     C63643   7.504   4.670   5.958 -0.1216 -0.1380 -0.2544
  462MOL0     C63644   7.585   4.779   5.996  0.8003  1.1665  0.2042
  462MOL0     C63645   7.693   4.807   5.919  0.2173  0.2257 -0.3102
  462MOL0     C63646   7.751   4.945   5.954 -0.5639 -0.0344 -0.3432
  462MOL0     C63647   7.725   4.736   5.800  0.6764 -0.3238  0.4517
  462MOL0     C63648   7.842   4.764   5.705  0.0093 -0.8850 -0.0415
  462MOL0     O63649   7.951   4.841   5.745 -1.2556  0.1873  0.0393
  462MOL0     C63650   8.059   4.853   5.659  0.3611  0.2297  0.2547
  462MOL0     C63651   8.058   4.908   5.525  0.4358  0.4240 -0.4053
  462MOL0     C63652   8.174   4.928   5.452  0.5294  0.0746  0.9077
  462MOL0     C63653   8.300   4.888   5.503  0.5599  0.2033 -0.0851
  462MOL0     O63654   8.407   4.925   5.421  0.8565  0.7405 -0.3656
  462MOL0     C63655   8.536   4.901   5.475 -0.2337 -0.4392 -0.4035
  462MOL0     C63656   8.616   4.942   5.355 -0.6760  0.1305  0.7024
  462MOL0     C63657   8.764   4.906   5.360  0.2536 -0.7566  0.0976
  462MOL0     C63658   8.833   4.958   5.493 -0.2094 -0.7301 -0.4918
  462MOL0     C63659   8.973   4.996   5.456 -0.2881  0.0600  0.4332
  462MOL0     C63660   9.057   4.889   5.385  0.6351  0.7233  0.1219
  462MOL0     C63661   9.205   4.892   5.398  0.6751 -0.1086  0.7216
  462MOL0     C63662   9.270   5.027   5.384 -0.1222  0.5296  0.1641
  462MOL0    Cl63663   9.436   5.004   5.436  0.4639  0.1733  0.2717
  462MOL0     C63664   8.308   4.831   5.638  0.0141 -0.0065 -0.1730
  462MOL0     C63665   8.185   4.819   5.705 -0.1594  0.4357 -0.0997
  462MOL0     O63666   7.838   4.712   5.594 -0.4240  1.0651  0.0684
  462MOL0     C63667   7.638   4.626   5.765  0.1520 -0.3856 -0.4290
  462MOL0     C63668   7.535   4.590   5.848  0.0757 -0.3323 -0.2787
  462MOL0     N63669   6.911   4.762   6.338  0.5219  0.2473 -0.9012
  462MOL0     N63670   6.800   4.836   6.357 -0.1440  0.2249  0.2464
  462MOL0     C63671   5.463   4.941   6.470 -0.9640 -0.3549 -0.5958
  462MOL0     C63672   5.344   5.002   6.482  0.4210  0.8298 -0.1035
  462MOL0     C63673   4.890   4.983   6.494 -0.1390 -0.3626  0.8357
  462MOL0     C63674   4.784   4.889   6.494 -0.7445  0.7206 -0.5681
  462MOL0     C63675   4.652   4.937   6.500  0.2181  0.0011 -0.1366
  462MOL0     C63676   4.619   5.075   6.527 -0.2071 -0.0732  0.3261
  462MOL0     O63677   4.487   5.105   6.532 -0.3546 -0.0516 -0.0472
  462MOL0     C63678   4.433   5.239   6.566 -0.4592  0.4693 -0.4602
  462MOL0     C63679   4.281   5.251   6.594  0.2820  0.5181  0.2375
  462MOL0     C63680   4.199   5.204   6.472 -0.0283 -0.5367 -0.0270
  462MOL0     C63681   4.049   5.168   6.497 -0.0623 -0.6841  0.1431
  462MOL0     C63682   3.973   5.282   6.555 -0.3714 -0.5315 -0.9434
  462MOL0     C63683   3.916   5.376   6.609 -0.3586 -0.0786  0.4164
  462MOL0     C63684   4.722   5.161   6.534 -0.3293 -0.2673  0.3900
  462MOL0     C63685   4.858   5.122   6.513  0.0503 -0.1553 -0.1314
  462MOL0     C63686   4.965   5.231   6.529 -0.5292 -0.9057 -0.2253
  462MOL0     H63687   5.204   4.839   6.215 -0.3948 -2.0471  0.4660
  462MOL0     H63688   5.415   4.730   6.222 -0.6499  1.8286 -2.0674
  462MOL0     H63689   5.751   4.868   6.503  2.6731 -0.5858  0.1423
  462MOL0     H63690   5.736   4.933   6.336  0.6424  0.3424  0.1466
  462MOL0     H63691   5.842   4.657   6.429 -0.9340 -0.5550  0.1947
  462MOL0     H63692   5.821   4.704   6.261 -3.2629 -0.3890  1.5036
  462MOL0     H63693   5.995   4.899   6.327  1.3856 -0.8439 -0.5100
  462MOL0     H63694   5.991   4.842   6.485  0.1230  1.0941 -0.1846
  462MOL0     H63695   6.095   4.614   6.416  0.7484  0.5989 -0.2550
  462MOL0     H63696   6.094   4.693   6.252  0.9179  3.6305 -1.5378
  462MOL0     H63697   6.222   4.803   6.497 -3.3612  0.3485 -0.0064
  462MOL0     H63698   6.266   4.856   6.328 -3.2042 -0.4469 -1.0266
  462MOL0     H63699   6.343   4.605   6.485 -0.3133  0.2088 -0.0087
  462MOL0     H63700   6.365   4.608   6.312  1.3569 -0.5077 -0.0023
  462MOL0     H63701   6.544   4.707   6.502 -1.5562  0.1497  0.5502
  462MOL0     H63702   6.443   4.846   6.501  2.3349  3.4865 -1.2238
  462MOL0     H63703   6.501   4.838   6.229 -0.0920  0.9545  0.8619
  462MOL0     H63704   6.565   4.930   6.350 -0.5535 -1.3033  1.0536
  462MOL0     H63705   6.686   4.571   6.187 -0.4059  0.2465 -0.2973
  462MOL0     H63706   6.919   4.508   6.108  1.5618 -4.4191  1.3037
  462MOL0     H63707   7.022   4.498   6.258 -0.3886  4.5884  3.6692
  462MOL0     H63708   7.096   4.621   6.004 -0.2756  2.9870 -0.9310
  462MOL0     H63709   7.036   4.746   6.093 -0.0116 -0.0428  2.3832
  462MOL0     H63710   7.190   4.702   6.291 -1.7043  0.6318 -0.9381
  462MOL0     H63711   7.222   4.539   6.234 -3.4886  0.0716  2.5401
  462MOL0     H63712   7.324   4.813   6.125 -1.8797 -0.4340  1.4556
  462MOL0     H63713   7.423   4.689   6.214 -1.6180 -0.6771  0.7074
  462MOL0     H63714   7.557   4.839   6.082 -0.9516  1.3606 -0.4763
  462MOL0     H63715   7.861   4.940   5.954 -0.5512 -0.2545  1.0356
  462MOL0     H63716   7.719   4.969   6.056 -1.8263 -0.7748 -0.5457
  462MOL0     H63717   7.714   5.020   5.885 -0.9697 -0.7595 -0.9279
  462MOL0     H63718   7.960   4.939   5.492 -1.2011 -3.3569  0.4507
  462MOL0     H63719   8.172   4.966   5.350 -3.3373  3.0564  1.8751
  462MOL0     H63720   8.550   4.970   5.559  0.7997 -0.9361 -0.1497
  462MOL0     H63721   8.558   4.797   5.503  0.4723 -0.0823  0.4328
  462MOL0     H63722   8.561   4.903   5.269 -0.8418  1.4198  0.2022
  462MOL0     H63723   8.615   5.051   5.348  0.2135  0.0546 -2.8898
  462MOL0     H63724   8.819   4.951   5.278 -2.5825  3.7055  0.3356
  462MOL0     H63725   8.780   4.798   5.354 -0.3338 -0.8860  0.6708
  462MOL0     H63726   8.824   4.877   5.566  3.0688 -1.9927 -1.2925
  462MOL0     H63727   8.793   5.055   5.525  0.7437 -0.1676 -0.9450
  462MOL0     H63728   8.978   5.094   5.408  1.7741 -0.8237 -1.3008
  462MOL0     H63729   9.031   5.009   5.548  1.9393  0.1934 -0.9172
  462MOL0     H63730   9.026   4.889   5.280 -1.4787 -1.9721  0.6290
  462MOL0     H63731   9.026   4.792   5.426  1.0056  0.4267 -0.2977
  462MOL0     H63732   9.245   4.821   5.325 -2.5990 -1.8885  0.4716
  462MOL0     H63733   9.227   4.848   5.495  0.1799  0.4737  1.1098
  462MOL0     H63734   9.240   5.108   5.451  3.5126  2.0762  0.1650
  462MOL0     H63735   9.258   5.055   5.279 -0.1968 -0.9618 -0.2575
  462MOL0     H63736   8.404   4.813   5.686  0.2656 -3.7795 -1.6930
  462MOL0     H63737   8.204   4.796   5.809  2.7646 -0.0988 -0.6759
  462MOL0     H63738   7.666   4.561   5.682 -1.5453  1.9886 -3.0421
  462MOL0     H63739   7.483   4.496   5.831  0.8648 -0.9513  0.6968
  462MOL0     H63740   5.532   4.971   6.548 -2.5724  1.4450  0.2085
  462MOL0     H63741   5.318   5.063   6.568  1.5240 -0.2273  1.0144
  462MOL0     H63742   4.806   4.784   6.477  1.7187  0.8293  1.3206
  462MOL0     H63743   4.565   4.873   6.498  0.9518 -1.1671  2.2546
  462MOL0     H63744   4.487   5.275   6.654  1.8496 -2.7804 -0.3433
  462MOL0     H63745   4.455   5.297   6.476  0.3265 -1.7168 -1.7389
  462MOL0     H63746   4.265   5.357   6.616 -2.2333  0.2934 -0.3010
  462MOL0     H63747   4.236   5.190   6.673 -1.6041 -0.1341 -1.2639
  462MOL0     H63748   4.189   5.285   6.400  1.1680  0.9655  1.4347
  462MOL0     H63749   4.259   5.127   6.422  1.8534  0.1536  1.0806
  462MOL0     H63750   4.034   5.080   6.560  0.5215 -1.6566 -1.0288
  462MOL0     H63751   4.010   5.141   6.398  0.9028  0.3063 -0.5368
  462MOL0     H63752   3.864   5.460   6.651 -1.2381 -0.2357 -0.3293
  462MOL0     H63753   4.694   5.265   6.550  0.9799 -0.2645  3.3799
  462MOL0     H63754   4.936   5.321   6.582  0.1032 -0.4927 -0.5677
  462MOL0     H63755   5.058   5.199   6.577 -0.2025  0.4004  0.0312
  462MOL0     H63756   4.985   5.275   6.431  0.3250  0.1262  0.4087
  463MOL0     O63757   0.594   6.782   9.855 -0.6245 -0.1261 -0.1165
  463MOL0     C63758   0.559   6.663   9.840 -0.2534  0.3568 -0.6350
  463MOL0     O63759   0.630   6.557   9.876 -0.0444  0.8240  0.0151
  463MOL0     C63760   0.763   6.562   9.897  0.5470  0.8244  0.3738
  463MOL0     C63761   0.806   6.583  10.030  0.6798 -0.0427 -0.7150
  463MOL0     C63762   0.940   6.599  10.056  0.1349 -0.7552  0.3861
  463MOL0     C63763   1.033   6.598   9.950 -0.1059  0.0362 -0.0842
  463MOL0     O63764   1.166   6.604   9.985 -1.1067 -0.0192 -0.5195
  463MOL0     C63765   1.261   6.610   9.884  0.3829 -0.3261  1.1921
  463MOL0     C63766   1.397   6.585   9.935 -0.0791 -0.5028  0.2795
  463MOL0     C63767   1.463   6.707  10.006  0.0225 -0.0023 -0.4397
  463MOL0     C63768   1.602   6.664  10.064 -0.7364  0.1186  0.2037
  463MOL0     C63769   1.692   6.784  10.102 -0.5668  0.5757  0.1888
  463MOL0     C63770   1.830   6.728  10.122 -0.0892  0.1849  0.2857
  463MOL0     C63771   1.905   6.809  10.233 -0.2375  0.1096  0.3824
  463MOL0     C63772   2.058   6.777  10.243  0.3214 -1.0101 -0.4729
  463MOL0     N63773   2.102   6.814  10.383  0.0518  0.3863  0.5006
  463MOL0     C63774   2.133   6.939  10.425 -0.0201 -0.0967 -0.1794
  463MOL0     C63775   2.188   6.917  10.552  0.4090 -0.6322 -0.3289
  463MOL0     C63776   2.239   7.026  10.648 -0.1504 -0.5320 -0.2995
  463MOL0     C63777   2.185   7.006  10.791  1.4165 -0.4378  0.1976
  463MOL0     C63778   2.249   6.893  10.879  0.7759 -0.0298  0.1664
  463MOL0     C63779   2.389   6.912  10.917  0.1414 -0.0158  0.1956
  463MOL0     O63780   2.427   6.851  11.041 -0.0940  0.2198  0.0953
  463MOL0     C63781   2.558   6.829  11.066  0.1153 -0.6598  0.4563
  463MOL0     C63782   2.661   6.915  11.033  0.0438 -0.7299  0.1149
  463MOL0     C63783   2.798   6.895  11.064  0.2935 -0.1788  0.4928
  463MOL0     C63784   2.900   6.987  11.006 -0.2570 -0.2388 -0.0853
  463MOL0     C63785   2.836   6.773  11.111 -0.4482  0.0843  0.2152
  463MOL0     C63786   2.981   6.726  11.143 -0.5789 -0.1465 -0.2897
  463MOL0     O63787   3.070   6.824  11.156 -1.2199 -0.5092 -0.2465
  463MOL0     C63788   3.200   6.793  11.193 -0.4190 -0.4081  0.5943
  463MOL0     C63789   3.301   6.834  11.107  0.3784 -0.0902 -0.3210
  463MOL0     C63790   3.433   6.801  11.141 -0.6794  0.5943 -0.2259
  463MOL0     C63791   3.462   6.725  11.261  0.4687  0.0615  0.2125
  463MOL0     O63792   3.594   6.702  11.298  0.4395 -0.5941  0.0374
  463MOL0     C63793   3.705   6.767  11.234  0.5406 -1.0681  0.2813
  463MOL0     C63794   3.821   6.767  11.330  0.5551 -0.4016 -0.6977
  463MOL0     C63795   3.941   6.844  11.266  0.6870  0.0863  0.6890
  463MOL0     C63796   3.981   6.781  11.131  0.5029  1.0049 -0.8244
  463MOL0     C63797   4.112   6.833  11.068 -0.1232 -0.1465 -0.0959
  463MOL0     C63798   4.244   6.768  11.130 -0.2524 -0.2480  0.1233
  463MOL0     C63799   4.350   6.728  11.026 -0.4133  0.2359 -0.4293
  463MOL0     C63800   4.411   6.834  10.925  1.9079  0.1701 -0.9579
  463MOL0    Cl63801   4.496   6.961  11.020  0.2315  0.2092  0.0381
  463MOL0     C63802   3.359   6.685  11.337  0.2815 -0.3095  1.0102
  463MOL0     C63803   3.222   6.717  11.304  0.5654 -0.1406  0.3016
  463MOL0     O63804   3.005   6.603  11.142  0.4033  0.8906  0.5541
  463MOL0     C63805   2.732   6.687  11.151 -0.3930 -0.1302 -0.5165
  463MOL0     C63806   2.598   6.710  11.124  0.5633  0.4748  0.2890
  463MOL0     N63807   2.205   6.780  10.570  0.7808 -0.7760  0.1716
  463MOL0     N63808   2.148   6.716  10.469  0.0829  0.0522 -0.1831
  463MOL0     C63809   0.983   6.590   9.811  0.1333  0.4239 -0.5898
  463MOL0     C63810   0.849   6.563   9.788 -0.3527 -0.1201  0.6302
  463MOL0     C63811   0.423   6.651   9.792  0.2386  0.3440 -0.4602
  463MOL0     C63812   0.370   6.516   9.771  0.2460  0.1661  0.8870
  463MOL0     C63813   0.230   6.486   9.747 -0.2106  0.0213 -0.2078
  463MOL0     C63814   0.130   6.588   9.746  0.1290  0.3399 -1.3502
  463MOL0     O63815   0.001   6.563   9.753  0.6436 -1.1052 -0.0900
  463MOL0     C63816  -0.045   6.556   9.887 -0.0359 -0.2711 -0.8423
  463MOL0     C63817  -0.198   6.529   9.909 -0.9500 -0.5033  0.3806
  463MOL0     C63818  -0.282   6.619   9.824 -0.4306 -0.3631 -0.0251
  463MOL0     C63819  -0.413   6.545   9.786  0.4818  0.6501 -0.4494
  463MOL0     C63820  -0.499   6.503   9.903  0.2758 -0.5114  0.4629
  463MOL0     C63821  -0.577   6.469   9.987  0.3546 -0.3835 -0.1674
  463MOL0     C63822   0.181   6.720   9.760 -0.0480 -0.4195  0.7633
  463MOL0     C63823   0.324   6.758   9.785  0.4686 -0.0378  0.3779
  463MOL0     C63824   0.356   6.907   9.805 -0.0700  0.2483 -0.1118
  463MOL0     H63825   0.737   6.583  10.114 -1.2986 -0.3180 -2.2909
  463MOL0     H63826   0.972   6.610  10.159 -0.2914 -1.1790  0.5713
  463MOL0     H63827   1.243   6.704   9.832 -0.8645 -1.4538 -0.5331
  463MOL0     H63828   1.235   6.532   9.812 -0.8526  0.0790  1.1782
  463MOL0     H63829   1.399   6.503  10.007 -3.8322 -0.1198  1.0033
  463MOL0     H63830   1.460   6.557   9.849 -2.0246  0.2993 -1.4867
  463MOL0     H63831   1.474   6.791   9.938  1.9469 -1.1904 -1.6974
  463MOL0     H63832   1.398   6.735  10.089  0.9596  0.5658  0.1218
  463MOL0     H63833   1.584   6.586  10.138 -3.0363  0.2293 -0.1613
  463MOL0     H63834   1.654   6.620   9.979 -1.9457 -0.4469 -0.2704
  463MOL0     H63835   1.650   6.833  10.191  0.2577 -1.7188  1.9527
  463MOL0     H63836   1.701   6.857  10.021  2.2771 -1.5973 -1.6282
  463MOL0     H63837   1.833   6.623  10.153  0.6064  0.1095 -0.0102
  463MOL0     H63838   1.881   6.733  10.025 -1.1271  3.3515 -0.1932
  463MOL0     H63839   1.856   6.768  10.322 -2.0631  1.5218  0.0986
  463MOL0     H63840   1.885   6.917  10.235 -1.1695 -0.0540  0.1480
  463MOL0     H63841   2.068   6.671  10.216  1.1282 -0.8193 -0.9553
  463MOL0     H63842   2.118   6.831  10.170  0.9181  0.5493  1.1035
  463MOL0     H63843   2.096   7.029  10.377  1.4878  1.3358  1.1795
  463MOL0     H63844   2.197   7.122  10.617 -1.6971 -1.5076 -1.3768
  463MOL0     H63845   2.348   7.025  10.637 -0.2631 -0.8493 -1.5985
  463MOL0     H63846   2.194   7.102  10.842 -0.7589 -0.1325  0.1258
  463MOL0     H63847   2.078   6.983  10.781  1.2593  0.7596 -1.2545
  463MOL0     H63848   2.193   6.877  10.971 -0.3612 -2.3210 -0.8546
  463MOL0     H63849   2.247   6.796  10.828  0.1861  0.0862 -0.0334
  463MOL0     H63850   2.453   6.887  10.831  1.6301  0.8974  0.9983
  463MOL0     H63851   2.411   7.016  10.944  1.6967 -0.4562  0.7227
  463MOL0     H63852   2.626   7.010  10.992 -3.0031 -1.2644  1.2141
  463MOL0     H63853   2.963   6.926  10.941  0.3393 -1.9769  2.0086
  463MOL0     H63854   2.958   7.039  11.083 -0.1660 -1.5216  0.7330
  463MOL0     H63855   2.857   7.066  10.944 -1.8890 -1.7992 -1.0310
  463MOL0     H63856   3.276   6.900  11.025  1.7088 -0.9256 -1.4299
  463MOL0     H63857   3.517   6.835  11.082  1.2641  2.5599  3.3240
  463MOL0     H63858   3.725   6.706  11.146 -3.4743 -0.8121 -1.0389
  463MOL0     H63859   3.677   6.868  11.203 -2.5760 -1.0350  2.6391
  463MOL0     H63860   3.799   6.826  11.419 -1.5967 -0.1638 -1.3295
  463MOL0     H63861   3.844   6.663  11.356 -2.2853 -0.5672  1.5971
  463MOL0     H63862   4.021   6.845  11.341 -0.5398  1.1080  2.0390
  463MOL0     H63863   3.927   6.953  11.258  3.1151  0.3334 -2.1264
  463MOL0     H63864   3.900   6.801  11.059  0.1450 -0.6520 -0.9248
  463MOL0     H63865   4.000   6.674  11.138  1.7659  1.2694  0.1246
  463MOL0     H63866   4.115   6.803  10.963 -1.9198  3.0599 -1.2116
  463MOL0     H63867   4.123   6.942  11.066  0.2862 -0.1946 -2.0089
  463MOL0     H63868   4.205   6.685  11.189 -1.9158  1.5012  1.6097
  463MOL0     H63869   4.283   6.845  11.197 -1.0038 -1.0788  1.5656
  463MOL0     H63870   4.307   6.647  10.966 -1.2394 -0.5670  1.1807
  463MOL0     H63871   4.438   6.680  11.071 -1.1493 -2.3537 -1.5618
  463MOL0     H63872   4.334   6.877  10.861 -0.4862 -0.5921  1.2650
  463MOL0     H63873   4.484   6.786  10.858  1.5439 -0.1567 -1.1187
  463MOL0     H63874   3.399   6.628  11.420  0.7689 -1.9698 -0.3071
  463MOL0     H63875   3.134   6.682  11.355 -2.4488  2.1043 -2.8692
  463MOL0     H63876   2.751   6.597  11.209  0.9601  1.1075  1.0837
  463MOL0     H63877   2.527   6.640  11.165 -0.9905  2.2701  0.8210
  463MOL0     H63878   1.056   6.581   9.731  0.6291  1.4384 -0.2695
  463MOL0     H63879   0.833   6.524   9.687  2.4487 -0.6633  0.3126
  463MOL0     H63880   0.439   6.436   9.794  1.0977  0.0968 -1.6903
  463MOL0     H63881   0.205   6.381   9.735 -1.1669  0.3159 -0.9023
  463MOL0     H63882   0.017   6.487   9.945 -0.5807  0.0080  0.0800
  463MOL0     H63883  -0.022   6.652   9.934 -1.7277 -0.4119  0.3388
  463MOL0     H63884  -0.223   6.556  10.012 -2.1286  1.4371 -0.3548
  463MOL0     H63885  -0.209   6.423   9.886  1.0491 -1.1043  1.8884
  463MOL0     H63886  -0.318   6.703   9.884  1.7083  1.5493 -1.2309
  463MOL0     H63887  -0.228   6.655   9.735  0.4937 -0.2934  0.5492
  463MOL0     H63888  -0.381   6.464   9.719  2.7645  0.7258  0.5019
  463MOL0     H63889  -0.471   6.603   9.714 -1.9058 -1.1019 -0.0709
  463MOL0     H63890  -0.654   6.444  10.057 -0.6259 -0.7078 -1.3329
  463MOL0     H63891   0.105   6.797   9.752  2.1377  1.9331  1.5239
  463MOL0     H63892   0.259   6.956   9.788 -0.0198  0.0697 -0.9170
  463MOL0     H63893   0.396   6.932   9.904  1.3524 -1.0987 -0.3241
  463MOL0     H63894   0.426   6.951   9.734 -0.2996  3.2170  1.3253
  464MOL0     O63895   8.314   0.061   0.442  0.7231  0.3481 -0.7684
  464MOL0     C63896   8.322  -0.020   0.539 -0.0684 -0.5030  0.3386
  464MOL0     O63897   8.444  -0.058   0.605  0.3494 -0.3842  0.2893
  464MOL0     C63898   8.564   0.005   0.559  0.0887  0.3354  0.8958
  464MOL0     C63899   8.649  -0.045   0.452 -0.3075  0.7414  0.6161
  464MOL0     C63900   8.771   0.018   0.431  0.1216 -0.4555 -0.4657
  464MOL0     C63901   8.812   0.134   0.499  0.4322 -0.4175  0.3805
  464MOL0     O63902   8.932   0.190   0.454  0.5895  0.0685 -0.9567
  464MOL0     C63903   8.945   0.323   0.504  0.0520  0.6328  0.5289
  464MOL0     C63904   9.075   0.373   0.444  0.7392 -0.6981  0.6632
  464MOL0     C63905   9.095   0.325   0.295  0.1151 -0.2134 -1.1279
  464MOL0     C63906   9.187   0.429   0.229  1.0493  1.0926 -0.1559
  464MOL0     C63907   9.328   0.431   0.287 -0.0818  0.7282  0.7492
  464MOL0     C63908   9.389   0.291   0.312  0.4779  0.2767 -0.2496
  464MOL0     C63909   9.547   0.295   0.313  0.7439  0.2852 -0.5150
  464MOL0     C63910   9.603   0.409   0.397 -0.4936 -1.0772 -0.3673
  464MOL0     N63911   9.752   0.421   0.395  0.8199 -0.1574 -0.1272
  464MOL0     C63912   9.825   0.396   0.508 -0.5247  0.3477  0.5165
  464MOL0     C63913   9.954   0.412   0.475 -0.1230 -0.6360  0.3744
  464MOL0     C63914  10.075   0.385   0.569 -0.1798  0.4920  0.4937
  464MOL0     C63915  10.137   0.509   0.620 -0.4876 -0.8194  0.4421
  464MOL0     C63916  10.207   0.481   0.756  0.1535  1.1625 -0.8902
  464MOL0     C63917  10.317   0.586   0.792  0.0548 -0.4910 -0.4324
  464MOL0     O63918  10.365   0.553   0.927 -0.4450 -0.2498 -0.2051
  464MOL0     C63919  10.490   0.598   0.961  0.1088  0.2542  0.4607
  464MOL0     C63920  10.555   0.534   1.067 -0.1684 -0.3935  0.2659
  464MOL0     C63921  10.687   0.567   1.104  0.0460  0.9979  0.7468
  464MOL0     C63922  10.738   0.486   1.224  0.0642 -0.1671  0.1079
  464MOL0     C63923  10.762   0.662   1.030 -0.7190 -0.8134  0.3128
  464MOL0     C63924  10.909   0.685   1.039  0.0404  0.5777 -0.5827
  464MOL0     O63925  10.980   0.608   1.129 -0.7196 -0.8741 -0.1471
  464MOL0     C63926  11.118   0.613   1.123 -0.6909  0.0260 -0.0183
  464MOL0     C63927  11.191   0.678   1.225  0.4810 -0.7317 -0.2420
  464MOL0     C63928  11.332   0.685   1.234  0.8032  0.0359 -0.1634
  464MOL0     C63929  11.400   0.616   1.131  0.0567  0.1061 -0.5681
  464MOL0     O63930  11.543   0.606   1.120  0.2886  0.4622  0.6828
  464MOL0     C63931  11.620   0.664   1.222  0.7704 -0.0964  0.1463
  464MOL0     C63932  11.769   0.663   1.183 -0.3280 -0.2128 -0.6322
  464MOL0     C63933  11.811   0.521   1.150 -0.7389 -0.6101  0.1705
  464MOL0     C63934  11.962   0.517   1.129  0.6708  0.2781 -0.7441
  464MOL0     C63935  12.026   0.383   1.089 -0.3833  0.4973 -0.2678
  464MOL0     C63936  12.089   0.305   1.207  0.1951  0.2981 -0.1337
  464MOL0     C63937  12.094   0.155   1.181  0.1225  0.6063 -0.4597
  464MOL0     C63938  12.110   0.087   1.312  0.1018  0.1704  0.3183
  464MOL0    Cl63939  12.078  -0.078   1.295  0.4067 -0.0739  0.3422
  464MOL0     C63940  11.334   0.556   1.025  0.6200 -0.4599 -0.7055
  464MOL0     C63941  11.198   0.549   1.025 -0.0837  0.4953 -0.4047
  464MOL0     O63942  10.954   0.769   0.959 -0.1802 -0.4013  0.1109
  464MOL0     C63943  10.691   0.727   0.927  0.2368  0.4427  0.4363
  464MOL0     C63944  10.559   0.697   0.889 -0.1529  0.1490 -0.2416
  464MOL0     N63945   9.963   0.448   0.341 -0.2843  0.5106 -0.5264
  464MOL0     N63946   9.834   0.461   0.294 -0.6069 -0.3789 -0.4171
  464MOL0     C63947   8.717   0.186   0.590  0.0026  0.0996 -1.1369
  464MOL0     C63948   8.605   0.120   0.621  0.4703 -0.7092  1.1012
  464MOL0     C63949   8.197  -0.044   0.609  0.0001 -1.4025 -0.3294
  464MOL0     C63950   8.077  -0.064   0.541  0.4589  0.0620 -0.9599
  464MOL0     C63951   7.952  -0.093   0.602 -0.9869  0.5172 -0.2533
  464MOL0     C63952   7.947  -0.120   0.736 -0.3133 -0.8689 -0.0111
  464MOL0     O63953   7.832  -0.149   0.811  0.4574  0.1772 -0.0332
  464MOL0     C63954   7.710  -0.183   0.736 -0.4829 -0.1239 -0.2680
  464MOL0     C63955   7.737  -0.333   0.697  0.1196 -0.4622  0.0700
  464MOL0     C63956   7.617  -0.389   0.612  0.1141 -0.6413  0.0032
  464MOL0     C63957   7.653  -0.374   0.459 -0.7707 -0.1719 -0.2592
  464MOL0     C63958   7.537  -0.408   0.373 -0.5779  0.8309 -0.1501
  464MOL0     C63959   7.450  -0.461   0.310  1.0947 -0.0228 -0.0161
  464MOL0     C63960   8.062  -0.096   0.807  0.1279  0.5879 -1.3594
  464MOL0     C63961   8.182  -0.052   0.746  0.0417  0.0321  0.1013
  464MOL0     C63962   8.285  -0.028   0.849 -0.6612 -1.0153 -0.0335
  464MOL0     H63963   8.638  -0.142   0.405 -1.5557  1.4306 -0.5808
  464MOL0     H63964   8.838  -0.023   0.356 -1.2417 -0.3519 -1.7712
  464MOL0     H63965   8.948   0.317   0.613 -0.0717 -3.5142  0.4543
  464MOL0     H63966   8.859   0.385   0.475 -0.1643 -0.2410 -0.7787
  464MOL0     H63967   9.059   0.481   0.437 -1.0354 -0.9517  0.4577
  464MOL0     H63968   9.168   0.353   0.499  1.2121  1.0939  0.5857
  464MOL0     H63969   9.137   0.225   0.281  2.4249  0.9874 -3.9560
  464MOL0     H63970   9.002   0.321   0.237  0.1194 -3.5656 -1.1113
  464MOL0     H63971   9.196   0.398   0.124  2.3558 -0.3946  0.3580
  464MOL0     H63972   9.150   0.532   0.227 -1.2843  0.3210 -0.0212
  464MOL0     H63973   9.340   0.494   0.376 -0.9899 -1.0845  2.2111
  464MOL0     H63974   9.387   0.466   0.202  2.6582 -4.2910  0.2063
  464MOL0     H63975   9.354   0.253   0.409 -1.6785  0.6404 -0.8286
  464MOL0     H63976   9.348   0.219   0.240 -1.2972  0.2139  0.7515
  464MOL0     H63977   9.581   0.293   0.209  0.8591 -0.3756 -0.4722
  464MOL0     H63978   9.583   0.204   0.361 -1.2374  0.5714  1.7073
  464MOL0     H63979   9.564   0.507   0.367 -0.0266 -0.9209 -0.4753
  464MOL0     H63980   9.572   0.407   0.502 -1.4570  1.7008 -0.5107
  464MOL0     H63981   9.780   0.363   0.601  0.1695  0.8844  1.0507
  464MOL0     H63982  10.155   0.321   0.532 -1.1147  0.6860 -2.0240
  464MOL0     H63983  10.024   0.332   0.650 -2.3342 -1.3178 -1.9002
  464MOL0     H63984  10.221   0.543   0.558  0.8114  0.8357  2.9468
  464MOL0     H63985  10.066   0.592   0.629 -1.0177 -1.2970  0.7652
  464MOL0     H63986  10.126   0.469   0.829  0.4661  0.4660 -0.6471
  464MOL0     H63987  10.253   0.382   0.756 -1.2965  0.4592 -0.3960
  464MOL0     H63988  10.391   0.585   0.711 -1.1075 -1.8774 -1.5268
  464MOL0     H63989  10.272   0.686   0.788  1.1345  0.0261  0.0993
  464MOL0     H63990  10.506   0.453   1.120  1.0269 -1.2561  0.1016
  464MOL0     H63991  10.833   0.434   1.208  0.0456 -0.1721  0.0125
  464MOL0     H63992  10.666   0.411   1.258 -0.8520  1.3207  1.5595
  464MOL0     H63993  10.756   0.562   1.300 -2.0448  0.2564  0.2338
  464MOL0     H63994  11.134   0.714   1.310  0.8176  0.2263 -0.4076
  464MOL0     H63995  11.388   0.731   1.315  0.7910  0.6922 -0.5196
  464MOL0     H63996  11.597   0.771   1.234  0.2944  0.1105 -2.1754
  464MOL0     H63997  11.597   0.613   1.316 -4.1016 -0.3816 -0.9219
  464MOL0     H63998  11.790   0.737   1.105 -0.6233  0.1404 -0.3845
  464MOL0     H63999  11.816   0.694   1.277 -1.1120 -1.6938  0.2843
  464MOL0     H64000  11.764   0.494   1.054 -2.2857  2.5510 -0.1014
  464MOL0     H64001  11.782   0.445   1.223 -0.3552 -1.2151 -0.2972
  464MOL0     H64002  12.012   0.553   1.220  1.0157 -2.1185  0.0930
  464MOL0     H64003  11.972   0.590   1.048 -1.0493 -0.2535 -1.4686
  464MOL0     H64004  11.951   0.321   1.039  0.6745 -0.8029 -0.3040
  464MOL0     H64005  12.094   0.396   1.004 -0.3022 -0.1505 -0.3067
  464MOL0     H64006  12.029   0.329   1.295 -3.7413 -0.6964 -2.3093
  464MOL0     H64007  12.195   0.331   1.204  0.5927 -0.9053  2.0767
  464MOL0     H64008  12.184   0.125   1.126  0.0626 -2.0655  0.7545
  464MOL0     H64009  12.004   0.121   1.129 -0.7780 -0.4523  1.6799
  464MOL0     H64010  12.045   0.135   1.387  0.6716  0.3876  0.6750
  464MOL0     H64011  12.214   0.093   1.344  0.7160 -2.7584 -0.8602
  464MOL0     H64012  11.389   0.500   0.950 -1.8291 -2.2262 -1.2988
  464MOL0     H64013  11.155   0.494   0.942  0.1380 -0.1859 -0.0821
  464MOL0     H64014  10.737   0.791   0.853 -2.6656  2.4850  0.2212
  464MOL0     H64015  10.522   0.741   0.797  0.1270 -0.7700 -0.8108
  464MOL0     H64016   8.734   0.284   0.634 -0.6790  0.9597 -2.7250
  464MOL0     H64017   8.530   0.157   0.690 -2.0035 -1.0060 -1.2514
  464MOL0     H64018   8.081  -0.052   0.433  1.3534 -0.4970 -0.9975
  464MOL0     H64019   7.867  -0.113   0.537 -0.8615  0.3365 -0.3622
  464MOL0     H64020   7.633  -0.172   0.813  0.6857  2.4514  0.6650
  464MOL0     H64021   7.695  -0.116   0.650  0.9110 -0.2919 -0.6589
  464MOL0     H64022   7.764  -0.386   0.789  0.8450  0.1117  0.1909
  464MOL0     H64023   7.828  -0.340   0.638  0.7626  1.6799  0.7163
  464MOL0     H64024   7.605  -0.497   0.621 -1.5308 -0.4902 -0.1107
  464MOL0     H64025   7.523  -0.339   0.636  0.9960  0.2467  1.8766
  464MOL0     H64026   7.735  -0.443   0.435 -0.8174  0.0298 -0.9981
  464MOL0     H64027   7.702  -0.278   0.439  0.2886 -0.0448  2.4933
  464MOL0     H64028   7.372  -0.502   0.249  2.0584  1.0815 -2.1074
  464MOL0     H64029   8.051  -0.099   0.915 -0.4179 -0.0340 -1.4280
  464MOL0     H64030   8.236   0.029   0.928 -1.6461  2.4045 -2.8343
  464MOL0     H64031   8.320  -0.126   0.883 -0.2363 -0.5433  0.9173
  464MOL0     H64032   8.367   0.035   0.812 -2.3379  1.0014 -0.5374
  465MOL0     O64033   0.346   1.178   6.626 -0.5328 -0.0524 -0.0524
  465MOL0     C64034   0.305   1.211   6.738 -0.0570  0.6601 -0.3864
  465MOL0     O64035   0.344   1.319   6.809 -0.1515 -0.3204  0.0827
  465MOL0     C64036   0.437   1.404   6.748  0.3813  0.8709 -0.7517
  465MOL0     C64037   0.569   1.362   6.752 -0.2095 -0.6351 -0.3101
  465MOL0     C64038   0.669   1.433   6.686 -0.2884 -0.2718 -0.7112
  465MOL0     C64039   0.640   1.554   6.615 -0.5577  1.3690 -0.3011
  465MOL0     O64040   0.746   1.617   6.540  0.6455  0.1995  0.1782
  465MOL0     C64041   0.719   1.729   6.468 -0.0370  0.5860  0.7009
  465MOL0     C64042   0.853   1.787   6.419  0.0902  1.0555  0.2348
  465MOL0     C64043   0.933   1.685   6.341  0.0307  1.2322 -0.6193
  465MOL0     C64044   1.077   1.739   6.298  0.1238 -0.1017 -0.3501
  465MOL0     C64045   1.138   1.644   6.202 -0.2276  0.4386  0.5547
  465MOL0     C64046   1.257   1.699   6.113  0.1729 -0.4753 -0.1042
  465MOL0     C64047   1.378   1.741   6.199  0.0114  0.5208  0.2066
  465MOL0     C64048   1.452   1.617   6.257  0.8317 -0.1649 -0.6519
  465MOL0     N64049   1.588   1.607   6.207  0.5696  0.4080  0.3082
  465MOL0     C64050   1.624   1.585   6.080 -0.1700  0.0524 -0.0579
  465MOL0     C64051   1.752   1.597   6.080  0.1469 -0.1718 -0.3493
  465MOL0     C64052   1.832   1.582   5.953  0.1374 -0.2887 -0.4275
  465MOL0     C64053   1.955   1.677   5.960 -0.5835  0.2196  0.2514
  465MOL0     C64054   2.056   1.653   5.844 -0.0786  0.0198  0.0048
  465MOL0     C64055   2.189   1.709   5.887  0.2073 -0.4792 -0.0463
  465MOL0     O64056   2.238   1.646   5.998 -0.4855 -0.1288  0.4287
  465MOL0     C64057   2.367   1.669   6.034 -0.7481  0.2231  0.1750
  465MOL0     C64058   2.452   1.770   5.980  0.1603 -0.3075  1.2304
  465MOL0     C64059   2.582   1.779   6.014 -0.0980  0.4112  0.5581
  465MOL0     C64060   2.671   1.884   5.946 -1.1971  0.3359 -0.3141
  465MOL0     C64061   2.642   1.696   6.120  0.9098  0.0296  0.1111
  465MOL0     C64062   2.781   1.706   6.176 -0.2374  0.4276 -0.2853
  465MOL0     O64063   2.836   1.834   6.182 -0.3914  0.2559 -0.2933
  465MOL0     C64064   2.973   1.860   6.204  0.0843  0.3435  0.0915
  465MOL0     C64065   3.049   1.957   6.131  0.0104 -0.1893 -0.3143
  465MOL0     C64066   3.180   1.979   6.160 -0.8186 -0.4249 -0.6477
  465MOL0     C64067   3.242   1.926   6.274  0.7168 -0.2803 -0.1978
  465MOL0     O64068   3.361   1.967   6.306 -0.5470 -0.4424  0.0992
  465MOL0     C64069   3.455   1.866   6.341 -0.2340 -0.3944 -0.0231
  465MOL0     C64070   3.603   1.930   6.322  0.0199  1.1642 -0.1174
  465MOL0     C64071   3.644   2.045   6.426 -0.1997 -0.0910 -0.1346
  465MOL0     C64072   3.786   2.093   6.402 -0.2606  0.2267 -0.0989
  465MOL0     C64073   3.859   2.149   6.527 -0.1812  0.7678 -0.3492
  465MOL0     C64074   4.007   2.164   6.489 -0.1514 -0.3866 -0.1173
  465MOL0     C64075   4.039   2.277   6.392 -0.2542 -0.2811 -0.0011
  465MOL0     C64076   4.141   2.238   6.286 -0.5594  0.6722  0.7763
  465MOL0    Cl64077   4.306   2.189   6.341  0.3121  0.2819  0.0660
  465MOL0     C64078   3.161   1.847   6.358 -1.2035 -0.2259  0.1102
  465MOL0     C64079   3.031   1.808   6.316 -0.4448  0.2185 -0.2585
  465MOL0     O64080   2.830   1.601   6.218 -0.7603 -0.1921 -0.0063
  465MOL0     C64081   2.555   1.592   6.170  0.5192  0.2446 -0.0664
  465MOL0     C64082   2.420   1.582   6.129 -0.1251  0.0938  0.4789
  465MOL0     N64083   1.793   1.639   6.201  0.1757  0.1687  0.3762
  465MOL0     N64084   1.693   1.643   6.284  0.0095 -0.1423  0.5228
  465MOL0     C64085   0.509   1.594   6.608  0.4109 -0.3533  0.1024
  465MOL0     C64086   0.408   1.520   6.676 -0.3017  0.0936  0.0496
  465MOL0     C64087   0.185   1.127   6.793 -0.5911 -0.8539 -0.9141
  465MOL0     C64088   0.144   1.017   6.718 -0.7476  0.5640  0.2786
  465MOL0     C64089   0.029   0.947   6.760  0.2026  0.3532  0.3687
  465MOL0     C64090  -0.046   0.984   6.874  0.2921 -0.1220 -0.4338
  465MOL0     O64091  -0.162   0.928   6.927 -0.3483 -0.3547 -0.2362
  465MOL0     C64092  -0.205   0.796   6.881 -0.3312 -0.3761  0.0079
  465MOL0     C64093  -0.312   0.810   6.771 -0.1402 -0.2907  0.1224
  465MOL0     C64094  -0.428   0.888   6.827 -0.2298  0.6281 -0.7739
  465MOL0     C64095  -0.557   0.878   6.741 -0.1001 -0.0482 -0.1075
  465MOL0     C64096  -0.664   0.934   6.814  0.7280 -0.3127  0.4021
  465MOL0     C64097  -0.749   1.002   6.873  0.9141  0.3029  0.2949
  465MOL0     C64098   0.009   1.081   6.960  0.0986  0.6720  0.1451
  465MOL0     C64099   0.127   1.147   6.921  1.3107 -0.0203 -0.1320
  465MOL0     C64100   0.176   1.243   7.024 -0.1446 -0.4243  0.2368
  465MOL0     H64101   0.592   1.266   6.797  1.2411 -1.1435 -2.0471
  465MOL0     H64102   0.771   1.400   6.672  1.8509  5.4808 -1.5096
  465MOL0     H64103   0.682   1.812   6.529  0.5672  0.6626  0.9733
  465MOL0     H64104   0.651   1.706   6.386  0.3657  1.1128  0.2183
  465MOL0     H64105   0.831   1.873   6.354 -0.1168  1.6526  1.0799
  465MOL0     H64106   0.912   1.817   6.506  1.1256  0.0370 -0.1007
  465MOL0     H64107   0.957   1.592   6.393  1.5664  2.0260  0.1565
  465MOL0     H64108   0.877   1.660   6.251  1.1566 -0.6978 -0.8318
  465MOL0     H64109   1.060   1.836   6.250  0.7230  0.7203  1.0351
  465MOL0     H64110   1.148   1.763   6.378  0.6551  0.7391 -1.0400
  465MOL0     H64111   1.059   1.610   6.134  0.3458 -0.9428  0.5555
  465MOL0     H64112   1.172   1.556   6.257  3.4334  0.9925 -0.5279
  465MOL0     H64113   1.285   1.634   6.030  1.1724  0.6862 -0.7220
  465MOL0     H64114   1.205   1.788   6.075 -0.6970  0.2482  2.5736
  465MOL0     H64115   1.343   1.811   6.275 -1.5323 -0.6997  0.6869
  465MOL0     H64116   1.448   1.801   6.140  0.8684  1.0193  1.6851
  465MOL0     H64117   1.455   1.636   6.364 -0.6577 -0.7439 -0.4858
  465MOL0     H64118   1.407   1.520   6.233  1.4537 -0.3280 -1.1846
  465MOL0     H64119   1.556   1.572   5.996 -2.9475  1.2437  1.8423
  465MOL0     H64120   1.776   1.598   5.860  0.8236  1.5216 -0.5744
  465MOL0     H64121   1.865   1.478   5.948  1.0876 -0.0828  0.9619
  465MOL0     H64122   1.928   1.783   5.959  0.1137  0.4087 -1.5653
  465MOL0     H64123   1.999   1.660   6.059 -2.8757  0.5250  1.3915
  465MOL0     H64124   2.069   1.545   5.833 -3.0097 -0.2732 -1.7423
  465MOL0     H64125   2.024   1.699   5.750  0.8954 -0.4908 -0.5982
  465MOL0     H64126   2.254   1.696   5.800 -0.9451  2.7157 -1.5369
  465MOL0     H64127   2.172   1.815   5.909 -0.7716  0.1678 -3.4104
  465MOL0     H64128   2.406   1.838   5.910 -1.3597 -1.4843  1.0347
  465MOL0     H64129   2.637   1.948   5.863  0.3931  2.7614  0.7682
  465MOL0     H64130   2.759   1.831   5.908  0.2766  0.8890  2.1136
  465MOL0     H64131   2.708   1.959   6.017 -0.0202  1.9311 -2.4376
  465MOL0     H64132   2.992   2.004   6.051 -1.5955 -2.4400 -0.5659
  465MOL0     H64133   3.235   2.047   6.097 -1.0788  0.6177  0.2260
  465MOL0     H64134   3.446   1.853   6.450 -1.4590  1.2093  0.0825
  465MOL0     H64135   3.436   1.769   6.294 -0.8449 -0.7575  0.9347
  465MOL0     H64136   3.670   1.843   6.318 -1.5780 -0.1237  0.1381
  465MOL0     H64137   3.596   1.971   6.221  2.2094  0.1986 -0.7219
  465MOL0     H64138   3.637   2.009   6.528  0.9846  1.3412  0.4972
  465MOL0     H64139   3.575   2.128   6.440 -0.5417 -0.8412  3.3741
  465MOL0     H64140   3.769   2.169   6.324 -3.0346 -1.5350 -1.3716
  465MOL0     H64141   3.836   2.002   6.369 -2.1306 -0.5952 -0.8432
  465MOL0     H64142   3.812   2.241   6.564 -1.0301  0.1790  0.0663
  465MOL0     H64143   3.856   2.077   6.609  2.3285  0.6356 -0.2754
  465MOL0     H64144   4.032   2.069   6.441 -0.7285  0.3044 -1.8670
  465MOL0     H64145   4.063   2.176   6.582  4.8170 -1.8958 -2.5535
  465MOL0     H64146   4.088   2.353   6.453  1.0125 -1.3018  0.2875
  465MOL0     H64147   3.948   2.321   6.350  0.9498  3.3453  0.8356
  465MOL0     H64148   4.153   2.323   6.218 -2.4884 -1.2653 -2.2220
  465MOL0     H64149   4.095   2.157   6.229 -1.9976  1.6309  0.5260
  465MOL0     H64150   3.197   1.803   6.450  0.7850 -0.2823 -0.6446
  465MOL0     H64151   2.966   1.751   6.382 -1.3337  1.1195 -0.3380
  465MOL0     H64152   2.593   1.524   6.246 -0.7490 -0.9122 -0.4308
  465MOL0     H64153   2.369   1.501   6.180 -0.6747  0.8607  1.1872
  465MOL0     H64154   0.474   1.686   6.563  0.2388 -0.7700 -0.6274
  465MOL0     H64155   0.303   1.546   6.681 -0.0445  1.0387  0.9802
  465MOL0     H64156   0.187   1.005   6.620 -2.4930 -0.1167 -0.4432
  465MOL0     H64157  -0.006   0.877   6.684  0.2725  0.7877 -0.0733
  465MOL0     H64158  -0.117   0.735   6.859  0.6918 -0.4548  3.6692
  465MOL0     H64159  -0.245   0.745   6.968 -2.5061 -0.5738 -1.0598
  465MOL0     H64160  -0.339   0.711   6.734 -0.3194  0.1501 -0.9506
  465MOL0     H64161  -0.257   0.862   6.692  2.1167 -1.5761  0.7472
  465MOL0     H64162  -0.458   0.858   6.927  0.0092  0.6631 -0.6898
  465MOL0     H64163  -0.398   0.992   6.841  1.2572  0.0745  0.3812
  465MOL0     H64164  -0.589   0.774   6.729 -0.3351 -0.0342  0.3472
  465MOL0     H64165  -0.537   0.914   6.640 -0.0291 -2.9884 -1.2419
  465MOL0     H64166  -0.803   1.070   6.936  2.0438  1.2034  0.3044
  465MOL0     H64167  -0.042   1.099   7.054  0.2222 -5.8915  1.9867
  465MOL0     H64168   0.279   1.211   7.039 -0.1072 -1.6504 -2.1055
  465MOL0     H64169   0.164   1.345   6.986 -1.4808 -0.9926 -0.9716
  465MOL0     H64170   0.125   1.230   7.120 -3.9729  0.5827 -1.4470
  466MOL0     O64171   4.562   0.064  10.487 -0.2346 -0.5062  0.2206
  466MOL0     C64172   4.622   0.160  10.537 -0.3236  0.1402  0.4430
  466MOL0     O64173   4.559   0.283  10.580 -0.7669  0.0149  0.0777
  466MOL0     C64174   4.424   0.301  10.567 -0.3021 -0.7490 -0.1110
  466MOL0     C64175   4.371   0.355  10.451  0.5055 -0.0515 -0.7662
  466MOL0     C64176   4.232   0.386  10.447 -0.3629 -0.2180  0.3486
  466MOL0     C64177   4.158   0.371  10.562 -0.1050 -1.0455  0.2630
  466MOL0     O64178   4.031   0.418  10.543  0.3014 -0.3600  0.0054
  466MOL0     C64179   3.954   0.433  10.663  0.5887  0.1978  0.0816
  466MOL0     C64180   3.980   0.553  10.748  0.1543  0.0384 -0.3303
  466MOL0     C64181   3.988   0.683  10.663 -0.1557 -0.0844  0.6256
  466MOL0     C64182   3.981   0.800  10.764  0.2777  0.3673 -0.6419
  466MOL0     C64183   3.846   0.853  10.807  0.6208  1.1145 -0.2173
  466MOL0     C64184   3.841   0.968  10.909  0.2694  0.1440  0.0386
  466MOL0     C64185   3.702   0.998  10.961  0.7122  0.4800 -0.1554
  466MOL0     C64186   3.695   1.109  11.063 -0.9930 -0.4204 -0.4979
  466MOL0     N64187   3.747   1.084  11.198 -0.4339  0.0048  0.5228
  466MOL0     C64188   3.886   1.092  11.222  0.8153  0.0297  0.5256
  466MOL0     C64189   3.885   1.069  11.355 -0.8587  0.9022 -0.6644
  466MOL0     C64190   4.009   1.058  11.443  0.0874 -0.4307 -0.3965
  466MOL0     C64191   4.089   0.932  11.427 -0.8143 -0.2276  0.9494
  466MOL0     C64192   4.221   0.928  11.515  0.1636 -0.8294 -0.5683
  466MOL0     C64193   4.332   0.983  11.422 -0.8379  0.1980 -1.0292
  466MOL0     O64194   4.459   0.969  11.493  0.1708 -0.2188 -0.1547
  466MOL0     C64195   4.577   0.928  11.438 -0.0756 -0.1906  0.3508
  466MOL0     C64196   4.605   0.909  11.298 -0.2226  0.0165  0.0667
  466MOL0     C64197   4.733   0.870  11.252 -0.1368 -0.0002 -0.3857
  466MOL0     C64198   4.745   0.865  11.102  0.3532  0.5358 -0.0816
  466MOL0     C64199   4.827   0.828  11.343 -0.7756 -0.3491  0.7103
  466MOL0     C64200   4.955   0.767  11.309 -0.4825  0.1126 -0.5434
  466MOL0     O64201   5.066   0.801  11.385 -0.4689  0.9318  0.4945
  466MOL0     C64202   5.183   0.744  11.354  0.7060 -0.0754 -0.7000
  466MOL0     C64203   5.217   0.620  11.408  0.0916  0.0076 -0.1409
  466MOL0     C64204   5.334   0.555  11.365  0.7076 -0.0679  0.5093
  466MOL0     C64205   5.430   0.635  11.298  0.3610 -0.4436  0.3263
  466MOL0     O64206   5.553   0.575  11.282 -0.0545  0.0305  0.0067
  466MOL0     C64207   5.655   0.639  11.206 -0.5405  0.5055  0.4189
  466MOL0     C64208   5.782   0.563  11.185 -0.4844 -0.6738 -0.0521
  466MOL0     C64209   5.867   0.541  11.306 -1.0796 -0.2187  0.2578
  466MOL0     C64210   6.004   0.477  11.264  0.2022  0.8860 -0.0203
  466MOL0     C64211   6.099   0.471  11.385  0.9577 -0.3873  0.3670
  466MOL0     C64212   6.205   0.372  11.383  1.0342 -0.0028 -0.8776
  466MOL0     C64213   6.324   0.407  11.476 -0.4554  0.3882 -0.8385
  466MOL0     C64214   6.434   0.300  11.474 -0.1852 -0.1145  0.1466
  466MOL0    Cl64215   6.555   0.350  11.593 -0.2293  0.4890  0.0157
  466MOL0     C64216   5.399   0.762  11.247  0.4895  0.3254 -0.1495
  466MOL0     C64217   5.267   0.810  11.272  0.5106  0.8430  0.7000
  466MOL0     O64218   4.961   0.685  11.217  0.7345  0.3948  0.1022
  466MOL0     C64219   4.799   0.833  11.481 -1.4333  0.0236  0.5337
  466MOL0     C64220   4.678   0.883  11.530 -1.5114  0.5625 -0.2913
  466MOL0     N64221   3.760   1.041  11.401  0.3702  0.8192  0.3373
  466MOL0     N64222   3.676   1.041  11.303  0.1083  0.4211 -0.1373
  466MOL0     C64223   4.218   0.328  10.688 -0.6297  0.0698 -0.0306
  466MOL0     C64224   4.349   0.288  10.685 -0.2311 -0.0973  0.8817
  466MOL0     C64225   4.771   0.137  10.553 -0.4525  0.0280 -0.0105
  466MOL0     C64226   4.812  -0.004  10.566 -0.3275 -0.7363 -0.1028
  466MOL0     C64227   4.940  -0.035  10.589 -0.1228  0.4659 -0.3442
  466MOL0     C64228   5.035   0.062  10.591  0.3203 -0.1783 -0.1261
  466MOL0     O64229   5.169   0.011  10.595  0.3870  0.3633  0.1315
  466MOL0     C64230   5.274   0.099  10.573  0.2916  0.2170 -0.0818
  466MOL0     C64231   5.291   0.128  10.423 -0.7602  1.6947 -0.5082
  466MOL0     C64232   5.430   0.181  10.379 -0.8977 -0.1841 -0.7353
  466MOL0     C64233   5.454   0.321  10.447 -0.0744 -0.5220 -0.6383
  466MOL0     C64234   5.348   0.410  10.392  0.4856 -0.0578  0.2949
  466MOL0     C64235   5.260   0.481  10.333  0.0532 -1.0500  0.1713
  466MOL0     C64236   5.000   0.200  10.566  0.7658  0.1900  0.1609
  466MOL0     C64237   4.866   0.236  10.553  0.3023  0.2434  0.0107
  466MOL0     C64238   4.825   0.378  10.513 -0.2146  0.4906 -0.2636
  466MOL0     H64239   4.437   0.373  10.366  0.9354  0.2936 -0.3628
  466MOL0     H64240   4.189   0.417  10.352  2.2365 -0.0462 -0.8551
  466MOL0     H64241   3.963   0.341  10.723 -0.0540 -0.8386 -1.3576
  466MOL0     H64242   3.847   0.439  10.641  0.4199  2.2027  1.2022
  466MOL0     H64243   3.911   0.563  10.833  0.1268 -0.7216 -0.2548
  466MOL0     H64244   4.070   0.529  10.804  0.1678 -0.0579 -0.3941
  466MOL0     H64245   4.084   0.692  10.611 -0.8524  3.0099 -0.3822
  466MOL0     H64246   3.907   0.697  10.591 -1.1014 -1.4547  1.3817
  466MOL0     H64247   4.030   0.777  10.859 -1.3139  0.8066  0.3154
  466MOL0     H64248   4.027   0.887  10.717  2.4069 -0.3103  0.0775
  466MOL0     H64249   3.798   0.764  10.849 -0.6819  1.5257 -0.7772
  466MOL0     H64250   3.787   0.878  10.718 -3.3099 -3.0626  0.7979
  466MOL0     H64251   3.905   0.947  10.995  1.9878 -3.5425 -1.9425
  466MOL0     H64252   3.871   1.056  10.852  2.1821 -0.9527 -0.7236
  466MOL0     H64253   3.654   0.907  10.998  0.4103  0.1677 -1.2876
  466MOL0     H64254   3.643   1.043  10.880 -2.6979  1.0917  2.4103
  466MOL0     H64255   3.754   1.194  11.025  1.1670  0.5943  4.3507
  466MOL0     H64256   3.592   1.144  11.071 -1.9403 -2.7888 -1.3454
  466MOL0     H64257   3.961   1.127  11.152 -0.6248 -0.0145 -1.1132
  466MOL0     H64258   3.977   1.063  11.547 -0.0016 -0.5706 -0.4174
  466MOL0     H64259   4.072   1.146  11.425 -2.0675  1.3305  0.2112
  466MOL0     H64260   4.019   0.852  11.455 -0.2595 -1.2446 -0.4692
  466MOL0     H64261   4.113   0.924  11.321  1.2774  0.6996  1.3009
  466MOL0     H64262   4.205   0.992  11.603  1.4544  0.0173 -0.9178
  466MOL0     H64263   4.241   0.826  11.549  0.8750 -0.8411 -1.0038
  466MOL0     H64264   4.335   0.918  11.334  1.1718  0.7851 -1.4465
  466MOL0     H64265   4.329   1.084  11.381 -0.2740 -0.1345 -1.9176
  466MOL0     H64266   4.523   0.937  11.232 -0.3037  2.2897  1.0513
  466MOL0     H64267   4.689   0.787  11.049  2.0561 -0.7386 -0.1234
  466MOL0     H64268   4.847   0.855  11.064  0.1677 -2.3054 -0.0576
  466MOL0     H64269   4.704   0.955  11.056 -1.4448 -1.1055 -1.9019
  466MOL0     H64270   5.154   0.571  11.482  1.3847  0.3536  1.2493
  466MOL0     H64271   5.362   0.454  11.393  1.0181 -0.0705  0.2041
  466MOL0     H64272   5.614   0.669  11.109 -2.0018 -2.5903 -0.0224
  466MOL0     H64273   5.682   0.731  11.259  0.0583  0.6992 -0.2028
  466MOL0     H64274   5.746   0.468  11.146 -2.5251 -0.3590  0.8919
  466MOL0     H64275   5.846   0.622  11.118 -0.2546 -1.7480 -0.7974
  466MOL0     H64276   5.809   0.475  11.370  1.3359 -4.0854 -1.1891
  466MOL0     H64277   5.893   0.630  11.366  1.3559 -1.2926  0.9329
  466MOL0     H64278   6.050   0.536  11.186 -1.0896  1.5190 -0.3317
  466MOL0     H64279   5.996   0.378  11.218  1.7778 -0.3947  2.2558
  466MOL0     H64280   6.140   0.572  11.397  2.2075 -0.6291 -1.4211
  466MOL0     H64281   6.031   0.451  11.469  0.7087 -0.8778  0.0555
  466MOL0     H64282   6.238   0.365  11.279 -0.5619  1.7671 -1.5483
  466MOL0     H64283   6.161   0.277  11.415  3.4529 -1.0346 -0.3515
  466MOL0     H64284   6.287   0.407  11.579  1.7713 -2.5428  0.0989
  466MOL0     H64285   6.370   0.500  11.442  2.6965 -1.5555 -2.3201
  466MOL0     H64286   6.475   0.304  11.373 -1.1148  3.0898 -0.1924
  466MOL0     H64287   6.381   0.204  11.482 -1.7573  0.5007 -1.9095
  466MOL0     H64288   5.466   0.814  11.180  1.7965 -2.0269 -0.7746
  466MOL0     H64289   5.239   0.907  11.232  0.4630  2.0572  3.3981
  466MOL0     H64290   4.880   0.805  11.548  0.7387 -0.2777 -2.0179
  466MOL0     H64291   4.654   0.893  11.636 -0.8783  0.1001 -0.0956
  466MOL0     H64292   4.165   0.319  10.782  0.6320 -0.1634  0.6820
  466MOL0     H64293   4.397   0.247  10.774  0.0888 -0.5912  0.4866
  466MOL0     H64294   4.737  -0.081  10.558 -2.6362  1.5590 -3.7682
  466MOL0     H64295   4.962  -0.142  10.589  0.7553  0.3628  4.8618
  466MOL0     H64296   5.261   0.192  10.630  3.5652  1.9903 -1.9144
  466MOL0     H64297   5.364   0.053  10.615  0.1761 -2.1025 -2.1862
  466MOL0     H64298   5.214   0.196  10.385 -1.6835 -0.0296 -1.8765
  466MOL0     H64299   5.281   0.034  10.368  0.3517  0.7354  0.8684
  466MOL0     H64300   5.513   0.113  10.400  1.4293  2.0930 -2.0191
  466MOL0     H64301   5.427   0.200  10.271  1.1650 -2.2361 -1.2296
  466MOL0     H64302   5.555   0.359  10.430 -0.5038  0.2763 -1.4862
  466MOL0     H64303   5.434   0.325  10.555 -3.2389 -0.2404 -1.1158
  466MOL0     H64304   5.177   0.543  10.305  0.6365 -0.0188  0.6920
  466MOL0     H64305   5.082   0.271  10.568  3.1308 -2.4012  1.9006
  466MOL0     H64306   4.777   0.387  10.415 -0.2464 -1.3493 -0.4523
  466MOL0     H64307   4.750   0.413  10.584 -1.3688 -0.6483 -0.8873
  466MOL0     H64308   4.914   0.441  10.523 -0.2541  0.2640  2.2290
  467MOL0     O64309  10.235  10.758   5.838 -0.1819  0.3144  0.2066
  467MOL0     C64310  10.190  10.763   5.951  0.2609  0.3434 -0.0696
  467MOL0     O64311  10.225  10.855   6.052 -0.0439 -0.0315  0.5171
  467MOL0     C64312  10.259  10.980   6.010  0.6858  0.1807  0.5333
  467MOL0     C64313  10.179  11.048   5.916 -0.0510 -0.0804 -0.0598
  467MOL0     C64314  10.226  11.168   5.862  0.1425 -0.2249  0.1088
  467MOL0     C64315  10.328  11.236   5.922 -0.6738 -0.5101  0.6760
  467MOL0     O64316  10.352  11.366   5.885 -0.6672 -0.9433  0.0287
  467MOL0     C64317  10.479  11.428   5.915  0.2764 -0.2087 -0.1964
  467MOL0     C64318  10.473  11.552   5.835 -0.4476  0.6194 -0.6309
  467MOL0     C64319  10.605  11.625   5.825 -0.5081  0.3493  0.5638
  467MOL0     C64320  10.683  11.669   5.949  0.3621  0.5300 -0.4424
  467MOL0     C64321  10.802  11.750   5.916 -0.0625  0.4874  0.0149
  467MOL0     C64322  10.864  11.810   6.038 -0.6194 -0.6668 -0.6621
  467MOL0     C64323  10.989  11.892   5.985  0.9455 -0.1202  0.1457
  467MOL0     C64324  11.047  11.989   6.100  0.5134  1.0572 -0.7191
  467MOL0     N64325  11.180  12.036   6.069  0.2186  0.0453 -0.0101
  467MOL0     C64326  11.297  11.982   6.114 -0.7869 -0.1880 -0.1879
  467MOL0     C64327  11.392  12.072   6.075  0.2600 -0.3339  1.0127
  467MOL0     C64328  11.535  12.059   6.094  0.3815  0.1623 -0.4965
  467MOL0     C64329  11.594  11.985   5.974  0.5762  0.1353 -0.2504
  467MOL0     C64330  11.749  11.992   5.974  0.1408 -0.1773 -0.5245
  467MOL0     C64331  11.796  11.927   5.843  0.2555  0.1126 -1.1673
  467MOL0     O64332  11.766  12.003   5.719  0.3485  0.2499  0.8432
  467MOL0     C64333  11.829  12.127   5.694 -0.1962  0.3274 -0.0973
  467MOL0     C64334  11.937  12.182   5.765  1.0286 -0.5619  0.8331
  467MOL0     C64335  11.996  12.303   5.731 -0.6592  0.1257  0.4201
  467MOL0     C64336  12.112  12.354   5.811  0.2639 -0.0395 -0.4238
  467MOL0     C64337  11.950  12.375   5.616  0.6640 -0.1520 -0.2501
  467MOL0     C64338  12.004  12.505   5.560  0.0398 -0.5469 -0.0989
  467MOL0     O64339  12.126  12.552   5.604 -0.4924 -0.6983  0.2742
  467MOL0     C64340  12.177  12.674   5.555 -0.2170  0.4556  1.0198
  467MOL0     C64341  12.166  12.796   5.633 -0.8565 -0.1199 -0.4118
  467MOL0     C64342  12.206  12.916   5.574  0.3182 -0.1185  0.7531
  467MOL0     C64343  12.244  12.939   5.441  0.4476 -0.1283  0.1950
  467MOL0     O64344  12.274  13.071   5.411 -0.5596 -0.7527 -0.1515
  467MOL0     C64345  12.352  13.103   5.289  0.0646  0.7509 -0.8150
  467MOL0     C64346  12.360  13.249   5.257 -0.2292  0.6478  0.7881
  467MOL0     C64347  12.218  13.303   5.215  0.2867 -0.1478  0.6415
  467MOL0     C64348  12.205  13.273   5.068 -0.8215 -0.1679 -0.6230
  467MOL0     C64349  12.078  13.333   5.003  1.0650 -0.4524 -0.1355
  467MOL0     C64350  11.943  13.299   5.085 -0.2425  0.0487  0.4159
  467MOL0     C64351  11.826  13.339   5.008  0.0768 -0.3186 -0.0065
  467MOL0     C64352  11.692  13.329   5.092  0.4001  0.7688 -0.2550
  467MOL0    Cl64353  11.552  13.322   4.972  0.1812  0.0413 -0.2173
  467MOL0     C64354  12.249  12.820   5.366 -0.1923  0.4283  0.3538
  467MOL0     C64355  12.217  12.695   5.421 -0.0909  0.2354  0.2085
  467MOL0     O64356  11.934  12.565   5.478 -0.3031 -0.1883 -0.7227
  467MOL0     C64357  11.843  12.314   5.542 -0.1572 -0.5255 -0.0951
  467MOL0     C64358  11.780  12.204   5.591  0.0078  0.1509  0.2410
  467MOL0     N64359  11.329  12.174   6.004 -0.1941 -0.4763 -0.2731
  467MOL0     N64360  11.201  12.158   6.016 -0.5563 -0.6149  0.0249
  467MOL0     C64361  10.400  11.177   6.033 -0.0323 -0.1612 -1.2658
  467MOL0     C64362  10.355  11.047   6.081 -0.4567  1.0626  1.0320
  467MOL0     C64363  10.086  10.666   5.986  0.3156  0.1991 -0.6371
  467MOL0     C64364  10.071  10.621   6.125 -0.2247 -0.3774  0.2871
  467MOL0     C64365   9.968  10.540   6.171  0.9689 -0.3002  0.0983
  467MOL0     C64366   9.880  10.480   6.073 -0.0908 -0.0748  0.4135
  467MOL0     O64367   9.801  10.385   6.126 -0.2218  0.6256  0.4670
  467MOL0     C64368   9.681  10.341   6.062 -0.4171  0.0199  0.3476
  467MOL0     C64369   9.621  10.218   6.127  0.1276 -0.3579  0.3688
  467MOL0     C64370   9.588  10.251   6.278 -0.4454 -0.7109 -0.3139
  467MOL0     C64371   9.444  10.202   6.321 -0.4567 -0.3318 -0.4188
  467MOL0     C64372   9.389  10.231   6.458 -0.5998 -0.2148 -0.1884
  467MOL0     C64373   9.350  10.245   6.574  0.5596  0.2025  0.3160
  467MOL0     C64374   9.886  10.521   5.939 -0.3893 -0.0718 -0.3479
  467MOL0     C64375   9.987  10.614   5.901 -0.6788 -0.0861  0.1553
  467MOL0     C64376   9.980  10.660   5.754 -0.3016 -0.3857  0.7693
  467MOL0     H64377  10.102  10.989   5.868 -0.2251 -0.6412  0.8938
  467MOL0     H64378  10.177  11.204   5.772 -0.8847 -0.2536  0.6388
  467MOL0     H64379  10.546  11.351   5.875 -2.2487 -2.2892 -0.7090
  467MOL0     H64380  10.499  11.454   6.019  4.3966  0.9048 -1.0715
  467MOL0     H64381  10.432  11.545   5.733 -1.0320  0.8370 -0.4145
  467MOL0     H64382  10.405  11.611   5.898  1.2871 -0.3841  2.3535
  467MOL0     H64383  10.677  11.559   5.776 -2.1565 -0.0891 -1.3992
  467MOL0     H64384  10.598  11.713   5.760  0.1002  2.6519  3.4006
  467MOL0     H64385  10.611  11.719   6.013 -0.1992  0.2083 -0.8147
  467MOL0     H64386  10.714  11.578   6.001 -0.1991 -0.9815 -2.5922
  467MOL0     H64387  10.761  11.838   5.867  1.4376  2.0002  1.3177
  467MOL0     H64388  10.876  11.700   5.854  1.4426  1.3491  1.0250
  467MOL0     H64389  10.788  11.868   6.092 -1.1073 -0.2653 -1.7486
  467MOL0     H64390  10.892  11.737   6.114 -3.4093 -0.7653  0.3852
  467MOL0     H64391  10.975  11.961   5.900  1.1479  1.1157  1.0842
  467MOL0     H64392  11.072  11.828   5.954  0.1587 -1.9721  1.7011
  467MOL0     H64393  10.980  12.075   6.112 -0.4928  0.0054  1.7629
  467MOL0     H64394  11.052  11.932   6.193  1.3399 -0.6792 -1.8035
  467MOL0     H64395  11.318  11.891   6.170 -0.8409  0.5349  1.0184
  467MOL0     H64396  11.542  12.003   6.188 -1.1807  1.0648  0.2028
  467MOL0     H64397  11.584  12.156   6.105  0.3693 -0.1238  5.3700
  467MOL0     H64398  11.568  11.879   5.980  2.0734 -0.2989 -0.9065
  467MOL0     H64399  11.564  12.027   5.878 -1.3792 -1.6028 -0.4517
  467MOL0     H64400  11.797  12.090   5.977 -0.0523  0.0107 -2.4975
  467MOL0     H64401  11.784  11.933   6.059 -0.1872 -0.9927 -0.9403
  467MOL0     H64402  11.905  11.920   5.848  0.1776 -0.5069 -0.1279
  467MOL0     H64403  11.763  11.823   5.835  1.6599 -0.3394 -1.3565
  467MOL0     H64404  11.977  12.123   5.847 -0.9305 -0.2557  2.0696
  467MOL0     H64405  12.107  12.459   5.841  2.4252  0.1565 -0.6196
  467MOL0     H64406  12.208  12.352   5.761  1.7013  2.3975  1.9489
  467MOL0     H64407  12.134  12.297   5.902  1.0746  1.3780  0.2983
  467MOL0     H64408  12.126  12.793   5.734 -0.3927  1.0798 -0.1709
  467MOL0     H64409  12.196  13.003   5.637  0.8064  0.3999  0.1318
  467MOL0     H64410  12.451  13.069   5.323 -1.3730 -0.7060  2.3611
  467MOL0     H64411  12.312  13.045   5.206 -2.6948  0.1329  0.7983
  467MOL0     H64412  12.405  13.304   5.340  1.3084  1.0723 -0.2801
  467MOL0     H64413  12.427  13.270   5.173 -2.8774  0.4111 -1.5193
  467MOL0     H64414  12.220  13.411   5.231  1.8991  0.2169 -1.4785
  467MOL0     H64415  12.141  13.257   5.276 -0.8437 -0.7824 -1.1686
  467MOL0     H64416  12.197  13.165   5.057 -0.6141 -0.1558 -0.9125
  467MOL0     H64417  12.298  13.309   5.023 -0.0330  1.4413  2.0456
  467MOL0     H64418  12.093  13.441   4.999  0.8563 -0.4136  0.0754
  467MOL0     H64419  12.077  13.293   4.901 -0.0458  2.0724 -1.1954
  467MOL0     H64420  11.952  13.349   5.182 -1.3540  0.6512  0.2298
  467MOL0     H64421  11.931  13.191   5.095  2.0324 -0.3084 -0.2242
  467MOL0     H64422  11.819  13.274   4.921  0.4237 -1.0368  0.4939
  467MOL0     H64423  11.827  13.443   4.974  0.5102  0.7640  2.9905
  467MOL0     H64424  11.677  13.415   5.158 -1.3385  0.1261  0.2359
  467MOL0     H64425  11.691  13.235   5.147  0.1562 -0.4218 -2.1869
  467MOL0     H64426  12.269  12.831   5.260  0.4868 -0.7481  0.3409
  467MOL0     H64427  12.216  12.609   5.355 -0.3012 -1.7181  2.6000
  467MOL0     H64428  11.813  12.355   5.446  1.2348 -1.2399 -0.8700
  467MOL0     H64429  11.696  12.164   5.534 -0.6094  1.0807  0.4811
  467MOL0     H64430  10.478  11.233   6.082 -1.6073  1.2837 -0.2790
  467MOL0     H64431  10.399  11.002   6.169  0.0791  1.2190  0.8452
  467MOL0     H64432  10.145  10.673   6.186 -0.8569 -0.5280  1.2107
  467MOL0     H64433   9.973  10.507   6.274  0.8347 -0.4952  0.0431
  467MOL0     H64434   9.616  10.429   6.061  1.8257  1.8025  1.8379
  467MOL0     H64435   9.694  10.317   5.957  1.7544  0.4821  0.4621
  467MOL0     H64436   9.690  10.133   6.116 -0.9060 -1.1966  0.2164
  467MOL0     H64437   9.532  10.185   6.074  0.1901 -1.1626  0.7511
  467MOL0     H64438   9.669  10.201   6.333  1.3835 -1.6001 -3.5643
  467MOL0     H64439   9.584  10.359   6.288 -2.0785 -0.9207  2.1756
  467MOL0     H64440   9.458  10.096   6.298  0.8266  0.1636 -2.0722
  467MOL0     H64441   9.368  10.218   6.245  0.4459 -0.1257 -1.3064
  467MOL0     H64442   9.332  10.257   6.678 -0.3311  0.3439  0.1496
  467MOL0     H64443   9.817  10.481   5.865 -2.3510  0.4578  1.1022
  467MOL0     H64444   9.899  10.606   5.703 -2.7324  1.8987  1.9919
  467MOL0     H64445   9.955  10.765   5.736 -2.1628 -1.1282 -1.5039
  467MOL0     H64446  10.074  10.645   5.700  0.0214  0.7851  0.9848
  468MOL0     O64447   8.893   7.342  10.002 -0.9519 -0.2736  0.5469
  468MOL0     C64448   8.877   7.389   9.888  0.8230  0.4132 -0.9471
  468MOL0     O64449   8.976   7.416   9.800 -0.0493 -0.3548 -0.2270
  468MOL0     C64450   9.101   7.401   9.837 -0.3380  0.2676 -0.6048
  468MOL0     C64451   9.186   7.514   9.856  0.0447 -0.3783  0.9353
  468MOL0     C64452   9.320   7.496   9.875 -0.9755 -0.1852 -0.1894
  468MOL0     C64453   9.376   7.368   9.880  0.5498 -0.3821  0.6902
  468MOL0     O64454   9.511   7.371   9.872 -0.4676 -0.0990  0.0061
  468MOL0     C64455   9.575   7.246   9.905 -0.7654  0.7549  0.5858
  468MOL0     C64456   9.720   7.285   9.926 -0.0384 -0.5344  0.1275
  468MOL0     C64457   9.738   7.386  10.042 -0.3151  0.7047 -0.1915
  468MOL0     C64458   9.829   7.332  10.159 -0.1372 -0.0151  0.2194
  468MOL0     C64459   9.976   7.313  10.110  0.6662 -0.6138  0.8570
  468MOL0     C64460  10.081   7.301  10.220 -0.4094 -0.8209  0.4533
  468MOL0     C64461  10.230   7.303  10.178  0.3292  0.8298 -0.7247
  468MOL0     C64462  10.334   7.313  10.293 -0.4758 -0.2082 -0.1982
  468MOL0     N64463  10.477   7.322  10.262  0.1631 -0.0985 -0.3233
  468MOL0     C64464  10.571   7.223  10.257 -0.0227  0.0445  0.4830
  468MOL0     C64465  10.684   7.279  10.214  0.3791 -0.3775 -0.3316
  468MOL0     C64466  10.811   7.206  10.171  0.6259 -0.5330 -0.3614
  468MOL0     C64467  10.885   7.117  10.277  0.2440 -0.2487 -0.0745
  468MOL0     C64468  10.988   7.012  10.222 -0.1235  0.0837  0.0225
  468MOL0     C64469  11.127   7.071  10.181 -0.1205 -0.5175  0.1937
  468MOL0     O64470  11.174   7.164  10.285  0.2346 -0.6738  0.6192
  468MOL0     C64471  11.296   7.233  10.269  0.0923 -0.2932 -0.0083
  468MOL0     C64472  11.378   7.213  10.158  0.2908  0.8995  0.1698
  468MOL0     C64473  11.504   7.276  10.158  0.3027  0.7651  0.4915
  468MOL0     C64474  11.594   7.235  10.039 -0.6417 -0.2154 -0.6397
  468MOL0     C64475  11.543   7.365  10.261 -0.7176 -0.2909  0.0610
  468MOL0     C64476  11.682   7.424  10.288 -0.6973  0.2645  1.8771
  468MOL0     O64477  11.702   7.492  10.399 -0.0747  0.0289 -0.4163
  468MOL0     C64478  11.809   7.570  10.424  0.1332 -0.0536  0.2328
  468MOL0     C64479  11.869   7.562  10.551 -0.1715 -0.3607  0.1952
  468MOL0     C64480  11.971   7.649  10.590  0.2216 -0.5413 -0.3647
  468MOL0     C64481  12.010   7.745  10.504  0.2416  0.3317 -0.6270
  468MOL0     O64482  12.104   7.842  10.525 -0.3941  0.0993  0.7471
  468MOL0     C64483  12.189   7.813  10.637 -0.0605 -0.6837 -0.2621
  468MOL0     C64484  12.321   7.894  10.635 -0.5404  0.5240  0.2770
  468MOL0     C64485  12.392   7.888  10.495  0.3375 -0.7408  0.1716
  468MOL0     C64486  12.537   7.942  10.496 -0.0601  0.5279 -0.1410
  468MOL0     C64487  12.588   7.969  10.360 -0.1107 -0.3998 -0.3376
  468MOL0     C64488  12.734   8.020  10.358  0.7608 -0.2978 -0.3947
  468MOL0     C64489  12.776   8.058  10.216  0.7425  0.4297 -0.1488
  468MOL0     C64490  12.924   8.094  10.209 -0.0248 -0.1712 -0.7766
  468MOL0    Cl64491  12.954   8.089  10.033 -0.0873 -0.2862  0.3079
  468MOL0     C64492  11.950   7.767  10.381 -0.3496 -0.0625  0.1858
  468MOL0     C64493  11.853   7.675  10.338 -0.0018  0.5751 -0.3910
  468MOL0     O64494  11.768   7.417  10.193  0.0056  0.4933 -0.6764
  468MOL0     C64495  11.452   7.382  10.363 -0.0009  0.7304  0.8575
  468MOL0     C64496  11.332   7.318  10.371  0.6552 -0.3905 -0.2287
  468MOL0     N64497  10.655   7.411  10.187 -0.0265 -0.0987  0.1918
  468MOL0     N64498  10.527   7.437  10.211 -0.3082  0.7510  0.2906
  468MOL0     C64499   9.289   7.256   9.856 -1.1326 -0.6050  0.2434
  468MOL0     C64500   9.157   7.269   9.823  0.1337 -0.0474 -0.8296
  468MOL0     C64501   8.734   7.403   9.836  0.0813 -0.2866 -0.3035
  468MOL0     C64502   8.717   7.512   9.742  0.9224  0.1608 -0.2771
  468MOL0     C64503   8.589   7.546   9.694 -0.9020  1.0088 -0.0790
  468MOL0     C64504   8.480   7.468   9.739  1.1568  0.3391  0.0409
  468MOL0     O64505   8.349   7.475   9.680  0.4327  0.0736 -0.0114
  468MOL0     C64506   8.318   7.582   9.595  0.2461 -0.1949  0.8454
  468MOL0     C64507   8.301   7.717   9.663  0.1448 -0.0783 -0.0517
  468MOL0     C64508   8.186   7.708   9.767  0.7599  0.0895 -0.2923
  468MOL0     C64509   8.169   7.845   9.829  0.2927 -0.1063  0.1399
  468MOL0     C64510   8.266   7.869   9.935  0.1211 -0.7090  0.4070
  468MOL0     C64511   8.323   7.904  10.036  0.3065  0.3516  0.6201
  468MOL0     C64512   8.501   7.361   9.828 -0.4122 -0.1163 -1.1096
  468MOL0     C64513   8.629   7.321   9.878 -0.7708 -0.5913 -0.6552
  468MOL0     C64514   8.636   7.202   9.968  0.4234  0.5372 -0.3276
  468MOL0     H64515   9.141   7.612   9.856 -1.0215 -0.8405 -0.2319
  468MOL0     H64516   9.383   7.583   9.884 -0.0402 -0.5759 -2.3037
  468MOL0     H64517   9.554   7.172   9.826 -1.4357 -0.1618  1.6004
  468MOL0     H64518   9.534   7.196   9.993 -0.2839  1.1238  1.0219
  468MOL0     H64519   9.777   7.193   9.938  0.6485 -0.2821 -1.0339
  468MOL0     H64520   9.762   7.327   9.834  2.0696 -3.7045 -0.5180
  468MOL0     H64521   9.787   7.478  10.008  0.7040 -0.3566 -1.7148
  468MOL0     H64522   9.640   7.408  10.087  0.3862  1.0675  1.2421
  468MOL0     H64523   9.835   7.412  10.233  0.4096  0.1546  0.0026
  468MOL0     H64524   9.785   7.241  10.199 -1.0638 -0.0445 -0.8032
  468MOL0     H64525  10.007   7.398  10.050  0.1192 -0.0090  1.4236
  468MOL0     H64526   9.981   7.223  10.048  1.6454 -0.6775  1.0099
  468MOL0     H64527  10.058   7.382  10.290 -1.6484 -0.1694 -0.6682
  468MOL0     H64528  10.070   7.208  10.278  1.4790 -1.0654  0.4934
  468MOL0     H64529  10.252   7.393  10.119 -0.2548  1.1086 -0.5296
  468MOL0     H64530  10.251   7.215  10.117  1.7068  0.0334  0.8122
  468MOL0     H64531  10.309   7.406  10.346 -0.5048  0.9156 -2.1046
  468MOL0     H64532  10.338   7.229  10.363  5.7865 -0.2834 -0.0973
  468MOL0     H64533  10.558   7.117  10.276  1.0710  0.3016  2.9987
  468MOL0     H64534  10.875   7.291  10.146  0.6975  0.0100  1.5183
  468MOL0     H64535  10.790   7.141  10.086 -3.2162 -1.4418  1.0910
  468MOL0     H64536  10.929   7.189  10.346  1.3788  0.4185 -1.4359
  468MOL0     H64537  10.806   7.060  10.325 -0.1001  0.7354  0.5450
  468MOL0     H64538  11.007   6.950  10.310 -0.9616 -1.4285 -0.8076
  468MOL0     H64539  10.937   6.949  10.149 -1.0855  2.1224 -1.1528
  468MOL0     H64540  11.194   6.985  10.178  1.4364  0.6536 -2.6361
  468MOL0     H64541  11.124   7.118  10.082  3.6394  1.2018  0.7223
  468MOL0     H64542  11.347   7.148  10.076 -1.8103  0.8092  0.9637
  468MOL0     H64543  11.548   7.151   9.986 -1.4669  0.2587 -0.6898
  468MOL0     H64544  11.693   7.200  10.070 -1.3695 -3.0845 -1.2869
  468MOL0     H64545  11.614   7.323   9.977 -1.3738  3.2859  3.5569
  468MOL0     H64546  11.821   7.492  10.619 -0.5125  0.2406  0.5778
  468MOL0     H64547  12.020   7.635  10.685  1.7918 -2.6002 -1.3765
  468MOL0     H64548  12.140   7.840  10.730  0.1018 -1.2009 -0.0204
  468MOL0     H64549  12.211   7.707  10.655 -2.8901 -1.2993  0.0199
  468MOL0     H64550  12.300   7.992  10.679  1.0174  1.0111  0.0029
  468MOL0     H64551  12.382   7.830  10.701 -1.4776 -3.7625 -2.6060
  468MOL0     H64552  12.328   7.943  10.426 -0.8904  1.7369  3.0238
  468MOL0     H64553  12.383   7.785  10.459  0.0432 -0.9680  0.8739
  468MOL0     H64554  12.602   7.872  10.550 -1.4493  0.2832  1.2963
  468MOL0     H64555  12.541   8.032  10.558  2.9842  0.8992 -0.6872
  468MOL0     H64556  12.586   7.869  10.315  0.5692 -0.7405  0.3643
  468MOL0     H64557  12.522   8.041  10.311  0.4356  0.1780 -0.2325
  468MOL0     H64558  12.798   7.943  10.402  0.6954 -0.3167 -0.3321
  468MOL0     H64559  12.750   8.111  10.416 -0.9444 -0.5298  0.5066
  468MOL0     H64560  12.713   8.137  10.173  0.7891  0.6486  0.1826
  468MOL0     H64561  12.754   7.976  10.146 -1.9489  0.6506  0.3124
  468MOL0     H64562  12.993   8.029  10.263 -0.5178 -0.9922 -1.1148
  468MOL0     H64563  12.935   8.193  10.254 -0.3518  0.1285 -1.3410
  468MOL0     H64564  11.981   7.858  10.331  1.2396 -1.0944 -0.7864
  468MOL0     H64565  11.790   7.691  10.251 -2.4897 -0.1769  1.1851
  468MOL0     H64566  11.483   7.438  10.451  2.0671 -0.4991  0.9890
  468MOL0     H64567  11.283   7.321  10.468 -0.9165  3.2542 -0.9702
  468MOL0     H64568   9.331   7.156   9.861  0.0232 -0.1055  1.2470
  468MOL0     H64569   9.086   7.192   9.794  0.2176  0.0555 -1.3218
  468MOL0     H64570   8.801   7.577   9.720 -1.4846  3.7287  0.1370
  468MOL0     H64571   8.585   7.626   9.620  0.9252  0.4159 -0.8909
  468MOL0     H64572   8.396   7.589   9.518 -0.4329  0.0561  0.1601
  468MOL0     H64573   8.225   7.567   9.538  0.5031  0.7117  0.1479
  468MOL0     H64574   8.285   7.795   9.588 -1.3472 -0.4854 -0.1853
  468MOL0     H64575   8.389   7.742   9.722  1.4302 -0.3461 -1.7739
  468MOL0     H64576   8.090   7.682   9.722  1.7473  0.9523 -3.0971
  468MOL0     H64577   8.203   7.630   9.842  1.4123 -0.9832 -1.5004
  468MOL0     H64578   8.067   7.842   9.870  0.6770 -1.1305  1.0622
  468MOL0     H64579   8.161   7.920   9.750  0.4714 -0.3072 -0.0683
  468MOL0     H64580   8.376   7.933  10.124  0.1102 -0.8483  1.1594
  468MOL0     H64581   8.411   7.307   9.858  1.1889 -1.9309  0.7277
  468MOL0     H64582   8.620   7.219  10.075  1.4924 -0.6688  0.0445
  468MOL0     H64583   8.558   7.133   9.933 -0.9607  2.0188 -0.2835
  468MOL0     H64584   8.734   7.156   9.953  0.9422  0.9886  1.4641
  469MOL0     O64585   9.169   9.064   8.301  0.4177  0.0720 -0.2460
  469MOL0     C64586   9.153   9.183   8.289 -0.7602  0.3046  0.3689
  469MOL0     O64587   9.255   9.276   8.251  0.4076 -0.1553  0.1163
  469MOL0     C64588   9.383   9.247   8.285  0.1427  0.0512  0.7976
  469MOL0     C64589   9.426   9.193   8.405 -1.2525 -0.4693 -0.7046
  469MOL0     C64590   9.560   9.147   8.426  0.7534 -0.1876  0.2187
  469MOL0     C64591   9.656   9.188   8.333 -0.0399 -0.0706 -0.8111
  469MOL0     O64592   9.793   9.164   8.332  0.0713  0.3998 -0.2166
  469MOL0     C64593   9.828   9.036   8.391  0.2572  0.1841  0.3270
  469MOL0     C64594   9.972   8.994   8.386  0.5823 -0.4249  0.1296
  469MOL0     C64595  10.024   8.983   8.241 -0.2732  0.6135  0.3024
  469MOL0     C64596  10.139   8.884   8.236  0.2397 -0.6644  0.1944
  469MOL0     C64597  10.274   8.955   8.201 -0.2593  0.1163 -0.4152
  469MOL0     C64598  10.288   8.953   8.046 -1.7712 -0.0316  0.1345
  469MOL0     C64599  10.414   9.040   8.001  0.1691 -1.1229 -0.5902
  469MOL0     C64600  10.434   9.041   7.848 -0.0454 -0.1283 -0.2061
  469MOL0     N64601  10.509   9.148   7.788  0.1215  0.3065  0.4262
  469MOL0     C64602  10.473   9.283   7.797 -0.1680 -1.1465 -0.2828
  469MOL0     C64603  10.588   9.346   7.752 -0.4673  1.9166 -0.3129
  469MOL0     C64604  10.616   9.490   7.712  0.5044  0.0054 -0.2992
  469MOL0     C64605  10.699   9.549   7.820  1.1252  0.0991  0.0323
  469MOL0     C64606  10.727   9.691   7.770 -0.4826  0.1873 -0.1834
  469MOL0     C64607  10.793   9.780   7.867  0.0935 -0.5168 -0.3437
  469MOL0     O64608  10.905   9.716   7.924  0.0701  0.5316  0.2450
  469MOL0     C64609  11.027   9.752   7.877  0.1455 -0.0514  0.2612
  469MOL0     C64610  11.057   9.798   7.747 -0.3199  0.1907 -0.0792
  469MOL0     C64611  11.188   9.804   7.707  0.2671 -0.4390  0.3423
  469MOL0     C64612  11.209   9.838   7.565 -0.5757 -0.6594 -0.2799
  469MOL0     C64613  11.301   9.787   7.793  0.8033  0.1190 -0.1594
  469MOL0     C64614  11.447   9.806   7.768  0.5168  0.3639  0.1724
  469MOL0     O64615  11.537   9.753   7.855  0.5424 -0.0752  0.2493
  469MOL0     C64616  11.671   9.758   7.819  0.5955 -0.3059  0.0985
  469MOL0     C64617  11.731   9.645   7.761 -0.1304 -0.9571 -0.4179
  469MOL0     C64618  11.865   9.656   7.723  0.4038  0.3886  0.4040
  469MOL0     C64619  11.934   9.772   7.740 -0.4022 -0.7935  0.4399
  469MOL0     O64620  12.066   9.780   7.718  0.8376 -0.0431 -0.1516
  469MOL0     C64621  12.122   9.707   7.616 -0.8765 -0.1107 -0.5795
  469MOL0     C64622  12.215   9.800   7.534  0.0242  0.8016  0.7878
  469MOL0     C64623  12.346   9.826   7.619 -0.1774 -0.6853 -0.1637
  469MOL0     C64624  12.446   9.911   7.545  0.5472 -0.2912  0.4915
  469MOL0     C64625  12.579   9.928   7.605 -0.8021  0.3671 -0.2165
  469MOL0     C64626  12.675   9.811   7.562 -0.3044 -0.0838 -0.5327
  469MOL0     C64627  12.751   9.848   7.437  0.0776 -0.7865 -0.3296
  469MOL0     C64628  12.868   9.750   7.417 -0.5103  0.4919 -0.2952
  469MOL0    Cl64629  12.913   9.694   7.244  0.3098 -0.1666 -0.0879
  469MOL0     C64630  11.877   9.886   7.795  0.9323  0.8106  0.2857
  469MOL0     C64631  11.744   9.877   7.830 -0.1021 -0.7403 -0.5714
  469MOL0     O64632  11.476   9.863   7.671 -0.3570 -0.9594  0.1355
  469MOL0     C64633  11.264   9.742   7.925  0.1674  0.2778 -0.0711
  469MOL0     C64634  11.127   9.722   7.966 -0.0087 -0.3538  0.9245
  469MOL0     N64635  10.679   9.246   7.724 -0.0958 -0.7062  0.0443
  469MOL0     N64636  10.635   9.134   7.743  0.0742 -0.2014 -0.1830
  469MOL0     C64637   9.613   9.253   8.217  0.5024 -0.5127 -0.0832
  469MOL0     C64638   9.478   9.280   8.193 -0.1236 -0.0567 -0.8279
  469MOL0     C64639   9.021   9.234   8.310  0.4627 -0.1170 -1.2464
  469MOL0     C64640   8.918   9.138   8.336 -0.7390  0.1906 -0.0849
  469MOL0     C64641   8.782   9.170   8.337  0.6330 -0.5653 -0.6649
  469MOL0     C64642   8.743   9.297   8.319 -0.9181  0.5025  1.0746
  469MOL0     O64643   8.615   9.331   8.293 -0.2857 -0.4499 -0.1019
  469MOL0     C64644   8.503   9.250   8.345 -0.2771  0.0883  0.1207
  469MOL0     C64645   8.361   9.323   8.330 -0.4871  0.6418  1.3425
  469MOL0     C64646   8.253   9.210   8.331  0.0813 -0.7165  0.4807
  469MOL0     C64647   8.243   9.117   8.456 -0.3871 -0.2526 -0.2478
  469MOL0     C64648   8.201   9.195   8.570  0.1940  0.0627 -0.5480
  469MOL0     C64649   8.166   9.277   8.654 -0.4853  0.7909 -1.0851
  469MOL0     C64650   8.838   9.401   8.310  0.1761  0.0462 -0.2647
  469MOL0     C64651   8.976   9.375   8.300 -0.0601 -0.2162 -0.5403
  469MOL0     C64652   9.057   9.496   8.253 -0.3405 -0.2217  0.6657
  469MOL0     H64653   9.369   9.153   8.488 -0.6036 -1.9089 -0.9225
  469MOL0     H64654   9.583   9.082   8.510  0.5850 -2.6729 -1.5281
  469MOL0     H64655   9.763   8.958   8.349  0.6485 -0.7519  1.4271
  469MOL0     H64656   9.799   9.039   8.496 -0.0777 -3.3537  0.4750
  469MOL0     H64657  10.034   9.070   8.435 -0.2238  0.4405 -0.1733
  469MOL0     H64658   9.986   8.907   8.450 -0.9266 -0.2991  0.6658
  469MOL0     H64659   9.941   8.946   8.181  1.3328  1.9377 -3.0148
  469MOL0     H64660  10.054   9.080   8.198 -0.3015  1.2140  1.5915
  469MOL0     H64661  10.148   8.827   8.329  0.1054  0.0343  0.6357
  469MOL0     H64662  10.122   8.809   8.158 -0.0522 -1.2912  0.8465
  469MOL0     H64663  10.358   8.896   8.240 -0.7404 -0.6775 -0.5739
  469MOL0     H64664  10.279   9.055   8.245  0.3940 -0.8701  1.8924
  469MOL0     H64665  10.294   8.852   8.004 -2.6560 -0.3571  0.7609
  469MOL0     H64666  10.198   9.009   8.016 -1.6518  1.7367  2.7636
  469MOL0     H64667  10.504   9.000   8.048  0.9214 -1.0779 -1.9336
  469MOL0     H64668  10.389   9.142   8.034 -1.5218 -1.6330 -0.2045
  469MOL0     H64669  10.470   8.943   7.817 -1.9993 -1.7141  2.1429
  469MOL0     H64670  10.333   9.051   7.808 -0.8308  1.7999  2.0341
  469MOL0     H64671  10.379   9.329   7.826  0.5270  0.3188 -0.2645
  469MOL0     H64672  10.516   9.534   7.706  0.4798  0.4412  2.1307
  469MOL0     H64673  10.661   9.504   7.614  0.6993  0.6294 -0.1229
  469MOL0     H64674  10.646   9.562   7.915 -0.4364  0.2362 -0.8324
  469MOL0     H64675  10.791   9.494   7.839  1.9460  1.4508  0.1392
  469MOL0     H64676  10.795   9.678   7.685  0.6135  0.4552  0.6405
  469MOL0     H64677  10.636   9.734   7.727 -0.5380  0.3993  0.1455
  469MOL0     H64678  10.824   9.872   7.817  0.8004 -1.7173 -2.2737
  469MOL0     H64679  10.727   9.803   7.950  1.4712  1.0970  0.3589
  469MOL0     H64680  10.980   9.821   7.674 -0.5654  0.4718  0.2637
  469MOL0     H64681  11.122   9.815   7.502 -1.1006 -0.9320  0.5360
  469MOL0     H64682  11.294   9.784   7.521  0.4132 -1.2369  2.1845
  469MOL0     H64683  11.232   9.945   7.569 -0.1467 -0.7872  0.9368
  469MOL0     H64684  11.675   9.552   7.749 -4.1352  1.3625 -1.5323
  469MOL0     H64685  11.908   9.564   7.684  1.5554  1.3401 -0.6300
  469MOL0     H64686  12.168   9.618   7.660 -3.7582 -0.9473  1.0088
  469MOL0     H64687  12.051   9.668   7.542 -0.6286 -2.6711  0.4136
  469MOL0     H64688  12.245   9.757   7.438 -1.1148  1.7612 -0.0277
  469MOL0     H64689  12.162   9.894   7.517 -1.8638 -0.0022  1.9186
  469MOL0     H64690  12.396   9.734   7.649  2.5156  0.8335  0.3075
  469MOL0     H64691  12.322   9.873   7.715  2.6707  0.2313  0.1854
  469MOL0     H64692  12.395  10.007   7.553 -0.9188 -1.0984  1.3973
  469MOL0     H64693  12.453   9.891   7.438  0.3153 -0.8253  0.5740
  469MOL0     H64694  12.621  10.026   7.582  0.6361 -0.2023 -0.1001
  469MOL0     H64695  12.561   9.920   7.713 -0.7458  1.0308 -0.1565
  469MOL0     H64696  12.615   9.721   7.543  0.3610 -1.0250  1.4755
  469MOL0     H64697  12.740   9.788   7.647 -0.2984  1.1110 -0.1973
  469MOL0     H64698  12.784   9.952   7.444 -2.0258 -0.1052  0.0482
  469MOL0     H64699  12.690   9.836   7.348 -0.2363  0.7265 -0.3383
  469MOL0     H64700  12.857   9.656   7.472  2.7390  1.1268  1.7389
  469MOL0     H64701  12.958   9.795   7.460 -0.5457 -1.8990  2.6113
  469MOL0     H64702  11.925   9.979   7.825  0.1684  0.8857  1.3468
  469MOL0     H64703  11.695   9.953   7.891 -3.5632 -2.8470 -0.4535
  469MOL0     H64704  11.346   9.720   7.992  1.7545 -1.4190 -2.4327
  469MOL0     H64705  11.107   9.669   8.059  0.5499 -0.5266  0.9470
  469MOL0     H64706   9.686   9.292   8.148  0.4883 -3.2687 -1.7745
  469MOL0     H64707   9.445   9.330   8.103 -1.8300 -0.0380 -0.2267
  469MOL0     H64708   8.952   9.035   8.342  0.3860  0.3803 -2.2128
  469MOL0     H64709   8.713   9.087   8.334 -1.6852  1.2213 -0.0572
  469MOL0     H64710   8.504   9.154   8.292 -0.1631 -0.0032  0.2879
  469MOL0     H64711   8.514   9.233   8.452 -0.1619 -1.8617 -0.1685
  469MOL0     H64712   8.367   9.398   8.251  1.4767 -1.2730 -0.4447
  469MOL0     H64713   8.355   9.377   8.425 -0.0505 -0.5971  2.0974
  469MOL0     H64714   8.156   9.260   8.317  0.2705 -0.2511  0.7918
  469MOL0     H64715   8.285   9.156   8.241  2.7668  3.2232 -1.2679
  469MOL0     H64716   8.335   9.061   8.475 -0.2353  0.4236  1.1811
  469MOL0     H64717   8.168   9.040   8.433 -2.1221  0.7856  1.5808
  469MOL0     H64718   8.162   9.358   8.723 -0.2868  1.1274 -1.4624
  469MOL0     H64719   8.797   9.501   8.294 -0.7183  0.0045  1.4683
  469MOL0     H64720   9.072   9.482   8.145 -2.5868  0.9586  0.1356
  469MOL0     H64721   9.010   9.594   8.266  0.6018  0.8819 -3.0442
  469MOL0     H64722   9.155   9.502   8.301  0.9485  0.3741 -1.8811
  470MOL0     O64723   2.762  10.599   2.839  0.4892 -0.4251 -0.0434
  470MOL0     C64724   2.765  10.566   2.957 -0.8138 -0.9057  0.2335
  470MOL0     O64725   2.878  10.576   3.041 -0.3465 -0.5417  0.3007
  470MOL0     C64726   2.991  10.616   2.974  0.2977 -0.1764  0.8774
  470MOL0     C64727   3.044  10.737   3.003 -0.5533 -0.6352  0.1821
  470MOL0     C64728   3.171  10.778   2.954 -0.0043  0.7182 -0.5725
  470MOL0     C64729   3.238  10.699   2.866  0.0034  0.5646 -0.1999
  470MOL0     O64730   3.364  10.734   2.816 -0.3049 -0.6399 -0.1036
  470MOL0     C64731   3.453  10.819   2.899 -0.0164 -0.4267 -0.4025
  470MOL0     C64732   3.596  10.759   2.894  0.0378  0.7943  0.7398
  470MOL0     C64733   3.692  10.833   2.993 -0.1683  0.1560 -0.2660
  470MOL0     C64734   3.806  10.741   3.047 -0.3008  0.5749 -0.5641
  470MOL0     C64735   3.881  10.812   3.164 -0.7787  0.4192 -0.1486
  470MOL0     C64736   3.979  10.712   3.222  0.5046  0.6603 -0.0918
  470MOL0     C64737   4.090  10.676   3.125  0.2920  0.5595 -0.3915
  470MOL0     C64738   4.197  10.593   3.198  0.1003  0.1639 -0.8882
  470MOL0     N64739   4.318  10.587   3.117 -0.1374 -0.0503  0.4923
  470MOL0     C64740   4.353  10.498   3.017 -0.4059  0.7590  0.2832
  470MOL0     C64741   4.485  10.513   3.003 -0.6062  0.7753  1.3902
  470MOL0     C64742   4.569  10.436   2.898  0.3173  0.6883  0.1460
  470MOL0     C64743   4.716  10.488   2.888 -0.4986  0.4903 -0.1206
  470MOL0     C64744   4.810  10.403   2.815 -0.8364  0.0708 -0.7904
  470MOL0     C64745   4.954  10.459   2.821  0.4422  0.6026  1.6083
  470MOL0     O64746   5.023  10.380   2.719 -0.3789  0.3402 -0.1111
  470MOL0     C64747   5.155  10.346   2.746  0.6181  0.0175 -0.1546
  470MOL0     C64748   5.242  10.425   2.818  0.5457 -0.9299 -0.7389
  470MOL0     C64749   5.370  10.398   2.839  0.1342 -0.9454 -0.1016
  470MOL0     C64750   5.447  10.498   2.914 -0.5893  0.4656 -0.2802
  470MOL0     C64751   5.408  10.260   2.813 -0.1433  0.9280 -0.7945
  470MOL0     C64752   5.539  10.205   2.828 -0.6187 -0.2610 -0.8913
  470MOL0     O64753   5.558  10.081   2.782  0.1470  0.2509 -0.4055
  470MOL0     C64754   5.673  10.020   2.803  0.9540  0.0625  0.1193
  470MOL0     C64755   5.763   9.995   2.703 -1.2479 -0.0360 -0.3862
  470MOL0     C64756   5.885   9.938   2.743 -0.7488  0.5543  0.1043
  470MOL0     C64757   5.909   9.881   2.865 -0.3512 -0.6749  0.3510
  470MOL0     O64758   6.013   9.802   2.887 -0.7944 -0.3206 -0.5231
  470MOL0     C64759   6.088   9.803   3.007  0.3392 -0.0198  0.7259
  470MOL0     C64760   6.208   9.707   3.005 -0.5425  1.0171  0.1111
  470MOL0     C64761   6.325   9.774   2.928 -0.3232  0.1162  0.4597
  470MOL0     C64762   6.458   9.701   2.925  0.5116 -0.4411  0.4623
  470MOL0     C64763   6.572   9.796   2.877  0.1924 -0.1304  0.1335
  470MOL0     C64764   6.700   9.723   2.892 -0.3842 -1.0587  0.3354
  470MOL0     C64765   6.822   9.810   2.864  0.8032  0.3016 -0.2656
  470MOL0     C64766   6.945   9.737   2.849  0.4730 -0.5135 -0.5749
  470MOL0    Cl64767   6.977   9.628   2.987  0.0148  0.0954 -0.3018
  470MOL0     C64768   5.813   9.909   2.965  0.3624 -0.0627  0.2636
  470MOL0     C64769   5.702   9.973   2.931 -0.0107 -0.5326  0.4268
  470MOL0     O64770   5.629  10.277   2.880 -0.7297  0.5794 -0.4116
  470MOL0     C64771   5.320  10.169   2.745 -1.0714 -0.1900 -1.2314
  470MOL0     C64772   5.194  10.214   2.711 -0.4046  0.7094 -0.9095
  470MOL0     N64773   4.523  10.630   3.070  0.2094 -0.2163 -1.0323
  470MOL0     N64774   4.416  10.681   3.135  0.2568  0.5942 -0.1393
  470MOL0     C64775   3.175  10.576   2.826  0.9626 -0.5125 -0.0917
  470MOL0     C64776   3.049  10.539   2.879  0.5801  0.3868 -0.4546
  470MOL0     C64777   2.640  10.508   3.009 -0.4163 -0.0064 -0.6272
  470MOL0     C64778   2.574  10.410   2.936  0.0057 -0.9633 -0.1953
  470MOL0     C64779   2.460  10.351   2.985  0.6940  0.6577 -0.2129
  470MOL0     C64780   2.411  10.381   3.114 -1.2366  0.2238 -0.6319
  470MOL0     O64781   2.293  10.340   3.167  1.0258 -0.0502  0.0213
  470MOL0     C64782   2.235  10.225   3.110  0.7539 -0.5602  0.2303
  470MOL0     C64783   2.128  10.180   3.210  0.0232  0.2917  0.4746
  470MOL0     C64784   2.017  10.095   3.145 -0.1590  0.3728  0.2719
  470MOL0     C64785   1.915  10.055   3.251 -0.1066  0.1731  0.3652
  470MOL0     C64786   1.945   9.930   3.327 -0.1290  1.2268  1.1990
  470MOL0     C64787   1.945   9.813   3.364 -0.5180  0.5119 -0.0745
  470MOL0     C64788   2.490  10.468   3.195  0.6302  0.4484 -0.5358
  470MOL0     C64789   2.599  10.529   3.142 -0.3933 -1.3121  0.2174
  470MOL0     C64790   2.668  10.631   3.217  0.2050 -0.2804 -0.1544
  470MOL0     H64791   3.011  10.814   3.072  4.1708 -0.2021  2.3531
  470MOL0     H64792   3.214  10.870   2.992  0.8108 -0.1841  0.7936
  470MOL0     H64793   3.416  10.815   3.002  1.4423 -0.9463  0.1238
  470MOL0     H64794   3.455  10.921   2.859  2.3532 -0.9814 -1.8980
  470MOL0     H64795   3.597  10.649   2.898 -1.2870  0.8058  2.2099
  470MOL0     H64796   3.631  10.775   2.791 -4.5062 -1.5116 -1.4844
  470MOL0     H64797   3.744  10.918   2.949  2.0231 -1.9090 -1.9379
  470MOL0     H64798   3.628  10.868   3.074 -1.7646 -2.9076 -0.0248
  470MOL0     H64799   3.769  10.643   3.077  0.6369  0.6569  0.9535
  470MOL0     H64800   3.873  10.732   2.961 -0.9665 -1.1206 -0.9481
  470MOL0     H64801   3.804  10.836   3.238 -0.7266 -1.0284  0.4004
  470MOL0     H64802   3.941  10.899   3.134 -0.3272  0.3601  0.5658
  470MOL0     H64803   4.020  10.742   3.319  0.3038 -0.3321  0.3138
  470MOL0     H64804   3.928  10.618   3.242  2.5549 -0.6857 -0.8140
  470MOL0     H64805   4.135  10.766   3.082  0.9512  1.2040  1.5576
  470MOL0     H64806   4.043  10.627   3.039 -3.2060  4.0220 -0.7203
  470MOL0     H64807   4.225  10.646   3.289 -1.4440 -2.0546  0.9859
  470MOL0     H64808   4.165  10.491   3.220 -0.3082  0.6893  1.1346
  470MOL0     H64809   4.289  10.425   2.969 -2.3717  1.6753  1.3446
  470MOL0     H64810   4.526  10.449   2.799 -0.6302 -2.2965  0.0888
  470MOL0     H64811   4.573  10.332   2.930 -2.6433  0.1864 -0.8688
  470MOL0     H64812   4.717  10.580   2.829  0.5227 -0.3203 -1.4522
  470MOL0     H64813   4.764  10.507   2.984  0.8023 -0.5145 -0.5378
  470MOL0     H64814   4.814  10.302   2.857  1.5354  0.4270 -0.0236
  470MOL0     H64815   4.768  10.386   2.715 -1.6144  0.8213 -0.6000
  470MOL0     H64816   4.952  10.567   2.802  0.6787  0.7010  2.1452
  470MOL0     H64817   4.997  10.442   2.920  1.1000 -2.2079  0.9403
  470MOL0     H64818   5.198  10.521   2.845 -1.4603 -1.7088 -1.0751
  470MOL0     H64819   5.544  10.506   2.865  0.0599  2.0205  1.1545
  470MOL0     H64820   5.464  10.461   3.016  0.3150 -2.3952 -1.3820
  470MOL0     H64821   5.397  10.595   2.922 -3.2677 -0.5005 -3.1900
  470MOL0     H64822   5.745  10.038   2.605  5.3443  1.7721 -1.2873
  470MOL0     H64823   5.958   9.902   2.672 -1.7359 -2.3474  0.4086
  470MOL0     H64824   6.119   9.904   3.035  2.4226 -0.2782 -0.4769
  470MOL0     H64825   6.027   9.767   3.089  2.9880 -3.0667  1.5428
  470MOL0     H64826   6.252   9.684   3.103  1.3144  0.4705 -0.7991
  470MOL0     H64827   6.186   9.616   2.950  1.7525  0.3322  0.2295
  470MOL0     H64828   6.367   9.865   2.972  3.4500 -1.0052 -0.5082
  470MOL0     H64829   6.291   9.806   2.829  0.7733  0.6747  0.2569
  470MOL0     H64830   6.442   9.631   2.843 -2.9206  2.6428 -1.8865
  470MOL0     H64831   6.474   9.652   3.021  1.4409 -3.6623 -1.2146
  470MOL0     H64832   6.561   9.833   2.775  2.8385  0.0508 -0.1526
  470MOL0     H64833   6.590   9.893   2.923  0.5321  0.8939 -2.0373
  470MOL0     H64834   6.716   9.632   2.833 -0.1700 -1.2631  0.7070
  470MOL0     H64835   6.723   9.689   2.994  1.7162 -0.9172 -0.0388
  470MOL0     H64836   6.832   9.886   2.942 -1.1238 -0.6737  1.0128
  470MOL0     H64837   6.806   9.873   2.776  2.5943  1.0750 -0.0890
  470MOL0     H64838   7.019   9.816   2.835 -0.0349 -0.1719 -1.3813
  470MOL0     H64839   6.939   9.681   2.755 -3.0092 -0.5552 -0.4342
  470MOL0     H64840   5.816   9.865   3.064  0.5943 -4.7283 -1.5432
  470MOL0     H64841   5.620   9.992   2.998 -1.2861  1.1359 -1.4943
  470MOL0     H64842   5.355  10.072   2.713 -0.9502 -0.5086 -0.1670
  470MOL0     H64843   5.127  10.143   2.664  0.6834 -1.1511  0.2260
  470MOL0     H64844   3.224  10.507   2.759  0.6749 -0.4675 -0.3525
  470MOL0     H64845   3.014  10.443   2.841 -0.4194  1.4711 -2.3995
  470MOL0     H64846   2.609  10.386   2.836  0.7018  0.8674 -0.4328
  470MOL0     H64847   2.404  10.280   2.925 -1.6124  0.8251  1.6215
  470MOL0     H64848   2.201  10.249   3.009  1.2586  0.2336  0.2423
  470MOL0     H64849   2.317  10.153   3.105  1.7394  0.3455  2.1922
  470MOL0     H64850   2.086  10.271   3.252 -0.3999  0.6057 -0.5881
  470MOL0     H64851   2.166  10.114   3.289  0.3322  0.4057  0.4204
  470MOL0     H64852   1.971  10.160   3.070  2.0855  2.3516  0.4790
  470MOL0     H64853   2.059  10.009   3.090 -1.7442 -1.4860  1.8170
  470MOL0     H64854   1.820  10.035   3.201  0.6370 -0.8474 -0.6915
  470MOL0     H64855   1.895  10.140   3.317  0.4266  2.2107 -1.9646
  470MOL0     H64856   1.947   9.712   3.400  0.5724  0.0890 -1.2545
  470MOL0     H64857   2.452  10.492   3.294 -0.8182 -1.4081 -0.6035
  470MOL0     H64858   2.722  10.703   3.154  0.5803 -0.0479  0.4244
  470MOL0     H64859   2.588  10.687   3.267  0.1216 -0.9157  0.4320
  470MOL0     H64860   2.749  10.591   3.279  2.1938  1.8885 -1.1532
  471MOL0     O64861   7.208   8.248   9.728 -0.0680 -0.3608  0.1690
  471MOL0     C64862   7.217   8.301   9.617  0.3652 -0.0174 -0.0353
  471MOL0     O64863   7.327   8.360   9.570  0.1313  0.2595  0.1668
  471MOL0     C64864   7.427   8.383   9.659 -1.0601 -1.4291  0.0707
  471MOL0     C64865   7.558   8.338   9.631 -0.6272  0.0604 -0.0628
  471MOL0     C64866   7.666   8.363   9.722 -0.5102 -0.3855 -0.6033
  471MOL0     C64867   7.645   8.442   9.836  0.8154  1.1295  0.1714
  471MOL0     O64868   7.745   8.462   9.931  0.5399 -0.1591 -0.6325
  471MOL0     C64869   7.707   8.405  10.055 -0.4439  0.3464 -0.2568
  471MOL0     C64870   7.817   8.419  10.161 -0.5142  0.4044 -0.0546
  471MOL0     C64871   7.954   8.374  10.110 -1.0522 -1.0115  0.0170
  471MOL0     C64872   8.061   8.406  10.209 -0.3763  0.3009 -0.1083
  471MOL0     C64873   8.200   8.382  10.149 -0.6400 -0.7040 -0.3552
  471MOL0     C64874   8.304   8.395  10.264  1.0004 -0.2548  0.4081
  471MOL0     C64875   8.411   8.489  10.212  0.1227 -0.3418 -0.1748
  471MOL0     C64876   8.540   8.445  10.280 -0.7036  0.0957  0.5096
  471MOL0     N64877   8.667   8.502  10.204  0.3270 -0.6956 -0.6583
  471MOL0     C64878   8.757   8.591  10.263  0.6512 -0.6426 -0.3366
  471MOL0     C64879   8.859   8.604  10.185 -0.0647 -0.0096 -0.2165
  471MOL0     C64880   8.969   8.698  10.205 -0.0059 -0.6445 -0.4664
  471MOL0     C64881   9.096   8.644  10.285 -0.0747  1.1368 -0.3452
  471MOL0     C64882   9.155   8.513  10.220  0.7363  0.2172 -0.2454
  471MOL0     C64883   9.284   8.476  10.292  1.1967  0.9955 -0.2734
  471MOL0     O64884   9.271   8.421  10.425  0.1442  0.7195 -0.1538
  471MOL0     C64885   9.380   8.429  10.504 -0.6238 -0.5407  0.1841
  471MOL0     C64886   9.357   8.416  10.641 -0.9645 -0.5233 -0.4933
  471MOL0     C64887   9.463   8.433  10.729 -0.2585 -0.0320 -0.6573
  471MOL0     C64888   9.415   8.444  10.873  0.1112  0.6173  0.3516
  471MOL0     C64889   9.591   8.447  10.688  0.0661 -0.4735  0.6173
  471MOL0     C64890   9.697   8.457  10.784 -0.2551 -0.3588 -0.5697
  471MOL0     O64891   9.770   8.339  10.800  0.6167 -0.4216 -0.2579
  471MOL0     C64892   9.893   8.362  10.853  0.2245  0.6827  0.1520
  471MOL0     C64893  10.002   8.344  10.769  0.4642  0.2067 -0.4959
  471MOL0     C64894  10.134   8.360  10.807  0.2181 -0.1827 -0.6310
  471MOL0     C64895  10.160   8.386  10.943 -0.6137 -0.5699  0.0327
  471MOL0     O64896  10.284   8.378  11.008  0.4122  0.4481  0.3855
  471MOL0     C64897  10.395   8.445  10.941 -0.3703  0.4712  0.1472
  471MOL0     C64898  10.494   8.494  11.049 -0.0833 -0.2644 -0.2040
  471MOL0     C64899  10.552   8.621  11.008 -0.1578 -0.3423 -0.0364
  471MOL0     C64900  10.606   8.617  10.858 -0.1642 -0.0673  0.3337
  471MOL0     C64901  10.694   8.743  10.835  0.0626  0.7050 -0.8101
  471MOL0     C64902  10.748   8.754  10.690 -0.2671 -0.4308 -1.2265
  471MOL0     C64903  10.866   8.655  10.660 -0.2530 -0.5485  0.9221
  471MOL0     C64904  10.890   8.684  10.503  0.0725  0.5345 -0.7113
  471MOL0    Cl64905  11.022   8.586  10.447 -0.2913  0.0750  0.0934
  471MOL0     C64906  10.050   8.396  11.033  0.9626 -0.2132 -0.4714
  471MOL0     C64907   9.917   8.384  10.990 -0.3348 -0.8945  0.3946
  471MOL0     O64908   9.733   8.573  10.811  0.5771 -0.1580 -0.4798
  471MOL0     C64909   9.620   8.428  10.547 -0.1197  0.0080 -0.2095
  471MOL0     C64910   9.512   8.429  10.457 -0.6149  0.0612  0.1493
  471MOL0     N64911   8.847   8.519  10.083  0.5325 -1.0845  0.0627
  471MOL0     N64912   8.729   8.459  10.092  0.0442 -0.5834  0.1712
  471MOL0     C64913   7.513   8.496   9.856  0.4560 -0.4792  0.3209
  471MOL0     C64914   7.406   8.464   9.772 -0.3524  0.7475 -0.2209
  471MOL0     C64915   7.118   8.253   9.519  0.1242 -0.2482  0.0990
  471MOL0     C64916   6.999   8.200   9.562  0.1129 -0.5150 -0.6734
  471MOL0     C64917   6.899   8.149   9.477 -0.3890 -0.0912  0.0933
  471MOL0     C64918   6.927   8.139   9.339  0.2390  0.1467  0.0747
  471MOL0     O64919   6.839   8.088   9.253  0.1207  1.0700 -0.1590
  471MOL0     C64920   6.699   8.071   9.295 -0.7855  0.0887 -0.2884
  471MOL0     C64921   6.606   8.009   9.199 -0.1234 -0.1512  0.1861
  471MOL0     C64922   6.675   7.896   9.127  0.4117 -0.1296  0.1504
  471MOL0     C64923   6.581   7.791   9.075  0.3291 -0.1348  0.4387
  471MOL0     C64924   6.654   7.699   8.991  0.7841  0.7406 -0.2308
  471MOL0     C64925   6.724   7.624   8.923 -0.2412  0.7770  0.1280
  471MOL0     C64926   7.049   8.188   9.290  1.1953  0.0562 -0.2026
  471MOL0     C64927   7.142   8.240   9.379  0.1630  0.4852  0.0649
  471MOL0     C64928   7.269   8.279   9.307  0.3583  0.3208 -0.1201
  471MOL0     H64929   7.573   8.280   9.540  1.7707  0.8393 -0.2466
  471MOL0     H64930   7.766   8.329   9.695 -0.7243 -0.8274 -0.8521
  471MOL0     H64931   7.707   8.296  10.042  0.2522 -0.1705  2.9936
  471MOL0     H64932   7.619   8.441  10.109  0.8527  1.5458  1.1629
  471MOL0     H64933   7.822   8.523  10.193 -0.3781  1.3264 -2.7632
  471MOL0     H64934   7.794   8.355  10.246  0.0302 -1.0487 -0.9606
  471MOL0     H64935   7.953   8.265  10.100 -1.9180 -0.9082 -1.3712
  471MOL0     H64936   7.966   8.427  10.015 -1.5966  0.5116  0.7720
  471MOL0     H64937   8.054   8.508  10.247 -0.3308 -0.1344  1.1143
  471MOL0     H64938   8.046   8.334  10.290  0.1716 -0.3401 -0.5649
  471MOL0     H64939   8.221   8.457  10.072  2.6496 -0.6496  0.4593
  471MOL0     H64940   8.201   8.285  10.099 -3.3508 -0.9815 -0.0372
  471MOL0     H64941   8.266   8.440  10.356 -1.6295  2.2666 -1.7076
  471MOL0     H64942   8.333   8.295  10.296 -1.6041 -1.0884  0.4136
  471MOL0     H64943   8.390   8.592  10.240  0.1139 -0.0278 -1.2895
  471MOL0     H64944   8.418   8.472  10.104  0.7520 -2.1345  0.1171
  471MOL0     H64945   8.540   8.471  10.386 -1.2138 -0.6081  0.6889
  471MOL0     H64946   8.558   8.338  10.264  1.3570  0.4689 -0.0810
  471MOL0     H64947   8.740   8.661  10.345  0.4135 -1.1868  0.0861
  471MOL0     H64948   8.927   8.787  10.253 -1.4712 -0.1433 -2.5713
  471MOL0     H64949   9.006   8.742  10.112 -0.1418  2.1214  0.6933
  471MOL0     H64950   9.172   8.721  10.299 -1.8095  2.5587  1.9720
  471MOL0     H64951   9.059   8.609  10.382 -2.0173  0.3293 -1.3133
  471MOL0     H64952   9.082   8.432  10.220  2.2677 -1.2132  0.1898
  471MOL0     H64953   9.188   8.532  10.117 -0.4804 -0.8738 -0.8776
  471MOL0     H64954   9.312   8.388  10.234 -4.2879 -1.4918  0.2189
  471MOL0     H64955   9.357   8.558  10.288  3.1302 -0.6577 -0.3683
  471MOL0     H64956   9.255   8.416  10.678 -0.3538 -0.6246  1.2481
  471MOL0     H64957   9.481   8.509  10.930  1.1004 -0.8702  0.9740
  471MOL0     H64958   9.430   8.351  10.930 -1.7060  0.8750  1.3022
  471MOL0     H64959   9.311   8.476  10.883 -0.0284 -0.2813  2.0904
  471MOL0     H64960   9.974   8.313  10.669 -3.4796 -0.7757  0.7372
  471MOL0     H64961  10.216   8.335  10.741  1.8780  1.8089  0.5771
  471MOL0     H64962  10.441   8.372  10.873 -0.7424 -0.6684  1.0843
  471MOL0     H64963  10.359   8.527  10.879  2.2702  0.6575 -1.2481
  471MOL0     H64964  10.432   8.509  11.138 -1.4137 -0.0608 -1.1302
  471MOL0     H64965  10.580   8.430  11.068  3.4234  4.1920  0.5942
  471MOL0     H64966  10.634   8.648  11.075  1.7059  2.9635 -3.2523
  471MOL0     H64967  10.476   8.698  11.022  0.3908  0.0516  0.8275
  471MOL0     H64968  10.531   8.613  10.779  2.1206 -1.4825 -1.9045
  471MOL0     H64969  10.657   8.521  10.852  2.3729  0.9843  2.9078
  471MOL0     H64970  10.622   8.820  10.862 -0.8704 -0.9718  1.9208
  471MOL0     H64971  10.779   8.748  10.904 -1.0519  2.2521  0.5405
  471MOL0     H64972  10.787   8.856  10.680  3.2662 -1.5285  0.0608
  471MOL0     H64973  10.665   8.742  10.619 -3.5398  2.0204  1.8608
  471MOL0     H64974  10.850   8.547  10.670 -0.0515 -0.7598 -0.6474
  471MOL0     H64975  10.955   8.688  10.713  0.3780  1.8076 -1.3719
  471MOL0     H64976  10.925   8.787  10.489 -0.8367  1.4211  2.7298
  471MOL0     H64977  10.798   8.659  10.449 -0.5777  0.8439  0.2414
  471MOL0     H64978  10.058   8.428  11.136 -0.3224  0.4067 -0.5545
  471MOL0     H64979   9.834   8.406  11.055 -1.5428 -1.3956 -0.9251
  471MOL0     H64980   9.724   8.429  10.516 -1.0404  0.8237 -3.6276
  471MOL0     H64981   9.526   8.408  10.351  0.9894 -1.5928  0.6270
  471MOL0     H64982   7.490   8.554   9.945  1.3650  1.7409 -0.7942
  471MOL0     H64983   7.308   8.498   9.804 -1.6522 -1.3133 -1.7574
  471MOL0     H64984   6.981   8.199   9.670  1.6647  2.2841 -0.3056
  471MOL0     H64985   6.809   8.116   9.527 -0.2418  0.3115  0.6384
  471MOL0     H64986   6.697   8.009   9.385  0.1191 -0.9904 -0.9825
  471MOL0     H64987   6.651   8.164   9.327  1.1088  0.7341  0.8401
  471MOL0     H64988   6.559   8.079   9.129 -1.0153  0.8914  1.7773
  471MOL0     H64989   6.518   7.971   9.252 -0.9139  0.2056 -0.8389
  471MOL0     H64990   6.736   7.934   9.044 -0.2646 -3.0112 -1.8289
  471MOL0     H64991   6.741   7.851   9.202 -1.2694  0.8021  2.2801
  471MOL0     H64992   6.501   7.833   9.015 -1.0186 -2.3777  0.5456
  471MOL0     H64993   6.539   7.728   9.155 -0.4325  1.7529  1.5927
  471MOL0     H64994   6.790   7.564   8.864  0.0453  4.2418 -3.4789
  471MOL0     H64995   7.076   8.192   9.185  0.4423  1.2775 -0.3793
  471MOL0     H64996   7.308   8.379   9.329  0.2600  1.0356 -2.8902
  471MOL0     H64997   7.358   8.224   9.340  1.5768  1.4672 -1.3203
  471MOL0     H64998   7.265   8.264   9.199  0.4558  2.2085 -0.4212
  472MOL0     O64999   4.830  10.720   6.648  0.4079 -0.0460 -0.1438
  472MOL0     C65000   4.835  10.812   6.566  0.1569 -1.2417  0.7007
  472MOL0     O65001   4.931  10.909   6.567 -0.6742 -0.1017 -0.2738
  472MOL0     C65002   5.035  10.900   6.660 -0.9137 -0.2632  0.2942
  472MOL0     C65003   5.008  10.938   6.791 -0.0291 -0.6589 -0.4153
  472MOL0     C65004   5.116  10.937   6.885  0.2175 -0.5578  0.1387
  472MOL0     C65005   5.247  10.904   6.847 -0.5362  0.0879 -0.5162
  472MOL0     O65006   5.358  10.904   6.934  0.0597  0.1390 -0.0802
  472MOL0     C65007   5.323  10.905   7.071 -0.2015 -0.1805  0.8531
  472MOL0     C65008   5.466  10.885   7.135 -0.6932  0.9170 -0.7385
  472MOL0     C65009   5.573  10.966   7.076 -0.8140 -0.1274  0.0562
  472MOL0     C65010   5.705  10.914   7.134  0.7591  0.2555 -0.3018
  472MOL0     C65011   5.818  10.975   7.062 -0.6637 -0.2834 -0.3566
  472MOL0     C65012   5.951  10.934   7.123 -0.6363  0.0594  0.5317
  472MOL0     C65013   6.062  10.991   7.035  0.3729 -0.7944  0.4753
  472MOL0     C65014   6.195  10.953   7.097 -0.5700  0.0659  0.0733
  472MOL0     N65015   6.311  10.986   7.011 -0.3400 -0.0499  0.7582
  472MOL0     C65016   6.447  10.967   7.045  0.2317  0.0201  0.9401
  472MOL0     C65017   6.515  11.044   6.961  0.0052 -1.0838 -0.3775
  472MOL0     C65018   6.666  11.054   6.959  0.2777  0.2841 -0.6732
  472MOL0     C65019   6.729  11.005   6.828  0.0261 -1.0461 -0.4976
  472MOL0     C65020   6.884  11.042   6.838  0.0811  0.7306  0.0842
  472MOL0     C65021   6.955  11.030   6.700 -0.7797 -0.2812 -1.5933
  472MOL0     O65022   6.950  10.890   6.657  0.0280  0.1468 -0.0922
  472MOL0     C65023   7.055  10.847   6.579  0.4889  0.4875 -0.1953
  472MOL0     C65024   7.193  10.901   6.587  0.8633 -0.3839  0.1297
  472MOL0     C65025   7.289  10.847   6.507 -0.1906 -0.4462  1.0031
  472MOL0     C65026   7.430  10.915   6.529  0.2425  0.2601  0.3872
  472MOL0     C65027   7.268  10.728   6.430  0.7237 -0.0160 -0.5571
  472MOL0     C65028   7.374  10.671   6.343 -0.2013 -0.4669 -0.8063
  472MOL0     O65029   7.342  10.547   6.286  0.0625  0.1676 -0.3601
  472MOL0     C65030   7.419  10.492   6.197  0.1539  0.1590 -0.1109
  472MOL0     C65031   7.409  10.518   6.057  0.2594 -0.6970  0.1818
  472MOL0     C65032   7.501  10.455   5.969 -0.0537 -0.2206  1.3375
  472MOL0     C65033   7.606  10.372   6.019 -0.1999  0.3087  0.2706
  472MOL0     O65034   7.702  10.332   5.931  0.3231  0.0664 -0.1289
  472MOL0     C65035   7.771  10.205   5.959  0.6068 -0.6009  0.1115
  472MOL0     C65036   7.828  10.144   5.827  0.2157 -0.3302 -0.9341
  472MOL0     C65037   7.919  10.025   5.860 -0.6330 -0.4210 -0.8126
  472MOL0     C65038   8.003   9.975   5.743 -0.9694  0.3610  0.4916
  472MOL0     C65039   8.113   9.880   5.794 -0.1910 -0.0812  0.7917
  472MOL0     C65040   8.197   9.810   5.689 -0.0358  0.0857 -0.1975
  472MOL0     C65041   8.319   9.731   5.754  0.9594  0.3601  0.0242
  472MOL0     C65042   8.402   9.661   5.643 -0.0344  0.0786 -0.5736
  472MOL0    Cl65043   8.292   9.534   5.558  0.0335  0.0191  0.0444
  472MOL0     C65044   7.609  10.352   6.161 -0.0990  0.1472  0.1599
  472MOL0     C65045   7.513  10.405   6.249 -1.3829  1.1503  0.0245
  472MOL0     O65046   7.479  10.730   6.327  0.4384 -0.0829  0.4494
  472MOL0     C65047   7.143  10.669   6.425 -0.0680  1.0998  0.1721
  472MOL0     C65048   7.041  10.732   6.500 -0.7280  0.7508 -0.0437
  472MOL0     N65049   6.417  11.105   6.874  0.2122  0.1492 -0.0821
  472MOL0     N65050   6.300  11.064   6.907 -0.5848  0.4315 -0.1439
  472MOL0     C65051   5.272  10.874   6.707 -0.3595 -0.1175 -0.4529
  472MOL0     C65052   5.167  10.879   6.616 -0.0615 -0.7099 -0.5385
  472MOL0     C65053   4.721  10.830   6.472 -0.7987  0.2252  0.0254
  472MOL0     C65054   4.724  10.946   6.389  0.4366 -0.3744 -0.2548
  472MOL0     C65055   4.627  10.964   6.295 -0.4136  0.6655  0.5078
  472MOL0     C65056   4.512  10.884   6.284 -0.1233  0.0141 -0.2260
  472MOL0     O65057   4.417  10.918   6.195 -0.1489 -0.4789  0.4999
  472MOL0     C65058   4.279  10.897   6.239 -0.0194 -0.2152  0.0895
  472MOL0     C65059   4.206  10.993   6.153  0.4375 -0.4186  0.5769
  472MOL0     C65060   4.060  10.963   6.146  0.6147  0.4268 -0.1096
  472MOL0     C65061   4.004  11.089   6.076 -0.0994  0.2482  0.0169
  472MOL0     C65062   3.874  11.051   6.011 -0.0395  0.0022  1.0013
  472MOL0     C65063   3.774  11.026   5.951  0.2762 -0.2949 -0.2300
  472MOL0     C65064   4.510  10.770   6.369 -0.2034 -0.2771 -0.0849
  472MOL0     C65065   4.607  10.742   6.460 -0.3503  0.4822  0.8567
  472MOL0     C65066   4.597  10.615   6.544  0.3702  0.5020 -0.0347
  472MOL0     H65067   4.913  10.954   6.840  0.9971 -0.6835  1.6797
  472MOL0     H65068   5.098  10.969   6.987  3.1761  1.8049  0.0597
  472MOL0     H65069   5.251  10.826   7.095 -0.4892 -0.6421 -1.3050
  472MOL0     H65070   5.282  11.001   7.103  0.0673  1.3714 -2.9696
  472MOL0     H65071   5.468  10.908   7.242  0.8812  0.9602 -0.7455
  472MOL0     H65072   5.496  10.780   7.129  0.9997  1.2821  0.3633
  472MOL0     H65073   5.568  10.943   6.969 -1.3030 -0.2237  0.0933
  472MOL0     H65074   5.553  11.073   7.087 -1.8732 -0.1925 -1.0124
  472MOL0     H65075   5.719  10.942   7.239 -2.3340 -1.8705  0.8013
  472MOL0     H65076   5.718  10.806   7.125 -0.4089  0.2081 -1.7938
  472MOL0     H65077   5.806  11.084   7.068  0.9570 -0.1573  1.2651
  472MOL0     H65078   5.821  10.951   6.955  2.2734 -3.1572  0.2153
  472MOL0     H65079   5.961  10.981   7.221  1.8905  3.1879 -1.0195
  472MOL0     H65080   5.960  10.825   7.124  1.1634  0.1681  1.1138
  472MOL0     H65081   6.057  11.100   7.023  1.1071 -0.8762 -0.6661
  472MOL0     H65082   6.062  10.960   6.931 -0.2431  0.7585 -0.0202
  472MOL0     H65083   6.207  10.999   7.195 -0.7280 -2.6186  1.4507
  472MOL0     H65084   6.198  10.845   7.113 -1.7757 -0.0864 -0.6188
  472MOL0     H65085   6.481  10.902   7.125  3.9917 -2.5025 -2.3089
  472MOL0     H65086   6.703  10.983   7.033 -1.1716 -1.5463 -1.6125
  472MOL0     H65087   6.697  11.154   6.990 -1.1023  0.0533  1.7059
  472MOL0     H65088   6.714  10.896   6.832  1.6279 -1.2824 -0.3293
  472MOL0     H65089   6.679  11.042   6.739 -0.3255 -1.6954 -0.5738
  472MOL0     H65090   6.876  11.150   6.857 -2.1039  0.4145  1.2816
  472MOL0     H65091   6.939  10.992   6.917 -0.7599  0.3626  0.4472
  472MOL0     H65092   6.908  11.097   6.628 -1.4598  0.0470 -0.8605
  472MOL0     H65093   7.052  11.071   6.730 -1.0597 -2.4899  3.4389
  472MOL0     H65094   7.225  10.987   6.644 -0.4602  0.0503  0.2382
  472MOL0     H65095   7.458  10.983   6.448  0.1424 -0.3952 -0.2000
  472MOL0     H65096   7.512  10.842   6.535  0.4837  0.3110 -1.6163
  472MOL0     H65097   7.441  10.977   6.619  2.1441  0.2422  0.2074
  472MOL0     H65098   7.341  10.592   6.016 -0.9608 -2.1812 -0.5694
  472MOL0     H65099   7.481  10.463   5.862  1.0903 -2.4265  0.8985
  472MOL0     H65100   7.851  10.217   6.032  0.5728  0.2263  0.0278
  472MOL0     H65101   7.706  10.124   5.995  3.1511 -3.9267 -2.1648
  472MOL0     H65102   7.746  10.108   5.764 -2.2279  1.6134  0.9269
  472MOL0     H65103   7.885  10.214   5.766  1.7793  0.3865  1.2156
  472MOL0     H65104   7.864   9.933   5.883  1.1264 -0.7604  2.7382
  472MOL0     H65105   7.989  10.051   5.940  0.5675 -1.8451 -1.3488
  472MOL0     H65106   8.046  10.064   5.696 -2.5590  1.5669  1.2119
  472MOL0     H65107   7.940   9.923   5.670  0.4465  0.4815 -0.8681
  472MOL0     H65108   8.182   9.948   5.844 -0.4988  0.3971  0.5664
  472MOL0     H65109   8.076   9.799   5.858  0.4976 -0.7223  0.3889
  472MOL0     H65110   8.223   9.885   5.614 -1.1304  0.5263 -0.1506
  472MOL0     H65111   8.131   9.751   5.624 -1.5071  0.5549  0.8304
  472MOL0     H65112   8.284   9.653   5.823  0.6973  1.0839  0.7282
  472MOL0     H65113   8.365   9.802   5.824 -3.7679  1.4208  2.4307
  472MOL0     H65114   8.492   9.610   5.678  1.0819  1.3219 -1.5087
  472MOL0     H65115   8.427   9.742   5.573  2.5122  0.3989  0.5730
  472MOL0     H65116   7.694  10.307   6.211  0.1785  0.0117 -0.4323
  472MOL0     H65117   7.531  10.378   6.353 -2.2249 -0.8486 -0.3040
  472MOL0     H65118   7.116  10.580   6.370 -3.1696  0.2573  2.7736
  472MOL0     H65119   6.948  10.677   6.490 -0.0433 -0.0460 -2.9316
  472MOL0     H65120   5.375  10.857   6.679 -0.4863 -2.4615  0.3155
  472MOL0     H65121   5.177  10.862   6.509 -1.0235 -1.3137 -0.5458
  472MOL0     H65122   4.813  11.008   6.394  0.9184 -1.0440 -0.4053
  472MOL0     H65123   4.624  11.052   6.232 -4.6344  0.0410 -0.5394
  472MOL0     H65124   4.241  10.796   6.225 -2.3861  0.2917  2.0924
  472MOL0     H65125   4.268  10.934   6.341  0.6708  2.1843 -0.6184
  472MOL0     H65126   4.244  10.989   6.050 -0.3663  2.0869  0.0931
  472MOL0     H65127   4.223  11.098   6.180 -2.1210  0.9071 -2.3746
  472MOL0     H65128   4.048  10.877   6.080  0.9892  2.3031 -2.7670
  472MOL0     H65129   4.015  10.937   6.242 -1.3216 -2.4354 -1.6415
  472MOL0     H65130   4.073  11.119   5.997 -2.1097  0.9334 -1.5991
  472MOL0     H65131   3.986  11.172   6.145 -1.7139  0.7967 -0.9951
  472MOL0     H65132   3.689  11.003   5.891  0.0105  0.1179 -0.0249
  472MOL0     H65133   4.421  10.709   6.369 -0.1826 -0.3135  0.4253
  472MOL0     H65134   4.626  10.618   6.649 -1.7460 -2.0294  0.7153
  472MOL0     H65135   4.492  10.587   6.536  0.4093  0.3676 -0.0620
  472MOL0     H65136   4.651  10.526   6.510 -1.0485 -0.2962 -0.2596
  473MOL0     O65137   0.721   0.525   9.883  0.3354 -0.9915  0.0331
  473MOL0     C65138   0.629   0.475   9.942  0.0391 -0.4400 -0.6758
  473MOL0     O65139   0.646   0.400  10.057 -0.0730  0.1175 -0.6939
  473MOL0     C65140   0.763   0.375  10.118 -0.1420 -0.0596 -0.2968
  473MOL0     C65141   0.877   0.456  10.120 -0.5207  0.4227  0.6089
  473MOL0     C65142   0.991   0.419  10.196 -1.2695 -0.0002  0.6565
  473MOL0     C65143   0.988   0.308  10.287 -1.2744  0.5533  0.1077
  473MOL0     O65144   1.112   0.286  10.355  1.2384 -0.1266 -0.2149
  473MOL0     C65145   1.162   0.158  10.327 -0.5333  0.4946  0.8795
  473MOL0     C65146   1.313   0.157  10.369 -0.0221 -0.5026  0.2100
  473MOL0     C65147   1.400   0.239  10.266  1.0617  0.8514  1.1112
  473MOL0     C65148   1.544   0.251  10.287 -0.0701 -0.7405  0.7984
  473MOL0     C65149   1.604   0.322  10.159  0.2683  0.8294  0.2730
  473MOL0     C65150   1.752   0.351  10.174 -0.7040 -0.0291 -0.2410
  473MOL0     C65151   1.781   0.443  10.043  0.7373 -0.3407 -0.3561
  473MOL0     C65152   1.723   0.583  10.043 -0.0246 -0.3492 -0.6592
  473MOL0     N65153   1.733   0.656  10.167 -0.7955 -0.1473  0.2406
  473MOL0     C65154   1.803   0.773  10.181 -0.5324 -0.0124 -0.0869
  473MOL0     C65155   1.799   0.806  10.313  0.6291  0.1688  0.8105
  473MOL0     C65156   1.871   0.921  10.369 -0.6417 -0.1192 -0.2872
  473MOL0     C65157   2.024   0.910  10.390  0.8239 -0.0387  0.0370
  473MOL0     C65158   2.061   0.805  10.493 -0.1986 -0.9021 -0.2899
  473MOL0     C65159   2.203   0.748  10.468 -0.5840 -0.4864 -0.4933
  473MOL0     O65160   2.310   0.845  10.488  0.0838  0.0238  0.4327
  473MOL0     C65161   2.436   0.809  10.456 -0.9103  0.0692  0.3978
  473MOL0     C65162   2.468   0.676  10.410 -0.1259  0.8253  1.1195
  473MOL0     C65163   2.591   0.642  10.369  0.3600 -0.3886 -0.1398
  473MOL0     C65164   2.624   0.496  10.372  0.1321 -0.3410  0.5612
  473MOL0     C65165   2.689   0.745  10.348 -0.0469 -0.5015 -0.5867
  473MOL0     C65166   2.820   0.722  10.279  0.1949  1.3876  1.2927
  473MOL0     O65167   2.920   0.821  10.296  0.4425 -0.1626  0.7137
  473MOL0     C65168   3.026   0.816  10.215 -0.1539 -0.8404 -0.0699
  473MOL0     C65169   3.147   0.839  10.271 -0.2084  1.0792 -0.9414
  473MOL0     C65170   3.270   0.840  10.198  0.1578  0.9112 -0.5298
  473MOL0     C65171   3.268   0.816  10.056  0.0441  0.3457  0.3977
  473MOL0     O65172   3.392   0.809  10.001 -0.2583  0.0513 -0.4516
  473MOL0     C65173   3.391   0.825   9.859 -0.5295  0.5181  0.3267
  473MOL0     C65174   3.530   0.839   9.810  0.8183  0.3339  0.6905
  473MOL0     C65175   3.525   0.847   9.658 -0.8012 -0.2026 -0.4213
  473MOL0     C65176   3.657   0.873   9.587 -0.0894  0.5185 -0.0474
  473MOL0     C65177   3.646   0.877   9.429 -0.3159  0.6399  0.1496
  473MOL0     C65178   3.783   0.906   9.374  0.0010 -0.7772 -0.6086
  473MOL0     C65179   3.781   0.928   9.226 -0.1332  0.1913 -0.2693
  473MOL0     C65180   3.921   0.887   9.162  0.4355 -0.1250 -0.5510
  473MOL0    Cl65181   4.052   1.007   9.195 -0.1102 -0.2208 -0.1067
  473MOL0     C65182   3.143   0.793   9.991 -0.1861 -0.3814  0.1345
  473MOL0     C65183   3.029   0.788  10.071  0.6872 -0.5664 -0.5126
  473MOL0     O65184   2.844   0.617  10.225 -0.0312 -0.0375  0.3726
  473MOL0     C65185   2.660   0.877  10.392 -0.4341  0.1163 -0.2695
  473MOL0     C65186   2.535   0.907  10.447 -0.2689  0.7468  0.0314
  473MOL0     N65187   1.708   0.718  10.380 -0.2906  0.4279  0.2336
  473MOL0     N65188   1.681   0.622  10.293  0.4449 -0.2123  0.2388
  473MOL0     C65189   0.862   0.237  10.287 -0.1673  0.3661 -0.2734
  473MOL0     C65190   0.752   0.263  10.199 -0.2423  0.3183 -0.8400
  473MOL0     C65191   0.497   0.470   9.885  0.2579 -0.3707 -0.2534
  473MOL0     C65192   0.392   0.446   9.977 -0.1369 -0.6552  0.2376
  473MOL0     C65193   0.261   0.446   9.947 -0.5370 -0.8899 -0.2490
  473MOL0     C65194   0.220   0.468   9.819  0.9044 -0.4917 -0.7262
  473MOL0     O65195   0.078   0.461   9.797 -0.5977  0.2266  0.2589
  473MOL0     C65196   0.035   0.481   9.668  0.2954 -0.9129  0.5360
  473MOL0     C65197  -0.120   0.465   9.667  0.8888  0.0452  0.3187
  473MOL0     C65198  -0.202   0.559   9.758  0.3797 -0.5558  0.0946
  473MOL0     C65199  -0.351   0.559   9.716  0.6103  0.2874 -0.1067
  473MOL0     C65200  -0.422   0.435   9.732 -0.2031 -0.7129  0.6763
  473MOL0     C65201  -0.469   0.323   9.739  0.3866  0.1866  0.2272
  473MOL0     C65202   0.321   0.486   9.723 -0.6560  1.0462  0.1047
  473MOL0     C65203   0.455   0.495   9.757  0.7400 -0.4436 -0.5014
  473MOL0     C65204   0.548   0.528   9.652 -0.0087  0.0443 -0.3766
  473MOL0     H65205   0.875   0.553  10.072  1.1784 -1.0663 -2.7569
  473MOL0     H65206   1.078   0.483  10.187  1.2029 -3.0214  1.4463
  473MOL0     H65207   1.152   0.140  10.219 -0.3957 -1.4766  1.1677
  473MOL0     H65208   1.099   0.091  10.386 -2.1992  2.7506  1.7856
  473MOL0     H65209   1.299   0.199  10.468 -3.0072 -1.4233  0.2771
  473MOL0     H65210   1.346   0.053  10.381  2.6961  0.1695 -0.5734
  473MOL0     H65211   1.388   0.196  10.167 -0.3139  1.6001  0.9281
  473MOL0     H65212   1.371   0.344  10.262  1.3669  1.0432  2.9456
  473MOL0     H65213   1.563   0.308  10.378  3.0871 -0.1022 -0.1316
  473MOL0     H65214   1.594   0.154  10.286  3.4964  0.9354  0.7739
  473MOL0     H65215   1.551   0.417  10.145 -3.7856 -1.2245  0.1891
  473MOL0     H65216   1.590   0.257  10.072  0.6258 -1.5069  1.8749
  473MOL0     H65217   1.775   0.407  10.266 -1.3098 -1.6808  0.9597
  473MOL0     H65218   1.826   0.270  10.168  0.3527  0.9124 -0.3944
  473MOL0     H65219   1.733   0.407   9.951 -1.7661 -1.5031  1.2938
  473MOL0     H65220   1.889   0.440  10.027  0.9945  1.3105  0.8607
  473MOL0     H65221   1.789   0.631   9.970 -0.9688 -0.2071 -1.4307
  473MOL0     H65222   1.623   0.575  10.000  0.1953 -3.0452 -0.8511
  473MOL0     H65223   1.864   0.822  10.106  2.2897  0.7738  2.4813
  473MOL0     H65224   1.823   0.934  10.467  0.2903 -3.4486  0.7801
  473MOL0     H65225   1.866   1.006  10.301  0.6968  0.8067  0.7014
  473MOL0     H65226   2.067   0.895  10.290 -0.3734 -0.1129 -0.4804
  473MOL0     H65227   2.065   1.005  10.425  0.9450 -0.3849  0.8458
  473MOL0     H65228   2.070   0.856  10.589  0.2329 -0.6147 -0.4749
  473MOL0     H65229   1.995   0.718  10.490 -1.2782 -0.1314  0.5057
  473MOL0     H65230   2.220   0.672  10.545  0.0962  0.1994  0.0443
  473MOL0     H65231   2.208   0.710  10.365 -4.1063 -0.2646 -0.8805
  473MOL0     H65232   2.402   0.590  10.411 -1.3085  1.5467 -2.1898
  473MOL0     H65233   2.728   0.472  10.394  0.2526 -2.0128 -1.5142
  473MOL0     H65234   2.591   0.449  10.279 -2.5944  0.3778  1.0702
  473MOL0     H65235   2.559   0.454  10.450 -2.4750  0.1799 -1.1811
  473MOL0     H65236   3.164   0.841  10.378  2.0308 -1.6037 -1.1280
  473MOL0     H65237   3.366   0.858  10.246 -0.1368 -2.0485  1.4316
  473MOL0     H65238   3.343   0.742   9.806  0.6421  0.1671 -0.2198
  473MOL0     H65239   3.344   0.922   9.840 -0.1289  0.4605 -1.0485
  473MOL0     H65240   3.568   0.932   9.851 -1.7350  1.5631  0.4944
  473MOL0     H65241   3.587   0.749   9.835  0.0172 -1.9588 -4.3934
  473MOL0     H65242   3.456   0.929   9.636  2.0061  3.3167  2.4455
  473MOL0     H65243   3.490   0.750   9.623  2.9586 -1.5675 -0.8492
  473MOL0     H65244   3.738   0.811   9.627 -0.5272 -0.2367 -0.3011
  473MOL0     H65245   3.686   0.971   9.624 -4.5969  0.9581  3.1915
  473MOL0     H65246   3.600   0.792   9.378  1.6737  0.6779 -1.8668
  473MOL0     H65247   3.583   0.962   9.402 -0.3418  0.3066 -0.9018
  473MOL0     H65248   3.843   0.823   9.413 -2.7867 -0.5511  5.3597
  473MOL0     H65249   3.832   0.994   9.418 -0.9011 -1.0811  1.1182
  473MOL0     H65250   3.771   1.037   9.217  2.1099  0.4692  0.1768
  473MOL0     H65251   3.706   0.880   9.162 -0.4005 -0.0714  0.2323
  473MOL0     H65252   3.912   0.891   9.053 -3.0686 -0.3696 -0.3743
  473MOL0     H65253   3.944   0.783   9.187  0.2367  0.1252  0.7692
  473MOL0     H65254   3.148   0.764   9.887 -1.3076 -3.5637  0.8534
  473MOL0     H65255   2.939   0.752  10.023 -0.5511  0.9453  0.5796
  473MOL0     H65256   2.729   0.959  10.373 -0.0565  0.4087  2.0929
  473MOL0     H65257   2.515   1.006  10.488  0.9115  0.6696  0.8227
  473MOL0     H65258   0.862   0.153  10.356  0.3386  0.9439  0.4464
  473MOL0     H65259   0.667   0.196  10.197  0.6235 -0.9466  1.2903
  473MOL0     H65260   0.413   0.438  10.083 -0.4052  2.5894  0.6199
  473MOL0     H65261   0.184   0.439  10.024 -0.3747  0.1945  0.0252
  473MOL0     H65262   0.063   0.574   9.619  1.4656 -1.7696 -0.4589
  473MOL0     H65263   0.081   0.400   9.611  0.3840 -1.2754  1.1142
  473MOL0     H65264  -0.138   0.361   9.698  1.9110 -0.2283  0.0446
  473MOL0     H65265  -0.163   0.470   9.567  0.4904 -0.8213  0.4374
  473MOL0     H65266  -0.196   0.521   9.860  1.1278  1.1673  0.7269
  473MOL0     H65267  -0.177   0.665   9.752 -1.8594  0.0121 -0.3651
  473MOL0     H65268  -0.363   0.594   9.613 -2.1813 -1.7253 -0.5882
  473MOL0     H65269  -0.407   0.624   9.784 -1.6298 -3.2005  1.6980
  473MOL0     H65270  -0.516   0.228   9.750 -1.4676  1.0059 -0.1988
  473MOL0     H65271   0.295   0.492   9.617  0.1867  0.3164 -0.1563
  473MOL0     H65272   0.592   0.628   9.656  0.3041 -0.1121  0.2120
  473MOL0     H65273   0.620   0.446   9.651 -1.6376 -1.5928  2.5246
  473MOL0     H65274   0.496   0.517   9.557  2.4759  0.6669 -1.9092
  474MOL0     O65275   0.887   6.669   1.138  0.1955  0.2695 -0.0523
  474MOL0     C65276   0.935   6.749   1.055  0.2606 -0.2032  0.6181
  474MOL0     O65277   1.069   6.784   1.041  0.0593  0.5083 -0.0614
  474MOL0     C65278   1.160   6.739   1.139 -0.6418 -0.4414 -0.2372
  474MOL0     C65279   1.245   6.630   1.109  0.0892  0.2187 -0.2045
  474MOL0     C65280   1.341   6.589   1.201  0.3794  0.5309  0.5978
  474MOL0     C65281   1.371   6.673   1.312  0.1593  0.0826 -0.0780
  474MOL0     O65282   1.476   6.626   1.391  0.3068 -0.1587 -0.3491
  474MOL0     C65283   1.521   6.690   1.512 -0.2393 -0.2973 -0.3531
  474MOL0     C65284   1.624   6.609   1.577  0.1141 -0.9809  0.2404
  474MOL0     C65285   1.754   6.605   1.504  0.4305 -1.2997  0.0796
  474MOL0     C65286   1.859   6.536   1.590 -0.6615 -0.9594  0.5327
  474MOL0     C65287   1.990   6.564   1.527 -1.3174 -0.0267 -0.4673
  474MOL0     C65288   2.017   6.491   1.389 -0.0898  0.3160 -0.1976
  474MOL0     C65289   2.023   6.344   1.408 -0.2744  0.3640  0.1896
  474MOL0     C65290   2.038   6.284   1.268 -0.3750 -0.1886  0.7063
  474MOL0     N65291   2.168   6.310   1.207 -0.3664 -0.2617 -0.1370
  474MOL0     C65292   2.195   6.353   1.080  0.5292  0.5485 -0.0076
  474MOL0     C65293   2.327   6.357   1.073 -0.9737  0.0705  0.5242
  474MOL0     C65294   2.423   6.423   0.976 -0.0824  0.8621 -0.1599
  474MOL0     C65295   2.499   6.538   1.045 -0.3623 -0.5900 -0.1487
  474MOL0     C65296   2.593   6.617   0.939  0.0391  0.2529 -0.5703
  474MOL0     C65297   2.734   6.582   0.946  0.4757  0.1505 -0.0515
  474MOL0     O65298   2.820   6.669   0.872  0.3490 -0.4059  0.2129
  474MOL0     C65299   2.952   6.618   0.860 -0.0741 -0.5252 -0.4021
  474MOL0     C65300   3.002   6.498   0.916  0.4811  0.0511  0.3808
  474MOL0     C65301   3.130   6.452   0.905 -0.2345 -0.4482 -0.2602
  474MOL0     C65302   3.157   6.319   0.969 -0.3908 -0.0855 -0.3584
  474MOL0     C65303   3.222   6.530   0.821  0.7311  0.7768  0.6949
  474MOL0     C65304   3.362   6.492   0.791 -0.6850 -0.1325  0.5679
  474MOL0     O65305   3.450   6.593   0.754 -0.6734 -0.0573  0.5058
  474MOL0     C65306   3.591   6.580   0.757  0.0343  0.7570 -0.5660
  474MOL0     C65307   3.659   6.475   0.824  0.0608 -0.2688  0.9936
  474MOL0     C65308   3.797   6.470   0.827  0.6273  0.2759  0.1501
  474MOL0     C65309   3.871   6.566   0.759  0.4218 -0.2996  0.0553
  474MOL0     O65310   4.007   6.554   0.761  0.3061 -0.3301  0.0438
  474MOL0     C65311   4.092   6.636   0.677  1.0467  0.2818  0.7884
  474MOL0     C65312   4.240   6.601   0.701 -0.6375  0.2145 -0.1944
  474MOL0     C65313   4.275   6.475   0.620 -0.5108 -1.1201  0.1361
  474MOL0     C65314   4.427   6.486   0.578  0.7012  0.0259  0.2523
  474MOL0     C65315   4.478   6.351   0.518  0.3681  0.5082  0.0448
  474MOL0     C65316   4.616   6.370   0.465  1.1594 -0.2888  0.9907
  474MOL0     C65317   4.676   6.242   0.411 -0.5070 -0.2173 -0.0523
  474MOL0     C65318   4.809   6.270   0.340 -0.2112 -0.6145  0.1145
  474MOL0    Cl65319   4.754   6.315   0.167 -0.3240  0.0735  0.1542
  474MOL0     C65320   3.800   6.658   0.679  0.5583  0.2721 -0.2678
  474MOL0     C65321   3.658   6.667   0.690 -0.5610  0.5374  0.1954
  474MOL0     O65322   3.379   6.375   0.769 -0.2930  0.2559  0.2389
  474MOL0     C65323   3.176   6.647   0.760 -0.7841 -0.1448 -0.2770
  474MOL0     C65324   3.045   6.689   0.782 -0.7253 -0.6367 -0.5321
  474MOL0     N65325   2.372   6.317   1.195  0.1543  0.7631 -0.0149
  474MOL0     N65326   2.284   6.296   1.274  0.7134  0.2661 -0.6784
  474MOL0     C65327   1.287   6.788   1.336 -0.4225  0.3202 -0.4765
  474MOL0     C65328   1.180   6.820   1.251 -0.0447  0.1537  0.1769
  474MOL0     C65329   0.847   6.808   0.959  0.1481  0.2824  0.0951
  474MOL0     C65330   0.856   6.945   0.937 -0.4190  0.3162  0.2805
  474MOL0     C65331   0.762   7.013   0.849 -0.1561 -0.3162 -0.0998
  474MOL0     C65332   0.660   6.938   0.788 -0.6379  0.2241 -1.2350
  474MOL0     O65333   0.583   7.017   0.706 -0.2080  0.7689 -0.4606
  474MOL0     C65334   0.452   6.975   0.669  0.1963  0.5788 -0.1074
  474MOL0     C65335   0.394   7.075   0.570 -0.0426  0.0839 -0.0894
  474MOL0     C65336   0.473   7.081   0.437  0.1187  0.5325 -0.0518
  474MOL0     C65337   0.499   6.952   0.364  0.0471  0.3252 -0.1429
  474MOL0     C65338   0.372   6.884   0.313  0.0702 -0.1185  0.0921
  474MOL0     C65339   0.282   6.847   0.248  0.6712 -0.0514  0.2772
  474MOL0     C65340   0.651   6.805   0.814  0.7333 -0.5493  0.6868
  474MOL0     C65341   0.743   6.737   0.890  0.3700  0.4739  0.2411
  474MOL0     C65342   0.735   6.587   0.896  0.6851 -0.3935  0.3769
  474MOL0     H65343   1.231   6.579   1.014  0.6396  1.6212 -1.0697
  474MOL0     H65344   1.399   6.500   1.179  3.7218  2.2937  1.4835
  474MOL0     H65345   1.442   6.703   1.587  1.2659  2.3587  0.9675
  474MOL0     H65346   1.563   6.789   1.489 -0.3230 -0.2545 -0.3233
  474MOL0     H65347   1.651   6.658   1.671  1.3747  1.1549 -1.1354
  474MOL0     H65348   1.590   6.513   1.616 -1.1323 -0.3597  0.7130
  474MOL0     H65349   1.738   6.559   1.406 -0.3699  1.8211 -1.3745
  474MOL0     H65350   1.785   6.708   1.483  2.7665 -2.4249 -2.6346
  474MOL0     H65351   1.856   6.557   1.697  0.8331 -2.5429  0.9422
  474MOL0     H65352   1.835   6.430   1.577  0.5348 -1.1313 -0.4551
  474MOL0     H65353   2.066   6.536   1.601  0.8765  1.8076 -1.9153
  474MOL0     H65354   2.012   6.670   1.518 -1.2212  0.3085  2.5961
  474MOL0     H65355   1.929   6.502   1.326 -1.7730  2.2345  2.2851
  474MOL0     H65356   2.102   6.528   1.332  0.7333  1.1011  1.4465
  474MOL0     H65357   1.934   6.303   1.456  0.0246 -1.2308 -0.5638
  474MOL0     H65358   2.106   6.308   1.469 -1.2590 -1.5292  0.4741
  474MOL0     H65359   2.021   6.175   1.270 -0.3657 -0.1862  1.6888
  474MOL0     H65360   1.968   6.331   1.198 -0.6377 -1.6617 -0.0656
  474MOL0     H65361   2.127   6.390   1.005  0.7266 -0.4727 -0.7113
  474MOL0     H65362   2.363   6.468   0.896 -1.1062  1.3468  0.8527
  474MOL0     H65363   2.492   6.350   0.932 -1.4419 -0.6989  0.2130
  474MOL0     H65364   2.429   6.612   1.086 -0.2256  1.0720 -2.7154
  474MOL0     H65365   2.562   6.501   1.127 -0.4106 -1.6308 -0.5616
  474MOL0     H65366   2.559   6.618   0.836  2.3316 -0.2840 -1.3920
  474MOL0     H65367   2.610   6.719   0.976  0.9411 -0.1653  0.2284
  474MOL0     H65368   2.773   6.569   1.048  0.6109 -0.0788 -0.1315
  474MOL0     H65369   2.741   6.481   0.904  1.4970  0.3106 -0.2955
  474MOL0     H65370   2.934   6.440   0.978 -2.6132  0.7202 -2.1429
  474MOL0     H65371   3.179   6.252   0.885 -2.2915  1.1437 -1.9272
  474MOL0     H65372   3.072   6.276   1.023 -1.2125 -0.3166 -1.7891
  474MOL0     H65373   3.245   6.336   1.032 -1.3651 -0.4259  1.1593
  474MOL0     H65374   3.597   6.418   0.893 -2.4710  0.6067 -0.4264
  474MOL0     H65375   3.847   6.393   0.885  0.5619  0.5694  0.5976
  474MOL0     H65376   4.066   6.618   0.572 -1.4674  2.0556  1.0135
  474MOL0     H65377   4.082   6.743   0.701  0.8530  0.1826  1.1685
  474MOL0     H65378   4.305   6.687   0.682  0.4611 -0.4097  0.6701
  474MOL0     H65379   4.256   6.587   0.808  2.4745  3.1139 -0.1015
  474MOL0     H65380   4.209   6.469   0.533 -1.0897 -1.0389  0.5640
  474MOL0     H65381   4.249   6.384   0.675 -2.8741  0.1444  1.2855
  474MOL0     H65382   4.484   6.523   0.664  2.2601  1.9442 -1.4752
  474MOL0     H65383   4.438   6.570   0.508 -0.1286  1.2374  1.5138
  474MOL0     H65384   4.470   6.271   0.593 -0.6368  0.8958  0.3754
  474MOL0     H65385   4.411   6.312   0.442 -3.1897 -1.5700  3.8147
  474MOL0     H65386   4.678   6.412   0.544  1.6134  1.7660 -0.3671
  474MOL0     H65387   4.612   6.446   0.386 -0.3400 -1.4646 -0.1228
  474MOL0     H65388   4.597   6.198   0.349 -0.9140  1.7372 -1.0235
  474MOL0     H65389   4.703   6.191   0.504 -0.1382  0.5776  0.2897
  474MOL0     H65390   4.877   6.185   0.341 -0.8899 -1.1622  0.7670
  474MOL0     H65391   4.855   6.353   0.394 -0.0614 -0.3610 -0.3960
  474MOL0     H65392   3.855   6.730   0.619  2.2551 -0.2859  0.5679
  474MOL0     H65393   3.604   6.744   0.636 -1.4080 -0.7385 -0.8440
  474MOL0     H65394   3.234   6.709   0.692  1.5596 -0.6619  1.1383
  474MOL0     H65395   3.007   6.781   0.739 -1.7747  0.1493  1.8997
  474MOL0     H65396   1.302   6.844   1.428 -0.6513  0.7812 -0.7149
  474MOL0     H65397   1.114   6.903   1.274  0.7602  0.1284  2.9962
  474MOL0     H65398   0.932   7.005   0.985  1.6794  0.9562 -3.4244
  474MOL0     H65399   0.762   7.119   0.826 -2.4263 -0.3263 -0.4019
  474MOL0     H65400   0.450   6.877   0.620 -0.2599  1.0906 -1.1512
  474MOL0     H65401   0.379   6.980   0.750 -2.0049 -0.6826 -1.8704
  474MOL0     H65402   0.406   7.172   0.621  1.7218 -0.7430  1.2029
  474MOL0     H65403   0.290   7.064   0.541 -0.3435  1.2280  0.4784
  474MOL0     H65404   0.419   7.160   0.383  1.6596  1.6950  0.0399
  474MOL0     H65405   0.571   7.125   0.454  0.0602  1.8422 -2.5965
  474MOL0     H65406   0.567   6.897   0.429 -1.0606  0.6925  1.3584
  474MOL0     H65407   0.545   6.973   0.267 -2.4266 -1.6320 -1.8715
  474MOL0     H65408   0.201   6.814   0.186  1.8531  0.6627 -1.7707
  474MOL0     H65409   0.577   6.747   0.759  1.0231  0.5996 -1.0003
  474MOL0     H65410   0.837   6.549   0.901  1.1696  0.0672 -3.0816
  474MOL0     H65411   0.666   6.557   0.976 -1.6870  4.2860  0.4419
  474MOL0     H65412   0.695   6.549   0.801 -0.6161  3.2615 -0.7217
  475MOL0     O65413   5.102   3.277   6.752  0.6830 -0.7396 -0.1163
  475MOL0     C65414   5.052   3.338   6.648 -0.8048 -0.0519 -0.3359
  475MOL0     O65415   5.115   3.345   6.527 -0.1653  0.6464 -0.1252
  475MOL0     C65416   5.232   3.275   6.516  0.2907 -0.2869 -0.4227
  475MOL0     C65417   5.244   3.140   6.513 -0.0085 -0.1303  0.2423
  475MOL0     C65418   5.371   3.073   6.506  0.5465 -0.9466 -0.0844
  475MOL0     C65419   5.485   3.148   6.487 -0.4426 -0.0026 -1.1189
  475MOL0     O65420   5.604   3.081   6.471  0.9202  0.1514  0.2890
  475MOL0     C65421   5.722   3.154   6.416  0.3637 -0.2854 -0.2342
  475MOL0     C65422   5.840   3.051   6.407  0.0754 -0.0074 -0.1187
  475MOL0     C65423   5.969   3.127   6.370  0.1521  0.7467  0.1313
  475MOL0     C65424   6.089   3.033   6.379  0.6308  0.2562 -0.3602
  475MOL0     C65425   6.233   3.088   6.363 -0.4974  0.3665  0.0490
  475MOL0     C65426   6.321   2.970   6.309  0.2301  0.2238  0.0157
  475MOL0     C65427   6.469   3.013   6.318 -0.0342  0.2629 -0.6747
  475MOL0     C65428   6.559   2.922   6.240  0.1705 -0.6986 -0.5703
  475MOL0     N65429   6.696   2.965   6.242 -0.3421 -0.2154  0.1570
  475MOL0     C65430   6.801   2.880   6.235  0.3428 -0.3766 -0.7578
  475MOL0     C65431   6.916   2.955   6.257  0.6486 -0.4750  0.1852
  475MOL0     C65432   7.061   2.900   6.261  0.0604  0.4430 -0.7100
  475MOL0     C65433   7.138   2.909   6.127  0.7353  0.2691  0.3187
  475MOL0     C65434   7.215   3.044   6.113 -0.8068  0.1480 -0.3304
  475MOL0     C65435   7.368   3.018   6.107  0.5775  0.0924  0.0036
  475MOL0     O65436   7.441   3.142   6.097 -0.5522 -0.0284 -0.4565
  475MOL0     C65437   7.578   3.144   6.109  0.3420  0.5549 -0.1060
  475MOL0     C65438   7.658   3.042   6.149  0.1833  0.2885 -0.2205
  475MOL0     C65439   7.800   3.053   6.159  0.8618 -0.2000  0.7121
  475MOL0     C65440   7.872   2.927   6.196  0.4423  0.0714 -0.6505
  475MOL0     C65441   7.855   3.177   6.134 -0.7128  0.0122 -0.4843
  475MOL0     C65442   7.995   3.210   6.165 -0.1329 -0.9187 -0.0829
  475MOL0     O65443   8.048   3.187   6.295  0.2413 -1.0022  0.8142
  475MOL0     C65444   8.171   3.229   6.318 -0.9948 -0.2209 -0.7806
  475MOL0     C65445   8.281   3.186   6.236  0.6290  0.1741 -0.5534
  475MOL0     C65446   8.413   3.225   6.258 -0.3951  0.0430 -0.5831
  475MOL0     C65447   8.444   3.323   6.360  0.9339 -0.2618 -0.4387
  475MOL0     O65448   8.572   3.332   6.402 -0.0418 -0.8811 -0.7614
  475MOL0     C65449   8.612   3.437   6.492 -0.4914  0.5110  0.0207
  475MOL0     C65450   8.757   3.412   6.525  0.6818  0.2391 -0.3886
  475MOL0     C65451   8.846   3.457   6.411 -0.1868 -0.5073  0.6577
  475MOL0     C65452   8.983   3.422   6.455 -0.3317 -0.5482 -0.9077
  475MOL0     C65453   9.095   3.459   6.354  0.2766  0.2829  0.5797
  475MOL0     C65454   9.227   3.413   6.403 -0.5067 -0.0893 -0.1331
  475MOL0     C65455   9.345   3.450   6.315  0.2779 -0.1535 -0.1696
  475MOL0     C65456   9.481   3.403   6.363 -0.0451 -0.5200  0.2935
  475MOL0    Cl65457   9.501   3.231   6.360  0.0136  0.1515  0.2016
  475MOL0     C65458   8.333   3.389   6.421 -0.4150  0.7081  0.1374
  475MOL0     C65459   8.200   3.333   6.407 -0.6076  0.3430 -0.1690
  475MOL0     O65460   8.055   3.263   6.072 -0.3620  0.1059  0.5767
  475MOL0     C65461   7.774   3.285   6.102 -0.9018 -0.0542 -0.5029
  475MOL0     C65462   7.636   3.266   6.081 -0.3861  1.0743  0.2267
  475MOL0     N65463   6.869   3.087   6.282  0.4337  0.1513  0.0895
  475MOL0     N65464   6.740   3.093   6.269 -0.1604  0.7592 -0.3104
  475MOL0     C65465   5.472   3.289   6.491 -0.6035  0.4898 -1.4669
  475MOL0     C65466   5.351   3.352   6.501 -0.7289 -0.1842  0.2088
  475MOL0     C65467   4.910   3.385   6.655  0.6720  0.3658  0.5309
  475MOL0     C65468   4.840   3.355   6.779  0.0200  0.2305 -0.4883
  475MOL0     C65469   4.709   3.379   6.802  0.4546  0.4900 -0.2114
  475MOL0     C65470   4.631   3.417   6.693  0.4097  0.4607 -0.4828
  475MOL0     O65471   4.497   3.422   6.718 -0.4608 -0.5888  0.5784
  475MOL0     C65472   4.411   3.491   6.629  0.2114 -0.0950  0.6415
  475MOL0     C65473   4.276   3.482   6.685 -1.0497  0.0043  0.5800
  475MOL0     C65474   4.236   3.342   6.687  0.8223  0.7203  0.0049
  475MOL0     C65475   4.100   3.314   6.757 -0.2315  0.8411 -0.3681
  475MOL0     C65476   3.989   3.388   6.694  0.5746  0.6221 -0.2125
  475MOL0     C65477   3.881   3.437   6.648 -0.1207  0.4630  0.3180
  475MOL0     C65478   4.688   3.441   6.567  0.7822  0.3845  0.1090
  475MOL0     C65479   4.821   3.433   6.549 -0.2219  0.1723 -0.6269
  475MOL0     C65480   4.873   3.449   6.411 -0.3469  0.1424 -0.4293
  475MOL0     H65481   5.159   3.074   6.526 -1.2173  1.2148 -0.4885
  475MOL0     H65482   5.384   2.966   6.499  2.3972 -0.6992 -1.1997
  475MOL0     H65483   5.763   3.224   6.490 -0.1804  2.5888 -2.4655
  475MOL0     H65484   5.699   3.203   6.322  2.6649 -0.6226 -1.0457
  475MOL0     H65485   5.845   3.013   6.509 -0.0670 -0.3802 -0.2454
  475MOL0     H65486   5.812   2.977   6.330  2.3605  2.2399 -3.4013
  475MOL0     H65487   5.954   3.163   6.268 -1.0079 -0.5020 -0.1622
  475MOL0     H65488   5.975   3.209   6.442  1.0850 -1.2734  2.5158
  475MOL0     H65489   6.079   2.980   6.474  0.5691  3.0224  1.2637
  475MOL0     H65490   6.073   2.954   6.304 -2.1575 -1.0225  1.4049
  475MOL0     H65491   6.279   3.137   6.450  1.1399 -0.7476 -0.1320
  475MOL0     H65492   6.233   3.158   6.279 -0.1588  1.6739  1.0889
  475MOL0     H65493   6.290   2.876   6.355 -0.2129  0.2096 -0.2987
  475MOL0     H65494   6.299   2.945   6.204 -0.2097  0.4085  0.0631
  475MOL0     H65495   6.491   3.015   6.425 -1.5683  2.6974 -0.3170
  475MOL0     H65496   6.484   3.120   6.295  3.6949  1.1161  4.1614
  475MOL0     H65497   6.542   2.827   6.292  0.9369  0.4181  1.8841
  475MOL0     H65498   6.525   2.916   6.136  0.7575  1.2058 -0.9092
  475MOL0     H65499   6.799   2.771   6.228 -1.0976 -0.5329  1.2145
  475MOL0     H65500   7.067   2.794   6.287  1.5718  0.6213 -0.2524
  475MOL0     H65501   7.118   2.955   6.336 -1.7312  2.0886 -0.4973
  475MOL0     H65502   7.207   2.825   6.113 -0.6518 -0.4942 -3.2931
  475MOL0     H65503   7.058   2.908   6.052 -0.2576  0.0578  1.3556
  475MOL0     H65504   7.183   3.083   6.016 -1.1973 -1.1984 -0.7618
  475MOL0     H65505   7.176   3.108   6.192 -0.8732  1.1799 -1.1817
  475MOL0     H65506   7.397   2.964   6.198  0.4795  2.3088  1.4368
  475MOL0     H65507   7.386   2.960   6.016 -1.7388 -1.2741  0.3386
  475MOL0     H65508   7.617   2.943   6.167  0.5502  0.4646  1.7662
  475MOL0     H65509   7.866   2.928   6.305  1.2010  3.7365 -0.5221
  475MOL0     H65510   7.973   2.936   6.154  1.1312  3.4618  1.3653
  475MOL0     H65511   7.812   2.841   6.165 -0.1331  0.4667 -0.6415
  475MOL0     H65512   8.268   3.098   6.174 -0.5885  1.4961 -2.2422
  475MOL0     H65513   8.496   3.175   6.209  0.7836  0.5995  0.7790
  475MOL0     H65514   8.604   3.534   6.441  2.3238  1.2157  0.7303
  475MOL0     H65515   8.544   3.439   6.577 -1.4623 -0.0715 -0.7295
  475MOL0     H65516   8.777   3.466   6.618  3.0855  0.5900 -1.0256
  475MOL0     H65517   8.766   3.305   6.544  1.1740  0.3054 -0.2258
  475MOL0     H65518   8.842   3.564   6.386  0.6190  0.5919  4.4594
  475MOL0     H65519   8.823   3.386   6.331  3.2631 -1.2533  0.1700
  475MOL0     H65520   8.998   3.315   6.472 -1.3998 -0.8205 -1.6206
  475MOL0     H65521   9.025   3.473   6.543  0.4776 -1.4046 -0.7789
  475MOL0     H65522   9.074   3.414   6.257 -0.0697  1.9837 -0.1609
  475MOL0     H65523   9.100   3.567   6.335 -3.1001  0.4336  0.0948
  475MOL0     H65524   9.222   3.304   6.416 -3.4662  0.1101  1.2711
  475MOL0     H65525   9.244   3.459   6.501  1.7988  0.6378 -0.8131
  475MOL0     H65526   9.355   3.558   6.301  1.8543 -0.2562 -0.1072
  475MOL0     H65527   9.330   3.407   6.216  1.5641 -3.9501  1.1222
  475MOL0     H65528   9.500   3.442   6.464  4.4667 -3.2269  0.7782
  475MOL0     H65529   9.554   3.443   6.292 -1.7558  0.7592 -0.8227
  475MOL0     H65530   8.342   3.483   6.475 -3.1158  0.4605  1.1993
  475MOL0     H65531   8.116   3.375   6.461 -0.0426 -0.2507  1.2019
  475MOL0     H65532   7.822   3.383   6.101 -1.4544  0.2898  1.9231
  475MOL0     H65533   7.578   3.355   6.057  1.6303  1.9997 -1.5090
  475MOL0     H65534   5.561   3.351   6.489 -1.7326  2.2739  0.1997
  475MOL0     H65535   5.344   3.460   6.506 -1.6634 -0.0941 -1.9088
  475MOL0     H65536   4.893   3.307   6.861 -1.9278  1.2847  1.5079
  475MOL0     H65537   4.660   3.358   6.897  0.0701 -0.3651 -0.5905
  475MOL0     H65538   4.441   3.596   6.618 -2.4327  0.6689 -0.3270
  475MOL0     H65539   4.419   3.439   6.533 -2.0425 -0.9343  0.8545
  475MOL0     H65540   4.206   3.541   6.624  1.7895  1.3960 -1.6001
  475MOL0     H65541   4.279   3.529   6.783  2.9985  4.0444 -1.1229
  475MOL0     H65542   4.231   3.310   6.582  1.7831  1.2460 -0.2125
  475MOL0     H65543   4.307   3.276   6.739 -0.5817 -0.4664  0.4869
  475MOL0     H65544   4.102   3.334   6.864 -0.7125  0.7404 -0.3371
  475MOL0     H65545   4.072   3.209   6.754 -1.8104  1.1919  0.9383
  475MOL0     H65546   3.787   3.475   6.615 -0.8885  0.9359  2.8290
  475MOL0     H65547   4.620   3.457   6.484  0.7806 -1.2947 -0.2465
  475MOL0     H65548   4.795   3.487   6.344 -0.7937 -0.2633 -0.1427
  475MOL0     H65549   4.961   3.514   6.412  0.3549 -0.7382  1.7975
  475MOL0     H65550   4.897   3.352   6.367 -0.3610  0.4498 -1.1303
  476MOL0     O65551   7.965   7.667   9.490  0.0474  0.1547  0.3386
  476MOL0     C65552   7.866   7.622   9.435  0.4697  0.1545 -0.5054
  476MOL0     O65553   7.768   7.554   9.499 -0.3561  0.4821 -0.0414
  476MOL0     C65554   7.806   7.492   9.617  1.1629 -0.1304  0.6700
  476MOL0     C65555   7.918   7.400   9.629 -0.4462 -0.9817  0.3402
  476MOL0     C65556   7.966   7.371   9.750 -1.2316 -0.1343 -0.0759
  476MOL0     C65557   7.913   7.412   9.875 -0.0912 -0.2770 -0.1820
  476MOL0     O65558   7.976   7.391   9.999  0.4168  0.1584  0.5695
  476MOL0     C65559   7.929   7.446  10.124  1.1244  0.4002 -0.7940
  476MOL0     C65560   8.017   7.420  10.251  0.7961  0.2203 -0.0420
  476MOL0     C65561   8.156   7.474  10.246 -0.8662  1.2742 -0.4930
  476MOL0     C65562   8.260   7.414  10.155  0.5843  0.3042 -0.1538
  476MOL0     C65563   8.413   7.448  10.189  0.3061  0.3065 -0.2488
  476MOL0     C65564   8.456   7.594  10.171  0.2894  0.1035 -0.3920
  476MOL0     C65565   8.606   7.600  10.192 -0.6372 -0.7722 -0.2624
  476MOL0     C65566   8.647   7.602  10.334  0.2231 -0.5780  0.0887
  476MOL0     N65567   8.796   7.581  10.351  0.2380  0.1323 -0.3041
  476MOL0     C65568   8.880   7.489  10.286  0.6674  0.8418  0.5189
  476MOL0     C65569   9.004   7.514  10.320 -0.8656  0.4725 -0.1543
  476MOL0     C65570   9.120   7.437  10.255 -0.9286 -0.4797 -1.0891
  476MOL0     C65571   9.251   7.444  10.332  0.3100  0.2308 -1.2155
  476MOL0     C65572   9.382   7.411  10.252  0.4502 -0.1893  1.0022
  476MOL0     C65573   9.498   7.378  10.347  1.4509 -0.1135 -0.1162
  476MOL0     O65574   9.567   7.485  10.417 -0.5401 -0.6495  0.1828
  476MOL0     C65575   9.674   7.452  10.500  0.4341  0.4943  0.7872
  476MOL0     C65576   9.735   7.321  10.501 -0.0548 -0.0400  0.4938
  476MOL0     C65577   9.851   7.297  10.571 -0.8534  0.0709  0.1823
  476MOL0     C65578   9.893   7.157  10.560  0.6863 -0.0382 -0.7719
  476MOL0     C65579   9.930   7.402  10.633  0.0293 -0.1693 -0.0111
  476MOL0     C65580  10.058   7.387  10.706 -0.0359  0.5298 -0.4284
  476MOL0     O65581  10.100   7.498  10.772 -0.7895 -0.5507 -0.0260
  476MOL0     C65582  10.222   7.505  10.821 -0.1839  0.0681 -0.2802
  476MOL0     C65583  10.237   7.467  10.955  0.3501  0.0583 -0.5275
  476MOL0     C65584  10.361   7.471  11.016  0.8157  0.1732  0.6033
  476MOL0     C65585  10.475   7.492  10.937 -0.5071  0.0159  0.3773
  476MOL0     O65586  10.596   7.484  10.993  0.0135 -0.5344  0.0256
  476MOL0     C65587  10.690   7.601  10.974 -0.6892 -0.1689 -0.3451
  476MOL0     C65588  10.836   7.569  11.036 -0.2297  0.6905  0.4325
  476MOL0     C65589  10.945   7.572  10.917 -0.1464 -0.3184  0.3796
  476MOL0     C65590  11.088   7.524  10.963 -0.5745  0.1203 -0.0753
  476MOL0     C65591  11.187   7.538  10.845  0.4400  0.2328 -0.3183
  476MOL0     C65592  11.327   7.495  10.892 -0.5666  0.4939  0.1233
  476MOL0     C65593  11.434   7.564  10.803  0.0561 -0.2810 -1.2217
  476MOL0     C65594  11.579   7.523  10.826 -0.1493 -0.9405 -0.4107
  476MOL0    Cl65595  11.605   7.350  10.790 -0.1688  0.0854  0.3510
  476MOL0     C65596  10.461   7.533  10.805  0.3739  0.3027  1.0885
  476MOL0     C65597  10.337   7.529  10.747  0.4187 -0.2068 -0.0943
  476MOL0     O65598  10.118   7.283  10.696  0.5780  0.6645  0.3640
  476MOL0     C65599   9.859   7.527  10.642  0.0646 -0.6971  0.4401
  476MOL0     C65600   9.744   7.557  10.573  0.3140  0.7706  0.3542
  476MOL0     N65601   9.006   7.611  10.415 -0.3747 -1.1164  0.5352
  476MOL0     N65602   8.886   7.664  10.418 -0.0157  0.6108  0.2719
  476MOL0     C65603   7.797   7.496   9.863  0.1518 -0.1303  0.7815
  476MOL0     C65604   7.751   7.538   9.738  0.3086  0.5374 -0.2500
  476MOL0     C65605   7.844   7.656   9.294 -0.2684  0.7959  0.5385
  476MOL0     C65606   7.709   7.677   9.253  0.4749  0.0367  0.3477
  476MOL0     C65607   7.666   7.686   9.123 -0.0307  0.1434  1.0522
  476MOL0     C65608   7.761   7.679   9.017 -0.2264  0.7830 -0.0874
  476MOL0     O65609   7.707   7.686   8.890 -0.8407 -0.1470 -0.3861
  476MOL0     C65610   7.793   7.668   8.782 -0.8154 -0.0320 -0.1420
  476MOL0     C65611   7.716   7.656   8.651 -0.1110 -0.3316 -0.7622
  476MOL0     C65612   7.633   7.527   8.650  0.0303 -0.4771  0.1217
  476MOL0     C65613   7.497   7.547   8.562  0.1230  0.3431  0.0777
  476MOL0     C65614   7.524   7.531   8.424  0.0781  0.7845  0.0002
  476MOL0     C65615   7.542   7.494   8.307 -0.2174 -0.0453  0.0219
  476MOL0     C65616   7.893   7.660   9.053  0.9021  0.3734  0.5297
  476MOL0     C65617   7.938   7.654   9.188 -0.5574  0.8426 -0.0672
  476MOL0     C65618   8.086   7.629   9.204 -1.0704  0.2121  0.3876
  476MOL0     H65619   7.970   7.369   9.539  0.7246 -0.6741  0.8904
  476MOL0     H65620   8.049   7.308   9.778 -1.0890  0.8818  1.9816
  476MOL0     H65621   7.828   7.404  10.138  0.6520  0.8961 -2.5072
  476MOL0     H65622   7.907   7.552  10.116 -4.0496 -0.4105 -0.9967
  476MOL0     H65623   7.968   7.463  10.339 -2.4547  0.4482 -1.8145
  476MOL0     H65624   8.019   7.311  10.262  1.5188  0.3263  1.0287
  476MOL0     H65625   8.151   7.579  10.217 -0.0927  1.2322 -0.7937
  476MOL0     H65626   8.193   7.464  10.349 -0.7122 -3.8029 -0.7623
  476MOL0     H65627   8.240   7.307  10.168  0.5730  0.2069 -0.9534
  476MOL0     H65628   8.224   7.443  10.056  0.1927  3.9425  0.9247
  476MOL0     H65629   8.474   7.385  10.124 -2.3284 -1.8656 -0.8174
  476MOL0     H65630   8.415   7.419  10.294 -3.8226  1.2163  0.2759
  476MOL0     H65631   8.420   7.627  10.073 -1.3641  0.5428  0.3373
  476MOL0     H65632   8.401   7.652  10.246 -0.1848  1.0107 -1.4215
  476MOL0     H65633   8.641   7.689  10.139 -0.8647 -1.3552 -1.4353
  476MOL0     H65634   8.664   7.526  10.135  0.4556  0.9919 -1.5383
  476MOL0     H65635   8.617   7.700  10.372  1.2169 -0.1013 -0.3171
  476MOL0     H65636   8.589   7.531  10.394  0.2442  1.2335  2.4001
  476MOL0     H65637   8.857   7.408  10.217  0.9038  1.2579 -0.0496
  476MOL0     H65638   9.129   7.477  10.153  0.6411 -2.5674 -1.8378
  476MOL0     H65639   9.095   7.331  10.245  2.1058 -1.3693 -0.3387
  476MOL0     H65640   9.247   7.541  10.382 -1.6156 -1.4208  2.1412
  476MOL0     H65641   9.234   7.374  10.414 -1.5925 -0.9789 -2.5443
  476MOL0     H65642   9.368   7.326  10.184  3.3574  0.5882 -0.7485
  476MOL0     H65643   9.413   7.494  10.188  2.0886 -1.9073 -0.5588
  476MOL0     H65644   9.461   7.305  10.419 -2.1596  0.6395 -1.0289
  476MOL0     H65645   9.579   7.345  10.281  1.3737  0.9107 -0.7423
  476MOL0     H65646   9.690   7.238  10.448  0.6391  0.4106 -0.8266
  476MOL0     H65647   9.941   7.112  10.647 -1.3683  1.6455  1.3410
  476MOL0     H65648   9.965   7.148  10.477  0.0187 -0.5186 -1.3063
  476MOL0     H65649   9.808   7.093  10.537  1.2040 -1.4133  0.9161
  476MOL0     H65650  10.146   7.448  11.010  1.1749 -0.9809  0.5361
  476MOL0     H65651  10.373   7.420  11.111  0.9638 -3.1352 -1.0254
  476MOL0     H65652  10.711   7.623  10.869  1.7774 -2.5720 -0.4743
  476MOL0     H65653  10.655   7.690  11.026 -0.4326  0.6429 -1.5213
  476MOL0     H65654  10.865   7.647  11.107  0.1381 -0.0468  1.1072
  476MOL0     H65655  10.825   7.469  11.079  0.9275  0.4252  0.1330
  476MOL0     H65656  10.958   7.676  10.888 -0.3513  0.1696  1.9086
  476MOL0     H65657  10.928   7.509  10.830 -1.5961 -1.2619  1.2851
  476MOL0     H65658  11.078   7.419  10.992  1.2100 -0.3703 -1.0490
  476MOL0     H65659  11.123   7.586  11.046 -0.8709  0.9673 -0.5779
  476MOL0     H65660  11.160   7.485  10.754  2.5691 -1.0728 -0.2533
  476MOL0     H65661  11.203   7.642  10.815  3.8768  0.6776  2.3333
  476MOL0     H65662  11.339   7.387  10.886  1.5849  0.5811  1.7580
  476MOL0     H65663  11.351   7.526  10.994 -0.1873 -2.4746  1.0139
  476MOL0     H65664  11.425   7.671  10.828  1.4750 -0.3205 -0.4864
  476MOL0     H65665  11.410   7.544  10.698  1.6732 -0.0768 -1.6559
  476MOL0     H65666  11.610   7.544  10.929 -4.0857 -2.2790  1.2245
  476MOL0     H65667  11.635   7.593  10.763 -1.2483  1.5029  1.1880
  476MOL0     H65668  10.552   7.548  10.748 -0.7720 -1.5136 -1.4254
  476MOL0     H65669  10.333   7.551  10.641  1.6171  2.1971  0.2997
  476MOL0     H65670   9.903   7.611  10.694  2.1844  0.7695 -3.3339
  476MOL0     H65671   9.709   7.660  10.580 -0.4746  0.6573 -1.3376
  476MOL0     H65672   7.749   7.540   9.950  0.4461  2.6429 -0.3306
  476MOL0     H65673   7.664   7.603   9.739 -0.5586 -0.5768 -1.1398
  476MOL0     H65674   7.625   7.674   9.321 -1.6273  1.5776 -1.9977
  476MOL0     H65675   7.560   7.698   9.101  0.6471  5.5070 -0.7060
  476MOL0     H65676   7.862   7.751   8.767 -1.1198 -0.3588 -4.8705
  476MOL0     H65677   7.848   7.574   8.797  0.6172  1.0872  2.0799
  476MOL0     H65678   7.790   7.658   8.570  1.0448 -0.5457  0.2659
  476MOL0     H65679   7.639   7.735   8.653 -1.7043 -1.8071  2.1304
  476MOL0     H65680   7.688   7.441   8.611  0.2576 -0.2528 -0.0585
  476MOL0     H65681   7.598   7.503   8.751 -1.5591  1.8916  0.2342
  476MOL0     H65682   7.451   7.646   8.570 -1.3527 -0.3334  0.3529
  476MOL0     H65683   7.432   7.468   8.601  1.1517  0.3301  1.8828
  476MOL0     H65684   7.558   7.462   8.206  1.4620 -0.2864  0.3264
  476MOL0     H65685   7.967   7.664   8.973  0.5218  0.5546  0.1841
  476MOL0     H65686   8.115   7.524   9.215 -0.0406  0.4077 -0.3476
  476MOL0     H65687   8.144   7.664   9.118 -1.8697 -1.4162 -0.8628
  476MOL0     H65688   8.127   7.672   9.296  2.4043  0.2653 -1.0104
  477MOL0     O65689   9.385   7.554   2.955 -0.4551 -0.0085 -0.7054
  477MOL0     C65690   9.329   7.541   3.066 -0.7939 -0.0083 -0.1859
  477MOL0     O65691   9.400   7.520   3.184 -0.0843  0.3309  0.6870
  477MOL0     C65692   9.530   7.479   3.202  0.4307  0.3542 -1.0850
  477MOL0     C65693   9.563   7.406   3.323 -1.0282  0.4507 -0.2771
  477MOL0     C65694   9.694   7.363   3.355  0.8274 -0.6006  0.0676
  477MOL0     C65695   9.795   7.402   3.268 -0.2220  0.4728 -0.2787
  477MOL0     O65696   9.921   7.379   3.317  0.3763 -0.2273 -0.2248
  477MOL0     C65697  10.039   7.389   3.230  1.1771  0.5542 -0.3269
  477MOL0     C65698  10.087   7.530   3.235  0.3569 -0.4392  0.4993
  477MOL0     C65699  10.231   7.526   3.206  0.3292  0.1944  0.4540
  477MOL0     C65700  10.289   7.669   3.214 -0.4096  0.2184 -0.4492
  477MOL0     C65701  10.431   7.674   3.164 -0.0538 -0.3404  0.4456
  477MOL0     C65702  10.484   7.820   3.167  0.0089 -0.4407  0.4962
  477MOL0     C65703  10.638   7.821   3.154  0.2836 -0.4925  0.6526
  477MOL0     C65704  10.694   7.959   3.168 -0.5995 -0.3313 -0.6756
  477MOL0     N65705  10.838   7.963   3.164 -0.1955  0.5022 -0.0519
  477MOL0     C65706  10.915   7.931   3.057 -0.3583 -0.8328  0.2615
  477MOL0     C65707  11.045   7.971   3.098 -0.3564 -0.0430 -0.1141
  477MOL0     C65708  11.170   7.939   3.021  0.2271 -0.7226  0.5439
  477MOL0     C65709  11.197   8.048   2.916  0.4910 -0.5718  0.4876
  477MOL0     C65710  11.097   8.050   2.803 -0.1420  0.7692  0.0522
  477MOL0     C65711  11.146   8.149   2.699 -0.2457 -0.1526  0.0221
  477MOL0     O65712  11.136   8.280   2.742 -0.2376  0.3207  0.8033
  477MOL0     C65713  11.025   8.357   2.744  0.4928  0.3861  0.2265
  477MOL0     C65714  11.033   8.497   2.762 -0.7261  0.6087 -1.1562
  477MOL0     C65715  10.922   8.574   2.783 -0.5048  0.5710 -0.5211
  477MOL0     C65716  10.948   8.712   2.826 -0.0278  0.4576 -0.7211
  477MOL0     C65717  10.791   8.523   2.768  0.6421 -0.4166  0.0168
  477MOL0     C65718  10.662   8.605   2.782 -0.1404 -0.8006 -0.5608
  477MOL0     O65719  10.670   8.737   2.804 -0.9451 -0.6156 -0.1189
  477MOL0     C65720  10.562   8.816   2.792 -0.9614  0.0700 -0.2666
  477MOL0     C65721  10.453   8.802   2.713  0.1186  0.2640  0.0395
  477MOL0     C65722  10.356   8.898   2.700  0.6332  0.1012 -0.7276
  477MOL0     C65723  10.362   9.019   2.775 -0.3059 -1.0017  0.4050
  477MOL0     O65724  10.258   9.111   2.767  0.3905  0.4319  0.2904
  477MOL0     C65725  10.197   9.149   2.885 -0.3115  0.1610  0.4800
  477MOL0     C65726  10.147   9.290   2.878  0.4754 -0.3972 -0.2710
  477MOL0     C65727  10.010   9.318   2.964 -0.0925 -0.6887  1.0206
  477MOL0     C65728   9.946   9.460   2.918 -0.0838  0.0747 -0.4590
  477MOL0     C65729   9.829   9.501   3.008  0.0562 -0.2601  0.1554
  477MOL0     C65730   9.721   9.399   3.033  0.9403  0.6313 -0.0035
  477MOL0     C65731   9.592   9.459   3.081  0.2772  0.2370 -0.1888
  477MOL0     C65732   9.470   9.364   3.084  0.2573  0.6384 -0.4658
  477MOL0    Cl65733   9.490   9.260   3.224 -0.0472 -0.1239 -0.1003
  477MOL0     C65734  10.475   9.037   2.854  0.1527 -0.2311 -0.2352
  477MOL0     C65735  10.574   8.939   2.863  1.1905 -0.4828 -0.4725
  477MOL0     O65736  10.555   8.543   2.772 -0.0696  0.1866  0.6177
  477MOL0     C65737  10.782   8.389   2.746  0.8550  0.5547  0.6724
  477MOL0     C65738  10.891   8.308   2.741 -0.6080 -0.2238 -0.5873
  477MOL0     N65739  11.040   8.023   3.226  0.0360  0.2246 -0.8062
  477MOL0     N65740  10.918   8.020   3.260  0.4548 -0.6048  0.1736
  477MOL0     C65741   9.766   7.477   3.146  0.1802  0.7381 -0.9448
  477MOL0     C65742   9.635   7.503   3.118  0.4364 -0.5929  0.4123
  477MOL0     C65743   9.178   7.560   3.066  0.3721 -0.3111 -0.1799
  477MOL0     C65744   9.106   7.487   2.971 -0.3181  0.3467  0.3307
  477MOL0     C65745   8.972   7.496   2.967  0.8229 -0.7099 -0.2005
  477MOL0     C65746   8.899   7.572   3.055 -0.2078  0.1006 -0.4701
  477MOL0     O65747   8.768   7.566   3.027  0.9897 -0.2694 -0.5700
  477MOL0     C65748   8.686   7.671   3.079 -1.4171  0.2217  0.7075
  477MOL0     C65749   8.543   7.662   3.010  0.0635  0.4159  0.1927
  477MOL0     C65750   8.524   7.749   2.885 -0.2590  0.2737 -0.0713
  477MOL0     C65751   8.393   7.718   2.817 -0.0341 -0.5558 -0.4216
  477MOL0     C65752   8.398   7.585   2.761 -0.2531 -0.4915  0.2770
  477MOL0     C65753   8.385   7.476   2.708  0.1640 -0.0563 -0.6066
  477MOL0     C65754   8.967   7.642   3.156 -0.7220 -0.1602 -0.0913
  477MOL0     C65755   9.108   7.632   3.171  0.7190 -0.4545 -0.2217
  477MOL0     C65756   9.176   7.685   3.299  0.0053 -1.0539  0.4597
  477MOL0     H65757   9.483   7.392   3.396  0.2553  3.5654  1.9835
  477MOL0     H65758   9.716   7.308   3.446  1.8941  0.8816  0.7589
  477MOL0     H65759  10.028   7.365   3.124  1.5947  2.8419 -0.9385
  477MOL0     H65760  10.116   7.322   3.270 -0.1082 -1.4763 -1.1222
  477MOL0     H65761  10.032   7.592   3.164 -0.2184  0.3727  1.6177
  477MOL0     H65762  10.064   7.569   3.335 -3.9989  1.4166 -0.9494
  477MOL0     H65763  10.288   7.462   3.274  0.1437 -0.8380 -0.3360
  477MOL0     H65764  10.254   7.477   3.111  0.9793 -0.5149  0.9624
  477MOL0     H65765  10.230   7.734   3.148 -1.8369  0.2276  0.7907
  477MOL0     H65766  10.293   7.712   3.314  1.4558  0.1373 -0.4577
  477MOL0     H65767  10.443   7.632   3.064  3.9063  4.4706 -1.5164
  477MOL0     H65768  10.480   7.606   3.234  3.8799  1.4137 -0.3731
  477MOL0     H65769  10.446   7.876   3.082  0.9453 -0.6528 -0.0661
  477MOL0     H65770  10.457   7.866   3.263  2.2632 -0.1994  1.0698
  477MOL0     H65771  10.670   7.782   3.057 -2.0575  1.7152 -1.1359
  477MOL0     H65772  10.677   7.770   3.243  1.9650  0.4618  0.4993
  477MOL0     H65773  10.645   8.022   3.093  0.6902  1.4336 -0.0998
  477MOL0     H65774  10.659   7.990   3.267 -3.6054 -1.1652 -1.3530
  477MOL0     H65775  10.879   7.882   2.967 -2.5732 -0.6023  0.9507
  477MOL0     H65776  11.176   7.850   2.958  2.9815  0.9353 -1.7845
  477MOL0     H65777  11.248   7.936   3.099  0.4421  0.4678  0.3821
  477MOL0     H65778  11.177   8.145   2.962  2.8281 -0.2980  1.0516
  477MOL0     H65779  11.298   8.043   2.874  0.3341 -2.1574  0.2419
  477MOL0     H65780  11.088   7.953   2.753 -0.6869  1.0780 -0.4584
  477MOL0     H65781  11.005   8.091   2.846  0.4405  1.9863  0.1608
  477MOL0     H65782  11.247   8.119   2.673 -1.1912 -0.3148 -4.4062
  477MOL0     H65783  11.085   8.144   2.608  0.7070 -1.1780 -0.5680
  477MOL0     H65784  11.132   8.540   2.770  0.6774 -2.6162  1.7951
  477MOL0     H65785  11.051   8.742   2.848 -1.1169  1.8703  3.4840
  477MOL0     H65786  10.887   8.733   2.915 -1.9557  0.3975 -1.9676
  477MOL0     H65787  10.912   8.782   2.750 -1.8315  0.1012 -0.2517
  477MOL0     H65788  10.438   8.716   2.647 -0.7402  1.0470 -0.8364
  477MOL0     H65789  10.269   8.868   2.642 -0.7157 -0.4437  1.4530
  477MOL0     H65790  10.105   9.091   2.896  0.5934 -1.5968 -0.8190
  477MOL0     H65791  10.252   9.135   2.979 -2.6950  2.8425  2.4309
  477MOL0     H65792  10.219   9.365   2.913  2.9480 -2.8327  0.1834
  477MOL0     H65793  10.122   9.304   2.772 -0.8910 -1.8620 -0.1814
  477MOL0     H65794  10.037   9.307   3.069  0.7314 -3.0669  0.6260
  477MOL0     H65795   9.935   9.243   2.936 -0.1791  0.2043 -1.4034
  477MOL0     H65796   9.910   9.448   2.815 -3.3378  1.5006  0.3969
  477MOL0     H65797  10.024   9.536   2.913 -1.3249  1.3007 -2.4289
  477MOL0     H65798   9.872   9.517   3.108  2.4505  0.2852 -0.9018
  477MOL0     H65799   9.798   9.596   2.965 -1.9690 -0.3143  1.3619
  477MOL0     H65800   9.758   9.311   3.088 -0.6215 -0.2485 -0.2972
  477MOL0     H65801   9.706   9.344   2.939  1.9970 -0.4915  0.4518
  477MOL0     H65802   9.555   9.539   3.017 -0.4070  0.0892  0.0030
  477MOL0     H65803   9.603   9.502   3.181 -0.9772  1.5393 -0.5739
  477MOL0     H65804   9.465   9.310   2.989 -1.4004  2.3224 -1.4012
  477MOL0     H65805   9.379   9.422   3.102  0.7157  1.2591 -0.1428
  477MOL0     H65806  10.490   9.123   2.918  1.6781 -0.4448 -0.2591
  477MOL0     H65807  10.659   8.957   2.928  0.8808  0.8219 -0.4213
  477MOL0     H65808  10.684   8.344   2.736  1.0207  0.5639 -1.3868
  477MOL0     H65809  10.873   8.204   2.715 -0.3450 -0.8723  1.6601
  477MOL0     H65810   9.847   7.518   3.088 -0.3206 -1.6467 -3.5144
  477MOL0     H65811   9.617   7.568   3.033 -0.9056 -1.3834  0.0493
  477MOL0     H65812   9.146   7.419   2.898 -1.0706  0.4262 -0.1718
  477MOL0     H65813   8.920   7.442   2.888  0.8583 -2.0074  0.6299
  477MOL0     H65814   8.680   7.661   3.188 -0.8722 -1.1071  0.6340
  477MOL0     H65815   8.738   7.761   3.045 -0.9836 -1.0642 -2.3529
  477MOL0     H65816   8.471   7.694   3.086  1.8535  1.9068  1.3530
  477MOL0     H65817   8.521   7.560   2.979  0.7636  1.0166 -2.5492
  477MOL0     H65818   8.520   7.852   2.921 -3.3995  0.5485 -0.9001
  477MOL0     H65819   8.613   7.731   2.825 -0.5291 -0.2596 -0.3199
  477MOL0     H65820   8.378   7.798   2.744  0.4879  2.0145  2.1257
  477MOL0     H65821   8.307   7.731   2.883  1.1386 -0.2254  1.0953
  477MOL0     H65822   8.373   7.387   2.649 -0.6906 -0.1761 -0.2676
  477MOL0     H65823   8.910   7.694   3.232 -2.9534 -0.1681 -1.6688
  477MOL0     H65824   9.277   7.728   3.288 -0.4970  0.3974  1.2735
  477MOL0     H65825   9.109   7.763   3.335  1.9973  2.2262 -2.2850
  477MOL0     H65826   9.189   7.598   3.364  0.3292 -3.3350 -2.4389
  478MOL0     O65827   0.178   7.003   4.658  0.1173  0.6711  0.0600
  478MOL0     C65828   0.111   7.039   4.753 -1.1268  0.1625 -0.6993
  478MOL0     O65829   0.161   7.074   4.875  0.2478 -0.1185  0.2133
  478MOL0     C65830   0.291   7.056   4.918 -0.5303 -0.2585 -0.3297
  478MOL0     C65831   0.367   6.946   4.895  0.3381  0.4904 -0.0564
  478MOL0     C65832   0.500   6.932   4.945 -1.1081 -0.4207  0.1934
  478MOL0     C65833   0.547   7.037   5.022 -0.1837 -0.3462 -0.0276
  478MOL0     O65834   0.664   7.037   5.093 -0.0040  0.2694 -0.4921
  478MOL0     C65835   0.785   6.990   5.034 -0.6224  0.0862 -0.0469
  478MOL0     C65836   0.902   6.976   5.139 -0.2241 -0.7125 -0.0927
  478MOL0     C65837   1.037   6.938   5.075 -0.2801 -0.8295  0.0249
  478MOL0     C65838   1.154   6.925   5.171 -0.2011  0.0780 -0.3035
  478MOL0     C65839   1.281   6.930   5.089  0.5279 -0.0769  0.4989
  478MOL0     C65840   1.398   6.908   5.187 -0.1068  0.4545 -0.7320
  478MOL0     C65841   1.524   6.969   5.130 -0.1163  0.3577  1.0803
  478MOL0     C65842   1.650   6.959   5.213  0.6474  0.0833  0.4011
  478MOL0     N65843   1.712   6.823   5.212 -0.4870 -0.4353  0.0619
  478MOL0     C65844   1.696   6.725   5.113  0.8782  0.2662  0.0278
  478MOL0     C65845   1.756   6.614   5.166  0.5257 -0.3274 -0.2366
  478MOL0     C65846   1.784   6.482   5.110 -0.3151  0.2056  0.5622
  478MOL0     C65847   1.909   6.408   5.163  0.2331 -0.1033 -0.1450
  478MOL0     C65848   1.950   6.303   5.051 -0.0882 -0.4576 -0.2255
  478MOL0     C65849   1.838   6.199   5.029 -0.1034  0.7321  0.7645
  478MOL0     O65850   1.810   6.132   5.150 -0.2525 -0.3443 -0.0626
  478MOL0     C65851   1.691   6.062   5.157 -0.8638  0.2395 -0.6307
  478MOL0     C65852   1.634   6.050   5.287 -0.6108  0.1184 -0.4842
  478MOL0     C65853   1.504   6.007   5.309 -0.4549 -0.2090 -0.6141
  478MOL0     C65854   1.454   6.022   5.449  0.7028 -0.0617  0.9537
  478MOL0     C65855   1.430   5.949   5.200  1.6552  0.8473  0.3302
  478MOL0     C65856   1.290   5.908   5.223  0.1985  0.5074 -0.3646
  478MOL0     O65857   1.248   5.849   5.340 -0.1085 -0.9804  0.1085
  478MOL0     C65858   1.113   5.861   5.364  0.3245  0.3860 -0.1598
  478MOL0     C65859   1.040   5.980   5.380 -0.2580 -0.2653  0.1326
  478MOL0     C65860   0.909   5.975   5.428  0.4323 -1.2753  0.7343
  478MOL0     C65861   0.846   5.861   5.458  0.3774 -0.0229  0.6131
  478MOL0     O65862   0.727   5.877   5.518  0.2408 -0.7465  0.7895
  478MOL0     C65863   0.673   5.767   5.590 -0.0276 -0.1386  0.0621
  478MOL0     C65864   0.533   5.799   5.653 -0.3634 -0.0001 -0.5162
  478MOL0     C65865   0.413   5.767   5.556 -0.5305 -0.1141 -0.3150
  478MOL0     C65866   0.282   5.796   5.628 -0.0734  0.2862 -0.3042
  478MOL0     C65867   0.171   5.761   5.533  0.3255  0.0412 -0.5724
  478MOL0     C65868   0.039   5.830   5.576 -0.2024 -0.4077 -0.1643
  478MOL0     C65869  -0.062   5.828   5.461 -0.8442 -0.3003  0.4168
  478MOL0     C65870  -0.142   5.705   5.463  0.1677 -0.0290  0.2590
  478MOL0    Cl65871  -0.273   5.718   5.337  0.1158  0.4121  0.7058
  478MOL0     C65872   0.914   5.742   5.427 -0.2607  0.3350 -0.6361
  478MOL0     C65873   1.043   5.744   5.374  0.5882 -0.1824  0.0974
  478MOL0     O65874   1.216   5.940   5.123 -0.4018 -0.3625 -0.2737
  478MOL0     C65875   1.486   5.960   5.068  0.6882 -0.7464  0.2391
  478MOL0     C65876   1.613   6.018   5.052  0.0477 -0.4050 -0.7334
  478MOL0     N65877   1.807   6.645   5.290 -0.3600 -0.6659 -0.1020
  478MOL0     N65878   1.780   6.771   5.317  0.5003  0.4812 -0.6779
  478MOL0     C65879   0.470   7.153   5.044  0.3318  0.3375  0.3128
  478MOL0     C65880   0.344   7.165   4.989  0.6433  0.6485  0.4992
  478MOL0     C65881  -0.039   7.033   4.737 -0.4124  0.5948 -0.1237
  478MOL0     C65882  -0.120   7.021   4.853  0.4964 -0.4454  0.3470
  478MOL0     C65883  -0.254   7.002   4.840  0.5820  0.1733  0.8599
  478MOL0     C65884  -0.313   7.000   4.714  0.5183 -0.4274 -0.2713
  478MOL0     O65885  -0.446   6.977   4.701  1.1846  0.4472 -0.3079
  478MOL0     C65886  -0.524   6.908   4.808  0.2759  0.0991 -0.7156
  478MOL0     C65887  -0.666   6.868   4.753  0.2775  0.0490 -0.0203
  478MOL0     C65888  -0.762   6.841   4.871  0.8741 -0.0233 -0.8141
  478MOL0     C65889  -0.907   6.813   4.826  0.1397  0.7714 -0.0197
  478MOL0     C65890  -0.908   6.707   4.721 -0.5211 -0.4139 -0.0789
  478MOL0     C65891  -0.923   6.612   4.643 -0.4437  0.2186  0.6746
  478MOL0     C65892  -0.244   7.018   4.605  0.2851 -0.1500  0.5092
  478MOL0     C65893  -0.111   7.032   4.611 -0.3398 -0.0622  0.5598
  478MOL0     C65894  -0.034   7.038   4.482  0.4807  0.1059  0.9340
  478MOL0     H65895   0.320   6.874   4.829  0.3756  1.8008 -1.5541
  478MOL0     H65896   0.555   6.840   4.933 -0.0651  0.2042  0.0539
  478MOL0     H65897   0.808   7.064   4.957  0.4536 -1.8404 -1.6522
  478MOL0     H65898   0.786   6.889   4.992  0.0917 -0.0623  0.3026
  478MOL0     H65899   0.908   7.063   5.207 -1.3736 -1.6240  1.2276
  478MOL0     H65900   0.876   6.889   5.199  0.8955  0.6465  2.5501
  478MOL0     H65901   1.026   6.858   5.001  1.5448  0.7155 -2.0698
  478MOL0     H65902   1.066   7.025   5.015 -1.1357 -0.2827  0.3848
  478MOL0     H65903   1.158   7.006   5.244 -0.6354  1.0000 -1.2723
  478MOL0     H65904   1.152   6.829   5.224  2.8823 -0.6583 -1.3354
  478MOL0     H65905   1.269   7.027   5.039 -1.2296 -1.2070 -1.4436
  478MOL0     H65906   1.275   6.849   5.016  1.6234  1.3621 -1.2971
  478MOL0     H65907   1.384   6.962   5.282  2.3333  2.4306 -1.3934
  478MOL0     H65908   1.413   6.801   5.204  1.3625  0.4491 -1.8918
  478MOL0     H65909   1.493   7.073   5.118 -2.7678 -0.4867 -0.2814
  478MOL0     H65910   1.542   6.941   5.026  2.2141  1.5023  1.1110
  478MOL0     H65911   1.716   7.031   5.163  0.1232 -0.4470 -1.1345
  478MOL0     H65912   1.630   6.996   5.314 -1.6396  1.3560 -0.4440
  478MOL0     H65913   1.654   6.751   5.016  0.0392  2.4186  0.8951
  478MOL0     H65914   1.800   6.499   5.004 -0.8671 -1.9632  0.0783
  478MOL0     H65915   1.694   6.420   5.122 -0.6724  0.3142 -1.2541
  478MOL0     H65916   1.988   6.479   5.190  2.2950 -2.3872  0.1425
  478MOL0     H65917   1.876   6.356   5.253 -2.6524  1.0688 -0.4365
  478MOL0     H65918   1.973   6.355   4.958 -2.3517 -2.1689 -1.8360
  478MOL0     H65919   2.049   6.263   5.077  0.5836  1.0610 -0.3160
  478MOL0     H65920   1.752   6.242   4.977 -0.5177 -1.5588 -0.5754
  478MOL0     H65921   1.870   6.121   4.960  1.1302 -0.7712  2.8834
  478MOL0     H65922   1.690   6.094   5.369 -0.7538 -0.6836  0.0578
  478MOL0     H65923   1.466   5.926   5.501 -0.7062 -0.6003  0.3338
  478MOL0     H65924   1.349   6.050   5.449  0.9778  1.4908 -2.4565
  478MOL0     H65925   1.506   6.106   5.496  0.0169 -0.8310  3.2283
  478MOL0     H65926   1.089   6.072   5.350 -1.1851  0.1200 -0.2307
  478MOL0     H65927   0.860   6.071   5.441 -0.2717 -1.4838 -0.2290
  478MOL0     H65928   0.660   5.689   5.515  0.4065 -0.0281 -0.1352
  478MOL0     H65929   0.755   5.732   5.654  1.2931 -0.4596 -1.7357
  478MOL0     H65930   0.519   5.731   5.738 -1.1357  1.7114  0.8029
  478MOL0     H65931   0.522   5.901   5.691  1.8275  0.4430 -0.9746
  478MOL0     H65932   0.416   5.664   5.520 -0.8717 -0.2456  0.0350
  478MOL0     H65933   0.425   5.825   5.464 -0.0797 -1.9718 -1.4802
  478MOL0     H65934   0.275   5.900   5.660 -2.0570 -0.1078  0.6440
  478MOL0     H65935   0.274   5.746   5.725  2.3868  0.9742  0.3319
  478MOL0     H65936   0.190   5.801   5.433 -3.1521  0.4286 -1.1944
  478MOL0     H65937   0.158   5.655   5.513  0.4943  0.2761 -1.9885
  478MOL0     H65938   0.061   5.935   5.595 -3.0251  0.0639  1.0803
  478MOL0     H65939  -0.007   5.794   5.669 -0.4899 -2.5094 -1.0435
  478MOL0     H65940  -0.012   5.818   5.364  0.6596 -0.2641  1.1465
  478MOL0     H65941  -0.118   5.921   5.464  0.2317  0.3561  0.7022
  478MOL0     H65942  -0.178   5.678   5.563 -0.3593 -2.6874 -0.5562
  478MOL0     H65943  -0.081   5.616   5.444 -0.6708 -0.8299  1.1758
  478MOL0     H65944   0.865   5.647   5.449 -0.6817  0.9416  1.1887
  478MOL0     H65945   1.088   5.649   5.346  3.2332  1.0688 -0.1838
  478MOL0     H65946   1.428   5.937   4.979  0.5423 -0.1784  0.1862
  478MOL0     H65947   1.646   6.022   4.949 -0.7528 -0.5144 -0.9957
  478MOL0     H65948   0.509   7.240   5.096 -1.0803  1.1136  0.1531
  478MOL0     H65949   0.297   7.258   5.020 -1.3126 -0.9919  2.8783
  478MOL0     H65950  -0.087   7.023   4.956  0.1710 -2.8736  0.5655
  478MOL0     H65951  -0.320   6.988   4.925 -2.9731 -2.6173 -2.0748
  478MOL0     H65952  -0.463   6.825   4.842  0.5388  0.3625 -0.5375
  478MOL0     H65953  -0.538   6.969   4.898  0.2552 -0.2775 -0.4611
  478MOL0     H65954  -0.645   6.788   4.682  1.7196  1.7887 -1.6584
  478MOL0     H65955  -0.701   6.948   4.687  0.4934 -0.6654 -1.0225
  478MOL0     H65956  -0.728   6.767   4.945 -2.3641 -2.1054 -1.2144
  478MOL0     H65957  -0.774   6.935   4.925  0.2276 -0.0475 -0.9128
  478MOL0     H65958  -0.952   6.902   4.781 -4.7354 -1.2001  0.3372
  478MOL0     H65959  -0.974   6.780   4.905 -0.1613 -0.8795 -0.9349
  478MOL0     H65960  -0.949   6.527   4.583 -1.5735 -0.3407  1.9009
  478MOL0     H65961  -0.284   7.021   4.504  2.8401 -1.5414 -0.6426
  478MOL0     H65962   0.012   6.942   4.455  0.8455  1.2356 -3.1611
  478MOL0     H65963  -0.088   7.065   4.391  1.6159 -2.1375 -0.4921
  478MOL0     H65964   0.039   7.119   4.496  0.3677  0.6609 -1.3840
  479MOL0     O65965   9.922   6.031   6.132 -0.0526  1.2414 -0.3724
  479MOL0     C65966   9.873   5.937   6.192 -0.0278 -0.1447  0.3242
  479MOL0     O65967   9.937   5.818   6.237  0.0426 -0.9982  0.5076
  479MOL0     C65968  10.071   5.800   6.217  0.1148  0.4599 -0.2715
  479MOL0     C65969  10.122   5.688   6.148  0.2009  0.6140  0.0753
  479MOL0     C65970  10.252   5.673   6.116 -0.6332 -0.1891  0.1060
  479MOL0     C65971  10.352   5.757   6.161 -0.5679 -0.5399 -0.0354
  479MOL0     O65972  10.478   5.715   6.123 -0.0325  0.1133 -0.3485
  479MOL0     C65973  10.591   5.784   6.180 -0.3774  0.5606 -0.4890
  479MOL0     C65974  10.729   5.721   6.137  0.0215  0.5839  0.9131
  479MOL0     C65975  10.755   5.573   6.175  0.4184  0.1863 -0.3768
  479MOL0     C65976  10.770   5.551   6.327 -0.0781 -0.6202 -0.0620
  479MOL0     C65977  10.875   5.448   6.369  0.0402  0.6485 -0.2003
  479MOL0     C65978  10.869   5.318   6.279 -0.2732 -0.6945  0.4321
  479MOL0     C65979  11.015   5.282   6.247 -0.0987 -0.7098 -0.0788
  479MOL0     C65980  11.036   5.137   6.205 -0.5159 -0.2225 -0.4230
  479MOL0     N65981  11.168   5.113   6.149 -0.5199 -0.0894 -0.5755
  479MOL0     C65982  11.286   5.107   6.224  0.8556 -0.8275 -0.8551
  479MOL0     C65983  11.383   5.080   6.130 -0.2836  0.5504  0.0738
  479MOL0     C65984  11.525   5.053   6.171  0.1670 -0.7982  0.0797
  479MOL0     C65985  11.571   4.926   6.116  0.0632 -0.5310 -0.2779
  479MOL0     C65986  11.711   4.892   6.155 -1.1887 -0.1467 -0.5130
  479MOL0     C65987  11.766   4.771   6.062 -0.1274 -0.0324 -0.3740
  479MOL0     O65988  11.820   4.814   5.937  0.5682 -0.1951 -0.0210
  479MOL0     C65989  11.939   4.881   5.918  0.1107  0.2864  0.5472
  479MOL0     C65990  11.965   4.911   5.781  0.4551  0.2505  0.1454
  479MOL0     C65991  12.090   4.960   5.733 -0.0314 -0.0638  0.1664
  479MOL0     C65992  12.106   4.978   5.581 -0.3946 -0.1846  0.0565
  479MOL0     C65993  12.199   4.985   5.825  0.0081 -0.7397  0.0821
  479MOL0     C65994  12.336   5.029   5.787  0.0027 -0.3355 -1.0568
  479MOL0     O65995  12.424   5.038   5.887  0.4164 -0.3079 -0.1934
  479MOL0     C65996  12.554   5.055   5.858  0.1610  0.2028  0.3200
  479MOL0     C65997  12.654   4.953   5.868  0.6067 -0.0323  0.3165
  479MOL0     C65998  12.788   4.988   5.842 -0.9355 -0.1521 -0.2000
  479MOL0     C65999  12.821   5.120   5.804 -0.3952  0.6664 -0.4669
  479MOL0     O66000  12.951   5.155   5.780 -0.5408 -0.2777  0.1696
  479MOL0     C66001  13.055   5.121   5.868  0.3384  0.9080  0.1191
  479MOL0     C66002  13.180   5.149   5.792  0.2607  0.7683 -0.1678
  479MOL0     C66003  13.192   5.298   5.759 -0.6118 -0.1346  0.3290
  479MOL0     C66004  13.331   5.326   5.691 -0.2836 -0.7613  0.5052
  479MOL0     C66005  13.355   5.480   5.693 -0.5317 -0.0737  0.0700
  479MOL0     C66006  13.472   5.526   5.603  0.2110  0.7683 -0.1073
  479MOL0     C66007  13.600   5.513   5.679 -0.1370 -0.2243 -0.2010
  479MOL0     C66008  13.728   5.510   5.591  0.4093 -0.6110  0.2580
  479MOL0    Cl66009  13.854   5.418   5.660 -0.2927  0.0709  0.4235
  479MOL0     C66010  12.720   5.216   5.785  0.5624  0.1420  0.2365
  479MOL0     C66011  12.585   5.178   5.820 -1.1124 -0.6924  0.2806
  479MOL0     O66012  12.368   5.043   5.678  0.1404 -0.5109  0.7331
  479MOL0     C66013  12.170   4.977   5.965 -0.1461  1.2151 -0.0070
  479MOL0     C66014  12.041   4.924   6.007  0.3152  0.4631  0.3727
  479MOL0     N66015  11.326   5.064   6.006  0.2036 -0.8747 -0.2120
  479MOL0     N66016  11.203   5.087   6.022  0.5991  0.1608 -0.1817
  479MOL0     C66017  10.311   5.869   6.234  0.5946 -0.3244 -0.0240
  479MOL0     C66018  10.171   5.891   6.263  1.0149  0.6078  0.5530
  479MOL0     C66019   9.728   5.954   6.233 -0.1026 -0.4658  0.3280
  479MOL0     C66020   9.678   6.080   6.262 -0.7854  0.4940 -1.1521
  479MOL0     C66021   9.552   6.101   6.313  1.0749  0.0302 -0.6079
  479MOL0     C66022   9.478   5.982   6.331  0.0586  0.2747 -0.0128
  479MOL0     O66023   9.349   6.013   6.368 -0.3245  0.0301 -0.0108
  479MOL0     C66024   9.272   5.907   6.447 -0.5988 -0.2596  0.6097
  479MOL0     C66025   9.182   5.827   6.343  0.3636 -0.1740 -0.1468
  479MOL0     C66026   9.067   5.902   6.263  0.5883 -0.3601 -0.8619
  479MOL0     C66027   9.028   5.832   6.134  0.0889 -0.5826  0.7306
  479MOL0     C66028   8.970   5.697   6.144  0.4450  0.8492 -0.1460
  479MOL0     C66029   8.897   5.600   6.151  0.8866 -0.0208 -0.5106
  479MOL0     C66030   9.522   5.862   6.291 -0.2955  0.0611  0.1711
  479MOL0     C66031   9.651   5.842   6.245 -0.1317 -0.9413 -0.3981
  479MOL0     C66032   9.691   5.696   6.197  1.0092  0.7884  0.6178
  479MOL0     H66033  10.049   5.612   6.124 -0.0770  0.1168  2.2615
  479MOL0     H66034  10.270   5.586   6.054  1.1905  0.9919 -1.1390
  479MOL0     H66035  10.586   5.772   6.288  2.0289 -2.7093 -0.6050
  479MOL0     H66036  10.590   5.891   6.157 -1.7493  0.3029 -1.8028
  479MOL0     H66037  10.725   5.728   6.028  1.4890  1.9873  0.9009
  479MOL0     H66038  10.814   5.782   6.169  1.4345 -1.0380  0.3802
  479MOL0     H66039  10.675   5.505   6.147  1.4695 -1.9032  1.3175
  479MOL0     H66040  10.850   5.552   6.125 -0.1924 -0.3294 -1.3355
  479MOL0     H66041  10.795   5.644   6.379  2.7778 -0.9221 -0.7165
  479MOL0     H66042  10.677   5.510   6.368 -1.0007  0.8006 -0.6581
  479MOL0     H66043  10.849   5.413   6.470  1.6027 -0.3472 -0.1024
  479MOL0     H66044  10.977   5.487   6.376  0.6469 -0.8202 -0.4698
  479MOL0     H66045  10.818   5.237   6.331 -1.0261  0.2962  1.2839
  479MOL0     H66046  10.808   5.325   6.188 -2.8198 -2.1959  1.8995
  479MOL0     H66047  11.064   5.286   6.345 -1.3075 -4.2992  0.8226
  479MOL0     H66048  11.052   5.356   6.175 -0.6909 -0.5264 -0.2000
  479MOL0     H66049  11.014   5.069   6.288 -1.4991  0.9589  0.3132
  479MOL0     H66050  10.966   5.116   6.124  0.2744 -0.2874 -1.1027
  479MOL0     H66051  11.301   5.143   6.325  1.5551  0.7355 -1.4878
  479MOL0     H66052  11.529   5.048   6.280  0.8663  2.7901  0.3574
  479MOL0     H66053  11.585   5.136   6.133 -0.7345  0.4542  1.3004
  479MOL0     H66054  11.505   4.851   6.161  0.4726 -1.8881 -1.8578
  479MOL0     H66055  11.562   4.916   6.008  0.1108 -3.8717 -0.0964
  479MOL0     H66056  11.772   4.980   6.133  1.1031 -1.2642  0.9788
  479MOL0     H66057  11.719   4.869   6.261  2.0368  1.8511 -0.1879
  479MOL0     H66058  11.841   4.712   6.116  0.6634  1.4357  0.1820
  479MOL0     H66059  11.685   4.700   6.045  0.2869 -0.7657  0.5465
  479MOL0     H66060  11.885   4.897   5.710  1.2141 -0.4144 -0.6041
  479MOL0     H66061  12.174   4.903   5.541 -1.3006 -1.6253  1.1158
  479MOL0     H66062  12.141   5.077   5.551  3.0612 -0.9170  1.2557
  479MOL0     H66063  12.011   4.960   5.529 -0.1050  0.9992 -0.9160
  479MOL0     H66064  12.638   4.848   5.889 -0.1207 -0.5446 -2.3727
  479MOL0     H66065  12.863   4.909   5.843 -0.4333  0.3006 -1.0578
  479MOL0     H66066  13.044   5.176   5.961 -1.1601 -0.8266  1.0142
  479MOL0     H66067  13.041   5.014   5.884 -2.2681  1.3516  1.1797
  479MOL0     H66068  13.260   5.128   5.864 -0.9582  0.0653  1.0254
  479MOL0     H66069  13.189   5.082   5.706  0.9047  1.6679 -0.8224
  479MOL0     H66070  13.181   5.350   5.854  2.4110  1.3552 -0.0249
  479MOL0     H66071  13.107   5.328   5.697 -0.6862  3.0151  1.7739
  479MOL0     H66072  13.333   5.282   5.591  1.5860 -2.0250  1.0558
  479MOL0     H66073  13.411   5.278   5.748  2.3373  2.3143 -0.2709
  479MOL0     H66074  13.261   5.520   5.653 -2.3439 -3.1073  1.0154
  479MOL0     H66075  13.368   5.525   5.792  2.7936  1.4807 -0.9068
  479MOL0     H66076  13.465   5.632   5.575  2.1584  0.4106 -2.1741
  479MOL0     H66077  13.471   5.465   5.513 -3.2444 -1.4272  1.1972
  479MOL0     H66078  13.594   5.416   5.730 -0.0527 -0.1493 -0.0464
  479MOL0     H66079  13.612   5.589   5.757  2.3310 -1.3814  0.6816
  479MOL0     H66080  13.763   5.613   5.574  0.4356 -0.5002  0.9489
  479MOL0     H66081  13.697   5.458   5.500 -1.7160  0.3331  0.3910
  479MOL0     H66082  12.753   5.315   5.758 -0.9510  1.0519  1.5397
  479MOL0     H66083  12.512   5.259   5.812  1.4813  1.7779 -0.1149
  479MOL0     H66084  12.244   4.998   6.042  0.2418  0.6181 -0.2093
  479MOL0     H66085  12.020   4.901   6.111 -0.5720  2.4246  0.6748
  479MOL0     H66086  10.386   5.940   6.266  1.0310 -1.9421  2.9102
  479MOL0     H66087  10.144   5.986   6.307  2.0450  0.7178  0.9593
  479MOL0     H66088   9.746   6.161   6.240  0.8836 -0.6686 -0.5273
  479MOL0     H66089   9.501   6.196   6.324 -0.1634 -0.5076 -1.4556
  479MOL0     H66090   9.345   5.836   6.488  2.0879  1.4221 -0.8901
  479MOL0     H66091   9.211   5.958   6.521 -0.3892 -0.3748  0.8626
  479MOL0     H66092   9.122   5.756   6.402  0.2052 -0.1338 -0.2607
  479MOL0     H66093   9.244   5.762   6.281 -2.4628 -0.5023 -2.8570
  479MOL0     H66094   8.981   5.902   6.331  2.1576 -0.0596  1.2146
  479MOL0     H66095   9.095   6.007   6.248 -1.8926  0.6783  0.9206
  479MOL0     H66096   9.107   5.832   6.058 -1.3589  0.6271 -0.8684
  479MOL0     H66097   8.948   5.887   6.084  0.6411  0.5028  1.0080
  479MOL0     H66098   8.825   5.521   6.137 -0.8704  0.8658  2.5594
  479MOL0     H66099   9.459   5.775   6.310  2.0080 -1.2434  2.7919
  479MOL0     H66100   9.740   5.712   6.100 -0.3596 -1.4081 -0.5237
  479MOL0     H66101   9.757   5.634   6.257 -1.6921  0.1869  3.1748
  479MOL0     H66102   9.599   5.640   6.176  0.1085  1.5088  2.4117
  480MOL0     O66103   2.075   5.306   2.360 -0.2771  0.1054 -0.0966
  480MOL0     C66104   2.013   5.399   2.311  0.8533 -0.2586  0.2993
  480MOL0     O66105   2.070   5.523   2.266 -0.3733 -0.3120  0.1272
  480MOL0     C66106   2.186   5.573   2.317  0.0539 -0.1628 -0.1268
  480MOL0     C66107   2.238   5.684   2.251 -0.1833  0.5856  0.4438
  480MOL0     C66108   2.355   5.747   2.297 -0.1177  0.2866  0.2331
  480MOL0     C66109   2.417   5.706   2.412 -0.2596 -0.2305 -0.6218
  480MOL0     O66110   2.531   5.771   2.454  0.1986 -0.0577 -0.3511
  480MOL0     C66111   2.619   5.835   2.364  0.1535  0.0139  0.0390
  480MOL0     C66112   2.757   5.854   2.431  1.2347  0.4714  0.0658
  480MOL0     C66113   2.875   5.873   2.329  0.7743 -0.2587 -0.0212
  480MOL0     C66114   3.006   5.875   2.401  0.4576 -0.6089 -0.3758
  480MOL0     C66115   3.102   5.952   2.316 -0.0060  0.2181 -0.1311
  480MOL0     C66116   3.246   5.924   2.355  0.3771  0.4110  0.4848
  480MOL0     C66117   3.344   5.964   2.243  0.5504 -0.2164  0.0350
  480MOL0     C66118   3.418   6.102   2.263  0.6611  0.3351  0.5602
  480MOL0     N66119   3.507   6.098   2.380 -0.0897  0.1907 -0.8416
  480MOL0     C66120   3.570   5.999   2.449  0.5483 -0.9461 -0.1175
  480MOL0     C66121   3.638   6.060   2.551  0.4718  0.1995 -0.6135
  480MOL0     C66122   3.728   5.995   2.653 -0.5065  0.7428 -0.2194
  480MOL0     C66123   3.875   6.017   2.621 -0.1279  0.3626  0.6485
  480MOL0     C66124   3.933   5.875   2.589  0.0588 -0.3874 -0.4046
  480MOL0     C66125   4.080   5.888   2.572 -0.5612 -0.4906 -0.3067
  480MOL0     O66126   4.140   5.938   2.693 -0.6460  0.2276 -0.2615
  480MOL0     C66127   4.270   5.971   2.682  0.4194 -0.3504  0.3612
  480MOL0     C66128   4.332   6.038   2.576  0.3332 -0.6813  0.8265
  480MOL0     C66129   4.466   6.063   2.573 -0.2819 -0.0490 -0.1461
  480MOL0     C66130   4.535   6.128   2.459 -0.1521  0.3200 -0.4873
  480MOL0     C66131   4.545   6.028   2.696 -0.4965 -1.1918  0.4069
  480MOL0     C66132   4.697   6.053   2.726  0.0556 -0.2320  0.1458
  480MOL0     O66133   4.756   5.976   2.831  1.3800 -1.0256  0.2781
  480MOL0     C66134   4.883   6.021   2.860  0.5857  0.3997  0.2520
  480MOL0     C66135   4.905   6.138   2.935  0.5088 -0.4891 -0.0050
  480MOL0     C66136   5.034   6.165   2.970  0.3067 -1.2070 -0.4808
  480MOL0     C66137   5.147   6.079   2.943 -0.0021  0.0963  0.6597
  480MOL0     O66138   5.274   6.123   2.972 -0.0458 -0.1378  0.4048
  480MOL0     C66139   5.375   6.022   3.006  0.5060  0.2524 -0.0977
  480MOL0     C66140   5.347   5.974   3.151 -0.8460  0.5491  0.1608
  480MOL0     C66141   5.247   5.860   3.155 -0.9079 -0.7031 -0.1084
  480MOL0     C66142   5.254   5.799   3.293 -0.5135  0.0698 -0.3063
  480MOL0     C66143   5.163   5.679   3.313 -0.2826 -0.3656  0.2566
  480MOL0     C66144   5.012   5.708   3.311  0.1826  0.2966  0.1291
  480MOL0     C66145   4.923   5.589   3.352 -0.3348 -0.4698  1.0188
  480MOL0     C66146   4.786   5.637   3.374  0.5666 -0.8934 -0.1621
  480MOL0    Cl66147   4.764   5.703   3.537  0.0563 -0.1252  0.3909
  480MOL0     C66148   5.125   5.959   2.867  0.4348 -0.4079  0.1063
  480MOL0     C66149   4.993   5.934   2.829 -0.0643 -0.2172  0.4143
  480MOL0     O66150   4.755   6.146   2.667 -0.4213  0.3434  0.4489
  480MOL0     C66151   4.482   5.956   2.792  0.3660 -0.1321 -0.0838
  480MOL0     C66152   4.345   5.937   2.789 -0.3055  0.4752 -0.3349
  480MOL0     N66153   3.626   6.199   2.533  0.0782 -0.6902 -0.0464
  480MOL0     N66154   3.536   6.216   2.444  0.5712 -0.1169  0.2309
  480MOL0     C66155   2.365   5.601   2.484  0.8202  0.0715  0.2040
  480MOL0     C66156   2.253   5.538   2.437 -0.0578  0.5386 -0.1525
  480MOL0     C66157   1.879   5.366   2.264  0.1821  0.0222 -0.5366
  480MOL0     C66158   1.854   5.379   2.122  0.2178 -0.4238  0.3759
  480MOL0     C66159   1.726   5.344   2.074  1.4105  0.8591 -0.5755
  480MOL0     C66160   1.620   5.305   2.166  0.1139 -0.8523 -0.4090
  480MOL0     O66161   1.498   5.259   2.109 -0.1675  0.0973 -0.6562
  480MOL0     C66162   1.405   5.360   2.073 -0.2781  0.0569 -0.3703
  480MOL0     C66163   1.335   5.403   2.197  0.5062 -0.0843  0.2535
  480MOL0     C66164   1.262   5.290   2.280  0.1854 -0.7195  0.4007
  480MOL0     C66165   1.203   5.339   2.406 -0.0135 -0.0213 -1.0218
  480MOL0     C66166   1.311   5.380   2.501  0.6205 -0.2669  0.0180
  480MOL0     C66167   1.395   5.413   2.587  0.4894 -0.0726 -0.0459
  480MOL0     C66168   1.648   5.307   2.303  0.2152  0.7131 -0.5661
  480MOL0     C66169   1.776   5.325   2.352  0.5024 -1.0408  0.0536
  480MOL0     C66170   1.778   5.335   2.502  0.4728 -0.0175 -0.0258
  480MOL0     H66171   2.177   5.721   2.170  0.2488 -1.3833 -0.8482
  480MOL0     H66172   2.387   5.834   2.240 -0.8585  1.7873  1.9929
  480MOL0     H66173   2.589   5.935   2.334  0.5912 -0.6783 -2.9772
  480MOL0     H66174   2.622   5.784   2.267 -3.4740  1.2465 -0.8689
  480MOL0     H66175   2.747   5.940   2.498  1.5777 -1.4359  2.7533
  480MOL0     H66176   2.780   5.765   2.491  0.7964  0.5651  0.3843
  480MOL0     H66177   2.871   5.789   2.259 -0.3470  0.4991 -0.9008
  480MOL0     H66178   2.858   5.964   2.269  1.4710 -0.7428 -0.9886
  480MOL0     H66179   2.987   5.926   2.496  1.9257 -3.2321  1.4941
  480MOL0     H66180   3.039   5.772   2.419  1.4820  0.1406  2.6433
  480MOL0     H66181   3.077   6.058   2.328 -2.4024 -0.3914  0.7624
  480MOL0     H66182   3.081   5.927   2.212 -1.3508  0.8099 -0.0266
  480MOL0     H66183   3.259   5.961   2.457 -4.1458 -1.7179  2.0904
  480MOL0     H66184   3.254   5.815   2.364 -0.4711  0.3981  1.1991
  480MOL0     H66185   3.302   5.958   2.142  0.2432 -0.6903  0.1855
  480MOL0     H66186   3.417   5.882   2.240 -0.8807 -1.5259 -0.9037
  480MOL0     H66187   3.480   6.115   2.173 -2.0516  0.4748 -1.4385
  480MOL0     H66188   3.340   6.179   2.267 -0.9429 -0.9658 -2.1988
  480MOL0     H66189   3.565   5.893   2.424 -2.3150 -0.8051 -0.3817
  480MOL0     H66190   3.705   5.888   2.664  0.3438  0.4313 -1.3610
  480MOL0     H66191   3.702   6.039   2.750 -0.2885  0.2678  0.0588
  480MOL0     H66192   3.888   6.080   2.533  3.2060  1.0852  1.5354
  480MOL0     H66193   3.919   6.057   2.713  1.7207 -0.7646  0.3041
  480MOL0     H66194   3.916   5.800   2.668 -3.2440  2.7472  2.1966
  480MOL0     H66195   3.886   5.832   2.500  0.3631 -0.2800 -0.6178
  480MOL0     H66196   4.132   5.793   2.553  0.1442  0.3564 -3.0464
  480MOL0     H66197   4.095   5.947   2.481 -0.4761 -1.4754 -0.9481
  480MOL0     H66198   4.272   6.062   2.488 -1.2228  0.2214  2.0762
  480MOL0     H66199   4.477   6.123   2.365 -2.8543 -0.0641  1.0869
  480MOL0     H66200   4.637   6.094   2.440  0.5946  2.1781 -0.0243
  480MOL0     H66201   4.542   6.235   2.482  0.3518  0.3816 -0.9201
  480MOL0     H66202   4.828   6.214   2.946  1.9156  1.0441 -0.2035
  480MOL0     H66203   5.050   6.267   3.004 -0.6830 -1.2245  0.0692
  480MOL0     H66204   5.378   5.946   2.927  2.7478  1.5710 -1.3683
  480MOL0     H66205   5.472   6.073   3.007  0.8734 -0.3365 -1.9732
  480MOL0     H66206   5.441   5.933   3.189 -0.1829 -1.9077 -3.6425
  480MOL0     H66207   5.307   6.048   3.222  2.0813  0.5325  2.0332
  480MOL0     H66208   5.255   5.787   3.074 -3.1380 -1.0427 -0.0988
  480MOL0     H66209   5.144   5.896   3.145 -1.4220 -1.9948  0.3333
  480MOL0     H66210   5.225   5.878   3.362  0.6796 -0.2450  0.5770
  480MOL0     H66211   5.357   5.776   3.321 -0.4950  2.2479  1.6890
  480MOL0     H66212   5.186   5.598   3.244 -0.8705  0.1933 -0.6158
  480MOL0     H66213   5.188   5.639   3.412 -0.5910 -2.2795 -0.3999
  480MOL0     H66214   4.976   5.735   3.211  1.9864  0.4239 -0.5277
  480MOL0     H66215   4.990   5.789   3.381  0.0661 -0.0902  0.5476
  480MOL0     H66216   4.964   5.542   3.441  0.0343 -0.7292  0.7145
  480MOL0     H66217   4.923   5.525   3.263 -0.6870  3.1729 -1.8452
  480MOL0     H66218   4.721   5.550   3.365 -0.0576 -0.3851 -0.6267
  480MOL0     H66219   4.749   5.707   3.299  4.1809  0.7031 -0.6651
  480MOL0     H66220   5.200   5.895   2.822 -1.1715 -1.1925 -1.5762
  480MOL0     H66221   4.963   5.842   2.779  1.2415 -1.3501  1.6364
  480MOL0     H66222   4.525   5.924   2.887 -3.6505  0.5359  2.2302
  480MOL0     H66223   4.298   5.895   2.877  1.0133  0.4336  0.3872
  480MOL0     H66224   2.406   5.563   2.577  0.0043 -1.4856 -0.0537
  480MOL0     H66225   2.219   5.456   2.500 -1.4374  0.2636 -1.2070
  480MOL0     H66226   1.931   5.408   2.052 -1.3803  0.6872 -1.0063
  480MOL0     H66227   1.715   5.332   1.967  0.6018 -0.4091 -0.3675
  480MOL0     H66228   1.452   5.442   2.018 -0.6005  0.8643  0.5104
  480MOL0     H66229   1.341   5.307   2.002  0.2615 -1.7702  0.4404
  480MOL0     H66230   1.264   5.484   2.180 -2.1372 -2.3132 -0.0504
  480MOL0     H66231   1.419   5.438   2.259  0.6483  0.9929 -0.5204
  480MOL0     H66232   1.188   5.261   2.205 -0.6094  1.1110  0.4011
  480MOL0     H66233   1.324   5.204   2.306  1.6316 -0.5310 -2.1655
  480MOL0     H66234   1.151   5.251   2.447 -1.6023 -0.1980 -3.2607
  480MOL0     H66235   1.136   5.422   2.383 -0.4659 -0.0341  0.1905
  480MOL0     H66236   1.467   5.445   2.659 -1.8855  3.4401  1.0148
  480MOL0     H66237   1.564   5.279   2.365 -0.2408 -1.8082 -2.1748
  480MOL0     H66238   1.807   5.438   2.526 -2.8139  1.3535 -1.2654
  480MOL0     H66239   1.678   5.320   2.545  1.3915 -0.1291  2.1920
  480MOL0     H66240   1.852   5.266   2.543  1.9845 -0.2626 -2.9399
  481MOL0     O66241   5.372   8.558   0.754  0.0643  0.5271  0.0598
  481MOL0     C66242   5.263   8.500   0.738  0.4850  0.5080  0.3980
  481MOL0     O66243   5.246   8.367   0.694 -0.6508 -0.1550 -0.5269
  481MOL0     C66244   5.361   8.295   0.711  0.2265 -0.5188  0.7304
  481MOL0     C66245   5.469   8.312   0.624  0.2631 -0.8636 -0.0598
  481MOL0     C66246   5.587   8.232   0.652  0.6589  0.1328  0.6205
  481MOL0     C66247   5.606   8.155   0.763  0.1076  0.3969  0.8418
  481MOL0     O66248   5.718   8.073   0.788  0.1882 -0.0230  0.5761
  481MOL0     C66249   5.843   8.152   0.768  0.4323  0.0056  0.4566
  481MOL0     C66250   5.886   8.196   0.904  0.1660  0.2082 -0.6433
  481MOL0     C66251   5.938   8.339   0.905  0.2811 -0.5519 -0.8035
  481MOL0     C66252   6.025   8.360   1.043 -0.2534 -0.2986  0.7503
  481MOL0     C66253   6.078   8.504   1.063  0.7349  0.6156  0.1738
  481MOL0     C66254   6.162   8.509   1.194  0.6019 -0.6685 -0.1457
  481MOL0     C66255   6.191   8.652   1.229  0.6259  0.1463  0.3519
  481MOL0     C66256   6.276   8.670   1.353 -0.6248 -0.2186 -0.5536
  481MOL0     N66257   6.339   8.802   1.345 -0.5535  0.4216 -0.6500
  481MOL0     C66258   6.279   8.928   1.346 -0.4919 -0.0138  0.3107
  481MOL0     C66259   6.384   9.018   1.347 -0.0243 -0.1083  0.2810
  481MOL0     C66260   6.377   9.159   1.346  0.3200 -0.7259 -1.1657
  481MOL0     C66261   6.290   9.225   1.240 -0.4645 -0.0705 -0.1144
  481MOL0     C66262   6.254   9.372   1.266  0.4058  0.4883  0.3311
  481MOL0     C66263   6.369   9.477   1.244 -0.4628 -0.0060 -0.0454
  481MOL0     O66264   6.399   9.487   1.103 -0.3663 -0.2424 -0.2592
  481MOL0     C66265   6.508   9.564   1.059  0.1240  0.4756 -0.3930
  481MOL0     C66266   6.595   9.635   1.138  1.2158  0.2383  0.2161
  481MOL0     C66267   6.695   9.714   1.083  0.0211  0.0146 -0.4853
  481MOL0     C66268   6.769   9.803   1.184 -0.5896  0.2741 -0.2166
  481MOL0     C66269   6.729   9.697   0.945  0.0800  0.4137  0.1249
  481MOL0     C66270   6.865   9.753   0.884 -0.3279 -0.2520 -0.4846
  481MOL0     O66271   6.883   9.691   0.756 -0.7708 -0.5406  0.3884
  481MOL0     C66272   6.994   9.730   0.682 -0.0417 -0.4299 -0.0433
  481MOL0     C66273   6.999   9.851   0.619 -0.0154 -1.4509 -0.3270
  481MOL0     C66274   7.104   9.879   0.534 -0.2815 -0.7709  1.0753
  481MOL0     C66275   7.213   9.797   0.519  0.3195  0.6173 -0.5834
  481MOL0     O66276   7.318   9.821   0.445  0.2909 -0.3963  0.1793
  481MOL0     C66277   7.335   9.940   0.377 -0.3166 -0.2660  1.0307
  481MOL0     C66278   7.487   9.938   0.327  0.3081  0.9681 -0.1839
  481MOL0     C66279   7.521  10.068   0.250 -0.5822 -0.0309 -1.0600
  481MOL0     C66280   7.658  10.051   0.175 -0.0195 -0.0766  0.0266
  481MOL0     C66281   7.680  10.164   0.069  0.4282  0.2835 -0.6699
  481MOL0     C66282   7.809  10.168  -0.008  0.1077 -0.4946  0.4433
  481MOL0     C66283   7.846  10.315  -0.044  0.2006 -1.0500  0.4223
  481MOL0     C66284   7.946  10.329  -0.168  1.1240 -0.5791  0.6563
  481MOL0    Cl66285   7.890  10.270  -0.327 -0.1110  0.0912 -0.4467
  481MOL0     C66286   7.213   9.679   0.596 -0.7357 -0.2515 -0.4630
  481MOL0     C66287   7.103   9.639   0.672  0.2133  0.3215 -0.2056
  481MOL0     O66288   6.935   9.841   0.940 -0.1457 -0.3097 -0.8001
  481MOL0     C66289   6.638   9.626   0.867 -0.5396  0.4169  0.3199
  481MOL0     C66290   6.531   9.561   0.924 -0.8414  0.1379  0.0720
  481MOL0     N66291   6.503   8.945   1.355 -0.4825 -0.4613 -0.0305
  481MOL0     N66292   6.474   8.817   1.352 -0.1496 -0.5502 -0.8689
  481MOL0     C66293   5.494   8.131   0.835 -0.6151 -0.3235 -1.0594
  481MOL0     C66294   5.376   8.207   0.818  0.4589  0.8205 -0.0959
  481MOL0     C66295   5.138   8.576   0.738 -0.9015 -0.2291 -0.1332
  481MOL0     C66296   5.035   8.526   0.656 -0.2178  0.2576  0.7164
  481MOL0     C66297   4.911   8.589   0.649 -0.2769 -0.5503  0.8298
  481MOL0     C66298   4.886   8.703   0.723  0.7844 -0.2826  0.3507
  481MOL0     O66299   4.761   8.772   0.723 -0.0562 -0.7146 -0.2663
  481MOL0     C66300   4.643   8.729   0.647 -0.9280  0.8008  0.3877
  481MOL0     C66301   4.638   8.809   0.520  0.8529  0.1432 -0.4471
  481MOL0     C66302   4.500   8.811   0.450  0.4691 -0.7340 -0.4707
  481MOL0     C66303   4.419   8.936   0.497  0.1226  0.1111  0.1805
  481MOL0     C66304   4.370   8.941   0.639  0.5001  0.1612  0.1653
  481MOL0     C66305   4.342   8.957   0.757  0.6189 -0.1412  0.8041
  481MOL0     C66306   4.988   8.756   0.802 -0.6374 -0.0227 -0.4725
  481MOL0     C66307   5.114   8.694   0.809 -0.0956  0.2821 -0.2373
  481MOL0     C66308   5.209   8.755   0.912 -0.0328 -0.8305 -0.2093
  481MOL0     H66309   5.463   8.369   0.532  2.8801 -0.3007  0.0491
  481MOL0     H66310   5.660   8.239   0.572 -1.3985 -1.1954 -1.4779
  481MOL0     H66311   5.830   8.243   0.709 -1.9596  0.4762  1.5753
  481MOL0     H66312   5.916   8.081   0.731 -0.4030 -0.5712 -0.1249
  481MOL0     H66313   5.796   8.181   0.964  0.4143  0.3366 -0.2350
  481MOL0     H66314   5.966   8.129   0.937  3.3196  3.2637 -1.4835
  481MOL0     H66315   6.006   8.358   0.821  0.4091  1.8694 -0.2306
  481MOL0     H66316   5.850   8.403   0.904 -0.6728 -1.5467  3.1885
  481MOL0     H66317   5.957   8.329   1.123 -1.6289 -0.2748 -0.3539
  481MOL0     H66318   6.111   8.293   1.043  0.5057  0.4222 -3.1905
  481MOL0     H66319   5.980   8.550   1.079 -0.6297 -1.6407 -1.2039
  481MOL0     H66320   6.127   8.549   0.977 -1.2583  0.8207 -0.9100
  481MOL0     H66321   6.106   8.457   1.272 -1.3666 -0.2042 -1.1875
  481MOL0     H66322   6.253   8.455   1.167  0.7082  0.5725 -2.6202
  481MOL0     H66323   6.100   8.706   1.256 -0.1214 -1.6652  1.6109
  481MOL0     H66324   6.237   8.689   1.137 -0.4357  1.4553  0.3144
  481MOL0     H66325   6.204   8.674   1.435 -2.7652  0.6797 -2.3696
  481MOL0     H66326   6.348   8.589   1.365 -0.5953  0.0940  1.6990
  481MOL0     H66327   6.172   8.947   1.349 -0.3250  1.0313 -0.0417
  481MOL0     H66328   6.479   9.199   1.347  0.3039 -0.2505  3.4629
  481MOL0     H66329   6.342   9.188   1.446  4.9087 -0.9098  0.7494
  481MOL0     H66330   6.331   9.205   1.141 -2.3402 -0.9677 -0.7564
  481MOL0     H66331   6.191   9.178   1.242 -1.1541  1.2658  2.6281
  481MOL0     H66332   6.166   9.393   1.204 -2.0496 -1.1569  3.0199
  481MOL0     H66333   6.222   9.388   1.369 -1.7698  2.6552 -0.5703
  481MOL0     H66334   6.338   9.577   1.275  1.7205  0.2373  1.5666
  481MOL0     H66335   6.461   9.451   1.297 -0.3526 -1.8203 -1.0320
  481MOL0     H66336   6.569   9.635   1.243 -3.4481 -1.4814 -0.7266
  481MOL0     H66337   6.823   9.731   1.246  0.2250  0.6211 -0.5224
  481MOL0     H66338   6.700   9.851   1.254  0.4799  0.4879  0.7215
  481MOL0     H66339   6.835   9.880   1.144  1.3755 -1.5211 -0.6268
  481MOL0     H66340   6.930   9.934   0.631  0.2097 -1.1641 -0.9494
  481MOL0     H66341   7.095   9.962   0.463  0.8969  1.7997  3.7323
  481MOL0     H66342   7.271   9.950   0.288 -1.8618 -0.0284  2.1213
  481MOL0     H66343   7.316  10.024   0.444 -1.5299  0.9314 -0.7358
  481MOL0     H66344   7.547   9.919   0.416  0.9459 -0.4263 -0.8688
  481MOL0     H66345   7.510   9.857   0.257  1.2445 -1.1436  2.4023
  481MOL0     H66346   7.528  10.146   0.326 -1.1699 -0.1461 -0.8846
  481MOL0     H66347   7.441  10.095   0.180 -2.2209 -2.8326 -0.4057
  481MOL0     H66348   7.646   9.956   0.123 -3.3697 -1.0098  2.2014
  481MOL0     H66349   7.742  10.039   0.245 -0.0897 -1.1823 -0.0676
  481MOL0     H66350   7.593  10.150   0.004 -0.4068  1.2583  0.1995
  481MOL0     H66351   7.671  10.260   0.120 -1.8375 -0.9508  1.4684
  481MOL0     H66352   7.789  10.112  -0.100  0.6169  0.5232 -0.3076
  481MOL0     H66353   7.894  10.117   0.038  1.8532 -1.0931 -3.1279
  481MOL0     H66354   7.884  10.363   0.046  0.5629 -1.8833  0.7147
  481MOL0     H66355   7.760  10.374  -0.079  1.2174 -0.3941 -1.0792
  481MOL0     H66356   8.034  10.271  -0.137  1.3522 -0.4609  0.2275
  481MOL0     H66357   7.980  10.433  -0.170  0.4551 -0.3383  1.2672
  481MOL0     H66358   7.296   9.610   0.584  0.5393  0.8285  1.4823
  481MOL0     H66359   7.104   9.541   0.718  0.3792  0.8184  0.8939
  481MOL0     H66360   6.639   9.610   0.759  0.8815  4.1450 -0.3478
  481MOL0     H66361   6.461   9.510   0.859 -0.0967 -0.6294 -0.1508
  481MOL0     H66362   5.495   8.056   0.914 -0.7839  0.3945 -0.3604
  481MOL0     H66363   5.293   8.184   0.883  0.5522 -0.7148 -0.4849
  481MOL0     H66364   5.051   8.440   0.591  2.3082  0.4760  0.9510
  481MOL0     H66365   4.836   8.554   0.579  1.1856 -0.3803 -0.8983
  481MOL0     H66366   4.645   8.622   0.622 -0.4231  1.3411 -2.1733
  481MOL0     H66367   4.555   8.742   0.711 -0.3451  0.6433  1.2428
  481MOL0     H66368   4.713   8.767   0.451  1.8262  0.5010  0.3604
  481MOL0     H66369   4.666   8.913   0.541 -1.3958  0.5606  0.7011
  481MOL0     H66370   4.513   8.832   0.343  1.6604  1.6205  0.0828
  481MOL0     H66371   4.444   8.717   0.457 -0.3678 -0.1863  0.6789
  481MOL0     H66372   4.332   8.945   0.431  1.3105 -1.8417 -1.8251
  481MOL0     H66373   4.481   9.025   0.487  0.7179 -0.1263  1.5702
  481MOL0     H66374   4.306   8.977   0.856 -1.8819  2.8488 -0.5673
  481MOL0     H66375   4.970   8.849   0.855  1.9721  0.4792 -0.3410
  481MOL0     H66376   5.259   8.674   0.966  0.5104  0.4749  1.3278
  481MOL0     H66377   5.289   8.810   0.862 -1.1910  1.3277  0.1598
  481MOL0     H66378   5.155   8.823   0.980  2.8997  1.1725  0.2970
  482MOL0     O66379   1.065  10.584   0.256  0.0440  0.1461 -0.6383
  482MOL0     C66380   1.065  10.632   0.143 -0.8149 -0.0855  0.0066
  482MOL0     O66381   1.177  10.680   0.081 -0.3623 -1.2300  0.0813
  482MOL0     C66382   1.289  10.687   0.151  0.6342  0.1252 -0.4763
  482MOL0     C66383   1.407  10.643   0.088  0.3518  1.1974 -0.0782
  482MOL0     C66384   1.530  10.665   0.152 -0.0489 -0.5342 -0.2941
  482MOL0     C66385   1.535  10.744   0.274  0.6104 -0.2219 -0.4400
  482MOL0     O66386   1.648  10.792   0.336  0.1289 -0.0673  0.4257
  482MOL0     C66387   1.758  10.698   0.342  0.9025 -0.0796 -0.0978
  482MOL0     C66388   1.837  10.728   0.464  0.9036 -0.1638  0.1628
  482MOL0     C66389   1.969  10.638   0.482  0.6475 -0.0359  0.9153
  482MOL0     C66390   2.087  10.672   0.388  0.1511  0.9399 -0.1477
  482MOL0     C66391   2.179  10.550   0.383  0.0612  0.3557  0.9169
  482MOL0     C66392   2.275  10.544   0.499 -0.9767  0.3400 -0.4125
  482MOL0     C66393   2.399  10.447   0.481  0.0625  0.1830  0.9926
  482MOL0     C66394   2.453  10.385   0.618  0.0713 -0.2948  0.0712
  482MOL0     N66395   2.590  10.344   0.612 -0.4915 -1.0604  0.2031
  482MOL0     C66396   2.693  10.434   0.582  0.0072 -0.0466 -0.6819
  482MOL0     C66397   2.801  10.350   0.570 -0.4933  0.3089  0.0209
  482MOL0     C66398   2.944  10.392   0.536  0.6263 -0.5929  0.1387
  482MOL0     C66399   2.987  10.339   0.399  0.2472 -0.3987 -0.2111
  482MOL0     C66400   3.018  10.190   0.403 -0.4117  0.2311  0.5900
  482MOL0     C66401   3.149  10.152   0.469 -0.4792  0.3191 -0.0681
  482MOL0     O66402   3.268  10.199   0.402  0.2821  0.0819 -0.5991
  482MOL0     C66403   3.387  10.127   0.419  0.5043  0.4826 -0.8936
  482MOL0     C66404   3.410  10.013   0.492  0.1443  0.1210 -0.4316
  482MOL0     C66405   3.541   9.950   0.501 -0.6548  0.6870  0.8276
  482MOL0     C66406   3.542   9.827   0.584 -0.0461 -0.0857  0.0062
  482MOL0     C66407   3.650  10.010   0.440 -0.1367 -0.2764  0.4984
  482MOL0     C66408   3.783   9.944   0.422  0.4384 -0.1347 -0.3550
  482MOL0     O66409   3.795   9.821   0.474 -0.2384  0.2186  0.0336
  482MOL0     C66410   3.911   9.750   0.447 -0.1008 -0.7930 -0.4078
  482MOL0     C66411   4.022   9.776   0.527 -0.2502  0.2800 -1.2581
  482MOL0     C66412   4.143   9.707   0.511 -0.7753 -0.5177  0.0502
  482MOL0     C66413   4.152   9.607   0.400 -0.2228  0.5514  0.2068
  482MOL0     O66414   4.272   9.537   0.391 -0.4531 -0.0417 -0.2087
  482MOL0     C66415   4.272   9.411   0.323  0.6894 -0.0066 -0.3677
  482MOL0     C66416   4.422   9.366   0.309  0.0092 -0.0659  0.3561
  482MOL0     C66417   4.487   9.300   0.429 -0.2680 -0.5562 -0.8150
  482MOL0     C66418   4.559   9.396   0.515 -0.7218 -0.0937  0.4692
  482MOL0     C66419   4.641   9.314   0.621 -0.3842  0.1385  0.2763
  482MOL0     C66420   4.755   9.230   0.543 -0.4849 -0.2109  0.1955
  482MOL0     C66421   4.872   9.186   0.634 -0.5291 -0.1706  0.1662
  482MOL0     C66422   4.966   9.079   0.572 -0.4250 -0.6651 -0.6271
  482MOL0    Cl66423   5.048   9.143   0.431  0.4294 -0.0106 -0.0767
  482MOL0     C66424   4.041   9.598   0.309  0.2010 -0.8202  0.0380
  482MOL0     C66425   3.921   9.664   0.338  0.0741 -0.1337  0.2341
  482MOL0     O66426   3.867  10.004   0.358 -0.4632  0.1123  0.2943
  482MOL0     C66427   3.628  10.131   0.378 -0.5040  0.2627  0.5931
  482MOL0     C66428   3.497  10.185   0.365  0.0373 -0.0278  0.9584
  482MOL0     N66429   2.748  10.220   0.588  0.4771 -0.4650  0.0260
  482MOL0     N66430   2.629  10.214   0.619 -0.0326 -0.2455  0.0959
  482MOL0     C66431   1.419  10.786   0.338 -0.3733  0.1072  0.6895
  482MOL0     C66432   1.296  10.760   0.271  0.0994 -0.3474 -0.4965
  482MOL0     C66433   0.939  10.659   0.069 -0.6711  0.1736 -1.3834
  482MOL0     C66434   0.951  10.693  -0.059  0.4287 -0.7143 -0.2941
  482MOL0     C66435   0.849  10.693  -0.152  0.2773  0.2602 -0.1955
  482MOL0     C66436   0.717  10.672  -0.099 -0.1276  0.1839 -0.5373
  482MOL0     O66437   0.611  10.677  -0.183 -0.4282  0.4951 -0.2099
  482MOL0     C66438   0.477  10.631  -0.144 -0.3890  0.2322 -0.2323
  482MOL0     C66439   0.386  10.672  -0.256 -0.2290 -0.5437  0.2783
  482MOL0     C66440   0.238  10.648  -0.207 -0.0172 -1.1324  0.0610
  482MOL0     C66441   0.140  10.679  -0.325 -0.6908 -0.6347 -0.0012
  482MOL0     C66442   0.020  10.605  -0.301  0.1006 -0.6670 -0.6160
  482MOL0     C66443  -0.090  10.548  -0.279 -0.1037 -0.0421 -0.1956
  482MOL0     C66444   0.700  10.643   0.038  0.1085 -0.3279  0.1265
  482MOL0     C66445   0.808  10.630   0.120  1.0709  0.0183 -1.6334
  482MOL0     C66446   0.779  10.585   0.265 -0.3428 -0.8703 -0.4154
  482MOL0     H66447   1.413  10.589  -0.006  4.1797 -2.9148  2.1243
  482MOL0     H66448   1.618  10.631   0.099  0.8328  0.6232  0.3782
  482MOL0     H66449   1.815  10.692   0.249 -3.0597  1.5328 -2.9254
  482MOL0     H66450   1.709  10.602   0.361  0.1459  0.1688 -0.7218
  482MOL0     H66451   1.873  10.831   0.467  2.4848 -0.6878  3.7542
  482MOL0     H66452   1.774  10.712   0.551  1.2805  1.0121  0.6817
  482MOL0     H66453   2.012  10.639   0.583  1.6827 -0.3666  0.4981
  482MOL0     H66454   1.941  10.533   0.466 -0.2607 -0.0005  2.1432
  482MOL0     H66455   2.057  10.696   0.286 -0.0713  0.0161 -0.3136
  482MOL0     H66456   2.129  10.759   0.439  0.6806 -0.0126  1.1231
  482MOL0     H66457   2.232  10.556   0.288 -0.9538  2.7495  0.4348
  482MOL0     H66458   2.126  10.454   0.391  2.2058 -0.9475  0.1006
  482MOL0     H66459   2.318  10.645   0.500  3.5341 -1.3349  0.7339
  482MOL0     H66460   2.217  10.516   0.587 -1.5654  0.6014 -0.7193
  482MOL0     H66461   2.480  10.508   0.439  2.2036 -1.1515  2.9066
  482MOL0     H66462   2.372  10.364   0.415  4.1241 -1.9861  1.7034
  482MOL0     H66463   2.454  10.460   0.698 -0.2252 -0.4181  0.1901
  482MOL0     H66464   2.387  10.308   0.657 -0.8205  0.7560  0.6988
  482MOL0     H66465   2.693  10.541   0.564  0.5544 -0.3518 -2.8250
  482MOL0     H66466   3.019  10.368   0.612  1.9225  0.5009 -0.7503
  482MOL0     H66467   2.949  10.501   0.538 -0.2830 -0.5504  1.0029
  482MOL0     H66468   2.907  10.358   0.327 -1.3907 -0.4729  1.4967
  482MOL0     H66469   3.070  10.398   0.360 -1.7054  1.6423 -1.5435
  482MOL0     H66470   2.937  10.125   0.437 -0.7866 -0.5109 -1.6053
  482MOL0     H66471   3.016  10.154   0.300 -0.8994  0.9263  0.3523
  482MOL0     H66472   3.145  10.197   0.569 -1.9361 -1.1807  0.5926
  482MOL0     H66473   3.153  10.042   0.473  3.3668  0.3558  2.0859
  482MOL0     H66474   3.334   9.954   0.543  3.8795 -2.8261  2.2892
  482MOL0     H66475   3.609   9.830   0.670  1.1592 -0.2332 -0.9040
  482MOL0     H66476   3.572   9.750   0.513 -1.4121 -0.6156 -0.0376
  482MOL0     H66477   3.446   9.798   0.627  0.6530 -0.1644  1.5756
  482MOL0     H66478   4.027   9.859   0.598 -1.4538 -0.9624  0.3600
  482MOL0     H66479   4.234   9.719   0.570 -1.0541 -2.2807  0.9111
  482MOL0     H66480   4.229   9.346   0.400  1.3268 -0.4576 -0.3871
  482MOL0     H66481   4.221   9.399   0.227  0.6095 -1.2655 -0.1877
  482MOL0     H66482   4.440   9.302   0.222 -0.0161 -0.5800  0.7184
  482MOL0     H66483   4.469   9.459   0.277 -0.8940 -0.4366 -2.3370
  482MOL0     H66484   4.551   9.226   0.379 -0.3497 -1.0234 -0.2390
  482MOL0     H66485   4.419   9.248   0.497  0.4855 -2.3881 -1.4097
  482MOL0     H66486   4.485   9.460   0.563  0.7779  0.3696  2.2939
  482MOL0     H66487   4.632   9.455   0.458  1.4946 -2.4529  0.6698
  482MOL0     H66488   4.682   9.382   0.696 -0.2871 -1.0685  1.3419
  482MOL0     H66489   4.568   9.254   0.676 -2.1938  2.4117  0.4940
  482MOL0     H66490   4.787   9.292   0.460 -1.5592  1.1431  0.7506
  482MOL0     H66491   4.699   9.142   0.508 -0.2036 -1.3451  2.3732
  482MOL0     H66492   4.831   9.142   0.725 -1.9920  2.2253  0.7800
  482MOL0     H66493   4.936   9.271   0.662  1.6949 -2.4515  2.5721
  482MOL0     H66494   4.916   8.987   0.538  0.7465 -0.4327 -3.1497
  482MOL0     H66495   5.043   9.053   0.644 -0.2718  0.4931 -0.3552
  482MOL0     H66496   4.031   9.522   0.233 -2.0608  1.3582 -2.0172
  482MOL0     H66497   3.832   9.650   0.277 -0.0097 -3.1412  0.9165
  482MOL0     H66498   3.709  10.189   0.335 -0.8292  1.4400  1.4904
  482MOL0     H66499   3.483  10.283   0.321 -1.2706 -0.3048  0.7187
  482MOL0     H66500   1.440  10.835   0.432  2.6493 -2.1128  1.3495
  482MOL0     H66501   1.201  10.805   0.300  0.1559  0.0819 -0.9716
  482MOL0     H66502   1.047  10.710  -0.108  0.4622  0.5257  0.1718
  482MOL0     H66503   0.860  10.701  -0.260  1.5241  0.2942 -0.0838
  482MOL0     H66504   0.477  10.523  -0.127  3.0086  0.2170  0.3335
  482MOL0     H66505   0.442  10.677  -0.052 -0.3207  1.7250 -0.9259
  482MOL0     H66506   0.410  10.612  -0.344 -1.8777 -2.2301  0.8951
  482MOL0     H66507   0.407  10.777  -0.277 -0.9266 -0.5236 -0.3989
  482MOL0     H66508   0.206  10.554  -0.161 -3.8939 -0.4017 -0.7910
  482MOL0     H66509   0.215  10.730  -0.139  0.2900  0.0843 -1.2543
  482MOL0     H66510   0.179  10.655  -0.424  1.9925 -0.9812  1.0515
  482MOL0     H66511   0.113  10.785  -0.326 -0.9392 -0.6677  1.2663
  482MOL0     H66512  -0.186  10.503  -0.266  0.0179 -0.0542  0.7402
  482MOL0     H66513   0.600  10.628   0.079 -0.1821  0.0784 -0.4256
  482MOL0     H66514   0.832  10.649   0.336  0.8224  0.2426 -2.2126
  482MOL0     H66515   0.672  10.587   0.291 -0.2947  1.5069 -0.1405
  482MOL0     H66516   0.810  10.481   0.267  2.7265 -0.0367  1.3792
  483MOL0     O66517   4.473   7.746   0.449 -0.1414  0.0645 -0.2778
  483MOL0     C66518   4.474   7.627   0.484  0.0265 -0.7063  0.0158
  483MOL0     O66519   4.587   7.552   0.485 -0.5111  0.5719 -0.7589
  483MOL0     C66520   4.692   7.585   0.406 -0.5190 -0.2830  1.1325
  483MOL0     C66521   4.820   7.555   0.442 -0.4873  0.6052 -0.6235
  483MOL0     C66522   4.930   7.581   0.372 -0.5347 -0.3189  0.2451
  483MOL0     C66523   4.926   7.627   0.236 -0.2763 -0.0173  0.0865
  483MOL0     O66524   5.037   7.646   0.152 -0.4157  0.0785  0.1680
  483MOL0     C66525   5.170   7.627   0.208  0.7228 -0.1448 -0.3813
  483MOL0     C66526   5.199   7.478   0.206  0.4756 -0.8205 -0.0214
  483MOL0     C66527   5.220   7.426   0.060 -0.2762  0.7356 -0.4014
  483MOL0     C66528   5.358   7.454  -0.011  0.4339 -0.5114  0.3486
  483MOL0     C66529   5.475   7.430   0.084 -0.4809  0.3456 -0.4057
  483MOL0     C66530   5.598   7.403   0.004 -0.5252 -0.5653 -0.0699
  483MOL0     C66531   5.717   7.379   0.110  0.5378 -0.5046  0.5560
  483MOL0     C66532   5.850   7.363   0.042  0.4200  0.0090  1.0412
  483MOL0     N66533   5.969   7.410   0.117  0.0653  0.2805  0.1008
  483MOL0     C66534   6.007   7.374   0.244  0.4783 -0.3386 -0.3861
  483MOL0     C66535   6.114   7.452   0.279  0.9896  0.7544  0.7229
  483MOL0     C66536   6.193   7.452   0.405  0.4513  0.1869  0.2797
  483MOL0     C66537   6.192   7.312   0.473  0.3666 -0.8119 -0.6621
  483MOL0     C66538   6.298   7.226   0.406  0.4893 -0.6214  0.3857
  483MOL0     C66539   6.300   7.087   0.482  0.2145 -0.7225  0.7186
  483MOL0     O66540   6.388   6.993   0.420  0.8364 -0.7414  0.7125
  483MOL0     C66541   6.521   7.002   0.425  0.6949  0.0225 -0.5844
  483MOL0     C66542   6.582   7.006   0.554 -0.0548 -0.2246 -0.3509
  483MOL0     C66543   6.722   7.012   0.556 -0.1399 -0.5035  0.2357
  483MOL0     C66544   6.771   7.015   0.700 -0.4936 -0.0197  0.1309
  483MOL0     C66545   6.799   6.997   0.436  0.4741 -0.1676 -0.6804
  483MOL0     C66546   6.945   6.995   0.441 -0.0848  0.0294 -0.2227
  483MOL0     O66547   7.011   7.026   0.328 -0.0014 -0.2629 -0.2067
  483MOL0     C66548   7.139   6.980   0.328 -0.3684 -0.3304 -0.4206
  483MOL0     C66549   7.239   7.072   0.319 -0.3795  0.4795 -0.6357
  483MOL0     C66550   7.378   7.037   0.323  0.3886  0.0877  0.0839
  483MOL0     C66551   7.421   6.904   0.349 -0.8668  1.2396 -0.5511
  483MOL0     O66552   7.554   6.868   0.363  0.5546 -0.8052 -0.4096
  483MOL0     C66553   7.589   6.745   0.428  0.0461 -0.5725  0.7953
  483MOL0     C66554   7.742   6.773   0.448  0.3428  0.3974  0.5246
  483MOL0     C66555   7.823   6.643   0.492  0.0979  1.1331  0.3654
  483MOL0     C66556   7.788   6.587   0.632  0.1834 -0.9328 -0.2066
  483MOL0     C66557   7.874   6.474   0.665  0.2239 -0.1220  0.3569
  483MOL0     C66558   7.835   6.412   0.798 -0.1388  0.4463  0.6216
  483MOL0     C66559   7.914   6.279   0.839 -0.1213  0.5042 -0.0913
  483MOL0     C66560   7.879   6.221   0.977  0.5808 -0.1208 -0.3575
  483MOL0    Cl66561   7.718   6.132   0.957 -0.2608 -0.1022  0.0641
  483MOL0     C66562   7.315   6.814   0.355  0.3374  0.7042  0.6242
  483MOL0     C66563   7.183   6.846   0.327  0.2715 -0.0685 -0.2937
  483MOL0     O66564   7.007   6.966   0.546  0.2429  0.7607 -0.2661
  483MOL0     C66565   6.734   6.991   0.312  0.8063 -0.5105 -0.4492
  483MOL0     C66566   6.592   6.994   0.310  0.0002  0.3022  0.3401
  483MOL0     N66567   6.145   7.523   0.161 -0.4126  0.1164  0.3271
  483MOL0     N66568   6.067   7.487   0.065  0.4243  0.2486 -0.4707
  483MOL0     C66569   4.793   7.661   0.193  0.1502 -0.7470  0.2908
  483MOL0     C66570   4.679   7.640   0.276  0.3653  0.9628 -0.2061
  483MOL0     C66571   4.354   7.568   0.541  0.1374 -0.1938 -0.0223
  483MOL0     C66572   4.253   7.656   0.579  0.1861 -0.4559 -0.0090
  483MOL0     C66573   4.123   7.615   0.609  0.3452  0.0830 -0.0205
  483MOL0     C66574   4.089   7.482   0.601 -0.8959  0.3810 -0.6626
  483MOL0     O66575   3.968   7.428   0.624  0.4354  0.0366 -0.1409
  483MOL0     C66576   3.871   7.469   0.719 -0.1899  0.1299  0.6288
  483MOL0     C66577   3.775   7.552   0.634 -0.1837 -0.3600  0.2346
  483MOL0     C66578   3.668   7.471   0.558  0.3693 -0.6040 -0.0445
  483MOL0     C66579   3.609   7.546   0.434 -0.1454 -0.0514 -0.4482
  483MOL0     C66580   3.552   7.679   0.472  0.6760 -0.3667 -0.0680
  483MOL0     C66581   3.494   7.782   0.495 -0.4212  0.1292 -0.6844
  483MOL0     C66582   4.183   7.394   0.552 -0.1272 -0.2031 -0.0271
  483MOL0     C66583   4.317   7.432   0.521 -0.4998 -1.0952  0.7083
  483MOL0     C66584   4.392   7.324   0.452 -0.8825  1.0521 -0.4667
  483MOL0     H66585   4.827   7.518   0.544  1.0383 -0.0045 -0.9279
  483MOL0     H66586   5.026   7.573   0.422  0.8098  2.0950 -1.7364
  483MOL0     H66587   5.174   7.679   0.304  0.0444  1.4435 -1.1775
  483MOL0     H66588   5.240   7.687   0.150  1.1430  3.7649  3.6550
  483MOL0     H66589   5.281   7.447   0.273  0.3452 -1.9087 -0.3499
  483MOL0     H66590   5.114   7.422   0.246 -0.4481  0.1126 -0.6351
  483MOL0     H66591   5.208   7.318   0.067 -0.8107  0.8840  1.3989
  483MOL0     H66592   5.143   7.468  -0.005 -1.6956  1.2819  1.5365
  483MOL0     H66593   5.367   7.394  -0.103  1.0321  0.4716 -0.2503
  483MOL0     H66594   5.365   7.557  -0.045  0.2897 -0.0288  1.7374
  483MOL0     H66595   5.445   7.339   0.136 -1.9769  0.4335 -1.0713
  483MOL0     H66596   5.496   7.512   0.153  0.2303  2.2922 -2.7944
  483MOL0     H66597   5.585   7.323  -0.068 -1.1318 -2.0895  1.6607
  483MOL0     H66598   5.626   7.490  -0.057 -0.8692  0.0991  0.6939
  483MOL0     H66599   5.689   7.292   0.170 -3.2250  1.4161  1.9611
  483MOL0     H66600   5.718   7.475   0.162 -0.7602 -1.0568  1.6743
  483MOL0     H66601   5.866   7.260   0.010 -2.7939  0.2524 -2.0241
  483MOL0     H66602   5.846   7.430  -0.045  0.7154  0.6779  1.5304
  483MOL0     H66603   5.955   7.304   0.309  0.5293 -0.0228 -0.0030
  483MOL0     H66604   6.151   7.532   0.466 -0.9282  1.3817 -2.0768
  483MOL0     H66605   6.297   7.479   0.385  0.8841 -1.8360 -0.4803
  483MOL0     H66606   6.214   7.326   0.579 -1.8797 -2.5292  0.1120
  483MOL0     H66607   6.092   7.268   0.471 -1.1318  2.3210 -1.7859
  483MOL0     H66608   6.268   7.197   0.305 -1.5953 -2.1439  1.3688
  483MOL0     H66609   6.399   7.268   0.398  1.1912 -2.4698 -1.8800
  483MOL0     H66610   6.324   7.115   0.585 -0.8506  0.4773  0.6657
  483MOL0     H66611   6.205   7.035   0.477  0.9152 -1.9508 -0.8508
  483MOL0     H66612   6.514   7.008   0.639  1.4504  0.8376  0.9142
  483MOL0     H66613   6.865   7.069   0.715 -0.1139 -0.0467 -1.8284
  483MOL0     H66614   6.772   6.910   0.731  0.6755  0.3420  1.4071
  483MOL0     H66615   6.698   7.067   0.763 -0.1335  1.9794 -1.0273
  483MOL0     H66616   7.215   7.176   0.339  2.5881  0.7952  2.2619
  483MOL0     H66617   7.443   7.122   0.308 -2.2768  1.7935 -3.0278
  483MOL0     H66618   7.530   6.732   0.519 -0.9312  1.4733  0.5091
  483MOL0     H66619   7.581   6.656   0.364 -0.2665 -0.8551  1.2155
  483MOL0     H66620   7.787   6.813   0.356  3.0203 -0.1122  1.5097
  483MOL0     H66621   7.749   6.849   0.527  1.0610 -1.2399  2.1225
  483MOL0     H66622   7.927   6.676   0.497  0.2708  0.7195 -0.2520
  483MOL0     H66623   7.819   6.556   0.425  0.5554 -0.2876  2.1002
  483MOL0     H66624   7.684   6.554   0.646 -0.7442  0.9126 -2.1058
  483MOL0     H66625   7.802   6.671   0.701  0.1373 -1.1016  0.0084
  483MOL0     H66626   7.870   6.393   0.591  1.9109 -1.0078  1.1830
  483MOL0     H66627   7.977   6.508   0.659 -0.3459  1.4762 -1.5152
  483MOL0     H66628   7.728   6.390   0.800 -0.2411  0.7413 -0.5329
  483MOL0     H66629   7.853   6.477   0.884  0.4571 -2.3883  2.7692
  483MOL0     H66630   8.019   6.310   0.841  0.8548 -1.8692 -3.6593
  483MOL0     H66631   7.907   6.195   0.769  3.0019 -2.0535  2.3827
  483MOL0     H66632   7.875   6.303   1.049  4.7521  1.3059 -1.5085
  483MOL0     H66633   7.972   6.170   1.003  2.9068  3.8255 -0.2707
  483MOL0     H66634   7.331   6.711   0.384 -1.5053  0.5143  1.0870
  483MOL0     H66635   7.104   6.772   0.336  1.9665 -1.8880  0.5182
  483MOL0     H66636   6.778   6.987   0.213 -2.7624 -0.9266 -2.2007
  483MOL0     H66637   6.547   6.980   0.212 -0.1583 -0.7947  0.5612
  483MOL0     H66638   4.780   7.709   0.096  1.9196  1.2189  0.9654
  483MOL0     H66639   4.582   7.664   0.232 -0.9238 -2.6712  0.3161
  483MOL0     H66640   4.275   7.760   0.604  0.0208 -0.6535  0.9573
  483MOL0     H66641   4.055   7.687   0.652  1.3654 -0.1015  2.0651
  483MOL0     H66642   3.815   7.386   0.764  1.4053 -0.5759  1.3777
  483MOL0     H66643   3.918   7.529   0.797  0.7712 -0.3621  0.4353
  483MOL0     H66644   3.834   7.604   0.558  1.0872 -1.2991  0.5454
  483MOL0     H66645   3.730   7.631   0.696  1.8376  2.5599 -1.7678
  483MOL0     H66646   3.712   7.380   0.517  0.3420 -0.7664  0.2937
  483MOL0     H66647   3.591   7.447   0.631 -1.8871  1.1000 -1.7051
  483MOL0     H66648   3.537   7.483   0.380 -1.2032  1.6900 -1.1501
  483MOL0     H66649   3.682   7.573   0.358  1.5886 -0.4458  1.0192
  483MOL0     H66650   3.452   7.870   0.537 -0.1866 -0.4826  0.8869
  483MOL0     H66651   4.166   7.288   0.536  2.2094 -0.7406  0.5809
  483MOL0     H66652   4.460   7.368   0.379  2.9810 -1.4995  1.2555
  483MOL0     H66653   4.449   7.273   0.530  0.2480  2.1265 -0.5557
  483MOL0     H66654   4.333   7.248   0.400 -0.6169 -0.8882  1.8746
  484MOL0     O66655   8.423   3.255   9.755 -0.0886  0.2380 -0.0671
  484MOL0     C66656   8.337   3.331   9.797 -0.1572  0.9421 -0.1749
  484MOL0     O66657   8.363   3.442   9.874 -0.0020 -0.0410 -0.7838
  484MOL0     C66658   8.496   3.496   9.897 -0.0553  0.8220 -0.9263
  484MOL0     C66659   8.511   3.628   9.935  0.9944 -0.5696 -0.2096
  484MOL0     C66660   8.630   3.679   9.988  0.6984 -0.0924  0.0528
  484MOL0     C66661   8.744   3.599   9.991 -0.9018  0.4261  0.2101
  484MOL0     O66662   8.860   3.653  10.055  0.4936 -0.3973  0.1757
  484MOL0     C66663   8.983   3.591  10.024 -0.3101 -0.7657  0.6558
  484MOL0     C66664   9.100   3.685  10.065 -0.2141  0.2219  0.5528
  484MOL0     C66665   9.240   3.622  10.062 -0.2298  0.4805 -0.1115
  484MOL0     C66666   9.350   3.720  10.095  0.8508 -0.8058  0.1831
  484MOL0     C66667   9.346   3.773  10.238  0.1594  0.6966 -0.0898
  484MOL0     C66668   9.451   3.878  10.292 -0.5724  0.0973 -0.5304
  484MOL0     C66669   9.473   3.987  10.187 -0.0766  0.2901 -0.6808
  484MOL0     C66670   9.537   4.112  10.246 -0.4386 -0.3221 -0.3555
  484MOL0     N66671   9.673   4.095  10.289  0.4421  0.0926 -0.2818
  484MOL0     C66672   9.721   4.012  10.389 -0.9786  0.0822 -1.4635
  484MOL0     C66673   9.854   4.028  10.376 -0.2207  0.5073  0.3052
  484MOL0     C66674   9.957   3.972  10.469  0.4856 -0.4726 -0.0213
  484MOL0     C66675  10.021   3.853  10.410  0.0363 -0.4371  0.3117
  484MOL0     C66676  10.117   3.799  10.502 -1.2457 -0.5745 -0.3258
  484MOL0     C66677  10.265   3.841  10.475 -0.2049 -0.3347  0.5484
  484MOL0     O66678  10.339   3.758  10.570  0.4113 -0.8767 -0.3291
  484MOL0     C66679  10.479   3.771  10.551 -0.6854  0.2405 -0.1889
  484MOL0     C66680  10.546   3.877  10.479 -0.5497 -0.2819 -0.6076
  484MOL0     C66681  10.680   3.885  10.456 -0.1299  1.2758 -0.3773
  484MOL0     C66682  10.725   3.989  10.359  0.4654 -0.7118 -0.9363
  484MOL0     C66683  10.760   3.788  10.515  0.4479  0.1297 -0.1337
  484MOL0     C66684  10.901   3.777  10.484  0.6618  0.6969 -0.6143
  484MOL0     O66685  10.950   3.649  10.485 -0.4313  0.9239  0.0973
  484MOL0     C66686  11.078   3.638  10.437  0.1260  0.7649  0.2256
  484MOL0     C66687  11.186   3.619  10.524 -0.0284 -0.1741 -0.5447
  484MOL0     C66688  11.318   3.619  10.470  0.1068  0.1459  0.0000
  484MOL0     C66689  11.343   3.627  10.335  0.0552  0.1743  0.3938
  484MOL0     O66690  11.477   3.624  10.305 -0.4767  0.3737 -0.1506
  484MOL0     C66691  11.510   3.682  10.170 -0.5699  0.7158 -0.0988
  484MOL0     C66692  11.664   3.697  10.163  0.8584 -0.4820 -0.4142
  484MOL0     C66693  11.708   3.789  10.275  0.3799  0.2648  0.1251
  484MOL0     C66694  11.852   3.852  10.253  1.2680 -0.3543 -0.1728
  484MOL0     C66695  11.887   3.962  10.356  0.2795 -0.3093  0.3066
  484MOL0     C66696  12.025   4.013  10.330 -0.2914  0.7257 -0.3593
  484MOL0     C66697  12.045   4.124  10.438  0.2122  0.2695  0.2686
  484MOL0     C66698  12.162   4.103  10.527 -0.0147  0.5347 -0.0154
  484MOL0    Cl66699  12.315   4.065  10.448 -0.0740  0.0456  0.4648
  484MOL0     C66700  11.237   3.633  10.243 -0.1431  0.1373 -0.1517
  484MOL0     C66701  11.101   3.649  10.300  0.6190 -0.2338  0.4911
  484MOL0     O66702  10.965   3.881  10.451  0.3888  0.5260  0.0676
  484MOL0     C66703  10.697   3.684  10.595 -1.2148  0.4263  0.1217
  484MOL0     C66704  10.562   3.672  10.606  0.2467 -0.3836 -0.4181
  484MOL0     N66705   9.874   4.117  10.274 -0.8168  0.1631  0.3038
  484MOL0     N66706   9.769   4.154  10.219  0.7476  0.3413 -0.0816
  484MOL0     C66707   8.740   3.461   9.950  0.3621  0.0580  0.3270
  484MOL0     C66708   8.617   3.419   9.906  0.0802 -0.0159  0.1203
  484MOL0     C66709   8.192   3.303   9.762  0.1247  0.7404 -0.1342
  484MOL0     C66710   8.095   3.403   9.784  0.1075 -0.0423 -0.4203
  484MOL0     C66711   7.962   3.392   9.763 -0.4653  0.7178  0.5430
  484MOL0     C66712   7.909   3.268   9.709 -0.6010 -0.2759  0.3857
  484MOL0     O66713   7.777   3.261   9.677  0.6333  0.7064 -0.3327
  484MOL0     C66714   7.717   3.159   9.593 -0.3147 -0.6753 -0.5195
  484MOL0     C66715   7.570   3.194   9.573 -0.4181  0.6570  1.0668
  484MOL0     C66716   7.480   3.212   9.688 -0.8540  0.1119  0.0906
  484MOL0     C66717   7.498   3.134   9.817 -0.3462 -0.0845  1.2094
  484MOL0     C66718   7.486   2.990   9.778 -0.9417 -0.3274 -0.1506
  484MOL0     C66719   7.474   2.878   9.737 -0.9482 -1.0985 -0.2313
  484MOL0     C66720   8.004   3.178   9.661 -0.2306  0.5579  0.7705
  484MOL0     C66721   8.139   3.178   9.709 -0.0734  0.1864  0.5905
  484MOL0     C66722   8.216   3.052   9.662 -0.7483 -0.5640  0.5860
  484MOL0     H66723   8.424   3.693   9.942 -1.0079 -3.1624  0.7669
  484MOL0     H66724   8.644   3.782  10.018 -0.6099  0.0239  0.3217
  484MOL0     H66725   9.007   3.572   9.919  1.0324 -1.0687  0.9924
  484MOL0     H66726   8.988   3.495  10.077  1.0639 -2.2456 -1.9596
  484MOL0     H66727   9.111   3.774  10.002  3.1326  1.3349  2.4776
  484MOL0     H66728   9.079   3.710  10.169  3.5750  2.2037  1.0268
  484MOL0     H66729   9.246   3.542  10.136  1.0660  0.6300 -0.0272
  484MOL0     H66730   9.255   3.579   9.963 -0.2881  1.6638 -0.6486
  484MOL0     H66731   9.449   3.676  10.080  1.9711  0.1348  3.9103
  484MOL0     H66732   9.346   3.804  10.025  0.4165 -0.4716  0.6013
  484MOL0     H66733   9.365   3.684  10.299 -0.1176 -0.0078 -1.0084
  484MOL0     H66734   9.246   3.811  10.260 -0.7152 -1.6654  0.3366
  484MOL0     H66735   9.408   3.926  10.379  0.0355  0.8149 -0.6131
  484MOL0     H66736   9.545   3.827  10.318 -0.1199  1.1312 -0.0989
  484MOL0     H66737   9.375   4.012  10.146  0.4688 -0.4046 -2.4934
  484MOL0     H66738   9.543   3.953  10.110 -0.4483  0.0703 -0.9264
  484MOL0     H66739   9.534   4.188  10.168 -1.2448  2.2128  1.9596
  484MOL0     H66740   9.478   4.149  10.331  0.9332  1.6196 -0.1862
  484MOL0     H66741   9.661   3.947  10.452 -1.8431 -0.5179 -2.8507
  484MOL0     H66742   9.904   3.938  10.559 -1.3643 -0.8718 -1.2124
  484MOL0     H66743  10.031   4.048  10.497 -0.1680  0.1343  0.0716
  484MOL0     H66744   9.943   3.778  10.397  0.9748 -1.8974  2.6039
  484MOL0     H66745  10.063   3.902  10.321 -0.6962  2.7713  1.5618
  484MOL0     H66746  10.093   3.825  10.605 -1.5863  2.4166 -1.0490
  484MOL0     H66747  10.104   3.691  10.492 -1.1270 -0.5010 -1.4169
  484MOL0     H66748  10.284   3.809  10.373  0.9646 -1.1304  0.9960
  484MOL0     H66749  10.270   3.947  10.503 -0.4112 -0.6584  1.8775
  484MOL0     H66750  10.486   3.962  10.449 -2.0480 -1.0662  0.0414
  484MOL0     H66751  10.643   4.057  10.335  0.9734  0.1826 -0.2222
  484MOL0     H66752  10.756   3.946  10.264 -3.2341 -0.3625 -2.4357
  484MOL0     H66753  10.803   4.053  10.401 -1.9269  1.8396 -0.0823
  484MOL0     H66754  11.174   3.599  10.630  2.3970 -2.0245 -0.5179
  484MOL0     H66755  11.393   3.591  10.544 -0.7069  1.8741  1.5511
  484MOL0     H66756  11.484   3.607  10.095  2.0289 -0.1311 -0.2454
  484MOL0     H66757  11.456   3.775  10.148 -3.4911 -0.2621  2.3675
  484MOL0     H66758  11.718   3.603  10.174  0.9930 -0.4723 -0.9336
  484MOL0     H66759  11.691   3.741  10.066  0.6377  2.0691  0.6053
  484MOL0     H66760  11.706   3.736  10.370 -0.6258  1.9982  1.1175
  484MOL0     H66761  11.637   3.870  10.294 -0.2258 -0.6390  1.9004
  484MOL0     H66762  11.856   3.900  10.154  3.2444 -0.2977 -0.1121
  484MOL0     H66763  11.922   3.768  10.260  0.9069 -0.7381 -1.0027
  484MOL0     H66764  11.812   4.040  10.345  2.1116  1.6660  0.9764
  484MOL0     H66765  11.890   3.935  10.462 -0.3670 -0.7602  0.2167
  484MOL0     H66766  12.043   4.047  10.227 -2.7347  5.3196  0.4726
  484MOL0     H66767  12.097   3.935  10.356  0.0395  1.2848  0.4222
  484MOL0     H66768  11.951   4.135  10.492 -0.7996 -2.5769 -0.7215
  484MOL0     H66769  12.071   4.212  10.378 -3.2428 -0.6203 -2.9919
  484MOL0     H66770  12.146   4.013  10.587 -2.7140 -0.4266 -1.9961
  484MOL0     H66771  12.174   4.201  10.574 -1.7095  2.4221 -3.2251
  484MOL0     H66772  11.254   3.616  10.137  0.4549  1.0587 -0.2053
  484MOL0     H66773  11.023   3.689  10.236  1.3335  2.3018  1.0937
  484MOL0     H66774  10.758   3.607  10.640 -1.1926 -0.2521 -1.0306
  484MOL0     H66775  10.502   3.588  10.641  1.9547 -3.1953 -3.6501
  484MOL0     H66776   8.825   3.396   9.934  0.2826  0.0997 -0.3000
  484MOL0     H66777   8.618   3.318   9.864 -1.5164 -0.1302  0.2930
  484MOL0     H66778   8.128   3.499   9.823 -0.5465  0.5699 -1.3351
  484MOL0     H66779   7.891   3.472   9.782 -1.4083  0.0332 -0.0229
  484MOL0     H66780   7.772   3.157   9.499 -2.1987 -3.8271 -1.7101
  484MOL0     H66781   7.733   3.058   9.633  0.7504  0.0631  1.0230
  484MOL0     H66782   7.525   3.125   9.500  0.1645  0.8479  0.5153
  484MOL0     H66783   7.578   3.285   9.513  1.5129  0.7012  1.3173
  484MOL0     H66784   7.494   3.317   9.717 -0.7110  0.8954 -2.5403
  484MOL0     H66785   7.378   3.209   9.648 -1.0703  0.1381  0.6399
  484MOL0     H66786   7.420   3.162   9.888 -0.1633  0.9625  1.0130
  484MOL0     H66787   7.596   3.147   9.866  1.7472 -3.1201 -1.7178
  484MOL0     H66788   7.462   2.775   9.708  1.1546 -1.7928  1.1251
  484MOL0     H66789   7.983   3.094   9.595  1.5963 -0.2266  1.1151
  484MOL0     H66790   8.241   2.990   9.748 -2.1457 -1.1488  0.5949
  484MOL0     H66791   8.154   2.979   9.608 -0.1642  0.2068 -1.2236
  484MOL0     H66792   8.308   3.077   9.609 -1.0617  1.4419  0.9278
  485MOL0     O66793   6.962   8.482   6.386  0.3018  0.1562  0.0696
  485MOL0     C66794   6.921   8.596   6.391 -0.8615  0.4775 -0.0115
  485MOL0     O66795   6.985   8.696   6.459  0.4508 -0.0621  0.2354
  485MOL0     C66796   7.112   8.662   6.501  0.4939 -1.1007  0.2951
  485MOL0     C66797   7.152   8.653   6.629 -0.2571  0.3780  0.1406
  485MOL0     C66798   7.289   8.611   6.643  0.5372  0.5130  0.3480
  485MOL0     C66799   7.375   8.577   6.542  1.2901  0.2653  0.5229
  485MOL0     O66800   7.498   8.517   6.563  0.0274 -0.2813 -0.5976
  485MOL0     C66801   7.504   8.376   6.601  1.1665 -0.1374  0.3744
  485MOL0     C66802   7.641   8.347   6.642  0.0987  0.4405 -0.4825
  485MOL0     C66803   7.730   8.278   6.529  0.0951 -0.2827 -0.5767
  485MOL0     C66804   7.863   8.215   6.589  0.0814 -0.6780 -0.4746
  485MOL0     C66805   7.933   8.126   6.493  0.0910 -0.2180  0.3857
  485MOL0     C66806   8.051   8.057   6.567 -0.4268 -0.7388  0.3052
  485MOL0     C66807   8.144   7.972   6.474  0.4702 -0.0157 -0.2694
  485MOL0     C66808   8.244   7.896   6.559 -0.3075 -0.3038 -0.1256
  485MOL0     N66809   8.179   7.779   6.635 -0.3441  0.2147  0.0242
  485MOL0     C66810   8.100   7.673   6.574 -0.7717  0.4581 -0.1215
  485MOL0     C66811   8.037   7.616   6.679 -0.0099 -0.3853  0.3522
  485MOL0     C66812   7.941   7.504   6.666  0.3727 -0.0236 -0.1178
  485MOL0     C66813   8.007   7.371   6.690 -0.2379 -0.0090 -0.3552
  485MOL0     C66814   7.901   7.265   6.710  0.2353 -0.0757 -0.5327
  485MOL0     C66815   7.961   7.123   6.725  0.2563  0.2225 -0.3548
  485MOL0     O66816   8.041   7.106   6.848 -0.3558  0.4960  0.0410
  485MOL0     C66817   8.175   7.106   6.838 -0.9556 -0.3818 -1.1227
  485MOL0     C66818   8.254   7.081   6.727 -0.2153  0.3235  0.8408
  485MOL0     C66819   8.395   7.080   6.732 -0.7188 -0.0415  0.1318
  485MOL0     C66820   8.455   7.064   6.598  0.0895  0.9506  0.1631
  485MOL0     C66821   8.464   7.095   6.854 -0.8811 -0.5701 -0.1095
  485MOL0     C66822   8.615   7.095   6.872  0.1145  0.3564  0.2904
  485MOL0     O66823   8.685   6.997   6.815  0.0787 -0.1940 -0.1552
  485MOL0     C66824   8.818   7.000   6.842 -0.0972 -0.0102 -0.1880
  485MOL0     C66825   8.860   6.946   6.966  0.2281  0.3917 -0.0247
  485MOL0     C66826   8.994   6.942   6.986 -0.3857 -0.3414  0.0393
  485MOL0     C66827   9.088   6.985   6.895 -0.7374 -0.1598 -0.6615
  485MOL0     O66828   9.216   6.952   6.923 -0.5361 -0.4564  0.0336
  485MOL0     C66829   9.308   7.064   6.939  0.4435 -0.3789  0.1073
  485MOL0     C66830   9.423   7.035   6.837  0.7072 -0.0188  0.5527
  485MOL0     C66831   9.563   7.073   6.885  0.2792 -0.1687 -0.4177
  485MOL0     C66832   9.582   7.226   6.879 -0.7398  0.2830  0.9357
  485MOL0     C66833   9.738   7.262   6.911  0.5705  0.1320 -0.1014
  485MOL0     C66834   9.786   7.215   7.049 -1.1637 -0.1239 -0.6765
  485MOL0     C66835   9.697   7.246   7.167  0.2441  0.0289 -0.3127
  485MOL0     C66836   9.737   7.178   7.304  0.4916  0.1571 -0.1618
  485MOL0    Cl66837   9.643   7.249   7.437  0.3768  0.3856 -0.1403
  485MOL0     C66838   9.052   7.053   6.784 -0.0777  0.2103 -0.1999
  485MOL0     C66839   8.914   7.051   6.751 -0.4040 -0.4864 -0.5545
  485MOL0     O66840   8.655   7.174   6.959  0.5132 -0.0151  0.5599
  485MOL0     C66841   8.384   7.116   6.969 -0.3311  0.1909 -0.0382
  485MOL0     C66842   8.246   7.124   6.956  0.3158  0.5483  0.4510
  485MOL0     N66843   8.071   7.684   6.795  1.1833 -0.6516  0.4123
  485MOL0     N66844   8.147   7.785   6.763 -0.8419  0.3729 -0.6301
  485MOL0     C66845   7.328   8.600   6.409 -0.4618 -0.4570  0.2454
  485MOL0     C66846   7.201   8.650   6.395  0.5998 -0.1819 -0.3784
  485MOL0     C66847   6.814   8.632   6.303  1.0422 -0.2745  0.7814
  485MOL0     C66848   6.790   8.772   6.280  0.0156  0.0909 -1.1590
  485MOL0     C66849   6.687   8.818   6.208  0.4246 -1.2396  0.1332
  485MOL0     C66850   6.590   8.738   6.149  0.2425 -0.5892  0.5963
  485MOL0     O66851   6.490   8.804   6.067 -0.9004 -0.3760 -0.1327
  485MOL0     C66852   6.413   8.713   5.992 -0.6272  0.6686 -0.3296
  485MOL0     C66853   6.308   8.797   5.907 -0.0940 -0.2156  1.0172
  485MOL0     C66854   6.195   8.868   5.995 -0.7221  1.0520  0.6249
  485MOL0     C66855   6.084   8.935   5.914 -0.2389 -0.6025 -0.2072
  485MOL0     C66856   6.137   9.041   5.826  1.2790 -0.4847 -0.0742
  485MOL0     C66857   6.209   9.102   5.745 -0.1647 -0.3498 -0.5032
  485MOL0     C66858   6.611   8.597   6.162 -0.1383  0.1001 -0.2474
  485MOL0     C66859   6.720   8.544   6.236 -0.1935 -0.1142  0.6014
  485MOL0     C66860   6.717   8.393   6.253 -1.5317 -0.3022 -0.4339
  485MOL0     H66861   7.082   8.658   6.712  0.8508 -2.0303  1.3156
  485MOL0     H66862   7.324   8.582   6.742  0.9637 -0.8088 -0.1716
  485MOL0     H66863   7.477   8.306   6.522  0.6880 -0.4998  0.8472
  485MOL0     H66864   7.434   8.367   6.685  2.7355  1.8720  1.9985
  485MOL0     H66865   7.683   8.445   6.663 -0.0700  0.5992 -0.8986
  485MOL0     H66866   7.636   8.283   6.731 -1.5737 -2.4876 -2.5180
  485MOL0     H66867   7.680   8.198   6.474 -1.3846  0.0687  0.1917
  485MOL0     H66868   7.762   8.358   6.461  2.3242 -1.0847 -0.5632
  485MOL0     H66869   7.938   8.292   6.604 -0.0255 -0.7127  0.2584
  485MOL0     H66870   7.843   8.163   6.683 -0.5724  0.8277  0.2397
  485MOL0     H66871   7.962   8.187   6.406 -0.2483 -0.2833  0.2209
  485MOL0     H66872   7.866   8.051   6.449  1.2499 -0.4941 -0.9775
  485MOL0     H66873   8.115   8.130   6.617 -0.9855  1.3190 -1.8100
  485MOL0     H66874   8.001   7.992   6.639 -0.4584 -3.8237 -2.2626
  485MOL0     H66875   8.205   8.041   6.414  0.2936  0.5132  0.1498
  485MOL0     H66876   8.074   7.910   6.417 -1.6448 -0.1071  2.2371
  485MOL0     H66877   8.326   7.851   6.501 -0.7358  1.8633 -2.5606
  485MOL0     H66878   8.290   7.966   6.629  1.9884 -0.2601 -1.5717
  485MOL0     H66879   8.117   7.643   6.471 -0.8719  1.9852 -0.6093
  485MOL0     H66880   7.894   7.500   6.567 -0.7953  0.6793  0.3895
  485MOL0     H66881   7.862   7.523   6.739 -0.7380 -1.4019 -0.9022
  485MOL0     H66882   8.065   7.333   6.605 -1.2132 -1.3714 -0.4472
  485MOL0     H66883   8.063   7.379   6.784  0.3659  1.3928 -0.8137
  485MOL0     H66884   7.831   7.293   6.789  0.1851  0.8919 -0.9103
  485MOL0     H66885   7.846   7.270   6.615  2.3387  3.3346 -1.7109
  485MOL0     H66886   7.880   7.049   6.724 -1.5743  2.1233  0.7359
  485MOL0     H66887   8.021   7.109   6.634 -0.5664 -1.3549 -0.6956
  485MOL0     H66888   8.213   7.065   6.628  1.5912  0.8726 -0.0320
  485MOL0     H66889   8.477   6.959   6.577 -2.7384 -0.3889  3.1004
  485MOL0     H66890   8.557   7.105   6.592  1.1473 -1.6312 -0.7961
  485MOL0     H66891   8.399   7.117   6.521  0.0918 -1.3173 -1.4958
  485MOL0     H66892   8.795   6.900   7.040 -0.4137  0.1771 -0.7140
  485MOL0     H66893   9.025   6.894   7.078  0.0804  1.4216  0.8371
  485MOL0     H66894   9.263   7.162   6.919  4.2930  1.1721 -1.9813
  485MOL0     H66895   9.352   7.060   7.039 -0.3138 -1.0048  0.4268
  485MOL0     H66896   9.419   6.927   6.819 -1.0418 -0.7897  4.5178
  485MOL0     H66897   9.396   7.081   6.741  3.5545 -0.3957 -0.5294
  485MOL0     H66898   9.641   7.031   6.821  0.6065 -0.4400  0.1548
  485MOL0     H66899   9.585   7.041   6.987  1.7122  2.3058  0.1309
  485MOL0     H66900   9.516   7.280   6.948 -2.8570 -0.1013 -0.7015
  485MOL0     H66901   9.559   7.261   6.778 -0.7503 -1.1963  0.3905
  485MOL0     H66902   9.805   7.218   6.836  0.3366  0.9187 -0.7905
  485MOL0     H66903   9.748   7.371   6.911 -0.2765  0.3528  3.7574
  485MOL0     H66904   9.886   7.255   7.068 -1.1112  0.1248 -1.4459
  485MOL0     H66905   9.794   7.106   7.044  3.1263 -0.0145 -0.0487
  485MOL0     H66906   9.592   7.222   7.149 -0.4458  1.8998  0.9686
  485MOL0     H66907   9.707   7.354   7.183 -2.7419  0.3066  0.2619
  485MOL0     H66908   9.841   7.202   7.324  0.2577  0.2439  0.9954
  485MOL0     H66909   9.725   7.069   7.306 -1.6818  0.3432 -0.0284
  485MOL0     H66910   9.117   7.107   6.716 -0.0701  2.2710  1.3680
  485MOL0     H66911   8.889   7.089   6.652  1.2344 -1.5444 -1.4336
  485MOL0     H66912   8.427   7.127   7.068  0.1289 -2.0619  0.0766
  485MOL0     H66913   8.193   7.143   7.050 -0.7961  0.7852 -0.2024
  485MOL0     H66914   7.390   8.587   6.321 -0.1775 -0.4746  0.4458
  485MOL0     H66915   7.173   8.668   6.292  0.0399 -0.5199 -0.2910
  485MOL0     H66916   6.860   8.844   6.321  0.2032 -0.7412  0.0507
  485MOL0     H66917   6.670   8.925   6.206 -0.6962 -1.3111  2.4410
  485MOL0     H66918   6.474   8.646   5.931  0.1099  1.8954 -1.0030
  485MOL0     H66919   6.349   8.660   6.063 -0.7689  3.3322  1.7055
  485MOL0     H66920   6.265   8.716   5.846  1.6096 -0.5118  0.1355
  485MOL0     H66921   6.353   8.870   5.840 -1.4798 -0.1097  0.1565
  485MOL0     H66922   6.158   8.785   6.055  0.9151 -1.4293 -1.5259
  485MOL0     H66923   6.248   8.936   6.062  2.4712 -0.3047 -0.3095
  485MOL0     H66924   6.004   8.969   5.980  0.4412  3.0194 -1.0299
  485MOL0     H66925   6.036   8.859   5.852  0.8993 -0.4019 -1.3855
  485MOL0     H66926   6.263   9.148   5.664  1.2369  0.0775  0.6469
  485MOL0     H66927   6.546   8.525   6.113 -0.2932  1.4247 -2.1052
  485MOL0     H66928   6.792   8.348   6.187 -1.7807 -0.6344 -0.4911
  485MOL0     H66929   6.743   8.364   6.355 -1.1716 -0.4208 -0.5553
  485MOL0     H66930   6.619   8.351   6.232 -2.9801  3.1344 -1.2341
  486MOL0     O66931   3.864   3.378   9.554 -0.8464  0.3658  0.4032
  486MOL0     C66932   3.899   3.271   9.517  0.2386 -0.1384 -0.8728
  486MOL0     O66933   4.010   3.250   9.447 -0.7876 -0.1389 -0.0436
  486MOL0     C66934   4.097   3.353   9.410 -0.1451 -0.9968  0.2656
  486MOL0     C66935   4.169   3.438   9.499 -0.0894  0.1228 -0.0545
  486MOL0     C66936   4.255   3.533   9.451 -0.4573  0.5252 -0.6646
  486MOL0     C66937   4.274   3.561   9.319  0.5052 -0.8360  0.1946
  486MOL0     O66938   4.365   3.651   9.270 -0.2884 -0.0746 -0.1719
  486MOL0     C66939   4.468   3.717   9.350  0.1192 -0.5780 -0.0937
  486MOL0     C66940   4.596   3.631   9.338 -0.6454  0.0781 -0.4129
  486MOL0     C66941   4.630   3.594   9.189 -0.2154  0.3558  0.4802
  486MOL0     C66942   4.670   3.723   9.099  0.6173  0.4863  0.4262
  486MOL0     C66943   4.759   3.688   8.982  0.4464  0.9561 -0.0327
  486MOL0     C66944   4.779   3.806   8.884 -0.0734  0.8319  0.4490
  486MOL0     C66945   4.891   3.797   8.778 -0.6514  0.3990  0.1953
  486MOL0     C66946   5.026   3.856   8.833  0.1928 -0.6950  0.7619
  486MOL0     N66947   5.131   3.887   8.730  0.5028 -0.2523 -0.0116
  486MOL0     C66948   5.204   3.799   8.655  0.0634 -0.1248 -0.7354
  486MOL0     C66949   5.290   3.882   8.583 -0.0888 -0.3046  0.6573
  486MOL0     C66950   5.391   3.834   8.485 -0.5226 -0.1614  1.0186
  486MOL0     C66951   5.528   3.873   8.534  0.8771  0.3364 -0.7543
  486MOL0     C66952   5.638   3.812   8.448 -0.1894 -0.7463 -0.6119
  486MOL0     C66953   5.653   3.871   8.302 -0.3368  0.1877  0.0472
  486MOL0     O66954   5.773   3.825   8.239 -0.1748 -0.2326 -0.6953
  486MOL0     C66955   5.891   3.877   8.273 -0.8361  0.0978  0.4290
  486MOL0     C66956   5.999   3.827   8.195 -0.4353 -0.4520  0.1045
  486MOL0     C66957   6.134   3.847   8.228 -0.9614  0.5330  0.0440
  486MOL0     C66958   6.243   3.769   8.152 -0.3533  0.2840 -0.6538
  486MOL0     C66959   6.161   3.939   8.335  0.1609  0.7946  0.2091
  486MOL0     C66960   6.301   3.973   8.389  0.6143 -0.5849  0.0213
  486MOL0     O66961   6.298   4.063   8.492 -0.2777 -0.3507 -0.3283
  486MOL0     C66962   6.415   4.094   8.563  0.0831  0.1610 -0.0643
  486MOL0     C66963   6.524   4.007   8.601  0.6392 -0.0649  0.6372
  486MOL0     C66964   6.642   4.059   8.661  0.3728 -0.0296 -0.1111
  486MOL0     C66965   6.649   4.199   8.689 -0.3271  0.8848 -0.0694
  486MOL0     O66966   6.760   4.266   8.741  0.2916 -0.9239  0.5983
  486MOL0     C66967   6.871   4.201   8.789  0.7422 -0.1480 -0.6872
  486MOL0     C66968   6.931   4.291   8.896 -0.2335 -0.3951  0.1564
  486MOL0     C66969   6.893   4.247   9.035 -0.3483 -0.3426 -0.1139
  486MOL0     C66970   6.944   4.359   9.127 -0.0857 -0.0073  0.3686
  486MOL0     C66971   7.098   4.365   9.145  0.0569 -0.5183 -0.4498
  486MOL0     C66972   7.127   4.469   9.250 -0.7248 -0.1254  0.3638
  486MOL0     C66973   7.275   4.508   9.262  0.3399  0.0841  0.8890
  486MOL0     C66974   7.357   4.385   9.285  0.1941  0.1689 -0.8719
  486MOL0    Cl66975   7.304   4.293   9.433 -0.1243 -0.3169 -0.0806
  486MOL0     C66976   6.531   4.280   8.653 -0.1896  0.4853  0.2580
  486MOL0     C66977   6.416   4.229   8.599 -0.0343 -0.4334  0.4192
  486MOL0     O66978   6.397   3.922   8.339 -0.9681 -0.0777 -0.4708
  486MOL0     C66979   6.055   4.001   8.397  0.8994  0.3175  0.0263
  486MOL0     C66980   5.921   3.969   8.373 -0.4701  0.0089 -0.1803
  486MOL0     N66981   5.255   4.017   8.606 -0.5114  0.3732  0.9408
  486MOL0     N66982   5.164   4.016   8.699 -0.0602  0.4354  0.6231
  486MOL0     C66983   4.196   3.486   9.224 -0.1843  0.1842 -0.3283
  486MOL0     C66984   4.113   3.385   9.274  0.5651  0.4972 -0.1560
  486MOL0     C66985   3.818   3.159   9.561  0.2377  1.1247  0.3606
  486MOL0     C66986   3.865   3.036   9.539 -0.8083  0.5866  0.2232
  486MOL0     C66987   3.791   2.923   9.591  0.5958 -0.7904  0.0649
  486MOL0     C66988   3.685   2.930   9.675 -0.3419 -0.6262  0.1453
  486MOL0     O66989   3.617   2.817   9.700 -0.0858  0.0036  0.0775
  486MOL0     C66990   3.480   2.823   9.734 -0.1764  0.2946 -0.3384
  486MOL0     C66991   3.443   2.686   9.778 -0.4324  0.0012 -0.3667
  486MOL0     C66992   3.293   2.661   9.811  0.2497  0.4155  0.6724
  486MOL0     C66993   3.200   2.735   9.713 -0.3437 -0.1757 -0.4686
  486MOL0     C66994   3.061   2.686   9.727 -0.4190 -0.4192  0.7839
  486MOL0     C66995   2.960   2.632   9.761 -0.1585  0.0070 -0.0793
  486MOL0     C66996   3.632   3.065   9.691  0.2074  1.0304  0.5942
  486MOL0     C66997   3.708   3.176   9.651  0.2798 -0.5050 -0.4107
  486MOL0     C66998   3.642   3.302   9.684  0.6302 -0.5607  0.5332
  486MOL0     H66999   4.167   3.414   9.605  0.9578  0.9543  0.1729
  486MOL0     H67000   4.320   3.586   9.520 -4.2291  2.8023  1.4895
  486MOL0     H67001   4.431   3.738   9.451 -0.5628 -2.0218 -0.0070
  486MOL0     H67002   4.489   3.814   9.304  0.5187 -0.6433 -0.0452
  486MOL0     H67003   4.677   3.690   9.382  0.2048 -0.4046 -1.2833
  486MOL0     H67004   4.592   3.541   9.400 -1.4466  0.2196 -0.2568
  486MOL0     H67005   4.723   3.537   9.197  0.2822  1.2044  0.8257
  486MOL0     H67006   4.548   3.533   9.150 -0.8056 -1.5178  4.2382
  486MOL0     H67007   4.582   3.776   9.061  0.4754 -1.1829 -1.7542
  486MOL0     H67008   4.726   3.791   9.164  0.5256  1.0472 -0.0778
  486MOL0     H67009   4.727   3.594   8.937 -0.1216  1.1558 -0.0563
  486MOL0     H67010   4.858   3.672   9.028 -0.2016  0.1982  1.1550
  486MOL0     H67011   4.683   3.807   8.831  0.9538  0.7246 -1.5272
  486MOL0     H67012   4.790   3.895   8.946  0.7112 -0.8627  2.8786
  486MOL0     H67013   4.853   3.856   8.694  1.9627  0.2020 -1.2478
  486MOL0     H67014   4.899   3.694   8.743 -0.9659 -0.5706  2.8115
  486MOL0     H67015   5.004   3.950   8.884  0.7563  1.2899 -2.3701
  486MOL0     H67016   5.065   3.789   8.911 -0.2170 -1.9292 -0.0642
  486MOL0     H67017   5.209   3.691   8.663  1.2207 -0.0199  0.2656
  486MOL0     H67018   5.364   3.870   8.385 -0.3836 -4.4560 -0.7911
  486MOL0     H67019   5.383   3.726   8.466  1.4344  0.3196 -4.1206
  486MOL0     H67020   5.522   3.982   8.545 -1.5961  0.1337  0.8567
  486MOL0     H67021   5.544   3.836   8.635  3.5469  0.1561 -1.1661
  486MOL0     H67022   5.731   3.828   8.503 -0.2727 -1.5750 -0.2097
  486MOL0     H67023   5.626   3.703   8.448  0.9698 -0.9097  0.9981
  486MOL0     H67024   5.569   3.837   8.240  0.1709  0.6854 -0.9316
  486MOL0     H67025   5.646   3.980   8.302  0.2546  0.3069 -2.9238
  486MOL0     H67026   5.971   3.751   8.123  3.4229 -1.5101 -0.5282
  486MOL0     H67027   6.316   3.840   8.112 -0.7809  0.8115 -0.5089
  486MOL0     H67028   6.206   3.703   8.073 -0.5777 -1.6862  1.0083
  486MOL0     H67029   6.293   3.699   8.220 -2.4637 -1.3794 -0.7069
  486MOL0     H67030   6.505   3.904   8.573  0.7460  0.4571 -1.5180
  486MOL0     H67031   6.713   3.983   8.691 -0.8688 -1.2095 -0.0849
  486MOL0     H67032   6.846   4.110   8.844  1.4760  0.3776  0.5591
  486MOL0     H67033   6.939   4.190   8.704 -0.2447  0.0682 -1.5177
  486MOL0     H67034   7.040   4.290   8.884  0.1199 -0.4449  2.8046
  486MOL0     H67035   6.902   4.394   8.877  3.3754  0.8431  0.6437
  486MOL0     H67036   6.936   4.148   9.051 -2.2701 -1.5133 -1.7269
  486MOL0     H67037   6.785   4.237   9.049 -0.1191 -1.5057  0.9357
  486MOL0     H67038   6.897   4.342   9.224 -4.0590  3.1311 -0.7077
  486MOL0     H67039   6.902   4.455   9.093 -3.2186 -0.5616  2.3030
  486MOL0     H67040   7.140   4.268   9.174  1.4371  0.5993  1.5698
  486MOL0     H67041   7.150   4.403   9.057  0.5583 -1.4831 -0.5876
  486MOL0     H67042   7.083   4.431   9.343 -0.9815  0.5018  0.5105
  486MOL0     H67043   7.065   4.558   9.236 -2.4573 -0.5367  4.1381
  486MOL0     H67044   7.284   4.578   9.346 -1.6028 -0.5540  1.6836
  486MOL0     H67045   7.313   4.559   9.173 -0.8869  3.8381  2.3025
  486MOL0     H67046   7.459   4.418   9.305 -0.1632  0.6241  0.2566
  486MOL0     H67047   7.359   4.320   9.196  0.0465 -0.4580 -0.4232
  486MOL0     H67048   6.535   4.388   8.663  2.7084  0.2952  2.5353
  486MOL0     H67049   6.342   4.299   8.563  0.6649  0.0818 -0.0367
  486MOL0     H67050   6.073   4.076   8.473 -0.5548  0.0177  0.6929
  486MOL0     H67051   5.836   4.020   8.419 -0.2167  0.5601 -0.3068
  486MOL0     H67052   4.207   3.500   9.116 -1.8798  1.9600 -0.3359
  486MOL0     H67053   4.068   3.312   9.207 -2.2455  0.5631  1.5069
  486MOL0     H67054   3.942   3.013   9.466 -1.5689 -2.2100  0.1897
  486MOL0     H67055   3.821   2.822   9.567 -2.5888 -2.4803  2.3853
  486MOL0     H67056   3.461   2.879   9.825 -1.0780 -1.3332  0.5286
  486MOL0     H67057   3.418   2.862   9.653 -1.3334 -1.1161 -0.1698
  486MOL0     H67058   3.499   2.667   9.870  0.9335  1.2210 -0.9044
  486MOL0     H67059   3.466   2.618   9.695  2.2211  0.9636 -0.5343
  486MOL0     H67060   3.273   2.555   9.827 -0.0177  0.8217  3.6181
  486MOL0     H67061   3.281   2.702   9.912  4.6359  1.2257  1.0780
  486MOL0     H67062   3.232   2.727   9.608  1.0150  2.5915 -0.3821
  486MOL0     H67063   3.198   2.843   9.729 -2.6479 -0.4486  1.4585
  486MOL0     H67064   2.874   2.580   9.796  1.2480 -2.4318 -0.0256
  486MOL0     H67065   3.531   3.080   9.728 -1.1407 -1.8949 -1.4741
  486MOL0     H67066   3.610   3.360   9.597 -0.9564  0.6680  1.8765
  486MOL0     H67067   3.547   3.291   9.737 -0.6771  2.9453 -0.7685
  486MOL0     H67068   3.700   3.360   9.756 -1.4463  1.2889  0.8193
  487MOL0     O67069   1.700   6.395   1.888 -0.4861 -0.1717  0.4766
  487MOL0     C67070   1.695   6.446   1.997 -0.3556 -0.9006 -0.2826
  487MOL0     O67071   1.806   6.481   2.077  0.2453  0.4410  0.2419
  487MOL0     C67072   1.934   6.453   2.046  0.3664 -0.2687  0.5649
  487MOL0     C67073   1.990   6.408   1.923 -0.1528  1.2211 -0.6115
  487MOL0     C67074   2.127   6.384   1.908 -0.9296  0.7460  0.4033
  487MOL0     C67075   2.212   6.387   2.018  0.5391 -0.7422  0.0228
  487MOL0     O67076   2.339   6.358   1.988 -0.6420  0.2025 -0.3211
  487MOL0     C67077   2.431   6.331   2.099 -0.9249  0.1077  0.2163
  487MOL0     C67078   2.462   6.178   2.100 -0.2382  0.1217 -0.8101
  487MOL0     C67079   2.534   6.133   1.968 -0.2835  0.1242 -0.5344
  487MOL0     C67080   2.677   6.191   1.963 -0.4996 -0.4582  0.6775
  487MOL0     C67081   2.746   6.152   1.833  0.0517 -0.0472  0.0662
  487MOL0     C67082   2.897   6.133   1.870 -0.1573  0.5960  0.1727
  487MOL0     C67083   2.973   6.074   1.747  0.1777 -0.1199 -0.1221
  487MOL0     C67084   3.018   6.188   1.660  0.0120 -0.0297 -0.4484
  487MOL0     N67085   3.135   6.257   1.718  0.2926 -0.7539  0.5120
  487MOL0     C67086   3.137   6.358   1.808  0.0295 -0.9340  0.2385
  487MOL0     C67087   3.267   6.378   1.839 -0.1119 -1.3443 -0.2485
  487MOL0     C67088   3.316   6.474   1.944  0.7397 -0.4462  0.1758
  487MOL0     C67089   3.441   6.412   2.009  0.4812  0.8248  0.0357
  487MOL0     C67090   3.502   6.500   2.118  0.1511  0.5760  0.1538
  487MOL0     C67091   3.622   6.451   2.185  0.0999 -0.0928 -0.6974
  487MOL0     O67092   3.726   6.456   2.090 -0.0329 -0.1612  0.2195
  487MOL0     C67093   3.844   6.388   2.113 -0.7139  0.0151 -0.0611
  487MOL0     C67094   3.930   6.380   2.006 -0.0602  0.1536 -0.8965
  487MOL0     C67095   4.053   6.316   2.016  0.1204  0.6358  0.4130
  487MOL0     C67096   4.147   6.335   1.900  0.2175 -0.7180  0.4133
  487MOL0     C67097   4.082   6.241   2.133  0.4342  0.0312 -0.3372
  487MOL0     C67098   4.218   6.170   2.154  0.5168  0.5826  1.0667
  487MOL0     O67099   4.320   6.176   2.059  0.7423  0.0474 -0.9543
  487MOL0     C67100   4.444   6.129   2.090  0.5070 -0.3524 -0.0980
  487MOL0     C67101   4.548   6.222   2.104 -0.1438 -0.0672 -0.0949
  487MOL0     C67102   4.683   6.176   2.115  0.4574  0.2417 -0.0659
  487MOL0     C67103   4.710   6.042   2.102  0.0094  0.2174 -0.1482
  487MOL0     O67104   4.830   5.978   2.127 -0.1640  0.0709 -0.5756
  487MOL0     C67105   4.943   6.052   2.149  0.4325 -0.5392  0.1273
  487MOL0     C67106   4.992   6.022   2.286  0.3713 -0.9847  0.3135
  487MOL0     C67107   5.101   6.114   2.321 -0.3334 -0.0744 -0.5142
  487MOL0     C67108   5.175   6.087   2.457 -0.9054  0.5939 -0.0244
  487MOL0     C67109   5.315   6.019   2.437 -0.6956 -0.7530  0.7647
  487MOL0     C67110   5.400   5.999   2.563 -0.4535  0.6747 -0.4611
  487MOL0     C67111   5.514   5.900   2.531 -0.0838 -0.6537  0.4491
  487MOL0     C67112   5.638   5.900   2.617 -0.2756 -0.2465  0.5330
  487MOL0    Cl67113   5.762   5.793   2.535 -0.0446  0.3968  0.1511
  487MOL0     C67114   4.606   5.951   2.087  0.5485  0.8092 -1.7362
  487MOL0     C67115   4.477   5.994   2.077 -0.3131  0.3448  0.4112
  487MOL0     O67116   4.227   6.101   2.253 -0.4298 -0.3108  0.6091
  487MOL0     C67117   3.992   6.247   2.240  0.5079  0.7177 -0.1363
  487MOL0     C67118   3.872   6.320   2.233 -0.7269  0.3226  0.1413
  487MOL0     N67119   3.342   6.292   1.761  0.7235  0.2932 -0.1953
  487MOL0     N67120   3.265   6.211   1.705  0.3031 -0.1778  0.2181
  487MOL0     C67121   2.155   6.425   2.144  0.9098  0.0240  0.5574
  487MOL0     C67122   2.021   6.452   2.157 -0.3265  0.2906  0.2465
  487MOL0     C67123   1.567   6.499   2.042  0.7192 -0.0471 -0.0139
  487MOL0     C67124   1.452   6.480   1.967  0.3685  0.3127  0.3567
  487MOL0     C67125   1.322   6.516   2.003  0.0679  0.6454  0.1493
  487MOL0     C67126   1.304   6.574   2.128  0.4630  0.2111 -0.1916
  487MOL0     O67127   1.175   6.605   2.168 -0.0670  0.5631  0.0194
  487MOL0     C67128   1.064   6.577   2.079 -0.9228  0.1898 -0.4100
  487MOL0     C67129   0.937   6.623   2.139 -0.1014  0.5963 -0.4929
  487MOL0     C67130   0.935   6.770   2.149 -0.2961 -0.7656 -0.6038
  487MOL0     C67131   0.818   6.830   2.229  0.2179 -0.0321  0.3102
  487MOL0     C67132   0.689   6.791   2.170  0.3941 -0.0614  0.2455
  487MOL0     C67133   0.577   6.762   2.120 -0.7831 -0.9056 -0.3390
  487MOL0     C67134   1.408   6.588   2.207  0.5294 -0.3330  0.9273
  487MOL0     C67135   1.536   6.557   2.171  0.7213  0.6220  0.2710
  487MOL0     C67136   1.642   6.578   2.272 -0.6804 -0.0830 -0.5652
  487MOL0     H67137   1.917   6.411   1.843 -0.5645  1.5287 -0.2327
  487MOL0     H67138   2.168   6.366   1.809 -3.4801  1.5969 -0.9060
  487MOL0     H67139   2.395   6.371   2.194 -3.2965  3.0145 -1.7039
  487MOL0     H67140   2.519   6.388   2.067 -0.9769 -0.8887 -1.8756
  487MOL0     H67141   2.525   6.165   2.189 -0.7525  2.5579 -0.0376
  487MOL0     H67142   2.369   6.122   2.108 -0.6828  1.0588  1.5367
  487MOL0     H67143   2.519   6.025   1.972 -3.8994  0.5495  0.9246
  487MOL0     H67144   2.479   6.168   1.881 -0.7550 -1.6567 -0.9780
  487MOL0     H67145   2.680   6.300   1.958  2.0912 -0.4423  0.9598
  487MOL0     H67146   2.734   6.163   2.052 -0.2427 -1.9859  0.0603
  487MOL0     H67147   2.742   6.234   1.760  0.2197  0.6867  0.8682
  487MOL0     H67148   2.709   6.056   1.795 -1.0186  0.5999 -0.5786
  487MOL0     H67149   2.934   6.228   1.909  0.1820  0.1656  0.9075
  487MOL0     H67150   2.907   6.055   1.946  4.1887 -1.8861 -2.4917
  487MOL0     H67151   2.899   6.017   1.690 -0.8169  1.3592 -0.3570
  487MOL0     H67152   3.059   6.012   1.774 -1.0854 -2.3242 -0.9447
  487MOL0     H67153   3.055   6.152   1.564  0.0024 -0.0015 -0.4628
  487MOL0     H67154   2.940   6.265   1.653 -1.1308 -0.8157  2.1585
  487MOL0     H67155   3.058   6.427   1.836 -0.1134 -0.7434 -0.6197
  487MOL0     H67156   3.234   6.489   2.015 -1.4990 -0.7579 -2.2021
  487MOL0     H67157   3.338   6.579   1.921 -3.4623  1.2252  2.5080
  487MOL0     H67158   3.420   6.316   2.056  1.0088  0.7258  0.0730
  487MOL0     H67159   3.512   6.379   1.933  0.0525 -0.8889  0.3408
  487MOL0     H67160   3.505   6.600   2.074 -3.5967  0.7624 -0.0342
  487MOL0     H67161   3.420   6.502   2.191  0.0414 -2.2054  0.2322
  487MOL0     H67162   3.633   6.504   2.280 -1.9394  0.4452 -0.7003
  487MOL0     H67163   3.608   6.346   2.211  0.2604 -0.1637 -0.8926
  487MOL0     H67164   3.890   6.425   1.916 -1.2868  0.2511 -0.3164
  487MOL0     H67165   4.189   6.241   1.863  0.1665 -0.4856 -0.2368
  487MOL0     H67166   4.230   6.396   1.938 -1.0788 -0.5612  3.2890
  487MOL0     H67167   4.088   6.379   1.819 -0.7228 -0.8400  1.0201
  487MOL0     H67168   4.532   6.329   2.102  0.4503  0.0275 -0.0697
  487MOL0     H67169   4.759   6.249   2.140  1.3618 -2.0533  5.0009
  487MOL0     H67170   5.018   6.023   2.074 -0.1838 -3.3547  0.4933
  487MOL0     H67171   4.932   6.160   2.137  0.3800 -0.4339  1.0625
  487MOL0     H67172   4.915   6.031   2.364  1.7561  1.2235  1.5337
  487MOL0     H67173   5.036   5.922   2.289  1.0872 -0.8842 -3.0003
  487MOL0     H67174   5.044   6.205   2.342  1.7424  1.1050  0.3183
  487MOL0     H67175   5.171   6.118   2.237  0.1066  2.3023 -0.0921
  487MOL0     H67176   5.126   6.025   2.532  1.9036 -1.4340  0.3028
  487MOL0     H67177   5.181   6.184   2.508 -2.5810  1.2266 -0.9625
  487MOL0     H67178   5.299   5.922   2.388 -2.4935  0.1820 -0.6001
  487MOL0     H67179   5.374   6.077   2.365 -0.2483 -1.5402  0.4805
  487MOL0     H67180   5.332   5.966   2.642 -0.0136  0.9464  0.0389
  487MOL0     H67181   5.459   6.087   2.591  1.2708 -0.5924  0.1109
  487MOL0     H67182   5.543   5.917   2.427 -3.9781 -3.1042 -1.3028
  487MOL0     H67183   5.462   5.804   2.538  2.2841 -1.9427  1.4727
  487MOL0     H67184   5.625   5.873   2.723  1.8508  0.6051  1.0699
  487MOL0     H67185   5.681   6.000   2.608  2.5327 -1.5151 -2.0055
  487MOL0     H67186   4.628   5.845   2.078  1.4582  0.8915 -0.7060
  487MOL0     H67187   4.394   5.929   2.052  0.7729 -0.5163 -1.1240
  487MOL0     H67188   4.023   6.199   2.332  2.6282  2.9397  0.3820
  487MOL0     H67189   3.796   6.311   2.309 -3.9308  3.0634 -2.4369
  487MOL0     H67190   2.215   6.430   2.234  1.5498 -3.0599  0.3904
  487MOL0     H67191   1.978   6.473   2.255  0.3200  4.7405 -0.2278
  487MOL0     H67192   1.463   6.432   1.870 -2.5630 -0.1642  0.1782
  487MOL0     H67193   1.257   6.491   1.920 -0.3828  1.8446  0.1322
  487MOL0     H67194   1.070   6.625   1.982 -2.3104  0.9309 -0.1410
  487MOL0     H67195   1.064   6.468   2.070 -0.5501  0.1731 -0.2604
  487MOL0     H67196   0.924   6.576   2.237 -1.8903  1.3149 -0.3446
  487MOL0     H67197   0.857   6.586   2.074  0.1512 -0.8387 -0.0218
  487MOL0     H67198   1.028   6.803   2.196  0.1143 -2.5520 -0.1170
  487MOL0     H67199   0.926   6.803   2.045 -2.0272 -0.3703 -0.3604
  487MOL0     H67200   0.824   6.939   2.237 -3.1201  0.4188 -1.5632
  487MOL0     H67201   0.814   6.780   2.326 -1.7016 -3.3901 -1.3111
  487MOL0     H67202   0.479   6.740   2.083 -3.2551  3.6251  2.6296
  487MOL0     H67203   1.379   6.618   2.308 -3.6973 -0.8934  0.0560
  487MOL0     H67204   1.714   6.647   2.227  0.4442 -1.7361 -1.3743
  487MOL0     H67205   1.607   6.623   2.366  2.6240 -1.2483  1.4152
  487MOL0     H67206   1.695   6.485   2.293 -0.7066  0.0488  0.1037
  488MOL0     O67207   4.694   0.994   1.427  0.1716  0.0339  0.0547
  488MOL0     C67208   4.591   0.945   1.386  0.7937  0.0050 -0.0191
  488MOL0     O67209   4.583   0.876   1.276 -0.5036 -0.2489 -0.2049
  488MOL0     C67210   4.692   0.883   1.191 -0.1936  0.2610  0.3416
  488MOL0     C67211   4.730   0.992   1.111 -0.2438 -0.3092 -0.7838
  488MOL0     C67212   4.842   0.992   1.030 -0.6642  0.0982 -0.1001
  488MOL0     C67213   4.917   0.872   1.017  0.0707 -0.4656 -0.2509
  488MOL0     O67214   5.041   0.864   0.953  0.2811 -0.1228  0.1637
  488MOL0     C67215   5.070   0.948   0.836  0.0103  0.7521 -0.2734
  488MOL0     C67216   5.167   0.876   0.751 -0.2140  0.0210  0.7761
  488MOL0     C67217   5.302   0.878   0.818 -0.2285 -0.2676 -0.2555
  488MOL0     C67218   5.400   0.809   0.724  0.7619  0.1046  0.0703
  488MOL0     C67219   5.529   0.767   0.801 -0.4456 -0.9620  0.5526
  488MOL0     C67220   5.645   0.713   0.716  0.8330  0.2715  0.0600
  488MOL0     C67221   5.776   0.681   0.790 -0.5942 -0.4386 -0.5145
  488MOL0     C67222   5.869   0.803   0.783  0.6966  0.6367 -0.3769
  488MOL0     N67223   5.991   0.791   0.872  0.4079 -0.4107  0.0197
  488MOL0     C67224   5.982   0.824   1.000 -0.1741 -0.8394  0.0584
  488MOL0     C67225   6.107   0.849   1.038 -0.3788  0.4021  0.6647
  488MOL0     C67226   6.139   0.901   1.176 -0.6022  0.4218 -0.0879
  488MOL0     C67227   6.113   0.784   1.274  0.0556  0.8364  0.0876
  488MOL0     C67228   6.200   0.795   1.395  0.0351 -0.2168  0.2324
  488MOL0     C67229   6.333   0.726   1.368 -0.4928 -0.2304  0.1553
  488MOL0     O67230   6.439   0.775   1.458  0.0557  0.0979 -0.0025
  488MOL0     C67231   6.567   0.720   1.451 -0.4823 -0.7556 -0.1827
  488MOL0     C67232   6.618   0.628   1.361 -0.1985 -1.1143 -0.7214
  488MOL0     C67233   6.754   0.597   1.356  0.0810 -0.2978  0.0323
  488MOL0     C67234   6.790   0.494   1.255  0.1611 -0.0425  0.1131
  488MOL0     C67235   6.845   0.662   1.454  0.2802 -0.0705 -0.5031
  488MOL0     C67236   6.990   0.638   1.457 -0.2983  0.9315 -0.1741
  488MOL0     O67237   7.063   0.719   1.540  0.0866  0.4399  0.1482
  488MOL0     C67238   7.183   0.670   1.595  0.0639  0.3422 -0.8074
  488MOL0     C67239   7.308   0.725   1.565  0.1163 -0.1513  0.5560
  488MOL0     C67240   7.425   0.673   1.614  0.4441  0.1430 -0.3212
  488MOL0     C67241   7.415   0.574   1.713 -0.5610  0.0296 -0.6768
  488MOL0     O67242   7.522   0.499   1.762  0.7161 -0.3572  0.1197
  488MOL0     C67243   7.654   0.535   1.711 -0.7888  0.1719 -0.5900
  488MOL0     C67244   7.757   0.445   1.775 -0.4652 -0.1732 -0.1155
  488MOL0     C67245   7.890   0.508   1.749  0.4556  0.2407  0.3141
  488MOL0     C67246   8.000   0.440   1.820  0.1365  0.1447 -0.1633
  488MOL0     C67247   8.139   0.509   1.804  0.0809  0.6246  0.5922
  488MOL0     C67248   8.248   0.440   1.891 -0.3395 -0.0397  0.0262
  488MOL0     C67249   8.388   0.510   1.863 -0.6886  0.0899  0.2548
  488MOL0     C67250   8.500   0.435   1.936  1.3643  0.0844 -0.3812
  488MOL0    Cl67251   8.508   0.473   2.111  0.2675 -0.1856 -0.0517
  488MOL0     C67252   7.290   0.520   1.744  0.0558  0.3502  0.1170
  488MOL0     C67253   7.175   0.560   1.682 -0.1923  0.3887 -0.5518
  488MOL0     O67254   7.042   0.546   1.388  0.2603 -0.9567  0.0577
  488MOL0     C67255   6.794   0.756   1.534 -0.0536 -0.2298 -0.4871
  488MOL0     C67256   6.655   0.786   1.537  0.6202 -0.2090  0.4019
  488MOL0     N67257   6.195   0.836   0.938 -0.0793 -0.2793 -0.0923
  488MOL0     N67258   6.127   0.785   0.841 -0.1124  0.0205  0.1856
  488MOL0     C67259   4.892   0.776   1.114  0.4097 -0.7652  0.1742
  488MOL0     C67260   4.778   0.777   1.190  0.4272 -0.2230 -0.3877
  488MOL0     C67261   4.462   0.946   1.455 -0.6061  0.0978  0.2885
  488MOL0     C67262   4.344   0.887   1.396  0.7247  0.5867  0.3672
  488MOL0     C67263   4.224   0.901   1.454  0.7146  0.4278 -0.0153
  488MOL0     C67264   4.209   0.972   1.568 -0.3992 -0.9498 -0.1700
  488MOL0     O67265   4.074   0.994   1.610  0.0718  0.0503 -0.1719
  488MOL0     C67266   4.046   1.076   1.723  0.5253  0.0043  0.2844
  488MOL0     C67267   3.903   1.057   1.779 -0.7429  0.6921 -0.4405
  488MOL0     C67268   3.801   1.095   1.677  0.8489 -0.9153 -1.2653
  488MOL0     C67269   3.656   1.051   1.720 -0.3686  0.1557 -0.1329
  488MOL0     C67270   3.612   1.100   1.852  0.0063  0.0362 -0.0051
  488MOL0     C67271   3.578   1.121   1.968  0.3331  0.2124  0.1455
  488MOL0     C67272   4.325   1.036   1.621 -0.6334  0.0985  0.1150
  488MOL0     C67273   4.455   1.027   1.573  0.6912 -0.0606 -0.5574
  488MOL0     C67274   4.553   1.117   1.635 -0.4250 -0.3005  0.0385
  488MOL0     H67275   4.664   1.078   1.105  1.6134  1.0897 -2.7867
  488MOL0     H67276   4.861   1.072   0.960  3.7617  0.5198  1.2730
  488MOL0     H67277   5.100   1.047   0.873 -0.4393  0.7716  0.0497
  488MOL0     H67278   4.977   0.972   0.783 -0.5127 -0.1237  0.2391
  488MOL0     H67279   5.138   0.777   0.716 -0.7296  0.1619  0.8032
  488MOL0     H67280   5.165   0.938   0.661 -2.5710  0.7354  1.2536
  488MOL0     H67281   5.334   0.981   0.836  1.8569 -0.0584 -4.0629
  488MOL0     H67282   5.297   0.818   0.909  0.1381  0.5047  0.2822
  488MOL0     H67283   5.362   0.716   0.681  0.5927  0.1834  0.0469
  488MOL0     H67284   5.438   0.871   0.643  1.7680  0.1073  0.5326
  488MOL0     H67285   5.505   0.696   0.881  1.3499 -3.0938 -0.6934
  488MOL0     H67286   5.571   0.852   0.856 -2.7358  0.5900  0.0552
  488MOL0     H67287   5.612   0.626   0.658  0.9766 -0.6512  1.3308
  488MOL0     H67288   5.661   0.797   0.647 -1.5835  2.8654  2.4303
  488MOL0     H67289   5.816   0.589   0.745  0.9784 -1.2941  2.3658
  488MOL0     H67290   5.758   0.648   0.892 -0.1276  1.3531  0.1783
  488MOL0     H67291   5.913   0.817   0.684  2.1360  0.8898  0.2633
  488MOL0     H67292   5.810   0.889   0.815 -1.0177 -0.5110 -0.3615
  488MOL0     H67293   5.900   0.854   1.064 -1.1857  1.1313 -2.0512
  488MOL0     H67294   6.071   0.986   1.190 -0.0448  0.5860  1.8526
  488MOL0     H67295   6.243   0.934   1.187  0.2438 -1.7510 -1.0804
  488MOL0     H67296   6.010   0.787   1.311  0.2169 -0.3268  0.6845
  488MOL0     H67297   6.134   0.693   1.217 -1.2066  0.9327 -0.5663
  488MOL0     H67298   6.228   0.899   1.416  1.8462 -0.3517 -1.2627
  488MOL0     H67299   6.152   0.744   1.479  1.8223 -2.5199 -0.0261
  488MOL0     H67300   6.322   0.618   1.381 -0.3498 -0.2840 -0.1674
  488MOL0     H67301   6.352   0.754   1.264 -2.2682  1.3494  0.2023
  488MOL0     H67302   6.553   0.566   1.300 -2.0706 -1.6541  1.6378
  488MOL0     H67303   6.708   0.474   1.185 -2.3462  1.5424  2.3898
  488MOL0     H67304   6.810   0.404   1.314 -0.4557 -1.7854 -2.1941
  488MOL0     H67305   6.881   0.526   1.204  2.4102 -2.3819  2.3764
  488MOL0     H67306   7.302   0.805   1.492  0.2358 -0.6149  0.0274
  488MOL0     H67307   7.513   0.719   1.572  0.6261  1.5401  1.4651
  488MOL0     H67308   7.662   0.525   1.602  1.0569 -2.3387 -0.3238
  488MOL0     H67309   7.672   0.640   1.734  3.5186  0.3137 -3.4752
  488MOL0     H67310   7.730   0.441   1.881 -1.4585 -3.5820 -0.3817
  488MOL0     H67311   7.757   0.342   1.738 -1.5961 -0.1537 -0.1865
  488MOL0     H67312   7.889   0.613   1.782  1.5480  0.8847 -1.5512
  488MOL0     H67313   7.911   0.514   1.642  2.1148 -2.7455  0.3680
  488MOL0     H67314   8.009   0.337   1.785  1.0142  0.7204 -1.7355
  488MOL0     H67315   7.974   0.434   1.926  3.4170 -0.3416  0.6987
  488MOL0     H67316   8.173   0.497   1.700 -0.5194 -0.6072  0.5170
  488MOL0     H67317   8.129   0.616   1.824  1.6530  1.1819 -1.3130
  488MOL0     H67318   8.268   0.335   1.868  1.0728  0.2588 -0.2393
  488MOL0     H67319   8.222   0.452   1.996  1.2177  0.5567  0.3777
  488MOL0     H67320   8.381   0.611   1.904 -1.1594 -0.4816  1.6194
  488MOL0     H67321   8.416   0.511   1.757  0.6149 -1.1159  0.5598
  488MOL0     H67322   8.592   0.468   1.887 -0.2339  2.2039 -2.1814
  488MOL0     H67323   8.476   0.330   1.919 -0.6777  0.2200  1.2676
  488MOL0     H67324   7.278   0.446   1.823 -0.7343 -0.9719 -1.1820
  488MOL0     H67325   7.079   0.513   1.702  0.5145 -0.2785  1.5563
  488MOL0     H67326   6.853   0.815   1.604 -1.3801 -1.5635  1.8838
  488MOL0     H67327   6.620   0.870   1.596  1.1017 -0.5184  1.1484
  488MOL0     H67328   4.962   0.694   1.130  0.8112 -0.5035 -0.2128
  488MOL0     H67329   4.751   0.700   1.262 -1.9306  0.7255 -0.1687
  488MOL0     H67330   4.350   0.820   1.311  3.0136 -0.0334  0.9488
  488MOL0     H67331   4.131   0.862   1.412 -1.5719  2.8317  2.3950
  488MOL0     H67332   4.122   1.043   1.795 -0.5158 -1.2664  0.8461
  488MOL0     H67333   4.057   1.181   1.695  1.4120 -0.4113 -1.0463
  488MOL0     H67334   3.883   1.104   1.875 -1.0585 -0.8561  0.2906
  488MOL0     H67335   3.897   0.950   1.802  1.3603  0.8191  1.0367
  488MOL0     H67336   3.807   1.203   1.655  1.0564 -1.1723 -2.5874
  488MOL0     H67337   3.832   1.045   1.584  1.9631 -1.9341 -0.3698
  488MOL0     H67338   3.657   0.942   1.707 -1.5802  0.1576 -0.3718
  488MOL0     H67339   3.595   1.095   1.641 -0.1333  1.6212  0.4749
  488MOL0     H67340   3.554   1.123   2.072  3.1605  0.7287  0.8583
  488MOL0     H67341   4.314   1.105   1.704  1.0802 -1.1290  1.4207
  488MOL0     H67342   4.575   1.204   1.572  1.8178  0.7906  2.1441
  488MOL0     H67343   4.523   1.160   1.731  0.6486  2.0811 -0.6000
  488MOL0     H67344   4.652   1.074   1.655 -0.1683  1.2086  2.3737
  489MOL0     O67345   9.888   6.515   7.213  0.6427  0.1351  0.1871
  489MOL0     C67346   9.839   6.600   7.287  0.1216 -0.2327 -0.3776
  489MOL0     O67347   9.837   6.732   7.263 -0.1213 -0.4765  0.1703
  489MOL0     C67348   9.897   6.782   7.142 -0.2275  0.4753 -0.1687
  489MOL0     C67349  10.023   6.845   7.140 -0.0071 -0.2871 -0.3518
  489MOL0     C67350  10.065   6.898   7.018 -0.4620  0.2824  1.1502
  489MOL0     C67351   9.988   6.897   6.903 -0.5630 -0.2405  0.1013
  489MOL0     O67352  10.030   6.959   6.788  0.1635  0.1121  0.0322
  489MOL0     C67353  10.060   6.854   6.692 -0.1413  0.0016  0.3822
  489MOL0     C67354  10.121   6.915   6.566 -0.0927  0.0011 -0.1547
  489MOL0     C67355  10.267   6.925   6.583  0.2914 -0.0853  0.2413
  489MOL0     C67356  10.338   6.997   6.467 -0.1553 -0.2988  0.1518
  489MOL0     C67357  10.490   6.990   6.465 -0.0861  0.6590  0.0022
  489MOL0     C67358  10.555   7.072   6.580  1.2212  0.6669 -0.0624
  489MOL0     C67359  10.700   7.036   6.573  0.6420 -0.2229 -0.3286
  489MOL0     C67360  10.789   7.131   6.657  0.0413 -0.2148  0.5318
  489MOL0     N67361  10.936   7.122   6.645 -0.2175 -1.1120 -0.0714
  489MOL0     C67362  11.008   7.016   6.692 -0.1173  0.0276 -0.2647
  489MOL0     C67363  11.136   7.053   6.709  0.8851 -0.0604 -0.3001
  489MOL0     C67364  11.253   6.960   6.731  0.1278 -0.0474 -0.0398
  489MOL0     C67365  11.384   7.030   6.704 -0.1875  0.1815 -0.3855
  489MOL0     C67366  11.508   6.941   6.706 -0.5155 -0.9951 -0.2748
  489MOL0     C67367  11.636   7.027   6.680 -0.3311  0.5434  0.3932
  489MOL0     O67368  11.631   7.128   6.782  0.0585 -0.4591 -0.0014
  489MOL0     C67369  11.735   7.221   6.770  0.1439 -0.7826 -0.2271
  489MOL0     C67370  11.725   7.329   6.860 -0.6050  0.2828  0.6784
  489MOL0     C67371  11.826   7.431   6.862 -0.8540  0.0239 -0.4180
  489MOL0     C67372  11.826   7.520   6.978 -0.2176  0.0556 -0.5681
  489MOL0     C67373  11.935   7.429   6.768 -0.5451 -0.0258  0.3423
  489MOL0     C67374  12.037   7.536   6.757 -0.2169 -0.2082 -0.2448
  489MOL0     O67375  12.108   7.539   6.633  0.0292  0.0910  0.4835
  489MOL0     C67376  12.229   7.601   6.640 -0.3123  0.2688 -0.2919
  489MOL0     C67377  12.359   7.528   6.646  0.2017  0.1896  0.0781
  489MOL0     C67378  12.476   7.599   6.663 -0.5659 -0.3835  0.0455
  489MOL0     C67379  12.487   7.741   6.685  0.1910 -0.0386  0.7007
  489MOL0     O67380  12.614   7.791   6.705  0.1439 -0.4746 -0.7775
  489MOL0     C67381  12.626   7.934   6.714 -1.2365  0.2356 -0.2190
  489MOL0     C67382  12.778   7.960   6.706  0.1046 -0.7029  0.0988
  489MOL0     C67383  12.787   8.116   6.709 -0.7456 -0.1238 -0.3230
  489MOL0     C67384  12.928   8.170   6.737  0.4626 -0.1956  0.2480
  489MOL0     C67385  12.926   8.314   6.787 -0.3157  0.1824 -0.1315
  489MOL0     C67386  12.859   8.416   6.686  0.7694  0.7503 -0.0121
  489MOL0     C67387  12.890   8.549   6.753  0.1115  0.0910 -0.3172
  489MOL0     C67388  12.819   8.662   6.680 -0.5862  0.2991 -1.1198
  489MOL0    Cl67389  12.896   8.826   6.714  0.6540 -0.6447 -0.2746
  489MOL0     C67390  12.360   7.805   6.678  0.8781  0.4824  0.3086
  489MOL0     C67391  12.238   7.746   6.662  0.2906  1.2980  0.3540
  489MOL0     O67392  12.062   7.598   6.864 -0.3564  0.4504  0.8348
  489MOL0     C67393  11.935   7.320   6.682 -0.0857 -0.2430 -0.4992
  489MOL0     C67394  11.843   7.223   6.680  0.1678 -1.3439 -0.2857
  489MOL0     N67395  11.136   7.182   6.660 -0.7797 -0.6670  0.2645
  489MOL0     N67396  11.024   7.230   6.626  0.0716 -0.3294 -0.1742
  489MOL0     C67397   9.866   6.820   6.907 -0.1180 -0.7560  0.1246
  489MOL0     C67398   9.817   6.766   7.027  0.2644  0.4710  0.2411
  489MOL0     C67399   9.776   6.549   7.406 -0.3133 -0.3119 -0.1952
  489MOL0     C67400   9.827   6.427   7.470  0.5446  0.3184 -0.1534
  489MOL0     C67401   9.758   6.363   7.574  0.3559 -0.3277 -0.2258
  489MOL0     C67402   9.659   6.429   7.642 -0.2691  0.0939 -0.4728
  489MOL0     O67403   9.618   6.413   7.771  0.0060  0.3613  0.8615
  489MOL0     C67404   9.647   6.287   7.841  0.0029  0.1049 -0.7455
  489MOL0     C67405   9.559   6.170   7.794 -0.6579 -0.0836  0.5824
  489MOL0     C67406   9.412   6.196   7.817 -0.6036  0.4085  0.9233
  489MOL0     C67407   9.365   6.189   7.956  0.5154 -0.5658  0.4205
  489MOL0     C67408   9.364   6.053   8.009 -1.1531  0.9374  0.0317
  489MOL0     C67409   9.381   5.937   8.052 -0.7490 -0.0428 -0.1912
  489MOL0     C67410   9.614   6.545   7.585 -0.6719  0.1187  0.0527
  489MOL0     C67411   9.660   6.600   7.466 -1.1702 -0.1702  0.5553
  489MOL0     C67412   9.587   6.723   7.412 -0.2594  0.3544 -0.0803
  489MOL0     H67413  10.090   6.850   7.225 -0.2086  2.0143 -0.2549
  489MOL0     H67414  10.163   6.945   7.016  1.1159 -2.5279  3.9527
  489MOL0     H67415   9.964   6.811   6.659 -0.9271 -1.3780  3.9557
  489MOL0     H67416  10.131   6.778   6.726 -0.0817  0.5064  1.4396
  489MOL0     H67417  10.104   6.853   6.478 -1.2044 -0.7079  0.5213
  489MOL0     H67418  10.085   7.017   6.554  3.5109  1.2433 -1.6180
  489MOL0     H67419  10.284   6.968   6.682  0.1544  2.2428 -0.6780
  489MOL0     H67420  10.311   6.825   6.584  0.2751 -0.2537  4.5271
  489MOL0     H67421  10.301   6.963   6.370  0.6153  3.2381 -1.5379
  489MOL0     H67422  10.309   7.102   6.477  3.2469  0.6026  2.0020
  489MOL0     H67423  10.529   7.026   6.369  3.0577  1.3926  1.4196
  489MOL0     H67424  10.517   6.884   6.475 -1.0427  0.2228 -1.6874
  489MOL0     H67425  10.541   7.179   6.561 -2.8680  0.1897 -0.4797
  489MOL0     H67426  10.523   7.052   6.682  2.9933 -1.9912  0.0913
  489MOL0     H67427  10.730   7.042   6.468 -0.3010 -0.2682 -0.6100
  489MOL0     H67428  10.706   6.932   6.606 -2.0976 -0.0587  0.9476
  489MOL0     H67429  10.773   7.234   6.627 -0.9871 -0.8105 -1.0835
  489MOL0     H67430  10.749   7.121   6.758 -0.5114 -2.0004  0.1769
  489MOL0     H67431  10.961   6.921   6.712 -1.4904  1.2162  2.7511
  489MOL0     H67432  11.244   6.872   6.666  0.9182 -1.2024  1.3317
  489MOL0     H67433  11.255   6.937   6.838 -0.4098  2.2038  0.5102
  489MOL0     H67434  11.388   7.096   6.617 -1.3549  1.9166  0.7882
  489MOL0     H67435  11.398   7.101   6.786  0.8191 -1.4161  0.8872
  489MOL0     H67436  11.523   6.881   6.796 -1.7097 -0.6886  0.1478
  489MOL0     H67437  11.526   6.866   6.629  2.3942 -0.2609 -0.4326
  489MOL0     H67438  11.729   6.969   6.689 -1.1368 -0.8575 -0.0776
  489MOL0     H67439  11.629   7.068   6.579 -1.5132  0.2401  0.3401
  489MOL0     H67440  11.636   7.338   6.921 -2.1094  1.6999 -1.5805
  489MOL0     H67441  11.920   7.518   7.034 -1.2014 -1.1289  1.1265
  489MOL0     H67442  11.753   7.477   7.047 -0.4917  0.7067 -0.4351
  489MOL0     H67443  11.796   7.622   6.951  2.0934  1.3529  1.3851
  489MOL0     H67444  12.369   7.422   6.624 -0.8458  0.6807 -3.3930
  489MOL0     H67445  12.568   7.542   6.657  0.9401  1.8144  1.2091
  489MOL0     H67446  12.577   7.981   6.628  3.5058  3.0667 -1.7278
  489MOL0     H67447  12.587   7.976   6.807  0.1547 -1.0606  1.0065
  489MOL0     H67448  12.824   7.918   6.796  0.6035  1.0908  0.7192
  489MOL0     H67449  12.828   7.923   6.616  3.7155  0.1552  1.5803
  489MOL0     H67450  12.723   8.151   6.790 -1.1333 -2.3753  0.3915
  489MOL0     H67451  12.754   8.158   6.613  0.3306 -0.9292 -1.0631
  489MOL0     H67452  12.980   8.166   6.641  0.3720 -0.4224  0.2078
  489MOL0     H67453  12.988   8.110   6.805  0.2764  0.0919  0.6701
  489MOL0     H67454  12.873   8.315   6.882  1.1927 -1.3466  0.7859
  489MOL0     H67455  13.030   8.343   6.806 -0.8953  0.8287  2.4226
  489MOL0     H67456  12.752   8.402   6.667  0.6471  1.3392  0.2121
  489MOL0     H67457  12.911   8.415   6.590  1.2727 -1.0951  0.2486
  489MOL0     H67458  12.998   8.567   6.755  0.5256 -2.1184 -0.7675
  489MOL0     H67459  12.851   8.555   6.855 -2.0206 -1.4648 -0.9703
  489MOL0     H67460  12.716   8.673   6.714  0.6501  2.0626  2.6085
  489MOL0     H67461  12.819   8.641   6.573  0.5355  0.7605 -1.2293
  489MOL0     H67462  12.357   7.913   6.689  1.4817  0.6946 -1.3440
  489MOL0     H67463  12.143   7.796   6.676  0.0613  0.5402  1.6315
  489MOL0     H67464  12.015   7.312   6.608  0.4735 -0.2965  0.1021
  489MOL0     H67465  11.852   7.145   6.605  1.5234 -0.6042 -0.9337
  489MOL0     H67466   9.813   6.808   6.813  0.0292  1.3104 -0.2665
  489MOL0     H67467   9.723   6.712   7.032  0.0845  0.8855  2.1293
  489MOL0     H67468   9.900   6.374   7.409 -1.4048  0.8694 -3.1905
  489MOL0     H67469   9.791   6.267   7.612 -2.2884 -1.3519 -0.3650
  489MOL0     H67470   9.753   6.261   7.832  0.1543  0.9881 -1.6644
  489MOL0     H67471   9.619   6.309   7.945 -1.1727 -1.0986 -0.7877
  489MOL0     H67472   9.581   6.070   7.833 -6.2937 -1.8327  0.2660
  489MOL0     H67473   9.575   6.162   7.686  0.5496 -0.6231  0.7904
  489MOL0     H67474   9.406   6.300   7.783 -1.6980 -0.4677 -1.8349
  489MOL0     H67475   9.352   6.133   7.751  0.0111 -0.8805  1.5569
  489MOL0     H67476   9.262   6.225   7.954  0.6190 -0.1600  1.8064
  489MOL0     H67477   9.425   6.255   8.019 -0.2436  0.7438 -0.1832
  489MOL0     H67478   9.411   5.841   8.091 -0.7360  0.0979  0.1545
  489MOL0     H67479   9.537   6.599   7.640 -1.2278 -0.1661 -0.4370
  489MOL0     H67480   9.570   6.704   7.306  0.1334  2.4217 -0.5635
  489MOL0     H67481   9.491   6.729   7.464 -0.5898 -0.3342 -0.5977
  489MOL0     H67482   9.652   6.808   7.438  0.9899 -1.3709  3.0179
  490MOL0     O67483  10.566   4.139   2.050  0.2909 -0.4662 -0.1294
  490MOL0     C67484  10.590   4.021   2.041 -0.3199  0.1718  0.2099
  490MOL0     O67485  10.722   3.962   2.025  0.2675  0.0735 -0.1173
  490MOL0     C67486  10.827   4.043   2.048  0.2645  0.0744 -0.5134
  490MOL0     C67487  10.834   4.129   2.158 -0.8340  0.1925 -0.1835
  490MOL0     C67488  10.935   4.228   2.164  0.3532  0.3275 -0.1622
  490MOL0     C67489  11.036   4.228   2.059  0.4152  0.2510 -0.1039
  490MOL0     O67490  11.141   4.318   2.060 -0.1644  0.3131 -0.0516
  490MOL0     C67491  11.156   4.401   2.177 -0.8984  0.2474  0.8645
  490MOL0     C67492  11.277   4.488   2.166  0.4266 -0.4193  0.6905
  490MOL0     C67493  11.258   4.596   2.050 -0.0025  0.5900 -0.0637
  490MOL0     C67494  11.383   4.680   2.023 -0.1814  0.5574 -1.0199
  490MOL0     C67495  11.367   4.774   1.908  0.4284 -0.2639 -0.0569
  490MOL0     C67496  11.495   4.853   1.862 -0.0735  0.2102 -0.5924
  490MOL0     C67497  11.585   4.890   1.982 -0.0512  0.2818  0.0918
  490MOL0     C67498  11.722   4.939   1.924  0.9064  0.1415 -0.6186
  490MOL0     N67499  11.810   4.985   2.028 -0.3252  0.7004  0.3516
  490MOL0     C67500  11.855   5.109   2.041  0.9898  0.1218  0.4711
  490MOL0     C67501  11.956   5.107   2.124  0.0951  0.4025  0.1152
  490MOL0     C67502  12.053   5.217   2.165 -0.9691 -0.4154 -0.0596
  490MOL0     C67503  12.051   5.258   2.318  0.6411 -0.3237 -0.0723
  490MOL0     C67504  12.168   5.194   2.385  0.7241 -0.2635  0.0220
  490MOL0     C67505  12.147   5.200   2.534 -0.5999  0.4849 -0.2046
  490MOL0     O67506  12.260   5.155   2.597 -0.2994  0.3581 -0.0360
  490MOL0     C67507  12.274   5.215   2.719 -0.0740  0.1953  0.2325
  490MOL0     C67508  12.387   5.287   2.749  0.4843 -0.5355  0.8135
  490MOL0     C67509  12.392   5.355   2.872  0.2719  0.0364 -0.0223
  490MOL0     C67510  12.520   5.433   2.891 -0.0365  0.4639 -0.6435
  490MOL0     C67511  12.277   5.361   2.961  0.1656  0.8125 -0.3337
  490MOL0     C67512  12.270   5.442   3.079  0.1923  0.7951  0.1132
  490MOL0     O67513  12.380   5.506   3.122  0.9777  0.6225 -0.4101
  490MOL0     C67514  12.404   5.573   3.245  0.2852 -0.6486  0.5071
  490MOL0     C67515  12.320   5.574   3.362 -0.1111  2.0926 -0.6751
  490MOL0     C67516  12.370   5.630   3.482  0.2244  0.2790 -0.0059
  490MOL0     C67517  12.500   5.697   3.480  0.1831 -0.4361 -0.1977
  490MOL0     O67518  12.563   5.746   3.592 -0.3285  0.3688 -0.1523
  490MOL0     C67519  12.484   5.809   3.698 -0.1207  0.6542 -0.5842
  490MOL0     C67520  12.480   5.724   3.820 -0.0010 -0.4769  0.4936
  490MOL0     C67521  12.390   5.788   3.921  1.5981 -0.2542 -1.2855
  490MOL0     C67522  12.362   5.679   4.029  0.3546  0.0576  0.6756
  490MOL0     C67523  12.253   5.728   4.118  0.4442  0.3155 -0.2020
  490MOL0     C67524  12.178   5.617   4.187  0.8564  0.1417  0.9087
  490MOL0     C67525  12.072   5.678   4.286  0.7793 -0.3652  0.3893
  490MOL0     C67526  11.960   5.771   4.228 -0.5515  0.4329 -0.0544
  490MOL0    Cl67527  11.866   5.670   4.114  0.0820  0.2773  0.0079
  490MOL0     C67528  12.571   5.705   3.365  0.0440  0.7013 -0.0884
  490MOL0     C67529  12.522   5.643   3.247  0.5203  0.8721  0.4248
  490MOL0     O67530  12.164   5.424   3.147  0.1985 -0.8327 -0.0542
  490MOL0     C67531  12.167   5.279   2.930 -0.2562  1.0338  0.0569
  490MOL0     C67532  12.166   5.212   2.808  0.2221 -0.0776  0.0391
  490MOL0     N67533  11.970   4.980   2.175  0.0206 -0.0174  0.5611
  490MOL0     N67534  11.884   4.906   2.110  0.3755 -0.5726  0.5826
  490MOL0     C67535  11.031   4.139   1.952  0.2757 -0.5558  0.1930
  490MOL0     C67536  10.928   4.044   1.951  0.8342 -0.0011 -1.0798
  490MOL0     C67537  10.470   3.936   2.026 -0.6151  0.3324  0.2768
  490MOL0     C67538  10.467   3.848   1.909 -0.1918  0.2154  0.3281
  490MOL0     C67539  10.357   3.764   1.883  0.4678 -0.6511  0.0661
  490MOL0     C67540  10.241   3.774   1.968 -1.1370  0.4135 -0.2740
  490MOL0     O67541  10.135   3.684   1.965  0.0375 -1.2268 -0.3614
  490MOL0     C67542  10.114   3.588   1.869 -0.4891 -0.4824 -0.0164
  490MOL0     C67543  10.201   3.460   1.895  0.8336  0.4290  0.5586
  490MOL0     C67544  10.127   3.338   1.831  0.6772  0.5171  0.2550
  490MOL0     C67545  10.163   3.206   1.901  0.1312 -0.0518 -0.4398
  490MOL0     C67546  10.101   3.197   2.031  0.8903  0.6409 -0.8968
  490MOL0     C67547  10.036   3.204   2.138 -0.0986 -0.0483 -0.7268
  490MOL0     C67548  10.238   3.859   2.077  0.2308  0.3023  0.4834
  490MOL0     C67549  10.353   3.936   2.108  0.1748  0.5462 -0.4172
  490MOL0     C67550  10.350   4.040   2.224  0.4444 -0.5237 -0.3211
  490MOL0     H67551  10.770   4.131   2.246  1.9797  0.2340  2.0021
  490MOL0     H67552  10.938   4.295   2.248 -1.4594 -0.9046  0.9735
  490MOL0     H67553  11.170   4.338   2.266  1.1835 -1.7941 -0.7783
  490MOL0     H67554  11.067   4.462   2.194  0.0836  1.9083  0.2974
  490MOL0     H67555  11.291   4.542   2.261 -2.8583  0.2100  0.9211
  490MOL0     H67556  11.365   4.424   2.155  2.3316  1.9799  0.9399
  490MOL0     H67557  11.245   4.539   1.958  3.3152 -1.2360  0.4323
  490MOL0     H67558  11.183   4.672   2.077  0.0419  0.8934 -0.7768
  490MOL0     H67559  11.400   4.728   2.120 -1.0716 -0.5426 -0.2920
  490MOL0     H67560  11.469   4.614   2.010 -0.2593  0.0282  0.8512
  490MOL0     H67561  11.292   4.843   1.946  1.0981  0.0296  0.7745
  490MOL0     H67562  11.328   4.714   1.825  1.0804 -1.1528  0.2497
  490MOL0     H67563  11.551   4.801   1.784  1.6134  2.3690 -0.9185
  490MOL0     H67564  11.469   4.950   1.818  5.0109  2.3982  0.5119
  490MOL0     H67565  11.604   4.811   2.055 -1.9293  2.6304  3.4365
  490MOL0     H67566  11.546   4.979   2.034  0.4282  0.2908  0.4479
  490MOL0     H67567  11.765   4.856   1.868 -1.1768 -0.2436 -1.7632
  490MOL0     H67568  11.705   5.012   1.844  1.8080  0.0642 -0.8949
  490MOL0     H67569  11.811   5.194   1.989  2.4457  2.0465  2.2077
  490MOL0     H67570  12.022   5.311   2.118  0.9718  0.4036  0.1723
  490MOL0     H67571  12.145   5.191   2.113 -2.0107 -0.3436 -1.9993
  490MOL0     H67572  12.045   5.366   2.334 -3.7654 -0.6774  2.4022
  490MOL0     H67573  11.957   5.229   2.366  1.1763  1.0138  1.9461
  490MOL0     H67574  12.168   5.088   2.357 -0.0600 -0.1686 -0.3657
  490MOL0     H67575  12.263   5.242   2.360 -0.2358  1.8037  0.0987
  490MOL0     H67576  12.130   5.303   2.568 -2.7395  0.8357 -2.0484
  490MOL0     H67577  12.060   5.137   2.553  1.1794 -1.8095  0.6902
  490MOL0     H67578  12.470   5.284   2.680  0.2484  1.2387  0.4168
  490MOL0     H67579  12.503   5.541   2.892 -0.2034  0.4384 -0.6798
  490MOL0     H67580  12.590   5.416   2.808  1.4874  0.6810  0.5622
  490MOL0     H67581  12.574   5.403   2.981 -0.2063 -0.3558 -0.8031
  490MOL0     H67582  12.230   5.513   3.371 -0.7143  3.2582  2.1663
  490MOL0     H67583  12.308   5.615   3.569 -2.2582 -1.1176 -1.8963
  490MOL0     H67584  12.532   5.906   3.716  0.9309 -0.1031  0.8425
  490MOL0     H67585  12.380   5.824   3.665 -0.5323 -0.9479 -0.1210
  490MOL0     H67586  12.432   5.628   3.797 -1.2274  0.0642  0.6973
  490MOL0     H67587  12.577   5.711   3.868 -0.6264  1.7838  2.5431
  490MOL0     H67588  12.298   5.831   3.880 -0.5546 -1.6724  1.6685
  490MOL0     H67589  12.440   5.871   3.973 -0.4472 -0.4800  1.2313
  490MOL0     H67590  12.449   5.661   4.093  1.1400 -0.7799 -0.5668
  490MOL0     H67591  12.330   5.586   3.981 -0.9228  0.8251 -0.0002
  490MOL0     H67592  12.314   5.785   4.189 -1.1264 -0.0430  1.5067
  490MOL0     H67593  12.173   5.790   4.078  0.5061  2.9988  3.3995
  490MOL0     H67594  12.248   5.562   4.250  1.1489  0.7730  1.1437
  490MOL0     H67595  12.121   5.564   4.111  0.3813  1.7738  0.0886
  490MOL0     H67596  12.131   5.735   4.359  0.3071  1.2498 -0.4390
  490MOL0     H67597  12.027   5.597   4.345  0.9824  0.3495  1.5769
  490MOL0     H67598  12.004   5.858   4.179 -2.3806  1.0081 -0.7249
  490MOL0     H67599  11.903   5.822   4.306  0.3976  0.2142  0.8055
  490MOL0     H67600  12.670   5.751   3.362  0.3565  0.0165 -0.5182
  490MOL0     H67601  12.580   5.647   3.155  0.7195  0.6602  0.5384
  490MOL0     H67602  12.085   5.262   2.999  1.0910  2.1353  2.0168
  490MOL0     H67603  12.087   5.139   2.795  0.9126 -0.8212 -0.1009
  490MOL0     H67604  11.107   4.147   1.875  0.0862 -1.5596 -0.1054
  490MOL0     H67605  10.906   3.976   1.869 -0.6833  1.7181 -2.1567
  490MOL0     H67606  10.550   3.846   1.839 -1.1840 -3.3841 -0.9697
  490MOL0     H67607  10.359   3.710   1.789 -0.0141 -0.7929  0.1329
  490MOL0     H67608  10.008   3.563   1.861 -0.7804  1.1979 -2.3652
  490MOL0     H67609  10.145   3.634   1.775 -0.4864 -1.2535 -0.3980
  490MOL0     H67610  10.210   3.447   2.003  0.1949  0.8071  0.6669
  490MOL0     H67611  10.300   3.476   1.853 -0.1827 -1.7673 -3.1793
  490MOL0     H67612  10.018   3.330   1.842  0.8695 -2.8805  0.7245
  490MOL0     H67613  10.152   3.331   1.725  1.3975 -0.7692  0.4922
  490MOL0     H67614  10.271   3.186   1.902  0.5215  1.8302 -0.4079
  490MOL0     H67615  10.125   3.125   1.839 -2.0277  0.6239 -0.0891
  490MOL0     H67616   9.987   3.223   2.231  0.4160 -0.5822 -0.3399
  490MOL0     H67617  10.150   3.858   2.141  0.7341 -3.8693  1.3918
  490MOL0     H67618  10.364   4.142   2.188  0.3028 -0.7157 -0.9489
  490MOL0     H67619  10.249   4.044   2.267 -0.2837 -2.8147 -1.6087
  490MOL0     H67620  10.404   4.014   2.315 -2.8684 -1.5026  1.5328
  491MOL0     O67621   6.656   8.548   4.883  0.3319 -0.4044  0.0700
  491MOL0     C67622   6.577   8.612   4.817  0.0337 -0.9301  0.2764
  491MOL0     O67623   6.603   8.691   4.706 -0.4405  0.5095  0.3363
  491MOL0     C67624   6.722   8.705   4.661 -0.6936 -0.3937  0.1580
  491MOL0     C67625   6.846   8.671   4.717  0.2743 -0.2299  0.8214
  491MOL0     C67626   6.974   8.709   4.662  0.5049  0.0853 -0.9962
  491MOL0     C67627   6.978   8.776   4.538  0.6977 -0.2603 -0.5437
  491MOL0     O67628   7.083   8.829   4.477 -0.0232  0.3503  0.5979
  491MOL0     C67629   7.200   8.819   4.557  0.0905  0.2464  0.4733
  491MOL0     C67630   7.326   8.871   4.491  0.3436 -0.8415  0.3323
  491MOL0     C67631   7.456   8.851   4.561 -1.1805  0.4669  0.4052
  491MOL0     C67632   7.578   8.912   4.484  0.5624  0.5166 -0.2350
  491MOL0     C67633   7.703   8.908   4.577 -0.4910 -0.2799 -0.8709
  491MOL0     C67634   7.740   8.762   4.630 -0.3174  0.2584  0.0362
  491MOL0     C67635   7.871   8.761   4.698 -0.1094 -0.6079 -0.1341
  491MOL0     C67636   7.925   8.631   4.739  0.5397 -1.0959 -0.1688
  491MOL0     N67637   7.988   8.563   4.626  0.5299 -0.4467 -0.0845
  491MOL0     C67638   8.115   8.581   4.579  0.2524  0.0651 -0.4903
  491MOL0     C67639   8.127   8.488   4.478  1.4036  0.5684  0.3876
  491MOL0     C67640   8.252   8.477   4.398 -0.4223  0.3279 -0.6210
  491MOL0     C67641   8.375   8.399   4.468 -0.0282 -0.4964 -0.4152
  491MOL0     C67642   8.485   8.399   4.358 -0.6431 -0.2655 -0.3832
  491MOL0     C67643   8.611   8.337   4.418 -0.0164 -0.0460 -0.0131
  491MOL0     O67644   8.711   8.325   4.313  0.2106 -0.1772  0.2022
  491MOL0     C67645   8.827   8.263   4.347 -1.1519  0.0518  0.0228
  491MOL0     C67646   8.872   8.145   4.289 -0.9914  0.4707 -0.5210
  491MOL0     C67647   8.973   8.065   4.346 -0.4715 -1.3613 -0.1971
  491MOL0     C67648   9.023   7.944   4.266  0.2676 -0.0629 -0.1231
  491MOL0     C67649   9.033   8.109   4.466 -0.1265 -0.3440  0.3797
  491MOL0     C67650   9.136   8.024   4.535  0.2012 -0.3728  1.0116
  491MOL0     O67651   9.163   7.892   4.494 -0.0271 -0.6753 -0.2230
  491MOL0     C67652   9.289   7.846   4.520  0.0532 -0.2398 -0.6297
  491MOL0     C67653   9.369   7.818   4.410 -0.4861  0.5608 -0.9206
  491MOL0     C67654   9.497   7.761   4.431  0.0982  0.4525  0.1979
  491MOL0     C67655   9.541   7.728   4.552  0.0591  0.6473  0.5769
  491MOL0     O67656   9.675   7.704   4.573 -0.4480 -0.1970  0.5216
  491MOL0     C67657   9.734   7.736   4.701 -0.6677 -0.9370  0.0295
  491MOL0     C67658   9.881   7.730   4.686 -0.0739 -0.6590  0.6896
  491MOL0     C67659   9.948   7.705   4.817  0.4656 -0.7410 -0.0167
  491MOL0     C67660  10.100   7.709   4.801 -0.3565 -0.0428 -0.7747
  491MOL0     C67661  10.174   7.658   4.927  0.1370 -0.8423 -0.1160
  491MOL0     C67662  10.323   7.685   4.926 -0.2714 -0.0678 -0.5549
  491MOL0     C67663  10.360   7.836   4.947 -0.3340  0.8125  0.0546
  491MOL0     C67664  10.474   7.841   5.052  0.1424  0.8277  0.1120
  491MOL0    Cl67665  10.618   7.758   5.001  0.1908 -0.2253 -0.2358
  491MOL0     C67666   9.455   7.755   4.666  0.1743 -0.6481  1.2241
  491MOL0     C67667   9.329   7.814   4.643 -0.8182  1.1978  0.1232
  491MOL0     O67668   9.195   8.081   4.628  0.5223  0.0448 -0.2130
  491MOL0     C67669   8.986   8.231   4.523  0.2527  0.0304  0.3698
  491MOL0     C67670   8.893   8.312   4.461 -0.4019  0.5885 -0.5353
  491MOL0     N67671   8.012   8.412   4.475 -0.3147  0.2732  0.4091
  491MOL0     N67672   7.930   8.458   4.567 -0.3255 -0.7052  0.4320
  491MOL0     C67673   6.854   8.798   4.473  0.9137 -0.0063 -0.3831
  491MOL0     C67674   6.729   8.762   4.531 -0.4271 -0.4484  0.4887
  491MOL0     C67675   6.435   8.603   4.856 -0.2097 -1.2069 -0.2313
  491MOL0     C67676   6.397   8.616   4.991  0.9125 -0.0855  0.2748
  491MOL0     C67677   6.265   8.623   5.035  0.0907  0.1669  0.2108
  491MOL0     C67678   6.169   8.594   4.941 -0.4804  0.1311 -0.0192
  491MOL0     O67679   6.044   8.593   4.989  0.1175  0.1629 -0.0837
  491MOL0     C67680   5.933   8.585   4.908 -0.2241 -0.7912 -0.0244
  491MOL0     C67681   5.902   8.718   4.846 -0.4675 -0.0346  0.5122
  491MOL0     C67682   5.866   8.822   4.948  0.5139  0.3922  0.3607
  491MOL0     C67683   5.743   8.903   4.895  0.3170  0.4832 -1.0539
  491MOL0     C67684   5.727   9.015   4.985 -0.8196  0.6844 -0.0293
  491MOL0     C67685   5.694   9.120   5.035  0.5943 -1.1072  0.5601
  491MOL0     C67686   6.201   8.585   4.802 -0.1135  0.9745 -0.0095
  491MOL0     C67687   6.333   8.584   4.759 -0.8734 -0.7254  0.1808
  491MOL0     C67688   6.371   8.555   4.625  0.1467  0.5339 -0.3757
  491MOL0     H67689   6.841   8.637   4.820 -1.9672 -1.1897  0.4631
  491MOL0     H67690   7.058   8.690   4.729  0.8992  1.4267 -1.0912
  491MOL0     H67691   7.215   8.712   4.577  0.4329  0.1294 -0.3568
  491MOL0     H67692   7.191   8.871   4.652  0.2769 -1.3369  1.3905
  491MOL0     H67693   7.341   8.834   4.389  2.1900 -1.8291  0.9178
  491MOL0     H67694   7.305   8.977   4.480 -1.4220 -1.2569 -0.7077
  491MOL0     H67695   7.451   8.901   4.658 -2.1367  0.0882  0.5678
  491MOL0     H67696   7.477   8.746   4.582  0.4099  0.6227 -0.2299
  491MOL0     H67697   7.590   8.857   4.391 -3.0444 -0.9921  0.0314
  491MOL0     H67698   7.549   9.016   4.463  3.0202  1.5336  1.0407
  491MOL0     H67699   7.691   8.967   4.668  0.3543 -0.4911 -0.6121
  491MOL0     H67700   7.788   8.946   4.519 -0.4539  0.5408 -0.2939
  491MOL0     H67701   7.659   8.724   4.692 -0.3637  1.1029  0.5182
  491MOL0     H67702   7.747   8.701   4.540 -1.4013 -0.0006  0.1203
  491MOL0     H67703   7.872   8.818   4.792  2.3100  0.6900 -0.8429
  491MOL0     H67704   7.947   8.816   4.642  1.1384 -0.3213  1.7415
  491MOL0     H67705   8.015   8.644   4.799  1.2075  0.6611 -1.4660
  491MOL0     H67706   7.852   8.562   4.783  1.8277 -1.5572  1.3006
  491MOL0     H67707   8.189   8.654   4.614  1.1253 -0.6061 -0.8930
  491MOL0     H67708   8.296   8.573   4.369  1.1439 -0.1311  0.1526
  491MOL0     H67709   8.226   8.427   4.304  1.0011  0.5601 -1.1682
  491MOL0     H67710   8.403   8.442   4.565  0.8447 -0.1111 -0.8361
  491MOL0     H67711   8.355   8.294   4.493 -3.3955  0.3024  0.8608
  491MOL0     H67712   8.458   8.328   4.279 -1.1880 -3.1640  2.1919
  491MOL0     H67713   8.509   8.503   4.335 -2.2335  0.9977  2.9735
  491MOL0     H67714   8.651   8.401   4.498 -1.7077 -2.6588  3.1288
  491MOL0     H67715   8.586   8.238   4.456  0.6599  0.0683  0.7540
  491MOL0     H67716   8.813   8.105   4.207 -0.6720  1.2194 -1.1217
  491MOL0     H67717   8.981   7.952   4.165  1.3185 -0.3974 -0.5950
  491MOL0     H67718   9.007   7.851   4.321 -0.3698  1.8872  3.2828
  491MOL0     H67719   9.129   7.951   4.243  0.5245 -0.1348  0.9912
  491MOL0     H67720   9.332   7.847   4.312 -3.9217 -1.9562 -0.5482
  491MOL0     H67721   9.570   7.757   4.351 -1.0498  1.8612 -0.9870
  491MOL0     H67722   9.690   7.828   4.741 -4.2860 -1.7979 -1.6047
  491MOL0     H67723   9.705   7.652   4.764 -1.8607  1.5320  3.0342
  491MOL0     H67724   9.911   7.657   4.610  0.8883  0.8106 -0.4208
  491MOL0     H67725   9.916   7.824   4.641 -0.1841 -0.3538  1.2294
  491MOL0     H67726   9.914   7.612   4.862 -0.2647 -0.4805 -0.0164
  491MOL0     H67727   9.912   7.783   4.886  0.9909 -0.4888 -0.0200
  491MOL0     H67728  10.144   7.805   4.774 -0.2106  0.7386  1.9468
  491MOL0     H67729  10.119   7.643   4.716  0.7116 -1.4423  0.4750
  491MOL0     H67730  10.139   7.728   5.004  1.7145  0.0099 -0.1300
  491MOL0     H67731  10.142   7.557   4.952 -1.5714 -0.2618  0.1993
  491MOL0     H67732  10.374   7.645   4.838 -0.3872  0.3134 -0.7974
  491MOL0     H67733  10.370   7.622   5.003  1.0421 -0.0683 -1.3316
  491MOL0     H67734  10.281   7.902   4.984  1.0979  4.4785 -2.7785
  491MOL0     H67735  10.389   7.872   4.848 -2.2605  3.2372  0.2834
  491MOL0     H67736  10.442   7.789   5.143  2.6344 -0.9989  0.0601
  491MOL0     H67737  10.497   7.945   5.079  0.2739  0.2399  2.5003
  491MOL0     H67738   9.486   7.741   4.769 -0.0229  0.6174  1.4799
  491MOL0     H67739   9.262   7.817   4.728  0.9222  0.3902  1.5962
  491MOL0     H67740   9.032   8.264   4.615 -0.5122  0.4493  0.6108
  491MOL0     H67741   8.859   8.403   4.508  0.1981  1.0086 -0.9057
  491MOL0     H67742   6.859   8.858   4.383  0.6417  0.8267  0.1435
  491MOL0     H67743   6.636   8.791   4.482  1.2332  0.7007 -2.2012
  491MOL0     H67744   6.483   8.610   5.057  1.2914  0.9886 -0.0942
  491MOL0     H67745   6.228   8.648   5.134  1.2615  0.5555  0.5640
  491MOL0     H67746   5.934   8.507   4.832 -2.4759 -0.5425 -0.3852
  491MOL0     H67747   5.843   8.567   4.967 -0.5703 -1.3411 -0.7067
  491MOL0     H67748   5.811   8.693   4.789  0.0011  2.5295 -1.5369
  491MOL0     H67749   5.967   8.759   4.768  0.9269 -0.4093  1.4474
  491MOL0     H67750   5.845   8.772   5.043 -0.9431  2.1082  0.9936
  491MOL0     H67751   5.950   8.892   4.947  1.4339 -0.6679  1.2777
  491MOL0     H67752   5.660   8.832   4.898  3.7635 -3.8978 -0.3388
  491MOL0     H67753   5.763   8.940   4.794  0.7535 -0.2375 -1.2341
  491MOL0     H67754   5.670   9.222   5.058 -0.0918 -1.4369  1.3578
  491MOL0     H67755   6.122   8.557   4.732  1.2362 -4.0938  0.1080
  491MOL0     H67756   6.456   8.486   4.622  0.9055  1.4802 -1.0847
  491MOL0     H67757   6.283   8.509   4.579 -0.2359 -0.5026  1.2801
  491MOL0     H67758   6.394   8.641   4.563  1.5531  1.3014  1.1365
  492MOL0     O67759   1.228  10.821  10.467  0.1623  0.2503 -0.2879
  492MOL0     C67760   1.178  10.727  10.403 -0.7295  0.4444 -0.7718
  492MOL0     O67761   1.235  10.606  10.385  0.4339  0.3622 -0.0040
  492MOL0     C67762   1.369  10.599  10.421 -0.1234 -0.4175 -0.3957
  492MOL0     C67763   1.424  10.636  10.544  0.3126 -0.1846  0.1966
  492MOL0     C67764   1.558  10.627  10.571 -0.0751  0.1603  0.7657
  492MOL0     C67765   1.644  10.564  10.479  0.5620  0.0097  0.3281
  492MOL0     O67766   1.781  10.539  10.504  0.1247  0.3153 -0.0781
  492MOL0     C67767   1.850  10.597  10.620 -0.6816 -0.0972  1.1967
  492MOL0     C67768   1.890  10.737  10.580  0.9676  1.2159 -0.2476
  492MOL0     C67769   1.982  10.732  10.461 -0.5685  0.8868 -0.3715
  492MOL0     C67770   2.124  10.776  10.519 -0.0212 -0.0389  0.4561
  492MOL0     C67771   2.220  10.810  10.403  0.2834  0.0141 -0.5717
  492MOL0     C67772   2.349  10.881  10.438  0.1260 -0.2223  0.0730
  492MOL0     C67773   2.427  10.927  10.316  0.6016  0.1978  0.1814
  492MOL0     C67774   2.530  10.826  10.280 -1.0737  0.5704 -1.0194
  492MOL0     N67775   2.584  10.862  10.142 -0.0531 -0.5689 -0.5450
  492MOL0     C67776   2.677  10.966  10.111  0.4769  1.3106 -0.0790
  492MOL0     C67777   2.695  10.955   9.975 -0.1287 -0.5825 -0.4163
  492MOL0     C67778   2.762  11.046   9.879 -0.3354 -0.2209 -0.0357
  492MOL0     C67779   2.918  11.034   9.887  0.4365  0.5451  1.2228
  492MOL0     C67780   2.969  10.891   9.858 -0.9581  0.0865  0.1522
  492MOL0     C67781   3.121  10.891   9.843  0.6627  0.4258  0.3076
  492MOL0     O67782   3.142  10.958   9.710 -0.3317 -0.9301 -0.1298
  492MOL0     C67783   3.251  11.036   9.701 -0.1240 -0.6994  0.5150
  492MOL0     C67784   3.232  11.159   9.645 -0.2593 -0.1406 -0.5246
  492MOL0     C67785   3.329  11.260   9.653  0.2266 -0.0658  0.5223
  492MOL0     C67786   3.298  11.392   9.585 -0.2341 -0.1330 -0.4682
  492MOL0     C67787   3.444  11.242   9.720 -0.1281  0.6030  0.3008
  492MOL0     C67788   3.527  11.352   9.759 -1.3557  0.4705 -0.0970
  492MOL0     O67789   3.659  11.315   9.739  0.6069  0.6663  0.0453
  492MOL0     C67790   3.758  11.399   9.785  0.5709 -0.8170 -0.1626
  492MOL0     C67791   3.754  11.492   9.897 -0.7845  0.1145  0.1054
  492MOL0     C67792   3.858  11.589   9.909 -0.0754 -0.3587  0.2119
  492MOL0     C67793   3.974  11.576   9.837 -0.7193  0.2557  0.4168
  492MOL0     O67794   4.093  11.642   9.864 -0.0448 -0.1736  0.4488
  492MOL0     C67795   4.104  11.739   9.972  0.0040  0.5288 -0.0789
  492MOL0     C67796   4.085  11.877   9.910 -0.8459 -0.2382 -0.1728
  492MOL0     C67797   4.047  11.980  10.014  0.5898  0.7262 -0.6554
  492MOL0     C67798   4.051  12.110   9.925  0.2169 -0.3057 -0.6539
  492MOL0     C67799   3.992  12.224  10.014 -0.5485 -0.7274 -0.0860
  492MOL0     C67800   4.009  12.358   9.939 -0.2246  0.3694 -0.0602
  492MOL0     C67801   3.924  12.458  10.014  0.3860 -0.7173 -0.2061
  492MOL0     C67802   3.949  12.601   9.971  0.0678 -0.1290 -0.6972
  492MOL0    Cl67803   4.115  12.635  10.015  0.1620 -0.0376  0.2932
  492MOL0     C67804   3.977  11.480   9.739 -0.4312  0.3138 -0.4948
  492MOL0     C67805   3.869  11.401   9.707 -0.8386  0.6113  0.0260
  492MOL0     O67806   3.484  11.464   9.774  0.2223 -0.0842 -0.0136
  492MOL0     C67807   3.474  11.110   9.759  0.4188  0.9072  0.0194
  492MOL0     C67808   3.372  11.007   9.754 -0.4384  0.1831  0.1865
  492MOL0     N67809   2.614  10.851   9.927  1.1509  0.2859 -0.7477
  492MOL0     N67810   2.547  10.802  10.024  0.0695  0.2670  0.0598
  492MOL0     C67811   1.591  10.525  10.354 -0.1863  1.0201  0.6961
  492MOL0     C67812   1.449  10.536  10.322  0.3036 -0.8621 -0.4246
  492MOL0     C67813   1.052  10.736  10.337  1.5494 -0.4360  0.3148
  492MOL0     C67814   1.026  10.670  10.217  0.5179 -0.2494 -0.3154
  492MOL0     C67815   0.908  10.700  10.150  0.8697 -0.3957  0.5267
  492MOL0     C67816   0.804  10.777  10.199  0.1173  0.1991 -1.3370
  492MOL0     O67817   0.698  10.801  10.120 -0.1924  0.0965  0.3270
  492MOL0     C67818   0.622  10.915  10.165  0.8119 -0.5246  0.2025
  492MOL0     C67819   0.519  10.967  10.052 -0.1151 -0.2087 -0.1505
  492MOL0     C67820   0.405  10.867  10.036 -0.1136 -0.5817  0.0948
  492MOL0     C67821   0.320  10.903   9.915  0.0327  0.5465  0.2065
  492MOL0     C67822   0.217  10.795   9.891 -0.4924 -0.6235  0.0014
  492MOL0     C67823   0.141  10.703   9.880  0.0129  0.4859 -0.3048
  492MOL0     C67824   0.827  10.829  10.330 -0.6472  1.0370 -0.1500
  492MOL0     C67825   0.951  10.820  10.394  0.2225 -0.1287  0.9088
  492MOL0     C67826   0.966  10.887  10.524  0.7050  0.2113  0.5490
  492MOL0     H67827   1.366  10.680  10.624 -0.7206  0.8155 -1.0712
  492MOL0     H67828   1.586  10.662  10.670 -0.7441  3.7600 -0.1785
  492MOL0     H67829   1.947  10.547  10.635  1.0351  1.9472 -1.9323
  492MOL0     H67830   1.794  10.577  10.712 -1.3094 -0.5316  0.7312
  492MOL0     H67831   1.793  10.775  10.548 -0.3558 -0.2535  1.7413
  492MOL0     H67832   1.925  10.796  10.664  0.4536  1.7995 -0.4325
  492MOL0     H67833   1.998  10.638  10.408  0.6302  1.4323 -1.0248
  492MOL0     H67834   1.951  10.803  10.384 -0.8832 -1.4542 -2.4941
  492MOL0     H67835   2.125  10.867  10.579  2.7161  0.2517  0.1397
  492MOL0     H67836   2.169  10.693  10.574  2.3322  1.2055  0.5586
  492MOL0     H67837   2.164  10.863  10.326 -1.1101  1.9556  1.6206
  492MOL0     H67838   2.254  10.716  10.358  0.9832 -0.2048  0.3959
  492MOL0     H67839   2.332  10.962  10.509  0.9768 -1.9010  2.3423
  492MOL0     H67840   2.420  10.813  10.487  0.7424 -0.8127 -1.5668
  492MOL0     H67841   2.475  11.025  10.326  4.9602 -1.4860 -1.7835
  492MOL0     H67842   2.370  10.945  10.225  1.5189  1.6164 -0.1400
  492MOL0     H67843   2.613  10.823  10.351 -2.2693  0.6847  0.4419
  492MOL0     H67844   2.483  10.727  10.283  1.3592 -0.6518 -0.4421
  492MOL0     H67845   2.705  11.051  10.173 -1.0560  1.5990  0.2742
  492MOL0     H67846   2.748  11.154   9.891 -0.1422 -0.0159 -1.5430
  492MOL0     H67847   2.720  11.025   9.781 -0.5522 -0.8036  0.1740
  492MOL0     H67848   2.956  11.107   9.815 -0.7158 -1.8101 -2.0197
  492MOL0     H67849   2.947  11.069   9.986  1.0858 -1.3275  1.7443
  492MOL0     H67850   2.935  10.837   9.946 -0.9630  0.0708  0.1407
  492MOL0     H67851   2.918  10.852   9.768 -1.3946  0.3416  0.2857
  492MOL0     H67852   3.166  10.953   9.921 -1.1978  1.8995  0.2906
  492MOL0     H67853   3.164  10.791   9.855 -0.1976  0.1219  1.0395
  492MOL0     H67854   3.137  11.181   9.598 -0.1821  2.1816  0.2768
  492MOL0     H67855   3.212  11.381   9.518 -1.6025 -0.0739  1.1964
  492MOL0     H67856   3.385  11.412   9.523  2.9025 -0.2454  3.5064
  492MOL0     H67857   3.284  11.481   9.647  1.5348 -0.7253  0.8312
  492MOL0     H67858   3.661  11.481   9.951  0.5687 -3.5432  2.0238
  492MOL0     H67859   3.856  11.675   9.974 -0.0108 -0.2464  0.0662
  492MOL0     H67860   4.040  11.718  10.058  2.6460 -1.0990  1.6484
  492MOL0     H67861   4.202  11.734  10.021 -0.1864 -1.1397  0.1995
  492MOL0     H67862   4.182  11.903   9.867 -0.5011  0.4476  0.9795
  492MOL0     H67863   4.007  11.871   9.833  0.2007 -1.1106 -1.1858
  492MOL0     H67864   4.116  11.975  10.098 -0.5494 -0.6791  0.2501
  492MOL0     H67865   3.951  11.950  10.057  0.6298 -0.0440 -1.0940
  492MOL0     H67866   3.986  12.098   9.839  2.2165 -0.5981 -2.2069
  492MOL0     H67867   4.151  12.137   9.889  1.0501 -1.4212  0.7022
  492MOL0     H67868   3.884  12.211  10.028 -0.7327  1.2907  0.7238
  492MOL0     H67869   4.047  12.223  10.108  0.7698 -1.5196 -0.8326
  492MOL0     H67870   3.958  12.344   9.843  2.0627  3.0342 -1.8124
  492MOL0     H67871   4.112  12.379   9.912  0.0435  0.1714  0.7787
  492MOL0     H67872   3.955  12.446  10.118 -0.6610  0.0407  0.2205
  492MOL0     H67873   3.816  12.441  10.018  0.4463 -0.9125  0.7784
  492MOL0     H67874   3.891  12.668  10.035  1.5090  0.8254 -0.3531
  492MOL0     H67875   3.940  12.618   9.863  2.8990  0.3139 -0.9376
  492MOL0     H67876   4.070  11.459   9.688  1.1469 -2.1307  2.9703
  492MOL0     H67877   3.868  11.331   9.624  1.7445 -1.4852  1.6056
  492MOL0     H67878   3.570  11.091   9.805  1.0379  0.1632 -1.5199
  492MOL0     H67879   3.384  10.906   9.792 -0.2428 -0.8286 -2.3945
  492MOL0     H67880   1.655  10.488  10.275  0.6444  1.3187  1.2220
  492MOL0     H67881   1.394  10.513  10.231 -1.9548 -1.0604  0.9058
  492MOL0     H67882   1.093  10.600  10.168  2.0892  1.5333 -0.8509
  492MOL0     H67883   0.891  10.664  10.049 -1.4023  0.0063  0.7156
  492MOL0     H67884   0.573  10.893  10.260  2.9731 -3.0298  0.8409
  492MOL0     H67885   0.698  10.991  10.185  2.7412 -1.3136 -3.2266
  492MOL0     H67886   0.569  10.976   9.955  1.5884  0.1574  0.7100
  492MOL0     H67887   0.493  11.066  10.092  1.8187  0.4426 -0.3901
  492MOL0     H67888   0.442  10.764  10.030 -0.5767 -0.8221  1.1478
  492MOL0     H67889   0.343  10.878  10.126  0.2420  0.3843  0.2302
  492MOL0     H67890   0.383  10.900   9.826  1.2761 -0.3890  1.0721
  492MOL0     H67891   0.271  11.000   9.924  1.4484  1.1862  1.4999
  492MOL0     H67892   0.073  10.620   9.873 -1.9412  2.1093 -1.6837
  492MOL0     H67893   0.745  10.872  10.387 -1.0593 -1.5045  1.3736
  492MOL0     H67894   0.868  10.900  10.571 -0.8033  0.9993 -2.5487
  492MOL0     H67895   1.018  10.820  10.594  0.5142 -2.0386 -1.3714
  492MOL0     H67896   1.018  10.982  10.508  0.7355 -0.1899 -2.1791
  493MOL0     O67897   9.814   9.377   2.585  0.4429 -0.3494  0.2936
  493MOL0     C67898   9.713   9.337   2.647  0.7133 -0.5438 -0.1926
  493MOL0     O67899   9.683   9.207   2.670 -0.9864  0.3279  0.3365
  493MOL0     C67900   9.768   9.111   2.617  0.0816 -0.6839  0.8645
  493MOL0     C67901   9.900   9.100   2.656  0.0498 -0.6308  0.4509
  493MOL0     C67902   9.981   9.002   2.599 -0.4350 -0.7643  0.2747
  493MOL0     C67903   9.934   8.906   2.513 -0.1599 -0.0180  0.4999
  493MOL0     O67904  10.029   8.817   2.477 -0.3882 -0.0077  0.5286
  493MOL0     C67905  10.009   8.713   2.372 -1.4860  0.2839  0.0100
  493MOL0     C67906  10.147   8.646   2.333 -0.0630  0.0810  0.0138
  493MOL0     C67907  10.208   8.597   2.464 -0.7866 -0.6559  0.3757
  493MOL0     C67908  10.179   8.447   2.489 -0.0169  0.4201 -0.6546
  493MOL0     C67909  10.289   8.392   2.580  0.7190  0.3191  0.2100
  493MOL0     C67910  10.261   8.252   2.643 -0.4516 -0.5293  0.0715
  493MOL0     C67911  10.334   8.239   2.780 -0.3153  1.2604 -0.1343
  493MOL0     C67912  10.362   8.094   2.833 -0.0384 -0.4154  0.0936
  493MOL0     N67913  10.483   8.035   2.775 -0.0238 -0.4640  0.2537
  493MOL0     C67914  10.504   8.001   2.649 -0.2329 -0.0070  0.1549
  493MOL0     C67915  10.635   7.962   2.634 -0.0084  0.4799  0.0412
  493MOL0     C67916  10.694   7.929   2.498  0.1486  0.5150 -0.5034
  493MOL0     C67917  10.850   7.962   2.495  0.8135  0.1202  0.3342
  493MOL0     C67918  10.910   7.936   2.361  0.4180 -0.7286  0.2102
  493MOL0     C67919  11.059   7.974   2.368  0.1533 -0.0475 -0.0447
  493MOL0     O67920  11.127   7.889   2.457 -0.1187  1.1744 -0.1315
  493MOL0     C67921  11.262   7.918   2.462  0.3159 -1.3193  0.7848
  493MOL0     C67922  11.316   7.857   2.571 -0.6667  0.3320 -0.4966
  493MOL0     C67923  11.452   7.878   2.600 -0.4539  0.2923 -0.5570
  493MOL0     C67924  11.522   7.789   2.706 -0.1345 -0.1248 -0.3362
  493MOL0     C67925  11.527   7.979   2.537  0.3295 -0.7902 -0.3094
  493MOL0     C67926  11.661   8.021   2.587 -0.2304 -0.0932 -0.4932
  493MOL0     O67927  11.750   8.055   2.487  0.0005  0.0012 -0.1959
  493MOL0     C67928  11.881   8.087   2.515  0.3264 -0.2010 -0.7212
  493MOL0     C67929  11.930   8.226   2.488 -1.1052  1.2067 -0.9214
  493MOL0     C67930  12.063   8.257   2.520  0.1024  0.5393  0.4386
  493MOL0     C67931  12.144   8.150   2.576 -0.7398 -0.0117  0.6234
  493MOL0     O67932  12.271   8.196   2.606  0.0785  0.1941  0.4712
  493MOL0     C67933  12.365   8.098   2.660 -0.1622  0.3311 -0.6344
  493MOL0     C67934  12.483   8.185   2.703  0.2301 -0.9774  0.2802
  493MOL0     C67935  12.601   8.090   2.739 -0.8566  0.5244  0.8974
  493MOL0     C67936  12.725   8.170   2.759 -0.2184  0.6134  0.6227
  493MOL0     C67937  12.843   8.082   2.798  0.7786  0.6235  0.5177
  493MOL0     C67938  12.972   8.160   2.789  0.6588  0.5818 -0.2724
  493MOL0     C67939  13.091   8.080   2.825 -0.4835  0.3479  0.4777
  493MOL0     C67940  13.221   8.145   2.780  0.2757 -0.1431 -0.4195
  493MOL0    Cl67941  13.357   8.043   2.828 -0.6552 -0.2736  0.3060
  493MOL0     C67942  12.106   8.018   2.577 -0.3951  0.2566  0.6335
  493MOL0     C67943  11.972   7.988   2.551 -0.6204 -0.5060 -1.0587
  493MOL0     O67944  11.682   8.022   2.704  0.2527  0.5913  0.0922
  493MOL0     C67945  11.472   8.045   2.430  0.0261  0.0414 -0.4805
  493MOL0     C67946  11.336   8.015   2.395  0.2700 -0.3403  0.2988
  493MOL0     N67947  10.692   7.974   2.756 -0.5142  0.0759  0.4379
  493MOL0     N67948  10.604   8.016   2.838 -0.4736 -0.7693  0.2532
  493MOL0     C67949   9.795   8.906   2.474  0.8138 -0.1153 -0.2818
  493MOL0     C67950   9.717   9.008   2.532 -0.1800  0.0831  0.0835
  493MOL0     C67951   9.609   9.441   2.690 -0.4726 -0.8740  0.5702
  493MOL0     C67952   9.482   9.386   2.714 -0.9092 -0.5266 -0.6798
  493MOL0     C67953   9.380   9.465   2.760 -0.5995 -0.4342  0.3066
  493MOL0     C67954   9.395   9.601   2.764 -0.0437  0.4524 -0.2260
  493MOL0     O67955   9.293   9.677   2.813  0.3426 -0.1030  0.0640
  493MOL0     C67956   9.308   9.743   2.937 -0.8437 -0.5689 -0.3738
  493MOL0     C67957   9.177   9.811   2.971  0.1373  0.2396 -0.3668
  493MOL0     C67958   9.063   9.711   2.992 -0.4672 -1.3785  0.6885
  493MOL0     C67959   9.080   9.640   3.130  0.0035 -1.1720  1.0597
  493MOL0     C67960   8.960   9.563   3.165 -0.6508 -0.3673  0.3511
  493MOL0     C67961   8.844   9.527   3.199 -0.4488  0.3002  0.0508
  493MOL0     C67962   9.518   9.657   2.731  0.5957 -0.1919 -0.1161
  493MOL0     C67963   9.629   9.580   2.691 -0.7310  0.3827 -0.1654
  493MOL0     C67964   9.742   9.651   2.630 -0.4782 -0.2507  0.0614
  493MOL0     H67965   9.942   9.180   2.717  0.9134 -0.2594 -0.6175
  493MOL0     H67966  10.087   9.012   2.621  0.0472  1.8041 -2.5246
  493MOL0     H67967   9.979   8.754   2.275  1.3336 -0.6005 -1.3652
  493MOL0     H67968   9.935   8.638   2.402 -1.5206  0.6556  0.8748
  493MOL0     H67969  10.134   8.561   2.266  1.6968  0.7336 -1.2483
  493MOL0     H67970  10.215   8.716   2.283  0.2162  1.5168  2.2302
  493MOL0     H67971  10.316   8.603   2.447 -1.3051  0.9880 -3.2758
  493MOL0     H67972  10.197   8.664   2.550  1.2373 -0.4417  0.5296
  493MOL0     H67973  10.087   8.445   2.549  0.6138  1.7665  0.3932
  493MOL0     H67974  10.157   8.390   2.398 -2.1734  0.2176 -0.0684
  493MOL0     H67975  10.309   8.465   2.659  0.1814 -0.5881  1.2017
  493MOL0     H67976  10.383   8.389   2.525  1.6675 -0.6183  1.8255
  493MOL0     H67977  10.154   8.231   2.659 -0.5332  0.6276  1.2555
  493MOL0     H67978  10.304   8.177   2.576 -2.8900 -2.6618  0.6952
  493MOL0     H67979  10.281   8.305   2.849 -0.8625  1.2976 -0.5885
  493MOL0     H67980  10.434   8.281   2.762  0.3820 -1.3362 -3.1607
  493MOL0     H67981  10.368   8.093   2.943  0.0287 -0.6860  0.0899
  493MOL0     H67982  10.272   8.033   2.820 -1.2099  1.3222 -0.3516
  493MOL0     H67983  10.426   8.013   2.575 -0.4228  1.6736  0.5797
  493MOL0     H67984  10.638   7.984   2.422 -0.3237  2.1136  0.9417
  493MOL0     H67985  10.692   7.821   2.482  2.2982  0.3601 -0.1175
  493MOL0     H67986  10.864   8.062   2.536 -3.4518  0.5119  1.3234
  493MOL0     H67987  10.882   7.884   2.566  0.9239 -0.9464 -0.8562
  493MOL0     H67988  10.905   7.829   2.339 -4.0738 -0.6589 -0.0093
  493MOL0     H67989  10.865   7.997   2.283  0.8474  0.5317  0.9094
  493MOL0     H67990  11.104   7.969   2.268 -0.9951  1.3789 -0.6730
  493MOL0     H67991  11.061   8.081   2.392  3.1204  0.5628 -2.3577
  493MOL0     H67992  11.262   7.787   2.634 -1.8392  3.0720  1.7752
  493MOL0     H67993  11.453   7.705   2.720 -2.3403  1.8039  1.2156
  493MOL0     H67994  11.520   7.849   2.797  0.3354  0.9872 -1.0299
  493MOL0     H67995  11.624   7.751   2.691  0.3612 -1.2185  4.4214
  493MOL0     H67996  11.858   8.299   2.454 -1.6824  1.0361 -0.0928
  493MOL0     H67997  12.111   8.353   2.501  1.8031 -0.7580 -2.6098
  493MOL0     H67998  12.318   8.052   2.748 -0.2637 -2.0692 -1.8709
  493MOL0     H67999  12.397   8.024   2.586 -0.9176 -0.2000 -0.4447
  493MOL0     H68000  12.501   8.253   2.619 -4.4641 -1.1754 -1.1887
  493MOL0     H68001  12.449   8.245   2.788  1.8444 -1.1706  1.0881
  493MOL0     H68002  12.611   8.019   2.657  1.1524  2.5911 -0.7888
  493MOL0     H68003  12.575   8.038   2.832 -0.5812 -0.9105  0.1928
  493MOL0     H68004  12.710   8.255   2.826 -0.2202  1.1607 -0.0532
  493MOL0     H68005  12.751   8.222   2.666 -2.0831  0.5257  0.0059
  493MOL0     H68006  12.819   8.041   2.896  2.2118 -3.7089 -0.7491
  493MOL0     H68007  12.859   7.999   2.729  0.5607  0.1053  1.0896
  493MOL0     H68008  12.960   8.245   2.857 -0.0601 -1.8610  2.8876
  493MOL0     H68009  12.977   8.194   2.685  0.5399 -0.1369 -0.5183
  493MOL0     H68010  13.072   7.985   2.774  0.6712 -1.1990  2.7688
  493MOL0     H68011  13.078   8.059   2.932 -6.7790  0.0741  0.0389
  493MOL0     H68012  13.228   8.244   2.826  0.2679 -0.0567 -0.6047
  493MOL0     H68013  13.234   8.153   2.672 -0.3154 -0.6147 -0.5282
  493MOL0     H68014  12.168   7.939   2.617 -0.4189  1.4473  3.2336
  493MOL0     H68015  11.930   7.891   2.574  2.9890 -1.7859  0.9702
  493MOL0     H68016  11.527   8.130   2.390  0.5069  1.8784  3.6005
  493MOL0     H68017  11.284   8.081   2.326  1.4685 -0.2871 -0.5958
  493MOL0     H68018   9.752   8.844   2.397  0.2265 -1.2465  0.9272
  493MOL0     H68019   9.610   9.006   2.515 -0.6878 -4.3398  2.2564
  493MOL0     H68020   9.469   9.279   2.707 -0.1928 -0.6031 -0.9136
  493MOL0     H68021   9.282   9.423   2.779 -1.2658  0.9843  0.1015
  493MOL0     H68022   9.342   9.681   3.020  1.2373  0.5429 -0.3397
  493MOL0     H68023   9.383   9.821   2.920  0.8640 -1.6551  1.7526
  493MOL0     H68024   9.144   9.877   2.890 -1.8235 -1.3522 -0.9608
  493MOL0     H68025   9.189   9.883   3.052  1.1579 -0.8041  0.4456
  493MOL0     H68026   8.970   9.769   2.987  1.0003  1.0119 -0.1049
  493MOL0     H68027   9.057   9.640   2.909  2.0466 -1.3189  0.3770
  493MOL0     H68028   9.102   9.713   3.208 -2.1722  1.6210 -0.7234
  493MOL0     H68029   9.167   9.578   3.107  3.6521  4.1093 -1.5291
  493MOL0     H68030   8.747   9.493   3.229 -0.6957 -0.7864 -1.8119
  493MOL0     H68031   9.532   9.765   2.731 -0.8240  0.0063 -0.3575
  493MOL0     H68032   9.833   9.608   2.673 -0.5555 -1.4981 -0.9611
  493MOL0     H68033   9.749   9.632   2.523  1.8083  2.8342 -0.4997
  493MOL0     H68034   9.733   9.760   2.639 -1.3213 -0.3242  0.1782
  494MOL0     O68035   6.122   1.432   4.507  0.1993 -0.2823 -0.7841
  494MOL0     C68036   6.049   1.491   4.594  0.3142  0.6372 -0.3521
  494MOL0     O68037   6.086   1.604   4.660  0.1896  0.1568 -0.1934
  494MOL0     C68038   6.217   1.643   4.651 -0.2417  1.4768 -0.0583
  494MOL0     C68039   6.332   1.570   4.677 -0.1975  0.3634  0.0621
  494MOL0     C68040   6.459   1.627   4.647  0.7420 -0.2042 -0.4404
  494MOL0     C68041   6.472   1.750   4.586 -0.6385 -0.1259  0.2621
  494MOL0     O68042   6.593   1.814   4.568 -0.1082 -0.2523 -0.2994
  494MOL0     C68043   6.700   1.812   4.665  0.3417  0.3993 -0.4878
  494MOL0     C68044   6.779   1.933   4.622 -0.3037  0.2685 -0.2635
  494MOL0     C68045   6.898   1.943   4.717 -0.4428  0.0987 -0.0941
  494MOL0     C68046   7.003   2.045   4.665  0.8986  0.7297 -0.1155
  494MOL0     C68047   7.139   2.036   4.725 -0.1276 -0.2228 -0.2553
  494MOL0     C68048   7.245   2.112   4.646  0.3362 -0.3036  0.2907
  494MOL0     C68049   7.369   2.142   4.726  1.0303  0.8854 -0.0495
  494MOL0     C68050   7.461   2.251   4.657 -0.0448  0.0477  0.2234
  494MOL0     N68051   7.582   2.285   4.733  0.2489 -0.0099 -0.5557
  494MOL0     C68052   7.646   2.222   4.837  0.3873 -0.3880  0.7397
  494MOL0     C68053   7.760   2.307   4.853 -0.0870  0.5701 -0.5549
  494MOL0     C68054   7.869   2.285   4.963 -0.1208 -0.7924 -0.8129
  494MOL0     C68055   7.859   2.348   5.093  0.2444  0.5029 -0.4578
  494MOL0     C68056   7.970   2.322   5.207 -0.0601  0.0940  0.5205
  494MOL0     C68057   8.109   2.393   5.179 -0.3383  0.3071 -0.1684
  494MOL0     O68058   8.214   2.328   5.257 -0.3659 -0.1193  0.7286
  494MOL0     C68059   8.339   2.374   5.224  0.4419 -0.6768  0.1671
  494MOL0     C68060   8.367   2.508   5.260 -0.1548  0.6224 -0.0026
  494MOL0     C68061   8.499   2.554   5.248 -0.6965  0.6316  0.7105
  494MOL0     C68062   8.517   2.686   5.305  0.3382  0.5792  0.9248
  494MOL0     C68063   8.601   2.467   5.186  0.6859  0.7202 -0.1583
  494MOL0     C68064   8.737   2.512   5.151  0.3589  0.6725  0.6569
  494MOL0     O68065   8.820   2.421   5.097 -0.5779  0.4170  0.3433
  494MOL0     C68066   8.961   2.430   5.081 -0.2073  0.3647 -0.4707
  494MOL0     C68067   9.037   2.313   5.106 -0.1456 -0.3266 -0.0718
  494MOL0     C68068   9.174   2.305   5.074  0.3125  0.0447 -0.1680
  494MOL0     C68069   9.241   2.424   5.042  0.4668 -0.8709 -0.4785
  494MOL0     O68070   9.371   2.421   5.011  0.0462 -0.6459  0.5615
  494MOL0     C68071   9.458   2.350   5.096 -0.4317 -0.1990  0.5431
  494MOL0     C68072   9.601   2.384   5.066  0.1304 -0.3668 -0.4119
  494MOL0     C68073   9.680   2.317   5.172 -0.4977  0.2556 -0.0694
  494MOL0     C68074   9.822   2.379   5.158  0.3422  0.4794  1.3780
  494MOL0     C68075   9.918   2.300   5.259 -0.1865 -0.3179 -0.3729
  494MOL0     C68076  10.051   2.377   5.287  0.4484  0.2488 -0.5291
  494MOL0     C68077  10.144   2.372   5.168  0.1854  0.7847  0.1628
  494MOL0     C68078  10.279   2.437   5.193 -0.0289 -0.6367  0.0601
  494MOL0    Cl68079  10.273   2.611   5.218  0.1433 -0.1503  0.3568
  494MOL0     C68080   9.172   2.549   5.022 -0.2660 -0.6030 -0.1546
  494MOL0     C68081   9.031   2.544   5.033 -0.5507 -0.3238 -0.4954
  494MOL0     O68082   8.756   2.626   5.146  0.1196 -0.2832 -0.3906
  494MOL0     C68083   8.556   2.338   5.141 -0.4296  0.4545  0.5818
  494MOL0     C68084   8.428   2.289   5.164  0.2326  0.6772 -0.0423
  494MOL0     N68085   7.760   2.411   4.761 -0.3876  0.5826  0.6024
  494MOL0     N68086   7.651   2.402   4.697 -0.7126  0.3206 -0.5035
  494MOL0     C68087   6.357   1.829   4.563 -0.4665 -0.0326  0.6685
  494MOL0     C68088   6.230   1.774   4.606 -0.8104  0.6174  0.3879
  494MOL0     C68089   5.915   1.431   4.639  0.6024 -0.8845 -0.5208
  494MOL0     C68090   5.855   1.492   4.755  0.1835  0.7168  0.4773
  494MOL0     C68091   5.721   1.456   4.796 -0.1272  0.0535 -0.1921
  494MOL0     C68092   5.660   1.339   4.737 -0.5203  0.1864  0.3252
  494MOL0     O68093   5.532   1.296   4.771  0.1469 -0.5067 -0.4956
  494MOL0     C68094   5.494   1.334   4.905  0.6168  0.3132  0.9826
  494MOL0     C68095   5.370   1.252   4.948  0.4041  0.7316  0.3038
  494MOL0     C68096   5.379   1.095   4.935 -0.3256 -0.2027  0.2205
  494MOL0     C68097   5.316   1.048   4.802 -0.1999  0.5085 -0.3652
  494MOL0     C68098   5.288   0.900   4.816  0.0408  0.5597  0.0380
  494MOL0     C68099   5.282   0.781   4.834 -0.6097 -0.6528  0.9187
  494MOL0     C68100   5.729   1.274   4.629  0.3394 -0.5135 -0.2755
  494MOL0     C68101   5.848   1.327   4.576 -0.4436  0.8135  0.3710
  494MOL0     C68102   5.888   1.261   4.447  0.3235  0.0713  0.7427
  494MOL0     H68103   6.325   1.469   4.716  0.7693  1.0299  2.1359
  494MOL0     H68104   6.552   1.577   4.672  0.7611  0.7915  1.7155
  494MOL0     H68105   6.758   1.719   4.667  1.6139  1.1688 -0.3592
  494MOL0     H68106   6.658   1.828   4.765  0.2352  1.2130 -0.6511
  494MOL0     H68107   6.807   1.919   4.517  1.2291 -1.6815  0.3518
  494MOL0     H68108   6.724   2.024   4.647 -2.4640 -1.8708  3.7015
  494MOL0     H68109   6.863   1.975   4.816  0.1534  0.8531 -0.1179
  494MOL0     H68110   6.942   1.844   4.732 -1.0687 -0.3090 -0.9009
  494MOL0     H68111   7.015   2.022   4.559 -1.2022  0.4177 -0.3405
  494MOL0     H68112   6.964   2.146   4.679  0.2983  0.8057 -2.0353
  494MOL0     H68113   7.172   1.932   4.715  0.6165  0.1825 -2.5087
  494MOL0     H68114   7.124   2.069   4.828 -1.7340 -1.3995 -0.0671
  494MOL0     H68115   7.267   2.060   4.553 -1.3617  0.8212 -0.7951
  494MOL0     H68116   7.206   2.209   4.614  1.8749  0.2902  0.1390
  494MOL0     H68117   7.429   2.050   4.722  0.9069  0.8324 -0.7832
  494MOL0     H68118   7.346   2.180   4.826  2.1838 -0.6537  0.8550
  494MOL0     H68119   7.500   2.231   4.557  0.9094  1.6797  0.2287
  494MOL0     H68120   7.397   2.339   4.656  1.4922  1.2250  1.1730
  494MOL0     H68121   7.628   2.125   4.882  0.7643  0.6826  3.4229
  494MOL0     H68122   7.960   2.311   4.909 -1.2137  0.7594 -2.0105
  494MOL0     H68123   7.882   2.178   4.980  1.8595 -0.5171 -0.3769
  494MOL0     H68124   7.848   2.457   5.089  1.0873  0.5811 -0.6641
  494MOL0     H68125   7.770   2.310   5.144  0.4618  1.6132  0.8124
  494MOL0     H68126   7.929   2.355   5.303  1.4525  1.6741  0.6784
  494MOL0     H68127   7.980   2.214   5.198  3.9248  0.3720 -0.1741
  494MOL0     H68128   8.139   2.388   5.074  0.7869 -2.5114  0.1809
  494MOL0     H68129   8.098   2.499   5.201  3.2484  0.9446 -0.7197
  494MOL0     H68130   8.298   2.575   5.312  1.1555  3.2186 -1.4359
  494MOL0     H68131   8.574   2.748   5.235  1.9065 -0.1423  1.5102
  494MOL0     H68132   8.583   2.665   5.390  3.0737  0.1542 -1.1387
  494MOL0     H68133   8.422   2.735   5.327 -0.6573  0.4590 -2.4902
  494MOL0     H68134   8.991   2.219   5.135  1.4996 -0.8043  1.1345
  494MOL0     H68135   9.224   2.210   5.054 -1.7915 -0.8385 -1.5735
  494MOL0     H68136   9.429   2.389   5.194  1.4624  2.2226  0.2250
  494MOL0     H68137   9.436   2.243   5.083 -0.0404 -0.0190 -1.9065
  494MOL0     H68138   9.628   2.353   4.965 -0.0700  2.4639 -1.4425
  494MOL0     H68139   9.611   2.493   5.076 -1.1010 -0.0063 -2.4311
  494MOL0     H68140   9.683   2.211   5.143 -1.8693  0.4461 -0.9843
  494MOL0     H68141   9.637   2.328   5.272 -1.8388  2.1697 -0.8088
  494MOL0     H68142   9.823   2.485   5.182  0.0324  0.8746 -0.2507
  494MOL0     H68143   9.851   2.374   5.052 -0.6432  3.1182  0.9266
  494MOL0     H68144   9.862   2.281   5.352 -3.9694  1.0296 -2.1399
  494MOL0     H68145   9.932   2.202   5.214  1.4174 -0.4899  0.4535
  494MOL0     H68146  10.102   2.328   5.370 -1.4503  1.1043  1.2279
  494MOL0     H68147  10.040   2.484   5.306  1.4588  0.3827 -0.6179
  494MOL0     H68148  10.095   2.420   5.082 -1.5065  1.7603  1.6006
  494MOL0     H68149  10.161   2.266   5.145  2.6795  1.4174 -1.3764
  494MOL0     H68150  10.333   2.414   5.100 -0.3672 -1.5849  0.0794
  494MOL0     H68151  10.336   2.385   5.271  2.5018 -0.3852 -1.4931
  494MOL0     H68152   9.231   2.637   5.000 -1.6731  0.8243  1.5873
  494MOL0     H68153   8.978   2.636   5.010 -0.0840  1.4597  4.3628
  494MOL0     H68154   8.625   2.277   5.084 -0.9258  1.5136 -1.2602
  494MOL0     H68155   8.407   2.188   5.131 -1.2128  0.1736  2.1527
  494MOL0     H68156   6.374   1.931   4.530 -1.1217  0.2455  1.1686
  494MOL0     H68157   6.139   1.827   4.581 -1.4188 -0.8884 -0.7319
  494MOL0     H68158   5.905   1.575   4.803 -2.6278  3.3836 -0.8996
  494MOL0     H68159   5.676   1.512   4.877 -0.2967 -2.4622  1.5820
  494MOL0     H68160   5.569   1.316   4.982 -0.2348 -2.9829  1.1689
  494MOL0     H68161   5.465   1.440   4.907 -0.8023  0.0357 -1.0021
  494MOL0     H68162   5.280   1.285   4.895 -0.6666 -0.1740  1.5104
  494MOL0     H68163   5.363   1.275   5.054  1.2855 -3.1715  1.3670
  494MOL0     H68164   5.482   1.057   4.944 -1.3187 -3.0294  0.6890
  494MOL0     H68165   5.328   1.047   5.018  1.4697  1.5541  2.4702
  494MOL0     H68166   5.396   1.062   4.728  1.2816 -0.0972  1.0541
  494MOL0     H68167   5.228   1.109   4.781 -1.0987 -0.7113 -0.2148
  494MOL0     H68168   5.262   0.678   4.856 -4.3890 -0.7345 -1.8787
  494MOL0     H68169   5.682   1.183   4.592 -1.4250  0.7084 -1.2272
  494MOL0     H68170   5.972   1.196   4.475  0.1519  0.8605  3.2964
  494MOL0     H68171   5.807   1.202   4.405  1.2317 -1.9277  1.6625
  494MOL0     H68172   5.910   1.338   4.373 -1.6932  0.6153  0.6553
  495MOL0     O68173   7.086   1.503   5.613 -0.1584 -0.6294 -0.4043
  495MOL0     C68174   6.991   1.498   5.538  0.0746 -0.0294  0.4667
  495MOL0     O68175   7.000   1.492   5.393  0.3177  0.2995 -0.2732
  495MOL0     C68176   7.122   1.482   5.333 -0.8145 -0.8436 -0.7252
  495MOL0     C68177   7.126   1.394   5.221 -1.2345 -0.2159 -0.4486
  495MOL0     C68178   7.244   1.387   5.146 -0.2391 -0.2073 -0.3333
  495MOL0     C68179   7.362   1.461   5.177  0.1739  0.3199  0.2477
  495MOL0     O68180   7.470   1.473   5.096 -0.3172 -1.1577  0.1941
  495MOL0     C68181   7.546   1.351   5.072 -0.4601  0.7040 -0.0444
  495MOL0     C68182   7.680   1.362   5.137 -0.0642  0.3435  0.1417
  495MOL0     C68183   7.748   1.232   5.096  0.4599 -0.3518 -0.3013
  495MOL0     C68184   7.884   1.199   5.156  0.3837  0.3515 -0.5975
  495MOL0     C68185   7.908   1.042   5.156  0.4196  0.1422 -0.7316
  495MOL0     C68186   8.057   1.007   5.195  0.2076  0.9493  0.2676
  495MOL0     C68187   8.088   1.025   5.346  0.2479  0.5073  0.2271
  495MOL0     C68188   8.234   0.981   5.368  0.0115  0.1971  0.1746
  495MOL0     N68189   8.244   0.943   5.507 -0.8162  0.3252 -0.6899
  495MOL0     C68190   8.228   0.812   5.549  0.0159 -0.4441  0.6068
  495MOL0     C68191   8.297   0.805   5.660 -0.5065 -0.2020  0.1646
  495MOL0     C68192   8.310   0.680   5.742  0.3459  0.0864 -0.1772
  495MOL0     C68193   8.257   0.704   5.889 -0.6691  0.5210 -0.2447
  495MOL0     C68194   8.257   0.574   5.961 -0.0797 -0.7043 -0.2616
  495MOL0     C68195   8.377   0.559   6.062  0.5610 -0.5256 -0.7942
  495MOL0     O68196   8.402   0.423   6.092  1.1272  0.1675 -0.9366
  495MOL0     C68197   8.519   0.386   6.039 -0.3070  0.6496  0.7569
  495MOL0     C68198   8.530   0.274   5.954  0.5728 -0.3327 -0.5992
  495MOL0     C68199   8.654   0.217   5.915 -0.0501 -0.7597  0.5521
  495MOL0     C68200   8.644   0.086   5.824  0.0506 -0.0866 -0.2280
  495MOL0     C68201   8.772   0.291   5.946  0.2208  0.2012  0.9323
  495MOL0     C68202   8.904   0.249   5.903 -0.1693 -0.8022 -0.3248
  495MOL0     O68203   9.008   0.320   5.968  0.2394  1.1734 -0.7919
  495MOL0     C68204   9.142   0.308   5.941 -0.6335  0.4037 -0.1764
  495MOL0     C68205   9.218   0.404   6.012  0.3760 -0.0325  0.3265
  495MOL0     C68206   9.355   0.399   6.012 -0.3509  0.0569 -0.2611
  495MOL0     C68207   9.420   0.306   5.931 -0.1106  0.2475  0.3210
  495MOL0     O68208   9.557   0.319   5.929  0.0091 -0.1133 -0.0222
  495MOL0     C68209   9.624   0.196   5.888  0.7512 -0.4448 -0.3611
  495MOL0     C68210   9.773   0.218   5.923  0.7858 -0.4679 -0.2487
  495MOL0     C68211   9.846   0.334   5.847  0.2137  0.4720 -0.4161
  495MOL0     C68212  10.000   0.319   5.877  0.0760 -0.1314  0.5665
  495MOL0     C68213  10.034   0.345   6.017  0.5833 -1.4498 -0.3775
  495MOL0     C68214  10.131   0.461   6.029  0.1778 -1.1587  0.1380
  495MOL0     C68215  10.178   0.470   6.171 -0.5895 -0.1635  0.1338
  495MOL0     C68216  10.285   0.577   6.178 -1.1690  0.0896  0.4454
  495MOL0    Cl68217  10.439   0.523   6.115  0.2944 -0.1804 -0.3742
  495MOL0     C68218   9.350   0.204   5.860  0.3231 -0.2079 -0.0057
  495MOL0     C68219   9.212   0.205   5.868  0.1292 -0.7013  0.0681
  495MOL0     O68220   8.915   0.170   5.810 -0.2193 -0.5363  0.6558
  495MOL0     C68221   8.755   0.408   6.030 -0.4568  0.4565  1.0344
  495MOL0     C68222   8.635   0.453   6.081 -0.2933 -0.1964  0.0577
  495MOL0     N68223   8.338   0.933   5.698  0.0814  0.2879  0.4309
  495MOL0     N68224   8.304   1.016   5.606 -0.0382  0.4409 -0.0697
  495MOL0     C68225   7.359   1.542   5.292  0.6317 -0.0489  0.4777
  495MOL0     C68226   7.239   1.548   5.365 -0.7480  0.3630  1.0217
  495MOL0     C68227   6.858   1.510   5.589 -0.1850  0.1465  0.8861
  495MOL0     C68228   6.751   1.537   5.499  0.5197 -0.4766 -0.4365
  495MOL0     C68229   6.615   1.558   5.550  0.6585 -0.0659  0.4761
  495MOL0     C68230   6.585   1.551   5.686  0.0272  0.2397  0.0764
  495MOL0     O68231   6.456   1.579   5.713 -0.8091  0.1128 -0.4527
  495MOL0     C68232   6.407   1.568   5.851  0.3000  0.0443  0.4847
  495MOL0     C68233   6.258   1.548   5.839  0.6038  0.6455 -0.1812
  495MOL0     C68234   6.205   1.538   5.980 -0.7292 -0.1566 -0.3881
  495MOL0     C68235   6.052   1.528   5.988  0.0553 -0.7926 -0.4076
  495MOL0     C68236   5.985   1.451   5.886  0.2637  0.4724 -0.2336
  495MOL0     C68237   5.960   1.368   5.794 -0.2698  0.7957 -0.1765
  495MOL0     C68238   6.689   1.505   5.771 -0.6819 -0.6302 -0.0106
  495MOL0     C68239   6.821   1.484   5.725 -0.1474  0.0595 -0.3377
  495MOL0     C68240   6.913   1.434   5.836  0.3319  0.4396 -0.0042
  495MOL0     H68241   7.036   1.343   5.190 -1.0609 -1.5375  1.1260
  495MOL0     H68242   7.230   1.332   5.053 -3.3302 -1.9602  1.0203
  495MOL0     H68243   7.549   1.350   4.963 -0.0479  1.8782 -0.0596
  495MOL0     H68244   7.497   1.260   5.105 -0.1073 -0.0487 -1.5298
  495MOL0     H68245   7.736   1.448   5.101  0.3478  0.2712  0.5914
  495MOL0     H68246   7.680   1.366   5.246  3.0245  0.2966  0.2214
  495MOL0     H68247   7.679   1.150   5.120 -0.4658  1.2514  3.0998
  495MOL0     H68248   7.766   1.235   4.989 -0.1263  1.1479 -0.3768
  495MOL0     H68249   7.968   1.249   5.106  0.2009  0.5495 -0.7049
  495MOL0     H68250   7.888   1.241   5.257 -0.3296  1.2701 -0.9398
  495MOL0     H68251   7.880   0.997   5.060  1.6261 -2.4693  0.0654
  495MOL0     H68252   7.843   1.001   5.233 -2.7696  1.6670 -2.4199
  495MOL0     H68253   8.068   0.904   5.160 -2.0505  0.2949  1.2625
  495MOL0     H68254   8.133   1.058   5.136 -0.2987 -1.5193 -2.8189
  495MOL0     H68255   8.023   0.957   5.401  1.5471 -0.7905  0.2177
  495MOL0     H68256   8.078   1.128   5.380  0.6530  0.2258  1.2511
  495MOL0     H68257   8.276   0.906   5.300  0.0995 -0.1674  0.6265
  495MOL0     H68258   8.292   1.072   5.351 -0.0391  0.6077  2.0218
  495MOL0     H68259   8.175   0.735   5.493 -0.4249  0.3794 -0.1332
  495MOL0     H68260   8.414   0.646   5.751  0.7907  1.6949  1.3433
  495MOL0     H68261   8.256   0.599   5.692 -1.7625  0.1983  1.7775
  495MOL0     H68262   8.305   0.793   5.931 -1.3620  2.2123 -2.7737
  495MOL0     H68263   8.151   0.732   5.890 -0.7443  0.4134  2.4802
  495MOL0     H68264   8.166   0.568   6.022  0.6911  0.4049  1.0764
  495MOL0     H68265   8.263   0.490   5.892 -1.4424 -1.2154  0.2129
  495MOL0     H68266   8.462   0.607   6.012  2.4066  0.7773  3.1754
  495MOL0     H68267   8.349   0.605   6.157 -0.4805  0.8846 -1.7339
  495MOL0     H68268   8.432   0.235   5.929 -0.5756 -0.4258  3.3423
  495MOL0     H68269   8.680   0.106   5.722  1.1235  0.0116  0.1607
  495MOL0     H68270   8.539   0.056   5.819 -0.8815  2.2783  2.5801
  495MOL0     H68271   8.710   0.011   5.868 -0.0530 -0.7374 -1.1429
  495MOL0     H68272   9.161   0.481   6.065 -1.7809 -2.4236  1.7224
  495MOL0     H68273   9.414   0.472   6.067 -1.3471 -0.0447  0.9973
  495MOL0     H68274   9.591   0.113   5.950  0.8418 -0.3861 -0.2331
  495MOL0     H68275   9.607   0.176   5.781  0.8429 -2.6909  0.0066
  495MOL0     H68276   9.772   0.243   6.029  0.4125 -1.6065  0.0361
  495MOL0     H68277   9.827   0.125   5.905  1.1755 -0.0717 -1.1883
  495MOL0     H68278   9.804   0.429   5.881  1.4942  0.5540  1.0927
  495MOL0     H68279   9.821   0.320   5.742  0.5438 -0.3975 -0.3892
  495MOL0     H68280  10.052   0.378   5.801 -0.4366 -1.5220 -0.8974
  495MOL0     H68281  10.034   0.217   5.860 -1.4194 -0.4570 -0.7149
  495MOL0     H68282   9.945   0.376   6.073  0.9090 -1.8698  0.3971
  495MOL0     H68283  10.065   0.249   6.061 -0.5745 -0.6623  2.3834
  495MOL0     H68284  10.072   0.547   5.994 -0.8949 -2.3465 -1.1134
  495MOL0     H68285  10.209   0.430   5.959  0.1579  0.9378 -0.9075
  495MOL0     H68286  10.221   0.372   6.192  0.7817 -0.0470 -1.8644
  495MOL0     H68287  10.098   0.496   6.241 -1.2184  0.4320 -0.7859
  495MOL0     H68288  10.296   0.606   6.283 -2.6928 -0.2104  0.7065
  495MOL0     H68289  10.261   0.671   6.126  1.6027 -0.3576 -1.9595
  495MOL0     H68290   9.395   0.135   5.789  1.7293  0.4936  0.1818
  495MOL0     H68291   9.154   0.120   5.831  0.9077 -0.8211 -0.9288
  495MOL0     H68292   8.843   0.468   6.055 -0.9119  0.2150  3.4074
  495MOL0     H68293   8.632   0.536   6.151 -1.5289 -0.3088  0.1696
  495MOL0     H68294   7.454   1.590   5.313  2.3482 -2.1071 -1.9233
  495MOL0     H68295   7.224   1.613   5.450 -1.4494  0.4729  0.8239
  495MOL0     H68296   6.770   1.538   5.392 -0.2133 -1.5191 -0.5953
  495MOL0     H68297   6.531   1.584   5.486  2.1751  2.2136 -0.7334
  495MOL0     H68298   6.453   1.491   5.915 -2.0430 -1.8120  0.0890
  495MOL0     H68299   6.434   1.660   5.903  1.3092  0.9219 -1.4738
  495MOL0     H68300   6.238   1.452   5.791 -0.3823  1.6875 -1.9341
  495MOL0     H68301   6.208   1.630   5.787 -0.9153 -0.2999 -0.2832
  495MOL0     H68302   6.241   1.439   6.010  0.4434 -0.1179 -1.5969
  495MOL0     H68303   6.245   1.611   6.050  0.8666 -1.5599  0.2408
  495MOL0     H68304   6.010   1.628   5.972 -2.7459 -2.3555 -4.9579
  495MOL0     H68305   6.025   1.498   6.089  1.4058  2.1468  0.9521
  495MOL0     H68306   5.917   1.306   5.718 -1.6649 -0.6239  1.6691
  495MOL0     H68307   6.656   1.486   5.872 -1.4437 -1.9293 -0.4851
  495MOL0     H68308   6.986   1.367   5.791 -0.6637 -0.1186 -0.8179
  495MOL0     H68309   6.966   1.514   5.889  0.1038  0.5193  0.1045
  495MOL0     H68310   6.858   1.372   5.907 -0.9401 -0.2599 -1.5230
  496MOL0     O68311   4.898   0.418   5.232  0.4406  0.0061 -0.0036
  496MOL0     C68312   4.889   0.486   5.130  0.3850  0.2637 -0.0193
  496MOL0     O68313   4.994   0.525   5.062 -0.7234  0.2164  1.0546
  496MOL0     C68314   5.112   0.452   5.058 -0.1421  0.0273  0.2075
  496MOL0     C68315   5.114   0.319   5.034 -0.4917  0.3720 -0.1743
  496MOL0     C68316   5.233   0.247   5.039 -0.0001 -0.2861  0.6967
  496MOL0     C68317   5.356   0.313   5.054 -0.9589  0.0019  0.2588
  496MOL0     O68318   5.480   0.253   5.041 -0.3920  0.0197  0.0253
  496MOL0     C68319   5.486   0.125   4.985 -0.3404 -0.1976 -0.1436
  496MOL0     C68320   5.637   0.085   4.992 -0.2841  0.3794  0.4924
  496MOL0     C68321   5.728   0.151   4.892  0.2601  0.9432 -0.4038
  496MOL0     C68322   5.873   0.123   4.941 -0.3361 -0.8953 -0.7320
  496MOL0     C68323   5.974   0.208   4.861  0.3770  0.3880 -0.4418
  496MOL0     C68324   6.120   0.220   4.922  0.0933 -0.7087 -1.6820
  496MOL0     C68325   6.218   0.283   4.821  0.2447  0.4339  0.8006
  496MOL0     C68326   6.348   0.324   4.903  0.5534  0.5266  0.1511
  496MOL0     N68327   6.454   0.380   4.820 -0.7471 -0.2736  0.0439
  496MOL0     C68328   6.538   0.307   4.741  0.3784  0.4025  0.5274
  496MOL0     C68329   6.592   0.406   4.660  0.1176 -0.1409  0.2713
  496MOL0     C68330   6.670   0.369   4.538 -0.0219 -0.4148 -0.1117
  496MOL0     C68331   6.823   0.386   4.552  0.0690  0.2315 -0.0098
  496MOL0     C68332   6.920   0.352   4.437  0.0576 -0.0369 -0.1005
  496MOL0     C68333   7.071   0.360   4.479  0.0704 -0.7055  0.3215
  496MOL0     O68334   7.104   0.240   4.552 -1.8519 -0.0760  0.2593
  496MOL0     C68335   7.239   0.229   4.601  0.8952  0.1547  0.1154
  496MOL0     C68336   7.352   0.229   4.516  0.8571 -0.0706  0.0903
  496MOL0     C68337   7.477   0.210   4.563 -0.6118  0.0654  0.3423
  496MOL0     C68338   7.591   0.223   4.459  0.7806  0.2488  0.1779
  496MOL0     C68339   7.499   0.184   4.701 -0.7873 -0.9018 -0.3562
  496MOL0     C68340   7.636   0.164   4.763 -0.5292 -0.5023  0.4226
  496MOL0     O68341   7.740   0.166   4.677  0.2307 -0.6644 -0.3649
  496MOL0     C68342   7.844   0.086   4.705 -0.3035 -0.6427 -0.2397
  496MOL0     C68343   7.876  -0.028   4.618 -0.4198  0.5797 -0.6095
  496MOL0     C68344   7.990  -0.109   4.649 -1.1824 -0.1827 -0.1605
  496MOL0     C68345   8.070  -0.093   4.768  0.5516 -0.1137 -0.2934
  496MOL0     O68346   8.140  -0.203   4.809 -0.6946  0.0905  0.3601
  496MOL0     C68347   8.224  -0.198   4.928  0.6547 -0.4819 -0.4976
  496MOL0     C68348   8.279  -0.340   4.948  0.5591 -0.0899 -0.4006
  496MOL0     C68349   8.340  -0.341   5.097  0.0574 -0.0291  0.4702
  496MOL0     C68350   8.409  -0.475   5.131 -0.8553  0.3442  0.0296
  496MOL0     C68351   8.514  -0.468   5.239 -0.2434  0.8618  0.1250
  496MOL0     C68352   8.548  -0.617   5.268  0.4502  0.0451  0.2034
  496MOL0     C68353   8.647  -0.631   5.385  0.2909  0.5527 -0.8135
  496MOL0     C68354   8.791  -0.663   5.345 -0.3247  0.1426  0.3105
  496MOL0    Cl68355   8.788  -0.834   5.288  0.2680 -0.2552  0.0625
  496MOL0     C68356   8.044   0.032   4.842 -0.0178  0.1039  0.3665
  496MOL0     C68357   7.935   0.115   4.809  0.3956  0.7087  0.0802
  496MOL0     O68358   7.645   0.142   4.884  0.1758  0.2104  0.1964
  496MOL0     C68359   7.387   0.175   4.783 -0.1256  0.0963 -0.9663
  496MOL0     C68360   7.259   0.207   4.738 -0.7080 -0.7165  0.0819
  496MOL0     N68361   6.534   0.527   4.683  0.7888 -0.2701 -0.4712
  496MOL0     N68362   6.455   0.511   4.788  0.0771 -0.4432 -0.3813
  496MOL0     C68363   5.346   0.443   5.091 -0.0007  0.0458 -0.4736
  496MOL0     C68364   5.227   0.519   5.095 -0.2693  0.9043  0.3475
  496MOL0     C68365   4.766   0.544   5.087 -0.1843  0.0340 -0.1314
  496MOL0     C68366   4.771   0.652   4.991 -0.4884  0.6215 -0.1837
  496MOL0     C68367   4.658   0.717   4.947  0.2838 -0.2198 -0.6094
  496MOL0     C68368   4.530   0.696   5.007 -0.2957 -0.4706  0.0707
  496MOL0     O68369   4.409   0.760   4.970 -1.0255 -0.2324  0.2409
  496MOL0     C68370   4.399   0.820   4.839 -0.1040  0.0937 -0.1029
  496MOL0     C68371   4.260   0.876   4.818 -0.4717  0.5778 -0.1046
  496MOL0     C68372   4.159   0.759   4.797 -0.1438  0.0560  0.3323
  496MOL0     C68373   4.043   0.786   4.715 -0.4071  1.2345  0.3604
  496MOL0     C68374   4.072   0.828   4.577  0.4564 -0.7300 -1.4142
  496MOL0     C68375   4.096   0.869   4.468  0.0603  0.1609  0.8641
  496MOL0     C68376   4.522   0.596   5.098  0.8839  0.1896  0.1874
  496MOL0     C68377   4.632   0.513   5.138 -0.9051  0.4807  0.4691
  496MOL0     C68378   4.610   0.401   5.234 -0.1067  0.1063  0.3089
  496MOL0     H68379   5.023   0.263   5.014 -1.2558  1.3399  0.4976
  496MOL0     H68380   5.237   0.145   5.002 -0.6315 -0.0838  0.0461
  496MOL0     H68381   5.446   0.124   4.884 -1.3043 -1.4966  0.2352
  496MOL0     H68382   5.432   0.054   5.048  0.5675 -0.0910  0.8009
  496MOL0     H68383   5.678   0.097   5.092  0.3835 -0.7842  0.3736
  496MOL0     H68384   5.642  -0.023   4.978 -3.0282 -0.1284  2.6246
  496MOL0     H68385   5.714   0.109   4.792  3.2162  0.6605 -0.7837
  496MOL0     H68386   5.711   0.259   4.895 -2.1793  0.7646  4.9145
  496MOL0     H68387   5.886   0.157   5.044 -3.0126 -2.0129  0.0388
  496MOL0     H68388   5.898   0.017   4.932 -0.6007 -0.9748 -0.5145
  496MOL0     H68389   5.929   0.307   4.853 -1.2395 -0.0115  2.3236
  496MOL0     H68390   5.983   0.167   4.760  0.9363 -1.3094  0.2573
  496MOL0     H68391   6.112   0.276   5.016 -3.2911 -1.9070 -1.1190
  496MOL0     H68392   6.149   0.120   4.955  0.7952 -0.2148 -0.7709
  496MOL0     H68393   6.183   0.375   4.774 -0.2803 -0.2526 -0.2120
  496MOL0     H68394   6.248   0.204   4.751 -0.8148 -0.3857  1.2422
  496MOL0     H68395   6.326   0.399   4.979  0.0212  0.5296 -0.0047
  496MOL0     H68396   6.396   0.233   4.941  3.0811  1.2566 -1.0235
  496MOL0     H68397   6.542   0.199   4.725  1.4711  0.6558 -1.1934
  496MOL0     H68398   6.640   0.440   4.461 -1.0813  0.2141  0.8552
  496MOL0     H68399   6.654   0.266   4.504 -0.8360  0.2940 -2.0635
  496MOL0     H68400   6.844   0.490   4.578 -0.3846  0.1412  0.7427
  496MOL0     H68401   6.850   0.313   4.629  2.9268 -0.2240 -1.3117
  496MOL0     H68402   6.906   0.251   4.397 -0.8229 -0.0114  0.1242
  496MOL0     H68403   6.901   0.425   4.358  0.6579  0.0023 -0.2141
  496MOL0     H68404   7.127   0.355   4.385  1.0423  2.6404  0.6160
  496MOL0     H68405   7.093   0.455   4.528  0.6953 -0.5469 -0.2583
  496MOL0     H68406   7.333   0.236   4.409 -0.8139 -1.0109  0.2858
  496MOL0     H68407   7.681   0.273   4.498  1.7419 -2.0045  1.0252
  496MOL0     H68408   7.551   0.281   4.375 -0.1651  1.0378  1.1440
  496MOL0     H68409   7.618   0.124   4.420  0.9501  0.4752 -0.2830
  496MOL0     H68410   7.812  -0.066   4.539 -2.4400  1.6249  0.4335
  496MOL0     H68411   7.996  -0.193   4.580 -0.1069  1.2291 -1.8735
  496MOL0     H68412   8.309  -0.130   4.923  2.8918 -2.9448  1.1931
  496MOL0     H68413   8.161  -0.161   5.010  0.2116  2.7574 -2.1565
  496MOL0     H68414   8.196  -0.409   4.930  1.3298 -0.6209 -2.0842
  496MOL0     H68415   8.353  -0.368   4.873  2.1862  0.0902  1.0698
  496MOL0     H68416   8.260  -0.315   5.168  0.4959 -1.8798  1.7064
  496MOL0     H68417   8.418  -0.265   5.101  0.1035  0.0318 -1.1723
  496MOL0     H68418   8.457  -0.513   5.040  1.0742  1.1457  0.6461
  496MOL0     H68419   8.337  -0.550   5.163 -0.5144 -0.2597 -0.6058
  496MOL0     H68420   8.602  -0.421   5.194  0.0064  0.2910  0.0052
  496MOL0     H68421   8.472  -0.409   5.321 -2.1306 -0.2825  0.0482
  496MOL0     H68422   8.587  -0.666   5.178 -0.6392 -0.5483  0.0323
  496MOL0     H68423   8.457  -0.672   5.295 -0.2835  0.3831 -1.4651
  496MOL0     H68424   8.606  -0.711   5.447 -0.1104  0.5215 -1.1137
  496MOL0     H68425   8.643  -0.542   5.448  0.2111  0.6496 -0.9542
  496MOL0     H68426   8.851  -0.660   5.437 -0.3863 -0.6549  0.3841
  496MOL0     H68427   8.831  -0.595   5.270  1.1944  0.2130  1.1479
  496MOL0     H68428   8.113   0.064   4.920  0.9282  1.1759 -0.8564
  496MOL0     H68429   7.912   0.201   4.871  0.9549  1.8493 -1.2402
  496MOL0     H68430   7.396   0.165   4.890  4.0036  1.5846 -1.0170
  496MOL0     H68431   7.177   0.208   4.808 -0.6389 -2.6382  0.2419
  496MOL0     H68432   5.437   0.486   5.132  0.5461  0.2160 -1.8022
  496MOL0     H68433   5.227   0.621   5.134 -1.5111  0.8218  0.6010
  496MOL0     H68434   4.858   0.677   4.930 -0.9267 -1.6080 -1.8641
  496MOL0     H68435   4.673   0.799   4.877 -0.3251  0.7189  0.3377
  496MOL0     H68436   4.468   0.905   4.829  1.4615 -1.3581 -2.9635
  496MOL0     H68437   4.423   0.751   4.757  2.4359  0.4401  0.2550
  496MOL0     H68438   4.247   0.933   4.725  0.2050 -2.0747 -1.9641
  496MOL0     H68439   4.238   0.938   4.905  1.3428  1.8097 -0.4576
  496MOL0     H68440   4.210   0.670   4.759 -1.7331 -0.1460 -1.4607
  496MOL0     H68441   4.120   0.732   4.896 -1.8933 -2.6916 -0.9921
  496MOL0     H68442   3.988   0.865   4.767  0.3732  2.4977 -0.6682
  496MOL0     H68443   3.978   0.697   4.713  0.5678  0.4926  1.0985
  496MOL0     H68444   4.112   0.922   4.376  2.3416  0.5460  1.4141
  496MOL0     H68445   4.424   0.585   5.143 -0.3747  3.1930 -1.5009
  496MOL0     H68446   4.504   0.398   5.259 -0.2621  0.0138 -0.3267
  496MOL0     H68447   4.644   0.302   5.203 -0.2536  0.3900 -0.8285
  496MOL0     H68448   4.680   0.434   5.311  2.7906 -0.8042 -1.7769
  497MOL0     O68449   5.951   9.775   7.279 -0.4942 -0.7547  0.3160
  497MOL0     C68450   5.845   9.744   7.227 -0.8157 -0.1538 -0.5218
  497MOL0     O68451   5.827   9.622   7.162  0.5731 -0.6617  0.3216
  497MOL0     C68452   5.943   9.545   7.168  0.0670  0.1700  0.1572
  497MOL0     C68453   6.056   9.559   7.084 -0.6237  0.0038 -0.4002
  497MOL0     C68454   6.162   9.474   7.096  0.7588  0.7031  0.9071
  497MOL0     C68455   6.170   9.388   7.204  0.5919  0.3501 -0.5172
  497MOL0     O68456   6.280   9.307   7.226  0.4355  0.5834 -0.2991
  497MOL0     C68457   6.412   9.326   7.166 -0.3358  1.2032  0.1898
  497MOL0     C68458   6.514   9.238   7.246  0.4780 -0.8121  0.8357
  497MOL0     C68459   6.597   9.329   7.339  0.3510 -0.1881 -0.6949
  497MOL0     C68460   6.693   9.231   7.409  0.1028  0.4172 -0.6697
  497MOL0     C68461   6.762   9.306   7.530  0.0604 -1.4152  0.0832
  497MOL0     C68462   6.854   9.434   7.491  0.3577 -0.1082  0.1574
  497MOL0     C68463   6.948   9.454   7.605 -0.0730  0.4141 -0.5715
  497MOL0     C68464   7.072   9.361   7.590  0.3757  0.0749  0.1958
  497MOL0     N68465   7.164   9.399   7.706 -0.2743 -0.3001  0.2511
  497MOL0     C68466   7.274   9.481   7.695  0.2056  1.1362  0.6984
  497MOL0     C68467   7.325   9.490   7.821  0.3269 -0.3502 -0.0695
  497MOL0     C68468   7.444   9.566   7.868  0.1521 -0.0672 -0.3153
  497MOL0     C68469   7.564   9.465   7.872 -0.1318 -0.8046  0.1707
  497MOL0     C68470   7.698   9.529   7.903  0.1227 -0.4805  0.0222
  497MOL0     C68471   7.812   9.433   7.892 -0.6500  0.1130  0.0142
  497MOL0     O68472   7.933   9.513   7.911  0.2449  0.6276  0.9133
  497MOL0     C68473   8.058   9.454   7.894 -0.8219  0.8033  0.4206
  497MOL0     C68474   8.086   9.315   7.911 -0.5118 -0.4884 -0.2965
  497MOL0     C68475   8.216   9.261   7.898  0.9279  0.1404 -0.8688
  497MOL0     C68476   8.239   9.108   7.911 -0.5228  0.7566  0.0732
  497MOL0     C68477   8.328   9.352   7.881  0.7607 -0.5037  1.0634
  497MOL0     C68478   8.466   9.319   7.870 -0.2709 -0.7620 -0.6711
  497MOL0     O68479   8.565   9.408   7.912  0.0763  0.5681 -0.5618
  497MOL0     C68480   8.697   9.380   7.899 -0.0389 -0.2331 -0.7052
  497MOL0     C68481   8.761   9.262   7.932 -0.1165  0.3058 -1.0330
  497MOL0     C68482   8.897   9.252   7.930 -0.0693  0.0604  0.4048
  497MOL0     C68483   8.975   9.357   7.898 -0.7600 -0.4717  0.5487
  497MOL0     O68484   9.106   9.349   7.857 -0.3938 -0.3374 -0.6282
  497MOL0     C68485   9.192   9.255   7.924 -0.6296 -0.2095 -0.3625
  497MOL0     C68486   9.247   9.134   7.836 -0.0893  0.0959 -0.1814
  497MOL0     C68487   9.374   9.188   7.761 -0.6465 -0.1776  0.5261
  497MOL0     C68488   9.498   9.136   7.836 -0.3972 -0.6573 -0.2421
  497MOL0     C68489   9.613   9.227   7.800 -0.3718  0.8285  0.6774
  497MOL0     C68490   9.740   9.187   7.870  0.4397 -0.4053  0.5649
  497MOL0     C68491   9.850   9.275   7.824 -1.0868  0.3544 -0.3618
  497MOL0     C68492   9.988   9.219   7.879 -0.1129 -0.2986  0.2647
  497MOL0    Cl68493  10.091   9.375   7.896  0.0148 -0.2990  0.1496
  497MOL0     C68494   8.919   9.482   7.876 -0.2887  0.4896 -0.6685
  497MOL0     C68495   8.776   9.493   7.875  0.5875  0.5412  0.2374
  497MOL0     O68496   8.490   9.217   7.805  0.1975  0.3678  0.0942
  497MOL0     C68497   8.297   9.491   7.881 -0.1295  1.0269  0.0019
  497MOL0     C68498   8.169   9.537   7.881  0.0917  0.3619 -0.4803
  497MOL0     N68499   7.238   9.428   7.904  0.0901 -0.1358  0.7098
  497MOL0     N68500   7.138   9.384   7.837 -0.3960 -0.2084 -0.2684
  497MOL0     C68501   6.053   9.365   7.284 -0.5499  1.0545  0.6555
  497MOL0     C68502   5.948   9.445   7.260  0.0266  0.2041  0.3798
  497MOL0     C68503   5.735   9.840   7.246  0.7818 -0.1156  0.1497
  497MOL0     C68504   5.717   9.908   7.365 -0.5632  0.9487  0.4897
  497MOL0     C68505   5.612   9.991   7.390  0.2553  0.3602 -0.6326
  497MOL0     C68506   5.520  10.005   7.288 -0.0383  0.2124 -0.5396
  497MOL0     O68507   5.412  10.086   7.310 -0.0984  0.2361 -0.3087
  497MOL0     C68508   5.352  10.081   7.438  0.4728 -0.1436 -0.0846
  497MOL0     C68509   5.200  10.128   7.436 -0.5805 -0.3158 -1.0462
  497MOL0     C68510   5.109  10.062   7.328 -1.1881 -0.3867 -0.1214
  497MOL0     C68511   5.059   9.927   7.357 -0.5387  0.2975  0.6480
  497MOL0     C68512   4.922   9.928   7.415 -0.9634 -0.4008  0.5479
  497MOL0     C68513   4.811   9.924   7.458  0.6297 -0.6001 -0.3487
  497MOL0     C68514   5.543   9.957   7.162  0.2682  0.1929  0.0414
  497MOL0     C68515   5.645   9.866   7.137 -0.8470 -0.1582  0.1574
  497MOL0     C68516   5.658   9.803   6.998 -0.4520 -0.1860  0.1792
  497MOL0     H68517   6.083   9.644   7.022  0.6113  1.1877  1.6557
  497MOL0     H68518   6.234   9.487   7.015 -0.4576  0.1146 -0.3145
  497MOL0     H68519   6.435   9.433   7.164 -1.3178  1.4496  1.2455
  497MOL0     H68520   6.415   9.283   7.065  0.5609 -0.0834  0.7524
  497MOL0     H68521   6.451   9.167   7.299  0.2267  0.0820  1.7588
  497MOL0     H68522   6.576   9.184   7.174  0.8199  1.7777 -0.9344
  497MOL0     H68523   6.647   9.408   7.282 -0.3922 -1.1000 -2.7359
  497MOL0     H68524   6.530   9.372   7.414 -0.6103  0.2508 -1.7744
  497MOL0     H68525   6.638   9.143   7.443  1.2691 -0.1926 -0.3112
  497MOL0     H68526   6.770   9.199   7.338 -0.6416 -0.0676 -1.2632
  497MOL0     H68527   6.826   9.234   7.581  0.6398 -0.9170  0.0626
  497MOL0     H68528   6.682   9.332   7.600  0.4757  1.3544 -0.3346
  497MOL0     H68529   6.892   9.427   7.389  1.8268  4.1702  0.2202
  497MOL0     H68530   6.793   9.524   7.480  0.3726 -0.0096  0.8004
  497MOL0     H68531   6.892   9.422   7.694 -0.3511 -3.4744 -1.9602
  497MOL0     H68532   6.990   9.554   7.619  3.2933 -1.1654  2.1922
  497MOL0     H68533   7.045   9.256   7.599 -1.3927  0.4611 -0.1910
  497MOL0     H68534   7.131   9.388   7.502 -0.2282  1.0407  0.0726
  497MOL0     H68535   7.306   9.528   7.602  2.3016  1.4102  1.5047
  497MOL0     H68536   7.419   9.594   7.970 -2.9434  2.0590 -1.5079
  497MOL0     H68537   7.469   9.652   7.806 -2.6232  1.0769  0.0128
  497MOL0     H68538   7.535   9.389   7.944 -3.0022 -0.2713 -0.3128
  497MOL0     H68539   7.577   9.417   7.774 -1.1897 -1.3070  0.2631
  497MOL0     H68540   7.713   9.616   7.838 -1.0467  0.2047  0.6378
  497MOL0     H68541   7.691   9.567   8.005 -0.7135  3.1624 -1.2211
  497MOL0     H68542   7.798   9.360   7.972 -2.1514  2.4454  2.0665
  497MOL0     H68543   7.824   9.385   7.795 -2.2658  0.9705 -0.6523
  497MOL0     H68544   8.011   9.240   7.934 -0.1203 -0.5050  0.9656
  497MOL0     H68545   8.159   9.058   7.966 -2.2708 -2.1790 -4.5180
  497MOL0     H68546   8.332   9.085   7.964  0.2691  0.5703 -1.3270
  497MOL0     H68547   8.263   9.066   7.813  2.5843  2.6013 -0.1029
  497MOL0     H68548   8.711   9.174   7.970 -0.5798  0.1506 -1.9645
  497MOL0     H68549   8.938   9.154   7.950 -0.7827  0.0162  1.7616
  497MOL0     H68550   9.280   9.304   7.966 -0.8685  1.6300 -1.8737
  497MOL0     H68551   9.144   9.209   8.010  0.4895 -0.3570  0.2083
  497MOL0     H68552   9.268   9.053   7.907 -1.4930  1.1839  1.5890
  497MOL0     H68553   9.179   9.100   7.758  0.4631 -2.5398  0.4020
  497MOL0     H68554   9.377   9.296   7.746 -0.7280 -0.2481 -0.0264
  497MOL0     H68555   9.377   9.143   7.661  1.1205 -0.5476  0.7156
  497MOL0     H68556   9.513   9.030   7.815  0.4673 -0.4051 -0.9631
  497MOL0     H68557   9.491   9.133   7.945 -0.7811 -1.0637 -0.2762
  497MOL0     H68558   9.626   9.219   7.692 -3.9900 -1.1926  0.2248
  497MOL0     H68559   9.585   9.327   7.833  0.8747  1.9474 -1.4851
  497MOL0     H68560   9.771   9.085   7.847 -1.0274 -0.4109 -1.7618
  497MOL0     H68561   9.723   9.198   7.978 -1.8873  0.7895  0.1547
  497MOL0     H68562   9.828   9.371   7.870 -1.1618  0.2537 -0.1900
  497MOL0     H68563   9.849   9.269   7.714  1.3339 -0.7616 -0.4010
  497MOL0     H68564  10.039   9.155   7.806  2.7123  1.0331  0.9276
  497MOL0     H68565   9.974   9.175   7.979  3.1022 -3.6635 -0.5248
  497MOL0     H68566   8.986   9.557   7.835  3.0888  0.8278  4.4946
  497MOL0     H68567   8.732   9.584   7.836 -3.2233 -1.6779 -1.2295
  497MOL0     H68568   8.370   9.570   7.896 -2.1700  2.8869  0.7596
  497MOL0     H68569   8.155   9.643   7.895  0.7173  0.3537  0.2129
  497MOL0     H68570   6.048   9.291   7.363 -1.1518 -1.0872 -1.2727
  497MOL0     H68571   5.865   9.429   7.328 -0.9713 -0.1523 -0.8904
  497MOL0     H68572   5.788   9.908   7.447  1.7465  2.3540 -1.3675
  497MOL0     H68573   5.599  10.052   7.479 -5.0957  0.3748 -1.1321
  497MOL0     H68574   5.353   9.977   7.469 -0.4603  1.0194  4.6518
  497MOL0     H68575   5.414  10.145   7.502  1.4830  0.0799 -1.2421
  497MOL0     H68576   5.199  10.236   7.420 -0.1483 -0.0227  0.7067
  497MOL0     H68577   5.156  10.112   7.535 -0.6226  3.5908 -0.2677
  497MOL0     H68578   5.032  10.134   7.302 -1.0983  0.7591  2.4160
  497MOL0     H68579   5.174  10.056   7.241 -1.7487  0.6626 -0.6312
  497MOL0     H68580   5.121   9.877   7.431  1.6576  0.0828 -1.2384
  497MOL0     H68581   5.076   9.862   7.271  3.6606  0.9952  0.7571
  497MOL0     H68582   4.706   9.920   7.479  0.5112 -4.2153 -1.0354
  497MOL0     H68583   5.458   9.976   7.097 -1.1122  1.7069  2.1488
  497MOL0     H68584   5.628   9.878   6.925  0.0706 -2.5873 -2.6800
  497MOL0     H68585   5.761   9.778   6.973 -0.8938 -0.7598 -1.1347
  497MOL0     H68586   5.601   9.712   6.977 -0.6300 -0.7611  2.7980
  498MOL0     O68587   5.548   5.765   4.838  0.3622  0.1009 -0.7176
  498MOL0     C68588   5.471   5.673   4.814  0.4557 -0.2044 -0.3853
  498MOL0     O68589   5.499   5.546   4.753 -0.2372 -1.1230 -0.2140
  498MOL0     C68590   5.615   5.544   4.685 -0.4765  0.1425  1.6540
  498MOL0     C68591   5.628   5.620   4.577 -0.1171 -0.2792  1.0732
  498MOL0     C68592   5.746   5.632   4.508 -0.3239  0.3910  0.3224
  498MOL0     C68593   5.864   5.565   4.553 -0.1564 -0.2015 -0.5826
  498MOL0     O68594   5.985   5.590   4.492 -0.1420  0.7682  0.2132
  498MOL0     C68595   6.107   5.547   4.557  0.0059 -0.2193 -0.3440
  498MOL0     C68596   6.235   5.583   4.471 -0.1639  0.6195 -0.2611
  498MOL0     C68597   6.249   5.493   4.354  0.2737 -0.5153 -0.5355
  498MOL0     C68598   6.361   5.541   4.256  0.2745  0.5400 -0.5405
  498MOL0     C68599   6.491   5.564   4.333 -0.1353 -0.1699  0.1620
  498MOL0     C68600   6.594   5.591   4.228 -0.3141  0.1321  0.5650
  498MOL0     C68601   6.729   5.636   4.285 -0.8784  0.4360  0.3315
  498MOL0     C68602   6.826   5.514   4.301 -0.7747  0.2693  0.4318
  498MOL0     N68603   6.847   5.435   4.177  0.0241 -0.4183 -0.4754
  498MOL0     C68604   6.935   5.468   4.068 -0.2657  0.8222 -0.3980
  498MOL0     C68605   6.922   5.371   3.983 -0.7782  0.8789 -0.0438
  498MOL0     C68606   6.985   5.367   3.845  0.5815  0.3391 -0.9164
  498MOL0     C68607   7.129   5.374   3.846 -0.0647 -0.0939  0.4328
  498MOL0     C68608   7.180   5.412   3.710 -0.5538 -0.3848 -0.3267
  498MOL0     C68609   7.163   5.557   3.674  0.5585  0.2284  0.3943
  498MOL0     O68610   7.201   5.659   3.779  1.0182 -0.0714  0.1801
  498MOL0     C68611   7.295   5.752   3.747 -0.7796 -0.5042 -0.3251
  498MOL0     C68612   7.352   5.780   3.622  0.9021 -0.2695 -0.3030
  498MOL0     C68613   7.463   5.857   3.607 -0.0759  0.3555 -0.1576
  498MOL0     C68614   7.533   5.868   3.470  0.0166 -0.3761  0.5556
  498MOL0     C68615   7.509   5.929   3.718  0.2425 -0.3949  0.2553
  498MOL0     C68616   7.616   6.028   3.715  0.1767  0.3815  0.5101
  498MOL0     O68617   7.633   6.103   3.826  0.5877 -0.5547 -0.5400
  498MOL0     C68618   7.748   6.179   3.843 -0.5108 -0.5727 -0.1088
  498MOL0     C68619   7.836   6.166   3.952  0.3052  1.0011  0.9420
  498MOL0     C68620   7.942   6.255   3.979  0.1261 -0.1205 -0.2821
  498MOL0     C68621   7.967   6.364   3.896  0.2558  0.0115 -1.3954
  498MOL0     O68622   8.068   6.458   3.901  0.6885 -0.0040  0.2536
  498MOL0     C68623   8.177   6.422   3.983 -0.4933  0.4806  0.1560
  498MOL0     C68624   8.263   6.542   3.982  0.4171  0.4679  0.6117
  498MOL0     C68625   8.388   6.520   4.065  0.1743  0.2688 -0.0388
  498MOL0     C68626   8.359   6.519   4.211 -0.1168  0.6467  0.1045
  498MOL0     C68627   8.491   6.472   4.288 -0.4296 -0.1364  0.3853
  498MOL0     C68628   8.613   6.571   4.274  0.2621  0.5078  0.1531
  498MOL0     C68629   8.578   6.712   4.336  0.3870 -0.0836 -0.0614
  498MOL0     C68630   8.701   6.803   4.352 -0.3267  0.1925 -0.1982
  498MOL0    Cl68631   8.649   6.962   4.397 -0.1052  0.0413  0.0334
  498MOL0     C68632   7.877   6.376   3.790  0.5526  0.5695  0.1782
  498MOL0     C68633   7.770   6.286   3.755 -0.8311  0.5025 -0.2878
  498MOL0     O68634   7.695   6.030   3.620  0.1239 -0.0945 -0.2424
  498MOL0     C68635   7.460   5.902   3.848  0.3736  0.2808  0.0542
  498MOL0     C68636   7.351   5.816   3.859 -1.1314  0.1906 -0.0148
  498MOL0     N68637   6.840   5.270   4.041 -0.8979 -0.5441  0.0585
  498MOL0     N68638   6.809   5.305   4.164  0.7644 -0.1470  0.3807
  498MOL0     C68639   5.850   5.487   4.667  0.2338  0.0053  0.7310
  498MOL0     C68640   5.722   5.467   4.725 -0.8665 -0.2986  0.2451
  498MOL0     C68641   5.330   5.691   4.868  0.1354  0.4737  0.3068
  498MOL0     C68642   5.289   5.823   4.901 -0.0769  0.2892  0.7434
  498MOL0     C68643   5.159   5.836   4.943  0.7361 -0.1298 -0.0314
  498MOL0     C68644   5.066   5.731   4.967 -0.7176 -0.0921 -0.5446
  498MOL0     O68645   4.945   5.744   5.029 -0.6477 -0.0588 -0.3724
  498MOL0     C68646   4.879   5.873   5.050 -0.1434  0.2951 -0.4609
  498MOL0     C68647   4.723   5.862   5.028 -0.7159 -0.2898 -0.3927
  498MOL0     C68648   4.651   5.987   4.950 -0.4466  0.2814 -0.6166
  498MOL0     C68649   4.606   6.087   5.053  0.0376 -0.1025  0.0251
  498MOL0     C68650   4.499   6.043   5.143 -0.6545  1.2981  0.2160
  498MOL0     C68651   4.419   5.999   5.218 -0.2854 -0.3764 -0.1575
  498MOL0     C68652   5.106   5.598   4.939  0.0423 -0.1268  0.4226
  498MOL0     C68653   5.238   5.581   4.891 -0.0454 -0.9480  0.0683
  498MOL0     C68654   5.259   5.436   4.868 -1.0133 -1.0638  0.7746
  498MOL0     H68655   5.538   5.670   4.540  0.2105 -1.9469 -2.4442
  498MOL0     H68656   5.758   5.703   4.427  3.0297 -1.2469 -0.8042
  498MOL0     H68657   6.114   5.441   4.582 -2.3285 -0.3005  0.1146
  498MOL0     H68658   6.131   5.605   4.648  1.0315 -2.1459  0.6840
  498MOL0     H68659   6.224   5.685   4.432  2.7637  0.7449 -1.0025
  498MOL0     H68660   6.329   5.596   4.525  1.4504  4.4096 -3.5514
  498MOL0     H68661   6.270   5.391   4.386 -0.3701 -1.3971 -2.7388
  498MOL0     H68662   6.158   5.491   4.293  0.3269 -1.4970 -0.5971
  498MOL0     H68663   6.372   5.459   4.185  0.8213 -0.0787  0.2446
  498MOL0     H68664   6.328   5.629   4.200 -0.7187  0.6022  0.1033
  498MOL0     H68665   6.524   5.472   4.383 -1.0653 -0.5205  0.1414
  498MOL0     H68666   6.495   5.655   4.394  2.4247  0.5403 -0.9105
  498MOL0     H68667   6.593   5.513   4.150  0.9888  3.8201 -3.5760
  498MOL0     H68668   6.565   5.673   4.161 -1.1771  0.1237  0.9156
  498MOL0     H68669   6.712   5.692   4.378 -3.9252  0.6234 -0.2461
  498MOL0     H68670   6.782   5.707   4.222 -0.3868  1.2472  1.6120
  498MOL0     H68671   6.927   5.541   4.334 -1.0964  0.1383  1.5646
  498MOL0     H68672   6.787   5.450   4.380  0.2553 -1.1642 -0.1956
  498MOL0     H68673   6.988   5.558   4.042  2.6077 -0.9276 -1.0351
  498MOL0     H68674   6.942   5.455   3.796 -1.0791 -0.7890 -1.5851
  498MOL0     H68675   6.968   5.274   3.789  1.8131 -0.9043  0.6580
  498MOL0     H68676   7.167   5.452   3.912 -0.0348  1.0107 -0.8590
  498MOL0     H68677   7.171   5.278   3.880 -1.7589 -1.5091 -1.2932
  498MOL0     H68678   7.287   5.394   3.721 -0.5939 -0.9159 -0.7845
  498MOL0     H68679   7.136   5.343   3.637  0.2967  0.0391 -1.2515
  498MOL0     H68680   7.229   5.567   3.587  0.5032 -0.2767  0.2887
  498MOL0     H68681   7.056   5.566   3.656  0.1715 -2.2091  1.0936
  498MOL0     H68682   7.319   5.731   3.531 -3.3193 -0.0288  0.8657
  498MOL0     H68683   7.629   5.816   3.463  0.0498 -0.2485  0.0721
  498MOL0     H68684   7.552   5.973   3.445 -0.6166 -1.0621 -3.5359
  498MOL0     H68685   7.465   5.824   3.397 -2.7865  0.9525  2.1710
  498MOL0     H68686   7.819   6.089   4.026  2.0520  1.7659  2.2065
  498MOL0     H68687   8.003   6.224   4.063 -0.1993 -3.2559 -1.0621
  498MOL0     H68688   8.139   6.402   4.084 -1.9345 -2.5427 -0.8412
  498MOL0     H68689   8.238   6.337   3.951 -2.2419 -0.6187 -0.3994
  498MOL0     H68690   8.292   6.582   3.885 -0.1577  0.1443  0.2993
  498MOL0     H68691   8.198   6.619   4.024 -1.8526 -0.8996 -0.2380
  498MOL0     H68692   8.451   6.605   4.037 -0.4837 -0.0081 -2.5877
  498MOL0     H68693   8.438   6.427   4.037  0.4939 -1.0854  4.3276
  498MOL0     H68694   8.283   6.443   4.235  1.5729 -1.4562 -0.9015
  498MOL0     H68695   8.344   6.620   4.250  1.5133  2.4447 -3.4594
  498MOL0     H68696   8.463   6.475   4.394  4.3075  0.3109  1.8542
  498MOL0     H68697   8.513   6.367   4.269 -2.4616 -0.3964 -0.8649
  498MOL0     H68698   8.635   6.574   4.167  1.7094  2.6626  0.4442
  498MOL0     H68699   8.700   6.524   4.321 -1.2856  0.0999  2.8682
  498MOL0     H68700   8.527   6.697   4.431 -2.2228  1.0093 -1.1997
  498MOL0     H68701   8.516   6.771   4.267  1.7171  2.0682  0.4727
  498MOL0     H68702   8.750   6.824   4.256 -1.5886 -0.1206 -0.9439
  498MOL0     H68703   8.767   6.767   4.430  0.5729  3.1987  0.5483
  498MOL0     H68704   7.889   6.447   3.710  0.8781  0.9348  0.5486
  498MOL0     H68705   7.696   6.304   3.678 -2.1960  0.1723  0.9187
  498MOL0     H68706   7.506   5.934   3.941 -0.7711 -0.6830  0.9684
  498MOL0     H68707   7.323   5.789   3.960  2.2860 -3.6955  0.1622
  498MOL0     H68708   5.931   5.429   4.710 -0.3567 -0.1572  1.6424
  498MOL0     H68709   5.710   5.393   4.803 -2.1514 -2.2261 -1.6537
  498MOL0     H68710   5.356   5.907   4.888  0.4693 -0.4073 -1.3641
  498MOL0     H68711   5.141   5.942   4.957  1.0059 -0.2206  1.1251
  498MOL0     H68712   4.899   5.908   5.152  1.1300  0.1748 -0.6576
  498MOL0     H68713   4.916   5.959   4.993  1.0306  1.1802  1.5329
  498MOL0     H68714   4.682   5.841   5.127  3.4401  1.2825  1.8941
  498MOL0     H68715   4.705   5.773   4.968 -0.6944 -0.2378 -0.4774
  498MOL0     H68716   4.711   6.027   4.868  0.2022 -1.2489 -0.9273
  498MOL0     H68717   4.565   5.943   4.898  0.6586 -1.7232 -0.8619
  498MOL0     H68718   4.555   6.163   4.993 -0.1723 -1.1007 -1.0961
  498MOL0     H68719   4.687   6.143   5.101  1.0017  0.0131 -1.6787
  498MOL0     H68720   4.352   5.974   5.297  0.9280  4.1620  2.6842
  498MOL0     H68721   5.049   5.507   4.955  0.2725 -0.4412 -0.4707
  498MOL0     H68722   5.357   5.412   4.912 -0.9460  0.6033  1.6144
  498MOL0     H68723   5.188   5.369   4.916 -2.0203  0.3975  1.3945
  498MOL0     H68724   5.267   5.426   4.759 -1.8010 -2.7206  0.8542
  499MOL0     O68725  11.335   4.298   6.783  0.1348  0.2361 -0.2834
  499MOL0     C68726  11.312   4.177   6.796 -0.8098  0.3238 -0.5085
  499MOL0     O68727  11.411   4.091   6.840 -0.0128 -0.0842 -0.2572
  499MOL0     C68728  11.526   4.149   6.899  0.7208 -0.9675  0.5097
  499MOL0     C68729  11.631   4.213   6.822 -0.7319  0.0032  0.3806
  499MOL0     C68730  11.736   4.279   6.880 -0.1612 -0.4333 -0.5217
  499MOL0     C68731  11.732   4.284   7.024 -0.3178  0.2090  0.3673
  499MOL0     O68732  11.827   4.348   7.099  0.0918 -0.2837 -0.2458
  499MOL0     C68733  11.963   4.358   7.043 -0.3683  0.7207  0.9061
  499MOL0     C68734  12.049   4.420   7.157 -0.4747  0.1822  0.6466
  499MOL0     C68735  12.014   4.572   7.181  0.9805  0.3270  0.4106
  499MOL0     C68736  12.116   4.632   7.278  0.3628  0.1657  0.2470
  499MOL0     C68737  12.067   4.769   7.305 -0.4937  0.1985  0.4454
  499MOL0     C68738  12.167   4.857   7.377 -0.2143  1.0222  0.2397
  499MOL0     C68739  12.103   4.985   7.425  0.9092  0.6339  0.0442
  499MOL0     C68740  12.051   5.071   7.304  0.4580  0.7003  0.3506
  499MOL0     N68741  12.163   5.123   7.225  0.1727  0.1503 -0.1361
  499MOL0     C68742  12.235   5.239   7.255  0.2617  0.7610 -0.4187
  499MOL0     C68743  12.330   5.247   7.159  0.6551  0.2854 -0.8556
  499MOL0     C68744  12.448   5.342   7.155  0.0179 -0.3652 -0.6733
  499MOL0     C68745  12.437   5.442   7.038 -0.6320 -0.3306 -0.0298
  499MOL0     C68746  12.454   5.378   6.892  0.5019 -0.7560  0.9206
  499MOL0     C68747  12.569   5.291   6.869 -0.6181  0.4721 -0.2305
  499MOL0     O68748  12.686   5.372   6.871 -0.8454  0.3253  0.3072
  499MOL0     C68749  12.810   5.312   6.842 -0.0282  0.1282  0.2096
  499MOL0     C68750  12.833   5.179   6.803  0.2669 -0.1720 -0.0962
  499MOL0     C68751  12.963   5.131   6.767  0.8109 -0.4378  0.1464
  499MOL0     C68752  12.981   4.981   6.751 -0.2932  0.2139 -0.5464
  499MOL0     C68753  13.071   5.219   6.768  0.0291 -0.1797  0.8264
  499MOL0     C68754  13.214   5.177   6.754  0.4750 -1.0867  0.2467
  499MOL0     O68755  13.309   5.240   6.831  0.1241 -0.0471  0.0929
  499MOL0     C68756  13.438   5.192   6.832 -0.0588 -0.3022  0.1917
  499MOL0     C68757  13.540   5.281   6.843 -0.0994  0.4893 -0.5970
  499MOL0     C68758  13.668   5.243   6.853 -0.2257  0.7681  1.1329
  499MOL0     C68759  13.702   5.107   6.871  0.8900 -0.1709  0.0978
  499MOL0     O68760  13.830   5.066   6.885  0.5984 -0.3089  0.5666
  499MOL0     C68761  13.939   5.148   6.933  0.5801 -0.4496 -0.0355
  499MOL0     C68762  14.061   5.057   6.951 -0.6232 -0.8455 -0.0339
  499MOL0     C68763  14.181   5.136   7.006 -0.1548 -0.5635 -0.9503
  499MOL0     C68764  14.313   5.078   6.964 -0.6238 -0.0367  0.0080
  499MOL0     C68765  14.346   5.106   6.817 -0.6171 -0.1724  0.1892
  499MOL0     C68766  14.492   5.076   6.777 -0.3528 -0.2186 -0.4960
  499MOL0     C68767  14.524   5.134   6.640 -0.2180  0.3010  0.1991
  499MOL0     C68768  14.664   5.087   6.599 -0.3449  0.4941  0.4594
  499MOL0    Cl68769  14.654   4.916   6.529  0.1610 -0.1708 -0.1271
  499MOL0     C68770  13.601   5.014   6.855  0.0354 -0.6276 -0.2212
  499MOL0     C68771  13.469   5.055   6.834  0.2622 -0.2564  0.2281
  499MOL0     O68772  13.240   5.098   6.668  0.5071  0.4181 -0.0830
  499MOL0     C68773  13.045   5.355   6.799  0.1260 -0.5578 -0.0037
  499MOL0     C68774  12.918   5.399   6.835  0.6908  0.0394 -0.6665
  499MOL0     N68775  12.307   5.143   7.071  0.4588 -0.7251 -0.5343
  499MOL0     N68776  12.204   5.068   7.114 -0.2971  0.2384 -0.6358
  499MOL0     C68777  11.641   4.210   7.102  0.6909 -0.3579 -0.4038
  499MOL0     C68778  11.532   4.142   7.039 -0.1472 -0.2919 -0.6783
  499MOL0     C68779  11.172   4.126   6.772  0.6820 -1.0039  0.2724
  499MOL0     C68780  11.071   4.226   6.758  0.7849 -0.4885 -0.0684
  499MOL0     C68781  10.937   4.189   6.724 -0.0612  0.3381 -0.1485
  499MOL0     C68782  10.898   4.058   6.706  0.3339  0.8735  1.4926
  499MOL0     O68783  10.779   4.005   6.657  0.1767 -0.2908 -0.5573
  499MOL0     C68784  10.668   4.099   6.640  0.1565  0.8936  0.0582
  499MOL0     C68785  10.533   4.020   6.646  0.6088  0.4312  0.3589
  499MOL0     C68786  10.425   4.088   6.742  0.5737 -0.0044  0.4535
  499MOL0     C68787  10.284   4.042   6.702  0.1036 -0.4992  0.6193
  499MOL0     C68788  10.193   4.067   6.812  0.3374 -0.4650  0.1116
  499MOL0     C68789  10.114   4.078   6.901 -0.5943  0.2797 -0.4295
  499MOL0     C68790  10.996   3.959   6.720  0.3018 -0.3847  0.6630
  499MOL0     C68791  11.129   3.992   6.756  0.6653 -0.3052 -0.3554
  499MOL0     C68792  11.229   3.885   6.769 -0.6888 -0.1254  0.1499
  499MOL0     H68793  11.626   4.200   6.715  0.8941  2.4228 -0.0617
  499MOL0     H68794  11.819   4.328   6.832 -0.3121  1.9950  1.5186
  499MOL0     H68795  11.981   4.419   6.954  0.4883 -0.1662  0.4524
  499MOL0     H68796  11.995   4.257   7.016 -0.3599  0.8220  0.5366
  499MOL0     H68797  12.041   4.373   7.255  0.7734  0.2866  0.8124
  499MOL0     H68798  12.150   4.411   7.116 -0.8515  1.7533 -0.8000
  499MOL0     H68799  12.021   4.630   7.088 -0.4113  0.3109  0.2745
  499MOL0     H68800  11.914   4.579   7.225  1.9285 -0.3517  2.8165
  499MOL0     H68801  12.122   4.571   7.368  0.7606  0.9803  0.7890
  499MOL0     H68802  12.215   4.640   7.232 -0.1434  1.3902 -0.7106
  499MOL0     H68803  11.980   4.769   7.371 -0.4187  0.4921  0.5443
  499MOL0     H68804  12.044   4.812   7.207 -2.0850 -1.5072  0.0101
  499MOL0     H68805  12.201   4.811   7.470 -1.3352  1.2590  0.7843
  499MOL0     H68806  12.259   4.878   7.322  0.8120  2.2041  2.2832
  499MOL0     H68807  12.174   5.037   7.489 -0.1535 -1.0870  2.8207
  499MOL0     H68808  12.017   4.957   7.488  0.9164 -0.8005 -0.5435
  499MOL0     H68809  11.981   5.003   7.254  1.2101 -0.7168  1.1517
  499MOL0     H68810  12.000   5.157   7.347  0.6126  0.6774  0.5745
  499MOL0     H68811  12.237   5.288   7.352  3.1986 -1.4096  0.7553
  499MOL0     H68812  12.547   5.294   7.152  2.1857  3.5322  0.6628
  499MOL0     H68813  12.463   5.403   7.244  0.5129 -2.0302  0.4440
  499MOL0     H68814  12.338   5.488   7.045 -0.7389 -0.6666  0.8706
  499MOL0     H68815  12.507   5.524   7.054 -1.9524  0.7321  0.4436
  499MOL0     H68816  12.370   5.310   6.872  1.0814 -1.6098  1.3208
  499MOL0     H68817  12.459   5.463   6.824  0.8406 -1.1642  0.4293
  499MOL0     H68818  12.567   5.206   6.938  0.1131  0.7436  0.1418
  499MOL0     H68819  12.564   5.248   6.768  0.0261 -1.8525  0.6593
  499MOL0     H68820  12.755   5.107   6.823 -1.4347  1.5246 -0.3751
  499MOL0     H68821  13.012   4.945   6.653  1.8276  0.3918  0.0119
  499MOL0     H68822  12.884   4.933   6.769 -0.4531  0.9987  0.7847
  499MOL0     H68823  13.047   4.944   6.830 -0.8039  0.7693  0.1541
  499MOL0     H68824  13.514   5.386   6.839 -1.0029  0.4254  1.6713
  499MOL0     H68825  13.743   5.319   6.872  0.5665  0.6340 -1.1236
  499MOL0     H68826  13.968   5.217   6.853 -0.8268  0.1586 -0.0409
  499MOL0     H68827  13.931   5.206   7.025 -1.3099  0.5509 -0.7736
  499MOL0     H68828  14.034   4.972   7.015  1.2764 -0.6265  1.1247
  499MOL0     H68829  14.097   5.011   6.859 -0.4522  0.5504 -0.6961
  499MOL0     H68830  14.172   5.128   7.115  0.4705  1.6500 -0.6861
  499MOL0     H68831  14.181   5.243   6.983  1.0366 -0.5423 -0.8940
  499MOL0     H68832  14.306   4.969   6.972  2.9069 -0.6082 -2.3743
  499MOL0     H68833  14.396   5.117   7.023  0.1496 -0.3343 -0.8590
  499MOL0     H68834  14.273   5.050   6.758  0.3856 -1.5956  0.2633
  499MOL0     H68835  14.326   5.213   6.806 -0.8975 -0.1305  0.9729
  499MOL0     H68836  14.518   4.970   6.765  2.0917  0.3738 -0.9671
  499MOL0     H68837  14.557   5.120   6.853 -0.0274 -1.3254 -0.1100
  499MOL0     H68838  14.525   5.242   6.653  0.2794  0.0879  2.1578
  499MOL0     H68839  14.443   5.104   6.573 -1.5998 -0.9791  2.3271
  499MOL0     H68840  14.736   5.098   6.681 -0.1561  3.1530  0.0208
  499MOL0     H68841  14.701   5.139   6.511  0.9707 -1.5380 -0.2725
  499MOL0     H68842  13.617   4.906   6.858 -1.4187 -0.8589  0.3840
  499MOL0     H68843  13.397   4.974   6.823  0.3410 -0.2610 -0.2573
  499MOL0     H68844  13.124   5.429   6.810  1.8311 -1.9834 -1.9608
  499MOL0     H68845  12.891   5.502   6.854 -0.3122 -0.5633  1.6255
  499MOL0     H68846  11.637   4.213   7.211 -0.4357  3.4964 -0.4051
  499MOL0     H68847  11.454   4.093   7.096 -0.8022 -1.0085 -2.1416
  499MOL0     H68848  11.101   4.327   6.787  2.5050 -1.3730  1.4856
  499MOL0     H68849  10.868   4.272   6.715 -1.4858 -0.8029 -0.2445
  499MOL0     H68850  10.678   4.180   6.713  2.1385  0.8003 -0.0430
  499MOL0     H68851  10.683   4.158   6.549 -0.3153 -1.0273 -1.3427
  499MOL0     H68852  10.543   3.916   6.678 -2.3500 -0.6677 -1.9039
  499MOL0     H68853  10.483   4.016   6.549  1.1047  0.1751  0.1076
  499MOL0     H68854  10.457   4.069   6.845  0.0850  0.0342  0.6158
  499MOL0     H68855  10.434   4.196   6.728  2.2301  0.3275  3.2664
  499MOL0     H68856  10.284   3.934   6.682 -0.1918 -0.9089  2.6393
  499MOL0     H68857  10.244   4.098   6.616  1.3814 -0.0174  0.3169
  499MOL0     H68858  10.035   4.092   6.971 -0.7215 -3.4691  0.4163
  499MOL0     H68859  10.958   3.861   6.691 -4.1068  1.6476 -1.4584
  499MOL0     H68860  11.188   3.785   6.753 -0.2103  0.0498 -2.6276
  499MOL0     H68861  11.314   3.895   6.701  1.9865 -1.1179  3.0781
  499MOL0     H68862  11.272   3.885   6.869 -0.2211  1.4839 -0.0146
  500MOL0     O68863   3.904   4.579   3.100 -0.1014 -0.1434  0.0416
  500MOL0     C68864   3.885   4.603   2.980  0.2452 -0.2920 -0.9560
  500MOL0     O68865   3.980   4.580   2.883  0.4512  0.6640  0.6375
  500MOL0     C68866   4.107   4.549   2.919  0.8587  0.1529  0.7638
  500MOL0     C68867   4.203   4.647   2.938  0.7282  0.3171  0.4718
  500MOL0     C68868   4.332   4.617   2.988 -0.1464  0.9270  1.2189
  500MOL0     C68869   4.363   4.483   3.010  0.8757 -0.1565 -0.8035
  500MOL0     O68870   4.473   4.440   3.068  1.0552  0.6577  0.0299
  500MOL0     C68871   4.560   4.533   3.129 -0.4383  1.1128 -0.3298
  500MOL0     C68872   4.654   4.457   3.225 -0.5526 -0.0222 -0.8407
  500MOL0     C68873   4.753   4.358   3.165  0.2709  0.3950  0.9070
  500MOL0     C68874   4.853   4.401   3.061 -0.3516 -0.3693  0.2832
  500MOL0     C68875   4.958   4.294   3.049 -0.7345 -0.4331  0.8065
  500MOL0     C68876   4.915   4.154   3.003  0.5391 -0.5584  0.2827
  500MOL0     C68877   5.042   4.068   3.000 -0.0629 -0.3572 -0.0971
  500MOL0     C68878   5.007   3.927   2.961 -0.1366 -0.2525  0.5140
  500MOL0     N68879   5.130   3.838   2.957 -0.3426 -0.3484 -0.7164
  500MOL0     C68880   5.241   3.844   2.877 -0.1092 -0.0205 -0.4834
  500MOL0     C68881   5.338   3.764   2.933  0.7005  0.4168  0.0584
  500MOL0     C68882   5.477   3.751   2.881  0.2935  0.1156  0.5803
  500MOL0     C68883   5.586   3.758   2.999 -0.1201 -0.1465  0.2946
  500MOL0     C68884   5.725   3.731   2.947 -0.6006  0.0652  0.6712
  500MOL0     C68885   5.799   3.855   2.881  0.9245  0.4987 -0.6313
  500MOL0     O68886   5.736   3.888   2.758 -0.0780  0.1249  0.8012
  500MOL0     C68887   5.761   3.999   2.691 -0.6284 -0.3084 -0.5712
  500MOL0     C68888   5.680   4.029   2.584 -0.3609  0.1361 -0.7737
  500MOL0     C68889   5.704   4.139   2.498 -0.3272  0.5189 -0.3765
  500MOL0     C68890   5.592   4.183   2.407  0.0994 -0.1049  0.1538
  500MOL0     C68891   5.822   4.213   2.514 -0.4792  0.0663  0.0603
  500MOL0     C68892   5.844   4.333   2.435 -0.8287 -0.2227  0.1851
  500MOL0     O68893   5.913   4.427   2.491 -0.1677 -0.2393  0.3312
  500MOL0     C68894   5.931   4.552   2.429  0.3022  0.1016  0.5718
  500MOL0     C68895   5.849   4.655   2.465  0.3600 -0.2074  0.0697
  500MOL0     C68896   5.869   4.782   2.408 -0.5135  0.2302  0.3794
  500MOL0     C68897   5.956   4.806   2.299 -0.6928  0.2514 -0.1722
  500MOL0     O68898   5.978   4.930   2.248  0.6647 -0.0926  0.3281
  500MOL0     C68899   6.028   4.951   2.118 -0.1039 -0.5481 -0.0772
  500MOL0     C68900   5.964   5.072   2.055  0.2717 -1.2352 -0.0130
  500MOL0     C68901   6.028   5.100   1.923  0.3075 -0.3374 -0.2843
  500MOL0     C68902   6.159   5.179   1.927 -0.2514  0.3077  0.0151
  500MOL0     C68903   6.206   5.243   1.792 -0.1760  0.2328 -0.4643
  500MOL0     C68904   6.354   5.276   1.810 -0.3021  0.4842 -0.7384
  500MOL0     C68905   6.424   5.304   1.674 -0.3448  0.5438 -0.4524
  500MOL0     C68906   6.573   5.284   1.689  0.4290 -0.7692  0.5207
  500MOL0    Cl68907   6.621   5.411   1.811  0.0789 -0.3608  0.0727
  500MOL0     C68908   6.037   4.699   2.257  0.6858  0.4977 -0.0637
  500MOL0     C68909   6.022   4.579   2.320  0.1569  0.0249  0.7936
  500MOL0     O68910   5.808   4.333   2.315 -0.8608 -0.0603 -0.0544
  500MOL0     C68911   5.908   4.180   2.622 -0.6134 -0.1416 -0.4645
  500MOL0     C68912   5.880   4.081   2.714  0.4662 -0.1335  0.2922
  500MOL0     N68913   5.281   3.708   3.053 -0.1273  0.0502  0.4639
  500MOL0     N68914   5.161   3.755   3.060  0.1131  0.0043 -0.5524
  500MOL0     C68915   4.272   4.379   2.972 -0.5192 -0.3059 -0.6752
  500MOL0     C68916   4.143   4.419   2.927  0.1390  0.3908 -0.2132
  500MOL0     C68917   3.741   4.625   2.950 -0.0297 -0.1398 -0.1610
  500MOL0     C68918   3.645   4.598   3.050  0.0326  0.1107 -0.1181
  500MOL0     C68919   3.504   4.609   3.029  0.3956 -0.1353  0.6018
  500MOL0     C68920   3.461   4.652   2.907  0.4727 -0.2981  0.3958
  500MOL0     O68921   3.330   4.670   2.870  0.1498 -0.0945 -0.9170
  500MOL0     C68922   3.221   4.681   2.974 -0.1493  0.6930 -0.4186
  500MOL0     C68923   3.220   4.813   3.054  0.4552  0.0283 -0.6750
  500MOL0     C68924   3.229   4.939   2.959 -0.5165 -0.2129  0.0427
  500MOL0     C68925   3.117   4.955   2.851  0.7693  0.1031 -0.3858
  500MOL0     C68926   3.130   5.083   2.787  0.4801 -0.5707  0.2373
  500MOL0     C68927   3.142   5.197   2.743 -0.0328 -0.2891  0.1127
  500MOL0     C68928   3.551   4.677   2.800 -0.6976  0.1789  0.0765
  500MOL0     C68929   3.693   4.666   2.822  0.9257  0.4528 -1.2365
  500MOL0     C68930   3.781   4.733   2.725  0.7100  1.3727 -0.3521
  500MOL0     H68931   4.174   4.750   2.918 -1.8396 -0.0483  1.7953
  500MOL0     H68932   4.394   4.701   3.016  0.1616  1.7949 -1.8179
  500MOL0     H68933   4.496   4.606   3.180  1.2411  3.2110 -1.0722
  500MOL0     H68934   4.617   4.575   3.046  1.8197 -3.9560 -1.7727
  500MOL0     H68935   4.715   4.540   3.262 -0.8201 -0.2271  0.0687
  500MOL0     H68936   4.600   4.421   3.313  1.2199  1.2504  0.8442
  500MOL0     H68937   4.811   4.307   3.243  0.2274  0.1272  0.7657
  500MOL0     H68938   4.695   4.278   3.119 -0.3252  0.2617  1.8705
  500MOL0     H68939   4.799   4.422   2.968 -2.5075 -2.6276  0.9141
  500MOL0     H68940   4.906   4.491   3.091 -0.6210 -0.1490  0.1066
  500MOL0     H68941   4.997   4.295   3.151  1.1869  2.8830  0.1765
  500MOL0     H68942   5.044   4.320   2.986 -0.8009 -1.8035  0.1054
  500MOL0     H68943   4.848   4.108   3.076  0.5536 -0.3433  0.4303
  500MOL0     H68944   4.859   4.145   2.909  0.2908 -0.3891  0.4145
  500MOL0     H68945   5.081   4.073   3.102 -0.7082  3.1376  0.1246
  500MOL0     H68946   5.113   4.112   2.930  2.6912 -1.1624  1.9856
  500MOL0     H68947   4.926   3.893   3.027  0.0236  0.5836  1.1520
  500MOL0     H68948   4.959   3.919   2.862 -0.0881 -1.7106  0.5830
  500MOL0     H68949   5.250   3.910   2.791 -1.9415  0.1759 -0.5706
  500MOL0     H68950   5.491   3.831   2.808  1.7955  3.0347  3.8226
  500MOL0     H68951   5.497   3.656   2.829  1.4239  0.5316  0.2430
  500MOL0     H68952   5.585   3.859   3.040  3.9973  2.2824 -4.5372
  500MOL0     H68953   5.566   3.683   3.076  2.1160 -0.4848  0.5966
  500MOL0     H68954   5.783   3.705   3.036  0.3941 -1.5695 -0.3929
  500MOL0     H68955   5.723   3.645   2.879 -2.3835 -0.7894  1.7263
  500MOL0     H68956   5.783   3.938   2.950  1.0941  1.7230 -2.0101
  500MOL0     H68957   5.904   3.847   2.849  0.6725 -1.3567 -1.0673
  500MOL0     H68958   5.590   3.968   2.584  0.3285 -1.1666  2.9683
  500MOL0     H68959   5.565   4.288   2.423 -3.5706 -0.8456 -0.1654
  500MOL0     H68960   5.500   4.128   2.431  0.5458 -1.5688 -1.3329
  500MOL0     H68961   5.624   4.166   2.304 -2.6698 -0.1681 -0.7748
  500MOL0     H68962   5.774   4.649   2.544  1.1566 -2.3299  0.7255
  500MOL0     H68963   5.804   4.862   2.443  1.1584  1.0716  1.7281
  500MOL0     H68964   6.136   4.966   2.127  0.6126 -1.7150 -4.2614
  500MOL0     H68965   6.008   4.865   2.053 -2.8867  1.2302 -1.8303
  500MOL0     H68966   5.858   5.049   2.038  0.0543 -0.1753 -0.1867
  500MOL0     H68967   5.961   5.161   2.120 -1.3520 -1.1640 -0.1318
  500MOL0     H68968   5.946   5.152   1.871 -1.7536 -2.5527  0.5303
  500MOL0     H68969   6.037   5.005   1.871  1.7718 -1.2328  1.5116
  500MOL0     H68970   6.234   5.109   1.962 -0.4177 -0.0164 -0.2771
  500MOL0     H68971   6.147   5.258   2.003  0.6824  0.2299  0.2459
  500MOL0     H68972   6.192   5.174   1.709  1.0898 -0.1037 -0.4079
  500MOL0     H68973   6.149   5.336   1.782  0.6490  0.7834 -0.1133
  500MOL0     H68974   6.401   5.195   1.866  0.3605  0.2708 -1.5673
  500MOL0     H68975   6.373   5.369   1.864  2.4404 -0.3554 -0.1123
  500MOL0     H68976   6.403   5.405   1.640 -0.8899  0.8291  0.6799
  500MOL0     H68977   6.395   5.220   1.610  0.3801 -0.6879  0.7600
  500MOL0     H68978   6.619   5.302   1.591  0.7866  1.5291  1.0511
  500MOL0     H68979   6.597   5.186   1.731  0.1316 -0.8365  0.5352
  500MOL0     H68980   6.109   4.718   2.178  0.2005 -3.1476 -1.5881
  500MOL0     H68981   6.088   4.493   2.308 -1.4028 -1.1318  0.0574
  500MOL0     H68982   6.001   4.235   2.630 -0.0761 -1.2793  3.7606
  500MOL0     H68983   5.959   4.056   2.784  0.1277 -2.7328 -0.1643
  500MOL0     H68984   4.293   4.273   2.986  1.6644  0.0514 -0.7921
  500MOL0     H68985   4.069   4.346   2.896 -0.5377  1.6482 -1.6811
  500MOL0     H68986   3.661   4.558   3.150 -1.5138 -2.3619 -0.7538
  500MOL0     H68987   3.429   4.577   3.101 -0.5498 -2.0661 -1.1519
  500MOL0     H68988   3.121   4.673   2.929 -1.4888  0.7363  2.3529
  500MOL0     H68989   3.220   4.588   3.032  1.2906 -0.6805 -2.4394
  500MOL0     H68990   3.304   4.816   3.124  0.3337  3.1069 -0.5098
  500MOL0     H68991   3.127   4.813   3.112  1.0874 -1.3586  0.4146
  500MOL0     H68992   3.236   5.032   3.015 -1.9045 -0.4611  0.6723
  500MOL0     H68993   3.329   4.933   2.916 -0.6875 -0.7734 -0.2900
  500MOL0     H68994   3.018   4.955   2.897 -0.8085  4.0575 -3.2340
  500MOL0     H68995   3.118   4.871   2.782  1.8604  0.6230 -1.0242
  500MOL0     H68996   3.151   5.292   2.695 -0.9958 -0.8738 -1.2943
  500MOL0     H68997   3.503   4.693   2.704 -1.3980 -0.3960  0.3167
  500MOL0     H68998   3.855   4.657   2.696 -0.4876  0.8914 -2.3455
  500MOL0     H68999   3.729   4.767   2.635  0.6290  2.4056  0.0761
  500MOL0     H69000   3.819   4.817   2.783 -0.5298  1.6044  0.1658
  501MOL0     O69001   4.196   0.104   7.639 -0.5642  0.3210 -0.2113
  501MOL0     C69002   4.169  -0.004   7.598  1.0256 -0.5187 -0.0315
  501MOL0     O69003   4.108  -0.109   7.663  0.1571 -0.0347  0.1319
  501MOL0     C69004   4.079  -0.114   7.798 -0.3878  0.0780 -0.2872
  501MOL0     C69005   4.096  -0.240   7.858  0.4623  0.0531 -0.7179
  501MOL0     C69006   4.067  -0.258   7.991 -0.2173  0.7259  0.4047
  501MOL0     C69007   4.016  -0.148   8.065 -0.7272  0.3187  0.3480
  501MOL0     O69008   3.973  -0.154   8.193  0.9948 -0.4493  0.1929
  501MOL0     C69009   3.974  -0.283   8.265  0.4326 -0.5444 -0.4236
  501MOL0     C69010   3.888  -0.259   8.392 -0.2365 -0.5440  0.2763
  501MOL0     C69011   3.887  -0.381   8.480  0.4616 -0.0972  0.3645
  501MOL0     C69012   3.752  -0.464   8.478  0.3454 -0.1613  0.4893
  501MOL0     C69013   3.721  -0.531   8.345  0.7072 -0.4432  0.8462
  501MOL0     C69014   3.839  -0.620   8.302  0.0960 -1.2249 -0.1928
  501MOL0     C69015   3.793  -0.683   8.171  0.0684  0.1341 -0.0827
  501MOL0     C69016   3.901  -0.780   8.123  0.2301  0.1126 -0.0366
  501MOL0     N69017   4.033  -0.719   8.090 -0.5525 -0.2862  0.1630
  501MOL0     C69018   4.072  -0.686   7.961  0.1086  0.2544 -0.3984
  501MOL0     C69019   4.205  -0.656   7.977 -0.7599  0.5752  0.1553
  501MOL0     C69020   4.288  -0.601   7.866 -0.7369 -0.1399  0.5764
  501MOL0     C69021   4.409  -0.695   7.866  0.0262 -0.8875 -0.0136
  501MOL0     C69022   4.539  -0.621   7.910 -0.0890 -0.0470 -0.1348
  501MOL0     C69023   4.664  -0.688   7.856  0.3653  0.2571  0.5283
  501MOL0     O69024   4.779  -0.604   7.882  0.3832  0.0664 -0.2946
  501MOL0     C69025   4.901  -0.649   7.847 -0.6287 -0.1603 -0.3980
  501MOL0     C69026   4.928  -0.771   7.775  0.0119  0.1740  0.5350
  501MOL0     C69027   5.058  -0.815   7.740  0.2489 -0.8443  0.6061
  501MOL0     C69028   5.077  -0.947   7.674  0.6117  0.2769  0.4650
  501MOL0     C69029   5.164  -0.720   7.759 -0.3716  0.4767  0.9738
  501MOL0     C69030   5.293  -0.775   7.722  0.1672 -0.6492  0.2058
  501MOL0     O69031   5.342  -0.887   7.788  0.4411 -0.4723  0.2443
  501MOL0     C69032   5.462  -0.938   7.737 -0.2657  0.9242  0.8710
  501MOL0     C69033   5.572  -0.940   7.824 -0.4713  0.6095 -0.4404
  501MOL0     C69034   5.695  -0.995   7.779 -0.9094 -0.2955  0.1979
  501MOL0     C69035   5.713  -1.047   7.652 -0.2726  0.3497 -0.8219
  501MOL0     O69036   5.827  -1.121   7.630 -0.4087 -0.0113  0.4303
  501MOL0     C69037   5.868  -1.154   7.500 -0.1703 -0.7499  0.9852
  501MOL0     C69038   5.982  -1.247   7.506 -0.2792  0.2739 -0.7226
  501MOL0     C69039   6.101  -1.186   7.580 -0.1813  0.6556  0.1300
  501MOL0     C69040   6.210  -1.298   7.588  0.1952  0.4112  0.6423
  501MOL0     C69041   6.349  -1.262   7.650  0.0197 -0.7078 -0.5212
  501MOL0     C69042   6.415  -1.375   7.732 -0.8399 -0.8052 -0.3370
  501MOL0     C69043   6.340  -1.390   7.867 -0.0442 -0.3174  0.6484
  501MOL0     C69044   6.432  -1.480   7.952  0.2550 -0.4965  0.5164
  501MOL0    Cl69045   6.360  -1.521   8.106 -0.1531  0.2136 -0.0258
  501MOL0     C69046   5.610  -1.031   7.564  0.3294 -0.3895  0.2896
  501MOL0     C69047   5.478  -0.982   7.597  0.0457  0.0743  0.0634
  501MOL0     O69048   5.366  -0.703   7.656 -0.1306 -0.0007 -0.1377
  501MOL0     C69049   5.141  -0.599   7.822 -0.7291  0.1714 -0.7793
  501MOL0     C69050   5.015  -0.569   7.878 -1.2593 -0.8615 -0.3268
  501MOL0     N69051   4.241  -0.678   8.113  0.0592  0.2812  0.5374
  501MOL0     N69052   4.139  -0.719   8.177  0.0070 -0.2295 -0.2556
  501MOL0     C69053   3.996  -0.026   8.002  0.5309  0.0021 -0.2252
  501MOL0     C69054   4.030  -0.006   7.871 -0.5559 -0.4018 -0.2792
  501MOL0     C69055   4.189  -0.020   7.445  0.4447  0.2980  0.2979
  501MOL0     C69056   4.090  -0.095   7.378 -0.0591  0.5913  0.9910
  501MOL0     C69057   4.100  -0.118   7.238  0.0670  0.2559  0.0235
  501MOL0     C69058   4.200  -0.062   7.159  0.4166 -0.3926 -0.0013
  501MOL0     O69059   4.217  -0.094   7.029  0.2177  0.2398  0.1901
  501MOL0     C69060   4.101  -0.105   6.944 -0.1432  0.1302  0.0990
  501MOL0     C69061   4.136  -0.159   6.808 -0.2024  0.0705 -0.3725
  501MOL0     C69062   4.150  -0.314   6.816 -0.6974 -0.2845  0.3245
  501MOL0     C69063   4.199  -0.381   6.689  0.6003 -0.5092 -0.6751
  501MOL0     C69064   4.109  -0.360   6.573  0.7476 -0.0795  0.0731
  501MOL0     C69065   4.019  -0.336   6.499  0.8967 -0.3135 -0.0505
  501MOL0     C69066   4.290   0.019   7.219 -0.5861  0.7151  0.1968
  501MOL0     C69067   4.287   0.040   7.364  0.3583  0.4906 -0.0271
  501MOL0     C69068   4.385   0.125   7.429 -0.1517 -1.1379  0.6234
  501MOL0     H69069   4.140  -0.319   7.797  1.1273 -1.4733  1.6022
  501MOL0     H69070   4.071  -0.360   8.026 -0.4075  0.8888  0.9047
  501MOL0     H69071   4.078  -0.315   8.276  0.5845 -0.0338 -0.3329
  501MOL0     H69072   3.926  -0.359   8.204 -0.2886 -2.9227  2.8276
  501MOL0     H69073   3.927  -0.169   8.441 -1.9619 -0.0448  0.8070
  501MOL0     H69074   3.788  -0.229   8.358 -0.6353 -0.8002  1.1781
  501MOL0     H69075   3.970  -0.450   8.466 -0.9867 -2.5957  3.0003
  501MOL0     H69076   3.899  -0.339   8.581  0.4702 -0.4520  0.5119
  501MOL0     H69077   3.754  -0.547   8.550  2.7151 -0.8325 -0.2796
  501MOL0     H69078   3.670  -0.394   8.499  0.3268 -0.5325  1.7383
  501MOL0     H69079   3.704  -0.458   8.265 -0.1753 -1.7044 -0.1558
  501MOL0     H69080   3.628  -0.586   8.353  0.7030 -0.2332  2.7719
  501MOL0     H69081   3.925  -0.559   8.274 -2.4157  1.1312 -3.6402
  501MOL0     H69082   3.859  -0.695   8.379  2.6378 -2.6673 -2.1054
  501MOL0     H69083   3.779  -0.607   8.093 -1.4015 -0.2183 -0.1871
  501MOL0     H69084   3.705  -0.746   8.186  0.4567  0.0019  1.8917
  501MOL0     H69085   3.911  -0.870   8.185 -2.1580  1.0837  1.9187
  501MOL0     H69086   3.857  -0.819   8.031 -0.2397  0.0174  0.2263
  501MOL0     H69087   4.015  -0.678   7.869  2.9702 -3.1676 -2.8027
  501MOL0     H69088   4.302  -0.493   7.879  0.7590 -0.0097 -1.6038
  501MOL0     H69089   4.230  -0.613   7.774 -3.0195  1.0516  1.7607
  501MOL0     H69090   4.398  -0.793   7.913  3.8149 -0.3658  2.3249
  501MOL0     H69091   4.425  -0.710   7.758 -2.9538  0.5193 -0.7656
  501MOL0     H69092   4.538  -0.518   7.874  0.2120  0.2627  0.7307
  501MOL0     H69093   4.535  -0.609   8.018  0.6446 -0.9347  0.0138
  501MOL0     H69094   4.668  -0.787   7.903 -1.1914  0.7579  1.7886
  501MOL0     H69095   4.659  -0.704   7.747  0.9355 -0.4998  0.6057
  501MOL0     H69096   4.847  -0.831   7.737  0.1341  0.7467 -0.6653
  501MOL0     H69097   4.992  -0.976   7.611  2.1410 -1.6911 -0.8025
  501MOL0     H69098   5.080  -1.025   7.750 -1.8567 -0.1720  0.1798
  501MOL0     H69099   5.160  -0.947   7.603 -0.9718  1.8500 -1.5464
  501MOL0     H69100   5.550  -0.919   7.928 -1.7856 -2.3286 -0.0100
  501MOL0     H69101   5.779  -0.986   7.847 -0.4236  0.5616 -0.5023
  501MOL0     H69102   5.788  -1.202   7.442  1.8527 -1.1837 -1.6186
  501MOL0     H69103   5.905  -1.063   7.453  2.5096 -3.1252 -1.9495
  501MOL0     H69104   5.955  -1.336   7.564 -0.3079  2.2925  2.6731
  501MOL0     H69105   6.014  -1.267   7.404 -0.3041  1.9226 -1.0814
  501MOL0     H69106   6.063  -1.164   7.680 -0.1476  1.1160  0.0456
  501MOL0     H69107   6.148  -1.101   7.529  0.6803  0.5132  0.6647
  501MOL0     H69108   6.233  -1.334   7.488  3.8063  1.8651  0.8033
  501MOL0     H69109   6.170  -1.385   7.640 -0.4879 -0.1718 -0.8020
  501MOL0     H69110   6.414  -1.243   7.565 -0.6573 -1.6139 -1.2621
  501MOL0     H69111   6.342  -1.169   7.708  0.1279 -1.4131  0.6699
  501MOL0     H69112   6.518  -1.340   7.744 -0.7548 -0.0685 -2.6105
  501MOL0     H69113   6.417  -1.471   7.679  0.5267 -1.9622  1.6724
  501MOL0     H69114   6.238  -1.422   7.846  0.0287  0.7196 -1.5236
  501MOL0     H69115   6.335  -1.290   7.911  2.6034  1.1433 -2.0276
  501MOL0     H69116   6.527  -1.427   7.968 -0.5227  0.7640  1.0990
  501MOL0     H69117   6.442  -1.571   7.891  0.7551 -0.5451  0.6682
  501MOL0     H69118   5.610  -1.058   7.459 -2.4844  0.1070  0.0768
  501MOL0     H69119   5.402  -0.979   7.519 -0.5308  1.9975  0.6427
  501MOL0     H69120   5.221  -0.526   7.828 -0.7900  0.1158  3.3935
  501MOL0     H69121   5.021  -0.474   7.930  0.1497 -1.0751 -0.0639
  501MOL0     H69122   3.943   0.052   8.056  0.7326  1.1465 -1.6127
  501MOL0     H69123   4.010   0.088   7.820  0.8596 -0.3619 -0.7845
  501MOL0     H69124   4.008  -0.145   7.429  0.0542 -0.0413  0.5534
  501MOL0     H69125   4.025  -0.179   7.189 -0.4922  2.5239 -2.1955
  501MOL0     H69126   4.016  -0.156   6.990 -0.7997  1.3453  0.2524
  501MOL0     H69127   4.067  -0.003   6.928 -2.0026 -0.2746  1.2297
  501MOL0     H69128   4.220  -0.103   6.767 -0.0613  1.1289  1.2622
  501MOL0     H69129   4.055  -0.123   6.744 -1.2290  0.1917  0.9649
  501MOL0     H69130   4.213  -0.339   6.902 -1.2893 -1.5473  0.4217
  501MOL0     H69131   4.055  -0.360   6.846 -0.2759 -0.7851  0.9161
  501MOL0     H69132   4.205  -0.487   6.713 -0.2897 -0.4185 -0.0359
  501MOL0     H69133   4.297  -0.339   6.663  0.8861 -0.2965  0.6862
  501MOL0     H69134   3.945  -0.303   6.429  1.3050 -2.4043 -1.5733
  501MOL0     H69135   4.367   0.063   7.155 -0.4061  1.0243  0.6226
  501MOL0     H69136   4.427   0.071   7.514  2.3921 -0.1842  0.0766
  501MOL0     H69137   4.469   0.151   7.363 -0.7904 -0.0581  0.2057
  501MOL0     H69138   4.353   0.223   7.468 -0.3696 -0.5737 -0.9081
  502MOL0     O69139  11.311   4.303   0.455 -0.6030  0.2129 -1.2187
  502MOL0     C69140  11.278   4.366   0.553  0.2454  0.1083  0.3459
  502MOL0     O69141  11.353   4.446   0.639 -0.8994 -0.3591 -0.2824
  502MOL0     C69142  11.484   4.487   0.606 -0.4305 -0.4032  0.6265
  502MOL0     C69143  11.571   4.398   0.554 -0.3898 -0.2283  0.5589
  502MOL0     C69144  11.698   4.447   0.522 -0.2610 -0.8013  0.2782
  502MOL0     C69145  11.738   4.583   0.536  0.6502  0.0338 -0.7871
  502MOL0     O69146  11.867   4.636   0.515 -0.1743  0.7116 -0.1360
  502MOL0     C69147  11.970   4.553   0.464 -0.1691 -0.0401 -0.6318
  502MOL0     C69148  12.103   4.619   0.435  0.3355  0.1603 -0.1371
  502MOL0     C69149  12.082   4.745   0.353 -0.4535 -1.1198  0.6358
  502MOL0     C69150  12.195   4.848   0.360 -0.1567 -0.4553 -0.9100
  502MOL0     C69151  12.310   4.831   0.261 -0.0398  0.0940 -0.8310
  502MOL0     C69152  12.409   4.944   0.264  0.1292 -0.1532 -0.0059
  502MOL0     C69153  12.523   4.941   0.162 -0.7106 -0.3541 -0.0889
  502MOL0     C69154  12.637   4.846   0.191 -0.4600  0.1052  0.0578
  502MOL0     N69155  12.725   4.831   0.077 -0.2704  0.0240  0.2055
  502MOL0     C69156  12.745   4.717   0.001  0.2084 -0.8723  0.5562
  502MOL0     C69157  12.861   4.739  -0.064  0.3143 -0.0347 -1.1724
  502MOL0     C69158  12.930   4.648  -0.157  0.0575 -0.1953  0.3865
  502MOL0     C69159  13.081   4.631  -0.136 -0.0489 -0.1635 -1.1615
  502MOL0     C69160  13.138   4.489  -0.134 -0.2673 -0.4099  0.0105
  502MOL0     C69161  13.290   4.465  -0.111 -1.0774 -0.1076  0.7200
  502MOL0     O69162  13.334   4.339  -0.159 -0.0358  0.0412 -0.0825
  502MOL0     C69163  13.467   4.317  -0.138  0.7078 -0.4567  0.8730
  502MOL0     C69164  13.512   4.246  -0.031  0.6435 -0.8198  0.4493
  502MOL0     C69165  13.646   4.211  -0.008 -0.5704  0.5221 -0.1962
  502MOL0     C69166  13.667   4.129   0.122  0.2171 -0.4754 -0.0446
  502MOL0     C69167  13.747   4.264  -0.102  0.0668  0.1900 -0.9173
  502MOL0     C69168  13.892   4.226  -0.084 -0.8093  0.1200  1.0174
  502MOL0     O69169  13.969   4.235  -0.200  0.5003 -0.4337 -0.3206
  502MOL0     C69170  14.097   4.208  -0.212  0.1145 -0.0048  0.3378
  502MOL0     C69171  14.168   4.271  -0.323  0.7667  1.1205 -0.6107
  502MOL0     C69172  14.302   4.243  -0.338  0.2589  0.1411 -0.5964
  502MOL0     C69173  14.368   4.150  -0.262  0.0098  1.0330 -0.7357
  502MOL0     O69174  14.496   4.116  -0.296 -0.2194  0.9885 -0.1116
  502MOL0     C69175  14.593   4.106  -0.190 -0.4240  0.6946  0.9957
  502MOL0     C69176  14.735   4.098  -0.249 -0.4892 -0.0560 -0.3162
  502MOL0     C69177  14.844   4.084  -0.138  0.0521 -0.4826  0.2142
  502MOL0     C69178  14.974   4.070  -0.216 -0.3115 -0.1062  0.6356
  502MOL0     C69179  15.089   4.050  -0.114 -0.0652 -0.4788  0.7614
  502MOL0     C69180  15.080   3.919  -0.026  0.6692 -0.0739 -0.1397
  502MOL0     C69181  15.204   3.903   0.060 -0.6221 -0.2971  0.0584
  502MOL0     C69182  15.179   3.779   0.145 -0.0705  0.1107 -0.0092
  502MOL0    Cl69183  15.043   3.818   0.249  0.2190 -0.0060 -0.1672
  502MOL0     C69184  14.302   4.077  -0.162  0.8446  0.0774 -0.3070
  502MOL0     C69185  14.168   4.107  -0.136 -0.5303 -0.2122 -0.3939
  502MOL0     O69186  13.939   4.194   0.023 -0.3476 -0.0997 -0.1612
  502MOL0     C69187  13.712   4.335  -0.215  0.0344  0.2188  0.0601
  502MOL0     C69188  13.572   4.361  -0.229  1.4444 -0.0847 -0.3711
  502MOL0     N69189  12.914   4.860  -0.017 -0.2703 -0.0430 -0.4383
  502MOL0     N69190  12.831   4.912   0.065 -0.0472  0.4754 -0.4389
  502MOL0     C69191  11.648   4.662   0.600  0.3545  0.6703 -0.2574
  502MOL0     C69192  11.518   4.619   0.638 -0.1999 -0.3458  1.2771
  502MOL0     C69193  11.140   4.365   0.583 -0.4652 -0.7151  0.6813
  502MOL0     C69194  11.080   4.494   0.595  0.0527  0.3296  0.4607
  502MOL0     C69195  10.937   4.512   0.623  0.5596 -0.4704 -0.3208
  502MOL0     C69196  10.862   4.395   0.659 -0.2773 -0.2107  0.2824
  502MOL0     O69197  10.730   4.396   0.708 -0.0632 -0.1261  0.2269
  502MOL0     C69198  10.658   4.517   0.717 -0.2135  0.0609  0.0376
  502MOL0     C69199  10.516   4.476   0.766  0.3331  0.1826  0.3059
  502MOL0     C69200  10.417   4.588   0.813 -0.5374  0.5895 -0.7292
  502MOL0     C69201  10.426   4.710   0.720 -0.4614 -0.0624 -0.3607
  502MOL0     C69202  10.312   4.809   0.721 -0.1996  0.4635 -0.1006
  502MOL0     C69203  10.217   4.881   0.736  0.5382  0.3698  0.3665
  502MOL0     C69204  10.930   4.278   0.649 -0.8599  0.0726  0.9343
  502MOL0     C69205  11.065   4.254   0.611 -0.5204 -0.5976 -0.4344
  502MOL0     C69206  11.126   4.123   0.608 -0.6499 -0.6454 -0.0477
  502MOL0     H69207  11.556   4.292   0.539 -0.7589 -0.3939  1.9634
  502MOL0     H69208  11.773   4.378   0.485  0.7416  1.1830 -1.6745
  502MOL0     H69209  11.939   4.495   0.376 -0.0861 -2.8137  1.0440
  502MOL0     H69210  11.990   4.485   0.547  0.1493  1.6563  0.7408
  502MOL0     H69211  12.153   4.651   0.527  0.6058  1.7761 -0.8109
  502MOL0     H69212  12.173   4.549   0.388  0.5818 -2.1065  3.2632
  502MOL0     H69213  12.052   4.720   0.250 -0.8308 -1.2713  0.7808
  502MOL0     H69214  11.995   4.798   0.393  0.0664 -0.6100  1.0988
  502MOL0     H69215  12.144   4.944   0.353 -0.1561 -0.3383  0.4419
  502MOL0     H69216  12.241   4.844   0.459 -0.7364 -2.8987 -0.6778
  502MOL0     H69217  12.269   4.823   0.160  0.5440  1.1596 -1.1701
  502MOL0     H69218  12.364   4.739   0.284  0.9826 -0.1886 -3.8810
  502MOL0     H69219  12.351   5.036   0.249 -0.6442 -0.5287  0.5550
  502MOL0     H69220  12.454   4.967   0.361  0.9043  2.2472 -0.8542
  502MOL0     H69221  12.576   5.037   0.161 -2.4867  0.7370 -2.8523
  502MOL0     H69222  12.478   4.921   0.064 -2.0778 -0.5850  0.5553
  502MOL0     H69223  12.689   4.887   0.278 -2.6325 -0.9749  1.9809
  502MOL0     H69224  12.607   4.747   0.227  1.7261 -0.8225 -0.5118
  502MOL0     H69225  12.675   4.634  -0.001 -2.4187  1.0521  3.6179
  502MOL0     H69226  12.912   4.674  -0.262 -0.3495 -1.2283  0.1867
  502MOL0     H69227  12.884   4.551  -0.136 -0.3380 -0.9649 -3.3096
  502MOL0     H69228  13.137   4.692  -0.207 -1.8600  4.9954  1.3377
  502MOL0     H69229  13.122   4.677  -0.045  2.3472  0.2734 -2.3683
  502MOL0     H69230  13.095   4.437  -0.048  0.0725  1.3484  1.3205
  502MOL0     H69231  13.108   4.452  -0.232 -0.1030  1.4537 -0.7988
  502MOL0     H69232  13.342   4.552  -0.152 -2.3614  0.5172  0.3760
  502MOL0     H69233  13.308   4.471  -0.003  1.3433  4.3308  0.3062
  502MOL0     H69234  13.436   4.200   0.030 -1.9417 -0.2299 -2.0944
  502MOL0     H69235  13.719   4.188   0.198  1.0677 -2.1373  0.6993
  502MOL0     H69236  13.708   4.029   0.109 -0.9649 -0.9824  0.0462
  502MOL0     H69237  13.569   4.102   0.163  0.9508 -1.0757  1.3579
  502MOL0     H69238  14.110   4.340  -0.383 -1.6364  0.8200  1.2386
  502MOL0     H69239  14.358   4.291  -0.418  1.3495 -1.7046 -1.0155
  502MOL0     H69240  14.589   4.185  -0.114  0.2146  0.9170  0.7992
  502MOL0     H69241  14.568   4.010  -0.143 -0.0534 -0.4585 -1.0629
  502MOL0     H69242  14.739   4.018  -0.323 -0.0136  0.7638 -1.1994
  502MOL0     H69243  14.752   4.187  -0.310 -0.1339 -1.0385 -1.6952
  502MOL0     H69244  14.823   3.993  -0.080  1.2108  0.4106  2.1488
  502MOL0     H69245  14.845   4.175  -0.077 -1.2477 -0.3028  0.0047
  502MOL0     H69246  14.997   4.161  -0.272 -3.0815 -0.5718 -1.4235
  502MOL0     H69247  14.966   3.983  -0.281  1.3196 -0.3719  0.7502
  502MOL0     H69248  15.174   4.053  -0.184 -0.3644 -1.1896  0.3536
  502MOL0     H69249  15.089   4.147  -0.064  1.8542  0.8071 -1.4637
  502MOL0     H69250  15.065   3.824  -0.078  0.9469 -2.1646  3.2695
  502MOL0     H69251  14.988   3.940   0.029 -2.1131 -0.1019 -4.3575
  502MOL0     H69252  15.204   3.996   0.118 -3.1904  0.2511 -0.6694
  502MOL0     H69253  15.295   3.886   0.002 -0.9463 -1.5233 -0.1183
  502MOL0     H69254  15.270   3.757   0.202  0.0710  0.0660 -0.2500
  502MOL0     H69255  15.148   3.694   0.084 -1.3374  0.2770  0.3859
  502MOL0     H69256  14.344   3.998  -0.100  0.0230  1.1850  1.7347
  502MOL0     H69257  14.111   4.047  -0.066 -0.0232 -0.5503 -0.2661
  502MOL0     H69258  13.782   4.391  -0.276 -1.8218  0.3369 -2.0878
  502MOL0     H69259  13.544   4.425  -0.312 -1.3560  0.9189  1.2061
  502MOL0     H69260  11.681   4.764   0.616  3.0325 -0.3726  1.4032
  502MOL0     H69261  11.461   4.691   0.697  1.0045  1.9103 -0.1438
  502MOL0     H69262  11.144   4.580   0.587  1.4383 -0.7818 -1.0034
  502MOL0     H69263  10.892   4.608   0.646 -0.0163 -0.9297  0.4916
  502MOL0     H69264  10.713   4.589   0.778 -1.0715  0.9573 -0.2103
  502MOL0     H69265  10.662   4.563   0.618  2.0659 -0.1060  0.0117
  502MOL0     H69266  10.539   4.404   0.844  1.2383 -0.5295 -0.5935
  502MOL0     H69267  10.457   4.422   0.692  0.2697  2.2358 -1.2345
  502MOL0     H69268  10.316   4.545   0.811 -0.3484 -0.3600  3.0665
  502MOL0     H69269  10.439   4.619   0.915 -0.0726  2.7264 -1.4176
  502MOL0     H69270  10.447   4.672   0.620  2.7002  1.1667 -0.2572
  502MOL0     H69271  10.516   4.760   0.757  0.3006 -1.3925 -0.3507
  502MOL0     H69272  10.144   4.960   0.741  0.3095  0.3510 -1.7314
  502MOL0     H69273  10.853   4.202   0.651 -0.4909 -0.3558 -0.4167
  502MOL0     H69274  11.048   4.064   0.658 -1.6523 -0.2783 -1.1248
  502MOL0     H69275  11.147   4.078   0.511 -1.2569 -0.0866 -0.4396
  502MOL0     H69276  11.217   4.123   0.668 -2.3625  2.6443  2.9457
  503MOL0     O69277   2.645  10.317  10.967  0.8439  0.3738  0.1624
  503MOL0     C69278   2.685  10.230  11.041  0.5266 -1.6000  0.2951
  503MOL0     O69279   2.820  10.215  11.082  0.0570  0.1357 -0.7610
  503MOL0     C69280   2.913  10.299  11.024  0.2361 -0.7509 -0.6626
  503MOL0     C69281   3.027  10.246  10.953  0.2083 -0.2449 -0.1283
  503MOL0     C69282   3.122  10.339  10.901  0.5372  0.5384 -0.7817
  503MOL0     C69283   3.108  10.476  10.918  0.0365  0.1740  0.0215
  503MOL0     O69284   3.199  10.547  10.845 -0.2625  0.3429 -0.8023
  503MOL0     C69285   3.241  10.666  10.912 -0.4340  0.4846 -0.5313
  503MOL0     C69286   3.385  10.704  10.890 -0.6672  0.3552  0.0694
  503MOL0     C69287   3.479  10.600  10.961 -0.2318  0.0626 -0.2366
  503MOL0     C69288   3.627  10.613  10.922  0.3357 -0.4215 -0.3163
  503MOL0     C69289   3.699  10.741  10.968  0.6480 -0.6053 -0.2364
  503MOL0     C69290   3.742  10.742  11.113 -0.0609  0.0767 -0.2591
  503MOL0     C69291   3.852  10.635  11.127 -0.0041  0.3141  0.4268
  503MOL0     C69292   3.946  10.678  11.246  0.0382 -0.0457 -0.1437
  503MOL0     N69293   4.031  10.563  11.278  0.3258 -0.6756  0.5129
  503MOL0     C69294   3.989  10.445  11.329  0.0738 -0.2490 -0.2889
  503MOL0     C69295   4.098  10.364  11.345 -0.5644 -0.3164 -0.1008
  503MOL0     C69296   4.109  10.218  11.380 -0.1234  0.5731 -0.6001
  503MOL0     C69297   4.244  10.147  11.353  0.4404  0.6337 -0.6638
  503MOL0     C69298   4.271  10.130  11.201  0.6548  0.0344  0.5618
  503MOL0     C69299   4.424  10.126  11.165  0.2893 -0.5494  0.4950
  503MOL0     O69300   4.492  10.024  11.244 -0.1118 -0.3947  0.3377
  503MOL0     C69301   4.592   9.957  11.183  0.3443 -0.5635 -0.1578
  503MOL0     C69302   4.565   9.879  11.071 -0.3962 -0.2928  0.1443
  503MOL0     C69303   4.669   9.820  10.997 -0.0364 -1.0519 -0.3682
  503MOL0     C69304   4.632   9.720  10.892 -0.1387 -0.4046 -1.1847
  503MOL0     C69305   4.810   9.856  11.030  0.4139  0.1641  0.3234
  503MOL0     C69306   4.924   9.804  10.957 -0.3343 -0.0552  0.8796
  503MOL0     O69307   5.042   9.868  10.972 -0.6593  0.7764 -0.0593
  503MOL0     C69308   5.159   9.832  10.901  1.7594 -0.1075  0.9387
  503MOL0     C69309   5.178   9.750  10.789 -0.5261 -1.0287  0.5746
  503MOL0     C69310   5.301   9.741  10.729 -0.0590 -0.0716  0.6176
  503MOL0     C69311   5.412   9.789  10.799 -0.0716  0.9587  0.2206
  503MOL0     O69312   5.537   9.776  10.745  0.7403 -0.0003  0.0430
  503MOL0     C69313   5.564   9.673  10.646  0.3326  0.8335 -0.9483
  503MOL0     C69314   5.523   9.527  10.685  0.1323  0.2830 -0.1012
  503MOL0     C69315   5.611   9.413  10.627  0.6176  0.6667 -0.5639
  503MOL0     C69316   5.621   9.430  10.476 -1.4190 -0.7791  0.5571
  503MOL0     C69317   5.663   9.291  10.412 -0.1235 -0.3282  0.3151
  503MOL0     C69318   5.687   9.300  10.257 -0.1059  0.3578 -0.2011
  503MOL0     C69319   5.568   9.350  10.177 -0.0252 -0.0044  0.0065
  503MOL0     C69320   5.601   9.357  10.029  0.0873  0.0653  0.6375
  503MOL0    Cl69321   5.704   9.207   9.990 -0.1925 -0.4303  0.0362
  503MOL0     C69322   5.400   9.868  10.917 -0.0785  1.3880  0.4376
  503MOL0     C69323   5.275   9.882  10.970  0.3702  0.7670 -0.5734
  503MOL0     O69324   4.910   9.697  10.897  0.0640  0.3410 -0.5697
  503MOL0     C69325   4.836   9.923  11.146  0.3440 -0.8282 -0.1308
  503MOL0     C69326   4.728   9.975  11.224 -0.0794  0.3426 -0.3547
  503MOL0     N69327   4.205  10.441  11.297 -1.4453 -0.0641  0.3803
  503MOL0     N69328   4.167  10.558  11.267 -0.1433 -0.8266 -0.0512
  503MOL0     C69329   2.994  10.527  10.982 -0.2415  0.6993  0.3001
  503MOL0     C69330   2.896  10.440  11.035 -1.0182  0.5168 -0.6307
  503MOL0     C69331   2.592  10.125  11.100  1.0754 -0.7705 -0.5313
  503MOL0     C69332   2.650  10.025  11.185 -0.1388  0.1983 -0.0507
  503MOL0     C69333   2.561   9.941  11.256 -0.0570  0.0835 -0.5645
  503MOL0     C69334   2.428   9.946  11.240  0.2459 -0.2100 -0.6463
  503MOL0     O69335   2.357   9.857  11.307 -0.2945  0.0176 -0.1203
  503MOL0     C69336   2.233   9.885  11.368 -0.1760  0.6290 -0.2526
  503MOL0     C69337   2.174   9.752  11.415  0.1997 -0.2289  0.0308
  503MOL0     C69338   2.046   9.774  11.489  0.0884 -0.0361  0.1843
  503MOL0     C69339   1.958   9.654  11.475 -0.3459  0.7353 -0.7933
  503MOL0     C69340   1.852   9.656  11.575 -0.6720 -0.2467 -0.0479
  503MOL0     C69341   1.753   9.648  11.648 -0.5017  0.4528  0.3169
  503MOL0     C69342   2.364  10.046  11.162 -0.2346  0.0599  0.0248
  503MOL0     C69343   2.448  10.136  11.089  0.1584 -0.4683 -0.6432
  503MOL0     C69344   2.384  10.231  11.002 -0.7219 -0.3246  0.6354
  503MOL0     H69345   3.044  10.141  10.934 -1.3716 -0.5320 -0.1060
  503MOL0     H69346   3.197  10.294  10.837  0.2948 -0.7162 -0.2189
  503MOL0     H69347   3.221  10.660  11.019 -1.4014 -0.3840 -0.7453
  503MOL0     H69348   3.178  10.746  10.873  2.5239  2.5774 -1.3990
  503MOL0     H69349   3.398  10.695  10.782 -1.3221  1.8448 -0.1480
  503MOL0     H69350   3.404  10.807  10.921 -1.1131  0.5054 -0.1462
  503MOL0     H69351   3.465  10.605  11.069  0.5943 -0.2799 -0.1099
  503MOL0     H69352   3.444  10.506  10.918 -0.0578 -0.5562  0.9299
  503MOL0     H69353   3.676  10.523  10.959  1.5414 -0.5391 -2.1030
  503MOL0     H69354   3.634  10.606  10.813 -1.6424 -0.1753 -0.4949
  503MOL0     H69355   3.630  10.821  10.944  1.4536  0.0237 -0.5012
  503MOL0     H69356   3.790  10.754  10.908  0.0539  0.8544 -0.8625
  503MOL0     H69357   3.784  10.843  11.125 -1.9238  1.1966 -2.3220
  503MOL0     H69358   3.650  10.733  11.171 -1.1299 -0.4430 -1.9540
  503MOL0     H69359   3.909  10.641  11.034  2.4708  0.7278  1.8895
  503MOL0     H69360   3.809  10.534  11.130 -0.2802  0.4039 -0.3467
  503MOL0     H69361   4.003  10.769  11.225 -1.7782  1.1620 -0.0482
  503MOL0     H69362   3.888  10.700  11.337  2.8550 -1.1615  2.0939
  503MOL0     H69363   3.888  10.425  11.366 -0.0224  0.9234  0.1173
  503MOL0     H69364   4.039  10.166  11.315  2.0537 -0.3760 -2.3110
  503MOL0     H69365   4.104  10.205  11.489  2.3757  0.3391 -0.4538
  503MOL0     H69366   4.324  10.209  11.394  1.6498  0.5255 -2.7081
  503MOL0     H69367   4.252  10.047  11.397  2.3606  0.9631 -0.1724
  503MOL0     H69368   4.219  10.046  11.155  1.5976  0.5731 -1.6398
  503MOL0     H69369   4.226  10.221  11.159  0.3653 -0.7453 -0.8526
  503MOL0     H69370   4.436  10.117  11.056 -0.0404  2.7523  0.0796
  503MOL0     H69371   4.464  10.225  11.188  1.6755 -1.3272  1.5999
  503MOL0     H69372   4.462   9.858  11.046 -0.3866  0.7004 -0.7746
  503MOL0     H69373   4.673   9.624  10.925 -2.8761 -1.3270 -0.1510
  503MOL0     H69374   4.668   9.741  10.791 -2.0679 -0.4346 -1.9243
  503MOL0     H69375   4.523   9.711  10.885 -0.1205 -1.7549 -0.1814
  503MOL0     H69376   5.094   9.709  10.735  0.2014  1.6073 -2.8956
  503MOL0     H69377   5.307   9.698  10.629  1.6219  2.4221 -0.4707
  503MOL0     H69378   5.503   9.697  10.558 -0.1146 -1.8981 -1.4743
  503MOL0     H69379   5.671   9.687  10.629  0.9882 -1.1347  1.0903
  503MOL0     H69380   5.537   9.502  10.790  1.5899  0.3762 -0.2472
  503MOL0     H69381   5.422   9.498  10.657 -0.5313 -0.4986  2.8529
  503MOL0     H69382   5.561   9.318  10.647  0.4529  0.2595 -2.6382
  503MOL0     H69383   5.713   9.402  10.665  0.4035  3.0766  0.8419
  503MOL0     H69384   5.702   9.500  10.453 -0.8549 -1.1213  1.4389
  503MOL0     H69385   5.523   9.456  10.434  0.0333  0.5927 -2.2537
  503MOL0     H69386   5.757   9.264  10.460  0.4431  0.7981 -0.1199
  503MOL0     H69387   5.586   9.215  10.429  0.1672 -0.7057 -0.0261
  503MOL0     H69388   5.713   9.195  10.240 -1.1545  0.2126 -0.9694
  503MOL0     H69389   5.771   9.368  10.240 -1.8682  2.1342 -2.3676
  503MOL0     H69390   5.545   9.453  10.206  1.0478  0.0431  0.7462
  503MOL0     H69391   5.476   9.293  10.188 -0.8508  1.3754  0.4876
  503MOL0     H69392   5.659   9.448  10.012  0.5517 -0.3523 -0.0534
  503MOL0     H69393   5.514   9.361   9.962  0.7153 -3.0210 -0.5414
  503MOL0     H69394   5.497   9.891  10.961  0.1873 -1.2131  1.4046
  503MOL0     H69395   5.252   9.936  11.061  0.0748  0.2417 -0.3374
  503MOL0     H69396   4.938   9.942  11.178  0.7716  0.3893 -2.0368
  503MOL0     H69397   4.739  10.027  11.319 -2.6499  0.0771  0.1802
  503MOL0     H69398   2.972  10.632  10.999  1.3520  1.0672  0.2239
  503MOL0     H69399   2.809  10.478  11.088 -0.1626  1.4733  0.1402
  503MOL0     H69400   2.758  10.020  11.199  0.2223  1.1058 -2.0671
  503MOL0     H69401   2.591   9.874  11.336 -0.0079 -2.3282 -2.4597
  503MOL0     H69402   2.243   9.955  11.451 -1.2437 -1.2295  1.5152
  503MOL0     H69403   2.159   9.925  11.298 -2.0932 -0.8541  0.8268
  503MOL0     H69404   2.247   9.691  11.469  0.9848  0.0118 -0.7434
  503MOL0     H69405   2.140   9.694  11.330 -1.4677  1.9873 -0.9133
  503MOL0     H69406   2.070   9.801  11.592  3.3179 -1.4721 -0.0598
  503MOL0     H69407   2.000   9.862  11.444 -0.0093  0.4729  1.2512
  503MOL0     H69408   2.021   9.567  11.493  0.8736  1.6437 -0.5041
  503MOL0     H69409   1.930   9.642  11.370  1.7158 -1.6645 -1.1411
  503MOL0     H69410   1.665   9.620  11.703 -1.2943 -0.1580 -1.1943
  503MOL0     H69411   2.257  10.052  11.147 -0.4665 -1.8469  0.6573
  503MOL0     H69412   2.277  10.212  10.993 -0.7595 -0.5823  1.5745
  503MOL0     H69413   2.398  10.332  11.041  0.1209 -0.0036 -0.4425
  503MOL0     H69414   2.431  10.221  10.904  0.8983 -1.0605  1.4600
  504MOL0     O69415   4.428   7.742   3.594  1.0073 -0.1617 -0.4413
  504MOL0     C69416   4.332   7.687   3.546  0.2782  0.1495  0.4263
  504MOL0     O69417   4.331   7.567   3.480 -0.1015  0.5619  0.4320
  504MOL0     C69418   4.454   7.509   3.479  0.2267 -0.2131 -0.1878
  504MOL0     C69419   4.478   7.392   3.552 -0.6511  0.7068  0.3953
  504MOL0     C69420   4.605   7.344   3.556 -0.5202 -0.7559  0.8845
  504MOL0     C69421   4.707   7.389   3.471  1.0161  0.0785  0.1640
  504MOL0     O69422   4.836   7.345   3.480  0.3923  0.4022  0.6119
  504MOL0     C69423   4.885   7.346   3.608 -0.4305 -0.1768 -0.1143
  504MOL0     C69424   5.027   7.290   3.589  0.5204 -0.3192 -0.6440
  504MOL0     C69425   5.118   7.380   3.518  0.1630 -0.0330 -0.3556
  504MOL0     C69426   5.226   7.291   3.461 -0.6683 -0.0075 -0.3196
  504MOL0     C69427   5.295   7.373   3.348  0.0016 -0.1226 -0.6448
  504MOL0     C69428   5.394   7.288   3.269 -0.3822  0.0360  0.4492
  504MOL0     C69429   5.450   7.388   3.157 -0.7909 -0.4873 -0.8965
  504MOL0     C69430   5.575   7.339   3.091  0.3377  0.0054 -0.7783
  504MOL0     N69431   5.545   7.224   3.010  0.2121  0.3130  0.0668
  504MOL0     C69432   5.600   7.095   3.030  0.2826  0.2374 -0.0246
  504MOL0     C69433   5.556   7.030   2.916  0.3646 -0.3390 -0.2332
  504MOL0     C69434   5.580   6.895   2.878  0.1742  0.0882 -1.0253
  504MOL0     C69435   5.731   6.867   2.892 -0.7366  0.0534 -0.4987
  504MOL0     C69436   5.767   6.724   2.853 -0.0807  0.2744 -0.0452
  504MOL0     C69437   5.909   6.683   2.893 -0.0461  0.1378  0.3481
  504MOL0     O69438   5.931   6.540   2.868  0.2780 -0.8194 -0.0889
  504MOL0     C69439   6.054   6.495   2.854 -0.1438  0.6017  1.0561
  504MOL0     C69440   6.067   6.365   2.797 -0.8341 -0.5335  0.2996
  504MOL0     C69441   6.195   6.315   2.770  0.0041  1.2397  0.7029
  504MOL0     C69442   6.195   6.178   2.693  0.4803 -0.7947 -0.2578
  504MOL0     C69443   6.310   6.379   2.813 -0.1490 -0.7299  0.0403
  504MOL0     C69444   6.448   6.321   2.810  0.1451  0.3218  0.8466
  504MOL0     O69445   6.527   6.355   2.924  0.3727  0.1199  0.4474
  504MOL0     C69446   6.661   6.331   2.898  0.3189  0.1093 -0.8196
  504MOL0     C69447   6.741   6.414   2.819 -0.1246 -0.5292  0.2370
  504MOL0     C69448   6.879   6.388   2.798  0.1035 -0.4701 -0.2934
  504MOL0     C69449   6.932   6.268   2.847 -0.0858  0.0963 -0.4575
  504MOL0     O69450   7.060   6.225   2.810 -0.4150 -0.6167 -0.2012
  504MOL0     C69451   7.164   6.268   2.895  0.1331 -0.8515  0.0714
  504MOL0     C69452   7.298   6.222   2.844  0.6793 -0.0406  0.5323
  504MOL0     C69453   7.331   6.260   2.700 -0.1730 -0.1756  0.3194
  504MOL0     C69454   7.446   6.172   2.657  0.4708  0.7630 -0.2780
  504MOL0     C69455   7.479   6.173   2.509  0.1362  0.3766  0.5073
  504MOL0     C69456   7.606   6.084   2.487  0.0203 -0.3494 -0.2533
  504MOL0     C69457   7.614   6.051   2.330  0.2370 -0.0070  0.1149
  504MOL0     C69458   7.537   5.934   2.285  0.0628  0.4369 -0.1441
  504MOL0    Cl69459   7.512   5.950   2.116 -0.0297  0.0923 -0.1778
  504MOL0     C69460   6.844   6.185   2.926 -0.9159  0.1401 -1.2230
  504MOL0     C69461   6.711   6.210   2.941  0.2688 -0.8818 -0.4880
  504MOL0     O69462   6.481   6.259   2.714 -0.0298  0.1008  0.2867
  504MOL0     C69463   6.297   6.510   2.869 -0.1757 -0.8965 -0.3647
  504MOL0     C69464   6.172   6.562   2.889 -0.6060 -0.5993 -0.2510
  504MOL0     N69465   5.491   7.128   2.832 -1.0421  0.0208  0.0852
  504MOL0     N69466   5.491   7.241   2.887 -0.0957 -0.6045 -0.5875
  504MOL0     C69467   4.684   7.503   3.401 -0.1001 -0.7470 -0.3455
  504MOL0     C69468   4.562   7.561   3.404  0.4263  0.2210  0.2359
  504MOL0     C69469   4.200   7.750   3.552  0.1710 -0.0139  0.2823
  504MOL0     C69470   4.139   7.787   3.429  0.4224 -1.0497  0.3964
  504MOL0     C69471   4.012   7.847   3.423  0.6477 -0.5984  0.0022
  504MOL0     C69472   3.937   7.870   3.540 -0.1701 -0.2012 -0.5683
  504MOL0     O69473   3.812   7.929   3.544  0.5425 -0.2254 -0.3062
  504MOL0     C69474   3.747   7.953   3.421 -0.0484 -0.7396  0.4620
  504MOL0     C69475   3.606   8.004   3.455  0.5068 -0.3934 -0.1444
  504MOL0     C69476   3.600   8.116   3.558 -0.4838  0.2689  0.8960
  504MOL0     C69477   3.467   8.191   3.584 -0.2877  0.1961 -0.5144
  504MOL0     C69478   3.365   8.121   3.667 -0.0454 -0.1838 -0.3938
  504MOL0     C69479   3.286   8.074   3.748 -0.1694  0.3565 -0.1896
  504MOL0     C69480   3.992   7.825   3.661  0.4984 -0.4279  0.2200
  504MOL0     C69481   4.124   7.770   3.666 -0.0917 -0.3806  0.4804
  504MOL0     C69482   4.174   7.744   3.806 -0.4062  0.7678 -0.1726
  504MOL0     H69483   4.400   7.341   3.609 -1.7193  1.6121 -0.2087
  504MOL0     H69484   4.620   7.253   3.613  0.1166 -0.2684  1.5029
  504MOL0     H69485   4.825   7.278   3.669 -0.6106 -0.3016 -0.4255
  504MOL0     H69486   4.884   7.451   3.640  1.5577 -0.3635  0.7370
  504MOL0     H69487   5.065   7.257   3.686 -4.5152 -1.2461  1.3232
  504MOL0     H69488   5.007   7.198   3.532  0.7049 -1.0977  0.5154
  504MOL0     H69489   5.062   7.435   3.442  1.9951  0.8340 -1.1365
  504MOL0     H69490   5.157   7.459   3.582  0.1197 -0.9497  0.8402
  504MOL0     H69491   5.301   7.268   3.536 -2.6234  0.6237  1.9559
  504MOL0     H69492   5.191   7.196   3.420  2.1272 -0.7386 -1.2237
  504MOL0     H69493   5.352   7.453   3.395  3.5141 -1.3651 -2.3845
  504MOL0     H69494   5.215   7.414   3.285 -0.3111  1.0314  0.4604
  504MOL0     H69495   5.477   7.253   3.331 -0.2076 -0.6915 -0.1791
  504MOL0     H69496   5.340   7.208   3.218  0.4868 -0.9233  1.0094
  504MOL0     H69497   5.469   7.486   3.202  0.7289 -0.9875 -0.3870
  504MOL0     H69498   5.367   7.404   3.088 -0.7268 -0.6975 -1.0239
  504MOL0     H69499   5.608   7.421   3.027 -2.1409 -0.0038 -2.2109
  504MOL0     H69500   5.661   7.321   3.156  3.2578  1.0285 -4.0583
  504MOL0     H69501   5.656   7.059   3.115  1.7435 -2.6764 -2.0436
  504MOL0     H69502   5.559   6.874   2.773  1.8523 -1.5079 -1.0935
  504MOL0     H69503   5.514   6.829   2.936 -1.3552 -2.4932 -5.2320
  504MOL0     H69504   5.795   6.940   2.841 -2.0869  0.6575 -1.4002
  504MOL0     H69505   5.756   6.881   2.998  2.6940  1.2100 -1.3197
  504MOL0     H69506   5.700   6.658   2.909  1.2037 -1.0270  0.0350
  504MOL0     H69507   5.747   6.714   2.745 -3.5202 -1.2171  0.5834
  504MOL0     H69508   5.984   6.744   2.842 -1.2647  0.6388 -0.8958
  504MOL0     H69509   5.911   6.697   3.001 -0.9601  3.2200  0.0723
  504MOL0     H69510   5.973   6.316   2.776 -1.4036  1.1113 -1.3431
  504MOL0     H69511   6.266   6.106   2.734  0.2647 -0.1794  1.2765
  504MOL0     H69512   6.238   6.197   2.594  2.0722 -0.0009  0.5443
  504MOL0     H69513   6.095   6.134   2.691 -1.3673  2.9091  0.5590
  504MOL0     H69514   6.680   6.500   2.794  0.0773  0.0164  1.5465
  504MOL0     H69515   6.930   6.447   2.723 -0.3416 -1.1468 -1.1357
  504MOL0     H69516   7.171   6.376   2.908  2.7722 -1.0206  0.5546
  504MOL0     H69517   7.143   6.228   2.995 -0.8755  0.7063  0.5196
  504MOL0     H69518   7.378   6.266   2.904  0.5388 -0.5660  1.1154
  504MOL0     H69519   7.304   6.113   2.853  1.8421 -0.1900 -1.4525
  504MOL0     H69520   7.347   6.368   2.694 -0.5591 -0.0572  1.2245
  504MOL0     H69521   7.245   6.236   2.636 -0.6283  1.3426  0.3189
  504MOL0     H69522   7.408   6.072   2.680 -0.5721  0.6337 -2.3675
  504MOL0     H69523   7.534   6.184   2.722 -1.1458 -0.0649  2.2161
  504MOL0     H69524   7.394   6.133   2.454  0.8169  1.4536 -1.4254
  504MOL0     H69525   7.488   6.280   2.488 -1.5802  0.1363 -1.9385
  504MOL0     H69526   7.602   5.995   2.551 -0.8651  0.9633  1.5962
  504MOL0     H69527   7.698   6.139   2.509 -0.6482  0.5821  0.2904
  504MOL0     H69528   7.720   6.039   2.305  0.3877  0.5908  0.4499
  504MOL0     H69529   7.570   6.137   2.278 -1.5629 -1.3195 -0.6351
  504MOL0     H69530   7.444   5.929   2.342 -0.0946  1.2046 -0.3247
  504MOL0     H69531   7.593   5.840   2.293 -0.8498 -0.0804  0.2936
  504MOL0     H69532   6.875   6.097   2.982 -2.9293  1.3321  2.0184
  504MOL0     H69533   6.648   6.145   3.000  0.9206 -0.3854  0.7827
  504MOL0     H69534   6.387   6.563   2.899  0.6522 -2.9784  0.9783
  504MOL0     H69535   6.179   6.662   2.931  1.4337 -0.7528 -0.1386
  504MOL0     H69536   4.768   7.541   3.345  0.4160  0.6312  1.2642
  504MOL0     H69537   4.534   7.653   3.353 -0.3459  0.1181  0.4651
  504MOL0     H69538   4.199   7.782   3.338 -0.6519 -0.8532 -0.3388
  504MOL0     H69539   3.981   7.880   3.324  0.7936 -2.5149 -0.7122
  504MOL0     H69540   3.800   8.030   3.363 -2.1841 -0.1988 -0.9016
  504MOL0     H69541   3.750   7.868   3.352 -1.2785  1.1004 -2.0242
  504MOL0     H69542   3.538   7.923   3.483  0.1710 -0.0789 -0.0332
  504MOL0     H69543   3.554   8.052   3.371  0.4187  3.0862  1.7041
  504MOL0     H69544   3.637   8.081   3.654  1.4289 -1.8451 -0.5075
  504MOL0     H69545   3.667   8.195   3.524 -0.5988  0.9670  2.2533
  504MOL0     H69546   3.416   8.202   3.488  0.6074 -1.5908 -1.2592
  504MOL0     H69547   3.487   8.285   3.636 -0.3777  0.3575 -0.7713
  504MOL0     H69548   3.228   8.022   3.822  0.4769  1.0345  0.8174
  504MOL0     H69549   3.932   7.832   3.752  1.7206 -0.2024  1.0344
  504MOL0     H69550   4.182   7.840   3.857 -2.7773  0.4395  0.9539
  504MOL0     H69551   4.106   7.691   3.873  1.8158 -1.8126  0.2656
  504MOL0     H69552   4.267   7.686   3.814  0.6592  2.5550  1.1496
  505MOL0     O69553   8.081   0.806   7.758 -0.1129  0.0266 -0.3121
  505MOL0     C69554   8.064   0.883   7.667  1.1848  0.3480 -0.8924
  505MOL0     O69555   8.051   1.019   7.677  0.1520  0.3690  0.3363
  505MOL0     C69556   8.092   1.070   7.795  0.3997  0.2612  0.3874
  505MOL0     C69557   8.222   1.120   7.796 -0.1556  0.4710  1.3393
  505MOL0     C69558   8.270   1.182   7.917  0.1730  0.2135  0.4076
  505MOL0     C69559   8.193   1.181   8.037  0.2504 -0.9770  0.2758
  505MOL0     O69560   8.248   1.243   8.146  0.5850 -0.6445  0.3093
  505MOL0     C69561   8.190   1.370   8.182 -0.0427 -0.1383 -0.6915
  505MOL0     C69562   8.193   1.407   8.329 -0.3770  0.2381 -0.7755
  505MOL0     C69563   8.340   1.422   8.373 -0.1803  0.1056 -0.4516
  505MOL0     C69564   8.342   1.469   8.522 -0.0243  0.6559 -0.2072
  505MOL0     C69565   8.481   1.502   8.578  0.8164  0.9270  0.5533
  505MOL0     C69566   8.565   1.372   8.565  0.3560 -0.0669 -1.2610
  505MOL0     C69567   8.681   1.371   8.672 -0.0499 -0.3679  0.4863
  505MOL0     C69568   8.756   1.246   8.647  0.0391 -0.1675 -0.2752
  505MOL0     N69569   8.855   1.237   8.757  0.4795  0.0805  0.2433
  505MOL0     C69570   8.825   1.214   8.891  0.5466  0.7210 -1.0087
  505MOL0     C69571   8.943   1.211   8.959  0.3879  0.1290 -0.1485
  505MOL0     C69572   8.950   1.197   9.109  0.3492 -0.2626 -0.5177
  505MOL0     C69573   9.012   1.328   9.172 -0.0843 -0.1553  0.7584
  505MOL0     C69574   9.017   1.316   9.328  0.0036  0.1072  0.9478
  505MOL0     C69575   9.081   1.432   9.396 -0.0573  0.2515  0.0651
  505MOL0     O69576   9.208   1.469   9.338 -0.4344 -0.5371 -0.1357
  505MOL0     C69577   9.282   1.572   9.395 -0.7579 -0.8412  0.5082
  505MOL0     C69578   9.405   1.617   9.336  1.0673  0.9824 -0.4957
  505MOL0     C69579   9.485   1.719   9.384 -0.1284 -0.5028  0.1451
  505MOL0     C69580   9.598   1.757   9.291 -0.6133 -0.3968  0.2468
  505MOL0     C69581   9.464   1.777   9.509 -0.0529  0.6026 -0.2294
  505MOL0     C69582   9.571   1.858   9.579  0.5436 -0.2194  0.7203
  505MOL0     O69583   9.698   1.820   9.564 -0.3147  0.5185  0.1486
  505MOL0     C69584   9.796   1.886   9.636 -0.7097  0.4474 -0.1569
  505MOL0     C69585   9.792   1.921   9.774  0.1233  0.2940 -0.0651
  505MOL0     C69586   9.895   1.983   9.841  0.4358 -0.4342  0.5657
  505MOL0     C69587  10.010   2.018   9.773 -0.2827 -0.6318 -0.4573
  505MOL0     O69588  10.104   2.083   9.840  0.1328 -0.0538 -0.3867
  505MOL0     C69589  10.225   2.121   9.770 -0.2251  0.2683  0.8480
  505MOL0     C69590  10.297   2.228   9.845 -0.0056 -0.0216 -0.7981
  505MOL0     C69591  10.353   2.172   9.980 -0.5974  0.0305 -0.2544
  505MOL0     C69592  10.422   2.280  10.053 -0.6307 -0.0007  0.1497
  505MOL0     C69593  10.498   2.231  10.168 -0.1373  0.3181 -0.2571
  505MOL0     C69594  10.581   2.340  10.240 -1.2426  0.1531 -0.7065
  505MOL0     C69595  10.675   2.282  10.351  0.2378  0.3542  0.2163
  505MOL0     C69596  10.772   2.393  10.396 -0.5489 -0.4184  0.1438
  505MOL0    Cl69597  10.853   2.334  10.543  0.0516  0.0824 -0.0626
  505MOL0     C69598  10.022   1.973   9.642 -0.2873  0.1154 -0.2842
  505MOL0     C69599   9.914   1.917   9.570 -0.8559  0.1756 -0.0283
  505MOL0     O69600   9.524   1.938   9.663 -0.2359  0.3103 -0.8069
  505MOL0     C69601   9.343   1.733   9.576  0.5540 -0.3945 -0.0653
  505MOL0     C69602   9.244   1.641   9.520  0.2595 -0.5698 -0.0221
  505MOL0     N69603   9.037   1.241   8.866  0.8499  0.0477 -0.3468
  505MOL0     N69604   8.989   1.249   8.750 -0.0245  0.6610  0.4643
  505MOL0     C69605   8.060   1.124   8.029  0.4216 -0.3801  0.2667
  505MOL0     C69606   8.012   1.067   7.912  0.8054 -0.1878  0.0356
  505MOL0     C69607   8.068   0.826   7.534 -0.0809  0.2097  0.7154
  505MOL0     C69608   8.182   0.757   7.498  0.3960 -0.7251 -0.1603
  505MOL0     C69609   8.204   0.719   7.368 -0.1375  0.1086 -0.2045
  505MOL0     C69610   8.102   0.751   7.262  0.3379 -0.4463  0.5287
  505MOL0     O69611   8.099   0.712   7.132 -0.4889 -0.2291 -0.3368
  505MOL0     C69612   8.211   0.646   7.070  0.1359  0.3791  0.4607
  505MOL0     C69613   8.332   0.736   7.039 -0.6926 -0.4244  0.3627
  505MOL0     C69614   8.411   0.686   6.918 -0.0837  0.7661 -0.9605
  505MOL0     C69615   8.505   0.800   6.869  0.7015  0.6183  1.0957
  505MOL0     C69616   8.440   0.887   6.779 -0.2194 -0.1419 -0.3204
  505MOL0     C69617   8.371   0.976   6.728 -0.3097  0.3422 -0.2038
  505MOL0     C69618   7.983   0.811   7.299 -0.0914 -0.9603  0.2282
  505MOL0     C69619   7.970   0.855   7.434 -0.1610 -0.2297 -0.2069
  505MOL0     C69620   7.846   0.925   7.464  0.2013 -0.1512  0.1349
  505MOL0     H69621   8.285   1.110   7.708 -1.5230 -1.7615  0.5263
  505MOL0     H69622   8.375   1.207   7.923 -0.0845  1.5601 -0.2904
  505MOL0     H69623   8.087   1.381   8.147 -1.5889 -1.0700  3.0533
  505MOL0     H69624   8.255   1.437   8.127 -0.1333 -0.7714 -1.5972
  505MOL0     H69625   8.152   1.508   8.341  4.1866  2.0666  1.9813
  505MOL0     H69626   8.131   1.337   8.386 -1.6556  0.4595 -1.8370
  505MOL0     H69627   8.396   1.328   8.368  0.2169  0.4024 -4.5669
  505MOL0     H69628   8.389   1.491   8.304 -1.5927 -1.0609 -2.7575
  505MOL0     H69629   8.282   1.559   8.535 -0.0303  0.7298 -0.7234
  505MOL0     H69630   8.297   1.388   8.581  0.8735  0.3776  0.1088
  505MOL0     H69631   8.478   1.531   8.683 -2.0587  0.0529  0.8006
  505MOL0     H69632   8.533   1.581   8.522  1.6134 -0.6952 -1.0801
  505MOL0     H69633   8.498   1.287   8.581 -0.4407  0.6559 -0.6532
  505MOL0     H69634   8.611   1.376   8.466 -1.0478 -1.9535 -2.0458
  505MOL0     H69635   8.636   1.364   8.772 -1.2382 -1.8638 -0.1133
  505MOL0     H69636   8.751   1.454   8.664  1.5287 -1.3258  3.0718
  505MOL0     H69637   8.685   1.164   8.661  0.4898 -0.3747  1.0256
  505MOL0     H69638   8.808   1.243   8.551 -1.8395 -1.6204 -1.3142
  505MOL0     H69639   8.723   1.202   8.927  1.0968 -3.4729 -0.3968
  505MOL0     H69640   9.006   1.112   9.150  0.6677 -0.8052 -2.0198
  505MOL0     H69641   8.846   1.180   9.139 -0.5110 -1.1161 -3.5985
  505MOL0     H69642   9.107   1.352   9.123 -0.6729 -1.4223 -1.1144
  505MOL0     H69643   8.941   1.407   9.144  0.6029 -0.0536 -0.8155
  505MOL0     H69644   8.919   1.311   9.375  0.8665 -2.8812  2.6957
  505MOL0     H69645   9.063   1.223   9.363 -2.3605 -0.5316  2.6296
  505MOL0     H69646   9.008   1.513   9.389  1.6423  1.6915 -3.5913
  505MOL0     H69647   9.091   1.408   9.503 -1.7633  2.5311  0.8176
  505MOL0     H69648   9.419   1.584   9.233 -2.1630  1.1177 -1.0835
  505MOL0     H69649   9.618   1.864   9.300  2.2300 -0.6681 -1.6660
  505MOL0     H69650   9.573   1.731   9.187 -1.2502  2.6473 -0.4474
  505MOL0     H69651   9.695   1.712   9.315  1.2689  1.6812 -2.8270
  505MOL0     H69652   9.700   1.889   9.824 -0.5478 -1.2601 -2.1488
  505MOL0     H69653   9.884   2.007   9.947  1.8450 -0.8811  0.8387
  505MOL0     H69654  10.295   2.039   9.751  0.7580  1.4825 -1.1237
  505MOL0     H69655  10.198   2.170   9.676  0.8830  0.5342  0.6558
  505MOL0     H69656  10.372   2.289   9.794 -0.8942  0.8885 -1.0509
  505MOL0     H69657  10.221   2.300   9.876 -0.5736  0.1054 -2.3799
  505MOL0     H69658  10.424   2.093   9.954 -0.4894  0.3179 -0.8548
  505MOL0     H69659  10.276   2.117  10.035 -1.0754  2.0938  1.2877
  505MOL0     H69660  10.359   2.363  10.086 -1.6201 -1.3726  1.8310
  505MOL0     H69661  10.492   2.326   9.982 -1.9585  2.7024  0.4800
  505MOL0     H69662  10.430   2.181  10.237 -0.9688  2.4964  0.5925
  505MOL0     H69663  10.570   2.159  10.128  0.4982  1.3227 -0.9868
  505MOL0     H69664  10.524   2.424  10.280  0.5912  0.1002  2.3630
  505MOL0     H69665  10.659   2.377  10.173  0.9452  0.9896  2.1191
  505MOL0     H69666  10.718   2.188  10.315  1.2592  1.1443 -0.6896
  505MOL0     H69667  10.603   2.258  10.430 -2.8574  1.2271 -2.1091
  505MOL0     H69668  10.706   2.478  10.420  0.2405  0.6300 -1.2291
  505MOL0     H69669  10.843   2.417  10.316  1.7462 -1.3986  1.7759
  505MOL0     H69670  10.108   1.986   9.576 -1.2030  0.6573 -1.4144
  505MOL0     H69671   9.932   1.893   9.465  0.2061  1.0506 -0.0592
  505MOL0     H69672   9.317   1.764   9.677 -2.1877 -0.0090 -0.8092
  505MOL0     H69673   9.158   1.611   9.580  0.8310 -0.5356  0.8238
  505MOL0     H69674   7.999   1.124   8.119 -0.0104 -4.9423  0.2346
  505MOL0     H69675   7.910   1.030   7.917  0.5629  0.4909  0.2007
  505MOL0     H69676   8.248   0.743   7.583 -1.9229  2.2832  2.4031
  505MOL0     H69677   8.276   0.640   7.354  0.3791  0.1732  1.7742
  505MOL0     H69678   8.251   0.565   7.132  1.6287  1.2733  0.7084
  505MOL0     H69679   8.184   0.601   6.974  1.2334  2.2712 -0.7942
  505MOL0     H69680   8.401   0.729   7.124 -0.1830  2.1330  0.2579
  505MOL0     H69681   8.301   0.840   7.022  0.1092  0.5820  4.0200
  505MOL0     H69682   8.471   0.596   6.935  0.6811  0.4565 -4.5191
  505MOL0     H69683   8.347   0.659   6.833 -0.0848  2.7573 -1.6453
  505MOL0     H69684   8.589   0.764   6.809  0.6560 -0.6120  1.7350
  505MOL0     H69685   8.546   0.860   6.951  2.0292  3.3339 -1.3912
  505MOL0     H69686   8.308   1.050   6.683 -1.4072 -0.7810 -0.5636
  505MOL0     H69687   7.902   0.818   7.227  0.6166 -1.2795 -0.6115
  505MOL0     H69688   7.775   0.928   7.381  1.9806 -0.8988 -1.5078
  505MOL0     H69689   7.796   0.880   7.550  1.0702 -1.5137 -0.0463
  505MOL0     H69690   7.867   1.031   7.484 -0.8452 -0.1652  1.4250
  506MOL0     O69691   2.994   1.688   7.406 -0.4167 -0.5576 -0.5137
  506MOL0     C69692   2.947   1.653   7.512  0.4090 -0.2296 -0.7786
  506MOL0     O69693   3.012   1.595   7.614 -0.1282 -0.1137  0.1145
  506MOL0     C69694   3.150   1.595   7.613 -0.4039 -0.3721 -0.6704
  506MOL0     C69695   3.225   1.515   7.527  0.1512  0.4749  0.1996
  506MOL0     C69696   3.368   1.518   7.522  0.3393 -0.9101  0.5382
  506MOL0     C69697   3.432   1.621   7.598  0.6906  0.2253  0.0780
  506MOL0     O69698   3.569   1.636   7.602 -0.1741 -0.0419 -0.0259
  506MOL0     C69699   3.655   1.557   7.521 -0.2480 -0.5611  0.0220
  506MOL0     C69700   3.796   1.592   7.555  0.0905  0.5511  0.4284
  506MOL0     C69701   3.891   1.525   7.449  0.4630 -0.3385 -1.5619
  506MOL0     C69702   4.033   1.587   7.457  0.1131 -0.1893  0.1989
  506MOL0     C69703   4.128   1.509   7.367 -0.3872 -0.3192 -0.1972
  506MOL0     C69704   4.267   1.574   7.375 -0.2532  0.4877 -0.2133
  506MOL0     C69705   4.376   1.506   7.298 -0.3443 -1.0098  0.5377
  506MOL0     C69706   4.514   1.572   7.305  0.4681  0.0619 -0.0422
  506MOL0     N69707   4.604   1.482   7.234 -0.2441 -0.0731 -0.4594
  506MOL0     C69708   4.624   1.479   7.100 -0.2615  0.7152  0.1751
  506MOL0     C69709   4.713   1.376   7.078 -0.4601 -0.1050 -0.0357
  506MOL0     C69710   4.785   1.362   6.949  0.4198 -0.5298  0.1502
  506MOL0     C69711   4.910   1.442   6.948 -0.0096 -0.6980 -0.4924
  506MOL0     C69712   5.004   1.416   6.832 -0.3448  0.4196 -0.5500
  506MOL0     C69713   5.133   1.500   6.821  0.4796 -0.6473 -0.1586
  506MOL0     O69714   5.243   1.440   6.882 -0.2839 -0.2530 -0.2382
  506MOL0     C69715   5.365   1.490   6.842  0.4797  0.0443  0.4647
  506MOL0     C69716   5.393   1.628   6.824 -0.3982  0.5440 -0.2264
  506MOL0     C69717   5.525   1.674   6.808 -0.7029 -0.3195  0.2031
  506MOL0     C69718   5.544   1.828   6.830  1.4193 -0.1047  0.0793
  506MOL0     C69719   5.628   1.574   6.806 -0.1226 -0.7191 -0.2874
  506MOL0     C69720   5.777   1.608   6.799 -0.3762  0.6237 -0.2569
  506MOL0     O69721   5.856   1.497   6.775  0.0522  0.1750  0.0987
  506MOL0     C69722   5.993   1.500   6.784  0.3946 -0.3507  0.0980
  506MOL0     C69723   6.068   1.583   6.702  0.0924 -0.4293 -0.0907
  506MOL0     C69724   6.209   1.574   6.702  0.3653  0.2709  0.7086
  506MOL0     C69725   6.277   1.471   6.772 -0.0043  0.5338 -0.4097
  506MOL0     O69726   6.409   1.466   6.742 -0.4882  0.0422 -0.0449
  506MOL0     C69727   6.511   1.410   6.826  0.3508  0.1605 -0.2610
  506MOL0     C69728   6.637   1.416   6.745 -0.7681  1.3295 -0.6314
  506MOL0     C69729   6.766   1.357   6.810  0.5510  0.5716 -0.5985
  506MOL0     C69730   6.814   1.439   6.927  0.1010 -0.0559  0.2590
  506MOL0     C69731   6.898   1.356   7.021 -0.3231 -0.0641 -0.6525
  506MOL0     C69732   6.979   1.436   7.121 -0.1326 -0.1248  0.0705
  506MOL0     C69733   7.059   1.348   7.226  0.9638 -0.1151  0.3366
  506MOL0     C69734   7.144   1.421   7.337  0.0826  0.1529 -0.6294
  506MOL0    Cl69735   7.046   1.557   7.400  0.1245  0.0963 -0.5315
  506MOL0     C69736   6.206   1.391   6.864 -0.1999  0.3349 -0.0302
  506MOL0     C69737   6.067   1.407   6.863  0.4014 -0.1731 -1.0945
  506MOL0     O69738   5.828   1.719   6.805  0.6275 -0.5040  0.2505
  506MOL0     C69739   5.591   1.443   6.819 -0.3489 -0.0285 -0.3963
  506MOL0     C69740   5.471   1.400   6.838  0.4799 -0.3189  0.4532
  506MOL0     N69741   4.749   1.320   7.198  0.6507  0.4278  0.8004
  506MOL0     N69742   4.673   1.378   7.284  0.2511 -0.0430  0.3206
  506MOL0     C69743   3.355   1.711   7.675 -0.6626 -0.5065 -0.5980
  506MOL0     C69744   3.223   1.689   7.689  0.1583 -0.3317 -0.5404
  506MOL0     C69745   2.799   1.650   7.539 -0.1502  0.2387  0.2935
  506MOL0     C69746   2.751   1.659   7.670 -0.5971  0.3531  0.1467
  506MOL0     C69747   2.613   1.661   7.690  0.1994  0.0647  0.6597
  506MOL0     C69748   2.514   1.653   7.593 -0.4686  0.6781  0.9840
  506MOL0     O69749   2.382   1.642   7.620  0.0270 -0.0734  0.1390
  506MOL0     C69750   2.283   1.661   7.520 -0.7363 -0.0849 -0.0318
  506MOL0     C69751   2.162   1.695   7.601  1.1764  0.1499  0.4452
  506MOL0     C69752   2.044   1.695   7.505  0.0855  0.3173  0.8318
  506MOL0     C69753   1.920   1.710   7.587 -0.1069 -0.3929 -0.2086
  506MOL0     C69754   1.807   1.765   7.510  0.6562 -0.8425  0.6082
  506MOL0     C69755   1.710   1.794   7.437 -0.1222  0.3033  0.0713
  506MOL0     C69756   2.568   1.652   7.463  0.5213 -0.8757 -0.0844
  506MOL0     C69757   2.701   1.657   7.433 -0.2757  0.8513  0.2656
  506MOL0     C69758   2.744   1.632   7.289 -0.7898  0.1048  0.6187
  506MOL0     H69759   3.168   1.442   7.470  0.9942 -1.3508  1.5950
  506MOL0     H69760   3.425   1.440   7.474  1.2919  0.3026 -0.3568
  506MOL0     H69761   3.636   1.575   7.414  1.1800  0.6321 -0.0577
  506MOL0     H69762   3.633   1.454   7.549 -0.4969 -0.9985 -1.6782
  506MOL0     H69763   3.813   1.700   7.552  0.7544  0.4239 -2.2670
  506MOL0     H69764   3.818   1.565   7.659  0.2756  1.0033  0.5086
  506MOL0     H69765   3.891   1.419   7.478  1.8154 -0.6474 -2.5847
  506MOL0     H69766   3.851   1.538   7.349  1.6489  3.8115 -1.6673
  506MOL0     H69767   4.029   1.694   7.433  1.9954 -0.0464  0.3937
  506MOL0     H69768   4.068   1.588   7.561  1.5505  1.1757 -0.2459
  506MOL0     H69769   4.093   1.514   7.264  0.5801  0.6985 -0.5013
  506MOL0     H69770   4.139   1.406   7.402  0.8970  0.2630  1.2613
  506MOL0     H69771   4.258   1.679   7.344  0.8792  0.2121 -1.5645
  506MOL0     H69772   4.302   1.576   7.479  0.8476 -2.3455 -0.4475
  506MOL0     H69773   4.346   1.504   7.193  1.4188 -0.1107 -0.0275
  506MOL0     H69774   4.384   1.401   7.328 -0.4621 -0.5922  2.1695
  506MOL0     H69775   4.513   1.674   7.266 -1.9414  0.1967  0.2090
  506MOL0     H69776   4.531   1.585   7.413  1.4204  1.5324 -0.3360
  506MOL0     H69777   4.568   1.544   7.034 -1.1720  0.9157  1.1288
  506MOL0     H69778   4.708   1.391   6.876 -0.5261  2.9649  2.2950
  506MOL0     H69779   4.822   1.259   6.941  3.0873  0.4382 -1.2674
  506MOL0     H69780   4.873   1.545   6.948  1.3249 -0.1921 -1.1918
  506MOL0     H69781   4.974   1.429   7.036  2.6370 -1.5575 -2.4201
  506MOL0     H69782   5.033   1.310   6.833  0.1538  0.5093 -2.2108
  506MOL0     H69783   4.955   1.426   6.734 -1.1274  0.5990 -0.1507
  506MOL0     H69784   5.146   1.507   6.712  1.2686 -0.6467 -0.0645
  506MOL0     H69785   5.124   1.600   6.865  1.3319 -0.0198 -1.3575
  506MOL0     H69786   5.315   1.704   6.836  0.5047  1.4897 -0.2328
  506MOL0     H69787   5.613   1.842   6.914  2.1642 -1.1434 -0.3278
  506MOL0     H69788   5.453   1.884   6.848  1.4462  0.8985 -2.5193
  506MOL0     H69789   5.591   1.872   6.742 -0.4090 -1.3347 -1.5939
  506MOL0     H69790   6.000   1.644   6.643 -2.0244 -2.7342 -0.2141
  506MOL0     H69791   6.266   1.640   6.637 -0.0972 -0.7577 -0.7997
  506MOL0     H69792   6.523   1.476   6.912  3.1817  3.7876 -3.0851
  506MOL0     H69793   6.475   1.313   6.860 -2.0549  0.8294 -0.7106
  506MOL0     H69794   6.617   1.356   6.656 -0.6413 -1.2248  0.9512
  506MOL0     H69795   6.658   1.518   6.713  3.3803 -0.0857 -3.1045
  506MOL0     H69796   6.850   1.353   6.740 -0.8463  0.0286 -2.3088
  506MOL0     H69797   6.747   1.251   6.829 -0.9548  1.1665  1.6812
  506MOL0     H69798   6.730   1.477   6.986  0.2402  1.0496 -0.2210
  506MOL0     H69799   6.866   1.528   6.889 -0.2143  0.3773  0.8163
  506MOL0     H69800   6.834   1.277   7.063 -4.8394  2.4448 -2.1459
  506MOL0     H69801   6.971   1.299   6.963  1.8703  0.6829  1.2189
  506MOL0     H69802   6.908   1.502   7.171  0.6309  2.0046 -1.5054
  506MOL0     H69803   7.045   1.506   7.069  0.1666 -0.6097 -0.2087
  506MOL0     H69804   7.118   1.273   7.173 -1.2694 -1.6242 -0.1946
  506MOL0     H69805   6.987   1.287   7.283 -0.1441 -0.7326 -1.6356
  506MOL0     H69806   7.233   1.464   7.290  0.6889 -1.3991 -0.9490
  506MOL0     H69807   7.179   1.349   7.411  2.1236  1.8069  0.1358
  506MOL0     H69808   6.250   1.313   6.925 -3.0565  0.0377  1.8515
  506MOL0     H69809   6.013   1.339   6.929  0.3313  1.3247  0.4720
  506MOL0     H69810   5.672   1.370   6.821 -0.8756 -0.6803  2.8988
  506MOL0     H69811   5.447   1.294   6.846 -2.8281  0.3620  0.9182
  506MOL0     H69812   3.404   1.791   7.730  2.1108 -1.0271 -2.1134
  506MOL0     H69813   3.162   1.745   7.760 -1.7056 -0.6013 -1.8632
  506MOL0     H69814   2.827   1.651   7.746  1.6404 -2.3795 -2.1366
  506MOL0     H69815   2.585   1.638   7.792  0.7438 -2.9472  0.2318
  506MOL0     H69816   2.310   1.739   7.448 -0.6550  1.0623  1.2050
  506MOL0     H69817   2.281   1.562   7.474 -0.6576 -1.2212  2.2596
  506MOL0     H69818   2.176   1.793   7.647  0.6458  1.1182 -1.3548
  506MOL0     H69819   2.138   1.626   7.682 -0.8338 -1.7609 -1.6353
  506MOL0     H69820   2.060   1.777   7.434  1.2075  1.2224  2.0680
  506MOL0     H69821   2.037   1.597   7.458 -2.6319  1.7105 -2.0768
  506MOL0     H69822   1.932   1.785   7.666 -0.5934 -0.5565  0.0270
  506MOL0     H69823   1.892   1.621   7.645 -1.3647  0.3458  0.3493
  506MOL0     H69824   1.632   1.818   7.367  2.3841  5.1026 -1.5231
  506MOL0     H69825   2.498   1.667   7.381  0.0581 -1.0236  0.2816
  506MOL0     H69826   2.659   1.627   7.221  0.1256  1.0706 -0.6556
  506MOL0     H69827   2.813   1.709   7.251 -0.1659 -0.8398 -0.1954
  506MOL0     H69828   2.794   1.536   7.275 -0.3128  0.4916 -0.4637
  507MOL0     O69829   7.816   8.792   3.271  0.4095 -0.0376 -0.0553
  507MOL0     C69830   7.715   8.712   3.279 -0.8626 -0.9706 -0.5049
  507MOL0     O69831   7.730   8.580   3.294  0.0681  0.2571  0.7903
  507MOL0     C69832   7.857   8.527   3.313  0.6216 -0.0865 -0.3717
  507MOL0     C69833   7.935   8.513   3.204 -0.2316  0.3908  0.0209
  507MOL0     C69834   8.060   8.448   3.217 -0.4553  0.0726 -0.2936
  507MOL0     C69835   8.104   8.401   3.347 -0.0075 -0.4058  0.7887
  507MOL0     O69836   8.227   8.360   3.381  0.3710  0.3995  0.2207
  507MOL0     C69837   8.341   8.434   3.324  0.5062 -0.5787  0.5962
  507MOL0     C69838   8.453   8.405   3.413  0.2890 -0.8345 -0.4764
  507MOL0     C69839   8.591   8.428   3.355  0.5250  0.9521  0.6304
  507MOL0     C69840   8.693   8.435   3.467  0.7582  0.2697 -0.5600
  507MOL0     C69841   8.846   8.434   3.408  0.2700  0.3424  0.6312
  507MOL0     C69842   8.942   8.473   3.511 -0.0565 -0.4032  0.6795
  507MOL0     C69843   9.089   8.453   3.485  0.3142 -0.2010 -0.2924
  507MOL0     C69844   9.118   8.310   3.467  0.2058 -0.0746  0.6480
  507MOL0     N69845   9.266   8.279   3.495 -0.4714 -0.3803  0.0731
  507MOL0     C69846   9.372   8.346   3.445  0.0301  0.6261  0.2283
  507MOL0     C69847   9.483   8.276   3.477  0.4114  0.6540  0.1116
  507MOL0     C69848   9.622   8.308   3.427 -0.0281 -0.6017 -0.0015
  507MOL0     C69849   9.741   8.242   3.497  0.8425 -0.0765 -0.0925
  507MOL0     C69850   9.753   8.313   3.643  0.5947 -0.0668  0.0988
  507MOL0     C69851   9.860   8.258   3.725 -0.3130  0.5682 -1.0615
  507MOL0     O69852   9.820   8.284   3.866  0.2754  0.1295  0.2330
  507MOL0     C69853   9.919   8.314   3.953  0.6652  0.2466  0.3103
  507MOL0     C69854   9.883   8.365   4.080 -0.1974 -0.1906 -0.3236
  507MOL0     C69855   9.983   8.384   4.183  0.3223  0.2357  0.0906
  507MOL0     C69856   9.937   8.441   4.315 -0.5059  1.0160  0.3018
  507MOL0     C69857  10.116   8.358   4.156  0.5960  0.4738 -0.3271
  507MOL0     C69858  10.230   8.378   4.259 -0.1674  0.2943  0.7477
  507MOL0     O69859  10.350   8.355   4.200  0.2381 -0.0118 -0.1584
  507MOL0     C69860  10.471   8.387   4.260 -1.1866  0.1223 -0.4407
  507MOL0     C69861  10.580   8.322   4.212  0.7910  0.0325 -0.2580
  507MOL0     C69862  10.715   8.365   4.247  0.2169 -0.4616 -0.1615
  507MOL0     C69863  10.733   8.470   4.337  0.7970 -0.6416 -1.0413
  507MOL0     O69864  10.856   8.508   4.381  0.3656 -0.2329 -0.0973
  507MOL0     C69865  10.973   8.443   4.336 -0.0569 -0.4372  1.3648
  507MOL0     C69866  10.978   8.307   4.401  0.1905 -0.0529  0.3253
  507MOL0     C69867  11.028   8.304   4.547  0.1647 -0.2082 -0.6217
  507MOL0     C69868  10.958   8.408   4.637  0.1064 -0.2755 -0.1119
  507MOL0     C69869  10.983   8.386   4.789  0.4876  0.3050  0.6827
  507MOL0     C69870  11.126   8.390   4.837 -0.1785 -0.3650  0.2099
  507MOL0     C69871  11.204   8.516   4.793 -0.3966 -0.5615 -0.4208
  507MOL0     C69872  11.330   8.539   4.867 -0.5733 -0.9058 -0.6146
  507MOL0    Cl69873  11.455   8.416   4.837  0.1098  0.0480  0.6468
  507MOL0     C69874  10.625   8.530   4.398 -0.0841 -0.0403  0.1548
  507MOL0     C69875  10.497   8.499   4.348 -0.1165  0.0017 -0.5636
  507MOL0     O69876  10.219   8.413   4.372 -0.1529  0.5443 -0.2170
  507MOL0     C69877  10.150   8.300   4.034  0.2390 -0.3884 -0.0310
  507MOL0     C69878  10.051   8.277   3.934  0.6767 -0.0218  0.1904
  507MOL0     N69879   9.436   8.174   3.557 -0.0222 -0.3343  0.0688
  507MOL0     N69880   9.316   8.174   3.567  0.8043 -0.2356 -0.2830
  507MOL0     C69881   8.009   8.405   3.450  0.7274 -0.3128  0.8126
  507MOL0     C69882   7.883   8.467   3.432 -0.1317 -0.0387  0.0823
  507MOL0     C69883   7.577   8.764   3.269  0.6298  0.4748  0.2124
  507MOL0     C69884   7.477   8.669   3.247  0.5082 -0.4627 -0.0419
  507MOL0     C69885   7.344   8.706   3.218 -0.8913 -0.0592  0.9056
  507MOL0     C69886   7.304   8.841   3.219  0.4580  0.1640  0.6726
  507MOL0     O69887   7.170   8.891   3.203 -0.1736 -0.0508 -0.0402
  507MOL0     C69888   7.083   8.806   3.127  0.3645 -0.5647  0.1889
  507MOL0     C69889   6.943   8.867   3.140 -0.3418  0.4119  0.5556
  507MOL0     C69890   6.939   8.999   3.062  0.4218 -0.0424 -0.4458
  507MOL0     C69891   6.801   9.044   3.024  0.4898 -0.2157  0.2541
  507MOL0     C69892   6.809   9.163   2.942  0.1003 -0.9488  0.1445
  507MOL0     C69893   6.832   9.269   2.885 -0.2250 -0.6855  0.9948
  507MOL0     C69894   7.405   8.933   3.244 -0.0691 -0.4393 -0.1986
  507MOL0     C69895   7.541   8.900   3.271  0.2622  0.7096  0.5967
  507MOL0     C69896   7.629   9.018   3.303  0.1932 -0.5352 -0.9205
  507MOL0     H69897   7.900   8.548   3.108  1.3533 -0.5758 -0.9496
  507MOL0     H69898   8.126   8.434   3.132 -0.0877 -0.0427  0.0070
  507MOL0     H69899   8.327   8.542   3.319  2.3102 -0.2808  1.1621
  507MOL0     H69900   8.358   8.405   3.220 -0.5982 -0.2150  0.3000
  507MOL0     H69901   8.440   8.461   3.507  2.4813  0.3407 -0.8026
  507MOL0     H69902   8.455   8.298   3.435  2.6072 -0.9112 -0.7739
  507MOL0     H69903   8.624   8.347   3.290 -0.0673  0.9032  0.3855
  507MOL0     H69904   8.586   8.520   3.296 -0.6409 -0.1503 -1.0915
  507MOL0     H69905   8.676   8.526   3.524  0.4926  0.8911 -1.5904
  507MOL0     H69906   8.667   8.355   3.537 -0.9187  1.0001 -0.2845
  507MOL0     H69907   8.844   8.505   3.325 -0.9171 -1.1328 -0.6822
  507MOL0     H69908   8.874   8.335   3.371 -0.2054 -0.6970  2.8482
  507MOL0     H69909   8.925   8.581   3.514  1.3310  0.1990 -4.2290
  507MOL0     H69910   8.918   8.421   3.604 -2.2683  2.4068  1.8187
  507MOL0     H69911   9.143   8.490   3.573 -0.2320 -0.1624  0.0333
  507MOL0     H69912   9.120   8.508   3.396 -0.9880  0.8949 -0.1071
  507MOL0     H69913   9.056   8.253   3.536  0.8546 -2.5798 -0.7049
  507MOL0     H69914   9.095   8.284   3.363 -2.1408  1.0819  0.8179
  507MOL0     H69915   9.366   8.426   3.372  0.2092  0.0929 -0.3916
  507MOL0     H69916   9.649   8.413   3.421  5.0755 -1.7087 -2.8023
  507MOL0     H69917   9.626   8.264   3.327 -0.2455 -2.1050  0.6181
  507MOL0     H69918   9.725   8.134   3.509  2.4055 -0.2738  0.4622
  507MOL0     H69919   9.831   8.257   3.438  1.0823  0.4780  0.4098
  507MOL0     H69920   9.753   8.422   3.637  0.6179  0.2653  3.9354
  507MOL0     H69921   9.664   8.284   3.700  0.8671  0.2301  0.6862
  507MOL0     H69922   9.858   8.149   3.723 -0.5157  0.5575 -0.5124
  507MOL0     H69923   9.959   8.287   3.691 -0.6285  0.5401 -2.0267
  507MOL0     H69924   9.781   8.398   4.102  0.0589 -0.3795  1.2395
  507MOL0     H69925   9.829   8.438   4.334 -0.8752 -0.1508 -1.7271
  507MOL0     H69926   9.969   8.545   4.329  0.3587  0.8526 -0.3618
  507MOL0     H69927   9.977   8.376   4.393  1.1002 -0.9950 -2.0456
  507MOL0     H69928  10.562   8.248   4.135 -0.1741  0.3195 -0.3249
  507MOL0     H69929  10.804   8.312   4.217  0.6304 -0.2940  0.7519
  507MOL0     H69930  10.974   8.429   4.227  3.4843 -2.0238  1.4556
  507MOL0     H69931  11.059   8.506   4.359 -0.2791  0.3728  0.0680
  507MOL0     H69932  10.879   8.261   4.397 -0.5780  1.4407  1.5039
  507MOL0     H69933  11.044   8.240   4.345 -2.4364 -2.3174 -0.2484
  507MOL0     H69934  11.136   8.319   4.549 -0.0355  1.2280  0.6373
  507MOL0     H69935  11.000   8.205   4.585 -0.6743 -0.3092 -1.4717
  507MOL0     H69936  10.849   8.407   4.625  0.0484  1.5310 -0.0989
  507MOL0     H69937  10.999   8.506   4.612  1.3859 -1.3905 -2.7150
  507MOL0     H69938  10.939   8.471   4.841  0.3504  0.4687  0.3028
  507MOL0     H69939  10.939   8.293   4.827  0.8584 -1.3367 -2.5819
  507MOL0     H69940  11.175   8.297   4.806 -0.3160 -0.1166 -0.7917
  507MOL0     H69941  11.134   8.389   4.946 -1.1868 -2.5754  0.3360
  507MOL0     H69942  11.142   8.605   4.805  1.5743  0.8683 -0.2403
  507MOL0     H69943  11.228   8.516   4.686 -0.9435 -0.3780 -0.5448
  507MOL0     H69944  11.311   8.539   4.975 -0.0612 -1.7546 -0.5191
  507MOL0     H69945  11.361   8.639   4.835 -2.3938 -0.7609 -2.1180
  507MOL0     H69946  10.630   8.606   4.475 -1.0040  1.7300 -1.4712
  507MOL0     H69947  10.418   8.562   4.387  0.1003  0.8147 -1.4309
  507MOL0     H69948  10.251   8.267   4.008  0.4072  1.7680 -2.4721
  507MOL0     H69949  10.103   8.234   3.848  2.3986 -0.5436  1.4274
  507MOL0     H69950   8.025   8.371   3.552 -3.7495  2.6812  2.8212
  507MOL0     H69951   7.813   8.493   3.511 -0.5443  1.2693 -0.6812
  507MOL0     H69952   7.497   8.563   3.254 -1.5947 -1.0795 -2.0694
  507MOL0     H69953   7.267   8.632   3.197 -1.4990  1.1929 -1.6571
  507MOL0     H69954   7.129   8.796   3.028  3.1076  2.2867  1.0008
  507MOL0     H69955   7.066   8.710   3.176 -2.8430  0.5333  1.4970
  507MOL0     H69956   6.914   8.888   3.244 -0.7601 -2.5455  1.1304
  507MOL0     H69957   6.870   8.795   3.100  0.1316 -0.8272  1.8092
  507MOL0     H69958   6.983   9.071   3.132 -0.1251  0.6036 -0.7567
  507MOL0     H69959   7.000   8.986   2.973  0.1147 -0.8671 -0.5465
  507MOL0     H69960   6.736   9.056   3.111 -0.4035 -1.0453 -0.2847
  507MOL0     H69961   6.761   8.966   2.960 -0.1550  0.2765  0.0426
  507MOL0     H69962   6.842   9.368   2.845  0.0236 -0.8979  0.5212
  507MOL0     H69963   7.364   9.034   3.247  0.3484 -0.2576  3.1290
  507MOL0     H69964   7.680   9.062   3.217  1.5714 -0.9276 -0.3340
  507MOL0     H69965   7.582   9.095   3.364  0.8520 -0.2951 -0.7130
  507MOL0     H69966   7.705   8.981   3.373 -1.0327 -0.8859  0.2809
  508MOL0     O69967  10.738  10.265   1.467  0.1073  0.8872 -0.7461
  508MOL0     C69968  10.617  10.293   1.442 -0.8304 -0.1831  0.1369
  508MOL0     O69969  10.544  10.229   1.346 -0.4945  0.1927 -0.0156
  508MOL0     C69970  10.579  10.114   1.277 -0.0255 -0.0371 -0.4814
  508MOL0     C69971  10.545  10.086   1.143 -0.3365  0.9910  0.0429
  508MOL0     C69972  10.600   9.973   1.078 -0.4027 -0.4205  0.1030
  508MOL0     C69973  10.678   9.873   1.141  0.3786  0.4186  0.1897
  508MOL0     O69974  10.732   9.764   1.070 -0.0379 -0.0011  0.5841
  508MOL0     C69975  10.637   9.674   1.017  0.0419  0.7617 -0.1993
  508MOL0     C69976  10.577   9.578   1.122  0.2411 -0.1528 -0.1706
  508MOL0     C69977  10.470   9.496   1.062  1.0931 -0.4165  0.2297
  508MOL0     C69978  10.387   9.425   1.163 -1.1319 -0.0875  0.1559
  508MOL0     C69979  10.287   9.337   1.097  0.0374 -0.1675 -0.6045
  508MOL0     C69980  10.224   9.248   1.194 -0.0836  0.0049 -0.2349
  508MOL0     C69981  10.152   9.320   1.311 -0.2858 -0.1837  0.3629
  508MOL0     C69982  10.035   9.421   1.268 -0.0312 -0.0241 -0.2049
  508MOL0     N69983   9.932   9.358   1.192 -0.2165 -0.4345  0.1926
  508MOL0     C69984   9.895   9.226   1.210  0.9416 -0.1725  0.7863
  508MOL0     C69985   9.806   9.209   1.111  0.8660 -0.3340 -0.0321
  508MOL0     C69986   9.739   9.083   1.063  0.7703 -0.2563  0.1794
  508MOL0     C69987   9.818   9.000   0.959  0.0304  0.6641  0.0708
  508MOL0     C69988   9.944   8.940   1.021  0.3604  0.6129 -0.3816
  508MOL0     C69989  10.015   8.854   0.911 -0.8634 -0.4386  0.4791
  508MOL0     O69990  10.147   8.829   0.943 -0.4035 -0.4199 -0.3702
  508MOL0     C69991  10.251   8.912   0.896  0.0896  0.1642 -0.0506
  508MOL0     C69992  10.229   9.041   0.841 -0.0920  0.7640 -0.5173
  508MOL0     C69993  10.335   9.123   0.800 -0.8504 -0.3286  0.4063
  508MOL0     C69994  10.292   9.258   0.741 -0.6003  0.0896 -0.2903
  508MOL0     C69995  10.463   9.073   0.804  0.6606 -0.9366 -0.6500
  508MOL0     C69996  10.594   9.157   0.783  0.4146 -0.1207 -0.2455
  508MOL0     O69997  10.708   9.087   0.783  0.0303  0.0875  0.4300
  508MOL0     C69998  10.818   9.142   0.735 -0.0156  0.1350 -0.2458
  508MOL0     C69999  10.858   9.112   0.602 -0.0083  0.1760 -0.1336
  508MOL0     C70000  10.974   9.159   0.547  0.0277  0.7381 -0.2963
  508MOL0     C70001  11.042   9.258   0.618  0.1326 -0.0301  0.3225
  508MOL0     O70002  11.150   9.317   0.549  0.7321  0.1638 -0.4014
  508MOL0     C70003  11.226   9.418   0.608 -0.1141 -0.1995  0.2551
  508MOL0     C70004  11.373   9.413   0.541  0.5623  0.2552 -0.7795
  508MOL0     C70005  11.481   9.507   0.606  0.4715 -0.5554  0.4325
  508MOL0     C70006  11.525   9.462   0.750  0.6615 -0.3870 -0.2335
  508MOL0     C70007  11.647   9.542   0.793 -0.4077 -0.0023  0.9740
  508MOL0     C70008  11.717   9.472   0.913  0.6903 -0.4028  0.7009
  508MOL0     C70009  11.838   9.557   0.948  0.3032 -0.5386 -0.3868
  508MOL0     C70010  11.931   9.505   1.051  0.1319  0.2697 -0.1978
  508MOL0    Cl70011  12.070   9.614   1.086  0.4071 -0.0577  0.5836
  508MOL0     C70012  11.009   9.298   0.750 -0.6666  0.8087 -0.3547
  508MOL0     C70013  10.898   9.239   0.809  1.3045  0.6025  0.1596
  508MOL0     O70014  10.582   9.277   0.765  0.4182 -0.2972  0.0092
  508MOL0     C70015  10.484   8.951   0.861  0.2292 -0.0098  0.6930
  508MOL0     C70016  10.383   8.860   0.903 -0.4150 -0.4116 -0.1293
  508MOL0     N70017   9.808   9.319   1.029  0.4419 -0.3917  0.3485
  508MOL0     N70018   9.884   9.409   1.072  0.4433  0.1282 -0.1812
  508MOL0     C70019  10.704   9.898   1.279 -0.1762 -0.1013 -0.2990
  508MOL0     C70020  10.662  10.014   1.343 -0.2079  0.2955  0.4135
  508MOL0     C70021  10.544  10.402   1.524 -0.1119  0.1678  0.1446
  508MOL0     C70022  10.412  10.435   1.484 -0.2231  0.3444  0.2131
  508MOL0     C70023  10.321  10.508   1.563  0.7326 -0.2632  0.5735
  508MOL0     C70024  10.369  10.562   1.681  0.5697 -0.0265  0.4983
  508MOL0     O70025  10.295  10.647   1.755  0.0401 -0.3072  0.2185
  508MOL0     C70026  10.173  10.701   1.711  0.1006  0.2597  0.0030
  508MOL0     C70027  10.118  10.813   1.802  0.5393  0.0285 -0.1537
  508MOL0     C70028  10.215  10.936   1.833  0.1835 -0.1791 -0.7381
  508MOL0     C70029  10.280  11.000   1.705 -0.2731 -0.4293 -0.0418
  508MOL0     C70030  10.379  11.097   1.749  0.1374 -0.7866 -0.3451
  508MOL0     C70031  10.462  11.180   1.772  0.3010  0.0717 -0.6899
  508MOL0     C70032  10.496  10.533   1.727 -0.4584  0.1436 -0.9803
  508MOL0     C70033  10.585  10.456   1.653 -0.3837  0.4645 -0.8268
  508MOL0     C70034  10.730  10.433   1.712 -0.1771  0.7530 -0.3796
  508MOL0     H70035  10.490  10.163   1.091 -1.4051  0.4122  0.2904
  508MOL0     H70036  10.580   9.975   0.971  1.0597  0.4369 -0.1849
  508MOL0     H70037  10.677   9.624   0.928 -1.5412 -3.9625  1.4408
  508MOL0     H70038  10.545   9.725   0.987 -2.3861 -0.9741  3.6298
  508MOL0     H70039  10.651   9.507   1.160  0.0686 -1.2521 -1.7987
  508MOL0     H70040  10.537   9.643   1.201  0.1326 -2.1388  1.4874
  508MOL0     H70041  10.405   9.559   1.000  1.6214  1.2752  1.3413
  508MOL0     H70042  10.519   9.420   1.000  0.3356 -1.0874  0.4396
  508MOL0     H70043  10.455   9.371   1.231 -0.2736  1.3658  0.4961
  508MOL0     H70044  10.340   9.502   1.224  0.7536  1.5076 -0.2982
  508MOL0     H70045  10.331   9.270   1.022 -0.1554 -3.4197  1.9808
  508MOL0     H70046  10.212   9.393   1.041 -1.1938  0.3721  1.5077
  508MOL0     H70047  10.152   9.178   1.152  0.5450  0.4883 -2.2016
  508MOL0     H70048  10.304   9.187   1.236  2.2291  0.9735 -2.9262
  508MOL0     H70049  10.223   9.371   1.378  0.1668  2.1287 -1.7246
  508MOL0     H70050  10.108   9.242   1.374  0.2427  0.4485  1.5708
  508MOL0     H70051   9.985   9.463   1.356 -3.3796  2.5548 -2.9875
  508MOL0     H70052  10.079   9.497   1.203 -1.4742 -1.3916 -2.9701
  508MOL0     H70053   9.928   9.159   1.289  1.8003  1.1955  1.6171
  508MOL0     H70054   9.640   9.121   1.035  1.0232 -0.2491 -0.7298
  508MOL0     H70055   9.716   9.005   1.137  0.7175 -0.2739  0.1441
  508MOL0     H70056   9.749   8.923   0.925  1.4662 -1.1365  1.0200
  508MOL0     H70057   9.842   9.060   0.871  0.6280 -0.6938 -0.7086
  508MOL0     H70058  10.015   9.013   1.058  1.6962 -1.3929  1.2054
  508MOL0     H70059   9.912   8.877   1.104  1.6429  2.9117  1.9886
  508MOL0     H70060   9.966   8.758   0.895 -0.9937 -0.0184 -2.1822
  508MOL0     H70061  10.009   8.901   0.812  0.0160 -1.4826 -0.0911
  508MOL0     H70062  10.129   9.079   0.831 -0.1786  1.6571  2.6558
  508MOL0     H70063  10.362   9.291   0.663 -2.0986  3.8315 -0.2783
  508MOL0     H70064  10.302   9.341   0.811  1.2538 -1.0826  0.8988
  508MOL0     H70065  10.187   9.262   0.710 -1.5148  0.2567  2.5364
  508MOL0     H70066  10.799   9.038   0.549  2.9559 -1.5444 -1.3210
  508MOL0     H70067  10.998   9.117   0.449 -1.5043 -0.8346 -0.0623
  508MOL0     H70068  11.172   9.509   0.583 -0.2539  0.1232  1.6620
  508MOL0     H70069  11.241   9.405   0.716  0.5821 -3.6006 -0.1245
  508MOL0     H70070  11.411   9.311   0.554 -0.8989 -0.4207 -1.6204
  508MOL0     H70071  11.357   9.435   0.436  0.9867  1.8326 -0.5320
  508MOL0     H70072  11.430   9.603   0.610  0.3582 -0.4864 -1.6006
  508MOL0     H70073  11.566   9.519   0.539  1.2467  0.1448  1.5204
  508MOL0     H70074  11.552   9.357   0.735  0.3537 -0.4629 -0.2477
  508MOL0     H70075  11.441   9.470   0.818  1.2842  1.7144  0.3548
  508MOL0     H70076  11.713   9.551   0.705  0.0191  1.7867  1.4341
  508MOL0     H70077  11.613   9.644   0.808  1.6487  1.4750 -2.8098
  508MOL0     H70078  11.737   9.368   0.886 -1.3543 -0.3062 -1.4146
  508MOL0     H70079  11.648   9.477   0.998  1.3673  1.3098  1.2130
  508MOL0     H70080  11.798   9.650   0.989  2.4697 -0.3992  1.5891
  508MOL0     H70081  11.900   9.572   0.859  2.4014 -0.4232  1.0216
  508MOL0     H70082  11.966   9.405   1.024 -0.4791 -0.5016  1.7050
  508MOL0     H70083  11.876   9.483   1.143  2.0237 -0.5505  0.8107
  508MOL0     H70084  11.059   9.366   0.819 -1.2505 -0.9515  1.9377
  508MOL0     H70085  10.865   9.266   0.909 -2.4846  0.6159 -0.9673
  508MOL0     H70086  10.581   8.905   0.878 -1.1207 -3.2510  0.3215
  508MOL0     H70087  10.403   8.758   0.935 -2.5573 -0.6295  0.6486
  508MOL0     H70088  10.766   9.825   1.330  1.5475 -0.2943 -2.5036
  508MOL0     H70089  10.672  10.029   1.450 -1.4729 -0.7134  0.6989
  508MOL0     H70090  10.372  10.394   1.392  0.2353  0.3023  0.0262
  508MOL0     H70091  10.219  10.528   1.529 -0.6227 -1.7293  3.4275
  508MOL0     H70092  10.180  10.738   1.608 -0.0621  0.5636  0.0969
  508MOL0     H70093  10.090  10.630   1.709  1.6059 -1.5440 -1.5655
  508MOL0     H70094  10.103  10.763   1.898 -0.0953  3.0858  1.4551
  508MOL0     H70095  10.029  10.856   1.753  1.6406 -0.3526 -2.6681
  508MOL0     H70096  10.153  11.016   1.872 -0.0961 -0.5118 -0.4874
  508MOL0     H70097  10.295  10.899   1.899  0.0114 -0.6613 -0.7935
  508MOL0     H70098  10.207  11.049   1.640 -1.5633 -1.7570  0.3528
  508MOL0     H70099  10.335  10.925   1.648  0.2362 -0.8305  0.9600
  508MOL0     H70100  10.525  11.266   1.782  0.2106  0.0256  0.4210
  508MOL0     H70101  10.520  10.583   1.820 -1.3066  1.0878 -1.2483
  508MOL0     H70102  10.813  10.481   1.659  0.3242  0.7284  0.3677
  508MOL0     H70103  10.730  10.464   1.817 -2.3892  0.3817 -0.2274
  508MOL0     H70104  10.772  10.332   1.709  0.3633  0.9171  0.7927
  509MOL0     O70105   8.674   8.567   7.895 -0.3922 -0.0158  0.3327
  509MOL0     C70106   8.578   8.636   7.879  0.7905 -0.2682 -0.7817
  509MOL0     O70107   8.568   8.751   7.799 -0.3334 -0.0307 -0.0389
  509MOL0     C70108   8.676   8.792   7.726  0.0578 -0.8716  0.4466
  509MOL0     C70109   8.781   8.712   7.679 -0.3089 -0.2785  0.4472
  509MOL0     C70110   8.889   8.771   7.613 -0.3251 -0.2400  0.0741
  509MOL0     C70111   8.882   8.909   7.576  0.0976 -0.2692 -0.6289
  509MOL0     O70112   8.993   8.970   7.522 -0.1150  0.6135 -0.2969
  509MOL0     C70113   9.041   8.915   7.400  0.1894 -0.5826  0.3073
  509MOL0     C70114   9.176   8.854   7.416  0.1198 -0.7195  0.4411
  509MOL0     C70115   9.288   8.954   7.459  0.1205 -0.3484 -0.1079
  509MOL0     C70116   9.422   8.938   7.390  0.1125 -0.1052 -0.5002
  509MOL0     C70117   9.540   9.008   7.459  0.5730  0.6281  0.2914
  509MOL0     C70118   9.665   8.934   7.436 -0.7609  0.3208  0.0151
  509MOL0     C70119   9.791   9.006   7.496 -0.1734  0.6537 -0.5380
  509MOL0     C70120   9.916   8.912   7.487  0.0964  0.0205 -0.3297
  509MOL0     N70121  10.055   8.983   7.480  0.7911  0.4276 -0.2131
  509MOL0     C70122  10.080   9.103   7.418  0.3901 -0.2028 -0.2509
  509MOL0     C70123  10.192   9.145   7.480  0.3482  1.1942  0.7671
  509MOL0     C70124  10.252   9.283   7.473  0.3847  0.5083 -0.0718
  509MOL0     C70125  10.306   9.313   7.327  0.0645 -0.6596  0.0882
  509MOL0     C70126  10.389   9.442   7.336 -0.1725 -0.6944  0.6890
  509MOL0     C70127  10.435   9.491   7.200  0.0092  0.4426  0.9378
  509MOL0     O70128  10.544   9.422   7.158  0.8804 -0.2880  0.6380
  509MOL0     C70129  10.665   9.440   7.220 -0.4326  0.8345 -0.6366
  509MOL0     C70130  10.759   9.534   7.199 -0.9282  0.2953  1.3822
  509MOL0     C70131  10.886   9.535   7.250  0.3156  0.6618 -0.4113
  509MOL0     C70132  10.991   9.633   7.208  0.2149 -0.4838 -0.0416
  509MOL0     C70133  10.913   9.438   7.347 -0.1250 -0.4048 -0.5833
  509MOL0     C70134  11.043   9.423   7.409 -0.5245  0.5985 -0.5923
  509MOL0     O70135  11.151   9.397   7.338 -0.4378  0.7075  0.7988
  509MOL0     C70136  11.276   9.384   7.392  0.5625  1.2101 -0.8017
  509MOL0     C70137  11.336   9.462   7.494  0.2351  0.2658 -0.4785
  509MOL0     C70138  11.469   9.445   7.520 -0.4853  0.2532 -0.2249
  509MOL0     C70139  11.547   9.344   7.463 -1.1269  0.2848  0.2742
  509MOL0     O70140  11.680   9.339   7.501  0.0499  0.3009  0.1717
  509MOL0     C70141  11.771   9.270   7.412  0.1461 -0.5307 -0.3155
  509MOL0     C70142  11.918   9.330   7.426 -0.3213 -0.4167 -0.1669
  509MOL0     C70143  11.996   9.311   7.297 -0.6130  0.0367 -0.2589
  509MOL0     C70144  12.123   9.399   7.296 -0.1188  0.7692 -0.3954
  509MOL0     C70145  12.238   9.368   7.196 -0.8250 -0.3019 -0.3948
  509MOL0     C70146  12.357   9.280   7.250 -0.1601  0.7032  0.5859
  509MOL0     C70147  12.440   9.336   7.361  0.0319 -0.5850 -1.0683
  509MOL0     C70148  12.535   9.246   7.438 -0.0645  0.0946 -0.2342
  509MOL0    Cl70149  12.675   9.349   7.490 -0.4519 -0.0608 -0.1795
  509MOL0     C70150  11.482   9.260   7.364 -0.0478  0.1159 -0.0441
  509MOL0     C70151  11.351   9.292   7.323 -0.4014  0.2744 -0.3751
  509MOL0     O70152  11.053   9.439   7.528 -0.0656 -0.0391 -0.5605
  509MOL0     C70153  10.827   9.333   7.370  0.2179 -0.2481 -1.0146
  509MOL0     C70154  10.699   9.343   7.310 -0.5167  0.6577 -0.3120
  509MOL0     N70155  10.240   9.035   7.556 -0.5931 -1.1537  0.2012
  509MOL0     N70156  10.158   8.942   7.563 -0.2738 -0.5890 -0.0459
  509MOL0     C70157   8.774   8.989   7.617 -0.1530 -0.2542  0.2154
  509MOL0     C70158   8.674   8.931   7.701  0.4678  0.1846 -0.3077
  509MOL0     C70159   8.463   8.620   7.975 -0.4887 -0.7147  0.8732
  509MOL0     C70160   8.406   8.740   8.019 -0.3672  0.1381  0.3331
  509MOL0     C70161   8.287   8.737   8.099 -0.5790  0.0260 -0.2886
  509MOL0     C70162   8.227   8.615   8.136  0.2457 -0.1247  0.1714
  509MOL0     O70163   8.116   8.635   8.210  0.2494  0.3609  0.3048
  509MOL0     C70164   8.055   8.527   8.282  0.4688 -1.1573 -0.2927
  509MOL0     C70165   7.966   8.446   8.181 -0.9992  0.6630 -0.8301
  509MOL0     C70166   7.877   8.547   8.101 -0.3688 -0.0190  0.7257
  509MOL0     C70167   7.773   8.459   8.021  0.0025 -0.0328 -0.5934
  509MOL0     C70168   7.701   8.530   7.922 -0.0944  0.2055  0.5289
  509MOL0     C70169   7.638   8.584   7.842  0.2202 -0.1075  0.3548
  509MOL0     C70170   8.286   8.498   8.101  0.3000 -0.6377  0.8885
  509MOL0     C70171   8.408   8.493   8.016  0.6732  0.4566 -0.1798
  509MOL0     C70172   8.460   8.361   7.979  0.6532 -0.7982  0.4547
  509MOL0     H70173   8.785   8.605   7.694  2.9641 -0.5881 -1.5849
  509MOL0     H70174   8.978   8.716   7.585 -1.3674 -1.8380 -0.2227
  509MOL0     H70175   9.056   8.995   7.327  0.6002  0.2758  1.3049
  509MOL0     H70176   8.971   8.840   7.362  1.1264 -1.2623 -0.1186
  509MOL0     H70177   9.176   8.771   7.488  0.7213 -1.6710 -0.6153
  509MOL0     H70178   9.198   8.804   7.321  0.9908  1.5570 -0.6186
  509MOL0     H70179   9.270   9.062   7.457  3.3354  0.3688  1.9638
  509MOL0     H70180   9.293   8.935   7.566 -2.4152 -0.3842  0.0635
  509MOL0     H70181   9.440   8.830   7.383 -0.8025 -0.2363 -1.0186
  509MOL0     H70182   9.403   8.963   7.285 -2.1856  0.8420  0.0835
  509MOL0     H70183   9.529   9.012   7.568  3.7379 -1.3194  0.8356
  509MOL0     H70184   9.554   9.113   7.431 -1.5174  0.9432  0.2847
  509MOL0     H70185   9.672   8.830   7.469  2.8514  0.1920 -0.7363
  509MOL0     H70186   9.666   8.936   7.327 -1.6759  1.7778  0.0121
  509MOL0     H70187   9.777   9.037   7.600 -2.6535  0.0384 -0.6472
  509MOL0     H70188   9.820   9.090   7.432  2.1000  1.4612  1.4130
  509MOL0     H70189   9.922   8.845   7.573  1.8610  0.0646 -0.3845
  509MOL0     H70190   9.919   8.855   7.394 -0.9401 -0.3240 -0.1628
  509MOL0     H70191  10.009   9.170   7.370 -1.2787 -0.8498  1.1820
  509MOL0     H70192  10.334   9.292   7.545 -1.3026  0.7530  1.9118
  509MOL0     H70193  10.176   9.356   7.501 -1.4024 -0.8336 -1.1810
  509MOL0     H70194  10.367   9.229   7.291 -0.4147 -0.5036 -1.1161
  509MOL0     H70195  10.234   9.322   7.246  0.5772  0.8873 -0.2405
  509MOL0     H70196  10.327   9.527   7.365  1.9115  2.0978 -2.3442
  509MOL0     H70197  10.470   9.434   7.409  0.5227 -2.0880 -0.1683
  509MOL0     H70198  10.355   9.477   7.126  0.6971 -0.0801  0.2803
  509MOL0     H70199  10.466   9.596   7.200 -2.3935  1.2371 -0.6385
  509MOL0     H70200  10.740   9.609   7.123 -2.0181 -1.8968 -0.6673
  509MOL0     H70201  11.083   9.596   7.162 -0.0829  0.6247 -1.5849
  509MOL0     H70202  11.023   9.694   7.293 -2.0603  1.0431 -0.1904
  509MOL0     H70203  10.946   9.703   7.137 -1.3303  0.3941  1.6894
  509MOL0     H70204  11.280   9.536   7.551  0.7618 -0.2898  0.7995
  509MOL0     H70205  11.525   9.508   7.588  1.3373 -1.7226  0.2245
  509MOL0     H70206  11.770   9.162   7.428 -1.5098 -0.3896  0.7441
  509MOL0     H70207  11.727   9.278   7.312 -0.9674  0.6436  0.2328
  509MOL0     H70208  11.910   9.434   7.457  2.8748  0.0596 -0.6386
  509MOL0     H70209  11.965   9.269   7.504  0.5310  1.0800  0.5339
  509MOL0     H70210  11.942   9.328   7.204  1.2064 -1.8483 -1.7585
  509MOL0     H70211  12.024   9.205   7.292 -0.1443  0.2205 -2.5145
  509MOL0     H70212  12.162   9.410   7.397 -0.5485 -2.2467  0.1752
  509MOL0     H70213  12.089   9.498   7.265  1.2777  2.3194  2.5606
  509MOL0     H70214  12.188   9.320   7.111  0.7010 -0.9180 -0.9690
  509MOL0     H70215  12.267   9.469   7.166 -2.0736  0.2728  0.2681
  509MOL0     H70216  12.426   9.262   7.168  1.1482  0.4463  1.7024
  509MOL0     H70217  12.307   9.186   7.278  1.4105  0.2236  1.9565
  509MOL0     H70218  12.368   9.382   7.430 -1.8727 -3.3452 -1.0669
  509MOL0     H70219  12.483   9.425   7.314 -4.5258  1.1722 -2.5082
  509MOL0     H70220  12.570   9.165   7.373 -0.3443  0.4381 -0.8165
  509MOL0     H70221  12.481   9.210   7.527 -1.5798 -0.1237 -1.2186
  509MOL0     H70222  11.532   9.187   7.301  2.4297  2.3891 -0.8805
  509MOL0     H70223  11.315   9.233   7.239 -0.5149 -0.3809  0.1297
  509MOL0     H70224  10.848   9.251   7.437  0.9283 -1.7555 -2.9931
  509MOL0     H70225  10.636   9.258   7.335  1.1815 -0.0554  1.8496
  509MOL0     H70226   8.765   9.092   7.584  1.6381 -0.7291 -1.9982
  509MOL0     H70227   8.593   8.992   7.741  0.0321 -0.9252  0.5538
  509MOL0     H70228   8.445   8.836   7.987 -2.5152  0.1998 -2.6164
  509MOL0     H70229   8.238   8.830   8.125 -1.9858 -0.1852 -2.0099
  509MOL0     H70230   8.123   8.467   8.342 -0.2871  0.4729  2.3965
  509MOL0     H70231   7.983   8.566   8.356  2.6235  1.2888  0.6727
  509MOL0     H70232   7.898   8.376   8.231 -1.4923  1.2731 -0.6403
  509MOL0     H70233   8.033   8.390   8.115  0.5435  0.8877  0.4923
  509MOL0     H70234   7.835   8.618   8.174  1.3955  2.1824 -0.2537
  509MOL0     H70235   7.952   8.593   8.036 -0.3162  1.2955  1.6632
  509MOL0     H70236   7.710   8.414   8.099  1.3093 -0.8969  0.0100
  509MOL0     H70237   7.826   8.379   7.969  2.2641 -0.1233  1.6491
  509MOL0     H70238   7.583   8.640   7.769 -3.6709 -0.3842  2.7838
  509MOL0     H70239   8.236   8.412   8.142 -4.5763  1.2565 -0.3576
  509MOL0     H70240   8.523   8.307   8.050 -0.1473 -2.4772 -0.0528
  509MOL0     H70241   8.369   8.300   7.976 -2.2416  3.1729 -1.6595
  509MOL0     H70242   8.502   8.360   7.878 -0.2003 -0.9971  0.0866
  510MOL0     O70243   1.932   7.635   1.480 -0.4749 -0.2960 -0.5827
  510MOL0     C70244   1.890   7.527   1.523 -0.1725  0.3725  0.0867
  510MOL0     O70245   1.966   7.410   1.543 -0.3291 -0.3636 -0.4789
  510MOL0     C70246   2.097   7.429   1.514  0.4789  0.7440 -0.3951
  510MOL0     C70247   2.183   7.420   1.622  0.3287 -0.1998 -0.2263
  510MOL0     C70248   2.319   7.433   1.602  0.2405 -0.2125 -0.7669
  510MOL0     C70249   2.373   7.457   1.474 -0.4087  0.2803  1.3813
  510MOL0     O70250   2.508   7.462   1.447  0.8790 -0.1311 -0.6341
  510MOL0     C70251   2.598   7.370   1.506 -0.3846  0.6394 -0.5710
  510MOL0     C70252   2.746   7.408   1.466  0.1226  0.1307  0.2632
  510MOL0     C70253   2.850   7.336   1.558  0.3293 -0.2546 -0.4947
  510MOL0     C70254   2.995   7.362   1.510 -0.2876  0.0302  0.6007
  510MOL0     C70255   3.093   7.297   1.617  1.0352  0.5697 -0.6412
  510MOL0     C70256   3.247   7.318   1.585  1.1270  0.1576  0.5531
  510MOL0     C70257   3.342   7.231   1.657  0.0475 -0.2697 -0.4928
  510MOL0     C70258   3.397   7.276   1.793 -0.3973 -0.0072 -0.3000
  510MOL0     N70259   3.495   7.170   1.830  0.6911  0.3672  0.0265
  510MOL0     C70260   3.473   7.045   1.879  0.1853  0.3119 -0.0272
  510MOL0     C70261   3.584   6.970   1.867  0.2071  0.5547  0.2211
  510MOL0     C70262   3.591   6.825   1.913 -0.0154  0.1930 -0.0529
  510MOL0     C70263   3.697   6.803   2.020 -0.5273 -0.9643  0.1298
  510MOL0     C70264   3.833   6.799   1.956 -0.7858 -0.0952 -0.0802
  510MOL0     C70265   3.945   6.760   2.057  0.8553  0.5351  0.6463
  510MOL0     O70266   4.063   6.751   1.973  0.2795 -0.0968 -0.1415
  510MOL0     C70267   4.180   6.715   2.027  0.8918 -0.9321  0.6901
  510MOL0     C70268   4.192   6.627   2.136 -0.3925 -0.6471 -0.4590
  510MOL0     C70269   4.314   6.589   2.192  0.1564 -0.3413  0.0737
  510MOL0     C70270   4.326   6.502   2.311  1.1261 -0.5881  0.0340
  510MOL0     C70271   4.428   6.631   2.122  0.4452 -0.4951 -0.4719
  510MOL0     C70272   4.560   6.622   2.189  0.1429 -0.4397 -0.3196
  510MOL0     O70273   4.554   6.669   2.312 -0.8190  0.2496  0.1438
  510MOL0     C70274   4.672   6.653   2.384 -0.1664 -0.3526 -0.3824
  510MOL0     C70275   4.707   6.522   2.411 -0.3238 -0.5104  0.0797
  510MOL0     C70276   4.826   6.504   2.486 -0.1465 -0.9897 -0.0905
  510MOL0     C70277   4.904   6.616   2.534 -0.3587 -0.1116 -0.4028
  510MOL0     O70278   5.004   6.585   2.619 -0.1425 -1.1404 -0.4083
  510MOL0     C70279   5.136   6.658   2.616  0.3446  0.2266 -0.8375
  510MOL0     C70280   5.228   6.567   2.683 -0.8036  0.3597  0.3984
  510MOL0     C70281   5.360   6.624   2.737  0.6578 -0.0627 -0.6265
  510MOL0     C70282   5.426   6.543   2.843 -0.4272  0.4562 -0.1935
  510MOL0     C70283   5.506   6.421   2.787 -0.0743  0.2639  0.6649
  510MOL0     C70284   5.604   6.355   2.886  0.7500  0.1115 -0.1532
  510MOL0     C70285   5.696   6.264   2.806  0.5974 -0.6240 -0.2293
  510MOL0     C70286   5.770   6.177   2.903 -0.3460 -0.5351 -0.3941
  510MOL0    Cl70287   5.858   6.065   2.788  0.3853 -0.3476  0.2320
  510MOL0     C70288   4.858   6.738   2.496  0.3363  0.6553 -0.0041
  510MOL0     C70289   4.749   6.759   2.425 -0.3378  0.5553 -0.1749
  510MOL0     O70290   4.662   6.586   2.130  0.8504  0.3079  0.6255
  510MOL0     C70291   4.417   6.710   2.007 -0.1702  0.2928  0.7222
  510MOL0     C70292   4.290   6.755   1.963 -0.2205 -0.7754 -0.6187
  510MOL0     N70293   3.677   7.062   1.816 -0.3854 -0.0993 -0.3017
  510MOL0     N70294   3.623   7.173   1.786  0.6630 -0.3636 -1.1236
  510MOL0     C70295   2.283   7.479   1.367  0.3430 -0.2243 -0.2284
  510MOL0     C70296   2.147   7.456   1.384 -0.0030  0.5352 -1.0604
  510MOL0     C70297   1.748   7.526   1.567  0.0498  0.3434  0.0995
  510MOL0     C70298   1.704   7.416   1.648  0.4790  0.2363 -0.1995
  510MOL0     C70299   1.578   7.415   1.710  0.0161  0.7847  0.2768
  510MOL0     C70300   1.476   7.519   1.693 -1.0150  0.2387 -0.1300
  510MOL0     O70301   1.350   7.506   1.752  0.1583  0.4403  0.1572
  510MOL0     C70302   1.251   7.610   1.744 -1.0119 -0.7885  0.1911
  510MOL0     C70303   1.126   7.557   1.811 -0.1573 -0.3915  0.2010
  510MOL0     C70304   1.034   7.669   1.818 -0.1029 -0.7751 -0.0365
  510MOL0     C70305   0.903   7.618   1.876 -0.9248  0.7913 -0.9776
  510MOL0     C70306   0.797   7.718   1.900 -0.3519 -0.2363  0.0582
  510MOL0     C70307   0.702   7.793   1.920 -0.2850 -1.1354  0.2265
  510MOL0     C70308   1.518   7.626   1.616 -0.1881  0.0957 -0.6189
  510MOL0     C70309   1.644   7.627   1.545  0.6654  0.0668  0.2724
  510MOL0     C70310   1.673   7.744   1.457  0.5483 -0.0507 -0.1427
  510MOL0     H70311   2.139   7.414   1.721  1.1612  2.4065  0.3875
  510MOL0     H70312   2.386   7.432   1.687 -0.3187 -0.5040 -0.3287
  510MOL0     H70313   2.576   7.267   1.478  0.7274  0.4127 -0.6703
  510MOL0     H70314   2.602   7.373   1.615 -2.6796  0.0262 -0.4258
  510MOL0     H70315   2.762   7.383   1.361 -0.9190  0.9805 -0.1160
  510MOL0     H70316   2.763   7.514   1.487  1.8438 -0.0666  0.0546
  510MOL0     H70317   2.820   7.363   1.660 -2.2834 -1.5950 -0.8259
  510MOL0     H70318   2.823   7.230   1.556 -2.5032  0.3641  0.0710
  510MOL0     H70319   2.993   7.313   1.413  0.8649 -0.1014  0.6307
  510MOL0     H70320   3.026   7.466   1.501 -0.8867  0.1564 -0.0568
  510MOL0     H70321   3.076   7.190   1.606 -1.2212  0.8720 -0.4437
  510MOL0     H70322   3.069   7.323   1.720 -2.2605 -0.9979 -0.8748
  510MOL0     H70323   3.251   7.301   1.477 -0.8574 -0.3556  0.5247
  510MOL0     H70324   3.262   7.426   1.593 -0.5795  0.4501  0.3307
  510MOL0     H70325   3.427   7.222   1.588 -1.0313 -0.9488 -1.7650
  510MOL0     H70326   3.313   7.126   1.663  0.3944 -0.2947  2.9012
  510MOL0     H70327   3.458   7.365   1.775 -1.4801  0.0092 -5.1618
  510MOL0     H70328   3.320   7.291   1.870 -1.2019  2.0832 -1.4429
  510MOL0     H70329   3.381   7.005   1.921  0.8873 -1.4250 -0.0664
  510MOL0     H70330   3.615   6.768   1.822  1.1790  2.0300 -0.9481
  510MOL0     H70331   3.497   6.798   1.962  0.6615 -2.8957 -0.2492
  510MOL0     H70332   3.680   6.883   2.092 -1.3231  0.0320 -1.1126
  510MOL0     H70333   3.689   6.708   2.074 -0.2817 -0.2773  1.4058
  510MOL0     H70334   3.814   6.717   1.885 -0.9209 -0.8006  0.7584
  510MOL0     H70335   3.857   6.893   1.906 -0.4055  0.7472  1.6093
  510MOL0     H70336   3.950   6.845   2.126  0.3995  1.3046 -0.2354
  510MOL0     H70337   3.929   6.676   2.124  2.5811  2.3472  3.5743
  510MOL0     H70338   4.103   6.587   2.182 -0.7274  1.8870  1.3183
  510MOL0     H70339   4.415   6.440   2.297 -0.0469 -2.6776  1.3335
  510MOL0     H70340   4.238   6.440   2.328 -0.5851  1.8684  0.6514
  510MOL0     H70341   4.348   6.562   2.400  0.6442  0.3113 -0.4344
  510MOL0     H70342   4.649   6.435   2.381  0.0925 -1.5685  2.1666
  510MOL0     H70343   4.858   6.403   2.506 -0.0567 -0.6860  1.3717
  510MOL0     H70344   5.172   6.672   2.514  0.3814  2.7559 -0.5588
  510MOL0     H70345   5.140   6.755   2.668  1.3123 -0.6457  0.7935
  510MOL0     H70346   5.172   6.521   2.765 -0.1205  0.1424  0.7461
  510MOL0     H70347   5.253   6.486   2.614 -0.7542  1.0788 -0.4434
  510MOL0     H70348   5.351   6.725   2.779 -1.0840 -0.2054 -0.5803
  510MOL0     H70349   5.425   6.634   2.650  2.5943 -0.6437  0.6983
  510MOL0     H70350   5.360   6.505   2.922  2.9731 -0.4895  2.4072
  510MOL0     H70351   5.499   6.605   2.895  1.1629 -2.0959  0.7923
  510MOL0     H70352   5.428   6.350   2.759 -0.5621  1.1507 -0.2695
  510MOL0     H70353   5.557   6.460   2.698  0.5582 -0.8706  0.5097
  510MOL0     H70354   5.542   6.294   2.953 -2.1507 -0.2789 -2.8950
  510MOL0     H70355   5.658   6.424   2.950 -0.8259  0.4541  0.8682
  510MOL0     H70356   5.760   6.323   2.740  2.0932 -0.7278  1.0968
  510MOL0     H70357   5.631   6.206   2.738 -0.2402 -2.0491  1.7022
  510MOL0     H70358   5.705   6.118   2.968  2.0587 -0.6076  2.1294
  510MOL0     H70359   5.851   6.225   2.961  0.1874 -1.1295 -0.6337
  510MOL0     H70360   4.906   6.829   2.529 -0.8547  1.1933  0.2681
  510MOL0     H70361   4.719   6.862   2.408  1.6305  1.3052  0.5839
  510MOL0     H70362   4.503   6.732   1.945  0.1683  0.1069  1.1231
  510MOL0     H70363   4.267   6.819   1.878  2.0483 -0.3998 -1.0289
  510MOL0     H70364   2.318   7.498   1.266  2.5703 -1.5928  0.2246
  510MOL0     H70365   2.069   7.461   1.308 -0.7275  1.3264 -0.2903
  510MOL0     H70366   1.767   7.332   1.677 -0.5220 -0.9690 -1.4377
  510MOL0     H70367   1.545   7.330   1.769 -0.5316  1.2219  0.6090
  510MOL0     H70368   1.290   7.701   1.790 -0.2311 -0.4119 -1.1676
  510MOL0     H70369   1.229   7.632   1.639 -2.5015 -2.6398  0.0531
  510MOL0     H70370   1.129   7.523   1.915 -3.6911  3.2564  1.7238
  510MOL0     H70371   1.092   7.472   1.752  0.0608 -0.2162 -0.1802
  510MOL0     H70372   1.075   7.755   1.872 -2.2377  1.7214 -2.1324
  510MOL0     H70373   1.014   7.704   1.717  0.5969  1.6305  0.5740
  510MOL0     H70374   0.924   7.571   1.973 -0.6008 -0.4257 -1.6135
  510MOL0     H70375   0.863   7.537   1.815 -1.5066 -0.4773  0.9932
  510MOL0     H70376   0.618   7.858   1.933  0.0112 -0.5849 -0.5305
  510MOL0     H70377   1.457   7.715   1.605 -2.2727 -0.9967  1.1505
  510MOL0     H70378   1.719   7.722   1.361 -0.7524  1.9685 -1.3085
  510MOL0     H70379   1.585   7.801   1.425 -1.2483 -2.4699  0.2338
  510MOL0     H70380   1.738   7.810   1.515 -2.2221  3.6106 -0.8128
  511MOL0     O70381   5.103   0.574   7.259 -0.2655  0.5998 -0.1614
  511MOL0     C70382   5.106   0.695   7.266  0.2557  1.0368  0.5618
  511MOL0     O70383   5.204   0.780   7.205  0.5453  0.3052 -0.3257
  511MOL0     C70384   5.322   0.716   7.192 -1.3890 -0.5492 -0.3579
  511MOL0     C70385   5.358   0.600   7.119  0.1599  0.6333  0.5574
  511MOL0     C70386   5.490   0.552   7.116  0.0501  0.3586 -1.0675
  511MOL0     C70387   5.591   0.617   7.189  0.2282  0.3385  0.3163
  511MOL0     O70388   5.716   0.564   7.195 -0.7808 -0.5942 -0.3229
  511MOL0     C70389   5.791   0.562   7.071 -0.8314 -0.2025 -0.1564
  511MOL0     C70390   5.929   0.497   7.092  0.5525  0.6224 -0.2970
  511MOL0     C70391   6.014   0.599   7.162 -0.5464  0.3542  0.1149
  511MOL0     C70392   6.155   0.545   7.190  0.3206  0.6946 -0.1005
  511MOL0     C70393   6.243   0.650   7.259 -0.3229 -0.3038 -0.7250
  511MOL0     C70394   6.355   0.581   7.337  0.3062 -0.4948  0.2251
  511MOL0     C70395   6.460   0.683   7.396  0.2673  0.3321  0.0261
  511MOL0     C70396   6.555   0.617   7.483  0.1921 -0.3357 -0.2719
  511MOL0     N70397   6.655   0.714   7.535 -0.5428  0.5007  0.0066
  511MOL0     C70398   6.788   0.694   7.517  0.1212 -0.0537 -0.0560
  511MOL0     C70399   6.848   0.808   7.563 -0.2119  0.7245 -0.4690
  511MOL0     C70400   6.998   0.823   7.573  0.6821  0.2526  0.4131
  511MOL0     C70401   7.048   0.774   7.708  0.4219  0.8161 -0.7358
  511MOL0     C70402   7.199   0.800   7.733 -0.1043  0.4256 -0.2212
  511MOL0     C70403   7.276   0.729   7.622 -1.0084 -0.0050  0.1320
  511MOL0     O70404   7.407   0.754   7.659 -0.1119 -0.4713  0.1053
  511MOL0     C70405   7.503   0.693   7.579  0.9867  0.2534 -0.0404
  511MOL0     C70406   7.493   0.678   7.445 -0.0471 -0.6919  0.0259
  511MOL0     C70407   7.599   0.631   7.368  0.1821 -0.2394  0.2584
  511MOL0     C70408   7.577   0.625   7.217  0.8114 -0.7809  0.2387
  511MOL0     C70409   7.715   0.579   7.425 -0.0073  0.0625 -0.8381
  511MOL0     C70410   7.820   0.502   7.360  0.8890 -0.1701  0.2542
  511MOL0     O70411   7.814   0.500   7.226 -0.0912 -0.4939  0.4651
  511MOL0     C70412   7.904   0.448   7.132  0.6489 -0.2833  0.8546
  511MOL0     C70413   7.880   0.493   6.999 -0.2457  1.2676  0.2572
  511MOL0     C70414   7.960   0.436   6.901  0.1916  0.4531  0.3055
  511MOL0     C70415   8.063   0.346   6.928 -0.4899  0.3699 -0.3217
  511MOL0     O70416   8.145   0.304   6.817 -0.3078 -0.6747  0.0716
  511MOL0     C70417   8.285   0.272   6.838 -0.0501 -0.5788 -0.3308
  511MOL0     C70418   8.360   0.274   6.701  0.6707 -0.4660  0.0586
  511MOL0     C70419   8.378   0.410   6.646  0.1355 -0.7944  0.0902
  511MOL0     C70420   8.446   0.389   6.508  0.1591 -0.3109  0.0628
  511MOL0     C70421   8.475   0.512   6.418 -0.0605  1.0968  0.4194
  511MOL0     C70422   8.537   0.637   6.484 -0.7504 -0.6352 -0.5643
  511MOL0     C70423   8.603   0.726   6.371  0.4687  0.9945 -0.3593
  511MOL0     C70424   8.687   0.846   6.424 -0.2905  0.0283 -0.0700
  511MOL0    Cl70425   8.801   0.790   6.552 -0.0570  0.2119 -0.1598
  511MOL0     C70426   8.087   0.308   7.060  0.1656  0.7281  0.0581
  511MOL0     C70427   8.005   0.361   7.163  0.1948 -0.3723 -0.6726
  511MOL0     O70428   7.892   0.434   7.431  0.7151 -0.2571 -0.0347
  511MOL0     C70429   7.724   0.598   7.567  0.3261  0.2146 -0.3279
  511MOL0     C70430   7.623   0.655   7.640  0.4278  1.0062 -0.1987
  511MOL0     N70431   6.756   0.883   7.624 -0.2282  0.0200 -0.9961
  511MOL0     N70432   6.644   0.820   7.618  0.2263 -0.1199  0.3225
  511MOL0     C70433   5.563   0.731   7.254  0.5707 -0.4882  0.1812
  511MOL0     C70434   5.434   0.782   7.252  0.6589  0.0326  0.3582
  511MOL0     C70435   4.975   0.759   7.304  0.4364 -0.7515 -0.1777
  511MOL0     C70436   4.943   0.884   7.247  0.1719 -0.3730  1.2128
  511MOL0     C70437   4.818   0.944   7.270  1.1816  0.2608  0.3230
  511MOL0     C70438   4.722   0.876   7.355  0.2512 -0.7957 -0.1871
  511MOL0     O70439   4.583   0.918   7.344  0.0938  0.4934  0.9709
  511MOL0     C70440   4.560   1.061   7.355  0.5138 -0.3854 -0.1712
  511MOL0     C70441   4.447   1.085   7.265  0.2225 -0.0542  0.5475
  511MOL0     C70442   4.317   1.003   7.279  0.7676  0.2124 -0.7232
  511MOL0     C70443   4.236   1.064   7.388 -0.3560 -0.7272 -0.7422
  511MOL0     C70444   4.116   0.980   7.392 -0.0364 -1.2010  0.0107
  511MOL0     C70445   4.007   0.928   7.400  0.0706 -0.3971  0.0150
  511MOL0     C70446   4.756   0.764   7.425 -0.1726 -0.4448  0.4001
  511MOL0     C70447   4.882   0.704   7.399 -0.1513 -0.3753  0.4698
  511MOL0     C70448   4.903   0.571   7.470 -0.3892 -0.0953  0.2790
  511MOL0     H70449   5.281   0.545   7.065  0.0071  1.4310 -0.0585
  511MOL0     H70450   5.519   0.469   7.053  1.3581 -0.0828  0.0817
  511MOL0     H70451   5.798   0.663   7.030 -2.9179 -0.2780 -0.8082
  511MOL0     H70452   5.733   0.498   7.004  0.4657  0.1583 -1.6935
  511MOL0     H70453   5.911   0.410   7.157  0.9811 -1.6095 -2.9918
  511MOL0     H70454   5.981   0.468   7.000  1.5606  0.2322  0.3800
  511MOL0     H70455   6.019   0.690   7.102  1.8925  0.1129 -0.1431
  511MOL0     H70456   5.963   0.629   7.254 -4.3775 -2.3319 -0.8738
  511MOL0     H70457   6.135   0.462   7.259  0.7176  0.7724  0.1141
  511MOL0     H70458   6.203   0.516   7.097 -0.6903  1.1614 -0.7834
  511MOL0     H70459   6.179   0.704   7.330  0.8519 -3.9676  3.6478
  511MOL0     H70460   6.283   0.722   7.188 -1.2213  2.3287  1.2737
  511MOL0     H70461   6.312   0.510   7.408 -0.8738 -1.6796 -1.6143
  511MOL0     H70462   6.404   0.517   7.263 -0.1678  2.2683 -2.6766
  511MOL0     H70463   6.399   0.761   7.443 -0.0010  0.8704 -1.1827
  511MOL0     H70464   6.517   0.730   7.315 -1.0713 -1.5204 -2.1300
  511MOL0     H70465   6.504   0.578   7.572  0.9732  1.2215  0.9058
  511MOL0     H70466   6.589   0.526   7.434  0.3711  0.7577 -2.2526
  511MOL0     H70467   6.835   0.605   7.473  1.4417 -0.4403  1.9930
  511MOL0     H70468   7.022   0.929   7.567 -2.3999  1.2951  3.1606
  511MOL0     H70469   7.047   0.773   7.489 -0.3824  2.6534 -1.7597
  511MOL0     H70470   6.983   0.818   7.784  0.0520 -0.8823 -0.0332
  511MOL0     H70471   7.025   0.667   7.712 -0.6381  1.0033 -1.4779
  511MOL0     H70472   7.199   0.909   7.729 -1.0945  0.4112 -1.1999
  511MOL0     H70473   7.238   0.757   7.825  0.7165  0.6333 -0.4666
  511MOL0     H70474   7.241   0.626   7.613  0.9207 -0.7210  0.2525
  511MOL0     H70475   7.258   0.776   7.525 -1.6559 -1.0253 -0.2594
  511MOL0     H70476   7.404   0.713   7.394  1.7577  1.2289 -1.9716
  511MOL0     H70477   7.577   0.525   7.173 -0.0505 -0.7766  0.2159
  511MOL0     H70478   7.656   0.687   7.175  1.8451 -2.6299 -0.6989
  511MOL0     H70479   7.486   0.681   7.194 -0.1657 -2.1455  0.6638
  511MOL0     H70480   7.793   0.553   6.978  0.1552  1.5949 -0.4958
  511MOL0     H70481   7.935   0.450   6.796 -0.9364 -0.8617  0.3712
  511MOL0     H70482   8.326   0.354   6.897  0.4485 -1.4381  0.5343
  511MOL0     H70483   8.298   0.177   6.892 -2.0670 -1.0909 -0.6746
  511MOL0     H70484   8.461   0.239   6.722  1.8889  2.6721 -0.0963
  511MOL0     H70485   8.296   0.209   6.641  0.2900  0.8205 -0.9733
  511MOL0     H70486   8.439   0.473   6.712 -1.2890 -0.0779  0.7844
  511MOL0     H70487   8.280   0.457   6.632 -0.6966 -2.5866 -0.3169
  511MOL0     H70488   8.384   0.319   6.452 -2.9313 -1.4503  4.4444
  511MOL0     H70489   8.541   0.340   6.528 -1.6978 -3.3522  2.1674
  511MOL0     H70490   8.544   0.464   6.349 -0.5009  0.6079  0.3141
  511MOL0     H70491   8.381   0.532   6.366  0.3186 -0.8018 -1.1315
  511MOL0     H70492   8.609   0.615   6.563 -1.5731  1.1450  0.7560
  511MOL0     H70493   8.466   0.700   6.538  2.3155  0.9217  1.9688
  511MOL0     H70494   8.524   0.765   6.305  1.4369  0.1289 -2.1107
  511MOL0     H70495   8.664   0.663   6.305 -0.7102  1.6418 -2.1585
  511MOL0     H70496   8.622   0.927   6.458  2.2677  1.4568  1.7992
  511MOL0     H70497   8.740   0.895   6.342 -1.4026  0.4780 -0.5393
  511MOL0     H70498   8.166   0.244   7.098  0.7667  1.5208  0.1891
  511MOL0     H70499   8.014   0.317   7.261  2.4023 -0.5258 -0.9114
  511MOL0     H70500   7.811   0.565   7.623 -1.3430 -0.3746  2.0462
  511MOL0     H70501   7.625   0.674   7.747 -1.5634  0.4269 -0.0086
  511MOL0     H70502   5.646   0.776   7.309 -2.8801  3.0366  3.1410
  511MOL0     H70503   5.424   0.874   7.309 -2.8419 -0.2259  0.4056
  511MOL0     H70504   5.010   0.945   7.188 -2.1957  0.9884 -0.2668
  511MOL0     H70505   4.795   1.041   7.228 -2.4870 -0.3094  0.6646
  511MOL0     H70506   4.535   1.081   7.460  0.8584  0.6092 -0.2693
  511MOL0     H70507   4.649   1.119   7.330 -0.9196  0.5948 -3.4808
  511MOL0     H70508   4.487   1.061   7.166  1.4961 -2.0660  1.4726
  511MOL0     H70509   4.431   1.193   7.264  0.6756  0.1289 -3.1981
  511MOL0     H70510   4.264   1.000   7.184  1.7300 -0.0769 -1.2620
  511MOL0     H70511   4.327   0.897   7.307 -1.1360  0.4208  0.9676
  511MOL0     H70512   4.211   1.165   7.355 -1.3265 -1.2586 -1.7023
  511MOL0     H70513   4.287   1.062   7.485 -3.1534  0.3928  0.8950
  511MOL0     H70514   3.916   0.879   7.426 -0.1344 -0.7224 -1.2462
  511MOL0     H70515   4.682   0.710   7.484  1.3438 -0.9885  1.8736
  511MOL0     H70516   5.000   0.567   7.521  0.6816  1.0405 -1.5665
  511MOL0     H70517   4.827   0.560   7.549 -2.0428  1.3371 -1.0303
  511MOL0     H70518   4.896   0.489   7.398 -1.1922 -0.8655  1.1895
  512MOL0     O70519   4.901   4.856   2.485  0.4063 -0.1012 -1.2870
  512MOL0     C70520   4.933   4.962   2.434 -0.0656  0.1906  0.3031
  512MOL0     O70521   5.034   5.045   2.468 -0.7664  0.6762 -0.1065
  512MOL0     C70522   5.105   4.997   2.573  0.5781  0.8442 -0.1688
  512MOL0     C70523   5.197   4.887   2.551 -1.0541  0.9128 -0.9751
  512MOL0     C70524   5.293   4.856   2.654 -0.3248 -0.7179  0.8006
  512MOL0     C70525   5.302   4.947   2.769  0.0830 -0.0395 -0.2526
  512MOL0     O70526   5.410   4.934   2.857 -0.1330  0.5098 -0.0475
  512MOL0     C70527   5.466   5.055   2.914  0.6419 -0.5456  0.5748
  512MOL0     C70528   5.613   5.038   2.957  0.1433  0.3521  0.0775
  512MOL0     C70529   5.706   5.043   2.834 -0.2510  0.3112  0.2792
  512MOL0     C70530   5.711   5.183   2.781 -0.0392  0.5868 -0.2305
  512MOL0     C70531   5.845   5.230   2.711  0.1532  0.2653  0.8003
  512MOL0     C70532   5.874   5.140   2.590 -0.3614  0.0741 -0.4848
  512MOL0     C70533   6.019   5.131   2.552  0.0059 -0.1276  0.0241
  512MOL0     C70534   6.090   5.259   2.508  0.3693 -0.0536  0.3457
  512MOL0     N70535   6.232   5.249   2.521  0.0942 -0.4733 -0.2893
  512MOL0     C70536   6.308   5.274   2.632  1.3259  1.7367  0.0453
  512MOL0     C70537   6.435   5.251   2.589  0.0942 -0.3012  0.7365
  512MOL0     C70538   6.554   5.239   2.681  0.1998 -0.3568 -0.0257
  512MOL0     C70539   6.692   5.261   2.607  0.4752 -0.2248  0.1036
  512MOL0     C70540   6.808   5.287   2.699 -0.6889 -0.4193  0.4809
  512MOL0     C70541   6.935   5.273   2.629  0.2694  1.6231 -0.1670
  512MOL0     O70542   6.967   5.391   2.548 -0.3599 -0.2345 -0.2827
  512MOL0     C70543   7.095   5.401   2.492 -0.3605  0.1354  0.0410
  512MOL0     C70544   7.166   5.518   2.534 -0.1339 -0.2437  0.2307
  512MOL0     C70545   7.291   5.552   2.481  0.2868 -0.4863  0.9383
  512MOL0     C70546   7.372   5.658   2.542 -0.0689 -0.4248 -1.2350
  512MOL0     C70547   7.349   5.461   2.381  0.5610 -0.9502  0.5014
  512MOL0     C70548   7.485   5.478   2.333  0.0200  0.0831  0.2705
  512MOL0     O70549   7.535   5.372   2.265  0.1194  0.5714 -0.5550
  512MOL0     C70550   7.667   5.380   2.221  0.2968  0.1475 -0.4117
  512MOL0     C70551   7.765   5.364   2.319  0.9007  0.2590 -0.2007
  512MOL0     C70552   7.897   5.344   2.296 -0.0127 -0.0371  0.6315
  512MOL0     C70553   7.934   5.331   2.167 -0.4068 -0.3299  0.1738
  512MOL0     O70554   8.070   5.316   2.138  0.1603 -0.4254 -0.0201
  512MOL0     C70555   8.105   5.346   2.007 -0.0516 -0.8836  0.9509
  512MOL0     C70556   8.249   5.312   2.004  0.3713 -0.2490 -0.1772
  512MOL0     C70557   8.323   5.372   1.881 -0.0198  0.6869 -0.2531
  512MOL0     C70558   8.469   5.334   1.880 -0.0835  0.7200  0.0132
  512MOL0     C70559   8.537   5.400   1.753  0.6257  0.4962  0.1766
  512MOL0     C70560   8.573   5.550   1.782 -0.1663 -0.1514 -0.2546
  512MOL0     C70561   8.652   5.616   1.666  0.9759  0.2809  0.3794
  512MOL0     C70562   8.574   5.748   1.615  0.1564 -0.0329 -0.5471
  512MOL0    Cl70563   8.414   5.699   1.540 -0.2726 -0.2679  0.1977
  512MOL0     C70564   7.835   5.345   2.062 -0.2821 -0.0449 -0.0099
  512MOL0     C70565   7.701   5.382   2.089 -0.7128  0.3159 -0.2619
  512MOL0     O70566   7.547   5.587   2.346  0.8281  0.4358 -0.5271
  512MOL0     C70567   7.276   5.347   2.341  0.2746 -1.2133  0.4922
  512MOL0     C70568   7.153   5.325   2.392  0.8833  0.0717  0.3724
  512MOL0     N70569   6.436   5.214   2.458  1.0883 -0.2697 -0.1347
  512MOL0     N70570   6.317   5.216   2.418 -0.3706  0.2085  0.7576
  512MOL0     C70571   5.213   5.058   2.784  0.7034  0.8822 -0.2292
  512MOL0     C70572   5.113   5.072   2.690 -0.2294 -0.2107  0.3885
  512MOL0     C70573   4.861   5.011   2.312 -0.2645  0.0735 -0.8105
  512MOL0     C70574   4.937   5.075   2.212 -0.2411 -0.1137 -0.3254
  512MOL0     C70575   4.871   5.117   2.095  0.3898 -0.1833  0.3048
  512MOL0     C70576   4.740   5.085   2.063 -0.1031  0.7399  0.3594
  512MOL0     O70577   4.699   5.130   1.939  0.3550 -0.0268 -0.2011
  512MOL0     C70578   4.579   5.073   1.889 -0.8042 -0.1600  0.4299
  512MOL0     C70579   4.548   5.162   1.769 -0.0648 -0.0434  0.0440
  512MOL0     C70580   4.473   5.077   1.669  0.2760  0.4196 -0.3742
  512MOL0     C70581   4.569   4.979   1.597  0.1867 -0.3385 -0.3756
  512MOL0     C70582   4.511   4.884   1.501 -0.5697 -0.4342 -0.4288
  512MOL0     C70583   4.475   4.800   1.426 -0.0561 -0.2779  0.1606
  512MOL0     C70584   4.665   5.016   2.162  0.3661  0.4280  0.6039
  512MOL0     C70585   4.728   4.978   2.283  0.0312 -0.3561  0.2188
  512MOL0     C70586   4.642   4.899   2.382 -0.9844 -0.1822  0.1232
  512MOL0     H70587   5.206   4.832   2.458  1.7314  0.1222 -0.3623
  512MOL0     H70588   5.372   4.781   2.649 -0.5434 -1.4989  5.3969
  512MOL0     H70589   5.400   5.091   2.993 -2.5225 -1.0953 -1.6413
  512MOL0     H70590   5.458   5.138   2.843 -0.8942 -0.0014  1.3370
  512MOL0     H70591   5.639   5.122   3.023 -2.4464  1.1462  0.1885
  512MOL0     H70592   5.624   4.945   3.014 -1.0238 -0.8181 -1.5429
  512MOL0     H70593   5.804   5.006   2.867 -0.1089  0.7843  0.3988
  512MOL0     H70594   5.667   4.979   2.754  2.7832 -1.0578 -0.2561
  512MOL0     H70595   5.624   5.210   2.720 -1.1305 -2.4271 -0.1732
  512MOL0     H70596   5.720   5.252   2.865  2.1086  1.4152 -1.0535
  512MOL0     H70597   5.928   5.225   2.781 -1.2455  0.5708  2.5518
  512MOL0     H70598   5.814   5.326   2.670 -2.5522 -0.9973 -0.4180
  512MOL0     H70599   5.842   5.036   2.602 -0.0744 -0.3960 -3.2235
  512MOL0     H70600   5.813   5.180   2.509 -2.4378 -1.3294  0.3007
  512MOL0     H70601   6.031   5.063   2.467  1.8054  0.7823 -0.5004
  512MOL0     H70602   6.083   5.086   2.629  1.0255 -0.3001 -0.9032
  512MOL0     H70603   6.063   5.276   2.403 -1.5213 -1.3749  0.5621
  512MOL0     H70604   6.057   5.344   2.568  2.5077  0.8827  0.2752
  512MOL0     H70605   6.271   5.297   2.732  0.2828 -0.0856  0.1270
  512MOL0     H70606   6.544   5.137   2.718 -1.0935  0.0096  0.6836
  512MOL0     H70607   6.537   5.307   2.766 -0.1162 -2.0815  1.3479
  512MOL0     H70608   6.705   5.157   2.576  1.6001  0.5588 -2.3444
  512MOL0     H70609   6.686   5.331   2.523  1.0578 -0.1077  0.1510
  512MOL0     H70610   6.807   5.390   2.735  2.5070  0.1473 -0.7340
  512MOL0     H70611   6.806   5.208   2.775 -0.3899 -2.2120 -1.3140
  512MOL0     H70612   7.014   5.245   2.699  0.3707 -0.0331 -0.8885
  512MOL0     H70613   6.921   5.192   2.556  1.4342  0.2911  1.0258
  512MOL0     H70614   7.124   5.579   2.613 -0.6468  1.4493 -1.3135
  512MOL0     H70615   7.308   5.693   2.624 -0.1774 -1.3078 -0.9252
  512MOL0     H70616   7.379   5.744   2.476 -2.0490  1.0589  0.3504
  512MOL0     H70617   7.464   5.615   2.583  0.1771 -0.3558 -1.7184
  512MOL0     H70618   7.743   5.373   2.425 -0.3937  0.3833 -0.4677
  512MOL0     H70619   7.959   5.342   2.385 -0.8097 -0.1704  1.1959
  512MOL0     H70620   8.070   5.278   1.930 -0.1161  1.2060 -0.9683
  512MOL0     H70621   8.088   5.448   1.971  2.3010 -0.5605  0.5895
  512MOL0     H70622   8.306   5.346   2.090  3.5026 -1.3613 -1.6524
  512MOL0     H70623   8.253   5.203   1.997  1.1175 -0.2030 -0.6161
  512MOL0     H70624   8.304   5.479   1.894 -3.1390  0.6052 -2.8041
  512MOL0     H70625   8.273   5.337   1.791 -0.5648  0.3819  0.1625
  512MOL0     H70626   8.471   5.227   1.857 -0.2420  0.3409  1.6067
  512MOL0     H70627   8.523   5.350   1.974 -0.5370  1.6614  0.1297
  512MOL0     H70628   8.628   5.342   1.736  0.8940 -0.2778  3.5929
  512MOL0     H70629   8.476   5.388   1.664  0.7717 -1.5652  0.3194
  512MOL0     H70630   8.622   5.544   1.880 -2.2031 -1.0853  0.7566
  512MOL0     H70631   8.473   5.593   1.791 -0.2442 -0.5190  0.7493
  512MOL0     H70632   8.651   5.546   1.582  1.4928  0.9614 -0.2069
  512MOL0     H70633   8.754   5.638   1.697  1.1930 -0.8275  0.5008
  512MOL0     H70634   8.625   5.809   1.540 -0.6213 -0.6032 -1.5684
  512MOL0     H70635   8.562   5.818   1.698 -0.8051 -0.8243  0.0029
  512MOL0     H70636   7.860   5.325   1.959  0.1140 -1.2007  0.2931
  512MOL0     H70637   7.635   5.390   2.004 -0.4207  0.5084 -0.4752
  512MOL0     H70638   7.310   5.284   2.259  1.8592 -1.2713  1.1568
  512MOL0     H70639   7.095   5.252   2.336  1.8352 -1.2213  1.0083
  512MOL0     H70640   5.215   5.129   2.866  0.1576  0.4575  0.1614
  512MOL0     H70641   5.060   5.166   2.702  0.4495  0.3350 -0.6811
  512MOL0     H70642   5.044   5.097   2.217 -0.2844  0.5674 -1.8679
  512MOL0     H70643   4.929   5.169   2.020  0.2834 -0.2320  0.1879
  512MOL0     H70644   4.596   4.969   1.861 -0.9853 -0.7388  2.3578
  512MOL0     H70645   4.499   5.069   1.963 -0.0846  2.0634  1.4283
  512MOL0     H70646   4.637   5.197   1.716 -0.5755  2.1781  0.5394
  512MOL0     H70647   4.490   5.248   1.804  1.4227  0.6702  0.8323
  512MOL0     H70648   4.384   5.028   1.710 -2.8172  1.6833 -4.7649
  512MOL0     H70649   4.444   5.149   1.592 -1.1349  1.3160  0.9409
  512MOL0     H70650   4.632   4.926   1.669 -0.6156 -0.7722  0.0132
  512MOL0     H70651   4.638   5.047   1.545  0.7641  0.3944  1.2896
  512MOL0     H70652   4.445   4.720   1.362 -1.2598  0.7259 -0.5860
  512MOL0     H70653   4.565   4.980   2.138  1.0902 -0.3176 -1.5323
  512MOL0     H70654   4.538   4.891   2.348 -1.2009  2.8973 -0.2270
  512MOL0     H70655   4.680   4.798   2.401  2.4709  0.8413 -0.7411
  512MOL0     H70656   4.643   4.943   2.482  1.0423 -1.8413  0.9129
  513MOL0     O70657  11.293   4.095   6.176  0.2828  0.4858  0.2341
  513MOL0     C70658  11.257   4.125   6.290 -0.0165 -0.1393 -0.0742
  513MOL0     O70659  11.337   4.112   6.400 -0.1021 -0.2254 -0.5507
  513MOL0     C70660  11.474   4.110   6.392 -0.2407  0.3210  0.3175
  513MOL0     C70661  11.554   4.197   6.464  0.2659  0.0745 -0.3849
  513MOL0     C70662  11.695   4.206   6.441  0.0730  0.0983  0.4515
  513MOL0     C70663  11.758   4.122   6.350 -1.2189  1.0958  0.7237
  513MOL0     O70664  11.895   4.107   6.346 -0.3758 -0.4436  1.1483
  513MOL0     C70665  11.964   4.049   6.228 -0.0808 -0.5544  0.3892
  513MOL0     C70666  12.112   4.039   6.265 -0.8349  0.7514 -0.4687
  513MOL0     C70667  12.196   3.983   6.154 -0.2579  0.4302  0.4907
  513MOL0     C70668  12.223   4.097   6.053 -0.3165  0.3506  1.0188
  513MOL0     C70669  12.312   4.078   5.939  0.0800 -1.1969  0.0185
  513MOL0     C70670  12.325   4.205   5.844 -0.0083 -0.1547 -0.0893
  513MOL0     C70671  12.412   4.321   5.913  0.1965 -0.1865  0.6949
  513MOL0     C70672  12.563   4.289   5.909  0.1401  0.7291  0.5669
  513MOL0     N70673  12.633   4.411   5.949 -0.4186  0.1138  0.1609
  513MOL0     C70674  12.693   4.434   6.067  0.1772 -0.3689  0.4314
  513MOL0     C70675  12.740   4.558   6.061  0.6834 -0.7023 -0.1736
  513MOL0     C70676  12.805   4.653   6.162 -1.2555  0.5637 -0.5195
  513MOL0     C70677  12.889   4.581   6.274 -0.1845 -0.1516 -0.1230
  513MOL0     C70678  13.033   4.541   6.225 -0.2170  0.3022 -0.4781
  513MOL0     C70679  13.119   4.503   6.347  0.3979  0.5160  0.7159
  513MOL0     O70680  13.255   4.470   6.309 -0.4447  0.1182 -0.2384
  513MOL0     C70681  13.357   4.507   6.388 -0.5246 -0.1667  0.0654
  513MOL0     C70682  13.366   4.635   6.446  0.2764 -0.5950 -0.1229
  513MOL0     C70683  13.469   4.684   6.526 -0.4563  0.6806 -0.3097
  513MOL0     C70684  13.452   4.823   6.582  1.2805  0.1939 -0.5460
  513MOL0     C70685  13.569   4.590   6.558  0.1839 -0.1759 -0.2595
  513MOL0     C70686  13.690   4.626   6.640  0.9026  0.5326 -0.5481
  513MOL0     O70687  13.777   4.524   6.673  0.0828 -0.0949  0.0644
  513MOL0     C70688  13.898   4.541   6.747 -0.1197  0.2762 -0.0413
  513MOL0     C70689  14.014   4.462   6.722 -0.1801 -0.2671  0.2140
  513MOL0     C70690  14.136   4.489   6.785 -1.0579  0.2482 -0.2919
  513MOL0     C70691  14.152   4.605   6.865 -0.0852 -1.1011  0.3484
  513MOL0     O70692  14.269   4.653   6.908 -0.3857 -1.0996  0.0280
  513MOL0     C70693  14.397   4.622   6.842  0.0850  0.0058 -0.3442
  513MOL0     C70694  14.503   4.705   6.901 -0.0472 -0.1649  0.1692
  513MOL0     C70695  14.648   4.692   6.848 -0.2026 -0.0947  0.4443
  513MOL0     C70696  14.729   4.790   6.930  0.5261 -0.8309 -0.0249
  513MOL0     C70697  14.864   4.827   6.860 -0.4676  0.0970 -0.4137
  513MOL0     C70698  14.954   4.906   6.960 -0.0183 -0.6464 -0.2734
  513MOL0     C70699  15.076   4.966   6.882  0.3585  0.0187 -0.0524
  513MOL0     C70700  15.177   5.042   6.969  0.6414  0.0599 -0.3589
  513MOL0    Cl70701  15.336   5.064   6.879  0.4554 -0.1254 -0.0419
  513MOL0     C70702  14.033   4.683   6.891  0.2848 -0.1960 -0.5957
  513MOL0     C70703  13.910   4.645   6.841  1.1542  0.0260 -0.1862
  513MOL0     O70704  13.712   4.744   6.658  0.0994 -0.2423 -0.4808
  513MOL0     C70705  13.573   4.464   6.490 -0.7793 -0.4715  0.9941
  513MOL0     C70706  13.466   4.430   6.405 -0.2314 -0.1742  0.2593
  513MOL0     N70707  12.708   4.613   5.941  1.1770  0.0785 -0.0411
  513MOL0     N70708  12.642   4.525   5.872 -0.0450 -0.2685  0.2228
  513MOL0     C70709  11.675   4.031   6.284  0.2866  1.4009 -0.6515
  513MOL0     C70710  11.539   4.029   6.303 -0.4744  0.6757  0.0588
  513MOL0     C70711  11.113   4.172   6.306  0.0392  0.5493  0.0320
  513MOL0     C70712  11.092   4.260   6.414  0.6248  0.4921 -0.4881
  513MOL0     C70713  10.967   4.325   6.430  0.1305 -0.0403 -0.6913
  513MOL0     C70714  10.865   4.286   6.339 -0.1116 -0.2044  0.2512
  513MOL0     O70715  10.736   4.341   6.338 -0.3234  0.2750 -0.5151
  513MOL0     C70716  10.703   4.436   6.439  0.2851  0.1070  0.6294
  513MOL0     C70717  10.550   4.462   6.444  0.5501  0.3724  1.0094
  513MOL0     C70718  10.465   4.324   6.447 -0.1089  0.8507  0.4537
  513MOL0     C70719  10.362   4.331   6.333 -0.1223  0.0733 -0.9759
  513MOL0     C70720  10.259   4.429   6.363 -0.1823 -0.4727 -0.0412
  513MOL0     C70721  10.158   4.502   6.384  0.0642  0.2835 -0.1573
  513MOL0     C70722  10.891   4.202   6.235  0.0271  0.7093  0.0184
  513MOL0     C70723  11.008   4.141   6.216 -0.5378  0.5112 -0.3527
  513MOL0     C70724  11.021   4.044   6.102  0.0567 -0.1180  0.6618
  513MOL0     H70725  11.496   4.267   6.523 -1.4393 -0.4571 -1.3662
  513MOL0     H70726  11.761   4.280   6.484  2.1925  0.1637 -2.5680
  513MOL0     H70727  11.949   4.115   6.142  0.9801 -1.2732 -0.3726
  513MOL0     H70728  11.939   3.948   6.196  1.6707 -0.8738 -0.0792
  513MOL0     H70729  12.153   4.133   6.302  0.5853  1.4144 -3.4062
  513MOL0     H70730  12.121   3.972   6.351  0.8418  0.0849 -1.1106
  513MOL0     H70731  12.290   3.932   6.176  1.1642  3.7801  3.0233
  513MOL0     H70732  12.134   3.907   6.106  0.8809  0.1618 -0.6219
  513MOL0     H70733  12.129   4.127   6.005 -2.4536 -2.6944  2.9922
  513MOL0     H70734  12.264   4.186   6.103 -0.8916  1.3959 -0.3049
  513MOL0     H70735  12.275   3.991   5.883 -0.3943 -1.3089  0.5006
  513MOL0     H70736  12.408   4.047   5.981 -0.4400  0.6765  2.8246
  513MOL0     H70737  12.366   4.178   5.746 -1.7699  0.9724 -1.1939
  513MOL0     H70738  12.227   4.244   5.818 -1.4071 -4.0413 -1.3753
  513MOL0     H70739  12.375   4.335   6.015 -1.1343 -2.4657  0.5865
  513MOL0     H70740  12.403   4.409   5.849  3.0064  0.8471  1.5602
  513MOL0     H70741  12.573   4.208   5.983 -2.7095 -1.0561 -0.8314
  513MOL0     H70742  12.599   4.251   5.813  0.5379  0.6278  0.7541
  513MOL0     H70743  12.706   4.354   6.139  2.2437 -0.1343  0.3579
  513MOL0     H70744  12.720   4.698   6.214 -0.5770 -0.5797  1.7120
  513MOL0     H70745  12.856   4.737   6.114 -0.0450  0.3100  0.2599
  513MOL0     H70746  12.895   4.640   6.367  2.2716 -0.5756  0.0472
  513MOL0     H70747  12.842   4.487   6.304  1.2152 -0.0911  2.6102
  513MOL0     H70748  13.025   4.453   6.160  2.3538  2.4297 -4.0245
  513MOL0     H70749  13.070   4.619   6.159  0.1284  2.1312  1.7315
  513MOL0     H70750  13.124   4.593   6.411  2.6085  0.1070  1.2019
  513MOL0     H70751  13.086   4.419   6.408 -3.1200  0.8568 -0.4925
  513MOL0     H70752  13.289   4.700   6.405  2.1602  0.9105 -1.4756
  513MOL0     H70753  13.432   4.813   6.689 -0.6737 -1.8387 -1.0375
  513MOL0     H70754  13.369   4.883   6.542  0.1922 -1.3069 -0.6012
  513MOL0     H70755  13.542   4.883   6.563  0.8509  0.8922 -0.3977
  513MOL0     H70756  14.015   4.379   6.652  1.2402  1.8449 -2.4370
  513MOL0     H70757  14.218   4.419   6.772 -0.7191  0.6446 -0.3327
  513MOL0     H70758  14.413   4.514   6.853 -0.7192  0.0709  2.0617
  513MOL0     H70759  14.386   4.649   6.736 -0.8322 -1.5604 -0.6759
  513MOL0     H70760  14.469   4.809   6.893 -2.1133 -0.8342 -0.7318
  513MOL0     H70761  14.499   4.672   7.005 -0.6844  1.9026  0.8387
  513MOL0     H70762  14.653   4.730   6.745  0.2602 -0.2412  0.4089
  513MOL0     H70763  14.700   4.595   6.846  2.2591  1.1508 -0.2210
  513MOL0     H70764  14.760   4.742   7.023 -0.5324 -2.0674 -0.2841
  513MOL0     H70765  14.666   4.872   6.964 -2.0533 -2.6236 -0.2030
  513MOL0     H70766  14.916   4.734   6.834 -1.0175 -0.5148  0.5782
  513MOL0     H70767  14.858   4.895   6.775  1.8841  0.6274 -0.2252
  513MOL0     H70768  14.986   4.842   7.043 -1.6982  1.1075  1.8493
  513MOL0     H70769  14.903   4.996   6.996 -2.1829 -0.1527 -4.0612
  513MOL0     H70770  15.046   5.031   6.799  1.3571  0.0408 -0.4045
  513MOL0     H70771  15.122   4.882   6.830  0.2585  0.8394 -1.5359
  513MOL0     H70772  15.195   4.976   7.054  3.2207  1.6761  0.4433
  513MOL0     H70773  15.125   5.136   6.992  0.0176 -0.2772 -0.3699
  513MOL0     H70774  14.042   4.771   6.954 -0.3138  0.3200 -1.2180
  513MOL0     H70775  13.822   4.698   6.877 -1.0973 -1.4286 -3.0977
  513MOL0     H70776  13.665   4.408   6.493  2.1356  3.8206  1.4378
  513MOL0     H70777  13.461   4.343   6.340 -2.6845 -0.0831  0.2332
  513MOL0     H70778  11.723   3.957   6.221  0.8441  1.7962 -0.7038
  513MOL0     H70779  11.488   3.950   6.248  0.3329  1.3039 -1.6597
  513MOL0     H70780  11.171   4.280   6.487 -1.6498 -0.6574  2.4872
  513MOL0     H70781  10.959   4.405   6.503  0.5856  0.0551 -0.7484
  513MOL0     H70782  10.731   4.404   6.540  0.1804  1.1782  1.0114
  513MOL0     H70783  10.752   4.529   6.408  1.0937 -0.1016  1.2507
  513MOL0     H70784  10.521   4.529   6.362  0.7821 -0.7911 -0.0467
  513MOL0     H70785  10.519   4.517   6.534 -1.6118  1.6512 -0.3946
  513MOL0     H70786  10.530   4.238   6.429 -1.7685 -0.1733 -0.9814
  513MOL0     H70787  10.421   4.311   6.547  1.3047 -1.0949  0.8777
  513MOL0     H70788  10.321   4.233   6.307 -1.1055 -0.2162  1.4203
  513MOL0     H70789  10.412   4.353   6.238  0.9268  1.4116 -0.1482
  513MOL0     H70790  10.076   4.565   6.411  0.4940  0.5546  0.5231
  513MOL0     H70791  10.805   4.173   6.176 -0.7145  1.2769  0.8039
  513MOL0     H70792  11.072   3.952   6.134  3.0070  0.7545 -1.1823
  513MOL0     H70793  10.919   4.021   6.069 -0.3568  2.3872 -0.0166
  513MOL0     H70794  11.079   4.082   6.019 -0.9765 -0.2264 -0.1302
  514MOL0     O70795   6.527   3.215   5.866 -0.1319 -0.2426  0.0802
  514MOL0     C70796   6.491   3.313   5.933 -0.2291  0.3067 -0.9471
  514MOL0     O70797   6.568   3.420   5.968  0.2523  0.4431  0.4507
  514MOL0     C70798   6.707   3.417   5.977  0.4375 -0.1729  0.1107
  514MOL0     C70799   6.778   3.539   5.950  0.2314 -0.8011 -0.7779
  514MOL0     C70800   6.914   3.548   5.980 -0.0234 -0.2228 -0.3350
  514MOL0     C70801   6.994   3.450   6.040  0.0326  0.7911 -0.4907
  514MOL0     O70802   7.127   3.460   6.075  0.9537  0.2392  0.4028
  514MOL0     C70803   7.209   3.570   6.033 -0.4854 -0.8512 -0.1840
  514MOL0     C70804   7.341   3.544   6.098  0.3589 -0.2684  0.4971
  514MOL0     C70805   7.450   3.655   6.086 -0.9990 -0.1810 -0.5574
  514MOL0     C70806   7.492   3.685   5.943 -0.0458 -0.3488 -0.4345
  514MOL0     C70807   7.639   3.727   5.941  0.7261 -0.1724  0.8874
  514MOL0     C70808   7.730   3.610   5.943  0.2560 -0.2116  0.0124
  514MOL0     C70809   7.867   3.650   5.893 -0.7595  0.8800  0.1053
  514MOL0     C70810   7.958   3.531   5.860  0.2156 -0.2464 -0.5225
  514MOL0     N70811   8.100   3.582   5.835 -0.8305  0.0459  0.0763
  514MOL0     C70812   8.187   3.651   5.927 -0.0433  0.0569  0.0589
  514MOL0     C70813   8.303   3.663   5.862 -0.4627  0.8042  0.2152
  514MOL0     C70814   8.428   3.722   5.905  0.2494  0.4676 -0.7216
  514MOL0     C70815   8.458   3.699   6.052 -0.0089  0.1686  0.4129
  514MOL0     C70816   8.472   3.551   6.104  0.3199 -0.2598  0.6285
  514MOL0     C70817   8.593   3.467   6.041 -0.5649 -0.3719  0.0858
  514MOL0     O70818   8.720   3.529   6.080 -0.4140 -0.2761 -0.3990
  514MOL0     C70819   8.834   3.492   6.020  0.2014 -0.2229  0.2357
  514MOL0     C70820   8.945   3.577   6.044 -0.1030  0.6739 -0.8897
  514MOL0     C70821   9.074   3.541   6.005 -0.6764  0.7672 -0.2690
  514MOL0     C70822   9.187   3.634   6.046  0.4228 -0.7586  0.4348
  514MOL0     C70823   9.094   3.430   5.926  0.2629  0.4403  0.2267
  514MOL0     C70824   9.219   3.383   5.860  0.3429 -0.4191  0.4863
  514MOL0     O70825   9.330   3.448   5.896  0.2047  0.0473  0.2339
  514MOL0     C70826   9.448   3.404   5.832  0.1362 -0.3926 -0.3407
  514MOL0     C70827   9.555   3.369   5.917 -0.1340 -0.2382  0.2846
  514MOL0     C70828   9.678   3.341   5.867  0.2305 -0.3003  0.1527
  514MOL0     C70829   9.711   3.355   5.731  0.2514 -0.6479  0.3181
  514MOL0     O70830   9.837   3.346   5.675 -0.3776 -0.0024 -0.3218
  514MOL0     C70831   9.938   3.270   5.751 -0.5143 -0.1033  0.1400
  514MOL0     C70832  10.045   3.221   5.652  0.4884  0.1024  0.4411
  514MOL0     C70833   9.995   3.087   5.590 -0.6839  0.0694 -0.0439
  514MOL0     C70834  10.095   3.018   5.503 -0.1486  0.2412  0.4203
  514MOL0     C70835  10.134   3.096   5.378  0.5904 -0.7719 -0.6695
  514MOL0     C70836  10.231   3.017   5.290  0.5747 -0.0646  0.0252
  514MOL0     C70837  10.360   2.970   5.360 -1.4616  0.7171  0.3177
  514MOL0     C70838  10.471   2.926   5.258 -0.2093  0.0466 -0.0572
  514MOL0    Cl70839  10.634   2.935   5.324 -0.3405  0.2065 -0.0354
  514MOL0     C70840   9.603   3.393   5.642  0.3578 -0.1451 -0.3758
  514MOL0     C70841   9.473   3.409   5.690  0.4983 -0.8520  0.3990
  514MOL0     O70842   9.216   3.288   5.782 -0.0356 -0.0951 -0.1987
  514MOL0     C70843   8.981   3.355   5.895 -0.7160  0.8557 -0.4407
  514MOL0     C70844   8.855   3.384   5.940  0.3050 -0.5273 -0.6181
  514MOL0     N70845   8.290   3.619   5.733  0.1928 -0.6923  0.9206
  514MOL0     N70846   8.170   3.573   5.720  0.2495 -0.3274 -0.3588
  514MOL0     C70847   6.923   3.333   6.065  0.2604  0.6133  0.5257
  514MOL0     C70848   6.781   3.314   6.032 -0.4834 -0.4914 -0.6108
  514MOL0     C70849   6.345   3.320   5.969 -0.2233 -0.8766 -1.0644
  514MOL0     C70850   6.291   3.444   6.003  0.1784  0.1930  1.1445
  514MOL0     C70851   6.154   3.457   6.030  0.0298 -0.4125  0.1611
  514MOL0     C70852   6.067   3.345   6.023 -0.0351  0.4527  0.2443
  514MOL0     O70853   5.933   3.348   6.044  0.3863  0.0192 -0.0827
  514MOL0     C70854   5.876   3.465   6.096 -0.4629  0.4884  0.0236
  514MOL0     C70855   5.728   3.459   6.098 -0.7440  0.1718  0.0530
  514MOL0     C70856   5.672   3.370   5.975 -0.3240 -0.2167 -0.4852
  514MOL0     C70857   5.527   3.392   5.946 -0.3291 -0.5944 -0.4964
  514MOL0     C70858   5.436   3.357   6.057 -0.6807 -0.4747 -0.8820
  514MOL0     C70859   5.351   3.326   6.141  0.0207 -0.6058  0.3063
  514MOL0     C70860   6.121   3.222   5.987  0.3468  0.2055 -0.2996
  514MOL0     C70861   6.258   3.205   5.960  0.0650 -0.3415  0.2654
  514MOL0     C70862   6.288   3.069   5.916  0.1253 -0.3400  0.5274
  514MOL0     H70863   6.732   3.626   5.902  1.6475  2.0050  2.5252
  514MOL0     H70864   6.971   3.634   5.949 -0.6797  0.7674  1.1251
  514MOL0     H70865   7.171   3.666   6.071  1.1911 -0.1133 -0.2894
  514MOL0     H70866   7.210   3.577   5.924 -2.7945  0.0672 -0.2118
  514MOL0     H70867   7.330   3.508   6.201 -1.2670  1.5450  1.0111
  514MOL0     H70868   7.379   3.454   6.049 -2.1127 -0.4119 -1.3429
  514MOL0     H70869   7.419   3.745   6.141 -1.1509 -1.0840  0.9009
  514MOL0     H70870   7.536   3.615   6.140 -0.2895 -0.1285 -1.6165
  514MOL0     H70871   7.469   3.606   5.871  1.1793  0.6641 -2.0025
  514MOL0     H70872   7.438   3.775   5.913  1.7828  0.4912 -1.3767
  514MOL0     H70873   7.665   3.798   6.020 -2.4424  1.1213  0.9427
  514MOL0     H70874   7.643   3.774   5.842 -1.2376  0.5427  1.0923
  514MOL0     H70875   7.722   3.562   6.042  2.1629 -1.1993 -0.2645
  514MOL0     H70876   7.685   3.536   5.877  0.1293 -2.0415  2.0264
  514MOL0     H70877   7.917   3.709   5.971  2.8080 -1.1112 -0.4264
  514MOL0     H70878   7.860   3.703   5.797  1.4821  3.0258  1.0116
  514MOL0     H70879   7.961   3.457   5.940  0.3377 -0.8498 -1.0754
  514MOL0     H70880   7.907   3.489   5.772 -2.0875  1.2290  0.0074
  514MOL0     H70881   8.154   3.689   6.023 -2.5866 -0.9014 -0.3636
  514MOL0     H70882   8.403   3.826   5.882 -2.5198 -0.1322 -0.7297
  514MOL0     H70883   8.509   3.682   5.844 -1.2413 -1.1385 -1.7269
  514MOL0     H70884   8.552   3.746   6.084 -1.2588  1.1351  3.0168
  514MOL0     H70885   8.371   3.752   6.092 -1.8421 -1.4980 -1.1672
  514MOL0     H70886   8.486   3.573   6.210 -1.1746  0.3483  0.7205
  514MOL0     H70887   8.377   3.498   6.095 -0.5313  1.3707 -0.7292
  514MOL0     H70888   8.589   3.362   6.069 -2.5549  0.0069  1.4280
  514MOL0     H70889   8.583   3.475   5.933  0.9333 -2.3227 -0.2389
  514MOL0     H70890   8.923   3.670   6.095 -1.3727  1.0292 -2.0418
  514MOL0     H70891   9.160   3.715   6.114 -0.1619 -2.0214  1.7636
  514MOL0     H70892   9.233   3.666   5.952 -0.3577 -1.2837 -0.1371
  514MOL0     H70893   9.264   3.578   6.101 -0.8644 -0.9739  2.0923
  514MOL0     H70894   9.536   3.361   6.023  1.0306 -0.2816  0.5115
  514MOL0     H70895   9.764   3.328   5.931  0.1025  1.8667  0.8288
  514MOL0     H70896   9.985   3.329   5.830 -1.7055 -0.2527  0.9886
  514MOL0     H70897   9.891   3.187   5.804 -0.1962  0.1792  0.8735
  514MOL0     H70898  10.053   3.298   5.575  3.9825 -0.1609  0.3933
  514MOL0     H70899  10.137   3.208   5.710 -0.7720 -1.7970  2.1957
  514MOL0     H70900   9.911   3.114   5.525  1.9315  1.6014 -3.1249
  514MOL0     H70901   9.948   3.033   5.672 -2.1748  1.8919  0.3727
  514MOL0     H70902  10.055   2.923   5.466  3.2643 -2.1419  2.2429
  514MOL0     H70903  10.181   2.995   5.566  1.0167  1.0028 -0.8583
  514MOL0     H70904  10.048   3.130   5.319  0.2699 -1.3333 -0.5369
  514MOL0     H70905  10.192   3.174   5.428  1.3955 -1.6038 -0.2786
  514MOL0     H70906  10.259   3.090   5.213  1.6178 -0.0054  0.4468
  514MOL0     H70907  10.170   2.939   5.243 -0.4426  1.2968 -1.0205
  514MOL0     H70908  10.335   2.886   5.426  0.6262  0.7242  1.1879
  514MOL0     H70909  10.393   3.052   5.425 -2.6119  0.6834  0.9725
  514MOL0     H70910  10.461   2.994   5.172 -1.5505  0.2603  0.2416
  514MOL0     H70911  10.457   2.824   5.222  1.6428 -0.1822 -0.1889
  514MOL0     H70912   9.628   3.400   5.537  2.0610 -0.9438 -0.0576
  514MOL0     H70913   9.400   3.447   5.620 -0.3361 -1.3403  0.9907
  514MOL0     H70914   8.993   3.273   5.825  0.8519 -0.2469  1.0321
  514MOL0     H70915   8.767   3.326   5.914 -1.5108  1.8901 -0.2386
  514MOL0     H70916   6.975   3.245   6.100 -1.6483 -0.0150  1.9877
  514MOL0     H70917   6.732   3.221   6.060 -1.5478 -0.5614 -2.4937
  514MOL0     H70918   6.354   3.531   5.986 -0.9943  0.9748  0.6722
  514MOL0     H70919   6.121   3.560   6.039  1.7118  0.3747 -1.7469
  514MOL0     H70920   5.928   3.489   6.189  1.8491 -0.5457 -0.9411
  514MOL0     H70921   5.904   3.539   6.020  0.2708 -1.0969 -1.3168
  514MOL0     H70922   5.697   3.563   6.093  1.2901  0.9099  1.6021
  514MOL0     H70923   5.694   3.406   6.187 -1.7620 -1.0171 -1.0014
  514MOL0     H70924   5.727   3.390   5.883  2.0240 -3.4372  0.0536
  514MOL0     H70925   5.697   3.265   5.990  4.5025  0.2412 -3.1141
  514MOL0     H70926   5.512   3.335   5.854  3.5219 -0.6064 -1.2791
  514MOL0     H70927   5.516   3.498   5.921  2.0560  0.2067  1.5153
  514MOL0     H70928   5.284   3.281   6.211  0.0227 -0.3861  0.4522
  514MOL0     H70929   6.056   3.135   5.981 -0.4107  0.7370  0.0888
  514MOL0     H70930   6.375   3.027   5.966  0.4201 -1.4713 -0.8623
  514MOL0     H70931   6.210   2.994   5.932 -0.2756  0.3582  2.0396
  514MOL0     H70932   6.318   3.081   5.812  2.0242  1.5551  1.2101
  515MOL0     O70933   2.061   2.257   6.890  0.0357 -0.0618  0.6162
  515MOL0     C70934   1.961   2.218   6.841 -0.3146  0.1624 -0.3400
  515MOL0     O70935   1.937   2.214   6.705  0.0332  0.5861 -0.1047
  515MOL0     C70936   2.023   2.286   6.628 -0.6740  0.1879 -0.8699
  515MOL0     C70937   1.973   2.403   6.570 -0.3788 -0.3943  0.6250
  515MOL0     C70938   2.052   2.472   6.483  1.0644  0.0122 -0.2420
  515MOL0     C70939   2.179   2.432   6.448  0.3449 -0.3558  0.1129
  515MOL0     O70940   2.233   2.503   6.349 -0.4116 -0.3531 -0.2709
  515MOL0     C70941   2.374   2.510   6.322 -0.8154  0.1967 -0.2751
  515MOL0     C70942   2.446   2.600   6.424 -0.5003  0.3147 -0.1942
  515MOL0     C70943   2.600   2.567   6.458  0.8659  0.7304  0.6568
  515MOL0     C70944   2.685   2.637   6.350 -0.3331  0.2058 -0.1807
  515MOL0     C70945   2.830   2.683   6.396 -0.4113  0.6041  0.1881
  515MOL0     C70946   2.923   2.587   6.477  0.4842 -0.2536  0.7285
  515MOL0     C70947   3.074   2.626   6.485  0.5895 -0.1972  0.6619
  515MOL0     C70948   3.092   2.747   6.588 -0.0552 -0.6798  0.2151
  515MOL0     N70949   3.232   2.785   6.572  0.8293  0.0500 -0.1996
  515MOL0     C70950   3.271   2.903   6.517 -0.2651  0.4763 -0.2947
  515MOL0     C70951   3.412   2.905   6.531 -0.3160  0.6818 -0.0680
  515MOL0     C70952   3.506   3.020   6.490 -0.4023  0.3674 -0.2622
  515MOL0     C70953   3.641   2.990   6.560  0.2515 -0.1397  0.0488
  515MOL0     C70954   3.725   3.119   6.558 -0.0609 -0.5951  0.0357
  515MOL0     C70955   3.798   3.132   6.429 -0.0871  0.2262  0.7949
  515MOL0     O70956   3.889   3.019   6.392  0.5611 -0.1215  0.3281
  515MOL0     C70957   4.019   3.047   6.386 -0.8175 -0.2251  0.8108
  515MOL0     C70958   4.075   3.155   6.316  0.2384  0.1103  0.3331
  515MOL0     C70959   4.207   3.193   6.313  0.1642 -0.5378 -0.4667
  515MOL0     C70960   4.248   3.310   6.223  0.3154 -0.0764 -0.7468
  515MOL0     C70961   4.300   3.109   6.385  0.0844 -0.0394  0.9659
  515MOL0     C70962   4.448   3.129   6.375 -0.5182  0.0344 -0.5680
  515MOL0     O70963   4.516   3.015   6.419  0.6843 -0.2825  0.5472
  515MOL0     C70964   4.649   3.004   6.390 -0.5527  0.4018 -0.0721
  515MOL0     C70965   4.682   2.938   6.274 -0.8191 -0.2235  0.0590
  515MOL0     C70966   4.814   2.919   6.232 -0.2836 -0.8315  0.2484
  515MOL0     C70967   4.910   2.981   6.304  0.6664 -0.2558 -0.2139
  515MOL0     O70968   5.051   2.956   6.291 -0.2863  0.2116  0.3297
  515MOL0     C70969   5.103   2.933   6.153  0.3544  0.2510 -0.0297
  515MOL0     C70970   5.253   2.954   6.175  0.1553 -1.2689  0.0077
  515MOL0     C70971   5.327   2.941   6.042 -0.9393 -0.1595  0.5707
  515MOL0     C70972   5.479   2.971   6.066  1.0490 -0.0753 -0.0300
  515MOL0     C70973   5.561   2.940   5.937 -0.2289  1.1445 -0.5763
  515MOL0     C70974   5.719   2.943   5.970 -0.0068 -0.4935  0.5509
  515MOL0     C70975   5.796   2.957   5.835  0.7942 -0.9002 -0.4732
  515MOL0     C70976   5.803   3.102   5.780  0.8171  0.2637  0.1937
  515MOL0    Cl70977   5.915   3.103   5.640 -0.3312  0.5262  0.0259
  515MOL0     C70978   4.875   3.060   6.413 -0.0300  0.1425  0.1495
  515MOL0     C70979   4.745   3.061   6.473 -0.6143  0.0100  0.4070
  515MOL0     O70980   4.500   3.228   6.340  0.1738 -0.5079 -0.2546
  515MOL0     C70981   4.249   3.001   6.463 -0.5163 -0.0320  0.2675
  515MOL0     C70982   4.114   2.972   6.455  0.4120  0.3556  0.5505
  515MOL0     N70983   3.441   2.787   6.598  0.6001 -0.1013 -0.3854
  515MOL0     N70984   3.335   2.718   6.614  0.5336 -0.2969 -0.1078
  515MOL0     C70985   2.236   2.318   6.512  0.0952  0.2304 -0.3412
  515MOL0     C70986   2.157   2.244   6.603 -0.2249  0.1668  0.3518
  515MOL0     C70987   1.861   2.159   6.934  0.6264 -0.0399 -0.0140
  515MOL0     C70988   1.741   2.111   6.872 -0.4027 -0.1794  0.2070
  515MOL0     C70989   1.632   2.057   6.949  0.0448 -0.7778  0.1615
  515MOL0     C70990   1.646   2.055   7.090  0.2083 -0.2356  0.3866
  515MOL0     O70991   1.542   2.021   7.173 -0.3677 -0.1769  0.4778
  515MOL0     C70992   1.429   1.948   7.124 -1.2176 -0.1791  0.3293
  515MOL0     C70993   1.312   2.041   7.103 -0.6132 -0.2285  0.2105
  515MOL0     C70994   1.262   2.095   7.238  0.6355 -0.6656 -0.0804
  515MOL0     C70995   1.144   2.187   7.228  0.9910 -0.0813  0.3802
  515MOL0     C70996   1.020   2.109   7.204  0.0702  0.3645 -0.1926
  515MOL0     C70997   0.909   2.058   7.188  0.2483 -0.3736 -0.4969
  515MOL0     C70998   1.761   2.088   7.150 -0.3743  0.4984 -0.0558
  515MOL0     C70999   1.872   2.140   7.079  0.5554 -0.1968  0.1529
  515MOL0     C71000   2.002   2.175   7.162  0.2833  0.1557 -0.1354
  515MOL0     H71001   1.871   2.441   6.571 -0.3913 -0.2293 -1.6717
  515MOL0     H71002   2.004   2.549   6.425 -0.7065 -0.8752 -0.0143
  515MOL0     H71003   2.392   2.544   6.220  0.8955 -2.3360 -0.9186
  515MOL0     H71004   2.411   2.407   6.333 -2.1991 -0.4783 -1.5456
  515MOL0     H71005   2.433   2.699   6.380 -3.2516 -1.4791 -3.8914
  515MOL0     H71006   2.395   2.592   6.520  4.4379 -0.4694  2.7367
  515MOL0     H71007   2.626   2.609   6.556 -0.6514  0.8240  1.0514
  515MOL0     H71008   2.616   2.458   6.465 -1.5439  0.2143 -0.7472
  515MOL0     H71009   2.700   2.569   6.266 -2.2612 -0.2780 -0.1808
  515MOL0     H71010   2.635   2.726   6.313  2.1898  0.9037 -2.2064
  515MOL0     H71011   2.798   2.766   6.460 -0.9983  0.5281 -0.0063
  515MOL0     H71012   2.896   2.705   6.311  1.2255  0.4094  1.3494
  515MOL0     H71013   2.889   2.588   6.581 -0.0176 -1.7563  0.6027
  515MOL0     H71014   2.921   2.487   6.433  1.2683 -0.1344  0.3977
  515MOL0     H71015   3.107   2.660   6.386 -3.3024  0.7194 -0.4896
  515MOL0     H71016   3.134   2.541   6.518 -0.5558 -1.6029 -0.7596
  515MOL0     H71017   3.035   2.836   6.560  1.4486  0.6777  1.3213
  515MOL0     H71018   3.073   2.717   6.691  3.2069  0.7796  1.3559
  515MOL0     H71019   3.213   2.985   6.478 -2.0496 -0.2475  0.7263
  515MOL0     H71020   3.450   3.111   6.515 -4.4936 -1.9432 -0.1095
  515MOL0     H71021   3.522   3.010   6.382  2.1685  0.2827  0.0589
  515MOL0     H71022   3.618   2.969   6.665  1.0734  0.1780  0.2983
  515MOL0     H71023   3.691   2.906   6.512  0.2894 -0.8472  1.2790
  515MOL0     H71024   3.651   3.200   6.564 -0.2713 -0.7422 -0.5727
  515MOL0     H71025   3.803   3.124   6.635  1.6837 -1.0290 -1.6358
  515MOL0     H71026   3.722   3.137   6.351 -0.0491  0.2404  0.7586
  515MOL0     H71027   3.845   3.229   6.446 -1.2958  1.2087 -1.0920
  515MOL0     H71028   4.018   3.233   6.268 -0.2192  0.0346  0.7379
  515MOL0     H71029   4.167   3.361   6.170 -1.8469 -1.5673  0.9464
  515MOL0     H71030   4.321   3.273   6.151  1.2817  2.1247 -0.9594
  515MOL0     H71031   4.301   3.381   6.287 -1.5922  2.1378 -1.4987
  515MOL0     H71032   4.604   2.888   6.217 -1.3805  0.3871  0.2800
  515MOL0     H71033   4.856   2.851   6.158  0.9754  2.5345 -2.3608
  515MOL0     H71034   5.073   2.833   6.122 -1.0290  0.7446 -0.3557
  515MOL0     H71035   5.065   3.004   6.079 -0.4080  3.7057  3.3543
  515MOL0     H71036   5.277   3.052   6.217  1.1909 -0.4719 -2.3293
  515MOL0     H71037   5.289   2.879   6.247 -0.3387 -0.1268  1.5022
  515MOL0     H71038   5.280   3.012   5.973 -2.9240  0.9265  2.8575
  515MOL0     H71039   5.308   2.843   5.997 -2.8443 -0.1351  1.2039
  515MOL0     H71040   5.503   2.909   6.153 -1.4427 -0.1741  0.6762
  515MOL0     H71041   5.484   3.077   6.093  1.3608  0.1934 -1.0783
  515MOL0     H71042   5.536   2.840   5.901  1.6498  0.6826 -0.6975
  515MOL0     H71043   5.530   3.006   5.856  1.3615  1.2898 -1.0926
  515MOL0     H71044   5.740   2.846   6.016 -0.8231  0.4341  3.0659
  515MOL0     H71045   5.738   3.026   6.039 -0.0343 -0.3254  0.3569
  515MOL0     H71046   5.751   2.902   5.752  0.4747  3.1724 -3.2800
  515MOL0     H71047   5.895   2.913   5.846  1.0446 -0.8533 -2.3548
  515MOL0     H71048   5.851   3.162   5.857  0.8777  0.6611 -0.1480
  515MOL0     H71049   5.706   3.146   5.753 -0.7035 -2.0029  1.6790
  515MOL0     H71050   4.955   3.113   6.464 -0.3394  1.0601 -0.3087
  515MOL0     H71051   4.732   3.096   6.575 -0.9421 -0.9042  0.6972
  515MOL0     H71052   4.308   2.930   6.520  0.0491  1.1976  1.2658
  515MOL0     H71053   4.076   2.888   6.512 -0.0334  0.5260  0.5105
  515MOL0     H71054   2.332   2.273   6.492 -0.1038  0.4406 -1.8750
  515MOL0     H71055   2.193   2.156   6.655 -2.6260 -1.2665 -0.2278
  515MOL0     H71056   1.737   2.124   6.764  0.3390  2.4320  0.4401
  515MOL0     H71057   1.542   2.039   6.892  1.6953  0.6439 -3.2140
  515MOL0     H71058   1.453   1.889   7.035  0.4907 -0.6996  1.0867
  515MOL0     H71059   1.394   1.876   7.199  0.4069  0.7251  2.0577
  515MOL0     H71060   1.239   1.985   7.044 -0.8105 -0.5231  0.7313
  515MOL0     H71061   1.332   2.130   7.042 -0.4390  0.5796  1.4070
  515MOL0     H71062   1.242   2.010   7.304  0.7078 -0.1795  0.5772
  515MOL0     H71063   1.337   2.161   7.284 -0.5858 -0.4577  1.7009
  515MOL0     H71064   1.154   2.275   7.163 -1.0297 -1.3503 -1.8097
  515MOL0     H71065   1.134   2.234   7.326 -0.2057 -1.8482  1.1596
  515MOL0     H71066   0.814   2.011   7.194 -1.5417  2.7912 -1.5392
  515MOL0     H71067   1.776   2.089   7.258 -0.7548  0.1617  0.0044
  515MOL0     H71068   1.990   2.130   7.261 -2.3406 -0.0950 -0.5085
  515MOL0     H71069   2.088   2.128   7.114 -0.8462 -0.7463 -1.3631
  515MOL0     H71070   2.018   2.281   7.180  0.4575 -0.1770  1.9297
  516MOL0     O71071   3.020   0.830   4.307  0.3243  0.0799  0.4960
  516MOL0     C71072   2.940   0.922   4.331 -0.7640 -0.4639 -0.3178
  516MOL0     O71073   2.971   1.064   4.335 -0.4534  0.8704 -0.1490
  516MOL0     C71074   3.086   1.095   4.255 -0.5826 -0.0056 -0.6295
  516MOL0     C71075   3.206   1.156   4.312  0.6387  0.1155 -0.4150
  516MOL0     C71076   3.314   1.187   4.230 -0.3031  0.6045  0.0042
  516MOL0     C71077   3.312   1.171   4.090  0.4432 -0.3033 -0.0875
  516MOL0     O71078   3.429   1.198   4.017  0.0521  0.3554 -0.0806
  516MOL0     C71079   3.411   1.252   3.886 -0.7914  0.2450  0.2845
  516MOL0     C71080   3.539   1.313   3.832  0.3313 -0.0742  0.2303
  516MOL0     C71081   3.663   1.218   3.865  0.8914 -0.0261 -0.0400
  516MOL0     C71082   3.800   1.286   3.840 -0.2464 -0.0270 -0.8634
  516MOL0     C71083   3.906   1.182   3.871 -1.3401  1.1872  0.7385
  516MOL0     C71084   4.029   1.190   3.771 -0.0618 -0.9114 -0.3205
  516MOL0     C71085   4.101   1.318   3.762 -0.5125 -0.0531  0.4181
  516MOL0     C71086   4.256   1.296   3.727  0.6228  0.3411  0.1117
  516MOL0     N71087   4.326   1.402   3.800  0.2768  0.0828 -0.7720
  516MOL0     C71088   4.361   1.391   3.934 -0.7219  0.0837 -0.4453
  516MOL0     C71089   4.440   1.502   3.954  0.2537  0.1599 -0.3335
  516MOL0     C71090   4.518   1.537   4.082 -1.0962  0.2946 -0.0619
  516MOL0     C71091   4.533   1.688   4.118 -0.8496 -0.4681 -0.2004
  516MOL0     C71092   4.398   1.770   4.133 -0.2786  0.1414 -0.8366
  516MOL0     C71093   4.288   1.718   4.230  0.4985 -0.2578  0.5802
  516MOL0     O71094   4.261   1.579   4.222  0.0359 -0.2934  0.0636
  516MOL0     C71095   4.136   1.550   4.277  0.0019 -0.1660 -0.2858
  516MOL0     C71096   4.085   1.432   4.243  0.2086 -0.6347 -0.9908
  516MOL0     C71097   3.966   1.383   4.288  0.2493  0.4158  0.7373
  516MOL0     C71098   3.927   1.242   4.241 -0.0156  0.4494  0.6469
  516MOL0     C71099   3.886   1.459   4.370 -0.1759 -0.2750 -0.9390
  516MOL0     C71100   3.744   1.419   4.422 -0.0615  0.5377 -0.1396
  516MOL0     O71101   3.694   1.479   4.538 -0.3304 -0.1639 -0.0807
  516MOL0     C71102   3.563   1.470   4.565  0.0693 -0.5630  0.0530
  516MOL0     C71103   3.496   1.354   4.581  1.1044  1.2024 -0.2817
  516MOL0     C71104   3.360   1.352   4.620 -0.3222  0.4422 -0.6671
  516MOL0     C71105   3.291   1.474   4.640 -0.6842  0.0880  0.5926
  516MOL0     O71106   3.157   1.460   4.674  1.0081 -0.2721  0.7144
  516MOL0     C71107   3.073   1.574   4.658  0.1087 -0.2707  0.7711
  516MOL0     C71108   2.926   1.530   4.675 -0.0522  0.1010  0.0593
  516MOL0     C71109   2.871   1.449   4.548  0.9114  0.0843 -0.0853
  516MOL0     C71110   2.881   1.299   4.568  0.9280  0.2348 -0.4859
  516MOL0     C71111   2.755   1.234   4.627  0.7699  0.2596 -1.0162
  516MOL0     C71112   2.781   1.100   4.701 -0.3693 -0.0999 -0.7826
  516MOL0     C71113   2.643   1.040   4.736 -0.5569  0.0958  0.2620
  516MOL0     C71114   2.680   0.923   4.826 -0.5443 -0.1847 -0.3425
  516MOL0    Cl71115   2.517   0.846   4.866  0.4871  0.0348  0.3069
  516MOL0     C71116   3.363   1.597   4.626  0.7381  0.2896  0.2626
  516MOL0     C71117   3.499   1.593   4.585  0.1678 -0.3311 -0.6530
  516MOL0     O71118   3.677   1.340   4.353 -0.0423 -0.6963  0.4445
  516MOL0     C71119   3.938   1.590   4.405  0.9473  0.3007  0.2772
  516MOL0     C71120   4.063   1.630   4.367  0.2874  0.4773 -0.5539
  516MOL0     N71121   4.455   1.572   3.836  0.2123  0.4344 -0.3642
  516MOL0     N71122   4.383   1.513   3.749 -0.0744 -0.4856 -0.1971
  516MOL0     C71123   3.187   1.126   4.035 -0.0216  0.6714 -0.2582
  516MOL0     C71124   3.077   1.082   4.120 -0.5760 -0.6044  1.0553
  516MOL0     C71125   2.795   0.884   4.353  0.8183 -0.4423  0.3545
  516MOL0     C71126   2.699   0.971   4.295  0.3296  0.8520  0.3044
  516MOL0     C71127   2.561   0.941   4.316 -0.6825 -0.4568 -0.4583
  516MOL0     C71128   2.524   0.839   4.398 -0.0061 -0.1722  0.2128
  516MOL0     O71129   2.388   0.813   4.407  0.3478 -0.4752 -0.3739
  516MOL0     C71130   2.340   0.713   4.488  1.1083 -0.5577  0.1678
  516MOL0     C71131   2.191   0.707   4.468 -1.3530  0.6947  0.0266
  516MOL0     C71132   2.141   0.578   4.536 -0.0463 -0.2825  0.2319
  516MOL0     C71133   2.013   0.590   4.627 -0.3356  0.0769  0.2662
  516MOL0     C71134   2.070   0.651   4.746  0.6161  0.2003  0.4312
  516MOL0     C71135   2.112   0.716   4.832  0.3607 -0.7292 -0.6400
  516MOL0     C71136   2.623   0.765   4.463 -0.3623  0.5244  0.5679
  516MOL0     C71137   2.757   0.780   4.438 -0.6547  0.7008 -0.2301
  516MOL0     C71138   2.844   0.674   4.501 -0.9325  0.3642 -0.4522
  516MOL0     H71139   3.210   1.172   4.419 -0.0283 -0.6816 -0.2646
  516MOL0     H71140   3.409   1.224   4.267 -0.3771  0.7318  0.0654
  516MOL0     H71141   3.333   1.329   3.883  0.0535  1.0875 -0.3674
  516MOL0     H71142   3.388   1.170   3.817  2.4364 -1.4364  1.0031
  516MOL0     H71143   3.540   1.335   3.725 -1.0509 -3.2823 -0.5481
  516MOL0     H71144   3.551   1.414   3.872  2.2111 -0.4538  0.7603
  516MOL0     H71145   3.664   1.185   3.970  2.2446 -1.4420 -0.4704
  516MOL0     H71146   3.650   1.132   3.798  2.5723  0.0567 -0.5068
  516MOL0     H71147   3.818   1.334   3.743  2.4723  1.3936  0.2294
  516MOL0     H71148   3.807   1.362   3.918 -4.2764 -0.1703 -0.1545
  516MOL0     H71149   3.860   1.084   3.855 -0.4312  0.9114 -0.2881
  516MOL0     H71150   3.955   1.201   3.968 -0.6140  2.1733  0.1948
  516MOL0     H71151   4.088   1.101   3.796 -1.8195 -1.6347  1.5038
  516MOL0     H71152   3.997   1.172   3.668  1.5139 -2.1488 -0.6512
  516MOL0     H71153   4.092   1.360   3.863 -2.7520  1.4629 -0.3582
  516MOL0     H71154   4.048   1.392   3.702 -0.6423 -1.2176 -0.9315
  516MOL0     H71155   4.284   1.196   3.763 -0.1459 -0.9910 -2.7217
  516MOL0     H71156   4.261   1.288   3.618  5.7309  1.0220  0.0445
  516MOL0     H71157   4.321   1.325   4.010 -2.5846  1.2028 -0.3875
  516MOL0     H71158   4.620   1.500   4.068 -1.0681  1.1889 -2.6153
  516MOL0     H71159   4.471   1.490   4.169 -2.3566 -0.6918 -1.2287
  516MOL0     H71160   4.590   1.713   4.208 -0.0138 -3.0578  0.0656
  516MOL0     H71161   4.588   1.729   4.032 -3.2105 -0.4025 -1.8026
  516MOL0     H71162   4.423   1.870   4.169  2.3272 -0.5575 -0.5062
  516MOL0     H71163   4.362   1.795   4.032 -3.1690  1.4349  0.4013
  516MOL0     H71164   4.314   1.732   4.335  1.6663 -0.2260  0.3009
  516MOL0     H71165   4.204   1.784   4.206  0.1155 -1.0055 -0.1787
  516MOL0     H71166   4.139   1.359   4.184  0.7509 -1.4634  0.5002
  516MOL0     H71167   3.907   1.181   4.330  1.7220 -0.1648  0.6648
  516MOL0     H71168   4.000   1.179   4.190 -0.7698 -0.4836  0.6968
  516MOL0     H71169   3.840   1.247   4.175  0.2494  1.1397  0.3456
  516MOL0     H71170   3.550   1.261   4.566 -1.2507 -0.1257 -1.1289
  516MOL0     H71171   3.305   1.263   4.650  1.0319  0.9183  4.1143
  516MOL0     H71172   3.103   1.651   4.729  0.2282  2.7657 -2.2877
  516MOL0     H71173   3.083   1.629   4.563  2.5369  1.4018  1.8983
  516MOL0     H71174   2.909   1.476   4.769 -0.1680 -0.4705 -0.2825
  516MOL0     H71175   2.881   1.629   4.674  0.4262  0.3472 -2.1988
  516MOL0     H71176   2.933   1.474   4.462 -1.9278  1.6367 -1.8555
  516MOL0     H71177   2.775   1.486   4.510  1.2855  0.4163 -0.7314
  516MOL0     H71178   2.959   1.280   4.642  0.2497 -0.4336  0.0831
  516MOL0     H71179   2.901   1.256   4.469 -0.6127 -0.3155 -0.5873
  516MOL0     H71180   2.714   1.301   4.703  4.9819  0.6847  1.2133
  516MOL0     H71181   2.682   1.210   4.549  0.5433  0.3637 -0.8388
  516MOL0     H71182   2.838   1.119   4.793 -2.7165  0.2024  0.6831
  516MOL0     H71183   2.833   1.029   4.636  0.2387  0.7044 -1.1951
  516MOL0     H71184   2.585   1.009   4.649 -0.0260  0.1158 -0.1039
  516MOL0     H71185   2.578   1.112   4.788 -1.6041  0.0061 -0.8645
  516MOL0     H71186   2.728   0.971   4.912  0.0994 -1.0575 -0.2048
  516MOL0     H71187   2.750   0.855   4.778 -1.1946 -0.0117 -1.5709
  516MOL0     H71188   3.316   1.691   4.654  2.9547  1.2300  1.0467
  516MOL0     H71189   3.559   1.681   4.562 -0.8857  0.3744 -0.8193
  516MOL0     H71190   3.886   1.659   4.471 -1.7194 -0.3647 -1.0047
  516MOL0     H71191   4.097   1.730   4.394 -0.4147  0.8603 -1.0342
  516MOL0     H71192   3.190   1.099   3.930  0.5202  0.9877 -0.3298
  516MOL0     H71193   2.984   1.052   4.074 -0.8854 -0.0863  1.3420
  516MOL0     H71194   2.731   1.058   4.240  3.4941  0.3694  1.1785
  516MOL0     H71195   2.478   0.989   4.264 -2.2033 -1.3331  1.0504
  516MOL0     H71196   2.386   0.617   4.464 -0.2752 -1.4981  1.0684
  516MOL0     H71197   2.358   0.736   4.593 -0.4501 -1.7601  0.7456
  516MOL0     H71198   2.161   0.706   4.363 -0.4471  1.7674 -0.2558
  516MOL0     H71199   2.142   0.795   4.509  1.0963  2.0967  0.0939
  516MOL0     H71200   2.114   0.512   4.453 -1.9356  1.4858 -0.6393
  516MOL0     H71201   2.224   0.540   4.596  0.6380 -0.2277 -0.6562
  516MOL0     H71202   1.981   0.490   4.658 -2.3209  0.7203  0.4122
  516MOL0     H71203   1.924   0.638   4.586 -0.1604  1.2906  1.2723
  516MOL0     H71204   2.147   0.775   4.915 -0.4164  0.6470 -1.2501
  516MOL0     H71205   2.593   0.674   4.516 -0.3097  0.1774  0.0137
  516MOL0     H71206   2.838   0.580   4.445 -4.1952 -0.2044  0.6108
  516MOL0     H71207   2.950   0.700   4.509 -0.3520 -2.3588  3.0331
  516MOL0     H71208   2.811   0.665   4.605 -1.0130  1.6054 -0.3510
  517MOL0     O71209   7.129   4.853   0.189  0.0429 -0.3010  0.4835
  517MOL0     C71210   7.039   4.927   0.150  0.5303 -0.0407  0.5791
  517MOL0     O71211   7.056   5.043   0.081 -0.0951  0.5625 -0.8196
  517MOL0     C71212   7.184   5.077   0.046  0.7482  0.2154  1.2030
  517MOL0     C71213   7.287   5.090   0.134 -0.7087  0.0036 -0.7162
  517MOL0     C71214   7.409   5.145   0.087  0.2245  0.5404 -1.3220
  517MOL0     C71215   7.427   5.183  -0.045 -1.1048  0.5153 -0.1141
  517MOL0     O71216   7.542   5.240  -0.093 -0.2965 -0.6651 -0.6669
  517MOL0     C71217   7.665   5.251  -0.023 -0.3915 -0.1325  0.2401
  517MOL0     C71218   7.768   5.322  -0.107 -0.0959  0.6452  0.3970
  517MOL0     C71219   7.728   5.464  -0.147  1.1192  0.3143 -0.6096
  517MOL0     C71220   7.837   5.571  -0.179 -0.8172  0.0534  0.3089
  517MOL0     C71221   7.779   5.708  -0.196  0.4267 -0.0577  0.3750
  517MOL0     C71222   7.759   5.755  -0.345 -0.1732 -0.0189  0.3194
  517MOL0     C71223   7.688   5.653  -0.433  0.8226  0.5722  0.1362
  517MOL0     C71224   7.628   5.715  -0.556 -0.3818 -0.2081 -0.0397
  517MOL0     N71225   7.540   5.830  -0.546  0.8651 -0.0517  0.5293
  517MOL0     C71226   7.428   5.814  -0.471 -0.8833 -0.4586 -0.2882
  517MOL0     C71227   7.387   5.942  -0.469 -0.0270  0.0724 -0.4818
  517MOL0     C71228   7.258   5.983  -0.404  0.7388  0.1926  0.4383
  517MOL0     C71229   7.277   6.076  -0.282 -0.5873  0.1455  0.0948
  517MOL0     C71230   7.250   6.221  -0.308 -0.2733 -0.5146  0.9772
  517MOL0     C71231   7.097   6.244  -0.284  0.4623 -0.3868 -0.3272
  517MOL0     O71232   7.075   6.380  -0.313  0.6328  0.0577 -0.7629
  517MOL0     C71233   6.945   6.412  -0.338 -0.3025 -0.2421 -0.4891
  517MOL0     C71234   6.923   6.534  -0.409 -0.2375 -0.0509 -0.6477
  517MOL0     C71235   6.790   6.585  -0.430 -0.8921 -1.0529 -0.0838
  517MOL0     C71236   6.780   6.712  -0.506 -0.3027 -0.6517 -0.1348
  517MOL0     C71237   6.681   6.504  -0.397 -0.7612  0.6860 -0.0572
  517MOL0     C71238   6.543   6.546  -0.399 -0.3233  0.4632 -0.7217
  517MOL0     O71239   6.466   6.524  -0.292 -0.1232 -0.1274 -0.4858
  517MOL0     C71240   6.328   6.551  -0.298 -0.5469  0.1657  0.8686
  517MOL0     C71241   6.279   6.678  -0.293  0.6626  0.3455 -0.2646
  517MOL0     C71242   6.146   6.704  -0.296 -0.5224  0.6595 -0.6117
  517MOL0     C71243   6.058   6.602  -0.291  0.3414  0.0742  0.4533
  517MOL0     O71244   5.927   6.641  -0.302 -0.4628  0.2678  0.3844
  517MOL0     C71245   5.831   6.537  -0.295  0.1308  0.0957  0.8492
  517MOL0     C71246   5.692   6.601  -0.301  0.7239 -0.5203  1.1636
  517MOL0     C71247   5.584   6.504  -0.244 -0.6952 -0.3129 -0.4216
  517MOL0     C71248   5.466   6.598  -0.202  0.4940 -0.4923 -1.0560
  517MOL0     C71249   5.341   6.515  -0.166 -0.4625 -0.1911  0.2673
  517MOL0     C71250   5.211   6.592  -0.144  0.4169 -0.1190 -1.5637
  517MOL0     C71251   5.150   6.526  -0.019 -0.8129  0.0125 -0.2631
  517MOL0     C71252   5.018   6.593   0.016  1.1743  0.8656  0.5345
  517MOL0    Cl71253   5.015   6.758   0.080  0.2351 -0.0089 -0.6441
  517MOL0     C71254   6.098   6.465  -0.297  0.7146 -0.1001  0.7136
  517MOL0     C71255   6.240   6.443  -0.291  0.7353 -0.5092 -0.0576
  517MOL0     O71256   6.506   6.596  -0.504 -0.0180  0.0880 -0.3202
  517MOL0     C71257   6.706   6.388  -0.316 -0.3021 -0.2648  1.2020
  517MOL0     C71258   6.835   6.343  -0.288  0.9244 -0.2665  0.4164
  517MOL0     N71259   7.470   6.031  -0.531  0.0914  0.0572  0.0258
  517MOL0     N71260   7.560   5.960  -0.595  0.8090 -0.2144 -0.1130
  517MOL0     C71261   7.321   5.160  -0.136 -0.4369  0.1997 -0.3435
  517MOL0     C71262   7.195   5.112  -0.084 -0.6684  0.2123 -0.1729
  517MOL0     C71263   6.896   4.885   0.176 -0.8368  0.5732  0.2193
  517MOL0     C71264   6.798   4.976   0.137 -0.2177  0.5596  0.7649
  517MOL0     C71265   6.662   4.945   0.169  0.2476  0.4502  0.2004
  517MOL0     C71266   6.628   4.822   0.227  0.1109 -0.4500 -0.7767
  517MOL0     O71267   6.505   4.805   0.284 -0.6393  0.5060 -0.4301
  517MOL0     C71268   6.491   4.857   0.416  1.1124  0.8175 -0.9178
  517MOL0     C71269   6.352   4.827   0.483  0.1225 -0.5405  0.0264
  517MOL0     C71270   6.238   4.878   0.395 -0.2235  0.4725 -0.6216
  517MOL0     C71271   6.101   4.864   0.468  0.6079  0.2962  0.0716
  517MOL0     C71272   6.055   4.738   0.533 -0.5227  0.6833  0.3758
  517MOL0     C71273   6.023   4.640   0.600 -0.3210 -0.4173 -1.4810
  517MOL0     C71274   6.720   4.723   0.254 -0.0368 -0.7894  0.5615
  517MOL0     C71275   6.859   4.760   0.231  0.0344  0.2546 -0.5024
  517MOL0     C71276   6.950   4.644   0.251 -0.7103  0.4395  0.7692
  517MOL0     H71277   7.284   5.072   0.240  2.4412 -1.9992 -0.8338
  517MOL0     H71278   7.487   5.138   0.163 -0.5513  1.0940 -0.4552
  517MOL0     H71279   7.710   5.153  -0.003  0.6512  0.5495  1.3510
  517MOL0     H71280   7.652   5.299   0.074  1.1693 -0.6705  0.7416
  517MOL0     H71281   7.855   5.345  -0.045  0.1897  2.5068 -0.5890
  517MOL0     H71282   7.785   5.256  -0.193 -0.2908 -2.2296  2.4443
  517MOL0     H71283   7.653   5.463  -0.226  0.3920  0.5809  0.0596
  517MOL0     H71284   7.675   5.509  -0.062 -0.3561 -0.4608 -1.1051
  517MOL0     H71285   7.915   5.583  -0.102  0.5755 -0.1154 -1.0172
  517MOL0     H71286   7.887   5.537  -0.270 -2.2713  0.3950 -0.6341
  517MOL0     H71287   7.846   5.780  -0.149 -1.4156  2.8734 -1.1982
  517MOL0     H71288   7.683   5.717  -0.145  1.0632  3.4863  1.2229
  517MOL0     H71289   7.693   5.842  -0.350 -2.5989 -1.7823 -0.4400
  517MOL0     H71290   7.856   5.774  -0.392 -0.7286  0.4486 -0.6748
  517MOL0     H71291   7.602   5.617  -0.376  1.7543 -0.0776  1.1635
  517MOL0     H71292   7.747   5.563  -0.453  0.2681  0.1177  0.5125
  517MOL0     H71293   7.708   5.746  -0.623 -3.1394  0.9035 -3.0445
  517MOL0     H71294   7.567   5.634  -0.597 -0.7378  0.5969 -1.1257
  517MOL0     H71295   7.376   5.725  -0.436  0.8960 -1.3901  0.0815
  517MOL0     H71296   7.205   5.896  -0.365  2.0319 -0.1534  1.4733
  517MOL0     H71297   7.198   6.033  -0.481 -1.0242 -0.5682  1.2686
  517MOL0     H71298   7.216   6.039  -0.200  1.4092 -0.8107  1.2112
  517MOL0     H71299   7.380   6.086  -0.248 -0.7130 -0.2487  0.5975
  517MOL0     H71300   7.302   6.295  -0.246 -1.2755  1.2881 -0.2529
  517MOL0     H71301   7.266   6.250  -0.412 -2.2224 -1.3923  0.3758
  517MOL0     H71302   7.036   6.177  -0.344 -0.4985  0.9110 -0.8451
  517MOL0     H71303   7.081   6.230  -0.176  3.3756 -0.8625  0.1354
  517MOL0     H71304   7.004   6.597  -0.447  0.6139 -2.6280 -3.4312
  517MOL0     H71305   6.834   6.791  -0.453  3.6804 -3.0745 -0.1895
  517MOL0     H71306   6.677   6.747  -0.515 -0.6247 -1.7129 -0.8250
  517MOL0     H71307   6.825   6.703  -0.605  1.7496 -0.2646  0.7037
  517MOL0     H71308   6.356   6.748  -0.263  0.9856 -0.1608  0.1211
  517MOL0     H71309   6.126   6.811  -0.295  0.7011  0.9043 -0.6782
  517MOL0     H71310   5.840   6.470  -0.381  1.9842  1.3091  0.0356
  517MOL0     H71311   5.839   6.486  -0.198  0.3331 -2.4275 -0.4178
  517MOL0     H71312   5.693   6.696  -0.247 -3.8741 -0.1946  1.0855
  517MOL0     H71313   5.657   6.636  -0.399 -0.1648  0.3719  1.7676
  517MOL0     H71314   5.614   6.457  -0.150 -0.5464  1.7669  0.6288
  517MOL0     H71315   5.566   6.431  -0.324  0.2831 -1.9288  0.7713
  517MOL0     H71316   5.442   6.664  -0.286 -0.7203 -1.3139 -1.4003
  517MOL0     H71317   5.500   6.657  -0.116  0.9038 -1.8037 -0.2916
  517MOL0     H71318   5.340   6.446  -0.251 -2.2272  0.3383 -0.1798
  517MOL0     H71319   5.352   6.453  -0.076 -0.5149 -0.2525  0.2316
  517MOL0     H71320   5.152   6.567  -0.233  0.8706 -2.2804 -1.3108
  517MOL0     H71321   5.226   6.700  -0.131  3.0367 -0.7634  3.6162
  517MOL0     H71322   5.210   6.534   0.072 -0.3783  0.6364 -0.5963
  517MOL0     H71323   5.132   6.420  -0.038 -1.8113  0.1389 -0.0708
  517MOL0     H71324   4.963   6.526   0.083 -1.2859  2.5395  0.3065
  517MOL0     H71325   4.952   6.595  -0.072  1.1730  2.0043  0.5548
  517MOL0     H71326   6.028   6.383  -0.304  0.2696  0.3113  0.3189
  517MOL0     H71327   6.272   6.340  -0.298 -1.4889 -1.3637  1.4002
  517MOL0     H71328   6.617   6.340  -0.277 -0.7963 -0.7637 -0.4624
  517MOL0     H71329   6.847   6.261  -0.219  1.7601 -0.5573 -0.0573
  517MOL0     H71330   7.326   5.159  -0.244 -1.5009 -2.1442 -0.4242
  517MOL0     H71331   7.117   5.080  -0.152 -0.0963  1.0091 -1.2284
  517MOL0     H71332   6.828   5.073   0.098 -0.6721 -0.3405 -2.0310
  517MOL0     H71333   6.594   5.020   0.130 -0.2534  0.2489  0.6761
  517MOL0     H71334   6.567   4.816   0.483 -0.8513  0.1996  1.0414
  517MOL0     H71335   6.516   4.964   0.409 -2.1931  1.6551 -1.3765
  517MOL0     H71336   6.344   4.870   0.583  1.1774 -0.2096 -0.0115
  517MOL0     H71337   6.350   4.718   0.496 -0.2454 -0.3382  2.0451
  517MOL0     H71338   6.257   4.982   0.367  2.3993  0.1293 -0.3153
  517MOL0     H71339   6.235   4.816   0.305 -0.2241 -1.8236  0.8619
  517MOL0     H71340   6.029   4.893   0.390  2.7289  1.0694 -1.7150
  517MOL0     H71341   6.107   4.940   0.547  1.5523  0.7181 -0.3805
  517MOL0     H71342   5.982   4.565   0.664  1.2111 -1.6102 -1.8319
  517MOL0     H71343   6.679   4.631   0.294 -0.7494 -1.0650 -0.7339
  517MOL0     H71344   7.000   4.615   0.158  0.0936 -0.0470  1.3370
  517MOL0     H71345   7.026   4.677   0.323  0.5137 -0.9871  0.1777
  517MOL0     H71346   6.904   4.556   0.297  0.2563 -0.4614  0.0681
  518MOL0     O71347   4.433   4.694   2.114  0.2538  0.3376  0.3267
  518MOL0     C71348   4.461   4.685   1.989  1.0983 -0.0327  0.5257
  518MOL0     O71349   4.589   4.688   1.932 -0.9558  0.1900 -0.5236
  518MOL0     C71350   4.705   4.674   2.009  0.0869 -0.6702  0.5005
  518MOL0     C71351   4.825   4.751   1.987  0.6838 -0.4505  0.6607
  518MOL0     C71352   4.934   4.746   2.068 -1.1960 -0.0229 -0.8857
  518MOL0     C71353   4.937   4.663   2.182 -0.2908  0.2090 -0.2173
  518MOL0     O71354   5.061   4.659   2.244 -0.0947  0.1444  0.1851
  518MOL0     C71355   5.087   4.548   2.331 -0.5624 -0.3234  0.1369
  518MOL0     C71356   5.234   4.527   2.348  0.0450 -0.0597 -0.2144
  518MOL0     C71357   5.325   4.581   2.234  0.4722 -0.9239  0.7383
  518MOL0     C71358   5.470   4.534   2.228  0.2753 -0.4525  0.1577
  518MOL0     C71359   5.533   4.606   2.106 -0.5050 -0.2469  0.1551
  518MOL0     C71360   5.689   4.584   2.121  0.2518  1.1215 -0.2037
  518MOL0     C71361   5.768   4.639   1.992 -0.0612 -0.6269  0.1531
  518MOL0     C71362   5.724   4.779   1.956  0.3530 -0.0415 -0.1570
  518MOL0     N71363   5.779   4.831   1.829 -0.3829 -0.5162  0.7060
  518MOL0     C71364   5.748   4.956   1.778 -0.2616  0.0813  0.6655
  518MOL0     C71365   5.819   4.975   1.665  0.0276 -0.0128 -0.6911
  518MOL0     C71366   5.812   5.099   1.579 -0.1037 -0.2451 -0.1329
  518MOL0     C71367   5.681   5.108   1.504  0.2176 -0.5132 -1.0065
  518MOL0     C71368   5.659   4.993   1.405 -0.5054  0.1111 -0.2676
  518MOL0     C71369   5.530   5.006   1.334 -0.8034  0.1955  0.8211
  518MOL0     O71370   5.530   5.117   1.245 -0.2088  0.0773 -0.0795
  518MOL0     C71371   5.421   5.126   1.161 -0.4489 -0.6907 -0.5184
  518MOL0     C71372   5.436   5.094   1.027  0.3427  0.6772 -0.9294
  518MOL0     C71373   5.321   5.105   0.938  0.5241  0.1966 -0.3737
  518MOL0     C71374   5.344   5.089   0.787  0.0255  0.1875  0.3672
  518MOL0     C71375   5.191   5.131   1.004  0.0644  0.0686 -0.1367
  518MOL0     C71376   5.064   5.122   0.927  0.1304  0.1909  0.2329
  518MOL0     O71377   4.959   5.073   0.999 -0.2714 -0.0254 -0.0541
  518MOL0     C71378   4.833   5.074   0.951  0.6673  0.1180  0.4627
  518MOL0     C71379   4.778   5.195   0.913 -0.3984 -0.1774 -1.0432
  518MOL0     C71380   4.649   5.202   0.867 -0.2254  0.8088  0.6549
  518MOL0     C71381   4.583   5.084   0.843 -0.2085  0.9657  0.0787
  518MOL0     O71382   4.469   5.113   0.774 -0.3576  0.6902  0.1238
  518MOL0     C71383   4.440   5.029   0.666  0.3781 -0.3867  0.3510
  518MOL0     C71384   4.306   5.075   0.600  0.2511 -0.2019 -0.7419
  518MOL0     C71385   4.294   5.019   0.458  0.2841 -0.4461 -0.5378
  518MOL0     C71386   4.138   5.000   0.426 -0.4762 -0.1501 -0.2586
  518MOL0     C71387   4.079   4.865   0.480  0.2543 -0.1468  0.5024
  518MOL0     C71388   3.952   4.803   0.411  0.3358 -0.6645 -0.2276
  518MOL0     C71389   3.968   4.797   0.267 -0.4145  0.4782  0.1140
  518MOL0     C71390   3.845   4.747   0.197  1.2606 -0.7996  0.8672
  518MOL0    Cl71391   3.870   4.760   0.020 -0.2089 -0.4254  0.1799
  518MOL0     C71392   4.627   4.955   0.879 -0.3703  0.6894 -0.3818
  518MOL0     C71393   4.756   4.950   0.941  0.3142 -0.7839 -0.4390
  518MOL0     O71394   5.065   5.148   0.807 -0.0409 -0.3029 -0.1755
  518MOL0     C71395   5.186   5.175   1.143  0.6636  0.2770  0.2574
  518MOL0     C71396   5.300   5.172   1.213 -0.8039  0.1728 -0.4005
  518MOL0     N71397   5.906   4.865   1.661  0.1395 -0.0021 -0.1020
  518MOL0     N71398   5.885   4.781   1.758  0.0455  0.4698 -0.8457
  518MOL0     C71399   4.823   4.592   2.209  0.2039  0.1944 -0.6602
  518MOL0     C71400   4.709   4.603   2.124  0.4609 -0.5391  0.3558
  518MOL0     C71401   4.347   4.683   1.891  0.4866 -0.5057  0.3557
  518MOL0     C71402   4.368   4.658   1.757  0.0194 -0.4687 -0.3651
  518MOL0     C71403   4.276   4.656   1.666  0.3007 -0.2661  0.9470
  518MOL0     C71404   4.144   4.673   1.700 -0.1725  0.4314  0.2737
  518MOL0     O71405   4.059   4.663   1.588 -0.1506  0.1785 -0.1705
  518MOL0     C71406   3.911   4.675   1.599  0.5046 -0.6002  0.0180
  518MOL0     C71407   3.851   4.546   1.652 -0.4131 -0.6131 -0.2991
  518MOL0     C71408   3.700   4.548   1.684 -0.3767 -0.0802  0.7708
  518MOL0     C71409   3.679   4.614   1.824 -0.1401  0.1015  0.1506
  518MOL0     C71410   3.726   4.524   1.931 -0.0536 -0.5807 -0.6105
  518MOL0     C71411   3.772   4.444   2.010 -0.8314  0.2804  0.2107
  518MOL0     C71412   4.112   4.693   1.829 -0.4405  0.0886 -0.3405
  518MOL0     C71413   4.206   4.698   1.928 -0.0182  0.0843  0.6534
  518MOL0     C71414   4.158   4.716   2.067  0.9468  0.5921 -0.4958
  518MOL0     H71415   4.831   4.814   1.899  1.6302  1.5494  2.0936
  518MOL0     H71416   5.028   4.794   2.042 -1.0514 -1.0052 -2.2860
  518MOL0     H71417   5.041   4.467   2.275 -1.0164  0.3505 -0.4839
  518MOL0     H71418   5.040   4.568   2.428 -1.1678 -0.6510 -0.0865
  518MOL0     H71419   5.270   4.580   2.436  1.3885  1.4998 -1.6417
  518MOL0     H71420   5.254   4.419   2.352 -1.4294 -0.3478  0.1975
  518MOL0     H71421   5.270   4.560   2.142 -1.5854 -0.2315  1.7406
  518MOL0     H71422   5.332   4.690   2.244 -2.5094 -0.6254  0.5908
  518MOL0     H71423   5.521   4.570   2.318  0.3435  1.2973 -0.5476
  518MOL0     H71424   5.477   4.425   2.226 -1.0125 -0.5455 -0.4655
  518MOL0     H71425   5.510   4.712   2.116 -0.5918 -0.1114 -1.3273
  518MOL0     H71426   5.502   4.567   2.009 -0.0267 -0.9639  0.2777
  518MOL0     H71427   5.720   4.638   2.211  1.8665  1.7098 -1.0645
  518MOL0     H71428   5.720   4.479   2.125 -1.8700  0.3694 -1.6872
  518MOL0     H71429   5.748   4.580   1.902  0.1857 -0.2649 -0.1417
  518MOL0     H71430   5.875   4.641   2.014  0.0128 -1.3119 -0.1130
  518MOL0     H71431   5.615   4.780   1.954  0.2655 -2.0350  1.1325
  518MOL0     H71432   5.763   4.848   2.031 -0.8804 -0.9028  1.3163
  518MOL0     H71433   5.681   5.027   1.825  1.2482  1.6383  0.5581
  518MOL0     H71434   5.886   5.104   1.499  0.8251 -0.1399  0.7178
  518MOL0     H71435   5.833   5.178   1.652 -0.1960  0.0430 -0.4162
  518MOL0     H71436   5.615   5.120   1.590 -0.7895 -0.5176 -1.7583
  518MOL0     H71437   5.676   5.203   1.449 -0.5841  0.1195  0.1072
  518MOL0     H71438   5.744   4.987   1.336 -0.7631  0.6770 -0.6448
  518MOL0     H71439   5.652   4.898   1.458 -2.0198  0.7091  0.6689
  518MOL0     H71440   5.528   4.914   1.274  2.5369  0.9927 -0.7527
  518MOL0     H71441   5.450   4.998   1.408 -1.9152  0.3453 -0.3130
  518MOL0     H71442   5.533   5.069   0.985  0.5443 -0.2440  0.0284
  518MOL0     H71443   5.288   4.998   0.763  1.6059 -0.5433 -0.6963
  518MOL0     H71444   5.450   5.085   0.761  0.1226  2.8570 -0.0056
  518MOL0     H71445   5.303   5.172   0.729 -1.1851  0.7515  1.9501
  518MOL0     H71446   4.837   5.281   0.945 -1.6668 -0.2691  1.9469
  518MOL0     H71447   4.605   5.297   0.838 -0.5567 -0.3531 -3.3069
  518MOL0     H71448   4.518   5.043   0.590 -0.7466 -0.6457 -0.8688
  518MOL0     H71449   4.432   4.921   0.682 -1.8108 -0.4321 -0.8013
  518MOL0     H71450   4.226   5.050   0.670 -0.2609  2.6692 -0.1846
  518MOL0     H71451   4.306   5.185   0.598  0.3665 -0.1955 -2.3162
  518MOL0     H71452   4.356   4.933   0.435 -0.6188 -0.7666 -1.8961
  518MOL0     H71453   4.324   5.106   0.398 -0.1309  0.6027  0.7232
  518MOL0     H71454   4.128   5.004   0.317  1.1993  3.4775 -0.3973
  518MOL0     H71455   4.092   5.089   0.469  0.2362  1.0010 -1.7767
  518MOL0     H71456   4.155   4.787   0.482  0.1448 -0.2577  0.3357
  518MOL0     H71457   4.042   4.888   0.581 -2.5178 -2.3022  0.1290
  518MOL0     H71458   3.869   4.873   0.428  0.8905 -0.4376  1.7933
  518MOL0     H71459   3.937   4.707   0.461 -1.1088  1.4516  3.9383
  518MOL0     H71460   4.048   4.734   0.226 -3.9189 -2.9272 -2.2329
  518MOL0     H71461   3.978   4.896   0.222  1.7678  0.1452 -0.2404
  518MOL0     H71462   3.757   4.808   0.221 -0.9356 -2.6350 -1.8607
  518MOL0     H71463   3.835   4.643   0.229 -0.6106 -0.7583  0.5609
  518MOL0     H71464   4.573   4.864   0.857 -1.7375  0.7659  2.2342
  518MOL0     H71465   4.806   4.856   0.963 -1.2540 -1.1882  1.7229
  518MOL0     H71466   5.097   5.205   1.198  0.3686  1.0624 -0.6199
  518MOL0     H71467   5.299   5.201   1.317 -1.5298  0.1428 -0.3985
  518MOL0     H71468   4.811   4.518   2.287 -0.5817  1.1877  0.1822
  518MOL0     H71469   4.622   4.545   2.151 -1.4206  1.4264 -1.1388
  518MOL0     H71470   4.469   4.647   1.719 -0.0593  4.2995 -2.6927
  518MOL0     H71471   4.291   4.637   1.560 -2.7884  0.3450  0.3288
  518MOL0     H71472   3.886   4.761   1.661  2.9663 -0.2817  0.6653
  518MOL0     H71473   3.865   4.691   1.501 -0.1721  2.1158  0.7026
  518MOL0     H71474   3.905   4.517   1.743  0.2471 -1.9073 -1.0741
  518MOL0     H71475   3.863   4.470   1.575  0.5736  0.2626 -1.0365
  518MOL0     H71476   3.648   4.604   1.606 -1.0466  0.2138  1.4130
  518MOL0     H71477   3.657   4.448   1.674  1.0724 -0.5869 -1.0128
  518MOL0     H71478   3.572   4.627   1.846 -0.6641 -0.6744 -1.7593
  518MOL0     H71479   3.724   4.714   1.830  1.2664 -0.4003 -1.5185
  518MOL0     H71480   3.801   4.368   2.080  0.0559  0.8613  0.4873
  518MOL0     H71481   4.010   4.706   1.863  0.3462  1.9835  1.5028
  518MOL0     H71482   4.152   4.623   2.125 -3.5377 -1.3078 -3.4403
  518MOL0     H71483   4.225   4.782   2.123 -1.8778  0.6948  3.1863
  518MOL0     H71484   4.052   4.743   2.064  1.0765  1.3382  0.8604
  519MOL0     O71485   5.557   0.108   3.793  0.8755 -0.0840  0.1117
  519MOL0     C71486   5.501   0.172   3.882  0.2543 -0.0719 -0.2525
  519MOL0     O71487   5.561   0.246   3.981  0.9731 -0.4580 -0.0541
  519MOL0     C71488   5.693   0.261   3.995 -1.4688 -0.6361 -0.6570
  519MOL0     C71489   5.791   0.257   3.893  0.0075  0.4606  0.0702
  519MOL0     C71490   5.916   0.315   3.911 -0.3058 -0.3671  0.3581
  519MOL0     C71491   5.953   0.371   4.044  0.0304 -0.6768  0.1648
  519MOL0     O71492   6.084   0.415   4.073  0.0959 -0.1592  0.8164
  519MOL0     C71493   6.088   0.550   4.131  0.6175  0.1719 -0.3126
  519MOL0     C71494   6.163   0.635   4.038 -0.5799  0.2598  0.5637
  519MOL0     C71495   6.315   0.601   4.025  0.0755 -0.4111  0.0864
  519MOL0     C71496   6.391   0.586   4.156 -0.1621  0.1213 -0.9801
  519MOL0     C71497   6.525   0.502   4.154  0.7687 -0.2682  0.2605
  519MOL0     C71498   6.621   0.578   4.068 -0.8321  0.5292  0.1606
  519MOL0     C71499   6.757   0.511   4.052 -0.3096 -0.7931 -0.8637
  519MOL0     C71500   6.756   0.368   3.999 -0.3726 -0.0947  0.0419
  519MOL0     N71501   6.890   0.311   3.966  0.3337  0.2536 -0.6072
  519MOL0     C71502   6.958   0.317   3.847  0.4644 -0.2256 -0.0168
  519MOL0     C71503   7.083   0.284   3.879  0.6422  0.1383 -0.6906
  519MOL0     C71504   7.186   0.286   3.779  0.0909  0.1393  0.8510
  519MOL0     C71505   7.317   0.224   3.802  0.0630 -0.2697 -0.1364
  519MOL0     C71506   7.397   0.209   3.674  0.1012 -0.1109  0.6894
  519MOL0     C71507   7.502   0.100   3.692  0.0394  0.5251  0.5340
  519MOL0     O71508   7.609   0.135   3.774 -0.3844 -0.4678 -0.0991
  519MOL0     C71509   7.709   0.053   3.813  1.0595 -0.3396  0.6178
  519MOL0     C71510   7.717  -0.077   3.770 -0.1549  0.3991  0.1729
  519MOL0     C71511   7.824  -0.155   3.824 -1.0373  0.2127  0.0152
  519MOL0     C71512   7.823  -0.309   3.788  0.4340 -0.2985 -0.0960
  519MOL0     C71513   7.926  -0.093   3.905 -0.2914 -0.1185  0.0350
  519MOL0     C71514   8.046  -0.163   3.944  0.5884  0.1153  0.4921
  519MOL0     O71515   8.050  -0.299   3.951  0.1835  0.0056 -0.2702
  519MOL0     C71516   8.168  -0.358   3.971 -0.2671 -0.0362  0.7957
  519MOL0     C71517   8.239  -0.357   4.085  0.2515  0.3180 -0.6475
  519MOL0     C71518   8.360  -0.427   4.102  0.2956 -0.4498  0.7193
  519MOL0     C71519   8.411  -0.505   3.992 -1.1871 -0.1473  0.0121
  519MOL0     O71520   8.515  -0.593   3.988 -0.2246 -0.0865 -0.0720
  519MOL0     C71521   8.632  -0.555   4.061  1.2511 -0.1054 -0.2035
  519MOL0     C71522   8.761  -0.626   4.013  0.3528 -0.0042 -0.8302
  519MOL0     C71523   8.801  -0.541   3.895  0.6373  1.3746 -0.0826
  519MOL0     C71524   8.936  -0.594   3.853 -0.1586  0.5935 -0.0181
  519MOL0     C71525   9.019  -0.506   3.753  0.9349 -0.2281 -0.0293
  519MOL0     C71526   8.950  -0.512   3.618 -1.0554 -0.0207 -0.7576
  519MOL0     C71527   9.043  -0.447   3.516 -0.5208 -0.1204  0.2784
  519MOL0     C71528   8.988  -0.455   3.375 -0.6643  0.0717 -0.3771
  519MOL0    Cl71529   8.889  -0.321   3.334  0.1816  0.2580  0.5095
  519MOL0     C71530   8.333  -0.505   3.867 -0.4984 -0.9147  0.3297
  519MOL0     C71531   8.222  -0.429   3.856  1.4536 -0.1955 -0.9480
  519MOL0     O71532   8.143  -0.092   3.977 -0.1218 -0.1399  0.2737
  519MOL0     C71533   7.910   0.041   3.948 -1.0150 -0.3243  0.1236
  519MOL0     C71534   7.804   0.105   3.901 -0.1807 -0.4703  0.4060
  519MOL0     N71535   7.087   0.244   4.008 -0.8463 -0.8477 -0.4364
  519MOL0     N71536   6.975   0.263   4.069 -0.1260  0.2648 -0.2246
  519MOL0     C71537   5.854   0.383   4.138  1.0854 -0.4616  0.2600
  519MOL0     C71538   5.728   0.325   4.120  0.0375 -0.3448 -0.4740
  519MOL0     C71539   5.362   0.177   3.872  0.0446  0.0532 -1.0449
  519MOL0     C71540   5.297   0.059   3.865 -0.1964 -0.0957 -0.2091
  519MOL0     C71541   5.155   0.050   3.850 -0.3135 -0.8436 -0.2013
  519MOL0     C71542   5.078   0.171   3.860  0.4811  1.0113 -0.2659
  519MOL0     O71543   4.943   0.154   3.841 -0.0438 -0.4566  0.3777
  519MOL0     C71544   4.859   0.266   3.860 -0.2146 -0.4998  0.1948
  519MOL0     C71545   4.725   0.212   3.835 -0.6776  0.3641 -0.1151
  519MOL0     C71546   4.696   0.176   3.687 -0.6812  0.4811  1.3157
  519MOL0     C71547   4.554   0.132   3.658  1.1283  0.2549  0.5496
  519MOL0     C71548   4.455   0.240   3.657 -0.1780 -0.0774  0.5651
  519MOL0     C71549   4.384   0.335   3.647 -0.0779 -0.3845 -0.2165
  519MOL0     C71550   5.150   0.288   3.876  0.0471 -0.3985  0.1660
  519MOL0     C71551   5.286   0.294   3.884 -0.5722 -0.6394  0.2171
  519MOL0     C71552   5.357   0.438   3.880 -0.0069  0.0358  0.0178
  519MOL0     H71553   5.771   0.206   3.799 -1.4005  0.8298  0.1489
  519MOL0     H71554   5.990   0.309   3.832 -0.0025  1.6367  0.4339
  519MOL0     H71555   6.109   0.545   4.238  2.2334  2.6327 -0.4299
  519MOL0     H71556   5.994   0.607   4.140  1.7718  1.9879  0.9610
  519MOL0     H71557   6.123   0.619   3.938  0.4975  1.3792 -0.0821
  519MOL0     H71558   6.154   0.742   4.058  0.6322  1.0045 -2.2936
  519MOL0     H71559   6.331   0.509   3.968 -2.4004 -0.7406 -0.1689
  519MOL0     H71560   6.363   0.682   3.969 -1.6699 -0.3855 -1.4569
  519MOL0     H71561   6.414   0.683   4.202  0.2340  0.1114 -1.1479
  519MOL0     H71562   6.322   0.538   4.226  0.8573  0.3173  0.2062
  519MOL0     H71563   6.511   0.401   4.113  2.2166  0.3658 -1.9745
  519MOL0     H71564   6.564   0.482   4.254  1.1274 -0.9037 -0.0037
  519MOL0     H71565   6.575   0.586   3.969 -0.8035  0.4637  0.1418
  519MOL0     H71566   6.636   0.681   4.102  0.1058  1.1134 -1.8771
  519MOL0     H71567   6.811   0.528   4.146 -2.4372 -0.7189  0.4185
  519MOL0     H71568   6.806   0.570   3.974 -1.9731  0.8089 -0.7594
  519MOL0     H71569   6.703   0.301   4.068 -0.7474  0.8968  0.7340
  519MOL0     H71570   6.703   0.357   3.904 -1.9886  0.3421  0.8680
  519MOL0     H71571   6.921   0.341   3.748  2.9527 -1.5540 -1.3604
  519MOL0     H71572   7.209   0.388   3.747  1.0977 -0.7157 -1.3398
  519MOL0     H71573   7.136   0.233   3.697 -1.8754 -0.6926  2.4958
  519MOL0     H71574   7.371   0.291   3.870 -1.6121  2.4675 -1.3208
  519MOL0     H71575   7.306   0.127   3.850 -0.2027 -0.3454 -0.3472
  519MOL0     H71576   7.325   0.182   3.597 -1.0033  0.1109  1.6125
  519MOL0     H71577   7.451   0.299   3.644  0.1981 -0.1533  0.7356
  519MOL0     H71578   7.448   0.008   3.716 -1.5408  0.8877 -1.3765
  519MOL0     H71579   7.540   0.076   3.592  1.1329  0.8189  0.8651
  519MOL0     H71580   7.640  -0.126   3.711 -0.0700  1.0247 -0.4784
  519MOL0     H71581   7.737  -0.331   3.724 -0.5838  0.1496  1.0673
  519MOL0     H71582   7.825  -0.376   3.875  0.5192 -0.2979 -0.0980
  519MOL0     H71583   7.911  -0.344   3.734 -0.0815 -2.0222  0.1109
  519MOL0     H71584   8.202  -0.298   4.168  1.6813 -1.2517  1.2150
  519MOL0     H71585   8.408  -0.432   4.199 -0.6063 -3.1012  1.1061
  519MOL0     H71586   8.648  -0.448   4.049 -0.6872  0.7372  3.2179
  519MOL0     H71587   8.617  -0.570   4.169 -0.3243  0.4813 -0.3071
  519MOL0     H71588   8.832  -0.628   4.097 -0.6217  3.5079  0.2175
  519MOL0     H71589   8.736  -0.727   3.978 -1.3111  0.3540 -0.7547
  519MOL0     H71590   8.819  -0.438   3.927 -2.4230  2.6371 -1.9282
  519MOL0     H71591   8.734  -0.550   3.808 -0.6205 -0.5208  1.0145
  519MOL0     H71592   8.937  -0.692   3.805  0.1214  1.9079 -2.8659
  519MOL0     H71593   9.000  -0.598   3.942  0.0486  3.1925  0.0174
  519MOL0     H71594   9.022  -0.399   3.776 -0.1562 -0.3561  0.8112
  519MOL0     H71595   9.115  -0.557   3.750  0.2680 -1.5330  0.1278
  519MOL0     H71596   8.859  -0.452   3.623 -0.6166  0.6730 -0.8981
  519MOL0     H71597   8.931  -0.616   3.589 -2.1651 -0.0291 -0.0555
  519MOL0     H71598   9.140  -0.498   3.516 -0.2793  0.1619 -2.7639
  519MOL0     H71599   9.057  -0.341   3.537 -0.0359  0.0014 -0.6056
  519MOL0     H71600   8.936  -0.550   3.360  1.0816 -1.2121  1.2091
  519MOL0     H71601   9.073  -0.446   3.307  0.0975  3.1716  0.7988
  519MOL0     H71602   8.370  -0.556   3.778 -0.7645  0.3352 -0.5171
  519MOL0     H71603   8.161  -0.423   3.767  0.6247  0.3000 -0.3637
  519MOL0     H71604   7.974   0.095   4.017 -2.9720 -0.4405  2.1458
  519MOL0     H71605   7.799   0.210   3.928 -1.9366 -0.6966  1.0732
  519MOL0     H71606   5.892   0.422   4.232  2.0037  0.6309 -0.5361
  519MOL0     H71607   5.659   0.337   4.203  1.9461 -2.3794  1.5558
  519MOL0     H71608   5.362  -0.027   3.855  2.4746  1.1939  3.5991
  519MOL0     H71609   5.120  -0.051   3.835  3.6030 -2.1991 -1.3527
  519MOL0     H71610   4.874   0.307   3.960 -2.7127  1.0490  0.0106
  519MOL0     H71611   4.880   0.344   3.786 -1.7035 -1.8398 -1.7533
  519MOL0     H71612   4.663   0.294   3.872  0.6025  1.0356  0.6144
  519MOL0     H71613   4.710   0.127   3.902 -1.1266  2.2742  2.3470
  519MOL0     H71614   4.728   0.254   3.618  1.7357 -1.9519 -0.5355
  519MOL0     H71615   4.770   0.101   3.658  1.6849  2.7731  1.0451
  519MOL0     H71616   4.508   0.070   3.735 -3.2628  3.1342  0.6012
  519MOL0     H71617   4.549   0.079   3.562  0.3284 -0.3906  0.9309
  519MOL0     H71618   4.322   0.422   3.652  0.0806 -0.2878  0.0638
  519MOL0     H71619   5.096   0.381   3.862 -2.3479 -1.4298  1.8833
  519MOL0     H71620   5.282   0.517   3.881 -1.2096 -1.0672  0.5120
  519MOL0     H71621   5.426   0.453   3.964  0.7067 -4.2460  0.4412
  519MOL0     H71622   5.417   0.442   3.789  0.6417 -2.8818  0.2225
  520MOL0     O71623   4.459   8.637   5.966 -0.1797  0.4691  0.2354
  520MOL0     C71624   4.373   8.701   5.908 -1.1975 -0.4430 -0.4128
  520MOL0     O71625   4.396   8.819   5.832  0.8296  0.4390  0.8740
  520MOL0     C71626   4.525   8.867   5.817  0.5174 -0.2408 -0.0274
  520MOL0     C71627   4.634   8.790   5.779  0.1584 -0.3366  0.1358
  520MOL0     C71628   4.770   8.836   5.783  0.2020  0.0619 -0.4829
  520MOL0     C71629   4.796   8.964   5.834  0.2925 -0.1828 -0.2394
  520MOL0     O71630   4.927   9.012   5.827 -0.0987 -0.3138 -0.8321
  520MOL0     C71631   4.940   9.159   5.801  0.8322 -0.0419 -0.7539
  520MOL0     C71632   5.077   9.211   5.764 -0.8640  0.3802 -0.9434
  520MOL0     C71633   5.151   9.108   5.672 -0.0183 -0.4471 -0.0612
  520MOL0     C71634   5.249   9.162   5.568 -0.5373 -0.8646  0.9224
  520MOL0     C71635   5.373   9.228   5.627 -0.3599 -0.1756 -0.0098
  520MOL0     C71636   5.500   9.225   5.528 -0.3468  0.2549 -0.9754
  520MOL0     C71637   5.472   9.304   5.405 -0.2571 -0.6312  0.1503
  520MOL0     C71638   5.612   9.336   5.348  0.0769 -0.0206 -0.1291
  520MOL0     N71639   5.595   9.451   5.262  0.2719 -0.1684 -0.3800
  520MOL0     C71640   5.628   9.583   5.288 -0.1609 -0.3125 -0.1967
  520MOL0     C71641   5.564   9.652   5.192  0.0699 -0.0008  0.1442
  520MOL0     C71642   5.589   9.801   5.173  0.4542 -1.0718  0.1405
  520MOL0     C71643   5.579   9.848   5.034 -0.4131  0.5757  0.2375
  520MOL0     C71644   5.622   9.993   5.024 -0.5458 -0.5150 -1.0877
  520MOL0     C71645   5.774  10.024   5.042 -0.0381  0.6729  0.7131
  520MOL0     O71646   5.833  10.021   4.910 -0.3503 -0.5160  0.2349
  520MOL0     C71647   5.963  10.070   4.906  0.5674  0.3535 -0.1143
  520MOL0     C71648   6.044  10.114   5.012  0.6674  0.0050 -0.1926
  520MOL0     C71649   6.178  10.162   5.000  0.9919  0.8082 -0.1650
  520MOL0     C71650   6.257  10.205   5.119  0.4220  0.9103  0.5987
  520MOL0     C71651   6.227  10.168   4.863  0.0565  0.0818  0.4155
  520MOL0     C71652   6.359  10.225   4.823 -0.3644  0.3529 -0.0557
  520MOL0     O71653   6.450  10.250   4.915  0.2375  0.6117  1.0010
  520MOL0     C71654   6.586  10.280   4.868  0.5135  0.0096 -0.8429
  520MOL0     C71655   6.614  10.402   4.814 -0.5892  0.0872  0.2794
  520MOL0     C71656   6.744  10.449   4.794 -0.0148  0.8815  0.0202
  520MOL0     C71657   6.852  10.359   4.824  0.9210 -0.1445 -0.6722
  520MOL0     O71658   6.981  10.387   4.816 -0.5929 -0.6800  0.0464
  520MOL0     C71659   7.024  10.520   4.759 -0.7605  0.9257 -0.4972
  520MOL0     C71660   7.173  10.540   4.774 -0.1872  0.4400 -0.4116
  520MOL0     C71661   7.245  10.421   4.708 -0.4981 -0.0897  1.0089
  520MOL0     C71662   7.397  10.414   4.721 -0.9082 -0.1605  0.2766
  520MOL0     C71663   7.477  10.309   4.630  0.3173 -0.6136 -0.0207
  520MOL0     C71664   7.615  10.355   4.606  0.7541 -0.4916  0.4562
  520MOL0     C71665   7.695  10.235   4.560 -0.2253  0.3815  0.8570
  520MOL0     C71666   7.806  10.273   4.472 -0.3221 -0.4730 -0.0816
  520MOL0    Cl71667   7.926  10.347   4.576  0.2848  0.0709 -0.0904
  520MOL0     C71668   6.817  10.225   4.867 -0.0092  0.3569  0.3829
  520MOL0     C71669   6.686  10.189   4.889 -0.4975  0.3290 -0.0049
  520MOL0     O71670   6.372  10.260   4.702 -0.4817  0.0964 -0.4534
  520MOL0     C71671   6.134  10.141   4.758 -0.9429  0.0576  0.5604
  520MOL0     C71672   6.012  10.082   4.782  0.1230  0.6285  0.2466
  520MOL0     N71673   5.490   9.564   5.115  0.3169  0.1285  0.1548
  520MOL0     N71674   5.503   9.445   5.153 -0.0773  0.0205  0.5474
  520MOL0     C71675   4.691   9.042   5.874 -1.2596 -0.4269 -0.1447
  520MOL0     C71676   4.554   9.001   5.869 -0.4256  0.1584 -0.1392
  520MOL0     C71677   4.231   8.652   5.912 -0.7099  0.3077 -0.8687
  520MOL0     C71678   4.151   8.676   5.799 -1.0990 -0.1332 -0.2829
  520MOL0     C71679   4.014   8.636   5.801  0.3549 -0.4374 -0.1855
  520MOL0     C71680   3.963   8.565   5.903 -0.7921 -0.5033 -0.0275
  520MOL0     O71681   3.834   8.509   5.900  0.1485  0.5164 -0.5319
  520MOL0     C71682   3.764   8.517   5.773 -0.7221 -0.0839  0.0997
  520MOL0     C71683   3.631   8.440   5.786 -0.0328 -0.6383  0.1687
  520MOL0     C71684   3.530   8.449   5.671 -0.6753 -0.2959 -0.2906
  520MOL0     C71685   3.400   8.380   5.704 -0.8639 -0.5156 -0.2752
  520MOL0     C71686   3.305   8.392   5.592  0.5733 -0.2395 -0.2032
  520MOL0     C71687   3.222   8.403   5.509 -0.5602  0.1850  0.3963
  520MOL0     C71688   4.042   8.536   6.010 -0.1414  0.7578  0.4269
  520MOL0     C71689   4.176   8.577   6.027  0.5554  0.2716  0.7525
  520MOL0     C71690   4.253   8.546   6.152 -0.6643  0.2353 -0.3222
  520MOL0     H71691   4.624   8.687   5.747  2.5910 -0.6065  0.0766
  520MOL0     H71692   4.851   8.779   5.739  1.8706  0.2405  2.1367
  520MOL0     H71693   4.910   9.221   5.885  0.1084 -1.0203 -0.2653
  520MOL0     H71694   4.869   9.192   5.724 -0.7943  2.8875  1.8000
  520MOL0     H71695   5.072   9.306   5.709 -4.7264 -0.0305 -1.5985
  520MOL0     H71696   5.145   9.215   5.849  1.0376  3.1334 -2.4490
  520MOL0     H71697   5.203   9.029   5.728  4.4693  1.0120 -1.7382
  520MOL0     H71698   5.079   9.044   5.620  3.0326 -2.3580 -2.2964
  520MOL0     H71699   5.292   9.088   5.499  1.8679  2.3543 -1.2949
  520MOL0     H71700   5.205   9.236   5.501  1.4871 -1.1540 -0.8322
  520MOL0     H71701   5.393   9.168   5.716 -0.2170 -0.9627 -0.5642
  520MOL0     H71702   5.355   9.327   5.668 -0.2993 -0.6803  1.2715
  520MOL0     H71703   5.589   9.273   5.570 -0.5253  1.1154 -1.5636
  520MOL0     H71704   5.534   9.123   5.507 -0.3873 -0.0855  0.5216
  520MOL0     H71705   5.437   9.402   5.439  0.0367 -0.3465 -0.3551
  520MOL0     H71706   5.402   9.263   5.332 -0.6849  0.7706 -0.2487
  520MOL0     H71707   5.687   9.358   5.425  0.2991 -0.5188 -0.1972
  520MOL0     H71708   5.638   9.242   5.300 -1.5474 -0.9619  0.7436
  520MOL0     H71709   5.689   9.628   5.365  0.1449 -3.5197  1.6183
  520MOL0     H71710   5.692   9.828   5.197  1.1881  2.0708 -5.1199
  520MOL0     H71711   5.519   9.863   5.231 -0.6034 -2.0867  0.0030
  520MOL0     H71712   5.643   9.792   4.965 -1.8836  0.7113 -1.2924
  520MOL0     H71713   5.482   9.836   4.986  0.3429 -0.3180 -1.1380
  520MOL0     H71714   5.603  10.023   4.921  1.3923 -0.6768 -1.5357
  520MOL0     H71715   5.563  10.060   5.087  0.6033 -1.8569  1.6103
  520MOL0     H71716   5.786  10.128   5.075  0.6333  1.8852 -2.8601
  520MOL0     H71717   5.817   9.955   5.115 -0.6093 -0.3444  0.1179
  520MOL0     H71718   6.019  10.112   5.117  0.4621  2.4580 -0.1183
  520MOL0     H71719   6.281  10.311   5.123  2.3150  0.5603 -0.5529
  520MOL0     H71720   6.353  10.154   5.112  0.6476  1.4607 -0.4642
  520MOL0     H71721   6.216  10.175   5.217  2.3422  1.6256  1.6740
  520MOL0     H71722   6.535  10.474   4.797 -1.0057 -0.1249  1.2178
  520MOL0     H71723   6.758  10.551   4.758  1.0675  1.1429  1.1263
  520MOL0     H71724   7.004  10.528   4.652 -0.0838 -4.0345 -1.2294
  520MOL0     H71725   6.977  10.603   4.813 -0.3998 -0.4523  2.0881
  520MOL0     H71726   7.213  10.634   4.736  0.1960  0.4212 -0.0641
  520MOL0     H71727   7.205  10.531   4.878  0.0268  0.7940 -0.4463
  520MOL0     H71728   7.230  10.417   4.600 -2.5243  1.9899  1.1206
  520MOL0     H71729   7.194  10.334   4.751 -1.8281  0.0701 -0.1718
  520MOL0     H71730   7.418  10.390   4.826  0.5284  0.4313  0.1489
  520MOL0     H71731   7.447  10.507   4.692  0.2809 -1.7819 -3.4272
  520MOL0     H71732   7.473  10.208   4.673  1.3962 -1.0460 -0.9004
  520MOL0     H71733   7.427  10.312   4.533  0.3283  3.0692 -0.0513
  520MOL0     H71734   7.659  10.386   4.701  4.0505  0.6498 -1.2667
  520MOL0     H71735   7.612  10.440   4.538 -0.9854  1.2439  2.5512
  520MOL0     H71736   7.632  10.172   4.497 -1.3657  2.5093 -0.2549
  520MOL0     H71737   7.743  10.179   4.640 -0.8305 -1.3426  0.0769
  520MOL0     H71738   7.776  10.339   4.390  0.7000  0.9510  0.6308
  520MOL0     H71739   7.843  10.179   4.432 -0.5346 -0.8357  0.5527
  520MOL0     H71740   6.894  10.149   4.879 -0.0716  0.0859 -0.8081
  520MOL0     H71741   6.666  10.088   4.923 -1.4986 -0.2690 -2.1757
  520MOL0     H71742   6.177  10.126   4.659  0.4387 -0.4800  1.2112
  520MOL0     H71743   5.960  10.024   4.706 -1.9549 -0.6091  2.4871
  520MOL0     H71744   4.715   9.140   5.914 -0.8179 -0.9431  0.8935
  520MOL0     H71745   4.475   9.074   5.885 -0.9386 -0.7250  1.6372
  520MOL0     H71746   4.185   8.726   5.708  0.0270  0.2791  0.3519
  520MOL0     H71747   3.962   8.676   5.715 -0.0187  1.4227  0.8484
  520MOL0     H71748   3.730   8.618   5.749 -0.7664  0.0419  0.6638
  520MOL0     H71749   3.824   8.482   5.688  0.3244  0.9735  0.3836
  520MOL0     H71750   3.589   8.490   5.874 -0.0476  1.9284 -1.1832
  520MOL0     H71751   3.656   8.337   5.809 -1.3681 -1.3371 -1.2938
  520MOL0     H71752   3.504   8.553   5.650 -0.6267 -0.2084  0.0824
  520MOL0     H71753   3.579   8.402   5.585  0.6404  2.4099 -1.1272
  520MOL0     H71754   3.353   8.414   5.797 -0.9718  1.1962 -0.9093
  520MOL0     H71755   3.430   8.276   5.712  1.0624 -0.0110 -0.4276
  520MOL0     H71756   3.160   8.421   5.423  2.3945  0.2852 -1.8997
  520MOL0     H71757   4.004   8.470   6.088  0.4651  0.6257  0.6196
  520MOL0     H71758   4.190   8.532   6.241  2.1276 -0.0612  1.7550
  520MOL0     H71759   4.316   8.457   6.151  0.2880  0.8979 -0.5204
  520MOL0     H71760   4.313   8.637   6.161  1.0700 -0.3050 -4.5035
  521MOL0     O71761   7.196   9.251   7.275 -0.3269  0.0218 -0.5288
  521MOL0     C71762   7.216   9.315   7.169 -0.0599 -0.0292 -0.4098
  521MOL0     O71763   7.342   9.356   7.132 -0.7499 -0.1223 -0.0844
  521MOL0     C71764   7.451   9.322   7.213  0.4235  0.3081 -0.0133
  521MOL0     C71765   7.558   9.263   7.157 -0.8332 -0.3605 -1.1805
  521MOL0     C71766   7.675   9.251   7.228 -0.0732  0.7293 -0.2194
  521MOL0     C71767   7.681   9.287   7.362 -0.0489 -0.0185 -0.3628
  521MOL0     O71768   7.792   9.288   7.446  0.0371  0.7522 -0.4283
  521MOL0     C71769   7.916   9.234   7.400  0.1098 -0.0210 -0.2773
  521MOL0     C71770   8.018   9.271   7.514 -0.0745  0.5301  1.1945
  521MOL0     C71771   8.151   9.195   7.495 -0.8976  0.0998  0.7507
  521MOL0     C71772   8.155   9.039   7.522  0.2521 -0.7209 -0.3197
  521MOL0     C71773   8.299   8.990   7.530  0.4712  0.1874 -0.3873
  521MOL0     C71774   8.335   8.924   7.395 -0.1650 -0.0433 -1.2563
  521MOL0     C71775   8.485   8.887   7.394 -0.4113 -0.3050 -0.0704
  521MOL0     C71776   8.502   8.840   7.243 -0.0024 -0.5813 -0.5609
  521MOL0     N71777   8.643   8.826   7.201 -0.2634 -0.2035 -0.1899
  521MOL0     C71778   8.721   8.918   7.134 -0.0241 -0.4448 -0.3026
  521MOL0     C71779   8.839   8.856   7.118  0.3444 -0.3374 -0.8505
  521MOL0     C71780   8.955   8.912   7.045  0.2135 -0.3884 -0.5701
  521MOL0     C71781   8.952   9.069   7.028 -0.1927 -0.0293 -0.3337
  521MOL0     C71782   9.071   9.124   6.944 -0.7090 -0.5992 -0.4278
  521MOL0     C71783   9.209   9.082   6.992 -0.4416  0.0957 -0.8903
  521MOL0     O71784   9.308   9.140   6.903  0.5931  0.9756 -0.8319
  521MOL0     C71785   9.434   9.139   6.959  0.6259  0.0548 -0.4094
  521MOL0     C71786   9.469   9.213   7.067 -0.6898 -0.2537 -0.4350
  521MOL0     C71787   9.609   9.219   7.113 -0.3551  0.3850 -0.3405
  521MOL0     C71788   9.625   9.295   7.237 -0.5613  0.3148 -0.7574
  521MOL0     C71789   9.707   9.131   7.050  0.2583  0.2808  0.2251
  521MOL0     C71790   9.855   9.139   7.084  0.5521  0.3129 -0.0554
  521MOL0     O71791   9.933   9.047   7.020 -0.4931  0.4194  0.1485
  521MOL0     C71792  10.068   9.031   7.058 -0.3287 -0.0218  0.4969
  521MOL0     C71793  10.115   8.904   7.103  0.3230 -0.4519  0.1123
  521MOL0     C71794  10.253   8.882   7.107  0.0405  0.0190  0.5286
  521MOL0     C71795  10.346   8.977   7.076 -0.4235 -0.0952  0.2710
  521MOL0     O71796  10.482   8.974   7.082  0.1688  0.1270 -0.5026
  521MOL0     C71797  10.545   8.888   7.181 -0.2853  0.1901  0.0379
  521MOL0     C71798  10.689   8.936   7.196  0.0531  0.7914  0.2495
  521MOL0     C71799  10.780   8.848   7.283  0.0226  0.3916  0.0707
  521MOL0     C71800  10.916   8.914   7.304 -0.1471  0.7549 -0.7157
  521MOL0     C71801  10.988   8.823   7.406  0.8800 -0.5483 -0.0039
  521MOL0     C71802  11.132   8.861   7.417  0.7861 -0.1711 -0.4577
  521MOL0     C71803  11.147   9.003   7.474 -0.5215  0.4415 -0.5079
  521MOL0     C71804  11.281   9.026   7.545 -0.5856 -0.3374 -0.0971
  521MOL0    Cl71805  11.311   8.924   7.686  0.4365  0.0508  0.5268
  521MOL0     C71806  10.300   9.112   7.049 -1.0461  0.1381  0.3546
  521MOL0     C71807  10.164   9.128   7.028  0.6788 -0.2147 -0.9495
  521MOL0     O71808   9.896   9.234   7.151  0.0767 -0.0770  0.4500
  521MOL0     C71809   9.664   9.059   6.941 -0.0513 -0.0120  0.7439
  521MOL0     C71810   9.528   9.063   6.891 -0.1987 -0.2943  0.0701
  521MOL0     N71811   8.841   8.725   7.170  0.4653 -0.8912  0.2686
  521MOL0     N71812   8.726   8.714   7.231 -0.2149 -0.1057 -0.3118
  521MOL0     C71813   7.566   9.334   7.426 -0.8345 -0.1917  0.3721
  521MOL0     C71814   7.452   9.356   7.350 -0.6510  0.4833 -0.2894
  521MOL0     C71815   7.098   9.316   7.078 -0.0596 -0.1360 -0.0406
  521MOL0     C71816   6.984   9.237   7.104 -0.1678 -0.8769  0.0566
  521MOL0     C71817   6.865   9.261   7.021 -0.4327  0.0442 -0.0136
  521MOL0     C71818   6.871   9.352   6.920  0.5259 -0.4236  1.1355
  521MOL0     O71819   6.755   9.363   6.850  0.3892 -1.0401 -0.4011
  521MOL0     C71820   6.748   9.451   6.730 -0.1852  0.1098 -0.4907
  521MOL0     C71821   6.599   9.448   6.678 -0.3027 -0.2643 -0.5276
  521MOL0     C71822   6.523   9.550   6.757 -0.0517 -0.6328  0.5251
  521MOL0     C71823   6.567   9.698   6.726  0.1796  0.1999 -0.1722
  521MOL0     C71824   6.464   9.787   6.780 -0.2171  0.3976 -0.3349
  521MOL0     C71825   6.381   9.863   6.826 -0.2747 -0.2520  0.1044
  521MOL0     C71826   6.983   9.426   6.887  1.0398  0.1275  0.5360
  521MOL0     C71827   7.093   9.408   6.965  0.2573  0.6677 -0.0482
  521MOL0     C71828   7.202   9.508   6.923  0.3771  0.1770  0.5049
  521MOL0     H71829   7.562   9.249   7.049  1.8593  0.7316 -1.3118
  521MOL0     H71830   7.759   9.201   7.182 -1.2791 -1.2854 -0.3253
  521MOL0     H71831   7.953   9.290   7.314 -0.1162  0.3623 -0.1274
  521MOL0     H71832   7.902   9.129   7.373 -0.3186  0.2816 -1.2770
  521MOL0     H71833   8.040   9.378   7.520  2.2271  0.1713  0.4154
  521MOL0     H71834   7.986   9.242   7.614  3.5886 -1.0490  2.0753
  521MOL0     H71835   8.180   9.209   7.391 -0.2805  2.1080  1.1623
  521MOL0     H71836   8.227   9.234   7.564  1.0853 -0.1926 -1.1762
  521MOL0     H71837   8.101   9.027   7.617 -1.2764  2.8794 -0.5605
  521MOL0     H71838   8.093   8.977   7.456  0.6427  0.4154 -1.8248
  521MOL0     H71839   8.315   8.908   7.601  0.5333 -1.2481 -1.9988
  521MOL0     H71840   8.372   9.071   7.540  3.3427 -2.0492 -2.0482
  521MOL0     H71841   8.276   8.835   7.371 -0.0613  0.0156 -1.7463
  521MOL0     H71842   8.316   8.998   7.316 -2.0653 -2.0968 -2.8546
  521MOL0     H71843   8.501   8.799   7.457  0.9414  0.9743  1.4767
  521MOL0     H71844   8.553   8.969   7.422  0.5552 -0.4353 -1.8981
  521MOL0     H71845   8.445   8.747   7.228 -0.2089 -0.3527 -1.2145
  521MOL0     H71846   8.460   8.913   7.174  0.3374  1.7670  1.5873
  521MOL0     H71847   8.686   9.015   7.099  2.4433 -0.1556 -2.2379
  521MOL0     H71848   8.966   8.857   6.951 -1.2061 -0.6706 -0.5941
  521MOL0     H71849   9.044   8.884   7.101 -0.3083 -2.7843 -0.8541
  521MOL0     H71850   8.863   9.095   6.969 -0.1640 -2.2080 -1.4330
  521MOL0     H71851   8.950   9.122   7.123  0.8102 -0.1346 -0.2502
  521MOL0     H71852   9.070   9.086   6.842  2.9213 -3.7090  0.4682
  521MOL0     H71853   9.060   9.230   6.922 -2.4667 -0.7799 -0.5650
  521MOL0     H71854   9.222   9.117   7.095  1.1426  0.9741 -1.3541
  521MOL0     H71855   9.218   8.973   6.988  2.7141  0.2271 -0.2109
  521MOL0     H71856   9.388   9.278   7.100  0.0964  0.0413  1.0033
  521MOL0     H71857   9.695   9.253   7.310 -1.0315  0.1550 -0.3998
  521MOL0     H71858   9.532   9.301   7.294  0.2716  0.3420  0.6413
  521MOL0     H71859   9.656   9.396   7.207  0.0090  0.1342 -0.7831
  521MOL0     H71860  10.050   8.827   7.144  0.2636 -0.3447  0.2201
  521MOL0     H71861  10.281   8.783   7.140 -1.4664 -0.4440  0.5063
  521MOL0     H71862  10.495   8.898   7.278  0.7099  1.1817  0.4639
  521MOL0     H71863  10.547   8.783   7.149  2.5004  0.6914 -1.8636
  521MOL0     H71864  10.730   8.939   7.095 -1.9292  1.2882 -0.5791
  521MOL0     H71865  10.687   9.041   7.226  1.7636  1.2326 -1.0313
  521MOL0     H71866  10.784   8.750   7.235 -0.9656  0.0253  0.7129
  521MOL0     H71867  10.729   8.834   7.378  2.9924  3.4146  2.3614
  521MOL0     H71868  10.907   9.018   7.336 -0.9426 -0.3101  3.0084
  521MOL0     H71869  10.969   8.911   7.208  2.8590 -1.2334  0.8429
  521MOL0     H71870  10.936   8.814   7.501  0.6293  0.7093 -0.0026
  521MOL0     H71871  10.981   8.721   7.366 -4.1028 -0.9033  1.1074
  521MOL0     H71872  11.187   8.847   7.324  0.0130  0.2344 -0.9930
  521MOL0     H71873  11.175   8.790   7.487  0.9662 -0.1545 -0.5513
  521MOL0     H71874  11.065   9.025   7.544 -1.2850 -2.8661 -0.1709
  521MOL0     H71875  11.126   9.079   7.398 -1.0645 -0.8116 -1.6504
  521MOL0     H71876  11.297   9.132   7.567 -0.3372 -1.0249  3.7159
  521MOL0     H71877  11.364   9.004   7.477  0.5868  2.5096  0.2620
  521MOL0     H71878  10.366   9.195   7.025 -1.5899  0.0353 -1.7025
  521MOL0     H71879  10.126   9.222   6.990  0.4814  0.6141  1.1634
  521MOL0     H71880   9.738   8.994   6.895  0.2082  0.2849  0.7393
  521MOL0     H71881   9.492   9.006   6.806 -2.6854 -0.4830  1.1665
  521MOL0     H71882   7.569   9.346   7.534  1.1852 -1.3597  0.5042
  521MOL0     H71883   7.363   9.396   7.400  0.2799 -0.2990  2.1401
  521MOL0     H71884   6.982   9.152   7.173 -2.1596 -1.3023 -0.4540
  521MOL0     H71885   6.787   9.189   7.043 -0.8022  0.6776  0.7779
  521MOL0     H71886   6.791   9.551   6.741 -1.2174  0.6499 -1.2561
  521MOL0     H71887   6.804   9.400   6.650  0.4902 -0.0941  0.0960
  521MOL0     H71888   6.560   9.346   6.693  0.7551 -0.5585  0.3630
  521MOL0     H71889   6.587   9.477   6.574  2.4621  0.5190 -0.6913
  521MOL0     H71890   6.417   9.551   6.730 -0.5637  1.0194  2.2943
  521MOL0     H71891   6.533   9.534   6.865  2.3193  0.8787  0.5914
  521MOL0     H71892   6.571   9.720   6.619 -1.1208 -2.1209 -0.7495
  521MOL0     H71893   6.664   9.720   6.771  0.0393  0.1516  0.1563
  521MOL0     H71894   6.315   9.942   6.857  1.2133  1.1138 -0.0497
  521MOL0     H71895   6.987   9.484   6.796 -1.9307 -1.0160 -0.4502
  521MOL0     H71896   7.182   9.552   6.826  0.5005  1.1564  0.9137
  521MOL0     H71897   7.205   9.585   7.001 -4.2417  1.6879 -0.4902
  521MOL0     H71898   7.295   9.452   6.911  1.5011  2.2825 -1.1000
  522MOL0     O71899   3.411   6.581   5.151 -0.5179 -0.7314  0.3890
  522MOL0     C71900   3.410   6.588   5.272 -1.2376  0.5604  0.1976
  522MOL0     O71901   3.513   6.569   5.356  0.1659  0.9816 -0.9569
  522MOL0     C71902   3.603   6.481   5.303 -0.1444 -0.1160  0.6603
  522MOL0     C71903   3.723   6.531   5.245  0.4707 -0.0863 -0.0035
  522MOL0     C71904   3.816   6.445   5.186 -0.3740  0.7739 -0.0327
  522MOL0     C71905   3.794   6.306   5.178  0.1809 -0.1034  0.2584
  522MOL0     O71906   3.888   6.226   5.106  0.1463 -0.2198 -0.5729
  522MOL0     C71907   3.888   6.082   5.123  0.0844 -0.8415  0.0035
  522MOL0     C71908   4.011   6.030   5.068  0.1596  0.5236  0.1407
  522MOL0     C71909   4.036   5.887   5.107 -0.9176 -0.0168 -1.0140
  522MOL0     C71910   4.154   5.834   5.016  0.5611  0.6599 -1.5567
  522MOL0     C71911   4.199   5.687   5.055  0.4250 -0.4876  0.0343
  522MOL0     C71912   4.329   5.666   4.984  0.5534  0.0179  0.4404
  522MOL0     C71913   4.375   5.522   5.019  0.6519 -0.6606 -0.4364
  522MOL0     C71914   4.529   5.524   4.989  0.3511  0.1903  0.6463
  522MOL0     N71915   4.583   5.383   4.965 -0.3661  0.3169 -0.6444
  522MOL0     C71916   4.672   5.317   5.052  0.3008 -0.0391 -0.0098
  522MOL0     C71917   4.681   5.198   4.987  0.2951  0.4658  0.1076
  522MOL0     C71918   4.780   5.089   5.038 -0.2148 -0.1842 -0.8271
  522MOL0     C71919   4.922   5.117   4.984 -0.2035  0.1112  0.5054
  522MOL0     C71920   5.012   5.001   5.020  0.0660  0.4609 -0.7820
  522MOL0     C71921   5.155   5.029   4.988 -1.1301  0.4723  0.2901
  522MOL0     O71922   5.172   5.053   4.853  1.2101  0.4573  0.9496
  522MOL0     C71923   5.298   5.087   4.806  0.0238 -0.4571 -0.0495
  522MOL0     C71924   5.409   5.111   4.893 -0.2081 -0.3608  0.1728
  522MOL0     C71925   5.533   5.133   4.836  0.2888  0.6349 -0.6491
  522MOL0     C71926   5.654   5.137   4.948  0.3217 -0.9642 -0.5890
  522MOL0     C71927   5.554   5.125   4.695  0.4762  0.3018  0.1629
  522MOL0     C71928   5.687   5.140   4.627 -0.5826  0.3908  0.8736
  522MOL0     O71929   5.683   5.130   4.488  0.6129  0.3024 -0.9754
  522MOL0     C71930   5.798   5.118   4.415 -0.5990  0.5452  0.4648
  522MOL0     C71931   5.783   5.041   4.303  0.2685  0.1644 -0.6036
  522MOL0     C71932   5.879   5.045   4.200  0.6405 -0.5523 -0.7508
  522MOL0     C71933   5.998   5.133   4.213 -0.0830  0.1060 -0.3197
  522MOL0     O71934   6.107   5.132   4.129 -0.1214  0.5877 -0.5389
  522MOL0     C71935   6.118   5.058   4.005  1.1473 -0.7268  0.1325
  522MOL0     C71936   6.269   5.043   3.973 -0.3735 -0.0025  0.9673
  522MOL0     C71937   6.331   5.182   3.935 -0.2921  0.5543  0.2318
  522MOL0     C71938   6.482   5.177   3.921  0.1071  1.0190  0.6624
  522MOL0     C71939   6.530   5.107   3.789 -0.2683 -0.8902 -0.0034
  522MOL0     C71940   6.674   5.150   3.750  0.0584  0.3771  0.2458
  522MOL0     C71941   6.706   5.066   3.617  0.3575 -0.0294 -0.0640
  522MOL0     C71942   6.844   5.106   3.575  0.3657  0.3506 -0.0002
  522MOL0    Cl71943   6.854   5.269   3.516 -0.3216 -0.0563 -0.1197
  522MOL0     C71944   6.005   5.207   4.335 -0.4025  0.5653 -0.2175
  522MOL0     C71945   5.910   5.206   4.430  0.2577  0.3473 -0.3478
  522MOL0     O71946   5.791   5.153   4.693  0.2394  0.1969  0.2603
  522MOL0     C71947   5.438   5.111   4.618  0.0565 -0.3013  0.2717
  522MOL0     C71948   5.312   5.090   4.667 -0.3300 -0.4972 -0.1118
  522MOL0     N71949   4.598   5.186   4.882 -0.2780 -0.5527 -0.1935
  522MOL0     N71950   4.539   5.306   4.869  0.5862  0.6666 -0.0123
  522MOL0     C71951   3.670   6.264   5.234  0.0293 -0.5611 -0.4047
  522MOL0     C71952   3.585   6.345   5.305 -0.3344  0.3356 -0.1784
  522MOL0     C71953   3.288   6.646   5.327 -0.1268 -0.1171  0.4320
  522MOL0     C71954   3.293   6.728   5.443 -0.5201  0.0672 -0.1603
  522MOL0     C71955   3.185   6.773   5.517  0.5911  0.3438 -0.0078
  522MOL0     C71956   3.052   6.736   5.483 -1.5465 -0.1683 -0.4686
  522MOL0     O71957   2.935   6.772   5.556 -0.3465  0.6924  0.0666
  522MOL0     C71958   2.955   6.858   5.668  0.6199  0.2589  0.8154
  522MOL0     C71959   2.824   6.920   5.727 -0.2544  0.5962  0.8752
  522MOL0     C71960   2.730   6.980   5.623  1.0886  0.2575 -1.0256
  522MOL0     C71961   2.600   7.047   5.671 -0.2651 -0.2536  0.1313
  522MOL0     C71962   2.635   7.172   5.744 -0.4952  0.5276 -0.2371
  522MOL0     C71963   2.671   7.255   5.821  0.4010  0.4370  0.1191
  522MOL0     C71964   3.039   6.651   5.371  0.5035 -0.6392  0.5965
  522MOL0     C71965   3.154   6.612   5.287  0.4926  0.3187 -0.4481
  522MOL0     C71966   3.127   6.530   5.158  0.0850  0.2384 -0.4853
  522MOL0     H71967   3.752   6.636   5.249  1.3487 -0.3045 -0.3264
  522MOL0     H71968   3.907   6.489   5.146  0.3285  1.6078  2.3107
  522MOL0     H71969   3.813   6.039   5.057  0.1300  0.8607 -1.2410
  522MOL0     H71970   3.863   6.055   5.226  0.3458 -1.1208 -0.0026
  522MOL0     H71971   3.993   6.045   4.961 -4.4103 -0.0367  0.6447
  522MOL0     H71972   4.090   6.096   5.105  1.6827 -0.3801 -1.3220
  522MOL0     H71973   4.071   5.887   5.210  0.3560  1.3428 -1.3999
  522MOL0     H71974   3.958   5.811   5.102 -0.0321 -0.9734 -0.8624
  522MOL0     H71975   4.132   5.837   4.909  0.3555 -0.1167 -1.5396
  522MOL0     H71976   4.237   5.904   5.030  1.1672 -0.2267 -0.5792
  522MOL0     H71977   4.121   5.612   5.036  0.8154 -1.5103  2.1941
  522MOL0     H71978   4.221   5.680   5.162 -1.1381  0.4740  0.4585
  522MOL0     H71979   4.316   5.670   4.875 -0.5669  0.6391  0.5854
  522MOL0     H71980   4.401   5.745   5.008  1.2842 -0.9997  1.7239
  522MOL0     H71981   4.330   5.443   4.958 -0.5420 -0.0472 -0.3840
  522MOL0     H71982   4.357   5.492   5.122 -0.9774 -0.8532 -0.7572
  522MOL0     H71983   4.542   5.567   4.889 -1.2807 -0.2802  0.1967
  522MOL0     H71984   4.583   5.587   5.059 -1.3674  0.4905  1.7597
  522MOL0     H71985   4.723   5.325   5.147 -1.2687 -3.5912  1.2739
  522MOL0     H71986   4.738   4.991   5.014 -0.9110 -1.0078  2.9873
  522MOL0     H71987   4.786   5.098   5.147 -1.4206  1.9961 -0.8793
  522MOL0     H71988   4.917   5.121   4.875 -1.4948 -0.0897  0.5419
  522MOL0     H71989   4.954   5.218   5.009  2.8133 -0.8362  0.9929
  522MOL0     H71990   5.006   4.993   5.129  3.7393 -0.2908 -0.5066
  522MOL0     H71991   4.971   4.907   4.983 -2.3047  0.4972  1.4473
  522MOL0     H71992   5.179   5.120   5.043 -0.2889  1.5559 -1.7548
  522MOL0     H71993   5.213   4.941   5.017  1.3963  2.1234  0.5084
  522MOL0     H71994   5.399   5.106   5.001 -1.7805 -1.1362  0.0154
  522MOL0     H71995   5.617   5.173   5.045  1.7720 -0.6500 -0.1298
  522MOL0     H71996   5.740   5.198   4.920 -1.5952  1.5997 -1.2505
  522MOL0     H71997   5.686   5.033   4.962  0.4550 -0.5832  3.0924
  522MOL0     H71998   5.690   4.987   4.294 -0.0213  0.9937 -4.2295
  522MOL0     H71999   5.867   4.975   4.118  0.4991 -1.5732  0.1038
  522MOL0     H72000   6.082   4.959   4.035  2.0462 -1.5262 -1.2795
  522MOL0     H72001   6.065   5.114   3.927  1.2243 -1.9427 -0.8345
  522MOL0     H72002   6.325   5.001   4.056  0.7944 -3.3754 -1.3186
  522MOL0     H72003   6.280   4.971   3.891 -3.1450 -0.4430  0.8802
  522MOL0     H72004   6.315   5.265   4.004 -0.8411  1.3942 -0.8650
  522MOL0     H72005   6.293   5.213   3.837  0.5324 -1.3243 -0.7491
  522MOL0     H72006   6.518   5.115   4.004 -1.9318 -4.2453 -1.9194
  522MOL0     H72007   6.525   5.276   3.936  0.7310  0.8190  0.2272
  522MOL0     H72008   6.524   4.999   3.806 -1.2433 -0.8360  0.0408
  522MOL0     H72009   6.467   5.139   3.705 -1.3561 -2.9091 -0.0350
  522MOL0     H72010   6.748   5.121   3.826 -0.4524 -0.7950  0.3174
  522MOL0     H72011   6.668   5.256   3.724  1.7619  0.3159 -0.5664
  522MOL0     H72012   6.636   5.103   3.541 -0.2732  3.3506  1.9613
  522MOL0     H72013   6.698   4.957   3.623 -1.8835  0.0310 -0.9570
  522MOL0     H72014   6.865   5.040   3.490 -1.9219 -1.6624  0.8703
  522MOL0     H72015   6.914   5.093   3.658 -0.9627 -3.2362  0.7661
  522MOL0     H72016   6.091   5.271   4.352  3.1903 -3.5578 -1.0201
  522MOL0     H72017   5.906   5.260   4.524 -2.7954 -1.7526  0.8803
  522MOL0     H72018   5.447   5.124   4.510  0.2882 -2.5839 -0.0318
  522MOL0     H72019   5.227   5.086   4.600 -1.5156  4.3596  0.6753
  522MOL0     H72020   3.651   6.158   5.221  0.8847 -0.4447 -3.5535
  522MOL0     H72021   3.501   6.310   5.365 -0.6104 -0.3095 -0.9175
  522MOL0     H72022   3.386   6.765   5.486 -0.1789 -0.4894 -0.4103
  522MOL0     H72023   3.195   6.817   5.615  1.1722 -0.3808  0.2675
  522MOL0     H72024   3.010   6.805   5.746 -1.6627 -1.9111  1.0666
  522MOL0     H72025   3.001   6.944   5.618  0.9560  0.5706  1.6411
  522MOL0     H72026   2.860   7.000   5.793 -2.5495  2.6528 -0.1943
  522MOL0     H72027   2.778   6.846   5.794  4.4763 -2.5670  1.1231
  522MOL0     H72028   2.788   7.047   5.558  0.3374  2.4938  0.4914
  522MOL0     H72029   2.699   6.903   5.552 -0.3515  0.5480 -0.7450
  522MOL0     H72030   2.528   6.983   5.723 -2.4847  1.9751  0.0167
  522MOL0     H72031   2.541   7.074   5.583  1.4545  0.5801 -0.8271
  522MOL0     H72032   2.689   7.321   5.904 -2.5256 -1.7422  2.7397
  522MOL0     H72033   2.938   6.632   5.338  0.4822 -1.0757  0.9050
  522MOL0     H72034   3.194   6.444   5.152 -2.2032 -1.7019  0.1229
  522MOL0     H72035   3.024   6.495   5.155 -0.1640  0.8038  0.7254
  522MOL0     H72036   3.144   6.592   5.070  4.4920 -0.2249 -0.1749
  523MOL0     O72037   7.154  11.332   8.006 -0.0743 -0.2431 -0.0406
  523MOL0     C72038   7.057  11.324   7.933 -0.1553 -0.3192 -1.0015
  523MOL0     O72039   7.055  11.257   7.816 -0.2238  0.5028 -0.4029
  523MOL0     C72040   7.171  11.215   7.768 -0.5600 -0.7906  1.0811
  523MOL0     C72041   7.262  11.300   7.710 -0.3239  0.6537  0.4381
  523MOL0     C72042   7.380  11.249   7.651  0.1127 -0.1897 -0.2806
  523MOL0     C72043   7.411  11.112   7.659  0.4546  0.2356  0.0337
  523MOL0     O72044   7.528  11.065   7.611  0.1748  0.0126  0.5693
  523MOL0     C72045   7.641  11.153   7.614 -0.3428 -0.2183 -0.0773
  523MOL0     C72046   7.766  11.074   7.572 -0.0177 -0.2649 -0.6192
  523MOL0     C72047   7.751  11.030   7.423 -0.3868  0.8905  0.0689
  523MOL0     C72048   7.850  10.912   7.395 -0.2968  0.3559 -0.6631
  523MOL0     C72049   7.985  10.956   7.358 -0.3517  1.4697  0.3720
  523MOL0     C72050   8.071  10.829   7.321  0.0077  0.3854 -0.0361
  523MOL0     C72051   8.212  10.872   7.285 -0.1211 -0.1410 -0.3747
  523MOL0     C72052   8.291  10.755   7.225  0.8165  0.1442  0.5896
  523MOL0     N72053   8.429  10.800   7.200  0.1330  0.0788 -1.1401
  523MOL0     C72054   8.505  10.859   7.297 -0.1242 -0.9270  0.6818
  523MOL0     C72055   8.611  10.901   7.233  0.3251  0.3929  0.7195
  523MOL0     C72056   8.729  10.983   7.292 -0.0614 -0.6314  0.3454
  523MOL0     C72057   8.822  10.898   7.377  0.3135 -0.1288 -0.1819
  523MOL0     C72058   8.910  10.796   7.302  0.2881 -0.2624 -0.4406
  523MOL0     C72059   8.997  10.729   7.414 -0.4008 -0.1443  0.0096
  523MOL0     O72060   9.066  10.831   7.485  0.3617 -0.5345  0.1357
  523MOL0     C72061   9.202  10.833   7.512  0.8263  0.4071 -1.0339
  523MOL0     C72062   9.248  10.946   7.584  0.0977  0.8252  0.4002
  523MOL0     C72063   9.381  10.958   7.621  0.1429 -0.0859 -0.3551
  523MOL0     C72064   9.412  11.073   7.711 -0.4006 -0.3220 -0.8574
  523MOL0     C72065   9.467  10.847   7.598 -0.5013 -0.1600  0.1288
  523MOL0     C72066   9.605  10.852   7.645 -0.0933 -0.1142 -0.3797
  523MOL0     O72067   9.674  10.736   7.642 -0.1910  0.1843  0.2266
  523MOL0     C72068   9.795  10.728   7.706  0.0722 -0.1721  0.4752
  523MOL0     C72069   9.911  10.677   7.636  0.4234 -0.2941 -0.0045
  523MOL0     C72070  10.034  10.682   7.687 -0.3694  0.2997 -0.8771
  523MOL0     C72071  10.052  10.736   7.816 -0.6646  0.1264  0.8337
  523MOL0     O72072  10.172  10.748   7.884  0.2628  0.2564 -0.0743
  523MOL0     C72073  10.292  10.678   7.850 -0.2329  0.8170  1.1256
  523MOL0     C72074  10.381  10.711   7.962 -0.3502  0.3181 -0.6807
  523MOL0     C72075  10.506  10.622   7.944 -0.1804  0.6558 -0.0671
  523MOL0     C72076  10.610  10.684   8.044  0.0831  0.8545 -0.7019
  523MOL0     C72077  10.723  10.597   8.062 -0.1833  1.0959 -0.6664
  523MOL0     C72078  10.825  10.654   8.160  0.2286  0.3026 -0.6586
  523MOL0     C72079  10.931  10.542   8.182 -0.8760  0.5020  0.1126
  523MOL0     C72080  11.060  10.597   8.233  0.5141  0.1138 -0.2972
  523MOL0    Cl72081  11.151  10.465   8.307  0.3778 -0.2277 -0.0794
  523MOL0     C72082   9.951  10.798   7.884  0.3630  0.7867  0.0688
  523MOL0     C72083   9.824  10.794   7.828  0.1941 -0.4322  0.0153
  523MOL0     O72084   9.662  10.957   7.664 -0.7042 -0.4342 -0.7123
  523MOL0     C72085   9.414  10.728   7.535 -0.5841  0.4248  0.3011
  523MOL0     C72086   9.283  10.727   7.491  0.3238 -0.5155  0.3477
  523MOL0     N72087   8.608  10.865   7.104  0.0148  0.3262 -0.0395
  523MOL0     N72088   8.491  10.812   7.079 -0.4778  0.0322 -0.1371
  523MOL0     C72089   7.319  11.023   7.718 -0.3090 -0.1976 -0.4115
  523MOL0     C72090   7.202  11.075   7.772  0.2116 -0.0612 -0.1592
  523MOL0     C72091   6.936  11.394   7.988  0.3138  0.3466 -0.0685
  523MOL0     C72092   6.954  11.497   8.072 -0.0763 -0.1862  0.2891
  523MOL0     C72093   6.849  11.555   8.140 -0.1737  0.4715  0.5005
  523MOL0     C72094   6.718  11.510   8.115  0.5680  0.6175  0.4188
  523MOL0     O72095   6.609  11.574   8.171  0.0329  0.3697 -0.5537
  523MOL0     C72096   6.628  11.656   8.292  0.0972  0.5590  0.7836
  523MOL0     C72097   6.480  11.706   8.339 -1.0462  0.2185  0.3496
  523MOL0     C72098   6.404  11.784   8.226 -0.7195 -0.4943 -0.6376
  523MOL0     C72099   6.259  11.825   8.245 -0.8796  0.1816 -0.1108
  523MOL0     C72100   6.258  11.928   8.353  0.3546  0.4543  1.0297
  523MOL0     C72101   6.239  12.014   8.438 -0.1599 -0.0902  0.7097
  523MOL0     C72102   6.693  11.397   8.036 -0.4167 -0.0832  0.6537
  523MOL0     C72103   6.801  11.340   7.962  0.3790 -0.1751 -0.1502
  523MOL0     C72104   6.757  11.220   7.885 -0.5354  0.4814  0.0767
  523MOL0     H72105   7.239  11.405   7.698  1.4381  0.8989 -1.2747
  523MOL0     H72106   7.437  11.324   7.597  0.4724  0.4018  0.8922
  523MOL0     H72107   7.650  11.191   7.716  1.0722 -0.0608 -0.2483
  523MOL0     H72108   7.635  11.222   7.529  2.9855  1.7759  1.1112
  523MOL0     H72109   7.858  11.129   7.594 -0.6056  1.0057 -1.2345
  523MOL0     H72110   7.763  10.980   7.628 -1.9141 -0.0519 -0.2892
  523MOL0     H72111   7.656  11.003   7.377 -1.1389  3.6451 -0.1190
  523MOL0     H72112   7.789  11.109   7.358  4.1476 -1.2147 -0.2354
  523MOL0     H72113   7.867  10.854   7.487  0.4255 -1.4962 -1.8997
  523MOL0     H72114   7.802  10.848   7.321  4.2433 -0.5350 -3.2049
  523MOL0     H72115   8.034  11.015   7.436  1.8320  1.8374 -1.2208
  523MOL0     H72116   7.977  11.026   7.275 -2.0147 -1.5449 -2.2228
  523MOL0     H72117   8.083  10.760   7.405 -0.6779 -0.7264 -0.8205
  523MOL0     H72118   8.017  10.778   7.241 -3.5403 -1.2135  3.0572
  523MOL0     H72119   8.253  10.918   7.376 -2.5113  0.9636  0.2249
  523MOL0     H72120   8.209  10.944   7.203  1.7729  1.0323  0.5034
  523MOL0     H72121   8.295  10.673   7.296  1.2908  0.7999  1.3409
  523MOL0     H72122   8.254  10.716   7.130  3.3600 -0.6972 -0.1248
  523MOL0     H72123   8.471  10.876   7.399  1.3224 -1.6690  1.3169
  523MOL0     H72124   8.685  11.065   7.349 -0.2594  0.2792 -1.0619
  523MOL0     H72125   8.788  11.035   7.215 -1.6268  0.2938 -0.2692
  523MOL0     H72126   8.878  10.966   7.442 -2.4398 -1.2940  3.7951
  523MOL0     H72127   8.768  10.836   7.449  3.2025 -3.9842 -0.9560
  523MOL0     H72128   8.849  10.725   7.246 -0.1656  2.1472 -3.2636
  523MOL0     H72129   8.977  10.840   7.228  1.5662  0.3379  1.0304
  523MOL0     H72130   8.932  10.674   7.483 -0.7032  1.1915  0.8386
  523MOL0     H72131   9.069  10.660   7.368  0.2035  0.3455  0.2072
  523MOL0     H72132   9.175  11.020   7.615 -4.0394 -2.0902 -1.4012
  523MOL0     H72133   9.502  11.125   7.677 -1.3285  2.0143  0.0881
  523MOL0     H72134   9.424  11.039   7.814  3.6317 -0.4198 -1.2144
  523MOL0     H72135   9.330  11.145   7.717  0.1613  0.1857  1.7727
  523MOL0     H72136   9.887  10.639   7.537 -0.7494  2.7197 -0.9903
  523MOL0     H72137  10.116  10.641   7.630  0.4974  1.6626 -0.6568
  523MOL0     H72138  10.268  10.572   7.840 -0.6283  0.9960 -0.0351
  523MOL0     H72139  10.329  10.723   7.757 -1.0328  1.8698  1.2858
  523MOL0     H72140  10.410  10.816   7.964  0.1104  0.3261  4.5136
  523MOL0     H72141  10.336  10.685   8.058  1.1536  4.7645  1.4688
  523MOL0     H72142  10.538  10.625   7.840 -2.5286 -3.3754 -1.0874
  523MOL0     H72143  10.483  10.517   7.962  3.5498 -0.2079  0.6592
  523MOL0     H72144  10.569  10.699   8.144 -1.5220 -2.3163 -0.7716
  523MOL0     H72145  10.647  10.782   8.013 -0.5168  1.0455 -0.8116
  523MOL0     H72146  10.689  10.499   8.097 -0.5253  1.8935  1.4109
  523MOL0     H72147  10.777  10.560   7.974  1.3339 -0.4728  0.8277
  523MOL0     H72148  10.781  10.684   8.255  0.3674 -1.1760 -0.1019
  523MOL0     H72149  10.860  10.748   8.117  2.7503 -0.6571 -0.8995
  523MOL0     H72150  10.949  10.483   8.092 -0.0150  2.4080 -1.0214
  523MOL0     H72151  10.904  10.468   8.259  1.3335 -0.1104  0.3696
  523MOL0     H72152  11.041  10.683   8.299 -0.0740 -0.7851  0.7217
  523MOL0     H72153  11.123  10.637   8.153 -0.2397 -1.7846 -1.8997
  523MOL0     H72154   9.968  10.850   7.978 -1.4730 -0.8456  1.3819
  523MOL0     H72155   9.740  10.839   7.880  1.4843 -0.7443  2.5546
  523MOL0     H72156   9.488  10.650   7.524 -0.0680  0.5371  2.4102
  523MOL0     H72157   9.255  10.628   7.456  1.2390 -1.1991  1.5042
  523MOL0     H72158   7.341  10.918   7.732  0.7342  0.3120  2.6162
  523MOL0     H72159   7.131  11.011   7.822  2.9384  0.2346  4.7115
  523MOL0     H72160   7.052  11.540   8.092  0.1173 -0.8609  0.8356
  523MOL0     H72161   6.867  11.643   8.200  1.8920  1.3672 -1.3260
  523MOL0     H72162   6.688  11.610   8.371  1.3159 -0.1704 -0.5249
  523MOL0     H72163   6.684  11.744   8.258  0.4366  0.3439  0.7779
  523MOL0     H72164   6.486  11.781   8.419 -0.8643 -0.6966  1.2117
  523MOL0     H72165   6.418  11.623   8.374 -1.1444  0.0964 -0.1173
  523MOL0     H72166   6.455  11.878   8.204 -2.0961 -0.0126 -1.8557
  523MOL0     H72167   6.404  11.717   8.140  0.4242 -1.8713  0.3840
  523MOL0     H72168   6.198  11.740   8.277 -2.6409  1.9338  1.4333
  523MOL0     H72169   6.223  11.866   8.151  0.5298 -2.2564 -1.8333
  523MOL0     H72170   6.211  12.089   8.509 -2.1239 -1.0959  1.0515
  523MOL0     H72171   6.588  11.378   8.016 -0.0389 -1.3063 -0.2907
  523MOL0     H72172   6.838  11.147   7.872 -1.9350 -1.3569  1.1661
  523MOL0     H72173   6.683  11.173   7.950  1.0817  0.7077  2.1808
  523MOL0     H72174   6.714  11.250   7.788 -1.1565  1.0411  0.5121
  524MOL0     O72175   1.356  11.326   8.006 -0.0610 -0.3610  0.3236
  524MOL0     C72176   1.343  11.242   7.918 -0.7740  0.4136 -0.3649
  524MOL0     O72177   1.444  11.192   7.837  0.1657  0.1215  0.2839
  524MOL0     C72178   1.577  11.235   7.848 -0.4885  0.0859  0.8090
  524MOL0     C72179   1.664  11.168   7.766 -0.1355  0.6949  0.2959
  524MOL0     C72180   1.803  11.187   7.751  0.5992  0.3537 -0.7688
  524MOL0     C72181   1.857  11.294   7.820 -0.0198  0.0408  0.3481
  524MOL0     O72182   1.995  11.311   7.807 -0.2367  0.2163  0.6547
  524MOL0     C72183   2.037  11.447   7.811 -1.2141  0.6229  0.2843
  524MOL0     C72184   2.175  11.470   7.739 -0.4346 -0.5540 -0.6070
  524MOL0     C72185   2.299  11.382   7.796  0.9428 -0.3694 -0.7479
  524MOL0     C72186   2.428  11.409   7.720  0.4894  0.0928  0.5388
  524MOL0     C72187   2.528  11.294   7.748  0.2040 -0.7162  0.3149
  524MOL0     C72188   2.649  11.311   7.659 -0.8403 -0.4373 -0.7386
  524MOL0     C72189   2.760  11.222   7.720 -1.5268  0.2893 -0.0274
  524MOL0     C72190   2.735  11.079   7.746  0.2415 -0.4096 -0.5171
  524MOL0     N72191   2.704  11.004   7.619  0.1177  0.0145  0.0296
  524MOL0     C72192   2.804  10.974   7.534  0.6749 -0.6242  0.6819
  524MOL0     C72193   2.763  10.876   7.451  0.7394  0.4052  0.8183
  524MOL0     C72194   2.855  10.805   7.352  0.4172 -0.4462 -0.2031
  524MOL0     C72195   2.896  10.671   7.408  0.4547 -0.5280  0.0041
  524MOL0     C72196   2.997  10.672   7.518 -0.5995  0.2591 -1.4148
  524MOL0     C72197   3.024  10.529   7.562 -0.8638  0.5254 -1.0693
  524MOL0     O72198   3.108  10.526   7.683 -0.5182  0.2539  0.0976
  524MOL0     C72199   3.239  10.559   7.681  0.3631 -0.1722 -0.6519
  524MOL0     C72200   3.287  10.583   7.813  0.6217 -1.0426 -0.9012
  524MOL0     C72201   3.429  10.601   7.838 -0.0913  0.1535 -0.6930
  524MOL0     C72202   3.480  10.634   7.977  0.8547  0.2528  0.4815
  524MOL0     C72203   3.524  10.592   7.724  1.0425  0.0974  0.4840
  524MOL0     C72204   3.674  10.625   7.727  0.2509  0.4085 -0.4155
  524MOL0     O72205   3.738  10.623   7.604 -0.1007  0.8185 -0.4920
  524MOL0     C72206   3.855  10.695   7.595  0.5623 -0.1592 -0.7612
  524MOL0     C72207   3.968  10.640   7.538 -1.0955 -0.5870  0.4998
  524MOL0     C72208   4.087  10.716   7.522  0.8170  0.0820 -0.3682
  524MOL0     C72209   4.083  10.849   7.552 -0.3215 -0.4597 -0.3271
  524MOL0     O72210   4.191  10.934   7.533  0.0524  0.4416 -0.0024
  524MOL0     C72211   4.326  10.887   7.527 -0.9674 -0.3885  0.3402
  524MOL0     C72212   4.436  10.984   7.565  0.5975  0.2858 -1.0283
  524MOL0     C72213   4.575  10.935   7.543 -0.6643 -0.2475 -0.2094
  524MOL0     C72214   4.671  11.053   7.578  0.1756 -0.1430 -0.9343
  524MOL0     C72215   4.815  11.021   7.590  0.4984 -1.2848  0.1988
  524MOL0     C72216   4.870  10.966   7.472 -0.8822  0.5883 -0.5642
  524MOL0     C72217   5.003  10.902   7.487 -0.9853 -0.1262 -0.3919
  524MOL0     C72218   5.109  11.011   7.491 -0.6569 -0.1288  0.3744
  524MOL0    Cl72219   5.282  10.952   7.430 -0.0610 -0.1730 -0.1312
  524MOL0     C72220   3.960  10.913   7.600  0.1303  0.1557  0.2243
  524MOL0     C72221   3.854  10.834   7.621  0.4408 -0.1104  0.1419
  524MOL0     O72222   3.727  10.657   7.835  0.6454 -0.2351 -0.1723
  524MOL0     C72223   3.461  10.564   7.596 -0.3848 -0.0737  0.1693
  524MOL0     C72224   3.325  10.551   7.581  0.1451 -0.4836 -0.5276
  524MOL0     N72225   2.633  10.855   7.483  0.2597 -1.0410  0.1409
  524MOL0     N72226   2.594  10.930   7.585  0.2960  0.1568 -0.3298
  524MOL0     C72227   1.779  11.358   7.911  1.3819  0.0385  0.0490
  524MOL0     C72228   1.637  11.342   7.919  0.1565  0.0976 -0.2436
  524MOL0     C72229   1.219  11.184   7.898  0.3890  0.1043 -1.1488
  524MOL0     C72230   1.163  11.123   8.007 -0.5313 -0.0694 -0.3907
  524MOL0     C72231   1.040  11.058   7.995 -0.4548 -0.7645  0.1871
  524MOL0     C72232   0.973  11.054   7.873 -0.1142  0.3192  0.7503
  524MOL0     O72233   0.844  11.003   7.868  0.3716 -0.0812  0.1357
  524MOL0     C72234   0.773  11.001   7.736 -0.1039 -0.3251  0.6754
  524MOL0     C72235   0.647  10.930   7.752  0.4859  0.7260 -0.6761
  524MOL0     C72236   0.667  10.773   7.717 -0.2453 -0.3993  0.0505
  524MOL0     C72237   0.547  10.683   7.774 -0.6714  0.7503  0.0161
  524MOL0     C72238   0.422  10.720   7.715  0.1565  0.0965 -0.0245
  524MOL0     C72239   0.310  10.739   7.671  0.0985  0.0292 -0.2709
  524MOL0     C72240   1.033  11.118   7.763  0.0470 -0.3248  0.0252
  524MOL0     C72241   1.151  11.188   7.771  0.0151  0.4782 -0.0250
  524MOL0     C72242   1.204  11.272   7.649 -0.8023 -0.0096 -0.1429
  524MOL0     H72243   1.621  11.100   7.693  2.3570  1.4588 -2.0493
  524MOL0     H72244   1.851  11.129   7.672 -0.5663 -0.5487 -0.8290
  524MOL0     H72245   2.050  11.475   7.916  1.8097  0.1233  0.1393
  524MOL0     H72246   1.962  11.511   7.765 -0.5839  0.4876 -0.9629
  524MOL0     H72247   2.163  11.455   7.631  1.5376  0.2889 -0.9904
  524MOL0     H72248   2.205  11.574   7.749 -0.4013 -0.7618  2.2379
  524MOL0     H72249   2.317  11.399   7.903 -0.0610  0.4895 -0.7016
  524MOL0     H72250   2.266  11.278   7.797 -0.3029  0.0119  0.3708
  524MOL0     H72251   2.413  11.406   7.612  1.1144  2.0832  0.3629
  524MOL0     H72252   2.464  11.510   7.738 -0.7639  0.7425 -0.4495
  524MOL0     H72253   2.473  11.200   7.742 -1.0969 -0.0381  1.2073
  524MOL0     H72254   2.565  11.316   7.849 -1.6472 -1.3862  1.1779
  524MOL0     H72255   2.635  11.285   7.554 -0.3215 -1.1982 -0.6250
  524MOL0     H72256   2.685  11.415   7.664  0.7397 -0.8286 -2.6099
  524MOL0     H72257   2.791  11.258   7.819  0.8539 -4.4678  1.2498
  524MOL0     H72258   2.849  11.224   7.656 -2.1838 -0.9640 -1.0137
  524MOL0     H72259   2.826  11.038   7.792  1.8601  1.9744 -1.3802
  524MOL0     H72260   2.655  11.071   7.820  1.3904  1.3720  1.0366
  524MOL0     H72261   2.907  11.010   7.533  0.9012 -1.2135  1.5585
  524MOL0     H72262   2.942  10.870   7.338  0.0573  0.2346  0.6091
  524MOL0     H72263   2.804  10.792   7.256  0.2194  0.4676 -0.2368
  524MOL0     H72264   2.805  10.632   7.454  0.8126  0.7795  1.9737
  524MOL0     H72265   2.935  10.605   7.330  1.1700  1.6507 -1.5697
  524MOL0     H72266   3.092  10.711   7.479  1.3478 -0.6128  2.0682
  524MOL0     H72267   2.952  10.730   7.598 -2.2091  0.4253 -2.4058
  524MOL0     H72268   2.929  10.480   7.585 -1.4258  2.3105  0.7629
  524MOL0     H72269   3.073  10.474   7.482  2.5987 -1.2157  1.9465
  524MOL0     H72270   3.213  10.594   7.892  1.4501  0.4791 -0.2894
  524MOL0     H72271   3.398  10.639   8.050 -0.2911 -0.6563 -0.6974
  524MOL0     H72272   3.526  10.733   7.979 -0.1477  0.7406  0.1951
  524MOL0     H72273   3.548  10.555   8.011  0.4209 -0.7965 -0.9732
  524MOL0     H72274   3.973  10.535   7.511 -1.8222 -1.4845  3.4927
  524MOL0     H72275   4.178  10.680   7.475  1.9847  1.0110  1.1028
  524MOL0     H72276   4.342  10.796   7.585 -0.0922 -1.3977 -1.3783
  524MOL0     H72277   4.351  10.876   7.421  1.3761  1.2321  0.6483
  524MOL0     H72278   4.408  11.079   7.518  1.1896  1.9853  1.7893
  524MOL0     H72279   4.423  11.006   7.672 -0.5476  0.5991 -1.2174
  524MOL0     H72280   4.584  10.901   7.440  1.0202 -3.1948  0.7693
  524MOL0     H72281   4.595  10.840   7.594 -0.6421 -0.3075 -0.3296
  524MOL0     H72282   4.643  11.077   7.680 -0.5839  2.4837 -1.6810
  524MOL0     H72283   4.636  11.132   7.510 -2.6312  0.0289  0.5824
  524MOL0     H72284   4.862  11.119   7.602 -0.2640 -0.7731 -0.8034
  524MOL0     H72285   4.827  10.952   7.674 -0.3694 -1.1824  0.4238
  524MOL0     H72286   4.867  11.039   7.391 -1.7074 -1.1129 -2.1373
  524MOL0     H72287   4.805  10.887   7.433 -0.1115 -0.7640  0.7758
  524MOL0     H72288   5.026  10.837   7.402  0.5645  2.1601 -1.8259
  524MOL0     H72289   5.010  10.836   7.574 -0.7441  1.6641  0.9990
  524MOL0     H72290   5.119  11.038   7.596  0.8305 -1.2043  0.5297
  524MOL0     H72291   5.071  11.096   7.432 -0.2317  0.7863  1.3792
  524MOL0     H72292   3.956  11.021   7.590  1.5026 -0.0052 -4.1018
  524MOL0     H72293   3.764  10.877   7.663  1.8215  3.7364 -0.5145
  524MOL0     H72294   3.517  10.567   7.504 -2.0286  2.8281 -0.8441
  524MOL0     H72295   3.280  10.534   7.484 -2.8293  1.2523  0.4290
  524MOL0     H72296   1.814  11.437   7.976 -0.4459 -0.7336  2.0951
  524MOL0     H72297   1.580  11.394   7.995 -1.4116 -0.4461 -1.0014
  524MOL0     H72298   1.193  11.129   8.111 -2.7559  0.3927  0.2820
  524MOL0     H72299   0.998  11.005   8.080  0.1909 -0.0277  0.9923
  524MOL0     H72300   0.755  11.105   7.710  2.3924  0.0528  0.1644
  524MOL0     H72301   0.828  10.958   7.652  1.0906  0.3230  1.0885
  524MOL0     H72302   0.568  10.979   7.695 -1.1035 -1.1817 -0.2083
  524MOL0     H72303   0.612  10.930   7.856 -1.4021 -1.2937 -1.2503
  524MOL0     H72304   0.679  10.756   7.609  1.6140 -0.7368  0.2795
  524MOL0     H72305   0.758  10.737   7.766 -1.2360 -2.8712  0.2078
  524MOL0     H72306   0.548  10.684   7.884 -0.0025 -0.0025  0.0296
  524MOL0     H72307   0.563  10.579   7.745 -2.7601 -0.2971  2.2786
  524MOL0     H72308   0.210  10.756   7.636 -1.1420  0.4095  3.1421
  524MOL0     H72309   0.978  11.122   7.669  0.2231  3.6976 -0.0677
  524MOL0     H72310   1.264  11.217   7.574 -1.9781 -0.1348 -1.0203
  524MOL0     H72311   1.123  11.315   7.590  1.1398  0.2889 -2.8226
  524MOL0     H72312   1.276  11.347   7.683  2.9677 -2.9927 -0.8052
  525MOL0     O72313  10.123  10.718   4.241  0.8715  0.4282  1.1179
  525MOL0     C72314  10.022  10.697   4.168  0.0471 -0.1091 -0.3730
  525MOL0     O72315  10.009  10.728   4.030  0.3180  0.0307  0.1758
  525MOL0     C72316  10.129  10.749   3.960  0.1483 -0.6416 -1.0653
  525MOL0     C72317  10.149  10.864   3.889 -0.4166 -0.0655  0.7338
  525MOL0     C72318  10.272  10.889   3.817  1.2587  0.0927 -0.6776
  525MOL0     C72319  10.365  10.787   3.794  0.3949 -0.2498 -0.2062
  525MOL0     O72320  10.468  10.809   3.705 -0.3103  0.3926  0.5217
  525MOL0     C72321  10.575  10.708   3.707  1.1479 -0.0782  0.0156
  525MOL0     C72322  10.687  10.736   3.600 -0.7062  0.5123 -0.3115
  525MOL0     C72323  10.631  10.825   3.491 -0.7620  0.3304  0.3107
  525MOL0     C72324  10.735  10.845   3.381  0.3249 -0.1130  0.0379
  525MOL0     C72325  10.682  10.923   3.268  0.1664 -0.2847 -0.9287
  525MOL0     C72326  10.796  10.957   3.165  0.7343  0.5600  0.3281
  525MOL0     C72327  10.751  11.067   3.070  0.1704 -0.2479  0.1643
  525MOL0     C72328  10.801  11.071   2.926 -0.2763  0.1376 -1.0217
  525MOL0     N72329  10.743  11.192   2.857  0.3338  0.2132  0.0459
  525MOL0     C72330  10.633  11.188   2.774  0.4319 -0.9185 -0.3371
  525MOL0     C72331  10.632  11.311   2.712 -0.5067  0.4942  0.5867
  525MOL0     C72332  10.531  11.364   2.614 -1.0259 -0.0526  0.2451
  525MOL0     C72333  10.541  11.310   2.467  0.2384  1.2156  0.0533
  525MOL0     C72334  10.455  11.177   2.450  0.3438 -0.3871  0.1135
  525MOL0     C72335  10.474  11.124   2.308  0.1432 -0.1644 -0.6077
  525MOL0     O72336  10.432  11.214   2.201 -0.4010 -0.6152 -0.1379
  525MOL0     C72337  10.298  11.250   2.186 -0.2709 -0.4209  0.5337
  525MOL0     C72338  10.271  11.349   2.093 -0.5291  0.2051  0.5072
  525MOL0     C72339  10.146  11.396   2.067 -0.0261  0.0070  0.2700
  525MOL0     C72340  10.140  11.505   1.962  0.1639 -0.1975 -0.2772
  525MOL0     C72341  10.032  11.348   2.142 -0.3441 -0.2224 -0.0172
  525MOL0     C72342   9.889  11.396   2.128 -0.0462 -0.8597 -1.1863
  525MOL0     O72343   9.796  11.320   2.199  0.1336 -0.1579  0.2061
  525MOL0     C72344   9.672  11.318   2.144 -1.1610  0.2676  0.7860
  525MOL0     C72345   9.567  11.398   2.185 -0.3370  0.7527 -0.2356
  525MOL0     C72346   9.444  11.379   2.124 -0.2503  0.0909  0.4779
  525MOL0     C72347   9.428  11.274   2.030 -0.1011 -0.5402  0.2953
  525MOL0     O72348   9.303  11.241   1.970 -0.1472  0.1133 -0.0567
  525MOL0     C72349   9.186  11.245   2.053 -0.3561 -0.1500 -0.5081
  525MOL0     C72350   9.091  11.360   2.018  0.0849 -0.4104 -0.4918
  525MOL0     C72351   8.963  11.353   2.099  0.4092  0.2123 -1.1239
  525MOL0     C72352   8.903  11.490   2.116 -0.1830 -0.1546 -0.7793
  525MOL0     C72353   8.752  11.478   2.122  0.6732 -0.6426  0.2037
  525MOL0     C72354   8.709  11.395   2.246  0.0625 -0.0842 -0.8136
  525MOL0     C72355   8.556  11.373   2.233 -0.3059 -0.0671 -0.0702
  525MOL0     C72356   8.503  11.295   2.361  0.1791  0.1015  0.4331
  525MOL0    Cl72357   8.333  11.271   2.327  0.2131  0.2308  0.1063
  525MOL0     C72358   9.533  11.192   1.992  0.4716 -0.1156 -0.2070
  525MOL0     C72359   9.651  11.207   2.053 -0.8650 -0.2102  0.1003
  525MOL0     O72360   9.864  11.491   2.061  0.5309 -0.4130 -0.9708
  525MOL0     C72361  10.065  11.237   2.230 -0.2718  0.0068 -0.7683
  525MOL0     C72362  10.196  11.191   2.255  0.3183  0.2135  0.9928
  525MOL0     N72363  10.737  11.391   2.759  0.1947 -0.0884 -0.2269
  525MOL0     N72364  10.805  11.312   2.838 -0.1985 -0.2250 -0.0504
  525MOL0     C72365  10.340  10.672   3.874 -0.2373  0.3171 -0.2976
  525MOL0     C72366  10.228  10.649   3.958  0.5948 -1.2575  0.9984
  525MOL0     C72367   9.909  10.639   4.242  0.2577 -0.3203  0.1455
  525MOL0     C72368   9.805  10.599   4.155  0.5213  0.0624  0.6130
  525MOL0     C72369   9.679  10.550   4.201  0.5831 -0.4310 -0.0078
  525MOL0     C72370   9.660  10.541   4.346  0.6388  0.3413 -0.7385
  525MOL0     O72371   9.534  10.516   4.395  0.1194  0.0843 -0.2531
  525MOL0     C72372   9.515  10.384   4.453  0.0066 -0.2948 -0.3713
  525MOL0     C72373   9.511  10.404   4.610  0.2213 -0.9945 -0.0115
  525MOL0     C72374   9.374  10.427   4.667  0.7972 -0.9310  0.0512
  525MOL0     C72375   9.380  10.436   4.819  0.7131  0.5096  0.0138
  525MOL0     C72376   9.235  10.437   4.862  0.3696  0.0404 -0.0410
  525MOL0     C72377   9.116  10.440   4.891 -0.4899  0.8078 -0.1174
  525MOL0     C72378   9.770  10.570   4.431 -0.4433 -0.6961  0.0227
  525MOL0     C72379   9.898  10.618   4.377  0.4965  0.6374 -0.0605
  525MOL0     C72380  10.002  10.655   4.479  1.0271  0.0977  0.0257
  525MOL0     H72381  10.077  10.945   3.882 -0.7975 -0.4556  0.1586
  525MOL0     H72382  10.294  10.980   3.762  0.4476  0.0078 -1.1591
  525MOL0     H72383  10.527  10.613   3.683  0.0005  0.1837  1.2271
  525MOL0     H72384  10.627  10.706   3.803 -0.0807 -0.6226  0.6869
  525MOL0     H72385  10.768  10.779   3.660 -1.1030 -2.4817  2.6322
  525MOL0     H72386  10.725  10.644   3.554  0.6137  0.8360  0.0920
  525MOL0     H72387  10.537  10.788   3.447 -0.2081 -0.8444  0.0691
  525MOL0     H72388  10.603  10.926   3.522 -3.0841  0.0754 -0.7535
  525MOL0     H72389  10.823  10.891   3.426 -1.1483  1.4551  1.4419
  525MOL0     H72390  10.760  10.755   3.323 -1.9416  0.2933 -1.7205
  525MOL0     H72391  10.643  11.019   3.302  0.2881 -0.8095  0.7738
  525MOL0     H72392  10.596  10.870   3.226 -1.7911  1.6804  0.4349
  525MOL0     H72393  10.887  10.984   3.219  0.8825  2.5902 -0.8489
  525MOL0     H72394  10.805  10.870   3.099  1.2712  1.7023 -1.1755
  525MOL0     H72395  10.765  11.164   3.120 -1.6885 -0.2174  0.7028
  525MOL0     H72396  10.643  11.058   3.055  0.1251  0.7314 -0.2077
  525MOL0     H72397  10.907  11.092   2.944 -0.2119 -0.4663 -0.6812
  525MOL0     H72398  10.776  10.977   2.874 -2.1026  1.0558 -1.9184
  525MOL0     H72399  10.566  11.104   2.755  0.4851 -2.6063  5.0939
  525MOL0     H72400  10.555  11.470   2.606  2.5402 -0.7144  0.5003
  525MOL0     H72401  10.436  11.333   2.659 -1.3151 -3.4132 -2.2880
  525MOL0     H72402  10.510  11.385   2.394 -2.1669 -0.3367 -0.6348
  525MOL0     H72403  10.641  11.273   2.445  0.8767  0.2944  3.7507
  525MOL0     H72404  10.502  11.103   2.516  1.1292 -0.5373 -0.5962
  525MOL0     H72405  10.349  11.197   2.469  0.7520  0.3317  1.8035
  525MOL0     H72406  10.580  11.096   2.303  0.3081  0.0992  0.8613
  525MOL0     H72407  10.422  11.029   2.299  1.3985 -1.0980  1.3183
  525MOL0     H72408  10.356  11.384   2.035 -1.5387 -0.6381 -1.5975
  525MOL0     H72409  10.059  11.488   1.890 -0.3069  0.6389  0.0358
  525MOL0     H72410  10.231  11.526   1.906  1.0187  0.8704  1.4243
  525MOL0     H72411  10.116  11.598   2.015  0.5950  0.7401 -1.6519
  525MOL0     H72412   9.568  11.467   2.269 -2.4592  0.2318  0.2781
  525MOL0     H72413   9.359  11.442   2.148  0.2191  1.2033 -0.7050
  525MOL0     H72414   9.139  11.148   2.035  0.1394 -0.2773 -1.1430
  525MOL0     H72415   9.215  11.252   2.159  1.9275  2.2895 -1.1866
  525MOL0     H72416   9.140  11.454   2.044  0.1103 -1.3121  3.1796
  525MOL0     H72417   9.058  11.360   1.913  1.0026  2.2737 -0.8712
  525MOL0     H72418   8.998  11.315   2.195  0.1107 -0.6218 -1.3392
  525MOL0     H72419   8.894  11.284   2.051 -0.3291 -0.2312  0.5397
  525MOL0     H72420   8.920  11.551   2.027 -0.3146  1.7726  0.4520
  525MOL0     H72421   8.941  11.539   2.206  0.8398  0.2335 -1.4139
  525MOL0     H72422   8.715  11.581   2.130  1.8048 -0.1963 -0.0092
  525MOL0     H72423   8.714  11.431   2.031 -4.3926  2.7777  0.1835
  525MOL0     H72424   8.723  11.457   2.335  0.1356 -0.2083 -0.7394
  525MOL0     H72425   8.773  11.307   2.252  1.7434  0.5796 -5.3098
  525MOL0     H72426   8.531  11.322   2.140  2.3683 -0.9619 -0.3953
  525MOL0     H72427   8.516  11.474   2.238  0.6622  0.4179 -1.4928
  525MOL0     H72428   8.508  11.371   2.439 -0.8907  0.9893 -0.3297
  525MOL0     H72429   8.556  11.206   2.396 -0.5502 -0.2762  0.6174
  525MOL0     H72430   9.527  11.111   1.921  0.8479  0.4111 -0.8514
  525MOL0     H72431   9.740  11.148   2.036 -0.1788  0.5323  0.9791
  525MOL0     H72432   9.979  11.201   2.286 -0.0591  0.6116 -0.0356
  525MOL0     H72433  10.206  11.106   2.323  0.7953 -0.5354  0.0038
  525MOL0     H72434  10.411  10.590   3.875 -0.8731 -0.2513  1.0126
  525MOL0     H72435  10.210  10.561   4.019 -1.5105 -1.3268  0.3795
  525MOL0     H72436   9.811  10.604   4.047 -0.1080  0.9653  0.6109
  525MOL0     H72437   9.599  10.523   4.132  0.5795 -3.6903  1.0914
  525MOL0     H72438   9.423  10.339   4.415  0.0810  0.0101 -0.9301
  525MOL0     H72439   9.602  10.320   4.435 -0.0999 -1.1705  1.9009
  525MOL0     H72440   9.570  10.491   4.638  0.9800 -0.8170 -1.9883
  525MOL0     H72441   9.556  10.319   4.663 -1.9241 -0.9289  2.0748
  525MOL0     H72442   9.329  10.519   4.629  0.6736 -1.1576 -0.3567
  525MOL0     H72443   9.303  10.347   4.643 -0.5782 -0.2016  1.4653
  525MOL0     H72444   9.419  10.533   4.852 -4.5881  3.2954 -0.7220
  525MOL0     H72445   9.427  10.348   4.863 -0.3322 -0.0050  0.1357
  525MOL0     H72446   9.013  10.421   4.909 -0.2830 -0.2739 -0.0168
  525MOL0     H72447   9.749  10.566   4.538  0.1030 -0.5017  0.1390
  525MOL0     H72448   9.990  10.604   4.575  1.6096  0.7758  0.4735
  525MOL0     H72449  10.100  10.621   4.444  1.9763  2.3996  0.2412
  525MOL0     H72450  10.003  10.764   4.488 -1.5262  0.3885 -2.1264
  526MOL0     O72451   3.597   4.982   0.254 -0.4301  0.1605 -0.0023
  526MOL0     C72452   3.480   4.993   0.284 -0.3328 -0.1513 -0.1270
  526MOL0     O72453   3.446   5.037   0.410  0.1561  0.1789  1.1996
  526MOL0     C72454   3.546   5.038   0.512  1.0851  0.5504  0.1019
  526MOL0     C72455   3.565   5.153   0.590 -0.2359  0.2807  0.2453
  526MOL0     C72456   3.663   5.158   0.684  0.3506 -0.3556  0.7970
  526MOL0     C72457   3.742   5.048   0.717  0.2601 -0.7585 -0.0742
  526MOL0     O72458   3.828   5.042   0.822 -0.8613 -0.4185  0.0909
  526MOL0     C72459   3.928   5.141   0.834  0.4976 -0.3886  0.0620
  526MOL0     C72460   4.038   5.083   0.920 -0.8382  0.7205 -0.3979
  526MOL0     C72461   4.154   5.185   0.946 -1.5635 -0.1140 -0.7912
  526MOL0     C72462   4.255   5.131   1.051  0.3147  0.4954  0.0487
  526MOL0     C72463   4.348   5.248   1.091  0.1132  0.1199 -0.8007
  526MOL0     C72464   4.454   5.211   1.198  0.0101 -0.2302  0.6989
  526MOL0     C72465   4.568   5.309   1.221  0.3224  0.8631 -0.4019
  526MOL0     C72466   4.690   5.234   1.277  0.2002  0.8555  0.1089
  526MOL0     N72467   4.800   5.330   1.298  0.9101  0.0611 -0.1226
  526MOL0     C72468   4.815   5.410   1.402  0.3808 -0.8368 -0.0072
  526MOL0     C72469   4.924   5.477   1.375 -0.6403  0.8854  0.0486
  526MOL0     C72470   4.968   5.591   1.459 -0.6571  0.4934  0.2636
  526MOL0     C72471   5.018   5.531   1.597  0.0775  0.1146  0.5389
  526MOL0     C72472   5.127   5.423   1.567 -0.7591  0.4647  0.0142
  526MOL0     C72473   5.250   5.479   1.500 -0.0131  0.8347 -0.2769
  526MOL0     O72474   5.354   5.385   1.482 -0.1554 -0.4232  0.3733
  526MOL0     C72475   5.478   5.411   1.544  0.7611  0.5113 -0.4086
  526MOL0     C72476   5.507   5.353   1.670  0.1166  0.2940  0.2075
  526MOL0     C72477   5.630   5.370   1.739 -0.4003 -0.9075 -0.4708
  526MOL0     C72478   5.650   5.321   1.879  0.0227  0.4660  0.1179
  526MOL0     C72479   5.734   5.442   1.670 -0.2234  0.5076 -1.0845
  526MOL0     C72480   5.874   5.472   1.726  0.3305  0.4644  0.4663
  526MOL0     O72481   5.954   5.542   1.634  0.5428  0.5927  0.5872
  526MOL0     C72482   6.084   5.581   1.661  0.6954  0.1000  0.1609
  526MOL0     C72483   6.172   5.603   1.553 -0.4889 -0.0719 -0.4678
  526MOL0     C72484   6.297   5.667   1.568  0.5209 -0.8566 -0.0056
  526MOL0     C72485   6.338   5.699   1.696  0.3228  0.4559  0.3526
  526MOL0     O72486   6.466   5.747   1.699  0.1870  0.1890 -0.1564
  526MOL0     C72487   6.531   5.754   1.832  0.5779  0.3178  0.0393
  526MOL0     C72488   6.690   5.776   1.811 -0.6100  0.2167  0.2322
  526MOL0     C72489   6.741   5.910   1.762 -0.9166  0.1849 -0.0640
  526MOL0     C72490   6.718   6.029   1.853  0.4406  0.0254 -0.2939
  526MOL0     C72491   6.745   6.004   2.001 -0.2588 -0.1475 -0.4474
  526MOL0     C72492   6.893   5.966   2.030 -0.2906 -0.0528  0.3200
  526MOL0     C72493   6.985   6.086   1.989 -0.1613  0.0245 -0.4275
  526MOL0     C72494   7.125   6.036   2.003 -0.3375 -0.8562  0.1968
  526MOL0    Cl72495   7.234   6.149   1.926 -0.3981  0.1159  0.1854
  526MOL0     C72496   6.260   5.667   1.809  0.1857 -0.1035 -0.4851
  526MOL0     C72497   6.135   5.607   1.785  0.4069  0.3778  0.2972
  526MOL0     O72498   5.907   5.433   1.834 -0.2993 -0.1254 -0.1758
  526MOL0     C72499   5.702   5.492   1.540  0.3155 -0.6359  0.0381
  526MOL0     C72500   5.579   5.477   1.482 -0.6916 -0.3304 -0.1796
  526MOL0     N72501   4.987   5.438   1.252  0.6222 -0.0508 -0.2094
  526MOL0     N72502   4.902   5.346   1.213  0.2348  0.4449 -0.3652
  526MOL0     C72503   3.731   4.933   0.634  0.4136  0.1921  1.0828
  526MOL0     C72504   3.625   4.927   0.536 -0.6106 -0.2275  0.0386
  526MOL0     C72505   3.377   4.941   0.193  0.2027 -0.8748 -0.5950
  526MOL0     C72506   3.239   4.979   0.231 -0.4001 -0.5554 -0.3230
  526MOL0     C72507   3.134   4.947   0.146  0.1292  0.1939 -0.4026
  526MOL0     C72508   3.160   4.870   0.027 -0.3635  0.2528  0.3484
  526MOL0     O72509   3.069   4.850  -0.069  0.4223  0.8480 -0.5927
  526MOL0     C72510   2.956   4.772  -0.035  0.5908 -0.9201  0.1668
  526MOL0     C72511   2.873   4.748  -0.155 -0.0754 -0.7489 -0.4179
  526MOL0     C72512   2.729   4.684  -0.142 -0.5859  0.1079  0.5202
  526MOL0     C72513   2.632   4.793  -0.102  0.0593  0.0047  0.2602
  526MOL0     C72514   2.495   4.739  -0.097  0.4617 -0.0935 -0.4824
  526MOL0     C72515   2.383   4.680  -0.081 -0.2283 -0.3828  0.2178
  526MOL0     C72516   3.293   4.834  -0.015  0.6731  0.2317 -0.5423
  526MOL0     C72517   3.402   4.866   0.074 -0.1070  0.0355 -0.3360
  526MOL0     C72518   3.527   4.799   0.038 -0.0007 -0.1538  1.0285
  526MOL0     H72519   3.506   5.243   0.574  0.7593  0.9193  0.0485
  526MOL0     H72520   3.674   5.257   0.727  2.1776  0.6409 -1.7592
  526MOL0     H72521   3.879   5.231   0.874 -1.5403 -0.4341 -2.1001
  526MOL0     H72522   3.966   5.161   0.734 -1.7320 -0.4357 -0.8568
  526MOL0     H72523   3.999   5.050   1.016  0.4096 -0.3423 -0.2170
  526MOL0     H72524   4.077   4.993   0.870 -2.4340 -1.3847  1.8992
  526MOL0     H72525   4.207   5.212   0.855 -1.4203  1.9053 -0.1563
  526MOL0     H72526   4.119   5.280   0.987  2.3195  1.2049 -0.1423
  526MOL0     H72527   4.209   5.082   1.138 -0.9817 -0.9321 -1.3707
  526MOL0     H72528   4.309   5.058   0.991 -0.8771  0.0133 -0.4798
  526MOL0     H72529   4.280   5.328   1.120 -0.5458 -0.6701 -0.0872
  526MOL0     H72530   4.402   5.273   0.999 -0.9421 -0.1898 -1.5159
  526MOL0     H72531   4.407   5.196   1.296  1.4568 -1.5311  1.2404
  526MOL0     H72532   4.497   5.114   1.170  1.4935  0.1797  1.4683
  526MOL0     H72533   4.540   5.390   1.289  0.4203  0.1238  0.5332
  526MOL0     H72534   4.588   5.356   1.124 -1.9739  0.2427 -1.2531
  526MOL0     H72535   4.668   5.185   1.372  2.7905  0.9841  0.8355
  526MOL0     H72536   4.728   5.155   1.211  1.2461  2.7080 -1.6279
  526MOL0     H72537   4.755   5.428   1.491  1.7260 -0.9474  0.9593
  526MOL0     H72538   4.888   5.663   1.476 -0.8458  0.3423  0.0215
  526MOL0     H72539   5.049   5.648   1.412  1.4410 -0.2877  2.7069
  526MOL0     H72540   5.066   5.601   1.666  2.0835  0.2990 -0.9687
  526MOL0     H72541   4.924   5.493   1.639 -1.1012  1.5072 -0.7201
  526MOL0     H72542   5.165   5.382   1.661  0.6318 -0.0177 -0.7310
  526MOL0     H72543   5.083   5.339   1.513 -1.9390  0.4709  0.9200
  526MOL0     H72544   5.222   5.511   1.399  0.9602 -1.5224 -1.3522
  526MOL0     H72545   5.286   5.564   1.559 -0.0791  0.3381  0.4997
  526MOL0     H72546   5.434   5.296   1.727 -1.0244 -0.5578 -2.0081
  526MOL0     H72547   5.570   5.254   1.912 -0.9127  2.0079  1.1112
  526MOL0     H72548   5.643   5.412   1.939 -1.4326  1.5912 -1.6472
  526MOL0     H72549   5.744   5.265   1.882  0.3067  0.6570 -2.4957
  526MOL0     H72550   6.147   5.581   1.449 -2.0495 -1.0307  0.0735
  526MOL0     H72551   6.356   5.674   1.477 -1.4959  0.8258 -1.2895
  526MOL0     H72552   6.498   5.833   1.901  2.6374  1.1206  0.1784
  526MOL0     H72553   6.522   5.658   1.884  2.0440  0.5757  0.8207
  526MOL0     H72554   6.742   5.744   1.901 -1.4067  0.7652  0.9065
  526MOL0     H72555   6.717   5.711   1.728  2.3609  0.1724  1.1041
  526MOL0     H72556   6.691   5.920   1.665 -0.7024 -0.1716 -0.2105
  526MOL0     H72557   6.848   5.901   1.743 -0.6505 -0.5643  1.6567
  526MOL0     H72558   6.612   6.053   1.863  0.0042 -1.7667 -0.3283
  526MOL0     H72559   6.769   6.118   1.814 -0.3693  0.6686  0.1024
  526MOL0     H72560   6.719   6.094   2.059  0.9581 -1.4152  2.2492
  526MOL0     H72561   6.681   5.922   2.035 -0.8220  0.7590  0.7822
  526MOL0     H72562   6.905   5.873   1.974 -4.0046  0.3434 -1.4250
  526MOL0     H72563   6.882   5.959   2.139 -2.2347  2.8846  0.4023
  526MOL0     H72564   6.969   6.162   2.066  0.1568  0.6577 -0.9767
  526MOL0     H72565   6.967   6.112   1.884 -0.9788 -3.0752 -1.1470
  526MOL0     H72566   7.131   5.940   1.951 -0.5697  0.5058 -2.5205
  526MOL0     H72567   7.154   6.022   2.107  0.1101  2.5970  0.6637
  526MOL0     H72568   6.298   5.682   1.910  1.7845 -1.8991 -0.7541
  526MOL0     H72569   6.073   5.596   1.873 -1.3163  1.2726 -0.7592
  526MOL0     H72570   5.761   5.554   1.473 -0.1721 -0.2403 -0.0369
  526MOL0     H72571   5.550   5.525   1.389 -0.6930  0.3890  0.1842
  526MOL0     H72572   3.786   4.841   0.655 -2.0405 -1.8589 -0.7641
  526MOL0     H72573   3.605   4.840   0.474  0.8817 -0.4071 -0.2088
  526MOL0     H72574   3.225   5.033   0.324  1.4041 -0.4446 -0.0860
  526MOL0     H72575   3.035   4.987   0.166 -0.3202 -0.6912 -0.8155
  526MOL0     H72576   2.981   4.676   0.011  1.2443 -0.4419  0.8295
  526MOL0     H72577   2.889   4.821   0.035 -0.5792 -0.2228 -1.3708
  526MOL0     H72578   2.933   4.682  -0.219  2.0499 -1.9440  2.5679
  526MOL0     H72579   2.858   4.839  -0.214  0.9084 -0.4387 -0.2000
  526MOL0     H72580   2.690   4.638  -0.233 -3.0900  1.2207  0.9356
  526MOL0     H72581   2.740   4.602  -0.070  1.3846  0.6375  0.8715
  526MOL0     H72582   2.636   4.885  -0.160  0.3145 -0.5685 -0.6427
  526MOL0     H72583   2.664   4.830  -0.004 -0.5916 -0.8920  0.8384
  526MOL0     H72584   2.297   4.618  -0.067  1.1995 -3.0260 -1.7897
  526MOL0     H72585   3.315   4.782  -0.108  0.3973  0.1336 -0.5535
  526MOL0     H72586   3.519   4.775  -0.068  1.9856  1.8685  0.3415
  526MOL0     H72587   3.610   4.869   0.030  2.2102 -2.7722 -0.2313
  526MOL0     H72588   3.553   4.714   0.101 -0.2360  0.3805  1.8649
  527MOL0     O72589   7.124   1.962  11.211  0.5344  0.2302  0.5437
  527MOL0     C72590   7.137   1.870  11.127  1.0011  0.0940 -0.2136
  527MOL0     O72591   7.107   1.878  10.996  0.3794  0.3888  0.0729
  527MOL0     C72592   7.054   2.004  10.963 -0.1174 -0.8913  0.0341
  527MOL0     C72593   7.138   2.107  10.923 -0.3881  0.3516 -0.5561
  527MOL0     C72594   7.082   2.230  10.895 -0.2432  0.0369 -0.3596
  527MOL0     C72595   6.948   2.254  10.920  0.1055 -0.7926  0.1315
  527MOL0     O72596   6.887   2.378  10.901 -0.4454  0.6697  0.2000
  527MOL0     C72597   6.956   2.494  10.859  0.0829  0.6059 -1.3365
  527MOL0     C72598   6.879   2.616  10.908  1.1371 -0.4321 -0.0320
  527MOL0     C72599   6.964   2.739  10.880 -0.0943 -0.0157  0.6017
  527MOL0     C72600   6.864   2.855  10.899  0.4497  0.2986  0.3166
  527MOL0     C72601   6.957   2.983  10.902  0.7249 -0.0189 -0.2641
  527MOL0     C72602   6.882   3.112  10.904  0.7097 -0.1352  0.3716
  527MOL0     C72603   6.801   3.137  11.030  0.9140  0.3388  0.5408
  527MOL0     C72604   6.776   3.287  11.042  0.5857 -0.5968  0.0888
  527MOL0     N72605   6.893   3.349  11.103 -0.8688  0.4338 -0.7306
  527MOL0     C72606   6.906   3.350  11.242 -0.6659  0.8679 -0.6961
  527MOL0     C72607   6.999   3.439  11.260  0.1338  0.8906 -0.3584
  527MOL0     C72608   7.054   3.460  11.398 -0.1244 -0.7252  0.7699
  527MOL0     C72609   7.180   3.370  11.424  0.3801 -0.3853 -0.7333
  527MOL0     C72610   7.283   3.446  11.515 -0.2637 -0.4210 -0.2312
  527MOL0     C72611   7.416   3.366  11.513 -0.3567  0.0928 -0.1149
  527MOL0     O72612   7.375   3.247  11.582  0.3426 -0.6897 -1.1064
  527MOL0     C72613   7.463   3.149  11.570 -0.9049  0.7971 -0.3297
  527MOL0     C72614   7.415   3.017  11.588 -0.4395 -0.1778 -0.2999
  527MOL0     C72615   7.487   2.906  11.566 -0.1093 -0.1761 -0.9801
  527MOL0     C72616   7.417   2.775  11.614 -0.6615 -0.6031  0.1212
  527MOL0     C72617   7.620   2.912  11.522  0.1447  1.0602  0.0469
  527MOL0     C72618   7.703   2.799  11.477  1.1840  0.5051 -0.2868
  527MOL0     O72619   7.810   2.821  11.396  0.3317  0.3827 -0.0489
  527MOL0     C72620   7.878   2.705  11.357  1.1193 -0.9786  0.1861
  527MOL0     C72621   7.826   2.633  11.251  0.0261 -0.5437 -0.1443
  527MOL0     C72622   7.886   2.523  11.199 -0.4788  0.6475 -0.2099
  527MOL0     C72623   8.015   2.481  11.244  0.0920  0.0594  0.0303
  527MOL0     O72624   8.078   2.373  11.177  0.0967 -0.2917 -0.0423
  527MOL0     C72625   8.046   2.243  11.225 -0.1507  0.1614  0.2790
  527MOL0     C72626   8.093   2.124  11.134  0.6200 -0.8663  0.0371
  527MOL0     C72627   8.063   1.990  11.191  0.3352 -0.2831 -0.9993
  527MOL0     C72628   8.127   1.982  11.332 -0.5769  0.1940  0.1334
  527MOL0     C72629   8.122   1.836  11.376 -0.9114  0.4152  0.3679
  527MOL0     C72630   8.212   1.813  11.496  0.4853  0.2345  0.0683
  527MOL0     C72631   8.201   1.667  11.547  0.1535 -0.5888  0.3734
  527MOL0     C72632   8.294   1.657  11.671  0.3037  0.8908 -0.2021
  527MOL0    Cl72633   8.297   1.494  11.748 -0.2457  0.1116  0.3783
  527MOL0     C72634   8.069   2.549  11.357 -0.5103 -0.5663  0.2985
  527MOL0     C72635   7.991   2.655  11.417  0.1676 -0.1924 -0.2535
  527MOL0     O72636   7.690   2.692  11.546 -0.6192 -0.5128  0.1617
  527MOL0     C72637   7.682   3.038  11.515 -0.1272 -0.4192 -0.2912
  527MOL0     C72638   7.607   3.151  11.534 -0.0473  0.0383 -0.5475
  527MOL0     N72639   7.040   3.491  11.142  0.3283  0.0262  0.1761
  527MOL0     N72640   6.989   3.425  11.044  0.0075 -0.2758  0.2655
  527MOL0     C72641   6.863   2.151  10.961 -0.0742 -0.3654 -0.0151
  527MOL0     C72642   6.926   2.031  10.990  0.7408 -0.4312  1.1757
  527MOL0     C72643   7.209   1.746  11.173  0.2211 -0.1314 -0.3435
  527MOL0     C72644   7.267   1.669  11.069 -0.8081 -0.2937  0.1562
  527MOL0     C72645   7.342   1.561  11.097  0.4469  0.6293 -0.2460
  527MOL0     C72646   7.360   1.517  11.232  0.1282  0.2421 -0.0771
  527MOL0     O72647   7.436   1.399  11.249 -0.4866 -0.0614 -0.3129
  527MOL0     C72648   7.448   1.351  11.384  0.7235 -0.1113  0.5045
  527MOL0     C72649   7.553   1.433  11.467 -0.7263  0.6743 -0.0911
  527MOL0     C72650   7.678   1.457  11.379 -0.0329 -0.8983 -0.3098
  527MOL0     C72651   7.773   1.547  11.467 -0.2135 -0.0605 -0.1701
  527MOL0     C72652   7.832   1.475  11.586 -0.3642 -0.5596  0.0056
  527MOL0     C72653   7.873   1.416  11.687  0.1511  0.7959  0.1262
  527MOL0     C72654   7.287   1.581  11.331 -0.4245 -0.9092  0.3457
  527MOL0     C72655   7.212   1.696  11.310  0.1083  0.3223  0.6334
  527MOL0     C72656   7.128   1.746  11.427  0.1927  0.2221 -1.1712
  527MOL0     H72657   7.244   2.094  10.903 -0.2909  0.4191 -0.1108
  527MOL0     H72658   7.149   2.298  10.843  0.7207 -1.8309 -1.6646
  527MOL0     H72659   6.977   2.496  10.751 -0.2622  1.3481 -1.3978
  527MOL0     H72660   7.050   2.489  10.914 -2.6707 -0.3889  3.8373
  527MOL0     H72661   6.776   2.614  10.870  0.7193  2.0307  0.7659
  527MOL0     H72662   6.880   2.617  11.017  2.6004  2.2475  0.0025
  527MOL0     H72663   7.050   2.757  10.945  1.1789  2.3588 -1.5271
  527MOL0     H72664   7.000   2.740  10.776 -0.6178  4.1658  0.2724
  527MOL0     H72665   6.790   2.866  10.819 -0.7001  1.5045  1.4895
  527MOL0     H72666   6.807   2.837  10.991  1.1433  2.2462  1.1843
  527MOL0     H72667   7.022   2.994  10.814  2.4160  1.4770  1.0917
  527MOL0     H72668   7.030   2.983  10.983  0.1945  2.6795  0.3123
  527MOL0     H72669   6.963   3.186  10.893 -1.6524  2.8673  1.8130
  527MOL0     H72670   6.817   3.117  10.816  1.7717  1.3906 -0.3838
  527MOL0     H72671   6.862   3.103  11.115  1.9163  3.7751  1.3507
  527MOL0     H72672   6.703   3.089  11.031  0.6525  0.8708  0.5231
  527MOL0     H72673   6.752   3.334  10.946 -2.3932  0.2857  1.1586
  527MOL0     H72674   6.685   3.296  11.102  0.1475 -0.1755 -0.6168
  527MOL0     H72675   6.845   3.291  11.309 -1.6932 -1.0885 -3.2176
  527MOL0     H72676   6.977   3.446  11.475 -0.4906 -2.5452  0.1348
  527MOL0     H72677   7.084   3.565  11.396 -0.5580 -0.5093 -3.7048
  527MOL0     H72678   7.153   3.274  11.469  2.3274 -0.7163 -0.2039
  527MOL0     H72679   7.230   3.349  11.329 -0.0024  1.3663 -1.3590
  527MOL0     H72680   7.304   3.542  11.467 -0.5296  0.0954  0.6644
  527MOL0     H72681   7.242   3.456  11.616  1.3156 -0.1718  0.4098
  527MOL0     H72682   7.436   3.346  11.407 -2.7663 -1.1143 -0.4070
  527MOL0     H72683   7.494   3.426  11.561 -1.2017 -0.2936  1.7949
  527MOL0     H72684   7.308   3.007  11.607 -0.4826  2.3828  1.1312
  527MOL0     H72685   7.424   2.713  11.524  2.5288 -1.2682  0.6783
  527MOL0     H72686   7.317   2.801  11.648 -0.2043  1.6579 -0.1251
  527MOL0     H72687   7.477   2.733  11.696 -0.3882  1.9881  1.3434
  527MOL0     H72688   7.726   2.654  11.212  0.2732 -2.0761 -1.7362
  527MOL0     H72689   7.850   2.464  11.115 -0.2859  2.8699 -1.9433
  527MOL0     H72690   8.084   2.236  11.328 -1.7938  0.9328  0.9720
  527MOL0     H72691   7.939   2.223  11.231 -0.3274 -0.2130 -2.8332
  527MOL0     H72692   8.054   2.150  11.035  0.7985  0.4552  0.2919
  527MOL0     H72693   8.199   2.145  11.118  0.3368  0.5187 -0.1900
  527MOL0     H72694   8.099   1.910  11.125  0.7647 -0.8338 -0.1062
  527MOL0     H72695   7.954   1.991  11.201  0.5013 -2.0205  2.1894
  527MOL0     H72696   8.073   2.054  11.394  1.1397 -0.6384  2.7589
  527MOL0     H72697   8.232   2.012  11.334 -0.3982 -0.2764 -1.2543
  527MOL0     H72698   8.018   1.811  11.398 -0.7393 -0.9716 -0.2636
  527MOL0     H72699   8.164   1.780  11.291 -2.5009  1.1382 -0.9426
  527MOL0     H72700   8.182   1.885  11.573 -2.1900 -1.4333  0.7166
  527MOL0     H72701   8.314   1.841  11.465  0.2300  1.0448 -0.0690
  527MOL0     H72702   8.228   1.602  11.464 -0.9151  2.1993 -2.3618
  527MOL0     H72703   8.094   1.655  11.568 -0.3498 -0.2356 -1.7577
  527MOL0     H72704   8.265   1.729  11.748 -2.7745 -1.0872  0.6356
  527MOL0     H72705   8.398   1.670  11.639  0.0981 -0.7187 -1.6854
  527MOL0     H72706   8.155   2.517  11.416  0.4120 -0.7609 -1.0947
  527MOL0     H72707   8.022   2.703  11.509  0.4259  1.0356 -0.9580
  527MOL0     H72708   7.783   3.043  11.475  1.1305  0.5313  2.7298
  527MOL0     H72709   7.651   3.250  11.531 -2.0833  0.9887 -0.6040
  527MOL0     H72710   6.756   2.166  10.960 -0.1639 -0.8491 -1.9754
  527MOL0     H72711   6.871   1.949  11.035  1.0504  0.2116  2.8060
  527MOL0     H72712   7.269   1.704  10.966 -0.5860 -0.4937  0.0932
  527MOL0     H72713   7.396   1.487  11.038  0.8012 -1.8763  2.9620
  527MOL0     H72714   7.354   1.326  11.434 -0.5139 -3.4023 -2.9935
  527MOL0     H72715   7.498   1.254  11.378 -0.3141 -0.5830 -1.8532
  527MOL0     H72716   7.586   1.371  11.551  1.7164  0.1841 -1.3236
  527MOL0     H72717   7.513   1.526  11.510 -1.2448  1.4762 -2.1867
  527MOL0     H72718   7.728   1.363  11.355  2.8369  0.2512  0.7003
  527MOL0     H72719   7.652   1.516  11.290 -1.2512 -0.5716  0.2330
  527MOL0     H72720   7.726   1.641  11.498  0.2950  0.7917 -1.8078
  527MOL0     H72721   7.853   1.577  11.398  2.5266 -1.7615  2.0640
  527MOL0     H72722   7.909   1.380  11.782 -1.1180 -0.2001  0.2581
  527MOL0     H72723   7.288   1.544  11.433  0.3377  0.0832  0.7236
  527MOL0     H72724   7.019   1.743  11.412  0.3005 -0.6932 -1.8291
  527MOL0     H72725   7.150   1.683  11.512  1.5063  1.2110 -0.7524
  527MOL0     H72726   7.159   1.847  11.457 -0.6595 -0.0239  0.6709
  528MOL0     O72727   6.300   9.163  10.755  0.6108  0.2275  0.1079
  528MOL0     C72728   6.311   9.229  10.858  0.2686 -0.2464  0.8725
  528MOL0     O72729   6.424   9.302  10.889  0.6620  0.1423  0.1568
  528MOL0     C72730   6.543   9.259  10.838 -0.1657  0.4130  1.1857
  528MOL0     C72731   6.576   9.129  10.818 -0.2556 -0.1494  0.7548
  528MOL0     C72732   6.707   9.094  10.789  0.2650 -0.1314  0.9000
  528MOL0     C72733   6.811   9.188  10.778  0.8974  1.1796  1.2505
  528MOL0     O72734   6.933   9.131  10.747  0.2347  0.7541  0.2115
  528MOL0     C72735   7.042   9.226  10.732  1.2123  0.6876  0.5703
  528MOL0     C72736   7.173   9.160  10.710 -0.1472  0.8372  0.6101
  528MOL0     C72737   7.206   9.063  10.825 -0.4570  0.2821 -0.2975
  528MOL0     C72738   7.356   9.023  10.812  0.5480  0.3825  0.1486
  528MOL0     C72739   7.393   8.917  10.913 -1.5263  0.2264 -0.3747
  528MOL0     C72740   7.540   8.871  10.889  0.1207 -0.0616  0.0333
  528MOL0     C72741   7.591   8.779  11.000  0.1893 -0.1839  0.1194
  528MOL0     C72742   7.571   8.823  11.147  0.3597  0.1370  0.5458
  528MOL0     N72743   7.656   8.936  11.177 -0.6663  0.0351  0.7153
  528MOL0     C72744   7.794   8.943  11.184 -0.0482  0.0975  0.7543
  528MOL0     C72745   7.833   9.069  11.207  0.8405 -0.2589  0.5497
  528MOL0     C72746   7.963   9.136  11.220  0.1495 -0.4107  0.5056
  528MOL0     C72747   8.029   9.166  11.084 -0.0879  0.3730  0.5220
  528MOL0     C72748   8.047   9.042  10.998 -0.1255  0.6183  0.2999
  528MOL0     C72749   8.142   8.940  11.056 -0.4527 -0.2656 -0.7622
  528MOL0     O72750   8.273   8.982  11.103 -0.0425  0.1598 -0.4897
  528MOL0     C72751   8.375   9.003  11.018 -0.2552 -0.1081  0.7024
  528MOL0     C72752   8.364   9.029  10.879 -0.0226 -0.0021  0.5020
  528MOL0     C72753   8.463   9.083  10.798  0.1930  0.2940 -0.0815
  528MOL0     C72754   8.417   9.120  10.650 -0.4589 -0.7686 -0.4350
  528MOL0     C72755   8.596   9.106  10.852  0.3692  0.1182  0.6976
  528MOL0     C72756   8.712   9.168  10.775  0.1803 -0.4892 -1.0206
  528MOL0     O72757   8.687   9.235  10.658 -0.3123  0.4414  0.2506
  528MOL0     C72758   8.777   9.326  10.610  0.3681 -0.6078 -0.1612
  528MOL0     C72759   8.878   9.288  10.529 -0.5211 -0.0569 -0.4853
  528MOL0     C72760   8.971   9.380  10.484 -1.1582 -0.6169 -0.3542
  528MOL0     C72761   8.965   9.514  10.525  0.2365 -0.5896  0.6101
  528MOL0     O72762   9.058   9.600  10.471  0.8014  0.3008  0.5332
  528MOL0     C72763   9.099   9.714  10.555  0.5157  0.4276 -0.3893
  528MOL0     C72764   9.237   9.755  10.499  0.1863  0.0692 -0.0112
  528MOL0     C72765   9.289   9.873  10.580 -0.1227 -0.3845 -0.1756
  528MOL0     C72766   9.436   9.926  10.541 -0.3093 -0.3749 -1.3369
  528MOL0     C72767   9.459  10.076  10.507 -0.5628  0.9687  0.6636
  528MOL0     C72768   9.454  10.167  10.622 -0.0832 -0.1183 -0.1212
  528MOL0     C72769   9.446  10.313  10.589 -0.3004  0.0324  0.2928
  528MOL0     C72770   9.413  10.400  10.696  0.1221  0.7139 -0.6101
  528MOL0    Cl72771   9.244  10.365  10.748 -0.2253 -0.0223 -0.1808
  528MOL0     C72772   8.858   9.556  10.600 -0.0507  0.0555 -0.0498
  528MOL0     C72773   8.764   9.463  10.644 -0.4309  0.0079 -0.0704
  528MOL0     O72774   8.821   9.179  10.841 -0.1152  0.6287  0.0140
  528MOL0     C72775   8.606   9.079  10.988 -0.2256  1.0128 -0.1290
  528MOL0     C72776   8.500   9.022  11.070  0.1923  0.0185 -0.4588
  528MOL0     N72777   7.713   9.142  11.201 -0.5951  0.2028 -0.0693
  528MOL0     N72778   7.614   9.063  11.190  0.0567  0.0273 -0.6676
  528MOL0     C72779   6.775   9.323  10.797 -0.6631 -0.1263  0.3431
  528MOL0     C72780   6.639   9.356  10.832 -0.7862  0.4274  0.7046
  528MOL0     C72781   6.204   9.223  10.961  0.1595  0.3686  0.1259
  528MOL0     C72782   6.240   9.250  11.093  0.0808 -0.6901 -0.8905
  528MOL0     C72783   6.151   9.252  11.197  0.2923  0.1578 -0.2872
  528MOL0     C72784   6.020   9.213  11.179 -0.5896 -0.9089  0.3785
  528MOL0     O72785   5.946   9.193  11.295  0.4112  0.6914  0.8315
  528MOL0     C72786   5.821   9.124  11.290 -0.5007 -0.3601  0.0774
  528MOL0     C72787   5.772   9.101  11.431  0.6109 -0.0148  0.2844
  528MOL0     C72788   5.859   9.009  11.512  0.5465  0.8866  0.1586
  528MOL0     C72789   5.825   8.975  11.657 -0.0901  1.0834 -0.0609
  528MOL0     C72790   5.807   9.098  11.736  1.3557 -0.0211 -0.5571
  528MOL0     C72791   5.812   9.211  11.785 -0.0264  0.1336 -1.0370
  528MOL0     C72792   5.975   9.182  11.045 -0.1408  0.2421  0.6818
  528MOL0     C72793   6.072   9.186  10.938  1.2364  0.0161 -0.3995
  528MOL0     C72794   6.013   9.168  10.801 -0.3310 -0.1943 -0.4475
  528MOL0     H72795   6.499   9.054  10.831  1.1384 -1.4427  1.8914
  528MOL0     H72796   6.737   8.991  10.773  0.4417  0.1984 -1.2729
  528MOL0     H72797   7.049   9.285  10.823 -0.8098  1.7158  0.1254
  528MOL0     H72798   7.023   9.288  10.644 -0.6294  0.6061  0.8675
  528MOL0     H72799   7.172   9.103  10.616  2.8766  1.1601  0.2889
  528MOL0     H72800   7.249   9.238  10.700 -0.2178  1.2106  2.5503
  528MOL0     H72801   7.191   9.114  10.921 -2.4585  3.1831 -2.0155
  528MOL0     H72802   7.144   8.973  10.819 -0.7473  0.5933 -2.6291
  528MOL0     H72803   7.366   8.971  10.717 -2.8957 -1.7362  0.7742
  528MOL0     H72804   7.420   9.111  10.808  1.1580 -0.0052  1.0492
  528MOL0     H72805   7.339   8.821  10.909 -0.3654 -0.4329 -0.5522
  528MOL0     H72806   7.380   8.961  11.013  1.5921 -2.6851  1.5237
  528MOL0     H72807   7.545   8.813  10.796  1.4719 -0.9392  0.6302
  528MOL0     H72808   7.605   8.957  10.872  0.2954 -0.5873 -2.3019
  528MOL0     H72809   7.695   8.763  10.968 -0.9359 -1.5692 -3.3206
  528MOL0     H72810   7.539   8.684  10.985  1.3251 -1.0154  1.2140
  528MOL0     H72811   7.464   8.839  11.158  0.0587  0.4735 -2.1053
  528MOL0     H72812   7.598   8.748  11.221  0.6842  2.6118  3.1211
  528MOL0     H72813   7.868   8.863  11.190 -2.0557 -1.8330  1.3273
  528MOL0     H72814   8.030   9.095  11.296 -0.5575 -1.3022  0.6644
  528MOL0     H72815   7.941   9.236  11.258 -1.2824 -0.7572  0.6358
  528MOL0     H72816   7.967   9.242  11.035  2.0260  0.6594 -1.8399
  528MOL0     H72817   8.127   9.215  11.089 -0.1923  1.1442 -2.7619
  528MOL0     H72818   7.954   8.992  10.971  1.0306 -0.9529 -0.9820
  528MOL0     H72819   8.092   9.074  10.904  1.7748 -3.0367 -0.2010
  528MOL0     H72820   8.094   8.889  11.140  1.1449  1.9545  1.6744
  528MOL0     H72821   8.158   8.869  10.974  0.4922 -1.6940  0.5957
  528MOL0     H72822   8.271   9.008  10.829  0.2397  0.7336 -0.3171
  528MOL0     H72823   8.333   9.055  10.624  1.4270 -3.8837  0.6549
  528MOL0     H72824   8.493   9.094  10.576  0.0602  0.8525 -0.5151
  528MOL0     H72825   8.397   9.227  10.650 -1.6849 -0.9827  0.0327
  528MOL0     H72826   8.908   9.188  10.500 -2.1578 -0.7504  0.1373
  528MOL0     H72827   9.050   9.348  10.417 -3.3868 -1.2732 -2.7925
  528MOL0     H72828   9.017   9.786  10.546 -0.3565 -0.4869 -0.0079
  528MOL0     H72829   9.110   9.687  10.661 -0.0050 -2.1588 -0.9226
  528MOL0     H72830   9.316   9.679  10.503  1.0522  0.9820  0.7910
  528MOL0     H72831   9.224   9.789  10.396 -1.0202 -0.7297 -0.1434
  528MOL0     H72832   9.310   9.837  10.681  2.6991 -3.4772 -1.6660
  528MOL0     H72833   9.212   9.951  10.582 -1.7832 -1.9546  2.1031
  528MOL0     H72834   9.471   9.866  10.457  0.3992 -0.5695 -0.9113
  528MOL0     H72835   9.506   9.907  10.623  1.0339  1.0154 -2.1092
  528MOL0     H72836   9.551  10.084  10.449 -2.4426 -0.0176 -2.6905
  528MOL0     H72837   9.383  10.101  10.433  0.1881 -0.7547 -0.7567
  528MOL0     H72838   9.533  10.139  10.692  1.0089 -1.0351 -1.6712
  528MOL0     H72839   9.365  10.141  10.681 -1.1056  1.8349 -0.7231
  528MOL0     H72840   9.374  10.321  10.507  0.1405  2.0356  0.0403
  528MOL0     H72841   9.544  10.342  10.548 -1.0297  3.6779  0.8423
  528MOL0     H72842   9.428  10.505  10.671 -0.6242  0.6699 -1.2661
  528MOL0     H72843   9.486  10.372  10.772 -0.9752 -0.1345  0.1708
  528MOL0     H72844   8.836   9.659  10.625  0.2039  0.2663 -0.6776
  528MOL0     H72845   8.691   9.493  10.718  0.3827  2.4377 -0.1771
  528MOL0     H72846   8.701   9.097  11.037 -0.0613 -0.3834  0.0979
  528MOL0     H72847   8.509   9.004  11.176  0.2903 -0.2737 -0.5143
  528MOL0     H72848   6.855   9.396  10.788 -2.0311  1.1777 -2.7376
  528MOL0     H72849   6.627   9.461  10.853 -0.6262  0.0408  3.0466
  528MOL0     H72850   6.343   9.280  11.110 -0.4770  1.2011 -0.6608
  528MOL0     H72851   6.192   9.266  11.296 -0.4113 -1.6963  0.3071
  528MOL0     H72852   5.746   9.185  11.240 -0.8578  1.2222  2.4064
  528MOL0     H72853   5.828   9.032  11.231 -0.4219 -0.3851  0.1270
  528MOL0     H72854   5.674   9.056  11.415  0.7077 -0.2736  0.4068
  528MOL0     H72855   5.762   9.195  11.486 -0.6233 -2.0423  3.8997
  528MOL0     H72856   5.864   8.918  11.452  0.9417 -0.8181  2.6551
  528MOL0     H72857   5.958   9.055  11.517  0.5635  0.8232  0.4100
  528MOL0     H72858   5.897   8.907  11.704  3.0659  4.8947  1.1218
  528MOL0     H72859   5.730   8.920  11.662 -1.3306  2.9691 -1.3573
  528MOL0     H72860   5.827   9.303  11.839  1.0387 -0.2073 -0.7189
  528MOL0     H72861   5.872   9.158  11.021 -0.4068  0.7814  1.2522
  528MOL0     H72862   6.026   9.254  10.734 -0.5239 -0.2120 -0.5077
  528MOL0     H72863   6.070   9.086  10.755  1.0058  1.2122 -1.4227
  528MOL0     H72864   5.906   9.147  10.800 -0.8289  2.0304 -1.0482
  529MOL0     O72865  11.091   1.374   8.969 -0.2428 -0.1431  0.7357
  529MOL0     C72866  11.043   1.306   9.063 -0.3180  0.3544  0.3798
  529MOL0     O72867  11.056   1.350   9.202 -0.3757 -0.2234  0.4714
  529MOL0     C72868  11.103   1.477   9.226  0.6261  0.2244 -0.2389
  529MOL0     C72869  11.232   1.505   9.275  0.2836  0.4820  0.2309
  529MOL0     C72870  11.283   1.628   9.286 -0.2049 -0.2425  0.0963
  529MOL0     C72871  11.207   1.740   9.252  0.7143  0.6566  0.0246
  529MOL0     O72872  11.275   1.853   9.277  0.2850 -0.1523  0.9070
  529MOL0     C72873  11.217   1.979   9.240  0.4827  0.6744  0.2433
  529MOL0     C72874  11.294   2.088   9.317 -0.1778  0.9258 -0.4451
  529MOL0     C72875  11.439   2.073   9.297  0.2413  0.0965 -0.6126
  529MOL0     C72876  11.518   2.160   9.393  0.1297 -0.1171 -0.8879
  529MOL0     C72877  11.660   2.176   9.350 -0.1692 -0.6897 -0.4770
  529MOL0     C72878  11.728   2.286   9.439 -0.6560 -0.2084  0.4146
  529MOL0     C72879  11.880   2.279   9.425  0.7806 -0.2493  0.0017
  529MOL0     C72880  11.939   2.379   9.523 -0.0576 -0.4590 -0.2388
  529MOL0     N72881  12.090   2.370   9.517  0.6898  0.3029  0.7342
  529MOL0     C72882  12.165   2.279   9.586 -0.1807  0.4781 -0.6453
  529MOL0     C72883  12.288   2.297   9.545 -0.5109  0.0029 -0.3817
  529MOL0     C72884  12.395   2.202   9.587 -0.8696  0.4110 -0.3531
  529MOL0     C72885  12.532   2.269   9.580  0.2081  0.3514  0.5288
  529MOL0     C72886  12.646   2.177   9.623  0.3411  0.2377  0.0453
  529MOL0     C72887  12.673   2.040   9.547  1.2546 -0.2913  0.5008
  529MOL0     O72888  12.774   1.955   9.609 -0.1687 -0.1796  0.3380
  529MOL0     C72889  12.901   2.008   9.617 -0.1957 -0.7891 -0.0290
  529MOL0     C72890  12.979   1.958   9.725 -0.2405  0.1991 -0.0846
  529MOL0     C72891  13.106   2.008   9.748  0.5078 -0.7245  0.2760
  529MOL0     C72892  13.186   1.937   9.850  0.4881  0.0012  0.0355
  529MOL0     C72893  13.160   2.102   9.660  0.5324 -0.5507 -0.4004
  529MOL0     C72894  13.298   2.168   9.678  0.1824 -0.8056  0.5986
  529MOL0     O72895  13.317   2.286   9.610 -1.0824 -0.0228  0.3899
  529MOL0     C72896  13.441   2.326   9.575 -0.3787 -0.5042 -0.5734
  529MOL0     C72897  13.486   2.450   9.629 -0.0736  0.8893  0.2482
  529MOL0     C72898  13.611   2.502   9.597  0.1164  0.0378  0.3680
  529MOL0     C72899  13.699   2.437   9.511  0.2270  0.8016  0.7046
  529MOL0     O72900  13.803   2.489   9.456  0.0419 -0.2314  1.1389
  529MOL0     C72901  13.929   2.433   9.508 -0.2639 -0.3828  0.2179
  529MOL0     C72902  14.056   2.478   9.432  0.6791 -0.2461  0.0578
  529MOL0     C72903  14.069   2.633   9.447 -0.2529  0.0334  0.6798
  529MOL0     C72904  14.195   2.679   9.382 -0.0237  0.2769  0.5881
  529MOL0     C72905  14.219   2.824   9.383 -0.5875 -0.0309 -0.3382
  529MOL0     C72906  14.355   2.865   9.319 -0.0901  0.6246 -0.2816
  529MOL0     C72907  14.371   3.013   9.330 -0.6918 -0.0619 -0.5992
  529MOL0     C72908  14.521   3.043   9.327 -0.0327 -0.7922 -0.7789
  529MOL0    Cl72909  14.538   3.216   9.374 -0.0287  0.3516 -0.1788
  529MOL0     C72910  13.637   2.324   9.448  0.1341 -0.1949 -0.5685
  529MOL0     C72911  13.517   2.262   9.482 -0.9712 -0.3822 -0.9154
  529MOL0     O72912  13.383   2.110   9.739  1.0557  0.2765  0.0153
  529MOL0     C72913  13.078   2.163   9.558 -0.1608 -0.7059 -0.3688
  529MOL0     C72914  12.956   2.103   9.528  0.4608  0.4487 -0.8560
  529MOL0     N72915  12.287   2.399   9.447 -0.0404 -0.1864 -0.0552
  529MOL0     N72916  12.169   2.442   9.431  0.4853  0.2299 -0.3921
  529MOL0     C72917  11.078   1.720   9.191  0.1199 -0.1102  1.0241
  529MOL0     C72918  11.022   1.587   9.184 -0.3351  0.2803 -0.2264
  529MOL0     C72919  10.932   1.208   9.032  0.2795 -0.1986  0.7137
  529MOL0     C72920  10.838   1.187   9.135  0.9424  0.6671  0.2527
  529MOL0     C72921  10.737   1.099   9.116  0.2916  1.3151 -0.3210
  529MOL0     C72922  10.716   1.020   9.006 -0.3336 -0.4114  0.1165
  529MOL0     O72923  10.615   0.930   9.015  0.8636 -0.1425 -0.0581
  529MOL0     C72924  10.586   0.858   8.899  0.2101  0.0576  0.3291
  529MOL0     C72925  10.507   0.732   8.925  0.6261 -0.0573  0.2713
  529MOL0     C72926  10.388   0.759   9.016 -0.8715 -0.0119  0.4094
  529MOL0     C72927  10.400   0.694   9.157 -0.1527  0.5808 -0.1493
  529MOL0     C72928  10.400   0.549   9.165 -0.0318 -0.3142 -0.6476
  529MOL0     C72929  10.407   0.426   9.184 -0.9851 -0.2616 -0.4710
  529MOL0     C72930  10.812   1.043   8.902 -0.4702  0.4803 -0.2242
  529MOL0     C72931  10.917   1.134   8.915  0.3719 -0.5782  0.0845
  529MOL0     C72932  11.023   1.150   8.809  0.5957  0.3155  0.1133
  529MOL0     H72933  11.292   1.420   9.308 -0.1620  0.5726  1.3223
  529MOL0     H72934  11.386   1.637   9.319  0.0262 -1.3288 -0.3036
  529MOL0     H72935  11.110   1.985   9.263 -0.8180 -3.7163 -3.3590
  529MOL0     H72936  11.220   1.993   9.132  0.9070  0.2969  0.2047
  529MOL0     H72937  11.273   2.191   9.285  2.0335  2.0034  1.2593
  529MOL0     H72938  11.275   2.083   9.424  1.6032 -3.3289 -0.1369
  529MOL0     H72939  11.466   1.968   9.309 -0.3740  0.1494  2.0432
  529MOL0     H72940  11.454   2.095   9.191 -0.8597 -0.7001 -0.9572
  529MOL0     H72941  11.472   2.259   9.399 -0.2046 -0.3409  1.1606
  529MOL0     H72942  11.508   2.111   9.491  2.7575 -2.0420 -1.4628
  529MOL0     H72943  11.665   2.203   9.244  1.8389 -0.5279 -0.3775
  529MOL0     H72944  11.703   2.076   9.355 -1.4659 -1.2594 -0.3119
  529MOL0     H72945  11.691   2.386   9.415  0.7231 -0.5174 -3.7836
  529MOL0     H72946  11.700   2.252   9.539  0.3305  0.4625  0.9355
  529MOL0     H72947  11.909   2.312   9.325 -2.0529 -0.2508 -0.9219
  529MOL0     H72948  11.912   2.177   9.444 -0.5244 -0.2953  2.3750
  529MOL0     H72949  11.900   2.475   9.489  2.9479  1.4028  1.1670
  529MOL0     H72950  11.902   2.357   9.624 -0.1184  0.7166  0.0082
  529MOL0     H72951  12.122   2.198   9.643 -0.1746  0.3061 -0.8843
  529MOL0     H72952  12.387   2.108   9.531 -1.4055 -1.4199  2.5855
  529MOL0     H72953  12.370   2.170   9.689  1.2764 -0.2385  0.0062
  529MOL0     H72954  12.549   2.310   9.479  0.1316 -1.9832 -0.4967
  529MOL0     H72955  12.533   2.353   9.649 -2.8718  2.4954 -1.7348
  529MOL0     H72956  12.734   2.241   9.633  0.8123 -0.2364 -0.9309
  529MOL0     H72957  12.607   2.159   9.724 -1.0802  3.5274  0.2176
  529MOL0     H72958  12.584   1.978   9.539  0.5940  0.2535  2.8193
  529MOL0     H72959  12.694   2.066   9.443  1.2998 -3.9615 -0.5509
  529MOL0     H72960  12.941   1.877   9.787 -0.0811 -0.2187 -0.5226
  529MOL0     H72961  13.130   1.852   9.891 -2.3253  1.1533 -1.1247
  529MOL0     H72962  13.210   2.005   9.932  1.3859 -0.0243 -0.2040
  529MOL0     H72963  13.275   1.895   9.802  0.9114 -3.0370  3.0745
  529MOL0     H72964  13.418   2.494   9.702  1.6583  0.6497  2.1095
  529MOL0     H72965  13.643   2.598   9.635 -2.6684  1.3748 -0.4647
  529MOL0     H72966  13.937   2.470   9.610 -1.2324 -0.1762  0.2283
  529MOL0     H72967  13.924   2.324   9.500 -0.7948 -0.4805  1.6936
  529MOL0     H72968  14.143   2.432   9.479 -2.0271 -2.7923  3.1102
  529MOL0     H72969  14.048   2.458   9.325 -0.5865  2.3055 -0.4034
  529MOL0     H72970  14.071   2.671   9.549  1.9363  3.2605 -0.3851
  529MOL0     H72971  13.981   2.679   9.400  0.7241  0.4661 -0.7921
  529MOL0     H72972  14.198   2.664   9.273  1.5220  5.0673 -0.2428
  529MOL0     H72973  14.280   2.624   9.422  0.0485 -0.6727 -0.8022
  529MOL0     H72974  14.138   2.876   9.331 -2.3743 -1.9081  0.4343
  529MOL0     H72975  14.223   2.863   9.485  1.3013  1.3651 -0.9001
  529MOL0     H72976  14.381   2.823   9.222  2.2790 -2.9919  1.6676
  529MOL0     H72977  14.432   2.812   9.378 -0.6382 -2.9582 -2.4692
  529MOL0     H72978  14.328   3.062   9.418 -3.0109 -0.4055 -1.4659
  529MOL0     H72979  14.331   3.062   9.240  0.9704  3.4961  0.4340
  529MOL0     H72980  14.571   3.031   9.231  1.1682  1.6981 -0.5487
  529MOL0     H72981  14.581   2.985   9.398  1.2745  1.6375  0.2285
  529MOL0     H72982  13.692   2.288   9.362  0.7821  0.6738 -0.5341
  529MOL0     H72983  13.489   2.165   9.441  1.3704 -0.9068 -1.3974
  529MOL0     H72984  13.116   2.247   9.500  1.5635  0.3076  2.0226
  529MOL0     H72985  12.898   2.133   9.442  0.4511 -0.2382 -1.0878
  529MOL0     H72986  11.017   1.807   9.168 -0.3827  0.1365  3.1458
  529MOL0     H72987  10.925   1.565   9.140 -0.3030  0.2390 -0.2769
  529MOL0     H72988  10.844   1.230   9.235  0.2541  1.1900  0.0753
  529MOL0     H72989  10.680   1.064   9.201  0.5162  2.0784  0.1502
  529MOL0     H72990  10.531   0.914   8.823 -0.7763 -1.3571 -0.0350
  529MOL0     H72991  10.678   0.826   8.848  0.2214 -1.5646  1.3041
  529MOL0     H72992  10.573   0.658   8.970  2.2284  0.5590 -0.9766
  529MOL0     H72993  10.470   0.674   8.840  2.2387 -1.1503  0.2746
  529MOL0     H72994  10.374   0.867   9.023 -2.0641 -0.1848  0.9410
  529MOL0     H72995  10.297   0.722   8.968  0.4922 -0.8905 -1.6133
  529MOL0     H72996  10.316   0.723   9.221 -1.2004 -1.5334 -0.4993
  529MOL0     H72997  10.495   0.727   9.200  0.3857 -0.8425 -0.1905
  529MOL0     H72998  10.402   0.322   9.206  1.8836 -0.0784  1.5372
  529MOL0     H72999  10.807   0.995   8.804  0.5593  2.9509 -1.5827
  529MOL0     H73000  10.989   1.243   8.763 -0.4812 -0.5489 -0.9203
  529MOL0     H73001  11.125   1.143   8.846  0.3309  0.8658  0.9675
  529MOL0     H73002  11.016   1.077   8.728  1.7527  1.4734 -1.0861
  530MOL0     O73003   4.551   9.166   2.083  0.0295 -1.0364  0.5896
  530MOL0     C73004   4.504   9.269   2.135 -0.3402  1.1935 -0.6588
  530MOL0     O73005   4.580   9.385   2.163  0.3349  0.1490 -0.5893
  530MOL0     C73006   4.704   9.386   2.115  1.1454 -0.2056 -0.7974
  530MOL0     C73007   4.801   9.285   2.155  0.5514  0.3577  1.1621
  530MOL0     C73008   4.928   9.277   2.092 -0.6596 -0.0258  0.3700
  530MOL0     C73009   4.948   9.358   1.977 -0.6346  0.1597 -0.6212
  530MOL0     O73010   5.055   9.331   1.894  0.0882  0.6934 -0.0386
  530MOL0     C73011   5.123   9.434   1.825 -0.7277  0.2154  0.8992
  530MOL0     C73012   5.268   9.398   1.819 -0.5907 -0.4745  0.6618
  530MOL0     C73013   5.354   9.497   1.732 -0.5256  0.9421  0.2461
  530MOL0     C73014   5.489   9.440   1.693 -0.2568 -0.6581  0.2975
  530MOL0     C73015   5.590   9.422   1.821 -0.4587  0.9351  0.0520
  530MOL0     C73016   5.727   9.391   1.758 -0.9637  0.8198  0.3089
  530MOL0     C73017   5.838   9.384   1.866 -0.4186 -0.0823  0.9552
  530MOL0     C73018   5.867   9.530   1.906 -0.8422  0.2374  0.1596
  530MOL0     N73019   5.997   9.544   1.971  0.6180 -0.5585 -0.1539
  530MOL0     C73020   6.109   9.472   1.937 -0.0260  0.8124 -0.1063
  530MOL0     C73021   6.207   9.502   2.030  0.2417 -0.5226 -0.7044
  530MOL0     C73022   6.347   9.450   2.025 -0.4446 -0.1287 -0.0772
  530MOL0     C73023   6.357   9.302   2.064  0.9597  0.0559 -0.0850
  530MOL0     C73024   6.497   9.253   2.069  0.1157 -0.3474  0.8147
  530MOL0     C73025   6.509   9.103   2.097 -0.0162 -0.5187 -0.0753
  530MOL0     O73026   6.494   9.084   2.234 -0.2901  0.9113  0.0627
  530MOL0     C73027   6.606   9.059   2.320  0.6061  0.4230 -0.6181
  530MOL0     C73028   6.580   9.025   2.451  0.7067 -0.0481 -1.1859
  530MOL0     C73029   6.677   8.979   2.541  0.0982 -0.1385 -0.2228
  530MOL0     C73030   6.644   8.928   2.677  1.2199 -0.6018  0.8711
  530MOL0     C73031   6.811   8.981   2.501  0.0068 -0.6085 -0.0842
  530MOL0     C73032   6.931   8.960   2.577 -0.3524  0.3804 -0.4374
  530MOL0     O73033   7.041   9.035   2.540 -0.0311  0.3282 -0.1513
  530MOL0     C73034   7.162   9.008   2.596 -0.1121  0.4512  0.3595
  530MOL0     C73035   7.256   8.951   2.502 -0.2398 -0.0060 -0.9088
  530MOL0     C73036   7.384   8.912   2.551  0.1313  0.1566  0.2438
  530MOL0     C73037   7.413   8.910   2.689  0.1441  0.6589 -1.4608
  530MOL0     O73038   7.533   8.852   2.723  0.1376 -0.2981 -0.1823
  530MOL0     C73039   7.548   8.805   2.856 -0.0595 -0.2527 -0.2324
  530MOL0     C73040   7.687   8.750   2.864  0.2728 -0.1871 -0.7653
  530MOL0     C73041   7.792   8.861   2.830 -0.0274  0.9571  0.2476
  530MOL0     C73042   7.926   8.818   2.881  0.1165 -0.9580 -1.4584
  530MOL0     C73043   8.024   8.940   2.882  0.7434  0.6025  0.4700
  530MOL0     C73044   8.144   8.906   2.965  0.4033  0.2424 -0.1032
  530MOL0     C73045   8.243   8.817   2.877 -0.1147  0.1630 -0.3328
  530MOL0     C73046   8.383   8.805   2.944  0.2481  0.8113  0.9125
  530MOL0    Cl73047   8.369   8.727   3.105  0.0424 -0.0779  0.1042
  530MOL0     C73048   7.312   8.951   2.777  0.7155 -1.1466 -0.2455
  530MOL0     C73049   7.195   9.013   2.729  0.0170  0.6809  0.2912
  530MOL0     O73050   6.930   8.879   2.671 -1.2155 -0.2578 -0.1205
  530MOL0     C73051   6.844   9.023   2.369  0.2809 -0.0514 -0.9405
  530MOL0     C73052   6.737   9.066   2.284  0.1596 -0.1855 -0.0194
  530MOL0     N73053   6.149   9.611   2.106 -0.1768 -0.1529 -0.0715
  530MOL0     N73054   6.021   9.621   2.084 -0.1505  0.0750 -0.8137
  530MOL0     C73055   4.858   9.455   1.948 -0.8664 -0.8050 -0.1848
  530MOL0     C73056   4.734   9.470   2.011  0.5224 -0.1346 -0.0854
  530MOL0     C73057   4.354   9.261   2.172  0.6032  0.3014  0.5073
  530MOL0     C73058   4.297   9.134   2.173 -0.1892 -1.0278 -0.1371
  530MOL0     C73059   4.166   9.123   2.215  0.9157 -0.6971 -0.6405
  530MOL0     C73060   4.081   9.235   2.241  0.8420  0.6445  0.0583
  530MOL0     O73061   3.948   9.208   2.267  0.6519 -0.0918  0.3987
  530MOL0     C73062   3.858   9.314   2.308  0.8257 -0.3915  0.4391
  530MOL0     C73063   3.859   9.334   2.462 -0.4082 -0.7110  0.4044
  530MOL0     C73064   3.726   9.398   2.527  0.4680  0.7098 -0.6631
  530MOL0     C73065   3.683   9.539   2.468  0.1628  0.3937  0.9649
  530MOL0     C73066   3.638   9.536   2.328  0.0945 -0.4806  0.1333
  530MOL0     C73067   3.579   9.552   2.216  0.1144 -0.1471 -0.3629
  530MOL0     C73068   4.140   9.361   2.237  0.0444  1.0542 -0.3679
  530MOL0     C73069   4.276   9.380   2.201  0.0055  0.6827 -0.2989
  530MOL0     C73070   4.347   9.522   2.208  0.3546  0.5619  0.7842
  530MOL0     H73071   4.786   9.220   2.241 -1.0041  0.0432  0.6772
  530MOL0     H73072   5.002   9.202   2.117  1.8764  1.9381 -0.8068
  530MOL0     H73073   5.101   9.533   1.867 -0.7210  1.5185 -1.9076
  530MOL0     H73074   5.088   9.442   1.721 -0.3441  0.9557  0.8191
  530MOL0     H73075   5.316   9.394   1.917  0.0668 -2.0393  0.3116
  530MOL0     H73076   5.280   9.296   1.782  2.1585 -0.0317  0.1049
  530MOL0     H73077   5.299   9.516   1.640  0.3743  2.0022 -0.0910
  530MOL0     H73078   5.365   9.592   1.785 -0.1535  1.3325 -0.5202
  530MOL0     H73079   5.473   9.349   1.634  0.7159 -1.3428  1.0388
  530MOL0     H73080   5.520   9.523   1.630 -0.7033  0.5038  1.5481
  530MOL0     H73081   5.558   9.334   1.877  1.7592 -1.2082 -1.8248
  530MOL0     H73082   5.592   9.511   1.885 -3.4090 -0.1821  1.9143
  530MOL0     H73083   5.728   9.294   1.708 -0.5212 -0.4766  2.7017
  530MOL0     H73084   5.761   9.468   1.687  0.0669  0.7450  0.7149
  530MOL0     H73085   5.923   9.341   1.812 -1.9909 -0.7173 -1.1311
  530MOL0     H73086   5.815   9.322   1.953  1.5737 -0.0882  1.5294
  530MOL0     H73087   5.877   9.598   1.821 -0.0742  0.4491  0.4054
  530MOL0     H73088   5.788   9.556   1.977 -0.0846 -2.3951  2.0991
  530MOL0     H73089   6.122   9.410   1.849  3.6197  0.4076  0.5465
  530MOL0     H73090   6.407   9.509   2.095 -0.9951 -1.1625  1.2863
  530MOL0     H73091   6.388   9.457   1.924 -0.6655 -2.1915 -0.3371
  530MOL0     H73092   6.316   9.288   2.165  1.2536  1.5779  0.2655
  530MOL0     H73093   6.305   9.236   1.994 -0.8783  0.1346  1.1170
  530MOL0     H73094   6.544   9.268   1.971 -4.3147  1.4452 -1.3142
  530MOL0     H73095   6.554   9.297   2.151 -0.5195  1.3440  0.3900
  530MOL0     H73096   6.435   9.041   2.045 -1.4315  0.5885  0.5507
  530MOL0     H73097   6.604   9.073   2.051  0.4079  1.2082 -0.4091
  530MOL0     H73098   6.477   9.015   2.483  0.9959  0.9758  0.1637
  530MOL0     H73099   6.534   8.925   2.685  0.7379  4.6604 -0.3551
  530MOL0     H73100   6.663   8.989   2.766 -1.4196 -0.2631  1.3050
  530MOL0     H73101   6.678   8.824   2.686 -1.5673 -1.8973 -1.6725
  530MOL0     H73102   7.228   8.952   2.397 -0.4631  0.8257 -0.8472
  530MOL0     H73103   7.468   8.883   2.489  0.0616 -0.3971  0.4021
  530MOL0     H73104   7.545   8.887   2.928  1.9345 -0.2297 -0.1252
  530MOL0     H73105   7.477   8.727   2.884  0.6654 -1.5341 -1.7731
  530MOL0     H73106   7.695   8.704   2.963 -1.6811 -1.1436 -0.9994
  530MOL0     H73107   7.695   8.674   2.785 -0.4730  0.2555 -1.2854
  530MOL0     H73108   7.752   8.951   2.876  2.9538  2.1508  0.7206
  530MOL0     H73109   7.807   8.881   2.723  1.7492  0.8171  0.4476
  530MOL0     H73110   7.967   8.736   2.821  1.3100 -1.2070 -0.3396
  530MOL0     H73111   7.918   8.788   2.986  0.1174  2.9805 -0.1593
  530MOL0     H73112   8.042   8.982   2.782 -3.7579  0.3852 -0.6577
  530MOL0     H73113   7.973   9.014   2.945  0.3742  0.7254  0.0324
  530MOL0     H73114   8.110   8.854   3.055  1.1310 -1.3199 -0.6955
  530MOL0     H73115   8.199   8.995   2.997  0.3407 -0.2868  1.5966
  530MOL0     H73116   8.262   8.867   2.782  1.7198 -1.4459 -0.8882
  530MOL0     H73117   8.205   8.715   2.865  3.1265 -1.0524 -1.2296
  530MOL0     H73118   8.428   8.904   2.951  1.0025  0.4196  1.7670
  530MOL0     H73119   8.448   8.741   2.882 -0.9774 -1.0593  1.4707
  530MOL0     H73120   7.319   8.938   2.885 -0.0674  2.6466  0.3884
  530MOL0     H73121   7.103   9.022   2.785  0.1383 -1.0580  0.8348
  530MOL0     H73122   6.938   9.009   2.318 -0.9202  0.5110 -3.4629
  530MOL0     H73123   6.759   9.111   2.188  1.0970 -1.2495 -0.3310
  530MOL0     H73124   4.855   9.515   1.858 -1.3576  0.6399  0.7480
  530MOL0     H73125   4.658   9.541   1.979  0.0041 -0.1927  0.9450
  530MOL0     H73126   4.362   9.049   2.156  3.3555  0.7091  3.3085
  530MOL0     H73127   4.121   9.025   2.219 -2.3744  0.7069  0.2082
  530MOL0     H73128   3.871   9.415   2.268  1.3213  0.4874  2.6219
  530MOL0     H73129   3.762   9.284   2.264  1.7904  0.8217 -2.7825
  530MOL0     H73130   3.942   9.397   2.496  0.6857 -1.5107 -0.7213
  530MOL0     H73131   3.878   9.239   2.511  3.0075 -0.2985  0.0865
  530MOL0     H73132   3.655   9.315   2.531  1.1664  0.1383  2.2191
  530MOL0     H73133   3.744   9.423   2.632 -0.2394  1.2615 -0.6633
  530MOL0     H73134   3.767   9.608   2.477 -0.9777  1.7570  1.4599
  530MOL0     H73135   3.600   9.586   2.522 -1.4785 -0.4491 -0.6984
  530MOL0     H73136   3.519   9.563   2.128  1.5362  4.0987 -1.0452
  530MOL0     H73137   4.086   9.452   2.265 -0.7734  1.6031 -3.3490
  530MOL0     H73138   4.424   9.520   2.286  2.5000  0.5027 -1.2375
  530MOL0     H73139   4.391   9.540   2.110 -1.9071  0.5382 -0.2921
  530MOL0     H73140   4.270   9.598   2.227 -0.8066 -0.3331 -0.1906
  531MOL0     O73141   5.446  10.646   8.634 -0.2612 -0.6058  0.4094
  531MOL0     C73142   5.373  10.567   8.571 -0.2804 -0.9681  0.2439
  531MOL0     O73143   5.415  10.465   8.493  0.7402  0.2177 -0.0063
  531MOL0     C73144   5.548  10.447   8.496  0.1496 -0.5670  0.3450
  531MOL0     C73145   5.634  10.530   8.438  0.1195  0.5406  0.0467
  531MOL0     C73146   5.773  10.516   8.454  0.4293  0.2330 -0.4899
  531MOL0     C73147   5.825  10.415   8.531  0.0165  0.1246  0.1800
  531MOL0     O73148   5.957  10.399   8.547 -0.4084 -0.4168 -0.4038
  531MOL0     C73149   6.024  10.515   8.585  0.3626  0.2134 -0.3647
  531MOL0     C73150   6.148  10.461   8.645 -0.2204  0.0272 -0.7094
  531MOL0     C73151   6.218  10.574   8.729  0.5698 -0.5202  0.0997
  531MOL0     C73152   6.349  10.541   8.797 -0.2044 -0.3627  0.0029
  531MOL0     C73153   6.407  10.657   8.889  0.0210  0.5381  0.5267
  531MOL0     C73154   6.510  10.607   8.995 -0.1287  0.4969  0.2056
  531MOL0     C73155   6.581  10.715   9.078  0.5035 -0.1988  0.7881
  531MOL0     C73156   6.666  10.796   8.988  0.4906  0.1170 -0.9334
  531MOL0     N73157   6.738  10.894   9.064 -0.3025  0.0084 -0.6622
  531MOL0     C73158   6.817  10.879   9.171 -0.1471  0.2356  0.4455
  531MOL0     C73159   6.887  10.997   9.178 -0.6676  0.3737  0.7688
  531MOL0     C73160   6.980  11.034   9.289  0.6979  0.2298  0.0975
  531MOL0     C73161   7.131  11.060   9.236  0.7418 -0.2331  0.5783
  531MOL0     C73162   7.230  11.055   9.354 -0.7162 -1.0246 -0.4164
  531MOL0     C73163   7.376  11.095   9.310  0.3731  0.1954  0.0318
  531MOL0     O73164   7.472  11.056   9.410  0.0612 -0.1075  0.0362
  531MOL0     C73165   7.607  11.080   9.385 -0.1042 -1.0467  0.7667
  531MOL0     C73166   7.668  11.134   9.265 -0.0759  0.3149 -1.1070
  531MOL0     C73167   7.809  11.143   9.255  0.1687  0.1458  0.4616
  531MOL0     C73168   7.866  11.216   9.131  0.1745 -1.1635  0.4901
  531MOL0     C73169   7.889  11.065   9.353 -0.2281 -0.3647 -1.4133
  531MOL0     C73170   8.038  11.045   9.350 -0.0951 -0.9815  0.1118
  531MOL0     O73171   8.106  11.051   9.229  0.3176  0.3607 -0.4399
  531MOL0     C73172   8.239  11.082   9.224 -0.8517 -0.7930  0.3607
  531MOL0     C73173   8.306  11.169   9.313  0.2908  0.7138 -0.0107
  531MOL0     C73174   8.443  11.201   9.296  0.8463  0.2565  0.3911
  531MOL0     C73175   8.515  11.156   9.182  0.5489  0.9103  0.2454
  531MOL0     O73176   8.644  11.179   9.176 -0.0442 -0.4014  0.2482
  531MOL0     C73177   8.700  11.191   9.052 -0.2657 -0.7054  0.5874
  531MOL0     C73178   8.846  11.237   9.067 -0.5976  0.6194  0.0889
  531MOL0     C73179   8.916  11.243   8.923 -0.4408  0.1572  0.2520
  531MOL0     C73180   8.851  11.347   8.822  0.7189  0.2314 -1.3226
  531MOL0     C73181   8.922  11.332   8.686  0.6176  0.0037  0.0411
  531MOL0     C73182   9.055  11.411   8.692  0.6144 -0.4182  0.5303
  531MOL0     C73183   9.047  11.552   8.630 -0.0534  0.0211  0.1429
  531MOL0     C73184   9.172  11.635   8.649 -0.5845 -0.1286  0.1129
  531MOL0    Cl73185   9.318  11.549   8.593  0.1510 -0.1520  0.3044
  531MOL0     C73186   8.446  11.073   9.093  1.3737 -0.2871  0.6838
  531MOL0     C73187   8.314  11.034   9.116  0.4434  0.3287  0.0649
  531MOL0     O73188   8.092  11.032   9.460  0.2247 -0.2896  0.3432
  531MOL0     C73189   7.826  11.002   9.462  0.1992 -0.5479 -0.8239
  531MOL0     C73190   7.689  11.024   9.486 -0.3546  0.3689  1.0406
  531MOL0     N73191   6.842  11.080   9.079  0.0589 -0.4111  0.4339
  531MOL0     N73192   6.763  11.010   9.002  0.5404  0.9015 -0.4711
  531MOL0     C73193   5.735  10.330   8.587 -0.0348  0.8829  0.4442
  531MOL0     C73194   5.599  10.347   8.572  0.4645 -0.1686  0.0677
  531MOL0     C73195   5.229  10.598   8.564 -0.1927 -0.5546  0.0859
  531MOL0     C73196   5.157  10.530   8.465  0.1831 -0.2932  0.2941
  531MOL0     C73197   5.019  10.549   8.449 -0.1090 -0.0004  0.0608
  531MOL0     C73198   4.948  10.612   8.548  0.7133 -0.2875  0.3865
  531MOL0     O73199   4.815  10.597   8.540 -0.0473 -0.9025  0.1009
  531MOL0     C73200   4.737  10.657   8.641 -0.3709 -0.8070  0.2077
  531MOL0     C73201   4.590  10.636   8.627  0.4907  0.0991  0.0820
  531MOL0     C73202   4.536  10.721   8.511  1.0979 -0.6229 -0.1986
  531MOL0     C73203   4.414  10.805   8.551  0.3558 -0.4293 -0.5493
  531MOL0     C73204   4.300  10.734   8.609  0.0662  0.0029 -0.5150
  531MOL0     C73205   4.202  10.679   8.650  0.6815 -0.1495  0.0915
  531MOL0     C73206   5.018  10.685   8.644  0.3213  0.0367  0.2001
  531MOL0     C73207   5.154  10.677   8.656 -0.8044 -0.5110  0.4758
  531MOL0     C73208   5.215  10.785   8.743  0.2112  0.3610 -0.5487
  531MOL0     H73209   5.606  10.625   8.392  0.8299 -0.2288 -2.1432
  531MOL0     H73210   5.838  10.580   8.396  1.3634  0.1105  0.4023
  531MOL0     H73211   5.954  10.566   8.652 -1.4274 -0.3059 -1.7578
  531MOL0     H73212   6.051  10.587   8.507  1.5474  3.4209  2.7033
  531MOL0     H73213   6.121  10.375   8.708  0.0788 -0.8094 -1.6867
  531MOL0     H73214   6.212  10.417   8.567 -0.1933  1.2052 -1.3685
  531MOL0     H73215   6.237  10.658   8.662 -1.2357  0.7601  1.0944
  531MOL0     H73216   6.142  10.613   8.797  0.9201  1.4258 -0.5631
  531MOL0     H73217   6.341  10.453   8.862 -0.2781 -1.1456 -1.0346
  531MOL0     H73218   6.428  10.526   8.723 -1.7252  1.2187 -2.0710
  531MOL0     H73219   6.328  10.704   8.949 -1.2115 -2.5559  1.5435
  531MOL0     H73220   6.442  10.730   8.816  0.9728 -1.5345 -1.1902
  531MOL0     H73221   6.461  10.546   9.072  1.5875  1.6626  2.3522
  531MOL0     H73222   6.582  10.552   8.933 -1.1747  0.0294 -0.6240
  531MOL0     H73223   6.638  10.659   9.153 -0.2097  1.6782  2.8359
  531MOL0     H73224   6.509  10.769   9.140  1.2260  1.0159  0.6034
  531MOL0     H73225   6.730  10.729   8.930 -0.6434 -1.0687 -0.8671
  531MOL0     H73226   6.607  10.857   8.919  1.8264  2.3729 -0.1821
  531MOL0     H73227   6.822  10.792   9.236  1.7346  0.8398  1.1740
  531MOL0     H73228   6.974  10.968   9.376 -0.0816 -0.8941 -0.7697
  531MOL0     H73229   6.959  11.134   9.327  1.4917  0.0845  0.9544
  531MOL0     H73230   7.157  10.974   9.174 -1.4681 -1.4577  1.2186
  531MOL0     H73231   7.141  11.158   9.188 -0.7958  0.2384  1.1473
  531MOL0     H73232   7.207  11.142   9.416 -1.0565 -0.6484 -1.0498
  531MOL0     H73233   7.211  10.963   9.409  0.8036 -0.3152  1.3849
  531MOL0     H73234   7.407  11.040   9.220  2.5078  0.8058  0.3369
  531MOL0     H73235   7.382  11.201   9.284 -1.6658 -0.0443 -1.7437
  531MOL0     H73236   7.604  11.181   9.191  1.0725  0.0013 -2.3443
  531MOL0     H73237   7.881  11.323   9.145 -2.8407 -0.8427  1.9755
  531MOL0     H73238   7.796  11.209   9.047  1.7151 -0.9922 -0.8813
  531MOL0     H73239   7.956  11.166   9.093  0.2820  1.0827 -2.6104
  531MOL0     H73240   8.258  11.213   9.400 -2.4577 -1.0684 -0.4908
  531MOL0     H73241   8.503  11.261   9.363  2.4905 -1.2843  0.3776
  531MOL0     H73242   8.690  11.102   8.989 -2.2795  0.3822 -0.7764
  531MOL0     H73243   8.642  11.262   8.991  0.5398 -0.3393  0.2312
  531MOL0     H73244   8.847  11.335   9.115 -0.9316  0.5631  0.2149
  531MOL0     H73245   8.890  11.165   9.138 -0.5149  2.8402  2.4242
  531MOL0     H73246   8.904  11.143   8.880 -1.2725  0.7655 -1.0081
  531MOL0     H73247   9.024  11.257   8.934 -0.5124 -0.3725  1.9011
  531MOL0     H73248   8.858  11.446   8.866 -0.5393 -0.7627  1.2955
  531MOL0     H73249   8.744  11.325   8.814  0.6812  0.3270 -1.0806
  531MOL0     H73250   8.935  11.226   8.662 -0.3392  0.0621 -0.8325
  531MOL0     H73251   8.860  11.370   8.604 -1.2795 -1.2687  0.7909
  531MOL0     H73252   9.121  11.362   8.619  2.8457 -0.4766  2.4772
  531MOL0     H73253   9.086  11.418   8.797 -3.5214 -0.3174  1.9280
  531MOL0     H73254   8.964  11.606   8.676  1.9288  2.4297  1.1686
  531MOL0     H73255   9.026  11.552   8.523  1.6016 -1.7888 -0.2312
  531MOL0     H73256   9.185  11.657   8.756  1.7007  3.2831 -0.6818
  531MOL0     H73257   9.156  11.728   8.592 -1.1994 -1.7550 -2.5361
  531MOL0     H73258   8.497  11.031   9.006  1.1040  0.4824  0.1444
  531MOL0     H73259   8.270  10.974   9.038  1.5041  0.6765 -0.8188
  531MOL0     H73260   7.869  10.941   9.541 -0.3983 -0.8679 -0.7377
  531MOL0     H73261   7.637  10.974   9.567 -2.0605  0.9324  0.3422
  531MOL0     H73262   5.760  10.255   8.661 -0.8028  0.8407  0.6725
  531MOL0     H73263   5.538  10.275   8.627  0.9928 -0.8380 -0.2033
  531MOL0     H73264   5.218  10.471   8.398  1.2827 -1.6081  2.3528
  531MOL0     H73265   4.965  10.488   8.378  2.9449 -1.4382 -1.2041
  531MOL0     H73266   4.762  10.610   8.736 -0.2284  1.2858  1.2725
  531MOL0     H73267   4.760  10.763   8.656  0.0274 -1.0788  1.5817
  531MOL0     H73268   4.536  10.647   8.721  0.6002 -3.4279  0.6979
  531MOL0     H73269   4.575  10.532   8.598  0.5829  0.5803 -1.9003
  531MOL0     H73270   4.610  10.791   8.470  0.7982 -0.7080 -0.9044
  531MOL0     H73271   4.502  10.657   8.429 -1.0028  2.6849 -2.1680
  531MOL0     H73272   4.381  10.864   8.466  2.4809 -0.0054 -1.1384
  531MOL0     H73273   4.451  10.876   8.626 -1.6371 -0.1598  0.2434
  531MOL0     H73274   4.116  10.635   8.697  0.5263 -0.7192 -0.7072
  531MOL0     H73275   4.964  10.730   8.726  0.0697  0.8587 -0.3984
  531MOL0     H73276   5.296  10.840   8.695  1.3563  0.3241  1.2734
  531MOL0     H73277   5.140  10.857   8.778  1.4162  1.4268 -0.0961
  531MOL0     H73278   5.247  10.732   8.833  0.9029  1.1080 -0.3406
  532MOL0     O73279   1.165  10.368   3.073 -0.3062 -0.0014  0.0851
  532MOL0     C73280   1.124  10.349   3.183 -0.2899 -0.3278  0.4063
  532MOL0     O73281   1.194  10.370   3.304 -0.5427  0.0353  0.1683
  532MOL0     C73282   1.318  10.423   3.296  0.1872  0.6440 -0.1290
  532MOL0     C73283   1.346  10.539   3.227  1.1407  0.5877  0.2549
  532MOL0     C73284   1.484  10.580   3.219  0.0390 -0.4178  0.6180
  532MOL0     C73285   1.589  10.516   3.271  0.5095  0.4964 -0.1470
  532MOL0     O73286   1.723  10.565   3.257  0.7641 -0.3300  0.2345
  532MOL0     C73287   1.818  10.537   3.364 -0.3913  0.5992  0.3123
  532MOL0     C73288   1.924  10.640   3.378  0.4800  0.2176 -1.0492
  532MOL0     C73289   2.026  10.643   3.267 -0.9688  0.0807  0.6025
  532MOL0     C73290   2.105  10.769   3.272  0.3805  0.0643  0.6667
  532MOL0     C73291   2.210  10.792   3.157  0.5707 -0.0411 -0.7320
  532MOL0     C73292   2.280  10.922   3.187  0.1179  0.2525  0.3101
  532MOL0     C73293   2.383  10.958   3.075  0.3685 -0.2382 -0.0237
  532MOL0     C73294   2.478  11.065   3.116  0.4362 -0.1042 -0.5617
  532MOL0     N73295   2.580  11.078   3.015 -0.4524 -0.4532  1.0399
  532MOL0     C73296   2.670  10.993   2.964  0.2825 -0.3083  0.5435
  532MOL0     C73297   2.762  11.071   2.898  0.0904  0.0228  1.1758
  532MOL0     C73298   2.895  11.023   2.840  0.1719 -0.3359 -0.4740
  532MOL0     C73299   2.977  11.140   2.769  0.0805 -0.1212  0.1102
  532MOL0     C73300   3.075  11.215   2.847 -0.2575 -0.7323 -0.8096
  532MOL0     C73301   3.133  11.325   2.775 -0.5310 -0.8090  0.1527
  532MOL0     O73302   3.235  11.268   2.689  0.2407  0.0919 -0.1357
  532MOL0     C73303   3.356  11.234   2.746 -0.1993 -1.1336  0.7868
  532MOL0     C73304   3.403  11.260   2.873  0.3459  0.3855  0.3255
  532MOL0     C73305   3.530  11.219   2.921 -0.2950  0.5293 -0.1059
  532MOL0     C73306   3.549  11.226   3.072 -1.1351 -0.3435  0.4838
  532MOL0     C73307   3.633  11.168   2.828  0.2068 -0.7523 -0.4917
  532MOL0     C73308   3.774  11.158   2.858  0.2835 -0.6363 -0.9659
  532MOL0     O73309   3.845  11.098   2.758 -0.0496  0.5447  0.3311
  532MOL0     C73310   3.980  11.085   2.773  0.1003  0.6346  0.3015
  532MOL0     C73311   4.035  10.953   2.793 -0.3671 -1.1447  0.4253
  532MOL0     C73312   4.171  10.929   2.781  0.0509  0.5566 -0.0420
  532MOL0     C73313   4.261  11.035   2.783  0.5076 -0.0427 -0.5327
  532MOL0     O73314   4.400  11.025   2.791  0.9067  0.2577  0.2482
  532MOL0     C73315   4.451  10.907   2.862 -0.5664 -0.3185 -1.0423
  532MOL0     C73316   4.602  10.932   2.898  0.3645 -0.7778 -0.0094
  532MOL0     C73317   4.667  11.040   2.807  0.0152  0.1487  0.2765
  532MOL0     C73318   4.808  11.063   2.838 -0.5823  0.4145 -0.6392
  532MOL0     C73319   4.856  11.200   2.787  0.0032 -0.2578  0.5128
  532MOL0     C73320   4.871  11.203   2.630  0.8952 -0.1831 -0.2566
  532MOL0     C73321   5.013  11.158   2.577 -0.6061 -0.2247  0.4728
  532MOL0     C73322   5.033  11.197   2.430 -0.1581  0.3393  1.0208
  532MOL0    Cl73323   5.011  11.372   2.408 -0.2879 -0.5645 -0.3043
  532MOL0     C73324   4.208  11.166   2.766  0.1547 -0.0291 -0.2843
  532MOL0     C73325   4.072  11.188   2.772 -0.2148 -0.2674 -0.4251
  532MOL0     O73326   3.818  11.210   2.965 -0.0261 -0.4903  0.3000
  532MOL0     C73327   3.588  11.151   2.695 -0.4753 -0.1518 -0.0829
  532MOL0     C73328   3.458  11.186   2.658  0.5095  0.3491  0.7207
  532MOL0     N73329   2.713  11.197   2.884  0.4269 -0.3113  0.8327
  532MOL0     N73330   2.604  11.203   2.951 -1.1041 -0.1691 -0.7243
  532MOL0     C73331   1.557  10.398   3.343 -0.6575 -0.0563 -0.4462
  532MOL0     C73332   1.421  10.349   3.352  0.2387 -0.0909 -0.0489
  532MOL0     C73333   0.988  10.295   3.201  0.2666 -0.0912  0.2166
  532MOL0     C73334   0.934  10.292   3.337  0.1558 -0.0962  0.2294
  532MOL0     C73335   0.812  10.239   3.363  1.1024 -0.3588 -0.2674
  532MOL0     C73336   0.730  10.188   3.264  0.7996 -0.4773  0.3295
  532MOL0     O73337   0.600  10.147   3.297 -0.7943 -0.1070 -0.1182
  532MOL0     C73338   0.525  10.076   3.202 -0.9257  0.2088 -0.4428
  532MOL0     C73339   0.464   9.965   3.282 -0.6276 -0.1057  0.7186
  532MOL0     C73340   0.384   9.865   3.186 -0.8993 -0.2793 -0.3309
  532MOL0     C73341   0.352   9.740   3.264  0.0718 -0.4605  0.5624
  532MOL0     C73342   0.283   9.633   3.189  0.0774 -1.0411  0.2565
  532MOL0     C73343   0.214   9.556   3.130 -0.6690 -0.2263  0.2983
  532MOL0     C73344   0.777  10.201   3.128  0.8314  0.7455 -0.1044
  532MOL0     C73345   0.905  10.241   3.097 -0.9507  0.2457  0.9568
  532MOL0     C73346   0.942  10.251   2.945 -0.4830  0.3584 -0.4498
  532MOL0     H73347   1.268  10.588   3.169  0.4898  0.0680  0.6755
  532MOL0     H73348   1.495  10.677   3.170 -1.6896 -0.8900 -0.8054
  532MOL0     H73349   1.863  10.438   3.347  0.9603  1.6246 -2.8457
  532MOL0     H73350   1.770  10.532   3.461  0.1154  0.2156  0.5527
  532MOL0     H73351   1.876  10.737   3.391 -1.1429 -0.8697  2.0444
  532MOL0     H73352   1.972  10.615   3.473  1.0634 -0.6917 -1.5639
  532MOL0     H73353   2.089  10.556   3.287 -0.8683 -0.0370 -0.1792
  532MOL0     H73354   1.983  10.627   3.168  1.2259 -2.2618 -0.0663
  532MOL0     H73355   2.035  10.854   3.267 -0.0156 -0.2576  0.7026
  532MOL0     H73356   2.155  10.776   3.369  0.7036  0.1639  0.4916
  532MOL0     H73357   2.158  10.799   3.061 -0.4347 -0.4840 -0.2257
  532MOL0     H73358   2.281  10.709   3.153 -1.6805 -2.2258  1.5880
  532MOL0     H73359   2.199  10.995   3.195  1.4086  1.5631  3.2993
  532MOL0     H73360   2.330  10.919   3.284  1.2769 -1.6556 -0.2848
  532MOL0     H73361   2.329  10.989   2.985  2.5399  2.3283 -0.5492
  532MOL0     H73362   2.445  10.872   3.047 -0.0891 -0.6548  0.2110
  532MOL0     H73363   2.424  11.160   3.127 -0.1657 -0.5106  0.0698
  532MOL0     H73364   2.516  11.041   3.216 -0.6360  0.8057  0.0836
  532MOL0     H73365   2.693  10.890   2.987  0.8667 -0.4189 -0.4910
  532MOL0     H73366   2.873  10.959   2.754 -1.1971  1.7813 -1.7724
  532MOL0     H73367   2.949  10.978   2.924 -0.0766  2.7660  1.4968
  532MOL0     H73368   3.031  11.095   2.686  0.0940 -1.2375  0.6947
  532MOL0     H73369   2.909  11.213   2.725  1.3505 -0.2416 -2.1561
  532MOL0     H73370   3.017  11.260   2.928  1.9944  0.9342 -0.0100
  532MOL0     H73371   3.150  11.147   2.888 -0.0824 -0.7170 -1.1001
  532MOL0     H73372   3.055  11.364   2.709 -1.7534  1.5803  2.8370
  532MOL0     H73373   3.174  11.397   2.846 -3.8901  1.6704 -0.1473
  532MOL0     H73374   3.325  11.294   2.940  0.0850 -0.9776  0.7434
  532MOL0     H73375   3.454  11.246   3.122 -1.6573 -0.8895 -0.2559
  532MOL0     H73376   3.612  11.311   3.098 -0.6877 -0.6620  0.4595
  532MOL0     H73377   3.601  11.135   3.106  0.9739 -0.0911 -1.7170
  532MOL0     H73378   3.983  10.857   2.798  0.2407 -1.4467  1.0253
  532MOL0     H73379   4.216  10.831   2.773  0.1191  0.4541  1.3028
  532MOL0     H73380   4.386  10.878   2.945 -0.5595 -1.4786 -1.4135
  532MOL0     H73381   4.454  10.820   2.795  0.0759  0.3493 -1.9070
  532MOL0     H73382   4.606  10.969   3.001 -0.4458 -2.6724  0.7442
  532MOL0     H73383   4.658  10.838   2.892  0.9213 -0.4816  0.4092
  532MOL0     H73384   4.612  11.134   2.817 -0.8044 -0.0753 -1.6092
  532MOL0     H73385   4.657  11.002   2.705 -1.9637  0.9993  0.1018
  532MOL0     H73386   4.877  10.982   2.813 -0.6848 -1.3584  3.9260
  532MOL0     H73387   4.816  11.060   2.947 -0.8373  1.6711 -0.5716
  532MOL0     H73388   4.777  11.275   2.799 -0.6196 -0.2540 -2.8590
  532MOL0     H73389   4.947  11.233   2.839 -1.1650  2.4647  1.0060
  532MOL0     H73390   4.859  11.307   2.599 -0.5505  0.3310  1.8423
  532MOL0     H73391   4.788  11.153   2.579  1.4235  1.0324 -2.4012
  532MOL0     H73392   5.021  11.050   2.592 -1.6724 -0.3123  0.4914
  532MOL0     H73393   5.086  11.210   2.640 -4.0490  0.4534  4.2983
  532MOL0     H73394   4.957  11.151   2.365  0.1355 -0.3757  1.1776
  532MOL0     H73395   5.134  11.186   2.390  0.1163  1.8925  1.2364
  532MOL0     H73396   4.290  11.237   2.756  0.0399  0.0843 -0.4364
  532MOL0     H73397   4.033  11.287   2.750 -1.9321 -0.2583  2.1399
  532MOL0     H73398   3.646  11.103   2.617  0.0596  1.1378 -0.5035
  532MOL0     H73399   3.418  11.185   2.557  1.0284  1.0666  0.4930
  532MOL0     H73400   1.628  10.354   3.413  0.6733  1.4240 -0.8059
  532MOL0     H73401   1.388  10.258   3.402 -1.5262 -0.1466 -1.2026
  532MOL0     H73402   0.998  10.327   3.417  1.9787  0.4508 -1.3867
  532MOL0     H73403   0.759  10.250   3.458  1.5206  0.7706 -0.1454
  532MOL0     H73404   0.445  10.138   3.160 -0.9783 -1.2216 -2.5748
  532MOL0     H73405   0.588  10.031   3.126 -1.4729 -1.0446 -0.1738
  532MOL0     H73406   0.392  10.008   3.352 -1.5147 -2.5451  1.3910
  532MOL0     H73407   0.540   9.914   3.341 -0.7811  0.0121  1.0208
  532MOL0     H73408   0.295   9.906   3.138 -0.4167  0.2550 -0.7967
  532MOL0     H73409   0.460   9.845   3.110  0.7035  2.1880  0.4898
  532MOL0     H73410   0.279   9.762   3.343 -0.0664 -1.3945  0.7078
  532MOL0     H73411   0.445   9.695   3.298 -0.1083  0.0092  1.6941
  532MOL0     H73412   0.151   9.492   3.073 -2.6489  2.4336 -0.6998
  532MOL0     H73413   0.708  10.177   3.048  0.2279  0.1313  0.5827
  532MOL0     H73414   0.881  10.201   2.870  1.8013 -3.7204  0.0953
  532MOL0     H73415   0.951  10.356   2.914  2.1996  0.5636  0.6951
  532MOL0     H73416   1.042  10.210   2.926 -0.4845  1.0134 -1.9777
  533MOL0     O73417   2.383   9.213   4.055  0.7281  0.4315 -1.0548
  533MOL0     C73418   2.337   9.184   3.945 -0.2913  0.2500 -0.0042
  533MOL0     O73419   2.417   9.186   3.830 -0.5419 -0.3698  1.0691
  533MOL0     C73420   2.546   9.229   3.844  0.0548  0.4535  0.2087
  533MOL0     C73421   2.645   9.166   3.926  0.0050  0.8388  0.2901
  533MOL0     C73422   2.772   9.218   3.945  0.0606  0.3286  0.4496
  533MOL0     C73423   2.805   9.345   3.893 -0.6724 -0.5188 -0.3668
  533MOL0     O73424   2.933   9.399   3.905  0.7791  0.8628 -0.0656
  533MOL0     C73425   3.017   9.337   4.004  0.1025  0.3842  0.0508
  533MOL0     C73426   3.157   9.407   4.006  0.2797 -0.6794  0.2632
  533MOL0     C73427   3.151   9.552   4.033  0.1957 -0.0182 -0.5838
  533MOL0     C73428   3.287   9.614   4.003 -0.1888 -0.6295 -0.6778
  533MOL0     C73429   3.322   9.643   3.848  0.8360  0.3379  0.3405
  533MOL0     C73430   3.452   9.723   3.844  0.5214  0.2990  0.5090
  533MOL0     C73431   3.579   9.643   3.826  0.9348 -0.4375  0.0007
  533MOL0     C73432   3.595   9.521   3.918 -0.4925 -0.4362  1.1540
  533MOL0     N73433   3.724   9.446   3.902 -0.5072  0.5169  0.3062
  533MOL0     C73434   3.855   9.491   3.914  0.0345 -0.4111  0.6451
  533MOL0     C73435   3.938   9.397   3.870  0.6644  0.1481 -1.1259
  533MOL0     C73436   4.088   9.419   3.855  0.3074  0.3834 -1.1767
  533MOL0     C73437   4.155   9.284   3.842  0.0571  0.3743  0.0421
  533MOL0     C73438   4.291   9.290   3.792 -0.2370  0.9916  0.2578
  533MOL0     C73439   4.335   9.152   3.728  0.0980  0.7207  0.0846
  533MOL0     O73440   4.378   9.062   3.835  0.7168  0.0414 -0.1596
  533MOL0     C73441   4.508   9.058   3.868  0.2714 -1.1127  0.0847
  533MOL0     C73442   4.541   8.953   3.954  0.1157  0.3045  0.3528
  533MOL0     C73443   4.663   8.931   4.011  0.2020 -1.0440 -1.2620
  533MOL0     C73444   4.676   8.798   4.079  0.0595 -0.7314  0.3078
  533MOL0     C73445   4.763   9.023   3.988 -0.1866  0.2962  0.7111
  533MOL0     C73446   4.896   9.015   4.052  0.4891 -0.5824 -0.3956
  533MOL0     O73447   4.997   9.071   3.977 -0.2920 -0.1259  0.4819
  533MOL0     C73448   5.122   9.107   4.028  0.2220  0.9028  0.3387
  533MOL0     C73449   5.223   9.131   3.936 -1.3394  0.1770  0.6967
  533MOL0     C73450   5.348   9.179   3.982  0.2701  0.6945 -0.0371
  533MOL0     C73451   5.373   9.197   4.118 -0.6270  0.0350  0.3145
  533MOL0     O73452   5.489   9.246   4.174  0.0189 -0.6998 -0.3491
  533MOL0     C73453   5.594   9.280   4.084  0.1790  0.3247  0.1049
  533MOL0     C73454   5.720   9.318   4.158 -0.3104 -0.8622 -0.0466
  533MOL0     C73455   5.694   9.453   4.233 -0.7131 -0.5212  0.6485
  533MOL0     C73456   5.828   9.489   4.302 -0.0823 -0.0601 -0.6282
  533MOL0     C73457   5.824   9.636   4.363  0.0028  0.5913 -0.1063
  533MOL0     C73458   5.949   9.655   4.448 -1.1856  0.0086 -0.6258
  533MOL0     C73459   5.937   9.773   4.545  0.5198  0.7035  0.5184
  533MOL0     C73460   6.068   9.764   4.631  0.3159 -0.6147 -0.2708
  533MOL0    Cl73461   6.196   9.871   4.560  0.2476  0.3389 -0.2783
  533MOL0     C73462   5.268   9.171   4.208  0.1157 -0.4444 -0.5391
  533MOL0     C73463   5.148   9.118   4.167 -0.8466 -0.0488 -0.2830
  533MOL0     O73464   4.909   8.953   4.153 -0.1911  0.3479 -0.2249
  533MOL0     C73465   4.732   9.127   3.895 -0.1688  0.6706  0.8785
  533MOL0     C73466   4.603   9.147   3.835  0.0011  0.1940 -1.0088
  533MOL0     N73467   3.861   9.288   3.834  0.1298  0.1231  0.1144
  533MOL0     N73468   3.735   9.321   3.845  0.5953  0.2360 -0.5389
  533MOL0     C73469   2.706   9.407   3.823  0.4776  0.4397 -0.9148
  533MOL0     C73470   2.572   9.354   3.798 -0.7289  0.0263 -0.2377
  533MOL0     C73471   2.195   9.144   3.926  0.2158  0.1130 -0.0126
  533MOL0     C73472   2.161   9.117   3.790  0.3139  0.3631  0.5585
  533MOL0     C73473   2.037   9.068   3.753  1.0315  0.7629 -0.0176
  533MOL0     C73474   1.946   9.033   3.856 -0.2540 -0.0231  0.2079
  533MOL0     O73475   1.824   8.980   3.830 -0.5097 -0.5032 -0.6951
  533MOL0     C73476   1.774   8.979   3.698  0.1301  0.8830  0.8383
  533MOL0     C73477   1.659   8.880   3.698  0.7019  0.7373 -0.3484
  533MOL0     C73478   1.604   8.828   3.566 -0.3161  0.0311 -0.1852
  533MOL0     C73479   1.474   8.745   3.585  0.6901 -1.3991  0.4751
  533MOL0     C73480   1.358   8.826   3.590  0.3884 -0.2158  0.4408
  533MOL0     C73481   1.263   8.900   3.601 -0.9370 -0.1743 -0.5992
  533MOL0     C73482   1.980   9.051   3.991 -0.5751 -0.4367  0.5446
  533MOL0     C73483   2.107   9.102   4.029  0.1813  0.3136  0.3108
  533MOL0     C73484   2.136   9.090   4.173 -0.1796 -0.7060 -0.7244
  533MOL0     H73485   2.610   9.070   3.962 -0.1305  0.0399 -1.8060
  533MOL0     H73486   2.841   9.155   4.000 -0.8648  0.7625  2.1858
  533MOL0     H73487   3.037   9.230   3.988 -0.7471  0.5590 -2.8769
  533MOL0     H73488   2.975   9.347   4.104  3.1513  0.2148  1.4547
  533MOL0     H73489   3.216   9.362   4.086  2.1319 -0.0703 -0.7117
  533MOL0     H73490   3.215   9.398   3.914  1.1613 -0.2493  0.7662
  533MOL0     H73491   3.069   9.595   3.975  0.5981  2.9198  0.8400
  533MOL0     H73492   3.121   9.561   4.137 -1.6534  0.7737 -1.1402
  533MOL0     H73493   3.285   9.711   4.055  0.0397 -1.0819  0.1962
  533MOL0     H73494   3.361   9.550   4.052  0.0190 -1.2259 -1.7497
  533MOL0     H73495   3.251   9.711   3.803 -0.3249 -1.9641 -1.5236
  533MOL0     H73496   3.327   9.560   3.777  2.3392  0.4653  0.2650
  533MOL0     H73497   3.440   9.795   3.763 -2.0625 -1.0970 -0.4633
  533MOL0     H73498   3.468   9.778   3.938  4.3078 -1.2099  0.9406
  533MOL0     H73499   3.655   9.721   3.835 -1.3796  2.2283 -1.6768
  533MOL0     H73500   3.578   9.625   3.718  0.5779  2.3512 -0.5452
  533MOL0     H73501   3.589   9.552   4.023 -0.1094  0.0937  1.0251
  533MOL0     H73502   3.520   9.447   3.889  1.3953 -1.8502 -0.4816
  533MOL0     H73503   3.897   9.588   3.939  0.8970 -0.3744 -0.8287
  533MOL0     H73504   4.130   9.478   3.936  1.6745 -0.8249 -0.9746
  533MOL0     H73505   4.107   9.471   3.761 -0.7640  1.5282 -0.7897
  533MOL0     H73506   4.149   9.221   3.932  1.8793 -0.6979 -0.5381
  533MOL0     H73507   4.106   9.239   3.755  0.3902  1.7279 -0.8842
  533MOL0     H73508   4.300   9.366   3.713  0.2706 -1.1255 -1.8518
  533MOL0     H73509   4.362   9.310   3.873 -1.0948  0.4097  1.1682
  533MOL0     H73510   4.255   9.103   3.673  0.4565 -0.5235  0.6350
  533MOL0     H73511   4.417   9.166   3.656  1.5231 -0.4312  1.4030
  533MOL0     H73512   4.459   8.885   3.972  0.3644 -0.2698 -0.6279
  533MOL0     H73513   4.586   8.738   4.067 -0.6776  0.8718 -6.9040
  533MOL0     H73514   4.698   8.815   4.185 -2.9225  2.3646  0.5988
  533MOL0     H73515   4.765   8.758   4.028  2.9117  4.5659  0.4049
  533MOL0     H73516   5.198   9.129   3.830 -1.1067  2.0376  0.5829
  533MOL0     H73517   5.420   9.193   3.902 -1.1189  0.1257 -1.4371
  533MOL0     H73518   5.614   9.181   4.042  1.3992 -0.2144  1.8201
  533MOL0     H73519   5.567   9.340   3.998 -1.3927 -0.0618  0.3116
  533MOL0     H73520   5.756   9.235   4.218  0.4997 -2.1977 -2.2375
  533MOL0     H73521   5.796   9.329   4.079  1.3686  1.8303  1.7677
  533MOL0     H73522   5.622   9.438   4.313  1.1157 -1.0357  2.2781
  533MOL0     H73523   5.664   9.533   4.164 -0.1928  1.0669  2.1598
  533MOL0     H73524   5.911   9.488   4.231 -0.8931  0.8954 -1.6216
  533MOL0     H73525   5.844   9.417   4.383  1.5181 -3.0717 -3.3760
  533MOL0     H73526   5.819   9.707   4.281  2.3954 -0.0511 -0.8765
  533MOL0     H73527   5.737   9.661   4.426  0.4349  6.2343 -1.2903
  533MOL0     H73528   6.033   9.676   4.381 -1.7435  2.6052 -0.6141
  533MOL0     H73529   5.968   9.559   4.498 -1.4926  0.7432  0.9691
  533MOL0     H73530   5.853   9.751   4.611  2.7519 -1.1563  2.9699
  533MOL0     H73531   5.916   9.868   4.496  0.7949 -1.0439 -3.3066
  533MOL0     H73532   6.110   9.665   4.653  0.5580 -0.1990  1.2655
  533MOL0     H73533   6.042   9.799   4.731  0.0141 -0.8246 -0.2743
  533MOL0     H73534   5.283   9.168   4.316 -2.5519  1.0547 -0.0388
  533MOL0     H73535   5.073   9.111   4.246 -1.5722  1.0808 -0.8563
  533MOL0     H73536   4.812   9.190   3.857  0.4878 -1.2354 -1.1015
  533MOL0     H73537   4.585   9.241   3.785  1.2886  2.1638  1.9274
  533MOL0     H73538   2.729   9.505   3.781 -0.3292  0.3597 -1.5862
  533MOL0     H73539   2.490   9.415   3.761 -0.6883  0.5355  0.4968
  533MOL0     H73540   2.223   9.162   3.713  0.1299 -0.3688 -0.0254
  533MOL0     H73541   2.027   9.062   3.645 -0.2752 -0.8062  0.1480
  533MOL0     H73542   1.734   9.079   3.678 -1.1044  0.5726  1.6274
  533MOL0     H73543   1.847   8.951   3.622  0.6214 -1.1562  1.9975
  533MOL0     H73544   1.575   8.925   3.753  0.7435  0.6002 -0.1702
  533MOL0     H73545   1.679   8.789   3.755  0.3238 -0.2772 -1.7876
  533MOL0     H73546   1.582   8.902   3.489  0.4647 -0.7961 -1.2408
  533MOL0     H73547   1.678   8.757   3.527  0.6582 -0.1006  1.7663
  533MOL0     H73548   1.483   8.683   3.674  0.6938  0.2363  1.6694
  533MOL0     H73549   1.462   8.689   3.492 -1.0069  1.3349 -1.1219
  533MOL0     H73550   1.203   8.982   3.634 -1.5217 -0.5428 -0.7330
  533MOL0     H73551   1.904   9.020   4.062 -1.2120 -0.6916 -0.2320
  533MOL0     H73552   2.176   9.185   4.209  1.8176 -0.9340 -2.1709
  533MOL0     H73553   2.060   9.050   4.241 -0.0755  1.3877  0.7081
  533MOL0     H73554   2.222   9.025   4.197 -0.7715 -0.3522  2.9191
  534MOL0     O73555  10.828   3.555   6.664  0.2004  0.4878 -0.2531
  534MOL0     C73556  10.827   3.445   6.609 -0.1934  0.5168 -0.0706
  534MOL0     O73557  10.932   3.354   6.609 -0.2104 -0.8884  0.0391
  534MOL0     C73558  11.041   3.380   6.684  0.7320  0.9188 -0.2521
  534MOL0     C73559  11.038   3.378   6.826 -0.6710 -0.2654 -0.9467
  534MOL0     C73560  11.155   3.411   6.895  0.1473 -0.1414 -0.0004
  534MOL0     C73561  11.270   3.457   6.824 -0.4614  0.1436 -0.6599
  534MOL0     O73562  11.391   3.485   6.882 -0.0938 -0.2821  0.9455
  534MOL0     C73563  11.394   3.526   7.016 -0.1468  0.5231  0.1397
  534MOL0     C73564  11.438   3.401   7.094 -0.6109 -0.3481 -1.2532
  534MOL0     C73565  11.512   3.426   7.227 -0.7991  0.0263 -0.3552
  534MOL0     C73566  11.656   3.462   7.187 -0.0857 -0.6172  0.2414
  534MOL0     C73567  11.763   3.360   7.207  0.1410 -0.1438  0.2246
  534MOL0     C73568  11.898   3.424   7.184 -0.2090  0.2991 -1.4165
  534MOL0     C73569  11.991   3.302   7.148  0.4443 -0.0403  0.5470
  534MOL0     C73570  12.127   3.353   7.099  0.4381 -0.5778  1.0868
  534MOL0     N73571  12.203   3.414   7.202 -0.1714 -0.2379  0.1719
  534MOL0     C73572  12.306   3.361   7.272 -0.0166 -0.1034  0.6126
  534MOL0     C73573  12.363   3.472   7.334 -0.6582 -0.1352 -0.0420
  534MOL0     C73574  12.496   3.465   7.418 -0.2268 -0.9738  0.0668
  534MOL0     C73575  12.622   3.486   7.321 -0.8290 -0.4837  0.3980
  534MOL0     C73576  12.647   3.375   7.215  0.0903  0.4312  0.2376
  534MOL0     C73577  12.748   3.277   7.272 -0.3199 -1.0278 -0.0363
  534MOL0     O73578  12.880   3.321   7.240 -0.1219 -0.3623  0.0990
  534MOL0     C73579  12.987   3.251   7.279 -0.5859  0.3026 -0.1636
  534MOL0     C73580  12.993   3.120   7.336  0.8030 -0.0010 -0.0552
  534MOL0     C73581  13.109   3.073   7.392 -0.9064 -0.5258  0.7279
  534MOL0     C73582  13.110   2.948   7.479  0.3105  0.5572  0.9178
  534MOL0     C73583  13.232   3.138   7.352 -0.0692  0.6952 -0.4928
  534MOL0     C73584  13.368   3.082   7.384  0.3853 -0.5885  0.6974
  534MOL0     O73585  13.460   3.113   7.287  0.0121  0.3665 -0.3798
  534MOL0     C73586  13.580   3.053   7.281 -0.3447 -0.2037  0.8524
  534MOL0     C73587  13.692   3.102   7.361  0.5252  0.2345  0.8825
  534MOL0     C73588  13.824   3.055   7.338 -0.7587 -0.3034  0.2763
  534MOL0     C73589  13.846   2.954   7.244 -0.3280  0.5885 -0.9048
  534MOL0     O73590  13.970   2.899   7.223 -0.0896 -0.2768  0.2642
  534MOL0     C73591  14.058   2.888   7.334  0.0345 -0.3849 -0.8834
  534MOL0     C73592  14.150   2.770   7.317 -0.4056  0.4440 -0.4874
  534MOL0     C73593  14.272   2.769   7.416  1.1105 -0.8464  1.0362
  534MOL0     C73594  14.352   2.649   7.393  0.5569  0.8358 -0.1769
  534MOL0     C73595  14.416   2.620   7.260 -0.1673  0.0508  0.7970
  534MOL0     C73596  14.510   2.737   7.224  0.1834 -0.3496  0.0589
  534MOL0     C73597  14.649   2.756   7.299 -0.0367  0.1627 -0.6953
  534MOL0     C73598  14.748   2.848   7.232 -0.4984  0.1366 -0.0732
  534MOL0    Cl73599  14.880   2.892   7.353 -0.2779  0.0721  0.2088
  534MOL0     C73600  13.736   2.899   7.190 -0.7079  0.2050  0.6207
  534MOL0     C73601  13.605   2.945   7.203 -0.4438  0.3161  0.0952
  534MOL0     O73602  13.393   3.016   7.486  0.1317  1.0217 -0.4009
  534MOL0     C73603  13.225   3.258   7.280  0.1804 -0.0315  0.1646
  534MOL0     C73604  13.104   3.317   7.239  0.5656  0.6340 -0.0575
  534MOL0     N73605  12.289   3.587   7.304 -0.3269 -0.5602  0.0436
  534MOL0     N73606  12.192   3.547   7.229  0.3199  0.2156  0.7127
  534MOL0     C73607  11.264   3.465   6.688 -0.1839  0.5162  0.3140
  534MOL0     C73608  11.150   3.427   6.613 -0.3535 -0.6806 -1.2956
  534MOL0     C73609  10.707   3.399   6.532  0.3097  0.4131  0.4924
  534MOL0     C73610  10.731   3.296   6.436 -0.8996 -0.2564  0.2063
  534MOL0     C73611  10.632   3.236   6.368  0.6186 -0.0107  0.0367
  534MOL0     C73612  10.498   3.274   6.391  0.0888 -0.3944 -0.1716
  534MOL0     O73613  10.385   3.213   6.335 -0.5049 -0.4357 -0.9420
  534MOL0     C73614  10.386   3.097   6.243 -0.5674  0.2134 -0.0409
  534MOL0     C73615  10.418   2.958   6.306  0.8426  0.2378 -0.5638
  534MOL0     C73616  10.479   2.852   6.215  0.4783  0.0457  0.2481
  534MOL0     C73617  10.614   2.887   6.154 -0.5094 -0.2703 -0.6539
  534MOL0     C73618  10.715   2.881   6.259 -0.8389  0.1002 -0.2663
  534MOL0     C73619  10.801   2.884   6.348  0.3610 -0.1560  0.0788
  534MOL0     C73620  10.476   3.368   6.484 -0.3417 -0.3966 -1.0518
  534MOL0     C73621  10.576   3.435   6.562  0.0294 -0.3034  0.9257
  534MOL0     C73622  10.539   3.541   6.666 -0.1931  0.6388  0.0908
  534MOL0     H73623  10.946   3.344   6.873  0.0446 -1.4502 -0.3596
  534MOL0     H73624  11.140   3.403   7.002  0.4448  0.5493  0.0975
  534MOL0     H73625  11.293   3.554   7.047 -1.4020 -1.9989 -1.3286
  534MOL0     H73626  11.457   3.614   7.034 -0.7736  0.5911  2.3750
  534MOL0     H73627  11.350   3.343   7.123  0.7288 -1.5794  0.6338
  534MOL0     H73628  11.515   3.345   7.040  2.2299  2.6802 -0.6418
  534MOL0     H73629  11.471   3.506   7.289 -0.8021  1.3412 -1.9779
  534MOL0     H73630  11.511   3.332   7.283  0.7591 -0.5714 -1.2741
  534MOL0     H73631  11.650   3.485   7.080 -3.1708  1.0999  0.6584
  534MOL0     H73632  11.672   3.550   7.250 -1.4348 -1.3234  1.6439
  534MOL0     H73633  11.740   3.280   7.136 -0.6828 -1.6029  2.0225
  534MOL0     H73634  11.751   3.310   7.304  1.4612 -1.9898 -0.4973
  534MOL0     H73635  11.897   3.490   7.097 -0.5174  1.7935 -0.3208
  534MOL0     H73636  11.933   3.471   7.276 -1.0481 -2.2399  0.3016
  534MOL0     H73637  11.948   3.247   7.063  0.8030  0.9674 -0.3047
  534MOL0     H73638  11.991   3.231   7.231  0.1038 -0.4407  0.2132
  534MOL0     H73639  12.183   3.269   7.056  1.1916  0.4765 -0.0787
  534MOL0     H73640  12.111   3.427   7.020  0.0228  0.4512  2.1113
  534MOL0     H73641  12.341   3.258   7.276  0.4418  0.0608  1.0374
  534MOL0     H73642  12.519   3.371   7.469  1.2897  0.4464  2.1966
  534MOL0     H73643  12.501   3.542   7.497  1.9794 -0.0938 -0.8591
  534MOL0     H73644  12.602   3.575   7.260 -1.7552  0.1246  1.5568
  534MOL0     H73645  12.710   3.512   7.380  0.2827 -2.0837 -0.4749
  534MOL0     H73646  12.550   3.326   7.199 -0.4606  1.1826  1.1496
  534MOL0     H73647  12.675   3.422   7.121  0.3227  1.1205  0.6493
  534MOL0     H73648  12.725   3.263   7.378  0.3120  0.2504  0.3001
  534MOL0     H73649  12.724   3.185   7.218 -1.7783  0.4718 -2.1021
  534MOL0     H73650  12.904   3.058   7.343  0.3676  0.7037  0.7785
  534MOL0     H73651  13.121   2.984   7.581 -0.1989  0.7873  0.8974
  534MOL0     H73652  13.187   2.875   7.454  1.2825  1.3381  1.5509
  534MOL0     H73653  13.013   2.897   7.471  0.8924 -0.4032 -0.5306
  534MOL0     H73654  13.671   3.177   7.437  0.8400  0.4801  0.7251
  534MOL0     H73655  13.900   3.087   7.408 -0.8086 -0.2997  0.3284
  534MOL0     H73656  14.120   2.978   7.340 -1.4200  0.6509 -0.7788
  534MOL0     H73657  13.997   2.868   7.423  2.1316 -0.7823  0.5388
  534MOL0     H73658  14.099   2.678   7.349 -0.0708  0.2460 -0.5189
  534MOL0     H73659  14.188   2.769   7.215 -1.4737  0.4744 -0.8969
  534MOL0     H73660  14.245   2.775   7.522  0.3853  3.3682  0.7900
  534MOL0     H73661  14.335   2.858   7.401 -0.4230  0.3041  1.1399
  534MOL0     H73662  14.288   2.564   7.419  0.8015 -0.0025 -2.1629
  534MOL0     H73663  14.433   2.647   7.465 -1.1896 -0.0477  1.8752
  534MOL0     H73664  14.479   2.533   7.282 -1.5332 -1.2451 -0.2791
  534MOL0     H73665  14.344   2.595   7.182  0.0555 -0.7344  0.8299
  534MOL0     H73666  14.451   2.828   7.208  0.3492 -0.0502  1.0393
  534MOL0     H73667  14.545   2.705   7.126  0.4065  0.8663 -0.2861
  534MOL0     H73668  14.695   2.661   7.329  0.2681  1.3055  2.8926
  534MOL0     H73669  14.621   2.795   7.397 -3.3929  0.4854 -1.6852
  534MOL0     H73670  14.698   2.932   7.184  1.1742  1.0098 -0.3783
  534MOL0     H73671  14.804   2.790   7.157  0.2509 -1.4417  1.6487
  534MOL0     H73672  13.759   2.815   7.125  2.3428  0.8131  0.7427
  534MOL0     H73673  13.518   2.894   7.164  0.1008 -1.0589  0.6287
  534MOL0     H73674  13.313   3.311   7.244 -0.7103  1.7960  0.5413
  534MOL0     H73675  13.117   3.414   7.192  0.4708 -0.1070 -1.6969
  534MOL0     H73676  11.347   3.495   6.624 -1.2481 -0.2562 -1.5145
  534MOL0     H73677  11.144   3.426   6.504  0.6694  0.1821 -1.3760
  534MOL0     H73678  10.827   3.253   6.412  0.0514  2.0815 -0.4859
  534MOL0     H73679  10.656   3.141   6.323 -1.1624 -2.0717  3.0781
  534MOL0     H73680  10.292   3.084   6.188 -1.7459  0.9686  1.6994
  534MOL0     H73681  10.459   3.130   6.168  0.7455  0.5112  1.3213
  534MOL0     H73682  10.326   2.917   6.349  0.9130  0.6576  0.0043
  534MOL0     H73683  10.480   2.971   6.396 -1.8594  2.7398  1.0943
  534MOL0     H73684  10.486   2.755   6.265  1.2875 -0.1331 -0.1851
  534MOL0     H73685  10.408   2.837   6.134 -2.9217  1.8014  2.6798
  534MOL0     H73686  10.615   2.992   6.125  0.1928  0.4026  1.6222
  534MOL0     H73687  10.639   2.831   6.063 -0.3060  2.6221 -2.4996
  534MOL0     H73688  10.879   2.899   6.420 -0.3948 -0.9007  1.0780
  534MOL0     H73689  10.376   3.402   6.509  0.0066 -0.5004  0.6558
  534MOL0     H73690  10.432   3.563   6.670 -0.1301  0.8276  1.0904
  534MOL0     H73691  10.570   3.502   6.764  1.0741 -1.1766 -0.9777
  534MOL0     H73692  10.596   3.633   6.652  3.7579 -0.9909  3.2271
  535MOL0     O73693   5.890   7.505   2.737 -0.6793 -0.4244 -0.5578
  535MOL0     C73694   5.798   7.425   2.721  0.0344 -0.3443  0.2615
  535MOL0     O73695   5.810   7.298   2.750 -0.0088 -0.1772  0.1090
  535MOL0     C73696   5.918   7.221   2.738  0.4794  0.0506 -0.6450
  535MOL0     C73697   5.966   7.197   2.611  1.1329 -1.0864  0.1235
  535MOL0     C73698   6.082   7.124   2.586  0.6553 -0.0772 -0.4405
  535MOL0     C73699   6.153   7.081   2.694  0.0279  0.6159 -1.1512
  535MOL0     O73700   6.264   7.010   2.662 -0.7485 -0.7241  0.0762
  535MOL0     C73701   6.318   6.931   2.767 -0.3260 -0.3441 -0.1480
  535MOL0     C73702   6.461   6.890   2.725  0.9557  0.0476 -0.4665
  535MOL0     C73703   6.465   6.766   2.638 -0.3505  0.0123 -0.4166
  535MOL0     C73704   6.600   6.696   2.622  0.0257 -0.4263 -0.5511
  535MOL0     C73705   6.713   6.771   2.545  0.0991 -0.6475 -0.4450
  535MOL0     C73706   6.679   6.816   2.402 -0.3364  0.3294 -0.2008
  535MOL0     C73707   6.791   6.898   2.340 -0.3119  0.2464 -0.2021
  535MOL0     C73708   6.746   6.930   2.195  0.3106 -0.3696 -0.2960
  535MOL0     N73709   6.856   6.989   2.130  0.5402 -0.6292  0.3567
  535MOL0     C73710   6.964   6.920   2.076  0.6241  0.3060 -0.6499
  535MOL0     C73711   7.053   7.016   2.037  0.8092  0.0685 -0.0993
  535MOL0     C73712   7.180   6.970   1.969  0.1924  0.4033 -0.0814
  535MOL0     C73713   7.302   6.964   2.064 -0.2893 -0.4636 -0.6403
  535MOL0     C73714   7.437   6.951   2.003  0.5081 -0.1845 -0.3137
  535MOL0     C73715   7.536   6.875   2.089 -0.4979 -0.4198 -0.2346
  535MOL0     O73716   7.585   6.957   2.205 -0.0949  0.1255  0.1722
  535MOL0     C73717   7.695   6.908   2.271  0.0930  0.1516  0.7023
  535MOL0     C73718   7.728   6.773   2.261 -0.2466  0.2572  0.2292
  535MOL0     C73719   7.856   6.737   2.293 -0.2606 -0.0949 -0.2103
  535MOL0     C73720   7.892   6.592   2.259 -0.5028 -0.5352 -0.1420
  535MOL0     C73721   7.946   6.822   2.358 -0.5060  0.1101 -0.3521
  535MOL0     C73722   8.084   6.785   2.409  0.0567 -0.2415 -0.2967
  535MOL0     O73723   8.108   6.660   2.465  0.1050  0.0507 -0.8626
  535MOL0     C73724   8.223   6.624   2.523  0.5743 -0.5202 -0.6381
  535MOL0     C73725   8.269   6.496   2.513 -0.8388 -0.6275  0.5032
  535MOL0     C73726   8.395   6.454   2.559 -0.4828  0.2077 -0.0678
  535MOL0     C73727   8.480   6.542   2.620  0.3115 -0.6655 -0.4180
  535MOL0     O73728   8.597   6.502   2.676  0.0630  0.5638 -0.0663
  535MOL0     C73729   8.699   6.474   2.578  0.6261 -0.3075 -0.1447
  535MOL0     C73730   8.833   6.536   2.626 -0.3287 -0.3095  0.2230
  535MOL0     C73731   8.942   6.471   2.549 -0.2143  0.6577 -0.1510
  535MOL0     C73732   9.087   6.515   2.594  1.2372 -0.0584  0.5327
  535MOL0     C73733   9.190   6.403   2.555  0.5795 -0.8788  0.0282
  535MOL0     C73734   9.205   6.304   2.662  0.2470  0.2194 -0.3405
  535MOL0     C73735   9.323   6.220   2.621 -1.3870  0.7308  0.0229
  535MOL0     C73736   9.356   6.111   2.727  0.8124 -0.5605  0.4615
  535MOL0    Cl73737   9.407   6.192   2.871  0.1057 -0.1091  0.1884
  535MOL0     C73738   8.436   6.671   2.636  1.2837 -0.4765 -0.3083
  535MOL0     C73739   8.312   6.709   2.586  0.2415 -0.1983 -0.4249
  535MOL0     O73740   8.167   6.876   2.398 -0.8853 -0.1775  0.4522
  535MOL0     C73741   7.905   6.961   2.369 -0.3159  0.1265  0.1990
  535MOL0     C73742   7.773   7.002   2.332 -0.0180 -0.3662  1.0166
  535MOL0     N73743   6.990   7.136   2.047 -0.3019 -0.2145  0.0002
  535MOL0     N73744   6.870   7.121   2.093 -0.7537  0.9409 -1.1334
  535MOL0     C73745   6.105   7.099   2.828 -0.8753  0.2157 -0.0357
  535MOL0     C73746   5.986   7.173   2.852  0.6479  0.0972  0.0262
  535MOL0     C73747   5.679   7.475   2.647  0.6597 -0.6277 -0.4246
  535MOL0     C73748   5.576   7.383   2.612  0.2156  0.7255  0.0918
  535MOL0     C73749   5.456   7.418   2.547  0.1855  0.5318 -0.5897
  535MOL0     C73750   5.428   7.550   2.527  0.1176 -0.2354 -0.2759
  535MOL0     O73751   5.299   7.598   2.487 -0.3498 -0.3663  0.1062
  535MOL0     C73752   5.204   7.510   2.432 -0.6342 -0.0342 -0.1001
  535MOL0     C73753   5.245   7.448   2.299  0.1836  0.6425 -0.2408
  535MOL0     C73754   5.249   7.537   2.174  0.6354 -0.2111 -0.2037
  535MOL0     C73755   5.117   7.617   2.156  0.2404 -0.7897  0.5782
  535MOL0     C73756   4.999   7.543   2.141 -0.5496 -0.4608 -0.0504
  535MOL0     C73757   4.906   7.467   2.137 -0.4669 -0.4275  0.0266
  535MOL0     C73758   5.521   7.649   2.554 -0.8829 -0.0172 -0.6099
  535MOL0     C73759   5.654   7.616   2.613  0.4424 -0.3366  0.4729
  535MOL0     C73760   5.762   7.723   2.633  0.3339 -0.1652  0.0072
  535MOL0     H73761   5.916   7.243   2.526  3.3451 -0.6912 -1.0459
  535MOL0     H73762   6.110   7.116   2.481  0.9213  1.7461 -0.5510
  535MOL0     H73763   6.248   6.849   2.785 -1.4303  0.4357 -0.7983
  535MOL0     H73764   6.332   6.995   2.854 -2.5083  0.1271 -0.0922
  535MOL0     H73765   6.515   6.969   2.672  3.1931  0.2786  1.9460
  535MOL0     H73766   6.525   6.881   2.813  2.0190  0.2377 -1.2026
  535MOL0     H73767   6.388   6.701   2.682 -1.8181  1.3305 -0.9625
  535MOL0     H73768   6.426   6.790   2.538  0.4066 -2.4586 -1.3947
  535MOL0     H73769   6.636   6.689   2.725 -0.8983  2.2397  0.0312
  535MOL0     H73770   6.587   6.594   2.584  0.4473  0.0299 -1.9861
  535MOL0     H73771   6.800   6.705   2.538  0.3808 -0.4339  0.7306
  535MOL0     H73772   6.749   6.861   2.596  1.3127 -1.1622 -0.3583
  535MOL0     H73773   6.668   6.719   2.351 -1.5937  0.1840  0.3107
  535MOL0     H73774   6.584   6.869   2.391 -0.6005 -0.2738 -0.8886
  535MOL0     H73775   6.886   6.843   2.343  0.0711  0.8991 -0.2629
  535MOL0     H73776   6.802   6.994   2.390  2.3880  0.8670 -1.7873
  535MOL0     H73777   6.719   6.841   2.138 -0.7850  0.9368 -1.9060
  535MOL0     H73778   6.655   6.991   2.196 -0.0182 -0.8450 -0.7972
  535MOL0     H73779   6.984   6.814   2.064  2.1302  0.3986  0.7428
  535MOL0     H73780   7.221   7.038   1.894  1.3927 -1.0066 -0.7512
  535MOL0     H73781   7.158   6.876   1.918 -1.4128  0.7818 -0.1331
  535MOL0     H73782   7.303   7.051   2.131  0.9724 -2.3844  2.0108
  535MOL0     H73783   7.301   6.883   2.137  3.4244  0.5572  0.7807
  535MOL0     H73784   7.431   6.907   1.903  1.6100 -0.2244 -0.3706
  535MOL0     H73785   7.475   7.051   1.981 -0.3828 -0.0092 -1.1141
  535MOL0     H73786   7.481   6.786   2.121  0.4024 -0.8179  0.2302
  535MOL0     H73787   7.620   6.840   2.028 -0.1810  1.2277 -0.7979
  535MOL0     H73788   7.659   6.701   2.218 -1.8119  2.4443 -1.1291
  535MOL0     H73789   8.000   6.579   2.244 -0.6441 -0.6930 -1.0287
  535MOL0     H73790   7.831   6.559   2.175 -1.7705 -0.4574  0.7176
  535MOL0     H73791   7.880   6.528   2.347  1.0879 -1.9673 -0.9240
  535MOL0     H73792   8.194   6.428   2.473 -1.1846 -0.3250  0.6366
  535MOL0     H73793   8.427   6.353   2.540 -0.0896  0.6607 -1.9861
  535MOL0     H73794   8.713   6.368   2.555  1.3290 -0.3306  0.3375
  535MOL0     H73795   8.680   6.531   2.487  3.0382 -0.1736 -0.6414
  535MOL0     H73796   8.830   6.645   2.609 -0.3121 -0.3749 -0.2118
  535MOL0     H73797   8.854   6.514   2.731 -0.2559 -1.0855  0.0462
  535MOL0     H73798   8.929   6.481   2.441  0.8196  0.3166 -0.3137
  535MOL0     H73799   8.939   6.365   2.578  4.2343 -0.3720 -2.6035
  535MOL0     H73800   9.087   6.543   2.699 -2.2922  1.3510  0.2807
  535MOL0     H73801   9.113   6.609   2.544 -1.0662 -0.5350 -1.7583
  535MOL0     H73802   9.154   6.350   2.466  1.8604 -0.3252 -0.8576
  535MOL0     H73803   9.282   6.457   2.530  0.9893 -1.0225  1.1614
  535MOL0     H73804   9.108   6.252   2.666  0.0539  0.3867 -1.9284
  535MOL0     H73805   9.234   6.352   2.755 -0.8715 -3.0677  1.8896
  535MOL0     H73806   9.416   6.277   2.621 -0.8240  0.0949  3.5310
  535MOL0     H73807   9.319   6.172   2.523  3.3535  1.3375 -0.7081
  535MOL0     H73808   9.426   6.036   2.688 -0.6053 -1.3016 -0.7349
  535MOL0     H73809   9.271   6.047   2.753  2.1726 -2.3094  0.7820
  535MOL0     H73810   8.482   6.736   2.710  0.1199 -0.6292  0.5701
  535MOL0     H73811   8.263   6.804   2.605 -0.6419 -0.8205  0.5056
  535MOL0     H73812   7.967   7.038   2.412 -0.8702  1.3532 -1.0979
  535MOL0     H73813   7.740   7.105   2.338  0.7778  0.1156 -1.6441
  535MOL0     H73814   6.147   7.060   2.920 -0.8017 -1.2932 -0.6852
  535MOL0     H73815   5.952   7.197   2.953  1.3400 -0.4697  0.4087
  535MOL0     H73816   5.580   7.276   2.634 -2.1590  0.4097 -0.6950
  535MOL0     H73817   5.377   7.346   2.531  1.9058 -1.7107  0.4914
  535MOL0     H73818   5.188   7.438   2.513 -0.8310  1.6450  1.4394
  535MOL0     H73819   5.113   7.571   2.428 -0.0041  1.4503  3.7632
  535MOL0     H73820   5.172   7.368   2.284 -1.9010  2.0130  1.8733
  535MOL0     H73821   5.341   7.397   2.312  0.8791  1.5858 -1.4677
  535MOL0     H73822   5.328   7.610   2.196  0.1705 -0.7653  4.2402
  535MOL0     H73823   5.263   7.475   2.085 -0.3920 -1.5821  0.5455
  535MOL0     H73824   5.123   7.677   2.064 -2.9180 -0.3049  0.5851
  535MOL0     H73825   5.110   7.681   2.245 -1.4188 -2.4047  1.6877
  535MOL0     H73826   4.823   7.400   2.124 -1.5854  0.8709  0.2943
  535MOL0     H73827   5.489   7.747   2.522  2.0447  1.4566  0.6519
  535MOL0     H73828   5.838   7.684   2.565 -2.0339 -3.5173 -0.9741
  535MOL0     H73829   5.725   7.821   2.603  0.0099 -0.0254  0.8314
  535MOL0     H73830   5.798   7.722   2.736  0.7965  0.0492 -0.1502
  536MOL0     O73831   2.722   3.404   3.777 -0.0690  0.9208  0.1097
  536MOL0     C73832   2.652   3.501   3.731 -0.4321 -0.0282 -0.2387
  536MOL0     O73833   2.693   3.637   3.737 -0.6264 -0.1908  0.4443
  536MOL0     C73834   2.822   3.659   3.783 -0.4031 -0.2438  0.1994
  536MOL0     C73835   2.933   3.676   3.704  1.3646 -0.4006 -0.7449
  536MOL0     C73836   3.063   3.682   3.750 -0.5630  0.6091 -0.4086
  536MOL0     C73837   3.086   3.675   3.886  0.3087  0.1230  0.1766
  536MOL0     O73838   3.209   3.655   3.941  0.7800  0.5407 -0.0660
  536MOL0     C73839   3.317   3.597   3.860  0.1175  0.1981  0.9246
  536MOL0     C73840   3.437   3.566   3.941  0.9433 -0.7478 -0.4488
  536MOL0     C73841   3.577   3.601   3.876 -0.5055  0.2571  0.0800
  536MOL0     C73842   3.689   3.567   3.979 -0.2111 -0.6502 -0.2332
  536MOL0     C73843   3.825   3.588   3.921 -0.7509  0.1886  0.0661
  536MOL0     C73844   3.878   3.481   3.818 -0.2912 -0.4494  0.0415
  536MOL0     C73845   3.999   3.551   3.750 -0.1187  0.4096  0.2094
  536MOL0     C73846   4.075   3.451   3.660 -0.4509 -0.1011  0.6088
  536MOL0     N73847   4.167   3.518   3.575  0.1327 -0.8598 -0.1435
  536MOL0     C73848   4.152   3.519   3.434 -0.3764 -0.0578 -0.1598
  536MOL0     C73849   4.268   3.562   3.397  0.7191 -0.1935  0.3460
  536MOL0     C73850   4.302   3.583   3.256  0.8748 -0.2476  0.1938
  536MOL0     C73851   4.413   3.486   3.223  0.3378  0.4394  0.2018
  536MOL0     C73852   4.463   3.491   3.078  0.3983 -0.3458 -0.0868
  536MOL0     C73853   4.586   3.398   3.045 -0.6014 -0.6563 -0.9795
  536MOL0     O73854   4.702   3.425   3.127 -0.5333 -1.0842  0.0112
  536MOL0     C73855   4.800   3.332   3.115 -0.0631  0.3045 -0.0876
  536MOL0     C73856   4.821   3.246   3.004  0.0546  1.2559  0.6303
  536MOL0     C73857   4.937   3.165   2.992  0.0062 -0.3233  0.3999
  536MOL0     C73858   4.946   3.085   2.862  0.3972 -0.2296 -0.2323
  536MOL0     C73859   5.033   3.167   3.098 -0.4737 -0.5535 -0.1708
  536MOL0     C73860   5.164   3.100   3.085  0.1026 -0.0556  0.8849
  536MOL0     O73861   5.164   2.978   3.037 -0.7345  0.1382 -0.4500
  536MOL0     C73862   5.281   2.920   3.002  0.1945 -0.2935 -0.2202
  536MOL0     C73863   5.339   2.813   3.081 -0.5662 -1.3041  0.5967
  536MOL0     C73864   5.454   2.755   3.039 -0.5833  0.2195  0.0850
  536MOL0     C73865   5.513   2.786   2.923 -0.3721  0.2828 -0.3583
  536MOL0     O73866   5.626   2.707   2.898 -0.2163  0.1237 -0.0274
  536MOL0     C73867   5.720   2.737   2.811 -0.1902 -1.0415  0.4541
  536MOL0     C73868   5.807   2.615   2.787  0.1710 -0.0244  0.1341
  536MOL0     C73869   5.929   2.654   2.707  0.0209 -0.0858  1.1056
  536MOL0     C73870   6.030   2.544   2.726 -0.5621  0.7618  0.0680
  536MOL0     C73871   6.176   2.575   2.693  0.2365 -0.8118  0.7623
  536MOL0     C73872   6.254   2.450   2.717  0.1971 -0.1739 -0.1303
  536MOL0     C73873   6.411   2.461   2.692  0.2926  0.3521 -0.4046
  536MOL0     C73874   6.477   2.570   2.778  0.6421  0.9078 -0.1156
  536MOL0    Cl73875   6.647   2.552   2.750  0.1667 -0.8243 -0.3401
  536MOL0     C73876   5.462   2.889   2.846  0.1334  0.0254 -0.1472
  536MOL0     C73877   5.341   2.963   2.880 -0.5481 -0.2326  0.7357
  536MOL0     O73878   5.263   3.165   3.123  0.0808  0.3423 -0.6745
  536MOL0     C73879   5.009   3.246   3.214  0.0477  0.7011  0.2204
  536MOL0     C73880   4.889   3.316   3.221 -0.7739  0.3682 -0.7623
  536MOL0     N73881   4.346   3.590   3.512  0.0930 -0.5618  0.8537
  536MOL0     N73882   4.286   3.564   3.618  0.0086  0.5050 -0.7133
  536MOL0     C73883   2.971   3.663   3.973  0.2265  0.1454  0.1173
  536MOL0     C73884   2.840   3.663   3.919 -0.5714  0.8317  0.2431
  536MOL0     C73885   2.509   3.475   3.673  0.2520  0.2941 -0.8531
  536MOL0     C73886   2.443   3.580   3.609  0.1325 -0.1749 -0.7910
  536MOL0     C73887   2.321   3.572   3.549 -0.1586 -0.2568 -0.1942
  536MOL0     C73888   2.257   3.449   3.565 -0.3926 -0.3392  0.0338
  536MOL0     O73889   2.134   3.431   3.512  0.4806 -0.2356 -0.0125
  536MOL0     C73890   2.106   3.496   3.387 -0.1536  0.6990  0.5947
  536MOL0     C73891   1.971   3.449   3.327 -0.3519  0.6050 -1.0177
  536MOL0     C73892   1.863   3.506   3.408 -0.5576  0.4313 -0.1960
  536MOL0     C73893   1.728   3.452   3.360  0.5770 -0.1378  0.5505
  536MOL0     C73894   1.696   3.315   3.401  0.1928 -0.4867 -0.2394
  536MOL0     C73895   1.689   3.203   3.432 -0.7012 -0.1585 -0.1360
  536MOL0     C73896   2.310   3.340   3.633 -0.7829  0.1603 -0.0885
  536MOL0     C73897   2.435   3.354   3.693 -0.1290  0.4478  0.2734
  536MOL0     C73898   2.493   3.242   3.780  0.4638  0.2074  0.0556
  536MOL0     H73899   2.927   3.658   3.598  3.0249 -1.5142 -0.6815
  536MOL0     H73900   3.143   3.681   3.677 -0.4396 -0.2687 -0.2787
  536MOL0     H73901   3.355   3.660   3.779  4.5549  0.2890  2.7812
  536MOL0     H73902   3.270   3.509   3.817 -1.6395  1.7961 -0.5914
  536MOL0     H73903   3.430   3.635   4.027  1.6966  0.2429 -1.1570
  536MOL0     H73904   3.436   3.462   3.972 -1.1848 -0.5745  0.2101
  536MOL0     H73905   3.592   3.543   3.785  1.2221  3.1209 -1.6365
  536MOL0     H73906   3.587   3.705   3.844  1.4616  0.6021  1.6015
  536MOL0     H73907   3.658   3.629   4.064 -0.8407  0.7822 -1.4495
  536MOL0     H73908   3.670   3.467   4.018  0.1809  0.0184  1.7783
  536MOL0     H73909   3.899   3.605   3.999  0.6820 -0.5350 -1.0907
  536MOL0     H73910   3.832   3.681   3.863  0.4396 -0.5476 -1.0490
  536MOL0     H73911   3.914   3.394   3.875 -0.4615  1.2272  2.8938
  536MOL0     H73912   3.800   3.464   3.744 -1.7947  0.0216  1.4708
  536MOL0     H73913   4.060   3.597   3.828 -2.4562  2.4107  0.9610
  536MOL0     H73914   3.963   3.636   3.691 -0.0988  0.7478  0.6830
  536MOL0     H73915   4.125   3.388   3.734  1.3682  0.9258  0.3337
  536MOL0     H73916   4.002   3.399   3.598  0.2612  0.1481 -0.4590
  536MOL0     H73917   4.073   3.481   3.371 -3.3023  2.5704  1.6307
  536MOL0     H73918   4.327   3.689   3.261  0.0171 -0.0975  2.3593
  536MOL0     H73919   4.212   3.574   3.195  0.8710  0.4477  0.0920
  536MOL0     H73920   4.499   3.517   3.284  1.4900 -0.2492 -1.0087
  536MOL0     H73921   4.391   3.382   3.249  0.7246  0.4594  0.6144
  536MOL0     H73922   4.386   3.459   3.006  1.6717 -0.3326 -1.4945
  536MOL0     H73923   4.484   3.594   3.048  1.4590 -0.7405 -0.7493
  536MOL0     H73924   4.559   3.292   3.056 -0.8055 -0.4936  0.2057
  536MOL0     H73925   4.619   3.409   2.941  0.9089  1.1788 -0.3676
  536MOL0     H73926   4.755   3.238   2.919  0.6325 -0.8188  0.3221
  536MOL0     H73927   5.019   3.130   2.795  1.2440 -0.9439  0.1832
  536MOL0     H73928   4.851   3.088   2.809 -1.0642 -1.4994  2.1283
  536MOL0     H73929   4.977   2.981   2.876 -1.6432 -0.7407  0.7989
  536MOL0     H73930   5.311   2.784   3.182 -1.7743  1.2999  1.1167
  536MOL0     H73931   5.497   2.675   3.098  1.0331  2.0397  1.5050
  536MOL0     H73932   5.671   2.752   2.714  1.6949 -0.6070 -0.4767
  536MOL0     H73933   5.784   2.820   2.842  0.2647 -1.6787  1.2659
  536MOL0     H73934   5.837   2.579   2.886  1.7037 -0.5273 -0.4851
  536MOL0     H73935   5.743   2.538   2.745 -1.9648  0.8029  1.6971
  536MOL0     H73936   5.971   2.751   2.737 -0.3558  0.3288  0.3302
  536MOL0     H73937   5.907   2.658   2.600 -0.3787 -1.0097  1.1414
  536MOL0     H73938   5.987   2.465   2.664 -2.4505  2.2043 -0.5766
  536MOL0     H73939   6.047   2.511   2.829  2.5764 -2.2686 -1.2470
  536MOL0     H73940   6.196   2.609   2.591  0.6271  1.9597  1.6989
  536MOL0     H73941   6.200   2.656   2.761  0.8764  2.4127 -2.9350
  536MOL0     H73942   6.213   2.375   2.649  2.5190 -1.7709  0.1102
  536MOL0     H73943   6.231   2.407   2.815  0.7650  1.3471  0.7099
  536MOL0     H73944   6.424   2.494   2.589  0.7567 -0.1932 -0.5258
  536MOL0     H73945   6.463   2.365   2.696  0.3002  0.3249 -1.1092
  536MOL0     H73946   6.466   2.548   2.885 -1.7695 -0.6028 -0.5832
  536MOL0     H73947   6.439   2.670   2.753 -1.5581  0.3033  0.5252
  536MOL0     H73948   5.508   2.901   2.749  3.9366  0.3539  1.4976
  536MOL0     H73949   5.314   3.046   2.816  1.7450  0.6944  0.8384
  536MOL0     H73950   5.079   3.232   3.295 -0.9332 -4.4921  0.5035
  536MOL0     H73951   4.880   3.384   3.306  2.3940  1.3519 -1.0766
  536MOL0     H73952   3.006   3.663   4.075  2.9914  1.6795 -0.7105
  536MOL0     H73953   2.751   3.651   3.980 -0.0765 -0.7042  0.7188
  536MOL0     H73954   2.480   3.682   3.600  0.0105  0.0297  0.7228
  536MOL0     H73955   2.272   3.659   3.507 -0.9492 -0.1499  0.8948
  536MOL0     H73956   2.089   3.604   3.397 -2.1685  0.6930 -1.7663
  536MOL0     H73957   2.191   3.485   3.318 -0.3889 -1.3198  0.5848
  536MOL0     H73958   1.977   3.340   3.322  0.7662  0.2891  3.4528
  536MOL0     H73959   1.959   3.492   3.227 -1.3628 -0.0983 -1.2113
  536MOL0     H73960   1.865   3.487   3.516  0.6457  0.1235 -0.2610
  536MOL0     H73961   1.846   3.614   3.396 -1.5593  0.3522  0.3786
  536MOL0     H73962   1.710   3.463   3.253 -2.1823 -1.8990  0.7496
  536MOL0     H73963   1.661   3.521   3.412  0.2789 -0.5502  0.7169
  536MOL0     H73964   1.684   3.101   3.465  0.4848 -0.2371 -0.1422
  536MOL0     H73965   2.253   3.248   3.645 -1.6717  0.5587 -1.1276
  536MOL0     H73966   2.582   3.203   3.730  1.5619 -0.0097  2.0679
  536MOL0     H73967   2.521   3.277   3.880  0.8758 -3.3826  1.3358
  536MOL0     H73968   2.428   3.157   3.803  0.7178  0.3290  1.2953
  537MOL0     O73969   2.568   5.399   1.607  0.1107 -0.7568 -0.4332
  537MOL0     C73970   2.485   5.485   1.567 -0.1218 -0.0699 -0.3823
  537MOL0     O73971   2.526   5.605   1.509  0.0320  0.5887  0.6937
  537MOL0     C73972   2.656   5.627   1.482  0.3676  0.7308  0.8986
  537MOL0     C73973   2.704   5.638   1.350  0.0071  0.1048  0.2660
  537MOL0     C73974   2.824   5.693   1.314  0.6196  0.3283 -0.5435
  537MOL0     C73975   2.907   5.732   1.422 -0.1735 -0.8154  0.4974
  537MOL0     O73976   3.024   5.789   1.383  0.2652  0.0361  0.7408
  537MOL0     C73977   3.124   5.834   1.479  0.4007  0.2302  0.4787
  537MOL0     C73978   3.255   5.878   1.412 -0.1670  0.8884  0.1231
  537MOL0     C73979   3.251   6.000   1.321  0.0922  0.2353 -0.7141
  537MOL0     C73980   3.393   6.055   1.307  0.3053 -0.3639  0.2430
  537MOL0     C73981   3.389   6.176   1.214  0.2636 -0.1842 -0.2600
  537MOL0     C73982   3.514   6.258   1.236  0.1891 -0.5593 -0.3326
  537MOL0     C73983   3.651   6.174   1.233  0.1219  0.5266 -0.8037
  537MOL0     C73984   3.761   6.267   1.180  0.4965 -0.3039  0.3499
  537MOL0     N73985   3.899   6.225   1.190  0.2065  0.6659 -0.7099
  537MOL0     C73986   3.962   6.149   1.097  0.0357 -0.0071  0.0932
  537MOL0     C73987   4.087   6.124   1.138  0.0109  0.6873  0.0453
  537MOL0     C73988   4.187   6.039   1.070  0.3059  0.2871  1.3952
  537MOL0     C73989   4.325   6.052   1.122  0.6436  0.1251  0.6072
  537MOL0     C73990   4.424   5.970   1.039  0.1267  0.1761  0.7642
  537MOL0     C73991   4.561   6.004   1.074  0.1808  0.5613 -1.1203
  537MOL0     O73992   4.618   6.130   1.047 -0.1067 -0.1268 -0.5609
  537MOL0     C73993   4.752   6.151   1.067 -0.4025 -0.9286 -0.2545
  537MOL0     C73994   4.816   6.236   0.980  0.4300 -0.8186  0.0154
  537MOL0     C73995   4.942   6.289   0.999 -0.5009  0.3060 -0.1766
  537MOL0     C73996   4.977   6.406   0.899  0.1212  0.5436 -1.0098
  537MOL0     C73997   5.026   6.236   1.103 -0.5707  0.1524 -1.0289
  537MOL0     C73998   5.159   6.290   1.118  0.5228  0.4342  0.1033
  537MOL0     O73999   5.246   6.184   1.164  0.4447 -1.3006 -0.3884
  537MOL0     C74000   5.375   6.226   1.195  0.4780 -0.2240 -0.1728
  537MOL0     C74001   5.403   6.290   1.319  0.4735  1.5985 -0.4212
  537MOL0     C74002   5.538   6.327   1.338  0.0436  0.3575 -0.0648
  537MOL0     C74003   5.644   6.302   1.250  0.5768  0.3981  0.3137
  537MOL0     O74004   5.764   6.356   1.273  0.6335 -0.0408 -0.2101
  537MOL0     C74005   5.880   6.316   1.194  0.2731 -0.5140 -0.3523
  537MOL0     C74006   6.009   6.381   1.260  0.2280 -0.0448  0.1600
  537MOL0     C74007   6.144   6.356   1.189 -0.3502 -1.3359  0.4430
  537MOL0     C74008   6.259   6.426   1.261  0.7845 -0.2733 -0.0307
  537MOL0     C74009   6.389   6.403   1.184  0.4488 -0.4884 -0.2920
  537MOL0     C74010   6.502   6.457   1.270 -0.2173 -0.3307  0.8796
  537MOL0     C74011   6.631   6.413   1.218 -0.2729  0.6745 -0.3435
  537MOL0     C74012   6.735   6.479   1.301 -0.6177 -0.1157  0.0077
  537MOL0    Cl74013   6.721   6.442   1.477 -0.3817  0.3193  0.5830
  537MOL0     C74014   5.610   6.248   1.126  0.3564 -0.9831 -0.4951
  537MOL0     C74015   5.471   6.215   1.098 -0.6993  0.1612 -0.2132
  537MOL0     O74016   5.180   6.407   1.105 -0.0084 -0.0815  0.2578
  537MOL0     C74017   4.968   6.138   1.190  0.5891  0.5545 -0.6026
  537MOL0     C74018   4.830   6.097   1.177  0.4534 -0.2245 -0.1816
  537MOL0     N74019   4.100   6.187   1.263 -0.1736  0.3305  0.0291
  537MOL0     N74020   3.989   6.230   1.296  0.3313 -0.0479 -0.0388
  537MOL0     C74021   2.873   5.712   1.559  0.6743 -0.0260  0.6952
  537MOL0     C74022   2.742   5.660   1.588 -0.1444  1.0692 -0.0944
  537MOL0     C74023   2.334   5.468   1.576  0.3751  0.1423 -0.3657
  537MOL0     C74024   2.287   5.351   1.632  0.0913 -0.1732 -0.0321
  537MOL0     C74025   2.146   5.314   1.632 -0.7149  0.3234 -0.0960
  537MOL0     C74026   2.052   5.412   1.590 -0.0429 -0.1960  0.0837
  537MOL0     O74027   1.921   5.378   1.604  0.9264  0.1932  0.1022
  537MOL0     C74028   1.891   5.263   1.519 -0.1677  0.1855 -0.6543
  537MOL0     C74029   1.742   5.232   1.534  0.1788  0.6878 -0.5776
  537MOL0     C74030   1.691   5.117   1.451 -0.6053 -0.4895 -0.4704
  537MOL0     C74031   1.539   5.115   1.441 -0.7779 -1.1189  0.0776
  537MOL0     C74032   1.489   5.018   1.346  0.2814  0.1645  0.3990
  537MOL0     C74033   1.444   4.935   1.267 -0.0287 -0.4531  0.5437
  537MOL0     C74034   2.096   5.530   1.544  0.5018 -0.5514  0.4557
  537MOL0     C74035   2.235   5.561   1.525 -1.0154  0.9541 -0.9048
  537MOL0     C74036   2.264   5.694   1.482 -0.6796 -0.4167  0.4885
  537MOL0     H74037   2.643   5.598   1.269 -1.7080  1.4085  0.8652
  537MOL0     H74038   2.863   5.685   1.213  3.7509 -1.5965  0.6432
  537MOL0     H74039   3.154   5.757   1.550 -1.0848 -2.0880 -1.2499
  537MOL0     H74040   3.093   5.917   1.542  0.8738 -0.5022  1.7166
  537MOL0     H74041   3.335   5.898   1.485  1.0774 -0.2058 -0.8838
  537MOL0     H74042   3.291   5.798   1.347 -0.3799  1.0546 -0.1974
  537MOL0     H74043   3.208   5.971   1.225 -0.9449  1.9275 -0.8035
  537MOL0     H74044   3.179   6.076   1.354 -1.7670 -1.8816  0.3603
  537MOL0     H74045   3.435   6.084   1.404 -0.0844  0.6824  0.1152
  537MOL0     H74046   3.455   5.981   1.256 -0.8284  0.1925 -2.0849
  537MOL0     H74047   3.308   6.242   1.249  1.4500  1.4843 -0.5360
  537MOL0     H74048   3.384   6.146   1.110  1.0982  2.9313 -1.3242
  537MOL0     H74049   3.509   6.334   1.157 -0.0190  0.2131  0.4092
  537MOL0     H74050   3.515   6.312   1.331  0.4018  1.4613 -1.4210
  537MOL0     H74051   3.637   6.089   1.166  0.0413 -1.7270  1.9107
  537MOL0     H74052   3.685   6.143   1.332 -0.2723  2.2712 -0.0714
  537MOL0     H74053   3.736   6.294   1.077 -1.4053 -2.4931  0.1780
  537MOL0     H74054   3.745   6.363   1.231  1.1077  0.4474 -0.8263
  537MOL0     H74055   3.917   6.104   1.009 -0.8679 -1.6083  1.2955
  537MOL0     H74056   4.181   6.068   0.964 -0.7250 -0.3851  1.2529
  537MOL0     H74057   4.149   5.936   1.073  1.4154 -0.2082 -0.1099
  537MOL0     H74058   4.354   6.156   1.103  0.8226  0.0482  0.4521
  537MOL0     H74059   4.344   6.034   1.228  2.3708 -0.6677  0.2035
  537MOL0     H74060   4.402   5.863   1.051  1.3971 -0.3550 -1.2114
  537MOL0     H74061   4.406   5.979   0.932  1.4840 -1.4496  0.3448
  537MOL0     H74062   4.567   5.970   1.178 -1.6182 -5.1869 -2.5345
  537MOL0     H74063   4.628   5.933   1.024  0.8705  1.7904 -1.9736
  537MOL0     H74064   4.759   6.287   0.903  3.0401  0.6682 -1.0637
  537MOL0     H74065   5.075   6.388   0.855  0.1184 -0.1401 -0.7567
  537MOL0     H74066   4.977   6.499   0.957 -0.8296  0.9529 -1.6401
  537MOL0     H74067   4.903   6.427   0.822 -0.9423  2.0403  0.3480
  537MOL0     H74068   5.329   6.314   1.395 -0.7469 -0.4632 -0.8877
  537MOL0     H74069   5.572   6.359   1.436  0.8087 -0.3426 -0.0863
  537MOL0     H74070   5.884   6.209   1.175 -1.1380 -0.2585 -2.3890
  537MOL0     H74071   5.868   6.348   1.090 -1.7417 -1.8144 -0.5697
  537MOL0     H74072   6.003   6.489   1.277 -0.9439  0.2363 -1.7221
  537MOL0     H74073   6.018   6.340   1.360 -0.0446  1.3791  0.7998
  537MOL0     H74074   6.146   6.393   1.087  0.2703  0.4191  1.0476
  537MOL0     H74075   6.168   6.249   1.189  1.4641 -0.9680  0.0623
  537MOL0     H74076   6.281   6.382   1.358  1.0658  1.3568  0.6873
  537MOL0     H74077   6.235   6.532   1.273 -0.8393 -0.6712  0.4106
  537MOL0     H74078   6.407   6.298   1.159  0.0442 -0.6187 -0.0340
  537MOL0     H74079   6.384   6.461   1.091 -1.1615  2.1015  1.3209
  537MOL0     H74080   6.495   6.421   1.373  1.5121  0.0194  1.1615
  537MOL0     H74081   6.507   6.565   1.282  2.6419 -0.6598  4.2399
  537MOL0     H74082   6.641   6.448   1.115 -1.6115  2.8744  0.1899
  537MOL0     H74083   6.649   6.307   1.238  0.2624  1.1873  2.3979
  537MOL0     H74084   6.718   6.585   1.281  3.7436  0.7647  0.0371
  537MOL0     H74085   6.834   6.454   1.263 -0.0565  2.2228 -0.1718
  537MOL0     H74086   5.683   6.238   1.047 -1.7290 -0.2970 -2.6464
  537MOL0     H74087   5.431   6.192   0.999 -1.9610  0.0560  0.2943
  537MOL0     H74088   5.028   6.097   1.271 -0.0035 -1.8664 -1.2926
  537MOL0     H74089   4.791   6.016   1.237 -1.2996 -1.2456 -2.5457
  537MOL0     H74090   2.927   5.754   1.644  1.7886  0.2996 -0.1539
  537MOL0     H74091   2.710   5.656   1.691  1.3457  0.8894  0.3777
  537MOL0     H74092   2.360   5.287   1.680 -0.7739 -0.4931  0.8996
  537MOL0     H74093   2.118   5.221   1.680  0.8101 -0.9582 -1.5761
  537MOL0     H74094   1.907   5.282   1.412  0.5816  1.3146 -0.3658
  537MOL0     H74095   1.948   5.177   1.555 -2.5301 -0.6362  1.4054
  537MOL0     H74096   1.683   5.315   1.493  1.1998  1.0504 -1.3486
  537MOL0     H74097   1.719   5.205   1.638  1.3391 -0.4863 -0.6094
  537MOL0     H74098   1.725   5.129   1.348  0.7409  1.2389  0.1296
  537MOL0     H74099   1.739   5.030   1.497  1.1790  2.2064  3.2367
  537MOL0     H74100   1.499   5.213   1.412  1.3482 -0.1859  0.1066
  537MOL0     H74101   1.496   5.096   1.540  2.1243 -2.8483  1.0982
  537MOL0     H74102   1.412   4.862   1.195  1.0517 -0.7487  0.3450
  537MOL0     H74103   2.028   5.605   1.505  0.1287  0.6563  3.1565
  537MOL0     H74104   2.298   5.686   1.378 -1.6224 -3.1996  0.3268
  537MOL0     H74105   2.174   5.756   1.480  0.3583  1.1826  1.2852
  537MOL0     H74106   2.334   5.733   1.557  1.4725 -4.7884  1.0750
  538MOL0     O74107   9.931   4.444   4.203  0.7147  0.8653 -0.1302
  538MOL0     C74108   9.905   4.334   4.242 -0.3965 -0.4560  0.7440
  538MOL0     O74109   9.977   4.255   4.327  0.6420 -0.6335  0.4680
  538MOL0     C74110  10.094   4.301   4.379  0.2980  0.7982  0.1280
  538MOL0     C74111  10.213   4.229   4.351 -0.3939  0.1668  0.4753
  538MOL0     C74112  10.337   4.281   4.395 -0.3190 -0.7194 -0.0430
  538MOL0     C74113  10.340   4.400   4.468  0.1797  0.2423  0.1793
  538MOL0     O74114  10.462   4.440   4.524  0.0142  0.2050  0.4665
  538MOL0     C74115  10.459   4.544   4.627 -0.3585  0.2143  0.6540
  538MOL0     C74116  10.590   4.556   4.707  0.0930 -0.1359 -0.4297
  538MOL0     C74117  10.710   4.578   4.614  0.2084  1.2807  0.3629
  538MOL0     C74118  10.835   4.627   4.687  0.5631 -0.5924  1.1452
  538MOL0     C74119  10.956   4.582   4.612  0.2028  0.8925 -0.2278
  538MOL0     C74120  11.080   4.647   4.686  0.2324 -0.9427  0.7102
  538MOL0     C74121  11.211   4.602   4.613  0.5090  0.3461 -0.8106
  538MOL0     C74122  11.330   4.685   4.665 -0.4742  0.2480 -0.7687
  538MOL0     N74123  11.447   4.672   4.577  0.3530  0.0125 -0.3387
  538MOL0     C74124  11.496   4.556   4.513  0.1157 -0.1017 -0.1952
  538MOL0     C74125  11.591   4.592   4.422 -0.1303 -1.4714 -0.6901
  538MOL0     C74126  11.678   4.506   4.344 -0.0030 -0.0076  0.1201
  538MOL0     C74127  11.791   4.444   4.431  0.6182  0.1058  0.1896
  538MOL0     C74128  11.905   4.542   4.428  0.5045 -0.2576  0.0471
  538MOL0     C74129  12.000   4.520   4.312  0.4129 -0.6989 -0.7396
  538MOL0     O74130  12.100   4.423   4.342 -0.2928  0.2580 -0.5814
  538MOL0     C74131  12.219   4.470   4.396  0.3079 -0.3288 -0.5977
  538MOL0     C74132  12.325   4.386   4.394 -0.4929 -0.2216  0.0115
  538MOL0     C74133  12.446   4.422   4.449 -1.1669 -0.6230 -0.8824
  538MOL0     C74134  12.550   4.317   4.442 -0.9172 -0.0324  0.7842
  538MOL0     C74135  12.471   4.554   4.492  0.2558 -0.7918 -0.6317
  538MOL0     C74136  12.600   4.585   4.527 -0.5999 -0.4226 -0.0602
  538MOL0     O74137  12.662   4.688   4.457 -0.1360  0.5778  0.2314
  538MOL0     C74138  12.789   4.724   4.493 -0.1573  0.4348 -0.3585
  538MOL0     C74139  12.813   4.858   4.512 -0.5334 -0.2238  0.5075
  538MOL0     C74140  12.943   4.898   4.510 -0.4089 -0.1386  0.2796
  538MOL0     C74141  13.055   4.811   4.497 -0.5079 -0.8939 -0.5064
  538MOL0     O74142  13.181   4.866   4.505  0.7503 -0.6044 -0.2202
  538MOL0     C74143  13.286   4.768   4.495 -0.3741 -0.9585  0.6430
  538MOL0     C74144  13.412   4.842   4.546 -0.4325  1.2830 -0.2126
  538MOL0     C74145  13.401   4.923   4.679 -0.2028  0.6929  0.2088
  538MOL0     C74146  13.531   4.920   4.756 -0.7795 -0.7566 -0.5509
  538MOL0     C74147  13.517   4.991   4.890 -0.8719  0.0834 -0.0606
  538MOL0     C74148  13.478   5.142   4.887  0.0843  0.4803 -0.1555
  538MOL0     C74149  13.496   5.198   5.034 -0.1904 -0.2638 -0.0511
  538MOL0     C74150  13.512   5.350   5.019 -0.2139 -0.5773 -0.0249
  538MOL0    Cl74151  13.540   5.429   5.181 -0.0850 -0.3574  0.0378
  538MOL0     C74152  13.025   4.683   4.470 -0.0595 -0.4074  0.2857
  538MOL0     C74153  12.896   4.637   4.467  1.2857  0.6345  0.2659
  538MOL0     O74154  12.654   4.530   4.621 -0.8356  0.4453  0.1116
  538MOL0     C74155  12.370   4.648   4.493  0.3423 -0.1502  0.3073
  538MOL0     C74156  12.244   4.603   4.443 -0.2647  0.3101 -0.6331
  538MOL0     N74157  11.607   4.727   4.436  0.2095 -0.0398 -0.5354
  538MOL0     N74158  11.525   4.771   4.522  0.0737 -0.6652  0.0203
  538MOL0     C74159  10.220   4.470   4.491  0.0079 -0.0081 -0.5433
  538MOL0     C74160  10.099   4.418   4.450  0.2192  0.5789  0.3488
  538MOL0     C74161   9.769   4.285   4.209 -0.4093  0.4468  0.2846
  538MOL0     C74162   9.672   4.278   4.306 -0.8772  0.1172  0.1799
  538MOL0     C74163   9.546   4.215   4.277  0.1064 -0.5972 -0.0680
  538MOL0     C74164   9.520   4.164   4.152 -0.9665 -0.8443 -0.1490
  538MOL0     O74165   9.410   4.098   4.115 -0.0526 -0.1554 -0.3674
  538MOL0     C74166   9.313   4.063   4.211  0.1798  0.7315  0.0425
  538MOL0     C74167   9.206   3.988   4.138 -0.2863  0.0419 -0.1292
  538MOL0     C74168   9.254   3.864   4.062  0.2178  0.2485  0.2519
  538MOL0     C74169   9.133   3.777   4.036  0.6546 -0.7322  0.3078
  538MOL0     C74170   9.157   3.642   3.991 -0.1214  0.0587 -0.4804
  538MOL0     C74171   9.199   3.540   3.952  0.3734  0.3629  0.1139
  538MOL0     C74172   9.622   4.169   4.060 -0.0995 -0.6599  0.0614
  538MOL0     C74173   9.742   4.236   4.077 -0.3784 -1.0295 -0.6119
  538MOL0     C74174   9.842   4.242   3.958 -0.4861 -0.4044  0.4321
  538MOL0     H74175  10.221   4.139   4.292  0.9746  0.7390 -0.2441
  538MOL0     H74176  10.434   4.232   4.393  0.7730  1.1215  2.4429
  538MOL0     H74177  10.382   4.517   4.701 -1.7102 -0.4584 -0.9272
  538MOL0     H74178  10.438   4.640   4.580 -3.5497 -1.3797 -1.5813
  538MOL0     H74179  10.580   4.647   4.767 -0.2302 -1.1905  1.1786
  538MOL0     H74180  10.601   4.463   4.764  2.4983 -0.1944 -0.8849
  538MOL0     H74181  10.736   4.486   4.560 -0.8910  0.3894  1.2948
  538MOL0     H74182  10.678   4.650   4.538 -0.3422 -1.5952 -2.3786
  538MOL0     H74183  10.824   4.735   4.698 -0.6337 -0.3370 -1.6760
  538MOL0     H74184  10.848   4.591   4.789  1.3793  0.3643  1.3886
  538MOL0     H74185  10.945   4.615   4.508 -1.1753  1.1439 -0.0233
  538MOL0     H74186  10.971   4.474   4.617 -0.6872  0.8234  1.5058
  538MOL0     H74187  11.072   4.753   4.660  0.2302 -1.3358 -1.0082
  538MOL0     H74188  11.076   4.616   4.791 -0.9909 -2.2386  0.3129
  538MOL0     H74189  11.195   4.610   4.505 -1.1064  1.1910 -0.5427
  538MOL0     H74190  11.237   4.497   4.624 -0.7250 -0.3609 -3.7524
  538MOL0     H74191  11.306   4.790   4.687  1.2655  0.2930  1.1555
  538MOL0     H74192  11.376   4.647   4.756  1.8774  3.2856 -0.5349
  538MOL0     H74193  11.462   4.454   4.530  0.6189 -0.3469 -0.6372
  538MOL0     H74194  11.707   4.561   4.254 -0.6691 -1.5445 -1.0887
  538MOL0     H74195  11.610   4.431   4.302 -0.6052 -0.3262  1.5784
  538MOL0     H74196  11.754   4.434   4.534 -0.0011 -2.9388 -0.2343
  538MOL0     H74197  11.819   4.344   4.399 -0.2395  0.1055 -0.5884
  538MOL0     H74198  11.879   4.647   4.412 -0.0401 -0.3575  0.2848
  538MOL0     H74199  11.953   4.536   4.526 -1.4722 -1.1932  1.0128
  538MOL0     H74200  11.936   4.498   4.225 -2.0335 -0.0471  0.8160
  538MOL0     H74201  12.037   4.621   4.296 -0.9847 -0.0456  0.0192
  538MOL0     H74202  12.314   4.283   4.360 -0.7392 -0.4650  0.7989
  538MOL0     H74203  12.651   4.354   4.424 -0.2479 -2.3101 -0.5471
  538MOL0     H74204  12.536   4.258   4.351  1.4954  2.4742 -1.3723
  538MOL0     H74205  12.558   4.252   4.529 -3.5310 -1.8737 -0.2147
  538MOL0     H74206  12.742   4.939   4.519  0.0698  0.3739 -0.0763
  538MOL0     H74207  12.956   5.005   4.517 -3.3702  0.6999 -3.3442
  538MOL0     H74208  13.275   4.688   4.569  0.2147 -1.9929 -0.3498
  538MOL0     H74209  13.304   4.722   4.398  0.3012 -0.1722  0.3842
  538MOL0     H74210  13.496   4.772   4.555 -0.2450  1.2695 -1.7201
  538MOL0     H74211  13.436   4.922   4.476 -0.1102  2.4475  1.1806
  538MOL0     H74212  13.327   4.868   4.736  0.1292 -2.6011 -2.2218
  538MOL0     H74213  13.369   5.024   4.653 -3.3643 -0.4982 -1.0406
  538MOL0     H74214  13.618   4.962   4.704  0.4073 -2.3065  0.0933
  538MOL0     H74215  13.555   4.816   4.781  0.7612  0.0616  1.6590
  538MOL0     H74216  13.434   4.941   4.939  0.7993 -1.1099  1.7269
  538MOL0     H74217  13.602   4.977   4.958 -0.8726 -0.7391 -0.2178
  538MOL0     H74218  13.375   5.156   4.852  0.3179  0.8014 -0.7360
  538MOL0     H74219  13.540   5.199   4.817  1.7675 -1.6191 -0.5105
  538MOL0     H74220  13.592   5.171   5.078 -0.1201 -0.9756 -0.6283
  538MOL0     H74221  13.409   5.171   5.094 -0.8534  0.1403 -0.8110
  538MOL0     H74222  13.424   5.387   4.965  0.0872 -2.3432 -1.8838
  538MOL0     H74223  13.595   5.363   4.950 -0.4854 -0.0562 -0.2536
  538MOL0     H74224  13.101   4.611   4.445  1.3372  0.3974  1.9655
  538MOL0     H74225  12.878   4.541   4.419  2.2522  1.7416 -2.5010
  538MOL0     H74226  12.397   4.751   4.515  1.0465 -0.2692  0.0172
  538MOL0     H74227  12.164   4.672   4.465  0.1747  0.3355  1.0258
  538MOL0     H74228  10.228   4.558   4.554  2.3450 -1.0475  0.7606
  538MOL0     H74229  10.010   4.477   4.472  0.6633  2.4289 -2.2795
  538MOL0     H74230   9.685   4.309   4.409  2.1401  0.1004 -0.0843
  538MOL0     H74231   9.479   4.217   4.363  0.1392  0.5721 -0.0458
  538MOL0     H74232   9.358   4.008   4.294  2.9407 -2.9160 -3.4765
  538MOL0     H74233   9.275   4.158   4.251  0.9188  1.3634 -0.7056
  538MOL0     H74234   9.141   4.055   4.080 -0.5250  0.6892  0.8561
  538MOL0     H74235   9.132   3.964   4.215  1.8790  2.2952  2.8787
  538MOL0     H74236   9.306   3.882   3.968 -1.3729  3.2719 -0.1695
  538MOL0     H74237   9.321   3.817   4.135  1.2244  0.2695 -0.6346
  538MOL0     H74238   9.081   3.817   3.948  2.0238 -1.3774 -0.8310
  538MOL0     H74239   9.071   3.782   4.126 -2.3155  0.8876 -1.6595
  538MOL0     H74240   9.242   3.456   3.901 -0.2475  0.4910 -0.6251
  538MOL0     H74241   9.605   4.126   3.962 -0.2843  1.0398 -0.6802
  538MOL0     H74242   9.946   4.228   3.991 -1.2814 -2.9011  2.1547
  538MOL0     H74243   9.822   4.159   3.890 -0.8684  0.1839 -0.1845
  538MOL0     H74244   9.835   4.341   3.912  1.9656  0.6754  2.1570
  539MOL0     O74245   4.874   7.110   8.728  1.0303  0.5943 -0.2159
  539MOL0     C74246   4.787   7.025   8.754 -0.8394  1.0253  0.4264
  539MOL0     O74247   4.807   6.891   8.769  0.0831 -0.7554  0.0431
  539MOL0     C74248   4.929   6.828   8.738  0.2065  0.7623 -1.0878
  539MOL0     C74249   4.924   6.694   8.680  0.7086  0.0511 -0.3381
  539MOL0     C74250   5.048   6.634   8.659 -0.0160  0.1364  0.4885
  539MOL0     C74251   5.169   6.688   8.701 -0.4795  0.0036 -0.4875
  539MOL0     O74252   5.296   6.630   8.681  0.4129  0.4867  0.2026
  539MOL0     C74253   5.306   6.507   8.611 -0.4661 -0.2003  0.0761
  539MOL0     C74254   5.451   6.447   8.634  0.5983 -1.0038  0.7143
  539MOL0     C74255   5.460   6.294   8.648 -0.3167  0.0134 -0.4969
  539MOL0     C74256   5.595   6.243   8.677 -0.3070 -0.2357 -0.0605
  539MOL0     C74257   5.606   6.093   8.658 -0.5786  0.3415  0.4870
  539MOL0     C74258   5.752   6.042   8.644 -0.2515  0.2019 -0.3990
  539MOL0     C74259   5.841   6.090   8.525  0.5258 -0.2777 -0.2977
  539MOL0     C74260   5.960   6.010   8.512  0.8356 -0.5713  0.1603
  539MOL0     N74261   6.066   6.040   8.607  0.8923 -0.2444  0.7423
  539MOL0     C74262   6.155   6.155   8.595  1.3791 -0.4909 -0.2854
  539MOL0     C74263   6.256   6.116   8.668  0.2964  0.4846 -0.7058
  539MOL0     C74264   6.384   6.185   8.699  0.3127 -0.1426  0.7515
  539MOL0     C74265   6.490   6.195   8.579  0.4539 -0.6474  1.2491
  539MOL0     C74266   6.521   6.061   8.511 -1.0592  0.2785  0.0262
  539MOL0     C74267   6.564   5.947   8.596 -0.7123 -0.9141 -0.5628
  539MOL0     O74268   6.667   5.998   8.681 -0.1975  0.3360 -0.2167
  539MOL0     C74269   6.734   5.900   8.753  0.1968  0.4264 -0.0924
  539MOL0     C74270   6.848   5.931   8.821  0.4701 -0.1251 -0.7371
  539MOL0     C74271   6.915   5.850   8.914  0.0994  0.2083  0.7757
  539MOL0     C74272   7.032   5.915   8.983 -0.4489 -0.0459 -0.1566
  539MOL0     C74273   6.875   5.711   8.931 -0.7356 -0.3716  0.3396
  539MOL0     C74274   6.945   5.611   9.011 -0.0591  0.0504  1.3498
  539MOL0     O74275   6.977   5.641   9.138  0.5249  0.7944 -0.2288
  539MOL0     C74276   7.058   5.549   9.205  0.0383  0.2055  0.4216
  539MOL0     C74277   7.002   5.456   9.284  0.1044  0.6247 -0.1497
  539MOL0     C74278   7.076   5.359   9.354  0.1603 -0.6651 -0.2225
  539MOL0     C74279   7.221   5.359   9.355  0.4874  0.5645 -0.2401
  539MOL0     O74280   7.294   5.275   9.439  0.1401  0.8083 -0.2917
  539MOL0     C74281   7.238   5.216   9.556  0.1378  0.3508  1.1669
  539MOL0     C74282   7.349   5.167   9.652 -0.1725 -0.5858  0.5555
  539MOL0     C74283   7.303   5.117   9.792 -0.4024 -0.2262 -0.0208
  539MOL0     C74284   7.423   5.126   9.878 -0.6381  0.4496 -0.2397
  539MOL0     C74285   7.390   5.064  10.015 -0.2277  0.7764 -0.1292
  539MOL0     C74286   7.513   5.081  10.108  0.2442  1.3232 -0.0678
  539MOL0     C74287   7.538   4.973  10.216 -0.3137 -0.6566 -0.5972
  539MOL0     C74288   7.596   5.037  10.345 -0.4729  0.6917  0.6812
  539MOL0    Cl74289   7.482   5.127  10.454 -0.0318 -0.4223  0.5416
  539MOL0     C74290   7.278   5.454   9.270  0.6890  0.1514 -0.0263
  539MOL0     C74291   7.199   5.553   9.196  0.3164  0.6578  0.7726
  539MOL0     O74292   6.964   5.507   8.955  0.6239 -0.1225 -0.3960
  539MOL0     C74293   6.760   5.677   8.852  0.2051  0.8318 -0.6560
  539MOL0     C74294   6.686   5.766   8.768  0.4828  0.2391  0.2900
  539MOL0     N74295   6.228   5.993   8.728 -0.1398  0.2378 -1.0972
  539MOL0     N74296   6.112   5.953   8.695 -0.8931 -0.1170  1.1854
  539MOL0     C74297   5.172   6.812   8.764  0.1014 -0.0160 -0.6129
  539MOL0     C74298   5.054   6.886   8.775 -0.0477 -0.2392  0.1441
  539MOL0     C74299   4.642   7.067   8.762 -0.2576  0.0307 -0.4697
  539MOL0     C74300   4.617   7.204   8.788 -0.4997  0.5047  0.2207
  539MOL0     C74301   4.485   7.246   8.811 -0.9331  0.0689  0.6519
  539MOL0     C74302   4.377   7.155   8.795 -0.2582 -0.1537  0.5203
  539MOL0     O74303   4.246   7.185   8.806  0.1336  0.1052  0.0587
  539MOL0     C74304   4.208   7.321   8.793 -0.2672 -0.4368  0.0345
  539MOL0     C74305   4.062   7.342   8.793  0.0937 -0.1853 -0.9135
  539MOL0     C74306   4.006   7.321   8.649  0.5005 -1.1291 -0.3156
  539MOL0     C74307   3.976   7.173   8.628  0.5288 -0.3251  0.5401
  539MOL0     C74308   3.840   7.127   8.660 -0.2364 -0.5648 -0.2500
  539MOL0     C74309   3.729   7.080   8.686  0.6681  0.4603  0.3523
  539MOL0     C74310   4.399   7.028   8.765 -0.5047 -0.3290 -0.7471
  539MOL0     C74311   4.529   6.983   8.759  0.1421  0.4633 -0.1866
  539MOL0     C74312   4.540   6.835   8.755  0.6369  0.1111  0.0182
  539MOL0     H74313   4.832   6.638   8.663 -0.7958  2.1603  0.3758
  539MOL0     H74314   5.044   6.538   8.609  0.1072 -1.0634  2.6538
  539MOL0     H74315   5.288   6.544   8.510  2.1569  2.0232  0.3099
  539MOL0     H74316   5.228   6.439   8.647 -1.6753  0.0826 -1.8812
  539MOL0     H74317   5.514   6.485   8.553  1.7514  1.4339  2.6163
  539MOL0     H74318   5.496   6.490   8.724  1.0391 -0.8112  0.3983
  539MOL0     H74319   5.406   6.265   8.738  1.0378 -0.2319  0.2616
  539MOL0     H74320   5.423   6.245   8.558 -0.2731 -0.1874 -0.4035
  539MOL0     H74321   5.665   6.294   8.611 -0.1032  2.1715  1.8779
  539MOL0     H74322   5.629   6.264   8.779 -0.0674 -2.2585  0.3279
  539MOL0     H74323   5.548   6.060   8.570 -1.1793  0.7981  0.7071
  539MOL0     H74324   5.578   6.030   8.743  0.7134 -0.3858  0.4025
  539MOL0     H74325   5.801   6.085   8.731  0.7789  0.6736 -1.1921
  539MOL0     H74326   5.759   5.933   8.640  0.1203  0.2579 -2.4395
  539MOL0     H74327   5.879   6.192   8.537  1.7564 -0.7742  0.1761
  539MOL0     H74328   5.786   6.084   8.430 -3.1448  4.1899  1.1697
  539MOL0     H74329   5.927   5.906   8.525 -1.7294 -0.1292 -1.9748
  539MOL0     H74330   6.000   6.017   8.411 -1.3881  0.1546 -0.7298
  539MOL0     H74331   6.129   6.256   8.567 -3.0589 -0.6241  2.5167
  539MOL0     H74332   6.429   6.138   8.787 -0.1713 -1.4596  0.3149
  539MOL0     H74333   6.362   6.289   8.727 -1.3579 -0.4209  0.5573
  539MOL0     H74334   6.435   6.261   8.511  2.4012 -0.1591  0.0859
  539MOL0     H74335   6.581   6.248   8.606 -0.6172  2.3359 -0.4808
  539MOL0     H74336   6.432   6.028   8.458 -1.0697 -1.5426  1.1168
  539MOL0     H74337   6.602   6.076   8.439  0.1185 -2.4457  0.6777
  539MOL0     H74338   6.479   5.896   8.642 -1.7421  0.2117 -1.1351
  539MOL0     H74339   6.605   5.873   8.527 -1.1215 -0.6209 -1.1373
  539MOL0     H74340   6.880   6.030   8.791  1.9173 -0.4703 -0.3935
  539MOL0     H74341   7.097   5.961   8.908 -3.5361 -0.7340 -3.5721
  539MOL0     H74342   7.093   5.841   9.035  0.7426  1.1593  0.2077
  539MOL0     H74343   6.994   5.991   9.052  2.0568  1.7598 -0.6434
  539MOL0     H74344   6.895   5.443   9.283  0.0807  0.8256 -0.5928
  539MOL0     H74345   7.015   5.304   9.424 -0.7866 -1.3873 -1.5926
  539MOL0     H74346   7.179   5.286   9.616 -1.7951  0.4557 -0.7605
  539MOL0     H74347   7.179   5.130   9.526  1.1479 -0.6403  1.9430
  539MOL0     H74348   7.421   5.092   9.618  0.4125  1.5186 -3.5735
  539MOL0     H74349   7.408   5.257   9.669  1.7189 -1.7145  0.3018
  539MOL0     H74350   7.272   5.012   9.786  0.5877 -0.4627 -1.7625
  539MOL0     H74351   7.230   5.184   9.838 -0.8465 -1.8833  1.8180
  539MOL0     H74352   7.460   5.229   9.889 -1.2372  0.7250 -0.6997
  539MOL0     H74353   7.504   5.068   9.833  2.2326  3.7116  0.2487
  539MOL0     H74354   7.298   5.103  10.060 -1.0124  1.0670 -1.8746
  539MOL0     H74355   7.381   4.956  10.003  2.9282  0.3173  0.8712
  539MOL0     H74356   7.506   5.177  10.160 -1.4013  0.8082  0.7185
  539MOL0     H74357   7.605   5.076  10.048  0.2216  0.6767 -0.0596
  539MOL0     H74358   7.608   4.900  10.173 -1.4437 -2.8677  1.0699
  539MOL0     H74359   7.448   4.918  10.244 -0.1133 -2.0787 -2.5632
  539MOL0     H74360   7.683   5.101  10.328  0.9435 -1.0255  1.2584
  539MOL0     H74361   7.639   4.956  10.404  1.7083 -0.2186 -1.9663
  539MOL0     H74362   7.385   5.465   9.251  0.9141 -1.2954  0.2882
  539MOL0     H74363   7.241   5.631   9.134 -1.1240  0.6623 -0.2468
  539MOL0     H74364   6.722   5.577   8.873 -0.4816  1.4741  1.4738
  539MOL0     H74365   6.598   5.733   8.715  1.0382  1.4499 -1.4597
  539MOL0     H74366   5.272   6.849   8.786  0.0505  1.5773 -2.7350
  539MOL0     H74367   5.049   6.984   8.820 -3.7960 -0.8227  1.3788
  539MOL0     H74368   4.695   7.278   8.794  1.7637 -1.6384 -0.8335
  539MOL0     H74369   4.469   7.349   8.840  0.7418  0.3424  0.6505
  539MOL0     H74370   4.252   7.372   8.879 -0.3510 -1.2182  0.5528
  539MOL0     H74371   4.259   7.366   8.708 -1.5573  0.2021 -0.4295
  539MOL0     H74372   4.042   7.447   8.819  1.0337 -0.1673 -0.2427
  539MOL0     H74373   4.004   7.283   8.865 -0.4552  1.4278  0.0289
  539MOL0     H74374   3.914   7.380   8.651 -0.2579 -2.2352 -1.1300
  539MOL0     H74375   4.075   7.359   8.574 -1.4634 -2.6952 -3.0919
  539MOL0     H74376   4.048   7.105   8.674 -0.2947 -1.6058 -0.0132
  539MOL0     H74377   3.985   7.156   8.520 -0.7136 -1.1073  0.5389
  539MOL0     H74378   3.631   7.049   8.718  1.3233 -0.1628  1.8671
  539MOL0     H74379   4.320   6.953   8.768 -1.0516  0.2633  0.3577
  539MOL0     H74380   4.575   6.795   8.659  1.3407 -2.5102  1.2672
  539MOL0     H74381   4.598   6.800   8.840  0.0831  1.0646  0.8148
  539MOL0     H74382   4.446   6.779   8.760 -0.1082  1.2144 -0.9987
  540MOL0     O74383   6.561   0.235   8.634  0.2220 -0.9148  0.2125
  540MOL0     C74384   6.509   0.125   8.613  0.9853 -0.8756  0.1858
  540MOL0     O74385   6.575   0.020   8.563 -0.0434 -0.4307  0.5019
  540MOL0     C74386   6.706   0.024   8.533 -0.2463 -0.5937 -0.0351
  540MOL0     C74387   6.807   0.060   8.627 -0.0093 -0.1257 -0.1718
  540MOL0     C74388   6.940   0.060   8.597 -0.4597  0.3641  0.7297
  540MOL0     C74389   6.990   0.017   8.466  0.4730  0.5209 -0.7253
  540MOL0     O74390   7.128   0.009   8.453  0.0120  0.4151 -0.6045
  540MOL0     C74391   7.182  -0.065   8.342  0.0517 -0.9270 -0.5553
  540MOL0     C74392   7.332  -0.051   8.344  0.1263  0.7078  0.0463
  540MOL0     C74393   7.393   0.068   8.274 -0.3159  0.4337  0.2288
  540MOL0     C74394   7.544   0.071   8.286  0.5940 -0.1635  0.5673
  540MOL0     C74395   7.609   0.159   8.177  0.9139  0.4115 -0.0121
  540MOL0     C74396   7.762   0.163   8.192 -0.5811  0.4446  0.1664
  540MOL0     C74397   7.825   0.221   8.068 -0.2615 -0.1005 -0.1279
  540MOL0     C74398   7.981   0.228   8.085 -0.1767 -0.6842 -0.4090
  540MOL0     N74399   8.056   0.313   7.986 -0.4961 -0.6774  0.6583
  540MOL0     C74400   8.039   0.304   7.853  0.3776 -0.3569  0.4659
  540MOL0     C74401   8.125   0.386   7.803 -0.2041 -0.7571 -0.0563
  540MOL0     C74402   8.145   0.411   7.654 -1.0774 -0.9344 -0.5021
  540MOL0     C74403   8.293   0.412   7.613 -0.8909  0.2391 -0.3668
  540MOL0     C74404   8.326   0.369   7.477  0.3996  0.1645  0.3231
  540MOL0     C74405   8.465   0.410   7.433  0.2366  0.5040 -0.1984
  540MOL0     O74406   8.467   0.374   7.289  0.5588  0.4783  0.0131
  540MOL0     C74407   8.582   0.403   7.220 -0.2345 -0.5548 -0.2749
  540MOL0     C74408   8.598   0.343   7.098  0.0559  0.0550  0.0537
  540MOL0     C74409   8.702   0.384   7.014 -0.4384 -0.1414  0.4444
  540MOL0     C74410   8.704   0.340   6.866 -0.2210  0.9055 -0.4473
  540MOL0     C74411   8.781   0.493   7.055 -0.1067  0.3270 -0.1527
  540MOL0     C74412   8.888   0.553   6.979 -0.1500  0.1378  0.4028
  540MOL0     O74413   8.979   0.468   6.935 -0.2023 -0.1283  0.5869
  540MOL0     C74414   9.081   0.522   6.862 -0.1953  0.0312 -0.2447
  540MOL0     C74415   9.206   0.466   6.882 -0.1858  0.1283  0.6859
  540MOL0     C74416   9.321   0.508   6.808  0.0240  0.5762 -1.3052
  540MOL0     C74417   9.309   0.609   6.721  0.3507  0.3753 -0.2898
  540MOL0     O74418   9.427   0.634   6.652  0.2662 -0.0805  0.0122
  540MOL0     C74419   9.438   0.729   6.551 -0.3359 -0.3589  0.8126
  540MOL0     C74420   9.432   0.878   6.603  0.1751  0.6657  0.7046
  540MOL0     C74421   9.544   0.900   6.712 -0.2376 -1.2360 -0.1256
  540MOL0     C74422   9.686   0.885   6.660  0.1383  0.9600  1.1506
  540MOL0     C74423   9.792   0.914   6.776 -0.1928 -0.2097  0.3121
  540MOL0     C74424   9.802   0.822   6.898 -0.0550  0.2314 -0.1045
  540MOL0     C74425   9.824   0.674   6.864  0.4244 -0.6503 -1.0877
  540MOL0     C74426   9.962   0.645   6.810 -0.2386  0.8000 -0.1778
  540MOL0    Cl74427   9.969   0.468   6.761 -0.6202 -0.4182  0.1013
  540MOL0     C74428   9.186   0.678   6.703 -0.4814 -0.6844 -0.2537
  540MOL0     C74429   9.077   0.633   6.777 -1.1984 -0.3254  0.4991
  540MOL0     O74430   8.897   0.673   6.987  0.0234 -0.2731 -0.3750
  540MOL0     C74431   8.770   0.545   7.180 -0.4472 -0.2320  0.1376
  540MOL0     C74432   8.673   0.507   7.260  0.0141  0.6243 -0.3667
  540MOL0     N74433   8.195   0.445   7.908 -0.8054 -0.2464  0.4732
  540MOL0     N74434   8.162   0.393   8.019 -0.6727  0.6181  0.8667
  540MOL0     C74435   6.890  -0.018   8.380 -0.5472  0.6620  0.3346
  540MOL0     C74436   6.756  -0.019   8.412  0.0236  1.1479  0.6020
  540MOL0     C74437   6.361   0.105   8.658 -0.0610 -0.2368  0.6299
  540MOL0     C74438   6.312  -0.027   8.629 -0.0352 -0.2880 -0.0738
  540MOL0     C74439   6.172  -0.048   8.659 -0.4273  0.1270 -0.0118
  540MOL0     C74440   6.090   0.041   8.714 -0.1410  0.0147 -0.2767
  540MOL0     O74441   5.956   0.002   8.737  0.0324  0.1234 -0.4890
  540MOL0     C74442   5.948  -0.062   8.865  0.7223  0.7215  0.3070
  540MOL0     C74443   5.817  -0.143   8.875 -0.0714 -0.5394 -0.6436
  540MOL0     C74444   5.779  -0.158   9.012  0.2441  0.5801 -0.0477
  540MOL0     C74445   5.658  -0.252   9.015 -0.0972  0.1410  0.6218
  540MOL0     C74446   5.675  -0.384   8.948 -0.5673 -0.2628  0.1407
  540MOL0     C74447   5.690  -0.481   8.877 -0.0577  0.4175 -0.6195
  540MOL0     C74448   6.136   0.165   8.734 -0.0392 -0.0573 -0.1896
  540MOL0     C74449   6.271   0.205   8.703  0.3771  0.5823 -0.9508
  540MOL0     C74450   6.317   0.350   8.733 -0.8322  0.3483  0.3904
  540MOL0     H74451   6.775   0.106   8.720 -0.5456  2.4350 -1.5314
  540MOL0     H74452   7.017   0.089   8.667  0.1870 -0.7683  0.5060
  540MOL0     H74453   7.146  -0.029   8.244  2.6128 -1.7388 -1.8851
  540MOL0     H74454   7.152  -0.169   8.357 -1.5037 -0.2747  1.2115
  540MOL0     H74455   7.355  -0.048   8.451 -0.6455 -0.2326  0.2485
  540MOL0     H74456   7.367  -0.145   8.301 -3.4712 -1.9388  2.3231
  540MOL0     H74457   7.371   0.068   8.166  1.0805  0.9112 -0.0721
  540MOL0     H74458   7.344   0.158   8.313 -2.1051 -1.0459  1.5835
  540MOL0     H74459   7.582   0.107   8.382  0.1509  1.3679  0.1943
  540MOL0     H74460   7.579  -0.032   8.271 -1.5496 -1.0276  1.1054
  540MOL0     H74461   7.562   0.257   8.171 -1.4716 -0.6597  0.0171
  540MOL0     H74462   7.580   0.108   8.085  2.7237  0.0194 -0.3976
  540MOL0     H74463   7.789   0.215   8.285  1.9751 -0.7810  0.2032
  540MOL0     H74464   7.797   0.059   8.194 -0.3848  0.4520 -1.4447
  540MOL0     H74465   7.793   0.325   8.054  0.3291  0.1789  0.5446
  540MOL0     H74466   7.808   0.161   7.978  1.6756 -0.0670 -0.5583
  540MOL0     H74467   7.989   0.279   8.181 -1.3876 -1.6574  0.2357
  540MOL0     H74468   8.031   0.132   8.099 -0.6441 -0.7508  0.9032
  540MOL0     H74469   7.968   0.247   7.795 -5.2363  2.5458  3.6694
  540MOL0     H74470   8.108   0.512   7.633  0.8699  0.5267  2.3781
  540MOL0     H74471   8.084   0.339   7.599 -0.7615 -1.5645 -0.0452
  540MOL0     H74472   8.342   0.506   7.641 -1.5193 -0.1179  2.1672
  540MOL0     H74473   8.344   0.347   7.684  2.6080  1.3704 -1.6087
  540MOL0     H74474   8.327   0.261   7.458 -0.0785  0.1138  0.5656
  540MOL0     H74475   8.248   0.419   7.418  0.2629  0.9495  1.1604
  540MOL0     H74476   8.483   0.518   7.444 -0.7656  0.9534 -2.3724
  540MOL0     H74477   8.538   0.355   7.493 -1.5828  0.5080  2.1254
  540MOL0     H74478   8.541   0.257   7.065  2.2441 -0.9448 -1.3973
  540MOL0     H74479   8.799   0.287   6.848  0.4179  1.7149  0.4452
  540MOL0     H74480   8.705   0.424   6.796  2.0456  1.5077  0.2209
  540MOL0     H74481   8.622   0.273   6.839 -0.6022  0.9526  0.5549
  540MOL0     H74482   9.211   0.388   6.957  0.6233 -0.5433 -0.0469
  540MOL0     H74483   9.417   0.457   6.807 -1.8556 -3.3272 -2.3867
  540MOL0     H74484   9.527   0.709   6.490 -2.5716 -4.2147 -1.6131
  540MOL0     H74485   9.366   0.711   6.471  0.6020 -0.2993 -0.0580
  540MOL0     H74486   9.442   0.939   6.512  3.4844  0.6118  0.9091
  540MOL0     H74487   9.334   0.890   6.650 -1.4319  0.6337 -2.3333
  540MOL0     H74488   9.528   0.834   6.799 -2.5315 -2.2876 -1.2458
  540MOL0     H74489   9.532   1.005   6.739  2.9552 -0.0406 -2.7233
  540MOL0     H74490   9.693   0.949   6.572 -2.6555 -0.6992 -0.4285
  540MOL0     H74491   9.704   0.783   6.624  1.5455  1.3743  0.6046
  540MOL0     H74492   9.889   0.928   6.727 -0.6210  3.1631  0.1356
  540MOL0     H74493   9.779   1.020   6.802 -2.0254  0.1634 -1.8051
  540MOL0     H74494   9.715   0.823   6.965 -1.4088  0.6452 -1.8185
  540MOL0     H74495   9.880   0.860   6.965 -1.9153  1.1376  1.6869
  540MOL0     H74496   9.748   0.655   6.787 -3.1745  0.7526  1.7954
  540MOL0     H74497   9.804   0.609   6.950  2.2498  1.8831  1.4319
  540MOL0     H74498  10.033   0.663   6.891 -1.4117  1.3614  0.7396
  540MOL0     H74499   9.986   0.719   6.732 -0.5491  2.0448  0.8763
  540MOL0     H74500   9.170   0.743   6.617  1.2849 -2.9205 -2.4195
  540MOL0     H74501   8.983   0.683   6.755 -1.5138 -1.4425 -0.8006
  540MOL0     H74502   8.829   0.628   7.216  0.5891 -1.9293  2.6302
  540MOL0     H74503   8.664   0.559   7.355 -2.1765 -0.0875 -0.1199
  540MOL0     H74504   6.924  -0.061   8.286 -0.7593  0.1741  0.4806
  540MOL0     H74505   6.675  -0.037   8.341  1.0273 -0.9690 -0.0972
  540MOL0     H74506   6.357  -0.114   8.582  2.0850  0.3811  0.6254
  540MOL0     H74507   6.123  -0.142   8.633  1.8072 -0.7343 -1.4193
  540MOL0     H74508   6.026  -0.137   8.880 -0.3998  0.0023  3.0542
  540MOL0     H74509   5.950   0.019   8.938  0.0788 -0.0055  1.1600
  540MOL0     H74510   5.845  -0.237   8.825  1.4163 -0.1105 -0.6656
  540MOL0     H74511   5.738  -0.092   8.820  1.2631  1.5542 -0.7537
  540MOL0     H74512   5.860  -0.202   9.072 -0.8747 -2.1875 -0.4217
  540MOL0     H74513   5.752  -0.061   9.055  0.9898  0.3328  1.0143
  540MOL0     H74514   5.562  -0.210   8.984 -1.1943 -0.9193  2.4126
  540MOL0     H74515   5.634  -0.272   9.120 -0.0294 -0.5347  0.5130
  540MOL0     H74516   5.692  -0.566   8.813 -0.3235 -1.4200  1.6686
  540MOL0     H74517   6.070   0.243   8.771  1.9563  1.1755  1.0034
  540MOL0     H74518   6.386   0.356   8.817 -1.0963 -3.1656  1.0111
  540MOL0     H74519   6.367   0.392   8.645 -2.5116 -1.6243 -1.6604
  540MOL0     H74520   6.237   0.416   8.767 -0.4643  1.0352 -0.0521
  541MOL0     O74521   6.493   1.903   3.916  0.0701 -0.3774  0.2239
  541MOL0     C74522   6.470   1.852   4.027 -0.6586 -0.7700 -0.1041
  541MOL0     O74523   6.565   1.844   4.133 -0.0361  0.5517 -0.1031
  541MOL0     C74524   6.688   1.897   4.137 -0.1483 -0.3701  0.5502
  541MOL0     C74525   6.711   1.999   4.225 -0.4994 -0.2270 -0.0470
  541MOL0     C74526   6.837   2.063   4.230 -0.6115  0.1772  0.4196
  541MOL0     C74527   6.938   2.038   4.135  0.3743 -0.1307  0.2709
  541MOL0     O74528   7.066   2.076   4.157 -0.0105 -0.4107 -0.6353
  541MOL0     C74529   7.170   2.040   4.062  0.7337  0.4667 -0.1048
  541MOL0     C74530   7.308   2.105   4.099 -0.0830  0.3693 -1.1017
  541MOL0     C74531   7.370   2.044   4.233 -0.5822 -0.2333  0.1919
  541MOL0     C74532   7.501   2.123   4.267  0.3283  0.0861  0.2952
  541MOL0     C74533   7.598   2.047   4.344  0.4015  0.7092 -0.6992
  541MOL0     C74534   7.719   2.127   4.397 -0.1205 -0.0241 -0.0187
  541MOL0     C74535   7.796   2.055   4.508 -0.1663  0.3470 -0.4839
  541MOL0     C74536   7.922   2.134   4.552  0.6247  0.2534  0.1764
  541MOL0     N74537   8.014   2.064   4.641 -0.2246 -0.1949  0.5116
  541MOL0     C74538   8.106   1.972   4.597  0.5860 -0.7332 -0.2770
  541MOL0     C74539   8.125   1.899   4.706  0.6555 -0.5762  0.3285
  541MOL0     C74540   8.218   1.781   4.712  0.1061 -0.2514  0.6137
  541MOL0     C74541   8.369   1.814   4.732  0.4887  0.4152  0.6597
  541MOL0     C74542   8.457   1.688   4.749  0.4430 -0.5353  0.0423
  541MOL0     C74543   8.485   1.622   4.615  0.2724 -0.0783 -0.0470
  541MOL0     O74544   8.559   1.699   4.516 -0.0270 -0.1571 -0.0973
  541MOL0     C74545   8.695   1.719   4.536  0.6037  0.2996 -0.7163
  541MOL0     C74546   8.746   1.809   4.444  0.3591  0.0531  0.1042
  541MOL0     C74547   8.880   1.846   4.447  0.4425 -0.0851  0.1852
  541MOL0     C74548   8.931   1.931   4.337 -1.0630 -0.3869 -0.4650
  541MOL0     C74549   8.974   1.780   4.535 -0.4010 -0.0837  1.2443
  541MOL0     C74550   9.120   1.800   4.537 -0.0584 -1.3251 -0.3209
  541MOL0     O74551   9.169   1.929   4.507 -0.3203  0.5010  0.0193
  541MOL0     C74552   9.309   1.952   4.503 -0.0376  0.1245 -0.1831
  541MOL0     C74553   9.407   1.890   4.591  0.2394 -0.4434  0.2110
  541MOL0     C74554   9.544   1.942   4.589  0.4763 -0.3993  0.7189
  541MOL0     C74555   9.573   2.064   4.513 -0.8988 -0.7208  0.4710
  541MOL0     O74556   9.704   2.114   4.522 -0.0377 -0.2190  0.0370
  541MOL0     C74557   9.750   2.185   4.410  0.3242 -0.5768  0.5093
  541MOL0     C74558   9.904   2.186   4.422  1.1080  0.0146 -0.3393
  541MOL0     C74559   9.961   2.045   4.435 -0.2975  0.0607  0.5572
  541MOL0     C74560  10.110   2.059   4.403  0.0624  0.8639 -0.1254
  541MOL0     C74561  10.179   1.924   4.425 -0.0498  0.0051  0.5114
  541MOL0     C74562  10.328   1.940   4.476 -0.0409  0.2982  0.1958
  541MOL0     C74563  10.322   1.978   4.619 -0.0307  0.2786 -0.6916
  541MOL0     C74564  10.443   1.918   4.694  0.9452  0.2808 -0.2821
  541MOL0    Cl74565  10.586   2.010   4.646 -0.2342 -0.4264 -0.4140
  541MOL0     C74566   9.475   2.114   4.423 -0.1955  0.1621 -0.1452
  541MOL0     C74567   9.347   2.060   4.422 -0.0824  0.5723  0.9698
  541MOL0     O74568   9.189   1.701   4.554 -0.0908 -0.2654  0.6777
  541MOL0     C74569   8.924   1.694   4.635  0.3689 -0.2152 -0.7598
  541MOL0     C74570   8.788   1.659   4.632 -0.2087 -0.9711  0.2777
  541MOL0     N74571   8.056   1.949   4.811  0.4779  0.0768 -0.3081
  541MOL0     N74572   7.981   2.043   4.769  0.2726  0.2298 -0.5004
  541MOL0     C74573   6.912   1.925   4.046  0.5712 -0.7229 -0.2405
  541MOL0     C74574   6.789   1.860   4.052 -0.2419  0.6163  0.0650
  541MOL0     C74575   6.330   1.816   4.062  0.1958  0.1233 -0.0385
  541MOL0     C74576   6.317   1.766   4.194 -0.5930 -0.0131 -0.0083
  541MOL0     C74577   6.194   1.735   4.246 -0.0713 -0.1309 -0.1553
  541MOL0     C74578   6.082   1.741   4.164 -0.2574  0.7571  0.1716
  541MOL0     O74579   5.967   1.720   4.228 -1.2125  0.2420 -0.7443
  541MOL0     C74580   5.852   1.731   4.150  0.3615 -0.8168  0.4371
  541MOL0     C74581   5.732   1.715   4.243 -0.3395  0.7488 -0.6428
  541MOL0     C74582   5.601   1.729   4.175  0.2738 -0.6297 -0.2740
  541MOL0     C74583   5.546   1.867   4.182  0.0396 -0.9683  0.2839
  541MOL0     C74584   5.463   1.883   4.059  0.7613  0.1126  0.2005
  541MOL0     C74585   5.404   1.894   3.956  0.0123  0.6675 -0.4542
  541MOL0     C74586   6.099   1.778   4.030 -0.6727  0.8919  0.8132
  541MOL0     C74587   6.223   1.808   3.976 -0.6136 -0.5811 -0.0225
  541MOL0     C74588   6.237   1.840   3.831 -1.1217 -0.2382  0.3568
  541MOL0     H74589   6.626   2.029   4.286 -0.8549  0.4985 -0.8862
  541MOL0     H74590   6.849   2.132   4.313 -0.0328 -1.2035  1.5024
  541MOL0     H74591   7.123   2.078   3.971 -1.2214 -1.6981 -0.1009
  541MOL0     H74592   7.180   1.931   4.067  1.1079  0.4654 -0.7583
  541MOL0     H74593   7.378   2.094   4.016  2.3661 -1.1688  1.0251
  541MOL0     H74594   7.301   2.213   4.114  0.8370  0.1217  1.7492
  541MOL0     H74595   7.289   2.070   4.302 -1.7590  2.6968 -2.0636
  541MOL0     H74596   7.396   1.938   4.227  0.8931  0.1661 -1.2526
  541MOL0     H74597   7.549   2.141   4.171 -0.2225  2.4698  0.3838
  541MOL0     H74598   7.475   2.219   4.314  0.2204 -0.7235  1.9534
  541MOL0     H74599   7.624   1.957   4.288  0.0104 -0.1459  0.4485
  541MOL0     H74600   7.557   2.026   4.443 -0.7481  2.0572 -0.8479
  541MOL0     H74601   7.789   2.143   4.314  0.1004 -0.5901  0.0572
  541MOL0     H74602   7.684   2.223   4.436 -0.9005 -0.2608 -0.1107
  541MOL0     H74603   7.834   1.957   4.476 -0.6883 -0.4563  1.2485
  541MOL0     H74604   7.734   2.028   4.594  1.1643 -1.1221  0.0545
  541MOL0     H74605   7.989   2.160   4.469  0.4824  0.6235  0.1751
  541MOL0     H74606   7.882   2.224   4.599  0.5468  0.1376  0.3298
  541MOL0     H74607   8.137   1.955   4.495 -0.3538 -2.1791 -0.3516
  541MOL0     H74608   8.209   1.724   4.619 -0.9987  0.6980  0.1147
  541MOL0     H74609   8.183   1.712   4.789 -0.0891 -1.7829 -0.7851
  541MOL0     H74610   8.412   1.874   4.651  2.0292  1.8692  2.4576
  541MOL0     H74611   8.380   1.878   4.820 -1.7045 -0.6570  1.7938
  541MOL0     H74612   8.551   1.716   4.797  0.6853  1.0622 -1.2786
  541MOL0     H74613   8.407   1.621   4.820 -1.8217  0.3180 -0.6552
  541MOL0     H74614   8.533   1.525   4.634 -1.6629 -0.8646  1.0955
  541MOL0     H74615   8.386   1.598   4.576 -0.3755 -0.5765  1.7780
  541MOL0     H74616   8.688   1.849   4.362  1.5942  0.2192 -0.7125
  541MOL0     H74617   8.957   2.026   4.384  0.5671 -0.3833 -1.3174
  541MOL0     H74618   8.846   1.951   4.270 -0.2675  0.0010 -1.3758
  541MOL0     H74619   9.018   1.887   4.287 -0.4081  0.5829 -0.2027
  541MOL0     H74620   9.393   1.801   4.652  2.6494 -1.5073 -0.6783
  541MOL0     H74621   9.623   1.908   4.654  0.8056 -0.3782  0.3317
  541MOL0     H74622   9.715   2.144   4.315 -1.3787  0.8118  0.4830
  541MOL0     H74623   9.703   2.283   4.420  0.0102 -0.8144  1.5456
  541MOL0     H74624   9.934   2.240   4.332 -1.9133  1.9433 -0.3184
  541MOL0     H74625   9.937   2.253   4.502 -1.9277 -0.7657  1.7554
  541MOL0     H74626   9.919   1.977   4.360  1.6559  0.0309 -0.5629
  541MOL0     H74627   9.948   1.998   4.533  0.9669 -0.2160  0.6073
  541MOL0     H74628  10.155   2.139   4.463 -0.0867  0.1837  0.9239
  541MOL0     H74629  10.106   2.091   4.298 -3.2178 -1.2353 -0.7724
  541MOL0     H74630  10.118   1.858   4.488 -1.2104 -0.9636 -1.5311
  541MOL0     H74631  10.186   1.870   4.330 -0.2016  0.6601  0.1193
  541MOL0     H74632  10.377   2.014   4.412  1.7026 -1.4856 -0.6054
  541MOL0     H74633  10.379   1.845   4.466 -1.5327 -0.3881 -1.4675
  541MOL0     H74634  10.238   1.927   4.666 -0.0447 -0.7902 -1.8325
  541MOL0     H74635  10.319   2.087   4.631  1.5053  0.4942 -1.8177
  541MOL0     H74636  10.453   1.810   4.677  0.2315  0.1592  0.0143
  541MOL0     H74637  10.419   1.931   4.800  0.9866 -2.8765  0.2158
  541MOL0     H74638   9.492   2.204   4.365  1.2311  1.8804  2.7153
  541MOL0     H74639   9.275   2.100   4.352  0.4477  1.2599  0.8135
  541MOL0     H74640   8.985   1.635   4.702  0.5945 -1.1614 -1.7686
  541MOL0     H74641   8.744   1.591   4.703 -2.7903  0.7026  0.4369
  541MOL0     H74642   6.991   1.903   3.976  0.9669 -0.9108  0.2635
  541MOL0     H74643   6.782   1.778   3.981 -1.7403  0.4952  0.3192
  541MOL0     H74644   6.401   1.757   4.263 -1.1580  1.4975  0.9354
  541MOL0     H74645   6.187   1.703   4.349  0.2838  1.7551  0.4776
  541MOL0     H74646   5.843   1.830   4.105 -0.3824  0.6183  3.4171
  541MOL0     H74647   5.853   1.661   4.066  2.7031 -0.8495  0.4331
  541MOL0     H74648   5.750   1.774   4.333  0.2024  1.0850 -0.9640
  541MOL0     H74649   5.738   1.615   4.286  0.8130  0.2623 -1.8497
  541MOL0     H74650   5.613   1.695   4.072 -0.6995  1.5991 -1.1855
  541MOL0     H74651   5.524   1.663   4.215  0.2863  0.4991  1.7486
  541MOL0     H74652   5.636   1.925   4.160  0.4944 -2.0711 -0.8815
  541MOL0     H74653   5.496   1.886   4.278 -1.4426 -0.4051 -0.5742
  541MOL0     H74654   5.351   1.902   3.863 -0.7892  2.7424  0.1121
  541MOL0     H74655   6.022   1.802   3.958 -1.3119 -0.8996  0.8523
  541MOL0     H74656   6.150   1.791   3.785 -0.1634  0.0475 -1.8395
  541MOL0     H74657   6.238   1.947   3.806 -1.4834 -0.0879  0.9390
  541MOL0     H74658   6.325   1.791   3.789 -2.5632 -2.6259 -0.0472
  542MOL0     O74659   4.825  10.676   5.862 -0.0686  0.5618 -0.2357
  542MOL0     C74660   4.740  10.759   5.842  0.3201  0.4259 -0.0100
  542MOL0     O74661   4.760  10.898   5.836  0.7148  0.3688  0.0836
  542MOL0     C74662   4.895  10.931   5.844 -0.0786 -0.4311  0.3068
  542MOL0     C74663   4.954  11.011   5.940  0.0244  0.2750 -1.1376
  542MOL0     C74664   5.096  11.035   5.936  1.0795  0.4912  0.1416
  542MOL0     C74665   5.171  10.989   5.828 -0.6308  0.2260  0.2989
  542MOL0     O74666   5.308  11.025   5.824  0.0187  0.2392 -1.0979
  542MOL0     C74667   5.395  10.978   5.717 -0.5895  0.1225 -0.8206
  542MOL0     C74668   5.546  11.000   5.745 -0.5928  0.1215 -0.4894
  542MOL0     C74669   5.573  11.149   5.724 -0.1497 -0.0237 -0.5624
  542MOL0     C74670   5.719  11.187   5.752 -0.8245 -0.9018 -0.0549
  542MOL0     C74671   5.762  11.331   5.702 -0.1205  0.3308  0.7726
  542MOL0     C74672   5.916  11.343   5.711  0.3484 -0.7122  0.5964
  542MOL0     C74673   5.962  11.471   5.629  0.8203  0.3176 -0.3805
  542MOL0     C74674   6.107  11.518   5.661  0.5113  0.0290 -0.6547
  542MOL0     N74675   6.220  11.430   5.632 -0.7668 -0.0179  0.8515
  542MOL0     C74676   6.341  11.472   5.584  0.1121  0.0247 -0.2115
  542MOL0     C74677   6.424  11.359   5.602  0.4455 -0.5320 -0.0075
  542MOL0     C74678   6.561  11.353   5.557 -0.1850  0.3181  0.1196
  542MOL0     C74679   6.646  11.431   5.650 -0.6865  0.3147  0.4534
  542MOL0     C74680   6.784  11.449   5.589 -0.4653  0.6242 -0.0431
  542MOL0     C74681   6.866  11.321   5.604 -0.6405  0.7844 -0.3040
  542MOL0     O74682   7.001  11.344   5.564 -0.6884  0.1923 -0.0498
  542MOL0     C74683   7.099  11.237   5.558  0.1406 -0.6978 -0.1285
  542MOL0     C74684   7.228  11.264   5.523 -0.7850 -0.5723 -0.7870
  542MOL0     C74685   7.334  11.165   5.523 -0.1134 -1.1576 -0.1718
  542MOL0     C74686   7.486  11.202   5.506  0.7883  0.2256 -0.0962
  542MOL0     C74687   7.300  11.028   5.533 -0.1055  0.0931  0.5364
  542MOL0     C74688   7.408  10.923   5.520  0.5075 -0.3038  0.6846
  542MOL0     O74689   7.522  10.926   5.598 -0.1251  0.0952 -0.0205
  542MOL0     C74690   7.614  10.826   5.579  0.3316  0.4657  0.3073
  542MOL0     C74691   7.609  10.710   5.654 -0.9226  0.7555  0.7859
  542MOL0     C74692   7.693  10.601   5.628 -0.2467  0.0532  0.7887
  542MOL0     C74693   7.780  10.607   5.515  0.8009  0.0536 -0.4720
  542MOL0     O74694   7.858  10.498   5.469 -0.2438 -0.3283 -0.1083
  542MOL0     C74695   7.811  10.370   5.509  0.3293  0.1442 -0.5058
  542MOL0     C74696   7.910  10.260   5.433  0.7588  0.3127 -0.0815
  542MOL0     C74697   8.050  10.272   5.482 -0.5533 -1.1574 -0.2411
  542MOL0     C74698   8.161  10.203   5.407 -0.7723 -0.6685 -0.3692
  542MOL0     C74699   8.304  10.231   5.460 -0.4030  0.3047 -0.0776
  542MOL0     C74700   8.399  10.126   5.407 -0.3964 -0.2482 -0.9133
  542MOL0     C74701   8.543  10.179   5.427  0.5501  0.6127 -0.0096
  542MOL0     C74702   8.651  10.064   5.419 -0.0916 -0.0596  0.2065
  542MOL0    Cl74703   8.809  10.139   5.396 -0.1583 -0.1823 -0.2657
  542MOL0     C74704   7.785  10.725   5.445  0.2521  0.1887  0.2919
  542MOL0     C74705   7.695  10.828   5.462 -0.4524  1.4868 -0.1038
  542MOL0     O74706   7.372  10.827   5.448 -0.0197 -0.0868 -0.7573
  542MOL0     C74707   7.167  10.997   5.574 -0.6460 -0.1096  0.1139
  542MOL0     C74708   7.070  11.099   5.591 -0.1289  0.4981 -0.3399
  542MOL0     N74709   6.349  11.256   5.649  0.0075  0.3808  0.0337
  542MOL0     N74710   6.226  11.302   5.674  0.0760 -0.5927 -0.4052
  542MOL0     C74711   5.108  10.912   5.736  0.7336 -0.2885  0.6677
  542MOL0     C74712   4.970  10.880   5.742 -0.1666  0.6562 -0.2656
  542MOL0     C74713   4.599  10.710   5.844 -0.2258  1.4994  0.8744
  542MOL0     C74714   4.499  10.806   5.844 -0.5461  0.7998 -0.0545
  542MOL0     C74715   4.365  10.785   5.850  0.3285 -0.1265 -0.0375
  542MOL0     C74716   4.325  10.650   5.856 -0.0391  0.4203  0.0790
  542MOL0     O74717   4.193  10.601   5.854  0.5688  0.4412  0.0053
  542MOL0     C74718   4.080  10.685   5.826  0.2170 -0.1077 -0.4735
  542MOL0     C74719   3.944  10.627   5.881 -0.0383  0.2247  0.1107
  542MOL0     C74720   3.946  10.555   6.015  0.4400  0.8260 -0.6217
  542MOL0     C74721   3.801  10.546   6.058  0.5125  0.4684  0.3875
  542MOL0     C74722   3.754  10.673   6.105  0.6038 -1.2770  0.1468
  542MOL0     C74723   3.719  10.775   6.161  0.0134 -0.3698  0.2422
  542MOL0     C74724   4.427  10.546   5.859  0.0817  0.0922  0.0303
  542MOL0     C74725   4.559  10.573   5.852 -0.1307 -0.2524 -0.7591
  542MOL0     C74726   4.649  10.456   5.863  0.3883  0.6830  1.0684
  542MOL0     H74727   4.888  11.043   6.019  0.1877 -2.9070  0.4545
  542MOL0     H74728   5.140  11.092   6.017  0.2010 -2.1135  2.5740
  542MOL0     H74729   5.358  11.017   5.622  1.3952 -0.3287 -1.8212
  542MOL0     H74730   5.381  10.869   5.718 -3.1876  0.3541 -2.1924
  542MOL0     H74731   5.573  10.967   5.846 -2.2068  1.9117  0.6105
  542MOL0     H74732   5.605  10.950   5.668  1.7039  1.3289  0.3864
  542MOL0     H74733   5.551  11.177   5.621  1.2478 -0.0671 -0.8984
  542MOL0     H74734   5.504  11.213   5.778  1.8946  0.5653  1.5204
  542MOL0     H74735   5.748  11.175   5.857 -1.4815 -2.3630 -0.0239
  542MOL0     H74736   5.789  11.116   5.707  1.3771  2.4644 -2.4116
  542MOL0     H74737   5.721  11.398   5.779 -2.0442 -0.9552  0.9415
  542MOL0     H74738   5.720  11.354   5.604  2.4373 -1.3163 -0.8066
  542MOL0     H74739   5.932  11.370   5.816  1.5426 -0.3453  0.3311
  542MOL0     H74740   5.962  11.254   5.667  2.3907  1.5352 -2.2967
  542MOL0     H74741   5.893  11.552   5.653 -0.4470 -0.6459 -0.6480
  542MOL0     H74742   5.959  11.447   5.522 -1.6248  1.4911 -0.6437
  542MOL0     H74743   6.115  11.622   5.631 -0.9338  0.3707  0.0729
  542MOL0     H74744   6.115  11.522   5.770 -0.2808 -0.5887 -0.5638
  542MOL0     H74745   6.369  11.570   5.545 -0.3129  0.5843  0.8297
  542MOL0     H74746   6.574  11.398   5.458  1.0036  0.7986  0.4767
  542MOL0     H74747   6.590  11.248   5.562  0.0772  0.3651 -0.3493
  542MOL0     H74748   6.601  11.529   5.664  2.0085  1.5063  1.3686
  542MOL0     H74749   6.649  11.379   5.747  0.3197 -1.6779 -0.5923
  542MOL0     H74750   6.785  11.481   5.485  0.7919 -2.2340 -1.0209
  542MOL0     H74751   6.829  11.514   5.664  2.7768 -2.2616  0.7709
  542MOL0     H74752   6.869  11.300   5.711  2.2100  2.6257  0.1056
  542MOL0     H74753   6.825  11.249   5.533 -1.6553  0.3627  0.6849
  542MOL0     H74754   7.263  11.365   5.507  1.8307 -1.6860 -2.8739
  542MOL0     H74755   7.553  11.153   5.577 -0.9364  0.5240  1.8399
  542MOL0     H74756   7.500  11.310   5.519 -0.5634  0.5883 -1.3209
  542MOL0     H74757   7.519  11.169   5.407  1.5940  0.4453  0.0908
  542MOL0     H74758   7.532  10.710   5.730 -0.3551 -2.0714  1.4891
  542MOL0     H74759   7.686  10.511   5.689 -0.4648  0.2240  1.0206
  542MOL0     H74760   7.823  10.357   5.617  3.1248  0.7454 -0.6685
  542MOL0     H74761   7.709  10.345   5.480  1.1789 -4.3221 -0.4601
  542MOL0     H74762   7.876  10.161   5.469 -1.3348  0.3524 -1.7217
  542MOL0     H74763   7.898  10.263   5.324  1.3648  0.6732 -0.1395
  542MOL0     H74764   8.058  10.241   5.586 -3.2997  1.1631  0.8208
  542MOL0     H74765   8.077  10.378   5.483 -0.5061 -1.1698  0.4996
  542MOL0     H74766   8.149  10.228   5.301 -0.3145 -1.0046 -0.5018
  542MOL0     H74767   8.145  10.096   5.421 -1.5764 -0.2621  2.4762
  542MOL0     H74768   8.333  10.330   5.424 -3.0221  1.2763  0.2076
  542MOL0     H74769   8.310  10.215   5.568 -1.3663 -1.3121 -0.2323
  542MOL0     H74770   8.377  10.100   5.303 -0.0696  0.8664 -1.2748
  542MOL0     H74771   8.389  10.036   5.468 -2.5492  0.5581  0.0072
  542MOL0     H74772   8.541  10.221   5.528 -1.8276 -1.4796  0.9040
  542MOL0     H74773   8.559  10.257   5.351  0.8328 -1.8726 -2.6787
  542MOL0     H74774   8.624  10.012   5.326  1.4184  1.0555 -0.9127
  542MOL0     H74775   8.651   9.994   5.503 -0.5702  0.6178  0.7709
  542MOL0     H74776   7.848  10.714   5.357 -0.1329 -2.2095  0.2441
  542MOL0     H74777   7.686  10.919   5.404  0.2876  1.5025 -0.1957
  542MOL0     H74778   7.135  10.893   5.581 -2.2045  0.3807  0.7391
  542MOL0     H74779   6.971  11.066   5.620 -0.2119  2.7768  2.4513
  542MOL0     H74780   5.163  10.885   5.647  0.4154  1.1202  0.0037
  542MOL0     H74781   4.922  10.818   5.666 -2.2293 -0.7107  1.9870
  542MOL0     H74782   4.532  10.909   5.853 -0.1039  0.5871  0.8906
  542MOL0     H74783   4.293  10.865   5.834 -0.4914 -0.9589 -0.6446
  542MOL0     H74784   4.092  10.781   5.877  0.4305 -0.3888  0.0128
  542MOL0     H74785   4.061  10.715   5.723 -2.7364 -0.2423 -0.0512
  542MOL0     H74786   3.916  10.559   5.800 -0.0380  0.5954 -0.2035
  542MOL0     H74787   3.876  10.713   5.879  1.3521  1.3739  0.4762
  542MOL0     H74788   3.975  10.450   6.004  0.7765  0.8589 -0.0771
  542MOL0     H74789   4.011  10.609   6.084 -1.1882  2.9550 -0.6377
  542MOL0     H74790   3.778  10.475   6.139 -0.8524 -0.3187 -0.6450
  542MOL0     H74791   3.740  10.502   5.978 -1.4573  0.1402  1.9873
  542MOL0     H74792   3.694  10.868   6.208  1.4182  0.1763 -0.0152
  542MOL0     H74793   4.391  10.449   5.893 -2.5906  0.8152 -0.4759
  542MOL0     H74794   4.701  10.439   5.768  2.3664 -1.2055  2.3774
  542MOL0     H74795   4.728  10.461   5.939 -1.5838  0.8500  3.2325
  542MOL0     H74796   4.595  10.361   5.869  4.2938 -1.8292  0.1034
  543MOL0     O74797   1.953   0.220   3.311 -0.7604  0.8077  0.1400
  543MOL0     C74798   1.912   0.225   3.425  0.2461  1.0533 -0.4393
  543MOL0     O74799   1.966   0.289   3.527 -0.9409 -1.1095  0.3025
  543MOL0     C74800   2.081   0.358   3.496  0.2712 -0.2521 -0.2734
  543MOL0     C74801   2.076   0.491   3.451 -0.1856 -0.0694  1.7695
  543MOL0     C74802   2.195   0.559   3.432 -0.3010 -0.1520  0.5106
  543MOL0     C74803   2.318   0.501   3.462 -0.3205 -0.3576 -0.2082
  543MOL0     O74804   2.438   0.573   3.470 -0.2184  0.6578  0.2828
  543MOL0     C74805   2.460   0.683   3.386 -1.0747  1.1127  0.0823
  543MOL0     C74806   2.605   0.704   3.337 -0.1326 -0.0807 -0.5618
  543MOL0     C74807   2.707   0.716   3.453  1.0462  0.0999  0.5168
  543MOL0     C74808   2.829   0.785   3.384 -0.1331 -0.7073 -0.2715
  543MOL0     C74809   2.961   0.714   3.416  0.3058  0.6468  0.0512
  543MOL0     C74810   3.081   0.789   3.354 -0.3301 -0.1561  0.3305
  543MOL0     C74811   3.208   0.708   3.390  0.4360 -0.0822 -0.0757
  543MOL0     C74812   3.210   0.564   3.326  0.4144  0.7563 -0.4297
  543MOL0     N74813   3.337   0.497   3.344 -0.3238  0.1993 -0.3791
  543MOL0     C74814   3.451   0.514   3.265  0.5477 -0.1723 -0.3504
  543MOL0     C74815   3.556   0.475   3.343  0.4400 -0.1245  0.9027
  543MOL0     C74816   3.704   0.483   3.309  0.3435  1.2076  0.2685
  543MOL0     C74817   3.752   0.365   3.231 -0.5982  0.6487 -0.2871
  543MOL0     C74818   3.888   0.303   3.284  0.5673  0.3956  0.5353
  543MOL0     C74819   4.010   0.393   3.278  0.2895 -0.8429  0.2246
  543MOL0     O74820   4.128   0.310   3.303  0.0741 -0.0991  0.3564
  543MOL0     C74821   4.253   0.374   3.294 -0.6996  0.4788 -0.0455
  543MOL0     C74822   4.282   0.507   3.306  0.0111 -0.1580  0.8557
  543MOL0     C74823   4.419   0.556   3.321 -0.2881  0.3889  0.2543
  543MOL0     C74824   4.435   0.708   3.315 -0.2833  0.0281 -0.0857
  543MOL0     C74825   4.527   0.462   3.319  0.3076 -0.5275  0.1429
  543MOL0     C74826   4.666   0.492   3.358 -0.1895  0.0454  0.5649
  543MOL0     O74827   4.751   0.387   3.382  0.1364 -0.4897 -0.0647
  543MOL0     C74828   4.888   0.420   3.382  0.6505  0.2681  0.3053
  543MOL0     C74829   4.963   0.430   3.263 -0.2727 -0.4037 -0.1514
  543MOL0     C74830   5.100   0.451   3.263  0.0455 -0.1286  0.3649
  543MOL0     C74831   5.166   0.472   3.383 -0.1917 -0.4831  0.1891
  543MOL0     O74832   5.300   0.478   3.374  0.8947  0.5212 -0.4633
  543MOL0     C74833   5.376   0.578   3.442 -0.2561  0.0861  0.7379
  543MOL0     C74834   5.494   0.641   3.349  0.3876 -0.5262  0.0503
  543MOL0     C74835   5.435   0.706   3.219  0.0247 -0.2198  0.2079
  543MOL0     C74836   5.548   0.703   3.119  0.0192 -1.0237 -0.1500
  543MOL0     C74837   5.496   0.778   2.992 -0.9209 -0.1008  0.0588
  543MOL0     C74838   5.603   0.746   2.887  0.6314  0.2243  0.1919
  543MOL0     C74839   5.572   0.791   2.742 -0.1868  0.0225 -0.9926
  543MOL0     C74840   5.558   0.937   2.712 -0.5510  1.0858 -0.6858
  543MOL0    Cl74841   5.716   1.016   2.760  0.5086 -0.0816  0.2953
  543MOL0     C74842   5.093   0.467   3.497  0.1508  0.0732  0.2732
  543MOL0     C74843   4.955   0.447   3.495  0.0233 -0.4607  0.4834
  543MOL0     O74844   4.701   0.611   3.367  0.3335  0.6203 -0.0194
  543MOL0     C74845   4.489   0.327   3.300  0.1961  0.7838  1.4510
  543MOL0     C74846   4.360   0.283   3.288  0.1014  0.0086 -0.8798
  543MOL0     N74847   3.507   0.430   3.465  0.2351  0.1521 -0.0826
  543MOL0     N74848   3.373   0.441   3.462 -0.5215  0.2121  0.2197
  543MOL0     C74849   2.318   0.370   3.504 -0.7024  0.3400  0.3655
  543MOL0     C74850   2.199   0.290   3.518 -0.8284 -0.5487 -0.6084
  543MOL0     C74851   1.775   0.155   3.453  0.5164 -0.8774 -0.5066
  543MOL0     C74852   1.728   0.154   3.581 -0.0189 -1.4851 -0.3836
  543MOL0     C74853   1.613   0.079   3.628 -0.7849  0.5106 -0.6452
  543MOL0     C74854   1.546   0.007   3.532 -0.2054 -0.4300  0.6939
  543MOL0     O74855   1.440  -0.059   3.575  0.4335 -0.6321 -0.2196
  543MOL0     C74856   1.374  -0.149   3.484 -0.3052  0.3433  0.4125
  543MOL0     C74857   1.266  -0.215   3.567 -0.2942  0.3634 -0.0080
  543MOL0     C74858   1.293  -0.263   3.710 -0.1357 -0.1702  0.0537
  543MOL0     C74859   1.262  -0.151   3.820 -0.7056 -0.3688  0.3969
  543MOL0     C74860   1.338  -0.181   3.942 -0.2611  0.4662 -0.0812
  543MOL0     C74861   1.412  -0.218   4.036 -0.1037 -0.0209 -0.9648
  543MOL0     C74862   1.592   0.004   3.397 -0.3216 -0.3507 -0.4776
  543MOL0     C74863   1.710   0.073   3.360  0.5360 -0.1729  0.5585
  543MOL0     C74864   1.745   0.046   3.213  0.3046  0.4758  0.4957
  543MOL0     H74865   1.980   0.533   3.420  1.7754  5.4258  1.9519
  543MOL0     H74866   2.194   0.661   3.394  0.1232 -0.5645 -0.6348
  543MOL0     H74867   2.436   0.776   3.440 -1.8443  1.0436 -0.1367
  543MOL0     H74868   2.389   0.674   3.304 -1.8447 -0.4907  0.8718
  543MOL0     H74869   2.637   0.614   3.284  0.1823  0.2137 -0.8720
  543MOL0     H74870   2.605   0.787   3.266  1.1866 -0.1656 -0.6826
  543MOL0     H74871   2.671   0.774   3.538  2.2205 -0.5289  1.4871
  543MOL0     H74872   2.731   0.616   3.491 -1.1215  0.1756  2.2695
  543MOL0     H74873   2.817   0.799   3.276  1.0571  0.7886 -0.2427
  543MOL0     H74874   2.824   0.884   3.429  0.7155 -0.2887 -1.0485
  543MOL0     H74875   2.950   0.618   3.365 -2.2209  0.9366 -0.1177
  543MOL0     H74876   2.970   0.691   3.522 -4.3111  0.7970  0.6774
  543MOL0     H74877   3.082   0.816   3.248  4.3914  2.4496  0.7564
  543MOL0     H74878   3.090   0.888   3.401  2.5656 -0.1957  0.0217
  543MOL0     H74879   3.223   0.690   3.497  1.0094 -0.6601 -0.2450
  543MOL0     H74880   3.294   0.765   3.353  0.8927  0.8762  2.2364
  543MOL0     H74881   3.123   0.509   3.362  0.0673  1.3409 -0.3820
  543MOL0     H74882   3.206   0.574   3.218  0.3568  1.8601 -0.3306
  543MOL0     H74883   3.454   0.555   3.164 -1.2056  1.8884  0.3541
  543MOL0     H74884   3.756   0.476   3.406  0.7882  0.0025 -0.0452
  543MOL0     H74885   3.733   0.578   3.264 -0.4058  1.0027 -0.6559
  543MOL0     H74886   3.675   0.287   3.230 -2.1695  2.1525 -1.6254
  543MOL0     H74887   3.767   0.402   3.130 -0.5647  0.7297 -0.2524
  543MOL0     H74888   3.888   0.277   3.391  0.6399 -0.8582  0.2443
  543MOL0     H74889   3.915   0.215   3.226  1.7217  0.4968  0.8857
  543MOL0     H74890   4.019   0.447   3.184 -1.0569  1.0446  1.1200
  543MOL0     H74891   4.013   0.470   3.356 -0.0168 -0.9628  0.3535
  543MOL0     H74892   4.197   0.573   3.309 -0.1693 -0.4024  1.1431
  543MOL0     H74893   4.338   0.756   3.303 -0.7697 -0.7536  0.6355
  543MOL0     H74894   4.500   0.734   3.231 -0.9738 -2.8153 -1.6131
  543MOL0     H74895   4.484   0.739   3.408 -0.9158 -2.0039  1.0012
  543MOL0     H74896   4.903   0.419   3.173 -0.0823 -1.3258 -0.1731
  543MOL0     H74897   5.144   0.472   3.166 -2.8030  0.9293 -0.8097
  543MOL0     H74898   5.310   0.657   3.479  1.3768  2.0704 -0.3571
  543MOL0     H74899   5.429   0.526   3.522  1.1000 -0.6724 -0.6068
  543MOL0     H74900   5.551   0.711   3.412  4.1192  0.7290 -4.2071
  543MOL0     H74901   5.556   0.552   3.334  1.4639 -0.3015  2.6300
  543MOL0     H74902   5.403   0.809   3.240 -3.5864 -1.2192  0.2688
  543MOL0     H74903   5.343   0.653   3.194  0.3861 -1.5091  1.4810
  543MOL0     H74904   5.580   0.603   3.091  0.4302 -0.4279 -1.9842
  543MOL0     H74905   5.640   0.750   3.155 -0.0356  0.8158 -2.1538
  543MOL0     H74906   5.393   0.753   2.965 -1.2388  2.1739 -1.0542
  543MOL0     H74907   5.500   0.883   3.020  1.4231  0.8342 -3.1939
  543MOL0     H74908   5.617   0.638   2.873 -1.2104 -0.2567  1.6989
  543MOL0     H74909   5.697   0.795   2.915  1.8150 -0.6765 -1.9544
  543MOL0     H74910   5.491   0.730   2.701 -3.4896  2.4326  1.3568
  543MOL0     H74911   5.664   0.764   2.690  3.1434  3.8615  2.2207
  543MOL0     H74912   5.479   0.979   2.775 -1.0202 -1.6027  0.6701
  543MOL0     H74913   5.538   0.952   2.606 -2.0436  1.7186 -0.3424
  543MOL0     H74914   5.154   0.484   3.585 -0.4942 -1.0766  0.9697
  543MOL0     H74915   4.906   0.450   3.592  0.8391 -0.6873  0.9156
  543MOL0     H74916   4.560   0.245   3.302 -0.4731  0.2071  2.7229
  543MOL0     H74917   4.362   0.176   3.272  2.0457  0.4731 -5.0777
  543MOL0     H74918   2.417   0.331   3.523 -0.3081  1.0035 -0.2991
  543MOL0     H74919   2.197   0.187   3.553  0.0925 -0.0253  1.0800
  543MOL0     H74920   1.764   0.229   3.652 -2.2665  0.1129 -0.8123
  543MOL0     H74921   1.577   0.078   3.731 -0.4842  1.4578 -0.5138
  543MOL0     H74922   1.329  -0.102   3.396 -1.0676 -1.0048  0.0551
  543MOL0     H74923   1.447  -0.223   3.449  0.4157 -0.2754  2.9834
  543MOL0     H74924   1.233  -0.309   3.522  1.0251 -1.0611  1.7996
  543MOL0     H74925   1.173  -0.160   3.581 -0.2474  0.5363 -0.3556
  543MOL0     H74926   1.227  -0.346   3.736 -2.0529  0.8314 -1.3115
  543MOL0     H74927   1.393  -0.306   3.717 -0.3942 -1.0735 -1.4204
  543MOL0     H74928   1.157  -0.140   3.850 -1.0877  1.9515 -1.5361
  543MOL0     H74929   1.289  -0.052   3.784 -2.9502 -0.6236 -2.2683
  543MOL0     H74930   1.471  -0.234   4.123 -1.0734  2.7275  0.3233
  543MOL0     H74931   1.550  -0.050   3.313  1.7077 -1.4749 -0.8210
  543MOL0     H74932   1.704  -0.048   3.174  2.7289 -1.3533  2.0606
  543MOL0     H74933   1.710   0.127   3.149 -1.0664 -0.8315 -0.4769
  543MOL0     H74934   1.852   0.027   3.213  0.4457  1.2673  0.3825
  544MOL0     O74935  11.334   5.265  10.138 -0.1219 -0.5516 -0.2951
  544MOL0     C74936  11.359   5.191  10.045 -0.5687 -0.1756 -0.0609
  544MOL0     O74937  11.481   5.146  10.005  0.5272  0.1101  0.0186
  544MOL0     C74938  11.595   5.188  10.066  0.1003 -0.0103 -0.7330
  544MOL0     C74939  11.678   5.280  10.000 -0.7549 -1.0425 -0.7355
  544MOL0     C74940  11.787   5.338  10.072 -0.3090 -0.1945 -0.3095
  544MOL0     C74941  11.808   5.305  10.202  0.1722 -0.9765  0.3269
  544MOL0     O74942  11.908   5.357  10.275 -0.3470  0.3940  0.5702
  544MOL0     C74943  12.040   5.371  10.215  0.4604 -0.5938  0.4667
  544MOL0     C74944  12.119   5.474  10.296 -0.3292 -1.0858  0.0890
  544MOL0     C74945  12.229   5.546  10.231 -0.2341 -1.8452 -0.3130
  544MOL0     C74946  12.301   5.642  10.340 -0.6154 -0.1760  0.2017
  544MOL0     C74947  12.430   5.693  10.275 -0.3116 -0.2509 -0.2172
  544MOL0     C74948  12.512   5.790  10.359 -0.2257  0.1701 -0.5296
  544MOL0     C74949  12.431   5.916  10.395  0.7361  0.1477  0.3204
  544MOL0     C74950  12.502   6.002  10.501  0.5006 -0.0438  0.1102
  544MOL0     N74951  12.653   6.033  10.490  1.1295 -0.0941  0.3647
  544MOL0     C74952  12.718   6.153  10.468 -0.0755  0.3549  0.5602
  544MOL0     C74953  12.844   6.138  10.513  0.0713  0.3060 -0.2239
  544MOL0     C74954  12.942   6.241  10.477  0.0179 -0.0612 -0.4883
  544MOL0     C74955  13.004   6.201  10.353  0.0169  0.1635  1.2232
  544MOL0     C74956  13.106   6.301  10.311  0.7869 -0.4550 -0.4518
  544MOL0     C74957  13.235   6.251  10.362  0.3426  0.0422 -0.8666
  544MOL0     O74958  13.335   6.350  10.343 -0.0748  0.1239 -0.2813
  544MOL0     C74959  13.464   6.313  10.376 -0.1790  0.2409  0.5562
  544MOL0     C74960  13.571   6.395  10.327 -0.0448  0.2671 -0.0137
  544MOL0     C74961  13.703   6.360  10.342  0.3138 -0.4825 -0.1071
  544MOL0     C74962  13.813   6.453  10.285 -0.1216 -0.9099  0.4514
  544MOL0     C74963  13.729   6.231  10.422  0.1314 -0.1989  0.3641
  544MOL0     C74964  13.867   6.187  10.438  0.5046 -0.3877  0.2919
  544MOL0     O74965  13.888   6.102  10.548 -0.6477 -0.4760 -0.6306
  544MOL0     C74966  14.000   6.098  10.621  0.0079 -0.5471 -0.5845
  544MOL0     C74967  14.089   6.204  10.643 -0.1627  0.3465  0.2461
  544MOL0     C74968  14.220   6.185  10.708 -0.0227  0.1432  0.8523
  544MOL0     C74969  14.243   6.062  10.772 -0.3769  0.5539 -0.0851
  544MOL0     O74970  14.359   6.034  10.840 -0.3360  0.1142 -0.4305
  544MOL0     C74971  14.350   6.034  10.983 -0.0483 -0.1945 -0.4371
  544MOL0     C74972  14.412   6.162  11.041  0.7432 -0.4257 -0.7455
  544MOL0     C74973  14.566   6.158  11.075  0.3965  0.4453 -0.2253
  544MOL0     C74974  14.588   6.061  11.200  0.3239  0.9873 -0.3734
  544MOL0     C74975  14.735   6.059  11.238 -0.4746 -0.0601  0.1575
  544MOL0     C74976  14.746   5.979  11.358  0.2824 -0.4428 -0.9294
  544MOL0     C74977  14.881   5.974  11.432 -0.6191 -1.5742  0.4230
  544MOL0     C74978  14.923   5.836  11.480  0.9137  0.1467 -0.8103
  544MOL0    Cl74979  15.100   5.810  11.499  0.2013 -0.4793 -0.3228
  544MOL0     C74980  14.141   5.957  10.771 -0.4708 -0.4848 -0.4868
  544MOL0     C74981  14.023   5.982  10.697 -0.0712  0.0580  0.7809
  544MOL0     O74982  13.959   6.223  10.356  0.0242 -0.0065  0.2928
  544MOL0     C74983  13.623   6.163  10.486 -0.0905 -0.1667  0.4389
  544MOL0     C74984  13.501   6.206  10.456  1.0140 -0.3843 -0.4387
  544MOL0     N74985  12.863   6.009  10.559  1.3189  0.5038  0.7683
  544MOL0     N74986  12.747   5.950  10.534  0.3998  0.2898  0.1875
  544MOL0     C74987  11.738   5.208  10.264  0.5603  0.5282  0.3999
  544MOL0     C74988  11.624   5.155  10.199 -0.7924  0.0761 -0.0554
  544MOL0     C74989  11.249   5.153   9.953  0.7291 -0.6634 -0.1056
  544MOL0     C74990  11.259   5.042   9.869  0.0766  0.4009 -0.2228
  544MOL0     C74991  11.160   5.009   9.773  0.3458  0.2801 -0.3811
  544MOL0     C74992  11.042   5.078   9.771 -0.5226 -0.4060  0.2495
  544MOL0     O74993  10.953   5.035   9.676  0.4311  0.2306  0.3518
  544MOL0     C74994  10.816   5.083   9.684  0.3248 -0.0466 -0.6321
  544MOL0     C74995  10.745   4.994   9.587 -0.2609  0.0701 -0.4156
  544MOL0     C74996  10.597   5.004   9.591  0.7259  0.1113  0.9740
  544MOL0     C74997  10.535   4.956   9.464  0.0430  0.6874 -0.4798
  544MOL0     C74998  10.403   5.025   9.447  0.4106 -0.0051 -0.1740
  544MOL0     C74999  10.295   5.078   9.444 -0.1309 -0.9747  0.8531
  544MOL0     C75000  11.029   5.194   9.848 -0.7327  0.0630 -0.0207
  544MOL0     C75001  11.135   5.239   9.935  0.4140 -0.0934  0.4898
  544MOL0     C75002  11.113   5.376   9.991  0.6078 -0.1336 -0.2113
  544MOL0     H75003  11.643   5.304   9.900 -2.7583 -1.4812 -0.1822
  544MOL0     H75004  11.850   5.404  10.014  1.4457 -1.0419  0.5565
  544MOL0     H75005  12.035   5.405  10.111 -0.9602  0.9475  0.9754
  544MOL0     H75006  12.085   5.272  10.202 -0.3294 -0.6388 -2.9686
  544MOL0     H75007  12.046   5.538  10.346 -1.8053 -2.1210 -0.6335
  544MOL0     H75008  12.162   5.412  10.376  2.1630  1.2096  0.6784
  544MOL0     H75009  12.299   5.473  10.189  3.8796  2.5300 -1.8986
  544MOL0     H75010  12.201   5.617  10.153  0.2791 -0.1030  1.0295
  544MOL0     H75011  12.235   5.718  10.382 -0.7924  0.4406 -1.1211
  544MOL0     H75012  12.325   5.576  10.423 -0.5940 -2.2136 -1.3474
  544MOL0     H75013  12.407   5.755  10.187  1.6980  0.0435 -0.5829
  544MOL0     H75014  12.496   5.609  10.250 -0.7059 -1.0205  1.2280
  544MOL0     H75015  12.553   5.747  10.451 -1.0982  0.6469  0.1035
  544MOL0     H75016  12.588   5.829  10.292  1.6509  0.2207  1.5134
  544MOL0     H75017  12.331   5.899  10.435 -0.5355  2.4040 -1.6272
  544MOL0     H75018  12.412   5.972  10.303  0.9238  0.8957  0.7346
  544MOL0     H75019  12.446   6.096  10.498  2.2329  1.0065 -0.9962
  544MOL0     H75020  12.493   5.943  10.592 -0.4876 -4.0906 -2.3858
  544MOL0     H75021  12.692   6.250  10.427  1.5130  1.3908  1.8731
  544MOL0     H75022  13.006   6.248  10.565 -1.7531 -0.6046  0.8810
  544MOL0     H75023  12.899   6.339  10.457 -0.2648 -0.2423 -0.7832
  544MOL0     H75024  13.037   6.099  10.373 -1.8378 -0.0799  3.4470
  544MOL0     H75025  12.928   6.213  10.275  1.4122  1.9872  0.0486
  544MOL0     H75026  13.114   6.306  10.202  2.0548 -3.1984 -0.5626
  544MOL0     H75027  13.086   6.398  10.356  1.5687  0.0160 -1.1011
  544MOL0     H75028  13.226   6.221  10.467  0.0569 -0.6453 -1.0829
  544MOL0     H75029  13.253   6.160  10.304  1.5638 -0.6354  0.5030
  544MOL0     H75030  13.538   6.475  10.261  0.8006  0.2391 -0.4816
  544MOL0     H75031  13.773   6.533  10.222  0.0161 -2.5731 -1.9119
  544MOL0     H75032  13.868   6.395  10.210 -0.1879  0.2334 -0.5114
  544MOL0     H75033  13.880   6.496  10.360  0.7904  1.8056 -1.7544
  544MOL0     H75034  14.072   6.302  10.600  0.6828 -0.1182 -1.2261
  544MOL0     H75035  14.287   6.270  10.717  0.0302  0.3483 -1.1466
  544MOL0     H75036  14.245   6.046  11.013  1.2831  0.9198  4.6922
  544MOL0     H75037  14.398   5.947  11.030  0.2486 -1.0517 -2.2551
  544MOL0     H75038  14.384   6.240  10.970 -4.4105  0.0587  1.3601
  544MOL0     H75039  14.357   6.189  11.132  2.7112  0.5924  0.2114
  544MOL0     H75040  14.597   6.258  11.109 -0.8415  0.8399 -0.2201
  544MOL0     H75041  14.623   6.115  10.991 -0.8099 -2.2765  0.2457
  544MOL0     H75042  14.565   5.956  11.181  2.2680  0.2166  1.1907
  544MOL0     H75043  14.536   6.103  11.287  3.9733  0.5865  2.2479
  544MOL0     H75044  14.799   6.014  11.161 -0.0074 -1.6099  1.3943
  544MOL0     H75045  14.764   6.162  11.262  0.6208 -0.4160  0.4317
  544MOL0     H75046  14.714   5.877  11.335 -3.7183  0.6857 -1.0675
  544MOL0     H75047  14.676   6.018  11.432 -0.0823 -3.6989  0.6075
  544MOL0     H75048  14.889   6.049  11.512  0.9508  0.5143 -1.5376
  544MOL0     H75049  14.948   6.000  11.349 -0.5193  0.6291  1.1175
  544MOL0     H75050  14.892   5.760  11.408  2.2288 -0.1697 -1.0766
  544MOL0     H75051  14.880   5.815  11.579  5.0823  2.0256  1.6968
  544MOL0     H75052  14.159   5.865  10.827 -0.7752  0.8494  1.9388
  544MOL0     H75053  13.957   5.897  10.681  1.0993 -0.7667  0.2415
  544MOL0     H75054  13.623   6.072  10.544 -1.4426 -0.2970  0.2581
  544MOL0     H75055  13.418   6.155  10.505 -1.3773  1.4478 -2.3103
  544MOL0     H75056  11.766   5.190  10.368  1.1371  1.4371  0.4178
  544MOL0     H75057  11.559   5.091  10.257 -2.3528  2.9056  1.5543
  544MOL0     H75058  11.332   4.962   9.882 -1.5953 -0.9033  2.0611
  544MOL0     H75059  11.165   4.912   9.725  0.7441  0.0703  0.0745
  544MOL0     H75060  10.767   5.088   9.782 -2.7755 -3.7660 -1.7554
  544MOL0     H75061  10.814   5.185   9.645  0.1811  0.6239  1.0375
  544MOL0     H75062  10.763   4.898   9.635  0.6866  1.5596  2.3966
  544MOL0     H75063  10.785   5.001   9.485 -2.3673  0.7901 -1.2692
  544MOL0     H75064  10.555   4.939   9.668 -0.0076 -1.0506 -0.3428
  544MOL0     H75065  10.570   5.106   9.618  0.7377 -0.2090  2.2449
  544MOL0     H75066  10.523   4.848   9.463  0.8185  0.5934 -1.8997
  544MOL0     H75067  10.594   4.984   9.376 -2.1674 -1.7878 -2.9198
  544MOL0     H75068  10.198   5.123   9.437 -0.4533 -1.7857  0.0096
  544MOL0     H75069  10.940   5.256   9.840 -1.0321 -0.2103  1.0765
  544MOL0     H75070  11.211   5.424  10.003  0.4733  0.1540 -0.2676
  544MOL0     H75071  11.048   5.444   9.935  0.6947  1.1184  1.1602
  544MOL0     H75072  11.074   5.363  10.092 -2.1873  1.8474 -0.9098
  545MOL0     O75073   1.400  10.625   2.628 -0.0506  0.4376  0.1615
  545MOL0     C75074   1.409  10.736   2.581 -0.2406 -0.2594 -0.3092
  545MOL0     O75075   1.303  10.815   2.545  0.0012 -0.6580  0.2402
  545MOL0     C75076   1.176  10.769   2.560  0.7421  0.6077  0.2025
  545MOL0     C75077   1.085  10.815   2.465 -0.0440 -0.8102 -0.1752
  545MOL0     C75078   0.949  10.794   2.477 -0.1928  1.2429  0.9478
  545MOL0     C75079   0.897  10.717   2.585 -0.3182  0.4740 -0.6605
  545MOL0     O75080   0.763  10.703   2.604  0.8052 -0.1081  0.1496
  545MOL0     C75081   0.713  10.713   2.747  0.3864 -0.4247  0.7692
  545MOL0     C75082   0.565  10.719   2.753 -0.1125 -0.6871 -0.3585
  545MOL0     C75083   0.517  10.858   2.700  0.4085  0.6111 -0.1698
  545MOL0     C75084   0.363  10.868   2.711 -0.0546  0.7639 -0.5201
  545MOL0     C75085   0.304  10.998   2.641 -0.9492  0.4678  0.0361
  545MOL0     C75086   0.372  11.138   2.671  0.4842  1.0671  0.0359
  545MOL0     C75087   0.367  11.157   2.826  0.1978  0.0390 -0.1102
  545MOL0     C75088   0.446  11.269   2.883 -0.4771 -0.4442 -0.5704
  545MOL0     N75089   0.387  11.400   2.869  0.6755  0.0314 -0.1365
  545MOL0     C75090   0.455  11.500   2.822  1.1928  0.1198 -0.5713
  545MOL0     C75091   0.382  11.607   2.867  0.4728  0.8394 -0.1587
  545MOL0     C75092   0.435  11.747   2.860 -0.1914  0.4358 -0.5280
  545MOL0     C75093   0.586  11.758   2.868  0.2347  0.3946  0.9889
  545MOL0     C75094   0.643  11.766   2.717  0.7311 -0.4691 -0.5047
  545MOL0     C75095   0.790  11.727   2.721  0.5767  1.0062 -0.3314
  545MOL0     O75096   0.883  11.816   2.788  0.3661 -0.5337  0.6738
  545MOL0     C75097   0.907  11.948   2.743  0.0783 -0.5709  0.5932
  545MOL0     C75098   0.975  12.032   2.823 -0.8185  0.2200 -0.1985
  545MOL0     C75099   1.026  12.159   2.793 -0.2981 -0.2383 -0.0307
  545MOL0     C75100   1.089  12.235   2.906  0.5315  0.3084 -0.7254
  545MOL0     C75101   0.989  12.203   2.661  0.5669 -0.8265 -0.8213
  545MOL0     C75102   1.041  12.332   2.608 -0.6769  0.0454 -0.5819
  545MOL0     O75103   0.981  12.391   2.505  0.1045 -0.0021  0.3447
  545MOL0     C75104   1.027  12.502   2.444 -0.1400  0.7628 -0.3218
  545MOL0     C75105   1.112  12.500   2.338 -0.3562 -0.5213  0.3505
  545MOL0     C75106   1.157  12.623   2.273  0.4357  1.4421 -0.1876
  545MOL0     C75107   1.112  12.747   2.314 -0.2790 -0.4886 -0.7786
  545MOL0     O75108   1.138  12.872   2.254 -0.0528 -0.2490 -0.0272
  545MOL0     C75109   1.271  12.901   2.211  0.5577  0.8679 -0.0613
  545MOL0     C75110   1.367  12.909   2.325 -0.0326  0.1469 -0.7178
  545MOL0     C75111   1.466  13.018   2.325 -0.7915  0.5697 -0.5944
  545MOL0     C75112   1.577  12.987   2.228 -0.1956  0.5621 -0.9215
  545MOL0     C75113   1.692  13.070   2.268 -0.4262  0.0904 -0.4479
  545MOL0     C75114   1.803  13.050   2.171  0.1150 -0.3505 -0.0262
  545MOL0     C75115   1.939  13.116   2.208 -0.4541 -0.2662  0.5841
  545MOL0     C75116   2.035  13.123   2.090 -0.0733  0.0911 -0.5869
  545MOL0    Cl75117   2.165  13.239   2.116  0.2252  0.0252  0.3335
  545MOL0     C75118   1.032  12.744   2.430 -0.1907 -0.5669 -0.4317
  545MOL0     C75119   0.988  12.624   2.489 -0.5052  0.1358  0.3410
  545MOL0     O75120   1.152  12.359   2.648 -0.3682  0.1195  0.4865
  545MOL0     C75121   0.904  12.122   2.582  0.3002  0.1355  0.9304
  545MOL0     C75122   0.875  11.992   2.619  0.4284 -0.0002  0.1448
  545MOL0     N75123   0.267  11.573   2.934  0.7390  0.1176  0.7152
  545MOL0     N75124   0.275  11.445   2.935 -0.4364  0.5025 -0.0502
  545MOL0     C75125   0.990  10.672   2.683 -0.4566  0.6895 -0.8835
  545MOL0     C75126   1.132  10.694   2.666  0.2615  0.2607  0.0951
  545MOL0     C75127   1.547  10.802   2.570 -0.9099  0.5136  0.3339
  545MOL0     C75128   1.553  10.930   2.529 -0.5769 -0.9859  0.4931
  545MOL0     C75129   1.673  10.988   2.518  0.9437 -0.0837 -0.1401
  545MOL0     C75130   1.795  10.929   2.527  0.9566  0.2507 -0.0622
  545MOL0     O75131   1.914  10.999   2.525 -0.0019  0.1109  0.1198
  545MOL0     C75132   1.906  11.146   2.517  0.0376  0.4097 -0.5252
  545MOL0     C75133   2.045  11.207   2.525  0.9435 -0.4248  0.6187
  545MOL0     C75134   2.148  11.166   2.412  0.1580  0.8709 -0.6389
  545MOL0     C75135   2.295  11.211   2.437  0.3587 -0.3404 -0.9353
  545MOL0     C75136   2.320  11.355   2.416  0.4228  0.6500 -0.1662
  545MOL0     C75137   2.345  11.475   2.408 -0.4153 -0.1245 -0.7536
  545MOL0     C75138   1.793  10.789   2.561  1.0707 -0.0922  0.0238
  545MOL0     C75139   1.667  10.724   2.567  0.6801  0.5081 -0.6336
  545MOL0     C75140   1.673  10.574   2.614  0.5285 -0.1734  0.1456
  545MOL0     H75141   1.120  10.873   2.380  2.4686 -1.6806  0.1935
  545MOL0     H75142   0.882  10.823   2.398 -0.4504 -0.4245  0.5069
  545MOL0     H75143   0.758  10.805   2.784 -2.8884  1.0859  1.4022
  545MOL0     H75144   0.744  10.622   2.800 -0.4977  0.1546  2.3543
  545MOL0     H75145   0.521  10.637   2.696 -0.3023 -0.5732 -0.3738
  545MOL0     H75146   0.532  10.715   2.857  2.2429  1.0456  0.5415
  545MOL0     H75147   0.573  10.940   2.746 -1.9797  2.1985  0.0389
  545MOL0     H75148   0.540  10.858   2.593 -1.9462 -1.4517 -0.7640
  545MOL0     H75149   0.313  10.785   2.659 -1.7234  4.0270 -4.7837
  545MOL0     H75150   0.333  10.866   2.816 -0.9505  2.5005 -0.7084
  545MOL0     H75151   0.203  11.002   2.682 -1.1514  3.4851 -0.5179
  545MOL0     H75152   0.304  10.974   2.535  0.4422 -0.8402  0.2874
  545MOL0     H75153   0.471  11.143   2.625 -0.0302  0.7167 -1.1556
  545MOL0     H75154   0.326  11.217   2.611 -0.1721  1.1033  0.5650
  545MOL0     H75155   0.409  11.064   2.867  0.6266  0.5495  0.6356
  545MOL0     H75156   0.263  11.160   2.858 -0.1492  3.4647 -1.1922
  545MOL0     H75157   0.467  11.251   2.989 -2.0546  1.4723  0.1457
  545MOL0     H75158   0.545  11.282   2.839 -0.7674  1.7940 -0.7248
  545MOL0     H75159   0.550  11.512   2.771 -0.0646 -1.0372 -3.3863
  545MOL0     H75160   0.397  11.795   2.950  0.0199  1.8664 -1.1683
  545MOL0     H75161   0.397  11.796   2.769  0.3762 -1.2472 -1.7039
  545MOL0     H75162   0.609  11.852   2.919  1.5831 -0.4678  2.0674
  545MOL0     H75163   0.625  11.670   2.921  0.0475 -1.6383 -2.0046
  545MOL0     H75164   0.592  11.695   2.651 -0.6204 -1.0108  1.0427
  545MOL0     H75165   0.621  11.868   2.684 -1.7307 -0.1966  1.6292
  545MOL0     H75166   0.801  11.635   2.781 -2.6416  1.1806  0.7275
  545MOL0     H75167   0.824  11.704   2.620 -0.9077 -0.1887 -0.5898
  545MOL0     H75168   0.999  12.007   2.926  0.8782  1.6316 -0.2035
  545MOL0     H75169   1.062  12.339   2.883 -1.2297 -0.4555 -2.3618
  545MOL0     H75170   1.196  12.217   2.921  0.2206  0.2157  1.7358
  545MOL0     H75171   1.043  12.208   3.001  2.3210 -1.1492 -0.2158
  545MOL0     H75172   1.168  12.410   2.313  2.0495  0.4946  1.7541
  545MOL0     H75173   1.236  12.614   2.200  2.8397 -2.0515  2.4773
  545MOL0     H75174   1.309  12.838   2.130  0.1332  2.0334 -1.2022
  545MOL0     H75175   1.269  12.998   2.160 -1.1773  0.0851 -1.5998
  545MOL0     H75176   1.305  12.933   2.412  1.4943 -0.3403  0.5350
  545MOL0     H75177   1.404  12.810   2.351  0.5934  0.3392 -0.8752
  545MOL0     H75178   1.514  13.028   2.423  0.8265  0.4401 -1.3307
  545MOL0     H75179   1.428  13.116   2.295 -1.4331  0.4992 -0.0245
  545MOL0     H75180   1.544  13.002   2.124 -0.5582  0.8100 -0.7739
  545MOL0     H75181   1.598  12.880   2.234 -2.9196  0.0467  1.4028
  545MOL0     H75182   1.671  13.177   2.275  0.4446  0.2140  0.5024
  545MOL0     H75183   1.732  13.037   2.364 -1.4403 -0.0945 -0.0825
  545MOL0     H75184   1.763  13.094   2.079  1.6387 -1.9582 -1.5359
  545MOL0     H75185   1.817  12.942   2.156 -1.7528 -0.5467 -0.6208
  545MOL0     H75186   1.984  13.057   2.289 -0.4492  0.5794  1.2128
  545MOL0     H75187   1.925  13.215   2.251 -0.4826 -0.6058  1.3717
  545MOL0     H75188   1.963  13.149   2.012  1.5813  0.6691 -2.0054
  545MOL0     H75189   2.084  13.027   2.073  1.0334  0.3771  0.8274
  545MOL0     H75190   1.003  12.839   2.474  1.5304 -0.5249  0.7123
  545MOL0     H75191   0.913  12.629   2.567 -1.3998 -0.1544 -0.4867
  545MOL0     H75192   0.860  12.159   2.490 -0.3197 -0.3674  1.0182
  545MOL0     H75193   0.836  11.931   2.537 -0.9946 -0.0527  0.8333
  545MOL0     H75194   0.962  10.624   2.777 -2.2452 -0.5516 -1.9911
  545MOL0     H75195   1.193  10.656   2.747  0.1713 -1.1292 -0.4549
  545MOL0     H75196   1.461  10.979   2.500 -0.9624 -0.9693  1.6814
  545MOL0     H75197   1.670  11.094   2.494  2.3583  0.4106  1.6343
  545MOL0     H75198   1.854  11.183   2.428 -1.7545  1.0090  0.7213
  545MOL0     H75199   1.853  11.175   2.608 -0.2320 -1.7914  0.0705
  545MOL0     H75200   2.088  11.179   2.622  1.3384 -1.5268  0.1508
  545MOL0     H75201   2.031  11.315   2.523 -3.1795 -0.8006  1.1668
  545MOL0     H75202   2.159  11.059   2.391  3.3344  1.1725 -1.0092
  545MOL0     H75203   2.112  11.220   2.324 -0.3538  4.9713  1.8313
  545MOL0     H75204   2.362  11.153   2.373 -1.8135 -2.4616 -1.4491
  545MOL0     H75205   2.323  11.186   2.540  0.7846  0.5197 -0.8295
  545MOL0     H75206   2.366  11.580   2.399 -0.1194 -0.1481 -0.3470
  545MOL0     H75207   1.885  10.732   2.573  1.8613  0.6413 -2.0073
  545MOL0     H75208   1.775  10.534   2.610  1.4854  2.1351 -0.3460
  545MOL0     H75209   1.619  10.560   2.708 -3.4418  3.7781 -1.2275
  545MOL0     H75210   1.617  10.513   2.542  1.7615 -2.4532  0.9997
  546MOL0     O75211   3.371  10.444   9.968  0.1527 -0.0710  0.3945
  546MOL0     C75212   3.355  10.328   9.925  0.2433 -0.1279  0.0328
  546MOL0     O75213   3.460  10.255   9.880 -0.4547 -0.3250 -0.2567
  546MOL0     C75214   3.590  10.301   9.884  0.1221 -0.4708  0.2247
  546MOL0     C75215   3.663  10.314   9.770  0.6033  1.1802  0.8514
  546MOL0     C75216   3.800  10.348   9.774  0.1812  0.8302 -0.1877
  546MOL0     C75217   3.863  10.369   9.895  0.2850  0.3081 -0.6607
  546MOL0     O75218   3.993  10.423   9.908  1.0600 -0.6455  0.0218
  546MOL0     C75219   4.093  10.354   9.840  0.8082  0.8404 -0.4563
  546MOL0     C75220   4.225  10.425   9.878  0.0179  0.0739 -0.2092
  546MOL0     C75221   4.216  10.580   9.860 -0.3179  0.0604 -0.5770
  546MOL0     C75222   4.340  10.638   9.935  1.2676  0.2160  1.2242
  546MOL0     C75223   4.335  10.791   9.929 -0.6690  0.1912  0.1542
  546MOL0     C75224   4.347  10.848   9.790 -0.7657  0.5819 -0.6987
  546MOL0     C75225   4.380  10.996   9.779  0.4757  0.9810 -0.1791
  546MOL0     C75226   4.399  11.056   9.639 -0.0561  0.0545 -0.1021
  546MOL0     N75227   4.429  11.203   9.654 -0.1104 -0.6012  0.1271
  546MOL0     C75228   4.342  11.297   9.707  1.2283 -0.0232  0.4921
  546MOL0     C75229   4.404  11.409   9.686  0.5411 -0.2972  0.1113
  546MOL0     C75230   4.367  11.545   9.727  0.8065 -1.5566 -0.6578
  546MOL0     C75231   4.476  11.647   9.683  0.3621 -0.3447  0.4146
  546MOL0     C75232   4.455  11.791   9.744 -0.5830  0.1322  0.3372
  546MOL0     C75233   4.586  11.866   9.709  0.1098 -0.3830 -0.2472
  546MOL0     O75234   4.570  12.002   9.690  0.5246  0.0143  0.5019
  546MOL0     C75235   4.676  12.081   9.658 -0.3427 -0.1728  1.2386
  546MOL0     C75236   4.712  12.186   9.740 -0.3885 -0.3520 -0.6048
  546MOL0     C75237   4.821  12.269   9.719 -0.7577 -0.6107  0.3882
  546MOL0     C75238   4.825  12.387   9.813  0.7130  0.1678  0.5462
  546MOL0     C75239   4.910  12.241   9.609 -0.2716  0.3518 -0.3204
  546MOL0     C75240   5.025  12.333   9.572 -0.3930  0.2797  0.7072
  546MOL0     O75241   5.137  12.263   9.532 -0.3399 -0.1121 -0.3884
  546MOL0     C75242   5.246  12.315   9.458  0.5542  0.6838  0.1966
  546MOL0     C75243   5.237  12.422   9.372 -0.4718 -0.0113  0.1774
  546MOL0     C75244   5.354  12.472   9.316  0.2882 -0.4799  0.5910
  546MOL0     C75245   5.485  12.419   9.331  0.5506  0.1809  0.1508
  546MOL0     O75246   5.594  12.468   9.276  0.4070 -0.5437 -0.9076
  546MOL0     C75247   5.588  12.508   9.143  0.3849 -0.5270 -0.5712
  546MOL0     C75248   5.731  12.512   9.086 -0.3639  0.4169  0.3167
  546MOL0     C75249   5.819  12.382   9.110  0.7046 -0.2046 -0.7264
  546MOL0     C75250   5.967  12.408   9.067  0.5122  0.4116 -0.0015
  546MOL0     C75251   6.060  12.293   9.083 -0.1391 -0.5260 -0.6465
  546MOL0     C75252   6.092  12.248   9.225  0.6289 -0.5464  0.4270
  546MOL0     C75253   6.195  12.130   9.221 -0.5040  0.0614  0.4331
  546MOL0     C75254   6.336  12.189   9.226 -0.6731  0.2135  0.2398
  546MOL0    Cl75255   6.463  12.064   9.220  0.4854 -0.0156 -0.6818
  546MOL0     C75256   5.490  12.308   9.415 -0.2811 -0.2165 -0.5052
  546MOL0     C75257   5.370  12.259   9.482 -0.6466 -0.5420  0.0184
  546MOL0     O75258   5.004  12.458   9.554  0.3188 -0.3257 -0.2210
  546MOL0     C75259   4.876  12.125   9.535  1.1311 -0.6007  0.2785
  546MOL0     C75260   4.761  12.052   9.554 -0.3824  0.6671  0.6343
  546MOL0     N75261   4.519  11.389   9.611  0.5795 -0.4561  0.0004
  546MOL0     N75262   4.526  11.260   9.580  0.2424 -0.5118 -0.2919
  546MOL0     C75263   3.785  10.365  10.012 -0.4182 -0.0685 -0.2348
  546MOL0     C75264   3.649  10.333  10.009 -0.2445 -0.3524 -0.2629
  546MOL0     C75265   3.222  10.256   9.921  0.2818 -0.6184  0.5203
  546MOL0     C75266   3.211  10.140   9.824  0.4216 -0.2816 -0.0739
  546MOL0     C75267   3.088  10.060   9.829 -0.2064 -0.0434 -0.7294
  546MOL0     C75268   2.984  10.099   9.908  0.0166 -0.5484  0.2163
  546MOL0     O75269   2.877  10.021   9.903  0.2361  0.3936 -0.1022
  546MOL0     C75270   2.767  10.077   9.829 -0.4081 -1.3235  0.1828
  546MOL0     C75271   2.645   9.984   9.830  0.3951  0.2453  0.7004
  546MOL0     C75272   2.528  10.033   9.742 -0.2848 -0.2266  0.9040
  546MOL0     C75273   2.427   9.920   9.740 -0.7405  0.0078 -1.1917
  546MOL0     C75274   2.313   9.977   9.666 -0.5433 -0.6146 -0.3407
  546MOL0     C75275   2.218  10.029   9.608  0.4794 -0.1963  0.1540
  546MOL0     C75276   2.996  10.207   9.995  0.5414 -0.1060  0.3461
  546MOL0     C75277   3.109  10.290   9.998  0.4402 -0.2599  0.2441
  546MOL0     C75278   3.108  10.403  10.091  0.1987 -0.7243  0.6386
  546MOL0     H75279   3.622  10.291   9.672  2.0176  1.3241  0.1925
  546MOL0     H75280   3.839  10.358   9.673 -1.3758  0.1563 -0.8946
  546MOL0     H75281   4.076  10.356   9.732 -1.3790 -0.3490 -0.2009
  546MOL0     H75282   4.086  10.251   9.877 -0.8414  1.2550  0.4643
  546MOL0     H75283   4.249  10.410   9.983  1.4276  3.0192  0.0106
  546MOL0     H75284   4.303  10.382   9.813 -2.9902 -3.1323 -1.9975
  546MOL0     H75285   4.205  10.608   9.755 -0.5326  0.8886 -0.3386
  546MOL0     H75286   4.127  10.620   9.910  0.5533  0.2989  0.8389
  546MOL0     H75287   4.332  10.602  10.038 -1.1548  1.6876  1.6593
  546MOL0     H75288   4.425  10.596   9.882 -1.2751 -3.6215 -0.2873
  546MOL0     H75289   4.398  10.849   9.997 -0.9828  2.2934 -1.2517
  546MOL0     H75290   4.236  10.826   9.958  0.4908 -0.0522  5.3924
  546MOL0     H75291   4.430  10.788   9.752 -0.1594  0.3007  1.0023
  546MOL0     H75292   4.261  10.834   9.723  1.3040 -2.0969 -3.0373
  546MOL0     H75293   4.474  11.014   9.832  0.3087  1.6510 -0.1061
  546MOL0     H75294   4.305  11.054   9.833  0.8822  0.6416  0.7825
  546MOL0     H75295   4.484  11.012   9.585  0.7512 -3.3377  3.4401
  546MOL0     H75296   4.305  11.044   9.584 -1.7338  1.2763  2.3550
  546MOL0     H75297   4.251  11.273   9.761  0.3581 -0.3771 -1.0533
  546MOL0     H75298   4.348  11.542   9.835  0.9335 -3.1941 -0.6566
  546MOL0     H75299   4.270  11.576   9.687  0.5087 -0.8988  0.5047
  546MOL0     H75300   4.574  11.611   9.717  0.2219 -1.0298  0.0963
  546MOL0     H75301   4.476  11.653   9.574 -0.9650  0.3439  0.4337
  546MOL0     H75302   4.368  11.832   9.692 -1.9653 -2.4620  0.4524
  546MOL0     H75303   4.450  11.795   9.853  1.7697 -0.3473  0.5199
  546MOL0     H75304   4.665  11.838   9.778  0.1050 -0.3060 -0.2089
  546MOL0     H75305   4.626  11.827   9.615  1.6678 -0.2029  0.3208
  546MOL0     H75306   4.653  12.203   9.829  1.2711 -3.8938  1.3680
  546MOL0     H75307   4.726  12.432   9.810  0.9391  0.7536  1.5386
  546MOL0     H75308   4.896  12.464   9.782  0.8029 -0.2593 -0.3519
  546MOL0     H75309   4.851  12.361   9.916  2.6943  2.5647  0.7398
  546MOL0     H75310   5.141  12.458   9.338 -1.7423 -2.2449  1.1514
  546MOL0     H75311   5.333  12.549   9.243  2.4006 -0.9811 -0.6388
  546MOL0     H75312   5.533  12.434   9.085  0.4417 -0.8832 -0.1777
  546MOL0     H75313   5.537  12.604   9.150  1.1439 -0.1540 -0.0744
  546MOL0     H75314   5.726  12.539   8.980  0.7841  2.1983  0.6729
  546MOL0     H75315   5.772  12.598   9.139 -2.3954 -0.1139  2.9230
  546MOL0     H75316   5.782  12.290   9.063  1.5485 -1.6367  1.2583
  546MOL0     H75317   5.820  12.350   9.215 -1.5875  0.6504 -0.3798
  546MOL0     H75318   6.008  12.492   9.123  0.3322  0.7746 -0.4065
  546MOL0     H75319   5.963  12.441   8.963 -0.6678 -1.4693 -0.5930
  546MOL0     H75320   6.023  12.205   9.030 -0.0544 -0.5726 -0.6296
  546MOL0     H75321   6.155  12.318   9.036  0.6052 -1.5874  0.2505
  546MOL0     H75322   5.998  12.218   9.272 -0.1711  2.1191  0.6946
  546MOL0     H75323   6.126  12.330   9.289 -0.6285  0.5231 -0.2321
  546MOL0     H75324   6.194  12.061   9.136 -2.1285  0.3658  0.1807
  546MOL0     H75325   6.192  12.070   9.313 -2.2885  3.1195  2.5783
  546MOL0     H75326   6.348  12.250   9.316 -0.2163 -3.0600  2.5763
  546MOL0     H75327   6.359  12.236   9.130  2.8661 -4.0338 -1.3149
  546MOL0     H75328   5.583  12.258   9.444  0.6738  1.5355 -0.4175
  546MOL0     H75329   5.382  12.174   9.548 -1.6776 -0.4962  0.2742
  546MOL0     H75330   4.937  12.103   9.448 -0.5464 -0.6781 -0.9290
  546MOL0     H75331   4.739  11.962   9.497 -1.1960  0.4763  1.2330
  546MOL0     H75332   3.835  10.407  10.099  2.3959 -0.8433 -1.3676
  546MOL0     H75333   3.600  10.328  10.106  0.2865  0.4996  0.0610
  546MOL0     H75334   3.287  10.117   9.751  1.0452 -2.1132  1.0732
  546MOL0     H75335   3.081   9.978   9.759  1.0776 -1.5093  0.7710
  546MOL0     H75336   2.729  10.171   9.868 -0.2545 -1.0091 -0.4162
  546MOL0     H75337   2.803  10.100   9.728  0.9889 -0.9457  0.7426
  546MOL0     H75338   2.605   9.959   9.928 -1.2791 -0.7677 -0.1890
  546MOL0     H75339   2.687   9.894   9.784  0.7438  0.2558  0.9941
  546MOL0     H75340   2.492  10.131   9.774  1.2525  0.4819  0.5827
  546MOL0     H75341   2.568  10.032   9.640 -4.0328 -2.8403 -0.7735
  546MOL0     H75342   2.401   9.887   9.841  0.9351 -0.4581 -0.8959
  546MOL0     H75343   2.479   9.837   9.693  0.4038 -0.1107  0.2140
  546MOL0     H75344   2.139  10.057   9.541  0.8824  2.7044  0.7581
  546MOL0     H75345   2.911  10.222  10.061 -0.0064  5.4263 -1.1533
  546MOL0     H75346   3.167  10.492  10.065 -0.3324 -0.1783  1.2826
  546MOL0     H75347   3.008  10.446  10.101  0.1545 -0.3771 -1.0007
  546MOL0     H75348   3.140  10.368  10.190  0.9199 -0.4435  0.5155
  547MOL0     O75349   6.863   0.037   6.652  0.4486  0.1935  0.9618
  547MOL0     C75350   6.796  -0.012   6.559  0.6186  0.5859 -0.2904
  547MOL0     O75351   6.849  -0.058   6.442 -0.4683  0.2345  0.0362
  547MOL0     C75352   6.988  -0.061   6.424  0.0512 -0.6157 -1.5685
  547MOL0     C75353   7.070   0.051   6.441  0.2027  0.4575  0.2350
  547MOL0     C75354   7.206   0.046   6.420 -0.1490  0.0360 -0.5649
  547MOL0     C75355   7.268  -0.073   6.370  0.1088 -0.5217  0.5781
  547MOL0     O75356   7.403  -0.074   6.359 -0.3827  0.4030 -0.4025
  547MOL0     C75357   7.468  -0.152   6.252 -0.2709 -0.1095 -0.3678
  547MOL0     C75358   7.606  -0.102   6.225  0.4106  0.4695  0.0919
  547MOL0     C75359   7.692  -0.145   6.339 -0.3510  0.3092  0.0185
  547MOL0     C75360   7.765  -0.276   6.297 -0.0907  0.0634 -0.3459
  547MOL0     C75361   7.871  -0.336   6.386 -0.0347 -0.0855  0.0780
  547MOL0     C75362   7.897  -0.484   6.342  0.1257  0.3692 -0.4876
  547MOL0     C75363   7.793  -0.584   6.403  0.6502  0.0930 -1.1344
  547MOL0     C75364   7.804  -0.722   6.350 -0.3519  0.2556  0.3687
  547MOL0     N75365   7.926  -0.792   6.385  0.1311 -0.4012 -0.5159
  547MOL0     C75366   7.983  -0.793   6.510 -0.6405 -0.2328 -0.2984
  547MOL0     C75367   8.086  -0.866   6.491 -0.7178  0.7288  0.1870
  547MOL0     C75368   8.196  -0.908   6.587  0.2467 -0.0027  0.4736
  547MOL0     C75369   8.237  -1.054   6.564 -0.6212  0.2683  0.0363
  547MOL0     C75370   8.320  -1.098   6.690 -0.2541 -0.1846  0.3149
  547MOL0     C75371   8.475  -1.060   6.680 -0.2834 -1.3857 -0.0378
  547MOL0     O75372   8.493  -0.917   6.664  0.7072  0.0177  0.3424
  547MOL0     C75373   8.622  -0.870   6.639  0.0616 -0.2519  0.2628
  547MOL0     C75374   8.743  -0.940   6.644  1.2747  0.4212 -0.5278
  547MOL0     C75375   8.870  -0.888   6.630 -0.0897 -0.0280 -0.0587
  547MOL0     C75376   8.981  -0.986   6.637  0.0874 -0.2446  0.7835
  547MOL0     C75377   8.882  -0.746   6.612 -0.3382  0.4391  0.8402
  547MOL0     C75378   9.009  -0.676   6.580  0.3971 -0.5538 -0.7395
  547MOL0     O75379   8.999  -0.545   6.542  0.5347 -0.2610 -0.3591
  547MOL0     C75380   9.120  -0.481   6.525  0.4709 -0.0524 -0.5471
  547MOL0     C75381   9.159  -0.377   6.616 -0.2692  0.1125  0.1452
  547MOL0     C75382   9.285  -0.319   6.611 -0.1418 -0.7014  0.0448
  547MOL0     C75383   9.380  -0.355   6.509  0.4387 -0.5396  0.2298
  547MOL0     O75384   9.506  -0.301   6.504  0.2728  0.1110  0.3896
  547MOL0     C75385   9.616  -0.392   6.509  0.2287 -0.2472  0.2659
  547MOL0     C75386   9.671  -0.404   6.648 -0.4165 -0.0533  0.0806
  547MOL0     C75387   9.816  -0.461   6.654 -0.2091 -0.0825 -0.0577
  547MOL0     C75388   9.861  -0.501   6.793  0.3976  0.2306 -0.3152
  547MOL0     C75389  10.002  -0.556   6.801 -0.3906  0.5129 -0.6138
  547MOL0     C75390  10.024  -0.612   6.945 -0.1077 -0.9519 -0.1963
  547MOL0     C75391  10.138  -0.709   6.964  0.1775 -0.1524  0.4029
  547MOL0     C75392  10.177  -0.738   7.113 -1.2569 -0.0440  1.0952
  547MOL0    Cl75393  10.046  -0.817   7.194 -0.1335  0.0034  0.4835
  547MOL0     C75394   9.335  -0.445   6.412 -0.3875  0.2924  0.3940
  547MOL0     C75395   9.210  -0.512   6.425  0.4218 -0.6062 -0.2925
  547MOL0     O75396   9.117  -0.729   6.605 -0.1671 -0.0310 -0.1731
  547MOL0     C75397   8.757  -0.671   6.612 -0.1310  0.3970  0.3581
  547MOL0     C75398   8.633  -0.738   6.608 -0.3569  0.0792 -0.8468
  547MOL0     N75399   8.086  -0.916   6.359  0.6858 -0.8574  0.2320
  547MOL0     N75400   8.001  -0.843   6.286 -0.3136 -0.0800  0.8178
  547MOL0     C75401   7.183  -0.184   6.336  0.1031  0.8147 -0.8339
  547MOL0     C75402   7.047  -0.181   6.378  0.4647 -0.5698  0.3614
  547MOL0     C75403   6.651   0.003   6.562  0.3026  0.4279 -0.4109
  547MOL0     C75404   6.575   0.014   6.442 -0.3711  0.3954  0.3254
  547MOL0     C75405   6.438   0.043   6.430  0.0568  0.5408  0.5514
  547MOL0     C75406   6.361   0.049   6.548 -0.5535 -0.1863 -0.5422
  547MOL0     O75407   6.222   0.048   6.555 -0.0100 -0.8111  0.4014
  547MOL0     C75408   6.171   0.158   6.474  0.3369 -0.5486  0.1787
  547MOL0     C75409   6.097   0.106   6.350  0.2425  0.7309  0.0928
  547MOL0     C75410   5.948   0.076   6.381  0.0369  0.2142 -0.3222
  547MOL0     C75411   5.876  -0.001   6.262  0.5938  0.2858 -0.0885
  547MOL0     C75412   5.844   0.102   6.158 -0.0101  0.6799  1.4444
  547MOL0     C75413   5.815   0.173   6.061  0.2769  0.2017 -0.6693
  547MOL0     C75414   6.426   0.031   6.671 -0.2118  0.2090 -0.2885
  547MOL0     C75415   6.570   0.028   6.682  0.1282 -0.1806  0.1446
  547MOL0     C75416   6.631   0.040   6.820  0.0560 -0.3574 -0.8907
  547MOL0     H75417   7.025   0.144   6.474  0.3099  0.7719 -0.4775
  547MOL0     H75418   7.264   0.136   6.438 -1.2570  0.7633 -0.5338
  547MOL0     H75419   7.411  -0.149   6.159 -0.1283 -0.8364 -0.4804
  547MOL0     H75420   7.463  -0.259   6.271 -2.0741 -0.4709 -2.5162
  547MOL0     H75421   7.640  -0.140   6.127  2.6727 -1.4573  1.5090
  547MOL0     H75422   7.604   0.005   6.206  3.8308  0.4197 -1.4042
  547MOL0     H75423   7.776  -0.077   6.352  1.0915 -1.3787 -0.1050
  547MOL0     H75424   7.631  -0.153   6.429 -1.1777 -1.8012 -0.6656
  547MOL0     H75425   7.695  -0.360   6.291  0.3302 -0.3107 -0.1326
  547MOL0     H75426   7.800  -0.263   6.195  1.9113 -0.9419  0.1505
  547MOL0     H75427   7.836  -0.329   6.489  1.2233  1.9354  0.4276
  547MOL0     H75428   7.961  -0.275   6.374 -0.7998  0.8261 -1.4097
  547MOL0     H75429   7.907  -0.483   6.233  0.9122  0.3058 -0.4291
  547MOL0     H75430   8.004  -0.503   6.356 -0.1753 -0.3175  1.0545
  547MOL0     H75431   7.691  -0.551   6.381  0.6187 -1.7437 -4.4573
  547MOL0     H75432   7.794  -0.580   6.512 -1.2205  1.9402 -1.1151
  547MOL0     H75433   7.723  -0.783   6.392 -0.2148 -0.5886 -0.5523
  547MOL0     H75434   7.802  -0.720   6.241  4.6168 -2.1145 -0.0530
  547MOL0     H75435   7.953  -0.749   6.604 -0.2021  0.4003 -0.4472
  547MOL0     H75436   8.150  -0.888   6.684 -2.0687 -0.0686 -0.5326
  547MOL0     H75437   8.276  -0.834   6.580 -1.4747  1.8446 -0.9303
  547MOL0     H75438   8.155  -1.125   6.549  0.8392 -1.4388 -0.1888
  547MOL0     H75439   8.298  -1.059   6.473 -0.9039  1.7196 -0.2594
  547MOL0     H75440   8.273  -1.072   6.785  1.1637 -1.8478  1.5596
  547MOL0     H75441   8.325  -1.207   6.678  1.8270  0.1773 -3.8624
  547MOL0     H75442   8.532  -1.091   6.768 -3.0674  2.4243  3.5018
  547MOL0     H75443   8.509  -1.108   6.587 -0.6395 -0.7677 -0.4990
  547MOL0     H75444   8.734  -1.044   6.673 -0.1001  0.8321  0.6632
  547MOL0     H75445   9.036  -0.954   6.726  0.3233  0.1231  0.5081
  547MOL0     H75446   9.037  -0.969   6.544 -0.5825 -0.4994  0.3230
  547MOL0     H75447   8.954  -1.092   6.646  3.5693 -1.1145  2.6563
  547MOL0     H75448   9.083  -0.343   6.686 -1.5995 -0.2251 -1.0978
  547MOL0     H75449   9.331  -0.252   6.683  1.9135  0.1472 -1.9180
  547MOL0     H75450   9.589  -0.490   6.470 -0.7619  0.1654 -0.1252
  547MOL0     H75451   9.701  -0.346   6.457 -0.1047  0.3671  0.2612
  547MOL0     H75452   9.676  -0.311   6.706  2.0110 -0.1083  0.0910
  547MOL0     H75453   9.599  -0.470   6.697 -1.7441  3.0558  2.7379
  547MOL0     H75454   9.878  -0.381   6.612  0.7502 -0.2142  1.0555
  547MOL0     H75455   9.826  -0.550   6.592 -0.8430 -0.1516 -0.0685
  547MOL0     H75456   9.789  -0.580   6.818 -1.2102  0.6135 -3.3379
  547MOL0     H75457   9.857  -0.413   6.858 -2.4021  0.3276 -0.4934
  547MOL0     H75458  10.008  -0.639   6.731  0.2017  0.4043 -0.4424
  547MOL0     H75459  10.080  -0.484   6.774 -0.3297  1.1361  1.0842
  547MOL0     H75460   9.936  -0.675   6.964 -0.7295 -0.4114 -1.2250
  547MOL0     H75461  10.035  -0.532   7.018  2.4759 -1.3372 -0.0842
  547MOL0     H75462  10.230  -0.670   6.919  0.2727 -0.2208  0.5376
  547MOL0     H75463  10.115  -0.804   6.916 -2.6905 -0.5399  2.2955
  547MOL0     H75464  10.206  -0.650   7.170  0.5502  0.4806 -0.5459
  547MOL0     H75465  10.271  -0.794   7.113 -2.0088 -1.4345 -1.1536
  547MOL0     H75466   9.399  -0.468   6.328 -1.4561  0.0023 -0.3591
  547MOL0     H75467   9.179  -0.580   6.347 -2.2165 -2.0821  1.8587
  547MOL0     H75468   8.754  -0.564   6.595 -3.1233  0.1019 -1.7312
  547MOL0     H75469   8.548  -0.671   6.598 -1.5619 -1.3923 -0.7831
  547MOL0     H75470   7.232  -0.277   6.309  2.0437  2.7305 -4.7450
  547MOL0     H75471   6.980  -0.265   6.362 -1.1149  0.5144  1.0393
  547MOL0     H75472   6.634   0.013   6.351  2.3387 -1.1836  1.9712
  547MOL0     H75473   6.401   0.057   6.329 -1.5364 -1.5810  0.8014
  547MOL0     H75474   6.103   0.218   6.535 -0.3316 -1.5552  0.4554
  547MOL0     H75475   6.257   0.220   6.446 -0.4132  0.3482 -0.1854
  547MOL0     H75476   6.142   0.026   6.290 -0.7484  1.0136 -1.0600
  547MOL0     H75477   6.085   0.194   6.286  0.9165 -0.2806 -1.4913
  547MOL0     H75478   5.939   0.024   6.477 -2.9246  0.5836 -0.3242
  547MOL0     H75479   5.904   0.175   6.397 -1.5125 -0.6357  0.8499
  547MOL0     H75480   5.778  -0.036   6.296  0.6457 -2.6300 -2.4872
  547MOL0     H75481   5.932  -0.092   6.239 -0.7095 -0.6825  0.3911
  547MOL0     H75482   5.802   0.240   5.979  1.2970  2.7308  1.0918
  547MOL0     H75483   6.368   0.050   6.761 -0.3265  1.4297 -0.6033
  547MOL0     H75484   6.552   0.027   6.895  0.8255 -0.9763 -0.1638
  547MOL0     H75485   6.716  -0.026   6.839  2.0428  1.8948 -1.4792
  547MOL0     H75486   6.667   0.143   6.827  2.1771 -0.9219 -2.3874
  548MOL0     O75487   7.629   2.652   4.470 -0.1504  0.4386 -0.2101
  548MOL0     C75488   7.577   2.557   4.409 -0.0459  0.2421 -0.1077
  548MOL0     O75489   7.648   2.466   4.324 -0.5113  0.3393 -0.1808
  548MOL0     C75490   7.786   2.469   4.319 -0.3436  0.0462 -0.4343
  548MOL0     C75491   7.838   2.468   4.188  0.5209  0.7193  0.0102
  548MOL0     C75492   7.968   2.481   4.157  0.0059  0.4140 -0.3899
  548MOL0     C75493   8.060   2.499   4.265  0.4708  0.0804 -0.5225
  548MOL0     O75494   8.191   2.502   4.225 -0.4779 -0.7016 -0.1708
  548MOL0     C75495   8.292   2.495   4.323  0.5447 -0.2479  0.2457
  548MOL0     C75496   8.313   2.627   4.399 -0.5423  0.6188  0.4921
  548MOL0     C75497   8.462   2.661   4.427 -0.3872  0.4775  0.1451
  548MOL0     C75498   8.515   2.569   4.537 -0.4307 -0.1140  0.8252
  548MOL0     C75499   8.657   2.603   4.584  0.8420 -0.1867 -0.0268
  548MOL0     C75500   8.657   2.733   4.659  0.3943  0.5026  0.5353
  548MOL0     C75501   8.798   2.772   4.726  0.6050 -0.3828 -0.6123
  548MOL0     C75502   8.897   2.795   4.617  0.2123 -0.1460  0.3726
  548MOL0     N75503   9.020   2.849   4.675 -0.1659 -0.0806 -0.6331
  548MOL0     C75504   9.029   2.969   4.753  0.0957  0.2207  0.3709
  548MOL0     C75505   9.165   2.979   4.763  0.0809 -0.0184  0.4963
  548MOL0     C75506   9.230   3.094   4.832 -0.1873 -0.4219 -0.5115
  548MOL0     C75507   9.382   3.118   4.785  1.0110  0.1537  0.7373
  548MOL0     C75508   9.461   3.227   4.864 -0.5588 -0.2239  0.1698
  548MOL0     C75509   9.614   3.219   4.828 -0.3206  0.0108 -0.3124
  548MOL0     O75510   9.680   3.323   4.891  0.4235  0.4031  0.0513
  548MOL0     C75511   9.811   3.315   4.943  0.8604 -0.3084  0.6053
  548MOL0     C75512   9.849   3.395   5.047 -0.6148 -0.9331 -0.7078
  548MOL0     C75513   9.981   3.402   5.086 -0.1513 -0.3230 -0.4233
  548MOL0     C75514  10.004   3.502   5.204  0.4479 -0.4568  0.5360
  548MOL0     C75515  10.079   3.324   5.021  0.7492  0.4886 -0.4857
  548MOL0     C75516  10.223   3.311   5.063 -0.0174  0.2876  0.0416
  548MOL0     O75517  10.253   3.362   5.185  0.2751  0.1276 -0.1645
  548MOL0     C75518  10.373   3.367   5.251 -0.0153 -0.0803  0.4387
  548MOL0     C75519  10.499   3.362   5.183  0.7794 -0.2202 -1.0092
  548MOL0     C75520  10.616   3.374   5.250  0.0660 -1.3027  0.4562
  548MOL0     C75521  10.621   3.401   5.388 -0.3372  0.5469  0.5638
  548MOL0     O75522  10.743   3.408   5.446  0.0211 -0.5001  0.2131
  548MOL0     C75523  10.760   3.406   5.587 -0.8302 -0.2616 -1.0891
  548MOL0     C75524  10.911   3.392   5.629 -0.0520 -0.1220  0.4831
  548MOL0     C75525  10.999   3.320   5.526 -0.0040 -0.2391  0.3087
  548MOL0     C75526  10.970   3.170   5.522 -0.3232  0.5132  0.1725
  548MOL0     C75527  11.060   3.105   5.425 -1.0736  0.3557  0.2629
  548MOL0     C75528  11.019   2.959   5.416 -0.5927  0.5758  0.3232
  548MOL0     C75529  11.131   2.880   5.341  0.3199  0.1156 -0.1810
  548MOL0     C75530  11.235   2.792   5.411  0.5545 -0.0973  1.7336
  548MOL0    Cl75531  11.166   2.698   5.559  0.2313  0.3887  0.1378
  548MOL0     C75532  10.500   3.432   5.454  0.2004 -0.3672  0.8624
  548MOL0     C75533  10.374   3.411   5.386 -0.2877  0.3307 -0.4298
  548MOL0     O75534  10.299   3.242   4.994  0.3041 -0.1370  0.7089
  548MOL0     C75535  10.043   3.246   4.909 -0.4113  0.1984  0.0786
  548MOL0     C75536   9.909   3.244   4.870 -0.1494 -0.3954  0.3213
  548MOL0     N75537   9.224   2.874   4.688  0.9052 -0.1266  0.3324
  548MOL0     N75538   9.134   2.792   4.646 -0.7530  0.7752  0.2570
  548MOL0     C75539   8.011   2.499   4.393  0.3395 -0.3250  0.5475
  548MOL0     C75540   7.876   2.486   4.424 -0.2774  1.0200 -0.1784
  548MOL0     C75541   7.428   2.529   4.421 -0.8057 -0.0611 -0.2036
  548MOL0     C75542   7.366   2.443   4.328  0.0392 -0.0533  0.4390
  548MOL0     C75543   7.238   2.399   4.338 -0.1562  0.0343  0.7700
  548MOL0     C75544   7.142   2.439   4.434 -0.4558 -1.0006 -0.6400
  548MOL0     O75545   7.010   2.401   4.433  0.3383 -0.1662 -0.1384
  548MOL0     C75546   6.935   2.441   4.547 -0.1574 -0.2845  0.0885
  548MOL0     C75547   6.811   2.358   4.559  0.0026 -0.4828 -0.3871
  548MOL0     C75548   6.679   2.421   4.492  0.0305  0.2242  0.4987
  548MOL0     C75549   6.691   2.408   4.340  0.3935  0.1707  0.5283
  548MOL0     C75550   6.583   2.479   4.267  0.3076 -0.2792 -0.2393
  548MOL0     C75551   6.498   2.534   4.199 -0.8562 -0.2389 -0.4473
  548MOL0     C75552   7.208   2.526   4.530 -0.3611 -0.0557 -0.2676
  548MOL0     C75553   7.343   2.574   4.528  0.1059 -0.2294  1.1894
  548MOL0     C75554   7.388   2.663   4.637 -0.1938  0.5313  0.3539
  548MOL0     H75555   7.758   2.474   4.115  0.8574  2.2088 -0.2695
  548MOL0     H75556   8.002   2.483   4.054  2.7532  2.3948  0.4154
  548MOL0     H75557   8.384   2.460   4.274  0.1735 -0.4528 -0.3116
  548MOL0     H75558   8.268   2.417   4.396 -1.6033 -1.7226 -1.8941
  548MOL0     H75559   8.266   2.692   4.325 -1.7435  0.5121  1.1315
  548MOL0     H75560   8.248   2.632   4.488  1.3272  0.4677  1.9224
  548MOL0     H75561   8.517   2.650   4.333 -1.5586  0.7324 -0.5932
  548MOL0     H75562   8.473   2.768   4.444  2.7891  0.3857 -0.5764
  548MOL0     H75563   8.438   2.579   4.614 -2.9988  0.3955 -1.6291
  548MOL0     H75564   8.508   2.469   4.494 -0.4261  0.2604 -0.0629
  548MOL0     H75565   8.725   2.605   4.499 -0.4871  0.6723 -1.1084
  548MOL0     H75566   8.676   2.515   4.647 -4.1633 -1.7131 -0.2258
  548MOL0     H75567   8.616   2.811   4.594 -0.3904  0.7017  1.2622
  548MOL0     H75568   8.590   2.724   4.745 -0.0707  1.3033  0.2695
  548MOL0     H75569   8.836   2.702   4.801  0.6982 -0.6177 -0.8738
  548MOL0     H75570   8.767   2.856   4.789 -1.6029 -3.8824  3.4712
  548MOL0     H75571   8.920   2.699   4.570  2.9164  0.7967 -0.4242
  548MOL0     H75572   8.862   2.871   4.546  2.6871  0.9510  0.2390
  548MOL0     H75573   8.949   3.031   4.791 -0.8824 -1.0908  0.5361
  548MOL0     H75574   9.225   3.081   4.940 -0.8125  0.2295 -0.4580
  548MOL0     H75575   9.178   3.187   4.808  1.2854  0.3983 -0.6792
  548MOL0     H75576   9.427   3.020   4.803 -1.3982 -0.8802  1.5138
  548MOL0     H75577   9.375   3.145   4.679 -3.6184 -1.9227  0.3004
  548MOL0     H75578   9.432   3.329   4.838  1.2127 -0.1371 -1.7841
  548MOL0     H75579   9.451   3.216   4.972  0.1151 -0.5649  0.2059
  548MOL0     H75580   9.646   3.121   4.866  0.4920 -0.1421 -1.3370
  548MOL0     H75581   9.626   3.227   4.720  2.2829  0.6729 -0.0474
  548MOL0     H75582   9.776   3.462   5.090 -0.6944  1.4387 -4.1402
  548MOL0     H75583  10.095   3.561   5.188  0.4006 -0.4312  0.3636
  548MOL0     H75584   9.997   3.457   5.303 -0.0771 -1.1914  0.1743
  548MOL0     H75585   9.925   3.577   5.201 -0.9783 -1.9310 -1.1549
  548MOL0     H75586  10.514   3.348   5.076  0.4860  2.0165 -1.3844
  548MOL0     H75587  10.711   3.353   5.201  0.1541 -0.6257  0.3334
  548MOL0     H75588  10.723   3.484   5.654 -0.6284 -1.2642  0.2244
  548MOL0     H75589  10.712   3.314   5.624  1.4466 -0.5242  1.4543
  548MOL0     H75590  10.946   3.494   5.645  0.0693 -0.5296  3.5351
  548MOL0     H75591  10.921   3.341   5.726 -2.2783  3.0961  2.6025
  548MOL0     H75592  11.102   3.334   5.560  0.0581  1.5081 -0.4357
  548MOL0     H75593  11.004   3.371   5.429  1.7213 -0.6904  0.1247
  548MOL0     H75594  10.865   3.146   5.504  0.0311 -1.5412  0.5323
  548MOL0     H75595  10.978   3.133   5.625 -0.6694 -0.3155 -0.0931
  548MOL0     H75596  11.046   3.154   5.328 -0.7798  0.7040  0.3911
  548MOL0     H75597  11.164   3.119   5.457 -0.1248 -0.9759 -2.0465
  548MOL0     H75598  10.923   2.950   5.364 -0.1881 -0.9112 -0.2312
  548MOL0     H75599  11.006   2.926   5.519 -1.2489  1.0347  0.3907
  548MOL0     H75600  11.190   2.956   5.290  1.0329  1.3100  2.2799
  548MOL0     H75601  11.074   2.813   5.275 -0.8375 -0.2914  1.1949
  548MOL0     H75602  11.314   2.862   5.442  1.0499  0.7957 -1.2232
  548MOL0     H75603  11.282   2.726   5.337  0.4007  1.7852 -0.1120
  548MOL0     H75604  10.507   3.480   5.550 -1.2716 -1.4240  1.5365
  548MOL0     H75605  10.282   3.434   5.439 -0.2766 -0.9153  0.1602
  548MOL0     H75606  10.115   3.180   4.862  1.2697  1.1027  1.2882
  548MOL0     H75607   9.882   3.186   4.782  0.0352 -0.2041  0.1364
  548MOL0     H75608   8.074   2.508   4.481  0.6327 -1.4189  0.4598
  548MOL0     H75609   7.846   2.496   4.527 -0.2930  1.6108 -0.2363
  548MOL0     H75610   7.418   2.407   4.240 -1.1990 -1.4322  0.2380
  548MOL0     H75611   7.189   2.344   4.258 -1.1028  2.3112 -0.2859
  548MOL0     H75612   6.989   2.424   4.641  0.1115 -0.8101 -0.1560
  548MOL0     H75613   6.906   2.545   4.530 -3.0808 -0.7733  1.5309
  548MOL0     H75614   6.803   2.333   4.665 -0.1705 -0.3814 -0.3767
  548MOL0     H75615   6.836   2.261   4.516 -1.4919 -0.7987 -0.5759
  548MOL0     H75616   6.592   2.366   4.528 -1.7068  2.8625  0.6249
  548MOL0     H75617   6.665   2.527   4.516 -4.2475 -0.2989  1.0824
  548MOL0     H75618   6.687   2.301   4.316 -2.6141  0.1222  0.8248
  548MOL0     H75619   6.786   2.443   4.300 -0.7080  0.1795 -2.3086
  548MOL0     H75620   6.432   2.595   4.141  0.9688  2.8545  0.5121
  548MOL0     H75621   7.158   2.553   4.622  0.3319  1.6456 -0.3655
  548MOL0     H75622   7.395   2.767   4.603  1.9425  1.2236  2.6096
  548MOL0     H75623   7.315   2.664   4.718 -1.3620  0.0544 -0.6549
  548MOL0     H75624   7.486   2.636   4.678 -0.9585 -0.1261  1.8128
  549MOL0     O75625   0.880  10.698   2.150  0.6672  0.1396  0.2603
  549MOL0     C75626   0.852  10.593   2.207  0.0928  0.2695 -0.5126
  549MOL0     O75627   0.949  10.513   2.274  0.1632  0.0861 -0.4447
  549MOL0     C75628   1.077  10.527   2.226 -0.2960 -0.7863  0.0163
  549MOL0     C75629   1.108  10.529   2.085 -0.5255 -0.2294 -0.0354
  549MOL0     C75630   1.240  10.554   2.045  0.2766  0.2783  0.3799
  549MOL0     C75631   1.346  10.562   2.145  1.2062  0.5248 -0.6443
  549MOL0     O75632   1.479  10.579   2.127 -0.7809 -0.8837  0.5748
  549MOL0     C75633   1.527  10.581   1.987  0.1023  0.7306  0.8701
  549MOL0     C75634   1.677  10.612   1.983  0.5609  0.7751 -0.0372
  549MOL0     C75635   1.756  10.515   1.889 -0.5582  0.2067 -0.1308
  549MOL0     C75636   1.897  10.563   1.903  0.3513  0.1272  0.3291
  549MOL0     C75637   1.983  10.459   1.832 -0.1936 -0.2360 -0.5904
  549MOL0     C75638   2.131  10.500   1.837 -0.0420  0.5098  0.3899
  549MOL0     C75639   2.200  10.379   1.770 -0.6437 -0.3377  0.4361
  549MOL0     C75640   2.352  10.411   1.768  0.3541 -0.5338 -0.6136
  549MOL0     N75641   2.425  10.295   1.714 -0.1772 -0.8153  0.2175
  549MOL0     C75642   2.428  10.260   1.577  0.6033  0.2009  0.0190
  549MOL0     C75643   2.473  10.129   1.570 -1.1601  0.4016  0.3735
  549MOL0     C75644   2.491  10.042   1.449 -0.3703  0.6844 -0.1698
  549MOL0     C75645   2.636  10.054   1.393  0.7013  0.1201  0.0053
  549MOL0     C75646   2.652   9.973   1.265 -0.1866  0.1564 -0.3484
  549MOL0     C75647   2.791  10.006   1.205  0.5820  0.2010  0.3150
  549MOL0     O75648   2.889   9.985   1.309  0.7844  0.1332  0.4054
  549MOL0     C75649   3.023  10.004   1.278 -0.1126 -0.8569  0.3693
  549MOL0     C75650   3.123   9.981   1.380  0.5062 -0.4333 -0.0981
  549MOL0     C75651   3.258   9.992   1.348 -0.2525  0.3614  0.2283
  549MOL0     C75652   3.353   9.938   1.450  0.8137 -0.1714  0.3793
  549MOL0     C75653   3.299  10.028   1.213 -0.3723 -0.5558 -0.1374
  549MOL0     C75654   3.435  10.032   1.160 -0.6079  0.6418 -0.0063
  549MOL0     O75655   3.455   9.983   1.033  0.3004  0.1411  0.6161
  549MOL0     C75656   3.575   9.996   0.981 -0.4728 -0.1049  0.2135
  549MOL0     C75657   3.599  10.061   0.867  0.2422  0.4117  0.3909
  549MOL0     C75658   3.730  10.061   0.815  1.6450  0.3428  0.7852
  549MOL0     C75659   3.838  10.001   0.869 -0.0811 -0.0415  0.2081
  549MOL0     O75660   3.959  10.028   0.811  0.1405  0.1384  0.4945
  549MOL0     C75661   4.085  10.005   0.879 -0.2764  0.1840 -0.1075
  549MOL0     C75662   4.197  10.045   0.782 -0.3080  0.2271 -0.2436
  549MOL0     C75663   4.199  10.188   0.726  0.1375 -0.6899  0.8398
  549MOL0     C75664   4.123  10.188   0.585  0.7092  0.3568  0.1738
  549MOL0     C75665   4.213  10.188   0.457  0.0345 -0.4639 -0.0719
  549MOL0     C75666   4.280  10.055   0.436 -1.1808 -0.0588 -0.3058
  549MOL0     C75667   4.378  10.051   0.317  0.5813 -0.4741 -0.4036
  549MOL0     C75668   4.437   9.916   0.316 -0.4441  0.0217 -0.3283
  549MOL0    Cl75669   4.552   9.926   0.180  0.1148 -0.2399 -0.0084
  549MOL0     C75670   3.813   9.922   0.979 -0.1112 -0.6461 -0.1756
  549MOL0     C75671   3.682   9.921   1.042 -0.4885 -0.2401  0.5747
  549MOL0     O75672   3.529  10.066   1.239 -0.1286  0.1235  0.3335
  549MOL0     C75673   3.194  10.044   1.119 -0.5608  0.2287  0.4564
  549MOL0     C75674   3.067  10.038   1.152 -0.0956  1.6999  0.2614
  549MOL0     N75675   2.524  10.101   1.694  0.0988 -0.4907  0.2519
  549MOL0     N75676   2.487  10.197   1.783  0.0458 -0.2858 -0.6124
  549MOL0     C75677   1.317  10.542   2.277 -0.4018  0.2535 -0.2793
  549MOL0     C75678   1.184  10.530   2.320 -0.0220  0.8221 -0.1554
  549MOL0     C75679   0.714  10.555   2.205  0.0699  0.6826 -0.1850
  549MOL0     C75680   0.664  10.508   2.321 -0.1751  0.4572 -0.2758
  549MOL0     C75681   0.541  10.456   2.339  0.0322 -0.2436 -1.2687
  549MOL0     C75682   0.458  10.469   2.230  0.3460 -0.7218 -0.3637
  549MOL0     O75683   0.329  10.418   2.257  0.2905  0.0456 -0.0598
  549MOL0     C75684   0.233  10.401   2.155  0.3302  0.5732 -0.2354
  549MOL0     C75685   0.100  10.355   2.219  0.2174 -0.5453 -0.4250
  549MOL0     C75686   0.012  10.468   2.277  0.6497 -0.1071 -0.2768
  549MOL0     C75687  -0.134  10.443   2.292 -0.1723 -0.0300 -0.4346
  549MOL0     C75688  -0.195  10.418   2.161 -0.1757 -1.0588  0.4625
  549MOL0     C75689  -0.248  10.391   2.054 -0.3425  0.7048  0.5858
  549MOL0     C75690   0.504  10.522   2.108  1.1087 -0.0240 -0.4069
  549MOL0     C75691   0.634  10.566   2.097  0.3068 -0.3993 -0.0075
  549MOL0     C75692   0.683  10.602   1.958  0.8734 -0.8308  0.9934
  549MOL0     H75693   1.028  10.521   2.013  1.8920 -0.7414 -2.8536
  549MOL0     H75694   1.259  10.558   1.938 -1.9058  1.5713 -0.0206
  549MOL0     H75695   1.463  10.653   1.936 -0.0611  0.5524  0.8255
  549MOL0     H75696   1.507  10.483   1.945  0.5775  1.3594 -0.8831
  549MOL0     H75697   1.701  10.715   1.954  1.4360  0.1191 -1.7530
  549MOL0     H75698   1.707  10.607   2.088 -0.0250 -0.2855  0.0935
  549MOL0     H75699   1.732  10.416   1.927 -2.3285  1.2497  1.6575
  549MOL0     H75700   1.721  10.518   1.785 -0.2999 -1.1440 -0.2788
  549MOL0     H75701   1.902  10.655   1.843  2.1285 -0.1470  0.0002
  549MOL0     H75702   1.922  10.579   2.008  1.0978 -0.3345  0.2294
  549MOL0     H75703   1.955  10.434   1.729  0.1670 -2.6391 -0.1605
  549MOL0     H75704   1.982  10.362   1.883 -0.3034  0.4485  0.7334
  549MOL0     H75705   2.147  10.591   1.779  0.8256 -0.6680 -1.3353
  549MOL0     H75706   2.161  10.508   1.942  0.5868 -0.8165  0.3397
  549MOL0     H75707   2.157  10.356   1.672  0.2756 -0.1222 -0.0275
  549MOL0     H75708   2.187  10.292   1.836  0.9202 -0.3114  0.7992
  549MOL0     H75709   2.364  10.501   1.706 -0.4793 -0.6752 -0.9836
  549MOL0     H75710   2.380  10.432   1.872 -0.2522  2.0600 -0.8942
  549MOL0     H75711   2.386  10.329   1.504 -0.7614 -0.3867  0.2133
  549MOL0     H75712   2.420  10.075   1.373  2.6334 -0.5338 -3.7656
  549MOL0     H75713   2.464   9.938   1.471  0.7240  0.4743  0.2445
  549MOL0     H75714   2.658  10.155   1.359 -1.8778  0.1406 -1.8534
  549MOL0     H75715   2.702  10.014   1.472 -0.2959  0.5697  1.0986
  549MOL0     H75716   2.660   9.865   1.282  0.7471  0.2551 -0.1215
  549MOL0     H75717   2.565   9.987   1.199 -0.5531  2.4124  0.5387
  549MOL0     H75718   2.806   9.952   1.112 -4.4249  0.1297 -0.7326
  549MOL0     H75719   2.797  10.114   1.187 -1.0306  0.5408  1.5440
  549MOL0     H75720   3.090   9.952   1.480  1.6338 -3.9690 -0.6241
  549MOL0     H75721   3.310   9.853   1.505 -0.0919 -0.1081 -0.2053
  549MOL0     H75722   3.366  10.011   1.530 -0.2583 -1.8376  2.1469
  549MOL0     H75723   3.452   9.907   1.415  1.1617 -0.4420  1.5523
  549MOL0     H75724   3.521  10.120   0.820  0.4100  1.9933  1.9762
  549MOL0     H75725   3.749  10.113   0.722 -0.6018 -0.8329 -0.4254
  549MOL0     H75726   4.091  10.083   0.955 -2.6663 -0.4521  0.8401
  549MOL0     H75727   4.102   9.904   0.917  0.4517 -0.2586 -1.5263
  549MOL0     H75728   4.293  10.024   0.830 -0.3892 -0.6396 -0.4303
  549MOL0     H75729   4.198   9.977   0.697  2.6250  0.5063 -0.5344
  549MOL0     H75730   4.303  10.222   0.728  0.3264 -1.2333  0.5745
  549MOL0     H75731   4.154  10.267   0.787 -0.9772 -1.8868  1.6367
  549MOL0     H75732   4.066  10.282   0.582  2.7400  1.6357 -0.2255
  549MOL0     H75733   4.052  10.105   0.575  1.0372 -0.0499  1.1120
  549MOL0     H75734   4.157  10.213   0.366 -1.7427  1.8003  1.5234
  549MOL0     H75735   4.299  10.256   0.464 -0.3254  0.1400 -1.1472
  549MOL0     H75736   4.208   9.973   0.431  0.0387 -1.1276 -1.0909
  549MOL0     H75737   4.337  10.034   0.527  1.2013  0.1723 -1.6662
  549MOL0     H75738   4.461  10.121   0.327 -1.1824  1.7820 -0.9659
  549MOL0     H75739   4.326  10.068   0.223  1.9583  1.2288 -0.8988
  549MOL0     H75740   4.362   9.840   0.292  0.0699 -0.1688 -1.4520
  549MOL0     H75741   4.494   9.891   0.406 -2.0767  3.4954  1.8548
  549MOL0     H75742   3.897   9.871   1.026  1.6794  1.2002 -1.2196
  549MOL0     H75743   3.667   9.858   1.129  0.9364  0.3786  1.3110
  549MOL0     H75744   3.224  10.063   1.017  1.5641  2.3386  1.3783
  549MOL0     H75745   2.999  10.043   1.068  3.1729 -1.3147 -2.9429
  549MOL0     H75746   1.400  10.541   2.347  0.9394 -0.4024 -1.7956
  549MOL0     H75747   1.164  10.515   2.425  1.2862 -0.0257  0.0040
  549MOL0     H75748   0.719  10.507   2.415 -1.5296  1.6152  0.5867
  549MOL0     H75749   0.512  10.411   2.433  1.8069  0.1633 -0.4930
  549MOL0     H75750   0.222  10.491   2.093 -0.8920  0.4755 -0.1819
  549MOL0     H75751   0.267  10.320   2.091  0.8835  0.5832  0.0373
  549MOL0     H75752   0.132  10.291   2.302 -2.3764  1.4980  2.3974
  549MOL0     H75753   0.034  10.303   2.150 -3.3479  2.3650  0.4536
  549MOL0     H75754   0.045  10.498   2.377  0.0154 -0.9522  0.1956
  549MOL0     H75755   0.033  10.545   2.202  0.7247  0.5441  0.4074
  549MOL0     H75756  -0.185  10.525   2.342  0.0549  1.7777 -2.9949
  549MOL0     H75757  -0.152  10.347   2.341  3.3000  0.2742  1.8605
  549MOL0     H75758  -0.291  10.351   1.965  1.4368 -0.4418  0.1992
  549MOL0     H75759   0.436  10.537   2.024  1.3846 -0.1898 -0.6613
  549MOL0     H75760   0.790  10.579   1.950  0.8660 -1.0583  1.5125
  549MOL0     H75761   0.640  10.549   1.873  1.1292 -2.2911  1.7593
  549MOL0     H75762   0.666  10.710   1.945 -1.0606 -1.4082 -2.3691
  550MOL0     O75763   1.985  10.362   6.436 -0.1113 -0.5340  0.4533
  550MOL0     C75764   1.915  10.428   6.512 -0.4428 -0.0517 -0.5322
  550MOL0     O75765   1.968  10.528   6.592  0.1811  0.1424 -0.1823
  550MOL0     C75766   2.097  10.523   6.626 -0.0713 -0.3891 -1.2184
  550MOL0     C75767   2.122  10.450   6.740 -0.7401  0.1312 -0.6994
  550MOL0     C75768   2.253  10.420   6.774 -0.4952  0.1452  1.0343
  550MOL0     C75769   2.360  10.475   6.705 -0.6130 -0.3231 -0.5620
  550MOL0     O75770   2.487  10.460   6.745  0.3820 -0.7534  0.0244
  550MOL0     C75771   2.533  10.562   6.831  0.7485  0.0937  0.4067
  550MOL0     C75772   2.540  10.517   6.983  0.5378  0.4587  0.1509
  550MOL0     C75773   2.669  10.446   7.018 -0.0065  0.0932 -0.3906
  550MOL0     C75774   2.798  10.539   7.008  0.8408  0.2499  0.4991
  550MOL0     C75775   2.930  10.465   7.056  1.5612  0.5706 -0.0472
  550MOL0     C75776   3.041  10.565   7.039 -0.1366 -0.2121  0.4305
  550MOL0     C75777   3.176  10.528   7.091 -0.3173  0.5744  0.1715
  550MOL0     C75778   3.271  10.653   7.076  0.5072  0.0597 -0.3179
  550MOL0     N75779   3.407  10.628   7.139  0.6224 -1.1498 -0.2260
  550MOL0     C75780   3.515  10.576   7.076  0.7910 -0.6979  0.1711
  550MOL0     C75781   3.609  10.586   7.171 -0.4775  0.1854 -0.0094
  550MOL0     C75782   3.750  10.544   7.157  0.2964  0.3108 -0.0263
  550MOL0     C75783   3.839  10.657   7.152 -1.1696  0.7168 -0.3272
  550MOL0     C75784   3.989  10.626   7.131 -0.4953  0.2107  1.2833
  550MOL0     C75785   4.060  10.766   7.106  0.4043  0.1410  0.4471
  550MOL0     O75786   4.201  10.737   7.072  0.3939 -0.5104  0.0393
  550MOL0     C75787   4.286  10.845   7.073  0.0786 -0.4362  0.0270
  550MOL0     C75788   4.389  10.832   6.982 -0.0205 -0.8693  0.6832
  550MOL0     C75789   4.501  10.921   6.979 -0.0260 -0.5054 -0.0310
  550MOL0     C75790   4.616  10.879   6.889  0.8734 -0.4132 -0.0423
  550MOL0     C75791   4.490  11.028   7.065  0.2608  0.0768  0.2837
  550MOL0     C75792   4.585  11.132   7.072  0.4539 -0.5719  1.4533
  550MOL0     O75793   4.656  11.159   7.182 -0.0206  0.9673 -0.2338
  550MOL0     C75794   4.765  11.234   7.171  0.4665 -0.1735  0.0004
  550MOL0     C75795   4.883  11.181   7.135 -0.5981  0.9419 -0.8143
  550MOL0     C75796   5.003  11.256   7.130  0.5566 -0.1631 -0.0916
  550MOL0     C75797   5.007  11.396   7.160  0.0344  0.1159 -0.0567
  550MOL0     O75798   5.126  11.457   7.161  0.0395 -0.1091  0.9558
  550MOL0     C75799   5.150  11.587   7.217  0.4386  0.8050 -1.0159
  550MOL0     C75800   5.291  11.624   7.200 -0.4250  0.3554 -0.6207
  550MOL0     C75801   5.387  11.523   7.271 -0.7333  0.0695 -0.0463
  550MOL0     C75802   5.535  11.545   7.225 -0.2675 -0.4986  1.1484
  550MOL0     C75803   5.643  11.464   7.294  0.5109  0.2738 -0.7758
  550MOL0     C75804   5.785  11.501   7.249 -0.4768  0.5882 -0.7662
  550MOL0     C75805   5.895  11.425   7.320  0.2238 -0.4218  0.0474
  550MOL0     C75806   5.896  11.278   7.274 -0.4410 -0.3396 -0.0632
  550MOL0    Cl75807   6.049  11.199   7.342  0.0559  0.6795  0.2307
  550MOL0     C75808   4.877  11.447   7.199  0.2117  0.0104 -0.4356
  550MOL0     C75809   4.764  11.365   7.202 -0.2294  0.4365 -0.2055
  550MOL0     O75810   4.601  11.189   6.961  0.4814 -0.2130 -0.1031
  550MOL0     C75811   4.385  11.042   7.157 -1.0703 -0.1912 -0.0763
  550MOL0     C75812   4.281  10.952   7.160 -0.4375 -0.0850 -0.7589
  550MOL0     N75813   3.556  10.639   7.284  0.7720  0.2829 -0.4862
  550MOL0     N75814   3.437  10.674   7.264  0.3436 -0.3243 -1.2826
  550MOL0     C75815   2.332  10.549   6.593  0.4353 -0.3142 -0.2372
  550MOL0     C75816   2.197  10.578   6.547  0.4106  0.1047  0.0099
  550MOL0     C75817   1.764  10.410   6.496  0.2462 -0.0654 -0.8928
  550MOL0     C75818   1.712  10.305   6.419  0.0860  0.9736  0.2163
  550MOL0     C75819   1.575  10.281   6.412  0.2817 -0.1838 -0.9676
  550MOL0     C75820   1.493  10.346   6.498  0.6739 -0.2765  1.0393
  550MOL0     O75821   1.362  10.318   6.517 -0.4455  0.3371 -0.7186
  550MOL0     C75822   1.321  10.178   6.507 -0.9461  0.4640  0.0844
  550MOL0     C75823   1.178  10.151   6.556  0.7406 -0.5361  0.0785
  550MOL0     C75824   1.137  10.006   6.520 -0.3904 -0.6890 -0.3775
  550MOL0     C75825   0.995   9.971   6.556  0.2471  0.6809  0.7220
  550MOL0     C75826   0.892  10.036   6.481 -0.7436 -0.8418  0.4823
  550MOL0     C75827   0.794  10.094   6.430  0.3194  0.2469 -0.1836
  550MOL0     C75828   1.543  10.453   6.579  0.1960 -0.5901  0.1797
  550MOL0     C75829   1.673  10.489   6.575 -0.2614  0.0865 -0.7385
  550MOL0     C75830   1.710  10.604   6.672  0.1644 -0.1869  0.8762
  550MOL0     H75831   2.048  10.397   6.799 -0.7076 -0.7324 -1.4087
  550MOL0     H75832   2.282  10.357   6.858  1.0207  0.3355  0.6894
  550MOL0     H75833   2.475  10.655   6.821 -1.8584 -1.4675  0.1134
  550MOL0     H75834   2.637  10.587   6.809  1.2454 -1.6995  0.5937
  550MOL0     H75835   2.515  10.608   7.039 -0.3601  1.7048 -2.1398
  550MOL0     H75836   2.453  10.453   6.998 -0.9398  1.9685 -1.4346
  550MOL0     H75837   2.654  10.419   7.123  1.5860 -1.5207 -0.5401
  550MOL0     H75838   2.684  10.356   6.957  2.2342 -1.2340  1.9447
  550MOL0     H75839   2.815  10.567   6.903  1.0130 -0.2531  0.3856
  550MOL0     H75840   2.796  10.616   7.084 -1.3239 -1.2453  2.0745
  550MOL0     H75841   2.940  10.366   7.010 -2.2134 -0.2010  0.4614
  550MOL0     H75842   2.919  10.428   7.159  2.4308 -0.5385 -0.3311
  550MOL0     H75843   3.051  10.588   6.932  2.0380 -0.4038  0.5551
  550MOL0     H75844   3.020  10.665   7.079 -0.5905  0.5779 -1.6477
  550MOL0     H75845   3.207  10.437   7.039 -2.1453  0.0925 -0.1147
  550MOL0     H75846   3.160  10.514   7.198 -2.8003  2.9319  0.2221
  550MOL0     H75847   3.278  10.666   6.968 -1.1522  0.3416 -0.4249
  550MOL0     H75848   3.230  10.750   7.107 -1.0606 -0.2128 -1.4535
  550MOL0     H75849   3.528  10.547   6.972  2.7761 -0.4088  0.3152
  550MOL0     H75850   3.762  10.477   7.072 -1.4055 -0.9925  0.6881
  550MOL0     H75851   3.780  10.484   7.243 -1.2395 -2.0900 -1.0510
  550MOL0     H75852   3.821  10.729   7.072  1.4403  2.6722  0.7029
  550MOL0     H75853   3.817  10.717   7.241 -0.7445  2.6297 -1.4363
  550MOL0     H75854   4.043  10.576   7.212  2.1061  2.3297  1.0259
  550MOL0     H75855   4.002  10.576   7.034  0.1593  1.5679  0.6388
  550MOL0     H75856   4.019  10.817   7.018  1.6717  1.1674  0.4141
  550MOL0     H75857   4.049  10.822   7.200  2.6578  2.2958 -0.4436
  550MOL0     H75858   4.388  10.740   6.924  3.5283 -1.2026  0.8993
  550MOL0     H75859   4.578  10.866   6.787 -1.5943 -0.5068  0.8151
  550MOL0     H75860   4.653  10.782   6.923  0.0428 -1.1641 -1.2078
  550MOL0     H75861   4.691  10.958   6.885  1.2922 -0.8391 -1.4993
  550MOL0     H75862   4.896  11.079   7.099  1.1711  1.5840 -2.1800
  550MOL0     H75863   5.096  11.219   7.087  1.3899 -1.2662  2.4268
  550MOL0     H75864   5.090  11.667   7.172 -0.1030 -0.0633 -1.8719
  550MOL0     H75865   5.127  11.585   7.324  2.6829 -2.1642 -0.4624
  550MOL0     H75866   5.308  11.618   7.092  0.0805 -1.7988 -0.4725
  550MOL0     H75867   5.316  11.724   7.236  1.3923  0.3448 -1.7464
  550MOL0     H75868   5.372  11.418   7.247  3.0994 -0.3109 -1.5055
  550MOL0     H75869   5.387  11.537   7.380  2.7031 -0.9373  0.1870
  550MOL0     H75870   5.553  11.651   7.248  0.1173 -0.2014 -0.3889
  550MOL0     H75871   5.535  11.533   7.116 -3.4949 -2.4967  1.2606
  550MOL0     H75872   5.629  11.488   7.400  1.4436 -0.5650 -0.4484
  550MOL0     H75873   5.626  11.358   7.272  0.7057  0.1040 -0.1441
  550MOL0     H75874   5.803  11.605   7.276 -1.7892  0.1748  2.1976
  550MOL0     H75875   5.791  11.481   7.142 -0.7617 -2.6034 -0.2970
  550MOL0     H75876   5.866  11.426   7.426 -4.3507 -2.3373 -0.9241
  550MOL0     H75877   5.987  11.476   7.293 -0.5013 -0.9509 -4.0659
  550MOL0     H75878   5.906  11.279   7.166 -0.2666 -0.6311 -0.0513
  550MOL0     H75879   5.805  11.223   7.298 -0.4733  0.4940  2.0183
  550MOL0     H75880   4.885  11.550   7.231 -0.6832  0.2911 -1.0794
  550MOL0     H75881   4.674  11.419   7.227 -0.1327  1.2055 -1.4217
  550MOL0     H75882   4.386  11.130   7.220  0.4277 -0.1926 -0.0664
  550MOL0     H75883   4.209  10.966   7.241  0.9441 -2.8392  1.1060
  550MOL0     H75884   2.414  10.581   6.529 -0.3712  0.2736 -1.0058
  550MOL0     H75885   2.165  10.623   6.454  0.5461 -2.8074 -1.5781
  550MOL0     H75886   1.782  10.238   6.370 -1.1817  0.7225 -1.3795
  550MOL0     H75887   1.551  10.196   6.349  1.1050 -1.9194  0.9504
  550MOL0     H75888   1.327  10.150   6.401 -0.0814  0.6434  0.0860
  550MOL0     H75889   1.398  10.113   6.547 -2.0655 -1.1064 -0.2096
  550MOL0     H75890   1.108  10.223   6.512 -0.5860 -1.9072 -0.1276
  550MOL0     H75891   1.177  10.160   6.665 -2.2288 -1.2132  0.2097
  550MOL0     H75892   1.162   9.980   6.417 -0.8825 -1.1596 -0.3854
  550MOL0     H75893   1.189   9.936   6.586 -0.2761 -3.2710 -2.9899
  550MOL0     H75894   0.975   9.983   6.663  1.6218  1.0156  0.9617
  550MOL0     H75895   0.983   9.865   6.530 -0.2792  1.3183 -1.9389
  550MOL0     H75896   0.710  10.145   6.387 -3.0438 -4.0490  0.5177
  550MOL0     H75897   1.479  10.514   6.641  1.8040  0.6254  0.7052
  550MOL0     H75898   1.761  10.566   6.761 -1.1822 -0.8179  1.4114
  550MOL0     H75899   1.780  10.673   6.623 -2.1172  1.6717  0.0618
  550MOL0     H75900   1.618  10.659   6.696 -1.6694 -1.4514 -2.6260
  551MOL0     O75901   1.202   7.350   4.869  0.6798  0.5701 -0.9165
  551MOL0     C75902   1.165   7.246   4.809  0.4734 -0.6325 -0.8232
  551MOL0     O75903   1.251   7.147   4.761  0.2058  0.3227 -0.2255
  551MOL0     C75904   1.387   7.171   4.761  0.3255  0.7642 -0.5597
  551MOL0     C75905   1.452   7.143   4.647 -0.6784  0.1287  0.7329
  551MOL0     C75906   1.588   7.153   4.634 -0.5798  0.3610  0.1582
  551MOL0     C75907   1.665   7.186   4.746  0.8569  0.6831 -0.6101
  551MOL0     O75908   1.805   7.196   4.740  0.1434  0.0872  0.2173
  551MOL0     C75909   1.874   7.095   4.662 -1.2603  0.6567  0.2789
  551MOL0     C75910   2.019   7.065   4.700 -0.2563  0.0155  0.3460
  551MOL0     C75911   2.013   6.925   4.748 -0.1028 -0.6761  0.6801
  551MOL0     C75912   2.148   6.866   4.803  0.1976 -0.3751  0.3723
  551MOL0     C75913   2.136   6.713   4.831  0.1314  0.0907  0.2884
  551MOL0     C75914   2.266   6.661   4.884  0.7697 -0.1929  0.4313
  551MOL0     C75915   2.258   6.507   4.906 -0.4591 -0.1103  0.6051
  551MOL0     C75916   2.303   6.424   4.779  0.3123 -0.5475  0.6790
  551MOL0     N75917   2.417   6.472   4.696  0.4616  0.6069  0.5006
  551MOL0     C75918   2.537   6.507   4.737 -0.2287  0.4285 -0.0315
  551MOL0     C75919   2.621   6.486   4.632  0.3977  0.1251 -0.2301
  551MOL0     C75920   2.765   6.515   4.640  0.0198  0.2648  0.0801
  551MOL0     C75921   2.847   6.411   4.711  0.3490 -0.9606 -0.0515
  551MOL0     C75922   2.980   6.475   4.755  0.7736  0.1358 -0.4881
  551MOL0     C75923   3.093   6.452   4.660 -0.3920  0.2109 -0.5138
  551MOL0     O75924   3.113   6.310   4.646  0.5825  0.1437 -0.5354
  551MOL0     C75925   3.183   6.241   4.745 -0.0708  0.4549  0.6095
  551MOL0     C75926   3.275   6.289   4.836 -0.7338 -0.8049  0.0429
  551MOL0     C75927   3.337   6.200   4.930 -0.2763 -0.3131  0.2329
  551MOL0     C75928   3.447   6.256   5.013 -0.7865  0.0125  0.0967
  551MOL0     C75929   3.319   6.060   4.916 -0.4287  0.4246  0.0726
  551MOL0     C75930   3.400   5.954   4.981 -0.2362 -0.4325  0.4384
  551MOL0     O75931   3.448   5.865   4.893  0.1110 -0.1922 -0.7377
  551MOL0     C75932   3.506   5.746   4.941  0.7624 -0.1869  0.1661
  551MOL0     C75933   3.463   5.637   4.870 -0.7800  0.5227 -0.4974
  551MOL0     C75934   3.499   5.512   4.922  0.5410 -0.6473 -0.0180
  551MOL0     C75935   3.570   5.487   5.035 -0.8520 -0.5071 -0.0584
  551MOL0     O75936   3.576   5.358   5.083 -0.0967  0.3674  0.3287
  551MOL0     C75937   3.606   5.345   5.221  0.1111 -0.1968  0.4109
  551MOL0     C75938   3.547   5.214   5.269  0.4621  0.1318  0.1389
  551MOL0     C75939   3.605   5.091   5.186 -0.2961  0.0607  0.4751
  551MOL0     C75940   3.758   5.058   5.227  0.2083  0.1422 -0.4645
  551MOL0     C75941   3.802   4.931   5.152  0.8544 -0.3277 -0.2706
  551MOL0     C75942   3.946   4.880   5.164  0.4927  0.3935  0.0283
  551MOL0     C75943   4.020   4.890   5.303  0.9848  0.2504 -0.3148
  551MOL0     C75944   4.105   4.759   5.328 -0.1420  0.3639 -1.1323
  551MOL0    Cl75945   4.162   4.766   5.492 -0.2516 -0.2440  0.2571
  551MOL0     C75946   3.620   5.603   5.097  0.6097  0.6893 -0.1101
  551MOL0     C75947   3.596   5.729   5.051 -0.3830  0.1712 -1.2105
  551MOL0     O75948   3.425   5.959   5.098 -0.3999  0.5965 -0.6648
  551MOL0     C75949   3.218   6.016   4.822 -0.1443 -0.6180  0.1070
  551MOL0     C75950   3.159   6.102   4.737  0.1713 -0.3233  0.1668
  551MOL0     N75951   2.544   6.449   4.519  0.5170 -0.3365  0.3027
  551MOL0     N75952   2.425   6.456   4.561  0.0284 -0.4515 -0.6082
  551MOL0     C75953   1.593   7.230   4.859 -0.2603 -0.3877 -0.6034
  551MOL0     C75954   1.455   7.219   4.870  0.2890 -0.0606 -0.3994
  551MOL0     C75955   1.021   7.226   4.782 -0.2733  0.4662  0.7927
  551MOL0     C75956   0.986   7.127   4.683 -0.1875  0.6562  0.0747
  551MOL0     C75957   0.855   7.117   4.639  0.7230 -0.0143  0.5994
  551MOL0     C75958   0.751   7.182   4.686 -0.0865  0.8279  0.3942
  551MOL0     O75959   0.625   7.151   4.633  0.1866 -0.0665 -0.2186
  551MOL0     C75960   0.516   7.236   4.665 -0.0510  0.4076  0.3426
  551MOL0     C75961   0.533   7.379   4.585  0.1297 -0.0811 -0.0445
  551MOL0     C75962   0.506   7.366   4.426 -0.0581 -0.1938 -0.8607
  551MOL0     C75963   0.512   7.496   4.359  0.2454  0.0258  0.1470
  551MOL0     C75964   0.650   7.533   4.353  0.1774  0.3193 -0.1020
  551MOL0     C75965   0.770   7.563   4.358  0.1265  0.0762  0.3483
  551MOL0     C75966   0.780   7.266   4.801  0.1607 -0.8298  0.8621
  551MOL0     C75967   0.906   7.288   4.840  0.1548  0.1958  0.5445
  551MOL0     C75968   0.937   7.380   4.961  0.4239  0.5811  0.7669
  551MOL0     H75969   1.396   7.127   4.556  0.6114 -1.9592  0.2503
  551MOL0     H75970   1.632   7.154   4.535  1.4111  0.0091  0.9889
  551MOL0     H75971   1.882   7.133   4.560  0.6263 -0.9261 -0.2208
  551MOL0     H75972   1.822   7.001   4.643 -1.4815  1.1622 -1.8457
  551MOL0     H75973   2.082   7.067   4.610  0.6161 -2.0272  0.8571
  551MOL0     H75974   2.057   7.128   4.781 -0.6652 -0.1283  0.6472
  551MOL0     H75975   1.933   6.923   4.823 -0.8948  1.0398 -0.0731
  551MOL0     H75976   1.986   6.867   4.659 -0.2593 -1.3745  1.1680
  551MOL0     H75977   2.235   6.890   4.741  1.1737 -1.9517  1.0860
  551MOL0     H75978   2.176   6.926   4.890  1.8256 -1.2492  0.4894
  551MOL0     H75979   2.109   6.663   4.738 -0.5284  1.1345 -0.0984
  551MOL0     H75980   2.054   6.698   4.902 -1.3713  1.2679 -1.1191
  551MOL0     H75981   2.345   6.687   4.813 -0.8558 -2.6437 -2.4647
  551MOL0     H75982   2.286   6.713   4.979 -0.8595  3.1467 -0.8832
  551MOL0     H75983   2.161   6.469   4.940 -0.2379 -2.5045 -1.1798
  551MOL0     H75984   2.338   6.493   4.980  3.3816  1.6403 -2.8316
  551MOL0     H75985   2.330   6.321   4.805  2.7699 -0.3534 -0.8119
  551MOL0     H75986   2.212   6.425   4.718  1.1901 -1.0469 -0.6721
  551MOL0     H75987   2.574   6.525   4.838 -1.1728  0.7101  0.2745
  551MOL0     H75988   2.774   6.607   4.698  0.0028  1.5959 -1.9295
  551MOL0     H75989   2.807   6.536   4.540  1.1088  1.1988  0.7043
  551MOL0     H75990   2.788   6.366   4.791  0.2127 -1.1978 -0.2830
  551MOL0     H75991   2.863   6.328   4.642  2.7525  1.0239 -2.0688
  551MOL0     H75992   2.967   6.583   4.761  2.6896  0.3691  0.1314
  551MOL0     H75993   3.011   6.443   4.855 -3.2091 -0.4706  0.6992
  551MOL0     H75994   3.061   6.490   4.562  1.5340 -1.9496 -2.0825
  551MOL0     H75995   3.187   6.493   4.697  0.9221 -2.6467 -0.4041
  551MOL0     H75996   3.290   6.397   4.839 -1.5727 -0.3766 -4.4639
  551MOL0     H75997   3.481   6.354   4.979  2.1186 -1.2940 -1.1163
  551MOL0     H75998   3.532   6.188   5.006 -1.2431 -0.8127  1.9333
  551MOL0     H75999   3.404   6.260   5.114  1.5025  2.1369  1.0922
  551MOL0     H76000   3.409   5.646   4.777 -0.9114  0.5291 -0.4208
  551MOL0     H76001   3.466   5.426   4.863  1.8602  0.9812 -3.4309
  551MOL0     H76002   3.712   5.334   5.245  0.0215 -2.1929  0.0794
  551MOL0     H76003   3.571   5.431   5.279 -0.4356 -0.3551  0.3183
  551MOL0     H76004   3.582   5.205   5.372  2.6177 -1.8082 -0.6789
  551MOL0     H76005   3.438   5.210   5.260  0.4123 -1.8193  1.2376
  551MOL0     H76006   3.609   5.121   5.081  0.0566  0.5601  0.6226
  551MOL0     H76007   3.557   4.994   5.200  0.0060 -0.3972 -1.3874
  551MOL0     H76008   3.767   5.046   5.335 -1.3036 -1.1935 -0.4614
  551MOL0     H76009   3.820   5.147   5.211 -3.3692  3.2313  1.3567
  551MOL0     H76010   3.740   4.848   5.185  0.0851 -0.1039 -1.1160
  551MOL0     H76011   3.776   4.943   5.047 -0.3832 -1.6291 -0.1321
  551MOL0     H76012   4.000   4.933   5.085 -1.1734  2.7919  0.3863
  551MOL0     H76013   3.944   4.776   5.133  0.4472  0.9013 -1.7685
  551MOL0     H76014   3.944   4.902   5.381  0.8807  0.0506 -0.3869
  551MOL0     H76015   4.080   4.982   5.301 -0.1090  0.9737 -1.5251
  551MOL0     H76016   4.169   4.750   5.240  0.0091  2.2140 -1.2438
  551MOL0     H76017   4.038   4.673   5.326  1.3053 -0.8329 -0.5129
  551MOL0     H76018   3.679   5.589   5.187 -1.9687  0.6706  1.7207
  551MOL0     H76019   3.637   5.815   5.103  0.1982  0.6002 -2.3292
  551MOL0     H76020   3.202   5.909   4.813  2.5419 -0.9765 -1.3498
  551MOL0     H76021   3.080   6.071   4.669 -2.2804  0.1733  2.6052
  551MOL0     H76022   1.644   7.254   4.952 -1.3780 -0.1228 -0.0486
  551MOL0     H76023   1.408   7.214   4.967 -0.0165 -2.0075 -0.6176
  551MOL0     H76024   1.065   7.067   4.639 -0.6025 -0.0137  0.2302
  551MOL0     H76025   0.844   7.047   4.556 -0.2743 -0.9078  1.4421
  551MOL0     H76026   0.430   7.180   4.626 -0.3405 -0.9567  2.7579
  551MOL0     H76027   0.506   7.252   4.773  1.5921  0.2351  0.5560
  551MOL0     H76028   0.632   7.424   4.600  1.0754 -2.0038 -0.2520
  551MOL0     H76029   0.451   7.443   4.620  0.0034  0.2580 -0.9294
  551MOL0     H76030   0.577   7.291   4.389  2.0553  0.6450  1.2227
  551MOL0     H76031   0.410   7.318   4.406  0.2776 -1.4844  0.4351
  551MOL0     H76032   0.456   7.575   4.411  1.0379  1.1540 -0.6633
  551MOL0     H76033   0.464   7.495   4.261  0.4662  0.7581  0.0274
  551MOL0     H76034   0.877   7.573   4.363  0.5230 -1.1203 -2.9179
  551MOL0     H76035   0.708   7.336   4.843  1.6637  0.5819  1.1818
  551MOL0     H76036   0.960   7.479   4.922  0.6352  0.2212 -0.0365
  551MOL0     H76037   0.842   7.383   5.016 -1.1445  1.4150 -1.8419
  551MOL0     H76038   1.018   7.347   5.027 -1.6482  2.1851  4.4789
  552MOL0     O76039   3.167   3.457   6.922  0.2132 -0.3320  0.5400
  552MOL0     C76040   3.215   3.535   6.846  0.1502 -0.1651  0.4144
  552MOL0     O76041   3.147   3.580   6.733 -0.6735  0.1055  0.3370
  552MOL0     C76042   3.022   3.552   6.697 -0.6167 -0.5234  0.1172
  552MOL0     C76043   2.977   3.646   6.605 -0.5831 -0.1868  0.1854
  552MOL0     C76044   2.862   3.632   6.542  0.4082  0.6613  0.2501
  552MOL0     C76045   2.768   3.527   6.586 -0.2637  0.9482  0.2780
  552MOL0     O76046   2.659   3.521   6.515  0.4006 -0.3329 -0.0625
  552MOL0     C76047   2.576   3.415   6.546  0.3925  0.1822  0.4359
  552MOL0     C76048   2.444   3.423   6.467 -0.3240 -0.0178 -0.1894
  552MOL0     C76049   2.358   3.295   6.504  0.3800  0.8705  0.3827
  552MOL0     C76050   2.264   3.279   6.378 -0.2341  0.3997  0.7973
  552MOL0     C76051   2.170   3.163   6.395  0.1186 -0.0686 -0.4085
  552MOL0     C76052   2.072   3.177   6.507  0.0075  0.6164 -0.5742
  552MOL0     C76053   1.944   3.103   6.485  0.3126  1.0508  0.3039
  552MOL0     C76054   1.866   3.104   6.618 -0.0963 -0.1025 -0.7042
  552MOL0     N76055   1.737   3.029   6.609 -0.4848 -0.3294  0.4650
  552MOL0     C76056   1.614   3.087   6.584  0.2706  0.7926 -0.5075
  552MOL0     C76057   1.533   2.979   6.583 -0.2964 -0.1649  0.7110
  552MOL0     C76058   1.390   2.991   6.568  0.9684 -1.1942 -0.1499
  552MOL0     C76059   1.337   3.058   6.701  0.0975  0.1558  0.8519
  552MOL0     C76060   1.391   2.994   6.832  0.2960 -0.1512 -0.6745
  552MOL0     C76061   1.414   3.088   6.949  0.0208  0.0056 -0.0732
  552MOL0     O76062   1.495   3.202   6.911 -0.3961  0.1295 -0.2061
  552MOL0     C76063   1.634   3.200   6.922  0.4725  0.3402 -0.5750
  552MOL0     C76064   1.711   3.088   6.950 -0.4077  0.0961 -0.0593
  552MOL0     C76065   1.852   3.100   6.963 -0.5565 -0.2076  0.3186
  552MOL0     C76066   1.926   2.975   6.993  0.6234 -0.5331  0.4398
  552MOL0     C76067   1.916   3.218   6.932 -0.1442 -1.6536  0.8989
  552MOL0     C76068   2.061   3.237   6.911  0.2334 -0.5562 -0.3576
  552MOL0     O76069   2.149   3.161   6.990  0.5940 -0.1927  0.3684
  552MOL0     C76070   2.280   3.163   6.959 -0.3416  0.0245 -0.3134
  552MOL0     C76071   2.355   3.251   7.036 -0.4533  0.4768 -0.0159
  552MOL0     C76072   2.499   3.251   7.023 -0.2999 -0.2015 -0.1129
  552MOL0     C76073   2.563   3.160   6.932  0.6688 -0.4342 -0.0053
  552MOL0     O76074   2.703   3.150   6.905 -0.2044 -0.1663  0.5511
  552MOL0     C76075   2.791   3.141   7.022 -0.7091  0.6736 -0.1733
  552MOL0     C76076   2.876   3.015   7.032  0.6278 -0.2056  0.6329
  552MOL0     C76077   2.987   3.010   6.915 -0.0961  0.1849 -0.2585
  552MOL0     C76078   3.126   3.068   6.948 -0.4476 -0.5169  0.7191
  552MOL0     C76079   3.238   3.014   6.860  0.2381 -0.0944  0.5536
  552MOL0     C76080   3.376   3.038   6.922 -0.3443 -0.8163  0.1398
  552MOL0     C76081   3.405   3.187   6.975  0.0623  0.0911  0.5638
  552MOL0     C76082   3.541   3.185   7.042 -0.0045  0.6594  0.1314
  552MOL0    Cl76083   3.672   3.157   6.936  0.1344  0.1015 -0.3973
  552MOL0     C76084   2.483   3.075   6.862  0.6119  0.5122  0.0632
  552MOL0     C76085   2.341   3.077   6.875  0.5841 -0.0811  0.4104
  552MOL0     O76086   2.091   3.316   6.819 -0.2996  0.3530 -0.3335
  552MOL0     C76087   1.833   3.336   6.918  0.2825 -0.1976  0.4147
  552MOL0     C76088   1.693   3.322   6.912 -0.2084 -0.4153  0.8114
  552MOL0     N76089   1.608   2.863   6.591 -0.0873 -0.4041  0.1375
  552MOL0     N76090   1.733   2.899   6.606  0.0895  0.1962  0.3018
  552MOL0     C76091   2.805   3.445   6.691  0.9617 -0.1618  0.1408
  552MOL0     C76092   2.931   3.454   6.746 -0.0045 -0.1780 -0.2908
  552MOL0     C76093   3.351   3.593   6.871  0.3836 -0.5539 -0.0336
  552MOL0     C76094   3.426   3.534   6.973 -0.6152  0.0772  0.4555
  552MOL0     C76095   3.565   3.561   6.995  0.9015  0.0625  0.9172
  552MOL0     C76096   3.628   3.656   6.917  0.5766 -0.6163  0.4946
  552MOL0     O76097   3.764   3.673   6.937  0.3536  0.2849 -1.0695
  552MOL0     C76098   3.837   3.729   6.837  0.5294 -0.4204  0.2856
  552MOL0     C76099   3.981   3.705   6.864 -0.0294  0.5472 -0.4042
  552MOL0     C76100   4.035   3.785   6.989  0.8236  0.2033 -0.1931
  552MOL0     C76101   4.095   3.920   6.959  0.3168  0.2188  0.3473
  552MOL0     C76102   4.204   3.928   6.853  0.0129  0.4918 -0.0356
  552MOL0     C76103   4.292   3.938   6.776 -0.3526 -0.6363 -0.4267
  552MOL0     C76104   3.555   3.722   6.812  0.0789 -0.1280 -0.0580
  552MOL0     C76105   3.415   3.693   6.791  0.1077 -0.4055 -0.4266
  552MOL0     C76106   3.348   3.765   6.669  0.5835  0.2557 -0.5770
  552MOL0     H76107   3.048   3.723   6.577  1.1462 -2.2894 -1.6341
  552MOL0     H76108   2.837   3.702   6.463 -0.9675  1.6104  1.4728
  552MOL0     H76109   2.555   3.420   6.653  1.6297 -0.5538  0.7376
  552MOL0     H76110   2.633   3.323   6.529 -0.4048 -0.1108 -0.8168
  552MOL0     H76111   2.396   3.520   6.484  3.6288  2.0812  0.0842
  552MOL0     H76112   2.471   3.420   6.361  0.1657 -0.0682 -0.0635
  552MOL0     H76113   2.419   3.206   6.520 -0.6433  0.0439 -0.2061
  552MOL0     H76114   2.295   3.317   6.591  1.7518 -0.5018  1.7798
  552MOL0     H76115   2.223   3.378   6.359  0.6221  0.8736  1.3632
  552MOL0     H76116   2.325   3.255   6.290 -1.1021  1.4340 -0.1284
  552MOL0     H76117   2.223   3.068   6.405 -0.2609 -0.3902 -1.3511
  552MOL0     H76118   2.098   3.152   6.314 -2.2647  0.6596  1.4934
  552MOL0     H76119   2.117   3.123   6.590 -2.7976 -1.6560 -0.3753
  552MOL0     H76120   2.046   3.279   6.539 -0.6554  0.4006 -0.3981
  552MOL0     H76121   1.972   3.000   6.460  2.8564 -0.0220  5.9740
  552MOL0     H76122   1.875   3.145   6.411  1.9407  3.7361  0.1965
  552MOL0     H76123   1.918   3.057   6.703 -0.5757 -0.3724 -0.5580
  552MOL0     H76124   1.856   3.207   6.653  1.1857  0.2232 -1.2322
  552MOL0     H76125   1.584   3.191   6.596 -0.9317  0.4548 -0.4311
  552MOL0     H76126   1.333   2.901   6.545  2.6756 -2.3077 -0.1960
  552MOL0     H76127   1.365   3.060   6.487  0.9564  0.3479  1.1126
  552MOL0     H76128   1.357   3.165   6.696 -1.0836  0.3587  0.1235
  552MOL0     H76129   1.229   3.046   6.700 -0.5337  4.0992 -2.1223
  552MOL0     H76130   1.309   2.931   6.867 -1.6289  2.5128 -0.0491
  552MOL0     H76131   1.478   2.929   6.821  1.8599  1.0462  3.0264
  552MOL0     H76132   1.314   3.118   6.983 -0.6984 -1.3353 -0.8913
  552MOL0     H76133   1.466   3.031   7.027  2.2094  0.8137 -0.8914
  552MOL0     H76134   1.670   2.988   6.963  1.3725 -0.6509  0.0666
  552MOL0     H76135   1.995   2.964   6.909  1.0571 -0.4508  0.7787
  552MOL0     H76136   1.863   2.887   7.006  1.2939 -1.0116  0.5161
  552MOL0     H76137   1.990   2.999   7.079  0.0971 -0.2610  0.7612
  552MOL0     H76138   2.306   3.321   7.102  1.4300 -1.6367  4.0017
  552MOL0     H76139   2.566   3.331   7.052 -0.0587 -0.1223 -0.8468
  552MOL0     H76140   2.866   3.220   7.029  1.7006 -1.4559 -0.4248
  552MOL0     H76141   2.732   3.156   7.113 -0.3913 -2.2079  0.6231
  552MOL0     H76142   2.917   2.992   7.131  0.1417  0.9963  1.1346
  552MOL0     H76143   2.804   2.936   7.008  4.3300 -3.0288 -2.5979
  552MOL0     H76144   2.941   3.049   6.824  2.6546 -1.1417 -2.3721
  552MOL0     H76145   2.994   2.904   6.890 -1.0624  0.1116 -0.2494
  552MOL0     H76146   3.148   3.041   7.052  0.9255  1.4347  0.9879
  552MOL0     H76147   3.125   3.177   6.941  1.2691 -0.5912 -2.5653
  552MOL0     H76148   3.226   2.910   6.830 -0.3291  0.3698 -0.9313
  552MOL0     H76149   3.230   3.078   6.771 -1.2548 -0.2569  0.5517
  552MOL0     H76150   3.446   3.012   6.841 -0.1132 -1.1978  0.4583
  552MOL0     H76151   3.385   2.966   7.004  2.0762  0.2715  0.9117
  552MOL0     H76152   3.325   3.216   7.044  0.6516  0.8311  0.9436
  552MOL0     H76153   3.393   3.260   6.895 -2.0569  0.8873  1.5288
  552MOL0     H76154   3.545   3.108   7.120 -1.6904  0.4810  0.0844
  552MOL0     H76155   3.551   3.280   7.097 -2.1618 -0.3010  2.3749
  552MOL0     H76156   2.523   2.993   6.802  0.3488 -1.2823  2.2094
  552MOL0     H76157   2.284   3.001   6.822  2.4264  0.6183 -2.8833
  552MOL0     H76158   1.861   3.438   6.893  0.0964  0.0876  1.3349
  552MOL0     H76159   1.644   3.414   6.882  2.3607  0.2462 -1.7004
  552MOL0     H76160   2.739   3.372   6.737  0.1254  0.6538  0.2482
  552MOL0     H76161   2.971   3.387   6.822 -1.5209 -2.9891 -1.8012
  552MOL0     H76162   3.386   3.445   7.020  2.3987 -2.2384 -1.0964
  552MOL0     H76163   3.632   3.510   7.063  4.1594  1.1419 -1.2769
  552MOL0     H76164   3.820   3.689   6.736  0.2557  1.9583 -0.6854
  552MOL0     H76165   3.813   3.836   6.836 -1.2081 -0.7824  0.3801
  552MOL0     H76166   4.052   3.725   6.783  0.0818  0.5152 -0.3142
  552MOL0     H76167   3.996   3.599   6.885 -1.1923  0.4263 -0.0931
  552MOL0     H76168   3.954   3.794   7.062  0.2138 -3.3209 -0.2994
  552MOL0     H76169   4.118   3.728   7.033 -0.4360 -0.7510  1.0336
  552MOL0     H76170   4.132   3.959   7.054 -2.2115  0.3369  1.3508
  552MOL0     H76171   4.009   3.982   6.932  0.7664  1.2636  1.2252
  552MOL0     H76172   4.375   3.927   6.709 -0.2228 -0.1457 -0.3509
  552MOL0     H76173   3.601   3.797   6.748  1.7551 -0.3160  0.8620
  552MOL0     H76174   3.327   3.707   6.579 -0.3954  0.7742 -0.6962
  552MOL0     H76175   3.246   3.794   6.698  0.2556  0.9159 -2.3002
  552MOL0     H76176   3.399   3.858   6.642  0.3758  0.0884 -1.5864
  553MOL0     O76177   8.896   0.131   3.705  0.3041 -0.5120 -0.0863
  553MOL0     C76178   8.877   0.046   3.615  0.3100 -0.1237 -0.2417
  553MOL0     O76179   8.955  -0.054   3.584  0.2717  0.2941  0.2782
  553MOL0     C76180   9.065  -0.071   3.664 -0.1213  0.2471 -0.1184
  553MOL0     C76181   9.051  -0.143   3.786  0.8001  0.0256 -0.2329
  553MOL0     C76182   9.161  -0.163   3.871 -0.1671 -0.5591  0.4638
  553MOL0     C76183   9.288  -0.110   3.836 -0.0315 -0.1586  0.3222
  553MOL0     O76184   9.403  -0.113   3.914 -0.2039  0.2400 -0.6324
  553MOL0     C76185   9.446  -0.247   3.947 -0.0972  0.3117 -0.3320
  553MOL0     C76186   9.588  -0.268   4.003  0.3793  0.1531  0.9902
  553MOL0     C76187   9.704  -0.213   3.915  0.5531  0.0558  0.2588
  553MOL0     C76188   9.698  -0.246   3.767  0.6648 -0.0031  0.1768
  553MOL0     C76189   9.830  -0.212   3.696 -0.5876 -0.4074 -0.3219
  553MOL0     C76190   9.807  -0.217   3.539  0.6805  0.2839  0.5720
  553MOL0     C76191   9.914  -0.145   3.457 -0.3525  0.6141  0.0798
  553MOL0     C76192   9.878  -0.092   3.318  0.3293 -0.1651 -0.8705
  553MOL0     N76193   9.854  -0.199   3.218  0.3339 -0.7496 -0.4178
  553MOL0     C76194   9.945  -0.290   3.179 -0.1846 -0.5138  0.0088
  553MOL0     C76195   9.894  -0.345   3.062  0.0569  0.4538 -0.3765
  553MOL0     C76196   9.978  -0.443   2.982 -0.1371  0.4881 -0.8063
  553MOL0     C76197   9.981  -0.374   2.842 -0.3754  0.0659 -0.2803
  553MOL0     C76198  10.047  -0.468   2.737 -0.1971 -0.1611 -0.0616
  553MOL0     C76199  10.086  -0.371   2.626 -0.0290 -0.0720  0.2334
  553MOL0     O76200  10.135  -0.430   2.512  0.2159 -0.3906  0.1847
  553MOL0     C76201  10.255  -0.501   2.515  0.2473 -0.8129  0.4420
  553MOL0     C76202  10.362  -0.492   2.609 -0.3683 -0.6299  0.6448
  553MOL0     C76203  10.473  -0.574   2.582 -0.2328 -0.7562 -0.0117
  553MOL0     C76204  10.581  -0.570   2.690 -0.5457  0.1715  0.5913
  553MOL0     C76205  10.482  -0.661   2.468  1.1837  0.0114  0.9139
  553MOL0     C76206  10.603  -0.741   2.427 -0.2041 -0.0577 -0.0497
  553MOL0     O76207  10.580  -0.828   2.328  0.0312  0.0171  0.4863
  553MOL0     C76208  10.670  -0.918   2.276 -0.2862  0.3117 -0.2763
  553MOL0     C76209  10.623  -0.973   2.157 -0.4281 -0.4337 -0.0413
  553MOL0     C76210  10.690  -1.071   2.096 -0.7744  0.4018 -1.2916
  553MOL0     C76211  10.815  -1.113   2.151 -0.2563 -0.7237 -0.0078
  553MOL0     O76212  10.893  -1.205   2.095  0.9081 -0.4718  0.5969
  553MOL0     C76213  10.844  -1.271   1.973 -0.3953  0.5467 -0.1020
  553MOL0     C76214  10.967  -1.350   1.906  0.0242 -0.3081  0.7476
  553MOL0     C76215  10.921  -1.450   1.800  0.6939  0.0814 -0.5686
  553MOL0     C76216  10.903  -1.398   1.657 -0.1140  0.2332  0.4036
  553MOL0     C76217  11.026  -1.331   1.596 -0.2787  0.1540  0.0304
  553MOL0     C76218  11.017  -1.319   1.440  0.0090 -0.8249 -0.2423
  553MOL0     C76219  11.130  -1.218   1.395  0.2633 -0.4261 -0.6187
  553MOL0     C76220  11.173  -1.239   1.249  0.0535 -0.0534  0.8844
  553MOL0    Cl76221  11.250  -1.401   1.226  0.0032  0.1975  0.1908
  553MOL0     C76222  10.864  -1.055   2.267  0.4209 -0.3185 -0.0429
  553MOL0     C76223  10.792  -0.955   2.324  0.0721 -0.1694  0.5506
  553MOL0     O76224  10.711  -0.709   2.472 -0.3278  0.7463  0.1964
  553MOL0     C76225  10.366  -0.669   2.387 -0.8938 -0.1443  0.2548
  553MOL0     C76226  10.259  -0.592   2.409 -0.0617 -0.2602 -1.2138
  553MOL0     N76227   9.776  -0.286   3.038  0.2132  0.0542  0.5624
  553MOL0     N76228   9.752  -0.195   3.131  0.2813 -0.4897  0.3789
  553MOL0     C76229   9.297  -0.029   3.718  0.3265  0.2855 -0.2432
  553MOL0     C76230   9.186  -0.018   3.629 -0.5865 -0.1621 -0.5625
  553MOL0     C76231   8.766   0.069   3.526 -0.1095 -0.3856  0.5437
  553MOL0     C76232   8.643   0.080   3.591  0.1918 -0.2224 -0.1904
  553MOL0     C76233   8.520   0.086   3.519 -0.0257  0.1436  0.9562
  553MOL0     C76234   8.533   0.098   3.380 -0.0982 -0.1071 -0.1844
  553MOL0     O76235   8.438   0.126   3.289  0.2464 -0.0144  0.0526
  553MOL0     C76236   8.300   0.131   3.329 -0.1858  0.2964 -0.2974
  553MOL0     C76237   8.233   0.187   3.205  0.8227 -0.1350 -0.3242
  553MOL0     C76238   8.106   0.278   3.249  0.1854  0.7559  0.8063
  553MOL0     C76239   8.033   0.331   3.129 -0.3101  0.5827  0.5426
  553MOL0     C76240   7.944   0.228   3.066  0.7538 -0.9750 -0.1834
  553MOL0     C76241   7.855   0.152   3.017  0.6048  1.1883 -0.3528
  553MOL0     C76242   8.655   0.093   3.312 -0.2474  0.3361  0.7300
  553MOL0     C76243   8.777   0.085   3.388  0.0486 -0.6115 -0.1314
  553MOL0     C76244   8.914   0.101   3.332  0.2599 -0.1457  1.4116
  553MOL0     H76245   8.958  -0.195   3.807  1.0449 -0.4948 -0.4373
  553MOL0     H76246   9.154  -0.204   3.971 -2.3659  4.3984  2.6633
  553MOL0     H76247   9.431  -0.317   3.865  2.4540  0.1169 -0.6976
  553MOL0     H76248   9.396  -0.274   4.040  0.5733  0.7141  0.1566
  553MOL0     H76249   9.596  -0.231   4.106 -1.9945  0.1773  1.2233
  553MOL0     H76250   9.600  -0.377   4.007 -1.2073 -0.1077 -0.2922
  553MOL0     H76251   9.699  -0.104   3.920 -1.4661 -0.0386  3.4531
  553MOL0     H76252   9.803  -0.236   3.956 -0.6999 -3.1457  1.8606
  553MOL0     H76253   9.661  -0.347   3.747  3.1548 -1.1092  0.7926
  553MOL0     H76254   9.618  -0.181   3.730 -0.4947  0.1056  2.6645
  553MOL0     H76255   9.918  -0.271   3.724 -0.5365  0.3499  1.1916
  553MOL0     H76256   9.850  -0.106   3.716 -2.2065  0.5846 -3.2344
  553MOL0     H76257   9.803  -0.321   3.504 -1.7462  0.1983  0.8966
  553MOL0     H76258   9.714  -0.163   3.519  0.7221 -0.4252 -1.7509
  553MOL0     H76259  10.003  -0.208   3.459  0.3891  1.6483  0.7153
  553MOL0     H76260   9.931  -0.050   3.510 -1.1245 -0.0650  1.6306
  553MOL0     H76261   9.789  -0.027   3.322 -0.0682 -0.5259 -2.8413
  553MOL0     H76262   9.969  -0.048   3.277  1.2708 -1.4570 -0.2374
  553MOL0     H76263  10.048  -0.304   3.208  1.1547  3.8378 -1.7321
  553MOL0     H76264   9.936  -0.544   2.976 -0.8631  0.8322 -1.8136
  553MOL0     H76265  10.080  -0.448   3.022  0.1042  2.9062 -0.9476
  553MOL0     H76266   9.881  -0.340   2.815  0.0045  0.5076 -1.1569
  553MOL0     H76267  10.048  -0.290   2.862 -0.3894 -0.0896  0.4363
  553MOL0     H76268  10.137  -0.518   2.775 -1.5499 -1.7380  1.2157
  553MOL0     H76269   9.976  -0.544   2.704  0.4743 -0.5946 -0.5374
  553MOL0     H76270   9.993  -0.316   2.611  0.3553  0.3868 -0.4774
  553MOL0     H76271  10.156  -0.293   2.655 -1.4010  1.4221 -0.3545
  553MOL0     H76272  10.349  -0.419   2.688 -3.3240  3.8369 -3.3649
  553MOL0     H76273  10.666  -0.506   2.665  0.8751 -1.9213 -0.1357
  553MOL0     H76274  10.614  -0.672   2.712 -0.1306  0.2321  0.2383
  553MOL0     H76275  10.535  -0.532   2.782 -0.4626  1.7576  0.0087
  553MOL0     H76276  10.527  -0.948   2.113 -1.4090 -2.0347  1.1001
  553MOL0     H76277  10.631  -1.115   2.016 -2.7384 -0.7212  0.6798
  553MOL0     H76278  10.762  -1.338   2.001  0.9337 -1.5481 -0.9138
  553MOL0     H76279  10.818  -1.198   1.895  1.1690  0.5464 -0.6654
  553MOL0     H76280  11.024  -1.272   1.854 -0.8108 -0.8685 -1.0703
  553MOL0     H76281  11.039  -1.391   1.978  1.8779  0.0285 -0.8232
  553MOL0     H76282  10.828  -1.501   1.829  0.8500 -0.2141 -0.5847
  553MOL0     H76283  10.997  -1.528   1.791  0.0550 -0.6552  0.1853
  553MOL0     H76284  10.825  -1.321   1.649  0.0278  0.2776 -0.7952
  553MOL0     H76285  10.879  -1.486   1.597  2.3558  0.5322 -1.1692
  553MOL0     H76286  11.035  -1.229   1.636 -1.6291  0.2508  0.1373
  553MOL0     H76287  11.116  -1.388   1.622 -0.5516 -0.0502  0.5265
  553MOL0     H76288  10.922  -1.281   1.401  0.2683  0.1942  0.1009
  553MOL0     H76289  11.037  -1.421   1.404 -1.4903 -1.8690  1.6570
  553MOL0     H76290  11.215  -1.232   1.463 -0.9839 -1.4411  0.8041
  553MOL0     H76291  11.100  -1.113   1.401 -0.3490 -0.5541 -1.3633
  553MOL0     H76292  11.242  -1.165   1.208 -1.4302  1.7121  1.4397
  553MOL0     H76293  11.081  -1.223   1.192  0.7209 -0.6697 -0.3942
  553MOL0     H76294  10.960  -1.084   2.307  1.4745  0.0545 -2.1603
  553MOL0     H76295  10.836  -0.906   2.411 -0.3366  3.4030 -1.0614
  553MOL0     H76296  10.371  -0.728   2.296 -1.5948 -0.6196  0.5191
  553MOL0     H76297  10.161  -0.601   2.363 -0.6318 -0.5275  0.0021
  553MOL0     H76298   9.391   0.013   3.684  0.2961 -0.4296 -1.2465
  553MOL0     H76299   9.191   0.038   3.536 -0.9935  1.2347  0.2243
  553MOL0     H76300   8.645   0.076   3.699  1.3074  0.0667 -0.1877
  553MOL0     H76301   8.431   0.095   3.581 -0.4989  2.0319  0.0723
  553MOL0     H76302   8.262   0.034   3.364  0.6000  0.2815  0.5522
  553MOL0     H76303   8.282   0.203   3.410 -0.7435  0.4370 -0.5383
  553MOL0     H76304   8.197   0.106   3.141 -1.5404 -1.0395  1.9747
  553MOL0     H76305   8.292   0.252   3.140  1.4768  0.3296  0.7034
  553MOL0     H76306   8.034   0.216   3.303 -0.4548 -0.2114 -1.0724
  553MOL0     H76307   8.143   0.362   3.308  1.6465  2.1495 -1.9059
  553MOL0     H76308   8.106   0.360   3.053  1.3699  0.3540  1.9999
  553MOL0     H76309   7.970   0.416   3.157 -0.5348  0.2227  1.1449
  553MOL0     H76310   7.789   0.078   2.977  0.9741  0.6917 -0.0410
  553MOL0     H76311   8.657   0.102   3.204 -0.3114 -0.8433  0.6187
  553MOL0     H76312   8.978   0.171   3.386  0.5376 -1.7569  3.3101
  553MOL0     H76313   8.964   0.007   3.310  0.4074  0.1667  0.3581
  553MOL0     H76314   8.897   0.143   3.233 -1.8476 -2.9681  0.4424
  554MOL0     O76315  10.190   9.565  10.438  0.2608 -0.4144  0.6996
  554MOL0     C76316  10.174   9.637  10.336  0.7231 -0.0731 -0.7093
  554MOL0     O76317  10.251   9.745  10.298 -0.0239  0.3724  0.1508
  554MOL0     C76318  10.360   9.772  10.365  0.5484  0.7877 -1.1140
  554MOL0     C76319  10.491   9.762  10.305 -0.0037 -0.0061 -0.3591
  554MOL0     C76320  10.606   9.804  10.375 -0.6642 -0.3101 -0.5670
  554MOL0     C76321  10.593   9.855  10.503  0.6913 -0.6334  0.5924
  554MOL0     O76322  10.699   9.894  10.580 -0.2995  0.4773 -0.4786
  554MOL0     C76323  10.799   9.808  10.633 -0.3014  0.3453 -0.0367
  554MOL0     C76324  10.888   9.749  10.525  0.2229 -0.0998 -0.6495
  554MOL0     C76325  11.019   9.692  10.578 -0.8592 -0.5024  0.2330
  554MOL0     C76326  11.127   9.795  10.608 -0.0368 -0.7962  0.7425
  554MOL0     C76327  11.255   9.729  10.654  0.2957  0.0487 -0.0223
  554MOL0     C76328  11.361   9.831  10.690  0.1044 -0.4256 -0.6314
  554MOL0     C76329  11.483   9.769  10.764  0.5959 -0.4493  0.0417
  554MOL0     C76330  11.588   9.885  10.788 -1.0432  0.5439 -0.2827
  554MOL0     N76331  11.704   9.831  10.863  0.2154 -0.9750  0.0982
  554MOL0     C76332  11.791   9.740  10.806  0.8174 -0.2939  0.6652
  554MOL0     C76333  11.875   9.710  10.904 -0.2582 -0.6000 -0.4194
  554MOL0     C76334  11.998   9.619  10.892 -0.7354 -0.1277  0.3475
  554MOL0     C76335  11.977   9.485  10.822 -0.1771  0.5367  1.4272
  554MOL0     C76336  12.117   9.418  10.806  0.1169 -0.2603  0.1658
  554MOL0     C76337  12.094   9.271  10.763  0.0684  0.2718 -0.6158
  554MOL0     O76338  12.035   9.261  10.638  0.8058 -0.2775  0.1169
  554MOL0     C76339  12.112   9.282  10.526 -0.1280 -0.2714 -0.3765
  554MOL0     C76340  12.051   9.322  10.412  0.1310 -1.0271  0.3457
  554MOL0     C76341  12.115   9.363  10.298 -0.3503 -0.6200  0.6973
  554MOL0     C76342  12.024   9.417  10.190 -0.4567 -0.2038  1.5452
  554MOL0     C76343  12.252   9.341  10.288 -0.1887 -0.5910 -0.3347
  554MOL0     C76344  12.336   9.370  10.168  0.3579 -0.2443  0.9041
  554MOL0     O76345  12.288   9.346  10.037  0.7604 -0.7171  0.7086
  554MOL0     C76346  12.369   9.387   9.931 -0.7438  0.0609 -0.9450
  554MOL0     C76347  12.362   9.519   9.891 -0.5404  0.2113 -0.1599
  554MOL0     C76348  12.435   9.553   9.776  0.5314 -0.4337 -0.3597
  554MOL0     C76349  12.498   9.454   9.698  1.2876  0.4054 -0.8204
  554MOL0     O76350  12.545   9.495   9.577  0.1904 -0.1824 -0.1667
  554MOL0     C76351  12.635   9.405   9.509  0.1131 -0.3551  0.6985
  554MOL0     C76352  12.714   9.490   9.409 -0.6373  0.1372  0.1066
  554MOL0     C76353  12.801   9.595   9.474  0.5189  0.3693 -0.2918
  554MOL0     C76354  12.861   9.685   9.366 -0.4550  0.0769 -0.0923
  554MOL0     C76355  12.947   9.801   9.427  0.1526  0.2213 -0.0948
  554MOL0     C76356  13.074   9.752   9.504  0.9183  0.7338  0.0024
  554MOL0     C76357  13.152   9.875   9.547  0.7646 -0.3627 -0.5094
  554MOL0     C76358  13.289   9.847   9.591  0.7302  0.4373 -1.4322
  554MOL0    Cl76359  13.372   9.761   9.457  0.4488  0.2885  0.5113
  554MOL0     C76360  12.495   9.319   9.743  0.6523 -0.7908  0.4735
  554MOL0     C76361  12.435   9.280   9.863  0.6420  0.6322 -0.1548
  554MOL0     O76362  12.450   9.404  10.190 -0.4032 -0.5659  0.4562
  554MOL0     C76363  12.321   9.304  10.410  0.3208 -0.8924  0.0105
  554MOL0     C76364  12.247   9.274  10.525  0.1990 -0.1261  0.3288
  554MOL0     N76365  11.846   9.787  11.011 -0.0388 -0.0924 -0.7679
  554MOL0     N76366  11.740   9.855  10.989  0.0568  0.2034  0.1617
  554MOL0     C76367  10.470   9.853  10.562  0.7111 -0.0146  0.1074
  554MOL0     C76368  10.353   9.825  10.499 -0.4222  0.6458  0.1660
  554MOL0     C76369  10.053   9.617  10.254 -0.1659  0.6235 -0.7820
  554MOL0     C76370  10.035   9.713  10.149  0.0158 -0.1364 -0.4244
  554MOL0     C76371   9.932   9.706  10.052  0.8091 -0.3752  0.3930
  554MOL0     C76372   9.832   9.614  10.070  0.0531  0.0426 -0.2794
  554MOL0     O76373   9.728   9.581   9.989 -1.1778  0.5681 -0.1673
  554MOL0     C76374   9.673   9.678   9.899  0.3420 -0.1440 -0.3944
  554MOL0     C76375   9.541   9.610   9.860  0.1956  0.3764  0.3187
  554MOL0     C76376   9.484   9.678   9.739  0.1385 -0.3951  0.0176
  554MOL0     C76377   9.343   9.624   9.706 -0.2201  0.3598 -0.2785
  554MOL0     C76378   9.262   9.733   9.644  0.1322  0.8575  0.2941
  554MOL0     C76379   9.177   9.809   9.589 -0.9789 -0.2298 -0.3560
  554MOL0     C76380   9.834   9.528  10.186  1.0049  0.0395  0.0800
  554MOL0     C76381   9.947   9.520  10.263 -0.0258  0.6831 -0.5552
  554MOL0     C76382   9.957   9.422  10.376  0.8172  0.8811 -0.2469
  554MOL0     H76383  10.497   9.726  10.203 -1.3097  3.8675 -1.9874
  554MOL0     H76384  10.707   9.812  10.334 -1.1190  1.0135 -1.4802
  554MOL0     H76385  10.752   9.730  10.693 -0.1508 -0.0597 -0.4377
  554MOL0     H76386  10.855   9.877  10.697 -0.0100  0.8518 -0.8169
  554MOL0     H76387  10.834   9.664  10.482  0.6261 -0.4325 -0.5119
  554MOL0     H76388  10.907   9.812  10.438 -0.7479 -0.1696 -0.9264
  554MOL0     H76389  11.003   9.614  10.652 -1.5877 -1.9279 -1.3789
  554MOL0     H76390  11.067   9.640  10.494  2.3051  0.1163  1.5000
  554MOL0     H76391  11.142   9.854  10.517  1.7531 -0.8600  0.9618
  554MOL0     H76392  11.086   9.865  10.682  0.7828  0.8175 -0.2788
  554MOL0     H76393  11.291   9.672  10.567  2.4448  1.9253 -0.4708
  554MOL0     H76394  11.235   9.662  10.738  0.1719 -1.7712 -1.4281
  554MOL0     H76395  11.385   9.879  10.594 -2.4350  0.8545 -0.7149
  554MOL0     H76396  11.308   9.906  10.750 -1.5784 -1.4093 -0.8291
  554MOL0     H76397  11.514   9.682  10.704  3.0129  0.9085 -0.8209
  554MOL0     H76398  11.438   9.734  10.857 -2.8132  0.7877 -0.9745
  554MOL0     H76399  11.624   9.919  10.691 -0.7743  3.1572  0.6483
  554MOL0     H76400  11.554   9.970  10.849  0.9988  0.3711  1.2248
  554MOL0     H76401  11.781   9.698  10.706  1.5247 -0.0423  0.4867
  554MOL0     H76402  12.036   9.594  10.992  1.8776  1.0606 -0.2648
  554MOL0     H76403  12.071   9.685  10.843 -2.6262  1.1540 -0.8434
  554MOL0     H76404  11.904   9.426  10.878 -2.6874  1.3164 -0.8205
  554MOL0     H76405  11.921   9.489  10.728 -1.6354 -2.9775  1.9848
  554MOL0     H76406  12.182   9.464  10.731  0.0614  0.5388  0.5917
  554MOL0     H76407  12.165   9.415  10.905  0.4353  0.1189  0.0269
  554MOL0     H76408  12.189   9.217  10.777  2.1937  4.2140  1.9891
  554MOL0     H76409  12.017   9.236  10.833 -0.2174  1.2267 -0.4483
  554MOL0     H76410  11.946   9.348  10.426  0.5778 -1.0054  5.7792
  554MOL0     H76411  11.976   9.333  10.140  3.2569 -1.1343 -0.8675
  554MOL0     H76412  12.078   9.477  10.116  0.6629 -0.6488  1.9814
  554MOL0     H76413  11.955   9.489  10.237  1.0588  2.7188 -0.3916
  554MOL0     H76414  12.311   9.586   9.960  1.7608  2.5761 -0.5683
  554MOL0     H76415  12.443   9.657   9.745  3.5054 -1.0829 -2.1545
  554MOL0     H76416  12.698   9.347   9.577  0.2962  0.0381  0.8694
  554MOL0     H76417  12.578   9.337   9.445  2.0772  1.7486 -3.8132
  554MOL0     H76418  12.774   9.427   9.343 -2.5716 -1.2644 -0.4283
  554MOL0     H76419  12.638   9.548   9.355  0.8857 -0.5261 -2.9423
  554MOL0     H76420  12.889   9.552   9.522  0.7804 -2.0037 -2.6449
  554MOL0     H76421  12.743   9.652   9.547 -0.2061 -0.1957 -0.4132
  554MOL0     H76422  12.785   9.719   9.295 -3.2853  0.8399  3.0225
  554MOL0     H76423  12.926   9.623   9.304 -2.0914 -1.8200 -0.0150
  554MOL0     H76424  12.978   9.875   9.353  1.0147  0.9937  0.9958
  554MOL0     H76425  12.893   9.856   9.505  1.0167  1.5612 -0.4081
  554MOL0     H76426  13.133   9.691   9.435  2.3059  2.0913 -0.0797
  554MOL0     H76427  13.040   9.702   9.595  1.0436  2.2753  0.9358
  554MOL0     H76428  13.091   9.918   9.627  1.1209 -0.1722 -0.3352
  554MOL0     H76429  13.165   9.949   9.467 -0.4394  1.5660  0.9971
  554MOL0     H76430  13.289   9.778   9.676  2.3986  1.8838 -0.1635
  554MOL0     H76431  13.343   9.937   9.623 -2.1566  1.9762 -0.5560
  554MOL0     H76432  12.554   9.243   9.692  3.2043  1.5491 -0.3405
  554MOL0     H76433  12.447   9.176   9.894  1.4546  0.2929 -1.5377
  554MOL0     H76434  12.429   9.297  10.410  0.4565  0.6893 -0.8040
  554MOL0     H76435  12.308   9.257  10.614  1.3055 -0.1138 -0.3997
  554MOL0     H76436  10.467   9.874  10.669  0.5212  0.1778  0.0669
  554MOL0     H76437  10.261   9.836  10.555 -1.1647  2.3087 -1.2743
  554MOL0     H76438  10.109   9.790  10.135  1.9776 -1.3246  2.4001
  554MOL0     H76439   9.936   9.780   9.973  1.1011  0.6939  1.3827
  554MOL0     H76440   9.652   9.775   9.945 -0.3379  0.7599 -2.4926
  554MOL0     H76441   9.740   9.689   9.813  1.6001  0.9554  0.6796
  554MOL0     H76442   9.467   9.622   9.939 -3.0658  0.6786 -2.5732
  554MOL0     H76443   9.554   9.504   9.836 -2.6597 -0.0296  0.2821
  554MOL0     H76444   9.477   9.787   9.749  0.2494 -0.0556 -2.6873
  554MOL0     H76445   9.555   9.657   9.658  0.5362 -1.9228  0.7293
  554MOL0     H76446   9.284   9.609   9.798  1.3565  3.0101  1.2811
  554MOL0     H76447   9.340   9.537   9.640  3.3002 -0.2678  0.2237
  554MOL0     H76448   9.113   9.878   9.537 -0.1299  1.2294  0.4679
  554MOL0     H76449   9.750   9.467  10.215  1.7301 -0.4143  1.3228
  554MOL0     H76450   9.865   9.365  10.362  0.1594  2.4537 -3.0275
  554MOL0     H76451  10.048   9.360  10.383  2.1362  2.8002  0.3625
  554MOL0     H76452   9.960   9.478  10.469  2.0913 -0.3346  0.4915
  555MOL0     O76453  10.156   6.862   4.580  0.7506  0.6023 -0.1939
  555MOL0     C76454  10.092   6.960   4.535 -0.2959 -0.0228  0.0302
  555MOL0     O76455  10.140   7.090   4.528 -0.0512  0.8773 -0.6822
  555MOL0     C76456  10.251   7.121   4.611 -0.5856 -0.2821 -0.1360
  555MOL0     C76457  10.235   7.161   4.740  0.9572  0.0549 -0.2002
  555MOL0     C76458  10.351   7.189   4.816  0.5623  0.4747 -0.0024
  555MOL0     C76459  10.483   7.178   4.767  0.6520  0.4460 -0.3248
  555MOL0     O76460  10.585   7.187   4.853 -0.6839 -0.0497 -0.1102
  555MOL0     C76461  10.580   7.290   4.956  0.7003 -0.0485 -0.7345
  555MOL0     C76462  10.703   7.390   4.948 -0.4283 -0.5436  0.2704
  555MOL0     C76463  10.837   7.308   4.990  0.3129 -0.1242  0.2909
  555MOL0     C76464  10.940   7.411   5.032 -0.4930  0.6186 -1.0860
  555MOL0     C76465  11.074   7.351   5.063 -0.2344  0.2167 -0.1115
  555MOL0     C76466  11.179   7.454   5.117 -1.1722  0.1917  0.7257
  555MOL0     C76467  11.302   7.385   5.188  0.6336  0.6110 -0.0897
  555MOL0     C76468  11.391   7.493   5.257  0.2632 -0.6963  0.5571
  555MOL0     N76469  11.529   7.448   5.296  0.0443 -0.0661 -0.5732
  555MOL0     C76470  11.561   7.342   5.383  0.3104 -0.1243  0.4674
  555MOL0     C76471  11.699   7.332   5.369  0.4041 -0.7889  0.1634
  555MOL0     C76472  11.777   7.238   5.450 -0.0633  0.1491 -0.0528
  555MOL0     C76473  11.737   7.093   5.427  0.7703  0.2826 -0.5079
  555MOL0     C76474  11.835   6.987   5.481 -0.5295  0.3518 -1.3859
  555MOL0     C76475  11.878   7.020   5.625  1.0981  1.0636 -0.0445
  555MOL0     O76476  11.969   7.132   5.639 -0.1192  0.0531  0.6185
  555MOL0     C76477  12.099   7.122   5.594  1.7843 -0.1494 -0.3015
  555MOL0     C76478  12.166   7.000   5.567  0.1073 -0.4892  0.1706
  555MOL0     C76479  12.301   6.994   5.540  0.2791 -0.3079 -0.7405
  555MOL0     C76480  12.358   6.855   5.521 -0.3750 -0.4179  0.4468
  555MOL0     C76481  12.385   7.108   5.542  0.1921 -1.0870  0.1949
  555MOL0     C76482  12.530   7.116   5.503 -0.5646  0.1843 -0.0540
  555MOL0     O76483  12.570   7.232   5.447 -0.3259  0.1182 -0.7046
  555MOL0     C76484  12.702   7.239   5.402 -0.0950 -0.1898 -0.2103
  555MOL0     C76485  12.742   7.297   5.279  1.1248  1.0439  0.4765
  555MOL0     C76486  12.875   7.306   5.248 -0.1041  0.3480 -0.1771
  555MOL0     C76487  12.975   7.271   5.343  0.1655 -0.7848  0.0798
  555MOL0     O76488  13.112   7.280   5.325 -0.1541  0.0040  0.6200
  555MOL0     C76489  13.161   7.380   5.229 -0.3118  0.1707  0.3313
  555MOL0     C76490  13.312   7.374   5.238 -1.1573 -0.3015  0.4691
  555MOL0     C76491  13.372   7.494   5.152 -0.0481  0.3080  0.2282
  555MOL0     C76492  13.527   7.510   5.186 -0.7497 -0.1220 -0.4876
  555MOL0     C76493  13.567   7.646   5.135 -0.1927  0.1246 -0.2277
  555MOL0     C76494  13.714   7.680   5.154  0.5872  1.3244 -0.5044
  555MOL0     C76495  13.773   7.802   5.085 -0.1141 -0.1159  0.1164
  555MOL0     C76496  13.930   7.802   5.083 -0.2592 -0.2994 -0.2195
  555MOL0    Cl76497  13.996   7.798   5.249  0.2957 -0.1825  0.3275
  555MOL0     C76498  12.944   7.212   5.465 -0.0313 -1.0340 -0.3023
  555MOL0     C76499  12.806   7.208   5.496  0.3199 -0.0746 -0.6269
  555MOL0     O76500  12.601   7.015   5.524  0.2929  0.2666 -0.0748
  555MOL0     C76501  12.313   7.234   5.570  0.1356  0.5146 -0.0040
  555MOL0     C76502  12.182   7.231   5.599  0.7154 -0.7186  0.1458
  555MOL0     N76503  11.740   7.419   5.264 -0.3311  0.7567 -0.6392
  555MOL0     N76504  11.641   7.494   5.232  0.6792 -0.1339  0.5429
  555MOL0     C76505  10.490   7.134   4.631  0.4090 -0.4811  0.2783
  555MOL0     C76506  10.378   7.112   4.554  0.6340  0.4144  0.2998
  555MOL0     C76507   9.957   6.947   4.484  0.6477  0.2448 -0.4085
  555MOL0     C76508   9.878   7.066   4.488 -0.5889  0.4842 -0.5806
  555MOL0     C76509   9.746   7.064   4.452  0.6903  1.0096  0.3563
  555MOL0     C76510   9.686   6.941   4.408 -0.2357 -0.0488  0.6855
  555MOL0     O76511   9.550   6.946   4.372 -0.0528  0.2675 -0.1088
  555MOL0     C76512   9.467   6.833   4.403 -0.6722 -0.3742  0.0188
  555MOL0     C76513   9.317   6.871   4.419  0.7493  0.0158 -0.1903
  555MOL0     C76514   9.224   6.756   4.444  0.8120  0.0366  0.3198
  555MOL0     C76515   9.074   6.785   4.463 -0.1698 -0.0068  0.6280
  555MOL0     C76516   9.008   6.657   4.467  0.1722 -1.0077  0.1870
  555MOL0     C76517   8.945   6.557   4.470  0.2897 -0.7957  1.0423
  555MOL0     C76518   9.761   6.822   4.408 -0.4262  0.6413 -0.2502
  555MOL0     C76519   9.901   6.823   4.441  0.6196  1.0906 -0.3929
  555MOL0     C76520   9.977   6.691   4.432 -0.0955 -0.8649  0.0191
  555MOL0     H76521  10.143   7.164   4.798  2.2031  0.0640  1.8793
  555MOL0     H76522  10.335   7.211   4.921  2.5858 -2.0770  0.9454
  555MOL0     H76523  10.575   7.248   5.056 -4.1339  1.3967 -0.1202
  555MOL0     H76524  10.488   7.346   4.936 -0.8871 -2.0541  0.5960
  555MOL0     H76525  10.707   7.439   4.851  0.7794 -2.0253 -0.4682
  555MOL0     H76526  10.684   7.470   5.020 -0.1782  1.6218 -1.9741
  555MOL0     H76527  10.818   7.238   5.072  2.2022 -1.3582 -0.2420
  555MOL0     H76528  10.875   7.251   4.905  1.1535  0.2241  0.4260
  555MOL0     H76529  10.948   7.488   4.955  0.0461  2.1389  0.4327
  555MOL0     H76530  10.907   7.463   5.123 -0.9612 -1.4250 -0.0044
  555MOL0     H76531  11.111   7.293   4.978 -1.5475 -1.8409  0.6582
  555MOL0     H76532  11.041   7.275   5.134  0.1989 -0.5140 -0.6841
  555MOL0     H76533  11.226   7.493   5.026  0.4088 -3.7495 -0.3602
  555MOL0     H76534  11.139   7.528   5.187 -0.1025  0.3913  1.1495
  555MOL0     H76535  11.369   7.334   5.119 -0.1328  1.5381 -1.5639
  555MOL0     H76536  11.259   7.322   5.266  1.0718 -1.3889 -1.3915
  555MOL0     H76537  11.400   7.568   5.177  1.2139 -2.6814 -1.3099
  555MOL0     H76538  11.336   7.549   5.333 -0.9599  2.8104 -2.6227
  555MOL0     H76539  11.508   7.284   5.457 -0.9015 -1.9335 -1.7359
  555MOL0     H76540  11.771   7.266   5.555  0.3507  0.5011 -0.1190
  555MOL0     H76541  11.881   7.255   5.420  0.1156 -0.6104  0.1051
  555MOL0     H76542  11.644   7.086   5.484 -0.9446  1.4084 -2.9793
  555MOL0     H76543  11.724   7.068   5.321  0.3660  1.3950 -0.7372
  555MOL0     H76544  11.787   6.888   5.484 -0.9071  0.4460  3.2025
  555MOL0     H76545  11.923   6.972   5.419  0.7153  0.1162  0.3735
  555MOL0     H76546  11.778   7.040   5.665 -0.2451 -2.3655 -1.2625
  555MOL0     H76547  11.920   6.930   5.671 -0.4829  0.2003 -0.2215
  555MOL0     H76548  12.120   6.906   5.594  0.2361  0.3637  3.9096
  555MOL0     H76549  12.420   6.815   5.602 -0.1580 -1.7523 -0.3397
  555MOL0     H76550  12.415   6.847   5.428  3.5409  2.5441  2.2966
  555MOL0     H76551  12.279   6.782   5.502  0.3436 -1.6806  2.0268
  555MOL0     H76552  12.669   7.325   5.203  0.6939  0.9636  0.8592
  555MOL0     H76553  12.911   7.340   5.152 -1.2640 -3.2696 -2.1261
  555MOL0     H76554  13.136   7.363   5.124  1.2888  2.8633 -0.5781
  555MOL0     H76555  13.126   7.482   5.249 -4.0719  0.1965 -4.4534
  555MOL0     H76556  13.345   7.392   5.341 -3.2325  3.3432  0.6612
  555MOL0     H76557  13.355   7.281   5.200 -0.8074  0.0612 -0.0497
  555MOL0     H76558  13.321   7.588   5.176  2.5640  1.7071  0.5891
  555MOL0     H76559  13.354   7.464   5.048  1.0966  3.0892 -0.8799
  555MOL0     H76560  13.580   7.431   5.133 -0.3789  0.0344 -0.3553
  555MOL0     H76561  13.555   7.499   5.291  1.6591 -0.8826 -1.1478
  555MOL0     H76562  13.542   7.658   5.029  1.9932 -2.3053 -1.1485
  555MOL0     H76563  13.503   7.717   5.188 -2.6207 -1.7389 -0.4844
  555MOL0     H76564  13.771   7.594   5.117 -1.0249 -0.0769  0.1670
  555MOL0     H76565  13.720   7.682   5.264 -0.1189 -2.4189 -0.2570
  555MOL0     H76566  13.743   7.891   5.142 -2.1439 -1.1010  0.7088
  555MOL0     H76567  13.740   7.814   4.981  4.4770 -2.7982 -1.9167
  555MOL0     H76568  13.954   7.899   5.038 -1.9873  0.8876  1.2402
  555MOL0     H76569  13.978   7.721   5.027 -0.8131 -0.4581 -0.4714
  555MOL0     H76570  13.021   7.195   5.539 -1.8151  0.5112  2.0541
  555MOL0     H76571  12.783   7.173   5.597  0.5172  0.7972 -0.2695
  555MOL0     H76572  12.370   7.326   5.568  2.2820 -0.7517  0.2142
  555MOL0     H76573  12.139   7.326   5.630  1.2551 -0.6740  0.7837
  555MOL0     H76574  10.587   7.122   4.583 -0.2438 -3.0126 -0.5803
  555MOL0     H76575  10.365   7.088   4.449 -3.5721 -0.0472  0.7529
  555MOL0     H76576   9.922   7.160   4.519 -0.5867  0.5844 -0.8864
  555MOL0     H76577   9.679   7.149   4.462 -2.1856 -0.8473 -1.4693
  555MOL0     H76578   9.480   6.757   4.325  1.8101  0.6294 -0.6318
  555MOL0     H76579   9.499   6.786   4.497 -1.8074  0.3473  0.7840
  555MOL0     H76580   9.278   6.923   4.331 -1.8780  2.7525  2.3801
  555MOL0     H76581   9.309   6.928   4.512 -0.1866 -1.1093  0.4410
  555MOL0     H76582   9.226   6.689   4.358  0.4480  0.6151 -0.1497
  555MOL0     H76583   9.266   6.703   4.529  1.5271 -1.2326 -0.7930
  555MOL0     H76584   9.032   6.846   4.383  1.3244  0.9257  0.5169
  555MOL0     H76585   9.063   6.839   4.558  2.1745  0.3178  0.7703
  555MOL0     H76586   8.900   6.460   4.480  0.2463 -0.8169  0.6564
  555MOL0     H76587   9.722   6.726   4.378 -3.4049  1.5802  0.2985
  555MOL0     H76588  10.011   6.660   4.531  0.8228 -1.3521 -0.4315
  555MOL0     H76589   9.916   6.612   4.389  0.2893 -1.2914  0.2437
  555MOL0     H76590  10.062   6.713   4.365  1.4049  0.5312  2.2373
  556MOL0     O76591   0.473  10.940   7.309  0.1065  0.4097  0.4275
  556MOL0     C76592   0.418  11.005   7.396 -0.2452 -0.5766  0.0750
  556MOL0     O76593   0.491  11.074   7.497  0.6296 -0.1416  0.1801
  556MOL0     C76594   0.611  11.126   7.447  0.6927  0.3630 -0.3743
  556MOL0     C76595   0.720  11.043   7.415  0.3539 -0.5449 -0.7688
  556MOL0     C76596   0.849  11.093   7.381  0.2199 -0.1928  0.4563
  556MOL0     C76597   0.874  11.241   7.384  0.4112  0.6993 -0.6459
  556MOL0     O76598   1.000  11.284   7.355  0.0260  0.0823  0.4545
  556MOL0     C76599   1.018  11.428   7.335  0.1699  0.9644 -0.5912
  556MOL0     C76600   1.165  11.456   7.300  0.8352 -0.2888 -0.1675
  556MOL0     C76601   1.200  11.425   7.161  0.5673 -0.1802 -0.0711
  556MOL0     C76602   1.335  11.494   7.110  0.2030 -0.0973  0.2846
  556MOL0     C76603   1.333  11.649   7.119 -0.5223  0.6619  1.5656
  556MOL0     C76604   1.415  11.717   7.001  1.0345 -0.2997  0.1100
  556MOL0     C76605   1.393  11.877   7.009 -0.2838  0.7029  0.6157
  556MOL0     C76606   1.411  11.934   6.871 -0.3047  0.5958  0.0937
  556MOL0     N76607   1.551  11.912   6.829  0.4780 -0.3018  0.2533
  556MOL0     C76608   1.587  11.807   6.748  0.3707  0.9404  0.1569
  556MOL0     C76609   1.727  11.821   6.737  0.7284 -0.6536  0.6317
  556MOL0     C76610   1.812  11.729   6.653 -0.0298 -0.0731  0.4770
  556MOL0     C76611   1.945  11.784   6.604  0.8819  0.5065 -0.1650
  556MOL0     C76612   2.043  11.676   6.557  0.3369 -0.5058  0.0847
  556MOL0     C76613   2.158  11.735   6.477 -0.3568 -0.9065  0.7494
  556MOL0     O76614   2.253  11.800   6.558 -0.7732  0.1413 -0.9438
  556MOL0     C76615   2.369  11.853   6.505  0.7679  0.7679  0.2295
  556MOL0     C76616   2.430  11.954   6.587 -0.3666 -0.5623 -0.3463
  556MOL0     C76617   2.544  12.022   6.557  0.8103 -0.8432 -0.1771
  556MOL0     C76618   2.589  12.141   6.651  1.0263  0.0651  0.8435
  556MOL0     C76619   2.616  11.970   6.436 -0.2759 -0.4421  0.2636
  556MOL0     C76620   2.733  12.037   6.383  0.4026  0.2027 -0.3402
  556MOL0     O76621   2.794  12.142   6.452  0.2280  0.4710  0.2891
  556MOL0     C76622   2.924  12.182   6.428 -0.7133  0.0830  0.6052
  556MOL0     C76623   3.017  12.122   6.339  0.6892  0.4669  0.0407
  556MOL0     C76624   3.146  12.171   6.330  0.8481  0.4366 -0.0150
  556MOL0     C76625   3.173  12.298   6.394  0.0257 -0.2428  0.2255
  556MOL0     O76626   3.289  12.375   6.384 -0.5237  0.5900 -0.4108
  556MOL0     C76627   3.397  12.316   6.298 -0.6955  0.3333  0.3994
  556MOL0     C76628   3.518  12.417   6.292 -0.5097  0.1164  0.3026
  556MOL0     C76629   3.650  12.361   6.254 -0.3486  0.8077  0.5533
  556MOL0     C76630   3.766  12.456   6.251  0.2667 -0.3076 -0.1461
  556MOL0     C76631   3.896  12.396   6.199  0.2700 -0.0100  0.1521
  556MOL0     C76632   3.986  12.508   6.166  0.0511 -0.1937  0.7341
  556MOL0     C76633   4.121  12.470   6.103 -0.4783 -0.6179 -0.5296
  556MOL0     C76634   4.195  12.600   6.076 -0.0168 -0.7845 -0.4729
  556MOL0    Cl76635   4.233  12.710   6.218  0.3786 -0.0015 -0.3664
  556MOL0     C76636   3.086  12.355   6.479 -0.4276 -0.3765  0.7919
  556MOL0     C76637   2.970  12.291   6.500 -0.3893 -0.6054  0.4125
  556MOL0     O76638   2.755  12.014   6.265 -0.0819 -0.4332  0.4810
  556MOL0     C76639   2.563  11.861   6.364  0.5016 -0.1682 -0.3064
  556MOL0     C76640   2.435  11.807   6.392  0.1123  0.4396  0.3885
  556MOL0     N76641   1.765  11.934   6.806  0.5478  0.6159 -0.4714
  556MOL0     N76642   1.655  11.987   6.851 -0.0468  0.5465  1.1140
  556MOL0     C76643   0.765  11.323   7.421  0.2747 -0.0198  0.2094
  556MOL0     C76644   0.639  11.260   7.447  0.5140 -0.5089  0.3172
  556MOL0     C76645   0.270  11.011   7.420 -0.0049 -0.0967  0.4022
  556MOL0     C76646   0.211  11.085   7.522 -0.2860  0.0202 -0.2608
  556MOL0     C76647   0.076  11.076   7.555 -0.9009  1.0199 -0.5735
  556MOL0     C76648  -0.001  11.009   7.469  0.0799 -0.3828  0.8204
  556MOL0     O76649  -0.138  10.998   7.492  0.7232 -0.9754 -0.0445
  556MOL0     C76650  -0.219  11.122   7.479 -0.6226 -0.8555 -0.6868
  556MOL0     C76651  -0.276  11.135   7.344 -0.2857 -0.3952  0.0311
  556MOL0     C76652  -0.278  11.287   7.317  0.7841 -0.5010  0.2182
  556MOL0     C76653  -0.380  11.318   7.211  0.3032  0.3833 -0.7126
  556MOL0     C76654  -0.520  11.319   7.246  0.2876 -0.0070 -0.2256
  556MOL0     C76655  -0.639  11.332   7.272 -0.2976 -1.0858 -0.1234
  556MOL0     C76656   0.054  10.932   7.367  0.0637  0.2618 -0.1937
  556MOL0     C76657   0.187  10.931   7.336  0.0976 -0.6784 -0.3635
  556MOL0     C76658   0.224  10.858   7.215 -0.1872  0.4277  0.1949
  556MOL0     H76659   0.712  10.935   7.416  1.5518 -0.6896  1.8333
  556MOL0     H76660   0.931  11.025   7.358 -0.4287 -0.9897  0.4642
  556MOL0     H76661   1.003  11.478   7.431  1.3333 -0.2408  0.2518
  556MOL0     H76662   0.952  11.472   7.260 -0.2492  2.5276  0.6277
  556MOL0     H76663   1.167  11.565   7.313  0.3851 -0.4546  1.5553
  556MOL0     H76664   1.236  11.412   7.371 -1.1110  0.4573  2.3953
  556MOL0     H76665   1.218  11.317   7.173  1.8688  0.2379  2.5135
  556MOL0     H76666   1.117  11.439   7.092 -0.2081  0.0850  0.8991
  556MOL0     H76667   1.419  11.450   7.166 -0.3870  0.8309  1.9486
  556MOL0     H76668   1.359  11.466   7.007 -0.6791 -0.1491  0.0894
  556MOL0     H76669   1.367  11.674   7.220  0.9900  1.1592  0.9529
  556MOL0     H76670   1.232  11.690   7.111 -0.6590  0.0317 -0.5844
  556MOL0     H76671   1.520  11.686   7.008  1.2616  0.6807  1.6008
  556MOL0     H76672   1.375  11.674   6.909  2.2769 -0.6446 -0.2899
  556MOL0     H76673   1.467  11.930   7.069  2.7372  1.2727 -3.2119
  556MOL0     H76674   1.290  11.893   7.043 -0.1926  0.1698  1.1647
  556MOL0     H76675   1.343  11.903   6.791  0.4585  0.0155 -0.3423
  556MOL0     H76676   1.401  12.041   6.893  0.6472  0.6914  0.1056
  556MOL0     H76677   1.540  11.717   6.710  2.5630 -0.5151  0.7091
  556MOL0     H76678   1.750  11.707   6.565 -0.4889  0.0507  0.7672
  556MOL0     H76679   1.834  11.640   6.712  0.9145  0.4562  0.9497
  556MOL0     H76680   1.915  11.856   6.527 -2.8483  1.3472  1.8498
  556MOL0     H76681   1.986  11.840   6.689 -1.8491  3.4114 -0.5747
  556MOL0     H76682   2.080  11.630   6.649  1.4654  3.1260  1.6373
  556MOL0     H76683   1.994  11.606   6.489  1.1309  1.5280 -2.7544
  556MOL0     H76684   2.200  11.649   6.424 -1.2312 -0.2493 -1.0936
  556MOL0     H76685   2.117  11.807   6.405  1.9914 -0.3493 -0.1008
  556MOL0     H76686   2.376  11.977   6.678  0.9605 -1.6822  0.7762
  556MOL0     H76687   2.602  12.240   6.605  0.0436  0.4435  1.3480
  556MOL0     H76688   2.686  12.114   6.693  0.8232 -0.2271  1.1300
  556MOL0     H76689   2.513  12.153   6.729 -1.8816 -1.5399 -1.5505
  556MOL0     H76690   2.982  12.028   6.298  1.1494 -1.5754  3.9023
  556MOL0     H76691   3.221  12.116   6.275 -1.7719 -1.0047 -2.4329
  556MOL0     H76692   3.437  12.226   6.346 -1.7200 -0.1420  0.3876
  556MOL0     H76693   3.363  12.286   6.198  2.1591 -1.0806 -0.2383
  556MOL0     H76694   3.489  12.506   6.236  1.6294  1.0705  0.6096
  556MOL0     H76695   3.540  12.450   6.394  1.1585  1.4428 -0.4514
  556MOL0     H76696   3.643  12.314   6.155  3.9908 -1.3533  1.0156
  556MOL0     H76697   3.669  12.277   6.322 -0.8389  0.5127  0.3320
  556MOL0     H76698   3.776  12.491   6.354 -2.0435  1.8073 -0.5266
  556MOL0     H76699   3.742  12.540   6.185  0.0479  0.2101  0.5753
  556MOL0     H76700   3.947  12.339   6.277  0.6233 -0.7905 -0.6299
  556MOL0     H76701   3.880  12.338   6.108  1.2970  0.6012 -0.4286
  556MOL0     H76702   4.004  12.568   6.255  0.3456  1.3535 -0.3309
  556MOL0     H76703   3.934  12.574   6.096 -0.9250 -0.4525  1.1982
  556MOL0     H76704   4.107  12.421   6.006  0.9753 -3.5173  0.5898
  556MOL0     H76705   4.186  12.405   6.162  0.7259  2.7604  2.2291
  556MOL0     H76706   4.138  12.662   6.006 -0.2782 -0.0935  0.3313
  556MOL0     H76707   4.292  12.572   6.033  1.9485  1.5056  2.0926
  556MOL0     H76708   3.104  12.454   6.520  0.9549 -1.0694  1.9765
  556MOL0     H76709   2.900  12.335   6.570  0.7280 -0.1469  1.2820
  556MOL0     H76710   2.611  11.829   6.273 -0.2953 -0.6358 -0.5788
  556MOL0     H76711   2.386  11.722   6.345 -0.3657 -0.1161  1.8356
  556MOL0     H76712   0.782  11.430   7.410  2.5560 -0.4428 -1.1305
  556MOL0     H76713   0.550  11.318   7.468 -1.0382 -2.1493 -1.3812
  556MOL0     H76714   0.264  11.159   7.581 -1.4944  0.8356 -0.1455
  556MOL0     H76715   0.048  11.131   7.644  2.5181 -0.9259  1.9718
  556MOL0     H76716  -0.297  11.133   7.555  1.4891  2.2167  1.2668
  556MOL0     H76717  -0.156  11.209   7.500 -1.2507 -0.6496  0.4174
  556MOL0     H76718  -0.377  11.093   7.336 -0.4570 -0.0679  0.4259
  556MOL0     H76719  -0.210  11.088   7.270 -0.8965  0.2402 -0.9490
  556MOL0     H76720  -0.317  11.339   7.405 -0.7323 -0.9620 -0.1408
  556MOL0     H76721  -0.182  11.331   7.289 -0.0066  1.7778  0.8264
  556MOL0     H76722  -0.366  11.242   7.133  3.5598 -0.9803  1.0319
  556MOL0     H76723  -0.358  11.415   7.165 -4.5139  1.1335 -2.0595
  556MOL0     H76724  -0.737  11.344   7.314  0.1488  0.7439  0.5219
  556MOL0     H76725  -0.014  10.876   7.304  0.2249  0.5577 -0.6343
  556MOL0     H76726   0.147  10.870   7.138 -0.0686 -1.2084 -0.2203
  556MOL0     H76727   0.312  10.892   7.160  0.2812 -0.8124  0.1434
  556MOL0     H76728   0.224  10.751   7.240 -1.2929  0.4681  0.4375
  557MOL0     O76729   2.903   6.692   0.261  0.0901  0.3874 -0.4068
  557MOL0     C76730   2.903   6.632   0.373 -0.8457 -0.3105  0.8437
  557MOL0     O76731   3.010   6.632   0.450  0.1564 -0.2339 -0.5075
  557MOL0     C76732   3.119   6.702   0.421 -0.6606 -0.8263  0.0977
  557MOL0     C76733   3.235   6.630   0.381  0.2321  0.7252 -1.0544
  557MOL0     C76734   3.364   6.684   0.368  0.1156 -0.1886 -0.2362
  557MOL0     C76735   3.372   6.816   0.395  0.1024  0.1990 -0.0398
  557MOL0     O76736   3.483   6.893   0.390 -0.1898  0.5657 -0.1938
  557MOL0     C76737   3.599   6.835   0.331  0.1350 -0.5263  0.1896
  557MOL0     C76738   3.712   6.927   0.362  0.2513 -0.3169  0.1459
  557MOL0     C76739   3.703   7.070   0.291  0.2674 -0.0954  0.3479
  557MOL0     C76740   3.823   7.159   0.329 -0.7696  0.4074 -0.1252
  557MOL0     C76741   3.845   7.274   0.221 -0.4520  0.3167 -0.2807
  557MOL0     C76742   3.954   7.374   0.274  0.1881 -0.8087 -0.1004
  557MOL0     C76743   3.965   7.501   0.184  0.3264  0.8365 -0.1824
  557MOL0     C76744   4.072   7.590   0.256  0.0512 -0.5885  0.4418
  557MOL0     N76745   4.170   7.643   0.163  0.1630 -0.0933 -0.0513
  557MOL0     C76746   4.152   7.722   0.051  0.2815  0.8023  0.2314
  557MOL0     C76747   4.275   7.778   0.021  0.3630 -0.5123 -0.4385
  557MOL0     C76748   4.297   7.863  -0.097 -0.2601 -0.4787 -0.4485
  557MOL0     C76749   4.445   7.863  -0.141 -0.4455 -0.6535 -0.6747
  557MOL0     C76750   4.463   7.950  -0.269  0.6891 -0.3636 -0.0148
  557MOL0     C76751   4.580   7.915  -0.343 -0.6728  0.9492  0.8775
  557MOL0     O76752   4.694   7.910  -0.262  0.7738  0.2476  0.4014
  557MOL0     C76753   4.809   7.866  -0.322  0.1034  0.5905 -0.3860
  557MOL0     C76754   4.920   7.870  -0.247 -0.7113  0.8653 -0.0651
  557MOL0     C76755   5.047   7.854  -0.301 -0.3084 -0.4371  0.0987
  557MOL0     C76756   5.167   7.872  -0.209  0.1529  0.4760  0.1034
  557MOL0     C76757   5.068   7.821  -0.441 -0.1275  0.2241 -1.1653
  557MOL0     C76758   5.195   7.844  -0.512 -0.8408 -0.5972  0.3773
  557MOL0     O76759   5.206   7.778  -0.627 -0.0130  0.6362 -0.0947
  557MOL0     C76760   5.317   7.808  -0.689 -0.7886  0.0437  0.2306
  557MOL0     C76761   5.320   7.922  -0.764 -0.2052 -0.0915  0.5532
  557MOL0     C76762   5.438   7.954  -0.837 -0.0734 -0.0921  1.0777
  557MOL0     C76763   5.545   7.865  -0.841 -0.4615  0.3414 -0.3276
  557MOL0     O76764   5.641   7.903  -0.931  0.0957 -0.2579  0.1455
  557MOL0     C76765   5.767   7.850  -0.916 -0.8368 -0.1440  0.3302
  557MOL0     C76766   5.838   7.871  -1.051  0.4366  0.5647  0.6373
  557MOL0     C76767   5.843   7.761  -1.153 -0.3765  0.1365  0.2954
  557MOL0     C76768   5.920   7.807  -1.281 -0.2386 -0.4595  0.2756
  557MOL0     C76769   5.967   7.690  -1.369 -0.2212 -0.6955 -0.0957
  557MOL0     C76770   6.017   7.557  -1.299  0.1555 -0.3671  0.2637
  557MOL0     C76771   6.083   7.458  -1.397  0.5494  0.0735  0.4784
  557MOL0     C76772   6.087   7.316  -1.344  0.7762 -0.1420 -0.1598
  557MOL0    Cl76773   6.170   7.215  -1.464  0.1873 -0.4465 -0.1708
  557MOL0     C76774   5.546   7.741  -0.769  0.5764  0.4991 -0.3827
  557MOL0     C76775   5.434   7.715  -0.688  0.2574  0.4915 -0.3013
  557MOL0     O76776   5.286   7.911  -0.458  0.0360 -0.4681 -0.5421
  557MOL0     C76777   4.951   7.790  -0.509 -0.7652 -0.7011 -0.0196
  557MOL0     C76778   4.828   7.812  -0.452  0.6063 -1.0234  0.0911
  557MOL0     N76779   4.362   7.736   0.119 -1.0843 -0.0228  0.0600
  557MOL0     N76780   4.297   7.661   0.199  0.2481 -0.0546 -0.1073
  557MOL0     C76781   3.256   6.899   0.421 -0.6141 -0.1919 -0.5253
  557MOL0     C76782   3.131   6.839   0.434  0.1631 -0.0606  1.5570
  557MOL0     C76783   2.782   6.576   0.428  1.2869  0.1532  0.5747
  557MOL0     C76784   2.784   6.544   0.562  0.6340 -0.2622  0.5261
  557MOL0     C76785   2.678   6.475   0.615 -0.6609 -0.9487 -0.6986
  557MOL0     C76786   2.565   6.439   0.547  0.0093 -0.3553  0.2699
  557MOL0     O76787   2.461   6.390   0.620  0.3683  0.0876  0.3867
  557MOL0     C76788   2.331   6.361   0.558  0.1469 -0.0415 -0.9893
  557MOL0     C76789   2.262   6.265   0.665  0.8442  0.0343  0.3732
  557MOL0     C76790   2.117   6.245   0.621  1.1036  0.3480 -0.3024
  557MOL0     C76791   2.053   6.136   0.718  0.5188  0.2899  0.4572
  557MOL0     C76792   1.913   6.107   0.677 -0.8988  1.5305  1.1898
  557MOL0     C76793   1.795   6.081   0.654 -0.0250  0.5253 -0.1652
  557MOL0     C76794   2.554   6.473   0.409 -0.3603  0.2532 -0.0716
  557MOL0     C76795   2.664   6.543   0.351  0.0360  0.3460  0.3902
  557MOL0     C76796   2.638   6.597   0.213 -0.8874  0.6811 -0.4098
  557MOL0     H76797   3.221   6.523   0.386 -3.8490  1.1596  2.7515
  557MOL0     H76798   3.457   6.633   0.347  0.1831 -1.5801  3.0282
  557MOL0     H76799   3.571   6.830   0.226  0.5504  2.1546 -0.1263
  557MOL0     H76800   3.638   6.744   0.378 -0.4468 -0.2655  1.2180
  557MOL0     H76801   3.693   6.940   0.469 -3.3519  0.1929 -0.4287
  557MOL0     H76802   3.809   6.881   0.344  1.5108  1.7839  1.1846
  557MOL0     H76803   3.694   7.051   0.184 -0.2008 -1.2553  0.5806
  557MOL0     H76804   3.606   7.117   0.312  0.5845 -0.4092  2.7763
  557MOL0     H76805   3.822   7.199   0.431 -0.0955 -0.2455  0.1514
  557MOL0     H76806   3.914   7.097   0.328 -0.3932  0.6160  4.0323
  557MOL0     H76807   3.748   7.320   0.201 -0.7203 -0.0943  0.0596
  557MOL0     H76808   3.866   7.227   0.124 -0.6522  2.4877 -1.4459
  557MOL0     H76809   3.916   7.408   0.371  0.6203 -0.9699  0.1305
  557MOL0     H76810   4.046   7.315   0.278 -1.0201 -2.7722  0.4177
  557MOL0     H76811   3.872   7.560   0.185  0.1337  0.5822 -1.4392
  557MOL0     H76812   4.001   7.470   0.086  2.6822 -0.4413  1.0203
  557MOL0     H76813   4.030   7.675   0.310  2.8777  0.6363  0.8866
  557MOL0     H76814   4.127   7.544   0.338  0.6208  2.4419  1.8742
  557MOL0     H76815   4.063   7.741  -0.008 -1.2076 -3.1886  0.8964
  557MOL0     H76816   4.255   7.961  -0.074  0.7001 -0.1664  0.0507
  557MOL0     H76817   4.239   7.832  -0.185 -0.1345  0.3747 -0.8493
  557MOL0     H76818   4.504   7.909  -0.062 -3.1387  1.4765  0.2703
  557MOL0     H76819   4.470   7.757  -0.155  3.0849  0.0350 -0.3857
  557MOL0     H76820   4.375   7.935  -0.333 -0.1571 -1.9314  1.4235
  557MOL0     H76821   4.473   8.054  -0.237 -1.3661  0.3487 -1.4806
  557MOL0     H76822   4.563   7.825  -0.404 -0.6212  1.3154  0.3169
  557MOL0     H76823   4.597   7.999  -0.411  0.0276  0.2319  0.1369
  557MOL0     H76824   4.901   7.898  -0.144 -0.8023 -0.6695  0.3473
  557MOL0     H76825   5.222   7.965  -0.227 -0.7309  1.5460  2.4678
  557MOL0     H76826   5.238   7.791  -0.225 -1.2855 -1.0052  0.9235
  557MOL0     H76827   5.121   7.858  -0.111 -2.6392  1.0472 -1.0262
  557MOL0     H76828   5.227   7.977  -0.760 -0.6442 -0.8906  3.3004
  557MOL0     H76829   5.435   8.036  -0.908 -1.1138 -1.2729 -0.3148
  557MOL0     H76830   5.830   7.895  -0.839  1.3023 -2.3409 -0.0070
  557MOL0     H76831   5.778   7.742  -0.898  2.0407  0.1492  0.8062
  557MOL0     H76832   5.795   7.960  -1.100  0.6537  0.7286  0.7416
  557MOL0     H76833   5.941   7.903  -1.033  0.6461  1.3191 -1.5752
  557MOL0     H76834   5.740   7.731  -1.176  0.4133 -2.8503  0.1646
  557MOL0     H76835   5.885   7.676  -1.099  3.1137  1.9737  0.7339
  557MOL0     H76836   6.013   7.857  -1.249 -0.3454  1.5379 -2.2026
  557MOL0     H76837   5.860   7.879  -1.338 -1.0285 -2.3799 -1.4371
  557MOL0     H76838   5.878   7.664  -1.426  0.4577 -1.5280 -0.8187
  557MOL0     H76839   6.040   7.721  -1.445  0.2900 -0.9848  0.2718
  557MOL0     H76840   5.934   7.497  -1.262  1.1517 -1.5698  0.6054
  557MOL0     H76841   6.076   7.576  -1.208  1.0697 -2.4379  0.1615
  557MOL0     H76842   6.183   7.497  -1.420  1.2867 -2.4463 -1.0491
  557MOL0     H76843   6.030   7.448  -1.492  0.8725 -1.6888  0.4450
  557MOL0     H76844   5.988   7.276  -1.320  1.5809 -0.2373  3.5402
  557MOL0     H76845   6.146   7.316  -1.252 -0.9251  0.8455  1.0106
  557MOL0     H76846   5.627   7.668  -0.772 -0.5152 -0.7517 -0.0678
  557MOL0     H76847   5.439   7.619  -0.638 -0.9831  1.0936  1.0322
  557MOL0     H76848   4.969   7.759  -0.611  1.0071  1.5568 -0.4837
  557MOL0     H76849   4.740   7.793  -0.512 -0.4419  0.1950  1.1753
  557MOL0     H76850   3.272   7.006   0.429 -3.0496  0.1951  0.0028
  557MOL0     H76851   3.043   6.900   0.453 -1.0215  0.0194 -2.8820
  557MOL0     H76852   2.866   6.578   0.624  1.3142 -1.0477  0.0817
  557MOL0     H76853   2.678   6.460   0.722  0.4898 -0.5932 -0.6322
  557MOL0     H76854   2.260   6.445   0.552  1.4685  1.6451  3.1946
  557MOL0     H76855   2.346   6.314   0.461  2.7703 -2.4100  0.4205
  557MOL0     H76856   2.269   6.311   0.764  1.4065  1.7223 -0.4006
  557MOL0     H76857   2.307   6.166   0.666  0.6156 -0.0672  0.5822
  557MOL0     H76858   2.065   6.341   0.624  0.9293  0.2292  1.2586
  557MOL0     H76859   2.110   6.205   0.519 -0.9231  0.4849 -0.2580
  557MOL0     H76860   2.053   6.173   0.821 -0.9795  0.2328  0.4936
  557MOL0     H76861   2.098   6.037   0.717 -1.1191 -0.4878  0.9867
  557MOL0     H76862   1.696   6.042   0.644  0.6062 -0.7484 -1.8390
  557MOL0     H76863   2.468   6.460   0.343 -2.7682  0.9215  2.7278
  557MOL0     H76864   2.641   6.706   0.217  2.4148  0.6507  1.0064
  557MOL0     H76865   2.723   6.568   0.150 -0.0794  1.7030  0.1855
  557MOL0     H76866   2.547   6.564   0.162  0.0119 -2.3015 -0.3012
  558MOL0     O76867   8.042  10.028   0.901  0.5293  0.1513  0.1121
  558MOL0     C76868   7.998  10.089   0.801 -0.0519  0.3232  0.1101
  558MOL0     O76869   8.068  10.119   0.690  0.4391  0.1569 -0.5639
  558MOL0     C76870   8.204  10.092   0.676  0.5842 -0.2764  0.1170
  558MOL0     C76871   8.270   9.977   0.721 -0.7778 -0.1228 -0.5443
  558MOL0     C76872   8.410   9.963   0.704  0.8857  0.4057 -0.1682
  558MOL0     C76873   8.487  10.053   0.628 -0.2749  0.2566 -0.3334
  558MOL0     O76874   8.620  10.013   0.595  0.5505 -0.0793 -0.1228
  558MOL0     C76875   8.699  10.121   0.538  0.0885  0.9801 -0.2798
  558MOL0     C76876   8.835  10.092   0.601 -0.4945 -0.2625 -0.2876
  558MOL0     C76877   8.926  10.214   0.558 -0.3517  0.7170  0.1417
  558MOL0     C76878   9.044  10.241   0.654  0.2135  0.1846  0.0595
  558MOL0     C76879   9.150  10.323   0.588  0.0904  1.0308  0.7379
  558MOL0     C76880   9.264  10.304   0.692 -0.3135 -0.1990  0.1185
  558MOL0     C76881   9.413  10.339   0.647 -0.2189  0.0918 -0.4836
  558MOL0     C76882   9.472  10.243   0.544 -0.0040  0.3738 -0.3804
  558MOL0     N76883   9.505  10.105   0.585 -0.6733  0.1317 -0.4224
  558MOL0     C76884   9.439   9.986   0.572  0.8522 -0.2653 -0.4713
  558MOL0     C76885   9.518   9.885   0.613  0.5880  0.3329 -0.1178
  558MOL0     C76886   9.489   9.737   0.618  0.7106 -0.4401 -0.7454
  558MOL0     C76887   9.471   9.667   0.754  0.5202  0.2908 -0.1714
  558MOL0     C76888   9.601   9.660   0.836 -0.5716  1.1423  0.6760
  558MOL0     C76889   9.588   9.584   0.967  0.2660  0.4960 -0.3217
  558MOL0     O76890   9.480   9.640   1.039  0.0136 -0.5024 -0.4819
  558MOL0     C76891   9.442   9.585   1.163 -0.1285 -0.6809  0.0880
  558MOL0     C76892   9.328   9.636   1.227 -0.1625  0.4316 -0.1874
  558MOL0     C76893   9.286   9.578   1.350  0.3043  0.0344  0.7204
  558MOL0     C76894   9.150   9.638   1.397  0.2308 -0.4256 -0.0311
  558MOL0     C76895   9.349   9.467   1.404  0.1050 -0.0730  0.1486
  558MOL0     C76896   9.296   9.393   1.522  0.3607  0.4746  0.0486
  558MOL0     O76897   9.335   9.266   1.526 -0.5619 -0.2663  0.2245
  558MOL0     C76898   9.298   9.188   1.631  0.8738 -0.0106  0.4101
  558MOL0     C76899   9.163   9.145   1.640 -0.2134 -0.1724  0.4044
  558MOL0     C76900   9.119   9.078   1.749  0.1972  0.3724 -0.5767
  558MOL0     C76901   9.211   9.028   1.846  0.1307  0.1333 -0.2879
  558MOL0     O76902   9.181   8.941   1.949  0.4991  0.3886 -0.2665
  558MOL0     C76903   9.060   8.851   1.938 -0.4452  0.5156 -0.1614
  558MOL0     C76904   9.087   8.738   1.837  0.2407  0.7305  0.3184
  558MOL0     C76905   9.234   8.671   1.834 -0.5972 -0.0255 -0.1787
  558MOL0     C76906   9.255   8.552   1.732 -0.1842  0.2467 -0.3863
  558MOL0     C76907   9.151   8.435   1.744 -0.6423 -0.8461 -0.2948
  558MOL0     C76908   9.128   8.359   1.875 -0.3480 -0.6253  0.2991
  558MOL0     C76909   9.250   8.281   1.912  0.0386 -0.2676 -0.1680
  558MOL0     C76910   9.241   8.226   2.054 -0.0403 -0.5529  0.4633
  558MOL0    Cl76911   9.210   8.341   2.188 -0.5887  0.0069 -0.3277
  558MOL0     C76912   9.344   9.071   1.838  0.8156 -0.7533 -0.0405
  558MOL0     C76913   9.387   9.159   1.735  0.5101  0.4353  0.4709
  558MOL0     O76914   9.223   9.449   1.605  0.3612  0.0901  0.3321
  558MOL0     C76915   9.465   9.420   1.340 -0.0515  0.0409  0.7965
  558MOL0     C76916   9.511   9.477   1.221 -1.1901 -0.0489  0.0751
  558MOL0     N76917   9.639   9.944   0.644 -0.6229 -0.8863  0.3388
  558MOL0     N76918   9.631  10.064   0.627 -0.0220  0.0209  0.5266
  558MOL0     C76919   8.416  10.160   0.576 -0.0453 -0.7093 -0.2573
  558MOL0     C76920   8.282  10.179   0.597 -0.0749 -0.2007 -0.3474
  558MOL0     C76921   7.862  10.133   0.799  0.3123 -0.5590  0.0352
  558MOL0     C76922   7.823  10.224   0.694 -0.7025 -0.1190 -0.2024
  558MOL0     C76923   7.701  10.285   0.683 -0.0444  0.9457  0.4890
  558MOL0     C76924   7.602  10.255   0.779 -0.0386  0.6669 -0.6598
  558MOL0     O76925   7.473  10.290   0.745  0.1865 -0.1332 -0.1775
  558MOL0     C76926   7.375  10.265   0.851  0.1374  0.5029  0.4943
  558MOL0     C76927   7.237  10.314   0.806 -0.1581 -0.2269  0.2973
  558MOL0     C76928   7.166  10.238   0.689 -0.0594 -0.7468  0.2072
  558MOL0     C76929   7.017  10.291   0.661  0.1997  0.0725  0.6632
  558MOL0     C76930   6.969  10.234   0.531 -0.1665  0.5339  0.0445
  558MOL0     C76931   6.930  10.179   0.436 -0.0475  0.7489  0.5158
  558MOL0     C76932   7.630  10.168   0.884 -0.1185  0.1168  0.1327
  558MOL0     C76933   7.755  10.108   0.898 -0.2067 -1.1793 -0.2561
  558MOL0     C76934   7.767  10.003   1.010 -0.0218  0.4704  0.2208
  558MOL0     H76935   8.218   9.897   0.773  0.9795 -0.6068  0.5738
  558MOL0     H76936   8.442   9.862   0.726  0.6353 -0.8016 -4.4500
  558MOL0     H76937   8.676  10.219   0.583  1.4546  0.4187  1.7945
  558MOL0     H76938   8.713  10.112   0.430 -1.6268  0.6865 -0.5038
  558MOL0     H76939   8.824  10.081   0.709 -2.4494 -1.9049 -0.6089
  558MOL0     H76940   8.872   9.997   0.562 -0.1997  0.9052 -3.0974
  558MOL0     H76941   8.966  10.183   0.461 -1.6549 -5.3199  1.0994
  558MOL0     H76942   8.866  10.300   0.528 -0.7090 -0.7129 -3.8926
  558MOL0     H76943   9.019  10.285   0.751 -1.0966  0.4383 -0.3833
  558MOL0     H76944   9.087  10.142   0.676 -0.5520 -0.4080 -1.0513
  558MOL0     H76945   9.121  10.429   0.583 -0.3184  0.9201  0.7102
  558MOL0     H76946   9.173  10.295   0.485 -1.0241  2.8977 -0.0777
  558MOL0     H76947   9.245  10.357   0.786 -1.2661  1.0422 -0.7345
  558MOL0     H76948   9.276  10.202   0.729 -0.0936  0.2607  1.3780
  558MOL0     H76949   9.475  10.332   0.736 -1.0950 -2.2177  0.0403
  558MOL0     H76950   9.422  10.434   0.595  1.1274  0.0623 -0.3361
  558MOL0     H76951   9.413  10.236   0.452  2.6095 -2.9594 -2.0130
  558MOL0     H76952   9.562  10.298   0.514 -1.9542  3.3007 -1.2989
  558MOL0     H76953   9.336   9.980   0.537  1.3527 -1.0185 -1.8683
  558MOL0     H76954   9.569   9.683   0.566  1.8360 -0.1801  0.6443
  558MOL0     H76955   9.399   9.720   0.559  0.2228 -0.6626  0.0462
  558MOL0     H76956   9.391   9.720   0.807 -1.9525 -0.2199 -3.1029
  558MOL0     H76957   9.446   9.562   0.741 -0.0566  0.4303 -0.2156
  558MOL0     H76958   9.695   9.627   0.791 -0.2094 -0.7495  2.6642
  558MOL0     H76959   9.630   9.761   0.867 -0.8149  1.8049 -1.1040
  558MOL0     H76960   9.577   9.478   0.939  1.8138  0.7091 -1.8986
  558MOL0     H76961   9.677   9.586   1.031  0.0723 -0.4040 -0.0039
  558MOL0     H76962   9.282   9.724   1.184 -1.3347  0.3717  0.9012
  558MOL0     H76963   9.075   9.557   1.400 -0.8858  0.5961  0.5911
  558MOL0     H76964   9.116   9.731   1.350  0.1170  0.8792  2.4709
  558MOL0     H76965   9.174   9.679   1.495 -0.1740 -0.5675  0.1287
  558MOL0     H76966   9.105   9.183   1.557  0.0075 -0.4111  0.1371
  558MOL0     H76967   9.016   9.045   1.755 -0.0238  0.9329 -1.2034
  558MOL0     H76968   9.031   8.806   2.034 -1.2397 -1.5664 -1.3118
  558MOL0     H76969   8.974   8.907   1.901 -0.3128  0.0470 -1.2203
  558MOL0     H76970   9.009   8.661   1.842 -1.4689  2.0898 -2.8989
  558MOL0     H76971   9.078   8.785   1.739  0.3471 -0.1189 -0.1083
  558MOL0     H76972   9.257   8.629   1.933  2.4119  0.6178 -0.4922
  558MOL0     H76973   9.309   8.746   1.808  0.6688 -1.0701  0.3032
  558MOL0     H76974   9.358   8.516   1.739 -0.1143 -0.0065 -2.2208
  558MOL0     H76975   9.249   8.587   1.628 -1.6192 -2.1937 -1.2199
  558MOL0     H76976   9.052   8.479   1.727 -0.5284 -0.7827 -0.8250
  558MOL0     H76977   9.154   8.363   1.662 -0.8086  0.0605 -1.1164
  558MOL0     H76978   9.042   8.293   1.861 -1.9101  1.0793  1.3894
  558MOL0     H76979   9.099   8.430   1.954 -1.3250 -0.8925  0.1903
  558MOL0     H76980   9.339   8.344   1.901 -0.1396 -0.1107 -0.7659
  558MOL0     H76981   9.258   8.197   1.842  1.0154  0.3325 -0.7956
  558MOL0     H76982   9.330   8.171   2.084  1.3470  1.0998 -0.4256
  558MOL0     H76983   9.152   8.162   2.047 -1.2839  1.2236 -1.0748
  558MOL0     H76984   9.420   9.039   1.909  1.2422  0.6179  0.1508
  558MOL0     H76985   9.485   9.204   1.720  0.6215 -0.0609 -0.3116
  558MOL0     H76986   9.523   9.336   1.376 -0.1537 -0.1351  0.5493
  558MOL0     H76987   9.602   9.433   1.181  0.0166  2.2901  0.0849
  558MOL0     H76988   8.464  10.233   0.511 -0.6461  1.1357  1.2664
  558MOL0     H76989   8.241  10.272   0.559  2.2550  0.1440 -2.2199
  558MOL0     H76990   7.898  10.249   0.620 -1.0828 -3.6044 -2.0084
  558MOL0     H76991   7.672  10.337   0.592  2.6113  0.4743 -0.7325
  558MOL0     H76992   7.371  10.157   0.868  0.7006  0.8182  2.9981
  558MOL0     H76993   7.401  10.320   0.942  3.3374  0.4246 -0.2311
  558MOL0     H76994   7.238  10.422   0.791 -2.0492 -0.2821 -0.4985
  558MOL0     H76995   7.169  10.285   0.887  0.6514 -0.8729  0.7641
  558MOL0     H76996   7.236  10.251   0.606 -0.1679  0.1214  0.2435
  558MOL0     H76997   7.153  10.131   0.710  3.6376 -0.9196  2.5992
  558MOL0     H76998   7.014  10.400   0.657 -0.9186  0.0442 -2.1982
  558MOL0     H76999   6.944  10.272   0.740 -2.6813  0.2480 -1.7415
  558MOL0     H77000   6.889  10.132   0.349  1.2749 -1.7575  1.1513
  558MOL0     H77001   7.550  10.144   0.953 -0.5463  0.7451 -0.1359
  558MOL0     H77002   7.831   9.924   0.970  0.3807  1.8296 -1.9948
  558MOL0     H77003   7.813  10.045   1.100  0.6866 -2.8762  1.5411
  558MOL0     H77004   7.670   9.959   1.036  0.4610 -1.6287 -1.3179
  559MOL0     O77005   9.638   1.826   0.616 -0.3631  0.5469  0.2477
  559MOL0     C77006   9.569   1.928   0.604  0.4866  0.3279 -0.5621
  559MOL0     O77007   9.626   2.051   0.590  0.1381  0.0991 -0.4303
  559MOL0     C77008   9.757   2.076   0.563  0.1263 -0.0880  0.0598
  559MOL0     C77009   9.774   2.161   0.450 -0.0707 -0.5036  0.0141
  559MOL0     C77010   9.905   2.179   0.403 -0.2365 -0.7993 -0.2148
  559MOL0     C77011  10.021   2.125   0.477  0.6826 -0.6530  1.7251
  559MOL0     O77012  10.148   2.169   0.431 -0.0500  0.7977  0.4586
  559MOL0     C77013  10.260   2.155   0.516  0.0529 -0.3536 -0.5280
  559MOL0     C77014  10.383   2.219   0.452 -0.1338 -0.1392 -0.0452
  559MOL0     C77015  10.464   2.123   0.366 -0.7344 -0.3165 -0.5218
  559MOL0     C77016  10.612   2.177   0.349  0.3131 -0.0917  0.5859
  559MOL0     C77017  10.683   2.109   0.237  0.2642 -0.9672  0.4151
  559MOL0     C77018  10.621   2.129   0.100  1.3680  0.0340 -0.0485
  559MOL0     C77019  10.718   2.094  -0.016  0.6701 -0.3915 -0.0430
  559MOL0     C77020  10.822   2.195  -0.048  0.7847 -0.3709 -0.5038
  559MOL0     N77021  10.946   2.129  -0.077  0.1949  0.4511  0.6950
  559MOL0     C77022  11.014   2.157  -0.198  0.1129  0.2119 -1.2110
  559MOL0     C77023  11.148   2.121  -0.160  0.4267  0.1291  0.0059
  559MOL0     C77024  11.272   2.141  -0.239 -0.0750 -0.0752  0.4956
  559MOL0     C77025  11.365   2.016  -0.242  0.5592 -0.3734  0.0374
  559MOL0     C77026  11.301   1.908  -0.333  0.3708  0.3243 -0.5454
  559MOL0     C77027  11.395   1.806  -0.372 -0.4590  1.1869 -0.4280
  559MOL0     O77028  11.467   1.746  -0.262  0.2774  0.0601 -0.0609
  559MOL0     C77029  11.602   1.735  -0.270 -0.3620  0.3370  0.5766
  559MOL0     C77030  11.683   1.840  -0.225  0.1814  0.8362 -0.2466
  559MOL0     C77031  11.824   1.835  -0.238 -0.0417 -0.6913  0.1139
  559MOL0     C77032  11.898   1.955  -0.191 -0.8569 -0.1690 -0.1972
  559MOL0     C77033  11.882   1.718  -0.315  0.0456 -0.0189  0.4230
  559MOL0     C77034  12.029   1.700  -0.334 -0.3684 -0.1664  0.0271
  559MOL0     O77035  12.104   1.713  -0.230 -0.6572 -0.1684 -0.6399
  559MOL0     C77036  12.239   1.716  -0.233 -0.8105  0.1256  0.0744
  559MOL0     C77037  12.324   1.626  -0.297 -0.3479  0.3013 -0.4540
  559MOL0     C77038  12.465   1.639  -0.282  0.1980 -0.5591  0.1033
  559MOL0     C77039  12.525   1.739  -0.203  0.2285  0.3156 -0.1551
  559MOL0     O77040  12.661   1.738  -0.195 -0.1753  0.0219 -0.1615
  559MOL0     C77041  12.729   1.834  -0.105  1.2315 -0.3982 -0.0568
  559MOL0     C77042  12.880   1.848  -0.123 -0.6869 -0.1249 -0.2562
  559MOL0     C77043  12.917   1.897  -0.257  0.1235 -0.2380 -1.0492
  559MOL0     C77044  13.069   1.921  -0.270  0.5865  0.3062 -0.0645
  559MOL0     C77045  13.106   2.001  -0.397  0.4018  0.1992 -0.1793
  559MOL0     C77046  13.248   2.028  -0.420 -0.3410  0.1162  0.0770
  559MOL0     C77047  13.272   2.090  -0.561 -0.7228 -0.5118 -0.7994
  559MOL0     C77048  13.232   2.234  -0.570  0.1689 -0.1098  0.3581
  559MOL0    Cl77049  13.055   2.269  -0.585 -0.0512  0.1976  0.1316
  559MOL0     C77050  12.433   1.814  -0.113 -0.5366  0.7160 -0.3257
  559MOL0     C77051  12.291   1.807  -0.138 -0.3611  0.0954 -0.3135
  559MOL0     O77052  12.071   1.658  -0.443 -0.0077  0.4511 -0.4078
  559MOL0     C77053  11.789   1.626  -0.365  0.0217 -0.3052  0.1985
  559MOL0     C77054  11.658   1.627  -0.338 -0.2541 -0.6674 -0.3769
  559MOL0     N77055  11.145   2.081  -0.026  0.0530 -0.5389  0.1090
  559MOL0     N77056  11.030   2.088   0.026 -0.3765 -0.0210 -0.0515
  559MOL0     C77057   9.995   2.056   0.595  1.0983  0.2377 -0.0613
  559MOL0     C77058   9.866   2.024   0.635  0.6331  0.5653 -0.1602
  559MOL0     C77059   9.416   1.909   0.600 -0.9220  0.8720 -1.3105
  559MOL0     C77060   9.363   1.783   0.567  0.7705  0.2891  1.1079
  559MOL0     C77061   9.227   1.755   0.562 -0.0854 -0.2101  0.0124
  559MOL0     C77062   9.129   1.849   0.584  0.5548 -1.4705  0.8738
  559MOL0     O77063   8.999   1.813   0.590 -0.3502  0.4691  0.3251
  559MOL0     C77064   8.897   1.909   0.613 -0.4972 -0.2483  0.0903
  559MOL0     C77065   8.855   1.971   0.481 -0.1319  0.3043 -0.1701
  559MOL0     C77066   8.800   1.858   0.388  0.1087  0.1951  0.2674
  559MOL0     C77067   8.703   1.908   0.277 -0.8701  0.1004  0.2765
  559MOL0     C77068   8.694   1.820   0.157  0.2768  0.3991 -1.0170
  559MOL0     C77069   8.697   1.743   0.064 -0.6453 -0.4377 -0.4816
  559MOL0     C77070   9.174   1.982   0.607 -0.1442  1.2752  0.1449
  559MOL0     C77071   9.315   2.009   0.615  0.2569 -0.0423 -0.5474
  559MOL0     C77072   9.356   2.150   0.658 -0.0068  0.2288  0.4393
  559MOL0     H77073   9.691   2.204   0.395  0.4109 -0.4954 -0.7131
  559MOL0     H77074   9.910   2.240   0.313 -1.6033  1.5579  1.1953
  559MOL0     H77075  10.290   2.053   0.539  1.5539  0.7163  2.8398
  559MOL0     H77076  10.247   2.207   0.611  2.4293 -0.4007 -0.1033
  559MOL0     H77077  10.352   2.303   0.390 -3.5833 -1.8376 -0.8147
  559MOL0     H77078  10.447   2.255   0.533  3.2405 -2.1293 -1.6162
  559MOL0     H77079  10.465   2.024   0.411 -1.0813 -1.1528 -2.2927
  559MOL0     H77080  10.406   2.111   0.274 -2.9328  2.5895  0.3117
  559MOL0     H77081  10.600   2.284   0.330 -0.3437 -0.3805 -0.7225
  559MOL0     H77082  10.657   2.168   0.448 -4.7248 -2.3029  3.0180
  559MOL0     H77083  10.695   2.005   0.268 -0.0986 -0.6643  1.6409
  559MOL0     H77084  10.786   2.147   0.231 -0.2820  0.3343 -1.3836
  559MOL0     H77085  10.533   2.065   0.091 -0.1517  2.1006 -0.8863
  559MOL0     H77086  10.590   2.234   0.091 -0.1928 -0.4584 -0.8003
  559MOL0     H77087  10.663   2.086  -0.110 -0.4946 -1.0669  0.6668
  559MOL0     H77088  10.761   1.996   0.008 -0.8524 -0.7422  1.4576
  559MOL0     H77089  10.785   2.246  -0.138  0.3275 -2.0400 -1.3166
  559MOL0     H77090  10.838   2.266   0.033 -0.4010 -3.0734  2.2743
  559MOL0     H77091  10.966   2.211  -0.278  0.2996 -0.0901 -1.5282
  559MOL0     H77092  11.315   2.229  -0.191 -2.1387  1.4082 -0.2201
  559MOL0     H77093  11.235   2.168  -0.339  0.0306 -1.1145  0.1618
  559MOL0     H77094  11.457   2.051  -0.288  0.9994 -1.2505  0.2164
  559MOL0     H77095  11.383   1.974  -0.143 -2.5483 -1.1765  0.3619
  559MOL0     H77096  11.218   1.861  -0.279 -0.8319  1.4314 -1.3960
  559MOL0     H77097  11.257   1.958  -0.419  1.0228  0.5511 -0.7541
  559MOL0     H77098  11.329   1.729  -0.414  1.1606 -3.0971  3.9460
  559MOL0     H77099  11.461   1.839  -0.452  0.8107 -2.5640 -1.1088
  559MOL0     H77100  11.630   1.922  -0.178 -0.2676  1.3177 -1.5636
  559MOL0     H77101  11.952   1.958  -0.095 -0.8301 -1.2268 -0.1767
  559MOL0     H77102  11.817   2.027  -0.177 -1.2933 -0.6544 -0.2058
  559MOL0     H77103  11.972   1.986  -0.265 -0.5829 -0.0836  0.1060
  559MOL0     H77104  12.288   1.552  -0.368  0.2279 -0.6874  0.2514
  559MOL0     H77105  12.517   1.577  -0.355  1.1632  2.1558 -1.6655
  559MOL0     H77106  12.677   1.929  -0.118  0.1569 -1.0745 -0.8718
  559MOL0     H77107  12.713   1.797  -0.003  0.4661 -0.8494 -0.3356
  559MOL0     H77108  12.923   1.905  -0.041 -0.7763  0.6974 -0.7731
  559MOL0     H77109  12.924   1.747  -0.124  0.9362  0.5005  1.5958
  559MOL0     H77110  12.872   1.996  -0.272  2.2168  1.1990  1.2728
  559MOL0     H77111  12.871   1.838  -0.336 -1.0885  1.4486 -1.6616
  559MOL0     H77112  13.120   1.824  -0.273  2.9107  1.4717 -0.7265
  559MOL0     H77113  13.108   1.985  -0.190  1.4878  0.2505 -0.4482
  559MOL0     H77114  13.059   1.958  -0.486 -0.7035  0.5456  0.2193
  559MOL0     H77115  13.059   2.097  -0.376 -0.9442 -0.6194  0.7445
  559MOL0     H77116  13.292   1.929  -0.435 -1.0726  0.0215 -1.6373
  559MOL0     H77117  13.304   2.090  -0.349  2.5243  0.5372 -2.3822
  559MOL0     H77118  13.227   2.025  -0.637 -3.1043 -0.3707  0.3955
  559MOL0     H77119  13.381   2.089  -0.570 -0.6275  1.9972 -0.5550
  559MOL0     H77120  13.277   2.291  -0.652 -0.4004  2.6674  1.8673
  559MOL0     H77121  13.266   2.286  -0.480 -0.8882  1.4245 -0.0931
  559MOL0     H77122  12.473   1.894  -0.052  0.2537  0.9341 -1.1140
  559MOL0     H77123  12.218   1.862  -0.081 -2.3692 -1.1030 -1.6275
  559MOL0     H77124  11.832   1.549  -0.430  0.4426 -1.4665  1.7764
  559MOL0     H77125  11.600   1.547  -0.382  3.0079 -2.8602 -1.0801
  559MOL0     H77126  10.072   2.019   0.663  0.8600  0.0040  0.0885
  559MOL0     H77127   9.850   1.958   0.720 -0.6716  0.6595 -0.3133
  559MOL0     H77128   9.432   1.703   0.543 -0.5517 -0.4513 -0.3881
  559MOL0     H77129   9.200   1.655   0.530 -0.8645  0.1341 -0.4621
  559MOL0     H77130   8.813   1.850   0.652 -1.4955 -0.3663 -2.0996
  559MOL0     H77131   8.920   1.984   0.688 -0.2489 -0.6199  0.3891
  559MOL0     H77132   8.937   2.018   0.426 -2.5145  1.5394 -2.9606
  559MOL0     H77133   8.771   2.038   0.502 -0.3241 -0.5306  1.9496
  559MOL0     H77134   8.881   1.795   0.350  0.8180  1.5151 -0.4955
  559MOL0     H77135   8.739   1.785   0.441 -1.4665 -0.0569 -1.7855
  559MOL0     H77136   8.738   2.003   0.235 -1.6993  0.7379  0.9817
  559MOL0     H77137   8.603   1.914   0.322 -0.8579  1.1948  0.1849
  559MOL0     H77138   8.703   1.664  -0.009 -1.1971 -0.8958 -0.0436
  559MOL0     H77139   9.105   2.066   0.612 -1.0518  0.5677 -0.0926
  559MOL0     H77140   9.269   2.214   0.674  0.4279  1.0881 -0.5268
  559MOL0     H77141   9.414   2.141   0.750  0.3178 -0.7211  0.1567
  559MOL0     H77142   9.425   2.196   0.586  1.2054  0.0339  1.4311
  560MOL0     O77143   7.604   4.969   9.363  0.1192  0.7032 -0.2113
  560MOL0     C77144   7.587   4.850   9.317 -0.4441 -0.1372 -0.3345
  560MOL0     O77145   7.647   4.729   9.361  0.6582  0.5829 -0.0209
  560MOL0     C77146   7.763   4.730   9.442  0.4083 -0.2333  0.4852
  560MOL0     C77147   7.882   4.794   9.401 -0.1609  0.3243 -0.4949
  560MOL0     C77148   7.994   4.786   9.483  0.4735 -0.4937  0.0455
  560MOL0     C77149   8.001   4.717   9.602 -0.2943  0.1856 -0.4145
  560MOL0     O77150   8.117   4.726   9.672  0.1566 -0.3402  0.4784
  560MOL0     C77151   8.113   4.691   9.806 -0.4867  0.9929 -0.3191
  560MOL0     C77152   8.256   4.703   9.869  0.1240  0.2103 -0.0937
  560MOL0     C77153   8.322   4.843   9.875 -0.2523 -0.3148 -0.0616
  560MOL0     C77154   8.464   4.825   9.910 -0.0603  0.5936  0.3284
  560MOL0     C77155   8.526   4.960   9.939  0.8117  0.4106  0.2522
  560MOL0     C77156   8.546   5.058   9.817 -0.3151  0.2111 -0.3539
  560MOL0     C77157   8.676   5.025   9.733 -0.8331  0.2690  0.4051
  560MOL0     C77158   8.708   5.132   9.627 -0.3911 -0.4995 -0.1580
  560MOL0     N77159   8.797   5.087   9.527 -0.0867  0.3493 -0.2369
  560MOL0     C77160   8.930   5.104   9.514 -0.2357 -0.2492 -0.9102
  560MOL0     C77161   8.972   4.993   9.450 -0.2040  0.1716  0.4277
  560MOL0     C77162   9.113   4.949   9.444  0.6231  0.5382 -0.6964
  560MOL0     C77163   9.206   5.048   9.386 -0.4079  0.0707 -0.2910
  560MOL0     C77164   9.350   4.997   9.412 -0.3587  0.3783 -0.4107
  560MOL0     C77165   9.451   5.103   9.375 -0.3049  0.5337 -1.0170
  560MOL0     O77166   9.577   5.063   9.434  0.6882 -0.1148  0.4380
  560MOL0     C77167   9.677   5.152   9.455  0.0717  1.1470  0.4285
  560MOL0     C77168   9.688   5.284   9.402 -0.0424 -0.2205  0.4920
  560MOL0     C77169   9.795   5.366   9.429 -0.6831  0.5779 -0.4723
  560MOL0     C77170   9.785   5.506   9.381 -0.2016  0.3775 -0.2631
  560MOL0     C77171   9.903   5.309   9.506  0.5361 -0.2923 -0.2711
  560MOL0     C77172  10.027   5.380   9.534 -0.0729  0.6486 -0.3109
  560MOL0     O77173  10.126   5.313   9.608 -0.5978  0.3376 -1.0805
  560MOL0     C77174  10.245   5.366   9.656 -0.2790  0.8596  0.2721
  560MOL0     C77175  10.307   5.309   9.768 -0.3490  0.7131  0.0256
  560MOL0     C77176  10.434   5.347   9.817  0.8468 -0.5076 -0.4700
  560MOL0     C77177  10.505   5.453   9.761 -0.1305  0.0089 -0.7603
  560MOL0     O77178  10.631   5.478   9.811 -0.2798 -0.0373  0.0109
  560MOL0     C77179  10.707   5.583   9.755  0.4584  0.0060 -0.1035
  560MOL0     C77180  10.783   5.523   9.624  0.1078 -0.4628  0.2665
  560MOL0     C77181  10.939   5.542   9.633  0.3065  0.0799 -0.5915
  560MOL0     C77182  10.987   5.692   9.656  0.2975  0.1897 -0.4423
  560MOL0     C77183  11.141   5.705   9.644 -0.4550  0.0941 -0.0559
  560MOL0     C77184  11.217   5.619   9.750 -0.4467  0.1963  0.4157
  560MOL0     C77185  11.366   5.670   9.759  0.3884  0.3788  0.1495
  560MOL0     C77186  11.462   5.562   9.817  0.0321  0.1330 -0.0172
  560MOL0    Cl77187  11.620   5.642   9.852 -0.1100  0.4002 -0.5097
  560MOL0     C77188  10.450   5.510   9.646 -0.0753  0.2243 -0.4962
  560MOL0     C77189  10.322   5.460   9.588  0.1535  0.1898 -0.2267
  560MOL0     O77190  10.036   5.491   9.495 -0.3345 -0.4237  1.0033
  560MOL0     C77191   9.888   5.179   9.555 -0.8095 -0.0230 -0.1727
  560MOL0     C77192   9.784   5.105   9.527  0.0583 -0.1955  0.0507
  560MOL0     N77193   8.873   4.926   9.394  0.5601 -0.6311 -0.4200
  560MOL0     N77194   8.761   4.987   9.440  0.0682 -0.0623 -0.0786
  560MOL0     C77195   7.890   4.640   9.640 -0.5622 -0.7185 -0.1155
  560MOL0     C77196   7.772   4.652   9.559 -0.3870 -0.1716  0.1824
  560MOL0     C77197   7.491   4.837   9.206  0.2056  0.2224  0.0714
  560MOL0     C77198   7.531   4.808   9.071 -0.2375  0.1304 -0.1246
  560MOL0     C77199   7.439   4.779   8.977  0.6364  0.2339 -0.0048
  560MOL0     C77200   7.305   4.800   8.995  0.2563 -0.1982  0.1390
  560MOL0     O77201   7.218   4.798   8.888  0.0514  0.4072  0.4573
  560MOL0     C77202   7.171   4.665   8.858 -0.3604 -0.1484  0.5040
  560MOL0     C77203   7.025   4.689   8.816 -0.3776  0.4797  0.6856
  560MOL0     C77204   6.944   4.739   8.938  0.0418  0.5443  0.2824
  560MOL0     C77205   6.802   4.765   8.899  1.0317  1.0651 -0.3638
  560MOL0     C77206   6.722   4.638   8.885  0.6485  0.1101  0.2202
  560MOL0     C77207   6.653   4.542   8.891  0.0655 -0.1676 -0.7259
  560MOL0     C77208   7.254   4.835   9.121 -0.1842 -0.4457 -0.0889
  560MOL0     C77209   7.350   4.856   9.230 -0.0357 -0.0803 -0.4375
  560MOL0     C77210   7.299   4.884   9.370  0.3945 -0.1270 -1.2123
  560MOL0     H77211   7.881   4.853   9.310  0.5155  1.0226 -0.0580
  560MOL0     H77212   8.074   4.852   9.450 -1.5872  2.0689 -0.0963
  560MOL0     H77213   8.083   4.587   9.823 -0.6965  1.3063  1.4864
  560MOL0     H77214   8.045   4.756   9.861  1.9298  1.0536  2.9149
  560MOL0     H77215   8.240   4.671   9.972  0.6533  1.9997  0.5823
  560MOL0     H77216   8.314   4.630   9.811 -0.5733 -0.8510  0.5098
  560MOL0     H77217   8.319   4.883   9.773  1.8415  0.7065  0.2430
  560MOL0     H77218   8.265   4.901   9.948 -0.7090  0.1921 -0.7979
  560MOL0     H77219   8.460   4.766  10.002  1.0754 -1.4707 -0.8432
  560MOL0     H77220   8.529   4.769   9.841  1.8431  1.6579  1.1695
  560MOL0     H77221   8.625   4.943   9.984  1.6166  1.5531 -1.0242
  560MOL0     H77222   8.458   5.005  10.012  0.2758 -1.2458  0.8251
  560MOL0     H77223   8.460   5.075   9.753 -0.1349  3.5574  0.0968
  560MOL0     H77224   8.566   5.155   9.863  2.6584 -0.9130  1.0459
  560MOL0     H77225   8.664   4.932   9.677  2.3116  1.0520 -1.8043
  560MOL0     H77226   8.768   5.013   9.791 -1.0572 -2.0879  0.3587
  560MOL0     H77227   8.616   5.168   9.581 -0.3882 -1.7080 -1.1391
  560MOL0     H77228   8.753   5.224   9.668 -2.8355 -0.3136  2.4769
  560MOL0     H77229   8.998   5.168   9.568 -0.6195 -0.8531  0.3075
  560MOL0     H77230   9.108   4.854   9.388  0.0546  1.5200 -2.3838
  560MOL0     H77231   9.147   4.920   9.543 -0.2511 -0.1814 -0.5874
  560MOL0     H77232   9.191   5.058   9.278 -0.1225 -0.0602 -0.3436
  560MOL0     H77233   9.193   5.149   9.426  0.7922 -0.7400  2.3564
  560MOL0     H77234   9.359   4.979   9.519 -1.8919  1.0741 -0.1378
  560MOL0     H77235   9.366   4.906   9.352  0.7530  0.0427  0.3795
  560MOL0     H77236   9.455   5.126   9.268  0.5282  1.4444 -0.8141
  560MOL0     H77237   9.416   5.195   9.423 -0.2669  0.8494 -1.5778
  560MOL0     H77238   9.605   5.312   9.339 -0.7538 -0.8712  1.1230
  560MOL0     H77239   9.872   5.527   9.318 -0.2311 -0.0677 -0.4567
  560MOL0     H77240   9.790   5.575   9.466  1.5662 -0.1140  0.0750
  560MOL0     H77241   9.698   5.517   9.316  0.9527 -2.6654 -2.5623
  560MOL0     H77242  10.275   5.215   9.812  2.4762 -0.2701  0.1749
  560MOL0     H77243  10.486   5.285   9.890  1.1055 -1.7568 -1.6792
  560MOL0     H77244  10.664   5.681   9.735 -0.4564  0.0617  1.9024
  560MOL0     H77245  10.792   5.597   9.823  0.1867 -2.9657  1.0285
  560MOL0     H77246  10.758   5.418   9.608 -1.2301 -1.2523  5.5500
  560MOL0     H77247  10.753   5.583   9.538  4.9175  1.8570 -0.1087
  560MOL0     H77248  10.978   5.498   9.541 -0.4464 -0.1535 -0.8051
  560MOL0     H77249  10.978   5.477   9.712 -2.0401 -2.2861 -1.2274
  560MOL0     H77250  10.960   5.714   9.759  0.5028  0.4269 -0.4401
  560MOL0     H77251  10.937   5.771   9.597 -2.3307 -0.0836  1.2517
  560MOL0     H77252  11.171   5.677   9.543 -0.2902 -0.8760  0.2503
  560MOL0     H77253  11.157   5.812   9.654 -0.3152  0.0576  0.1146
  560MOL0     H77254  11.210   5.512   9.727  0.2601  0.4865 -1.2603
  560MOL0     H77255  11.166   5.631   9.846  1.6073 -2.4780  2.0053
  560MOL0     H77256  11.371   5.761   9.819  2.3620  0.6601 -0.3797
  560MOL0     H77257  11.401   5.693   9.658  1.0815 -1.5732 -0.0993
  560MOL0     H77258  11.479   5.485   9.741  0.5828  1.9142 -1.7941
  560MOL0     H77259  11.420   5.523   9.910 -1.1286  1.6947  0.1566
  560MOL0     H77260  10.502   5.592   9.598  1.0530 -0.3805 -0.3271
  560MOL0     H77261  10.296   5.492   9.488 -1.4184 -0.2872  0.0040
  560MOL0     H77262   9.969   5.128   9.606 -0.2960 -0.4164 -1.3436
  560MOL0     H77263   9.778   5.007   9.575  3.6115  0.3430  1.9073
  560MOL0     H77264   7.897   4.592   9.737  4.0879  3.2626  1.8934
  560MOL0     H77265   7.678   4.601   9.578 -1.4879  1.3848 -0.9069
  560MOL0     H77266   7.638   4.792   9.063 -0.2133 -0.2966  0.9561
  560MOL0     H77267   7.468   4.744   8.878 -2.0271 -1.3746 -0.3062
  560MOL0     H77268   7.223   4.612   8.777  0.5107 -0.8870  1.5067
  560MOL0     H77269   7.174   4.601   8.947 -1.5810 -1.4250 -0.3264
  560MOL0     H77270   6.981   4.592   8.792  1.6646 -0.8466  1.9628
  560MOL0     H77271   7.029   4.757   8.731 -0.3223  1.2353  1.2735
  560MOL0     H77272   6.939   4.667   9.020 -1.3444  0.5989  0.2694
  560MOL0     H77273   6.986   4.831   8.978 -0.1592  1.0755 -0.7016
  560MOL0     H77274   6.790   4.826   8.809  0.6385  1.5175 -0.0138
  560MOL0     H77275   6.757   4.817   8.984 -0.4756 -1.6641  0.6545
  560MOL0     H77276   6.590   4.456   8.898  3.5822 -2.8519  1.8144
  560MOL0     H77277   7.149   4.853   9.137 -0.0062  1.9731 -1.0817
  560MOL0     H77278   7.191   4.903   9.366  0.5702  0.7311 -2.1675
  560MOL0     H77279   7.317   4.801   9.439  3.2271  0.9712 -0.5110
  560MOL0     H77280   7.358   4.966   9.410  0.3075 -0.3227 -0.6659
  561MOL0     O77281   8.375   3.603   2.559 -0.4350 -0.2110 -0.2735
  561MOL0     C77282   8.325   3.561   2.458  0.2575 -0.1159 -0.1192
  561MOL0     O77283   8.373   3.451   2.395  0.2889 -0.1636  0.2985
  561MOL0     C77284   8.474   3.378   2.452 -0.4006  0.1363 -0.9065
  561MOL0     C77285   8.457   3.249   2.497 -0.5667  0.3848 -0.3829
  561MOL0     C77286   8.567   3.173   2.538  1.3531 -0.0830  0.5093
  561MOL0     C77287   8.694   3.227   2.527  0.3273  0.2369  0.1107
  561MOL0     O77288   8.800   3.161   2.581  0.1544  0.7296  0.3266
  561MOL0     C77289   8.792   3.032   2.638 -0.2138 -0.1816 -0.7673
  561MOL0     C77290   8.934   2.987   2.670 -0.8519 -0.0219 -0.0628
  561MOL0     C77291   9.006   2.979   2.527  0.5053 -0.0026 -0.0960
  561MOL0     C77292   9.131   2.902   2.543 -0.0196  0.6324 -0.0425
  561MOL0     C77293   9.226   2.953   2.656 -0.3035 -0.4044 -0.2299
  561MOL0     C77294   9.354   2.875   2.663 -0.5284 -0.4768 -0.4824
  561MOL0     C77295   9.449   2.919   2.772  0.4155 -0.4782  0.1724
  561MOL0     C77296   9.565   2.821   2.806  0.3548 -0.2670  0.0478
  561MOL0     N77297   9.666   2.882   2.899 -0.2574 -0.0657  0.0541
  561MOL0     C77298   9.779   2.961   2.862  0.1119 -0.5368 -0.8034
  561MOL0     C77299   9.835   2.992   2.982 -0.0116  0.7408 -0.3007
  561MOL0     C77300   9.968   3.067   3.004 -0.0370  0.8407  0.3751
  561MOL0     C77301  10.084   2.971   2.973  0.1483  0.5306  0.1520
  561MOL0     C77302  10.213   3.048   3.016  0.5798 -1.1254  0.3468
  561MOL0     C77303  10.326   2.955   3.069 -0.1668 -0.6408  0.0463
  561MOL0     O77304  10.360   2.851   2.973 -0.1941  0.0685  0.1835
  561MOL0     C77305  10.431   2.894   2.860  0.8010  0.6671  0.9843
  561MOL0     C77306  10.449   2.805   2.755 -0.5304 -0.1408  0.0388
  561MOL0     C77307  10.526   2.829   2.638  0.3302 -0.4705  0.1442
  561MOL0     C77308  10.548   2.715   2.539  0.1903 -0.2792  0.4843
  561MOL0     C77309  10.593   2.953   2.633 -0.0856 -0.3237  0.4004
  561MOL0     C77310  10.704   2.984   2.530  0.3993 -0.3662  0.7287
  561MOL0     O77311  10.732   3.117   2.517 -0.1159 -0.1640  0.0824
  561MOL0     C77312  10.854   3.145   2.474  0.6120 -0.1430  0.6241
  561MOL0     C77313  10.869   3.175   2.336  0.1291  0.4503 -0.6320
  561MOL0     C77314  10.996   3.192   2.289 -0.5248  0.1774 -0.1621
  561MOL0     C77315  11.114   3.203   2.368  0.8777  0.6279  0.1217
  561MOL0     O77316  11.232   3.236   2.304 -0.6211  0.6035 -0.2554
  561MOL0     C77317  11.344   3.275   2.385  0.2189  0.1375 -0.3344
  561MOL0     C77318  11.450   3.334   2.285  0.3491  0.1094  0.9272
  561MOL0     C77319  11.566   3.380   2.378  0.5070  0.6745 -0.9171
  561MOL0     C77320  11.685   3.425   2.279  0.2872 -0.6365 -0.2774
  561MOL0     C77321  11.795   3.509   2.349 -0.5507 -0.5132 -0.0878
  561MOL0     C77322  11.883   3.571   2.239  1.0652  0.0161 -0.7287
  561MOL0     C77323  12.013   3.628   2.290 -0.2841 -1.2513 -1.0383
  561MOL0     C77324  11.999   3.716   2.417 -0.3890 -0.0778  0.3826
  561MOL0    Cl77325  12.153   3.794   2.455  0.1674 -0.1907  0.5946
  561MOL0     C77326  11.092   3.172   2.507  0.3198  0.0984  0.6908
  561MOL0     C77327  10.966   3.146   2.562  0.2468  0.2917 -0.1180
  561MOL0     O77328  10.754   2.896   2.465  0.2875  0.6712 -0.2684
  561MOL0     C77329  10.564   3.053   2.728  0.5176 -0.5065 -0.2601
  561MOL0     C77330  10.489   3.022   2.840  0.4313  0.1826 -0.0732
  561MOL0     N77331   9.755   2.948   3.085 -0.3606  0.0641 -0.3797
  561MOL0     N77332   9.653   2.885   3.034  0.7549 -0.1419  0.7263
  561MOL0     C77333   8.720   3.356   2.480 -0.8988  0.3556  0.0325
  561MOL0     C77334   8.607   3.433   2.448  0.2658 -0.8883 -0.0396
  561MOL0     C77335   8.241   3.660   2.381 -0.3030 -0.7980 -1.1423
  561MOL0     C77336   8.237   3.793   2.431  0.1819 -0.3424  0.2384
  561MOL0     C77337   8.165   3.887   2.365  0.2084  0.2798  0.4515
  561MOL0     C77338   8.094   3.859   2.252 -0.8793  0.3005 -0.3834
  561MOL0     O77339   8.014   3.946   2.181  0.6545 -1.0298 -0.8988
  561MOL0     C77340   7.984   4.067   2.246  0.5580  0.8334 -0.1647
  561MOL0     C77341   7.873   4.119   2.162  0.4638  0.1716 -0.4615
  561MOL0     C77342   7.741   4.032   2.159  0.3018  0.0672 -0.6673
  561MOL0     C77343   7.653   4.049   2.030 -0.4631 -0.1935  0.6906
  561MOL0     C77344   7.596   4.190   2.005 -0.5397  0.2523  0.0522
  561MOL0     C77345   7.545   4.299   2.010  0.1138  0.3225 -0.7431
  561MOL0     C77346   8.099   3.729   2.202  0.0501 -0.2052 -0.3798
  561MOL0     C77347   8.158   3.625   2.273 -0.1193  0.1859 -0.0005
  561MOL0     C77348   8.143   3.481   2.219  0.4521  0.3817 -0.4661
  561MOL0     H77349   8.354   3.215   2.495 -1.5433  2.7850  2.4169
  561MOL0     H77350   8.542   3.080   2.588 -2.4895  0.4823 -0.0255
  561MOL0     H77351   8.748   2.958   2.571 -2.0318  1.7769 -1.8302
  561MOL0     H77352   8.735   3.033   2.731  0.7860  0.6905 -0.1455
  561MOL0     H77353   8.992   3.063   2.724  0.3623  0.7304 -2.2842
  561MOL0     H77354   8.939   2.891   2.721  0.2413 -0.0519 -0.1952
  561MOL0     H77355   8.940   2.937   2.450  2.1880  1.9493 -2.7612
  561MOL0     H77356   9.042   3.077   2.495  0.8714 -0.3505 -0.7854
  561MOL0     H77357   9.114   2.799   2.575  2.1492  0.7008  1.5048
  561MOL0     H77358   9.181   2.894   2.446  0.5854 -1.4717  0.3858
  561MOL0     H77359   9.177   2.954   2.754  3.0138  0.2149  1.5860
  561MOL0     H77360   9.254   3.057   2.634  1.6744 -0.4050  1.8903
  561MOL0     H77361   9.330   2.773   2.694  0.8830 -0.9887 -1.0225
  561MOL0     H77362   9.411   2.879   2.570  1.6387 -2.1132  0.6901
  561MOL0     H77363   9.391   2.939   2.863  1.3518  0.1631  0.6470
  561MOL0     H77364   9.494   3.012   2.736  1.7389 -1.8544 -1.8972
  561MOL0     H77365   9.511   2.739   2.854  2.1784 -2.0641 -0.8329
  561MOL0     H77366   9.609   2.785   2.713 -1.3405 -1.0956 -0.4721
  561MOL0     H77367   9.813   2.969   2.759 -1.2691 -0.9220 -1.3039
  561MOL0     H77368   9.978   3.095   3.109  2.6368 -1.1552  0.7426
  561MOL0     H77369   9.962   3.156   2.940 -0.2989 -0.0539 -0.8791
  561MOL0     H77370  10.082   2.894   3.051  2.3097  0.3287  0.0627
  561MOL0     H77371  10.082   2.929   2.872 -0.0620 -1.4712  0.9389
  561MOL0     H77372  10.261   3.103   2.934  0.6049  1.2970  1.8796
  561MOL0     H77373  10.184   3.129   3.084 -2.1870 -1.2799 -0.5246
  561MOL0     H77374  10.407   3.023   3.096 -0.9269 -0.0376  0.8724
  561MOL0     H77375  10.292   2.902   3.158  0.8428 -0.2646  0.6728
  561MOL0     H77376  10.408   2.706   2.771  1.0589 -0.7010  0.9077
  561MOL0     H77377  10.652   2.681   2.547 -0.2056 -2.0632 -1.1054
  561MOL0     H77378  10.528   2.757   2.440  1.5984 -0.0556  0.2729
  561MOL0     H77379  10.479   2.632   2.553 -0.9448  0.8674  1.9213
  561MOL0     H77380  10.786   3.180   2.266 -0.4613 -0.3949 -0.0135
  561MOL0     H77381  11.020   3.215   2.186 -0.4260 -0.9874 -0.4013
  561MOL0     H77382  11.308   3.350   2.456  0.9792  0.1168  0.0823
  561MOL0     H77383  11.392   3.189   2.431 -1.3873  0.1757  1.5738
  561MOL0     H77384  11.476   3.258   2.210  1.6413  1.0625  0.3715
  561MOL0     H77385  11.408   3.420   2.232  1.3266  0.2717  0.3888
  561MOL0     H77386  11.599   3.295   2.438 -0.2910  2.1420  1.7436
  561MOL0     H77387  11.536   3.455   2.451  0.6174 -0.8775  0.7946
  561MOL0     H77388  11.646   3.497   2.206  0.6904  1.2980  1.3182
  561MOL0     H77389  11.733   3.346   2.222  1.0823  0.3275 -0.9818
  561MOL0     H77390  11.751   3.592   2.404  1.0100 -0.4981  1.2278
  561MOL0     H77391  11.846   3.454   2.428  0.1900  1.4392  0.8445
  561MOL0     H77392  11.832   3.646   2.179 -0.3502 -0.2739  0.0623
  561MOL0     H77393  11.902   3.490   2.168 -0.1585  1.1297 -2.3931
  561MOL0     H77394  12.060   3.689   2.213  0.5026 -0.2184  0.2149
  561MOL0     H77395  12.081   3.548   2.320  0.8542  0.4482  1.2333
  561MOL0     H77396  11.973   3.659   2.506  0.1788 -0.8818  0.0520
  561MOL0     H77397  11.914   3.782   2.395 -1.5615 -2.1311 -1.8480
  561MOL0     H77398  11.173   3.191   2.577  0.6632  0.1899  0.2737
  561MOL0     H77399  10.948   3.133   2.669 -0.2991  3.5546  0.3007
  561MOL0     H77400  10.615   3.148   2.739  0.4102 -0.4745 -0.0419
  561MOL0     H77401  10.478   3.099   2.915  0.7655 -1.9239  2.2730
  561MOL0     H77402   8.813   3.411   2.478 -1.1024  0.8219 -3.7654
  561MOL0     H77403   8.619   3.537   2.418  0.3239 -1.0479 -0.5728
  561MOL0     H77404   8.290   3.834   2.517 -2.0752  2.9947  0.2220
  561MOL0     H77405   8.171   3.982   2.417 -1.5434  0.2029  0.8762
  561MOL0     H77406   7.959   4.047   2.351 -0.0939 -3.8816 -0.9773
  561MOL0     H77407   8.070   4.134   2.247  1.6976 -0.5877 -0.3684
  561MOL0     H77408   7.907   4.120   2.058  1.7288 -1.8713 -0.1362
  561MOL0     H77409   7.855   4.223   2.191 -2.7522 -0.5787  0.5883
  561MOL0     H77410   7.759   3.927   2.183 -0.1554 -0.3036 -1.8648
  561MOL0     H77411   7.677   4.065   2.241 -1.6449 -0.3595 -1.9626
  561MOL0     H77412   7.567   3.982   2.032 -0.0205 -1.0116 -2.1239
  561MOL0     H77413   7.711   4.024   1.940 -4.0767  1.1847 -2.3274
  561MOL0     H77414   7.492   4.391   2.019 -0.4797 -0.1671  1.2463
  561MOL0     H77415   8.036   3.710   2.117 -2.4099  2.3857  0.7001
  561MOL0     H77416   8.062   3.479   2.145  1.6811  0.4434 -1.8759
  561MOL0     H77417   8.228   3.439   2.163  2.2767 -0.3026  2.5996
  561MOL0     H77418   8.119   3.410   2.298 -2.2697 -0.1159 -1.6040
  562MOL0     O77419   5.894   9.012   4.381  0.4075  0.1551  0.1432
  562MOL0     C77420   5.823   9.037   4.484  0.2517 -0.1309 -0.5104
  562MOL0     O77421   5.880   9.079   4.602  0.8810  0.3402  0.0153
  562MOL0     C77422   6.012   9.050   4.640 -0.1507  0.2270  0.5850
  562MOL0     C77423   6.086   8.952   4.587 -0.6427  0.3228  0.4980
  562MOL0     C77424   6.217   8.924   4.631  0.4911 -0.6966 -0.1994
  562MOL0     C77425   6.271   8.996   4.739 -0.2119  0.2142  0.3599
  562MOL0     O77426   6.395   8.954   4.771 -0.0536 -0.5478  0.0407
  562MOL0     C77427   6.482   9.025   4.682 -0.6025 -0.6119  0.1624
  562MOL0     C77428   6.614   9.044   4.750 -0.2283  0.0897  0.5064
  562MOL0     C77429   6.718   9.106   4.658 -0.0660  0.6900 -0.2031
  562MOL0     C77430   6.843   9.139   4.725 -0.4783  0.6268  0.6052
  562MOL0     C77431   6.960   9.154   4.626 -0.5663  0.7182  0.2803
  562MOL0     C77432   7.085   9.203   4.706 -0.8658 -0.0914  0.3846
  562MOL0     C77433   7.199   9.221   4.607 -0.5741 -1.0776  0.0495
  562MOL0     C77434   7.344   9.230   4.650  0.4526  0.6979 -0.0755
  562MOL0     N77435   7.437   9.280   4.552 -0.0913 -0.3237 -0.7067
  562MOL0     C77436   7.553   9.351   4.580 -0.1938 -0.3089  0.1574
  562MOL0     C77437   7.597   9.381   4.461  0.3219 -0.2367 -0.3501
  562MOL0     C77438   7.715   9.464   4.433 -1.1567 -0.0061  0.4103
  562MOL0     C77439   7.836   9.380   4.388 -0.2117  1.0076 -0.3627
  562MOL0     C77440   7.870   9.289   4.511  0.3580 -0.2779  0.4365
  562MOL0     C77441   7.969   9.181   4.478  0.0832 -0.0959  0.2059
  562MOL0     O77442   8.017   9.109   4.593 -0.6013 -0.6382 -0.8658
  562MOL0     C77443   8.125   9.029   4.576  0.5221  0.0697  0.9088
  562MOL0     C77444   8.194   8.990   4.685  0.3101  0.4817 -0.5146
  562MOL0     C77445   8.304   8.905   4.678  1.1580  0.2089  0.1134
  562MOL0     C77446   8.370   8.871   4.813  0.5541  0.6782  0.2204
  562MOL0     C77447   8.344   8.851   4.551 -0.3405 -0.3630  0.2132
  562MOL0     C77448   8.466   8.771   4.534  0.4988 -0.1890  0.6795
  562MOL0     O77449   8.535   8.802   4.419  0.6129  0.3878 -0.1611
  562MOL0     C77450   8.661   8.760   4.402 -0.2798  0.3918  0.3999
  562MOL0     C77451   8.698   8.731   4.273 -1.0876 -0.8416 -0.2632
  562MOL0     C77452   8.833   8.686   4.246 -0.6644 -0.4029 -0.4824
  562MOL0     C77453   8.926   8.678   4.352 -0.2297  0.2674 -0.8164
  562MOL0     O77454   9.057   8.648   4.338  0.0901  0.3426 -0.1195
  562MOL0     C77455   9.083   8.540   4.243 -0.2299 -0.4436 -0.6007
  562MOL0     C77456   9.236   8.520   4.233 -0.5713  0.8896 -0.0972
  562MOL0     C77457   9.274   8.397   4.315 -0.2960 -0.0025 -0.1671
  562MOL0     C77458   9.430   8.377   4.334 -0.2051 -0.2103  0.0081
  562MOL0     C77459   9.452   8.247   4.415 -0.2997  0.3772  0.6854
  562MOL0     C77460   9.601   8.228   4.444  0.5868 -0.1702 -1.0092
  562MOL0     C77461   9.647   8.091   4.501  1.1601 -0.2723 -0.0837
  562MOL0     C77462   9.789   8.063   4.524  0.0717 -0.9238 -0.3439
  562MOL0    Cl77463   9.864   8.202   4.611 -0.2249 -0.0138 -0.2362
  562MOL0     C77464   8.888   8.706   4.486 -0.3494  0.6645  0.6128
  562MOL0     C77465   8.757   8.747   4.505  0.2869 -0.1615  0.0958
  562MOL0     O77466   8.498   8.695   4.627 -0.0775 -0.5912 -0.0467
  562MOL0     C77467   8.275   8.895   4.441 -0.0981 -0.8857  1.0417
  562MOL0     C77468   8.166   8.979   4.448  0.3373 -0.5689  1.2994
  562MOL0     N77469   7.514   9.323   4.359 -0.3551 -0.4729  0.0813
  562MOL0     N77470   7.415   9.263   4.420  0.6039 -0.6511 -0.9114
  562MOL0     C77471   6.192   9.091   4.798 -0.0761 -0.4597  0.4567
  562MOL0     C77472   6.062   9.120   4.753  0.4875 -0.1169  0.6118
  562MOL0     C77473   5.679   9.008   4.458  0.0687 -0.3541  0.0212
  562MOL0     C77474   5.645   8.927   4.345 -0.0330  0.3271  0.3004
  562MOL0     C77475   5.508   8.889   4.321  0.9218 -0.1170 -0.0273
  562MOL0     C77476   5.399   8.920   4.413 -0.1350 -0.8032  0.1567
  562MOL0     O77477   5.268   8.883   4.399  0.0435  0.2182 -0.0279
  562MOL0     C77478   5.237   8.747   4.354  0.0035 -0.0791  0.0539
  562MOL0     C77479   5.090   8.705   4.351  0.2750  0.3187 -0.2046
  562MOL0     C77480   5.023   8.741   4.477 -0.0044 -0.0987  0.1702
  562MOL0     C77481   4.865   8.737   4.464 -0.8664 -0.0107  0.3546
  562MOL0     C77482   4.806   8.609   4.421 -1.4725 -0.2860 -1.5105
  562MOL0     C77483   4.755   8.508   4.384  0.2003  0.1108 -0.3590
  562MOL0     C77484   5.436   9.014   4.516 -0.1144  0.0616  0.5935
  562MOL0     C77485   5.574   9.053   4.536 -1.1747 -0.4226  0.1636
  562MOL0     C77486   5.603   9.163   4.630 -0.2397  0.2900  0.7797
  562MOL0     H77487   6.055   8.890   4.503  2.9294  1.6648 -2.0736
  562MOL0     H77488   6.278   8.848   4.582  1.5332  0.5579 -0.9272
  562MOL0     H77489   6.442   9.119   4.643 -1.3210 -1.3815 -1.0163
  562MOL0     H77490   6.498   8.961   4.596  3.4353  1.2893 -0.7278
  562MOL0     H77491   6.603   9.121   4.826  3.2562  1.6597 -0.3619
  562MOL0     H77492   6.665   8.954   4.786  0.1341  0.0386 -0.1017
  562MOL0     H77493   6.736   9.034   4.578  0.0380 -0.6389  0.9686
  562MOL0     H77494   6.674   9.202   4.630  0.6375  0.6457 -1.5669
  562MOL0     H77495   6.839   9.232   4.782  1.9210 -0.8668  3.5385
  562MOL0     H77496   6.870   9.059   4.795  0.0552 -0.1036 -0.4119
  562MOL0     H77497   6.929   9.228   4.552 -1.6470  0.8250  0.8222
  562MOL0     H77498   6.982   9.063   4.570  1.2097  0.7961  0.7825
  562MOL0     H77499   7.057   9.297   4.755 -1.5789 -0.0919  0.0039
  562MOL0     H77500   7.114   9.131   4.782 -0.2925  0.9218  1.1473
  562MOL0     H77501   7.188   9.310   4.544  1.6643  0.3586  1.5658
  562MOL0     H77502   7.195   9.132   4.543  0.6171 -2.8008  2.2425
  562MOL0     H77503   7.349   9.293   4.739 -0.7363 -1.0039  1.2674
  562MOL0     H77504   7.376   9.131   4.683  1.1234  0.7057 -0.6998
  562MOL0     H77505   7.605   9.373   4.673 -0.3430  0.3598  0.0877
  562MOL0     H77506   7.739   9.522   4.523  0.0031  1.3291 -0.6941
  562MOL0     H77507   7.695   9.536   4.352  1.5360  1.1718  0.6783
  562MOL0     H77508   7.820   9.327   4.293  0.5759  0.7055 -0.3337
  562MOL0     H77509   7.919   9.448   4.364  0.5329  1.8123  3.7966
  562MOL0     H77510   7.913   9.349   4.591  2.5209  1.2911 -1.7429
  562MOL0     H77511   7.778   9.234   4.534 -0.0029 -0.1453 -0.6327
  562MOL0     H77512   7.918   9.114   4.409 -0.5139  0.6154 -0.0595
  562MOL0     H77513   8.052   9.223   4.421 -1.0403 -0.0732 -1.4729
  562MOL0     H77514   8.169   9.018   4.787 -0.9349 -1.1948 -0.3071
  562MOL0     H77515   8.345   8.766   4.830 -2.0027  1.3122  0.9301
  562MOL0     H77516   8.339   8.930   4.900  0.1298 -1.1995  1.3780
  562MOL0     H77517   8.475   8.898   4.803  0.6394  0.4803  0.6090
  562MOL0     H77518   8.625   8.738   4.194  0.7749 -1.4702 -2.1295
  562MOL0     H77519   8.877   8.667   4.149  1.1630  0.2324  0.1793
  562MOL0     H77520   9.046   8.441   4.269  3.1273 -1.4881  0.8111
  562MOL0     H77521   9.056   8.578   4.144 -0.9268  0.8587  0.0578
  562MOL0     H77522   9.253   8.500   4.127 -2.1447 -0.2876 -0.1762
  562MOL0     H77523   9.291   8.608   4.267  0.9999 -0.2760  0.4624
  562MOL0     H77524   9.222   8.311   4.272  0.6942  0.1036 -1.6787
  562MOL0     H77525   9.229   8.398   4.414 -2.3987 -1.1300 -1.0470
  562MOL0     H77526   9.472   8.463   4.388  3.8539 -1.7361 -0.3652
  562MOL0     H77527   9.487   8.377   4.241  1.5119  2.5677  0.9313
  562MOL0     H77528   9.390   8.233   4.504  1.4915 -0.7997  1.8224
  562MOL0     H77529   9.419   8.166   4.350  1.3048  1.0843 -1.0872
  562MOL0     H77530   9.630   8.307   4.513  1.0579 -0.1501 -1.2257
  562MOL0     H77531   9.657   8.248   4.352 -0.0329  0.5316 -1.2426
  562MOL0     H77532   9.605   8.021   4.428 -1.6266 -0.3208  1.4154
  562MOL0     H77533   9.592   8.076   4.594  1.3198 -0.4827 -0.0235
  562MOL0     H77534   9.840   8.051   4.429 -0.7217  0.5791 -0.9942
  562MOL0     H77535   9.791   7.970   4.582  2.9253 -1.3948 -1.0895
  562MOL0     H77536   8.959   8.689   4.567  0.1830  2.7791  0.6429
  562MOL0     H77537   8.734   8.765   4.610 -0.9337  0.7337 -0.2920
  562MOL0     H77538   8.285   8.872   4.336 -1.3077  2.2243  0.1404
  562MOL0     H77539   8.122   9.010   4.354  2.9693 -0.5603 -0.0267
  562MOL0     H77540   6.240   9.144   4.880 -2.2376 -1.1872  2.2807
  562MOL0     H77541   5.991   9.186   4.801  1.1335 -0.8710  2.6920
  562MOL0     H77542   5.713   8.890   4.269 -3.4010 -0.3645 -2.6205
  562MOL0     H77543   5.484   8.816   4.244 -0.2732 -0.4583  0.6425
  562MOL0     H77544   5.274   8.737   4.252  1.0187 -0.4725  0.4429
  562MOL0     H77545   5.288   8.672   4.416  0.7175  0.4282  0.0931
  562MOL0     H77546   5.074   8.597   4.340  2.5802 -0.0708 -0.2420
  562MOL0     H77547   5.045   8.750   4.262 -2.1308  2.1859  1.8216
  562MOL0     H77548   5.056   8.671   4.555  1.0529  1.7401  1.4388
  562MOL0     H77549   5.056   8.842   4.504  1.3321  0.4275 -2.9667
  562MOL0     H77550   4.830   8.811   4.391  2.4085  1.4752  0.0936
  562MOL0     H77551   4.832   8.769   4.563  0.5569  0.5623  0.6765
  562MOL0     H77552   4.686   8.430   4.358 -1.1068  0.8752  0.7113
  562MOL0     H77553   5.357   9.055   4.578  0.9980  2.7015  0.3984
  562MOL0     H77554   5.658   9.120   4.714  5.4151  1.6597 -1.7274
  562MOL0     H77555   5.665   9.240   4.583 -0.5937 -0.7108 -1.4013
  562MOL0     H77556   5.517   9.222   4.663  0.0390  0.7592  0.6846
  563MOL0     O77557   8.743   9.340   2.009 -0.6322 -0.3437  0.7081
  563MOL0     C77558   8.774   9.261   2.097 -0.0095  0.0746 -0.0435
  563MOL0     O77559   8.830   9.294   2.210 -0.6177  0.5646  0.4703
  563MOL0     C77560   8.899   9.414   2.241  0.2455 -0.5487  0.8243
  563MOL0     C77561   8.868   9.540   2.183 -0.1695  0.2369 -0.4379
  563MOL0     C77562   8.932   9.656   2.240  0.2192  0.6134  0.3928
  563MOL0     C77563   9.025   9.648   2.342 -0.4502  0.4280 -0.1401
  563MOL0     O77564   9.077   9.760   2.394 -0.8006  0.2787 -0.8537
  563MOL0     C77565   9.152   9.741   2.513 -0.3287  0.3815 -0.4722
  563MOL0     C77566   9.202   9.881   2.549  0.8588  1.3901  0.3333
  563MOL0     C77567   9.313   9.930   2.466 -0.1050 -0.3678 -0.0645
  563MOL0     C77568   9.361  10.062   2.531  0.3566  0.5810  0.1855
  563MOL0     C77569   9.482  10.118   2.461  0.4625 -0.2027 -0.5626
  563MOL0     C77570   9.589  10.012   2.447 -1.2711  0.5197 -0.3128
  563MOL0     C77571   9.722  10.084   2.414 -0.6011 -0.2638 -0.4834
  563MOL0     C77572   9.777  10.024   2.282  0.0054  0.6252 -0.3235
  563MOL0     N77573   9.841   9.896   2.292  0.4191  0.0265 -0.6686
  563MOL0     C77574   9.781   9.775   2.296  0.0593  0.3324  1.0036
  563MOL0     C77575   9.875   9.686   2.268  0.1229 -0.5031  0.3989
  563MOL0     C77576   9.866   9.537   2.277 -0.3956  0.9528  0.1823
  563MOL0     C77577   9.996   9.460   2.318  0.3078  0.4009 -0.2367
  563MOL0     C77578   9.986   9.300   2.296 -0.7026  0.1826 -0.7597
  563MOL0     C77579  10.096   9.204   2.348  0.3802  0.1082 -0.1550
  563MOL0     O77580  10.201   9.229   2.252 -0.3631  0.1841 -0.6215
  563MOL0     C77581  10.324   9.168   2.263  0.1629  0.0431  0.9562
  563MOL0     C77582  10.416   9.197   2.168 -0.5342  0.7014 -0.0510
  563MOL0     C77583  10.547   9.148   2.180 -1.1966 -0.3950  0.5596
  563MOL0     C77584  10.647   9.191   2.075 -0.0334 -0.4935 -0.0884
  563MOL0     C77585  10.590   9.057   2.279  1.0207  0.1510 -0.1321
  563MOL0     C77586  10.705   8.978   2.282  0.1131 -0.6419 -0.4300
  563MOL0     O77587  10.722   8.897   2.390  0.0257 -0.4019 -0.0183
  563MOL0     C77588  10.843   8.828   2.392 -0.8823  0.1827  0.7714
  563MOL0     C77589  10.833   8.692   2.412 -0.3057 -0.4024  0.5578
  563MOL0     C77590  10.943   8.608   2.437 -0.5521  0.0320 -0.0124
  563MOL0     C77591  11.074   8.664   2.431  0.0119 -0.1360 -0.0933
  563MOL0     O77592  11.200   8.610   2.439  0.3802  0.5640 -0.3893
  563MOL0     C77593  11.211   8.471   2.419 -0.4602  0.1105 -0.2769
  563MOL0     C77594  11.358   8.431   2.430  0.2690  0.5245  0.3769
  563MOL0     C77595  11.403   8.437   2.576 -0.8664 -0.0146 -1.2932
  563MOL0     C77596  11.559   8.442   2.587  0.2211  0.0871  0.8760
  563MOL0     C77597  11.606   8.460   2.725 -0.0086 -0.0140  0.1822
  563MOL0     C77598  11.747   8.412   2.745 -0.1926  0.8569 -0.2841
  563MOL0     C77599  11.805   8.433   2.880  0.6380  0.2016 -1.0500
  563MOL0     C77600  11.931   8.351   2.907 -0.4620 -0.7595  0.5097
  563MOL0    Cl77601  12.065   8.408   2.826  0.0559  0.4319  0.1348
  563MOL0     C77602  11.080   8.803   2.415 -0.9634 -0.0653  0.5194
  563MOL0     C77603  10.973   8.880   2.391  0.4862 -0.5515  0.2483
  563MOL0     O77604  10.779   8.987   2.186 -0.6451 -0.4062  0.0595
  563MOL0     C77605  10.491   9.035   2.388 -0.1511  0.1879  0.2909
  563MOL0     C77606  10.364   9.089   2.375  0.7378 -0.0573 -0.5436
  563MOL0     N77607   9.997   9.753   2.269  0.3782 -0.4551 -0.2379
  563MOL0     N77608   9.978   9.880   2.275  0.8726  0.0837  0.3152
  563MOL0     C77609   9.065   9.515   2.379  0.4113  0.7480  0.0152
  563MOL0     C77610   8.998   9.402   2.336 -0.2542 -0.5751 -0.9847
  563MOL0     C77611   8.742   9.110   2.078 -0.4746  0.0153 -0.1176
  563MOL0     C77612   8.722   9.067   1.946  0.0051 -0.7504  0.1698
  563MOL0     C77613   8.704   8.935   1.911 -0.2764 -0.7657 -0.4020
  563MOL0     C77614   8.713   8.830   2.005  0.6029  0.0873  0.8432
  563MOL0     O77615   8.682   8.708   1.948  0.4281  0.1552 -0.4367
  563MOL0     C77616   8.675   8.591   2.033  0.1131  0.5924 -0.3774
  563MOL0     C77617   8.814   8.560   2.086  1.0839 -0.8411  0.6984
  563MOL0     C77618   8.828   8.434   2.177  0.5330 -0.3208  0.8683
  563MOL0     C77619   8.818   8.311   2.101 -0.1318 -0.3860  0.2417
  563MOL0     C77620   8.879   8.201   2.173  0.2390  0.4849  0.1389
  563MOL0     C77621   8.929   8.108   2.227 -0.2997  0.1299  0.2497
  563MOL0     C77622   8.713   8.871   2.132  0.2478  0.2473 -0.2937
  563MOL0     C77623   8.730   9.006   2.176 -0.3191 -1.0912  0.1702
  563MOL0     C77624   8.726   9.039   2.323 -0.1878 -0.1938  0.1816
  563MOL0     H77625   8.797   9.551   2.101  0.5489  0.9066 -0.9838
  563MOL0     H77626   8.899   9.753   2.204  1.4210  0.5830 -0.8702
  563MOL0     H77627   9.244   9.683   2.501  1.8661  3.1552  1.5606
  563MOL0     H77628   9.097   9.703   2.600  2.1926 -3.3431 -0.2905
  563MOL0     H77629   9.120   9.948   2.523 -1.3733 -1.7209 -1.3556
  563MOL0     H77630   9.223   9.870   2.656  1.2102  0.6673  0.1935
  563MOL0     H77631   9.388   9.850   2.458 -1.1435 -1.3867  0.0923
  563MOL0     H77632   9.272   9.944   2.366 -2.8886 -2.1565  0.6856
  563MOL0     H77633   9.286  10.141   2.539 -0.6325 -0.1390 -1.4876
  563MOL0     H77634   9.381  10.036   2.635 -0.0172  2.4398  0.7595
  563MOL0     H77635   9.518  10.204   2.519 -1.7596  0.2033  0.2874
  563MOL0     H77636   9.460  10.158   2.361  2.4058 -2.4216 -1.9973
  563MOL0     H77637   9.597   9.941   2.531 -1.3392  0.3471 -0.4513
  563MOL0     H77638   9.572   9.945   2.362 -0.0355 -1.6359  1.0382
  563MOL0     H77639   9.794  10.059   2.492 -1.5099 -1.0755  0.1205
  563MOL0     H77640   9.716  10.192   2.397  1.0236 -0.0057  0.4307
  563MOL0     H77641   9.705  10.022   2.200  1.5370  1.0470 -1.7373
  563MOL0     H77642   9.862  10.085   2.251  1.4947 -0.4248  1.5027
  563MOL0     H77643   9.675   9.751   2.303  0.2318 -1.2461 -0.8640
  563MOL0     H77644   9.829   9.501   2.181  3.2398  1.0307 -1.4078
  563MOL0     H77645   9.789   9.498   2.344 -0.6456  0.1248 -0.5684
  563MOL0     H77646  10.073   9.503   2.254  0.2847 -1.2180 -1.4026
  563MOL0     H77647  10.012   9.482   2.424  1.4974 -1.9594  0.1342
  563MOL0     H77648   9.887   9.264   2.326 -0.4436 -0.9563 -1.2065
  563MOL0     H77649   9.985   9.293   2.187  1.5786  2.7221 -1.0316
  563MOL0     H77650  10.125   9.219   2.452  1.1371  0.4161 -0.4013
  563MOL0     H77651  10.056   9.102   2.348 -0.3249  0.3461  1.7380
  563MOL0     H77652  10.384   9.249   2.079  1.7757  0.1344 -1.2717
  563MOL0     H77653  10.601   9.267   2.011 -2.3318 -1.1242  0.7062
  563MOL0     H77654  10.673   9.109   2.007 -0.7937  0.5522 -1.6951
  563MOL0     H77655  10.743   9.221   2.118 -0.1833 -2.4953  1.8315
  563MOL0     H77656  10.735   8.647   2.423 -0.7096 -0.0890 -1.3997
  563MOL0     H77657  10.936   8.506   2.473 -1.6794  0.8841  2.3507
  563MOL0     H77658  11.158   8.404   2.488  1.8549  0.5556  2.0813
  563MOL0     H77659  11.182   8.464   2.314  2.3555  0.0805 -1.1313
  563MOL0     H77660  11.364   8.330   2.389  4.5124  1.1244 -1.0415
  563MOL0     H77661  11.417   8.504   2.373 -0.6624  1.6228  0.7835
  563MOL0     H77662  11.367   8.344   2.621  1.4665  0.0356  0.8702
  563MOL0     H77663  11.360   8.522   2.630  2.7262  1.1952 -0.0417
  563MOL0     H77664  11.589   8.536   2.541 -0.3729  0.2238  0.7608
  563MOL0     H77665  11.606   8.355   2.541 -0.6145  0.7819 -1.3978
  563MOL0     H77666  11.584   8.564   2.749 -0.1668 -0.1038  0.4321
  563MOL0     H77667  11.545   8.397   2.790  1.2382  0.0816  1.4911
  563MOL0     H77668  11.811   8.469   2.678 -0.9415  3.9404  1.4015
  563MOL0     H77669  11.748   8.309   2.709 -1.5088  1.2399 -1.5286
  563MOL0     H77670  11.734   8.408   2.959  1.0724  2.0560 -0.0266
  563MOL0     H77671  11.838   8.536   2.897 -0.5220  0.0823  3.0359
  563MOL0     H77672  11.919   8.247   2.873  1.5594 -2.0087  3.2257
  563MOL0     H77673  11.961   8.346   3.012 -0.0733  0.4903  0.4736
  563MOL0     H77674  11.182   8.841   2.416  0.3327 -3.1805 -0.7661
  563MOL0     H77675  10.998   8.985   2.386 -1.8585  0.0679  0.7276
  563MOL0     H77676  10.504   8.966   2.471 -0.9087  0.9408  1.0588
  563MOL0     H77677  10.293   9.065   2.454  3.0355 -0.2602  1.5527
  563MOL0     H77678   9.135   9.492   2.460 -0.1674 -0.9806  0.0538
  563MOL0     H77679   9.021   9.302   2.373  0.9745 -0.3934 -1.2414
  563MOL0     H77680   8.732   9.142   1.868  2.1522 -1.4395 -0.2786
  563MOL0     H77681   8.700   8.912   1.805  0.2353  1.8953 -1.0692
  563MOL0     H77682   8.609   8.598   2.120  0.5112  1.0756 -0.1108
  563MOL0     H77683   8.643   8.507   1.971  0.3549 -1.6157  2.2807
  563MOL0     H77684   8.846   8.650   2.139 -0.3303 -0.7674  1.4652
  563MOL0     H77685   8.879   8.542   2.000 -0.8075  1.3174 -1.3243
  563MOL0     H77686   8.928   8.447   2.220  1.6287  2.4903 -2.0965
  563MOL0     H77687   8.747   8.439   2.251 -1.9770  1.9562 -1.7965
  563MOL0     H77688   8.878   8.324   2.010 -0.4347  4.4898  0.5040
  563MOL0     H77689   8.722   8.290   2.052  1.3541 -1.6036 -2.4264
  563MOL0     H77690   8.985   8.028   2.270 -0.4322 -0.6395 -0.9544
  563MOL0     H77691   8.691   8.805   2.216 -1.4174  0.5603 -0.4485
  563MOL0     H77692   8.676   8.954   2.372 -0.2917  1.3597  2.9373
  563MOL0     H77693   8.825   9.033   2.368 -0.8217 -1.1056  1.5245
  563MOL0     H77694   8.684   9.136   2.352  0.5279  0.4800 -0.9583
  564MOL0     O77695  10.862   2.142   3.464  0.1977  0.4468 -0.6130
  564MOL0     C77696  10.976   2.107   3.442 -0.3288 -0.4053 -0.0902
  564MOL0     O77697  11.029   1.996   3.497 -0.2810 -0.2926  0.0482
  564MOL0     C77698  10.958   1.927   3.586 -0.1321 -0.1016 -0.8258
  564MOL0     C77699  10.976   1.788   3.577 -0.2340 -0.2445 -0.2948
  564MOL0     C77700  10.928   1.705   3.675 -0.2843  0.0059 -0.2263
  564MOL0     C77701  10.848   1.753   3.779  0.1764  0.4622 -0.1751
  564MOL0     O77702  10.805   1.660   3.874  0.8341  0.6227 -0.4633
  564MOL0     C77703  10.730   1.706   3.991 -0.1161 -0.2389 -0.0041
  564MOL0     C77704  10.706   1.588   4.080  0.6021 -0.1573  0.8470
  564MOL0     C77705  10.657   1.635   4.219  0.6415 -1.0705 -0.8356
  564MOL0     C77706  10.618   1.523   4.327 -0.2726 -0.3266  0.9135
  564MOL0     C77707  10.559   1.594   4.455  0.4052  0.1803  0.5241
  564MOL0     C77708  10.551   1.481   4.561 -0.0256 -0.6741  0.0588
  564MOL0     C77709  10.475   1.526   4.684  0.4954  0.2507  0.4957
  564MOL0     C77710  10.434   1.408   4.775  0.7871 -0.1214  0.3140
  564MOL0     N77711  10.555   1.333   4.810 -0.0883 -0.0160  0.1408
  564MOL0     C77712  10.616   1.234   4.741  0.4140 -0.8532  0.5371
  564MOL0     C77713  10.735   1.223   4.800 -0.4625  0.4896 -0.4248
  564MOL0     C77714  10.846   1.127   4.762  0.1674  0.1395 -0.1691
  564MOL0     C77715  10.858   1.116   4.610  0.4655  1.0310  1.1271
  564MOL0     C77716  10.990   1.048   4.566 -0.2918 -0.3967 -0.4387
  564MOL0     C77717  11.127   1.100   4.595  0.2440  0.5788 -0.2342
  564MOL0     O77718  11.132   1.237   4.551  0.7184 -0.2777 -0.6226
  564MOL0     C77719  11.242   1.268   4.477  0.7036 -0.4222  0.2734
  564MOL0     C77720  11.299   1.187   4.376 -0.1379 -1.2350  0.1956
  564MOL0     C77721  11.414   1.220   4.307 -0.3402 -0.1176 -0.5906
  564MOL0     C77722  11.466   1.132   4.200 -0.2558 -0.0075 -0.0702
  564MOL0     C77723  11.490   1.333   4.346 -1.2613  0.6399  0.2255
  564MOL0     C77724  11.611   1.382   4.275 -1.0816 -0.2598 -0.3015
  564MOL0     O77725  11.694   1.456   4.346  0.2053 -0.1983 -0.2913
  564MOL0     C77726  11.824   1.475   4.304  0.0733  0.5187  0.1628
  564MOL0     C77727  11.927   1.385   4.299  0.3504  0.2624  0.0134
  564MOL0     C77728  12.059   1.422   4.261 -0.3064  0.3962 -0.0026
  564MOL0     C77729  12.074   1.553   4.208 -0.2963 -0.1011 -0.4686
  564MOL0     O77730  12.197   1.597   4.164  0.0987  0.5129  0.5992
  564MOL0     C77731  12.321   1.577   4.236 -0.3712 -1.1281  0.0322
  564MOL0     C77732  12.444   1.650   4.179 -0.2587  0.1312 -0.9622
  564MOL0     C77733  12.499   1.578   4.054 -0.9612 -0.5048  1.0675
  564MOL0     C77734  12.606   1.653   3.969  1.2058  0.3759 -0.5348
  564MOL0     C77735  12.740   1.677   4.047  0.1000  0.2250  0.0166
  564MOL0     C77736  12.847   1.761   3.974 -0.0743 -0.7331 -0.1176
  564MOL0     C77737  12.990   1.746   4.031 -0.3713  0.0397  0.2525
  564MOL0     C77738  12.996   1.814   4.169 -0.7202  0.0495 -0.3270
  564MOL0    Cl77739  13.174   1.820   4.211 -0.5275  0.1909 -0.2148
  564MOL0     C77740  11.966   1.642   4.202 -0.0715  0.4294  0.3282
  564MOL0     C77741  11.843   1.603   4.256  0.3543 -0.2241 -0.0866
  564MOL0     O77742  11.618   1.360   4.154 -0.1450 -0.0611 -0.2605
  564MOL0     C77743  11.437   1.409   4.450  0.0360  0.0721 -0.2242
  564MOL0     C77744  11.313   1.384   4.515  0.7977  0.2561 -0.3352
  564MOL0     N77745  10.739   1.306   4.918  0.4366  0.1135  0.2050
  564MOL0     N77746  10.628   1.375   4.918  0.0960 -0.1423  0.1056
  564MOL0     C77747  10.818   1.895   3.783  0.3113 -0.8951  0.0958
  564MOL0     C77748  10.879   1.982   3.693 -0.0326  0.2628 -0.0469
  564MOL0     C77749  11.052   2.188   3.340 -0.1271 -0.1686  0.5312
  564MOL0     C77750  10.977   2.293   3.268 -0.5673  0.3180 -0.8923
  564MOL0     C77751  11.047   2.374   3.186 -0.6404 -1.0325 -0.4095
  564MOL0     C77752  11.187   2.369   3.169  0.8140  0.0302  0.1580
  564MOL0     O77753  11.267   2.451   3.090 -0.1005 -0.2399  0.0599
  564MOL0     C77754  11.224   2.579   3.052  0.0690 -1.0688 -0.7485
  564MOL0     C77755  11.349   2.667   3.030  0.6550 -0.5679  0.4386
  564MOL0     C77756  11.451   2.647   3.132 -0.9678 -0.3785  0.2842
  564MOL0     C77757  11.585   2.690   3.088 -1.0994 -0.2888 -0.6761
  564MOL0     C77758  11.692   2.643   3.181  0.6495  0.0112 -0.9677
  564MOL0     C77759  11.782   2.609   3.250  0.6469 -0.1968  0.0016
  564MOL0     C77760  11.253   2.267   3.233  0.2537 -0.0310  0.4914
  564MOL0     C77761  11.186   2.174   3.318 -1.0056 -1.0055  0.1169
  564MOL0     C77762  11.269   2.063   3.375 -0.3345 -0.1266  0.6310
  564MOL0     H77763  11.041   1.750   3.499  0.4249  0.6120 -0.1855
  564MOL0     H77764  10.954   1.600   3.665  0.6017  0.3992 -2.9330
  564MOL0     H77765  10.630   1.745   3.971  0.4363 -0.2243 -3.3000
  564MOL0     H77766  10.790   1.779   4.047  1.8692 -3.9514  3.2242
  564MOL0     H77767  10.634   1.519   4.036  0.0309 -0.5567  2.3405
  564MOL0     H77768  10.802   1.538   4.092  0.8373 -0.2523 -1.1280
  564MOL0     H77769  10.728   1.702   4.268  1.3977 -1.8907 -0.7792
  564MOL0     H77770  10.561   1.682   4.196  0.4438 -1.0489  0.0164
  564MOL0     H77771  10.553   1.450   4.280  1.8203 -0.4743 -2.0149
  564MOL0     H77772  10.701   1.460   4.361  0.7897  0.9200  0.7164
  564MOL0     H77773  10.460   1.635   4.436  0.3112  0.3177  1.2799
  564MOL0     H77774  10.619   1.678   4.492 -1.3837  1.2247  1.1535
  564MOL0     H77775  10.509   1.394   4.509 -0.6515  1.2116 -2.7753
  564MOL0     H77776  10.654   1.449   4.579  1.9443  2.2432 -4.3845
  564MOL0     H77777  10.381   1.566   4.647 -1.0855 -4.4155 -1.2885
  564MOL0     H77778  10.534   1.601   4.738 -0.8760  1.6489  0.1044
  564MOL0     H77779  10.377   1.452   4.858  0.5408 -1.8684  1.1079
  564MOL0     H77780  10.376   1.341   4.711  0.1642  1.1894 -0.5319
  564MOL0     H77781  10.582   1.203   4.643  0.1906  1.7465 -0.2741
  564MOL0     H77782  10.821   1.029   4.803  1.2556 -0.7745 -1.6271
  564MOL0     H77783  10.942   1.165   4.799  0.2638  1.9681 -2.1189
  564MOL0     H77784  10.785   1.045   4.570  2.2891  0.6350 -1.8677
  564MOL0     H77785  10.853   1.215   4.564  3.0063  0.6492 -0.1252
  564MOL0     H77786  10.985   0.944   4.599 -0.9944 -1.2967 -3.1120
  564MOL0     H77787  10.991   1.044   4.457  1.3692  0.6465 -0.4960
  564MOL0     H77788  11.154   1.094   4.700 -0.7431 -1.5100 -0.0596
  564MOL0     H77789  11.185   1.027   4.539 -1.9064 -0.8774 -0.6882
  564MOL0     H77790  11.242   1.099   4.349 -1.2870 -0.6264  0.5587
  564MOL0     H77791  11.410   1.042   4.174  0.7346 -0.8460  0.6366
  564MOL0     H77792  11.566   1.094   4.222 -1.0986 -2.1459  0.3425
  564MOL0     H77793  11.472   1.192   4.109  0.4383 -1.4339 -1.0025
  564MOL0     H77794  11.913   1.281   4.329 -2.0319  0.8198  1.0051
  564MOL0     H77795  12.146   1.357   4.253 -0.0842  0.5804  0.8357
  564MOL0     H77796  12.305   1.612   4.339 -1.4005  0.5261 -0.6653
  564MOL0     H77797  12.344   1.470   4.232 -0.4845 -1.1937 -4.9661
  564MOL0     H77798  12.408   1.751   4.157 -0.9567  0.7436  2.3958
  564MOL0     H77799  12.527   1.671   4.247 -2.1816  2.1355  0.9341
  564MOL0     H77800  12.415   1.554   3.988 -0.6750 -1.4093  1.0155
  564MOL0     H77801  12.536   1.481   4.089 -1.5288 -1.7367 -1.5500
  564MOL0     H77802  12.574   1.752   3.933  0.7339  0.1324 -0.7920
  564MOL0     H77803  12.605   1.597   3.875  1.0909  0.6754 -0.7143
  564MOL0     H77804  12.719   1.737   4.136  2.6837  2.3527 -0.6919
  564MOL0     H77805  12.782   1.581   4.077 -0.9191  0.0817  1.0532
  564MOL0     H77806  12.812   1.864   3.985 -2.8117 -1.5728 -0.3986
  564MOL0     H77807  12.852   1.739   3.867  1.7652 -1.8028  0.1473
  564MOL0     H77808  13.068   1.788   3.966  2.2950  1.6265  4.1190
  564MOL0     H77809  13.017   1.641   4.039 -2.0987 -0.4477 -0.0413
  564MOL0     H77810  12.953   1.752   4.247 -1.5795 -0.3083 -1.0718
  564MOL0     H77811  12.961   1.918   4.165  0.3800  0.4588  0.2876
  564MOL0     H77812  11.969   1.744   4.163  0.4805 -0.1862 -1.3322
  564MOL0     H77813  11.756   1.667   4.251  0.4741  0.0074  0.6700
  564MOL0     H77814  11.480   1.505   4.478 -0.8132  0.1768  0.7516
  564MOL0     H77815  11.279   1.441   4.600  3.1485  1.0616  0.1079
  564MOL0     H77816  10.747   1.917   3.862 -1.0163 -0.0741 -1.2631
  564MOL0     H77817  10.871   2.089   3.708 -1.2554  0.2455 -0.4913
  564MOL0     H77818  10.870   2.309   3.271 -0.8024 -1.0022 -1.3005
  564MOL0     H77819  10.990   2.456   3.145  1.6675  2.0887  2.0861
  564MOL0     H77820  11.162   2.581   2.962 -3.4843  1.8727  1.5122
  564MOL0     H77821  11.159   2.621   3.128 -1.1812 -0.2720 -2.2043
  564MOL0     H77822  11.316   2.771   3.032  0.4040 -0.6497  0.8787
  564MOL0     H77823  11.391   2.640   2.933 -2.7690 -1.4793 -0.9063
  564MOL0     H77824  11.424   2.714   3.214 -0.3398 -0.9320  0.9519
  564MOL0     H77825  11.454   2.545   3.170 -0.3880 -1.1713 -1.7327
  564MOL0     H77826  11.588   2.799   3.092  2.3573 -0.1701 -2.7697
  564MOL0     H77827  11.614   2.669   2.985  1.9417 -1.3527  0.2682
  564MOL0     H77828  11.863   2.577   3.313  0.1496 -1.3753  0.0609
  564MOL0     H77829  11.362   2.268   3.227  0.2083 -1.1993 -1.8045
  564MOL0     H77830  11.372   2.075   3.339 -0.5312  0.5743  0.2778
  564MOL0     H77831  11.270   2.064   3.485  0.3429  0.0062  0.6324
  564MOL0     H77832  11.225   1.970   3.340 -0.3313 -0.3813  1.2972
  565MOL0     O77833   6.606   6.456   7.694  0.6911  0.9728 -0.1363
  565MOL0     C77834   6.487   6.488   7.678  0.0911  0.4503 -0.3036
  565MOL0     O77835   6.424   6.500   7.560 -0.3472 -0.0706 -0.0524
  565MOL0     C77836   6.497   6.484   7.451  0.1251 -0.0604  0.2008
  565MOL0     C77837   6.528   6.592   7.359  0.7514  0.3496  0.5219
  565MOL0     C77838   6.598   6.566   7.241 -0.1139  0.2497  0.2201
  565MOL0     C77839   6.636   6.430   7.212 -0.0984  0.4695 -0.1396
  565MOL0     O77840   6.699   6.388   7.094  0.4755  0.4394  0.0674
  565MOL0     C77841   6.757   6.485   7.011  0.4922 -0.6808 -0.5407
  565MOL0     C77842   6.892   6.513   7.076  0.6035 -0.1092  0.3390
  565MOL0     C77843   7.002   6.411   7.033  0.4801  0.8252 -0.5983
  565MOL0     C77844   6.957   6.263   7.067 -0.8555  0.5074 -0.1745
  565MOL0     C77845   7.062   6.150   7.045 -0.1160 -0.2055 -0.1744
  565MOL0     C77846   7.040   6.042   7.147 -0.3343  0.3392 -0.7651
  565MOL0     C77847   7.146   5.926   7.138  0.0114  0.1265  0.7455
  565MOL0     C77848   7.283   5.946   7.215 -0.2423  0.5816  0.1974
  565MOL0     N77849   7.376   5.831   7.216  0.3347  0.0640  0.2681
  565MOL0     C77850   7.453   5.796   7.113 -0.5730  0.1256  0.0701
  565MOL0     C77851   7.524   5.686   7.153  0.1613  0.6331  0.9513
  565MOL0     C77852   7.643   5.635   7.079  0.1140  0.6991  0.1758
  565MOL0     C77853   7.767   5.643   7.155  0.6528 -0.2693 -0.1078
  565MOL0     C77854   7.783   5.540   7.278  0.2119 -0.2018  0.2670
  565MOL0     C77855   7.915   5.553   7.366  0.7617 -0.4167  0.1914
  565MOL0     O77856   8.021   5.528   7.277 -0.1716 -0.6108  0.5848
  565MOL0     C77857   8.145   5.566   7.290 -0.1131  0.0384 -0.1970
  565MOL0     C77858   8.191   5.593   7.420 -0.3036 -0.0555  0.2741
  565MOL0     C77859   8.323   5.615   7.445 -0.4655 -1.2981  0.0406
  565MOL0     C77860   8.358   5.649   7.586  0.0800 -0.7396  0.2405
  565MOL0     C77861   8.419   5.609   7.340  0.0400 -0.0119 -0.5546
  565MOL0     C77862   8.563   5.635   7.361  0.2528  0.1346 -0.2225
  565MOL0     O77863   8.652   5.548   7.305 -0.4676  0.4292 -0.2558
  565MOL0     C77864   8.791   5.567   7.294  0.1201  0.7393  0.3587
  565MOL0     C77865   8.861   5.688   7.327  0.0555  0.2342  0.6086
  565MOL0     C77866   9.003   5.690   7.328 -0.0371  0.2972 -0.0776
  565MOL0     C77867   9.079   5.575   7.289  0.1625  0.2078 -0.1207
  565MOL0     O77868   9.210   5.575   7.262  0.1573 -0.0095  0.3888
  565MOL0     C77869   9.286   5.655   7.347 -0.2417 -0.0901  0.6265
  565MOL0     C77870   9.337   5.784   7.278 -0.4012 -0.7416  0.2654
  565MOL0     C77871   9.334   5.919   7.355  0.9869  0.2192  0.9455
  565MOL0     C77872   9.435   6.018   7.298 -0.5656 -0.8475  0.1400
  565MOL0     C77873   9.450   6.146   7.375  0.3601  0.3407  0.6547
  565MOL0     C77874   9.325   6.246   7.351 -0.9068  0.0762  0.4536
  565MOL0     C77875   9.317   6.353   7.453 -0.6398  0.2363  0.2114
  565MOL0     C77876   9.198   6.451   7.438 -0.2438 -0.5171 -0.1551
  565MOL0    Cl77877   9.219   6.592   7.544  0.3261 -0.0998  0.0194
  565MOL0     C77878   9.011   5.461   7.256  0.6042 -0.3429  0.6662
  565MOL0     C77879   8.871   5.457   7.259  0.1871  0.1968  0.0262
  565MOL0     O77880   8.590   5.750   7.404 -0.4716 -0.6275  0.8365
  565MOL0     C77881   8.373   5.573   7.215  0.6728 -0.3258 -0.2290
  565MOL0     C77882   8.241   5.560   7.188  0.5084  0.8888  0.5154
  565MOL0     N77883   7.483   5.662   7.283  0.1392  0.0543 -0.0585
  565MOL0     N77884   7.385   5.735   7.317 -0.2770 -0.4849  0.8707
  565MOL0     C77885   6.607   6.332   7.297  0.2986  0.9484  0.1961
  565MOL0     C77886   6.539   6.357   7.418  0.1582  0.6724 -1.0184
  565MOL0     C77887   6.414   6.509   7.806  0.4684 -0.7555 -0.0973
  565MOL0     C77888   6.463   6.437   7.922 -0.1293  0.0909 -0.1247
  565MOL0     C77889   6.399   6.438   8.045 -0.2247  1.0094  0.7410
  565MOL0     C77890   6.283   6.498   8.055  0.6287 -0.5847 -0.3646
  565MOL0     O77891   6.214   6.496   8.178 -0.3939 -0.4561  0.3620
  565MOL0     C77892   6.181   6.365   8.220 -0.1734 -0.1528  0.2524
  565MOL0     C77893   6.031   6.337   8.200 -0.6910  0.3847 -0.1856
  565MOL0     C77894   5.949   6.418   8.308 -0.0539 -1.1059  1.4189
  565MOL0     C77895   5.797   6.410   8.293  0.2406  0.2401  0.2125
  565MOL0     C77896   5.747   6.430   8.152 -0.8551  0.0908 -0.7782
  565MOL0     C77897   5.727   6.447   8.033  0.8630 -0.3216 -0.6574
  565MOL0     C77898   6.227   6.573   7.956 -0.7295 -0.5222 -0.4000
  565MOL0     C77899   6.291   6.576   7.827  0.1582  0.0049 -0.6218
  565MOL0     C77900   6.229   6.667   7.722 -0.2935 -0.8858 -0.9404
  565MOL0     H77901   6.487   6.692   7.366  1.1296  0.4581  1.3609
  565MOL0     H77902   6.619   6.649   7.175  3.4511  0.1146  0.9727
  565MOL0     H77903   6.693   6.573   7.003  0.2950 -0.4545  2.5935
  565MOL0     H77904   6.766   6.448   6.908 -0.6919 -2.1750 -0.1468
  565MOL0     H77905   6.920   6.613   7.042  3.1510 -1.7527 -2.9947
  565MOL0     H77906   6.887   6.517   7.185 -2.7187 -1.0979  0.3391
  565MOL0     H77907   7.017   6.424   6.926 -0.0598  2.2217 -0.5203
  565MOL0     H77908   7.100   6.420   7.080 -0.1743  0.1156  0.9884
  565MOL0     H77909   6.916   6.259   7.169 -0.6076  1.6745 -0.0133
  565MOL0     H77910   6.879   6.233   6.996 -1.0726  0.8583 -0.0894
  565MOL0     H77911   7.163   6.189   7.063 -0.2534 -0.0707  0.3111
  565MOL0     H77912   7.048   6.116   6.942 -0.9244 -0.7561  0.1049
  565MOL0     H77913   7.044   6.077   7.251 -0.7598 -1.6497 -0.0393
  565MOL0     H77914   6.942   5.996   7.138 -0.4787  0.4990 -0.0698
  565MOL0     H77915   7.165   5.914   7.031  0.9929 -1.6186  1.0821
  565MOL0     H77916   7.105   5.839   7.190  3.3215 -0.3811  2.8138
  565MOL0     H77917   7.339   6.035   7.184 -1.3158  1.4637  0.7067
  565MOL0     H77918   7.261   5.966   7.321  1.6136  3.2399  0.1803
  565MOL0     H77919   7.465   5.845   7.017 -1.7755  2.8178  1.1797
  565MOL0     H77920   7.653   5.676   6.977 -1.5387  1.9944  0.4866
  565MOL0     H77921   7.629   5.528   7.066 -0.1284  0.6377  0.9077
  565MOL0     H77922   7.842   5.626   7.077 -0.0266  0.4910 -0.9377
  565MOL0     H77923   7.786   5.746   7.187 -0.5457 -0.4552  1.3170
  565MOL0     H77924   7.698   5.566   7.341 -1.5019 -0.7590 -1.7030
  565MOL0     H77925   7.781   5.435   7.248  1.2238 -0.1948  0.1138
  565MOL0     H77926   7.928   5.658   7.395  2.0183 -0.9592  1.7067
  565MOL0     H77927   7.911   5.496   7.459 -1.1618  1.2515  1.2064
  565MOL0     H77928   8.114   5.601   7.496 -0.9720  3.2058 -0.5763
  565MOL0     H77929   8.282   5.611   7.655  0.8532 -1.3389  0.7809
  565MOL0     H77930   8.372   5.756   7.605 -1.1472 -0.7180  1.1039
  565MOL0     H77931   8.453   5.595   7.598 -0.1399 -1.2785 -0.4056
  565MOL0     H77932   8.820   5.783   7.360 -2.7018 -0.4013 -0.7622
  565MOL0     H77933   9.059   5.779   7.352  0.3770  0.5064 -1.6802
  565MOL0     H77934   9.241   5.668   7.446 -0.4258  0.9600  0.4102
  565MOL0     H77935   9.385   5.612   7.366  0.4360  2.1211  2.5131
  565MOL0     H77936   9.433   5.759   7.232 -0.5242  2.2774 -1.9520
  565MOL0     H77937   9.274   5.795   7.189 -1.2449 -0.3024  0.8968
  565MOL0     H77938   9.361   5.897   7.459  1.8676  0.6185  0.8143
  565MOL0     H77939   9.234   5.961   7.354 -0.1512 -2.2863  0.1088
  565MOL0     H77940   9.397   6.046   7.199  0.9591  2.5408  0.3748
  565MOL0     H77941   9.529   5.964   7.286 -1.9283 -3.4930  0.6328
  565MOL0     H77942   9.454   6.110   7.478 -0.7091 -2.7992 -0.2772
  565MOL0     H77943   9.548   6.190   7.354  0.4104  0.8194  1.8178
  565MOL0     H77944   9.226   6.201   7.340  0.2312 -2.2246 -0.9218
  565MOL0     H77945   9.332   6.290   7.252 -1.3255  2.7985  1.5420
  565MOL0     H77946   9.414   6.405   7.455 -0.1999 -0.5951  1.1101
  565MOL0     H77947   9.314   6.300   7.549 -0.8331 -4.1264 -1.9890
  565MOL0     H77948   9.109   6.400   7.475 -0.4012 -0.3496 -0.2991
  565MOL0     H77949   9.191   6.489   7.335  0.1201 -0.6053 -0.2128
  565MOL0     H77950   9.049   5.369   7.213  0.2206 -0.6669  1.0070
  565MOL0     H77951   8.813   5.369   7.233  2.0622 -0.6330 -1.6295
  565MOL0     H77952   8.442   5.550   7.134 -0.3077 -1.3493 -0.8051
  565MOL0     H77953   8.222   5.537   7.083  1.3570 -1.3068  0.7774
  565MOL0     H77954   6.633   6.230   7.272  1.6314  1.2669  0.2328
  565MOL0     H77955   6.515   6.280   7.490 -0.4280  1.2086 -0.6276
  565MOL0     H77956   6.556   6.383   7.908 -0.5816 -0.3690 -1.5349
  565MOL0     H77957   6.449   6.380   8.121 -0.2643 -2.1392 -1.4111
  565MOL0     H77958   6.244   6.280   8.189 -0.7943 -1.1309  1.5533
  565MOL0     H77959   6.204   6.369   8.327 -0.8177  2.4621  0.3544
  565MOL0     H77960   6.000   6.236   8.226 -0.6953  1.0364  2.6995
  565MOL0     H77961   6.008   6.364   8.096  3.1908  0.1204 -1.2615
  565MOL0     H77962   5.986   6.382   8.405  1.6687 -3.2061  0.0896
  565MOL0     H77963   5.978   6.519   8.280 -3.4498 -0.8012 -1.7717
  565MOL0     H77964   5.757   6.481   8.365  2.8573  1.7236  0.3333
  565MOL0     H77965   5.760   6.315   8.332 -0.7287  0.2392 -0.6649
  565MOL0     H77966   5.689   6.477   7.938  2.2520 -1.6865 -1.6756
  565MOL0     H77967   6.135   6.628   7.975  0.3471  1.1377  0.2581
  565MOL0     H77968   6.309   6.741   7.706 -2.5042  1.2394 -3.1664
  565MOL0     H77969   6.202   6.610   7.632 -0.9801  3.2677 -3.6578
  565MOL0     H77970   6.138   6.713   7.762  1.0114  2.2259 -1.2118
  566MOL0     O77971   3.078  10.850  10.178 -0.3810  0.6522 -0.1124
  566MOL0     C77972   3.111  10.766  10.259 -1.0063  0.2662 -0.5281
  566MOL0     O77973   3.243  10.732  10.298 -0.3074  0.4148 -0.2681
  566MOL0     C77974   3.342  10.788  10.239 -0.8772  0.8454  0.7835
  566MOL0     C77975   3.430  10.697  10.171 -0.5705  0.1403  0.0291
  566MOL0     C77976   3.526  10.748  10.082 -0.5960  0.4759 -0.3319
  566MOL0     C77977   3.545  10.887  10.075 -0.8468  0.7138 -0.3958
  566MOL0     O77978   3.644  10.928   9.996  0.0146 -0.1710  0.5683
  566MOL0     C77979   3.714  11.047  10.046 -0.1687  0.3567 -0.1946
  566MOL0     C77980   3.861  11.058   9.988  0.2069 -0.0500  0.1264
  566MOL0     C77981   3.923  11.167  10.073  0.2676  0.6030 -0.0488
  566MOL0     C77982   4.075  11.166  10.049  0.4432 -0.4125 -0.1879
  566MOL0     C77983   4.148  11.294  10.085  0.0570  0.3915  0.0717
  566MOL0     C77984   4.295  11.268  10.097  0.3409 -1.1482  0.1234
  566MOL0     C77985   4.377  11.385  10.148  0.0250  0.3975  0.1508
  566MOL0     C77986   4.512  11.377  10.080 -1.1392 -0.4023  0.1800
  566MOL0     N77987   4.619  11.475  10.115  0.7976  0.2632 -0.4417
  566MOL0     C77988   4.747  11.443  10.163 -0.5139  0.4908 -0.0095
  566MOL0     C77989   4.810  11.563  10.162  0.0644 -0.7834  0.7964
  566MOL0     C77990   4.952  11.584  10.207 -0.2700 -0.8043  0.3515
  566MOL0     C77991   5.058  11.533  10.113  0.3686  0.2193  0.7555
  566MOL0     C77992   5.070  11.377  10.102  0.3873 -0.5389 -0.2945
  566MOL0     C77993   5.175  11.338  10.020  0.2948 -0.6368 -0.8443
  566MOL0     O77994   5.297  11.393  10.068  0.7182  0.5071  0.5382
  566MOL0     C77995   5.408  11.340  10.006 -1.0884 -0.2209 -0.1247
  566MOL0     C77996   5.413  11.223   9.924  0.4694 -0.0143 -0.9404
  566MOL0     C77997   5.538  11.168   9.891  0.2033  0.3674  0.0509
  566MOL0     C77998   5.532  11.043   9.803 -0.3266  0.0884  0.9843
  566MOL0     C77999   5.657  11.234   9.933  0.4300  0.6621  0.1685
  566MOL0     C78000   5.794  11.192   9.900 -0.0052  0.0499  0.1936
  566MOL0     O78001   5.886  11.276   9.948 -0.4507  0.4635 -0.1110
  566MOL0     C78002   6.018  11.276   9.916 -0.0185 -0.0912  0.0774
  566MOL0     C78003   6.115  11.327  10.015 -0.2761  0.2550  0.8065
  566MOL0     C78004   6.250  11.344   9.993 -0.5525 -0.2358 -0.1430
  566MOL0     C78005   6.310  11.297   9.875  0.1400  0.3500  0.1053
  566MOL0     O78006   6.439  11.300   9.847 -0.3546  0.1281 -0.7399
  566MOL0     C78007   6.508  11.416   9.889 -0.3850  0.3971 -0.0135
  566MOL0     C78008   6.621  11.443   9.793  0.6642 -0.3394  0.3525
  566MOL0     C78009   6.727  11.329   9.824 -0.1936 -0.0442  0.8819
  566MOL0     C78010   6.865  11.396   9.867  1.0015  0.4330  1.0521
  566MOL0     C78011   6.975  11.278   9.889 -0.3808 -0.2050  0.2174
  566MOL0     C78012   7.070  11.296  10.005  0.4742 -0.3773  1.2984
  566MOL0     C78013   7.147  11.432   9.995 -0.4167 -0.3844 -0.5546
  566MOL0     C78014   7.275  11.431  10.083  0.6528  0.6305  0.7299
  566MOL0    Cl78015   7.215  11.433  10.255  0.1755  0.3610 -0.3159
  566MOL0     C78016   6.222  11.237   9.784  1.0830  0.2115  0.2629
  566MOL0     C78017   6.086  11.229   9.808 -0.0701 -0.1146 -0.0370
  566MOL0     O78018   5.818  11.094   9.836  0.8368  1.2752 -0.6089
  566MOL0     C78019   5.641  11.358  10.007 -0.2733  0.2589  0.2018
  566MOL0     C78020   5.524  11.406  10.042 -0.5003  0.4417 -0.5515
  566MOL0     N78021   4.726  11.659  10.105  0.7437  0.0502  0.7690
  566MOL0     N78022   4.616  11.608  10.080 -0.0363 -0.2416 -0.2242
  566MOL0     C78023   3.472  10.967  10.161 -0.5401 -0.4835 -0.2831
  566MOL0     C78024   3.369  10.920  10.237  0.9414  0.7896 -0.6655
  566MOL0     C78025   3.001  10.704  10.335 -0.0799 -0.4586  0.4391
  566MOL0     C78026   2.893  10.645  10.256  0.7214 -0.0487 -0.2936
  566MOL0     C78027   2.778  10.592  10.320 -0.6530  0.3381 -0.5357
  566MOL0     C78028   2.769  10.585  10.451 -0.0288  0.4735 -0.4848
  566MOL0     O78029   2.652  10.525  10.496 -0.2580 -0.2956 -0.8337
  566MOL0     C78030   2.625  10.527  10.641 -0.1823  0.4788  0.3601
  566MOL0     C78031   2.505  10.440  10.671  0.6505 -0.2116 -0.1814
  566MOL0     C78032   2.383  10.448  10.577 -0.2619 -0.4133  0.2486
  566MOL0     C78033   2.267  10.368  10.638  0.1647 -0.8503 -0.0129
  566MOL0     C78034   2.219  10.424  10.763  0.2049  0.8767 -0.4751
  566MOL0     C78035   2.185  10.462  10.871 -0.4893  0.1728  0.0708
  566MOL0     C78036   2.869  10.643  10.530 -0.6389 -0.4583 -0.2669
  566MOL0     C78037   2.985  10.704  10.472  0.2482 -0.5467  0.1437
  566MOL0     C78038   3.097  10.750  10.567 -0.3006 -0.3268 -0.0470
  566MOL0     H78039   3.420  10.589  10.184 -1.4618  0.3468  1.1889
  566MOL0     H78040   3.603  10.695  10.029 -1.5066  0.1343 -1.3575
  566MOL0     H78041   3.734  11.023  10.151 -2.2855 -0.2475  0.1087
  566MOL0     H78042   3.656  11.139  10.038 -1.0317 -0.2586 -1.2241
  566MOL0     H78043   3.913  10.962   9.998 -2.1642 -1.3228  1.0261
  566MOL0     H78044   3.866  11.091   9.883  1.3610 -2.3266 -0.6138
  566MOL0     H78045   3.879  11.260  10.038 -1.0477  0.7860  1.9547
  566MOL0     H78046   3.911  11.150  10.180  2.8424 -0.9080  0.0955
  566MOL0     H78047   4.120  11.098  10.122 -2.2002 -1.7281  0.3074
  566MOL0     H78048   4.099  11.131   9.948 -1.2033 -1.2147 -0.3268
  566MOL0     H78049   4.109  11.332  10.180 -1.6135 -0.5841 -0.1844
  566MOL0     H78050   4.134  11.379  10.017 -0.2102 -0.2216 -0.6594
  566MOL0     H78051   4.304  11.189  10.173 -0.1357 -1.5334 -0.2122
  566MOL0     H78052   4.331  11.233  10.000  1.7979 -1.2380  0.6720
  566MOL0     H78053   4.387  11.370  10.255 -0.7577  0.0233  0.1787
  566MOL0     H78054   4.333  11.483  10.128  0.2907  0.7053  1.0378
  566MOL0     H78055   4.546  11.276  10.104 -1.3137 -0.2814  0.9670
  566MOL0     H78056   4.499  11.383   9.972  2.3450  0.0779 -0.3035
  566MOL0     H78057   4.778  11.346  10.202 -2.7518 -1.7488 -3.3206
  566MOL0     H78058   4.960  11.528  10.301  0.3637 -3.4412 -1.1681
  566MOL0     H78059   4.955  11.692  10.227 -0.1269 -0.8991  0.8655
  566MOL0     H78060   5.037  11.573  10.013  0.7650  1.4469  1.1584
  566MOL0     H78061   5.154  11.571  10.150 -0.5495  0.2649  3.2574
  566MOL0     H78062   5.077  11.338  10.204 -0.8013  2.5833  1.1033
  566MOL0     H78063   4.976  11.336  10.065  0.2062 -1.2748  0.9246
  566MOL0     H78064   5.172  11.229  10.027  1.2724 -0.6707 -0.8703
  566MOL0     H78065   5.155  11.378   9.921 -4.0556  2.5994  0.9944
  566MOL0     H78066   5.321  11.170   9.902  0.9514 -2.6663  2.6647
  566MOL0     H78067   5.438  10.987   9.808 -0.3961 -0.4441 -2.9916
  566MOL0     H78068   5.596  10.964   9.844 -1.0463 -1.5915 -0.9105
  566MOL0     H78069   5.572  11.064   9.703 -0.1089 -1.0631  0.8086
  566MOL0     H78070   6.076  11.345  10.114  1.0014 -0.0565  1.3825
  566MOL0     H78071   6.315  11.390  10.068  1.5176  1.2894 -2.6841
  566MOL0     H78072   6.435  11.498   9.888 -2.1581 -1.0691  1.3253
  566MOL0     H78073   6.550  11.411   9.990 -1.4207  2.5187  0.5790
  566MOL0     H78074   6.598  11.434   9.686  2.1168 -1.6468  0.1237
  566MOL0     H78075   6.656  11.543   9.819  0.3559  0.1597 -1.0416
  566MOL0     H78076   6.743  11.267   9.735  0.5600 -0.8933  1.5856
  566MOL0     H78077   6.703  11.254   9.900 -1.3454 -1.1429 -0.5248
  566MOL0     H78078   6.844  11.457   9.956 -4.0429  0.5231  0.1052
  566MOL0     H78079   6.898  11.462   9.786  1.0977 -0.2772  0.5072
  566MOL0     H78080   6.914  11.191   9.915 -2.8934  0.9559 -1.3634
  566MOL0     H78081   7.019  11.259   9.791 -0.9136  0.4824 -0.1603
  566MOL0     H78082   7.137  11.210  10.004  1.3999  0.3226  0.6845
  566MOL0     H78083   7.011  11.278  10.095  0.4813 -6.5260  0.4801
  566MOL0     H78084   7.073  11.509  10.016 -0.6566 -0.9280  0.7317
  566MOL0     H78085   7.193  11.438   9.896  0.6501 -3.8779 -0.4248
  566MOL0     H78086   7.329  11.523  10.056  2.1098 -0.3721  0.0887
  566MOL0     H78087   7.345  11.348  10.076  0.2059  0.2617  0.6101
  566MOL0     H78088   6.249  11.184   9.694  1.9701  1.1862 -0.0718
  566MOL0     H78089   6.015  11.181   9.742 -2.7505  1.9105  1.1730
  566MOL0     H78090   5.726  11.421  10.034  0.5503 -0.0437 -1.5719
  566MOL0     H78091   5.516  11.498  10.098 -0.9378 -1.0950  2.0610
  566MOL0     H78092   3.482  11.075  10.164  0.0618 -0.4545 -2.1310
  566MOL0     H78093   3.306  10.981  10.301  0.5051 -0.7544  0.4349
  566MOL0     H78094   2.903  10.674  10.152  2.3062 -1.6128 -0.6251
  566MOL0     H78095   2.700  10.566  10.249 -0.4904 -2.9968  0.3611
  566MOL0     H78096   2.714  10.486  10.690  0.3269  1.4309  0.2595
  566MOL0     H78097   2.620  10.631  10.674  2.9603  0.6170  0.7142
  566MOL0     H78098   2.472  10.471  10.770  0.2605 -2.2255  0.3617
  566MOL0     H78099   2.541  10.336  10.672 -2.7136 -1.5044  0.8311
  566MOL0     H78100   2.358  10.551  10.549 -1.7369 -0.8156  0.0292
  566MOL0     H78101   2.412  10.398  10.485  1.0816  1.3587 -0.3517
  566MOL0     H78102   2.302  10.265  10.651  1.4584 -0.5407 -0.8477
  566MOL0     H78103   2.179  10.370  10.572 -0.2830 -4.9605  0.2161
  566MOL0     H78104   2.156  10.510  10.962 -1.1450  2.1887 -1.1141
  566MOL0     H78105   2.861  10.649  10.638 -0.4985  1.0835 -0.3163
  566MOL0     H78106   3.097  10.859  10.570  2.0375 -0.2989  0.5227
  566MOL0     H78107   3.089  10.691  10.658  1.4065 -1.4076 -0.5577
  566MOL0     H78108   3.198  10.729  10.532 -0.4294  1.4247 -1.6355
  567MOL0     O78109   1.125   9.171   8.446  0.3693 -0.2788 -0.0251
  567MOL0     C78110   1.046   9.233   8.383 -1.2517  0.5941 -0.7899
  567MOL0     O78111   1.065   9.350   8.308  0.3796  0.9149  0.0199
  567MOL0     C78112   1.200   9.391   8.289  0.8198 -0.8341 -0.5919
  567MOL0     C78113   1.257   9.381   8.170 -0.3034  0.3456  0.6312
  567MOL0     C78114   1.391   9.424   8.150  0.0818  0.0128 -0.4395
  567MOL0     C78115   1.465   9.484   8.254  0.5935  0.8095  0.1892
  567MOL0     O78116   1.582   9.536   8.225  0.1011 -0.2037  0.3558
  567MOL0     C78117   1.655   9.608   8.331 -0.6762 -0.1176 -0.1211
  567MOL0     C78118   1.790   9.651   8.276  0.1990 -0.2680  0.3861
  567MOL0     C78119   1.881   9.525   8.249  0.0457 -0.2457 -0.2555
  567MOL0     C78120   2.028   9.558   8.229 -0.8004 -0.0090 -0.1960
  567MOL0     C78121   2.104   9.426   8.196  0.5258 -0.6150 -0.5791
  567MOL0     C78122   2.254   9.451   8.208 -0.0352  0.8313  0.1651
  567MOL0     C78123   2.335   9.346   8.127 -0.0940  0.3424 -0.2660
  567MOL0     C78124   2.292   9.210   8.148  0.2524  0.7360  0.0184
  567MOL0     N78125   2.370   9.105   8.072  0.5547  0.1245  0.2807
  567MOL0     C78126   2.381   9.100   7.928 -0.2178 -0.3058 -1.4122
  567MOL0     C78127   2.484   9.011   7.923 -0.1188 -0.2987 -1.3166
  567MOL0     C78128   2.554   8.966   7.801  0.1278 -0.3252 -0.2936
  567MOL0     C78129   2.478   8.847   7.737  0.3552 -0.3414  0.5538
  567MOL0     C78130   2.579   8.762   7.651  0.0271 -0.7212 -0.6903
  567MOL0     C78131   2.671   8.661   7.730 -0.4796  0.5206  0.5067
  567MOL0     O78132   2.596   8.586   7.822  0.4758 -0.5615  0.2487
  567MOL0     C78133   2.659   8.510   7.910 -0.5412  0.9058 -0.5380
  567MOL0     C78134   2.584   8.471   8.022 -1.1713  0.7355  0.5625
  567MOL0     C78135   2.636   8.383   8.123 -0.0917  0.5963  0.8278
  567MOL0     C78136   2.537   8.343   8.221  0.0168 -0.1393 -0.1835
  567MOL0     C78137   2.774   8.344   8.121 -0.3391  0.6871 -0.5941
  567MOL0     C78138   2.853   8.257   8.222  0.6360  1.1492 -0.0948
  567MOL0     O78139   2.984   8.213   8.200 -0.0992  0.6766  0.5993
  567MOL0     C78140   3.059   8.126   8.281 -1.3191  0.3905 -0.4870
  567MOL0     C78141   3.196   8.147   8.258  0.1788  0.6298  0.1893
  567MOL0     C78142   3.288   8.088   8.344 -0.0565 -0.8270  0.3693
  567MOL0     C78143   3.249   8.001   8.441 -0.5340  0.1842 -0.3763
  567MOL0     O78144   3.350   7.966   8.528 -0.2001  0.1185  0.0585
  567MOL0     C78145   3.347   7.834   8.572  0.4478 -0.2583 -0.1998
  567MOL0     C78146   3.480   7.805   8.631 -0.3871 -0.0341 -0.3427
  567MOL0     C78147   3.514   7.661   8.679 -0.6952  0.4493 -0.3610
  567MOL0     C78148   3.542   7.554   8.574  0.5214 -0.2237  0.1477
  567MOL0     C78149   3.674   7.555   8.504 -0.5979  0.8063  0.4538
  567MOL0     C78150   3.675   7.455   8.391  0.3567  0.5970 -0.0341
  567MOL0     C78151   3.807   7.453   8.313 -0.9450 -0.1306  0.3519
  567MOL0     C78152   3.840   7.315   8.267  0.4073  0.3958 -0.5611
  567MOL0    Cl78153   3.715   7.217   8.183  0.5411  0.2571 -0.1115
  567MOL0     C78154   3.110   7.982   8.459  0.2351  0.4887 -0.0074
  567MOL0     C78155   3.016   8.047   8.384 -0.3316 -0.5011 -0.0094
  567MOL0     O78156   2.786   8.222   8.317  0.0539 -0.5044 -0.0806
  567MOL0     C78157   2.852   8.387   8.008 -0.0041 -0.6731 -0.1692
  567MOL0     C78158   2.791   8.468   7.907  0.0322  0.3704 -0.2478
  567MOL0     N78159   2.531   8.980   8.051  0.6551 -0.8855  0.5508
  567MOL0     N78160   2.464   9.037   8.135  0.2722  0.2313 -0.5203
  567MOL0     C78161   1.394   9.498   8.374  0.2148 -0.4177 -0.5246
  567MOL0     C78162   1.269   9.444   8.396  0.0169 -0.7796 -0.1504
  567MOL0     C78163   0.899   9.198   8.389 -0.6465 -0.0535  0.1043
  567MOL0     C78164   0.812   9.303   8.384  0.4834 -0.7247 -1.0379
  567MOL0     C78165   0.677   9.279   8.395 -0.2138 -0.1423 -0.2563
  567MOL0     C78166   0.627   9.151   8.408 -0.3213  0.7331 -0.4901
  567MOL0     O78167   0.491   9.149   8.404  0.3818 -0.1270 -0.3741
  567MOL0     C78168   0.424   9.024   8.383  0.2729  0.3381  0.1765
  567MOL0     C78169   0.273   9.055   8.389 -0.4197 -0.9893  0.9953
  567MOL0     C78170   0.227   9.147   8.274 -0.3229 -0.0609  0.0231
  567MOL0     C78171   0.078   9.137   8.229 -1.2206 -0.3792 -0.5618
  567MOL0     C78172   0.060   9.017   8.142  0.6489  0.1691 -0.1104
  567MOL0     C78173   0.052   8.919   8.070  0.1099  0.6431 -0.2052
  567MOL0     C78174   0.722   9.041   8.409  0.0587 -0.1416  0.3492
  567MOL0     C78175   0.854   9.067   8.400 -0.0819 -0.1148 -0.1643
  567MOL0     C78176   0.944   8.943   8.408  1.0732  0.0999 -0.4114
  567MOL0     H78177   1.212   9.334   8.083  3.0408 -0.7301 -0.6726
  567MOL0     H78178   1.444   9.415   8.055  0.0564  0.2071 -0.4722
  567MOL0     H78179   1.660   9.544   8.419  0.1834 -1.1800 -0.9123
  567MOL0     H78180   1.597   9.695   8.362  0.4854  1.5304 -2.2409
  567MOL0     H78181   1.766   9.720   8.195  1.9189  1.7636  1.5195
  567MOL0     H78182   1.844   9.709   8.351  0.8085 -1.1960  0.6821
  567MOL0     H78183   1.866   9.461   8.337 -1.4839  2.2002  1.4057
  567MOL0     H78184   1.841   9.473   8.161 -2.5711  0.8734  0.1738
  567MOL0     H78185   2.036   9.619   8.138  1.2955 -0.0150 -0.0458
  567MOL0     H78186   2.073   9.614   8.311  0.7533  0.3417 -1.2428
  567MOL0     H78187   2.089   9.399   8.091  2.7110  0.1064 -1.1143
  567MOL0     H78188   2.069   9.342   8.258 -1.5886 -0.5750 -1.6164
  567MOL0     H78189   2.276   9.549   8.164 -1.2822  0.8961 -0.3665
  567MOL0     H78190   2.273   9.445   8.315 -0.9902 -2.7277  0.2544
  567MOL0     H78191   2.441   9.352   8.152 -0.1597 -1.4988  0.5999
  567MOL0     H78192   2.316   9.364   8.020 -1.2465  2.1601  0.1897
  567MOL0     H78193   2.294   9.193   8.256 -0.1909 -0.2354 -0.1091
  567MOL0     H78194   2.194   9.194   8.101  0.6811  3.5308 -2.0723
  567MOL0     H78195   2.322   9.143   7.848 -0.1821 -0.4363 -1.5087
  567MOL0     H78196   2.657   8.941   7.828 -0.3357 -2.9025 -0.6408
  567MOL0     H78197   2.561   9.046   7.727  1.5243  2.4079  2.5913
  567MOL0     H78198   2.441   8.785   7.819 -0.5649  1.1366  1.2948
  567MOL0     H78199   2.394   8.887   7.680 -0.3892 -0.5445  1.4889
  567MOL0     H78200   2.522   8.705   7.577 -0.6942 -2.4893  1.1329
  567MOL0     H78201   2.645   8.829   7.595  1.0054 -2.7705 -2.0810
  567MOL0     H78202   2.715   8.589   7.661 -1.1950  0.6059 -0.0464
  567MOL0     H78203   2.754   8.721   7.771 -0.7865  3.3486 -2.5518
  567MOL0     H78204   2.484   8.513   8.031 -0.7563  1.3997  2.4762
  567MOL0     H78205   2.435   8.357   8.184  0.1373  1.2264 -0.0375
  567MOL0     H78206   2.552   8.401   8.312 -1.1926  0.9033 -0.6240
  567MOL0     H78207   2.557   8.239   8.251 -2.6824  0.0966  2.9602
  567MOL0     H78208   3.245   8.194   8.173  1.7824  1.5911  1.5902
  567MOL0     H78209   3.391   8.123   8.341 -0.0180 -0.5478  3.0536
  567MOL0     H78210   3.269   7.821   8.647  0.5547  0.3725  0.0311
  567MOL0     H78211   3.329   7.766   8.487 -1.2265  1.4220 -1.2679
  567MOL0     H78212   3.554   7.834   8.556  1.6089  4.1400  2.8019
  567MOL0     H78213   3.482   7.881   8.709 -3.9515 -0.6532  0.5079
  567MOL0     H78214   3.423   7.625   8.728 -0.2988 -2.4810 -1.5530
  567MOL0     H78215   3.591   7.658   8.757 -0.9263 -2.6429 -0.0993
  567MOL0     H78216   3.466   7.562   8.497  1.4843  1.0134 -0.7177
  567MOL0     H78217   3.529   7.456   8.622 -0.7314 -0.8786 -1.4377
  567MOL0     H78218   3.683   7.655   8.460 -5.4103  1.4704  0.4618
  567MOL0     H78219   3.756   7.525   8.571 -0.1885  0.2752 -0.2722
  567MOL0     H78220   3.592   7.464   8.320  2.5399 -0.1535 -2.8682
  567MOL0     H78221   3.655   7.356   8.434  0.0019  0.3519 -0.7511
  567MOL0     H78222   3.889   7.487   8.377 -2.8694  2.8743  1.4336
  567MOL0     H78223   3.798   7.527   8.233 -0.7594  2.0824  2.2753
  567MOL0     H78224   3.875   7.258   8.354 -0.0045 -1.2506 -1.4146
  567MOL0     H78225   3.930   7.324   8.205 -0.0158  1.4203 -1.0504
  567MOL0     H78226   3.087   7.929   8.551 -1.0420 -0.8279 -1.0435
  567MOL0     H78227   2.911   8.030   8.407 -0.7779 -1.1274 -2.2398
  567MOL0     H78228   2.955   8.357   7.990  0.5722  2.0371 -2.0839
  567MOL0     H78229   2.848   8.493   7.817  2.8615 -2.1297  0.6609
  567MOL0     H78230   1.441   9.542   8.461  1.2145 -0.7812 -0.8622
  567MOL0     H78231   1.218   9.459   8.491  2.2890 -0.3865  1.0851
  567MOL0     H78232   0.851   9.404   8.375  0.2880 -0.3453  1.6108
  567MOL0     H78233   0.599   9.355   8.403 -0.7596 -0.8257  1.3765
  567MOL0     H78234   0.449   8.978   8.287 -1.0820  0.5740 -0.3003
  567MOL0     H78235   0.450   8.945   8.454  1.0464  0.6295  0.2280
  567MOL0     H78236   0.246   9.090   8.489  1.9457 -2.6285  2.3010
  567MOL0     H78237   0.215   8.964   8.370 -1.2501  0.0893 -2.2473
  567MOL0     H78238   0.251   9.250   8.302 -0.9925  0.3856 -0.9551
  567MOL0     H78239   0.290   9.122   8.188 -1.9011 -0.4241 -1.0783
  567MOL0     H78240   0.039   9.226   8.179 -1.2486 -1.2309 -2.1338
  567MOL0     H78241   0.018   9.130   8.320 -1.3261 -0.4239 -0.6344
  567MOL0     H78242   0.058   8.831   8.009  1.4229  0.8743 -0.4472
  567MOL0     H78243   0.696   8.936   8.410  0.7404 -0.3399 -0.5114
  567MOL0     H78244   0.874   8.859   8.400  0.9578 -0.1374  2.0566
  567MOL0     H78245   1.020   8.938   8.330  1.2459 -2.2266 -0.1754
  567MOL0     H78246   0.998   8.954   8.503 -0.5375  1.5056  0.3995
  568MOL0     O78247   0.057   5.548   8.158 -0.2823 -0.8106  0.0594
  568MOL0     C78248   0.031   5.591   8.270  0.0247 -0.0534 -0.4166
  568MOL0     O78249   0.096   5.686   8.335  0.1909 -0.3716  0.4343
  568MOL0     C78250   0.197   5.759   8.285 -0.4831 -0.7844 -0.0066
  568MOL0     C78251   0.194   5.894   8.277  0.5418 -0.1981  0.6881
  568MOL0     C78252   0.301   5.979   8.248  0.3387  0.1400 -0.0564
  568MOL0     C78253   0.412   5.915   8.190 -0.2428 -0.1884  0.1214
  568MOL0     O78254   0.515   5.994   8.144  0.7065  0.4441 -0.7582
  568MOL0     C78255   0.513   6.017   7.999 -0.2738 -0.4483 -0.5571
  568MOL0     C78256   0.644   6.078   7.961 -0.3444 -0.2811 -0.0460
  568MOL0     C78257   0.663   6.213   8.026  0.2196 -0.2438 -0.6488
  568MOL0     C78258   0.779   6.293   7.966  0.2581  0.5715  0.2861
  568MOL0     C78259   0.796   6.425   8.048 -0.5450 -0.5604 -0.4484
  568MOL0     C78260   0.938   6.482   8.018 -0.2396  0.3000  0.3041
  568MOL0     C78261   0.975   6.583   8.116 -0.0386  0.7321 -0.0884
  568MOL0     C78262   1.069   6.686   8.052  0.5345 -0.4616  0.5255
  568MOL0     N78263   1.123   6.774   8.157  0.0648  0.0756  0.1270
  568MOL0     C78264   1.239   6.763   8.235 -1.1069 -0.0241  0.1115
  568MOL0     C78265   1.231   6.878   8.315 -0.0623  0.4083 -0.1211
  568MOL0     C78266   1.347   6.901   8.406 -0.6977  1.0813 -0.0471
  568MOL0     C78267   1.444   6.998   8.341  0.6282 -0.9046  0.0512
  568MOL0     C78268   1.385   7.138   8.308  0.7496  0.0667 -0.4937
  568MOL0     C78269   1.485   7.243   8.268 -0.1201  0.0900 -0.0130
  568MOL0     O78270   1.577   7.276   8.382 -0.1198  0.6873  0.4210
  568MOL0     C78271   1.712   7.309   8.360  0.3194  0.0779 -0.2636
  568MOL0     C78272   1.776   7.362   8.475 -0.1111  0.0761  0.2420
  568MOL0     C78273   1.911   7.395   8.478  0.2809 -0.5187 -0.5777
  568MOL0     C78274   1.961   7.456   8.607 -0.1008 -0.2321  0.6991
  568MOL0     C78275   1.989   7.383   8.362  0.4949  1.1107 -0.2844
  568MOL0     C78276   2.130   7.432   8.345 -0.1328  1.0059 -1.0754
  568MOL0     O78277   2.178   7.542   8.426 -0.4250  0.4809  0.4002
  568MOL0     C78278   2.313   7.578   8.416  0.9250  0.5466  0.0244
  568MOL0     C78279   2.351   7.697   8.351  0.3158 -0.4606  0.9929
  568MOL0     C78280   2.487   7.731   8.354 -0.3168  0.1716 -0.4098
  568MOL0     C78281   2.583   7.649   8.414  0.1417 -1.1802 -0.0949
  568MOL0     O78282   2.714   7.676   8.407 -0.1216  0.0340  0.5538
  568MOL0     C78283   2.755   7.760   8.294  0.0493 -1.1556 -0.3264
  568MOL0     C78284   2.909   7.728   8.283 -0.0297  0.5609 -0.2216
  568MOL0     C78285   2.948   7.589   8.233  0.6561  0.1738 -0.2407
  568MOL0     C78286   3.095   7.549   8.257  1.1115  0.1604  0.1602
  568MOL0     C78287   3.106   7.409   8.316  0.0036  0.2903  0.3533
  568MOL0     C78288   3.042   7.392   8.454  0.2096  0.8364 -0.8242
  568MOL0     C78289   3.054   7.249   8.503 -0.0428  0.4070 -0.3379
  568MOL0     C78290   2.996   7.239   8.644  0.2302 -0.3407  0.3631
  568MOL0    Cl78291   2.813   7.263   8.635  0.3379  0.5686  0.0356
  568MOL0     C78292   2.547   7.524   8.470  0.9501 -1.3360  0.4715
  568MOL0     C78293   2.412   7.499   8.471 -0.5738 -0.3452  0.2186
  568MOL0     O78294   2.201   7.363   8.273 -0.1211 -0.9971  1.1277
  568MOL0     C78295   1.917   7.332   8.249  0.2928 -0.3116 -0.6352
  568MOL0     C78296   1.783   7.294   8.245 -0.7096 -0.4933  1.2314
  568MOL0     N78297   1.122   6.951   8.289  0.0093 -0.8292  0.2776
  568MOL0     N78298   1.063   6.889   8.192  0.1321 -0.8580 -0.7865
  568MOL0     C78299   0.423   5.777   8.189  0.4169  0.0803 -0.4404
  568MOL0     C78300   0.318   5.703   8.241  0.4961  0.0844  0.6085
  568MOL0     C78301  -0.090   5.537   8.328 -0.3915  0.2602 -0.6267
  568MOL0     C78302  -0.076   5.501   8.465 -0.1936 -0.2701 -0.0585
  568MOL0     C78303  -0.194   5.455   8.527  0.8617 -0.6098 -0.2654
  568MOL0     C78304  -0.313   5.423   8.455 -0.5244  0.6460  0.0730
  568MOL0     O78305  -0.406   5.355   8.534  0.2903  0.3518 -0.0979
  568MOL0     C78306  -0.509   5.294   8.466  0.0876 -0.0612  0.2549
  568MOL0     C78307  -0.626   5.382   8.436 -0.4377  0.3885  0.0354
  568MOL0     C78308  -0.732   5.296   8.355  0.4237  1.3340  0.1975
  568MOL0     C78309  -0.869   5.365   8.341 -0.3719  0.7057  0.4499
  568MOL0     C78310  -0.839   5.488   8.275  0.3058 -1.0693 -0.3680
  568MOL0     C78311  -0.788   5.594   8.231 -0.4859  0.4540 -0.5942
  568MOL0     C78312  -0.323   5.457   8.319 -1.0381 -0.0873 -0.5190
  568MOL0     C78313  -0.213   5.516   8.255  0.7371 -0.3853 -0.1517
  568MOL0     C78314  -0.239   5.576   8.116 -0.5171 -0.5274 -0.0340
  568MOL0     H78315   0.093   5.933   8.290  0.7196  0.9272 -0.9901
  568MOL0     H78316   0.297   6.088   8.249 -0.3791  0.1156  0.8509
  568MOL0     H78317   0.442   6.098   7.983  0.8580  0.9271  1.0269
  568MOL0     H78318   0.484   5.927   7.944  0.0142 -0.6009 -0.4594
  568MOL0     H78319   0.731   6.019   7.992 -0.4914 -0.4653  0.0199
  568MOL0     H78320   0.637   6.083   7.852 -1.0947 -2.2338 -0.1235
  568MOL0     H78321   0.572   6.275   8.025  0.4857  0.6815  4.4348
  568MOL0     H78322   0.688   6.204   8.132 -1.8467  0.4734 -0.0481
  568MOL0     H78323   0.864   6.223   7.967 -0.7760 -0.7501  2.0525
  568MOL0     H78324   0.757   6.323   7.863 -0.4578 -1.4535 -0.2111
  568MOL0     H78325   0.777   6.407   8.155 -3.6055  0.4340 -0.7418
  568MOL0     H78326   0.710   6.487   8.024 -2.2339 -2.5379  0.2100
  568MOL0     H78327   1.012   6.402   8.023  1.0553  1.3027 -1.2800
  568MOL0     H78328   0.945   6.534   7.922 -1.3636  5.8252  2.8116
  568MOL0     H78329   1.019   6.543   8.207  1.6535  4.2329  0.8326
  568MOL0     H78330   0.894   6.647   8.151 -1.1443  0.2791 -1.7129
  568MOL0     H78331   1.149   6.634   7.997  2.7549  2.3383  0.8767
  568MOL0     H78332   1.015   6.753   7.985 -0.5499 -1.5722  0.2578
  568MOL0     H78333   1.318   6.688   8.230 -0.2851  0.6901  1.8424
  568MOL0     H78334   1.390   6.803   8.429  0.4332  1.7928  1.0101
  568MOL0     H78335   1.307   6.952   8.495  0.0379  0.4550  0.6624
  568MOL0     H78336   1.525   7.024   8.410  0.8369  0.6918 -0.7400
  568MOL0     H78337   1.502   6.949   8.263  0.4446 -0.5707 -0.3030
  568MOL0     H78338   1.311   7.129   8.228 -3.1976 -0.1173  2.8229
  568MOL0     H78339   1.320   7.179   8.386 -0.3831 -1.9491 -0.3012
  568MOL0     H78340   1.550   7.201   8.190  0.3490  0.1166  0.3577
  568MOL0     H78341   1.433   7.331   8.228  0.6365 -1.0200 -3.9166
  568MOL0     H78342   1.716   7.370   8.565  1.4336 -1.4442  1.4553
  568MOL0     H78343   2.059   7.428   8.646 -1.4900 -1.3987  3.6769
  568MOL0     H78344   1.897   7.439   8.694 -0.0451 -2.3439  0.3715
  568MOL0     H78345   1.964   7.562   8.580 -2.5827 -0.6640 -1.7173
  568MOL0     H78346   2.281   7.764   8.303  0.2013 -1.3510 -0.1395
  568MOL0     H78347   2.512   7.825   8.306  2.6139 -0.9003 -1.1725
  568MOL0     H78348   2.702   7.738   8.200 -0.4311 -3.4995  0.4268
  568MOL0     H78349   2.742   7.864   8.326 -0.5851 -0.1698 -3.4327
  568MOL0     H78350   2.960   7.802   8.220  0.8924  0.6101  0.5532
  568MOL0     H78351   2.963   7.744   8.376  0.2371  2.8494 -0.7054
  568MOL0     H78352   2.941   7.599   8.125 -2.1902  3.5308  0.0361
  568MOL0     H78353   2.881   7.511   8.269  4.0891 -1.8433  2.4535
  568MOL0     H78354   3.150   7.625   8.313 -0.6507  2.3008 -0.8521
  568MOL0     H78355   3.136   7.550   8.156  1.6090  4.1879  0.2577
  568MOL0     H78356   3.063   7.332   8.251 -0.6179  0.5584  0.4446
  568MOL0     H78357   3.214   7.387   8.313  0.2539  1.4883 -0.4356
  568MOL0     H78358   2.933   7.400   8.444 -0.2183 -2.2643  0.2421
  568MOL0     H78359   3.080   7.466   8.525 -1.1599  0.7690  0.0052
  568MOL0     H78360   3.160   7.222   8.498 -0.5629 -1.6496 -1.5006
  568MOL0     H78361   2.995   7.179   8.444 -0.7491 -1.5462  2.5136
  568MOL0     H78362   3.044   7.309   8.713  2.1178  0.6143 -1.8315
  568MOL0     H78363   3.018   7.148   8.701 -0.4213 -0.2996  0.6907
  568MOL0     H78364   2.623   7.467   8.522 -0.3454 -0.7941  3.0764
  568MOL0     H78365   2.374   7.413   8.524  1.4105 -0.4464  1.5999
  568MOL0     H78366   1.978   7.316   8.160  0.7931  1.9272 -0.7461
  568MOL0     H78367   1.736   7.263   8.153  0.2999 -1.6447  1.0714
  568MOL0     H78368   0.516   5.734   8.153  0.1992 -2.3291  1.5350
  568MOL0     H78369   0.327   5.596   8.227  0.6642  0.1901 -0.1391
  568MOL0     H78370   0.013   5.511   8.527 -1.0216  1.9054  0.8753
  568MOL0     H78371  -0.192   5.438   8.634  3.4436  2.8224  0.4057
  568MOL0     H78372  -0.470   5.256   8.371 -0.7822  2.1832 -1.0865
  568MOL0     H78373  -0.539   5.201   8.513 -1.2869  0.7363  1.0218
  568MOL0     H78374  -0.586   5.467   8.381 -0.1317 -0.0947 -0.4989
  568MOL0     H78375  -0.671   5.426   8.526 -1.1294 -0.3274  0.0609
  568MOL0     H78376  -0.690   5.269   8.258  1.0088 -3.2066  1.4412
  568MOL0     H78377  -0.745   5.200   8.406  0.6630  1.7475  1.0578
  568MOL0     H78378  -0.921   5.372   8.437  1.6694 -1.7423  1.8570
  568MOL0     H78379  -0.938   5.308   8.278 -3.5390  2.4154  2.1042
  568MOL0     H78380  -0.745   5.679   8.182 -0.4070 -0.2790 -1.8233
  568MOL0     H78381  -0.412   5.438   8.260  0.3099 -1.5439 -2.1784
  568MOL0     H78382  -0.346   5.595   8.116 -0.5896 -0.9290 -0.1397
  568MOL0     H78383  -0.181   5.668   8.104 -0.1664 -0.9032 -1.3242
  568MOL0     H78384  -0.219   5.506   8.035  0.1656  0.0531 -0.3767
  569MOL0     O78385   6.239   2.848   8.651 -0.0896 -0.5701  0.5420
  569MOL0     C78386   6.141   2.772   8.649 -0.4958 -0.1883  0.3097
  569MOL0     O78387   6.159   2.635   8.636  0.1349  0.2319  0.4510
  569MOL0     C78388   6.283   2.586   8.597 -0.6893 -0.4082 -0.1144
  569MOL0     C78389   6.382   2.581   8.689  0.3547 -0.0668 -0.4828
  569MOL0     C78390   6.514   2.537   8.651 -0.2334 -0.0470  0.3487
  569MOL0     C78391   6.533   2.484   8.528  0.5740  0.5220 -0.0151
  569MOL0     O78392   6.663   2.444   8.498  0.2057 -0.4045 -0.0670
  569MOL0     C78393   6.694   2.420   8.359  0.1481  0.3918  0.2582
  569MOL0     C78394   6.839   2.375   8.348 -0.5043 -0.8453  0.4500
  569MOL0     C78395   6.933   2.507   8.355  0.0929  0.0944  0.7622
  569MOL0     C78396   7.076   2.482   8.391 -0.2228  0.1378  0.3198
  569MOL0     C78397   7.158   2.600   8.351 -0.2466 -0.0888 -0.5868
  569MOL0     C78398   7.311   2.568   8.353 -0.4507  0.0325  0.2477
  569MOL0     C78399   7.398   2.699   8.342 -0.0871 -0.2060 -0.6601
  569MOL0     C78400   7.550   2.667   8.359  1.3188 -0.1950 -0.0628
  569MOL0     N78401   7.637   2.773   8.324 -0.2083  0.2904  0.2697
  569MOL0     C78402   7.638   2.892   8.379  0.1226 -0.7656  0.5414
  569MOL0     C78403   7.701   2.967   8.283  0.6611  0.0515 -0.3476
  569MOL0     C78404   7.728   3.111   8.302  0.1966 -0.7291  0.0871
  569MOL0     C78405   7.871   3.133   8.357  0.4354 -0.4680 -0.0006
  569MOL0     C78406   7.917   3.272   8.329 -0.3486  0.1514 -0.2712
  569MOL0     C78407   8.064   3.287   8.335  0.2456  0.2326  0.5287
  569MOL0     O78408   8.116   3.300   8.472  0.8789  0.1311  0.0793
  569MOL0     C78409   8.249   3.278   8.486 -0.7723 -0.0396  0.1189
  569MOL0     C78410   8.300   3.245   8.616  0.5372 -0.7155 -0.3972
  569MOL0     C78411   8.434   3.236   8.649  0.5707  0.2788 -0.4912
  569MOL0     C78412   8.465   3.201   8.796 -0.2856  0.1636  0.5569
  569MOL0     C78413   8.529   3.236   8.539  0.0777  1.0169 -0.0306
  569MOL0     C78414   8.673   3.212   8.552 -1.2492 -0.2388 -0.1147
  569MOL0     O78415   8.710   3.090   8.614 -0.1389  0.0008 -0.1370
  569MOL0     C78416   8.847   3.053   8.625  0.1295  0.3470 -0.4660
  569MOL0     C78417   8.946   3.065   8.526  0.1014 -0.2196 -0.2797
  569MOL0     C78418   9.073   3.016   8.543 -0.4398  0.1776 -0.1519
  569MOL0     C78419   9.117   2.971   8.669  0.1019  0.5641 -0.2499
  569MOL0     O78420   9.246   2.923   8.680 -0.1597 -0.0582  0.0539
  569MOL0     C78421   9.300   2.840   8.788 -0.5664  0.0258 -0.9324
  569MOL0     C78422   9.453   2.812   8.755 -0.4850  0.7589  0.0123
  569MOL0     C78423   9.540   2.927   8.792  0.6733  0.2909  0.2893
  569MOL0     C78424   9.549   2.949   8.942 -0.3643  0.2739  0.2882
  569MOL0     C78425   9.634   3.070   8.975 -0.3361  0.5991 -0.0678
  569MOL0     C78426   9.650   3.108   9.124 -0.0021 -0.6205  0.4941
  569MOL0     C78427   9.751   3.216   9.146  0.0498  0.1843 -0.1004
  569MOL0     C78428   9.773   3.238   9.297  0.7759 -0.8754  0.0066
  569MOL0    Cl78429   9.918   3.337   9.314  0.1492 -0.3871  0.4587
  569MOL0     C78430   9.023   2.964   8.776 -0.3302  0.8430 -0.8622
  569MOL0     C78431   8.891   3.003   8.750 -0.1553 -0.6057 -0.2325
  569MOL0     O78432   8.756   3.301   8.526  0.1327 -0.6157 -0.0529
  569MOL0     C78433   8.483   3.260   8.411 -0.1573  0.7523 -0.1729
  569MOL0     C78434   8.347   3.284   8.384 -0.0804  0.4624 -0.4877
  569MOL0     N78435   7.751   2.891   8.183 -0.0430  0.1950 -0.4417
  569MOL0     N78436   7.712   2.773   8.204  0.0824 -0.2605 -0.8383
  569MOL0     C78437   6.423   2.485   8.432  0.4408 -0.1889 -0.7620
  569MOL0     C78438   6.298   2.531   8.468  0.0281  0.3844  1.0639
  569MOL0     C78439   5.995   2.822   8.649  0.1220  0.7375 -0.6825
  569MOL0     C78440   5.895   2.729   8.619  0.4702  0.8883 -0.2382
  569MOL0     C78441   5.760   2.759   8.625  0.6115  0.2222  0.0212
  569MOL0     C78442   5.722   2.892   8.666 -1.4960  0.4139  0.4051
  569MOL0     O78443   5.597   2.932   8.680 -0.2888 -0.1968  0.5923
  569MOL0     C78444   5.487   2.830   8.692  0.6546 -0.0733  0.7001
  569MOL0     C78445   5.368   2.908   8.754 -0.2398  0.5397  0.2272
  569MOL0     C78446   5.252   2.816   8.782 -0.4272  0.5221  0.1219
  569MOL0     C78447   5.120   2.885   8.789  0.4642 -0.1172 -0.5569
  569MOL0     C78448   5.124   2.996   8.894 -0.3812  0.6603  0.0895
  569MOL0     C78449   5.119   3.084   8.981 -0.4494 -0.5058 -0.0050
  569MOL0     C78450   5.821   2.984   8.686  0.1612 -0.0015  0.0096
  569MOL0     C78451   5.955   2.955   8.675 -0.9984  0.0192  0.3191
  569MOL0     C78452   6.058   3.061   8.717  0.0509 -0.1398  0.2097
  569MOL0     H78453   6.364   2.640   8.778 -2.5483  0.9272 -1.5852
  569MOL0     H78454   6.602   2.528   8.714  1.1904  0.2007 -1.5206
  569MOL0     H78455   6.678   2.508   8.296  0.1792  1.6134  1.8776
  569MOL0     H78456   6.634   2.335   8.324  1.7801 -1.1107  0.9942
  569MOL0     H78457   6.872   2.299   8.420  0.2050 -1.8856 -0.9164
  569MOL0     H78458   6.848   2.321   8.253 -1.1640 -0.8200  0.3665
  569MOL0     H78459   6.925   2.560   8.259 -1.0841 -1.0808  0.1712
  569MOL0     H78460   6.893   2.573   8.433 -0.8913 -0.3447  0.6488
  569MOL0     H78461   7.077   2.477   8.500  0.2165  0.8028  0.3511
  569MOL0     H78462   7.111   2.384   8.357 -2.3440 -0.2525 -0.9234
  569MOL0     H78463   7.138   2.688   8.412 -0.5659  0.1220 -0.9867
  569MOL0     H78464   7.134   2.637   8.251  0.0506  2.9719  0.3811
  569MOL0     H78465   7.331   2.517   8.448  0.7640 -1.9204 -0.9860
  569MOL0     H78466   7.335   2.493   8.277 -2.7071  1.4648 -2.0414
  569MOL0     H78467   7.377   2.762   8.429  1.7549  0.5163 -0.6892
  569MOL0     H78468   7.396   2.760   8.250  5.9903  1.5307 -0.0627
  569MOL0     H78469   7.559   2.641   8.465 -0.9006  0.0602  0.2388
  569MOL0     H78470   7.563   2.583   8.290 -1.0532 -1.3094  0.7492
  569MOL0     H78471   7.586   2.909   8.473  0.0184  0.1962  0.3161
  569MOL0     H78472   7.654   3.155   8.370 -2.2473 -1.3271 -2.0045
  569MOL0     H78473   7.710   3.164   8.208 -1.5570 -0.7270  0.3802
  569MOL0     H78474   7.889   3.129   8.465  0.7329  1.4244  0.0561
  569MOL0     H78475   7.948   3.068   8.314  1.0547  0.0160  0.3596
  569MOL0     H78476   7.883   3.294   8.227 -3.7255 -0.1823  0.6827
  569MOL0     H78477   7.865   3.337   8.400  3.3567 -0.3008  3.2328
  569MOL0     H78478   8.114   3.204   8.283 -0.1136 -0.8018  1.7863
  569MOL0     H78479   8.093   3.380   8.285 -1.1189  0.6739  0.5243
  569MOL0     H78480   8.224   3.244   8.693 -1.6309 -0.5954 -2.4104
  569MOL0     H78481   8.571   3.223   8.808  0.2799 -0.6012 -2.3062
  569MOL0     H78482   8.456   3.092   8.807 -1.9671  0.0270 -1.4565
  569MOL0     H78483   8.393   3.247   8.865 -2.5454 -0.3529 -1.2980
  569MOL0     H78484   8.934   3.114   8.431  3.3260  0.7523 -0.3100
  569MOL0     H78485   9.150   3.039   8.470 -0.3514  0.1464 -0.0687
  569MOL0     H78486   9.290   2.895   8.882 -1.4433  1.3274 -1.7459
  569MOL0     H78487   9.243   2.747   8.793  0.3706 -0.4852  2.4964
  569MOL0     H78488   9.496   2.721   8.798 -0.6947  1.7223  2.3908
  569MOL0     H78489   9.463   2.797   8.647  0.0300  1.9731 -0.1249
  569MOL0     H78490   9.493   3.016   8.750  0.8242 -0.5367 -1.7772
  569MOL0     H78491   9.641   2.922   8.750  0.0817  0.0895 -1.1632
  569MOL0     H78492   9.596   2.855   8.974 -1.6464 -0.4259  0.1836
  569MOL0     H78493   9.446   2.962   8.977  0.1410  2.1215  1.2059
  569MOL0     H78494   9.733   3.051   8.932 -0.9852  0.6707 -1.6590
  569MOL0     H78495   9.601   3.160   8.923  1.1114 -0.0759 -2.3021
  569MOL0     H78496   9.676   3.014   9.175 -1.6922 -0.4018  1.8388
  569MOL0     H78497   9.559   3.147   9.168  1.1503 -0.5619  2.9946
  569MOL0     H78498   9.726   3.312   9.100 -0.0285  0.7641  1.1009
  569MOL0     H78499   9.845   3.189   9.098 -0.9456 -0.5967 -1.7186
  569MOL0     H78500   9.775   3.144   9.353  0.5977 -0.2314  1.1109
  569MOL0     H78501   9.684   3.291   9.333  0.3320 -2.1609  0.8852
  569MOL0     H78502   9.063   2.948   8.876  1.0447 -0.6895 -1.5983
  569MOL0     H78503   8.815   3.000   8.827  0.7407 -1.4375  0.6654
  569MOL0     H78504   8.556   3.260   8.331 -1.2780  0.6952 -1.2216
  569MOL0     H78505   8.317   3.315   8.284  0.3742  2.6687  0.0104
  569MOL0     H78506   6.444   2.446   8.333 -0.4491  3.6895 -2.6803
  569MOL0     H78507   6.214   2.516   8.401  0.9226  1.9132 -0.4765
  569MOL0     H78508   5.914   2.626   8.588 -1.3718 -0.5965  3.1178
  569MOL0     H78509   5.686   2.684   8.599  2.1909 -1.5241  0.3084
  569MOL0     H78510   5.458   2.800   8.591  3.2401 -1.0536  0.1692
  569MOL0     H78511   5.514   2.743   8.753 -0.6211 -0.1701  1.1652
  569MOL0     H78512   5.341   2.982   8.679 -1.7118 -0.5481 -0.3471
  569MOL0     H78513   5.403   2.958   8.845  0.2077  0.2837  0.2026
  569MOL0     H78514   5.245   2.745   8.699 -0.2939 -1.4395  1.7148
  569MOL0     H78515   5.270   2.762   8.876 -1.1461  0.6302  0.3243
  569MOL0     H78516   5.037   2.813   8.795 -0.9678  1.3196 -2.0528
  569MOL0     H78517   5.100   2.917   8.686  1.5607  2.6766  0.0130
  569MOL0     H78518   5.091   3.156   9.055 -4.2898 -1.2061 -0.5768
  569MOL0     H78519   5.779   3.080   8.715 -2.4727 -0.4512 -1.8831
  569MOL0     H78520   6.122   3.037   8.803  1.4313  0.1924 -0.6959
  569MOL0     H78521   6.126   3.074   8.632  2.2226 -0.6287  1.7810
  569MOL0     H78522   6.008   3.158   8.728  0.5140  0.3107 -1.4157
  570MOL0     O78523   6.104  10.027  10.828  0.0832  0.1973 -0.1367
  570MOL0     C78524   6.055  10.031  10.939  0.2715 -0.0647  0.5156
  570MOL0     O78525   6.104   9.969  11.051  0.9980  0.1160 -0.5042
  570MOL0     C78526   6.226   9.929  11.042 -0.4487  1.5401 -0.7516
  570MOL0     C78527   6.332  10.018  11.052 -0.0474  0.1882  0.2896
  570MOL0     C78528   6.462   9.975  11.037  0.4660  0.0819  0.3603
  570MOL0     C78529   6.498   9.844  11.011 -0.1430 -0.4649 -0.4953
  570MOL0     O78530   6.625   9.799  10.998 -0.4399 -0.4615  0.2526
  570MOL0     C78531   6.735   9.867  11.062  0.3916 -0.3139  1.4193
  570MOL0     C78532   6.870   9.793  11.037 -0.5269  0.3845 -0.6193
  570MOL0     C78533   6.892   9.748  10.882 -0.3347 -0.7372 -0.2549
  570MOL0     C78534   7.036   9.687  10.873 -0.3751 -0.1957  0.4238
  570MOL0     C78535   7.062   9.637  10.731  0.0594  1.6151 -0.7153
  570MOL0     C78536   7.209   9.594  10.725  0.0100 -0.0385  0.2718
  570MOL0     C78537   7.255   9.559  10.583  0.2157 -0.1328  0.4088
  570MOL0     C78538   7.404   9.592  10.563 -0.2945 -0.2946 -0.3430
  570MOL0     N78539   7.490   9.498  10.641  0.3243 -0.0299 -0.1165
  570MOL0     C78540   7.531   9.517  10.771 -0.2945 -0.2281  0.9186
  570MOL0     C78541   7.564   9.396  10.821  0.1574  0.7235 -0.0395
  570MOL0     C78542   7.615   9.348  10.959 -0.3226 -0.0358  0.3941
  570MOL0     C78543   7.512   9.378  11.080  0.3940  0.1285  0.3353
  570MOL0     C78544   7.375   9.317  11.071 -0.0290 -0.4950  1.1251
  570MOL0     C78545   7.265   9.410  11.128 -0.0435 -0.0142 -0.6906
  570MOL0     O78546   7.140   9.340  11.102  0.4747  1.0789  0.3683
  570MOL0     C78547   7.031   9.385  11.165 -0.4276 -0.2617 -0.1558
  570MOL0     C78548   6.913   9.314  11.139 -0.2057 -0.1876 -0.6434
  570MOL0     C78549   6.788   9.335  11.203  0.0104  0.5510  0.2847
  570MOL0     C78550   6.687   9.228  11.162 -0.3409  0.6269  0.2613
  570MOL0     C78551   6.773   9.441  11.293 -0.0492 -0.9007  0.0065
  570MOL0     C78552   6.640   9.480  11.357  1.1024  0.3439 -0.5486
  570MOL0     O78553   6.541   9.385  11.357  0.0233 -0.3573  0.1260
  570MOL0     C78554   6.416   9.425  11.394 -0.1800 -0.0599 -0.2605
  570MOL0     C78555   6.346   9.524  11.322  0.3044  0.5941 -0.4809
  570MOL0     C78556   6.217   9.559  11.361  0.6851 -0.4085 -0.6055
  570MOL0     C78557   6.156   9.507  11.480 -0.2087 -0.7284  0.2701
  570MOL0     O78558   6.029   9.559  11.518  0.6135 -0.1406  0.3748
  570MOL0     C78559   5.935   9.479  11.586 -0.7024  0.2345  0.3209
  570MOL0     C78560   5.800   9.554  11.610  0.0876  0.7605 -0.4957
  570MOL0     C78561   5.805   9.628  11.738  0.1311 -0.7195 -0.4545
  570MOL0     C78562   5.671   9.699  11.769 -0.7600  0.2440  0.4316
  570MOL0     C78563   5.567   9.598  11.816  0.1205 -0.2253 -0.3844
  570MOL0     C78564   5.589   9.553  11.965  0.0508 -0.1843  0.6162
  570MOL0     C78565   5.468   9.474  12.006 -0.4892  0.5654  0.0914
  570MOL0     C78566   5.436   9.478  12.156 -0.1844 -0.6269  1.4609
  570MOL0    Cl78567   5.555   9.373  12.231 -0.0252  0.1832  0.1259
  570MOL0     C78568   6.229   9.408  11.552  0.1947  0.4504 -1.1566
  570MOL0     C78569   6.355   9.369  11.513  0.5383 -0.7279  0.4733
  570MOL0     O78570   6.634   9.587  11.414  0.4510 -0.2655 -0.7927
  570MOL0     C78571   6.889   9.520  11.317  0.6350 -0.1470 -0.1548
  570MOL0     C78572   7.017   9.490  11.263 -0.4104 -0.4726 -1.0954
  570MOL0     N78573   7.566   9.308  10.713 -0.2414  0.3384 -0.5594
  570MOL0     N78574   7.522   9.365  10.604  0.3529 -0.0388 -0.0677
  570MOL0     C78575   6.394   9.752  11.010 -0.8494  0.3580 -0.1394
  570MOL0     C78576   6.262   9.794  11.017  0.1536  0.2510  0.9335
  570MOL0     C78577   5.916  10.089  10.947 -0.5819  0.5805  0.1723
  570MOL0     C78578   5.876  10.179  10.847  0.1439 -0.1135  0.0452
  570MOL0     C78579   5.747  10.239  10.865 -0.2206  0.1592  0.7241
  570MOL0     C78580   5.670  10.222  10.980 -0.1752 -0.1311  1.0523
  570MOL0     O78581   5.549  10.295  10.986  0.6733 -0.0638  1.1303
  570MOL0     C78582   5.434  10.225  11.035  0.3871 -0.1521  0.4094
  570MOL0     C78583   5.306  10.291  10.977 -0.4731 -0.7089 -0.4050
  570MOL0     C78584   5.173  10.246  11.043  0.8330 -0.6708  0.1070
  570MOL0     C78585   5.070  10.365  11.030 -0.0989 -0.2425  0.3004
  570MOL0     C78586   4.940  10.324  11.080  0.2391  0.5717  0.1295
  570MOL0     C78587   4.832  10.297  11.116 -0.0850 -0.1913 -0.4589
  570MOL0     C78588   5.714  10.142  11.071 -0.5536  0.3948  0.1347
  570MOL0     C78589   5.826  10.063  11.053 -0.5922 -0.3075  0.8584
  570MOL0     C78590   5.842   9.954  11.161  0.6692  0.3346 -0.9348
  570MOL0     H78591   6.324  10.126  11.067 -0.0459  0.1140  0.8621
  570MOL0     H78592   6.542  10.047  11.021  0.3720 -0.4954 -3.5178
  570MOL0     H78593   6.713   9.898  11.165 -0.9783  1.8399  0.5614
  570MOL0     H78594   6.751   9.961  11.008 -0.5430 -0.2267  1.2730
  570MOL0     H78595   6.959   9.846  11.070  0.1125  0.5143 -2.4499
  570MOL0     H78596   6.868   9.702  11.099  0.9637  0.5642 -0.2789
  570MOL0     H78597   6.826   9.665  10.854 -1.6962  0.2657 -0.1413
  570MOL0     H78598   6.884   9.840  10.824  0.1926  1.3945  2.8345
  570MOL0     H78599   7.110   9.764  10.895 -0.8104  0.1071  0.8564
  570MOL0     H78600   7.044   9.594  10.931 -0.5929 -1.5772 -1.6419
  570MOL0     H78601   7.048   9.714  10.655 -0.0451 -1.2567 -3.8433
  570MOL0     H78602   6.990   9.561  10.700  0.4536  2.2362 -3.3875
  570MOL0     H78603   7.274   9.674  10.761 -0.8008  1.2132 -0.9462
  570MOL0     H78604   7.219   9.513  10.798  0.6971  1.5895  2.0571
  570MOL0     H78605   7.195   9.612  10.509  2.0315 -0.9931 -1.7845
  570MOL0     H78606   7.240   9.452  10.565 -0.8904  0.3250 -1.7842
  570MOL0     H78607   7.430   9.560  10.461 -1.7634 -1.5429 -0.3679
  570MOL0     H78608   7.421   9.694  10.596  0.7048 -0.6974  0.4458
  570MOL0     H78609   7.517   9.612  10.822 -1.8802 -0.6197  1.2827
  570MOL0     H78610   7.705   9.405  10.983 -0.3078 -0.5641  1.6751
  570MOL0     H78611   7.650   9.245  10.966 -0.6077 -0.0518  1.7180
  570MOL0     H78612   7.546   9.340  11.176 -0.3702  1.7462  1.2793
  570MOL0     H78613   7.492   9.485  11.086 -3.6982 -0.3610 -0.9414
  570MOL0     H78614   7.360   9.310  10.963 -0.2305  1.4279  0.9822
  570MOL0     H78615   7.364   9.217  11.113 -0.4940 -0.7655  0.3820
  570MOL0     H78616   7.279   9.423  11.236 -0.4534  0.7355 -0.7263
  570MOL0     H78617   7.261   9.505  11.074 -0.8759  0.5316  0.2909
  570MOL0     H78618   6.925   9.237  11.063 -1.3273 -1.3332  0.3042
  570MOL0     H78619   6.689   9.142  11.230  1.1191  0.5154  0.1083
  570MOL0     H78620   6.718   9.198  11.062  0.6653  1.9273  0.1673
  570MOL0     H78621   6.587   9.272  11.156 -1.5324 -1.8441  0.7461
  570MOL0     H78622   6.388   9.561  11.229 -2.0846  1.9267 -1.1179
  570MOL0     H78623   6.155   9.630  11.307 -3.2760 -2.4338  0.8562
  570MOL0     H78624   5.913   9.389  11.528 -0.1244  0.4295 -0.2068
  570MOL0     H78625   5.973   9.439  11.680 -1.9210  0.8799  1.1098
  570MOL0     H78626   5.785   9.629  11.532 -1.6322  1.0321  0.0656
  570MOL0     H78627   5.719   9.481  11.616  0.8371 -0.1543 -1.0500
  570MOL0     H78628   5.886   9.701  11.735  1.6738 -2.3790 -1.6737
  570MOL0     H78629   5.823   9.567  11.827 -1.8790  0.8131  1.1062
  570MOL0     H78630   5.634   9.748  11.679 -0.9404  0.3107  0.5409
  570MOL0     H78631   5.705   9.779  11.836  0.3972 -1.3656  1.8890
  570MOL0     H78632   5.470   9.648  11.810  1.0289  1.6523 -0.3584
  570MOL0     H78633   5.560   9.499  11.770 -0.5789 -0.3535 -0.0132
  570MOL0     H78634   5.591   9.653  12.010 -2.0113  0.6800 -0.9984
  570MOL0     H78635   5.680   9.495  11.981 -1.4425 -3.5601 -1.9500
  570MOL0     H78636   5.485   9.371  11.971 -2.4618  0.0515  0.5004
  570MOL0     H78637   5.376   9.508  11.958  0.6562  0.2994 -2.4643
  570MOL0     H78638   5.331   9.451  12.169 -0.6513  0.9367  1.1547
  570MOL0     H78639   5.448   9.581  12.189 -0.6882 -0.5405  1.3858
  570MOL0     H78640   6.180   9.359  11.636  0.0935  0.0893 -1.4251
  570MOL0     H78641   6.413   9.289  11.559  1.2373 -0.1455  0.6283
  570MOL0     H78642   6.881   9.595  11.395 -2.1493  1.9018 -2.2146
  570MOL0     H78643   7.102   9.544  11.303 -2.5450  0.3929  2.7565
  570MOL0     H78644   6.419   9.647  10.996  0.0182  0.5754 -0.2451
  570MOL0     H78645   6.193   9.711  11.004 -0.9995  1.5349 -1.8789
  570MOL0     H78646   5.943  10.203  10.766 -0.5819  0.1036 -0.4999
  570MOL0     H78647   5.716  10.300  10.781 -1.5178 -0.9447  0.3645
  570MOL0     H78648   5.434  10.120  11.006  0.2344  0.2693 -1.2235
  570MOL0     H78649   5.431  10.235  11.144 -0.8599  0.1715  0.3558
  570MOL0     H78650   5.298  10.260  10.873 -1.7702 -2.0140  0.0446
  570MOL0     H78651   5.321  10.399  10.975  0.7029 -0.8389  0.2722
  570MOL0     H78652   5.133  10.150  11.007 -0.6537 -0.6784  1.6544
  570MOL0     H78653   5.176  10.231  11.151 -1.5057 -1.4508  0.1237
  570MOL0     H78654   5.064  10.398  10.926 -0.1725 -1.0380  0.0435
  570MOL0     H78655   5.091  10.451  11.095 -0.8132  1.5559 -1.7261
  570MOL0     H78656   4.730  10.284  11.146  0.3488  2.5217  2.8898
  570MOL0     H78657   5.655  10.140  11.163 -3.2419  0.4272 -1.4779
  570MOL0     H78658   5.742   9.926  11.196  0.1720  2.3484 -0.6140
  570MOL0     H78659   5.890   9.869  11.111  0.3325  0.2395 -1.0966
  570MOL0     H78660   5.885   9.998  11.252  0.2741 -0.5124 -0.3322
  571MOL0     O78661   9.269   7.191   4.433  0.4685  0.2870 -0.0999
  571MOL0     C78662   9.263   7.309   4.465 -0.2154  0.1553  0.0546
  571MOL0     O78663   9.369   7.387   4.495  0.0143 -0.0379 -0.4155
  571MOL0     C78664   9.468   7.330   4.576  0.5593  0.1268 -0.5812
  571MOL0     C78665   9.455   7.207   4.644  0.3814  0.5914  0.5199
  571MOL0     C78666   9.544   7.166   4.737 -0.0458 -0.9536 -0.3876
  571MOL0     C78667   9.671   7.233   4.737  0.8425 -0.1719  0.1608
  571MOL0     O78668   9.776   7.201   4.826  0.3744 -0.2628  0.6468
  571MOL0     C78669   9.750   7.087   4.920  0.0521 -0.2951  1.1938
  571MOL0     C78670   9.871   7.039   4.998 -0.0753 -0.5893 -0.7227
  571MOL0     C78671   9.914   7.148   5.102 -0.2388 -0.3290 -0.6573
  571MOL0     C78672  10.061   7.137   5.145 -0.7344  1.3425  0.3810
  571MOL0     C78673  10.097   6.983   5.158  0.9823 -0.3250 -0.5425
  571MOL0     C78674  10.219   6.965   5.245 -0.0536 -0.1507  0.2458
  571MOL0     C78675  10.335   7.030   5.173  1.0395 -1.0737 -0.6488
  571MOL0     C78676  10.472   6.996   5.237  0.5189 -0.4976 -1.0031
  571MOL0     N78677  10.467   7.041   5.381 -0.0704 -0.6548  0.6914
  571MOL0     C78678  10.435   7.168   5.425 -0.6969  0.5191  0.8069
  571MOL0     C78679  10.474   7.168   5.551 -0.7925  0.3828  0.0554
  571MOL0     C78680  10.449   7.267   5.666  0.1151 -0.9989  0.0192
  571MOL0     C78681  10.580   7.344   5.690 -0.9057 -0.2923 -1.0291
  571MOL0     C78682  10.681   7.257   5.757  0.1403  0.8633 -1.0036
  571MOL0     C78683  10.821   7.338   5.768 -0.8098  0.2803  0.3124
  571MOL0     O78684  10.918   7.234   5.797  0.0724  0.9606  0.0324
  571MOL0     C78685  11.049   7.264   5.801  0.3077  0.3986 -0.2182
  571MOL0     C78686  11.136   7.165   5.821 -0.2670 -0.2100  0.2924
  571MOL0     C78687  11.279   7.177   5.829  0.1509 -1.1304 -0.5832
  571MOL0     C78688  11.363   7.054   5.851 -0.9769  0.6062  0.0164
  571MOL0     C78689  11.331   7.309   5.815 -0.1274  0.4452  0.1411
  571MOL0     C78690  11.475   7.349   5.822 -0.0142 -0.3745  0.4529
  571MOL0     O78691  11.499   7.481   5.868 -0.2779 -0.2903  0.0014
  571MOL0     C78692  11.625   7.527   5.836  0.0324  0.0568 -0.0860
  571MOL0     C78693  11.691   7.519   5.713  0.2755 -0.0975  0.0869
  571MOL0     C78694  11.819   7.563   5.709 -0.2057 -0.5845 -0.0162
  571MOL0     C78695  11.885   7.622   5.825 -0.4146 -0.3620  0.5411
  571MOL0     O78696  12.019   7.661   5.821 -0.4784 -0.0055  0.3168
  571MOL0     C78697  12.109   7.593   5.724  0.2915  0.1773  0.1253
  571MOL0     C78698  12.225   7.686   5.731  0.5834 -0.4929  0.4561
  571MOL0     C78699  12.341   7.642   5.648  0.2546 -0.3414  0.3796
  571MOL0     C78700  12.426   7.544   5.728  0.1216 -0.4365 -0.1391
  571MOL0     C78701  12.549   7.505   5.641 -1.0812 -0.9233  0.5295
  571MOL0     C78702  12.663   7.607   5.648  0.1551 -0.5146 -0.3256
  571MOL0     C78703  12.795   7.553   5.602 -1.0168  0.2878 -0.2185
  571MOL0     C78704  12.907   7.658   5.587 -0.7441 -0.0538  0.4801
  571MOL0    Cl78705  13.062   7.564   5.548 -0.1236 -0.1361 -0.2350
  571MOL0     C78706  11.811   7.650   5.939 -0.1844 -0.0701  0.5929
  571MOL0     C78707  11.678   7.592   5.945 -0.9400  0.1062  1.3802
  571MOL0     O78708  11.558   7.261   5.788 -0.8730 -0.2951 -0.1313
  571MOL0     C78709  11.242   7.415   5.809 -0.5677 -0.1626 -0.2583
  571MOL0     C78710  11.104   7.394   5.803 -0.5548 -0.1654 -0.1869
  571MOL0     N78711  10.525   7.039   5.585 -0.5227 -0.1775  0.7443
  571MOL0     N78712  10.531   6.972   5.477 -0.8668  0.2088  0.2972
  571MOL0     C78713   9.687   7.348   4.667  0.4405 -0.1929  1.1004
  571MOL0     C78714   9.586   7.393   4.583  0.3102 -0.0547  0.4952
  571MOL0     C78715   9.121   7.375   4.472  0.5343 -0.1557 -1.1322
  571MOL0     C78716   9.120   7.512   4.512 -0.2264  0.1057  0.5335
  571MOL0     C78717   9.008   7.583   4.505 -0.0648 -0.3493 -0.2367
  571MOL0     C78718   8.887   7.527   4.471  0.5121  0.4990  0.3063
  571MOL0     O78719   8.773   7.607   4.474  0.8297 -0.0954 -0.0067
  571MOL0     C78720   8.641   7.556   4.443 -1.2091 -0.0631 -0.1144
  571MOL0     C78721   8.531   7.661   4.464  0.3255  0.1793 -0.9591
  571MOL0     C78722   8.543   7.774   4.370 -0.5190 -0.1618  0.4857
  571MOL0     C78723   8.444   7.879   4.410 -0.1957  0.0931  0.0717
  571MOL0     C78724   8.444   7.988   4.313  0.5642  0.2827  0.6196
  571MOL0     C78725   8.437   8.087   4.232  1.0029 -0.4057 -0.5875
  571MOL0     C78726   8.877   7.383   4.448 -0.2001  0.0456  0.2334
  571MOL0     C78727   8.994   7.303   4.452  0.8468 -0.7443  0.7186
  571MOL0     C78728   8.980   7.150   4.411 -0.5058 -0.7074 -0.8378
  571MOL0     H78729   9.364   7.148   4.645 -0.7347  2.2356  0.7287
  571MOL0     H78730   9.515   7.094   4.813 -1.2711 -1.1579 -1.0276
  571MOL0     H78731   9.717   7.003   4.858  0.6447 -1.2688  2.1583
  571MOL0     H78732   9.672   7.119   4.990 -1.0305  1.5051 -0.7188
  571MOL0     H78733   9.853   6.948   5.055  3.3191  0.1846  1.8953
  571MOL0     H78734   9.956   7.022   4.930  0.0565 -1.4645 -0.3484
  571MOL0     H78735   9.909   7.246   5.054  2.4037  0.5507  0.6788
  571MOL0     H78736   9.843   7.137   5.184  0.2778  0.6276 -0.0589
  571MOL0     H78737  10.125   7.183   5.070  2.0691 -3.5287 -0.6277
  571MOL0     H78738  10.075   7.195   5.237 -0.9067  1.5939  0.2520
  571MOL0     H78739  10.106   6.945   5.056 -0.0247  1.1676 -1.2285
  571MOL0     H78740  10.018   6.927   5.208  1.6276 -1.6530 -0.9594
  571MOL0     H78741  10.203   7.016   5.340  0.1378  0.4208 -0.0214
  571MOL0     H78742  10.239   6.858   5.259  3.5355  0.1723 -1.3380
  571MOL0     H78743  10.319   7.138   5.181 -0.5303 -1.4187  2.3890
  571MOL0     H78744  10.318   6.991   5.073 -3.6191 -1.4000  0.0594
  571MOL0     H78745  10.490   6.888   5.228  0.2870 -0.6239 -0.0269
  571MOL0     H78746  10.552   7.057   5.195  2.3493 -2.4675 -0.5801
  571MOL0     H78747  10.397   7.253   5.369  1.6388 -0.0900 -1.9380
  571MOL0     H78748  10.421   7.209   5.754  2.2341 -2.0649  0.0644
  571MOL0     H78749  10.365   7.335   5.645  0.3805 -1.0228 -1.2250
  571MOL0     H78750  10.617   7.386   5.596  0.7360  2.4599  0.6856
  571MOL0     H78751  10.555   7.416   5.769  1.0544  0.1689 -0.7797
  571MOL0     H78752  10.652   7.232   5.859  2.7206  2.1663  0.1614
  571MOL0     H78753  10.695   7.165   5.700 -0.8722 -0.6695  1.1196
  571MOL0     H78754  10.838   7.376   5.667  0.9599 -2.5212 -0.5476
  571MOL0     H78755  10.825   7.416   5.844 -0.1659  1.7486 -1.1745
  571MOL0     H78756  11.085   7.072   5.845  0.5388 -0.7316  0.0412
  571MOL0     H78757  11.308   6.974   5.901  0.5652 -0.9913 -0.7149
  571MOL0     H78758  11.440   7.078   5.924  0.7588  1.4382 -1.9688
  571MOL0     H78759  11.406   7.009   5.761  0.0308 -0.8293  1.1601
  571MOL0     H78760  11.642   7.468   5.631 -0.6942  1.3065 -0.2440
  571MOL0     H78761  11.873   7.526   5.623 -0.3932  1.2587 -0.9711
  571MOL0     H78762  12.130   7.492   5.759 -0.4011 -0.2508 -0.6794
  571MOL0     H78763  12.074   7.592   5.621  0.5886 -0.5469  0.0270
  571MOL0     H78764  12.184   7.783   5.701 -0.5195 -0.0702  3.0035
  571MOL0     H78765  12.255   7.697   5.836  1.5916 -1.5092  0.2804
  571MOL0     H78766  12.392   7.737   5.629 -0.0936 -0.2719 -0.2043
  571MOL0     H78767  12.309   7.599   5.553  0.6604 -2.6422  1.2099
  571MOL0     H78768  12.372   7.449   5.740  3.3243 -2.1891  1.9364
  571MOL0     H78769  12.456   7.583   5.825 -4.9610 -1.3220  2.1671
  571MOL0     H78770  12.592   7.411   5.677  0.6933 -0.6068 -0.6350
  571MOL0     H78771  12.527   7.500   5.533  1.2448 -1.0724  0.0112
  571MOL0     H78772  12.681   7.649   5.748  1.6195 -1.3984 -0.1856
  571MOL0     H78773  12.635   7.692   5.586 -0.2923 -0.4437 -0.0302
  571MOL0     H78774  12.790   7.506   5.503 -0.8725 -0.7544  0.2533
  571MOL0     H78775  12.830   7.478   5.674 -1.0002  0.7121  0.2135
  571MOL0     H78776  12.917   7.709   5.684  1.0531  1.9922 -0.6999
  571MOL0     H78777  12.880   7.738   5.518 -3.2768  0.2413  1.6825
  571MOL0     H78778  11.858   7.699   6.024  0.6365  0.9904 -0.4511
  571MOL0     H78779  11.638   7.603   6.045  1.3846  0.9292  2.2911
  571MOL0     H78780  11.263   7.521   5.820  0.2387 -0.3452  0.0129
  571MOL0     H78781  11.041   7.482   5.794 -2.1593 -1.2725 -0.2631
  571MOL0     H78782   9.776   7.409   4.661 -0.1631  0.5839 -3.3822
  571MOL0     H78783   9.588   7.473   4.510 -1.0176 -0.8538 -0.4358
  571MOL0     H78784   9.209   7.574   4.523 -0.3888  0.1173  1.8597
  571MOL0     H78785   9.029   7.680   4.548  3.2478 -1.4210  0.8263
  571MOL0     H78786   8.640   7.522   4.340  0.5683  0.4990 -0.3529
  571MOL0     H78787   8.614   7.476   4.512  0.9289 -2.2449 -1.6889
  571MOL0     H78788   8.526   7.694   4.568 -3.1703 -0.3848 -0.8308
  571MOL0     H78789   8.433   7.617   4.444  0.0912 -0.2412  0.9425
  571MOL0     H78790   8.646   7.812   4.375 -0.2811 -0.3091 -1.9170
  571MOL0     H78791   8.523   7.744   4.267 -0.8122  0.8160  0.2454
  571MOL0     H78792   8.463   7.928   4.507 -0.7883  0.2716  0.1066
  571MOL0     H78793   8.346   7.831   4.409  1.0421 -2.5779 -0.9055
  571MOL0     H78794   8.426   8.160   4.154 -3.8045 -2.7399 -2.5176
  571MOL0     H78795   8.780   7.338   4.429  1.1075 -2.3582 -1.3097
  571MOL0     H78796   9.061   7.085   4.446  0.8839  1.9105  1.1693
  571MOL0     H78797   8.887   7.105   4.447  1.3813 -3.8806  0.5157
  571MOL0     H78798   8.977   7.155   4.302  2.9565  0.0324 -1.0224
  572MOL0     O78799  11.020   5.883   3.154 -0.2578  0.0714 -0.2133
  572MOL0     C78800  10.979   5.766   3.166  0.6525 -0.1198 -0.6333
  572MOL0     O78801  11.053   5.662   3.225 -0.4655  0.9798 -0.1604
  572MOL0     C78802  11.189   5.683   3.203 -0.3669  0.1765  0.8254
  572MOL0     C78803  11.261   5.759   3.298 -0.3716  0.1022  1.1595
  572MOL0     C78804  11.387   5.803   3.275  0.4848 -0.5760  0.1228
  572MOL0     C78805  11.452   5.759   3.153 -0.0522 -0.0034 -0.4973
  572MOL0     O78806  11.585   5.806   3.144  0.5341 -0.2576  0.5014
  572MOL0     C78807  11.669   5.742   3.043 -0.7333  0.6146 -0.4021
  572MOL0     C78808  11.808   5.775   3.071  0.3725  0.4056  1.2413
  572MOL0     C78809  11.896   5.757   2.945 -0.4118  1.1903  0.1005
  572MOL0     C78810  11.996   5.631   2.948 -0.5090  0.4008 -0.4284
  572MOL0     C78811  12.034   5.583   2.806  0.2622  0.6964  0.9254
  572MOL0     C78812  12.153   5.669   2.761 -0.0365  0.0702 -0.7905
  572MOL0     C78813  12.208   5.610   2.624 -0.8440 -0.0997 -0.2078
  572MOL0     C78814  12.271   5.727   2.542 -0.2826  0.3922  0.3363
  572MOL0     N78815  12.395   5.756   2.618  0.1318  0.3290  0.3782
  572MOL0     C78816  12.421   5.867   2.691 -0.0052  0.5677 -0.3698
  572MOL0     C78817  12.551   5.864   2.725 -0.1893  1.1114  0.1212
  572MOL0     C78818  12.625   5.965   2.806 -0.3333 -0.0546 -0.0008
  572MOL0     C78819  12.678   5.902   2.941  0.2315 -0.1073  0.2414
  572MOL0     C78820  12.790   5.811   2.926  0.0370  0.1243  0.6249
  572MOL0     C78821  12.916   5.866   2.858 -0.0219 -0.6933 -0.7593
  572MOL0     O78822  12.960   5.989   2.924 -0.0645 -0.0595  0.3231
  572MOL0     C78823  13.084   6.036   2.920 -0.8300 -0.5041  1.2300
  572MOL0     C78824  13.137   6.125   3.013 -0.3713 -0.4305  0.1845
  572MOL0     C78825  13.265   6.172   3.011 -0.4948 -1.3511  0.1548
  572MOL0     C78826  13.306   6.256   3.138  0.1385 -0.3147  1.1316
  572MOL0     C78827  13.358   6.141   2.910  0.2408  0.4906  0.3670
  572MOL0     C78828  13.501   6.170   2.897 -0.1837  0.1313 -0.1646
  572MOL0     O78829  13.564   6.137   2.784 -0.1588  0.1809  0.2011
  572MOL0     C78830  13.695   6.159   2.765 -0.6849 -0.0880 -0.5258
  572MOL0     C78831  13.761   6.274   2.821  0.5878 -0.0780 -0.0918
  572MOL0     C78832  13.891   6.304   2.790  0.5729 -0.0351 -0.0219
  572MOL0     C78833  13.968   6.219   2.704 -0.9296 -0.0942  0.4801
  572MOL0     O78834  14.102   6.231   2.669  0.7182  0.1713  0.0150
  572MOL0     C78835  14.192   6.317   2.742  0.4049  0.3300  0.2438
  572MOL0     C78836  14.337   6.288   2.700  0.1651 -0.4853  0.4634
  572MOL0     C78837  14.387   6.164   2.764  0.2281  0.5866 -0.6124
  572MOL0     C78838  14.533   6.156   2.753 -0.0435 -0.9243  1.6023
  572MOL0     C78839  14.587   6.046   2.846 -0.6756  0.1494 -0.2503
  572MOL0     C78840  14.738   6.046   2.852 -0.5547 -0.7328  0.4556
  572MOL0     C78841  14.800   5.917   2.899  0.0305  0.2413  0.9751
  572MOL0     C78842  14.756   5.886   3.040 -0.8148  0.5086  0.2891
  572MOL0    Cl78843  14.592   5.816   3.057 -0.0958  0.0904 -0.0485
  572MOL0     C78844  13.896   6.104   2.646  0.3039 -1.1444  0.5640
  572MOL0     C78845  13.766   6.074   2.681  0.2544  0.4856  0.8302
  572MOL0     O78846  13.556   6.200   3.000 -0.4683  0.0266  0.5498
  572MOL0     C78847  13.305   6.053   2.812 -0.9268  0.7265  0.1935
  572MOL0     C78848  13.179   6.003   2.819  0.4130  0.0600  0.0312
  572MOL0     N78849  12.607   5.752   2.668 -0.6244  0.2844  0.4655
  572MOL0     N78850  12.514   5.690   2.596 -0.2063 -0.3422  0.0089
  572MOL0     C78851  11.385   5.681   3.056  0.1512 -0.0567  0.0654
  572MOL0     C78852  11.254   5.643   3.090 -0.6076  0.0871  0.5593
  572MOL0     C78853  10.845   5.733   3.111  0.4593 -0.3637 -0.5999
  572MOL0     C78854  10.793   5.602   3.136  0.4228 -1.0303 -0.4636
  572MOL0     C78855  10.674   5.561   3.084 -0.0878 -0.1908  0.7316
  572MOL0     C78856  10.600   5.642   2.999  0.5212 -0.3046  0.8589
  572MOL0     O78857  10.483   5.614   2.935 -0.0963  0.3465 -0.4095
  572MOL0     C78858  10.421   5.488   2.939 -0.7310 -0.1233  0.5007
  572MOL0     C78859  10.347   5.470   3.069  0.1719 -0.3994 -0.4747
  572MOL0     C78860  10.217   5.554   3.069 -0.3937  0.5140 -0.4575
  572MOL0     C78861  10.130   5.526   3.184  0.7108  0.5472 -0.2553
  572MOL0     C78862  10.050   5.403   3.166  0.0226 -0.0692  0.2330
  572MOL0     C78863  10.005   5.288   3.159  0.0357  0.2703  0.0921
  572MOL0     C78864  10.661   5.762   2.961 -0.1123 -1.0267 -0.3241
  572MOL0     C78865  10.774   5.816   3.026 -0.6857 -0.1071 -0.4328
  572MOL0     C78866  10.810   5.959   2.981  0.6611  0.4851  0.0771
  572MOL0     H78867  11.212   5.795   3.388  0.2752  1.2756  1.0595
  572MOL0     H78868  11.436   5.863   3.351  0.1337  0.1323 -0.1903
  572MOL0     H78869  11.642   5.767   2.940  2.0857 -0.2543 -1.4262
  572MOL0     H78870  11.657   5.633   3.046 -1.5665  0.7202  1.3967
  572MOL0     H78871  11.835   5.876   3.103  4.3175  0.5656 -1.8704
  572MOL0     H78872  11.847   5.708   3.148 -3.4794 -0.8416  2.3705
  572MOL0     H78873  11.840   5.755   2.851  0.5273  1.9331 -0.4873
  572MOL0     H78874  11.966   5.839   2.932  0.2031  0.9334  1.6605
  572MOL0     H78875  12.087   5.656   3.004  0.6659 -3.3274 -0.3850
  572MOL0     H78876  11.944   5.549   2.999  2.5023 -1.2936  0.1602
  572MOL0     H78877  11.949   5.578   2.737 -1.1028 -0.8172  2.6166
  572MOL0     H78878  12.071   5.480   2.811 -0.3152  0.5001  1.1909
  572MOL0     H78879  12.121   5.772   2.745 -0.5633 -0.1837 -1.3985
  572MOL0     H78880  12.229   5.665   2.840 -0.7360  1.1972 -0.0277
  572MOL0     H78881  12.118   5.573   2.574 -1.3133  0.5570  0.1231
  572MOL0     H78882  12.280   5.530   2.640 -1.0226 -0.4515 -1.1055
  572MOL0     H78883  12.299   5.686   2.444  1.4589 -1.3560  1.4962
  572MOL0     H78884  12.208   5.815   2.526  1.7647  1.9272  0.1498
  572MOL0     H78885  12.347   5.944   2.708  0.1678  0.6647 -0.0484
  572MOL0     H78886  12.557   6.048   2.825 -1.6888 -1.1762  0.2114
  572MOL0     H78887  12.707   6.011   2.749 -0.6172 -0.7184 -0.9884
  572MOL0     H78888  12.698   5.988   3.007 -1.0452 -0.2011  0.7955
  572MOL0     H78889  12.592   5.852   2.986 -0.7935  1.9229  0.6701
  572MOL0     H78890  12.818   5.788   3.029  3.0094 -3.0337 -0.7126
  572MOL0     H78891  12.774   5.713   2.882 -1.2890 -1.7930  4.8876
  572MOL0     H78892  12.998   5.793   2.854  2.2803  1.7828 -2.8087
  572MOL0     H78893  12.898   5.893   2.753 -0.9242  1.0339 -0.1935
  572MOL0     H78894  13.074   6.151   3.098 -1.4235  1.2456 -1.0472
  572MOL0     H78895  13.334   6.360   3.115  2.5765 -0.9811  0.7750
  572MOL0     H78896  13.393   6.206   3.182 -0.0160 -2.6866 -1.0208
  572MOL0     H78897  13.224   6.270   3.210  0.7097  1.3862  1.5093
  572MOL0     H78898  13.708   6.332   2.896  2.2596 -2.6668  3.3773
  572MOL0     H78899  13.940   6.398   2.812  0.3824 -0.2794  1.5343
  572MOL0     H78900  14.177   6.423   2.721  0.8326  0.6625  1.5500
  572MOL0     H78901  14.175   6.302   2.849 -0.5967  0.1241  0.0708
  572MOL0     H78902  14.345   6.296   2.592 -3.0427  0.5446  0.2100
  572MOL0     H78903  14.386   6.381   2.733  1.2817 -0.1391 -1.9860
  572MOL0     H78904  14.341   6.074   2.722 -1.6557  2.1037 -1.9916
  572MOL0     H78905  14.360   6.166   2.871 -2.0417 -2.7738 -0.9555
  572MOL0     H78906  14.579   6.255   2.755 -0.7869 -0.4635 -0.7051
  572MOL0     H78907  14.550   6.133   2.647  0.5303  0.5579  1.3507
  572MOL0     H78908  14.558   6.053   2.951  1.4336  0.7659  0.3505
  572MOL0     H78909  14.558   5.949   2.806  1.1610 -0.7098  0.3685
  572MOL0     H78910  14.773   6.130   2.913  0.9456  0.5182 -1.9452
  572MOL0     H78911  14.777   6.055   2.750  2.7419 -1.6669  1.4922
  572MOL0     H78912  14.908   5.914   2.886 -0.0970  1.0721 -0.5815
  572MOL0     H78913  14.755   5.839   2.836  1.6939 -0.2573  0.3683
  572MOL0     H78914  14.754   5.973   3.107 -0.2419 -2.1026  4.0280
  572MOL0     H78915  14.834   5.820   3.081  0.4018  0.6872 -1.6258
  572MOL0     H78916  13.946   6.046   2.569 -1.4933 -1.8780 -0.0838
  572MOL0     H78917  13.718   5.998   2.620  1.9583  0.7452 -0.9429
  572MOL0     H78918  13.372   6.015   2.735  0.9115  1.9099  1.1134
  572MOL0     H78919  13.161   5.935   2.737  0.3242  1.9095 -1.5507
  572MOL0     H78920  11.430   5.646   2.964  1.4019 -0.9686  0.9953
  572MOL0     H78921  11.205   5.576   3.021  1.7297 -1.3486  0.1712
  572MOL0     H78922  10.842   5.536   3.207  0.0038 -0.0723  0.7404
  572MOL0     H78923  10.640   5.462   3.111  2.6328 -1.3456  0.2142
  572MOL0     H78924  10.347   5.488   2.859  1.2092 -1.0446 -1.4016
  572MOL0     H78925  10.497   5.410   2.925  1.1456  1.3173  2.1563
  572MOL0     H78926  10.411   5.512   3.146 -1.2035  0.0214  0.4725
  572MOL0     H78927  10.326   5.365   3.090  1.5692 -0.5809  0.1081
  572MOL0     H78928  10.251   5.655   3.094  0.9476 -0.5367  2.5643
  572MOL0     H78929  10.165   5.554   2.973 -1.9992  3.1609  0.3198
  572MOL0     H78930  10.066   5.614   3.195  0.2860  0.2858 -0.6137
  572MOL0     H78931  10.183   5.505   3.277 -0.7975  0.5055  0.6385
  572MOL0     H78932   9.975   5.185   3.161  0.2755  0.1386 -1.6199
  572MOL0     H78933  10.604   5.829   2.898  0.6692  0.7907  0.8147
  572MOL0     H78934  10.755   5.989   2.891 -0.1891  0.0122  0.4269
  572MOL0     H78935  10.783   6.022   3.066  2.7910  1.0947  0.3634
  572MOL0     H78936  10.914   5.977   2.954  0.3150  1.5765 -0.6081
  573MOL0     O78937   8.455   5.386   8.977 -0.6439  0.3687  0.6640
  573MOL0     C78938   8.539   5.466   9.015 -0.1942  0.4082  0.0068
  573MOL0     O78939   8.670   5.431   9.033  0.6605 -0.2201 -0.1073
  573MOL0     C78940   8.713   5.308   9.004  0.0655 -0.4004 -0.0809
  573MOL0     C78941   8.713   5.220   9.106 -0.1410  0.6209 -0.9600
  573MOL0     C78942   8.753   5.088   9.083 -0.0672 -0.3026  0.4073
  573MOL0     C78943   8.790   5.047   8.955 -0.6066 -0.1185 -0.1504
  573MOL0     O78944   8.842   4.919   8.931 -0.0616  0.6001 -0.1136
  573MOL0     C78945   8.826   4.807   9.022  0.3542  0.7369 -0.2518
  573MOL0     C78946   8.937   4.706   8.989 -0.3110  0.0765 -0.2336
  573MOL0     C78947   9.071   4.744   9.050  0.9253  0.2249 -1.0020
  573MOL0     C78948   9.182   4.669   8.979 -0.7576  0.6429 -0.5262
  573MOL0     C78949   9.325   4.714   9.012  0.1885 -0.5957 -0.3792
  573MOL0     C78950   9.364   4.858   8.969 -0.0674  0.8756 -0.4890
  573MOL0     C78951   9.506   4.900   9.008  0.2498  0.4737 -0.3792
  573MOL0     C78952   9.542   5.046   8.973  0.6017 -0.4712  0.7216
  573MOL0     N78953   9.683   5.067   8.965 -0.2111 -0.2055  1.0107
  573MOL0     C78954   9.769   5.066   9.074  0.1265  0.2472 -0.0831
  573MOL0     C78955   9.885   5.023   9.019 -0.7984 -0.3719 -0.3316
  573MOL0     C78956  10.006   4.986   9.091  0.2715  0.2124 -0.1792
  573MOL0     C78957  10.065   5.093   9.178  0.4516  0.2970  0.2937
  573MOL0     C78958  10.069   5.231   9.105  0.0968 -1.5767  1.0850
  573MOL0     C78959  10.148   5.341   9.176  0.1581 -0.3167  0.6801
  573MOL0     O78960  10.281   5.291   9.189 -0.4241 -0.3342 -0.4916
  573MOL0     C78961  10.389   5.378   9.212  0.8020 -1.0209 -0.2304
  573MOL0     C78962  10.508   5.311   9.198  0.1974 -1.1060  1.1485
  573MOL0     C78963  10.625   5.383   9.212 -0.0763  0.3727  0.0037
  573MOL0     C78964  10.741   5.294   9.156 -0.0273 -1.3510 -0.0852
  573MOL0     C78965  10.624   5.521   9.245 -0.7744  0.6260  0.2534
  573MOL0     C78966  10.735   5.610   9.248 -0.5235  0.3463 -0.5277
  573MOL0     O78967  10.853   5.560   9.203 -0.8055 -0.2458  0.1113
  573MOL0     C78968  10.977   5.620   9.225 -0.4018  0.0801 -0.2284
  573MOL0     C78969  11.083   5.532   9.209  0.2914 -0.7310  0.0180
  573MOL0     C78970  11.210   5.581   9.218  0.3930 -0.7561  0.4595
  573MOL0     C78971  11.246   5.718   9.242  0.0501  0.7435 -0.0088
  573MOL0     O78972  11.377   5.749   9.257 -0.3059  1.2049 -0.0107
  573MOL0     C78973  11.459   5.653   9.333 -0.0190 -0.6488  0.1570
  573MOL0     C78974  11.575   5.745   9.394 -0.1329  0.3051  0.2305
  573MOL0     C78975  11.684   5.652   9.459 -0.7373 -0.2501 -0.1424
  573MOL0     C78976  11.802   5.734   9.500  0.2645 -0.0911  0.6867
  573MOL0     C78977  11.912   5.653   9.554 -0.7639  0.3347  0.4432
  573MOL0     C78978  12.009   5.730   9.649 -0.0786 -0.2847 -0.7352
  573MOL0     C78979  12.100   5.634   9.708  0.4371  0.8707 -0.1827
  573MOL0     C78980  12.148   5.679   9.853  0.4384  0.0156  0.8659
  573MOL0    Cl78981  12.297   5.773   9.835  0.3903 -0.0428 -0.0684
  573MOL0     C78982  11.145   5.803   9.238  0.1645 -0.1620 -0.0535
  573MOL0     C78983  11.013   5.756   9.240 -0.0749  0.3552 -0.4804
  573MOL0     O78984  10.727   5.725   9.295  0.1493  0.6715 -0.5824
  573MOL0     C78985  10.497   5.580   9.273  0.7328 -0.7161  0.0205
  573MOL0     C78986  10.380   5.509   9.261  0.2627  0.1801  0.2958
  573MOL0     N78987   9.876   5.014   8.882 -0.1429 -0.7293  0.0445
  573MOL0     N78988   9.755   5.042   8.848  0.7956  0.2640 -0.2188
  573MOL0     C78989   8.788   5.145   8.850 -0.4567 -0.0367  0.5789
  573MOL0     C78990   8.740   5.272   8.870  1.1644  0.0443  0.4301
  573MOL0     C78991   8.507   5.608   9.044  0.7974  0.3193  0.2481
  573MOL0     C78992   8.599   5.701   9.096  0.8715 -0.3527  0.1334
  573MOL0     C78993   8.562   5.831   9.122  0.0828  0.5722 -0.6577
  573MOL0     C78994   8.437   5.875   9.102 -0.2374  0.1897 -0.6053
  573MOL0     O78995   8.412   6.006   9.141  0.4172  0.0439 -0.5638
  573MOL0     C78996   8.283   6.064   9.125  0.5866  1.7321 -0.6532
  573MOL0     C78997   8.284   6.206   9.184 -0.8142 -0.9441 -0.1104
  573MOL0     C78998   8.343   6.297   9.075 -0.2363  0.3537 -0.7605
  573MOL0     C78999   8.255   6.344   8.965 -0.2351 -0.0774 -0.1018
  573MOL0     C79000   8.340   6.426   8.884  0.7788 -0.0828  1.1831
  573MOL0     C79001   8.421   6.505   8.831  0.4859  0.4302  0.2889
  573MOL0     C79002   8.333   5.792   9.055 -0.2586 -0.5677  0.3085
  573MOL0     C79003   8.370   5.659   9.019  0.4331  1.0628  0.2517
  573MOL0     C79004   8.254   5.587   8.946  0.0628 -0.8592  0.3107
  573MOL0     H79005   8.674   5.257   9.201  1.3978  2.2594 -0.9265
  573MOL0     H79006   8.761   5.022   9.169  2.0641 -0.4051  0.1747
  573MOL0     H79007   8.733   4.751   9.004  1.3246 -1.3006  0.7622
  573MOL0     H79008   8.842   4.839   9.126  1.5415  0.5881 -0.3840
  573MOL0     H79009   8.904   4.608   9.024 -1.6253  0.8603  0.7904
  573MOL0     H79010   8.952   4.697   8.881  1.0644 -2.0371  0.0565
  573MOL0     H79011   9.085   4.852   9.045 -0.6356  0.4205 -2.4104
  573MOL0     H79012   9.065   4.706   9.152  2.3618  0.3189 -0.8715
  573MOL0     H79013   9.167   4.564   9.008  0.0634 -0.5024 -3.8397
  573MOL0     H79014   9.170   4.687   8.872  3.6905  0.8443 -1.1775
  573MOL0     H79015   9.399   4.638   8.984  1.8758 -0.6958  3.6863
  573MOL0     H79016   9.339   4.728   9.120  1.5018  0.3599 -0.6414
  573MOL0     H79017   9.352   4.864   8.860  0.0078 -1.1708 -0.6536
  573MOL0     H79018   9.291   4.926   9.013 -3.3940 -2.7643  0.1507
  573MOL0     H79019   9.577   4.833   8.959 -1.2097 -1.1517 -0.3637
  573MOL0     H79020   9.515   4.886   9.117 -3.0463  1.1966  0.0881
  573MOL0     H79021   9.513   5.067   8.870 -1.5914 -1.5732  1.0458
  573MOL0     H79022   9.486   5.111   9.040  0.0802 -1.0155  0.8251
  573MOL0     H79023   9.742   5.097   9.174 -0.4946  0.9080 -0.4455
  573MOL0     H79024  10.085   4.945   9.029  0.8547  0.0097  0.6740
  573MOL0     H79025   9.980   4.902   9.157  0.2282  0.0013 -0.4651
  573MOL0     H79026  10.008   5.105   9.271  0.1254  2.3821 -0.1443
  573MOL0     H79027  10.163   5.056   9.211 -0.2633 -1.3988  0.6256
  573MOL0     H79028  10.125   5.203   9.016 -1.1399 -2.3202  0.5184
  573MOL0     H79029   9.968   5.265   9.080  0.1799 -1.1508  1.3176
  573MOL0     H79030  10.141   5.431   9.114 -2.6771 -0.9383 -0.0536
  573MOL0     H79031  10.095   5.365   9.268  0.4428  0.6515  0.5990
  573MOL0     H79032  10.504   5.212   9.153  2.1717  0.4738 -3.0874
  573MOL0     H79033  10.725   5.187   9.167  0.0402 -1.1799  2.1332
  573MOL0     H79034  10.836   5.318   9.204 -0.1111  1.6184 -1.1844
  573MOL0     H79035  10.751   5.324   9.051 -0.0503  0.4242  0.3933
  573MOL0     H79036  11.052   5.429   9.194 -0.7549 -0.5322  0.7015
  573MOL0     H79037  11.295   5.515   9.202  0.8923  0.2209 -1.1967
  573MOL0     H79038  11.392   5.609   9.407 -1.1743 -0.0933 -0.5412
  573MOL0     H79039  11.495   5.566   9.277  2.5940  0.9382 -0.7939
  573MOL0     H79040  11.614   5.810   9.315  2.9807  0.0095  1.3754
  573MOL0     H79041  11.539   5.820   9.464 -1.9015  2.3480 -2.6451
  573MOL0     H79042  11.698   5.560   9.401 -0.7275 -1.3904  1.5948
  573MOL0     H79043  11.633   5.625   9.552 -1.4271  0.7363 -0.2280
  573MOL0     H79044  11.784   5.819   9.567 -0.3385  2.3423 -2.3253
  573MOL0     H79045  11.847   5.777   9.410 -1.2844 -0.3935 -0.2715
  573MOL0     H79046  11.870   5.568   9.609 -2.0782  0.9482  0.4175
  573MOL0     H79047  11.959   5.606   9.467 -0.6057  1.6017 -0.1754
  573MOL0     H79048  11.967   5.784   9.735  0.4755 -0.3305 -0.4287
  573MOL0     H79049  12.066   5.801   9.588 -0.0499  1.1638  0.8985
  573MOL0     H79050  12.179   5.623   9.633 -3.4819 -0.3727 -4.6874
  573MOL0     H79051  12.049   5.538   9.724  0.6916  1.1667  2.9916
  573MOL0     H79052  12.170   5.593   9.916  0.4292 -0.1914  0.5866
  573MOL0     H79053  12.070   5.734   9.908 -0.4651 -0.1812 -0.1779
  573MOL0     H79054  11.158   5.910   9.237  1.1016 -0.2648 -0.1259
  573MOL0     H79055  10.932   5.828   9.243 -1.0813 -0.7580 -0.3493
  573MOL0     H79056  10.494   5.685   9.297  1.9277 -0.7876  0.5702
  573MOL0     H79057  10.287   5.563   9.273  0.9401  1.1706  1.3769
  573MOL0     H79058   8.824   5.124   8.750 -1.0729 -0.3493  0.4177
  573MOL0     H79059   8.727   5.338   8.786  1.1908 -0.6634 -0.1402
  573MOL0     H79060   8.695   5.665   9.132 -0.2042 -2.4764  1.0965
  573MOL0     H79061   8.634   5.900   9.166  0.6383  0.1655 -0.9110
  573MOL0     H79062   8.250   6.053   9.021 -0.3211  0.7481 -0.2814
  573MOL0     H79063   8.208   6.002   9.175  2.0438  0.3957 -0.0605
  573MOL0     H79064   8.357   6.222   9.263  0.5254  1.3349 -1.6972
  573MOL0     H79065   8.185   6.240   9.217 -0.9436 -0.4426 -0.9645
  573MOL0     H79066   8.393   6.384   9.118  0.2190 -0.8665  1.3431
  573MOL0     H79067   8.427   6.238   9.037  2.0235  2.2132  1.0526
  573MOL0     H79068   8.168   6.390   9.013  0.1069 -0.4020  0.8282
  573MOL0     H79069   8.219   6.258   8.908 -0.7280  1.0274 -1.5280
  573MOL0     H79070   8.491   6.568   8.780  2.6750 -2.3490 -0.3714
  573MOL0     H79071   8.233   5.832   9.043  0.3572  1.0227  0.2355
  573MOL0     H79072   8.277   5.530   8.856 -0.2031 -2.4155  1.1685
  573MOL0     H79073   8.195   5.523   9.014 -0.7458  1.1147  1.5519
  573MOL0     H79074   8.182   5.658   8.906  2.0367  1.0550  0.0000
  574MOL0     O79075   7.441   8.569   2.521 -0.1053  0.0700 -0.6986
  574MOL0     C79076   7.434   8.580   2.397  1.1100  0.0792  0.8088
  574MOL0     O79077   7.534   8.581   2.314 -0.2473 -0.0085 -0.8182
  574MOL0     C79078   7.664   8.562   2.366 -0.6967  1.2467 -0.2380
  574MOL0     C79079   7.760   8.662   2.338  0.4090 -0.1781  0.0335
  574MOL0     C79080   7.893   8.653   2.377  0.0805 -0.4402 -0.4020
  574MOL0     C79081   7.935   8.533   2.434 -0.6355 -0.1629 -1.0601
  574MOL0     O79082   8.066   8.530   2.491 -0.4015  0.5141 -0.0205
  574MOL0     C79083   8.168   8.505   2.391 -0.3244  0.6240 -0.1509
  574MOL0     C79084   8.253   8.633   2.361  0.1988 -0.4006  0.7011
  574MOL0     C79085   8.314   8.686   2.493 -0.1267  0.3458  0.7774
  574MOL0     C79086   8.415   8.799   2.471  0.2809  0.0805  0.3329
  574MOL0     C79087   8.358   8.929   2.411 -0.2884 -0.1066  0.4133
  574MOL0     C79088   8.346   8.940   2.256 -0.4226 -0.8998  0.7058
  574MOL0     C79089   8.363   9.081   2.198  0.5539  0.1202  0.2693
  574MOL0     C79090   8.283   9.189   2.263 -0.8906  0.0043 -0.4686
  574MOL0     N79091   8.141   9.157   2.245 -0.6378  0.1399  0.1432
  574MOL0     C79092   8.049   9.195   2.147 -0.9682 -0.1867  0.5176
  574MOL0     C79093   7.932   9.146   2.182 -0.2527 -0.7514 -0.8400
  574MOL0     C79094   7.802   9.172   2.107  1.0286  0.0916  0.6190
  574MOL0     C79095   7.678   9.231   2.186 -0.3944  0.1563  0.1975
  574MOL0     C79096   7.612   9.127   2.278 -0.8068 -0.0797  0.4533
  574MOL0     C79097   7.505   9.196   2.356 -0.4657 -0.3174 -0.1247
  574MOL0     O79098   7.391   9.214   2.277  0.1232 -0.2024 -0.1815
  574MOL0     C79099   7.283   9.270   2.343 -0.4838 -0.7678  0.2333
  574MOL0     C79100   7.273   9.326   2.473 -0.7515 -0.0969  0.3948
  574MOL0     C79101   7.154   9.384   2.522  0.2668 -0.3431  0.4618
  574MOL0     C79102   7.160   9.430   2.657  0.1061  0.5487 -1.0772
  574MOL0     C79103   7.035   9.377   2.433 -0.5072  0.2989 -0.5848
  574MOL0     C79104   6.911   9.441   2.471 -0.2843  0.7859  0.0111
  574MOL0     O79105   6.802   9.433   2.382 -0.1301  0.6200 -0.1571
  574MOL0     C79106   6.674   9.457   2.423 -0.3156 -0.1353 -0.2245
  574MOL0     C79107   6.622   9.400   2.548  0.2179  0.1687  0.4505
  574MOL0     C79108   6.488   9.425   2.586  0.1167  0.0926 -0.8780
  574MOL0     C79109   6.399   9.486   2.494  0.1758  0.6536  0.2615
  574MOL0     O79110   6.257   9.495   2.508  0.4737 -0.2245 -0.2998
  574MOL0     C79111   6.191   9.428   2.629 -0.3297  0.0098  0.2187
  574MOL0     C79112   6.043   9.431   2.634  0.0220  0.0229  0.5878
  574MOL0     C79113   5.979   9.351   2.747 -0.3018  0.4670 -0.7566
  574MOL0     C79114   5.828   9.369   2.743 -0.1790  0.0574  0.8400
  574MOL0     C79115   5.768   9.249   2.813 -0.4847 -0.2176  1.0471
  574MOL0     C79116   5.615   9.226   2.804 -0.1242 -0.2068 -0.5278
  574MOL0     C79117   5.559   9.234   2.667 -0.4344 -0.7473 -0.3508
  574MOL0     C79118   5.454   9.127   2.636 -0.3600  0.4658 -0.6594
  574MOL0    Cl79119   5.542   8.966   2.600  0.5876 -0.1996  0.2312
  574MOL0     C79120   6.440   9.526   2.371  0.3975 -1.3320 -0.5041
  574MOL0     C79121   6.577   9.514   2.336  0.6404 -0.3664  0.0836
  574MOL0     O79122   6.902   9.497   2.581  0.0747 -0.5332 -0.4307
  574MOL0     C79123   7.047   9.316   2.308 -0.1661 -0.9400 -0.2385
  574MOL0     C79124   7.169   9.278   2.260  1.0342  0.3013  0.2389
  574MOL0     N79125   7.946   9.087   2.307  0.4745  0.4799 -0.4714
  574MOL0     N79126   8.069   9.088   2.342  0.1002 -0.3233  0.4140
  574MOL0     C79127   7.852   8.429   2.453  0.8183  0.4592  0.4141
  574MOL0     C79128   7.716   8.444   2.423  0.3211  0.5365  0.4617
  574MOL0     C79129   7.300   8.562   2.326  0.1718 -0.4146  0.4425
  574MOL0     C79130   7.246   8.671   2.252  1.0369 -0.0381 -1.2654
  574MOL0     C79131   7.121   8.660   2.189 -0.6863 -0.4868 -0.4008
  574MOL0     C79132   7.049   8.542   2.195  0.3543 -0.7859 -0.3459
  574MOL0     O79133   6.931   8.525   2.125 -0.6467  0.3189  0.7612
  574MOL0     C79134   6.830   8.624   2.118 -0.4206 -0.6338 -0.6436
  574MOL0     C79135   6.763   8.645   2.253 -0.9726  0.4317  0.2420
  574MOL0     C79136   6.635   8.729   2.228  0.1716  0.3029  0.0056
  574MOL0     C79137   6.498   8.654   2.194 -0.7383  0.2398 -0.8347
  574MOL0     C79138   6.394   8.746   2.158  1.1127 -0.0806  0.3676
  574MOL0     C79139   6.286   8.803   2.140 -0.3703 -1.0790 -0.1059
  574MOL0     C79140   7.092   8.433   2.267  0.1324 -0.2807 -0.7109
  574MOL0     C79141   7.215   8.449   2.339 -0.0793  0.7690 -0.2944
  574MOL0     C79142   7.266   8.330   2.415 -0.2562  0.4745 -0.4676
  574MOL0     H79143   7.720   8.757   2.305  0.7820  0.3149  0.9579
  574MOL0     H79144   7.960   8.738   2.367  0.0748 -0.2351  1.0314
  574MOL0     H79145   8.123   8.454   2.305 -0.5229  3.0721 -1.5861
  574MOL0     H79146   8.243   8.437   2.432 -1.5941  0.0865  1.3753
  574MOL0     H79147   8.337   8.627   2.291 -0.3243  0.4912 -0.0343
  574MOL0     H79148   8.184   8.707   2.318  0.2906  0.2000  1.5451
  574MOL0     H79149   8.229   8.717   2.556 -1.2029 -1.9558  0.5688
  574MOL0     H79150   8.361   8.607   2.552 -1.3208  0.4893  1.9911
  574MOL0     H79151   8.444   8.822   2.574  0.2220 -1.0087  0.6053
  574MOL0     H79152   8.502   8.761   2.416 -0.2102  2.0781 -2.0057
  574MOL0     H79153   8.425   9.008   2.444 -1.5442  1.0261  0.3423
  574MOL0     H79154   8.260   8.951   2.455 -1.0950 -1.0570 -0.8432
  574MOL0     H79155   8.421   8.872   2.216 -1.2401 -0.4918 -1.6859
  574MOL0     H79156   8.251   8.896   2.222  0.5757 -3.2936  0.8350
  574MOL0     H79157   8.337   9.067   2.092  0.7088  1.3548  0.0564
  574MOL0     H79158   8.468   9.110   2.197  0.7307 -0.4641  1.2062
  574MOL0     H79159   8.308   9.215   2.366  0.0988 -2.7420  0.0456
  574MOL0     H79160   8.307   9.280   2.207 -0.2035  0.1425  0.0423
  574MOL0     H79161   8.073   9.255   2.060 -1.8366  0.1176  0.4748
  574MOL0     H79162   7.758   9.078   2.073 -0.8835  1.6017 -1.3191
  574MOL0     H79163   7.826   9.232   2.019 -0.9017 -1.0253 -0.7140
  574MOL0     H79164   7.704   9.322   2.241  2.3161  0.8162 -1.9533
  574MOL0     H79165   7.600   9.250   2.112 -0.8731 -2.1416  0.0343
  574MOL0     H79166   7.563   9.045   2.224 -1.0914 -0.2784  1.0060
  574MOL0     H79167   7.699   9.091   2.333 -0.3256 -0.0041 -0.2371
  574MOL0     H79168   7.475   9.134   2.441 -0.1758  0.9750  0.9614
  574MOL0     H79169   7.541   9.293   2.392 -2.5801  1.1843 -1.7377
  574MOL0     H79170   7.365   9.328   2.530  0.3573  0.8160 -1.3184
  574MOL0     H79171   7.079   9.380   2.709  0.7388 -2.4832 -2.7514
  574MOL0     H79172   7.154   9.539   2.653  0.9709  0.7469  1.3870
  574MOL0     H79173   7.254   9.403   2.706  1.1344  0.3040 -3.0712
  574MOL0     H79174   6.696   9.349   2.609  2.9982  1.6099 -1.4713
  574MOL0     H79175   6.457   9.376   2.677 -0.3320  1.5984 -0.1962
  574MOL0     H79176   6.228   9.326   2.613  0.5671  0.6437 -2.2647
  574MOL0     H79177   6.232   9.461   2.725 -1.1361  2.2050 -0.1518
  574MOL0     H79178   6.010   9.535   2.634 -0.1118 -0.0124  1.4695
  574MOL0     H79179   6.007   9.392   2.538 -0.0781 -1.7859  1.3065
  574MOL0     H79180   6.005   9.399   2.842  0.6792 -1.7505  0.1587
  574MOL0     H79181   6.018   9.249   2.748  0.4027  0.6874  1.8484
  574MOL0     H79182   5.793   9.388   2.641  1.5437  3.1511  0.7115
  574MOL0     H79183   5.803   9.460   2.798 -2.1918 -1.3342  2.3815
  574MOL0     H79184   5.810   9.162   2.762 -1.4738 -1.5001  2.3219
  574MOL0     H79185   5.802   9.243   2.917 -0.7949 -2.8073  1.0660
  574MOL0     H79186   5.570   9.301   2.870 -0.9557 -1.9428  0.9693
  574MOL0     H79187   5.599   9.125   2.843 -0.7982  0.1664  0.1823
  574MOL0     H79188   5.644   9.238   2.598  0.1882  0.8231  0.4630
  574MOL0     H79189   5.511   9.331   2.654 -0.3870 -0.8595 -1.4020
  574MOL0     H79190   5.396   9.154   2.547 -0.1666  0.3982 -0.8079
  574MOL0     H79191   5.381   9.116   2.717 -1.2592 -0.8462 -1.6055
  574MOL0     H79192   6.361   9.553   2.301  0.0651 -0.2831  0.2406
  574MOL0     H79193   6.613   9.529   2.235  1.0937 -2.6248 -0.1443
  574MOL0     H79194   6.964   9.313   2.238 -1.2850 -0.3082  1.0081
  574MOL0     H79195   7.179   9.231   2.162  2.3479  3.6205 -1.3661
  574MOL0     H79196   7.879   8.333   2.495  0.6759 -0.9328 -2.3829
  574MOL0     H79197   7.644   8.367   2.448  1.3625 -0.5218  0.3415
  574MOL0     H79198   7.296   8.766   2.267  2.5438 -1.2029  1.6996
  574MOL0     H79199   7.077   8.740   2.130 -1.3215  0.7488  1.6387
  574MOL0     H79200   6.864   8.716   2.070 -0.6378 -1.1482 -1.8256
  574MOL0     H79201   6.746   8.594   2.054 -1.0464 -1.3052  0.4608
  574MOL0     H79202   6.840   8.702   2.306  0.0982  1.8217 -2.5953
  574MOL0     H79203   6.734   8.553   2.305  0.3298  0.8785  1.8747
  574MOL0     H79204   6.611   8.789   2.316 -0.7207 -1.2870  0.9054
  574MOL0     H79205   6.653   8.798   2.145  1.4635 -1.6153 -1.4142
  574MOL0     H79206   6.469   8.594   2.281 -0.1976  1.3992  0.1783
  574MOL0     H79207   6.513   8.583   2.112  1.4355 -1.9245  1.2798
  574MOL0     H79208   6.197   8.863   2.137  0.0069 -0.5453 -0.9024
  574MOL0     H79209   7.050   8.333   2.265  2.8065 -1.4681 -1.6698
  574MOL0     H79210   7.193   8.292   2.487 -0.6100  3.6483  1.0426
  574MOL0     H79211   7.278   8.255   2.337 -1.1537 -0.0339 -0.1360
  574MOL0     H79212   7.360   8.356   2.463 -0.8975  4.4452 -1.0203
  575MOL0     O79213  11.032   1.745   5.041 -0.4295 -0.2544 -0.5033
  575MOL0     C79214  10.923   1.696   5.064 -0.0541 -0.4281  0.5456
  575MOL0     O79215  10.825   1.690   4.971 -0.5214 -0.2617  0.1565
  575MOL0     C79216  10.863   1.686   4.837 -0.0933  0.6044  0.5531
  575MOL0     C79217  10.910   1.568   4.774 -0.2789  0.1197  0.2958
  575MOL0     C79218  10.950   1.567   4.637  0.3502  0.4209  0.3227
  575MOL0     C79219  10.935   1.678   4.552  0.1855  0.1177 -0.8227
  575MOL0     O79220  10.972   1.682   4.420 -0.1931 -0.2747  0.1131
  575MOL0     C79221  11.027   1.569   4.345  0.0352  0.3833 -0.0379
  575MOL0     C79222  11.069   1.617   4.204 -0.1649  0.2435 -0.1725
  575MOL0     C79223  11.209   1.675   4.199  1.0848 -0.3585 -0.8405
  575MOL0     C79224  11.293   1.617   4.087  0.5790  0.1867 -0.2736
  575MOL0     C79225  11.435   1.665   4.067 -0.4220 -0.2759  0.7385
  575MOL0     C79226  11.495   1.618   3.929 -0.4641  0.1363  0.1927
  575MOL0     C79227  11.645   1.623   3.926 -0.4878  0.2457  0.1922
  575MOL0     C79228  11.701   1.574   3.783  0.6398  0.1081 -0.3477
  575MOL0     N79229  11.657   1.433   3.748 -0.0405 -0.2703  0.1044
  575MOL0     C79230  11.662   1.316   3.824 -0.0576  0.1184 -0.1397
  575MOL0     C79231  11.605   1.227   3.745 -0.8546 -0.2576 -0.2238
  575MOL0     C79232  11.594   1.089   3.797 -0.4477 -0.7859 -0.1179
  575MOL0     C79233  11.714   1.012   3.761 -0.6097  0.1189 -0.0643
  575MOL0     C79234  11.695   0.861   3.814  0.3306 -0.6886 -0.1188
  575MOL0     C79235  11.797   0.771   3.754 -0.0898  0.0476  0.0277
  575MOL0     O79236  11.921   0.816   3.757  0.0223  0.1685  0.2067
  575MOL0     C79237  11.994   0.854   3.643  0.0682 -0.5090 -0.0626
  575MOL0     C79238  11.949   0.872   3.511  1.0050  0.3567  0.7352
  575MOL0     C79239  12.038   0.921   3.403 -0.3059 -0.3042 -0.3076
  575MOL0     C79240  11.984   0.926   3.264  0.3990  0.7472 -0.8943
  575MOL0     C79241  12.167   0.947   3.430 -0.3853 -0.1676 -0.5328
  575MOL0     C79242  12.262   1.000   3.333 -0.3758  0.3156  0.2435
  575MOL0     O79243  12.395   0.976   3.374  0.2245  0.5595 -0.8828
  575MOL0     C79244  12.476   1.071   3.325 -0.3746  0.6154 -0.5807
  575MOL0     C79245  12.571   1.026   3.236 -0.8089 -1.0466  1.6699
  575MOL0     C79246  12.661   1.120   3.182 -0.0980  0.4793 -0.0238
  575MOL0     C79247  12.659   1.251   3.215 -0.3239 -0.5256 -0.6708
  575MOL0     O79248  12.751   1.325   3.149 -0.4510  0.7194  1.0702
  575MOL0     C79249  12.773   1.456   3.199  0.4144  0.0966  0.3559
  575MOL0     C79250  12.902   1.498   3.124  0.1755  0.7250 -0.1431
  575MOL0     C79251  12.953   1.637   3.178  0.7824 -0.5134 -0.1874
  575MOL0     C79252  13.099   1.664   3.147 -0.4643  0.1270  0.2695
  575MOL0     C79253  13.138   1.812   3.176  0.4406 -1.6395 -0.8885
  575MOL0     C79254  13.287   1.840   3.151 -0.5197  0.8555 -0.1612
  575MOL0     C79255  13.378   1.779   3.257 -0.0437 -0.1704 -0.1721
  575MOL0     C79256  13.522   1.829   3.236 -0.8703  0.0202 -0.3185
  575MOL0    Cl79257  13.545   2.006   3.264  0.3472 -0.3218  0.4544
  575MOL0     C79258  12.563   1.300   3.314 -0.0063  0.2289 -0.1182
  575MOL0     C79259  12.472   1.207   3.364 -0.2973  0.1381 -0.1801
  575MOL0     O79260  12.232   1.064   3.239 -0.0651 -0.0963 -0.3055
  575MOL0     C79261  12.209   0.918   3.563  0.1395  0.0770  0.6825
  575MOL0     C79262  12.123   0.884   3.664  0.5380  1.3491 -0.2108
  575MOL0     N79263  11.549   1.287   3.638  0.0400  0.5285  0.6360
  575MOL0     N79264  11.586   1.415   3.638 -0.3756 -0.2223  0.5462
  575MOL0     C79265  10.889   1.792   4.613  0.2781  0.0033  0.5335
  575MOL0     C79266  10.848   1.798   4.755 -0.1637 -0.9551  0.2281
  575MOL0     C79267  10.901   1.629   5.184 -0.8317  1.1024  0.1963
  575MOL0     C79268  10.850   1.497   5.186 -1.2306 -0.0099 -0.7020
  575MOL0     C79269  10.840   1.423   5.306 -0.4968 -0.1903 -0.0774
  575MOL0     C79270  10.888   1.474   5.424  0.3363 -0.1616 -0.5044
  575MOL0     O79271  10.894   1.394   5.542  0.1298 -0.2490 -0.2602
  575MOL0     C79272  10.779   1.314   5.577  0.0087  0.0815 -0.3546
  575MOL0     C79273  10.648   1.391   5.585  0.4918  0.1788  0.1101
  575MOL0     C79274  10.631   1.475   5.722 -0.7343  0.1304  0.9610
  575MOL0     C79275  10.485   1.514   5.747 -0.1961  0.4624 -0.2831
  575MOL0     C79276  10.423   1.617   5.664 -0.9892 -0.5071 -0.2192
  575MOL0     C79277  10.369   1.694   5.587 -0.1729  0.0923  0.4951
  575MOL0     C79278  10.941   1.603   5.416  0.5600 -0.2272  0.9908
  575MOL0     C79279  10.936   1.686   5.303 -0.3657 -0.0841  0.1043
  575MOL0     C79280  10.942   1.831   5.332  0.3450 -0.4546  0.2498
  575MOL0     H79281  10.917   1.477   4.833 -1.2552 -2.0185 -2.6746
  575MOL0     H79282  10.982   1.480   4.580  0.0681  1.6077 -1.7283
  575MOL0     H79283  10.949   1.493   4.343  2.2106 -1.9745 -1.0672
  575MOL0     H79284  11.114   1.533   4.400  0.4924  0.6427 -0.5724
  575MOL0     H79285  11.065   1.536   4.130  0.9275  1.0798 -1.1855
  575MOL0     H79286  10.990   1.681   4.163 -1.0227 -1.4122 -1.2190
  575MOL0     H79287  11.198   1.782   4.181 -2.3111  0.0793  2.4863
  575MOL0     H79288  11.253   1.669   4.299  0.7185 -1.2515 -0.7240
  575MOL0     H79289  11.285   1.508   4.085  1.3891  0.1049  0.4273
  575MOL0     H79290  11.239   1.649   3.997 -2.3156 -2.2238  0.4412
  575MOL0     H79291  11.507   1.621   4.137  0.9584 -0.3596 -0.6758
  575MOL0     H79292  11.442   1.774   4.066  0.4574 -0.3220  0.0712
  575MOL0     H79293  11.464   1.515   3.912  1.1849 -0.3086 -0.3146
  575MOL0     H79294  11.448   1.678   3.851 -2.2822 -1.5139 -0.0604
  575MOL0     H79295  11.687   1.542   3.985  2.1857  0.0724 -1.7269
  575MOL0     H79296  11.689   1.718   3.958  1.5373 -0.3322 -0.7112
  575MOL0     H79297  11.668   1.639   3.701  0.7284 -0.4249 -0.8130
  575MOL0     H79298  11.809   1.589   3.787  0.3734  2.1362  0.7165
  575MOL0     H79299  11.693   1.303   3.927  1.9178 -0.5957 -0.7770
  575MOL0     H79300  11.502   1.049   3.753 -1.2959  2.1056 -1.1639
  575MOL0     H79301  11.582   1.090   3.906  2.6671  0.3353  0.3080
  575MOL0     H79302  11.738   1.018   3.654  0.8007 -0.6868  0.1817
  575MOL0     H79303  11.796   1.047   3.824 -1.4455  0.9070  0.6182
  575MOL0     H79304  11.708   0.867   3.923  2.3171 -2.2366 -0.2058
  575MOL0     H79305  11.594   0.820   3.802  0.8728 -1.8024 -1.1073
  575MOL0     H79306  11.787   0.675   3.804  2.0670  1.0778  2.7168
  575MOL0     H79307  11.761   0.762   3.651  1.1738  0.4150 -0.4753
  575MOL0     H79308  11.851   0.841   3.475  1.2354  0.7050 -0.2284
  575MOL0     H79309  12.059   0.876   3.201  1.5890  1.1135  0.1796
  575MOL0     H79310  11.946   1.023   3.230 -1.2387 -0.4004 -2.4355
  575MOL0     H79311  11.898   0.859   3.264  1.1636 -0.3794  1.8388
  575MOL0     H79312  12.566   0.927   3.193  2.7069 -0.5373 -0.3507
  575MOL0     H79313  12.730   1.074   3.113  1.3396  1.2926  0.8346
  575MOL0     H79314  12.697   1.531   3.177  0.2552 -0.1133  0.2002
  575MOL0     H79315  12.794   1.450   3.306  0.4437  0.6676  0.3887
  575MOL0     H79316  12.978   1.421   3.142 -1.5225 -0.6324  1.6899
  575MOL0     H79317  12.885   1.506   3.016 -2.1266  0.9361  0.1709
  575MOL0     H79318  12.938   1.660   3.284  2.4167  4.9379 -0.8260
  575MOL0     H79319  12.892   1.710   3.124  1.1626 -1.7556 -2.4469
  575MOL0     H79320  13.115   1.643   3.040 -2.6234 -1.4752  0.1840
  575MOL0     H79321  13.167   1.600   3.204  0.3515  2.1101  1.6264
  575MOL0     H79322  13.075   1.878   3.116  2.2749  0.1660 -0.9532
  575MOL0     H79323  13.122   1.842   3.280  2.2494 -0.7583 -0.8238
  575MOL0     H79324  13.310   1.947   3.143  2.7701  0.1902 -0.9489
  575MOL0     H79325  13.306   1.799   3.052 -0.9997 -0.4213  0.2660
  575MOL0     H79326  13.378   1.670   3.246  1.9879 -0.1626 -0.8732
  575MOL0     H79327  13.334   1.801   3.354  1.0088  2.0538 -0.1304
  575MOL0     H79328  13.557   1.810   3.135 -2.6020  1.4173 -1.2360
  575MOL0     H79329  13.580   1.769   3.307 -0.7132  0.5891  0.0493
  575MOL0     H79330  12.558   1.404   3.345 -0.1529  0.2268 -0.1361
  575MOL0     H79331  12.396   1.248   3.429 -1.6376 -1.1267 -0.8970
  575MOL0     H79332  12.312   0.940   3.590  0.9173 -3.2964  0.9101
  575MOL0     H79333  12.172   0.884   3.761  0.5574 -0.7473 -0.1734
  575MOL0     H79334  10.886   1.880   4.550  2.1876 -0.3652 -0.1234
  575MOL0     H79335  10.803   1.886   4.799 -2.1548 -1.6863 -0.2796
  575MOL0     H79336  10.839   1.454   5.087 -1.4624 -2.2219  0.2302
  575MOL0     H79337  10.810   1.319   5.293 -0.0734 -0.3012 -0.1828
  575MOL0     H79338  10.767   1.234   5.504 -1.6250  3.4101 -4.1352
  575MOL0     H79339  10.803   1.265   5.672  3.5032 -1.0122 -1.6572
  575MOL0     H79340  10.568   1.316   5.588 -0.6546  1.2463 -1.7652
  575MOL0     H79341  10.611   1.439   5.494 -1.8662  2.3313  2.0490
  575MOL0     H79342  10.654   1.399   5.797 -0.4821 -1.8947 -1.0532
  575MOL0     H79343  10.705   1.556   5.728  0.5905 -0.9622  0.0238
  575MOL0     H79344  10.483   1.540   5.853  0.3235 -0.0326 -0.1435
  575MOL0     H79345  10.429   1.424   5.717  2.5556 -2.0156  1.4568
  575MOL0     H79346  10.320   1.763   5.522  0.2673 -0.1425 -0.0874
  575MOL0     H79347  10.974   1.643   5.512 -0.2890  0.0333  1.1807
  575MOL0     H79348  11.034   1.878   5.295 -1.0485  1.9141 -0.3791
  575MOL0     H79349  10.862   1.881   5.278 -0.8914 -2.9961 -0.4359
  575MOL0     H79350  10.928   1.849   5.439  3.6507  1.2414  0.5168
  576MOL0     O79351   8.879  10.163   4.158 -0.3546 -0.6959 -0.3088
  576MOL0     C79352   8.807  10.120   4.066  0.0206  0.5322  0.6487
  576MOL0     O79353   8.844  10.022   3.973  0.1239  0.2354  1.1638
  576MOL0     C79354   8.954   9.944   3.996  0.4816 -0.2971 -0.8442
  576MOL0     C79355   9.025   9.892   3.892 -0.1270 -0.1617 -0.7221
  576MOL0     C79356   9.153   9.831   3.912  0.1113  0.3059 -0.1687
  576MOL0     C79357   9.206   9.821   4.037  0.0667 -0.1245  0.3481
  576MOL0     O79358   9.326   9.773   4.072  0.2316  0.1151 -0.6555
  576MOL0     C79359   9.429   9.795   3.975 -0.9211  0.2635  0.0798
  576MOL0     C79360   9.542   9.705   4.013 -0.1712  0.1173  0.2809
  576MOL0     C79361   9.641   9.673   3.895  0.4955  0.3175  0.4517
  576MOL0     C79362   9.784   9.636   3.937 -0.6694  0.0646 -0.0815
  576MOL0     C79363   9.793   9.482   3.967  0.8834 -0.0658 -0.2977
  576MOL0     C79364   9.929   9.452   4.012  0.4185 -0.4862  0.1476
  576MOL0     C79365   9.931   9.318   4.084  0.4516  0.2248  0.6984
  576MOL0     C79366  10.062   9.305   4.160 -0.0799  0.0364  0.8158
  576MOL0     N79367  10.189   9.333   4.082 -0.0408 -0.8343  0.0047
  576MOL0     C79368  10.275   9.245   4.015  0.4502 -0.1078 -0.4215
  576MOL0     C79369  10.379   9.327   3.980 -0.8406  0.8211  0.3521
  576MOL0     C79370  10.501   9.253   3.940 -0.3136 -0.5592 -0.4765
  576MOL0     C79371  10.630   9.301   4.005  0.4620  0.1109  0.0302
  576MOL0     C79372  10.740   9.187   3.993  0.4212  0.6002  0.0560
  576MOL0     C79373  10.782   9.145   3.843 -0.8729  0.1077 -0.3480
  576MOL0     O79374  10.886   9.231   3.796  0.0411 -0.7716  0.1965
  576MOL0     C79375  11.011   9.175   3.762  0.3563  0.8559  0.5093
  576MOL0     C79376  11.118   9.247   3.796  0.4797 -0.6189  0.3040
  576MOL0     C79377  11.250   9.202   3.791  0.2861 -0.4199  0.3169
  576MOL0     C79378  11.360   9.283   3.860 -0.1542  0.5845  0.0838
  576MOL0     C79379  11.276   9.088   3.719  0.4130  0.2466  0.1135
  576MOL0     C79380  11.403   9.013   3.713 -0.1156 -0.6528 -1.1106
  576MOL0     O79381  11.528   9.071   3.724  0.5618 -0.4338 -0.1737
  576MOL0     C79382  11.643   8.995   3.703  0.0313 -0.3407 -0.6753
  576MOL0     C79383  11.688   8.966   3.576  0.1585  0.3827 -0.1543
  576MOL0     C79384  11.805   8.891   3.552  0.0501 -0.3480 -0.0561
  576MOL0     C79385  11.883   8.854   3.663  0.1488 -0.2058 -0.2331
  576MOL0     O79386  12.002   8.787   3.634 -0.8899 -0.5004 -0.0619
  576MOL0     C79387  12.101   8.758   3.740 -0.3575 -0.7567  0.6371
  576MOL0     C79388  12.195   8.876   3.774  0.2350  0.3407  0.4334
  576MOL0     C79389  12.284   8.917   3.649  0.5330 -0.7492  0.3933
  576MOL0     C79390  12.211   9.005   3.548  0.0631 -0.2525  0.3994
  576MOL0     C79391  12.303   9.101   3.467  0.2682 -1.0199  0.1619
  576MOL0     C79392  12.359   9.215   3.559 -0.1261  0.2705  0.3026
  576MOL0     C79393  12.448   9.316   3.485 -0.5665  0.3868 -0.6809
  576MOL0     C79394  12.578   9.255   3.431 -0.0465 -0.5673  0.7636
  576MOL0    Cl79395  12.698   9.244   3.562 -0.4951  0.5097  0.3633
  576MOL0     C79396  11.832   8.872   3.798 -0.0353  0.6048  1.0659
  576MOL0     C79397  11.711   8.941   3.814  0.7874 -0.1666 -0.0470
  576MOL0     O79398  11.380   8.892   3.711 -0.6371 -0.2769  0.1015
  576MOL0     C79399  11.161   9.020   3.657 -0.2287 -0.2446  0.9167
  576MOL0     C79400  11.035   9.061   3.695 -0.4268 -0.0335 -0.2319
  576MOL0     N79401  10.368   9.453   4.040  0.1541 -0.1981  0.2779
  576MOL0     N79402  10.254   9.456   4.096  0.0673 -0.4527  0.7199
  576MOL0     C79403   9.131   9.863   4.144 -0.2187 -0.1546 -0.4212
  576MOL0     C79404   9.003   9.920   4.129  0.3053  0.6423 -0.1104
  576MOL0     C79405   8.665  10.176   4.034 -0.2855 -0.7694 -1.0769
  576MOL0     C79406   8.579  10.124   3.927 -0.7113 -0.1628  0.2297
  576MOL0     C79407   8.465  10.192   3.884 -1.0774 -0.0223  0.5541
  576MOL0     C79408   8.417  10.304   3.944  0.5611  0.1634 -0.6095
  576MOL0     O79409   8.294  10.355   3.904  0.2165 -0.3427  0.3000
  576MOL0     C79410   8.299  10.496   3.861 -0.3251 -1.0217  0.2938
  576MOL0     C79411   8.201  10.515   3.741 -0.3640  0.2838  0.3908
  576MOL0     C79412   8.057  10.528   3.781  0.8141 -0.8177 -0.1439
  576MOL0     C79413   7.967  10.474   3.675  0.7784  0.6718  0.3738
  576MOL0     C79414   7.962  10.559   3.557  0.1005 -0.8035  0.1064
  576MOL0     C79415   7.960  10.615   3.448  0.6342  0.2066 -0.7472
  576MOL0     C79416   8.485  10.358   4.054  0.2822  0.0580  0.6226
  576MOL0     C79417   8.613  10.299   4.089  0.3248  0.1101 -0.7800
  576MOL0     C79418   8.693  10.379   4.202  0.2438 -0.6206  0.0240
  576MOL0     H79419   8.977   9.903   3.795 -2.3160  1.7971  0.4611
  576MOL0     H79420   9.207   9.791   3.827  0.0656  1.0278 -0.5475
  576MOL0     H79421   9.459   9.900   3.968  1.3482 -0.4041 -1.5133
  576MOL0     H79422   9.391   9.765   3.877 -0.2223  0.4510 -0.2604
  576MOL0     H79423   9.596   9.745   4.099  1.2677  2.3175 -1.5308
  576MOL0     H79424   9.499   9.607   4.035  1.1607 -1.3793 -3.0309
  576MOL0     H79425   9.607   9.592   3.830 -2.1078  2.1352 -0.6606
  576MOL0     H79426   9.645   9.752   3.819  1.2028 -0.6510 -0.5476
  576MOL0     H79427   9.846   9.664   3.851 -2.2553  0.1018 -1.2525
  576MOL0     H79428   9.808   9.689   4.030 -1.1542  0.1910 -0.0241
  576MOL0     H79429   9.774   9.421   3.878  1.0615  0.0769 -0.4336
  576MOL0     H79430   9.716   9.465   4.043  1.7949 -0.5571  0.5501
  576MOL0     H79431   9.995   9.454   3.924 -1.6366  5.5846 -1.7738
  576MOL0     H79432   9.969   9.525   4.083  0.8669 -1.5752  1.0333
  576MOL0     H79433   9.914   9.238   4.011  1.3793  1.1772 -0.6080
  576MOL0     H79434   9.851   9.318   4.159 -0.5716 -0.3110 -0.3618
  576MOL0     H79435  10.055   9.381   4.238 -0.4625 -0.5195  1.3216
  576MOL0     H79436  10.084   9.212   4.213  2.8171  1.4972  2.3567
  576MOL0     H79437  10.256   9.139   3.999 -2.7314  0.0866  1.1751
  576MOL0     H79438  10.496   9.253   3.831 -3.2066 -0.3821 -0.4180
  576MOL0     H79439  10.482   9.151   3.975  0.6855  0.5677  3.9819
  576MOL0     H79440  10.667   9.389   3.952 -1.2569  0.5119 -0.5734
  576MOL0     H79441  10.605   9.329   4.108 -4.3252  0.0215 -0.8574
  576MOL0     H79442  10.820   9.224   4.058  1.7143 -0.1910 -1.0364
  576MOL0     H79443  10.706   9.100   4.050  1.3528  0.7603  0.8783
  576MOL0     H79444  10.827   9.046   3.848  0.4283  0.7490  2.2094
  576MOL0     H79445  10.696   9.149   3.775 -0.8341  2.1831 -0.3295
  576MOL0     H79446  11.088   9.343   3.839 -0.2170 -0.6160 -0.1609
  576MOL0     H79447  11.427   9.216   3.915 -0.1724 -0.0680 -0.6763
  576MOL0     H79448  11.314   9.361   3.922  2.1806  2.7421 -0.7369
  576MOL0     H79449  11.424   9.335   3.788  0.0390 -0.0813 -0.2300
  576MOL0     H79450  11.641   9.006   3.487 -0.2261  2.8724  1.0635
  576MOL0     H79451  11.834   8.866   3.451 -0.6163  3.5706 -1.3656
  576MOL0     H79452  12.048   8.735   3.832  0.1473  1.9813  1.6878
  576MOL0     H79453  12.175   8.684   3.710  2.5569  2.1331  0.1682
  576MOL0     H79454  12.135   8.961   3.806  0.6813  0.4320  1.0386
  576MOL0     H79455  12.254   8.846   3.861  2.5302  3.0235 -0.0767
  576MOL0     H79456  12.334   8.836   3.594  0.7089  0.5301 -1.4275
  576MOL0     H79457  12.363   8.979   3.691  0.5427 -0.2868 -0.2861
  576MOL0     H79458  12.145   9.070   3.607  3.8469  2.3506  2.1547
  576MOL0     H79459  12.151   8.949   3.475 -0.5198 -0.9080  1.3593
  576MOL0     H79460  12.385   9.038   3.433  0.3958 -1.2956  0.9440
  576MOL0     H79461  12.249   9.137   3.379  3.0093  1.6894 -0.5649
  576MOL0     H79462  12.424   9.177   3.639  2.3245 -1.4747 -2.3157
  576MOL0     H79463  12.285   9.276   3.611 -0.8169  0.6580 -1.0799
  576MOL0     H79464  12.479   9.405   3.540 -0.6917 -0.4008  0.7043
  576MOL0     H79465  12.398   9.345   3.392  0.7109  0.2362 -1.4247
  576MOL0     H79466  12.616   9.325   3.356 -1.5389  0.6308  1.0554
  576MOL0     H79467  12.561   9.161   3.377 -0.6792 -0.2908  0.4635
  576MOL0     H79468  11.883   8.820   3.878  1.7744 -0.9713 -0.9880
  576MOL0     H79469  11.671   8.965   3.912 -2.0113 -0.5954 -1.0043
  576MOL0     H79470  11.185   8.937   3.592  0.9620 -0.9255  2.1720
  576MOL0     H79471  10.958   9.006   3.641  0.2861 -2.7538  1.3562
  576MOL0     H79472   9.179   9.848   4.240 -0.3425 -4.5099 -0.8425
  576MOL0     H79473   8.937   9.952   4.209 -1.1316 -2.5332  0.1403
  576MOL0     H79474   8.608  10.035   3.872  0.1397  1.5366 -2.2339
  576MOL0     H79475   8.409  10.158   3.797  3.1320 -0.8794 -2.1236
  576MOL0     H79476   8.262  10.560   3.942  2.3192 -0.0166  0.8179
  576MOL0     H79477   8.399  10.535   3.839 -0.6788 -0.9437 -1.2324
  576MOL0     H79478   8.217  10.432   3.672 -1.4904 -0.5602  1.1045
  576MOL0     H79479   8.229  10.608   3.691 -2.3715  1.2924  1.0057
  576MOL0     H79480   8.037  10.471   3.873  3.9194 -1.2187  0.4123
  576MOL0     H79481   8.039  10.633   3.802 -1.5949 -1.1577 -0.3013
  576MOL0     H79482   7.864  10.469   3.712  1.2011  0.1146  1.5177
  576MOL0     H79483   7.994  10.370   3.654 -2.0112 -0.1965  0.6709
  576MOL0     H79484   7.963  10.655   3.349  1.1060 -0.9671 -1.2264
  576MOL0     H79485   8.448  10.446   4.106 -0.7333 -0.8494  1.4892
  576MOL0     H79486   8.659  10.482   4.214 -0.8616 -1.0371  0.6836
  576MOL0     H79487   8.680  10.320   4.293  2.5325 -0.0553  0.7839
  576MOL0     H79488   8.799  10.391   4.176  0.9768 -0.2041  2.8984
  577MOL0     O79489   8.975   4.063  11.207  0.5180  0.1357  0.7810
  577MOL0     C79490   8.985   3.945  11.172  0.7218 -0.0161 -0.4492
  577MOL0     O79491   9.095   3.861  11.201  0.0575 -0.0085 -0.0165
  577MOL0     C79492   9.196   3.902  11.287  0.4092  0.9366  0.1803
  577MOL0     C79493   9.328   3.868  11.251  0.3144  0.7593  0.0225
  577MOL0     C79494   9.432   3.921  11.335 -0.1620  0.5589 -0.1199
  577MOL0     C79495   9.417   3.991  11.452  0.2473  0.6846  0.0090
  577MOL0     O79496   9.523   4.047  11.517  0.1545 -0.5037  0.8682
  577MOL0     C79497   9.489   4.115  11.645 -0.0494  1.2158 -0.2058
  577MOL0     C79498   9.602   4.183  11.709 -0.7608  0.4339  0.2874
  577MOL0     C79499   9.672   4.284  11.613 -0.9453 -0.3588  0.1615
  577MOL0     C79500   9.579   4.381  11.544 -0.2459  0.0509  0.0678
  577MOL0     C79501   9.661   4.488  11.462 -0.1748 -0.0516 -0.1366
  577MOL0     C79502   9.581   4.555  11.345  0.2448  0.1235  0.4694
  577MOL0     C79503   9.483   4.637  11.418 -0.1788  0.0491  0.8367
  577MOL0     C79504   9.409   4.733  11.319 -0.1122 -0.2751 -0.0353
  577MOL0     N79505   9.475   4.867  11.308  0.1331  0.2619 -0.1844
  577MOL0     C79506   9.579   4.906  11.238 -0.0347  0.5391 -0.5941
  577MOL0     C79507   9.599   5.032  11.264  0.3086 -1.1496  0.2249
  577MOL0     C79508   9.711   5.118  11.208  0.1344  0.1906 -0.6155
  577MOL0     C79509   9.840   5.108  11.308  1.0831  0.6675  0.3618
  577MOL0     C79510   9.936   5.224  11.302  0.5660  0.1806 -0.2409
  577MOL0     C79511  10.022   5.228  11.168 -0.6989 -0.6740 -0.3025
  577MOL0     O79512  10.109   5.344  11.184 -0.3054 -0.3758  0.5096
  577MOL0     C79513  10.224   5.336  11.259 -0.9807  0.5193  1.3850
  577MOL0     C79514  10.307   5.220  11.250 -0.4650  0.6467 -1.0985
  577MOL0     C79515  10.436   5.217  11.295 -0.0053  0.6059  0.4259
  577MOL0     C79516  10.522   5.095  11.272  0.0799  0.0237  0.7080
  577MOL0     C79517  10.491   5.332  11.363 -0.1844 -0.4471 -0.6148
  577MOL0     C79518  10.633   5.331  11.407 -0.4970 -0.5399 -0.2513
  577MOL0     O79519  10.653   5.340  11.546  0.5760 -0.3001  0.0198
  577MOL0     C79520  10.782   5.330  11.591  0.0927 -0.2631  0.4532
  577MOL0     C79521  10.875   5.236  11.546 -0.4308 -0.5932 -0.4310
  577MOL0     C79522  11.005   5.228  11.599 -0.1398 -0.7965  0.0802
  577MOL0     C79523  11.048   5.328  11.698 -0.0588  0.2769  0.0318
  577MOL0     O79524  11.171   5.335  11.767  0.3701 -0.1045  0.4755
  577MOL0     C79525  11.288   5.279  11.703 -0.1247  0.8971 -0.2821
  577MOL0     C79526  11.395   5.329  11.792 -0.6080 -0.0183 -0.7319
  577MOL0     C79527  11.539   5.291  11.739 -0.4327  0.7130  0.1171
  577MOL0     C79528  11.647   5.348  11.832  0.4770  0.1654  0.9715
  577MOL0     C79529  11.782   5.298  11.783 -0.3870 -0.2998 -0.5385
  577MOL0     C79530  11.890   5.343  11.872 -0.1454 -0.0253  0.1187
  577MOL0     C79531  12.025   5.285  11.819  0.8397 -0.7439 -0.1189
  577MOL0     C79532  12.127   5.308  11.929 -0.7065 -0.5785 -0.1016
  577MOL0    Cl79533  12.285   5.236  11.871  0.5132 -0.6073 -0.1858
  577MOL0     C79534  10.947   5.416  11.742 -0.6514  0.9490 -0.3108
  577MOL0     C79535  10.816   5.408  11.697 -0.0084 -0.1154 -0.1043
  577MOL0     O79536  10.722   5.330  11.318  0.0982 -0.5678 -0.7162
  577MOL0     C79537  10.414   5.453  11.360 -0.0441  0.1224  0.8421
  577MOL0     C79538  10.285   5.450  11.306  1.1178  0.6228 -0.3290
  577MOL0     N79539   9.509   5.076  11.356  0.0685 -0.3546 -0.4576
  577MOL0     N79540   9.437   4.969  11.386  0.1581  0.2423  0.2112
  577MOL0     C79541   9.281   4.012  11.485 -0.3629  0.3909  0.2824
  577MOL0     C79542   9.170   3.973  11.406 -0.1896 -0.3504 -0.1176
  577MOL0     C79543   8.868   3.871  11.102 -0.6402  0.0876  0.0501
  577MOL0     C79544   8.864   3.733  11.110 -0.2120  0.4147  0.7999
  577MOL0     C79545   8.746   3.661  11.066 -0.3492  0.7537 -0.1434
  577MOL0     C79546   8.641   3.734  10.996  0.0395 -0.0743  0.1718
  577MOL0     O79547   8.534   3.673  10.943 -0.9505  0.2690  0.1070
  577MOL0     C79548   8.468   3.572  11.010 -0.3045  0.6676 -0.1530
  577MOL0     C79549   8.318   3.570  10.984 -0.1253 -0.4570  0.2298
  577MOL0     C79550   8.241   3.685  11.061  0.6991 -0.1007  0.6452
  577MOL0     C79551   8.085   3.671  11.029 -0.0812  0.1464 -0.8183
  577MOL0     C79552   8.013   3.767  11.111 -0.5824  0.1646  0.5331
  577MOL0     C79553   7.953   3.836  11.190  0.6680 -0.1532 -0.3115
  577MOL0     C79554   8.659   3.871  10.968 -0.0160 -0.1949  0.4426
  577MOL0     C79555   8.770   3.942  11.022  0.0347 -0.2189 -0.1718
  577MOL0     C79556   8.786   4.088  10.996 -0.2373  0.1764  0.5531
  577MOL0     H79557   9.340   3.815  11.157  0.7689 -0.2495  0.6308
  577MOL0     H79558   9.536   3.905  11.308 -0.1236  0.0558  0.3054
  577MOL0     H79559   9.435   4.047  11.711  0.3731 -0.3666 -1.4250
  577MOL0     H79560   9.424   4.198  11.613 -1.4832  0.4711  0.7055
  577MOL0     H79561   9.570   4.233  11.801 -2.7668  0.3274 -0.2997
  577MOL0     H79562   9.680   4.112  11.736 -1.2966  0.3183  1.6066
  577MOL0     H79563   9.757   4.328  11.666 -0.9977 -1.3702  1.1248
  577MOL0     H79564   9.721   4.221  11.538  0.4512  0.5057  0.3224
  577MOL0     H79565   9.508   4.332  11.476 -1.0675  1.2462  0.0439
  577MOL0     H79566   9.521   4.433  11.620 -0.7295 -2.9398  1.8848
  577MOL0     H79567   9.751   4.447  11.415  0.5177  0.4842  0.6939
  577MOL0     H79568   9.690   4.560  11.538 -0.3785 -1.4954  1.3696
  577MOL0     H79569   9.654   4.617  11.292  2.1145 -0.9568  1.6668
  577MOL0     H79570   9.548   4.481  11.272  2.4363  0.1890 -0.6839
  577MOL0     H79571   9.528   4.703  11.492  1.0008 -1.0870  1.1643
  577MOL0     H79572   9.395   4.581  11.452 -2.1859  2.6485  0.2814
  577MOL0     H79573   9.396   4.692  11.219  0.0792  0.8955 -0.5560
  577MOL0     H79574   9.307   4.751  11.354  0.3350  0.4215  0.9709
  577MOL0     H79575   9.649   4.843  11.184 -0.2627 -0.7412  0.5506
  577MOL0     H79576   9.672   5.220  11.206  1.5532  0.7942  0.5036
  577MOL0     H79577   9.741   5.084  11.108 -2.6392 -2.6890 -0.6258
  577MOL0     H79578   9.802   5.115  11.410  0.4526  0.8864  0.1162
  577MOL0     H79579   9.896   5.015  11.289 -1.2784 -0.4753 -1.4807
  577MOL0     H79580   9.878   5.316  11.317  1.8733  0.8306  1.0404
  577MOL0     H79581   9.999   5.214  11.391 -0.8345 -1.2416  0.6268
  577MOL0     H79582  10.082   5.137  11.162  0.8153  0.2788  0.0276
  577MOL0     H79583   9.957   5.236  11.080  1.3748 -2.1626 -2.0653
  577MOL0     H79584  10.270   5.129  11.205 -1.8296  1.6613 -2.0956
  577MOL0     H79585  10.587   5.069  11.356 -0.4925 -2.1140  0.5511
  577MOL0     H79586  10.586   5.101  11.184  0.5060  2.3483  1.1033
  577MOL0     H79587  10.459   5.007  11.258  1.6509 -1.3309  1.7569
  577MOL0     H79588  10.845   5.160  11.475  0.2187 -1.1499 -0.1217
  577MOL0     H79589  11.069   5.146  11.570  1.5341 -0.4644  2.5851
  577MOL0     H79590  11.276   5.171  11.696  1.1035  0.6023  1.5245
  577MOL0     H79591  11.308   5.323  11.605  0.3291  2.2926  0.4106
  577MOL0     H79592  11.388   5.437  11.802 -0.8339 -0.1340  0.6894
  577MOL0     H79593  11.376   5.290  11.893 -0.2191 -1.3453 -1.1511
  577MOL0     H79594  11.547   5.321  11.634  0.7563  1.2211  0.3381
  577MOL0     H79595  11.549   5.182  11.732  0.3581  0.7572  0.4291
  577MOL0     H79596  11.618   5.306  11.928 -3.7441 -1.0847 -0.6443
  577MOL0     H79597  11.642   5.457  11.823  1.4108  0.0905 -1.1590
  577MOL0     H79598  11.791   5.189  11.779 -3.0145 -0.5779 -0.1912
  577MOL0     H79599  11.812   5.335  11.684  3.5518 -1.5408  0.0209
  577MOL0     H79600  11.876   5.307  11.974  2.2729  0.2698  0.6140
  577MOL0     H79601  11.887   5.452  11.874  1.1585  0.0742 -1.0676
  577MOL0     H79602  12.052   5.352  11.736 -0.0547 -2.3888 -1.8145
  577MOL0     H79603  12.022   5.186  11.773 -3.7568  0.6184 -3.4937
  577MOL0     H79604  12.115   5.263  12.028  1.7828  1.2900  1.1633
  577MOL0     H79605  12.133   5.414  11.955  4.0569 -0.6506  0.0610
  577MOL0     H79606  10.975   5.482  11.824  0.0167  1.6591 -1.0900
  577MOL0     H79607  10.757   5.477  11.756  2.9012  1.0281  1.7210
  577MOL0     H79608  10.464   5.539  11.403  1.2135  0.9140 -2.0106
  577MOL0     H79609  10.230   5.543  11.314  0.1574  0.0886 -0.6286
  577MOL0     H79610   9.263   4.050  11.585 -3.4198 -0.4065  0.1338
  577MOL0     H79611   9.070   3.994  11.443  0.6456  0.8601  1.6470
  577MOL0     H79612   8.938   3.679  11.168  0.4183 -0.8476 -1.0806
  577MOL0     H79613   8.738   3.553  11.069  1.9686  0.5517  1.5705
  577MOL0     H79614   8.497   3.469  10.987 -3.1514 -0.3361  0.3574
  577MOL0     H79615   8.484   3.576  11.118  1.0148  1.6280 -0.3512
  577MOL0     H79616   8.288   3.475  11.027  3.1550 -0.7854  2.1810
  577MOL0     H79617   8.309   3.591  10.877  1.5082 -0.0806  0.1345
  577MOL0     H79618   8.256   3.670  11.168 -1.7788 -3.1140  0.6954
  577MOL0     H79619   8.278   3.782  11.025 -2.2343  0.0960 -2.3014
  577MOL0     H79620   8.044   3.570  11.044  0.6624  0.2463  2.6254
  577MOL0     H79621   8.059   3.702  10.927 -2.5948  0.4937 -0.1379
  577MOL0     H79622   7.900   3.882  11.272  3.3800  1.8268  0.4684
  577MOL0     H79623   8.584   3.911  10.900 -0.6190 -0.9649  0.6441
  577MOL0     H79624   8.886   4.113  10.959 -0.6478  1.7986  0.4786
  577MOL0     H79625   8.711   4.129  10.928 -1.4983 -0.8502  1.2621
  577MOL0     H79626   8.770   4.138  11.092  1.0471 -1.1478  1.5090
  578MOL0     O79627   1.484   9.492   7.016 -0.2286 -0.0585  0.0911
  578MOL0     C79628   1.438   9.545   6.910  0.1996 -0.0041 -0.4740
  578MOL0     O79629   1.509   9.547   6.795 -0.6940 -0.0884 -0.3373
  578MOL0     C79630   1.601   9.451   6.781 -0.4110  0.1771 -0.3550
  578MOL0     C79631   1.739   9.475   6.772  0.7698 -0.8006 -0.1442
  578MOL0     C79632   1.834   9.373   6.756  0.2508 -0.6242 -0.4957
  578MOL0     C79633   1.779   9.245   6.748 -0.3291  0.0972 -0.8560
  578MOL0     O79634   1.885   9.146   6.746  0.2380 -0.3145 -0.0687
  578MOL0     C79635   1.856   9.012   6.699 -0.3015  0.2893  0.3090
  578MOL0     C79636   1.947   8.924   6.786  0.2685 -0.7025  0.2868
  578MOL0     C79637   1.898   8.779   6.797  0.0936  0.5370  0.0044
  578MOL0     C79638   1.882   8.699   6.667 -0.4590 -0.2719  0.8093
  578MOL0     C79639   2.012   8.711   6.582  0.2934 -0.4155  0.2164
  578MOL0     C79640   1.997   8.647   6.443 -1.0797 -0.1413  0.3195
  578MOL0     C79641   1.911   8.735   6.348 -0.0855  0.1750  0.4156
  578MOL0     C79642   1.908   8.688   6.204 -0.6541  0.7041  0.5457
  578MOL0     N79643   1.814   8.576   6.184  0.3702  0.0791  0.0223
  578MOL0     C79644   1.812   8.454   6.259 -0.8650 -0.2406  0.3822
  578MOL0     C79645   1.708   8.388   6.203  0.5031  0.1542  0.8491
  578MOL0     C79646   1.669   8.247   6.247  0.0136 -0.2230 -0.3896
  578MOL0     C79647   1.735   8.132   6.163  0.6221 -0.4079  0.4602
  578MOL0     C79648   1.886   8.134   6.162 -0.0989 -1.2284  0.4963
  578MOL0     C79649   1.947   8.049   6.043 -0.6589 -0.4166 -0.1138
  578MOL0     O79650   2.082   8.103   6.006  0.2852  0.1575  0.3338
  578MOL0     C79651   2.196   8.050   6.058 -0.2149  1.0849 -0.2229
  578MOL0     C79652   2.202   8.005   6.191 -0.0678  0.7254  0.3740
  578MOL0     C79653   2.325   7.966   6.249 -0.9408 -0.5920 -0.6985
  578MOL0     C79654   2.325   7.912   6.387  0.1490 -0.4463  0.1597
  578MOL0     C79655   2.448   7.982   6.168  0.5074  0.3162 -0.4548
  578MOL0     C79656   2.589   7.955   6.219 -0.1741 -0.5940  0.3493
  578MOL0     O79657   2.622   7.972   6.339  0.2814 -0.0247 -0.4837
  578MOL0     C79658   2.754   7.986   6.378  0.3110  0.4939 -0.3554
  578MOL0     C79659   2.776   7.957   6.512  0.0402 -0.6108  1.2159
  578MOL0     C79660   2.900   7.982   6.571 -0.6381 -1.1160  1.2767
  578MOL0     C79661   3.013   8.022   6.499  0.6262  0.5795  0.6978
  578MOL0     O79662   3.141   8.054   6.542 -0.0510 -0.3881  0.0646
  578MOL0     C79663   3.146   8.074   6.684 -0.0835 -0.1648  0.4905
  578MOL0     C79664   3.286   8.134   6.708 -0.8594  0.3985  0.0681
  578MOL0     C79665   3.312   8.262   6.642  0.3472 -0.0033  0.3884
  578MOL0     C79666   3.222   8.382   6.696 -0.9173  0.1558 -0.4514
  578MOL0     C79667   3.244   8.512   6.619 -0.6801 -0.2743  1.2691
  578MOL0     C79668   3.367   8.587   6.642 -0.1904 -0.9968 -0.0093
  578MOL0     C79669   3.395   8.616   6.792 -0.2370  0.0194 -0.4935
  578MOL0     C79670   3.494   8.735   6.796  0.0967  0.4503  0.4317
  578MOL0    Cl79671   3.647   8.695   6.717 -0.3720 -0.3684 -0.0548
  578MOL0     C79672   2.991   8.034   6.358  0.1354  0.1682 -0.4335
  578MOL0     C79673   2.860   8.023   6.304  0.1771 -0.4893 -0.0139
  578MOL0     O79674   2.660   7.903   6.132  0.3008  0.1246 -0.6903
  578MOL0     C79675   2.436   8.031   6.041 -0.4334 -0.3119  0.2226
  578MOL0     C79676   2.311   8.058   5.982 -0.7835 -0.2153 -0.4862
  578MOL0     N79677   1.666   8.453   6.087  0.0517 -0.2811  0.1500
  578MOL0     N79678   1.724   8.563   6.079  0.0741 -0.7380 -0.7424
  578MOL0     C79679   1.640   9.212   6.742 -0.9385 -0.7068 -0.7697
  578MOL0     C79680   1.552   9.319   6.757  0.4872 -0.1126 -0.0847
  578MOL0     C79681   1.304   9.603   6.927 -0.7518 -0.7159 -0.2503
  578MOL0     C79682   1.239   9.601   7.056 -0.0576 -0.3572 -0.7966
  578MOL0     C79683   1.118   9.664   7.076 -0.1179  0.8742  0.1417
  578MOL0     C79684   1.050   9.711   6.961 -0.1404  1.0542 -1.2829
  578MOL0     O79685   0.931   9.785   6.963  0.0668 -0.4254 -0.1213
  578MOL0     C79686   0.869   9.797   7.094 -0.2733  0.1056 -0.3317
  578MOL0     C79687   0.744   9.888   7.104  0.1002  0.1568 -0.2639
  578MOL0     C79688   0.644   9.857   6.994  0.5468 -0.8029 -0.1878
  578MOL0     C79689   0.524   9.958   7.010 -0.6757  0.2347 -0.3060
  578MOL0     C79690   0.415   9.925   6.908 -0.3244  0.5216  0.0709
  578MOL0     C79691   0.322   9.889   6.842  0.3880 -0.4495  0.7342
  578MOL0     C79692   1.109   9.706   6.834  0.4600 -0.2538 -0.9113
  578MOL0     C79693   1.231   9.653   6.816 -0.1451  0.7895  0.3249
  578MOL0     C79694   1.274   9.661   6.674 -0.2279  0.5428  0.0349
  578MOL0     H79695   1.776   9.575   6.792  0.9876 -0.9727  0.3179
  578MOL0     H79696   1.939   9.397   6.764  0.1637  1.5702 -3.9274
  578MOL0     H79697   1.887   9.004   6.595 -1.5709  4.5651 -0.5681
  578MOL0     H79698   1.754   8.977   6.716  0.7004 -3.3298 -0.2772
  578MOL0     H79699   2.045   8.935   6.738  0.2884  1.9093  0.7892
  578MOL0     H79700   1.954   8.974   6.883 -1.6999  2.4528 -1.0113
  578MOL0     H79701   1.959   8.721   6.867  1.2113  0.8873 -0.6496
  578MOL0     H79702   1.805   8.776   6.853 -0.6041 -1.7608 -1.1596
  578MOL0     H79703   1.856   8.594   6.685  1.0413 -1.1144 -1.4713
  578MOL0     H79704   1.794   8.730   6.611 -0.8258 -0.3365  1.3439
  578MOL0     H79705   2.090   8.666   6.644 -0.1183 -0.3401  0.7927
  578MOL0     H79706   2.044   8.812   6.553 -1.4878  0.1607  0.1614
  578MOL0     H79707   2.095   8.642   6.393 -1.1002  1.2280  0.1070
  578MOL0     H79708   1.959   8.545   6.454 -0.4630 -0.4602 -0.3578
  578MOL0     H79709   1.959   8.833   6.344 -0.9998  0.7738  2.8250
  578MOL0     H79710   1.807   8.738   6.380 -0.1398 -0.1835  0.2761
  578MOL0     H79711   1.866   8.773   6.148 -4.3945 -1.1599  0.1628
  578MOL0     H79712   2.008   8.667   6.165 -0.3963 -1.5754  2.2622
  578MOL0     H79713   1.873   8.418   6.341  2.4292  1.1788 -1.2489
  578MOL0     H79714   1.561   8.244   6.229 -0.0402  0.0112 -0.1196
  578MOL0     H79715   1.680   8.237   6.355 -2.7091 -2.1833 -0.2120
  578MOL0     H79716   1.700   8.041   6.212 -0.8824 -0.1286 -0.0339
  578MOL0     H79717   1.696   8.126   6.061  2.8281  0.2424 -0.4830
  578MOL0     H79718   1.928   8.235   6.157  1.1562 -1.7269  0.5764
  578MOL0     H79719   1.918   8.093   6.258 -0.5802  1.2333  1.7798
  578MOL0     H79720   1.960   7.943   6.068 -0.1230 -0.1626  0.7279
  578MOL0     H79721   1.886   8.053   5.952  0.5461  0.9831 -0.9061
  578MOL0     H79722   2.107   7.998   6.244 -0.9130 -1.4213 -1.2757
  578MOL0     H79723   2.383   7.820   6.395 -0.6008 -1.0074 -0.7351
  578MOL0     H79724   2.225   7.886   6.422  0.1628 -0.6347  0.0614
  578MOL0     H79725   2.373   7.979   6.460  1.5108  0.5824 -1.6001
  578MOL0     H79726   2.702   7.911   6.576  1.2388 -3.3671  0.7664
  578MOL0     H79727   2.906   7.955   6.676  1.3889 -3.5432  0.6323
  578MOL0     H79728   3.068   8.144   6.716 -1.5485 -0.7416 -1.5631
  578MOL0     H79729   3.136   7.980   6.739 -1.6193 -0.2097  0.2003
  578MOL0     H79730   3.299   8.139   6.817 -0.8694  2.3429  0.0182
  578MOL0     H79731   3.362   8.062   6.676 -1.4957 -0.5657  0.6846
  578MOL0     H79732   3.293   8.252   6.535 -1.7879 -3.0577  0.9240
  578MOL0     H79733   3.415   8.293   6.662  0.3176 -0.3080  1.0346
  578MOL0     H79734   3.236   8.397   6.803 -2.3042 -1.4673 -0.0115
  578MOL0     H79735   3.121   8.344   6.679 -1.3594 -0.5779  3.1278
  578MOL0     H79736   3.248   8.489   6.512 -2.1261  1.4571  0.8005
  578MOL0     H79737   3.157   8.577   6.633 -0.8799 -0.0117 -0.8281
  578MOL0     H79738   3.348   8.682   6.591 -2.0483  0.0923  2.5302
  578MOL0     H79739   3.452   8.543   6.588  1.0058 -1.3911  2.1009
  578MOL0     H79740   3.429   8.531   6.851 -0.6408  1.0342  1.2724
  578MOL0     H79741   3.302   8.647   6.839  0.8653  0.6595  1.3666
  578MOL0     H79742   3.520   8.754   6.901  1.9960  2.4501 -0.3243
  578MOL0     H79743   3.442   8.819   6.751 -2.0552 -0.0623  1.8074
  578MOL0     H79744   3.084   8.034   6.301  1.1966 -0.8316  1.2104
  578MOL0     H79745   2.853   8.051   6.200  1.9570  0.2701  0.0319
  578MOL0     H79746   2.522   8.056   5.979  0.2916 -0.6913  1.0492
  578MOL0     H79747   2.289   8.076   5.878 -0.4416 -3.3548 -1.2159
  578MOL0     H79748   1.595   9.114   6.731 -0.4039 -1.0837  0.2545
  578MOL0     H79749   1.444   9.306   6.755  0.5282 -0.3944 -1.5785
  578MOL0     H79750   1.280   9.547   7.141 -2.3631 -1.9125 -0.5946
  578MOL0     H79751   1.083   9.669   7.178  1.9314  0.2292  0.9431
  578MOL0     H79752   0.830   9.698   7.122 -0.1140  0.9491  3.3340
  578MOL0     H79753   0.945   9.826   7.167  0.7002 -1.5609 -0.6097
  578MOL0     H79754   0.783   9.990   7.097 -0.9438  0.6895  1.1907
  578MOL0     H79755   0.707   9.871   7.206  2.4678 -2.5148  0.3152
  578MOL0     H79756   0.695   9.882   6.901 -0.6939  1.8144 -0.2458
  578MOL0     H79757   0.613   9.752   6.999 -1.2981 -0.3561 -1.2356
  578MOL0     H79758   0.563  10.059   6.991  1.6816 -0.7167 -0.8573
  578MOL0     H79759   0.486   9.945   7.112 -1.4524  3.3840 -0.0749
  578MOL0     H79760   0.243   9.862   6.775 -1.8773  1.0725  2.6217
  578MOL0     H79761   1.047   9.746   6.755  0.8314  4.7130  0.9569
  578MOL0     H79762   1.292   9.567   6.621 -0.5098  1.1470 -1.1694
  578MOL0     H79763   1.201   9.717   6.615 -1.4172 -1.0529 -0.0532
  578MOL0     H79764   1.367   9.719   6.672  0.0924  0.2294  2.6783
  579MOL0     O79765   5.434   4.340   5.576  0.0724 -0.2923 -0.2634
  579MOL0     C79766   5.393   4.457   5.542 -0.6839 -1.0817 -0.5956
  579MOL0     O79767   5.483   4.553   5.504 -0.2450 -0.2693  0.6592
  579MOL0     C79768   5.611   4.524   5.478 -0.4081  0.3837  0.8617
  579MOL0     C79769   5.716   4.574   5.559  0.7715  0.0273 -0.1460
  579MOL0     C79770   5.853   4.538   5.535  0.4007  0.1259 -0.2466
  579MOL0     C79771   5.880   4.473   5.417 -0.5720 -0.2934  0.0489
  579MOL0     O79772   6.008   4.434   5.401  0.0500 -0.3110  0.4318
  579MOL0     C79773   6.061   4.346   5.497  0.2788 -0.0608 -0.4464
  579MOL0     C79774   6.212   4.316   5.466  0.5515 -0.3795 -0.1898
  579MOL0     C79775   6.287   4.272   5.596 -0.0051  0.1063 -0.1739
  579MOL0     C79776   6.432   4.238   5.571  0.0737  0.0307  0.4339
  579MOL0     C79777   6.458   4.099   5.507  0.1187  0.5025 -0.1633
  579MOL0     C79778   6.591   4.023   5.548 -0.2304 -0.2886  0.5908
  579MOL0     C79779   6.576   3.956   5.687 -0.7079  0.0914 -0.5135
  579MOL0     C79780   6.646   3.821   5.678  0.5474 -0.0992 -0.1747
  579MOL0     N79781   6.791   3.832   5.648 -0.3823 -0.1513  0.3540
  579MOL0     C79782   6.885   3.901   5.720 -0.1984 -0.1406  0.3425
  579MOL0     C79783   6.998   3.872   5.653 -0.1983  0.1486 -0.2692
  579MOL0     C79784   7.131   3.892   5.711  0.3949 -0.0346  0.1558
  579MOL0     C79785   7.211   4.015   5.668 -0.9559  0.3776  0.1481
  579MOL0     C79786   7.244   4.033   5.518  0.4075 -0.1124 -0.3284
  579MOL0     C79787   7.324   4.168   5.495  0.2534 -0.3587 -0.1324
  579MOL0     O79788   7.226   4.262   5.439  0.3655 -0.0605  0.6413
  579MOL0     C79789   7.173   4.352   5.537 -0.7315 -0.1405  0.6071
  579MOL0     C79790   7.224   4.481   5.554 -0.0368  0.4644 -0.0795
  579MOL0     C79791   7.166   4.573   5.636 -0.1745  0.1672  0.5411
  579MOL0     C79792   7.237   4.697   5.665 -0.2280  0.4779  0.8157
  579MOL0     C79793   7.037   4.547   5.694 -0.3053 -0.3919  0.7931
  579MOL0     C79794   6.951   4.658   5.753 -0.4064  0.4676  0.0319
  579MOL0     O79795   6.857   4.619   5.849  0.0826  0.4286  0.0192
  579MOL0     C79796   6.754   4.702   5.878  0.6658  0.1707 -0.5587
  579MOL0     C79797   6.622   4.679   5.835  0.1671  0.2298  0.4513
  579MOL0     C79798   6.513   4.760   5.868 -0.6775 -0.1112 -0.8793
  579MOL0     C79799   6.539   4.874   5.947  0.5251  0.4225 -1.1001
  579MOL0     O79800   6.444   4.966   5.982 -0.5156 -0.3030  0.7277
  579MOL0     C79801   6.305   4.935   5.970  0.4585  0.6437  0.0115
  579MOL0     C79802   6.220   5.039   6.047  0.2798  0.6518  0.7564
  579MOL0     C79803   6.077   5.008   6.046  1.0234  0.1078  0.6226
  579MOL0     C79804   5.990   5.120   6.102 -0.0227 -0.0000  0.2388
  579MOL0     C79805   5.840   5.087   6.085 -0.4048  0.0028  0.2069
  579MOL0     C79806   5.743   5.190   6.142  0.5189 -0.1990  1.1278
  579MOL0     C79807   5.595   5.150   6.132  0.7099 -0.4821 -0.0965
  579MOL0     C79808   5.505   5.243   6.209 -0.0217 -0.9630 -0.2406
  579MOL0    Cl79809   5.324   5.207   6.168 -0.5789  0.5274 -0.1977
  579MOL0     C79810   6.663   4.900   5.995  0.0794 -0.7627 -0.1725
  579MOL0     C79811   6.768   4.817   5.957  0.4364 -0.0816  0.6383
  579MOL0     O79812   6.956   4.773   5.705  0.2958 -0.1529  0.5100
  579MOL0     C79813   6.984   4.423   5.676 -0.8013 -0.3348  0.0994
  579MOL0     C79814   7.054   4.324   5.601 -0.7942  0.1630  0.0465
  579MOL0     N79815   6.973   3.792   5.543 -0.2570  0.4344  0.7692
  579MOL0     N79816   6.845   3.775   5.539  0.3272  1.0467  0.3327
  579MOL0     C79817   5.775   4.437   5.336  0.6484  0.4465 -1.1808
  579MOL0     C79818   5.639   4.453   5.364  0.4360 -0.8222  0.5490
  579MOL0     C79819   5.259   4.505   5.558  0.2777 -0.3730  0.0304
  579MOL0     C79820   5.247   4.615   5.640  0.5118  0.7330  0.2475
  579MOL0     C79821   5.121   4.680   5.662  0.4975 -0.9983 -0.7557
  579MOL0     C79822   5.008   4.619   5.612 -0.2485  1.4284 -1.0853
  579MOL0     O79823   4.892   4.686   5.627  0.3201  0.3584 -0.7495
  579MOL0     C79824   4.811   4.644   5.745  0.2242  0.6823 -0.1706
  579MOL0     C79825   4.732   4.520   5.711  0.6602  0.1885 -0.0549
  579MOL0     C79826   4.616   4.560   5.619 -0.3450 -1.2167 -0.7519
  579MOL0     C79827   4.513   4.450   5.578 -0.3465 -0.3416 -0.3692
  579MOL0     C79828   4.577   4.329   5.528  0.4293 -0.9741  0.9094
  579MOL0     C79829   4.635   4.241   5.477 -0.0153  0.6001  0.0618
  579MOL0     C79830   5.019   4.500   5.527 -0.4737 -0.3735  0.4126
  579MOL0     C79831   5.143   4.453   5.494  0.1953  1.3170 -1.7258
  579MOL0     C79832   5.146   4.339   5.390 -0.1083 -0.5212 -0.0698
  579MOL0     H79833   5.682   4.642   5.636 -3.1535 -1.4429 -0.3567
  579MOL0     H79834   5.935   4.574   5.597  0.3425 -2.0050  1.1511
  579MOL0     H79835   5.999   4.256   5.497  0.2380 -0.0335  0.5096
  579MOL0     H79836   6.054   4.397   5.593 -4.7098  1.0989 -1.1334
  579MOL0     H79837   6.222   4.239   5.389 -1.3321 -1.1783  0.2887
  579MOL0     H79838   6.256   4.406   5.424 -1.3033  0.5693 -0.2370
  579MOL0     H79839   6.288   4.352   5.670 -1.4678  1.1478 -1.2128
  579MOL0     H79840   6.240   4.183   5.640  0.9760 -1.0813 -1.4587
  579MOL0     H79841   6.479   4.320   5.517  0.3862 -0.3580  0.1137
  579MOL0     H79842   6.486   4.230   5.667 -0.4513 -2.1437  0.5991
  579MOL0     H79843   6.457   4.104   5.398 -0.0457  0.0655 -0.1856
  579MOL0     H79844   6.393   4.019   5.546  1.7865 -0.8245  0.0107
  579MOL0     H79845   6.608   3.952   5.466 -0.0627  1.6059 -1.1067
  579MOL0     H79846   6.673   4.094   5.556 -1.6627  1.5321 -0.1686
  579MOL0     H79847   6.473   3.947   5.721 -0.9395  1.7370 -0.7143
  579MOL0     H79848   6.631   4.012   5.763 -1.0850  0.0406 -0.1998
  579MOL0     H79849   6.637   3.778   5.779 -0.3508  2.1530  0.7760
  579MOL0     H79850   6.605   3.764   5.595 -0.4823 -0.4421  0.5506
  579MOL0     H79851   6.873   3.941   5.820 -1.7436 -1.3727  0.6920
  579MOL0     H79852   7.193   3.805   5.688  2.7995  1.0408  2.1217
  579MOL0     H79853   7.120   3.893   5.820  0.3698 -0.9735  0.1670
  579MOL0     H79854   7.162   4.104   5.708  0.7444  0.7412  1.5310
  579MOL0     H79855   7.302   4.001   5.727 -1.3432 -1.4025  0.3622
  579MOL0     H79856   7.310   3.952   5.487  0.1633  0.9110 -4.0152
  579MOL0     H79857   7.156   4.022   5.453  2.1455 -4.5383 -2.3777
  579MOL0     H79858   7.375   4.212   5.580  1.6884  1.1529 -1.7059
  579MOL0     H79859   7.390   4.158   5.409 -1.5858  0.5369 -1.7385
  579MOL0     H79860   7.318   4.491   5.500  0.5247 -3.0472  0.0011
  579MOL0     H79861   7.219   4.728   5.768  3.7430 -2.4520  2.7054
  579MOL0     H79862   7.189   4.764   5.593 -1.3159 -1.5490 -0.4489
  579MOL0     H79863   7.343   4.701   5.637 -0.4307  1.4171  0.1404
  579MOL0     H79864   6.610   4.584   5.783 -0.2164  0.3019  0.4042
  579MOL0     H79865   6.414   4.745   5.827 -1.0337 -3.0294  0.7372
  579MOL0     H79866   6.274   4.935   5.865 -2.1552 -0.8318  0.7168
  579MOL0     H79867   6.288   4.836   6.012  0.2205 -0.1798 -1.9106
  579MOL0     H79868   6.248   5.037   6.153  3.6823  0.7881 -0.0374
  579MOL0     H79869   6.238   5.137   6.004 -0.6590 -0.0225 -1.2957
  579MOL0     H79870   6.061   4.912   6.095  1.4934 -0.0186  0.5262
  579MOL0     H79871   6.045   4.994   5.942  1.0617  1.5122  0.3980
  579MOL0     H79872   6.013   5.211   6.046 -1.0302 -1.0487 -2.0139
  579MOL0     H79873   6.009   5.140   6.208 -1.5789  2.4801  0.1252
  579MOL0     H79874   5.812   5.064   5.981 -0.7638 -0.1167  0.3281
  579MOL0     H79875   5.828   4.988   6.130 -2.0506 -0.5748 -1.3741
  579MOL0     H79876   5.759   5.285   6.090  5.1915 -0.0166  2.4544
  579MOL0     H79877   5.755   5.203   6.250 -1.9555 -1.5662  1.6334
  579MOL0     H79878   5.594   5.052   6.180 -1.0972 -0.4907 -0.0858
  579MOL0     H79879   5.560   5.141   6.029 -0.2901 -0.2836  0.2134
  579MOL0     H79880   5.532   5.341   6.169 -1.5319 -0.4290 -0.0048
  579MOL0     H79881   5.518   5.246   6.317  2.4372 -1.1433 -0.4696
  579MOL0     H79882   6.692   4.993   6.042  1.1441 -0.1260 -1.9860
  579MOL0     H79883   6.861   4.857   5.996  0.9936 -1.5645  0.8875
  579MOL0     H79884   6.884   4.397   5.710 -0.6779  0.4909  1.1504
  579MOL0     H79885   7.001   4.230   5.586 -2.7959  1.2665 -0.2576
  579MOL0     H79886   5.798   4.380   5.246  0.8614 -1.5753  0.0958
  579MOL0     H79887   5.560   4.428   5.294 -1.3096  1.4234  1.5926
  579MOL0     H79888   5.335   4.662   5.680 -0.1055  1.1375  1.1639
  579MOL0     H79889   5.114   4.773   5.717  2.6425  0.1178 -2.1986
  579MOL0     H79890   4.873   4.610   5.828 -0.8291 -0.8551  0.0369
  579MOL0     H79891   4.744   4.727   5.771  1.4855  1.3112  1.2146
  579MOL0     H79892   4.703   4.463   5.800  3.7171 -1.4081  0.0305
  579MOL0     H79893   4.797   4.455   5.652 -1.7460 -0.1745 -2.5322
  579MOL0     H79894   4.564   4.646   5.662  1.3675 -1.2776  1.6100
  579MOL0     H79895   4.666   4.604   5.532 -1.6071  1.9752 -0.0106
  579MOL0     H79896   4.443   4.491   5.505 -1.0448 -0.1106  0.4199
  579MOL0     H79897   4.457   4.424   5.668  3.1811 -2.1183  1.5344
  579MOL0     H79898   4.688   4.156   5.439 -1.2166  0.6366 -1.8581
  579MOL0     H79899   4.931   4.479   5.467 -0.5334 -0.5647  0.5661
  579MOL0     H79900   5.050   4.287   5.399 -1.6660  2.0075 -1.1468
  579MOL0     H79901   5.138   4.383   5.291 -1.3868 -0.0827  0.2048
  579MOL0     H79902   5.234   4.274   5.392  2.2888  2.5166  0.6681
  580MOL0     O79903  10.061   7.381   5.709  0.4635 -0.6896 -0.4798
  580MOL0     C79904  10.023   7.420   5.820  0.4507 -0.0979  0.8832
  580MOL0     O79905  10.089   7.500   5.909  0.0896  0.1859  0.4876
  580MOL0     C79906  10.215   7.535   5.872 -0.5770 -0.0123  0.7221
  580MOL0     C79907  10.310   7.550   5.981  0.4444 -0.4744 -0.6362
  580MOL0     C79908  10.437   7.609   5.968  0.0624  0.6742 -0.5636
  580MOL0     C79909  10.462   7.675   5.847 -0.3959  0.0149  0.2294
  580MOL0     O79910  10.579   7.734   5.800 -0.7721 -1.3109 -0.4845
  580MOL0     C79911  10.654   7.796   5.907 -0.1953  0.5139  0.7030
  580MOL0     C79912  10.730   7.925   5.866 -0.4810  0.9633 -0.0082
  580MOL0     C79913  10.790   7.922   5.725  0.1584 -0.5041 -0.0013
  580MOL0     C79914  10.854   8.053   5.679  0.5869  0.4329 -0.4226
  580MOL0     C79915  10.986   8.092   5.752  0.0421  0.1344  0.2393
  580MOL0     C79916  11.021   8.240   5.730  0.1450 -0.9021  0.5600
  580MOL0     C79917  11.062   8.262   5.583 -0.0002  0.7745 -0.3963
  580MOL0     C79918  11.194   8.189   5.563  0.2453  0.9280 -0.2667
  580MOL0     N79919  11.253   8.212   5.429  0.6259 -0.2823 -0.6120
  580MOL0     C79920  11.383   8.245   5.411  0.5594  0.0416  0.2283
  580MOL0     C79921  11.383   8.287   5.285 -0.9281  0.1403  0.0246
  580MOL0     C79922  11.498   8.327   5.199  0.1087  0.6694  0.4286
  580MOL0     C79923  11.566   8.460   5.239 -0.1949 -0.1796  0.1944
  580MOL0     C79924  11.695   8.481   5.148  0.1796  0.3660  0.8925
  580MOL0     C79925  11.744   8.623   5.158 -0.1111 -0.6324  0.6209
  580MOL0     O79926  11.782   8.664   5.287 -0.1037 -0.5968 -0.5702
  580MOL0     C79927  11.912   8.637   5.330  0.2949  0.1389 -0.0308
  580MOL0     C79928  11.936   8.673   5.460 -1.0891 -0.3855  0.5140
  580MOL0     C79929  12.064   8.671   5.512 -0.0427 -1.0626 -0.6431
  580MOL0     C79930  12.068   8.748   5.648 -0.1808  0.3831  0.2105
  580MOL0     C79931  12.176   8.624   5.440  0.0096  0.4438  0.3750
  580MOL0     C79932  12.316   8.620   5.480 -0.4856 -0.1142  0.1480
  580MOL0     O79933  12.402   8.563   5.395  0.5207  0.6605 -0.3689
  580MOL0     C79934  12.530   8.535   5.430 -0.3654 -0.6018  0.9036
  580MOL0     C79935  12.627   8.576   5.331 -0.0004 -0.2565  0.2988
  580MOL0     C79936  12.763   8.568   5.364  0.1507 -0.1853 -0.2866
  580MOL0     C79937  12.802   8.526   5.488  1.0815 -0.0653 -0.7301
  580MOL0     O79938  12.929   8.495   5.511 -0.9025 -0.3362  0.6507
  580MOL0     C79939  12.983   8.547   5.636 -0.0506  0.6792  0.4496
  580MOL0     C79940  13.120   8.502   5.668 -0.4278  0.0066  0.1259
  580MOL0     C79941  13.141   8.362   5.736 -0.0576 -1.0166  0.6275
  580MOL0     C79942  13.285   8.354   5.794 -0.3552 -0.3558 -0.0285
  580MOL0     C79943  13.399   8.367   5.687  0.1540  0.5299  0.5593
  580MOL0     C79944  13.527   8.336   5.768  0.7035  0.1332 -0.1195
  580MOL0     C79945  13.645   8.353   5.684  0.0264  0.3817  0.6883
  580MOL0     C79946  13.768   8.367   5.772 -0.0190  0.6552 -0.6271
  580MOL0    Cl79947  13.925   8.406   5.684  0.2754 -0.1014  0.7196
  580MOL0     C79948  12.711   8.495   5.585  0.2397 -0.3831 -0.6146
  580MOL0     C79949  12.571   8.503   5.555 -0.1500  0.6955  0.0418
  580MOL0     O79950  12.345   8.674   5.586 -0.5732  0.1416 -0.2614
  580MOL0     C79951  12.143   8.565   5.313 -0.2856 -0.7046  0.4845
  580MOL0     C79952  12.014   8.573   5.256  0.4345 -0.3808  0.3795
  580MOL0     N79953  11.259   8.285   5.230  0.6912  0.0879 -0.7048
  580MOL0     N79954  11.176   8.226   5.318  0.2550  0.0448 -0.4848
  580MOL0     C79955  10.362   7.673   5.744  0.0162 -0.6785  0.7561
  580MOL0     C79956  10.240   7.609   5.756 -0.2865 -0.2135  0.6710
  580MOL0     C79957   9.888   7.393   5.865  0.6518 -0.3502 -0.2309
  580MOL0     C79958   9.856   7.409   6.002 -0.7478  0.6093 -0.5804
  580MOL0     C79959   9.728   7.393   6.051 -0.4801 -0.2307 -0.7404
  580MOL0     C79960   9.626   7.354   5.967 -0.9612  0.0378  0.2963
  580MOL0     O79961   9.499   7.351   6.017 -0.1382 -0.4375  0.3018
  580MOL0     C79962   9.392   7.353   5.926  0.6440 -0.4187 -0.1039
  580MOL0     C79963   9.253   7.363   5.997 -0.3932  0.2860 -0.7663
  580MOL0     C79964   9.255   7.245   6.100  0.9011 -0.2919 -0.4110
  580MOL0     C79965   9.114   7.224   6.158  0.5888  0.0950  0.1417
  580MOL0     C79966   9.114   7.161   6.291 -0.4942  0.0253  0.3728
  580MOL0     C79967   9.105   7.099   6.394 -0.0630  0.0907 -0.0714
  580MOL0     C79968   9.652   7.351   5.831  0.6432 -0.0400  0.5385
  580MOL0     C79969   9.780   7.368   5.777 -0.0650  0.3561  0.3673
  580MOL0     C79970   9.793   7.350   5.627 -0.1208  0.7288  0.5518
  580MOL0     H79971  10.280   7.506   6.075  1.8803 -0.2807 -0.0578
  580MOL0     H79972  10.493   7.624   6.060 -0.9009  2.3160 -0.2105
  580MOL0     H79973  10.730   7.722   5.932  0.1698  1.3089  2.1034
  580MOL0     H79974  10.595   7.820   5.997 -1.2174  2.0334 -0.3270
  580MOL0     H79975  10.662   8.008   5.847 -0.4523  0.6041 -1.9161
  580MOL0     H79976  10.819   7.942   5.928  1.1691  1.4634 -2.3902
  580MOL0     H79977  10.872   7.851   5.710  0.9076  0.5966 -1.4066
  580MOL0     H79978  10.706   7.899   5.659 -1.4417 -2.4975  2.5195
  580MOL0     H79979  10.871   8.046   5.572 -0.2218  2.8740 -0.7707
  580MOL0     H79980  10.786   8.139   5.686  3.8736  3.1776  0.5903
  580MOL0     H79981  11.069   8.025   5.728  0.4258  0.9014 -0.6341
  580MOL0     H79982  10.974   8.063   5.857 -0.3825  0.0127  0.1572
  580MOL0     H79983  10.938   8.306   5.759 -0.8396 -1.0273 -1.7221
  580MOL0     H79984  11.108   8.263   5.792 -0.1076  3.8657 -0.4775
  580MOL0     H79985  11.076   8.370   5.572 -1.1490  1.4225  3.2630
  580MOL0     H79986  10.990   8.221   5.512  1.7556 -0.0069 -1.8390
  580MOL0     H79987  11.270   8.196   5.641  0.8825  0.1906 -0.8075
  580MOL0     H79988  11.173   8.082   5.556  2.8368  0.3659 -0.8756
  580MOL0     H79989  11.473   8.236   5.470 -0.6929  0.5463  2.3277
  580MOL0     H79990  11.472   8.329   5.093  1.4995 -0.6088  0.0268
  580MOL0     H79991  11.573   8.249   5.215  2.1861  2.1386 -1.6163
  580MOL0     H79992  11.489   8.535   5.218  0.1011  0.2763  0.7235
  580MOL0     H79993  11.583   8.471   5.346 -0.3871  0.8127  0.1315
  580MOL0     H79994  11.775   8.409   5.166  1.4183  1.8883  1.7346
  580MOL0     H79995  11.674   8.467   5.042  2.2325  0.5361  0.4337
  580MOL0     H79996  11.817   8.631   5.077  0.5997 -3.4940  0.8842
  580MOL0     H79997  11.665   8.694   5.134  0.9093  0.6929  0.9917
  580MOL0     H79998  11.848   8.711   5.511  0.6540  2.7155  1.5292
  580MOL0     H79999  12.147   8.823   5.648  1.9710 -1.7482 -0.4801
  580MOL0     H80000  12.098   8.672   5.722  0.6779 -0.3974 -0.9056
  580MOL0     H80001  11.970   8.780   5.683 -0.7993 -0.6925 -0.4652
  580MOL0     H80002  12.602   8.602   5.228 -0.1010 -1.2037  0.0725
  580MOL0     H80003  12.843   8.601   5.298  0.9236  0.3269  0.8789
  580MOL0     H80004  12.977   8.656   5.629 -0.7966  0.6343  0.3918
  580MOL0     H80005  12.919   8.513   5.718 -0.4271 -1.5335 -0.6750
  580MOL0     H80006  13.169   8.506   5.571  0.1581 -0.2400  0.4064
  580MOL0     H80007  13.170   8.571   5.736 -0.6435 -0.3983  0.7051
  580MOL0     H80008  13.129   8.291   5.654  1.0067  0.5060 -0.9300
  580MOL0     H80009  13.075   8.348   5.822 -0.1715  0.7649  0.8642
  580MOL0     H80010  13.305   8.261   5.847  1.0194 -0.3150 -0.4219
  580MOL0     H80011  13.302   8.438   5.862 -0.9560 -1.1928  1.1792
  580MOL0     H80012  13.381   8.284   5.618 -3.3849 -2.2330  4.3376
  580MOL0     H80013  13.409   8.466   5.642 -2.9400  1.0270  0.7519
  580MOL0     H80014  13.524   8.234   5.806  1.5309  0.1868  0.1050
  580MOL0     H80015  13.524   8.409   5.850 -2.3828 -1.1360  1.0615
  580MOL0     H80016  13.638   8.444   5.624  0.7578  0.1693  0.2549
  580MOL0     H80017  13.648   8.265   5.618 -0.5860 -0.5333  1.8426
  580MOL0     H80018  13.793   8.273   5.823  0.6423 -0.0445 -2.1868
  580MOL0     H80019  13.746   8.441   5.850 -1.2757  0.5966 -0.9187
  580MOL0     H80020  12.742   8.458   5.683  1.1362  0.2352 -0.6539
  580MOL0     H80021  12.501   8.484   5.636 -0.1424 -0.2021 -0.1474
  580MOL0     H80022  12.229   8.526   5.259 -1.6117 -1.0698 -1.4444
  580MOL0     H80023  12.012   8.550   5.150  2.1493  0.8952  0.0203
  580MOL0     H80024  10.374   7.729   5.652  1.3412 -0.7506  0.8688
  580MOL0     H80025  10.162   7.618   5.681  0.2467  1.5758  0.2922
  580MOL0     H80026   9.928   7.428   6.081 -1.6955 -1.2488  0.8110
  580MOL0     H80027   9.705   7.410   6.155 -2.8954  1.5040 -1.4885
  580MOL0     H80028   9.393   7.436   5.855  1.9203 -1.6059 -1.5330
  580MOL0     H80029   9.392   7.261   5.867 -0.6241 -0.4845 -0.0407
  580MOL0     H80030   9.171   7.353   5.926  0.8605 -0.1052 -2.2029
  580MOL0     H80031   9.231   7.462   6.039 -0.1182  0.3183 -0.6974
  580MOL0     H80032   9.301   7.158   6.053  1.2662  0.2061 -0.9938
  580MOL0     H80033   9.319   7.278   6.182 -2.5918  2.8100  1.4298
  580MOL0     H80034   9.057   7.167   6.084  0.0186 -0.7849  1.2276
  580MOL0     H80035   9.058   7.318   6.166 -0.5035 -0.3632 -1.5363
  580MOL0     H80036   9.094   7.045   6.485  2.1276 -0.1618  0.0872
  580MOL0     H80037   9.574   7.328   5.758  1.0752 -1.5219  0.5052
  580MOL0     H80038   9.836   7.255   5.594  0.8483  0.0815  3.3481
  580MOL0     H80039   9.690   7.354   5.592  0.1292  0.6568 -0.2079
  580MOL0     H80040   9.850   7.427   5.575  0.5634 -0.0011  0.1916
  581MOL0     O80041   8.616   7.078   7.955 -0.1607  0.8309  1.1445
  581MOL0     C80042   8.593   7.024   7.842 -0.7847  0.0013  0.4737
  581MOL0     O80043   8.670   7.039   7.736  0.3234  0.0522  0.5051
  581MOL0     C80044   8.769   7.131   7.732 -0.0596  0.6377  0.1231
  581MOL0     C80045   8.871   7.132   7.829  0.6866 -1.1840  0.4869
  581MOL0     C80046   8.970   7.229   7.825 -0.3367 -0.7086 -0.2041
  581MOL0     C80047   8.981   7.311   7.716  0.2535 -0.0364 -0.3439
  581MOL0     O80048   9.069   7.416   7.703 -0.1702 -0.9007 -0.6287
  581MOL0     C80049   9.097   7.494   7.818  0.8417  0.1918 -0.5976
  581MOL0     C80050   9.230   7.562   7.801 -0.0851 -0.4687  0.9812
  581MOL0     C80051   9.349   7.463   7.780  0.3829 -0.3994  0.4150
  581MOL0     C80052   9.470   7.549   7.735  0.5588  0.9837  0.4685
  581MOL0     C80053   9.604   7.469   7.733  0.1275  0.3827 -0.1348
  581MOL0     C80054   9.707   7.538   7.647 -0.7615 -0.0709 -0.1663
  581MOL0     C80055   9.864   7.509   7.659 -0.3938  0.9761  0.6403
  581MOL0     C80056   9.939   7.568   7.774 -0.1007  0.9428  0.3848
  581MOL0     N80057  10.084   7.549   7.773  0.2894  0.5259 -0.9898
  581MOL0     C80058  10.170   7.572   7.673  0.4859 -0.0035 -0.4540
  581MOL0     C80059  10.290   7.556   7.721  0.5676  0.9385 -0.1340
  581MOL0     C80060  10.414   7.586   7.641 -0.7403  0.6506  0.3747
  581MOL0     C80061  10.431   7.738   7.635  0.3420 -0.5319 -0.4405
  581MOL0     C80062  10.498   7.782   7.506  1.1393 -0.6103 -0.5758
  581MOL0     C80063  10.629   7.723   7.479 -0.2889  0.0875 -0.5745
  581MOL0     O80064  10.735   7.818   7.520 -0.2950  1.4671  0.2153
  581MOL0     C80065  10.855   7.783   7.471 -0.7904  0.3358  0.3875
  581MOL0     C80066  10.919   7.864   7.373 -0.0773 -0.4662 -0.4842
  581MOL0     C80067  11.060   7.831   7.335  0.3945  0.4869  0.4958
  581MOL0     C80068  11.114   7.912   7.220  0.8512 -0.7315 -1.1604
  581MOL0     C80069  11.132   7.715   7.391  0.0734 -1.0210 -0.1982
  581MOL0     C80070  11.280   7.673   7.359 -0.4302 -0.1942  0.9785
  581MOL0     O80071  11.312   7.554   7.413 -0.6770 -0.2369 -0.2458
  581MOL0     C80072  11.423   7.483   7.367 -0.0007  0.3694  0.5117
  581MOL0     C80073  11.415   7.384   7.272  1.0493  0.3780 -0.8964
  581MOL0     C80074  11.528   7.311   7.237 -0.7845  0.4092 -0.4806
  581MOL0     C80075  11.653   7.330   7.300 -0.8964 -0.1372  0.4444
  581MOL0     O80076  11.767   7.267   7.269  0.6501  0.0472  0.0791
  581MOL0     C80077  11.772   7.141   7.191 -0.4405 -0.2819 -0.8094
  581MOL0     C80078  11.918   7.078   7.173 -0.5928 -0.1374 -0.7663
  581MOL0     C80079  11.957   7.025   7.313 -0.3925 -0.0729 -0.1437
  581MOL0     C80080  12.107   6.988   7.302  0.8511 -1.6647 -0.2505
  581MOL0     C80081  12.165   6.942   7.434 -0.6044  0.3897  0.4561
  581MOL0     C80082  12.319   6.933   7.427 -0.0312  0.4760  0.1522
  581MOL0     C80083  12.369   6.903   7.572 -0.0711  0.2178  0.6916
  581MOL0     C80084  12.357   6.757   7.613  0.0798  0.2837 -0.7394
  581MOL0    Cl80085  12.492   6.655   7.549 -0.3681  0.2368  0.2471
  581MOL0     C80086  11.663   7.433   7.384 -0.9232 -0.1969 -0.1880
  581MOL0     C80087  11.554   7.515   7.417 -0.2519 -0.5231 -0.7322
  581MOL0     O80088  11.347   7.738   7.282 -0.1377 -0.1075 -0.2874
  581MOL0     C80089  11.059   7.639   7.490 -0.3988  0.4416 -0.3382
  581MOL0     C80090  10.931   7.678   7.527  0.1295 -0.1017 -0.8199
  581MOL0     N80091  10.275   7.500   7.849 -0.3383 -0.2220 -1.0500
  581MOL0     N80092  10.148   7.497   7.881  0.1429 -0.4883  0.3957
  581MOL0     C80093   8.882   7.303   7.614 -0.7766  0.7919 -0.4656
  581MOL0     C80094   8.781   7.213   7.616  0.4468  0.4940  0.0017
  581MOL0     C80095   8.480   6.931   7.825 -0.2076 -0.2336 -0.0271
  581MOL0     C80096   8.474   6.838   7.717  1.1018 -0.2982  0.1566
  581MOL0     C80097   8.375   6.743   7.711  0.1377 -0.3715 -0.0956
  581MOL0     C80098   8.277   6.732   7.796 -0.2626 -0.0342 -0.4140
  581MOL0     O80099   8.179   6.640   7.788 -0.4492  0.6710  0.0800
  581MOL0     C80100   8.182   6.538   7.680 -0.1900 -1.2465  0.2218
  581MOL0     C80101   8.040   6.483   7.668 -0.0518  0.4997  0.6255
  581MOL0     C80102   8.046   6.387   7.549 -0.3220  0.7130  0.5728
  581MOL0     C80103   7.914   6.305   7.528 -0.1543  1.0228  0.3222
  581MOL0     C80104   7.959   6.188   7.449 -0.3600 -0.0014 -0.4184
  581MOL0     C80105   7.981   6.086   7.386 -0.3593 -0.4910 -0.1847
  581MOL0     C80106   8.271   6.837   7.888  0.2562 -0.4514  0.6026
  581MOL0     C80107   8.366   6.937   7.905 -0.7522 -0.0017  0.4148
  581MOL0     C80108   8.330   7.047   8.001 -0.5568 -0.3622  0.4369
  581MOL0     H80109   8.855   7.072   7.918 -2.1252 -1.0966  0.1346
  581MOL0     H80110   9.018   7.242   7.922 -4.2415  1.4298  1.6691
  581MOL0     H80111   9.106   7.434   7.909 -2.1758 -2.7493 -2.0257
  581MOL0     H80112   9.010   7.560   7.828  1.6282  1.7820 -3.1446
  581MOL0     H80113   9.233   7.616   7.706 -1.0660 -1.2809  0.4609
  581MOL0     H80114   9.243   7.627   7.888 -2.7426  1.2622  0.2125
  581MOL0     H80115   9.373   7.403   7.868  0.4417 -1.4439 -0.2923
  581MOL0     H80116   9.331   7.398   7.694 -3.7153  0.5507  0.3396
  581MOL0     H80117   9.451   7.592   7.636  0.9924  0.1003 -0.0166
  581MOL0     H80118   9.490   7.632   7.803 -1.3231  2.2809 -0.4848
  581MOL0     H80119   9.585   7.367   7.697  0.1725  0.3749 -0.1364
  581MOL0     H80120   9.633   7.463   7.838 -1.9684 -0.4667  0.4585
  581MOL0     H80121   9.681   7.507   7.546 -1.4682 -2.3806  0.6660
  581MOL0     H80122   9.694   7.647   7.645  2.0663  0.4258  1.5793
  581MOL0     H80123   9.904   7.523   7.558 -3.4198  1.4857 -0.5760
  581MOL0     H80124   9.882   7.401   7.664  1.9863  1.1176 -1.9770
  581MOL0     H80125   9.925   7.676   7.776 -1.2578  0.9415 -2.5547
  581MOL0     H80126   9.890   7.521   7.860  1.4100 -1.9755 -0.2194
  581MOL0     H80127  10.143   7.610   7.575 -0.8882 -1.9883 -0.8986
  581MOL0     H80128  10.393   7.541   7.544 -1.8884 -0.8915  1.2934
  581MOL0     H80129  10.501   7.532   7.681 -1.2926 -1.0089 -0.6017
  581MOL0     H80130  10.334   7.784   7.659  0.5013 -1.7821  3.2208
  581MOL0     H80131  10.498   7.765   7.718 -2.8557 -1.3743  2.6853
  581MOL0     H80132  10.427   7.757   7.426  2.2482 -1.3925 -1.3359
  581MOL0     H80133  10.499   7.891   7.511  1.0075 -0.6534  0.4762
  581MOL0     H80134  10.649   7.633   7.539  3.0387  1.0243 -0.0769
  581MOL0     H80135  10.630   7.699   7.373 -0.2593 -0.0035 -0.5541
  581MOL0     H80136  10.864   7.935   7.313  1.4414 -1.3583 -3.1501
  581MOL0     H80137  11.037   7.983   7.190  0.7340 -0.7796 -0.9782
  581MOL0     H80138  11.139   7.845   7.137 -1.7501 -0.9234 -1.8878
  581MOL0     H80139  11.203   7.968   7.251  2.3955 -3.2507 -0.7764
  581MOL0     H80140  11.325   7.360   7.217  0.9495 -2.8971  0.4816
  581MOL0     H80141  11.517   7.254   7.145 -0.2749  0.5083 -0.6067
  581MOL0     H80142  11.707   7.077   7.252 -1.1886 -0.4192 -1.7076
  581MOL0     H80143  11.719   7.150   7.095 -2.0483  1.0942  0.1584
  581MOL0     H80144  11.918   6.988   7.110 -1.3926 -0.4896 -0.2883
  581MOL0     H80145  11.984   7.152   7.128  0.2771  1.5857  2.9857
  581MOL0     H80146  11.905   6.932   7.337 -0.1163  0.0364  0.9779
  581MOL0     H80147  11.933   7.102   7.387  1.2322 -0.6145  1.0209
  581MOL0     H80148  12.166   7.074   7.270  2.3194 -2.4096  0.3568
  581MOL0     H80149  12.133   6.916   7.224  3.0470  0.7842 -1.9276
  581MOL0     H80150  12.139   7.017   7.509  1.4066  0.4032  1.1963
  581MOL0     H80151  12.130   6.845   7.469  0.4366  0.1199  0.7933
  581MOL0     H80152  12.360   7.031   7.401  3.4034 -0.5583  1.2485
  581MOL0     H80153  12.354   6.854   7.360  0.3342 -1.7528  2.7912
  581MOL0     H80154  12.322   6.975   7.641 -1.9081  0.7773 -1.0455
  581MOL0     H80155  12.476   6.925   7.578 -0.3288  1.9505 -0.5449
  581MOL0     H80156  12.254   6.725   7.594  0.8279 -1.5741 -1.9873
  581MOL0     H80157  12.365   6.764   7.722  3.7051  2.3066 -0.9666
  581MOL0     H80158  11.760   7.464   7.420 -0.2698  1.7386 -3.2754
  581MOL0     H80159  11.570   7.594   7.490  1.8994 -1.5846  0.0212
  581MOL0     H80160  11.096   7.548   7.538 -2.5646  0.6557  1.9693
  581MOL0     H80161  10.872   7.622   7.599 -3.0902  0.1236 -3.0860
  581MOL0     H80162   8.884   7.359   7.522  1.7649 -0.2752 -1.1519
  581MOL0     H80163   8.703   7.201   7.541  0.2922 -2.9003  0.5337
  581MOL0     H80164   8.557   6.830   7.647  1.4090 -2.4885  0.6710
  581MOL0     H80165   8.383   6.668   7.633 -1.1437 -0.1349 -0.4918
  581MOL0     H80166   8.206   6.591   7.587 -2.2289 -1.0491 -0.2255
  581MOL0     H80167   8.251   6.454   7.690 -1.8853 -2.7217 -0.1865
  581MOL0     H80168   7.968   6.563   7.647  1.6556  1.6087 -1.5077
  581MOL0     H80169   8.021   6.424   7.757 -0.4312 -1.9629 -0.9968
  581MOL0     H80170   8.073   6.449   7.463  0.5445  1.0061  1.0431
  581MOL0     H80171   8.134   6.323   7.557 -1.1698 -0.8727 -1.7748
  581MOL0     H80172   7.846   6.364   7.465  0.5291  1.7131  0.2062
  581MOL0     H80173   7.864   6.272   7.619  2.3955 -1.1600  1.0566
  581MOL0     H80174   7.989   5.997   7.328  1.3392  0.0702 -0.8833
  581MOL0     H80175   8.188   6.854   7.955  0.5950  0.3648  0.8316
  581MOL0     H80176   8.330   7.144   7.950 -0.5206 -0.8552 -0.5007
  581MOL0     H80177   8.233   7.045   8.051  0.3509 -0.0722  2.3151
  581MOL0     H80178   8.409   7.043   8.077  1.1978  0.7163 -1.2307
  582MOL0     O80179   1.772   3.271   0.323  0.0986  0.0851  0.3369
  582MOL0     C80180   1.707   3.368   0.300 -0.0140 -0.5646  0.5113
  582MOL0     O80181   1.744   3.476   0.230 -0.3031  0.0407 -0.1395
  582MOL0     C80182   1.859   3.462   0.156  0.3981 -0.1072  0.0900
  582MOL0     C80183   1.981   3.422   0.204  0.1477  0.2251  0.2281
  582MOL0     C80184   2.092   3.428   0.117 -0.2651  0.0841 -0.0968
  582MOL0     C80185   2.087   3.453  -0.016 -0.0250 -0.3573  0.0875
  582MOL0     O80186   2.192   3.439  -0.096 -0.5933 -0.4474 -0.3186
  582MOL0     C80187   2.323   3.482  -0.052 -0.2844  0.0197  0.3555
  582MOL0     C80188   2.414   3.487  -0.177 -0.4473  0.9559 -0.1391
  582MOL0     C80189   2.433   3.345  -0.236 -0.4074 -0.9654  0.7986
  582MOL0     C80190   2.538   3.264  -0.158  0.0633 -0.1589 -0.1871
  582MOL0     C80191   2.591   3.134  -0.218 -1.6436  0.5257 -0.0220
  582MOL0     C80192   2.487   3.053  -0.290  0.3718  0.2543  0.5020
  582MOL0     C80193   2.551   2.924  -0.345  0.0760  0.5020  0.2321
  582MOL0     C80194   2.454   2.803  -0.357 -0.0900  0.1724  0.1707
  582MOL0     N80195   2.537   2.691  -0.401  0.0626 -0.4861  0.1648
  582MOL0     C80196   2.594   2.608  -0.306  0.5538  0.0267  0.3970
  582MOL0     C80197   2.691   2.539  -0.371  0.5424 -0.3957  0.8478
  582MOL0     C80198   2.787   2.440  -0.317 -0.3837 -0.6642 -0.5677
  582MOL0     C80199   2.827   2.464  -0.173 -0.1497 -0.0955 -0.1875
  582MOL0     C80200   2.948   2.367  -0.142 -0.9507 -0.8876 -0.2954
  582MOL0     C80201   3.087   2.404  -0.172 -0.2248  0.5392 -0.3343
  582MOL0     O80202   3.115   2.397  -0.312  0.7225 -0.1318  0.0967
  582MOL0     C80203   3.244   2.391  -0.362  0.0285 -0.2347 -0.2090
  582MOL0     C80204   3.256   2.383  -0.500  0.1413  0.1757  0.1505
  582MOL0     C80205   3.376   2.368  -0.574  0.5934  0.3296  0.5080
  582MOL0     C80206   3.355   2.371  -0.727 -0.1466  0.1268  0.3724
  582MOL0     C80207   3.502   2.348  -0.490  0.2214 -0.5536 -0.0494
  582MOL0     C80208   3.629   2.338  -0.562  0.6513  0.7077 -0.4950
  582MOL0     O80209   3.742   2.325  -0.479 -0.4054 -0.1840 -0.1148
  582MOL0     C80210   3.857   2.284  -0.544 -0.3430  0.0937 -0.0281
  582MOL0     C80211   3.934   2.374  -0.616 -0.6468 -0.2030  0.0716
  582MOL0     C80212   4.060   2.331  -0.670  1.0164 -0.0113  0.2489
  582MOL0     C80213   4.108   2.202  -0.652  0.9123  0.5156 -0.0240
  582MOL0     O80214   4.238   2.176  -0.687 -0.3204  0.0416 -0.0226
  582MOL0     C80215   4.311   2.060  -0.644  0.1027  0.1671 -0.4617
  582MOL0     C80216   4.289   1.933  -0.735  0.2044 -0.0264 -0.4320
  582MOL0     C80217   4.318   1.961  -0.882 -0.2744 -0.4747  0.1871
  582MOL0     C80218   4.463   2.006  -0.907 -0.3858  0.3825  0.8239
  582MOL0     C80219   4.484   2.067  -1.053 -0.1039  0.1073  0.4039
  582MOL0     C80220   4.634   2.082  -1.090 -0.1542 -0.2550  0.6710
  582MOL0     C80221   4.715   2.138  -0.973 -0.2618  0.4059  0.1055
  582MOL0     C80222   4.850   2.163  -1.033  0.0321 -0.6458 -0.0990
  582MOL0    Cl80223   4.956   2.246  -0.916 -0.4848  0.3323 -0.2286
  582MOL0     C80224   4.030   2.107  -0.581  0.8505 -0.0654 -0.1557
  582MOL0     C80225   3.906   2.154  -0.529 -0.8955  0.6924  0.1868
  582MOL0     O80226   3.628   2.334  -0.684  0.1426  0.2398  0.2731
  582MOL0     C80227   3.493   2.362  -0.343  0.8252  0.1581  0.0678
  582MOL0     C80228   3.366   2.381  -0.279 -0.5379  0.7354 -0.2801
  582MOL0     N80229   2.686   2.581  -0.509  0.3067  0.8028 -0.1739
  582MOL0     N80230   2.597   2.677  -0.519 -0.4002  0.3910 -0.1602
  582MOL0     C80231   1.964   3.495  -0.071 -0.1889 -0.0504 -0.5981
  582MOL0     C80232   1.854   3.505   0.017 -0.2687 -0.2793 -0.4227
  582MOL0     C80233   1.570   3.387   0.361 -0.2730  0.4673  0.4370
  582MOL0     C80234   1.512   3.515   0.379  0.3458 -0.8037 -0.7580
  582MOL0     C80235   1.382   3.532   0.429  0.6080 -0.0756  0.6715
  582MOL0     C80236   1.303   3.420   0.466 -0.3149 -0.0625 -0.9617
  582MOL0     O80237   1.183   3.439   0.521 -0.8447  0.3156 -0.6102
  582MOL0     C80238   1.074   3.464   0.431  0.8875  0.4407  0.3108
  582MOL0     C80239   0.939   3.471   0.504 -0.0963  0.0456 -0.1508
  582MOL0     C80240   0.865   3.338   0.507  0.1031  1.2311 -0.1330
  582MOL0     C80241   0.947   3.210   0.561  0.1083  0.7817 -0.0647
  582MOL0     C80242   1.041   3.138   0.469 -0.2411 -0.7641 -0.1286
  582MOL0     C80243   1.101   3.059   0.389  0.2557 -0.3014  0.7929
  582MOL0     C80244   1.364   3.296   0.450 -0.3976  0.6718  0.5339
  582MOL0     C80245   1.492   3.275   0.394  0.6330  0.9126  0.7650
  582MOL0     C80246   1.534   3.131   0.381 -0.1729  0.0317 -0.2309
  582MOL0     H80247   1.989   3.402   0.311  1.2173 -0.7688 -0.0152
  582MOL0     H80248   2.183   3.388   0.160 -1.5711 -1.4157  1.4292
  582MOL0     H80249   2.361   3.417   0.027 -3.5753 -1.2137  1.0986
  582MOL0     H80250   2.311   3.584  -0.014  1.1395  0.5055 -0.4430
  582MOL0     H80251   2.375   3.553  -0.255  0.2359  0.1872 -1.1608
  582MOL0     H80252   2.512   3.518  -0.138  0.3134 -1.6570  0.2164
  582MOL0     H80253   2.336   3.295  -0.237 -2.2915  2.3806 -0.6775
  582MOL0     H80254   2.462   3.356  -0.341 -2.2664  0.4579  0.3826
  582MOL0     H80255   2.633   3.319  -0.151 -1.5504  2.7386  1.0650
  582MOL0     H80256   2.500   3.257  -0.056 -1.8679  0.3697 -0.8377
  582MOL0     H80257   2.650   3.080  -0.145 -1.3567  1.0051  0.1079
  582MOL0     H80258   2.672   3.160  -0.287 -1.4130  0.7387  0.3281
  582MOL0     H80259   2.402   3.028  -0.225 -0.1639 -2.1498 -1.0031
  582MOL0     H80260   2.449   3.117  -0.370  0.0717  0.9207  1.1626
  582MOL0     H80261   2.630   2.886  -0.280 -2.2426 -0.5510  2.6023
  582MOL0     H80262   2.603   2.945  -0.439 -0.4221  0.9628  0.0516
  582MOL0     H80263   2.400   2.777  -0.265 -0.0390  0.2093  0.2113
  582MOL0     H80264   2.388   2.830  -0.439 -1.5927 -0.6482  1.0714
  582MOL0     H80265   2.573   2.609  -0.200 -2.0415 -3.8385  0.1297
  582MOL0     H80266   2.877   2.444  -0.378 -0.5368 -2.9796 -1.0132
  582MOL0     H80267   2.749   2.338  -0.326  0.4867 -1.1015  0.4487
  582MOL0     H80268   2.842   2.571  -0.152  0.5231 -0.4165  1.0660
  582MOL0     H80269   2.743   2.428  -0.112 -1.4096  0.5095 -1.5054
  582MOL0     H80270   2.950   2.344  -0.035  0.3360 -1.8814 -0.5141
  582MOL0     H80271   2.927   2.275  -0.196 -2.1731 -1.0643  0.4391
  582MOL0     H80272   3.105   2.505  -0.134 -0.1129 -0.3802  2.2862
  582MOL0     H80273   3.158   2.339  -0.119 -0.7236 -1.7317 -2.2898
  582MOL0     H80274   3.162   2.381  -0.554 -0.7235  0.5894  1.6135
  582MOL0     H80275   3.398   2.464  -0.766 -0.5385 -0.7391 -2.3299
  582MOL0     H80276   3.252   2.377  -0.763 -1.0056 -0.9676  2.4845
  582MOL0     H80277   3.398   2.284  -0.778  1.6105  0.3948  1.3058
  582MOL0     H80278   3.894   2.475  -0.626 -1.5936 -0.4936  0.7524
  582MOL0     H80279   4.125   2.402  -0.719 -1.9415  3.3303  0.7282
  582MOL0     H80280   4.418   2.080  -0.636  0.2323  0.6662 -2.8216
  582MOL0     H80281   4.297   2.036  -0.538  2.3930 -1.8006 -0.5234
  582MOL0     H80282   4.364   1.865  -0.692  0.2191 -0.6114 -1.3633
  582MOL0     H80283   4.191   1.894  -0.709 -0.6667  1.1773 -1.7600
  582MOL0     H80284   4.263   2.046  -0.922  2.2790 -0.1251 -3.1308
  582MOL0     H80285   4.299   1.877  -0.949  0.0778 -0.0131 -0.5063
  582MOL0     H80286   4.522   1.913  -0.904 -3.3520 -1.9741 -3.6430
  582MOL0     H80287   4.502   2.076  -0.832  0.4906  0.0153  0.7219
  582MOL0     H80288   4.443   2.008  -1.135  5.0523  0.8630 -3.1946
  582MOL0     H80289   4.428   2.161  -1.055 -0.6549 -0.1919  1.1509
  582MOL0     H80290   4.636   2.147  -1.178  1.4840 -0.9457  0.1670
  582MOL0     H80291   4.667   1.983  -1.124 -6.9217 -1.9348 -2.7193
  582MOL0     H80292   4.727   2.069  -0.890 -1.2240 -0.0169 -0.0968
  582MOL0     H80293   4.665   2.221  -0.921  0.7662 -0.4030  2.5313
  582MOL0     H80294   4.839   2.225  -1.123 -0.2789  2.9568  2.2096
  582MOL0     H80295   4.897   2.066  -1.048 -1.2791 -1.5228  1.2110
  582MOL0     H80296   4.056   2.002  -0.574 -0.7643 -0.6772 -2.3080
  582MOL0     H80297   3.835   2.087  -0.481 -1.7068  2.2135  1.1833
  582MOL0     H80298   3.580   2.353  -0.280 -0.5347 -0.7836  1.8930
  582MOL0     H80299   3.363   2.379  -0.171 -0.9441 -1.3418 -0.2980
  582MOL0     H80300   1.950   3.529  -0.173  1.1285  0.7103 -0.5505
  582MOL0     H80301   1.759   3.544  -0.019  0.9382  2.7650 -0.5242
  582MOL0     H80302   1.574   3.602   0.363  1.4820 -1.7336 -1.5647
  582MOL0     H80303   1.361   3.635   0.454  0.8326  0.4426 -1.1357
  582MOL0     H80304   1.082   3.566   0.391 -0.1641  0.5647  0.3945
  582MOL0     H80305   1.078   3.390   0.351  1.7394  1.0850 -0.2547
  582MOL0     H80306   0.884   3.552   0.454  1.5453  2.2890  1.4631
  582MOL0     H80307   0.960   3.512   0.603  0.5232 -3.7122  1.4571
  582MOL0     H80308   0.777   3.350   0.571 -0.3201 -0.6272 -0.2936
  582MOL0     H80309   0.829   3.319   0.405  1.2849  4.5753 -1.2843
  582MOL0     H80310   0.871   3.144   0.603 -0.2280  2.2793  1.8217
  582MOL0     H80311   1.002   3.233   0.652 -0.8521 -0.0436  0.7478
  582MOL0     H80312   1.149   2.992   0.321 -0.5190  0.6514 -0.7538
  582MOL0     H80313   1.311   3.206   0.481  0.2925  0.5472  1.3820
  582MOL0     H80314   1.456   3.055   0.394  0.5535 -0.3482  2.8263
  582MOL0     H80315   1.583   3.101   0.289 -0.0422 -1.1446  0.2070
  582MOL0     H80316   1.598   3.124   0.470 -0.6650  3.1663  0.5311
  583MOL0     O80317   0.702   7.998   3.657  0.0436  0.7366 -0.1380
  583MOL0     C80318   0.591   7.989   3.698  0.0621 -0.6264  0.0690
  583MOL0     O80319   0.539   8.065   3.803 -0.2935  0.3913 -0.3017
  583MOL0     C80320   0.598   8.184   3.835 -0.2413  0.6500  0.5780
  583MOL0     C80321   0.654   8.184   3.964 -0.6768 -0.0225  0.4333
  583MOL0     C80322   0.724   8.294   4.012  0.1303 -0.0038 -0.1041
  583MOL0     C80323   0.739   8.403   3.924 -0.0138  0.0752  0.7630
  583MOL0     O80324   0.817   8.510   3.953 -0.8735 -0.7241 -0.0838
  583MOL0     C80325   0.934   8.479   4.025 -0.6268  0.5017  1.0186
  583MOL0     C80326   1.042   8.579   3.984 -0.2049  0.1845 -0.5728
  583MOL0     C80327   1.170   8.564   4.065 -0.0553  0.5949 -0.0623
  583MOL0     C80328   1.262   8.684   4.023  0.0919  0.0646  0.5191
  583MOL0     C80329   1.399   8.654   4.079 -0.6609 -0.7704  0.2439
  583MOL0     C80330   1.509   8.763   4.041 -0.1464 -0.1957  0.3836
  583MOL0     C80331   1.642   8.740   4.123  0.0892 -0.6396 -0.4747
  583MOL0     C80332   1.619   8.782   4.271  0.5678  0.4827  0.6331
  583MOL0     N80333   1.745   8.775   4.347  0.5098 -0.4796 -0.9716
  583MOL0     C80334   1.788   8.869   4.447  1.1417  0.2563 -0.1817
  583MOL0     C80335   1.914   8.830   4.479  0.2525  0.2756 -0.5153
  583MOL0     C80336   1.987   8.901   4.588 -0.0401  0.1830 -0.6969
  583MOL0     C80337   2.131   8.843   4.603 -0.1843 -0.8080  0.3194
  583MOL0     C80338   2.227   8.909   4.501 -0.8918 -0.3874 -0.0701
  583MOL0     C80339   2.375   8.907   4.545 -0.3447  0.3108  0.3448
  583MOL0     O80340   2.390   8.999   4.653 -0.0100 -0.7294  0.0723
  583MOL0     C80341   2.381   9.137   4.620 -0.6176 -0.1653 -0.4034
  583MOL0     C80342   2.286   9.223   4.682  0.5260  0.5065 -0.4139
  583MOL0     C80343   2.281   9.354   4.667 -0.2338  0.0290  0.3134
  583MOL0     C80344   2.186   9.435   4.747 -0.4720 -0.7061 -0.3249
  583MOL0     C80345   2.362   9.416   4.562  0.1202 -0.2691 -0.2709
  583MOL0     C80346   2.364   9.559   4.520  0.0003 -0.0472  0.0420
  583MOL0     O80347   2.406   9.583   4.393  0.2204  0.8463 -0.1894
  583MOL0     C80348   2.386   9.716   4.347  0.0527  0.4250  0.1820
  583MOL0     C80349   2.287   9.745   4.262  0.3609 -0.3275  0.4121
  583MOL0     C80350   2.268   9.879   4.209 -0.0078 -0.2142  0.6403
  583MOL0     C80351   2.356   9.982   4.244 -0.7343  0.4170 -0.2800
  583MOL0     O80352   2.348  10.111   4.202 -0.0601 -0.1641 -0.0287
  583MOL0     C80353   2.355  10.127   4.056 -0.3238  0.9850 -0.8718
  583MOL0     C80354   2.321  10.256   3.995  0.0729  0.1756 -0.7761
  583MOL0     C80355   2.409  10.369   4.049 -0.3733  0.9193 -0.0994
  583MOL0     C80356   2.343  10.504   4.016 -0.1504 -0.2394 -0.0606
  583MOL0     C80357   2.425  10.621   4.071 -0.5402  0.6420 -0.8574
  583MOL0     C80358   2.551  10.644   3.974 -0.3822  0.0224 -0.0898
  583MOL0     C80359   2.661  10.728   4.039 -0.4353 -0.3514 -0.7258
  583MOL0     C80360   2.623  10.868   4.086  0.6813 -0.9092  0.1949
  583MOL0    Cl80361   2.616  10.963   3.937  0.0613  0.0635 -0.3233
  583MOL0     C80362   2.459   9.948   4.330 -0.8712 -0.3017  0.2094
  583MOL0     C80363   2.468   9.819   4.388 -0.5544  0.1623  0.5599
  583MOL0     O80364   2.319   9.639   4.601  0.2410  0.0078 -0.1195
  583MOL0     C80365   2.462   9.332   4.496  0.6369 -0.6649  0.8319
  583MOL0     C80366   2.473   9.195   4.536  0.6246 -0.2778  0.7527
  583MOL0     N80367   1.941   8.709   4.412 -0.4107 -0.0718 -0.7245
  583MOL0     N80368   1.845   8.690   4.325 -0.1141 -0.1806 -0.0740
  583MOL0     C80369   0.693   8.396   3.791 -1.1500 -0.7202 -0.4630
  583MOL0     C80370   0.626   8.290   3.739 -0.1779 -0.6327  0.1070
  583MOL0     C80371   0.492   7.890   3.646 -0.3457 -0.4034  0.1334
  583MOL0     C80372   0.544   7.780   3.571  0.5395 -0.4857  0.2759
  583MOL0     C80373   0.465   7.683   3.508 -0.1640  0.1963  0.8623
  583MOL0     C80374   0.327   7.683   3.530 -0.4207  0.1938  0.3700
  583MOL0     O80375   0.262   7.589   3.464 -0.5288 -0.0233  0.4628
  583MOL0     C80376   0.125   7.614   3.414 -0.2068  0.5435  0.1505
  583MOL0     C80377   0.130   7.726   3.302  0.2280 -0.4113 -0.5047
  583MOL0     C80378   0.235   7.705   3.194 -0.7122 -0.2851 -0.3243
  583MOL0     C80379   0.187   7.753   3.055 -0.2072  0.1454  0.3075
  583MOL0     C80380   0.069   7.681   3.005 -0.0356  0.7584  1.2332
  583MOL0     C80381  -0.032   7.625   2.968 -0.3503  0.1552 -0.2346
  583MOL0     C80382   0.268   7.799   3.587 -0.4291 -0.2582 -0.1770
  583MOL0     C80383   0.351   7.895   3.648  0.3013  0.3539 -0.1420
  583MOL0     C80384   0.277   8.015   3.691  0.5515 -0.8141 -0.1211
  583MOL0     H80385   0.632   8.102   4.031  1.9402 -0.8761  0.3538
  583MOL0     H80386   0.760   8.299   4.114  0.3438 -2.9348  0.0498
  583MOL0     H80387   0.970   8.376   4.015 -2.0423 -0.2780  3.2696
  583MOL0     H80388   0.914   8.479   4.133 -0.4996  1.3480  1.0450
  583MOL0     H80389   1.072   8.563   3.880  0.2499 -2.8155 -0.0570
  583MOL0     H80390   1.001   8.678   4.010  0.5160  0.2993  0.1540
  583MOL0     H80391   1.137   8.563   4.169  0.6540 -0.5965  0.1740
  583MOL0     H80392   1.215   8.468   4.038  0.0494  0.7107 -0.3036
  583MOL0     H80393   1.285   8.679   3.916  0.7003  0.6244  0.6147
  583MOL0     H80394   1.214   8.780   4.048  1.1331  0.8720 -0.4842
  583MOL0     H80395   1.439   8.558   4.043  2.7423  1.1247 -1.5872
  583MOL0     H80396   1.377   8.640   4.185  0.5056 -0.5352  0.5295
  583MOL0     H80397   1.508   8.763   3.932 -1.2795  2.6369  0.2843
  583MOL0     H80398   1.460   8.859   4.061 -2.1427 -0.6837 -1.6765
  583MOL0     H80399   1.719   8.810   4.089 -0.3554 -0.5693 -1.3448
  583MOL0     H80400   1.678   8.637   4.112 -1.1698 -0.9737 -1.6626
  583MOL0     H80401   1.580   8.884   4.278  0.6339  0.5894 -0.3579
  583MOL0     H80402   1.559   8.712   4.330  0.7831  0.6348  1.0345
  583MOL0     H80403   1.725   8.948   4.487  1.1921  1.0406 -1.5663
  583MOL0     H80404   1.931   8.885   4.681  0.1804  1.3670 -0.3375
  583MOL0     H80405   1.986   9.010   4.581 -1.4562  0.1077 -2.5862
  583MOL0     H80406   2.170   8.862   4.704  0.2316  0.7875 -0.0990
  583MOL0     H80407   2.138   8.736   4.586  0.9657 -0.5217 -1.1835
  583MOL0     H80408   2.214   8.860   4.404  0.0627 -0.5795 -0.1160
  583MOL0     H80409   2.199   9.013   4.486  0.0609 -0.3095 -1.4865
  583MOL0     H80410   2.402   8.804   4.568  2.7644  0.6570 -1.2127
  583MOL0     H80411   2.440   8.933   4.461  0.1715  0.0547  0.6613
  583MOL0     H80412   2.237   9.172   4.765  0.6163  0.3119 -0.4801
  583MOL0     H80413   2.103   9.470   4.684 -0.8190  2.0074  1.4782
  583MOL0     H80414   2.240   9.518   4.792 -0.3459 -3.2478  4.9052
  583MOL0     H80415   2.147   9.386   4.836 -1.3617  2.5755  1.2526
  583MOL0     H80416   2.208   9.675   4.239  0.1558 -0.3024  1.0199
  583MOL0     H80417   2.180   9.911   4.154  0.1828 -0.2435  0.3182
  583MOL0     H80418   2.460  10.106   4.033 -0.8914 -2.4780 -0.8074
  583MOL0     H80419   2.308  10.045   4.001  1.7094 -1.3772  0.7045
  583MOL0     H80420   2.336  10.249   3.887  1.1027 -2.0462 -0.5611
  583MOL0     H80421   2.220  10.283   4.024  0.4347  2.5512 -1.5512
  583MOL0     H80422   2.508  10.361   4.004 -0.1534 -3.0711  0.6890
  583MOL0     H80423   2.425  10.368   4.157 -2.3058  2.4420  0.2683
  583MOL0     H80424   2.240  10.517   4.048  0.3658  4.8962  0.2826
  583MOL0     H80425   2.349  10.522   3.908  2.0889  2.4676  0.3991
  583MOL0     H80426   2.357  10.704   4.091 -0.3536  0.8620 -1.1257
  583MOL0     H80427   2.454  10.598   4.174  0.4278 -1.4702 -1.5381
  583MOL0     H80428   2.521  10.676   3.873 -1.0088  1.0491  0.4065
  583MOL0     H80429   2.607  10.553   3.949  1.7480  1.0036  0.9247
  583MOL0     H80430   2.754  10.724   3.981  1.0283 -0.1251  1.4668
  583MOL0     H80431   2.691  10.684   4.135 -1.0088  0.7786 -0.0006
  583MOL0     H80432   2.702  10.909   4.149 -2.2958  2.2565  2.1992
  583MOL0     H80433   2.531  10.871   4.144 -0.3213 -2.8160 -1.1701
  583MOL0     H80434   2.538  10.019   4.356  1.0663 -2.3948  0.3464
  583MOL0     H80435   2.548   9.809   4.461 -0.1688  4.1726  0.9182
  583MOL0     H80436   2.512   9.371   4.408 -0.0922 -1.9946 -0.2080
  583MOL0     H80437   2.546   9.131   4.487  0.9232  1.4075 -1.1268
  583MOL0     H80438   0.714   8.478   3.723  0.0956 -0.4982  0.1764
  583MOL0     H80439   0.590   8.300   3.637  0.7192 -1.5433 -0.3153
  583MOL0     H80440   0.652   7.769   3.561  0.9434  1.0444  2.3009
  583MOL0     H80441   0.500   7.590   3.465 -1.7684 -1.1883  2.3654
  583MOL0     H80442   0.088   7.516   3.381  0.4456  0.3494 -0.0178
  583MOL0     H80443   0.066   7.645   3.501  0.7430 -1.7664  1.7170
  583MOL0     H80444   0.148   7.828   3.338 -1.3729  0.4783 -2.0548
  583MOL0     H80445   0.030   7.732   3.259 -0.2689 -0.7918  0.5485
  583MOL0     H80446   0.318   7.774   3.213 -0.5650 -0.9738  1.8033
  583MOL0     H80447   0.275   7.603   3.194 -0.6985 -0.2796  0.2690
  583MOL0     H80448   0.267   7.728   2.985 -0.7093 -2.6048  0.5746
  583MOL0     H80449   0.156   7.858   3.058  1.9410  0.9047 -1.5781
  583MOL0     H80450  -0.114   7.582   2.915 -1.3797 -1.0749  2.2174
  583MOL0     H80451   0.161   7.809   3.575  0.0464  2.3372 -3.8762
  583MOL0     H80452   0.178   8.028   3.648 -0.3921  1.3945  2.4196
  583MOL0     H80453   0.256   8.012   3.798 -2.3738  0.4418 -0.5747
  583MOL0     H80454   0.333   8.107   3.671 -1.7614  0.6439 -0.2064
  584MOL0     O80455   0.578   3.311  10.040  0.2121 -0.2614  0.5079
  584MOL0     C80456   0.581   3.433  10.007  0.5992 -0.3526 -0.0009
  584MOL0     O80457   0.476   3.497   9.936  0.0274  0.2145 -0.1266
  584MOL0     C80458   0.361   3.421   9.923 -0.2723 -0.3233 -0.2870
  584MOL0     C80459   0.308   3.406   9.799  0.7067  0.6799 -0.3035
  584MOL0     C80460   0.178   3.349   9.779 -0.4440  0.1309 -0.3421
  584MOL0     C80461   0.111   3.302   9.890  1.1362 -0.0948 -0.4393
  584MOL0     O80462  -0.017   3.250   9.864  0.7125 -0.3396 -0.1753
  584MOL0     C80463  -0.067   3.144   9.947  0.0717  0.0619 -0.1074
  584MOL0     C80464  -0.188   3.067   9.891 -0.3775 -0.5824 -0.5681
  584MOL0     C80465  -0.165   3.032   9.750 -0.2042 -0.5274 -0.1900
  584MOL0     C80466  -0.245   2.906   9.709  0.1311  0.0955 -0.9259
  584MOL0     C80467  -0.179   2.821   9.599  0.1548  0.4246  0.1237
  584MOL0     C80468  -0.051   2.741   9.648  1.6542  1.3410  0.5744
  584MOL0     C80469   0.014   2.678   9.530 -0.8657  0.4878  0.7329
  584MOL0     C80470   0.171   2.673   9.540 -0.8147  1.2670 -0.7194
  584MOL0     N80471   0.244   2.615   9.660 -0.4598 -0.5103  0.7349
  584MOL0     C80472   0.351   2.676   9.723  0.0511 -0.4134  0.1324
  584MOL0     C80473   0.364   2.615   9.844 -1.1212  0.2470 -0.1563
  584MOL0     C80474   0.468   2.641   9.944  0.1076 -0.2076  0.6092
  584MOL0     C80475   0.529   2.519  10.002  0.3514  1.1796  0.1468
  584MOL0     C80476   0.629   2.546  10.119  0.3372  0.1338 -0.0728
  584MOL0     C80477   0.756   2.609  10.056  0.6373 -0.7443  0.0153
  584MOL0     O80478   0.807   2.529   9.951 -0.1565 -0.3232  0.0844
  584MOL0     C80479   0.926   2.565   9.888  0.1301  0.0957  0.3589
  584MOL0     C80480   1.040   2.591   9.961  0.6574  0.3444  1.0970
  584MOL0     C80481   1.154   2.637   9.890  0.2626  0.5819 -0.5175
  584MOL0     C80482   1.276   2.676   9.971  0.1226  0.0888 -0.4467
  584MOL0     C80483   1.159   2.653   9.751 -0.7282  0.5298  1.2853
  584MOL0     C80484   1.281   2.668   9.670 -0.0547 -0.0122  0.6789
  584MOL0     O80485   1.401   2.611   9.719  0.3999  0.5477  0.4925
  584MOL0     C80486   1.504   2.608   9.631 -0.4016  0.8947 -0.3269
  584MOL0     C80487   1.511   2.498   9.544  0.2668 -0.8257 -0.3152
  584MOL0     C80488   1.628   2.483   9.463 -0.4554  0.7021 -1.0015
  584MOL0     C80489   1.727   2.578   9.453 -0.4417 -0.1713 -0.3921
  584MOL0     O80490   1.825   2.559   9.369 -0.0334 -0.4337 -0.0367
  584MOL0     C80491   1.936   2.650   9.361 -0.2665 -1.1530 -1.0462
  584MOL0     C80492   2.053   2.614   9.269  0.3047  0.1053 -0.2419
  584MOL0     C80493   2.157   2.721   9.234  0.5019 -0.2352 -0.2984
  584MOL0     C80494   2.279   2.656   9.166 -1.2858 -0.2364  0.6213
  584MOL0     C80495   2.393   2.754   9.143 -0.3250  1.3940  0.5175
  584MOL0     C80496   2.496   2.701   9.040 -0.2076 -0.1461 -0.1742
  584MOL0     C80497   2.566   2.574   9.079  0.8405 -0.0233 -0.0699
  584MOL0     C80498   2.685   2.549   8.986 -0.5786 -0.4756 -0.7494
  584MOL0    Cl80499   2.742   2.380   8.983  0.0508 -0.4275 -0.3159
  584MOL0     C80500   1.712   2.694   9.532  0.3991  0.7131  0.4586
  584MOL0     C80501   1.604   2.707   9.629 -0.1361  1.0803  1.2033
  584MOL0     O80502   1.268   2.733   9.562 -0.6303  0.2169 -1.0863
  584MOL0     C80503   1.041   2.629   9.682 -0.8996  1.1149 -0.6419
  584MOL0     C80504   0.926   2.576   9.746  0.0224  0.3709 -0.6499
  584MOL0     N80505   0.271   2.508   9.844 -0.8272 -0.4452 -0.3872
  584MOL0     N80506   0.199   2.519   9.731  0.6955  0.7930 -0.5097
  584MOL0     C80507   0.174   3.300  10.015  0.1110  0.2584 -0.2265
  584MOL0     C80508   0.297   3.365  10.037  0.0275 -0.5088 -0.5377
  584MOL0     C80509   0.709   3.506  10.045 -0.2189  0.0602  0.6701
  584MOL0     C80510   0.701   3.643  10.066  1.4884  1.1430 -0.4656
  584MOL0     C80511   0.799   3.724  10.109 -0.3478 -0.0385  0.0719
  584MOL0     C80512   0.926   3.669  10.114 -0.1922 -0.0474  0.2421
  584MOL0     O80513   1.044   3.734  10.152 -0.0910 -0.9652  0.1860
  584MOL0     C80514   1.050   3.879  10.146  0.1653 -0.6239  0.3312
  584MOL0     C80515   1.177   3.928  10.201 -0.2851  0.6843 -0.2236
  584MOL0     C80516   1.295   3.896  10.106 -1.1573 -0.1921  0.4708
  584MOL0     C80517   1.418   3.955  10.165 -0.3799  0.5514 -0.9330
  584MOL0     C80518   1.533   3.930  10.082 -0.3963 -0.1181  0.4951
  584MOL0     C80519   1.631   3.903  10.023 -0.4062 -0.4453 -0.2012
  584MOL0     C80520   0.944   3.528  10.089  0.7639  0.3545 -0.0097
  584MOL0     C80521   0.838   3.448  10.065  0.9472  0.1351  0.2765
  584MOL0     C80522   0.865   3.306  10.029 -0.3847 -0.4222  0.5597
  584MOL0     H80523   0.364   3.435   9.710 -1.1017  1.2057 -1.3279
  584MOL0     H80524   0.141   3.331   9.678  0.6830 -4.3435 -0.1818
  584MOL0     H80525  -0.100   3.184  10.044  1.9482  0.0587  0.5858
  584MOL0     H80526   0.019   3.087   9.984 -0.9959 -0.5931  1.4831
  584MOL0     H80527  -0.212   2.992   9.967  0.3517  2.5220  2.9917
  584MOL0     H80528  -0.281   3.124   9.897 -0.3413 -0.6765  1.8447
  584MOL0     H80529  -0.203   3.121   9.698 -1.0482  0.7503  2.4277
  584MOL0     H80530  -0.058   3.016   9.737 -0.1367 -2.1699  1.7679
  584MOL0     H80531  -0.259   2.840   9.796  1.2555 -0.2128 -0.9507
  584MOL0     H80532  -0.346   2.937   9.682 -0.6228  0.7994  2.2900
  584MOL0     H80533  -0.150   2.880   9.511  1.3024 -1.3634 -0.7681
  584MOL0     H80534  -0.265   2.758   9.573  0.0935  1.4125 -2.3467
  584MOL0     H80535   0.018   2.818   9.684  3.5573 -0.5295  1.1101
  584MOL0     H80536  -0.081   2.667   9.723 -1.9386 -2.5308 -3.9773
  584MOL0     H80537  -0.008   2.738   9.441  0.8425 -0.8701 -0.6845
  584MOL0     H80538  -0.027   2.577   9.513  1.0642 -0.0442 -1.1961
  584MOL0     H80539   0.208   2.619   9.452 -3.4000 -1.1097 -0.5083
  584MOL0     H80540   0.218   2.770   9.526  1.0882  0.2839 -1.6081
  584MOL0     H80541   0.417   2.749   9.677 -0.7930  0.9682  1.0403
  584MOL0     H80542   0.419   2.691  10.028 -1.1633 -1.7337  0.8276
  584MOL0     H80543   0.534   2.720   9.906 -3.0954  3.1444  1.4043
  584MOL0     H80544   0.456   2.448  10.043  1.9672 -1.1074 -0.7333
  584MOL0     H80545   0.580   2.457   9.928  0.1031  1.1635 -0.0094
  584MOL0     H80546   0.588   2.601  10.204  2.1499  0.4293  0.6699
  584MOL0     H80547   0.671   2.452  10.156  0.4159  0.5835  1.0155
  584MOL0     H80548   0.733   2.706  10.011 -0.2229 -1.5893 -1.4135
  584MOL0     H80549   0.828   2.621  10.138 -1.6341 -3.1442  2.5787
  584MOL0     H80550   1.040   2.564  10.066 -2.8659 -0.9158  0.8891
  584MOL0     H80551   1.249   2.688  10.076 -2.4359 -3.6251 -0.4917
  584MOL0     H80552   1.311   2.769   9.924  1.3475 -1.4385 -2.7299
  584MOL0     H80553   1.365   2.612   9.971 -0.1180 -0.2552  0.4320
  584MOL0     H80554   1.428   2.428   9.547  0.8266 -1.4967  2.2570
  584MOL0     H80555   1.625   2.399   9.395  1.4094 -0.3877  0.1921
  584MOL0     H80556   1.894   2.744   9.324 -0.9346 -0.8850  0.3247
  584MOL0     H80557   1.974   2.673   9.461 -0.3301  0.8001 -1.4312
  584MOL0     H80558   2.106   2.524   9.302  1.3633  0.5998 -0.5448
  584MOL0     H80559   2.006   2.596   9.172 -1.7824  2.3634  0.2422
  584MOL0     H80560   2.198   2.757   9.329 -2.8464  2.1203  0.4197
  584MOL0     H80561   2.113   2.807   9.184  0.0164  0.2225  0.8961
  584MOL0     H80562   2.238   2.614   9.073  1.2232  1.0878 -1.1907
  584MOL0     H80563   2.302   2.563   9.219 -1.8650 -0.6843  0.1137
  584MOL0     H80564   2.362   2.851   9.104  2.0537  1.5472 -1.2679
  584MOL0     H80565   2.430   2.780   9.243  0.2529  0.0135  0.6860
  584MOL0     H80566   2.570   2.779   9.021  2.2855 -1.2620  3.6141
  584MOL0     H80567   2.435   2.692   8.951  1.3459 -1.2517 -1.1743
  584MOL0     H80568   2.488   2.498   9.080 -1.8472  2.5738  0.3048
  584MOL0     H80569   2.606   2.582   9.180  0.4607 -0.0502  0.0823
  584MOL0     H80570   2.761   2.621   9.019 -1.3768 -1.1432  2.9088
  584MOL0     H80571   2.670   2.595   8.887  1.3159  1.1287 -0.3583
  584MOL0     H80572   1.789   2.771   9.535  3.1319 -1.6070 -2.8636
  584MOL0     H80573   1.606   2.784   9.705  1.6187  0.9133  1.3764
  584MOL0     H80574   1.056   2.617   9.575  0.7874 -0.7430 -0.2560
  584MOL0     H80575   0.849   2.537   9.680 -1.3936  0.3036  0.9489
  584MOL0     H80576   0.120   3.258  10.100  0.0568 -1.4393 -1.0749
  584MOL0     H80577   0.354   3.396  10.124 -0.9651  4.9549 -1.4673
  584MOL0     H80578   0.605   3.690  10.048  1.1055 -0.6491 -4.0113
  584MOL0     H80579   0.781   3.826  10.141  0.9049 -0.2324  1.4648
  584MOL0     H80580   1.036   3.922  10.046 -2.2650 -0.4671  0.6768
  584MOL0     H80581   0.964   3.917  10.203  0.8712 -1.3334  1.9226
  584MOL0     H80582   1.188   3.901  10.306  0.5214  1.4210 -0.1067
  584MOL0     H80583   1.168   4.037  10.201 -0.4681  0.6844  0.7479
  584MOL0     H80584   1.304   3.788  10.087 -1.0003 -0.0188 -0.4511
  584MOL0     H80585   1.283   3.941  10.008  3.1612 -2.6639 -1.4737
  584MOL0     H80586   1.441   3.908  10.261  0.7313 -0.9712 -1.8823
  584MOL0     H80587   1.398   4.061  10.182 -0.9238  0.5920 -1.7571
  584MOL0     H80588   1.719   3.890   9.962  0.1050 -0.0875  0.4434
  584MOL0     H80589   1.041   3.482  10.076 -0.6066 -2.2045 -2.0948
  584MOL0     H80590   0.971   3.279  10.036  0.2218  1.7348  0.4473
  584MOL0     H80591   0.804   3.244  10.096  0.8774  0.0019  2.1545
  584MOL0     H80592   0.829   3.301   9.926 -3.6385 -0.2794  1.5803
  585MOL0     O80593   9.548   9.792   4.464 -0.1565 -0.5827  0.7838
  585MOL0     C80594   9.523   9.905   4.503  0.3946  0.0212 -0.2492
  585MOL0     O80595   9.613  10.007   4.506  0.7296  0.3217  0.1908
  585MOL0     C80596   9.720   9.995   4.421  0.5879 -0.2709 -0.3198
  585MOL0     C80597   9.846  10.024   4.472 -0.3156 -0.4840  0.6297
  585MOL0     C80598   9.965  10.002   4.392  0.2664 -0.1143  0.2231
  585MOL0     C80599   9.955   9.957   4.260  0.5679  0.1288  0.6135
  585MOL0     O80600  10.077   9.944   4.190  0.2987 -0.8441  0.2183
  585MOL0     C80601  10.074   9.893   4.059  0.1301 -0.0406 -0.3656
  585MOL0     C80602  10.204   9.921   4.002  0.1611 -0.1527  0.6073
  585MOL0     C80603  10.310   9.845   4.062 -0.8926  0.9909 -0.3138
  585MOL0     C80604  10.449   9.877   3.993 -0.1300  0.6725 -0.8119
  585MOL0     C80605  10.548   9.777   4.053 -0.6725  0.0725  0.2763
  585MOL0     C80606  10.690   9.813   3.994  0.1207 -0.0012  0.0212
  585MOL0     C80607  10.800   9.706   4.025  0.4637 -0.2053  0.3040
  585MOL0     C80608  10.815   9.660   4.168 -0.3993 -0.2164 -0.1785
  585MOL0     N80609  10.927   9.569   4.183  0.6294 -0.6786 -0.1999
  585MOL0     C80610  10.934   9.464   4.274 -0.7298 -0.4859 -0.1569
  585MOL0     C80611  11.060   9.412   4.250 -0.6357  0.1977  0.4377
  585MOL0     C80612  11.112   9.293   4.318 -0.2550  0.3084 -0.5635
  585MOL0     C80613  11.192   9.316   4.450 -0.3022  0.3703 -0.2134
  585MOL0     C80614  11.309   9.416   4.438  0.3940 -0.1942  0.4600
  585MOL0     C80615  11.409   9.404   4.551  0.4531 -0.6356  0.7769
  585MOL0     O80616  11.511   9.509   4.523  0.3436 -0.3128 -0.7891
  585MOL0     C80617  11.623   9.521   4.613  0.0501  0.4624  0.5199
  585MOL0     C80618  11.657   9.423   4.711  0.5207 -0.4703  0.6515
  585MOL0     C80619  11.759   9.441   4.803 -0.1033 -0.6028 -0.1777
  585MOL0     C80620  11.783   9.320   4.898  0.2898 -0.4139 -0.0375
  585MOL0     C80621  11.832   9.559   4.808  0.0414 -1.1497 -0.0460
  585MOL0     C80622  11.947   9.585   4.896 -0.4100 -0.9910 -0.1256
  585MOL0     O80623  12.030   9.682   4.853 -0.2644  0.0220  0.4341
  585MOL0     C80624  12.147   9.704   4.914 -0.0179  0.3702 -0.0483
  585MOL0     C80625  12.258   9.629   4.869  0.1746 -0.3136  0.8695
  585MOL0     C80626  12.385   9.662   4.907  0.6875 -1.8081  0.5542
  585MOL0     C80627  12.417   9.771   4.989  0.0344 -0.2941  0.6434
  585MOL0     O80628  12.555   9.804   5.012  0.1489  0.7692  0.1119
  585MOL0     C80629  12.583   9.934   5.069 -0.4482  0.6087 -0.4334
  585MOL0     C80630  12.729   9.947   5.078 -0.1274  1.4626  0.4882
  585MOL0     C80631  12.796   9.922   4.935  1.1509  0.0109 -1.0099
  585MOL0     C80632  12.946   9.944   4.943 -0.0771  0.1873  0.1971
  585MOL0     C80633  12.998  10.084   4.957 -0.1180 -0.0198 -0.5661
  585MOL0     C80634  13.147  10.104   4.984 -0.3289 -0.0332  0.1140
  585MOL0     C80635  13.236  10.072   4.864 -0.4979 -0.4888  0.7406
  585MOL0     C80636  13.377  10.125   4.897  0.6967 -0.3648  0.6730
  585MOL0    Cl80637  13.391  10.299   4.924 -0.1220 -0.4179  0.0931
  585MOL0     C80638  12.303   9.840   5.040  0.4617 -0.5365  0.2204
  585MOL0     C80639  12.169   9.802   5.011 -0.0010  0.4667  0.4301
  585MOL0     O80640  11.952   9.533   5.004  0.1456 -0.0126  0.4035
  585MOL0     C80641  11.791   9.662   4.707  0.0816  0.5218 -0.7099
  585MOL0     C80642  11.707   9.631   4.603  0.9782  0.0209 -0.2513
  585MOL0     N80643  11.122   9.488   4.150 -0.7633 -0.0098 -0.3134
  585MOL0     N80644  11.044   9.577   4.106  0.0662  0.0757 -0.2211
  585MOL0     C80645   9.830   9.923   4.210  0.4698  0.1648 -0.6142
  585MOL0     C80646   9.721   9.944   4.293 -0.0153  0.0689  0.4152
  585MOL0     C80647   9.375   9.933   4.521  1.0747 -0.1820 -0.1724
  585MOL0     C80648   9.342  10.055   4.573  0.2927 -0.5525 -0.3434
  585MOL0     C80649   9.206  10.093   4.599  0.0113 -0.9988 -0.0532
  585MOL0     C80650   9.097  10.010   4.591 -0.5632 -0.5764 -0.0446
  585MOL0     O80651   8.977  10.068   4.616  0.4523  0.6099  0.6542
  585MOL0     C80652   8.870   9.977   4.631 -0.1108 -0.1197 -0.2926
  585MOL0     C80653   8.807   9.943   4.496  0.0892 -0.5403  0.5025
  585MOL0     C80654   8.718  10.048   4.437  0.1421  0.2974 -0.1210
  585MOL0     C80655   8.593  10.093   4.527 -0.6768  0.0712  0.9325
  585MOL0     C80656   8.507  10.189   4.454  0.7177 -0.0722 -0.1311
  585MOL0     C80657   8.424  10.264   4.396 -0.5608  0.6120  0.7046
  585MOL0     C80658   9.132   9.882   4.552  0.2701 -0.0714  0.4861
  585MOL0     C80659   9.262   9.842   4.515  0.3555  0.8961 -0.4669
  585MOL0     C80660   9.281   9.701   4.462 -0.0131 -0.1041  0.4066
  585MOL0     H80661   9.859  10.063   4.572 -0.2234 -1.0413  0.8379
  585MOL0     H80662  10.058  10.048   4.425 -0.4805  3.0843 -1.6277
  585MOL0     H80663   9.995   9.936   3.997  1.6047 -1.7056 -3.6376
  585MOL0     H80664  10.060   9.786   4.072  4.9355 -0.5705  3.3595
  585MOL0     H80665  10.210   9.894   3.896  2.8080 -3.0843  1.3489
  585MOL0     H80666  10.226  10.025   4.026  0.0492 -0.1128  0.5367
  585MOL0     H80667  10.316   9.845   4.172 -1.3244 -7.4305  0.3368
  585MOL0     H80668  10.283   9.740   4.052  0.9901  0.6586 -3.1848
  585MOL0     H80669  10.446   9.868   3.884  2.5692 -0.4830 -0.8605
  585MOL0     H80670  10.476   9.979   4.024  0.2376  0.9242 -1.9317
  585MOL0     H80671  10.516   9.676   4.025 -0.4928 -0.3630  1.5633
  585MOL0     H80672  10.542   9.787   4.162 -2.1978 -0.2817  0.2471
  585MOL0     H80673  10.681   9.829   3.886  0.1109 -3.7723 -0.6710
  585MOL0     H80674  10.715   9.907   4.044 -0.9964  0.2310  0.1712
  585MOL0     H80675  10.899   9.748   4.003  0.0926  1.0119  0.8381
  585MOL0     H80676  10.774   9.622   3.960 -0.5875  1.1119 -1.0320
  585MOL0     H80677  10.812   9.745   4.237  0.1259 -1.7998  1.8804
  585MOL0     H80678  10.728   9.598   4.188  0.0491 -2.0448 -3.2918
  585MOL0     H80679  10.855   9.436   4.343 -1.4149  0.3487 -0.5957
  585MOL0     H80680  11.169   9.235   4.244  0.4854  1.0018 -0.5550
  585MOL0     H80681  11.027   9.235   4.355  0.3631  0.5151  1.2897
  585MOL0     H80682  11.123   9.353   4.526 -2.8516 -0.0999 -2.1756
  585MOL0     H80683  11.228   9.214   4.471 -1.5904 -0.1341 -0.3724
  585MOL0     H80684  11.359   9.394   4.343  0.8584 -2.5317  1.1753
  585MOL0     H80685  11.270   9.518   4.434 -0.2162 -0.4543 -0.7237
  585MOL0     H80686  11.362   9.434   4.645 -1.6635  4.9513 -1.6525
  585MOL0     H80687  11.453   9.304   4.539  0.5479 -0.3487 -1.6775
  585MOL0     H80688  11.606   9.328   4.709  0.0053 -0.2130 -1.8245
  585MOL0     H80689  11.720   9.240   4.858 -0.8735  0.5413 -0.1483
  585MOL0     H80690  11.755   9.345   5.000  0.3441 -2.0344  0.3971
  585MOL0     H80691  11.887   9.288   4.893  0.9109  1.4636  0.0464
  585MOL0     H80692  12.234   9.553   4.796  1.4108  0.3116 -0.2249
  585MOL0     H80693  12.460   9.593   4.869 -1.4598 -2.9163 -2.0591
  585MOL0     H80694  12.534  10.008   5.004 -1.4709  1.1417  0.8902
  585MOL0     H80695  12.544   9.941   5.171 -0.3395 -2.4759 -0.1089
  585MOL0     H80696  12.752  10.050   5.108  1.5517  1.4231 -0.5573
  585MOL0     H80697  12.764   9.872   5.149  1.5294  1.6383 -0.1125
  585MOL0     H80698  12.739   9.972   4.857  0.5571 -1.4118 -1.5244
  585MOL0     H80699  12.786   9.818   4.902  0.0515  0.0253 -0.7828
  585MOL0     H80700  12.998   9.903   4.856  1.2968 -2.2904  2.0450
  585MOL0     H80701  12.991   9.879   5.019  1.4069 -0.8141 -1.4571
  585MOL0     H80702  12.972  10.138   4.865 -3.3948  1.5924  1.1452
  585MOL0     H80703  12.950  10.129   5.045 -0.9370  0.6062 -1.3094
  585MOL0     H80704  13.182  10.044   5.069  1.9935 -0.4571 -1.0849
  585MOL0     H80705  13.160  10.207   5.017  1.4169  0.4057 -1.7846
  585MOL0     H80706  13.200  10.119   4.772 -0.1198  0.9517  1.3066
  585MOL0     H80707  13.236   9.964   4.843 -3.0824 -0.0874 -2.1567
  585MOL0     H80708  13.444  10.099   4.814  1.8388  2.4765  0.5934
  585MOL0     H80709  13.418  10.076   4.985  1.3336  0.9386  1.1310
  585MOL0     H80710  12.316   9.922   5.111  1.8320 -2.7732  2.7667
  585MOL0     H80711  12.079   9.856   5.040 -1.0880 -1.0425 -0.0336
  585MOL0     H80712  11.820   9.767   4.708 -2.0843  1.2221  1.9127
  585MOL0     H80713  11.688   9.709   4.530  4.9537  1.9701  0.5292
  585MOL0     H80714   9.821   9.887   4.108  3.3992  0.1664 -0.9710
  585MOL0     H80715   9.629   9.905   4.251  1.4649 -0.8691 -2.2023
  585MOL0     H80716   9.422  10.123   4.599 -1.6539  1.7084  0.1039
  585MOL0     H80717   9.184  10.193   4.635 -0.3013  0.0422 -2.8398
  585MOL0     H80718   8.894   9.880   4.674  0.0998 -0.9183 -2.1345
  585MOL0     H80719   8.794  10.027   4.693 -0.7096  0.5602 -1.5314
  585MOL0     H80720   8.745   9.855   4.513 -0.7267 -0.2460 -0.8612
  585MOL0     H80721   8.885   9.920   4.422 -0.2775  0.9975 -0.4078
  585MOL0     H80722   8.787  10.130   4.414 -0.1588  0.5929  0.0311
  585MOL0     H80723   8.669  10.021   4.343 -0.3708 -0.1914  0.2862
  585MOL0     H80724   8.619  10.145   4.619 -0.8266  1.7182  0.0795
  585MOL0     H80725   8.542  10.001   4.558 -0.5592  0.6047  2.7887
  585MOL0     H80726   8.362  10.336   4.347  0.5448  0.1626 -1.5063
  585MOL0     H80727   9.048   9.813   4.545  1.0392 -0.8952 -1.1687
  585MOL0     H80728   9.327   9.721   4.364 -1.2310  2.3241  0.2528
  585MOL0     H80729   9.352   9.641   4.519 -1.7220 -1.4649  1.1890
  585MOL0     H80730   9.188   9.647   4.442  0.3119 -0.3953 -0.3574
  586MOL0     O80731   1.238   6.071   7.790 -0.6042  0.1562 -0.7442
  586MOL0     C80732   1.139   6.138   7.782 -0.6257  0.0661  0.6475
  586MOL0     O80733   1.118   6.246   7.860 -0.1275  0.4444  0.5041
  586MOL0     C80734   1.214   6.287   7.950 -1.0061  0.2489  0.3886
  586MOL0     C80735   1.302   6.385   7.923 -0.7821 -0.0363  1.1117
  586MOL0     C80736   1.396   6.419   8.021 -0.2732  0.4473 -0.5358
  586MOL0     C80737   1.393   6.355   8.143  0.3998  0.1952  0.4848
  586MOL0     O80738   1.475   6.421   8.232  0.4281 -0.1914  0.1934
  586MOL0     C80739   1.482   6.373   8.364 -0.0558 -0.7500  0.2564
  586MOL0     C80740   1.610   6.429   8.429 -0.1313  0.5427  0.2547
  586MOL0     C80741   1.600   6.543   8.516 -0.4131 -0.2702 -0.3335
  586MOL0     C80742   1.724   6.581   8.597  0.1695  0.8255  0.4791
  586MOL0     C80743   1.732   6.716   8.667 -0.1282  0.0896 -0.3664
  586MOL0     C80744   1.792   6.833   8.584 -0.1544  0.4469 -0.0985
  586MOL0     C80745   1.812   6.944   8.685  0.0883 -0.1043 -0.1221
  586MOL0     C80746   1.872   7.083   8.637 -0.2080  1.7919  0.0413
  586MOL0     N80747   2.019   7.066   8.634 -0.1307 -0.0151  0.4292
  586MOL0     C80748   2.095   6.975   8.568 -0.1531  0.0614 -0.0762
  586MOL0     C80749   2.221   6.985   8.619  0.2524  0.3153  0.7880
  586MOL0     C80750   2.345   6.903   8.578 -0.4820 -0.4156  0.3166
  586MOL0     C80751   2.409   6.973   8.462 -0.2898  0.4792  0.2788
  586MOL0     C80752   2.468   7.113   8.505 -0.7880  0.2961  0.4726
  586MOL0     C80753   2.547   7.184   8.387  0.7139  0.4816 -1.4505
  586MOL0     O80754   2.625   7.085   8.315 -1.1865 -0.0524 -0.0201
  586MOL0     C80755   2.707   7.123   8.216  0.5639 -0.5359 -0.0895
  586MOL0     C80756   2.787   7.024   8.153 -0.1152  0.1296  1.0600
  586MOL0     C80757   2.885   7.050   8.064  0.8890  0.6437  0.1784
  586MOL0     C80758   2.966   6.926   8.024  0.5452 -0.5016 -0.2005
  586MOL0     C80759   2.910   7.180   8.025 -0.4661 -0.3705 -0.0338
  586MOL0     C80760   3.038   7.221   7.953  0.3678  0.4143 -0.3771
  586MOL0     O80761   3.101   7.141   7.867 -0.1450  0.6190  0.0172
  586MOL0     C80762   3.236   7.160   7.842  0.7114 -0.6715 -0.4521
  586MOL0     C80763   3.324   7.163   7.952  0.5144  0.1895 -0.6400
  586MOL0     C80764   3.457   7.185   7.916 -0.2951  0.0539 -0.0900
  586MOL0     C80765   3.502   7.213   7.782  0.0421 -0.7906 -0.2781
  586MOL0     O80766   3.633   7.243   7.755 -0.2291 -0.5565 -0.3741
  586MOL0     C80767   3.674   7.373   7.791 -0.4812  0.7392 -0.4001
  586MOL0     C80768   3.823   7.350   7.818  0.4440  0.3751 -0.0808
  586MOL0     C80769   3.882   7.481   7.876 -0.0929  0.4970 -0.3083
  586MOL0     C80770   4.035   7.469   7.877  0.6615  0.3438  0.7618
  586MOL0     C80771   4.085   7.452   7.737  0.3066 -0.0827 -0.1999
  586MOL0     C80772   4.237   7.487   7.730  0.2667 -1.1483 -0.0522
  586MOL0     C80773   4.293   7.480   7.586 -0.1365  0.3430  0.1861
  586MOL0     C80774   4.452   7.502   7.594  0.2954  1.2641  0.2700
  586MOL0    Cl80775   4.526   7.496   7.421 -0.3561 -0.4786  0.1187
  586MOL0     C80776   3.409   7.204   7.679 -0.3702 -0.5654  0.4031
  586MOL0     C80777   3.277   7.180   7.708  0.0051  0.4010  0.1514
  586MOL0     O80778   3.053   7.342   7.946 -0.0346 -0.5886  0.7262
  586MOL0     C80779   2.840   7.285   8.086  0.0330  0.0801  0.0941
  586MOL0     C80780   2.736   7.260   8.182  0.2494  0.1320  0.4458
  586MOL0     N80781   2.218   7.076   8.716  0.9388 -0.1970 -0.2754
  586MOL0     N80782   2.101   7.132   8.725  0.4951  0.7145 -0.2645
  586MOL0     C80783   1.299   6.260   8.177 -0.2928  0.1474  0.9517
  586MOL0     C80784   1.210   6.220   8.078  0.3094  0.1417  0.2047
  586MOL0     C80785   1.022   6.117   7.696 -0.3828 -0.3134  0.5908
  586MOL0     C80786   0.956   5.996   7.688 -0.9219  0.1021 -0.0910
  586MOL0     C80787   0.833   5.982   7.632  0.4414 -0.3083  0.8409
  586MOL0     C80788   0.776   6.078   7.552  0.8579 -0.4601 -0.2689
  586MOL0     O80789   0.651   6.071   7.487 -0.1809  0.5054  0.4733
  586MOL0     C80790   0.558   5.964   7.500  0.5335 -0.1639  0.8622
  586MOL0     C80791   0.421   6.006   7.437  0.6364 -0.6098 -0.4717
  586MOL0     C80792   0.293   5.939   7.487 -0.6241 -0.9328  0.0980
  586MOL0     C80793   0.294   5.786   7.458 -0.0697  0.3431 -0.3832
  586MOL0     C80794   0.183   5.717   7.523  0.1126  0.0796 -0.0714
  586MOL0     C80795   0.090   5.663   7.571 -0.5603  0.4584  0.6294
  586MOL0     C80796   0.837   6.198   7.543 -0.4211 -0.2910 -0.0053
  586MOL0     C80797   0.964   6.224   7.610 -0.2186  0.3194  0.3518
  586MOL0     C80798   1.018   6.367   7.604  1.0037 -0.5723  0.0593
  586MOL0     H80799   1.309   6.422   7.821  1.2397  2.7332  2.1253
  586MOL0     H80800   1.475   6.491   8.007  0.2531  0.3703  1.7239
  586MOL0     H80801   1.485   6.264   8.359  0.3834 -0.7048 -0.7050
  586MOL0     H80802   1.387   6.400   8.412 -1.3436  0.9466 -2.9243
  586MOL0     H80803   1.648   6.341   8.482 -1.8065 -0.0675  0.5317
  586MOL0     H80804   1.685   6.450   8.353 -1.2980 -0.0147 -1.1093
  586MOL0     H80805   1.566   6.629   8.458  2.1360  1.5915  0.7547
  586MOL0     H80806   1.521   6.512   8.585 -0.1749  0.4607  0.2838
  586MOL0     H80807   1.732   6.510   8.680 -1.9661  0.3818  0.3835
  586MOL0     H80808   1.808   6.574   8.528  1.1142  0.4265  1.6421
  586MOL0     H80809   1.790   6.707   8.759 -0.0054  2.8951 -0.0900
  586MOL0     H80810   1.629   6.736   8.699  0.6854  1.5904  1.4648
  586MOL0     H80811   1.887   6.804   8.539 -0.6666 -1.4140 -0.0479
  586MOL0     H80812   1.727   6.869   8.504  1.5295  3.0983 -0.3881
  586MOL0     H80813   1.861   6.905   8.775  0.5303  0.0242 -0.3025
  586MOL0     H80814   1.714   6.979   8.716  0.9528  1.4730  0.9559
  586MOL0     H80815   1.833   7.094   8.536 -0.1620 -3.1593 -0.7834
  586MOL0     H80816   1.834   7.160   8.704 -1.0022 -0.2370  2.0659
  586MOL0     H80817   2.077   6.909   8.484 -1.5062 -1.0485  1.0336
  586MOL0     H80818   2.318   6.805   8.536  1.6103 -0.3374 -1.3303
  586MOL0     H80819   2.416   6.884   8.659 -0.0249 -1.5536 -0.3190
  586MOL0     H80820   2.491   6.911   8.425 -0.2662  0.6690  0.0114
  586MOL0     H80821   2.329   6.982   8.389  1.3979 -1.1817 -1.9090
  586MOL0     H80822   2.397   7.171   8.564  0.1612  0.3672  1.5855
  586MOL0     H80823   2.540   7.099   8.586 -0.2575  3.9529  0.8175
  586MOL0     H80824   2.475   7.241   8.328 -2.0619  0.9253  2.0489
  586MOL0     H80825   2.612   7.262   8.428  1.8782  0.1185 -2.5128
  586MOL0     H80826   2.765   6.924   8.188  0.9217 -0.7041 -0.5209
  586MOL0     H80827   2.943   6.836   8.082  1.7616 -1.4161 -1.0841
  586MOL0     H80828   3.070   6.955   8.042  0.3488 -0.3060  0.6474
  586MOL0     H80829   2.964   6.901   7.918 -0.9109 -1.8885  0.1099
  586MOL0     H80830   3.302   7.134   8.055 -0.3615 -1.5984 -1.2882
  586MOL0     H80831   3.527   7.190   7.999 -2.0571  2.1520  1.3754
  586MOL0     H80832   3.647   7.438   7.708  0.8585  0.6508 -0.9370
  586MOL0     H80833   3.623   7.400   7.884 -1.3116 -1.8969 -0.0106
  586MOL0     H80834   3.840   7.268   7.889  0.8124 -0.0178 -0.6121
  586MOL0     H80835   3.878   7.306   7.734  0.6415  0.9604 -0.2646
  586MOL0     H80836   3.849   7.504   7.977 -0.1110 -0.4930 -0.0761
  586MOL0     H80837   3.853   7.564   7.812  1.3491  0.1803 -1.4361
  586MOL0     H80838   4.065   7.386   7.941  1.3556  0.2721  0.3461
  586MOL0     H80839   4.075   7.562   7.920  1.7922  0.1033  0.2699
  586MOL0     H80840   4.061   7.350   7.708 -0.4402 -0.2941  1.0840
  586MOL0     H80841   4.031   7.525   7.675 -1.0280 -0.7207  0.1717
  586MOL0     H80842   4.291   7.422   7.801  3.5930  0.6625 -0.7502
  586MOL0     H80843   4.253   7.589   7.767  0.0822 -0.8670 -0.7452
  586MOL0     H80844   4.245   7.556   7.524  3.0092  2.5218  0.1926
  586MOL0     H80845   4.271   7.384   7.539 -2.9302  1.4765 -1.0859
  586MOL0     H80846   4.486   7.424   7.663 -3.6184  0.4926  1.6003
  586MOL0     H80847   4.473   7.595   7.647 -0.3060  0.4401  2.0538
  586MOL0     H80848   3.443   7.234   7.580 -1.4273 -0.4149  0.0750
  586MOL0     H80849   3.196   7.176   7.636  1.8619 -1.2160 -1.9861
  586MOL0     H80850   2.866   7.389   8.064 -2.1345  0.7732  0.5905
  586MOL0     H80851   2.671   7.340   8.217  0.7841  0.4372  0.7684
  586MOL0     H80852   1.285   6.220   8.276 -0.3768 -1.0148  0.4917
  586MOL0     H80853   1.127   6.152   8.087  0.2670  0.2830  0.9310
  586MOL0     H80854   1.006   5.922   7.750  0.5735  0.8718 -0.3406
  586MOL0     H80855   0.791   5.884   7.651  0.9105 -0.2912  2.0794
  586MOL0     H80856   0.593   5.875   7.446 -0.1917 -0.7795  1.3795
  586MOL0     H80857   0.553   5.945   7.607  0.0705 -0.0620  0.8607
  586MOL0     H80858   0.437   5.981   7.332  3.0613 -0.2234 -0.2612
  586MOL0     H80859   0.402   6.114   7.437  3.5192  0.0253  1.6645
  586MOL0     H80860   0.284   5.966   7.593 -1.8788  3.5307 -0.9389
  586MOL0     H80861   0.205   5.991   7.448 -1.1495 -2.1821 -0.4036
  586MOL0     H80862   0.389   5.741   7.489 -0.2254 -0.7954 -1.4594
  586MOL0     H80863   0.285   5.770   7.350 -1.9445  1.2640 -0.4004
  586MOL0     H80864   0.003   5.611   7.605 -0.7683  0.4470  0.0850
  586MOL0     H80865   0.775   6.263   7.482  0.9258  0.9828 -0.0744
  586MOL0     H80866   1.008   6.413   7.506 -3.6793 -1.7907 -0.2636
  586MOL0     H80867   0.967   6.437   7.671  1.9235  1.4985 -1.3312
  586MOL0     H80868   1.120   6.362   7.644  0.4591 -0.0524  1.5574
  587MOL0     O80869   5.690   0.934   4.337 -0.1525  0.1006 -1.1447
  587MOL0     C80870   5.678   0.831   4.274 -0.6817 -0.0639  0.1247
  587MOL0     O80871   5.781   0.770   4.211 -0.3340  0.2356 -0.6986
  587MOL0     C80872   5.886   0.859   4.200 -0.1171  1.0292  0.3064
  587MOL0     C80873   5.990   0.872   4.295  0.2967  0.1610  1.0665
  587MOL0     C80874   6.086   0.975   4.276  0.4648 -0.1276  0.4841
  587MOL0     C80875   6.083   1.061   4.151  0.1431 -0.2193 -0.2155
  587MOL0     O80876   6.170   1.155   4.112  0.2738 -0.0668 -0.2088
  587MOL0     C80877   6.231   1.224   4.221 -0.3472 -0.4120  0.3198
  587MOL0     C80878   6.324   1.344   4.195  0.3327 -0.3855  0.1738
  587MOL0     C80879   6.465   1.295   4.154  0.1855  0.4762 -0.2808
  587MOL0     C80880   6.562   1.402   4.208 -0.5481  0.3641 -0.7631
  587MOL0     C80881   6.709   1.374   4.175 -0.4829  0.5371 -0.2634
  587MOL0     C80882   6.772   1.296   4.297 -0.0059 -1.3639  0.0810
  587MOL0     C80883   6.923   1.274   4.271  0.4112 -0.0968  0.8720
  587MOL0     C80884   6.996   1.171   4.358  0.5800  0.1599  0.2476
  587MOL0     N80885   7.139   1.174   4.324  0.3970  0.0276 -0.2997
  587MOL0     C80886   7.191   1.130   4.211 -0.4026 -0.4060  1.2813
  587MOL0     C80887   7.321   1.149   4.231 -0.0402  0.0922 -0.4012
  587MOL0     C80888   7.432   1.099   4.141 -0.0000  0.2903 -0.1910
  587MOL0     C80889   7.529   1.025   4.222  0.2227 -0.7246 -0.7210
  587MOL0     C80890   7.611   0.946   4.131 -0.1698 -0.5297 -0.3657
  587MOL0     C80891   7.705   0.840   4.199  0.8304 -0.4482  0.5079
  587MOL0     O80892   7.805   0.902   4.283 -0.5260  0.9314  1.0447
  587MOL0     C80893   7.938   0.863   4.251  0.6433  0.0118  0.2480
  587MOL0     C80894   7.983   0.738   4.244  0.0016 -0.3301 -0.4010
  587MOL0     C80895   8.114   0.707   4.238 -0.5129  0.4083  0.1363
  587MOL0     C80896   8.148   0.559   4.244  0.2384 -0.6908  0.7226
  587MOL0     C80897   8.217   0.800   4.223  0.0970 -0.3343 -0.0085
  587MOL0     C80898   8.360   0.777   4.214 -0.4898  0.0124 -0.1786
  587MOL0     O80899   8.423   0.873   4.146  0.0872 -0.1895 -0.0059
  587MOL0     C80900   8.559   0.881   4.117  0.5048 -0.1966  0.0178
  587MOL0     C80901   8.658   0.779   4.141 -0.4973 -0.0665 -0.0070
  587MOL0     C80902   8.794   0.798   4.107 -0.6145 -0.5891 -0.5858
  587MOL0     C80903   8.833   0.916   4.036 -0.3378  0.4862 -0.1859
  587MOL0     O80904   8.955   0.950   3.988 -0.4243 -0.3328  0.0977
  587MOL0     C80905   9.063   0.860   4.029  0.2293  0.1915  0.2391
  587MOL0     C80906   9.206   0.913   3.994 -0.0191  0.0296 -0.0346
  587MOL0     C80907   9.250   1.029   4.081  0.7405  0.1756 -0.1238
  587MOL0     C80908   9.396   1.072   4.044  0.1929  0.4308 -0.5938
  587MOL0     C80909   9.428   1.210   4.117 -0.2345 -0.0286  0.4397
  587MOL0     C80910   9.569   1.248   4.097  0.0195 -0.3076 -1.0737
  587MOL0     C80911   9.614   1.375   4.168 -0.1471 -1.3129 -1.1756
  587MOL0     C80912   9.763   1.395   4.145 -0.4454 -0.3137 -0.0246
  587MOL0    Cl80913   9.854   1.282   4.261  0.1377  0.0923  0.0771
  587MOL0     C80914   8.739   1.016   4.021  0.2410  0.1225 -1.3978
  587MOL0     C80915   8.606   1.002   4.059  0.5053  0.3903 -0.2098
  587MOL0     O80916   8.419   0.685   4.267 -0.1220  0.4301 -0.2801
  587MOL0     C80917   8.173   0.934   4.216  0.2481  0.2755 -0.6504
  587MOL0     C80918   8.042   0.961   4.248  0.7164  1.0604 -0.5380
  587MOL0     N80919   7.348   1.203   4.355  0.3935  0.6714  0.3248
  587MOL0     N80920   7.232   1.218   4.409 -0.2750 -0.7271 -0.3902
  587MOL0     C80921   5.981   1.038   4.060  0.9721 -0.3059 -0.2339
  587MOL0     C80922   5.890   0.941   4.085  1.1123  0.0528  0.2153
  587MOL0     C80923   5.546   0.758   4.277  0.0634 -0.7179 -0.3166
  587MOL0     C80924   5.538   0.626   4.246  0.1559  0.0243 -0.1065
  587MOL0     C80925   5.422   0.553   4.242 -0.5830 -0.4502  0.1459
  587MOL0     C80926   5.298   0.618   4.259  0.4379  1.1487  0.1188
  587MOL0     O80927   5.176   0.556   4.252 -0.1995  0.2818  0.0153
  587MOL0     C80928   5.166   0.410   4.236 -0.5347 -0.3993  0.0865
  587MOL0     C80929   5.048   0.352   4.309  0.9373  0.0570 -0.6609
  587MOL0     C80930   5.016   0.218   4.255  0.4201  0.0831  0.4424
  587MOL0     C80931   5.001   0.113   4.362  0.7114 -0.3481  0.4179
  587MOL0     C80932   4.939  -0.006   4.311  0.7176  0.3297  0.2992
  587MOL0     C80933   4.870  -0.092   4.258  0.3197 -0.2020 -0.1831
  587MOL0     C80934   5.303   0.751   4.300 -0.3328  0.1367  0.3654
  587MOL0     C80935   5.423   0.822   4.309 -0.6812 -0.7066 -0.2977
  587MOL0     C80936   5.405   0.967   4.333  0.5203 -0.3151 -0.2252
  587MOL0     H80937   5.992   0.813   4.387 -0.4148 -1.2361  0.2220
  587MOL0     H80938   6.157   1.008   4.351  1.7857 -2.2293  0.2408
  587MOL0     H80939   6.294   1.152   4.274  2.6617  1.3585 -0.5640
  587MOL0     H80940   6.150   1.261   4.284 -0.0206 -0.8316  0.9947
  587MOL0     H80941   6.279   1.394   4.108 -1.7202  1.1181  2.0023
  587MOL0     H80942   6.319   1.414   4.279 -2.5920 -0.8777  0.4977
  587MOL0     H80943   6.485   1.202   4.207  0.4114 -2.1268 -4.5073
  587MOL0     H80944   6.465   1.271   4.047  0.2694 -2.3731  0.2975
  587MOL0     H80945   6.538   1.499   4.165  1.0831  0.9074 -0.5418
  587MOL0     H80946   6.540   1.416   4.314  1.7874 -3.1515  0.3755
  587MOL0     H80947   6.747   1.474   4.154 -4.7973  2.3282 -0.5587
  587MOL0     H80948   6.713   1.306   4.089 -0.2670  2.1475 -1.5616
  587MOL0     H80949   6.760   1.376   4.371 -0.2046 -1.2313 -0.0927
  587MOL0     H80950   6.714   1.207   4.320 -0.0948 -0.7274  2.5410
  587MOL0     H80951   6.974   1.370   4.279  0.4082 -0.1428  1.4831
  587MOL0     H80952   6.927   1.245   4.165  0.8242 -3.9171  1.7758
  587MOL0     H80953   6.985   1.198   4.464 -0.9320 -1.3654  0.5186
  587MOL0     H80954   6.952   1.072   4.345  2.8991 -0.7461 -1.1871
  587MOL0     H80955   7.141   1.087   4.125  0.0655  1.4692  0.0131
  587MOL0     H80956   7.468   1.182   4.080  0.5668  0.5468  0.4762
  587MOL0     H80957   7.382   1.029   4.074  0.1643  0.4780 -0.5104
  587MOL0     H80958   7.583   1.104   4.274  0.4821 -0.5741 -1.2115
  587MOL0     H80959   7.482   0.953   4.289 -0.2259  0.3390  0.1431
  587MOL0     H80960   7.547   0.882   4.069 -0.4142 -1.8579  1.1639
  587MOL0     H80961   7.673   1.009   4.068 -1.1885  1.9030  0.9234
  587MOL0     H80962   7.640   0.773   4.256 -0.0609  1.5278  1.8846
  587MOL0     H80963   7.741   0.773   4.119 -0.9810 -1.9087  0.8513
  587MOL0     H80964   7.907   0.662   4.258  1.2394 -1.2275  1.8078
  587MOL0     H80965   8.217   0.528   4.165 -0.4273  2.3700 -1.2825
  587MOL0     H80966   8.054   0.506   4.227  1.3944 -1.8976 -2.8189
  587MOL0     H80967   8.203   0.541   4.337  2.0419  0.2669 -0.1052
  587MOL0     H80968   8.634   0.679   4.175  1.6903 -0.9086 -0.7747
  587MOL0     H80969   8.857   0.716   4.140 -0.7386 -1.1800 -1.7488
  587MOL0     H80970   9.061   0.846   4.138  1.4489  0.3406  0.2964
  587MOL0     H80971   9.051   0.764   3.978  1.1712  0.4079 -0.4058
  587MOL0     H80972   9.264   0.820   4.000 -1.8031 -1.2055 -0.8274
  587MOL0     H80973   9.208   0.936   3.887  0.2510 -0.0953 -0.0558
  587MOL0     H80974   9.245   1.003   4.187  0.3147 -0.3534 -0.2661
  587MOL0     H80975   9.184   1.110   4.049  0.4815 -0.3823 -1.0361
  587MOL0     H80976   9.408   1.093   3.937  0.2403  0.8021 -0.5181
  587MOL0     H80977   9.462   0.996   4.087 -0.1141 -0.3561 -1.4833
  587MOL0     H80978   9.370   1.294   4.077  0.6842 -0.4283 -1.9094
  587MOL0     H80979   9.414   1.210   4.225 -0.5831  1.6653  0.4203
  587MOL0     H80980   9.595   1.264   3.992  1.9592 -0.1506 -0.5993
  587MOL0     H80981   9.637   1.174   4.140  0.1564  2.2717  4.0198
  587MOL0     H80982   9.591   1.379   4.275  0.4253  1.5851 -1.0921
  587MOL0     H80983   9.569   1.462   4.120 -1.0173 -1.8707 -1.4048
  587MOL0     H80984   9.789   1.498   4.169 -3.3552  0.3968  0.4778
  587MOL0     H80985   9.783   1.377   4.039 -1.8858 -2.2634 -0.0124
  587MOL0     H80986   8.767   1.107   3.969 -0.2721  0.6130 -0.8367
  587MOL0     H80987   8.539   1.087   4.046  0.2911  0.7041  2.3506
  587MOL0     H80988   8.233   1.023   4.201 -0.0563  0.4938 -0.5835
  587MOL0     H80989   8.012   1.065   4.246 -1.6881  0.4441  0.2196
  587MOL0     H80990   5.988   1.079   3.960  1.3866 -1.2221 -0.5864
  587MOL0     H80991   5.808   0.934   4.014  1.5961  2.2635 -0.6265
  587MOL0     H80992   5.631   0.570   4.250  0.5226  0.6937  1.2922
  587MOL0     H80993   5.432   0.445   4.244 -1.1046 -0.4980  0.1849
  587MOL0     H80994   5.162   0.384   4.130 -3.2448 -1.8961  0.4557
  587MOL0     H80995   5.252   0.354   4.272 -0.9866 -3.1360 -2.6553
  587MOL0     H80996   4.965   0.421   4.294  1.4757  1.6965  2.8279
  587MOL0     H80997   5.058   0.345   4.418 -0.1635 -1.4774 -0.6327
  587MOL0     H80998   4.915   0.233   4.215  0.0227 -2.8498  0.1386
  587MOL0     H80999   5.068   0.191   4.162 -0.0979  1.2274 -0.1970
  587MOL0     H81000   4.948   0.154   4.448 -0.6711  0.1189 -0.6095
  587MOL0     H81001   5.104   0.097   4.396  0.4346 -2.6901  0.3711
  587MOL0     H81002   4.809  -0.175   4.228  1.6655 -0.1224 -3.6021
  587MOL0     H81003   5.207   0.800   4.315  0.8466  3.2820 -1.4162
  587MOL0     H81004   5.445   1.019   4.246 -0.2110  0.4752 -0.1066
  587MOL0     H81005   5.299   0.992   4.327  0.0254 -2.4768 -1.6509
  587MOL0     H81006   5.449   1.008   4.425 -2.2610  2.4476  0.0384
  588MOL0     O81007   6.451  10.472   1.102 -0.6938 -0.6054  0.4853
  588MOL0     C81008   6.406  10.427   0.996  0.4925 -0.6040 -1.3922
  588MOL0     O81009   6.482  10.417   0.879  1.4158 -0.1566  0.3865
  588MOL0     C81010   6.596  10.490   0.860  0.5872  0.0960  0.0030
  588MOL0     C81011   6.635  10.498   0.723  0.5772  0.4308 -0.1593
  588MOL0     C81012   6.754  10.543   0.682  0.0289  0.0395  0.7621
  588MOL0     C81013   6.835  10.616   0.775  0.5091  1.6206 -0.3852
  588MOL0     O81014   6.939  10.689   0.741 -0.7395  0.0172  0.1637
  588MOL0     C81015   6.962  10.735   0.611 -0.8783 -0.0089 -0.6517
  588MOL0     C81016   7.069  10.847   0.624 -0.4591  0.2518  0.4854
  588MOL0     C81017   7.073  10.921   0.496  0.5322 -0.4929 -0.9959
  588MOL0     C81018   7.161  11.038   0.521 -0.5223  0.0481  0.6817
  588MOL0     C81019   7.160  11.138   0.406 -0.3155 -0.2364 -0.5758
  588MOL0     C81020   7.226  11.278   0.425  1.1038  0.2002 -0.0088
  588MOL0     C81021   7.376  11.255   0.397 -0.2937 -0.9719 -0.2974
  588MOL0     C81022   7.445  11.393   0.375  0.3384  0.2341 -0.6886
  588MOL0     N81023   7.588  11.375   0.351 -0.6089 -0.5720  0.1126
  588MOL0     C81024   7.656  11.292   0.260  0.0946 -0.4449 -0.4306
  588MOL0     C81025   7.789  11.330   0.255 -0.1266 -0.7295  0.0143
  588MOL0     C81026   7.914  11.270   0.194 -0.4076  0.0447 -0.2231
  588MOL0     C81027   7.932  11.121   0.254  0.2682 -0.3883  0.8474
  588MOL0     C81028   8.058  11.048   0.218  0.3019  0.2729 -0.0066
  588MOL0     C81029   8.066  10.922   0.302 -0.1217  0.3837  0.0367
  588MOL0     O81030   8.101  10.955   0.435 -0.1518 -0.6604  0.5414
  588MOL0     C81031   8.230  10.956   0.461  0.4241  0.3029  0.1540
  588MOL0     C81032   8.335  10.937   0.369  0.3604 -0.4302 -0.1241
  588MOL0     C81033   8.467  10.940   0.411  0.6544  0.3847 -1.0710
  588MOL0     C81034   8.572  10.919   0.305  0.1808 -0.5404  0.9338
  588MOL0     C81035   8.492  10.967   0.547  0.2324  0.4108 -0.0976
  588MOL0     C81036   8.629  10.979   0.609 -0.3512  0.2259 -0.3595
  588MOL0     O81037   8.627  10.977   0.747  0.0002 -1.3491  0.2438
  588MOL0     C81038   8.747  11.014   0.810  0.4528 -0.4331  0.4589
  588MOL0     C81039   8.809  10.922   0.889  0.3568  0.9156  0.5901
  588MOL0     C81040   8.938  10.942   0.948 -0.2932  0.4730  0.2900
  588MOL0     C81041   9.004  11.068   0.927  0.5818  0.3800 -0.0617
  588MOL0     O81042   9.129  11.101   0.965  0.3310  0.3828  0.0490
  588MOL0     C81043   9.186  11.024   1.067  0.4183 -0.6006  0.2208
  588MOL0     C81044   9.313  11.080   1.125  0.5140  0.4160 -0.0968
  588MOL0     C81045   9.434  11.076   1.025  0.2196 -0.4413 -0.0593
  588MOL0     C81046   9.544  10.977   1.066 -0.4155  0.3672  0.4402
  588MOL0     C81047   9.664  10.982   0.969  0.2037  0.6203  0.4616
  588MOL0     C81048   9.776  10.882   0.996 -0.0105 -0.1598  0.0201
  588MOL0     C81049   9.872  10.857   0.880 -0.7584  0.1916 -0.5728
  588MOL0     C81050   9.954  10.983   0.830 -0.1913  0.2490  0.0937
  588MOL0    Cl81051   9.855  11.088   0.722  0.2492 -0.2539  0.3323
  588MOL0     C81052   8.931  11.167   0.862  0.6940 -0.4858  0.8178
  588MOL0     C81053   8.800  11.145   0.808 -0.4848  0.1015 -0.4292
  588MOL0     O81054   8.728  10.996   0.541 -0.2015  0.0439  0.7665
  588MOL0     C81055   8.388  10.986   0.640 -0.2801 -0.0366  0.1569
  588MOL0     C81056   8.256  10.972   0.596 -0.2543  0.2111  0.6810
  588MOL0     N81057   7.801  11.427   0.357 -0.0969  0.1521  1.0336
  588MOL0     N81058   7.685  11.452   0.405 -0.6465 -0.2641 -0.0799
  588MOL0     C81059   6.795  10.621   0.911 -0.3234 -0.2241  0.3514
  588MOL0     C81060   6.683  10.552   0.952 -0.5992 -0.2304 -0.1327
  588MOL0     C81061   6.277  10.358   1.007  0.4575 -0.2524  0.6552
  588MOL0     C81062   6.236  10.272   0.900  0.3189  0.9515 -1.1335
  588MOL0     C81063   6.118  10.195   0.898 -0.1059  0.2850 -0.2886
  588MOL0     C81064   6.033  10.221   1.004  0.3388  0.7470  0.9508
  588MOL0     O81065   5.916  10.153   0.991 -0.1811 -0.6659 -0.5255
  588MOL0     C81066   5.895  10.069   1.104  0.3720 -0.3056  0.6718
  588MOL0     C81067   5.806   9.954   1.066  0.0831 -0.2619  0.0739
  588MOL0     C81068   5.861   9.828   1.003 -1.0809  0.1118  0.6397
  588MOL0     C81069   5.956   9.841   0.877 -0.9356 -0.1962 -0.0304
  588MOL0     C81070   6.092   9.814   0.918  0.3923  0.9816  0.8567
  588MOL0     C81071   6.207   9.805   0.955  0.4088 -0.0918  0.1468
  588MOL0     C81072   6.068  10.301   1.114  0.6097 -0.0860 -0.0012
  588MOL0     C81073   6.193  10.364   1.123  0.0244  0.0814  0.5570
  588MOL0     C81074   6.200  10.460   1.238  1.3041 -0.8899 -0.4223
  588MOL0     H81075   6.563  10.457   0.653 -2.0763  0.4809  2.3408
  588MOL0     H81076   6.789  10.540   0.580  1.0597  1.3880  1.0469
  588MOL0     H81077   6.869  10.773   0.568 -2.5035 -1.1364  1.6609
  588MOL0     H81078   6.999  10.664   0.536 -1.8541  1.2368 -2.3825
  588MOL0     H81079   7.031  10.912   0.703  0.3497  1.4931 -0.1083
  588MOL0     H81080   7.168  10.818   0.658 -0.6724 -0.8960  0.1612
  588MOL0     H81081   7.124  10.870   0.414  3.2179  0.4050  0.0262
  588MOL0     H81082   6.972  10.945   0.462  0.0934 -2.6523 -1.3234
  588MOL0     H81083   7.120  11.089   0.609  1.9019 -1.7086  3.0311
  588MOL0     H81084   7.259  11.001   0.554  0.0447  0.7041 -0.2205
  588MOL0     H81085   7.055  11.166   0.395  0.2496  2.0227 -0.5991
  588MOL0     H81086   7.187  11.082   0.316  0.3008 -0.2377 -0.3991
  588MOL0     H81087   7.179  11.336   0.344  1.2283  0.3997  0.0593
  588MOL0     H81088   7.204  11.336   0.515  5.4573 -0.3238  1.6250
  588MOL0     H81089   7.379  11.188   0.310 -1.0988  0.7828 -1.7376
  588MOL0     H81090   7.418  11.206   0.485  1.3593  1.2731  0.2587
  588MOL0     H81091   7.400  11.440   0.287  0.2901 -0.2627 -0.9315
  588MOL0     H81092   7.430  11.459   0.462  0.1731  2.7809 -2.5383
  588MOL0     H81093   7.620  11.219   0.189 -0.5974  0.5452 -1.1192
  588MOL0     H81094   8.002  11.320   0.236 -0.8709  0.7064 -0.0330
  588MOL0     H81095   7.915  11.277   0.085 -2.3632 -1.3377 -0.3738
  588MOL0     H81096   7.925  11.123   0.363  1.3579  1.6762  0.9366
  588MOL0     H81097   7.847  11.060   0.221 -0.4929  1.6852 -1.2958
  588MOL0     H81098   8.049  11.014   0.115  2.1147 -0.4361  0.0265
  588MOL0     H81099   8.144  11.115   0.230 -1.1458  2.4876 -1.3061
  588MOL0     H81100   7.969  10.872   0.308 -0.1055  0.3821  0.2883
  588MOL0     H81101   8.136  10.851   0.257 -0.8543  0.6907 -1.6709
  588MOL0     H81102   8.323  10.925   0.262  0.2275 -0.0271 -0.1535
  588MOL0     H81103   8.630  10.832   0.335  0.0358  0.1713  3.5200
  588MOL0     H81104   8.627  11.013   0.299  1.1897 -1.1563  0.2130
  588MOL0     H81105   8.533  10.909   0.204 -2.1657 -0.4554  1.7593
  588MOL0     H81106   8.761  10.825   0.896  0.0537  0.9541 -0.6566
  588MOL0     H81107   8.996  10.858   0.984 -1.4350 -0.7560 -0.6582
  588MOL0     H81108   9.111  11.019   1.146  2.2263 -0.2603  2.0723
  588MOL0     H81109   9.209  10.922   1.036 -1.7046 -1.0942  0.1500
  588MOL0     H81110   9.288  11.178   1.166 -3.6563 -0.5587  0.1388
  588MOL0     H81111   9.325  11.012   1.210 -1.1689 -0.7734 -0.7663
  588MOL0     H81112   9.469  11.180   1.029 -1.8733  0.2696  2.8130
  588MOL0     H81113   9.400  11.051   0.923  2.2978 -1.2956 -0.5807
  588MOL0     H81114   9.512  10.872   1.070  0.7002 -0.0122 -0.2222
  588MOL0     H81115   9.577  11.005   1.166 -1.2914 -0.2157  0.9089
  588MOL0     H81116   9.623  10.956   0.871  2.1573  0.2254 -0.3028
  588MOL0     H81117   9.702  11.085   0.963 -3.0179  1.9600  0.8964
  588MOL0     H81118   9.736  10.787   1.034  0.7919 -0.3508  0.4048
  588MOL0     H81119   9.828  10.930   1.079  0.0863  1.7623 -1.0993
  588MOL0     H81120   9.831  10.806   0.793  0.0723  0.2984 -1.0382
  588MOL0     H81121   9.940  10.780   0.918  0.3467  1.1397 -0.5658
  588MOL0     H81122  10.036  10.941   0.770 -0.4590  0.6689 -0.5896
  588MOL0     H81123   9.990  11.026   0.924  1.1497 -0.8366  0.1075
  588MOL0     H81124   8.981  11.262   0.846 -1.8878  0.7065 -0.8842
  588MOL0     H81125   8.754  11.223   0.749  0.3635 -1.7185 -3.7147
  588MOL0     H81126   8.401  11.015   0.744  2.2332 -0.7103  0.0991
  588MOL0     H81127   8.178  10.981   0.671 -1.4922 -3.1171 -0.0674
  588MOL0     H81128   6.858  10.675   0.980  0.7504  1.0633 -1.5504
  588MOL0     H81129   6.670  10.542   1.059  1.3129  1.4761  0.3042
  588MOL0     H81130   6.301  10.257   0.815  3.3151  2.4203  0.7266
  588MOL0     H81131   6.108  10.122   0.818 -0.0221  1.2263 -1.1836
  588MOL0     H81132   5.990  10.034   1.145  1.6213  3.8392  1.8423
  588MOL0     H81133   5.847  10.133   1.179 -2.6492 -0.9445 -0.5798
  588MOL0     H81134   5.726   9.989   1.000 -1.5666  1.0592  2.6162
  588MOL0     H81135   5.744   9.931   1.153 -0.6828  1.1825 -0.0560
  588MOL0     H81136   5.913   9.767   1.077 -1.9813 -1.4390  0.0386
  588MOL0     H81137   5.774   9.764   0.987 -1.4865  0.5532  1.0269
  588MOL0     H81138   5.951   9.927   0.809 -2.9297 -0.8539 -0.8113
  588MOL0     H81139   5.927   9.757   0.812 -0.3512 -1.3785  1.1845
  588MOL0     H81140   6.309   9.796   0.984  0.6527  3.0091  0.5737
  588MOL0     H81141   5.994  10.318   1.192  2.2484  3.5456  0.9768
  588MOL0     H81142   6.194  10.565   1.208  0.3933  0.0255  2.6113
  588MOL0     H81143   6.121  10.437   1.310  0.4290  0.0436 -1.0534
  588MOL0     H81144   6.291  10.449   1.299 -0.0982  0.2813  2.0250
  589MOL0     O81145   3.676   5.362  11.202 -0.3291  0.8199 -0.2478
  589MOL0     C81146   3.647   5.240  11.203 -0.2510 -0.5512  0.0301
  589MOL0     O81147   3.728   5.143  11.233 -0.0636 -0.1335 -0.1828
  589MOL0     C81148   3.856   5.180  11.271  0.2404  0.0152 -0.5070
  589MOL0     C81149   3.895   5.195  11.409  0.5042  0.4822  0.6929
  589MOL0     C81150   4.026   5.218  11.441 -0.4101  0.4292 -0.0630
  589MOL0     C81151   4.113   5.228  11.335 -0.2370 -0.1113 -0.0045
  589MOL0     O81152   4.247   5.269  11.357  0.0371  0.0413  0.0388
  589MOL0     C81153   4.298   5.297  11.483 -0.1699 -0.2407 -0.5516
  589MOL0     C81154   4.438   5.328  11.455 -0.3641  0.8576  0.5155
  589MOL0     C81155   4.510   5.306  11.584 -0.0410  0.4114 -0.4866
  589MOL0     C81156   4.643   5.377  11.574 -0.8149  0.2103 -0.3659
  589MOL0     C81157   4.718   5.353  11.707  0.2545 -0.0828 -0.7459
  589MOL0     C81158   4.762   5.209  11.738  0.2467  0.2658  0.6125
  589MOL0     C81159   4.811   5.189  11.881 -0.1297  0.1473 -0.1821
  589MOL0     C81160   4.910   5.285  11.927 -0.0335 -0.2766  0.7225
  589MOL0     N81161   5.038   5.271  11.858  0.3380 -0.3743  0.2516
  589MOL0     C81162   5.118   5.160  11.848 -0.2043  1.3915  0.5021
  589MOL0     C81163   5.214   5.194  11.759  0.7287 -0.5799 -1.8062
  589MOL0     C81164   5.338   5.130  11.701  0.0003  0.2836  0.0233
  589MOL0     C81165   5.455   5.137  11.795 -0.7112  0.0290  0.4956
  589MOL0     C81166   5.563   5.031  11.749  0.9574  0.2759 -1.0973
  589MOL0     C81167   5.673   5.015  11.854  0.2022 -0.3516  0.0145
  589MOL0     O81168   5.624   4.928  11.963 -0.3241 -0.5319 -0.0135
  589MOL0     C81169   5.703   4.906  12.070 -0.0173 -0.7854 -0.1784
  589MOL0     C81170   5.634   4.836  12.165 -0.1350  0.6724  0.0071
  589MOL0     C81171   5.686   4.819  12.296  0.1047 -0.8172  0.5738
  589MOL0     C81172   5.594   4.753  12.382 -0.5188 -0.3174 -0.2823
  589MOL0     C81173   5.823   4.856  12.321  0.4426  0.1726  0.3732
  589MOL0     C81174   5.889   4.844  12.457 -0.3641 -0.0860  0.4301
  589MOL0     O81175   6.006   4.917  12.460  1.0948 -0.1469  0.5196
  589MOL0     C81176   6.083   4.920  12.568 -0.8538 -0.4351  0.0337
  589MOL0     C81177   6.070   4.844  12.687 -0.1617 -0.1579 -0.6526
  589MOL0     C81178   6.176   4.868  12.790 -0.0606  0.7300 -1.2410
  589MOL0     C81179   6.289   4.938  12.773 -0.6370 -0.5472  0.4926
  589MOL0     O81180   6.400   4.943  12.856 -0.5754  0.1868 -0.4645
  589MOL0     C81181   6.407   4.837  12.948 -0.3463  0.3052 -0.0305
  589MOL0     C81182   6.334   4.885  13.074 -1.1242 -0.3890  0.7273
  589MOL0     C81183   6.391   4.796  13.195  0.1631 -0.2976  0.4630
  589MOL0     C81184   6.332   4.658  13.173 -0.8359  0.2143  0.0540
  589MOL0     C81185   6.201   4.647  13.241 -0.1802  0.0946 -0.0355
  589MOL0     C81186   6.125   4.524  13.187 -0.0517 -0.4610  0.0464
  589MOL0     C81187   6.178   4.387  13.217 -0.4112  0.4231  0.4582
  589MOL0     C81188   6.236   4.367  13.350 -0.7478  0.9484 -0.0642
  589MOL0    Cl81189   6.285   4.197  13.360  0.0653  0.0561 -0.2625
  589MOL0     C81190   6.300   5.010  12.654  0.4685 -0.1661 -0.0560
  589MOL0     C81191   6.199   5.006  12.552  0.5511 -0.0244 -1.4091
  589MOL0     O81192   5.835   4.790  12.556 -0.0716  0.3513  1.3382
  589MOL0     C81193   5.897   4.916  12.217 -0.5252  0.4670  0.2539
  589MOL0     C81194   5.833   4.939  12.094  0.1661  0.6645 -0.0947
  589MOL0     N81195   5.189   5.323  11.720  0.3566  0.2249  0.1646
  589MOL0     N81196   5.081   5.367  11.771  0.1710  0.3659 -0.1384
  589MOL0     C81197   4.080   5.204  11.203  0.2703 -0.7292 -0.7426
  589MOL0     C81198   3.955   5.162  11.180 -0.5143 -0.2467 -0.0545
  589MOL0     C81199   3.527   5.209  11.138  0.6512  0.3063  0.6383
  589MOL0     C81200   3.413   5.290  11.160  0.4055  0.2935  0.1673
  589MOL0     C81201   3.294   5.269  11.103 -0.4103  1.0004 -0.1031
  589MOL0     C81202   3.276   5.170  11.009  0.1061 -0.0658 -0.4375
  589MOL0     O81203   3.156   5.153  10.947  0.4239 -0.1234  0.1272
  589MOL0     C81204   3.068   5.072  11.019  0.5099 -0.0155  0.3057
  589MOL0     C81205   3.003   5.129  11.140  0.3854  0.5720 -0.5608
  589MOL0     C81206   2.901   5.244  11.127 -0.3953  0.4457 -0.1153
  589MOL0     C81207   2.751   5.198  11.143  0.5447  0.0884  0.2538
  589MOL0     C81208   2.711   5.110  11.033 -0.6091 -0.3310  0.0827
  589MOL0     C81209   2.694   5.037  10.936  1.2238 -0.8154 -0.0256
  589MOL0     C81210   3.382   5.080  10.988 -0.5688 -0.5206 -0.5342
  589MOL0     C81211   3.511   5.095  11.055 -0.1338 -0.1658 -0.6431
  589MOL0     C81212   3.615   4.993  11.033 -0.5438 -0.0007 -0.1669
  589MOL0     H81213   3.812   5.172  11.474  0.1607 -1.6150 -0.4037
  589MOL0     H81214   4.052   5.215  11.546 -3.2666 -3.2547  0.7478
  589MOL0     H81215   4.281   5.216  11.556 -0.5732  1.0256  0.8038
  589MOL0     H81216   4.245   5.381  11.528 -0.2920 -1.2384  1.2990
  589MOL0     H81217   4.475   5.256  11.382  1.5292 -3.1871  4.9544
  589MOL0     H81218   4.454   5.427  11.410 -0.8832 -0.1765 -2.1680
  589MOL0     H81219   4.448   5.354  11.661  1.7105  0.1668  1.1389
  589MOL0     H81220   4.522   5.198  11.591  0.2342  0.4130 -0.9471
  589MOL0     H81221   4.709   5.348  11.491  1.8115  1.1147  1.2810
  589MOL0     H81222   4.628   5.481  11.546 -4.7641 -0.1340 -0.0970
  589MOL0     H81223   4.653   5.388  11.787  1.0603 -0.4615  0.0846
  589MOL0     H81224   4.810   5.410  11.700  1.8862 -2.6374 -1.7284
  589MOL0     H81225   4.675   5.145  11.720  0.4966  0.5086 -1.7656
  589MOL0     H81226   4.839   5.178  11.666  1.0806  2.1506  0.6487
  589MOL0     H81227   4.851   5.089  11.898 -0.4888  0.1451  0.7028
  589MOL0     H81228   4.725   5.191  11.949 -1.6797  0.8726 -2.0830
  589MOL0     H81229   4.871   5.387  11.920 -1.1312 -0.7629 -0.9118
  589MOL0     H81230   4.912   5.266  12.034 -1.2798 -0.7458  0.6864
  589MOL0     H81231   5.099   5.065  11.898  0.7166  1.3755  0.8304
  589MOL0     H81232   5.356   5.186  11.609 -0.7728 -1.6411 -1.3537
  589MOL0     H81233   5.330   5.028  11.663  0.4582 -0.0180  0.7135
  589MOL0     H81234   5.495   5.237  11.779 -1.9393  0.7509  1.6936
  589MOL0     H81235   5.429   5.124  11.901  1.8753 -0.0846  1.1745
  589MOL0     H81236   5.520   4.934  11.723  3.1769 -0.7439 -1.2463
  589MOL0     H81237   5.612   5.059  11.656  1.7158  2.9899  0.0378
  589MOL0     H81238   5.755   4.970  11.797 -1.1061 -1.4282 -1.1032
  589MOL0     H81239   5.708   5.110  11.895  1.6821 -0.1469 -1.6197
  589MOL0     H81240   5.534   4.803  12.137 -0.1578  0.1927  0.6217
  589MOL0     H81241   5.511   4.708  12.328 -0.3401 -0.0541 -0.7770
  589MOL0     H81242   5.560   4.823  12.458 -0.4798 -0.8577  0.2452
  589MOL0     H81243   5.641   4.665  12.428  0.0182  0.1920  0.1680
  589MOL0     H81244   5.993   4.771  12.712  0.3551 -0.4738  0.0671
  589MOL0     H81245   6.161   4.802  12.874  0.8831 -0.5286 -2.0290
  589MOL0     H81246   6.368   4.748  12.898 -2.7451  1.0348  0.3709
  589MOL0     H81247   6.513   4.816  12.966  0.0771  0.4812 -2.1087
  589MOL0     H81248   6.370   4.986  13.099  1.0150 -1.0266  0.4305
  589MOL0     H81249   6.225   4.883  13.068 -1.1800  1.3183  0.5789
  589MOL0     H81250   6.347   4.836  13.287 -0.3361  0.5470 -0.1278
  589MOL0     H81251   6.500   4.789  13.203 -0.0384 -2.9607  2.4909
  589MOL0     H81252   6.397   4.577  13.208 -0.2488  0.4861 -0.3952
  589MOL0     H81253   6.317   4.631  13.068 -0.3895 -2.1697  0.5444
  589MOL0     H81254   6.212   4.638  13.349 -0.6849  0.6546  0.0649
  589MOL0     H81255   6.145   4.733  13.202 -0.3345 -1.4879 -3.7463
  589MOL0     H81256   6.125   4.524  13.078  0.7437 -0.8102  0.0412
  589MOL0     H81257   6.019   4.533  13.213 -0.1113  0.9168 -0.6119
  589MOL0     H81258   6.259   4.369  13.145 -0.1341  0.4287  0.7676
  589MOL0     H81259   6.103   4.311  13.194  0.6747  0.1433 -2.6889
  589MOL0     H81260   6.160   4.394  13.423 -0.9466 -0.5295  0.2938
  589MOL0     H81261   6.327   4.428  13.361 -0.3264  0.9257 -2.6208
  589MOL0     H81262   6.386   5.075  12.638  1.8348 -1.9414 -0.1744
  589MOL0     H81263   6.193   5.081  12.474 -1.9228  3.6604  1.9306
  589MOL0     H81264   6.003   4.938  12.218  0.0965 -1.9726 -1.8197
  589MOL0     H81265   5.896   4.987  12.020  0.4385  3.6027  1.8791
  589MOL0     H81266   4.157   5.212  11.127  0.1389  0.1957 -0.8028
  589MOL0     H81267   3.928   5.127  11.081 -0.8008 -2.2517  0.6869
  589MOL0     H81268   3.426   5.377  11.224  0.6559 -0.2057  0.8074
  589MOL0     H81269   3.215   5.343  11.114 -1.5548 -0.2075 -0.0322
  589MOL0     H81270   2.983   5.049  10.953  0.5836  0.3090  0.0976
  589MOL0     H81271   3.117   4.979  11.049  0.4909 -0.6949 -1.6090
  589MOL0     H81272   3.083   5.147  11.212  1.4137 -0.5058 -1.3966
  589MOL0     H81273   2.951   5.037  11.170 -1.0701  1.6538  0.4112
  589MOL0     H81274   2.918   5.321  11.203  0.7035  1.0663 -0.9559
  589MOL0     H81275   2.930   5.291  11.032 -0.0823  0.0870 -0.1997
  589MOL0     H81276   2.680   5.281  11.145  0.2399 -0.1447  2.2851
  589MOL0     H81277   2.728   5.146  11.237 -3.4212 -2.6729 -1.9498
  589MOL0     H81278   2.681   4.974  10.850 -0.4911 -2.0840  1.1138
  589MOL0     H81279   3.371   4.983  10.941  0.5867 -0.9365  0.0284
  589MOL0     H81280   3.595   4.923  10.952  0.8112  0.0116 -0.5276
  589MOL0     H81281   3.709   5.044  11.009 -1.1725  0.5250 -1.6332
  589MOL0     H81282   3.632   4.937  11.125  0.3945  1.6834  0.7244
  590MOL0     O81283   9.523   6.631   8.687  0.1091 -0.1319  0.4908
  590MOL0     C81284   9.427   6.695   8.731  0.1688  0.9553 -0.2728
  590MOL0     O81285   9.411   6.833   8.712 -0.4002  0.0867 -0.8227
  590MOL0     C81286   9.470   6.903   8.606 -0.0778  0.2600 -0.4874
  590MOL0     C81287   9.503   6.844   8.485  0.2065 -0.3960 -0.6881
  590MOL0     C81288   9.555   6.913   8.377  0.0190  1.1211  0.4377
  590MOL0     C81289   9.582   7.044   8.388 -0.2104 -0.0458 -0.5580
  590MOL0     O81290   9.611   7.134   8.294  0.1939 -0.4266 -0.6330
  590MOL0     C81291   9.657   7.084   8.167 -0.6371 -0.6141  0.0010
  590MOL0     C81292   9.719   7.200   8.084  0.0437  0.3806  0.6919
  590MOL0     C81293   9.858   7.245   8.144  0.2326 -0.8507  0.4639
  590MOL0     C81294   9.982   7.159   8.102  0.7645 -0.7130 -0.1718
  590MOL0     C81295  10.098   7.193   8.197 -0.6526  0.1362  0.5797
  590MOL0     C81296  10.165   7.325   8.177 -0.3753 -0.2085  0.3173
  590MOL0     C81297  10.293   7.337   8.263 -0.5375  0.3547  0.0699
  590MOL0     C81298  10.316   7.479   8.293 -0.0474 -0.6348  0.1076
  590MOL0     N81299  10.441   7.494   8.366  0.4919 -0.2401 -0.6279
  590MOL0     C81300  10.474   7.434   8.487 -0.1258  0.3691  0.3089
  590MOL0     C81301  10.600   7.469   8.519 -0.2399 -0.1408 -0.3313
  590MOL0     C81302  10.678   7.425   8.639  0.2210  0.9138  0.0290
  590MOL0     C81303  10.766   7.306   8.611 -0.3509 -0.5976 -0.5149
  590MOL0     C81304  10.846   7.253   8.728 -0.4167  0.4250  0.6681
  590MOL0     C81305  10.919   7.359   8.812  0.6976 -0.4804  0.7486
  590MOL0     O81306  11.016   7.424   8.727  0.4360 -0.5239  0.8388
  590MOL0     C81307  11.153   7.412   8.756  0.0047 -0.0243  0.6321
  590MOL0     C81308  11.213   7.301   8.817  0.4324 -0.3381 -0.2247
  590MOL0     C81309  11.343   7.299   8.858  0.0180  0.3705  0.1469
  590MOL0     C81310  11.393   7.173   8.934 -0.2713 -0.2748  0.3442
  590MOL0     C81311  11.427   7.406   8.823  0.3199 -0.2532  0.2599
  590MOL0     C81312  11.578   7.408   8.850  0.2597  0.3876  0.2808
  590MOL0     O81313  11.636   7.528   8.880  0.5865 -0.0167  0.3320
  590MOL0     C81314  11.777   7.521   8.873  0.0707 -0.4005 -1.2191
  590MOL0     C81315  11.841   7.545   8.995  0.2075 -0.9173 -0.2725
  590MOL0     C81316  11.977   7.534   8.997  0.4232 -0.3900 -0.5446
  590MOL0     C81317  12.057   7.503   8.886  0.4385 -0.5121  0.4813
  590MOL0     O81318  12.191   7.494   8.885  0.4613  0.5786 -0.1994
  590MOL0     C81319  12.261   7.540   9.002 -0.5561 -0.3126  0.0595
  590MOL0     C81320  12.418   7.541   8.995 -0.3348  0.0350 -0.4753
  590MOL0     C81321  12.477   7.627   8.886  0.7008 -0.0041 -0.4084
  590MOL0     C81322  12.625   7.582   8.847  0.1112  0.7131 -0.6401
  590MOL0     C81323  12.697   7.699   8.794  0.0951  0.7238  0.4999
  590MOL0     C81324  12.850   7.659   8.766  1.1886  0.0504 -0.6441
  590MOL0     C81325  12.938   7.781   8.754  0.5781 -0.5661  0.1472
  590MOL0     C81326  13.085   7.736   8.740 -1.1247  0.6445 -0.0145
  590MOL0    Cl81327  13.149   7.671   8.898 -0.0888  0.3412 -0.0777
  590MOL0     C81328  11.986   7.495   8.763  0.2891  0.0248 -0.1350
  590MOL0     C81329  11.850   7.510   8.757  0.3290 -0.1858  1.0312
  590MOL0     O81330  11.640   7.303   8.838 -0.1795 -0.1399 -0.0189
  590MOL0     C81331  11.367   7.523   8.768 -0.3101 -0.4168  0.3210
  590MOL0     C81332  11.233   7.529   8.737 -0.3215 -0.1263 -0.4351
  590MOL0     N81333  10.645   7.539   8.408  0.5105 -0.6198  0.2854
  590MOL0     N81334  10.549   7.552   8.319  0.0926 -0.0778 -0.6182
  590MOL0     C81335   9.556   7.108   8.514 -0.9932 -0.2463 -0.1204
  590MOL0     C81336   9.493   7.038   8.618 -0.2758  0.0212 -0.3108
  590MOL0     C81337   9.336   6.619   8.810  0.1883 -0.4812 -0.2367
  590MOL0     C81338   9.359   6.611   8.951  0.3272  0.2042 -0.6197
  590MOL0     C81339   9.267   6.556   9.033  0.1053 -0.2426 -0.1421
  590MOL0     C81340   9.152   6.501   8.982  0.2888 -0.2276 -0.7019
  590MOL0     O81341   9.057   6.439   9.066 -0.0430 -0.3505 -0.0522
  590MOL0     C81342   8.922   6.498   9.062 -0.2391  0.1227  0.2937
  590MOL0     C81343   8.837   6.423   9.177  0.1117 -0.4932  0.3401
  590MOL0     C81344   8.751   6.321   9.112  0.9829  0.3849  0.3958
  590MOL0     C81345   8.688   6.206   9.195  0.5227  0.5371 -0.2624
  590MOL0     C81346   8.789   6.118   9.260 -0.1201 -0.5273 -0.9504
  590MOL0     C81347   8.858   6.040   9.323 -0.1716 -0.3659  0.2693
  590MOL0     C81348   9.127   6.513   8.843 -0.1178 -1.1029  0.6609
  590MOL0     C81349   9.214   6.573   8.758 -0.2374 -0.4037 -0.4389
  590MOL0     C81350   9.183   6.576   8.602 -0.5172 -0.6632 -1.4281
  590MOL0     H81351   9.491   6.737   8.473 -2.4891 -0.7890  3.4484
  590MOL0     H81352   9.573   6.857   8.285 -0.1383  1.3276  0.2788
  590MOL0     H81353   9.567   7.049   8.115 -0.8422  0.2183 -0.2278
  590MOL0     H81354   9.728   7.006   8.195  0.4704  0.5394  0.4784
  590MOL0     H81355   9.729   7.161   7.983 -0.6562  2.1622 -0.1066
  590MOL0     H81356   9.651   7.285   8.076 -0.0977  0.0582 -3.2950
  590MOL0     H81357   9.877   7.345   8.105  1.5248 -1.7277 -1.3683
  590MOL0     H81358   9.844   7.245   8.252 -0.4325  2.1323  0.4571
  590MOL0     H81359   9.955   7.054   8.116 -0.9200 -0.2038  0.7832
  590MOL0     H81360  10.007   7.180   7.997  1.4463  0.4570  0.2052
  590MOL0     H81361  10.178   7.123   8.173 -0.7564  0.0158  0.5843
  590MOL0     H81362  10.068   7.191   8.302 -2.2782 -3.1026  0.1900
  590MOL0     H81363  10.197   7.343   8.074  0.0178  0.2991  0.5239
  590MOL0     H81364  10.103   7.409   8.211  1.1605  1.0298  0.1807
  590MOL0     H81365  10.382   7.297   8.214  0.6989  1.9670  0.8947
  590MOL0     H81366  10.284   7.283   8.358  1.1071  0.3871  0.2669
  590MOL0     H81367  10.330   7.533   8.199  0.1232 -1.1632 -0.1780
  590MOL0     H81368  10.241   7.529   8.355  2.2232 -0.2532  2.7889
  590MOL0     H81369  10.415   7.368   8.550 -0.5936 -0.0797 -0.5853
  590MOL0     H81370  10.614   7.401   8.725 -1.0331 -1.3942 -1.4566
  590MOL0     H81371  10.739   7.514   8.657 -0.7571  1.5284  0.3705
  590MOL0     H81372  10.705   7.225   8.570  0.6964 -2.1863  0.9147
  590MOL0     H81373  10.836   7.347   8.537  0.3520  2.0390  1.4807
  590MOL0     H81374  10.782   7.192   8.792  2.8321 -2.5662  1.3745
  590MOL0     H81375  10.916   7.183   8.681 -2.4512  0.1651 -2.2867
  590MOL0     H81376  10.851   7.437   8.846 -1.1268 -1.6413 -0.0849
  590MOL0     H81377  10.957   7.315   8.905  1.4299  1.3956  1.3863
  590MOL0     H81378  11.162   7.205   8.822  0.8875 -0.5430  1.0316
  590MOL0     H81379  11.314   7.100   8.955  0.8867 -1.1585  1.8753
  590MOL0     H81380  11.427   7.214   9.029 -1.3492  3.9398 -0.8677
  590MOL0     H81381  11.472   7.129   8.871 -2.4547  0.4967 -3.2391
  590MOL0     H81382  11.782   7.556   9.086  0.3657 -0.8083 -0.1811
  590MOL0     H81383  12.018   7.524   9.097  1.7820 -2.9814 -1.2649
  590MOL0     H81384  12.217   7.637   9.025  0.5410  0.7318 -2.0294
  590MOL0     H81385  12.245   7.482   9.093  0.0004 -1.6064 -0.6292
  590MOL0     H81386  12.454   7.581   9.090 -1.1666 -1.5668  0.5420
  590MOL0     H81387  12.443   7.438   8.970  1.9748 -0.0460  1.7980
  590MOL0     H81388  12.473   7.734   8.909  1.2303 -0.2773  1.1005
  590MOL0     H81389  12.407   7.608   8.804  0.5911 -1.8625  0.0752
  590MOL0     H81390  12.621   7.503   8.772 -3.1751  0.1000 -0.0100
  590MOL0     H81391  12.680   7.534   8.928  0.6012  1.2268 -0.6618
  590MOL0     H81392  12.642   7.734   8.706 -3.3635 -2.7651  1.0045
  590MOL0     H81393  12.703   7.786   8.860  5.7037  2.7801 -2.0188
  590MOL0     H81394  12.866   7.593   8.681  0.2595  1.4754 -1.9827
  590MOL0     H81395  12.891   7.602   8.850 -1.7684 -3.1584 -1.1786
  590MOL0     H81396  12.929   7.845   8.842  0.8511  0.3306 -0.4635
  590MOL0     H81397  12.904   7.834   8.664  1.3984 -2.2042 -1.1927
  590MOL0     H81398  13.139   7.828   8.715 -0.9254  0.4410 -0.3214
  590MOL0     H81399  13.091   7.661   8.661  0.3635  0.0584  0.6279
  590MOL0     H81400  12.039   7.491   8.668  1.8070  4.5062  0.3081
  590MOL0     H81401  11.809   7.504   8.656  0.7601  0.4495  0.8143
  590MOL0     H81402  11.426   7.613   8.760 -0.9546  0.1676  1.6666
  590MOL0     H81403  11.189   7.615   8.688 -1.4930 -0.7158 -0.4753
  590MOL0     H81404   9.577   7.213   8.527  2.6738 -0.8274 -0.4595
  590MOL0     H81405   9.493   7.096   8.709 -1.2662 -0.8372  0.2506
  590MOL0     H81406   9.452   6.639   9.001  0.3377 -1.8946  0.6571
  590MOL0     H81407   9.276   6.555   9.141  0.2326  0.8086 -0.1362
  590MOL0     H81408   8.925   6.606   9.079 -0.2055 -0.0626  1.5703
  590MOL0     H81409   8.880   6.479   8.963 -1.0451 -2.3527  1.0373
  590MOL0     H81410   8.757   6.488   9.214 -0.7217 -0.5250 -1.3088
  590MOL0     H81411   8.898   6.382   9.258  0.6521  0.6526  0.5351
  590MOL0     H81412   8.667   6.366   9.058  0.7918 -0.0908  0.2916
  590MOL0     H81413   8.812   6.274   9.035  0.4136 -2.2514  1.4534
  590MOL0     H81414   8.622   6.140   9.139 -0.6596  0.3773  1.2521
  590MOL0     H81415   8.627   6.251   9.274  0.5138 -1.9639  1.2312
  590MOL0     H81416   8.930   5.982   9.378  0.7173  1.6090  1.3362
  590MOL0     H81417   9.031   6.480   8.806 -0.5410  0.3551  0.3909
  590MOL0     H81418   9.271   6.610   8.546  0.8076 -0.9994  0.3521
  590MOL0     H81419   9.138   6.481   8.570 -0.7859 -1.1097  0.2051
  590MOL0     H81420   9.104   6.651   8.605  1.2069  1.2199  0.7375
  591MOL0     O81421   4.542   7.285   5.522 -0.5093 -0.1116  0.9949
  591MOL0     C81422   4.433   7.275   5.468  0.0462 -0.2702 -0.9161
  591MOL0     O81423   4.404   7.290   5.342 -0.6690 -0.0485  1.3064
  591MOL0     C81424   4.488   7.279   5.233 -0.0969 -0.2106 -0.2085
  591MOL0     C81425   4.608   7.206   5.233  0.0147  0.2555 -0.2636
  591MOL0     C81426   4.678   7.192   5.110  0.0264  0.1258 -0.5908
  591MOL0     C81427   4.635   7.253   4.994 -0.5407  0.1608  0.2179
  591MOL0     O81428   4.718   7.226   4.886 -0.1086  0.7457 -0.3961
  591MOL0     C81429   4.707   7.297   4.772 -1.0276 -0.1558 -0.3126
  591MOL0     C81430   4.849   7.287   4.711 -0.5476  0.8230  0.6189
  591MOL0     C81431   4.872   7.378   4.599 -0.5579  0.5687  0.3251
  591MOL0     C81432   4.947   7.504   4.627  0.8562  0.3475  0.0598
  591MOL0     C81433   4.898   7.614   4.532 -0.3815 -0.4648  0.8894
  591MOL0     C81434   4.973   7.748   4.554 -0.3103  0.5184  0.2049
  591MOL0     C81435   5.116   7.735   4.514 -0.3021 -0.2174 -0.1554
  591MOL0     C81436   5.202   7.842   4.585 -1.0587 -0.0689  0.3491
  591MOL0     N81437   5.344   7.823   4.567  0.0535  0.5288  0.2236
  591MOL0     C81438   5.409   7.739   4.653 -0.1703 -0.4338  0.4332
  591MOL0     C81439   5.533   7.723   4.593  0.6818  0.0393  0.0851
  591MOL0     C81440   5.650   7.643   4.649 -0.5550 -0.0264  0.4002
  591MOL0     C81441   5.776   7.739   4.636 -0.3469  0.3938 -0.4201
  591MOL0     C81442   5.852   7.703   4.513 -0.8932 -0.5652  0.1335
  591MOL0     C81443   5.999   7.762   4.546 -0.1806  0.2251 -0.2718
  591MOL0     O81444   6.085   7.719   4.439 -0.3576  0.0512  0.2296
  591MOL0     C81445   6.209   7.779   4.433 -0.1280  0.7271  0.4092
  591MOL0     C81446   6.283   7.851   4.527  0.1485  0.7073  0.3724
  591MOL0     C81447   6.421   7.877   4.511 -1.1269 -0.1548  0.0591
  591MOL0     C81448   6.490   7.947   4.632  0.1884 -0.2016  0.7801
  591MOL0     C81449   6.470   7.859   4.379  0.2382  0.1732  0.5807
  591MOL0     C81450   6.611   7.890   4.345  0.5098 -0.5270 -0.3751
  591MOL0     O81451   6.646   8.021   4.346 -0.1609 -0.0276  0.6812
  591MOL0     C81452   6.776   8.056   4.319 -0.1236  0.7866 -0.5564
  591MOL0     C81453   6.868   8.010   4.416 -0.3655  0.2764  0.1369
  591MOL0     C81454   7.007   8.026   4.392 -0.5759 -0.4138  0.4747
  591MOL0     C81455   7.049   8.088   4.271  0.1340  0.2707 -0.5286
  591MOL0     O81456   7.187   8.107   4.261  0.1404 -0.1934  0.0690
  591MOL0     C81457   7.233   8.136   4.129  0.2107  0.4063  0.1410
  591MOL0     C81458   7.382   8.158   4.139 -0.0753 -0.2181  0.1098
  591MOL0     C81459   7.455   8.023   4.144  0.5571 -0.3850 -0.9785
  591MOL0     C81460   7.600   8.056   4.159  0.5427  0.4429  0.5908
  591MOL0     C81461   7.679   7.933   4.126  0.6204  0.5131  0.4299
  591MOL0     C81462   7.822   7.958   4.101 -0.4141  0.7903  0.9284
  591MOL0     C81463   7.889   7.823   4.060 -0.3733 -0.0805 -0.0037
  591MOL0     C81464   8.039   7.823   4.061  0.0131 -0.2511 -0.7183
  591MOL0    Cl81465   8.095   7.647   4.065  0.4721 -0.2366 -0.1865
  591MOL0     C81466   6.950   8.128   4.174 -0.5512 -0.3627  0.2618
  591MOL0     C81467   6.816   8.108   4.200  0.0491  0.2958  0.5754
  591MOL0     O81468   6.689   7.801   4.302  0.0943 -0.3089  0.6586
  591MOL0     C81469   6.391   7.800   4.280 -0.0735 -0.7389 -0.8093
  591MOL0     C81470   6.265   7.764   4.311  0.3202  0.2728  0.1397
  591MOL0     N81471   5.539   7.802   4.475  0.0788  0.5745  0.0502
  591MOL0     N81472   5.422   7.857   4.465 -0.3555  0.8368  0.0936
  591MOL0     C81473   4.514   7.321   4.992 -0.0373  0.1113 -0.9842
  591MOL0     C81474   4.445   7.341   5.110 -0.2442  0.6694 -0.8863
  591MOL0     C81475   4.308   7.267   5.559  0.5206 -0.0731 -0.5633
  591MOL0     C81476   4.193   7.206   5.498 -0.0813  0.2351  0.1503
  591MOL0     C81477   4.071   7.207   5.558  0.1759  0.2848  0.1248
  591MOL0     C81478   4.070   7.250   5.694  0.0507 -0.7049 -0.1099
  591MOL0     O81479   3.961   7.257   5.771  0.4620  0.0088  0.0472
  591MOL0     C81480   3.826   7.211   5.733  0.1889 -0.0493  0.5076
  591MOL0     C81481   3.742   7.199   5.863  0.5364  0.5128 -0.3792
  591MOL0     C81482   3.786   7.069   5.941  1.0918 -0.6262 -0.1466
  591MOL0     C81483   3.678   7.026   6.040  1.0877  0.2946  0.3897
  591MOL0     C81484   3.728   6.914   6.112 -0.7235 -0.4415 -0.9802
  591MOL0     C81485   3.772   6.836   6.192 -0.5921 -0.4017  0.5101
  591MOL0     C81486   4.178   7.306   5.754  0.2317 -0.1164 -1.0482
  591MOL0     C81487   4.299   7.326   5.690 -0.1987 -0.1941 -0.6847
  591MOL0     C81488   4.423   7.388   5.759 -0.4029 -0.5289  0.4289
  591MOL0     H81489   4.653   7.152   5.316 -1.2794 -2.4531 -1.2041
  591MOL0     H81490   4.775   7.144   5.113  0.1239  0.3397 -0.3413
  591MOL0     H81491   4.696   7.403   4.794  1.0936  0.1183 -0.3329
  591MOL0     H81492   4.631   7.259   4.703 -1.7542  1.2325 -0.3032
  591MOL0     H81493   4.933   7.297   4.780 -0.4794 -0.4459  0.7478
  591MOL0     H81494   4.844   7.184   4.675  0.0478  1.4053 -1.2166
  591MOL0     H81495   4.924   7.326   4.518 -1.5447 -1.0090  0.6633
  591MOL0     H81496   4.771   7.404   4.566 -1.2485 -0.4311  1.5338
  591MOL0     H81497   4.911   7.537   4.725  1.2913  0.1942  0.2722
  591MOL0     H81498   5.054   7.487   4.637  0.6707 -1.0332 -0.0297
  591MOL0     H81499   4.791   7.630   4.548 -0.6526 -0.2999 -0.8792
  591MOL0     H81500   4.907   7.590   4.425 -0.7366  1.7052  0.3201
  591MOL0     H81501   4.934   7.823   4.484  0.9562 -1.4434 -2.8323
  591MOL0     H81502   4.957   7.774   4.658 -0.7877  0.0830  0.2418
  591MOL0     H81503   5.117   7.745   4.405 -3.0320 -1.6370 -0.3928
  591MOL0     H81504   5.158   7.639   4.544 -3.6720 -1.4058  1.1837
  591MOL0     H81505   5.174   7.936   4.538 -0.6457 -0.1684 -0.1023
  591MOL0     H81506   5.177   7.854   4.691  0.4272  2.6878  0.4792
  591MOL0     H81507   5.371   7.702   4.747 -0.9447  0.4157  0.4625
  591MOL0     H81508   5.669   7.545   4.604 -2.3883  0.0610 -0.6384
  591MOL0     H81509   5.656   7.620   4.756  2.1626  0.4865  0.4347
  591MOL0     H81510   5.759   7.847   4.634  2.6322  1.0216  1.3176
  591MOL0     H81511   5.837   7.721   4.725  0.7927  2.8894 -0.5982
  591MOL0     H81512   5.852   7.594   4.503  0.7541 -0.4999 -1.0014
  591MOL0     H81513   5.802   7.762   4.436 -0.6791  0.3179  0.6557
  591MOL0     H81514   5.997   7.871   4.562 -0.4290  0.0092  1.3552
  591MOL0     H81515   6.041   7.720   4.638 -0.3979  0.8537  0.1246
  591MOL0     H81516   6.236   7.873   4.622  0.4971 -0.0441  0.7196
  591MOL0     H81517   6.467   8.054   4.628 -2.0189 -0.6073  1.2993
  591MOL0     H81518   6.598   7.946   4.621 -0.0086 -0.8430 -1.4996
  591MOL0     H81519   6.461   7.897   4.726  0.8687 -2.1335  0.0140
  591MOL0     H81520   6.823   7.964   4.504  1.5004 -3.1785 -0.5162
  591MOL0     H81521   7.062   7.996   4.480 -0.2984 -1.1930  0.0484
  591MOL0     H81522   7.205   8.056   4.060  0.3891  0.4129  0.0597
  591MOL0     H81523   7.184   8.229   4.098 -1.5900 -0.5026  0.1690
  591MOL0     H81524   7.412   8.210   4.047  1.3974  1.4258  1.4359
  591MOL0     H81525   7.410   8.223   4.222  2.1301 -0.1553 -0.6234
  591MOL0     H81526   7.427   7.964   4.057 -0.1080  1.2946 -1.9404
  591MOL0     H81527   7.419   7.965   4.230 -0.6703 -0.7141 -1.6823
  591MOL0     H81528   7.621   8.099   4.257  0.9730 -1.0284  1.1778
  591MOL0     H81529   7.631   8.141   4.097 -0.1732  0.9223  0.8810
  591MOL0     H81530   7.671   7.862   4.209  1.5643 -0.4270 -0.2451
  591MOL0     H81531   7.633   7.891   4.037 -0.2772  1.1366  0.5864
  591MOL0     H81532   7.872   8.012   4.182  0.6517  0.8419  0.2536
  591MOL0     H81533   7.834   8.025   4.015 -2.3581 -2.0003 -1.7336
  591MOL0     H81534   7.839   7.794   3.967 -0.7173 -1.6838  0.6506
  591MOL0     H81535   7.871   7.752   4.141  0.8885 -0.1089  0.2845
  591MOL0     H81536   8.061   7.871   4.157 -0.6520  1.7481 -1.5315
  591MOL0     H81537   8.091   7.877   3.982 -1.7005  0.4607 -1.3873
  591MOL0     H81538   6.964   8.181   4.081 -2.3837 -1.4723 -0.7033
  591MOL0     H81539   6.744   8.120   4.119 -0.4662 -0.7288  0.8667
  591MOL0     H81540   6.436   7.758   4.191 -0.0779  2.1925 -2.3295
  591MOL0     H81541   6.217   7.720   4.224  3.0311 -3.0036  0.1252
  591MOL0     H81542   4.473   7.364   4.901 -2.8414 -0.8220 -0.2458
  591MOL0     H81543   4.362   7.412   5.112  0.2555  1.2386  0.2030
  591MOL0     H81544   4.203   7.166   5.397  1.5088 -2.0275  1.1253
  591MOL0     H81545   3.979   7.171   5.514 -1.7694  2.7869  1.8360
  591MOL0     H81546   3.778   7.278   5.662  2.2187  0.7342 -0.1824
  591MOL0     H81547   3.838   7.115   5.684 -1.0521 -0.2495  0.5577
  591MOL0     H81548   3.635   7.193   5.842  0.8576  0.4997 -2.1471
  591MOL0     H81549   3.760   7.287   5.925  4.0560 -0.9474  0.9568
  591MOL0     H81550   3.800   6.989   5.867  0.7188 -0.9280  0.1022
  591MOL0     H81551   3.887   7.076   5.982  0.7766 -0.4985  0.6171
  591MOL0     H81552   3.582   7.002   5.992  2.4526 -1.5476 -1.6282
  591MOL0     H81553   3.675   7.111   6.108  1.9781 -0.1997  1.0674
  591MOL0     H81554   3.798   6.770   6.272 -0.1177  1.0103  1.5679
  591MOL0     H81555   4.189   7.326   5.861  0.8991 -2.3765 -0.6330
  591MOL0     H81556   4.394   7.448   5.847  2.0814 -1.2152  1.8043
  591MOL0     H81557   4.497   7.315   5.793  1.4257  1.3933  0.7743
  591MOL0     H81558   4.486   7.449   5.695 -1.0749  2.5534  2.4520
  592MOL0     O81559   6.826   6.483   0.737 -0.4071  0.0997  0.0068
  592MOL0     C81560   6.763   6.559   0.663 -0.1510 -1.3051  0.1388
  592MOL0     O81561   6.829   6.643   0.582  0.2678  0.8017  0.1771
  592MOL0     C81562   6.949   6.582   0.542 -0.7293  0.8403 -0.4321
  592MOL0     C81563   7.070   6.641   0.583  0.8028  0.9797  0.2353
  592MOL0     C81564   7.194   6.585   0.555  0.0083 -0.2074  0.5695
  592MOL0     C81565   7.203   6.481   0.463 -0.1626 -0.6024 -0.1376
  592MOL0     O81566   7.318   6.408   0.442  0.0178 -1.3746  0.1410
  592MOL0     C81567   7.407   6.399   0.549  0.2620 -0.5065 -0.6847
  592MOL0     C81568   7.515   6.293   0.520 -0.0633 -1.2014 -0.5727
  592MOL0     C81569   7.446   6.152   0.512 -0.3790  0.9647  0.4544
  592MOL0     C81570   7.533   6.037   0.579  0.7393  0.4757  0.7322
  592MOL0     C81571   7.468   5.897   0.569 -0.2207  0.5066 -0.7928
  592MOL0     C81572   7.531   5.796   0.667  0.1779  1.1846 -0.3823
  592MOL0     C81573   7.511   5.655   0.608 -0.2287 -0.2631 -0.2355
  592MOL0     C81574   7.627   5.554   0.629  0.4015  0.1281 -0.2540
  592MOL0     N81575   7.739   5.579   0.539 -0.0848 -0.5095  0.1837
  592MOL0     C81576   7.744   5.533   0.410  0.7337  0.7274  0.0825
  592MOL0     C81577   7.871   5.558   0.372 -0.2974  0.4806  0.2167
  592MOL0     C81578   7.921   5.492   0.237  0.3300 -0.7747  0.2944
  592MOL0     C81579   8.026   5.575   0.164  0.2014  0.0919  0.4291
  592MOL0     C81580   7.991   5.720   0.140  0.3421  0.0874  1.1876
  592MOL0     C81581   8.080   5.784   0.028  0.0054  0.3693  0.8228
  592MOL0     O81582   8.223   5.746   0.031 -0.5443  0.1125  0.0964
  592MOL0     C81583   8.310   5.805  -0.056 -1.0374  0.4643  0.0542
  592MOL0     C81584   8.286   5.914  -0.138  0.0696  0.4794 -0.1670
  592MOL0     C81585   8.375   5.974  -0.230 -0.1113 -0.1698 -0.5774
  592MOL0     C81586   8.319   6.071  -0.320  0.2015  0.3389  0.3953
  592MOL0     C81587   8.502   5.913  -0.244  0.5140 -0.1738 -0.5771
  592MOL0     C81588   8.611   5.960  -0.336 -0.0055  0.9631 -0.1838
  592MOL0     O81589   8.732   5.889  -0.322  0.4533 -0.1049  0.1117
  592MOL0     C81590   8.829   5.927  -0.408  0.3375  0.4979  0.6665
  592MOL0     C81591   8.919   6.021  -0.366  0.5978  0.3915 -0.8293
  592MOL0     C81592   9.037   6.055  -0.439  0.7725  0.0120 -0.3733
  592MOL0     C81593   9.064   5.986  -0.557 -0.3664 -0.1931 -0.3049
  592MOL0     O81594   9.183   6.012  -0.615 -1.1152 -0.2306  0.4329
  592MOL0     C81595   9.221   5.943  -0.734 -0.2287 -0.5630 -0.2670
  592MOL0     C81596   9.356   5.992  -0.777  0.2094  0.0939 -0.0150
  592MOL0     C81597   9.479   5.948  -0.700 -0.0804  0.5112 -0.7319
  592MOL0     C81598   9.511   6.037  -0.580 -0.3391  0.1171  0.0659
  592MOL0     C81599   9.656   6.030  -0.548 -0.4497 -0.0422 -0.6389
  592MOL0     C81600   9.711   6.147  -0.460  0.2276  0.6492  0.1861
  592MOL0     C81601   9.615   6.185  -0.344 -0.1153  0.4069 -0.0148
  592MOL0     C81602   9.577   6.069  -0.251 -0.1832 -0.7093  0.5235
  592MOL0    Cl81603   9.484   6.110  -0.106  0.4027  0.3320 -0.2472
  592MOL0     C81604   8.970   5.877  -0.600 -0.5372  0.3219 -0.1852
  592MOL0     C81605   8.861   5.843  -0.515  0.1924 -0.3064 -0.6125
  592MOL0     O81606   8.594   6.041  -0.420 -0.6472 -0.2763 -0.1522
  592MOL0     C81607   8.534   5.803  -0.156 -0.4349  0.3899 -0.2216
  592MOL0     C81608   8.442   5.748  -0.069  0.4317 -0.5457 -0.1181
  592MOL0     N81609   7.937   5.627   0.471 -0.0467 -0.0014  1.1525
  592MOL0     N81610   7.856   5.637   0.571  0.2282 -0.2531 -0.5465
  592MOL0     C81611   7.086   6.422   0.413  0.3700  0.1326 -0.1075
  592MOL0     C81612   6.961   6.471   0.457  0.3599 -0.5832  0.0288
  592MOL0     C81613   6.614   6.568   0.680 -0.4869 -0.2432  0.6194
  592MOL0     C81614   6.551   6.679   0.621 -0.0220  0.9683  0.2236
  592MOL0     C81615   6.418   6.698   0.644 -0.6567  0.5195  0.3747
  592MOL0     C81616   6.341   6.600   0.702 -0.5855  0.6515 -0.2578
  592MOL0     O81617   6.202   6.634   0.710 -0.3991 -0.5500 -0.2448
  592MOL0     C81618   6.136   6.601   0.831  0.1963  0.1321 -0.5489
  592MOL0     C81619   6.062   6.463   0.799 -0.6327 -0.5020  0.0475
  592MOL0     C81620   5.956   6.491   0.687 -0.6486  0.4954  0.0392
  592MOL0     C81621   5.812   6.480   0.745 -0.1019 -0.1519 -0.1893
  592MOL0     C81622   5.798   6.578   0.851 -0.3214 -0.6304  0.5714
  592MOL0     C81623   5.782   6.658   0.936  0.1424 -0.6296  0.1837
  592MOL0     C81624   6.404   6.493   0.763  0.5239 -0.5290  0.2849
  592MOL0     C81625   6.542   6.480   0.764  0.3454  0.6957 -0.8444
  592MOL0     C81626   6.602   6.363   0.829 -0.7182 -0.5549 -0.1295
  592MOL0     H81627   7.071   6.724   0.653 -1.3420  0.9056  0.4015
  592MOL0     H81628   7.275   6.639   0.603 -2.4374  2.3827  2.1561
  592MOL0     H81629   7.358   6.380   0.646 -0.7183 -2.0993 -1.4356
  592MOL0     H81630   7.466   6.491   0.551  1.2855 -1.1481  1.1364
  592MOL0     H81631   7.549   6.303   0.416 -1.1008 -1.1931 -0.9254
  592MOL0     H81632   7.596   6.302   0.593  0.7389  2.0776 -1.6912
  592MOL0     H81633   7.345   6.146   0.555 -0.2273 -0.1840  0.6861
  592MOL0     H81634   7.433   6.141   0.404 -2.3612  2.1087  0.5211
  592MOL0     H81635   7.634   6.037   0.538  1.2647 -0.9793  1.9296
  592MOL0     H81636   7.538   6.060   0.686 -0.1235 -1.9602  1.3636
  592MOL0     H81637   7.472   5.861   0.465 -1.3817  1.0788 -1.0489
  592MOL0     H81638   7.361   5.911   0.590 -0.6462 -0.7500 -1.9502
  592MOL0     H81639   7.636   5.820   0.688  0.3372 -0.2862  0.6382
  592MOL0     H81640   7.481   5.801   0.765 -0.8794  0.2944 -0.8535
  592MOL0     H81641   7.482   5.657   0.502 -0.7407 -1.4034 -0.1291
  592MOL0     H81642   7.428   5.608   0.661  0.0078  0.2293  0.5825
  592MOL0     H81643   7.656   5.555   0.735  0.0781  2.1791 -0.1264
  592MOL0     H81644   7.600   5.452   0.600 -0.5462  0.8294 -1.9983
  592MOL0     H81645   7.671   5.475   0.354 -2.1177  0.7293  3.4066
  592MOL0     H81646   7.840   5.485   0.164  0.4217 -1.3364  0.2470
  592MOL0     H81647   7.961   5.394   0.263  0.9477 -0.3886  0.8474
  592MOL0     H81648   8.118   5.559   0.220  0.6422  1.3225  0.0984
  592MOL0     H81649   8.051   5.530   0.068  0.2752  1.0354 -0.0026
  592MOL0     H81650   7.887   5.734   0.108 -0.0456 -0.9989  1.9546
  592MOL0     H81651   8.008   5.758   0.241 -0.5496  1.7678  0.7554
  592MOL0     H81652   8.040   5.756  -0.070 -0.7728  0.1679  1.1920
  592MOL0     H81653   8.079   5.893   0.041 -0.8205  0.2258  2.2384
  592MOL0     H81654   8.191   5.967  -0.137 -1.8583 -2.5305 -2.8219
  592MOL0     H81655   8.363   6.167  -0.292  3.9965 -0.7115 -1.2413
  592MOL0     H81656   8.210   6.070  -0.325  0.1668 -0.6953  1.1017
  592MOL0     H81657   8.351   6.042  -0.421 -1.3827  2.0837 -0.6736
  592MOL0     H81658   8.895   6.055  -0.266 -1.3147 -0.2946 -1.0023
  592MOL0     H81659   9.115   6.120  -0.400  2.1600 -1.7635 -0.0535
  592MOL0     H81660   9.222   5.836  -0.712 -1.7948 -0.4359  0.5688
  592MOL0     H81661   9.146   5.961  -0.812 -0.8094  2.3375  0.8715
  592MOL0     H81662   9.372   5.946  -0.875  0.6014 -0.9060  0.5128
  592MOL0     H81663   9.361   6.101  -0.785  0.0101  0.4171  3.1375
  592MOL0     H81664   9.569   5.963  -0.761  0.6056  0.1521  0.1594
  592MOL0     H81665   9.478   5.843  -0.668  1.5146  1.2924  2.3736
  592MOL0     H81666   9.436   6.013  -0.504  0.7607 -0.5234  0.9711
  592MOL0     H81667   9.494   6.138  -0.618  0.2442  0.2842  0.2342
  592MOL0     H81668   9.679   5.936  -0.496 -0.9861  0.0727 -0.1944
  592MOL0     H81669   9.724   6.036  -0.634  0.0140  1.4579 -0.1902
  592MOL0     H81670   9.737   6.237  -0.518  0.4280 -0.3490 -1.3496
  592MOL0     H81671   9.803   6.109  -0.414  0.3741 -0.3539 -0.9043
  592MOL0     H81672   9.518   6.227  -0.373  0.1669  1.4179  0.4635
  592MOL0     H81673   9.660   6.274  -0.299 -0.3258  0.4628  0.0840
  592MOL0     H81674   9.669   6.024  -0.212 -0.7407 -0.5533  2.1301
  592MOL0     H81675   9.525   5.989  -0.303 -0.1657 -0.8439  0.7100
  592MOL0     H81676   8.996   5.803  -0.675  0.6976  0.2824  0.2595
  592MOL0     H81677   8.794   5.761  -0.535 -1.5259  0.8695  0.1185
  592MOL0     H81678   8.630   5.753  -0.159 -1.0348 -0.7646 -0.8376
  592MOL0     H81679   8.459   5.676   0.011 -0.5384 -1.1027 -0.4014
  592MOL0     H81680   7.098   6.330   0.357  1.6722 -0.1344  0.5612
  592MOL0     H81681   6.864   6.441   0.418 -0.2139  1.5117 -0.2571
  592MOL0     H81682   6.609   6.753   0.566  1.0452 -0.6167 -0.8811
  592MOL0     H81683   6.380   6.790   0.600  1.7738  0.7608 -1.4640
  592MOL0     H81684   6.204   6.593   0.916  0.3414  0.1675 -0.6611
  592MOL0     H81685   6.067   6.681   0.857 -0.0223 -0.2270  0.0068
  592MOL0     H81686   6.030   6.408   0.887 -1.0860 -0.2661  0.0338
  592MOL0     H81687   6.134   6.395   0.752 -0.8047  0.2327 -1.3300
  592MOL0     H81688   5.964   6.587   0.635  0.8909  0.7847  0.7575
  592MOL0     H81689   5.980   6.416   0.611  2.4847 -0.7946  2.1027
  592MOL0     H81690   5.789   6.381   0.786 -2.8319  1.3433  2.2927
  592MOL0     H81691   5.737   6.495   0.666  2.7032 -0.8851 -3.2260
  592MOL0     H81692   5.773   6.737   1.009  2.6726  0.4667 -0.5554
  592MOL0     H81693   6.344   6.427   0.824 -0.5034 -0.4089 -0.5728
  592MOL0     H81694   6.664   6.304   0.762 -0.1990  1.6533 -1.7106
  592MOL0     H81695   6.644   6.404   0.921 -3.8095 -1.8732  2.0481
  592MOL0     H81696   6.518   6.299   0.859 -3.2571  2.1827 -0.9097
  593MOL0     O81697   9.214   7.150  10.539  0.5062 -0.2020 -0.5030
  593MOL0     C81698   9.121   7.205  10.597 -0.0837 -0.7930 -0.6125
  593MOL0     O81699   9.132   7.248  10.719 -0.1745 -0.2448  0.1907
  593MOL0     C81700   9.259   7.248  10.782 -0.1148  0.4945 -0.2464
  593MOL0     C81701   9.372   7.309  10.737  0.6037  0.5184  0.1107
  593MOL0     C81702   9.494   7.288  10.797 -0.7681  0.0825 -0.5366
  593MOL0     C81703   9.501   7.218  10.922 -0.0124  0.0732 -0.6749
  593MOL0     O81704   9.613   7.185  10.990  0.4433  0.0877  0.4260
  593MOL0     C81705   9.717   7.285  10.983  0.4175  0.0938  0.4470
  593MOL0     C81706   9.840   7.242  11.068 -0.0923  0.6025  0.7591
  593MOL0     C81707   9.796   7.204  11.210  0.1915 -0.3654 -0.0930
  593MOL0     C81708   9.908   7.169  11.300 -0.6800 -0.3870 -0.1361
  593MOL0     C81709   9.857   7.119  11.437 -0.5568  0.0999 -0.0254
  593MOL0     C81710   9.966   7.036  11.500  0.1091 -0.2626  0.0475
  593MOL0     C81711   9.941   7.018  11.654 -0.6241 -0.0549 -0.2069
  593MOL0     C81712   9.969   7.148  11.729  0.6402  0.2485  0.3428
  593MOL0     N81713  10.110   7.184  11.730  0.8771 -0.0379 -0.8208
  593MOL0     C81714  10.209   7.096  11.772 -0.1038 -0.0419  0.6903
  593MOL0     C81715  10.324   7.162  11.737  0.1033  0.3655  0.0343
  593MOL0     C81716  10.455   7.084  11.759 -0.1350  0.0151  0.1968
  593MOL0     C81717  10.531   7.129  11.885 -0.8383  0.0928 -0.3158
  593MOL0     C81718  10.609   7.256  11.852 -0.5337 -0.2300 -0.7023
  593MOL0     C81719  10.762   7.228  11.831 -0.3307 -0.6573  0.3797
  593MOL0     O81720  10.820   7.353  11.810 -0.3130 -0.2365  0.2610
  593MOL0     C81721  10.957   7.374  11.831  0.5582 -0.2223 -0.5147
  593MOL0     C81722  11.057   7.271  11.844  0.3060 -0.3172 -0.2799
  593MOL0     C81723  11.191   7.304  11.864  0.4836  0.6041 -0.0831
  593MOL0     C81724  11.294   7.200  11.891  0.0562  0.9114  0.4849
  593MOL0     C81725  11.229   7.443  11.869  0.1047 -0.1033 -0.1835
  593MOL0     C81726  11.362   7.486  11.879 -0.5409  0.9777  0.1757
  593MOL0     O81727  11.413   7.556  11.770  0.5770  0.0876  0.5952
  593MOL0     C81728  11.548   7.559  11.759 -0.1445 -0.1842  0.1580
  593MOL0     C81729  11.631   7.620  11.855 -0.0892  0.1791 -0.3817
  593MOL0     C81730  11.773   7.608  11.838  0.0781 -0.3035  0.0589
  593MOL0     C81731  11.827   7.538  11.732 -0.6502  0.1260 -0.0560
  593MOL0     O81732  11.957   7.499  11.714 -0.7746  0.5417 -0.3068
  593MOL0     C81733  12.057   7.534  11.813  0.2623  0.2118 -0.2417
  593MOL0     C81734  12.181   7.450  11.795 -0.6338  0.3256  0.1087
  593MOL0     C81735  12.154   7.298  11.796  0.1018 -0.6924 -0.5753
  593MOL0     C81736  12.275   7.215  11.833  0.3376 -0.5710 -0.3887
  593MOL0     C81737  12.244   7.059  11.821  0.7595  0.2303 -0.6483
  593MOL0     C81738  12.372   6.976  11.839 -0.6278 -0.9827  0.1343
  593MOL0     C81739  12.427   6.988  11.985 -0.0948  0.4162 -0.4580
  593MOL0     C81740  12.488   6.861  12.032  0.2062  0.2586 -0.2487
  593MOL0    Cl81741  12.618   6.797  11.922  0.0568 -0.3493 -0.1455
  593MOL0     C81742  11.749   7.492  11.630  0.5915  0.0174  0.4072
  593MOL0     C81743  11.609   7.494  11.647 -0.6453  0.4558  0.4082
  593MOL0     O81744  11.408   7.484  11.993  0.2059  0.8398 -0.2285
  593MOL0     C81745  11.127   7.541  11.851 -0.1435 -0.9522 -0.0801
  593MOL0     C81746  10.991   7.506  11.833 -0.1446 -0.6782 -0.2348
  593MOL0     N81747  10.295   7.279  11.673 -0.0538 -0.7466  0.9084
  593MOL0     N81748  10.168   7.302  11.675 -0.6519 -1.0702  0.2543
  593MOL0     C81749   9.385   7.166  10.978  0.6240 -0.2060 -0.5920
  593MOL0     C81750   9.268   7.173  10.906  0.1432  0.4300  1.1363
  593MOL0     C81751   8.986   7.216  10.535  0.3859 -0.8047  1.0676
  593MOL0     C81752   8.960   7.144  10.421  0.4164  0.4630  0.9253
  593MOL0     C81753   8.834   7.152  10.373  0.0031  1.2555  0.2902
  593MOL0     C81754   8.729   7.227  10.432 -0.1513  0.3524 -0.0326
  593MOL0     O81755   8.607   7.239  10.377  0.2760 -0.4319  0.3951
  593MOL0     C81756   8.523   7.129  10.408 -0.4901 -0.1673  0.0414
  593MOL0     C81757   8.386   7.145  10.335  0.0692  0.1486  0.1322
  593MOL0     C81758   8.309   7.010  10.350  0.2143 -0.3920  0.0710
  593MOL0     C81759   8.174   6.993  10.269  0.4193 -0.8819 -0.3531
  593MOL0     C81760   8.205   6.985  10.127 -0.0827  0.0187 -0.0500
  593MOL0     C81761   8.230   6.992  10.007  0.2244 -0.3397 -0.1572
  593MOL0     C81762   8.750   7.308  10.539 -0.1420 -0.0496 -0.6629
  593MOL0     C81763   8.878   7.301  10.590 -0.4125 -0.2048  1.0121
  593MOL0     C81764   8.895   7.410  10.698 -0.5905 -0.2373  0.2608
  593MOL0     H81765   9.377   7.364  10.643  0.8257  1.1914  0.5119
  593MOL0     H81766   9.577   7.322  10.735 -0.7788 -1.4878 -1.4610
  593MOL0     H81767   9.692   7.381  11.028  0.3613 -0.0336  0.6869
  593MOL0     H81768   9.733   7.286  10.874  0.1221  1.4309  0.3982
  593MOL0     H81769   9.880   7.154  11.017 -1.0567 -0.3618  1.6157
  593MOL0     H81770   9.917   7.319  11.077 -1.9053  2.3248  2.6041
  593MOL0     H81771   9.744   7.297  11.235 -2.8740 -1.7909 -0.7911
  593MOL0     H81772   9.726   7.120  11.210 -2.3953  1.6772  0.4906
  593MOL0     H81773   9.958   7.083  11.254 -1.6471  0.5469 -3.1865
  593MOL0     H81774   9.972   7.256  11.314 -2.2446  1.1329 -1.9084
  593MOL0     H81775   9.776   7.050  11.413  1.6176 -2.0687 -1.6039
  593MOL0     H81776   9.825   7.204  11.498  0.4393  0.5357 -0.1015
  593MOL0     H81777   9.946   6.943  11.447 -2.3509 -0.2501  0.8483
  593MOL0     H81778  10.070   7.067  11.485 -0.4981  1.4340 -1.0463
  593MOL0     H81779  10.005   6.935  11.687  0.4099  0.5479 -0.6499
  593MOL0     H81780   9.835   6.996  11.667 -0.8912  1.6549  0.8764
  593MOL0     H81781   9.902   7.226  11.691 -1.7896 -2.0743 -0.4101
  593MOL0     H81782   9.941   7.121  11.832  3.1090 -0.0406  0.9899
  593MOL0     H81783  10.194   7.005  11.829 -3.6017 -0.1598 -0.1610
  593MOL0     H81784  10.526   7.094  11.676  0.1261  0.3174  0.4564
  593MOL0     H81785  10.425   6.979  11.758  0.7186 -0.2521 -1.5910
  593MOL0     H81786  10.460   7.152  11.965  1.8443 -0.8849  2.5188
  593MOL0     H81787  10.590   7.042  11.913 -2.0428 -0.2243  1.3675
  593MOL0     H81788  10.574   7.312  11.766  1.5504 -1.2122 -2.2816
  593MOL0     H81789  10.603   7.320  11.941  1.8210 -0.1845 -0.5137
  593MOL0     H81790  10.805   7.162  11.906 -0.6655 -3.0892 -1.4563
  593MOL0     H81791  10.768   7.178  11.734 -1.4668 -0.8476  0.3872
  593MOL0     H81792  11.029   7.166  11.837 -1.8139  0.1920 -0.1418
  593MOL0     H81793  11.248   7.101  11.879  0.5838  0.6484  0.5936
  593MOL0     H81794  11.348   7.214  11.984  1.2925  3.7131 -0.5423
  593MOL0     H81795  11.366   7.211  11.809  0.8149 -0.0300  0.9955
  593MOL0     H81796  11.597   7.689  11.932  1.0665  0.0274  0.2789
  593MOL0     H81797  11.840   7.656  11.909  0.5504 -2.9548  1.5393
  593MOL0     H81798  12.076   7.641  11.800  0.0463  0.0053 -2.7875
  593MOL0     H81799  12.031   7.517  11.918 -0.1814 -1.7479 -0.6370
  593MOL0     H81800  12.222   7.466  11.695 -2.1382 -0.4420 -0.6785
  593MOL0     H81801  12.256   7.480  11.868 -0.3542  0.3914 -0.2013
  593MOL0     H81802  12.110   7.255  11.706 -0.6083 -1.4584  0.1209
  593MOL0     H81803  12.079   7.276  11.873 -0.6578 -0.3889 -1.2193
  593MOL0     H81804  12.316   7.252  11.928  1.3015  4.2608 -2.3856
  593MOL0     H81805  12.354   7.235  11.760 -0.5292 -0.7814 -1.3983
  593MOL0     H81806  12.168   7.029  11.894  2.4979  0.6551  1.4171
  593MOL0     H81807  12.199   7.040  11.723 -0.9126 -2.1473  0.4784
  593MOL0     H81808  12.449   7.020  11.776 -3.2750 -0.1555 -2.7759
  593MOL0     H81809  12.356   6.871  11.812  1.7523 -1.1856 -0.7104
  593MOL0     H81810  12.349   7.001  12.060  1.5025 -2.4392  1.9258
  593MOL0     H81811  12.503   7.067  11.993  4.2665 -3.4825  1.9593
  593MOL0     H81812  12.413   6.786  12.058 -2.4327  1.7204 -2.9734
  593MOL0     H81813  12.551   6.898  12.113 -0.6413 -2.4951  1.8227
  593MOL0     H81814  11.789   7.442  11.542 -0.2273 -0.0354  0.0612
  593MOL0     H81815  11.549   7.437  11.576  1.6198 -2.8470  0.9133
  593MOL0     H81816  11.159   7.644  11.844 -0.4659 -0.8959 -0.7692
  593MOL0     H81817  10.909   7.576  11.842  0.3985  0.0214 -0.6061
  593MOL0     H81818   9.393   7.113  11.072 -1.4655 -2.1730 -1.4172
  593MOL0     H81819   9.171   7.140  10.941 -1.5814 -0.0053 -3.3456
  593MOL0     H81820   9.032   7.080  10.371 -1.7839  0.6880 -2.9947
  593MOL0     H81821   8.807   7.092  10.286 -2.7628  0.7668  1.3973
  593MOL0     H81822   8.572   7.043  10.362  0.1945  2.0574 -3.8120
  593MOL0     H81823   8.516   7.107  10.515  4.3304  2.1754  1.1288
  593MOL0     H81824   8.401   7.165  10.228 -0.3964  0.1255  0.0637
  593MOL0     H81825   8.323   7.227  10.372 -2.4441 -1.4134 -0.4977
  593MOL0     H81826   8.384   6.935  10.323  0.9372 -0.5739  2.3675
  593MOL0     H81827   8.279   6.987  10.453  3.2833 -1.8592  0.7322
  593MOL0     H81828   8.116   7.083  10.294  1.0501 -0.2078 -1.2194
  593MOL0     H81829   8.122   6.904  10.304 -1.2045  0.1669  0.0195
  593MOL0     H81830   8.262   7.003   9.905  0.8248 -0.1535  0.0427
  593MOL0     H81831   8.673   7.372  10.582  1.2421  1.2982 -0.1015
  593MOL0     H81832   8.798   7.456  10.721  0.5298  1.3486  2.1578
  593MOL0     H81833   8.916   7.370  10.798 -3.1909 -0.2762  0.8632
  593MOL0     H81834   8.966   7.487  10.667 -0.2949  0.0807  1.6800
  594MOL0     O81835   5.781   3.235   0.035  0.3973 -0.0696 -0.1993
  594MOL0     C81836   5.762   3.123   0.086  0.1022  0.3416  0.7691
  594MOL0     O81837   5.837   3.077   0.192 -0.5791  0.1329 -0.6939
  594MOL0     C81838   5.918   3.160   0.263 -0.2137  0.7102 -0.5590
  594MOL0     C81839   6.042   3.114   0.304 -0.7085  0.5288  0.3890
  594MOL0     C81840   6.128   3.206   0.380 -0.5795 -0.0538 -0.4978
  594MOL0     C81841   6.095   3.334   0.417 -0.1760  0.0480  0.7992
  594MOL0     O81842   6.186   3.402   0.497 -0.0522 -0.0522 -0.1697
  594MOL0     C81843   6.155   3.540   0.528 -0.2166  0.0595  0.3706
  594MOL0     C81844   6.268   3.608   0.614  0.4737 -0.1289 -0.4174
  594MOL0     C81845   6.412   3.572   0.563  0.3206 -0.0926 -0.0997
  594MOL0     C81846   6.514   3.661   0.628 -0.6154  0.5029  0.1017
  594MOL0     C81847   6.649   3.666   0.561  0.0642 -0.2419 -0.3006
  594MOL0     C81848   6.736   3.782   0.630 -0.3434 -0.1093 -0.3980
  594MOL0     C81849   6.876   3.780   0.573  0.1697  0.3852 -0.9354
  594MOL0     C81850   6.889   3.809   0.426 -0.2921 -0.8736 -0.2355
  594MOL0     N81851   7.035   3.792   0.404  0.6465 -0.4661  0.0930
  594MOL0     C81852   7.129   3.885   0.436  0.3105 -0.7031  1.2899
  594MOL0     C81853   7.245   3.822   0.395 -0.3709  1.0499 -0.3737
  594MOL0     C81854   7.385   3.875   0.420  0.5077 -0.7959 -0.6406
  594MOL0     C81855   7.482   3.775   0.482 -0.7116 -0.4418  0.1605
  594MOL0     C81856   7.445   3.733   0.631 -0.3640 -0.2284 -0.4344
  594MOL0     C81857   7.550   3.637   0.696  0.6344  0.6618  0.3707
  594MOL0     O81858   7.680   3.688   0.682 -0.1006 -0.4491  0.5822
  594MOL0     C81859   7.774   3.599   0.726  0.0686  1.0422 -0.5022
  594MOL0     C81860   7.893   3.601   0.654  0.7230  0.9239 -0.0471
  594MOL0     C81861   8.000   3.521   0.693  0.1445  0.6878 -0.6739
  594MOL0     C81862   8.117   3.523   0.601  0.2923  1.0860  0.4009
  594MOL0     C81863   8.002   3.452   0.819 -0.3702  0.2199 -0.0239
  594MOL0     C81864   8.119   3.367   0.870 -0.1703 -0.8874  0.0410
  594MOL0     O81865   8.093   3.265   0.952 -0.1507  0.3311 -0.5164
  594MOL0     C81866   8.209   3.196   0.999  1.0504 -0.5271 -0.1380
  594MOL0     C81867   8.289   3.129   0.915  0.0908 -1.0507  0.3885
  594MOL0     C81868   8.398   3.060   0.966  0.2334  0.4344 -0.2209
  594MOL0     C81869   8.422   3.066   1.100  0.7974 -0.3127 -0.4347
  594MOL0     O81870   8.531   2.995   1.155  0.1828 -0.7242  0.3011
  594MOL0     C81871   8.672   3.045   1.136 -0.0433  0.1269 -0.0298
  594MOL0     C81872   8.760   2.953   1.211 -0.1684 -0.1797 -0.5385
  594MOL0     C81873   8.905   2.987   1.206 -0.2394  0.5133  1.0500
  594MOL0     C81874   9.005   2.871   1.238 -0.0407  0.5232 -0.7434
  594MOL0     C81875   9.130   2.879   1.150  1.1472  0.0824 -0.0105
  594MOL0     C81876   9.235   2.784   1.193  0.4229  1.2937 -1.2020
  594MOL0     C81877   9.366   2.808   1.114  0.2424  0.4721  0.6561
  594MOL0     C81878   9.470   2.699   1.158  0.0730 -1.0358  0.0487
  594MOL0    Cl81879   9.641   2.734   1.105 -0.3841 -0.1834 -0.4286
  594MOL0     C81880   8.344   3.144   1.186  0.1614  0.0461  0.1771
  594MOL0     C81881   8.230   3.209   1.138 -0.3421  0.7576 -0.7584
  594MOL0     O81882   8.230   3.426   0.856  0.2368  0.7674 -0.4667
  594MOL0     C81883   7.881   3.452   0.897 -0.9471 -0.2976 -0.3411
  594MOL0     C81884   7.774   3.530   0.854 -0.2550 -0.0685  0.2624
  594MOL0     N81885   7.223   3.690   0.351 -0.0472  0.3339  0.3815
  594MOL0     N81886   7.096   3.671   0.367 -0.2403  0.0380 -0.0701
  594MOL0     C81887   5.972   3.384   0.369  0.0142  0.8516  0.6915
  594MOL0     C81888   5.889   3.292   0.298  0.0061 -0.4807  0.7023
  594MOL0     C81889   5.644   3.056   0.037  0.8503  0.3264 -0.4433
  594MOL0     C81890   5.544   3.133  -0.026 -0.0359  0.6304  0.3582
  594MOL0     C81891   5.423   3.068  -0.063 -0.9125 -0.3571  0.9009
  594MOL0     C81892   5.395   2.933  -0.039 -0.6597 -0.5860  1.0992
  594MOL0     O81893   5.278   2.877  -0.094 -0.0881 -0.0133 -0.3403
  594MOL0     C81894   5.238   2.751  -0.054 -0.2564  0.3911 -0.0707
  594MOL0     C81895   5.191   2.754   0.099  0.2235  0.3926  0.1087
  594MOL0     C81896   5.037   2.753   0.124 -0.2780 -0.1938 -0.2682
  594MOL0     C81897   4.965   2.880   0.071 -0.3310  0.4172  0.0315
  594MOL0     C81898   4.832   2.877   0.128  0.5888 -0.5383  0.3542
  594MOL0     C81899   4.725   2.874   0.176  0.6701 -0.1750 -0.0023
  594MOL0     C81900   5.492   2.861   0.026 -0.0025  0.3199 -0.7683
  594MOL0     C81901   5.618   2.920   0.059  0.5985 -0.1375 -0.0929
  594MOL0     C81902   5.724   2.829   0.127  0.5367  0.8734  0.1792
  594MOL0     H81903   6.069   3.012   0.277  0.6393  1.0462 -0.2773
  594MOL0     H81904   6.229   3.176   0.407 -0.2406 -0.3298 -1.9570
  594MOL0     H81905   6.059   3.540   0.579  0.4195  0.8779  1.6130
  594MOL0     H81906   6.148   3.601   0.438  0.4787 -1.1184 -0.5158
  594MOL0     H81907   6.256   3.717   0.612  1.0822 -0.0155  0.8560
  594MOL0     H81908   6.246   3.580   0.718  1.8657  0.0802 -0.0487
  594MOL0     H81909   6.425   3.468   0.595 -1.7438 -0.1013  0.8333
  594MOL0     H81910   6.407   3.588   0.454  0.3609 -0.6702 -0.1872
  594MOL0     H81911   6.478   3.764   0.632  0.5363  0.9524 -0.6578
  594MOL0     H81912   6.530   3.637   0.733  2.5937  2.1088  0.1160
  594MOL0     H81913   6.646   3.682   0.453  0.1525 -1.1314 -0.4439
  594MOL0     H81914   6.706   3.576   0.585  0.5885 -0.0336 -0.7299
  594MOL0     H81915   6.681   3.876   0.620 -1.3628 -0.3344  2.1811
  594MOL0     H81916   6.749   3.774   0.739 -1.5388  0.4595 -0.1953
  594MOL0     H81917   6.911   3.679   0.595  0.6800  0.6373 -0.5723
  594MOL0     H81918   6.938   3.853   0.626 -0.2251  0.6210 -0.7903
  594MOL0     H81919   6.850   3.734   0.356  1.7215 -1.9924 -0.2353
  594MOL0     H81920   6.854   3.910   0.403 -0.6931 -0.8725  0.3621
  594MOL0     H81921   7.121   3.985   0.478 -3.2991 -0.8810  1.3540
  594MOL0     H81922   7.377   3.958   0.491  1.3847 -1.4243  0.2133
  594MOL0     H81923   7.413   3.917   0.323 -0.4399  0.0762 -0.5618
  594MOL0     H81924   7.470   3.686   0.419 -0.0530 -0.6043  0.2597
  594MOL0     H81925   7.585   3.806   0.465 -0.1044 -3.4647 -2.5260
  594MOL0     H81926   7.433   3.820   0.695 -2.8941 -1.0044  0.2592
  594MOL0     H81927   7.347   3.686   0.647  0.7675 -2.0085  1.9248
  594MOL0     H81928   7.526   3.632   0.803 -0.7794  0.6284  0.0692
  594MOL0     H81929   7.550   3.539   0.648  0.4428  2.5777 -3.9623
  594MOL0     H81930   7.904   3.660   0.564 -1.4404  0.6740 -0.5363
  594MOL0     H81931   8.089   3.555   0.500  1.1109 -0.8989 -0.5012
  594MOL0     H81932   8.169   3.428   0.588 -2.0211 -0.1850 -0.0046
  594MOL0     H81933   8.190   3.592   0.644  2.3597 -1.1724  0.7255
  594MOL0     H81934   8.274   3.129   0.807 -0.4539 -0.1259  0.4606
  594MOL0     H81935   8.465   3.002   0.902  1.0536  1.8808 -0.7397
  594MOL0     H81936   8.707   3.038   1.032 -1.4688 -1.4369 -0.4554
  594MOL0     H81937   8.687   3.148   1.171  1.0786 -0.1430  0.3047
  594MOL0     H81938   8.735   2.952   1.317  1.3690 -1.2829 -0.1565
  594MOL0     H81939   8.740   2.854   1.169  2.5325 -2.5330  3.1760
  594MOL0     H81940   8.935   3.072   1.268  0.7760  2.6203 -2.0802
  594MOL0     H81941   8.935   3.031   1.110  0.9281 -0.4146  0.9720
  594MOL0     H81942   8.948   2.778   1.231  1.3490 -0.3324 -1.0389
  594MOL0     H81943   9.030   2.876   1.344  0.7701  0.9953 -0.9510
  594MOL0     H81944   9.101   2.855   1.047  0.2582  0.5642  0.1164
  594MOL0     H81945   9.163   2.983   1.146 -0.3630  0.5813 -3.3071
  594MOL0     H81946   9.203   2.680   1.182  2.1137  0.4917  0.6867
  594MOL0     H81947   9.252   2.793   1.301 -2.0957  2.1704 -0.8207
  594MOL0     H81948   9.404   2.905   1.145  0.9604  0.6861 -0.8006
  594MOL0     H81949   9.351   2.809   1.005 -1.0188  1.6437  0.8064
  594MOL0     H81950   9.442   2.601   1.118 -1.2862 -1.2013  1.3560
  594MOL0     H81951   9.457   2.687   1.266 -0.2023  0.9115  0.2828
  594MOL0     H81952   8.363   3.143   1.293  0.7129 -2.8551  0.1275
  594MOL0     H81953   8.160   3.267   1.197 -2.2092  1.1089 -3.1651
  594MOL0     H81954   7.882   3.386   0.983  0.9415 -0.5086 -0.4879
  594MOL0     H81955   7.691   3.545   0.923 -0.6623 -0.9202 -0.0415
  594MOL0     H81956   5.937   3.484   0.392 -2.0138  1.0515 -2.5501
  594MOL0     H81957   5.800   3.336   0.255 -0.5766 -1.9074  0.3815
  594MOL0     H81958   5.558   3.240  -0.037  3.1081  0.1514 -1.3431
  594MOL0     H81959   5.346   3.120  -0.119 -0.7184 -2.0314 -1.0798
  594MOL0     H81960   5.162   2.717  -0.124 -1.2170  0.6774  0.8023
  594MOL0     H81961   5.326   2.687  -0.066 -1.6279 -1.1943 -2.3869
  594MOL0     H81962   5.228   2.845   0.147 -0.2589  1.0383 -0.7231
  594MOL0     H81963   5.236   2.670   0.154  0.0163  0.9948  1.2232
  594MOL0     H81964   4.991   2.661   0.085  0.7517 -1.1273  0.6509
  594MOL0     H81965   5.037   2.758   0.233  0.8598  2.5360 -0.3104
  594MOL0     H81966   4.957   2.875  -0.038 -0.7094  2.2748 -0.0687
  594MOL0     H81967   5.024   2.966   0.104  2.3560 -2.3584  3.2138
  594MOL0     H81968   4.636   2.862   0.234  0.4566 -1.6578 -0.5786
  594MOL0     H81969   5.494   2.754   0.043  1.1315  0.3932 -0.3834
  594MOL0     H81970   5.736   2.866   0.229  1.8519  2.9713 -0.6724
  594MOL0     H81971   5.688   2.725   0.133 -1.0163  1.4017  0.4947
  594MOL0     H81972   5.821   2.846   0.080  0.6055  2.7819  0.9476
  595MOL0     O81973   8.046   2.048   0.394  0.2673 -0.3873  0.4186
  595MOL0     C81974   8.022   2.121   0.296 -0.4746  1.2198 -0.6420
  595MOL0     O81975   8.105   2.216   0.246 -0.4491 -0.3562 -0.1691
  595MOL0     C81976   8.224   2.240   0.303 -0.1969 -0.9130 -0.7357
  595MOL0     C81977   8.240   2.318   0.416  0.5706  0.0878 -0.0175
  595MOL0     C81978   8.369   2.335   0.475 -0.8604  0.3731  0.6031
  595MOL0     C81979   8.482   2.289   0.416 -0.1482 -0.8298 -0.1961
  595MOL0     O81980   8.606   2.296   0.467  0.2849  0.2663  0.1023
  595MOL0     C81981   8.666   2.411   0.507  0.6131 -0.3697  0.2145
  595MOL0     C81982   8.815   2.406   0.546  0.0244 -0.3336  0.0343
  595MOL0     C81983   8.915   2.361   0.429  0.4729  0.6484 -0.6788
  595MOL0     C81984   9.058   2.371   0.476 -0.5347  0.3326 -0.0353
  595MOL0     C81985   9.161   2.356   0.356 -0.5878  0.5341 -0.1149
  595MOL0     C81986   9.143   2.237   0.266 -0.0367 -0.0783  0.8248
  595MOL0     C81987   9.264   2.233   0.168  0.5626  0.1457 -0.0282
  595MOL0     C81988   9.388   2.177   0.237 -1.3418 -0.5331  0.4063
  595MOL0     N81989   9.506   2.167   0.143  0.0851  0.0725 -0.0066
  595MOL0     C81990   9.513   2.072   0.045  0.1217  0.3846  0.1823
  595MOL0     C81991   9.627   2.085  -0.025 -0.5208 -0.9170 -0.0441
  595MOL0     C81992   9.696   1.995  -0.127 -0.5218 -0.4531 -0.4231
  595MOL0     C81993   9.699   2.039  -0.264  0.1184 -0.9645  0.5780
  595MOL0     C81994   9.794   2.160  -0.279 -0.5964  0.0468  0.1580
  595MOL0     C81995   9.794   2.212  -0.426  0.0106 -0.5055 -0.2348
  595MOL0     O81996   9.881   2.331  -0.438  0.4267 -0.1349  0.2665
  595MOL0     C81997  10.016   2.323  -0.434 -0.0304 -0.0262 -1.0968
  595MOL0     C81998  10.092   2.200  -0.421  0.0233 -0.0410  0.4465
  595MOL0     C81999  10.229   2.206  -0.394 -0.3228 -0.2464  0.2817
  595MOL0     C82000  10.300   2.065  -0.379  0.5667 -0.4885  0.3164
  595MOL0     C82001  10.308   2.326  -0.379 -0.1419  0.2554  0.0894
  595MOL0     C82002  10.456   2.329  -0.359 -0.4849 -0.3768 -0.6258
  595MOL0     O82003  10.517   2.446  -0.400  0.0209 -0.3177  0.6648
  595MOL0     C82004  10.651   2.447  -0.375  0.0312  0.4007 -0.1190
  595MOL0     C82005  10.699   2.488  -0.251  0.3490 -0.0142 -0.6705
  595MOL0     C82006  10.834   2.507  -0.223 -0.5412  0.5893 -1.0773
  595MOL0     C82007  10.924   2.469  -0.326 -0.6540  0.0785  0.9529
  595MOL0     O82008  11.064   2.495  -0.333 -0.0387 -0.2632 -0.0373
  595MOL0     C82009  11.111   2.626  -0.297 -0.5180 -0.3369 -0.0725
  595MOL0     C82010  11.258   2.646  -0.327  0.3282 -0.0043  0.3026
  595MOL0     C82011  11.354   2.544  -0.253  0.7909 -0.2339 -0.1742
  595MOL0     C82012  11.481   2.529  -0.329 -0.7354  0.2745  0.2514
  595MOL0     C82013  11.602   2.487  -0.237  0.4731 -0.9379  0.1304
  595MOL0     C82014  11.737   2.503  -0.300 -0.1958 -1.2028  0.2720
  595MOL0     C82015  11.766   2.432  -0.428 -0.2826 -0.3726  0.0046
  595MOL0     C82016  11.912   2.433  -0.485 -0.3437 -0.4683  0.5111
  595MOL0    Cl82017  12.021   2.378  -0.347 -0.3465  0.2163  0.0678
  595MOL0     C82018  10.876   2.412  -0.452 -0.5778  0.0054 -0.1529
  595MOL0     C82019  10.740   2.399  -0.474 -0.2053 -0.4284 -0.1512
  595MOL0     O82020  10.516   2.227  -0.318 -0.0857 -0.3839  0.1100
  595MOL0     C82021  10.230   2.439  -0.385  0.0748  1.0591  0.6412
  595MOL0     C82022  10.094   2.437  -0.419  0.4795 -0.4131  0.8493
  595MOL0     N82023   9.683   2.194   0.030 -0.2411 -0.8404 -0.8786
  595MOL0     N82024   9.616   2.251   0.136  0.5221  0.4558  0.1512
  595MOL0     C82025   8.472   2.219   0.297  1.0245  0.2807  0.2960
  595MOL0     C82026   8.341   2.190   0.242 -1.0032  0.0239 -0.3000
  595MOL0     C82027   7.886   2.096   0.223 -1.0532  0.7044  0.1502
  595MOL0     C82028   7.821   1.968   0.229  0.1006  0.2042 -0.0827
  595MOL0     C82029   7.698   1.943   0.163  0.1207 -0.0143  0.0633
  595MOL0     C82030   7.619   2.042   0.118 -0.7494  0.0416  0.4073
  595MOL0     O82031   7.500   2.010   0.066 -0.2343  0.3403 -0.2058
  595MOL0     C82032   7.445   2.079  -0.041 -0.2839  0.7980 -0.1347
  595MOL0     C82033   7.524   2.077  -0.171 -0.2428 -0.3724 -0.0833
  595MOL0     C82034   7.537   1.929  -0.227 -1.1851  0.1868 -0.5882
  595MOL0     C82035   7.660   1.909  -0.318 -0.5683  0.4851 -0.2312
  595MOL0     C82036   7.677   1.764  -0.346 -0.5441  0.7044  0.1310
  595MOL0     C82037   7.687   1.657  -0.397  0.1089 -0.0733 -0.6241
  595MOL0     C82038   7.669   2.172   0.121  0.1505  0.6248 -0.2058
  595MOL0     C82039   7.803   2.201   0.162  0.1395 -1.6756 -0.5141
  595MOL0     C82040   7.838   2.348   0.184  0.9097 -0.8573 -0.5059
  595MOL0     H82041   8.154   2.371   0.458  0.0659 -1.9042  1.6567
  595MOL0     H82042   8.381   2.390   0.568  1.0171 -0.6124  0.9865
  595MOL0     H82043   8.607   2.447   0.592 -0.2844  3.0648 -1.6773
  595MOL0     H82044   8.665   2.485   0.427  1.1763  3.3607  3.3640
  595MOL0     H82045   8.844   2.500   0.593 -0.7593 -1.0932  2.2142
  595MOL0     H82046   8.823   2.322   0.616  1.6428 -0.5860 -0.4258
  595MOL0     H82047   8.894   2.258   0.397  0.1875  0.6994 -0.6633
  595MOL0     H82048   8.901   2.418   0.337 -0.5480  0.5196 -0.6187
  595MOL0     H82049   9.078   2.471   0.515  0.1331  0.1705  0.0621
  595MOL0     H82050   9.073   2.286   0.544 -3.6996 -1.1799 -1.0243
  595MOL0     H82051   9.259   2.350   0.404 -0.9468  1.1911  0.7194
  595MOL0     H82052   9.163   2.439   0.286  2.0613  0.7172  0.0894
  595MOL0     H82053   9.147   2.140   0.315 -2.7041 -0.6228  0.1596
  595MOL0     H82054   9.051   2.252   0.208 -0.2186  1.0156  1.3649
  595MOL0     H82055   9.289   2.332   0.127  0.1917  0.7749  1.2232
  595MOL0     H82056   9.238   2.168   0.084  0.9060 -2.7262  1.9595
  595MOL0     H82057   9.420   2.251   0.311  0.9000 -1.5003  0.4745
  595MOL0     H82058   9.368   2.079   0.281 -0.8473 -0.8351 -0.0257
  595MOL0     H82059   9.439   1.993   0.037  1.6281 -1.1060  0.3442
  595MOL0     H82060   9.643   1.899  -0.133  0.9155 -1.2158 -1.8824
  595MOL0     H82061   9.799   1.975  -0.099 -0.6796 -0.0378  0.4784
  595MOL0     H82062   9.732   1.958  -0.329  0.1152 -0.4242 -0.1111
  595MOL0     H82063   9.600   2.067  -0.301  0.4526 -1.6690 -0.8918
  595MOL0     H82064   9.770   2.241  -0.210  3.1636 -0.5006  2.3606
  595MOL0     H82065   9.890   2.121  -0.243 -1.1090 -0.5829  0.8567
  595MOL0     H82066   9.824   2.137  -0.499 -0.3874  0.8417 -1.8362
  595MOL0     H82067   9.699   2.263  -0.441  1.0069  1.6042  0.1601
  595MOL0     H82068  10.050   2.101  -0.433  1.5554 -0.7781  0.8524
  595MOL0     H82069  10.386   2.050  -0.445  0.1505 -0.3249 -0.2788
  595MOL0     H82070  10.231   1.985  -0.406  0.4467 -0.1511 -0.3916
  595MOL0     H82071  10.320   2.054  -0.272  1.0883 -0.1910  0.2515
  595MOL0     H82072  10.625   2.526  -0.181  0.3582  0.1043 -0.7238
  595MOL0     H82073  10.875   2.525  -0.124  0.3244  1.4149 -1.5592
  595MOL0     H82074  11.057   2.708  -0.346 -2.3770 -2.0457 -1.0347
  595MOL0     H82075  11.096   2.637  -0.189 -1.9695 -1.2996 -0.1470
  595MOL0     H82076  11.268   2.640  -0.436 -0.1629  0.5269  0.2249
  595MOL0     H82077  11.290   2.750  -0.314  1.5347 -0.3264  0.0184
  595MOL0     H82078  11.307   2.448  -0.233 -0.0518 -0.0286 -1.0830
  595MOL0     H82079  11.371   2.592  -0.156  1.1492  0.9235 -0.7889
  595MOL0     H82080  11.508   2.625  -0.375  1.6150 -0.8252 -0.7964
  595MOL0     H82081  11.466   2.453  -0.406 -0.6056 -2.0811  2.4188
  595MOL0     H82082  11.601   2.522  -0.133 -0.5323 -2.0456  0.5120
  595MOL0     H82083  11.582   2.380  -0.221 -1.4700 -0.5632  0.4686
  595MOL0     H82084  11.807   2.462  -0.226  3.4415 -0.4952 -2.4498
  595MOL0     H82085  11.761   2.609  -0.313  0.2327 -1.2770  0.4406
  595MOL0     H82086  11.692   2.474  -0.497  0.5485  1.3961  0.1366
  595MOL0     H82087  11.757   2.323  -0.420 -3.9400 -0.1722  0.3182
  595MOL0     H82088  11.940   2.536  -0.510  2.2736 -0.8916  1.4003
  595MOL0     H82089  11.914   2.369  -0.574  2.0846  0.0847  0.1057
  595MOL0     H82090  10.951   2.398  -0.530 -0.6485  0.6954 -0.3542
  595MOL0     H82091  10.694   2.357  -0.563  0.8596  1.0333 -1.4560
  595MOL0     H82092  10.284   2.532  -0.374  1.5312  0.0322  2.7535
  595MOL0     H82093  10.034   2.528  -0.413  0.5872 -0.2554 -0.2733
  595MOL0     H82094   8.563   2.183   0.250  1.9091  0.7159  1.6464
  595MOL0     H82095   8.345   2.136   0.148  1.2109 -1.5839  0.6372
  595MOL0     H82096   7.870   1.887   0.283  1.1674  0.2700 -0.9092
  595MOL0     H82097   7.671   1.838   0.154 -0.2498  0.1746 -1.2142
  595MOL0     H82098   7.350   2.026  -0.055 -0.2143  0.2183  1.3938
  595MOL0     H82099   7.428   2.178   0.002  0.5355  0.0102  2.1352
  595MOL0     H82100   7.624   2.118  -0.154 -0.4879  0.0541  0.3473
  595MOL0     H82101   7.483   2.146  -0.244  4.4875  0.9583 -1.9053
  595MOL0     H82102   7.541   1.860  -0.143  1.2120 -0.4918 -1.1756
  595MOL0     H82103   7.439   1.910  -0.273 -2.1450  0.7987  1.1011
  595MOL0     H82104   7.747   1.964  -0.280 -0.9546  0.4418  0.7567
  595MOL0     H82105   7.633   1.955  -0.413 -1.1005 -0.7749 -0.7022
  595MOL0     H82106   7.689   1.567  -0.455  2.2784  0.6430 -1.7784
  595MOL0     H82107   7.602   2.256   0.110  0.6129  0.9710 -0.4401
  595MOL0     H82108   7.792   2.425   0.121  0.5849  1.0876  1.9829
  595MOL0     H82109   7.835   2.371   0.290  0.8679  1.0331 -0.8848
  595MOL0     H82110   7.945   2.355   0.162  1.1522  1.5682  1.1561
  596MOL0     O82111  10.252   8.194   7.078 -0.6603  0.4382 -0.5072
  596MOL0     C82112  10.178   8.291   7.068  0.3246  0.4647 -0.0852
  596MOL0     O82113  10.213   8.412   7.041  0.4676  0.8964 -1.2417
  596MOL0     C82114  10.347   8.435   7.026  0.5812 -0.2172 -0.9240
  596MOL0     C82115  10.396   8.415   6.899 -0.3750  0.4636  1.3770
  596MOL0     C82116  10.536   8.451   6.871  0.1779 -0.1215 -0.2015
  596MOL0     C82117  10.617   8.503   6.971 -0.1733  0.2737 -0.3378
  596MOL0     O82118  10.740   8.549   6.951 -0.1033 -0.0026 -0.9095
  596MOL0     C82119  10.816   8.530   6.832 -0.5217  0.3065  0.0197
  596MOL0     C82120  10.964   8.531   6.869 -0.0146 -0.7179  0.3173
  596MOL0     C82121  11.010   8.664   6.919 -0.6076 -0.1361 -0.1662
  596MOL0     C82122  11.163   8.657   6.936 -0.3516 -0.5895  0.5107
  596MOL0     C82123  11.226   8.798   6.963 -0.3012  0.1193  0.9162
  596MOL0     C82124  11.372   8.800   7.026  0.6722  0.1387  0.9485
  596MOL0     C82125  11.417   8.938   7.060  0.7420 -0.9285  1.4423
  596MOL0     C82126  11.560   8.952   7.090  0.1723 -0.0535  0.2887
  596MOL0     N82127  11.597   8.889   7.223  0.8786  0.6702  0.0708
  596MOL0     C82128  11.682   8.784   7.244  0.4223  0.2791 -0.5992
  596MOL0     C82129  11.711   8.783   7.377  0.2217  0.0913  0.2177
  596MOL0     C82130  11.780   8.671   7.456 -0.0660 -0.0231  0.0779
  596MOL0     C82131  11.814   8.706   7.600 -0.5129 -0.1161 -0.0268
  596MOL0     C82132  11.691   8.670   7.694 -1.3699 -0.1087  0.0114
  596MOL0     C82133  11.627   8.797   7.768  0.6626 -0.0148 -0.2990
  596MOL0     O82134  11.713   8.842   7.874  0.8168  0.0169  0.1793
  596MOL0     C82135  11.804   8.947   7.865  0.0232 -0.6188 -0.0735
  596MOL0     C82136  11.909   8.949   7.954  0.9467  0.5617  0.0871
  596MOL0     C82137  12.011   9.045   7.945  0.3540  0.6780 -0.2504
  596MOL0     C82138  12.129   9.018   8.041  0.1658  0.3338 -0.3215
  596MOL0     C82139  12.006   9.155   7.857 -0.3253 -0.5670  0.5120
  596MOL0     C82140  12.110   9.259   7.841  0.6494 -0.0412  0.0413
  596MOL0     O82141  12.209   9.280   7.939 -0.4448  0.6638  0.0933
  596MOL0     C82142  12.310   9.374   7.923  1.4481 -0.1762  0.1998
  596MOL0     C82143  12.307   9.484   8.007 -0.0802  0.2641  0.2758
  596MOL0     C82144  12.397   9.588   8.003  0.5723  0.4176  0.7137
  596MOL0     C82145  12.503   9.585   7.912  0.3902 -0.4439 -0.2569
  596MOL0     O82146  12.602   9.684   7.893  0.1915 -0.0518 -1.0252
  596MOL0     C82147  12.620   9.785   7.993 -0.4827  1.1417  0.5889
  596MOL0     C82148  12.760   9.851   7.969  0.0611  0.2980 -0.0796
  596MOL0     C82149  12.879   9.743   7.957 -0.0894  0.1140 -0.5057
  596MOL0     C82150  13.010   9.814   7.939 -0.1454 -0.4559  0.4137
  596MOL0     C82151  13.118   9.717   7.907  0.1582  0.4291 -0.9060
  596MOL0     C82152  13.260   9.776   7.917 -0.2501 -0.0597  0.4348
  596MOL0     C82153  13.363   9.685   7.849  0.0701  0.0948  0.3683
  596MOL0     C82154  13.497   9.752   7.879 -0.4169 -0.3471  0.6444
  596MOL0    Cl82155  13.513   9.904   7.790  0.1166  0.4869 -0.1450
  596MOL0     C82156  12.505   9.481   7.816 -0.2278 -0.1734 -0.2546
  596MOL0     C82157  12.408   9.377   7.818 -0.9489 -0.6530 -0.0676
  596MOL0     O82158  12.096   9.335   7.745  0.2163 -0.4842 -0.4605
  596MOL0     C82159  11.887   9.161   7.779 -0.0407  0.1231 -0.1756
  596MOL0     C82160  11.782   9.061   7.776 -0.2233  0.0558  0.8924
  596MOL0     N82161  11.639   8.881   7.430  0.5069 -0.5802 -0.1937
  596MOL0     N82162  11.582   8.949   7.341 -0.6459  0.1354 -0.1537
  596MOL0     C82163  10.563   8.502   7.096  0.0446 -0.6557  0.1559
  596MOL0     C82164  10.433   8.477   7.125 -0.6193  0.0298 -0.3844
  596MOL0     C82165  10.030   8.260   7.062 -1.0086 -0.7818 -0.1841
  596MOL0     C82166   9.945   8.371   7.074  0.7782  0.1008 -0.1816
  596MOL0     C82167   9.807   8.355   7.099 -0.2317 -0.1315  0.5730
  596MOL0     C82168   9.753   8.230   7.103  0.0458 -0.1271  0.8228
  596MOL0     O82169   9.618   8.212   7.144 -0.1009  0.2100  0.4516
  596MOL0     C82170   9.548   8.092   7.128 -0.3568 -0.3121 -0.0337
  596MOL0     C82171   9.399   8.121   7.161  0.5061  0.0078  0.0479
  596MOL0     C82172   9.315   7.996   7.168  0.1576  0.0404  0.2369
  596MOL0     C82173   9.171   8.031   7.223 -0.3821  0.3681  0.8506
  596MOL0     C82174   9.092   7.911   7.204  0.4575 -0.7904  0.2655
  596MOL0     C82175   9.021   7.821   7.172  0.0950 -0.3052 -0.7026
  596MOL0     C82176   9.835   8.119   7.073  0.4808 -0.0377 -0.3064
  596MOL0     C82177   9.970   8.133   7.047 -0.2152  0.0645 -0.4046
  596MOL0     C82178  10.048   8.014   6.998  0.3273  0.4375  0.1763
  596MOL0     H82179  10.331   8.377   6.821  0.7793 -2.2016  1.6075
  596MOL0     H82180  10.579   8.444   6.772  4.3171 -0.8285  1.4317
  596MOL0     H82181  10.787   8.614   6.768 -2.0297  2.0257  2.7378
  596MOL0     H82182  10.789   8.438   6.780 -0.4185  1.0566 -1.4342
  596MOL0     H82183  10.978   8.452   6.943 -2.2992 -1.9739 -0.5016
  596MOL0     H82184  11.017   8.506   6.777 -2.4712 -0.3399 -1.2939
  596MOL0     H82185  10.990   8.739   6.842 -2.2215 -1.5292 -1.1732
  596MOL0     H82186  10.954   8.692   7.009  0.6761  1.0925  0.2960
  596MOL0     H82187  11.175   8.594   7.025  2.0433 -0.5713  0.2476
  596MOL0     H82188  11.209   8.609   6.850  0.2768 -0.4634  0.7694
  596MOL0     H82189  11.166   8.854   7.036 -0.8437  0.4795  0.2049
  596MOL0     H82190  11.239   8.864   6.877  1.0206  0.1877  1.1527
  596MOL0     H82191  11.362   8.743   7.119  0.7305 -1.2418  0.1369
  596MOL0     H82192  11.448   8.751   6.964  0.7020  0.9642  0.3274
  596MOL0     H82193  11.356   8.972   7.144 -1.8545 -1.0586 -0.2860
  596MOL0     H82194  11.391   9.003   6.976 -0.5561 -2.0504  0.9313
  596MOL0     H82195  11.605   8.895   7.008  0.7830  0.4253  0.2869
  596MOL0     H82196  11.601   9.052   7.080 -2.3381  1.0500  0.3360
  596MOL0     H82197  11.718   8.707   7.176  0.1859 -1.0306  0.7064
  596MOL0     H82198  11.874   8.662   7.402 -1.0480 -2.2053 -1.3926
  596MOL0     H82199  11.735   8.572   7.448  1.8894 -0.9772  0.3646
  596MOL0     H82200  11.901   8.649   7.635  0.5153 -0.4733 -2.8975
  596MOL0     H82201  11.837   8.811   7.618 -0.6954  0.0912 -0.9474
  596MOL0     H82202  11.617   8.620   7.630 -1.1116  1.1676 -1.3449
  596MOL0     H82203  11.714   8.593   7.768 -2.3661 -1.7736 -1.3062
  596MOL0     H82204  11.619   8.877   7.693 -0.7673 -1.8221 -2.2126
  596MOL0     H82205  11.527   8.781   7.808  0.2456  1.7795 -0.5382
  596MOL0     H82206  11.909   8.868   8.027  1.6951  1.0747  0.6779
  596MOL0     H82207  12.224   9.031   7.989  0.9643  2.4112  1.5174
  596MOL0     H82208  12.135   8.915   8.077  0.8123  0.6997  0.6597
  596MOL0     H82209  12.122   9.084   8.128  3.6809 -0.9224  1.1240
  596MOL0     H82210  12.238   9.487   8.091  2.8464  3.3425  2.8417
  596MOL0     H82211  12.386   9.665   8.079 -0.2797 -0.0030  1.0287
  596MOL0     H82212  12.534   9.853   7.995 -1.1057  0.3437  1.2659
  596MOL0     H82213  12.629   9.736   8.090  2.0072 -0.2335 -0.2348
  596MOL0     H82214  12.764   9.917   7.882  1.7696  0.1754 -0.1328
  596MOL0     H82215  12.778   9.911   8.059  1.3549  1.4508 -1.0693
  596MOL0     H82216  12.858   9.674   7.875 -0.9463 -1.2401  0.8075
  596MOL0     H82217  12.871   9.686   8.050  0.7240 -0.2420 -0.6411
  596MOL0     H82218  13.041   9.878   8.022 -0.8563  2.8949 -1.7322
  596MOL0     H82219  13.012   9.867   7.843  0.3424 -1.2207 -0.0137
  596MOL0     H82220  13.106   9.636   7.980 -3.4037  2.6629  1.2867
  596MOL0     H82221  13.089   9.675   7.811 -1.5234 -1.8837  0.5010
  596MOL0     H82222  13.283   9.788   8.023 -1.9440  1.7610  0.6578
  596MOL0     H82223  13.251   9.872   7.866  0.2720  0.3257  1.0539
  596MOL0     H82224  13.349   9.678   7.740 -3.3728 -3.0515  0.8114
  596MOL0     H82225  13.362   9.582   7.884  0.1798  0.7780  2.4920
  596MOL0     H82226  13.576   9.689   7.835 -1.0246 -0.8699  0.2903
  596MOL0     H82227  13.506   9.762   7.987 -0.5264 -1.6414  0.7941
  596MOL0     H82228  12.581   9.476   7.739  1.7004 -2.4300  1.6352
  596MOL0     H82229  12.425   9.297   7.746 -2.1502  0.1622 -1.3010
  596MOL0     H82230  11.860   9.245   7.717 -0.5131 -0.9703 -1.5078
  596MOL0     H82231  11.695   9.068   7.712 -1.7556 -0.7991  2.7841
  596MOL0     H82232  10.623   8.536   7.180  0.4111 -1.1088  0.0810
  596MOL0     H82233  10.412   8.486   7.230  1.1966 -2.8241  0.3616
  596MOL0     H82234   9.973   8.472   7.101 -1.9773  1.0061 -0.4279
  596MOL0     H82235   9.745   8.440   7.127 -2.4378 -1.3232 -0.4551
  596MOL0     H82236   9.569   8.045   7.032  1.9871  0.2069  0.1646
  596MOL0     H82237   9.579   8.024   7.208 -0.7436 -0.1099  0.2900
  596MOL0     H82238   9.357   8.192   7.090  0.3135  0.6399  0.7830
  596MOL0     H82239   9.397   8.179   7.254  1.2955  1.3161 -0.7268
  596MOL0     H82240   9.305   7.950   7.069 -3.9386  0.8492  0.1047
  596MOL0     H82241   9.364   7.923   7.234  1.4128 -0.1654 -0.8787
  596MOL0     H82242   9.130   8.113   7.163 -2.1275 -1.6059 -0.7948
  596MOL0     H82243   9.177   8.057   7.329  1.3557 -0.0720  0.8919
  596MOL0     H82244   8.947   7.744   7.170  0.0054 -0.3479  1.4955
  596MOL0     H82245   9.801   8.016   7.078  2.4465 -0.6628  1.0842
  596MOL0     H82246  10.096   8.040   6.903 -3.1019  0.1557 -1.8105
  596MOL0     H82247  10.126   7.991   7.071 -1.3255  0.2690  1.9882
  596MOL0     H82248   9.983   7.927   6.979  0.9495  0.5254 -2.9199
  597MOL0     O82249   7.256   3.801   4.724  0.3743 -0.0850 -0.0531
  597MOL0     C82250   7.282   3.706   4.648  0.8302  0.5710 -0.0468
  597MOL0     O82251   7.398   3.694   4.578  0.4390  0.1129  0.7618
  597MOL0     C82252   7.481   3.800   4.558  0.7712 -0.3475 -0.6419
  597MOL0     C82253   7.439   3.932   4.547 -0.5249  0.3423  0.1354
  597MOL0     C82254   7.529   4.037   4.519  0.7036  0.9739 -0.4521
  597MOL0     C82255   7.661   4.009   4.492 -0.0383 -0.6291 -0.5132
  597MOL0     O82256   7.742   4.117   4.461 -0.0568  0.5835 -0.6685
  597MOL0     C82257   7.881   4.101   4.439 -0.3474 -0.3811 -0.1792
  597MOL0     C82258   7.941   4.231   4.401  0.4525  0.1364  0.2335
  597MOL0     C82259   8.091   4.226   4.384 -0.2482 -0.1731  0.0584
  597MOL0     C82260   8.170   4.209   4.515  0.3134  0.4823  0.1092
  597MOL0     C82261   8.322   4.224   4.498 -0.2086 -0.4824  0.1319
  597MOL0     C82262   8.385   4.352   4.446  0.2842  0.8171 -0.2246
  597MOL0     C82263   8.538   4.358   4.467 -0.8417  0.7389  0.4773
  597MOL0     C82264   8.584   4.347   4.617  0.3946 -0.2004 -0.4104
  597MOL0     N82265   8.719   4.385   4.656  0.8121  0.1275  0.3315
  597MOL0     C82266   8.770   4.511   4.644 -0.3564  0.7614 -0.2716
  597MOL0     C82267   8.883   4.493   4.714  0.3193 -0.7430 -0.3008
  597MOL0     C82268   8.981   4.601   4.756 -0.2738 -0.8103  0.2052
  597MOL0     C82269   8.899   4.729   4.798  0.1940 -0.7294 -0.0131
  597MOL0     C82270   8.977   4.858   4.828  0.0208 -0.0034  0.3137
  597MOL0     C82271   9.116   4.856   4.897  0.3380  0.4847  0.2589
  597MOL0     O82272   9.169   4.985   4.943  0.7132 -0.3636  0.3311
  597MOL0     C82273   9.289   4.996   4.997  0.4976 -0.0964  0.1700
  597MOL0     C82274   9.335   5.123   5.015 -1.1298  0.2123 -0.5079
  597MOL0     C82275   9.472   5.150   5.048 -0.0196  0.2803 -0.0599
  597MOL0     C82276   9.511   5.296   5.073  0.2536 -1.1618  0.1312
  597MOL0     C82277   9.556   5.044   5.086 -0.8772 -0.0623  0.4324
  597MOL0     C82278   9.702   5.060   5.114  0.2489 -0.7478  0.4811
  597MOL0     O82279   9.768   4.941   5.107 -0.3861 -0.0233 -0.6175
  597MOL0     C82280   9.900   4.929   5.149  0.1402  0.7861  0.0259
  597MOL0     C82281  10.002   5.028   5.148  0.6300  0.3921  0.9408
  597MOL0     C82282  10.127   5.007   5.188  0.0464  0.4932  0.9552
  597MOL0     C82283  10.171   4.879   5.227  0.5712  0.3899 -0.0615
  597MOL0     O82284  10.303   4.861   5.267  0.8146 -0.1908  0.4523
  597MOL0     C82285  10.383   4.785   5.193 -0.4201 -0.0980 -0.0768
  597MOL0     C82286  10.523   4.848   5.214  0.5726  0.1870  0.1858
  597MOL0     C82287  10.625   4.751   5.147  0.3828 -0.1549 -0.6212
  597MOL0     C82288  10.753   4.828   5.153 -0.6653  0.1261 -0.0903
  597MOL0     C82289  10.877   4.728   5.129 -0.8510 -0.1642 -0.7209
  597MOL0     C82290  11.006   4.808   5.120  0.1091  0.4265 -0.0584
  597MOL0     C82291  11.139   4.727   5.109  0.5091 -0.2929  0.8476
  597MOL0     C82292  11.255   4.818   5.056 -0.0523 -0.0367  0.5663
  597MOL0    Cl82293  11.416   4.737   5.054  0.0598  0.3013  0.5382
  597MOL0     C82294  10.083   4.771   5.229 -0.0794  0.1097  0.7674
  597MOL0     C82295   9.948   4.798   5.189  0.2903  0.0502  0.2999
  597MOL0     O82296   9.764   5.173   5.121 -0.7412 -0.6607  0.0665
  597MOL0     C82297   9.505   4.908   5.092  0.4406 -0.5317 -0.4701
  597MOL0     C82298   9.371   4.888   5.038 -0.1928 -0.6238 -0.4615
  597MOL0     N82299   8.891   4.368   4.784 -0.0494 -0.2957  0.2499
  597MOL0     N82300   8.801   4.293   4.724  0.6145  0.4184 -0.8989
  597MOL0     C82301   7.698   3.874   4.494 -0.2460 -0.1892  0.2985
  597MOL0     C82302   7.613   3.771   4.530  0.2377 -0.3339 -0.1369
  597MOL0     C82303   7.187   3.583   4.642  0.9412 -0.2065  0.4690
  597MOL0     C82304   7.054   3.604   4.699 -0.8726 -0.2884 -0.3656
  597MOL0     C82305   6.955   3.504   4.715 -0.2608  0.5487  0.7519
  597MOL0     C82306   6.991   3.370   4.680 -0.3417  0.2354  0.3155
  597MOL0     O82307   6.912   3.259   4.692  0.3808  0.1460  0.5957
  597MOL0     C82308   6.786   3.280   4.737 -0.0213  0.0455 -0.5108
  597MOL0     C82309   6.729   3.148   4.774  0.4376  0.0342  0.7682
  597MOL0     C82310   6.582   3.155   4.832  0.8726  0.6230  0.2238
  597MOL0     C82311   6.520   3.028   4.899  0.1138 -0.1988  0.2270
  597MOL0     C82312   6.516   2.911   4.812  0.4257 -0.0860  0.1381
  597MOL0     C82313   6.492   2.808   4.747  0.6864 -0.8446 -0.9032
  597MOL0     C82314   7.122   3.344   4.638 -0.1160 -0.2793 -0.5563
  597MOL0     C82315   7.211   3.454   4.603  0.1156 -0.1497  0.4558
  597MOL0     C82316   7.338   3.420   4.533  0.8583  0.2146  0.8097
  597MOL0     H82317   7.335   3.964   4.558 -0.3787  0.8930 -0.0561
  597MOL0     H82318   7.501   4.142   4.509  0.9710  1.0221 -0.7017
  597MOL0     H82319   7.893   4.024   4.362 -0.5349 -2.0433  1.3802
  597MOL0     H82320   7.940   4.070   4.525  1.7446  2.0327 -0.6401
  597MOL0     H82321   7.892   4.267   4.310  2.3304  0.3376 -0.7455
  597MOL0     H82322   7.925   4.311   4.473 -0.3954  0.3004 -0.1250
  597MOL0     H82323   8.124   4.153   4.309  2.2557  2.2402 -1.3573
  597MOL0     H82324   8.124   4.316   4.333 -0.6892 -0.0329  0.0209
  597MOL0     H82325   8.134   4.275   4.595 -1.7802 -0.4115 -0.0157
  597MOL0     H82326   8.157   4.108   4.555 -1.0311 -0.4131 -2.3874
  597MOL0     H82327   8.369   4.159   4.424  2.9389  3.7384 -2.0186
  597MOL0     H82328   8.365   4.192   4.593 -0.6824  0.2053  0.5920
  597MOL0     H82329   8.352   4.370   4.343 -0.6432 -1.4513 -0.3695
  597MOL0     H82330   8.347   4.434   4.507 -4.9815 -0.7859 -0.9191
  597MOL0     H82331   8.575   4.449   4.420 -2.1457  1.1302  0.1743
  597MOL0     H82332   8.587   4.275   4.415  1.4030  0.4785  2.7998
  597MOL0     H82333   8.512   4.401   4.680 -0.5264  1.1834 -2.5332
  597MOL0     H82334   8.580   4.243   4.651  1.7811  0.6452  2.7193
  597MOL0     H82335   8.744   4.590   4.574  0.8053  1.3768 -0.0294
  597MOL0     H82336   9.054   4.616   4.676 -0.4416 -4.0729 -0.7159
  597MOL0     H82337   9.033   4.571   4.848  0.8359  1.3103  0.3207
  597MOL0     H82338   8.822   4.744   4.722 -0.3838  4.1677  1.2396
  597MOL0     H82339   8.851   4.702   4.893 -0.2159  0.8593  0.2641
  597MOL0     H82340   8.988   4.911   4.732  0.9326 -0.0743  0.3770
  597MOL0     H82341   8.914   4.927   4.885 -2.1145  1.1326 -3.0778
  597MOL0     H82342   9.097   4.805   4.992 -1.9170  2.4073  0.9417
  597MOL0     H82343   9.189   4.811   4.830  0.1647  0.2935  0.1958
  597MOL0     H82344   9.263   5.203   5.005  0.6969  2.3557  2.0168
  597MOL0     H82345   9.600   5.333   5.021 -0.0981 -0.2603  0.1521
  597MOL0     H82346   9.533   5.313   5.179  0.6677 -0.3157 -0.0834
  597MOL0     H82347   9.435   5.373   5.059  0.6199 -0.9441 -0.6907
  597MOL0     H82348   9.981   5.132   5.122 -4.1399 -0.0841  1.9189
  597MOL0     H82349  10.199   5.088   5.186  1.6063 -0.8214 -1.4393
  597MOL0     H82350  10.371   4.682   5.228  0.0621  0.1141  0.7285
  597MOL0     H82351  10.370   4.795   5.084 -1.0470 -3.8901 -0.4885
  597MOL0     H82352  10.530   4.943   5.161 -0.8918  0.3289  0.2147
  597MOL0     H82353  10.548   4.858   5.320 -1.4413 -0.2466  0.7419
  597MOL0     H82354  10.609   4.734   5.040  0.0870  1.6666 -0.8902
  597MOL0     H82355  10.624   4.657   5.203 -3.6549  1.0614  1.8215
  597MOL0     H82356  10.755   4.878   5.250 -2.1235 -0.4604  0.2764
  597MOL0     H82357  10.747   4.903   5.074 -2.3207  0.5798  0.4169
  597MOL0     H82358  10.884   4.651   5.207  3.3004 -1.4815 -2.1076
  597MOL0     H82359  10.860   4.668   5.040  0.4818  2.5283 -2.9383
  597MOL0     H82360  11.005   4.870   5.211 -1.5034  0.5450 -0.1270
  597MOL0     H82361  11.003   4.868   5.029  1.0115 -0.3593 -0.6304
  597MOL0     H82362  11.128   4.648   5.034  1.3210  0.6079 -0.2721
  597MOL0     H82363  11.148   4.680   5.207 -1.4105 -2.0778  0.2419
  597MOL0     H82364  11.247   4.913   5.110 -0.3364  0.8476 -0.9620
  597MOL0     H82365  11.231   4.853   4.955 -1.2329  0.0070  0.8524
  597MOL0     H82366  10.117   4.681   5.278  1.0731 -1.2436 -2.2709
  597MOL0     H82367   9.879   4.714   5.187  0.5958 -0.2484  1.3462
  597MOL0     H82368   9.556   4.821   5.133  2.0503  0.4252 -0.3284
  597MOL0     H82369   9.327   4.789   5.033 -2.4991  0.0752  2.9939
  597MOL0     H82370   7.793   3.833   4.462 -0.0408  0.3919  0.1531
  597MOL0     H82371   7.642   3.666   4.521 -0.5496 -0.4614 -1.5229
  597MOL0     H82372   7.028   3.704   4.731  2.4396  0.4130  0.5721
  597MOL0     H82373   6.860   3.532   4.759 -0.8420  0.7797 -0.5886
  597MOL0     H82374   6.780   3.346   4.825 -0.1659 -0.4484 -0.1465
  597MOL0     H82375   6.726   3.331   4.662  0.6992  1.0360 -0.4403
  597MOL0     H82376   6.800   3.100   4.841  1.2678 -0.6960 -0.5862
  597MOL0     H82377   6.718   3.086   4.685  0.5209  2.7454 -1.2832
  597MOL0     H82378   6.590   3.224   4.916 -0.9350  0.7517  0.3357
  597MOL0     H82379   6.512   3.198   4.760  1.7980  2.2742  0.2804
  597MOL0     H82380   6.428   3.057   4.950  0.8402 -0.8543  1.9596
  597MOL0     H82381   6.588   2.997   4.978 -0.1743  1.1362  1.0264
  597MOL0     H82382   6.461   2.720   4.695  0.4219  0.1638 -2.5054
  597MOL0     H82383   7.143   3.241   4.613  2.5607  0.3882 -1.3013
  597MOL0     H82384   7.330   3.313   4.513 -0.9566  0.3019  0.8985
  597MOL0     H82385   7.342   3.482   4.443 -1.3228 -0.2973  0.2938
  597MOL0     H82386   7.432   3.436   4.585 -0.0513  0.2720  2.5145
  598MOL0     O82387   0.135   0.568  10.910 -0.8153 -0.9985  0.4075
  598MOL0     C82388   0.053   0.504  10.848 -0.0366  0.0751  0.1810
  598MOL0     O82389   0.009   0.384  10.892 -0.2708  0.2722  0.4311
  598MOL0     C82390   0.101   0.308  10.966 -0.1064  0.6653 -0.4296
  598MOL0     C82391   0.040   0.236  11.067 -0.3150 -0.4704  0.4576
  598MOL0     C82392   0.119   0.152  11.149 -0.1137 -0.7375 -0.0478
  598MOL0     C82393   0.260   0.135  11.122  0.3917 -0.1001  0.6099
  598MOL0     O82394   0.330   0.053  11.211 -0.1053  0.4218 -0.2001
  598MOL0     C82395   0.472   0.045  11.208 -0.3365  1.0652 -0.0781
  598MOL0     C82396   0.549   0.165  11.266 -0.1137 -0.0014 -0.3710
  598MOL0     C82397   0.701   0.150  11.288  0.7391 -0.1426 -0.4299
  598MOL0     C82398   0.767   0.097  11.156 -0.0759 -1.0173  0.6314
  598MOL0     C82399   0.920   0.078  11.157 -0.9661  0.0269  0.5912
  598MOL0     C82400   1.001   0.213  11.183  0.0754  0.5651 -0.0890
  598MOL0     C82401   1.155   0.197  11.147 -0.8328 -0.5933 -0.8221
  598MOL0     C82402   1.191   0.231  11.000 -0.1883 -0.9813 -0.0340
  598MOL0     N82403   1.320   0.178  10.959  0.0283 -0.0094  0.1189
  598MOL0     C82404   1.382   0.199  10.835 -1.0279 -0.2025  0.0556
  598MOL0     C82405   1.495   0.125  10.825  0.2552  0.4710  0.1864
  598MOL0     C82406   1.580   0.122  10.706 -0.3924 -0.7417  0.4952
  598MOL0     C82407   1.727   0.152  10.737 -0.6847 -0.3851  0.1828
  598MOL0     C82408   1.819   0.175  10.613  0.1525 -0.3433 -0.2813
  598MOL0     C82409   1.959   0.227  10.661  0.1821  0.6993  0.8064
  598MOL0     O82410   2.039   0.187  10.545  0.3513 -0.4138 -0.6015
  598MOL0     C82411   2.063   0.285  10.450  0.0311  1.4164 -0.4701
  598MOL0     C82412   2.160   0.258  10.353 -0.7331  0.1417 -1.0011
  598MOL0     C82413   2.187   0.341  10.245  0.4575  0.4809 -0.2942
  598MOL0     C82414   2.301   0.296  10.161  0.2661 -0.0041 -0.1296
  598MOL0     C82415   2.116   0.455  10.232 -0.6068  0.3037  0.5087
  598MOL0     C82416   2.137   0.565  10.136 -0.2264 -0.3945 -0.2345
  598MOL0     O82417   2.224   0.545  10.032 -0.2977  0.3066  0.6285
  598MOL0     C82418   2.305   0.646   9.986  0.7575 -0.7115  0.6585
  598MOL0     C82419   2.385   0.703  10.074 -0.4220 -0.4881 -0.0176
  598MOL0     C82420   2.479   0.796  10.027  0.1184  0.6517 -0.2395
  598MOL0     C82421   2.469   0.844   9.889 -0.1293 -0.2421  0.3820
  598MOL0     O82422   2.552   0.945   9.846 -0.6589 -0.0217 -0.1461
  598MOL0     C82423   2.564   0.974   9.703 -0.5579 -0.8982  0.0904
  598MOL0     C82424   2.674   1.079   9.679  0.3984  0.1032 -0.0640
  598MOL0     C82425   2.815   1.026   9.721  0.2297 -0.3533  0.7900
  598MOL0     C82426   2.916   1.127   9.663  0.5260  0.3805 -0.1161
  598MOL0     C82427   3.063   1.103   9.692 -0.1466 -0.5196  0.7640
  598MOL0     C82428   3.139   1.221   9.625  0.8097  0.6778 -0.6858
  598MOL0     C82429   3.291   1.217   9.631  0.0125  0.2718 -0.3350
  598MOL0     C82430   3.363   1.333   9.559 -0.2270 -0.6543 -0.4753
  598MOL0    Cl82431   3.507   1.266   9.473 -0.1550 -0.4186  0.3055
  598MOL0     C82432   2.386   0.779   9.801  0.9790  0.0971  0.4617
  598MOL0     C82433   2.300   0.678   9.848 -0.0597 -0.9259  0.2104
  598MOL0     O82434   2.086   0.675  10.157  0.6610 -0.0539  0.5706
  598MOL0     C82435   2.025   0.490  10.330  1.2681  0.1592 -0.3019
  598MOL0     C82436   1.995   0.407  10.438 -0.1098 -1.3324  0.2117
  598MOL0     N82437   1.497   0.055  10.940  0.3347  0.4954  0.1988
  598MOL0     N82438   1.399   0.086  11.021 -0.1864  0.1970 -0.4075
  598MOL0     C82439   0.315   0.205  11.010 -0.0808 -0.1082 -0.1115
  598MOL0     C82440   0.236   0.283  10.929  0.4519 -0.4327  0.6799
  598MOL0     C82441  -0.017   0.563  10.731 -0.4307  0.5462  0.2463
  598MOL0     C82442  -0.135   0.496  10.685  0.3227 -0.1443 -0.9059
  598MOL0     C82443  -0.198   0.545  10.568  0.1394  0.3010 -0.7434
  598MOL0     C82444  -0.162   0.670  10.515  0.5087 -0.7963  0.4191
  598MOL0     O82445  -0.232   0.743  10.414  0.6919  0.0663  0.9279
  598MOL0     C82446  -0.342   0.680  10.349 -0.5142 -0.7448 -0.0533
  598MOL0     C82447  -0.419   0.770  10.255  1.3587  0.4623  0.6393
  598MOL0     C82448  -0.521   0.861  10.319  0.1150 -0.4280  0.3868
  598MOL0     C82449  -0.607   0.928  10.206  0.0221 -0.4252 -0.0651
  598MOL0     C82450  -0.690   1.025  10.276 -0.7018  0.4756  0.1350
  598MOL0     C82451  -0.753   1.104  10.340 -0.5352 -0.3590 -0.7970
  598MOL0     C82452  -0.054   0.733  10.560 -0.7036  0.8757 -0.2647
  598MOL0     C82453   0.018   0.683  10.664 -0.0523 -0.6281 -0.3762
  598MOL0     C82454   0.140   0.769  10.705 -0.4453  0.5724  0.5144
  598MOL0     H82455  -0.065   0.238  11.092  0.2146  4.2470  3.5149
  598MOL0     H82456   0.074   0.095  11.230 -0.4290  0.9533  1.0153
  598MOL0     H82457   0.510   0.009  11.112  1.1703 -1.1146  1.2494
  598MOL0     H82458   0.490  -0.044  11.269 -0.3079 -1.5513 -3.5641
  598MOL0     H82459   0.536   0.240  11.188  1.1099  0.5039 -0.1119
  598MOL0     H82460   0.505   0.194  11.362  1.7486  1.6824  0.0223
  598MOL0     H82461   0.743   0.249  11.308  0.6439  0.3624 -2.4773
  598MOL0     H82462   0.716   0.071  11.362 -1.8349 -1.5899 -1.3199
  598MOL0     H82463   0.711   0.013  11.114 -0.7100 -0.0086 -0.6077
  598MOL0     H82464   0.759   0.178  11.083  1.2657 -0.3496  1.1957
  598MOL0     H82465   0.955   0.047  11.059  0.4068  0.4371  0.9321
  598MOL0     H82466   0.950  -0.001  11.226 -0.8746 -0.0694  0.4405
  598MOL0     H82467   0.950   0.293  11.128 -1.7085 -0.0151  0.6397
  598MOL0     H82468   0.990   0.240  11.288  0.1479 -0.1441  0.0997
  598MOL0     H82469   1.176   0.092  11.170 -2.8032 -0.8362  0.0211
  598MOL0     H82470   1.216   0.250  11.221 -0.5929 -2.8545  0.6838
  598MOL0     H82471   1.118   0.188  10.932 -1.4479 -0.2920  0.8358
  598MOL0     H82472   1.183   0.341  11.000  1.2582 -0.8232 -1.8319
  598MOL0     H82473   1.347   0.275  10.766 -1.0750  0.6398  0.9800
  598MOL0     H82474   1.544   0.198  10.636  1.4603 -2.3647 -2.4202
  598MOL0     H82475   1.584   0.020  10.667  0.2392 -1.5776  2.5710
  598MOL0     H82476   1.740   0.232  10.811 -1.5621  0.9894 -1.0845
  598MOL0     H82477   1.770   0.063  10.783  3.6622 -0.9884 -4.2392
  598MOL0     H82478   1.815   0.082  10.556 -1.2205 -1.9164  2.2110
  598MOL0     H82479   1.775   0.251  10.547 -0.0934 -0.0706  0.1938
  598MOL0     H82480   1.959   0.332  10.690 -3.9962  0.4422  2.3868
  598MOL0     H82481   1.998   0.167  10.744 -1.7421 -1.6198  0.1683
  598MOL0     H82482   2.215   0.166  10.368 -0.6722  0.5540  1.8097
  598MOL0     H82483   2.373   0.379  10.153 -0.3571  0.6725  1.0950
  598MOL0     H82484   2.256   0.268  10.065  0.4551 -1.9297  0.3116
  598MOL0     H82485   2.352   0.209  10.203 -0.0484 -0.7209 -1.1982
  598MOL0     H82486   2.375   0.671  10.178  0.8867 -0.8932  0.0031
  598MOL0     H82487   2.541   0.841  10.103  0.2693 -1.5730  1.0448
  598MOL0     H82488   2.579   0.887   9.638  0.3190  0.4392 -1.5762
  598MOL0     H82489   2.468   1.013   9.670 -0.9153 -1.7995  0.0246
  598MOL0     H82490   2.687   1.107   9.575  0.7061 -0.5464 -0.2033
  598MOL0     H82491   2.651   1.164   9.744  0.5649 -0.2333  0.4432
  598MOL0     H82492   2.826   0.929   9.673  0.3073 -1.5562  3.1038
  598MOL0     H82493   2.806   1.031   9.830 -3.0068 -0.9128  0.6289
  598MOL0     H82494   2.888   1.229   9.691  1.0862  0.8822 -1.3116
  598MOL0     H82495   2.907   1.117   9.554 -1.1009 -0.8556  0.0824
  598MOL0     H82496   3.078   1.101   9.801 -1.7925  1.0601  1.0750
  598MOL0     H82497   3.082   1.004   9.650  1.4215 -0.0149  0.2076
  598MOL0     H82498   3.108   1.313   9.674 -0.2626  0.1884 -0.4034
  598MOL0     H82499   3.108   1.223   9.520 -0.1056  1.3320 -0.4056
  598MOL0     H82500   3.322   1.122   9.587  1.5043  0.6235 -0.0656
  598MOL0     H82501   3.323   1.217   9.736  2.1761  1.6802 -0.9417
  598MOL0     H82502   3.381   1.415   9.630 -2.9140 -1.8675  1.8154
  598MOL0     H82503   3.295   1.371   9.483 -2.3616 -0.6046  1.3560
  598MOL0     H82504   2.387   0.800   9.695  1.1005 -2.6499 -0.1476
  598MOL0     H82505   2.241   0.622   9.777  2.7036 -1.7155 -1.6503
  598MOL0     H82506   1.957   0.575  10.330  2.5934  1.2615 -0.2627
  598MOL0     H82507   1.916   0.446  10.502  1.4391  0.3883  1.1786
  598MOL0     H82508   0.420   0.182  10.998  1.1522  3.5975  1.8860
  598MOL0     H82509   0.278   0.313  10.834 -2.1781 -1.9951 -1.1018
  598MOL0     H82510  -0.164   0.405  10.738 -1.2767  1.9088  2.0624
  598MOL0     H82511  -0.283   0.493  10.525  1.3497 -2.3969 -0.0889
  598MOL0     H82512  -0.297   0.606  10.282  0.0583  0.5905 -1.2009
  598MOL0     H82513  -0.409   0.631  10.420 -0.3464 -3.3695 -1.5985
  598MOL0     H82514  -0.466   0.707  10.179 -0.3805  4.4637 -1.9195
  598MOL0     H82515  -0.342   0.824  10.198  0.5457  2.0140  0.9694
  598MOL0     H82516  -0.586   0.795  10.377  0.6025 -2.2781 -1.0502
  598MOL0     H82517  -0.466   0.934  10.379  1.8869 -0.5814 -0.9610
  598MOL0     H82518  -0.677   0.863  10.152 -0.5869 -1.0160  1.3694
  598MOL0     H82519  -0.551   0.973  10.123 -1.8410  0.1406 -1.0918
  598MOL0     H82520  -0.809   1.185  10.383  2.7744  0.4941  2.4000
  598MOL0     H82521  -0.028   0.822  10.505 -2.0840  1.2352 -0.3805
  598MOL0     H82522   0.158   0.849  10.632  1.3470 -0.0014  0.3006
  598MOL0     H82523   0.127   0.811  10.805  0.5444  1.0129  0.4659
  598MOL0     H82524   0.227   0.705  10.692 -1.5336 -0.6337 -1.3925
  599MOL0     O82525   4.733   5.832   8.506  0.0419 -0.4486  0.1366
  599MOL0     C82526   4.764   5.760   8.599  0.1580 -0.7559 -0.2844
  599MOL0     O82527   4.890   5.764   8.650 -0.2925  0.0412 -0.3857
  599MOL0     C82528   4.980   5.862   8.609 -0.8999 -0.4644 -0.2236
  599MOL0     C82529   4.956   6.001   8.611  0.3909 -0.2780 -0.0907
  599MOL0     C82530   5.047   6.088   8.552 -0.4053  0.4356 -1.7204
  599MOL0     C82531   5.174   6.045   8.499  0.7221 -0.0170 -0.8842
  599MOL0     O82532   5.257   6.135   8.443 -0.0348  0.3675 -0.0513
  599MOL0     C82533   5.323   6.094   8.321  0.1457 -0.2539  0.4595
  599MOL0     C82534   5.409   6.207   8.250 -0.1988  0.0030 -0.3064
  599MOL0     C82535   5.320   6.316   8.202  0.1870 -0.4956 -0.0150
  599MOL0     C82536   5.365   6.389   8.073 -0.1083 -0.0280  0.2623
  599MOL0     C82537   5.297   6.525   8.052 -0.2020  0.9357  0.0380
  599MOL0     C82538   5.160   6.511   7.996 -0.1199 -0.2148  0.8391
  599MOL0     C82539   5.120   6.617   7.894  0.8128 -0.3049 -0.5758
  599MOL0     C82540   4.974   6.666   7.885 -0.9277  0.0293 -1.2057
  599MOL0     N82541   4.950   6.757   7.765  0.3591  0.4995 -0.8873
  599MOL0     C82542   4.886   6.874   7.770  0.2754  0.2933 -0.2307
  599MOL0     C82543   4.869   6.909   7.640  0.2259  0.4427 -0.6729
  599MOL0     C82544   4.793   7.038   7.611 -0.8400 -0.0986 -0.3826
  599MOL0     C82545   4.741   7.044   7.470  0.3893 -0.3481  0.1286
  599MOL0     C82546   4.737   7.192   7.410  0.6988 -0.3142  0.0456
  599MOL0     C82547   4.655   7.182   7.275  0.0715 -0.0510 -0.1860
  599MOL0     O82548   4.513   7.207   7.294 -0.0312 -0.0789 -0.0729
  599MOL0     C82549   4.422   7.161   7.198 -0.7128  0.5443  0.3193
  599MOL0     C82550   4.444   7.083   7.083 -0.5880 -0.1683 -0.1349
  599MOL0     C82551   4.335   7.051   6.997  0.2184 -1.6667 -0.2464
  599MOL0     C82552   4.369   6.981   6.877 -0.2524 -0.9841  0.5910
  599MOL0     C82553   4.204   7.096   7.024 -0.2254  0.2838 -0.2418
  599MOL0     C82554   4.082   7.081   6.933  0.0001  0.0754 -0.5401
  599MOL0     O82555   3.970   7.166   6.952 -0.1300  0.6626 -0.3165
  599MOL0     C82556   3.858   7.133   6.881 -0.7855  0.2030 -0.0938
  599MOL0     C82557   3.853   7.154   6.743 -0.5714 -0.0222 -0.2863
  599MOL0     C82558   3.738   7.139   6.675  0.0189 -0.1610  0.6094
  599MOL0     C82559   3.623   7.099   6.737 -0.8853 -0.6251 -0.3408
  599MOL0     O82560   3.509   7.085   6.660 -0.4811 -0.4024 -0.2719
  599MOL0     C82561   3.381   7.069   6.730  0.2215 -0.3856 -0.1971
  599MOL0     C82562   3.269   7.036   6.634 -0.0988 -0.8296  1.2854
  599MOL0     C82563   3.276   7.122   6.502  0.0379 -0.3741  0.4727
  599MOL0     C82564   3.307   7.041   6.371 -0.0066 -0.0631 -0.5575
  599MOL0     C82565   3.300   7.126   6.244  1.2614 -0.4673  0.1010
  599MOL0     C82566   3.415   7.224   6.227 -0.1768  0.1009  0.8526
  599MOL0     C82567   3.402   7.321   6.103  0.0851 -0.5203 -0.7083
  599MOL0     C82568   3.280   7.413   6.111  0.4091  0.4661  0.6986
  599MOL0    Cl82569   3.278   7.488   5.948  0.2558  0.3144  0.0748
  599MOL0     C82570   3.626   7.081   6.878 -0.5739 -0.8719 -0.2977
  599MOL0     C82571   3.744   7.099   6.953 -0.1080 -0.0098 -0.1341
  599MOL0     O82572   4.083   6.984   6.861 -0.5546 -0.0607 -0.0751
  599MOL0     C82573   4.186   7.172   7.138 -0.5599 -0.0754  0.4793
  599MOL0     C82574   4.290   7.196   7.227 -0.6256  0.2862 -0.3307
  599MOL0     N82575   4.937   6.820   7.561  0.0913  0.2653 -0.0237
  599MOL0     N82576   4.980   6.729   7.634 -0.2691  0.0126 -0.3077
  599MOL0     C82577   5.197   5.905   8.498  0.3024  0.4208  0.0992
  599MOL0     C82578   5.105   5.819   8.552 -0.4234 -0.3852  0.5152
  599MOL0     C82579   4.666   5.671   8.664  0.1376 -0.1755 -0.8644
  599MOL0     C82580   4.721   5.559   8.731  0.2362 -0.5187 -0.5226
  599MOL0     C82581   4.641   5.465   8.791 -0.2328 -0.1405 -1.0411
  599MOL0     C82582   4.508   5.487   8.802 -0.3462 -0.2278  0.6839
  599MOL0     O82583   4.444   5.391   8.872 -0.3330  0.6043 -0.4134
  599MOL0     C82584   4.320   5.427   8.935  0.6649 -0.0076  0.1928
  599MOL0     C82585   4.258   5.323   9.021  0.2187 -1.2268 -0.4959
  599MOL0     C82586   4.323   5.301   9.159  1.3003  0.0625 -0.7471
  599MOL0     C82587   4.231   5.229   9.252  0.1861  0.1321 -0.2918
  599MOL0     C82588   4.310   5.203   9.377 -1.0716  0.0656  0.4232
  599MOL0     C82589   4.364   5.168   9.480  0.7204  0.7739 -0.2033
  599MOL0     C82590   4.454   5.600   8.748 -0.1405  0.0986  0.0209
  599MOL0     C82591   4.530   5.693   8.675  0.2372  0.2988  1.2400
  599MOL0     C82592   4.453   5.810   8.612 -0.1514 -0.3767 -0.2906
  599MOL0     H82593   4.863   6.032   8.658  0.5195 -1.5349  1.0834
  599MOL0     H82594   5.014   6.191   8.554 -2.3704 -0.1396 -1.6564
  599MOL0     H82595   5.252   6.046   8.254  0.8442 -1.5947  0.6586
  599MOL0     H82596   5.395   6.017   8.351  0.3979 -0.5269 -0.8154
  599MOL0     H82597   5.469   6.244   8.334  2.5163 -1.1834 -1.5726
  599MOL0     H82598   5.479   6.158   8.182 -0.1741  0.9153 -0.9425
  599MOL0     H82599   5.222   6.279   8.173 -1.4805  4.1296 -1.1265
  599MOL0     H82600   5.319   6.392   8.280 -3.9598 -0.9330  0.5540
  599MOL0     H82601   5.473   6.401   8.066  0.2164 -2.9983 -1.4007
  599MOL0     H82602   5.338   6.319   7.993 -1.6241  0.0871  0.6328
  599MOL0     H82603   5.364   6.592   7.996  1.6157  0.2733  1.3503
  599MOL0     H82604   5.296   6.574   8.150  1.2454  0.8627  0.1056
  599MOL0     H82605   5.143   6.409   7.961 -1.4553  0.1657  0.3222
  599MOL0     H82606   5.089   6.524   8.078 -2.2267  2.3494 -1.2170
  599MOL0     H82607   5.143   6.572   7.796  2.2637  2.2748 -1.5258
  599MOL0     H82608   5.184   6.703   7.914  1.9942 -1.2147 -0.3320
  599MOL0     H82609   4.914   6.575   7.880  0.2240 -0.7727 -1.0084
  599MOL0     H82610   4.948   6.715   7.979  3.1635  2.1919 -0.9357
  599MOL0     H82611   4.840   6.934   7.849  0.1553 -0.0026 -0.0745
  599MOL0     H82612   4.856   7.126   7.624 -2.6870  1.1062  0.8800
  599MOL0     H82613   4.709   7.043   7.681  0.5089  1.3385  1.2141
  599MOL0     H82614   4.812   6.999   7.399  0.4751  0.6849 -0.4629
  599MOL0     H82615   4.650   6.983   7.469  0.0043  0.1557  2.0406
  599MOL0     H82616   4.688   7.261   7.479  0.4007 -1.0604  0.6018
  599MOL0     H82617   4.837   7.226   7.386 -0.5920  3.4595 -0.5720
  599MOL0     H82618   4.683   7.256   7.199 -1.2111  0.9325  0.2625
  599MOL0     H82619   4.676   7.082   7.236 -1.5084  0.3429 -2.2151
  599MOL0     H82620   4.541   7.045   7.055 -0.9671 -1.0464 -0.2879
  599MOL0     H82621   4.306   7.008   6.792  1.8848 -0.4692 -0.9049
  599MOL0     H82622   4.352   6.874   6.896  0.4995 -1.2110  0.0346
  599MOL0     H82623   4.474   6.995   6.852 -0.8123  1.4426 -0.6956
  599MOL0     H82624   3.942   7.183   6.689 -1.7541 -0.0915 -2.3800
  599MOL0     H82625   3.736   7.177   6.573  2.2152  1.4429  1.1027
  599MOL0     H82626   3.392   6.994   6.809  1.5626  1.4308  1.4209
  599MOL0     H82627   3.369   7.169   6.773 -0.8620 -0.0190 -1.2823
  599MOL0     H82628   3.264   6.929   6.613  0.6209 -0.5245 -0.6871
  599MOL0     H82629   3.173   7.061   6.680  0.3187 -0.6980  2.1064
  599MOL0     H82630   3.344   7.207   6.512 -2.8539  2.6315 -2.6162
  599MOL0     H82631   3.180   7.172   6.486 -1.1175 -2.5573  0.1493
  599MOL0     H82632   3.227   6.971   6.346 -1.8795  2.2546 -1.4354
  599MOL0     H82633   3.407   6.999   6.369  0.4305  0.9769 -1.9501
  599MOL0     H82634   3.297   7.052   6.163 -0.5686  1.2783 -1.5535
  599MOL0     H82635   3.199   7.169   6.243  0.5554 -2.0528  0.1634
  599MOL0     H82636   3.502   7.162   6.203 -0.1007  0.2073  0.8521
  599MOL0     H82637   3.437   7.282   6.316  1.2098  1.3004 -0.2228
  599MOL0     H82638   3.391   7.269   6.007 -1.3978  0.4305 -1.0810
  599MOL0     H82639   3.496   7.377   6.105  1.6476 -2.9444 -1.6727
  599MOL0     H82640   3.294   7.483   6.194 -1.2428  0.1595  1.2671
  599MOL0     H82641   3.183   7.367   6.133  0.4404  1.2883  2.8278
  599MOL0     H82642   3.536   7.053   6.933  0.5056 -1.4296  1.2295
  599MOL0     H82643   3.769   7.080   7.057  0.3045 -0.5972 -0.3333
  599MOL0     H82644   4.085   7.202   7.162 -0.5280 -0.0259  0.5511
  599MOL0     H82645   4.262   7.253   7.315 -0.8354 -2.5509  1.5607
  599MOL0     H82646   5.299   5.872   8.482  1.3943  2.6739  1.7741
  599MOL0     H82647   5.124   5.712   8.558  2.0137  0.0253  1.5688
  599MOL0     H82648   4.829   5.556   8.723  0.5313  1.9651  1.4837
  599MOL0     H82649   4.687   5.381   8.840  0.5745 -0.6793 -2.6327
  599MOL0     H82650   4.344   5.511   8.999 -1.1614  1.5955 -1.1078
  599MOL0     H82651   4.246   5.464   8.862  0.4597  0.6389  0.7228
  599MOL0     H82652   4.251   5.224   8.975  1.3979 -2.0256  0.9713
  599MOL0     H82653   4.155   5.359   9.032  1.0521  1.3105 -0.3928
  599MOL0     H82654   4.419   5.250   9.144  1.5015  0.3900 -0.5706
  599MOL0     H82655   4.333   5.398   9.209 -3.7468  0.9351 -0.8942
  599MOL0     H82656   4.187   5.136   9.214 -0.6234  0.7410 -0.8784
  599MOL0     H82657   4.145   5.296   9.263  0.4930  0.9808 -2.4316
  599MOL0     H82658   4.396   5.137   9.577 -1.0627 -0.4824  0.0464
  599MOL0     H82659   4.348   5.622   8.757  0.1983  2.0101 -0.1574
  599MOL0     H82660   4.503   5.866   8.533  1.4560 -1.9159 -0.4299
  599MOL0     H82661   4.373   5.756   8.560 -0.3213  1.5704 -2.1829
  599MOL0     H82662   4.414   5.878   8.688 -0.2667  1.0675 -1.6120
  600MOL0     O82663   6.948   2.673   7.486  0.2822  0.0800  0.3949
  600MOL0     C82664   6.876   2.733   7.561  0.9202  0.5384 -0.1554
  600MOL0     O82665   6.916   2.847   7.623 -0.4097 -0.9186 -1.0847
  600MOL0     C82666   7.048   2.876   7.644  0.2463 -0.2541 -0.1562
  600MOL0     C82667   7.128   2.782   7.705 -0.7962  0.1056  0.2489
  600MOL0     C82668   7.263   2.804   7.736 -0.4243  0.2834  0.6220
  600MOL0     C82669   7.327   2.923   7.694  0.1020  0.4662  0.6384
  600MOL0     O82670   7.464   2.934   7.710 -0.0699 -0.1233 -0.0937
  600MOL0     C82671   7.502   3.042   7.799 -0.0913  0.3176 -0.4030
  600MOL0     C82672   7.661   3.052   7.782 -0.1115 -0.3065 -0.4236
  600MOL0     C82673   7.731   3.104   7.904  0.4153 -0.5490 -1.3055
  600MOL0     C82674   7.871   3.163   7.883  0.0334  0.1609 -0.0824
  600MOL0     C82675   7.969   3.054   7.849  0.7291  0.3650  0.7481
  600MOL0     C82676   8.019   2.979   7.971  0.0667  0.1907 -0.1419
  600MOL0     C82677   8.093   2.849   7.955  0.4454  0.9725  0.1987
  600MOL0     C82678   8.052   2.743   8.055  0.0841  0.5349  0.8325
  600MOL0     N82679   8.113   2.765   8.189  0.1437 -0.4807  0.1095
  600MOL0     C82680   8.053   2.829   8.294  0.4919  0.2822 -0.7493
  600MOL0     C82681   8.138   2.821   8.397  0.0521  0.1223 -0.1823
  600MOL0     C82682   8.119   2.885   8.537 -0.0938 -0.4240  0.0156
  600MOL0     C82683   8.060   2.787   8.643 -0.3661  1.1534 -0.1052
  600MOL0     C82684   7.913   2.731   8.635 -0.1389 -0.9879 -0.4705
  600MOL0     C82685   7.890   2.634   8.748 -0.1222  0.2780 -0.1675
  600MOL0     O82686   7.869   2.717   8.865 -0.1448  0.5899 -1.1528
  600MOL0     C82687   7.836   2.641   8.980 -0.3513  0.7295  0.1317
  600MOL0     C82688   7.933   2.579   9.057 -0.5885 -0.9161 -0.6531
  600MOL0     C82689   7.908   2.489   9.160  0.4257  0.0975  0.8982
  600MOL0     C82690   8.028   2.423   9.226  0.4686 -0.6054  0.5435
  600MOL0     C82691   7.768   2.472   9.205 -1.3002  0.1385  0.1579
  600MOL0     C82692   7.734   2.387   9.318  1.0511  0.8455 -0.4569
  600MOL0     O82693   7.591   2.375   9.340 -0.3397  0.0693 -0.1551
  600MOL0     C82694   7.551   2.324   9.461 -0.3314 -0.3527 -0.6430
  600MOL0     C82695   7.499   2.199   9.471  0.6168 -0.1706  0.4064
  600MOL0     C82696   7.448   2.147   9.591 -0.2176 -0.4097  0.4924
  600MOL0     C82697   7.435   2.233   9.698 -0.2672 -0.4744  0.1491
  600MOL0     O82698   7.399   2.200   9.826 -0.2861  0.9624  0.3845
  600MOL0     C82699   7.447   2.069   9.872 -0.2245  0.1959  0.6669
  600MOL0     C82700   7.347   1.953   9.865  0.2326 -0.1171 -0.7415
  600MOL0     C82701   7.375   1.843   9.977 -0.1580 -0.0941  0.4808
  600MOL0     C82702   7.521   1.797   9.976 -0.0202  0.2612 -0.1751
  600MOL0     C82703   7.550   1.711  10.099  0.3025  0.1546 -1.1362
  600MOL0     C82704   7.698   1.675  10.103 -0.3077  0.1691  0.4609
  600MOL0     C82705   7.745   1.570  10.193 -0.0875 -0.3684  0.3290
  600MOL0     C82706   7.892   1.573  10.231 -0.5944 -0.6003 -0.0218
  600MOL0    Cl82707   8.014   1.512  10.116 -0.5266 -0.0074 -0.1831
  600MOL0     C82708   7.488   2.360   9.689  0.3233  0.1145  0.0784
  600MOL0     C82709   7.543   2.407   9.572 -0.2845  0.9388  0.1508
  600MOL0     O82710   7.814   2.339   9.393  0.1197 -0.3913 -0.5970
  600MOL0     C82711   7.668   2.539   9.122  0.4105 -0.2397  0.0711
  600MOL0     C82712   7.705   2.624   9.015  0.3616 -0.1622 -0.7243
  600MOL0     N82713   8.239   2.749   8.360 -0.5394  0.4280  0.9546
  600MOL0     N82714   8.232   2.711   8.235 -0.8853  0.1390 -0.0599
  600MOL0     C82715   7.244   3.026   7.639  0.1408  1.1641  0.3852
  600MOL0     C82716   7.105   2.996   7.611 -1.0054  0.6011 -0.4356
  600MOL0     C82717   6.729   2.698   7.584  0.4528  0.6282 -0.3938
  600MOL0     C82718   6.643   2.786   7.658  0.2647  0.2101  1.1654
  600MOL0     C82719   6.506   2.765   7.657 -0.4993 -0.1484 -0.5215
  600MOL0     C82720   6.460   2.645   7.599  0.3274 -0.0127 -0.4763
  600MOL0     O82721   6.332   2.607   7.617 -0.5238  0.3120  0.1688
  600MOL0     C82722   6.228   2.692   7.667  0.5036  0.0514  0.7276
  600MOL0     C82723   6.098   2.613   7.628  0.2676 -0.2416  0.2943
  600MOL0     C82724   5.983   2.682   7.707 -0.2725 -0.4142  0.2179
  600MOL0     C82725   5.858   2.597   7.687  0.6851 -0.7784 -0.1239
  600MOL0     C82726   5.766   2.664   7.589  0.0950 -0.3219 -0.4415
  600MOL0     C82727   5.715   2.725   7.494 -0.6450  0.0528 -1.5101
  600MOL0     C82728   6.545   2.549   7.532  0.5653 -0.6105 -0.3107
  600MOL0     C82729   6.678   2.575   7.523 -1.6539 -0.4246  0.1439
  600MOL0     C82730   6.762   2.474   7.442  0.3780 -0.2145  0.4345
  600MOL0     H82731   7.083   2.692   7.746 -0.3552  0.4266  1.4827
  600MOL0     H82732   7.319   2.720   7.776 -1.3254 -0.8456 -0.4213
  600MOL0     H82733   7.477   3.007   7.900 -0.4908 -0.5687 -0.7950
  600MOL0     H82734   7.452   3.136   7.774 -0.7957  0.0114 -0.1864
  600MOL0     H82735   7.691   2.949   7.759  1.1772 -0.1742  0.5258
  600MOL0     H82736   7.680   3.109   7.691 -3.0509 -0.1542 -1.0242
  600MOL0     H82737   7.679   3.195   7.936  0.5485 -0.4862 -1.2657
  600MOL0     H82738   7.728   3.041   7.994 -2.2507  1.4745  0.1841
  600MOL0     H82739   7.861   3.230   7.798  1.3612  0.2738 -0.1657
  600MOL0     H82740   7.908   3.223   7.967 -3.1943  1.5273  0.5282
  600MOL0     H82741   8.056   3.102   7.804  0.3245 -0.3183 -0.8048
  600MOL0     H82742   7.925   2.977   7.785  2.1004 -0.8566  1.2244
  600MOL0     H82743   8.083   3.043   8.033 -0.1543 -0.9461  1.3219
  600MOL0     H82744   7.931   2.970   8.035 -0.5232  0.4253 -0.9050
  600MOL0     H82745   8.200   2.874   7.960  0.5008  1.1700 -1.2907
  600MOL0     H82746   8.075   2.801   7.858 -0.9079  0.3674  0.7347
  600MOL0     H82747   7.945   2.723   8.063  0.4925 -2.2625  0.3509
  600MOL0     H82748   8.095   2.653   8.009  0.7667 -0.0031  2.4455
  600MOL0     H82749   7.951   2.865   8.307  0.4557 -0.5774  1.8439
  600MOL0     H82750   8.056   2.974   8.541 -0.3222 -0.5576 -0.5267
  600MOL0     H82751   8.220   2.901   8.575 -0.0979  0.3023 -0.2743
  600MOL0     H82752   8.136   2.709   8.651  1.8611  3.2717  0.3001
  600MOL0     H82753   8.074   2.840   8.737  1.5539  0.7417 -0.1239
  600MOL0     H82754   7.840   2.813   8.639  0.7472 -0.1837 -0.5322
  600MOL0     H82755   7.905   2.690   8.534  0.4843  0.6876 -1.2359
  600MOL0     H82756   7.801   2.572   8.732  0.2183 -0.4999  0.8298
  600MOL0     H82757   7.977   2.567   8.754  1.1767  2.0007  1.6127
  600MOL0     H82758   8.037   2.593   9.028  0.3394 -1.2361  2.1729
  600MOL0     H82759   8.021   2.315   9.215  0.1361 -0.6702  1.3932
  600MOL0     H82760   8.042   2.451   9.330 -1.9017 -0.0723  0.7667
  600MOL0     H82761   8.116   2.448   9.166 -0.9818  1.3014 -0.9595
  600MOL0     H82762   7.499   2.135   9.383 -1.9657  2.2445 -1.5626
  600MOL0     H82763   7.425   2.042   9.604  1.3111 -0.8672 -0.2259
  600MOL0     H82764   7.538   2.034   9.822  1.0212  3.4234  0.4491
  600MOL0     H82765   7.472   2.087   9.977 -0.1551 -0.1756  0.7149
  600MOL0     H82766   7.245   1.993   9.865 -0.9350 -2.8795 -0.1984
  600MOL0     H82767   7.363   1.904   9.769 -2.5260 -0.1020 -1.2997
  600MOL0     H82768   7.316   1.752   9.969  0.0451 -0.2525  0.7604
  600MOL0     H82769   7.352   1.885  10.076  0.7926  1.6867 -0.0195
  600MOL0     H82770   7.589   1.882   9.973 -0.1579  0.3482 -0.9598
  600MOL0     H82771   7.535   1.744   9.882 -0.3333 -1.8942  0.9193
  600MOL0     H82772   7.529   1.761  10.194  4.8026  1.3879 -0.5713
  600MOL0     H82773   7.499   1.614  10.099 -0.5070  0.5711 -0.4099
  600MOL0     H82774   7.760   1.764  10.119 -0.4994  0.2435  0.7969
  600MOL0     H82775   7.735   1.645  10.004  1.8040 -1.0726  1.5434
  600MOL0     H82776   7.722   1.470  10.156 -2.3468 -0.5328  2.0377
  600MOL0     H82777   7.688   1.585  10.284  2.2952  0.3223  1.8064
  600MOL0     H82778   7.906   1.518  10.324 -1.6127 -4.7714 -2.0919
  600MOL0     H82779   7.914   1.679  10.246 -1.8074 -0.2921 -0.2932
  600MOL0     H82780   7.471   2.424   9.774  1.0050 -0.1854  0.4531
  600MOL0     H82781   7.585   2.508   9.568  1.0198  0.3835 -2.5340
  600MOL0     H82782   7.563   2.516   9.136 -0.3535  1.1120 -2.6551
  600MOL0     H82783   7.629   2.666   8.950 -0.5364  1.0173  1.0029
  600MOL0     H82784   7.296   3.114   7.601  1.7187  0.9621  1.9723
  600MOL0     H82785   7.053   3.055   7.537  1.4093  1.6108 -1.4629
  600MOL0     H82786   6.687   2.884   7.675 -1.1735  1.8607 -3.2684
  600MOL0     H82787   6.447   2.833   7.717  0.0446 -0.2859  0.1840
  600MOL0     H82788   6.252   2.702   7.773  0.2747 -0.6273  0.8503
  600MOL0     H82789   6.237   2.790   7.619  1.0712  0.3210  1.3685
  600MOL0     H82790   6.108   2.507   7.655 -1.0374 -0.5452 -0.3659
  600MOL0     H82791   6.076   2.611   7.521  0.3770 -0.5216  0.2748
  600MOL0     H82792   6.006   2.681   7.814  0.4822 -0.6942  0.0578
  600MOL0     H82793   5.974   2.786   7.673  0.9406 -0.7346 -1.1856
  600MOL0     H82794   5.805   2.580   7.781 -0.0708 -0.9255 -0.5657
  600MOL0     H82795   5.884   2.500   7.644 -1.8361 -1.3426 -0.5019
  600MOL0     H82796   5.677   2.771   7.404 -0.2171  0.6835 -1.3782
  600MOL0     H82797   6.505   2.456   7.491  2.2849 -0.5370 -2.3265
  600MOL0     H82798   6.817   2.526   7.362  2.8827 -3.0682  0.1015
  600MOL0     H82799   6.833   2.414   7.499  0.3270 -1.5800 -0.8885
  600MOL0     H82800   6.701   2.398   7.392  3.4860 -2.3238 -0.4136
  601MOL0     O82801   1.749   3.148   5.849  0.1023  0.1421  0.1985
  601MOL0     C82802   1.748   3.096   5.962  0.0825  0.2016  1.1266
  601MOL0     O82803   1.862   3.081   6.040  0.1667 -0.1198 -1.0692
  601MOL0     C82804   1.975   3.141   5.998  0.4054 -1.0493 -0.5935
  601MOL0     C82805   2.057   3.103   5.891  0.2312 -0.0533 -1.0926
  601MOL0     C82806   2.177   3.160   5.865  0.1968 -0.0323 -0.1751
  601MOL0     C82807   2.226   3.264   5.949 -0.1377 -0.6223 -0.0270
  601MOL0     O82808   2.350   3.330   5.948 -0.4609 -0.4688 -0.1222
  601MOL0     C82809   2.439   3.293   5.838 -0.5632  0.0068 -0.1439
  601MOL0     C82810   2.542   3.405   5.849  0.4228 -0.4165 -0.1687
  601MOL0     C82811   2.663   3.380   5.760 -0.9572 -0.3055 -0.3521
  601MOL0     C82812   2.765   3.284   5.828 -0.3160 -0.1230 -0.5857
  601MOL0     C82813   2.901   3.290   5.761 -0.2343  0.6887  0.3696
  601MOL0     C82814   2.996   3.196   5.829  0.2333  0.6586 -0.4618
  601MOL0     C82815   3.126   3.202   5.754  0.0155 -1.0008 -0.9176
  601MOL0     C82816   3.237   3.151   5.850  0.3199  0.0309  0.3921
  601MOL0     N82817   3.360   3.212   5.823 -0.3974  0.1219  0.1949
  601MOL0     C82818   3.420   3.205   5.700 -0.1888 -0.3444  0.4526
  601MOL0     C82819   3.530   3.281   5.713 -0.6581 -0.2074 -0.3165
  601MOL0     C82820   3.638   3.327   5.612 -0.6502 -0.2649 -0.4336
  601MOL0     C82821   3.640   3.255   5.475  1.1047  0.4057  1.2155
  601MOL0     C82822   3.750   3.306   5.377  1.2215  0.4413  0.3227
  601MOL0     C82823   3.893   3.242   5.408  0.1160 -0.1325  0.3596
  601MOL0     O82824   3.897   3.103   5.379  0.2994  0.0930  0.4016
  601MOL0     C82825   4.024   3.060   5.337  0.0617  0.3670  0.0071
  601MOL0     C82826   4.148   3.126   5.341  0.0790  0.6136 -0.8401
  601MOL0     C82827   4.265   3.078   5.280  0.4887  0.2724  0.6723
  601MOL0     C82828   4.387   3.162   5.308 -0.2234  0.0056 -0.3290
  601MOL0     C82829   4.253   2.964   5.204 -0.6438 -0.1330  0.5327
  601MOL0     C82830   4.361   2.905   5.118 -0.3133  0.6559 -0.4390
  601MOL0     O82831   4.323   2.807   5.025  0.5367 -0.0316 -0.4846
  601MOL0     C82832   4.425   2.777   4.935  0.0217  0.5199 -0.5297
  601MOL0     C82833   4.424   2.821   4.809 -0.4073 -0.1640 -0.2050
  601MOL0     C82834   4.527   2.795   4.721 -0.8751  0.3222  1.0268
  601MOL0     C82835   4.628   2.709   4.754  0.2587  0.6349 -0.1319
  601MOL0     O82836   4.730   2.687   4.663  0.1636 -0.0860 -1.2424
  601MOL0     C82837   4.850   2.610   4.707  0.6263  0.0976 -1.1599
  601MOL0     C82838   4.903   2.521   4.595  0.2549 -0.0668 -0.6522
  601MOL0     C82839   5.048   2.481   4.627 -0.0858 -0.8521  0.1475
  601MOL0     C82840   5.098   2.388   4.522 -0.1057  0.3345 -0.5430
  601MOL0     C82841   5.247   2.383   4.548 -0.1874  0.6801 -0.5791
  601MOL0     C82842   5.294   2.259   4.471  0.5741 -0.7724 -0.0571
  601MOL0     C82843   5.441   2.238   4.496  0.2912 -0.0979  0.2967
  601MOL0     C82844   5.497   2.154   4.382 -0.3579 -0.4038  0.1482
  601MOL0    Cl82845   5.503   2.233   4.222 -0.0930  0.0479 -0.4751
  601MOL0     C82846   4.629   2.657   4.883  0.0246  0.6645 -0.1429
  601MOL0     C82847   4.528   2.694   4.981  0.2184  0.6740  1.2476
  601MOL0     O82848   4.474   2.939   5.132  0.4588  0.3197  0.1467
  601MOL0     C82849   4.133   2.897   5.200 -0.3859 -0.3086  0.0679
  601MOL0     C82850   4.023   2.939   5.264  0.6658  0.3771 -0.9502
  601MOL0     N82851   3.530   3.336   5.846 -0.0159 -0.0638 -0.4385
  601MOL0     N82852   3.431   3.289   5.911 -0.2031 -0.1366 -0.9767
  601MOL0     C82853   2.141   3.310   6.052 -0.0942  0.3656  0.5113
  601MOL0     C82854   2.015   3.251   6.068  0.1579  0.4922 -0.6131
  601MOL0     C82855   1.629   3.028   6.011  0.2937  0.1010  0.7179
  601MOL0     C82856   1.621   2.995   6.143 -0.6201  0.8863 -0.7723
  601MOL0     C82857   1.513   2.925   6.203 -0.2775 -0.2690  0.0922
  601MOL0     C82858   1.401   2.896   6.111 -0.0657  0.1047 -0.3814
  601MOL0     O82859   1.281   2.837   6.144 -0.2746 -0.3381  0.9587
  601MOL0     C82860   1.266   2.756   6.257 -0.4149 -0.3124 -0.1801
  601MOL0     C82861   1.191   2.626   6.230  0.2723  0.5421 -0.0905
  601MOL0     C82862   1.053   2.674   6.169  0.0774  0.8745 -0.0895
  601MOL0     C82863   0.974   2.562   6.110  0.0739 -0.4282  1.1012
  601MOL0     C82864   0.834   2.603   6.093 -0.3955  0.5466 -0.9618
  601MOL0     C82865   0.720   2.626   6.070  0.6899 -0.1166  0.5985
  601MOL0     C82866   1.403   2.937   5.978 -1.0704  0.5324  0.7113
  601MOL0     C82867   1.513   3.001   5.925 -0.6183 -1.0023  0.0901
  601MOL0     C82868   1.498   3.041   5.778 -0.6557 -0.5444 -0.0451
  601MOL0     H82869   2.017   3.022   5.830 -2.8948 -0.2815  1.0037
  601MOL0     H82870   2.230   3.134   5.774 -0.5618 -1.5794 -0.1961
  601MOL0     H82871   2.390   3.292   5.740 -3.0656 -0.8211  1.0211
  601MOL0     H82872   2.483   3.195   5.860 -2.7539 -1.0888 -0.3651
  601MOL0     H82873   2.490   3.494   5.813  1.8173  0.1001 -1.0009
  601MOL0     H82874   2.580   3.427   5.950  0.7258  1.8084 -0.7185
  601MOL0     H82875   2.636   3.335   5.664  1.9803  0.0017 -1.4150
  601MOL0     H82876   2.725   3.468   5.741  2.5126 -2.0157  1.9398
  601MOL0     H82877   2.788   3.325   5.927  1.3785 -0.4253 -0.8306
  601MOL0     H82878   2.720   3.184   5.829  2.1880 -1.3097 -0.3949
  601MOL0     H82879   2.924   3.396   5.749 -4.2300  1.7219  0.4495
  601MOL0     H82880   2.891   3.250   5.660  1.9397  1.7339 -0.3211
  601MOL0     H82881   3.003   3.222   5.935 -2.9888  2.4966 -0.5671
  601MOL0     H82882   2.963   3.092   5.825  1.9893  0.0258  0.3019
  601MOL0     H82883   3.145   3.309   5.741 -0.9130 -0.7112 -0.0170
  601MOL0     H82884   3.126   3.156   5.654 -1.4430  0.5331 -1.6780
  601MOL0     H82885   3.203   3.175   5.951 -0.8381 -4.2082  1.1851
  601MOL0     H82886   3.242   3.042   5.852 -0.5267 -0.0365 -0.2490
  601MOL0     H82887   3.389   3.149   5.612  2.6854 -0.5528 -0.5444
  601MOL0     H82888   3.731   3.310   5.668 -0.3641 -2.4102 -1.4434
  601MOL0     H82889   3.639   3.434   5.594 -1.1545 -0.3756 -1.1370
  601MOL0     H82890   3.647   3.146   5.478  0.7819  0.3137 -0.3619
  601MOL0     H82891   3.548   3.284   5.423  1.2372 -0.1924  0.6266
  601MOL0     H82892   3.719   3.285   5.274 -1.6169  1.4669  0.8763
  601MOL0     H82893   3.750   3.415   5.382 -4.3412  0.8757 -2.0517
  601MOL0     H82894   3.969   3.296   5.349  0.0763  0.2430  0.6519
  601MOL0     H82895   3.919   3.256   5.513  0.5217 -1.2235  0.4169
  601MOL0     H82896   4.163   3.219   5.396  0.1330  0.3452 -0.3974
  601MOL0     H82897   4.387   3.254   5.249  3.3043 -0.1492 -0.7470
  601MOL0     H82898   4.484   3.115   5.294  1.1489  2.8457 -1.1864
  601MOL0     H82899   4.383   3.179   5.416 -1.8769  2.0116 -0.6289
  601MOL0     H82900   4.343   2.885   4.775  0.2068 -0.6088 -2.7738
  601MOL0     H82901   4.522   2.820   4.615 -1.1700 -2.3689  0.3292
  601MOL0     H82902   4.916   2.692   4.736 -0.3216  0.1619  0.9485
  601MOL0     H82903   4.831   2.549   4.795 -2.6239  3.6798  0.9115
  601MOL0     H82904   4.849   2.426   4.601  2.3349 -1.3992 -1.8276
  601MOL0     H82905   4.887   2.578   4.503  2.2124 -1.6094 -2.0391
  601MOL0     H82906   5.040   2.419   4.716 -3.1365 -0.8077  0.0307
  601MOL0     H82907   5.099   2.577   4.640  1.9764 -2.0508  1.3619
  601MOL0     H82908   5.072   2.422   4.421 -0.4240 -0.1365 -0.6233
  601MOL0     H82909   5.047   2.292   4.536  0.3984 -0.0739 -1.4298
  601MOL0     H82910   5.287   2.478   4.513 -1.7145  1.5755  0.0104
  601MOL0     H82911   5.278   2.386   4.653  3.7962 -0.2464 -1.5519
  601MOL0     H82912   5.285   2.277   4.364 -0.9255 -0.9683  0.0074
  601MOL0     H82913   5.245   2.163   4.493  1.5315 -1.0098  1.1617
  601MOL0     H82914   5.454   2.185   4.590  3.7097  2.5740  1.5314
  601MOL0     H82915   5.493   2.334   4.504  0.1896 -0.0957  0.9671
  601MOL0     H82916   5.435   2.065   4.368  0.9747 -1.4048  0.3490
  601MOL0     H82917   5.600   2.117   4.390 -0.3514 -0.5289 -0.4560
  601MOL0     H82918   4.715   2.602   4.921  1.3484  0.2067 -3.5006
  601MOL0     H82919   4.523   2.650   5.080  1.2599  3.3426  2.5975
  601MOL0     H82920   4.123   2.795   5.162 -0.8757 -1.1118  2.2090
  601MOL0     H82921   3.931   2.883   5.255  0.4355  0.8865 -1.9486
  601MOL0     H82922   2.176   3.391   6.115 -2.0782  1.7598 -0.1017
  601MOL0     H82923   1.958   3.297   6.148  3.1311  2.3051  0.6221
  601MOL0     H82924   1.700   3.026   6.210  0.3290 -0.5396 -1.1814
  601MOL0     H82925   1.517   2.902   6.309  2.1010  1.3846  0.4475
  601MOL0     H82926   1.362   2.728   6.301 -1.0357  1.4420  2.5675
  601MOL0     H82927   1.210   2.815   6.330 -0.7349 -0.2280 -0.4931
  601MOL0     H82928   1.172   2.573   6.324 -3.2892 -1.5793 -1.7768
  601MOL0     H82929   1.246   2.562   6.159 -2.4961 -2.2115  0.0390
  601MOL0     H82930   1.004   2.730   6.250 -0.8837  0.4236 -0.3388
  601MOL0     H82931   1.075   2.749   6.092  3.7710  1.5942  1.4887
  601MOL0     H82932   0.967   2.476   6.178  1.5712 -1.0670  0.4625
  601MOL0     H82933   1.023   2.539   6.016 -0.0762  3.2313 -0.0318
  601MOL0     H82934   0.617   2.645   6.046 -0.0900 -1.9371  2.2396
  601MOL0     H82935   1.324   2.907   5.910  0.1352 -2.3957  0.4454
  601MOL0     H82936   1.561   2.976   5.716  0.4743 -0.3359  0.8478
  601MOL0     H82937   1.395   3.030   5.743 -1.6373  3.1730  1.2509
  601MOL0     H82938   1.524   3.147   5.769 -0.9363 -0.5476 -0.9281
  602MOL0     O82939   0.154   6.870  10.119  0.1338 -0.4060  0.0010
  602MOL0     C82940   0.202   6.882  10.233 -0.8665 -0.5984 -0.6316
  602MOL0     O82941   0.158   6.825  10.348  0.1284  0.0141  0.2890
  602MOL0     C82942   0.063   6.719  10.344 -0.3919  0.0491  0.2657
  602MOL0     C82943   0.066   6.618  10.247  0.7666  0.3916 -0.2845
  602MOL0     C82944  -0.021   6.509  10.247  0.1024  0.2157 -0.4257
  602MOL0     C82945  -0.124   6.516  10.344  1.3753 -0.1643 -0.4843
  602MOL0     O82946  -0.236   6.427  10.338  0.2251  0.2940  0.3386
  602MOL0     C82947  -0.245   6.304  10.257 -0.2067 -0.0469  0.6329
  602MOL0     C82948  -0.389   6.256  10.230  0.5052  0.4799 -0.1302
  602MOL0     C82949  -0.454   6.213  10.364  1.0188 -0.2565  0.6608
  602MOL0     C82950  -0.608   6.228  10.359  0.2696 -0.3813  0.3683
  602MOL0     C82951  -0.672   6.147  10.471 -0.4104 -0.3824 -0.0980
  602MOL0     C82952  -0.675   6.231  10.603  0.1073 -0.3441  0.1745
  602MOL0     C82953  -0.760   6.143  10.694  0.1140 -0.5678  0.1893
  602MOL0     C82954  -0.815   6.210  10.819  0.5176 -0.5302  0.5097
  602MOL0     N82955  -0.713   6.183  10.919 -0.0520 -0.3140 -0.6153
  602MOL0     C82956  -0.611   6.268  10.954  0.3147  0.3819  0.6378
  602MOL0     C82957  -0.567   6.228  11.070 -0.1505  0.2700  0.8120
  602MOL0     C82958  -0.453   6.285  11.149 -0.8685 -0.6213 -0.0821
  602MOL0     C82959  -0.327   6.216  11.129 -0.4823  0.5439  0.5706
  602MOL0     C82960  -0.244   6.189  11.257 -0.6659 -0.2786  0.1833
  602MOL0     C82961  -0.098   6.164  11.214 -0.8842  0.0125 -0.3285
  602MOL0     O82962  -0.017   6.103  11.314 -0.5303  0.5702  0.2447
  602MOL0     C82963   0.117   6.134  11.300  0.1416  0.2341 -0.5188
  602MOL0     C82964   0.187   6.141  11.180  0.4652 -0.1506  0.2066
  602MOL0     C82965   0.328   6.168  11.175  0.0269 -0.0857 -0.0325
  602MOL0     C82966   0.392   6.209  11.044 -0.3298 -0.5718 -0.5400
  602MOL0     C82967   0.407   6.183  11.290  1.1437  0.0189  0.0133
  602MOL0     C82968   0.552   6.187  11.304 -0.2965  0.4033 -0.6082
  602MOL0     O82969   0.600   6.250  11.417 -0.1444  0.3117 -0.3221
  602MOL0     C82970   0.733   6.288  11.433 -0.2558  0.1617 -0.3903
  602MOL0     C82971   0.813   6.333  11.329 -0.1332 -1.2599 -0.0651
  602MOL0     C82972   0.937   6.400  11.354  0.3026  0.3723  0.8156
  602MOL0     C82973   0.982   6.402  11.482  0.0632 -0.2276 -0.2051
  602MOL0     O82974   1.102   6.447  11.522 -0.0272 -0.1656  0.0608
  602MOL0     C82975   1.195   6.482  11.426 -0.2946  0.3964  0.1497
  602MOL0     C82976   1.320   6.555  11.490  0.1928  0.2084  0.1960
  602MOL0     C82977   1.421   6.595  11.383 -1.2192 -0.1340  0.5406
  602MOL0     C82978   1.509   6.706  11.431 -0.4025 -0.1185 -0.0048
  602MOL0     C82979   1.644   6.704  11.361 -0.6896  0.6280 -0.3799
  602MOL0     C82980   1.732   6.791  11.443 -0.6150  0.0965  0.7467
  602MOL0     C82981   1.878   6.778  11.385  0.3318  0.2241  0.2203
  602MOL0     C82982   1.902   6.875  11.258  0.2110 -1.4459 -0.7293
  602MOL0    Cl82983   1.864   6.788  11.104 -0.1205 -0.2554 -0.2558
  602MOL0     C82984   0.906   6.345  11.591 -0.4066  0.1583  0.6517
  602MOL0     C82985   0.777   6.310  11.560 -0.1357  0.2525 -1.1200
  602MOL0     O82986   0.622   6.115  11.231 -0.1162  0.8154  0.5471
  602MOL0     C82987   0.331   6.180  11.416 -0.6438  0.6458  0.1549
  602MOL0     C82988   0.192   6.160  11.415 -0.4419  0.2300 -0.5244
  602MOL0     N82989  -0.645   6.114  11.103 -0.2664  0.0888  0.6436
  602MOL0     N82990  -0.735   6.096  11.018 -0.1736 -0.5269  0.8062
  602MOL0     C82991  -0.128   6.615  10.442 -0.3880 -0.3015 -0.0091
  602MOL0     C82992  -0.033   6.719  10.445  0.5705 -0.6678  0.5740
  602MOL0     C82993   0.325   6.960  10.249 -0.6358  0.7125 -0.2046
  602MOL0     C82994   0.428   6.926  10.153  1.1364  0.1261  0.4853
  602MOL0     C82995   0.547   6.994  10.153  0.4636 -0.1132  0.6106
  602MOL0     C82996   0.571   7.101  10.233 -0.1418 -0.3481 -0.1306
  602MOL0     O82997   0.691   7.160  10.211 -0.8696 -0.5760  0.5185
  602MOL0     C82998   0.726   7.265  10.296 -0.5728 -0.4398  0.5704
  602MOL0     C82999   0.858   7.318  10.226 -0.3967  0.1109  0.4916
  602MOL0     C83000   0.910   7.459  10.282  0.1830  0.8051 -0.0285
  602MOL0     C83001   0.921   7.482  10.430 -0.0205 -0.9852  0.5241
  602MOL0     C83002   0.995   7.380  10.494 -0.6535  0.4012  0.0869
  602MOL0     C83003   1.056   7.290  10.548 -0.0627 -0.3225 -0.3892
  602MOL0     C83004   0.478   7.137  10.332 -0.2892  0.2358  0.2075
  602MOL0     C83005   0.359   7.061  10.345 -0.0159 -0.6596  0.7927
  602MOL0     C83006   0.264   7.092  10.446 -0.1089  0.0427 -0.2391
  602MOL0     H83007   0.134   6.628  10.163 -0.8408  3.4228 -1.3793
  602MOL0     H83008  -0.017   6.437  10.166 -0.8141 -0.1257 -0.1856
  602MOL0     H83009  -0.189   6.225  10.309  0.3815  0.4243  0.7264
  602MOL0     H83010  -0.193   6.323  10.163  1.1600  0.2585  1.4180
  602MOL0     H83011  -0.441   6.334  10.174 -0.2807 -0.6837 -1.0899
  602MOL0     H83012  -0.381   6.182  10.150 -2.7079  0.3165 -0.4416
  602MOL0     H83013  -0.424   6.110  10.387 -0.2796 -0.1888  2.9693
  602MOL0     H83014  -0.418   6.274  10.448 -1.4861  0.2941  1.4300
  602MOL0     H83015  -0.634   6.334  10.361 -0.8731 -0.6137 -0.7117
  602MOL0     H83016  -0.645   6.194  10.262 -0.5451  0.8246  0.2359
  602MOL0     H83017  -0.614   6.057  10.492  1.5533  0.7075 -0.5315
  602MOL0     H83018  -0.773   6.111  10.451 -0.7953  0.8633 -0.5125
  602MOL0     H83019  -0.578   6.243  10.651 -0.9458 -0.1655  2.3816
  602MOL0     H83020  -0.724   6.328  10.591  1.1608  0.3134  1.0617
  602MOL0     H83021  -0.708   6.050  10.719 -0.7098 -1.1849 -0.3471
  602MOL0     H83022  -0.853   6.120  10.642 -0.3317 -1.9458  1.5368
  602MOL0     H83023  -0.822   6.319  10.814 -1.0834 -0.4967  2.2582
  602MOL0     H83024  -0.913   6.172  10.849 -1.4299  2.1391 -1.9896
  602MOL0     H83025  -0.582   6.348  10.887  0.2205 -1.2428 -1.4674
  602MOL0     H83026  -0.482   6.283  11.254  1.6906  0.1217  0.7102
  602MOL0     H83027  -0.451   6.392  11.127 -1.6700  0.1662  3.1666
  602MOL0     H83028  -0.338   6.119  11.079 -1.2374  1.3368 -0.8635
  602MOL0     H83029  -0.260   6.274  11.065 -2.1963 -0.0971 -1.9486
  602MOL0     H83030  -0.239   6.278  11.321  0.0902  1.6316 -2.3441
  602MOL0     H83031  -0.287   6.108  11.315 -1.0821  0.1784  0.5224
  602MOL0     H83032  -0.106   6.112  11.118  2.0050  1.2021 -1.3144
  602MOL0     H83033  -0.052   6.260  11.190 -0.2916 -0.6359 -1.9261
  602MOL0     H83034   0.130   6.115  11.091 -3.1625 -1.5893  2.7291
  602MOL0     H83035   0.415   6.112  10.998  1.1866 -1.0091  1.0160
  602MOL0     H83036   0.483   6.269  11.057  0.9625 -1.5536 -3.8650
  602MOL0     H83037   0.323   6.259  10.977 -3.3059 -3.0341  0.4822
  602MOL0     H83038   0.779   6.328  11.226  0.4891  1.2150 -0.4486
  602MOL0     H83039   0.997   6.435  11.271 -0.3303 -0.9463 -0.2332
  602MOL0     H83040   1.244   6.396  11.379  0.1983  0.4954  0.4737
  602MOL0     H83041   1.146   6.547  11.353 -0.4583 -1.3508 -1.3717
  602MOL0     H83042   1.277   6.647  11.530  0.0905  0.8394 -1.2987
  602MOL0     H83043   1.367   6.505  11.575 -0.9882 -1.1554  0.0896
  602MOL0     H83044   1.363   6.634  11.299 -0.2560  3.4346  1.3403
  602MOL0     H83045   1.479   6.504  11.363 -1.1194  0.0938 -0.2510
  602MOL0     H83046   1.525   6.681  11.536 -3.6199 -1.7282  0.2139
  602MOL0     H83047   1.470   6.807  11.415 -0.0746 -0.1190 -0.8978
  602MOL0     H83048   1.695   6.607  11.353  1.4845  1.6872 -0.1493
  602MOL0     H83049   1.619   6.745  11.263 -1.9077  2.0926  0.5016
  602MOL0     H83050   1.737   6.747  11.543  0.6712 -2.6524 -0.4475
  602MOL0     H83051   1.698   6.895  11.436  0.2520  0.2799 -1.7288
  602MOL0     H83052   1.914   6.676  11.368 -0.6951  0.1822 -1.8961
  602MOL0     H83053   1.944   6.818  11.463  1.0921  1.1613 -0.8680
  602MOL0     H83054   2.006   6.910  11.264  0.3320 -2.0020  1.1147
  602MOL0     H83055   1.840   6.966  11.260  1.7356 -0.0592 -4.8213
  602MOL0     H83056   0.947   6.348  11.692  1.1209 -2.2251  0.1741
  602MOL0     H83057   0.711   6.297  11.644  0.6980  0.6273 -0.3909
  602MOL0     H83058   0.386   6.178  11.509  2.0531 -1.4692 -1.3043
  602MOL0     H83059   0.132   6.161  11.505  2.4861  2.1008  1.5852
  602MOL0     H83060  -0.211   6.621  10.512 -0.0891 -0.7350  0.3820
  602MOL0     H83061  -0.033   6.795  10.522  0.5592  2.5591 -2.4082
  602MOL0     H83062   0.416   6.847  10.080 -2.2404  0.1600  0.8481
  602MOL0     H83063   0.628   6.968  10.086  1.1586 -1.4473  1.9167
  602MOL0     H83064   0.652   7.345  10.298 -0.9952 -0.7005 -1.5279
  602MOL0     H83065   0.743   7.218  10.393  1.3688  1.2458  1.1157
  602MOL0     H83066   0.842   7.322  10.118 -1.9007 -0.1228  0.6851
  602MOL0     H83067   0.935   7.244  10.250 -1.2927 -2.3865 -3.4527
  602MOL0     H83068   1.008   7.480  10.237  0.3714  1.0454  0.4948
  602MOL0     H83069   0.846   7.539  10.244  0.0485  0.4683 -0.5206
  602MOL0     H83070   0.820   7.474  10.473 -0.5664  2.1040  0.0199
  602MOL0     H83071   0.974   7.576  10.448 -1.3916  0.0874 -0.7700
  602MOL0     H83072   1.096   7.216  10.615 -0.3465 -1.3935 -1.3640
  602MOL0     H83073   0.491   7.207  10.415  0.0162  0.3843  0.0342
  602MOL0     H83074   0.268   7.026  10.534 -1.3360  0.5284  0.1960
  602MOL0     H83075   0.292   7.191  10.486  0.2411 -0.4792  0.8466
  602MOL0     H83076   0.170   7.101  10.392  0.5678 -0.7576 -1.5955
  603MOL0     O83077   1.510   7.469   6.525 -0.5324 -0.6982 -0.5314
  603MOL0     C83078   1.529   7.466   6.407 -0.3461 -0.6381  0.1609
  603MOL0     O83079   1.624   7.539   6.341  0.3663  0.1305  0.4265
  603MOL0     C83080   1.689   7.649   6.391 -0.7272 -0.0926 -0.7583
  603MOL0     C83081   1.813   7.673   6.326 -0.1547 -0.1522 -0.3639
  603MOL0     C83082   1.903   7.772   6.361  0.6129 -0.1172  0.2106
  603MOL0     C83083   1.866   7.863   6.465  0.1034 -0.1684 -0.0838
  603MOL0     O83084   1.962   7.962   6.498 -0.4486  0.6634  0.1550
  603MOL0     C83085   1.943   8.042   6.615  0.3885 -0.0696  0.4279
  603MOL0     C83086   2.053   8.137   6.637  0.0455 -0.1024 -1.0555
  603MOL0     C83087   2.083   8.221   6.516  0.1258 -0.8194  0.6101
  603MOL0     C83088   2.202   8.311   6.534  0.7177 -0.4032 -0.1169
  603MOL0     C83089   2.251   8.361   6.391 -0.1012 -0.0798  0.0414
  603MOL0     C83090   2.353   8.473   6.406  0.1592 -0.2036  0.5917
  603MOL0     C83091   2.485   8.428   6.468 -0.3809 -0.1146  0.1593
  603MOL0     C83092   2.572   8.313   6.396  0.5802  0.0784  0.4023
  603MOL0     N83093   2.609   8.358   6.263  0.0690 -0.5075  0.5170
  603MOL0     C83094   2.733   8.330   6.213  0.4082 -1.0605 -0.3966
  603MOL0     C83095   2.723   8.367   6.083 -0.1385 -0.0958 -1.0003
  603MOL0     C83096   2.836   8.367   5.982  0.5519 -0.0719 -0.0315
  603MOL0     C83097   2.928   8.245   5.982  0.8337  0.3565  0.0075
  603MOL0     C83098   3.014   8.246   5.857  0.1527  0.3102 -0.0526
  603MOL0     C83099   3.130   8.146   5.883  0.3800 -0.5420  0.2906
  603MOL0     O83100   3.188   8.152   6.012  0.7103  0.1406  0.5077
  603MOL0     C83101   3.281   8.054   6.041 -0.1777 -0.3778  0.0858
  603MOL0     C83102   3.345   8.070   6.163  0.2116 -0.4086 -0.1737
  603MOL0     C83103   3.444   7.986   6.214 -0.7095 -0.6605 -0.0941
  603MOL0     C83104   3.511   8.032   6.348  0.1871  0.2399  0.4323
  603MOL0     C83105   3.484   7.872   6.137 -0.7330  0.0061  0.1547
  603MOL0     C83106   3.600   7.778   6.188  0.9182  0.0520 -0.1264
  603MOL0     O83107   3.583   7.650   6.146 -0.1301 -0.3376 -0.2447
  603MOL0     C83108   3.677   7.568   6.204  0.6723 -0.2249  0.4018
  603MOL0     C83109   3.679   7.533   6.336 -0.3020  0.3277  0.6065
  603MOL0     C83110   3.784   7.453   6.380 -0.1227  0.4460 -0.7293
  603MOL0     C83111   3.880   7.391   6.293  0.6080 -0.0777  1.0976
  603MOL0     O83112   3.983   7.314   6.341 -0.2306 -0.1438 -0.2089
  603MOL0     C83113   4.007   7.197   6.270  0.1676 -0.0072  0.3298
  603MOL0     C83114   4.086   7.103   6.366  0.4260  0.4331  0.1876
  603MOL0     C83115   4.223   7.156   6.402 -0.4214  0.4353 -0.4224
  603MOL0     C83116   4.270   7.094   6.531 -0.3435  0.0616 -0.1788
  603MOL0     C83117   4.383   6.995   6.493  0.1916  0.7090 -0.3098
  603MOL0     C83118   4.514   7.065   6.465 -0.2893  0.3088  0.9501
  603MOL0     C83119   4.613   6.957   6.416  0.1159  0.3211 -0.0158
  603MOL0     C83120   4.734   7.031   6.364 -0.9514  0.6934 -0.2305
  603MOL0    Cl83121   4.855   6.911   6.311 -0.8233  0.0402 -0.5211
  603MOL0     C83122   3.870   7.417   6.154 -0.0017  0.0592 -0.5037
  603MOL0     C83123   3.769   7.500   6.115  0.0663 -0.0266  0.0901
  603MOL0     O83124   3.693   7.826   6.244  0.1009  0.0031 -1.0292
  603MOL0     C83125   3.418   7.852   6.015 -0.8426  0.7750  1.3585
  603MOL0     C83126   3.316   7.937   5.967  0.4117 -0.3064  0.0410
  603MOL0     N83127   2.590   8.395   6.050 -0.2226  0.0895  0.9801
  603MOL0     N83128   2.525   8.384   6.158 -0.5924 -0.5673 -0.3625
  603MOL0     C83129   1.736   7.845   6.526  0.2787  0.9767  0.0947
  603MOL0     C83130   1.650   7.738   6.495 -0.6345 -0.4091 -0.1801
  603MOL0     C83131   1.437   7.394   6.316 -0.5723  0.9233  0.5225
  603MOL0     C83132   1.397   7.459   6.192 -0.0795 -0.0394  0.1154
  603MOL0     C83133   1.316   7.397   6.100 -0.2440  0.4583 -0.2151
  603MOL0     C83134   1.262   7.275   6.132  0.2561  0.3377 -0.4692
  603MOL0     O83135   1.170   7.227   6.046 -0.3383 -0.4352 -0.1760
  603MOL0     C83136   1.067   7.155   6.104  0.0867 -0.3782 -0.3916
  603MOL0     C83137   0.960   7.146   6.001 -0.4845  0.1697 -0.1429
  603MOL0     C83138   0.847   7.049   6.047 -0.0581  0.0612 -0.3230
  603MOL0     C83139   0.736   7.036   5.941  0.0771 -0.2066 -0.9219
  603MOL0     C83140   0.656   7.157   5.931  0.0025 -0.4477  0.1419
  603MOL0     C83141   0.566   7.237   5.940 -0.2847  0.0274  0.0425
  603MOL0     C83142   1.289   7.213   6.255 -0.3985 -0.1212  0.0678
  603MOL0     C83143   1.374   7.267   6.349 -0.3377 -0.2958 -0.0403
  603MOL0     C83144   1.405   7.194   6.480  0.1863  0.5210  1.0749
  603MOL0     H83145   1.850   7.610   6.246  2.1126  0.7744 -0.1508
  603MOL0     H83146   1.997   7.786   6.307  0.8697 -0.6063  0.5230
  603MOL0     H83147   1.925   7.975   6.700 -4.3993 -0.7176 -0.8180
  603MOL0     H83148   1.850   8.097   6.601 -1.1270 -1.4827  3.8184
  603MOL0     H83149   2.010   8.201   6.714  2.8447 -1.8831  2.2879
  603MOL0     H83150   2.138   8.080   6.677 -1.0527 -1.7418 -0.9418
  603MOL0     H83151   2.107   8.156   6.431 -3.3329  1.1134 -2.1592
  603MOL0     H83152   1.993   8.270   6.478  0.6769 -0.8621 -0.8183
  603MOL0     H83153   2.178   8.398   6.596 -1.3058 -1.0528  0.0753
  603MOL0     H83154   2.282   8.262   6.590  0.5499  0.3599  0.8168
  603MOL0     H83155   2.166   8.388   6.328 -1.3019 -3.4755 -0.0382
  603MOL0     H83156   2.287   8.272   6.337  0.0243  0.9093 -1.5779
  603MOL0     H83157   2.360   8.505   6.301 -1.8034 -2.3801 -0.2936
  603MOL0     H83158   2.308   8.552   6.466 -1.7295 -1.3337  0.7476
  603MOL0     H83159   2.484   8.403   6.575  1.7303 -0.8258  0.0545
  603MOL0     H83160   2.541   8.522   6.469  1.6578 -1.2561 -1.0167
  603MOL0     H83161   2.657   8.305   6.466  2.3079  2.9475 -1.1712
  603MOL0     H83162   2.512   8.223   6.386 -2.8923  2.2816 -0.0781
  603MOL0     H83163   2.827   8.320   6.266  1.3320 -0.8620 -1.9495
  603MOL0     H83164   2.901   8.454   5.993 -1.1569  1.3139 -0.4759
  603MOL0     H83165   2.795   8.371   5.881  2.2649  0.9783 -0.7167
  603MOL0     H83166   2.996   8.265   6.065 -0.5307  0.9514  1.0355
  603MOL0     H83167   2.867   8.154   5.988 -0.9361  1.3723 -1.4360
  603MOL0     H83168   2.964   8.214   5.765 -1.3743 -0.7119  1.0929
  603MOL0     H83169   3.062   8.344   5.840 -2.7442  1.8154 -0.1529
  603MOL0     H83170   3.097   8.044   5.863 -0.1626 -0.0052 -1.8231
  603MOL0     H83171   3.203   8.175   5.806 -0.5939  0.8292 -0.1719
  603MOL0     H83172   3.318   8.160   6.218  0.3537 -1.2654  1.3265
  603MOL0     H83173   3.481   8.130   6.387 -0.4667 -0.0016  0.5471
  603MOL0     H83174   3.617   8.051   6.330 -0.5656  1.8912 -3.5077
  603MOL0     H83175   3.487   7.966   6.431 -0.6549 -0.5802 -0.4409
  603MOL0     H83176   3.607   7.574   6.407  0.7499  1.9208  0.7929
  603MOL0     H83177   3.789   7.431   6.486  1.2141  2.1126 -0.4103
  603MOL0     H83178   3.913   7.150   6.239  0.1023 -0.0366  0.5700
  603MOL0     H83179   4.073   7.214   6.184  2.5861  0.6549  2.2235
  603MOL0     H83180   4.021   7.100   6.454  0.7597 -0.3018  0.4200
  603MOL0     H83181   4.098   7.000   6.332  1.1815  0.5897 -0.0262
  603MOL0     H83182   4.220   7.265   6.414 -1.3588  0.4533 -0.7404
  603MOL0     H83183   4.290   7.130   6.319 -1.5745 -1.0785 -0.9322
  603MOL0     H83184   4.187   7.065   6.596 -0.1892 -2.2584 -0.9100
  603MOL0     H83185   4.322   7.176   6.581 -3.2516  3.5443 -2.3921
  603MOL0     H83186   4.395   6.924   6.576 -0.6987 -3.7046 -3.6123
  603MOL0     H83187   4.356   6.926   6.412 -2.4530 -0.9579  1.7723
  603MOL0     H83188   4.548   7.105   6.562 -1.3642  2.6411  0.4465
  603MOL0     H83189   4.503   7.150   6.397 -0.0544  0.8205  1.5377
  603MOL0     H83190   4.563   6.897   6.340  1.1156 -0.0965 -0.3463
  603MOL0     H83191   4.642   6.889   6.497  0.7135  0.2677 -0.2713
  603MOL0     H83192   4.778   7.092   6.443  0.7373 -0.8686  0.1030
  603MOL0     H83193   4.716   7.091   6.274  1.6962 -1.2887 -2.2427
  603MOL0     H83194   3.938   7.375   6.081 -2.5416 -1.1225 -2.3596
  603MOL0     H83195   3.756   7.529   6.012  0.9296 -1.5845 -0.4945
  603MOL0     H83196   3.449   7.777   5.943 -0.2286  1.3115  1.0488
  603MOL0     H83197   3.266   7.904   5.876  0.6243 -1.2236  0.2519
  603MOL0     H83198   1.689   7.913   6.597  0.4296 -1.1785  2.3666
  603MOL0     H83199   1.552   7.731   6.540 -2.1128  3.3185 -2.3267
  603MOL0     H83200   1.435   7.556   6.162 -0.0770  0.0623  0.4433
  603MOL0     H83201   1.285   7.437   6.004  1.7182  2.3860 -0.1334
  603MOL0     H83202   1.097   7.051   6.119 -2.2158 -1.6049 -3.2356
  603MOL0     H83203   1.024   7.204   6.191  2.0348 -0.5772  0.7439
  603MOL0     H83204   1.001   7.108   5.907  1.1946  3.8362 -1.0628
  603MOL0     H83205   0.918   7.244   5.979 -1.1659 -0.3356 -1.1714
  603MOL0     H83206   0.882   6.946   6.059 -0.4498  0.0146  0.5140
  603MOL0     H83207   0.800   7.086   6.139  0.2671 -0.3193  0.0008
  603MOL0     H83208   0.667   6.961   5.983  0.4139  0.1264  0.2520
  603MOL0     H83209   0.781   7.010   5.845  1.1980 -1.7881 -0.0172
  603MOL0     H83210   0.490   7.312   5.932 -1.9688 -1.2325  2.7626
  603MOL0     H83211   1.250   7.112   6.267 -0.9747  0.0256 -0.5580
  603MOL0     H83212   1.408   7.262   6.566 -1.5251  1.2584  0.5897
  603MOL0     H83213   1.327   7.120   6.498  1.8223 -1.4032  0.6329
  603MOL0     H83214   1.501   7.146   6.460 -0.0378  0.5692 -0.2360
  604MOL0     O83215   4.236   2.471   7.571 -0.4706  0.0650 -0.7758
  604MOL0     C83216   4.229   2.419   7.681  0.4934 -0.5457 -0.1127
  604MOL0     O83217   4.326   2.343   7.736 -0.8775  0.8698  0.6916
  604MOL0     C83218   4.453   2.344   7.675 -0.8962 -0.4993 -0.2583
  604MOL0     C83219   4.475   2.291   7.548  0.4395 -0.2670 -0.4483
  604MOL0     C83220   4.606   2.283   7.501  0.3305 -0.7002  0.2681
  604MOL0     C83221   4.717   2.324   7.582  0.5536 -0.4127  0.0551
  604MOL0     O83222   4.850   2.316   7.543 -0.2545  0.2607  0.3897
  604MOL0     C83223   4.920   2.430   7.501  0.6060  1.2505  0.4446
  604MOL0     C83224   5.050   2.446   7.562 -0.7074  0.6413  0.0510
  604MOL0     C83225   5.132   2.314   7.580  0.2291  1.1240  0.2037
  604MOL0     C83226   5.167   2.245   7.456 -0.5631 -0.2966  0.5121
  604MOL0     C83227   5.276   2.135   7.466  0.8496 -0.2255  0.7656
  604MOL0     C83228   5.407   2.196   7.417  0.1354  0.4486  0.3888
  604MOL0     C83229   5.517   2.091   7.399  0.1966 -0.5621 -0.0237
  604MOL0     C83230   5.627   2.155   7.308  0.4306  0.6685  0.8057
  604MOL0     N83231   5.743   2.068   7.304 -0.5956  0.7043 -0.1706
  604MOL0     C83232   5.765   1.964   7.216 -0.5337 -0.3195  1.0518
  604MOL0     C83233   5.896   1.926   7.236  0.4316  0.1348  1.0980
  604MOL0     C83234   5.950   1.810   7.146  0.2115 -0.9002  0.0072
  604MOL0     C83235   6.083   1.842   7.083  0.4271  0.2288 -0.8252
  604MOL0     C83236   6.150   1.742   7.002  0.5278  0.2034  0.0442
  604MOL0     C83237   6.298   1.784   6.960  0.2082  0.6331 -0.2995
  604MOL0     O83238   6.378   1.789   7.087  0.1897 -0.1511 -0.3605
  604MOL0     C83239   6.505   1.827   7.070 -0.4168 -0.2726 -0.2907
  604MOL0     C83240   6.575   1.847   7.194  0.8666 -0.1771 -0.9259
  604MOL0     C83241   6.710   1.886   7.211  0.9651 -0.0873 -0.1654
  604MOL0     C83242   6.756   1.898   7.350  0.2167 -0.1667  0.1430
  604MOL0     C83243   6.792   1.894   7.088 -0.1406  0.0030  0.5486
  604MOL0     C83244   6.930   1.955   7.088 -0.9200  0.7385  0.1400
  604MOL0     O83245   6.999   1.933   7.203 -0.4053  0.1118 -0.1504
  604MOL0     C83246   7.129   1.979   7.207  0.3940  0.0916 -0.3500
  604MOL0     C83247   7.227   1.900   7.266  0.6193 -0.5724  0.1647
  604MOL0     C83248   7.358   1.945   7.278 -0.8890  0.1903  0.2652
  604MOL0     C83249   7.401   2.077   7.244  0.1579  0.5608 -0.2950
  604MOL0     O83250   7.541   2.109   7.260 -0.6926 -0.1050  0.4429
  604MOL0     C83251   7.584   2.225   7.192 -0.1654 -0.3742 -0.0612
  604MOL0     C83252   7.734   2.255   7.218 -0.1406  0.4942  0.8924
  604MOL0     C83253   7.830   2.139   7.198 -0.2464  0.0841 -0.9746
  604MOL0     C83254   7.972   2.190   7.202 -0.0009  0.7271  0.0230
  604MOL0     C83255   8.061   2.075   7.186  0.5639 -0.4775 -0.0845
  604MOL0     C83256   8.205   2.120   7.167  0.3782 -0.0994  0.0992
  604MOL0     C83257   8.304   2.003   7.194 -0.3655 -0.0394  0.2419
  604MOL0     C83258   8.419   2.040   7.108 -0.5878  0.5190  0.4858
  604MOL0    Cl83259   8.559   1.966   7.193  0.1231 -0.0232  0.5973
  604MOL0     C83260   7.300   2.162   7.193  0.0457 -0.3106 -0.1661
  604MOL0     C83261   7.170   2.108   7.161 -0.5626 -0.3058 -0.5058
  604MOL0     O83262   6.974   2.004   6.988 -0.4006  1.0640  0.4663
  604MOL0     C83263   6.727   1.868   6.959  0.1572 -0.3467 -0.6260
  604MOL0     C83264   6.586   1.851   6.956  0.2565 -0.1542  0.2375
  604MOL0     N83265   5.939   2.000   7.346  0.9786  0.0656 -0.0297
  604MOL0     N83266   5.854   2.082   7.384 -0.0318  0.4163  0.7377
  604MOL0     C83267   4.688   2.374   7.716 -0.2192 -0.2576  0.3208
  604MOL0     C83268   4.558   2.393   7.757  0.7531  0.0090 -0.1157
  604MOL0     C83269   4.114   2.447   7.767  0.3163  0.3233 -0.7610
  604MOL0     C83270   4.134   2.442   7.909 -0.1821  0.1595 -1.1129
  604MOL0     C83271   4.026   2.468   7.996 -0.9468  0.2253 -0.4114
  604MOL0     C83272   3.900   2.501   7.955  0.3471 -0.7279 -0.6461
  604MOL0     O83273   3.803   2.523   8.055  0.7283  0.4178  0.2009
  604MOL0     C83274   3.697   2.606   8.001 -0.2358  0.3743 -0.1208
  604MOL0     C83275   3.634   2.692   8.109 -0.3113  0.1653 -0.1608
  604MOL0     C83276   3.508   2.777   8.059 -0.0237 -0.3093  0.2709
  604MOL0     C83277   3.543   2.910   7.981 -0.5925  0.3854  0.0321
  604MOL0     C83278   3.578   2.883   7.840  0.0452 -0.0879 -1.2881
  604MOL0     C83279   3.603   2.833   7.734  0.3059 -0.5731  0.4010
  604MOL0     C83280   3.877   2.488   7.816 -0.8019  0.8755 -0.0784
  604MOL0     C83281   3.979   2.454   7.723  0.6408 -0.7555 -0.2250
  604MOL0     C83282   3.945   2.436   7.570  0.5489  0.1489 -0.1283
  604MOL0     H83283   4.398   2.255   7.481  0.8391 -0.5348 -0.7645
  604MOL0     H83284   4.643   2.252   7.404  0.8897  0.3724  0.1264
  604MOL0     H83285   4.865   2.519   7.531  0.1017  0.7686  0.9766
  604MOL0     H83286   4.917   2.428   7.392 -0.5388 -0.3764  0.4683
  604MOL0     H83287   5.108   2.505   7.489 -0.2605  0.3363  0.1561
  604MOL0     H83288   5.042   2.481   7.665 -0.5061 -0.6308  0.5102
  604MOL0     H83289   5.223   2.339   7.636  1.5640  0.4539 -1.5750
  604MOL0     H83290   5.071   2.239   7.631  2.4079 -3.1037 -2.7768
  604MOL0     H83291   5.077   2.197   7.416 -0.7016  0.3177  0.0909
  604MOL0     H83292   5.207   2.328   7.397 -0.5630  0.8771  2.1001
  604MOL0     H83293   5.239   2.051   7.407 -0.4300 -1.1292  2.7754
  604MOL0     H83294   5.293   2.102   7.569 -0.3311 -3.8844 -0.0553
  604MOL0     H83295   5.392   2.257   7.327 -1.5081  0.4718  0.6432
  604MOL0     H83296   5.425   2.271   7.495  0.4294  1.2364 -0.4176
  604MOL0     H83297   5.471   2.010   7.341 -1.5534  0.9930 -0.9050
  604MOL0     H83298   5.558   2.054   7.493 -1.4184 -1.9432  0.1885
  604MOL0     H83299   5.578   2.152   7.210  0.5930 -1.3924  0.7608
  604MOL0     H83300   5.639   2.259   7.340 -0.7804  1.2770 -0.5834
  604MOL0     H83301   5.694   1.924   7.145  0.1402 -2.5899  1.5846
  604MOL0     H83302   5.874   1.796   7.068 -0.7618  0.3386  0.6987
  604MOL0     H83303   5.966   1.718   7.203  1.4800  0.5280  2.0820
  604MOL0     H83304   6.060   1.934   7.029 -1.2066  0.4831  0.2373
  604MOL0     H83305   6.154   1.856   7.166 -1.4848 -1.4995  1.2547
  604MOL0     H83306   6.167   1.652   7.062  1.9377  0.4291  0.0173
  604MOL0     H83307   6.084   1.707   6.921  0.6138  1.0914 -0.4252
  604MOL0     H83308   6.338   1.707   6.894 -3.6898 -1.2115 -0.7721
  604MOL0     H83309   6.284   1.874   6.900  0.6270 -0.7252 -2.5292
  604MOL0     H83310   6.508   1.845   7.279  2.2836 -0.0338  0.2328
  604MOL0     H83311   6.795   1.802   7.384  0.9923  0.8677  2.3679
  604MOL0     H83312   6.670   1.925   7.412  0.6547  0.0996  0.6445
  604MOL0     H83313   6.828   1.980   7.357  2.5812 -2.2147  1.4856
  604MOL0     H83314   7.196   1.805   7.308 -0.8194  0.4812  1.6305
  604MOL0     H83315   7.423   1.876   7.331 -1.7249 -0.0194  1.0367
  604MOL0     H83316   7.555   2.217   7.086 -0.3462 -1.0935  0.0344
  604MOL0     H83317   7.525   2.311   7.224  0.9623  0.1783  0.5938
  604MOL0     H83318   7.756   2.346   7.162 -3.4938  0.7260 -0.2763
  604MOL0     H83319   7.740   2.274   7.325 -1.1983 -2.2093  1.5049
  604MOL0     H83320   7.806   2.090   7.103 -0.2563  0.3577 -1.1136
  604MOL0     H83321   7.809   2.070   7.280  0.4931  1.0465  0.0463
  604MOL0     H83322   7.998   2.245   7.293 -1.6652  2.2538 -0.3720
  604MOL0     H83323   7.991   2.263   7.123 -0.9671 -0.4071 -1.3282
  604MOL0     H83324   8.057   2.012   7.275 -1.2701 -2.3602 -1.4327
  604MOL0     H83325   8.039   2.012   7.100  3.1008  1.6066 -2.4452
  604MOL0     H83326   8.242   2.195   7.239  0.6800  0.4409 -0.6070
  604MOL0     H83327   8.203   2.162   7.066  0.4204 -0.9656 -0.2649
  604MOL0     H83328   8.260   1.911   7.155 -1.6065  0.6567 -0.0535
  604MOL0     H83329   8.329   1.998   7.301 -1.4410 -1.3879  0.4535
  604MOL0     H83330   8.437   2.147   7.115  3.0424  0.2314 -1.6199
  604MOL0     H83331   8.415   2.011   7.003  1.5175 -3.4296  1.2734
  604MOL0     H83332   7.317   2.267   7.174 -1.0167 -0.1010 -0.0169
  604MOL0     H83333   7.098   2.183   7.131 -3.2149 -1.6551  1.9691
  604MOL0     H83334   6.780   1.881   6.865  1.3095  5.3687  0.4737
  604MOL0     H83335   6.530   1.852   6.863 -2.7302  0.7287  1.9224
  604MOL0     H83336   4.776   2.414   7.765  1.4993 -1.1844 -1.7760
  604MOL0     H83337   4.544   2.441   7.854  0.5866  0.6737 -0.4624
  604MOL0     H83338   4.226   2.412   7.957 -0.2590  0.7484 -0.5843
  604MOL0     H83339   4.041   2.464   8.103  3.6810  1.9937 -0.7789
  604MOL0     H83340   3.747   2.675   7.932  2.6624  1.1349  2.5226
  604MOL0     H83341   3.621   2.545   7.951 -0.3493  0.6293 -0.2615
  604MOL0     H83342   3.715   2.751   8.152 -1.7010  1.2874  1.0754
  604MOL0     H83343   3.603   2.621   8.186 -0.3807  0.7790  0.3891
  604MOL0     H83344   3.438   2.716   8.002  1.1060 -1.3247 -0.0798
  604MOL0     H83345   3.452   2.823   8.141  0.0231 -0.3026  0.2993
  604MOL0     H83346   3.626   2.963   8.028  0.5510 -3.0962  2.3413
  604MOL0     H83347   3.461   2.983   7.981  1.3851  2.7758  1.4108
  604MOL0     H83348   3.622   2.792   7.637 -0.1411  0.7643 -0.2829
  604MOL0     H83349   3.776   2.500   7.780 -0.6385  1.5218 -0.3412
  604MOL0     H83350   3.837   2.436   7.550  0.2371 -0.7208  1.4217
  604MOL0     H83351   3.986   2.520   7.513 -0.4083  0.8425  0.1715
  604MOL0     H83352   3.983   2.340   7.534  0.9596  1.1020 -2.4820
  605MOL0     O83353   7.649   0.295   8.557 -0.0700 -0.3556 -0.0854
  605MOL0     C83354   7.630   0.409   8.518  0.5921  0.0586  0.0016
  605MOL0     O83355   7.723   0.496   8.471 -0.3799  0.2152  0.0095
  605MOL0     C83356   7.859   0.462   8.485 -0.0285  0.2852 -0.8662
  605MOL0     C83357   7.947   0.485   8.382 -0.1130 -0.4104 -0.4399
  605MOL0     C83358   8.084   0.446   8.381 -0.1897 -0.3661  0.3692
  605MOL0     C83359   8.145   0.408   8.500  0.4702 -0.1830 -0.2207
  605MOL0     O83360   8.276   0.368   8.518  0.3337  0.1179  0.0515
  605MOL0     C83361   8.372   0.384   8.412 -0.3674  0.0864  0.2909
  605MOL0     C83362   8.416   0.529   8.403 -1.1420 -0.1252  0.8332
  605MOL0     C83363   8.503   0.575   8.283 -0.3604  0.7026  0.7411
  605MOL0     C83364   8.444   0.537   8.143 -0.7195 -0.0544  0.3668
  605MOL0     C83365   8.549   0.565   8.027 -0.7762  0.4374  0.2498
  605MOL0     C83366   8.598   0.711   8.016  0.1016  0.2594 -1.4813
  605MOL0     C83367   8.494   0.814   7.983  0.5944 -0.0158 -0.5211
  605MOL0     C83368   8.401   0.775   7.863 -0.5726 -0.1988 -1.1185
  605MOL0     N83369   8.487   0.776   7.738  0.1661  0.2207 -0.6984
  605MOL0     C83370   8.574   0.876   7.704  0.3009  0.1504 -0.1577
  605MOL0     C83371   8.655   0.821   7.616  0.1629  0.2729 -0.2253
  605MOL0     C83372   8.751   0.910   7.534  0.0075 -0.0904 -0.1028
  605MOL0     C83373   8.674   0.996   7.438  0.0407  0.1659  0.4551
  605MOL0     C83374   8.615   0.909   7.317  0.6162  0.2551  0.2601
  605MOL0     C83375   8.523   0.986   7.233  0.6562 -0.7373 -0.6096
  605MOL0     O83376   8.411   1.028   7.310 -0.4001  0.9633  0.2685
  605MOL0     C83377   8.299   1.082   7.252 -0.7577  0.4021 -0.5302
  605MOL0     C83378   8.210   1.135   7.340  0.2559  0.4268 -0.3406
  605MOL0     C83379   8.095   1.202   7.292  0.4744  0.4467 -0.2584
  605MOL0     C83380   8.020   1.265   7.404  0.0547 -0.0124 -0.6858
  605MOL0     C83381   8.066   1.211   7.155  0.1444  0.4230  0.5770
  605MOL0     C83382   7.950   1.286   7.106  0.7375  1.7417 -0.5901
  605MOL0     O83383   7.911   1.231   6.990 -0.0859 -0.0774  0.0834
  605MOL0     C83384   7.788   1.247   6.939  1.1402 -0.3392  0.0301
  605MOL0     C83385   7.672   1.268   7.025 -0.1164 -0.5381  0.2671
  605MOL0     C83386   7.551   1.292   6.973 -0.3047  0.0278  0.6811
  605MOL0     C83387   7.533   1.287   6.828 -0.2777  0.8099  0.9096
  605MOL0     O83388   7.426   1.313   6.753  0.4688  0.0835  0.5250
  605MOL0     C83389   7.303   1.340   6.817  0.6733 -0.6628  0.3807
  605MOL0     C83390   7.199   1.408   6.734  0.7343  0.2991  0.3987
  605MOL0     C83391   7.168   1.318   6.607  0.3477  0.0672 -0.3734
  605MOL0     C83392   7.066   1.378   6.508  0.1794  0.2441 -0.4281
  605MOL0     C83393   7.026   1.272   6.395  0.2451 -1.1397 -0.4785
  605MOL0     C83394   6.897   1.318   6.318  0.4677  0.5905  0.2330
  605MOL0     C83395   6.875   1.229   6.186 -0.3361 -0.1522  0.7529
  605MOL0     C83396   6.731   1.252   6.141  0.2813 -0.6957  0.2244
  605MOL0    Cl83397   6.684   1.139   6.013 -0.2242  0.1711  0.0417
  605MOL0     C83398   7.639   1.261   6.743 -0.4448  0.0331 -0.6146
  605MOL0     C83399   7.765   1.238   6.796  0.2865 -0.4373 -0.1520
  605MOL0     O83400   7.901   1.382   7.164 -0.2996 -0.3346 -0.3866
  605MOL0     C83401   8.156   1.145   7.064 -0.1512  0.4114 -0.5753
  605MOL0     C83402   8.273   1.096   7.115  0.3217 -0.1416 -0.3928
  605MOL0     N83403   8.630   0.687   7.607 -0.0899 -0.5355  0.4914
  605MOL0     N83404   8.522   0.659   7.676 -0.0652 -0.3103 -0.2204
  605MOL0     C83405   8.057   0.390   8.612  0.4112  0.2940 -0.2338
  605MOL0     C83406   7.917   0.409   8.598 -0.4838  0.5086 -0.6954
  605MOL0     C83407   7.487   0.459   8.517 -1.0355  0.2385  0.1193
  605MOL0     C83408   7.386   0.366   8.529 -0.1655 -0.4042  0.7929
  605MOL0     C83409   7.259   0.398   8.521  0.3628 -0.6952  0.2280
  605MOL0     C83410   7.211   0.534   8.506  0.7719  0.9414  1.2625
  605MOL0     O83411   7.082   0.575   8.505 -0.6643 -0.2709 -0.7051
  605MOL0     C83412   6.984   0.484   8.529  0.5510 -0.2861  0.2580
  605MOL0     C83413   6.864   0.572   8.549 -0.3418  0.1268  0.3456
  605MOL0     C83414   6.752   0.474   8.603  0.1039 -0.9584 -0.2654
  605MOL0     C83415   6.649   0.543   8.690 -0.4764  1.0973  0.0175
  605MOL0     C83416   6.578   0.661   8.632  0.1680  0.4816 -0.5235
  605MOL0     C83417   6.517   0.757   8.591  0.5113 -0.3745 -0.2767
  605MOL0     C83418   7.307   0.626   8.489  0.0335 -0.0382 -0.2613
  605MOL0     C83419   7.444   0.599   8.497  0.3568  0.5263 -0.1856
  605MOL0     C83420   7.531   0.730   8.494  0.2455  0.1217 -0.3945
  605MOL0     H83421   7.904   0.535   8.296 -2.3509 -1.1262  0.2062
  605MOL0     H83422   8.142   0.452   8.290 -2.1702  0.4888 -0.9122
  605MOL0     H83423   8.347   0.337   8.316  2.6485 -1.0575 -0.0427
  605MOL0     H83424   8.468   0.339   8.438 -0.2552 -0.0695 -0.3683
  605MOL0     H83425   8.332   0.599   8.401 -1.1973 -0.1930  0.6933
  605MOL0     H83426   8.466   0.557   8.496  0.2214 -0.6801  0.2927
  605MOL0     H83427   8.526   0.682   8.292 -1.3568  1.1059 -0.9325
  605MOL0     H83428   8.605   0.537   8.281 -0.4858  0.3726  0.6531
  605MOL0     H83429   8.415   0.432   8.152  0.5196 -0.4128  0.4188
  605MOL0     H83430   8.352   0.594   8.131 -0.3718  0.0510 -2.2360
  605MOL0     H83431   8.509   0.530   7.931  0.3646 -3.4799  1.0473
  605MOL0     H83432   8.633   0.496   8.037 -3.4267 -2.8475  1.5496
  605MOL0     H83433   8.648   0.731   8.111 -3.5396  1.6722  0.3406
  605MOL0     H83434   8.682   0.719   7.947  1.2010  0.8775 -0.1044
  605MOL0     H83435   8.541   0.911   7.965 -0.4984  1.1611  2.4791
  605MOL0     H83436   8.426   0.834   8.066  0.2382  2.4058 -1.3246
  605MOL0     H83437   8.350   0.680   7.882 -0.1655 -0.0185  1.1547
  605MOL0     H83438   8.326   0.852   7.841  0.6982  1.0641 -1.2076
  605MOL0     H83439   8.553   0.980   7.727 -2.7003 -0.5872  0.9567
  605MOL0     H83440   8.826   0.847   7.485 -0.4601 -1.4406  0.8281
  605MOL0     H83441   8.800   0.973   7.608  0.3028 -0.8782  0.3817
  605MOL0     H83442   8.600   1.048   7.499 -0.3798 -2.2937  2.1623
  605MOL0     H83443   8.737   1.070   7.387 -0.6066  1.1651  1.0597
  605MOL0     H83444   8.693   0.864   7.253 -1.0370  1.6530 -2.9944
  605MOL0     H83445   8.556   0.821   7.342 -1.4222  0.7714 -2.2391
  605MOL0     H83446   8.577   1.078   7.208 -1.7333  1.2858  1.0895
  605MOL0     H83447   8.489   0.935   7.143  2.7546 -0.4599 -1.6033
  605MOL0     H83448   8.227   1.139   7.447 -1.2010  0.9818 -0.0974
  605MOL0     H83449   7.915   1.269   7.373 -0.1974 -0.4805  0.0662
  605MOL0     H83450   8.064   1.365   7.412  1.7059 -0.6956 -0.8484
  605MOL0     H83451   8.018   1.212   7.500 -1.5359  1.0145 -0.0936
  605MOL0     H83452   7.689   1.279   7.132  3.0428  1.9699 -0.3488
  605MOL0     H83453   7.469   1.314   7.040 -1.0294  1.4965 -0.6239
  605MOL0     H83454   7.260   1.254   6.868  1.3568 -1.9088 -1.0549
  605MOL0     H83455   7.320   1.419   6.891 -1.1007  1.8966 -1.7503
  605MOL0     H83456   7.107   1.431   6.788  0.4427  3.2880 -1.1895
  605MOL0     H83457   7.227   1.507   6.697 -2.6652  1.1655 -0.2124
  605MOL0     H83458   7.129   1.223   6.643  0.0862  0.5404  0.6443
  605MOL0     H83459   7.265   1.297   6.560  1.3256  0.8876  1.1574
  605MOL0     H83460   7.122   1.467   6.476  1.4089 -0.9011 -1.6097
  605MOL0     H83461   6.983   1.418   6.566  0.1937  0.6758 -0.6995
  605MOL0     H83462   7.111   1.260   6.328 -0.6002 -2.4052 -1.3809
  605MOL0     H83463   7.014   1.174   6.442 -0.1571 -0.5284  0.7251
  605MOL0     H83464   6.899   1.420   6.281 -2.6054  0.2166 -1.2900
  605MOL0     H83465   6.811   1.309   6.386  0.4486  2.7300  0.5497
  605MOL0     H83466   6.882   1.123   6.211  2.9324 -0.0558  0.6240
  605MOL0     H83467   6.947   1.258   6.109  0.2086 -1.5404  0.7185
  605MOL0     H83468   6.726   1.356   6.108  1.6969  1.2332  5.1595
  605MOL0     H83469   6.667   1.251   6.230  0.9846 -2.3704  0.7466
  605MOL0     H83470   7.621   1.260   6.636 -2.0624  0.1090 -0.3666
  605MOL0     H83471   7.848   1.208   6.733  1.5429 -1.1922  1.7881
  605MOL0     H83472   8.138   1.143   6.957 -1.1271 -1.7411 -0.4456
  605MOL0     H83473   8.337   1.038   7.049 -0.8453 -2.3983  0.3894
  605MOL0     H83474   8.088   0.358   8.711  0.1121 -0.1263 -0.2732
  605MOL0     H83475   7.852   0.384   8.681  0.1494 -2.7961 -1.0472
  605MOL0     H83476   7.413   0.260   8.530  1.8318 -0.1168 -3.0658
  605MOL0     H83477   7.195   0.311   8.526  1.8189 -1.8568 -0.4957
  605MOL0     H83478   6.979   0.418   8.441  0.8536 -0.0069  0.0254
  605MOL0     H83479   7.016   0.440   8.623  1.0135  1.9205  1.2048
  605MOL0     H83480   6.845   0.639   8.464  0.0396  0.2279  0.3422
  605MOL0     H83481   6.883   0.640   8.632 -1.0595  0.1975  0.4624
  605MOL0     H83482   6.693   0.432   8.521 -0.6073 -1.3565  0.4342
  605MOL0     H83483   6.793   0.391   8.660  1.2520 -0.9461 -1.0474
  605MOL0     H83484   6.695   0.576   8.784 -1.5748  1.3481  0.4842
  605MOL0     H83485   6.579   0.466   8.725  1.3900  0.9324  4.0622
  605MOL0     H83486   6.451   0.836   8.557  0.4902 -0.7708 -1.1929
  605MOL0     H83487   7.283   0.728   8.464  0.1903  0.6207  2.0063
  605MOL0     H83488   7.635   0.706   8.468 -0.6808 -3.6029 -1.3383
  605MOL0     H83489   7.498   0.813   8.432 -0.7808  3.0967  3.6708
  605MOL0     H83490   7.528   0.764   8.598 -3.5791 -1.6330  0.2534
  606MOL0     O83491   8.019   9.586   3.733 -0.2984  0.2647  0.1023
  606MOL0     C83492   8.005   9.592   3.613  0.1053 -0.5897 -0.0876
  606MOL0     O83493   8.086   9.535   3.525  0.7622  0.1368  0.2180
  606MOL0     C83494   8.203   9.474   3.557  0.0434  0.4976 -0.3044
  606MOL0     C83495   8.211   9.334   3.532  1.1284 -0.7124  2.3801
  606MOL0     C83496   8.322   9.270   3.578  0.1258  0.9159  0.9360
  606MOL0     C83497   8.437   9.342   3.624 -0.9431  0.0043  0.4175
  606MOL0     O83498   8.558   9.283   3.625 -0.0715  1.0439 -0.3016
  606MOL0     C83499   8.671   9.337   3.695 -0.0198  0.6960 -0.1707
  606MOL0     C83500   8.768   9.230   3.730 -0.0529  0.6300 -0.1220
  606MOL0     C83501   8.855   9.211   3.607  0.0659  0.4350  0.3493
  606MOL0     C83502   8.974   9.111   3.631  0.5481 -0.3965 -0.2141
  606MOL0     C83503   9.077   9.140   3.523  0.2065 -0.2783  0.7431
  606MOL0     C83504   9.035   9.093   3.385 -1.1196 -0.1011  0.2645
  606MOL0     C83505   9.147   9.119   3.280 -0.1987  0.2491 -0.1522
  606MOL0     C83506   9.092   9.066   3.145 -0.6535  0.2170 -0.7591
  606MOL0     N83507   9.201   9.050   3.043 -0.0130  0.5487  0.2730
  606MOL0     C83508   9.309   8.965   3.042 -0.0815 -0.6029 -0.6351
  606MOL0     C83509   9.377   8.982   2.922  0.4736 -0.5704  0.1720
  606MOL0     C83510   9.513   8.920   2.882  0.2523  0.5838  0.6357
  606MOL0     C83511   9.632   8.986   2.944 -0.4595  0.8205  0.2547
  606MOL0     C83512   9.632   8.957   3.095 -0.3937  0.1050 -0.1095
  606MOL0     C83513   9.767   8.991   3.155 -0.0112  0.3834  0.3465
  606MOL0     O83514   9.735   9.011   3.293 -0.3813  0.3573 -0.4633
  606MOL0     C83515   9.848   9.053   3.368 -0.3315  0.3569 -0.5482
  606MOL0     C83516   9.833   9.088   3.499 -0.4238  0.2090  0.4140
  606MOL0     C83517   9.945   9.117   3.580 -0.7117 -0.1488  0.5122
  606MOL0     C83518   9.916   9.166   3.724  1.0047 -0.0802 -0.4409
  606MOL0     C83519  10.077   9.107   3.536  0.1136 -0.0848  0.0021
  606MOL0     C83520  10.203   9.118   3.617 -1.1765 -0.3249 -0.5970
  606MOL0     O83521  10.321   9.096   3.546  0.4053 -0.5791 -0.1771
  606MOL0     C83522  10.426   9.019   3.596  0.4469  0.6776  0.7114
  606MOL0     C83523  10.412   8.928   3.706  0.8875 -0.6545  0.6888
  606MOL0     C83524  10.523   8.845   3.736  0.0047  0.2217  0.7222
  606MOL0     C83525  10.648   8.857   3.673 -0.2864 -0.2298  0.9860
  606MOL0     O83526  10.760   8.789   3.717 -0.0353  0.3978  0.2137
  606MOL0     C83527  10.844   8.726   3.612 -0.0592  0.2401  0.2254
  606MOL0     C83528  10.931   8.629   3.693 -0.6526 -0.1922  0.0166
  606MOL0     C83529  11.032   8.711   3.768  0.0253 -0.8981  0.3811
  606MOL0     C83530  11.114   8.625   3.868 -0.4395  0.2160 -0.1392
  606MOL0     C83531  11.232   8.692   3.926 -0.6535  0.3377  0.5620
  606MOL0     C83532  11.205   8.825   3.986  0.2602 -0.2240 -1.2882
  606MOL0     C83533  11.324   8.852   4.090 -0.0920  0.0256  0.4633
  606MOL0     C83534  11.271   8.964   4.185  0.8411 -0.8441  0.7028
  606MOL0    Cl83535  11.398   9.003   4.296 -0.2031  0.2171  0.1814
  606MOL0     C83536  10.662   8.955   3.577 -0.3879  0.4072 -0.0463
  606MOL0     C83537  10.547   9.027   3.534 -0.2319  0.4088  0.1707
  606MOL0     O83538  10.201   9.122   3.739  0.7504 -0.0693  0.0599
  606MOL0     C83539  10.092   9.073   3.400 -0.1695 -0.6005  0.4567
  606MOL0     C83540   9.978   9.056   3.319 -0.5384 -0.0040 -0.3295
  606MOL0     N83541   9.313   9.090   2.862 -0.6657 -0.7235 -0.4563
  606MOL0     N83542   9.209   9.117   2.928  0.4678  0.3924  0.3900
  606MOL0     C83543   8.433   9.475   3.647 -0.5572 -0.2115  0.3145
  606MOL0     C83544   8.312   9.541   3.619  0.7254  0.7314 -0.2205
  606MOL0     C83545   7.889   9.678   3.567 -0.6226  0.4420  0.4913
  606MOL0     C83546   7.843   9.652   3.436  0.5522  0.1992 -0.3090
  606MOL0     C83547   7.728   9.703   3.387  0.0527 -0.4818  0.9931
  606MOL0     C83548   7.660   9.803   3.459 -0.2613 -0.2664 -0.3903
  606MOL0     O83549   7.545   9.871   3.425  0.3238 -0.6057 -0.0866
  606MOL0     C83550   7.458   9.810   3.327 -0.3511 -0.1739  0.1253
  606MOL0     C83551   7.312   9.870   3.335 -0.0674  0.6146 -0.2990
  606MOL0     C83552   7.309  10.022   3.348  0.0779  0.0848  0.5054
  606MOL0     C83553   7.175  10.089   3.336  0.0634  0.6875  0.0809
  606MOL0     C83554   7.080  10.076   3.442 -0.3280 -0.0054 -0.4758
  606MOL0     C83555   7.002  10.064   3.534  0.7543 -0.2464 -0.5672
  606MOL0     C83556   7.719   9.841   3.581  0.4195 -1.0155 -0.9017
  606MOL0     C83557   7.830   9.783   3.641  0.3650  0.8328 -0.0814
  606MOL0     C83558   7.884   9.841   3.767  0.3398 -0.2356  0.0555
  606MOL0     H83559   8.130   9.281   3.482  2.9889 -2.2230  0.8282
  606MOL0     H83560   8.337   9.163   3.564  0.0398  0.9766  0.3616
  606MOL0     H83561   8.646   9.387   3.790  0.3921 -0.1411  0.3908
  606MOL0     H83562   8.719   9.415   3.636 -1.9396  1.7314 -0.4739
  606MOL0     H83563   8.826   9.250   3.820  1.2813 -0.0736 -0.8002
  606MOL0     H83564   8.714   9.139   3.758  0.1797  0.6795  0.4931
  606MOL0     H83565   8.806   9.179   3.515  5.8110  0.7432 -3.3595
  606MOL0     H83566   8.895   9.310   3.581 -1.3338  0.9480  0.0600
  606MOL0     H83567   9.023   9.125   3.729 -0.2019  2.4865 -0.1691
  606MOL0     H83568   8.938   9.008   3.624  0.0483 -0.3441  1.1542
  606MOL0     H83569   9.165   9.084   3.558  1.0166 -0.2532 -1.1366
  606MOL0     H83570   9.100   9.247   3.516  0.4755 -0.4302 -1.1409
  606MOL0     H83571   9.021   8.985   3.394  1.5345 -0.6146 -0.8329
  606MOL0     H83572   8.946   9.150   3.358 -0.6298  0.9219  0.7372
  606MOL0     H83573   9.246   9.083   3.310  0.0220  0.4019 -0.6913
  606MOL0     H83574   9.160   9.227   3.271 -0.8160  0.2183 -1.7532
  606MOL0     H83575   9.048   8.967   3.161  1.8795 -0.6838  1.4546
  606MOL0     H83576   9.012   9.130   3.107 -1.8038 -0.1379  0.9508
  606MOL0     H83577   9.351   8.898   3.117 -0.0091  1.2738  1.0737
  606MOL0     H83578   9.518   8.927   2.773 -0.8050 -2.0732  0.3513
  606MOL0     H83579   9.511   8.812   2.899 -1.7112  0.4844 -0.0511
  606MOL0     H83580   9.725   8.953   2.895 -1.7465  1.1926 -2.6506
  606MOL0     H83581   9.626   9.094   2.926 -1.9643  0.8918  1.0917
  606MOL0     H83582   9.556   9.025   3.135  0.2286  0.2860  0.7822
  606MOL0     H83583   9.602   8.853   3.114 -1.1861  0.7940  2.7597
  606MOL0     H83584   9.826   8.901   3.137 -2.3396 -1.1211 -0.2713
  606MOL0     H83585   9.808   9.081   3.107  0.9752 -1.0098 -1.5620
  606MOL0     H83586   9.738   9.083   3.552 -0.4598 -0.7883  0.2724
  606MOL0     H83587   9.899   9.083   3.793  0.6425 -0.3317 -0.8298
  606MOL0     H83588   9.821   9.220   3.719 -0.2898 -2.2921 -0.5335
  606MOL0     H83589   9.979   9.244   3.768  1.2073 -1.0369  1.0368
  606MOL0     H83590  10.319   8.901   3.756  1.5023 -2.5590  0.8971
  606MOL0     H83591  10.503   8.764   3.806  0.1518  0.1966  0.7353
  606MOL0     H83592  10.767   8.688   3.544 -1.2631  1.3711  0.9093
  606MOL0     H83593  10.907   8.798   3.558 -0.3214  1.1247  1.0798
  606MOL0     H83594  10.872   8.567   3.761  1.9255 -2.9213 -0.0248
  606MOL0     H83595  10.987   8.567   3.623  0.7738  2.1770 -1.0774
  606MOL0     H83596  10.974   8.787   3.822 -1.3208 -1.4288 -0.2525
  606MOL0     H83597  11.099   8.760   3.696 -0.3406  1.6063  1.6209
  606MOL0     H83598  11.142   8.529   3.825 -2.8967 -0.2106 -0.9061
  606MOL0     H83599  11.046   8.606   3.952 -1.0852  0.6975 -0.5458
  606MOL0     H83600  11.270   8.623   4.002  0.1858 -1.5275 -1.4307
  606MOL0     H83601  11.318   8.693   3.858 -0.7855 -0.1038  0.3880
  606MOL0     H83602  11.106   8.828   4.033  1.2484 -1.1496  0.9755
  606MOL0     H83603  11.207   8.905   3.911  3.4887 -0.6201 -1.7949
  606MOL0     H83604  11.414   8.888   4.041  0.0001  0.2509  0.7972
  606MOL0     H83605  11.346   8.761   4.146 -0.3224  1.4730  3.0751
  606MOL0     H83606  11.178   8.939   4.236  0.9001 -3.9457 -0.4728
  606MOL0     H83607  11.246   9.051   4.123  1.5510 -0.3335  1.1154
  606MOL0     H83608  10.760   8.972   3.535  0.2111 -2.5560 -0.1020
  606MOL0     H83609  10.575   9.100   3.459 -2.3752  1.1396  0.0299
  606MOL0     H83610  10.186   9.053   3.350 -0.5039  0.6201 -0.7322
  606MOL0     H83611  10.000   9.050   3.213 -2.4278  0.2566 -0.7711
  606MOL0     H83612   8.518   9.534   3.679 -0.9984 -0.1969  1.5233
  606MOL0     H83613   8.314   9.647   3.645  2.5669  1.0612 -1.5143
  606MOL0     H83614   7.898   9.585   3.371  2.3394  1.0522  0.2602
  606MOL0     H83615   7.695   9.671   3.289 -1.0424 -0.9508  1.5004
  606MOL0     H83616   7.491   9.849   3.230 -1.3141 -0.9820 -0.5501
  606MOL0     H83617   7.461   9.701   3.325  1.8616 -0.1458  0.0171
  606MOL0     H83618   7.258   9.814   3.412  0.8321  0.5026  0.2595
  606MOL0     H83619   7.272   9.836   3.239  0.7673 -2.5425  0.3387
  606MOL0     H83620   7.357  10.054   3.441  1.1094  0.6014 -0.1895
  606MOL0     H83621   7.376  10.058   3.269  1.3857 -2.3604  0.3745
  606MOL0     H83622   7.131  10.048   3.244 -1.9105  4.3444 -0.8232
  606MOL0     H83623   7.193  10.196   3.322 -0.3913  0.7498 -0.0410
  606MOL0     H83624   6.941  10.069   3.622  0.1032  0.3053 -1.0375
  606MOL0     H83625   7.681   9.927   3.634  2.6266 -1.1739  1.0916
  606MOL0     H83626   7.989   9.858   3.741 -0.1964  0.4935 -1.8617
  606MOL0     H83627   7.838   9.936   3.796 -0.4903 -0.5632 -0.1547
  606MOL0     H83628   7.876   9.769   3.849 -0.0109  0.9436  1.0991
  607MOL0     O83629   1.857   0.365   1.159  0.3451  0.2439  0.1851
  607MOL0     C83630   1.775   0.446   1.118 -0.0076  0.5707 -1.4130
  607MOL0     O83631   1.736   0.473   0.986 -0.4867  0.3042  0.0144
  607MOL0     C83632   1.834   0.456   0.884  0.9371 -0.2008 -0.8498
  607MOL0     C83633   1.828   0.347   0.799 -0.3310  0.0142  0.0178
  607MOL0     C83634   1.923   0.336   0.697  0.9325  0.4601  0.3577
  607MOL0     C83635   2.011   0.438   0.678  0.4335  0.1555  0.2634
  607MOL0     O83636   2.098   0.428   0.573 -0.3908 -0.0670  0.4130
  607MOL0     C83637   2.081   0.536   0.475 -0.0376 -0.3741 -0.7595
  607MOL0     C83638   2.209   0.611   0.439 -0.8378 -0.0415 -0.6108
  607MOL0     C83639   2.323   0.525   0.372  0.1518 -1.0656 -0.2126
  607MOL0     C83640   2.445   0.615   0.331 -0.8507 -0.1997 -0.2051
  607MOL0     C83641   2.574   0.532   0.316  0.3761 -0.0275  0.6405
  607MOL0     C83642   2.701   0.606   0.348  0.1465 -0.0353 -0.0029
  607MOL0     C83643   2.829   0.530   0.314 -0.4429 -0.0826 -0.5531
  607MOL0     C83644   2.948   0.624   0.350  0.6310  0.7445  0.5655
  607MOL0     N83645   3.082   0.569   0.321 -0.1506  0.3671 -1.1057
  607MOL0     C83646   3.202   0.624   0.351 -0.9051  0.1343 -0.5826
  607MOL0     C83647   3.292   0.532   0.314 -0.2136  1.0086 -0.0723
  607MOL0     C83648   3.436   0.547   0.352 -1.0324  0.1059  0.6641
  607MOL0     C83649   3.518   0.671   0.310  0.7586  0.0122  0.5894
  607MOL0     C83650   3.529   0.669   0.152  0.3377 -0.4895  0.3345
  607MOL0     C83651   3.591   0.552   0.088 -0.9980  0.1321  0.5920
  607MOL0     O83652   3.717   0.517   0.151  1.0647  0.2656 -0.8884
  607MOL0     C83653   3.841   0.520   0.098 -0.4684  0.0570 -0.2477
  607MOL0     C83654   3.873   0.577  -0.028 -0.3682  0.1794 -0.7113
  607MOL0     C83655   4.002   0.565  -0.084  0.1685 -0.9370  1.0309
  607MOL0     C83656   4.018   0.608  -0.229 -0.3897  0.1814 -0.1212
  607MOL0     C83657   4.110   0.518  -0.006  0.2442 -0.4311  0.6603
  607MOL0     C83658   4.248   0.487  -0.059  0.0220 -0.0763  0.2365
  607MOL0     O83659   4.303   0.548  -0.169  0.1283 -0.2229  0.3986
  607MOL0     C83660   4.417   0.493  -0.216 -0.5362  0.4378 -0.2558
  607MOL0     C83661   4.542   0.543  -0.166  0.7331  0.2453 -0.1766
  607MOL0     C83662   4.663   0.508  -0.231  0.0373 -0.0551  0.8799
  607MOL0     C83663   4.662   0.413  -0.332  0.5399  1.4871  0.5930
  607MOL0     O83664   4.777   0.363  -0.392 -0.1366 -0.4657  0.2753
  607MOL0     C83665   4.903   0.405  -0.340 -0.5015 -0.2305  0.2998
  607MOL0     C83666   5.012   0.335  -0.418  0.4542 -0.2121 -0.4712
  607MOL0     C83667   5.131   0.297  -0.331 -0.5803  0.8397 -1.1217
  607MOL0     C83668   5.235   0.232  -0.427  0.1918 -0.1240  0.0899
  607MOL0     C83669   5.347   0.179  -0.338 -0.6207  0.2797 -0.5853
  607MOL0     C83670   5.467   0.127  -0.419  0.3013 -0.8996  0.5240
  607MOL0     C83671   5.573   0.081  -0.314  0.1315  0.2164  0.2304
  607MOL0     C83672   5.703   0.059  -0.384  0.0774 -0.1336 -0.5723
  607MOL0    Cl83673   5.783   0.217  -0.397 -0.1738  0.0913 -0.1082
  607MOL0     C83674   4.538   0.355  -0.365 -0.1395 -0.1602 -0.3556
  607MOL0     C83675   4.421   0.394  -0.307 -0.4022  0.0928  0.1186
  607MOL0     O83676   4.307   0.401   0.002  0.3600  0.1206 -0.8739
  607MOL0     C83677   4.080   0.491   0.130 -0.1716  0.0546 -0.3324
  607MOL0     C83678   3.953   0.485   0.176  0.2083  0.9680  0.5542
  607MOL0     N83679   3.230   0.413   0.285 -0.5648  0.0258  0.2633
  607MOL0     N83680   3.103   0.438   0.283  0.0790  0.1627  0.8552
  607MOL0     C83681   2.026   0.543   0.762  0.9428 -0.7384 -0.2486
  607MOL0     C83682   1.938   0.549   0.871 -0.4791  0.1821  0.4302
  607MOL0     C83683   1.684   0.491   1.224  0.0916 -0.6984 -0.4160
  607MOL0     C83684   1.635   0.408   1.327  0.1963 -0.4687  0.3979
  607MOL0     C83685   1.542   0.450   1.409 -0.3901 -0.2109 -0.3537
  607MOL0     C83686   1.493   0.577   1.405  0.2935  0.5631 -0.0944
  607MOL0     O83687   1.399   0.628   1.493  0.1892  0.4656  0.1351
  607MOL0     C83688   1.352   0.533   1.597 -0.4563 -0.0603  0.3426
  607MOL0     C83689   1.248   0.603   1.678 -0.9113  0.0963  0.0498
  607MOL0     C83690   1.160   0.507   1.749  0.1543 -0.1621  0.6083
  607MOL0     C83691   1.244   0.414   1.850  0.7458 -0.1542 -0.2078
  607MOL0     C83692   1.293   0.494   1.961 -0.0404 -0.3792  0.5575
  607MOL0     C83693   1.341   0.563   2.050  0.9166  0.5718 -0.6328
  607MOL0     C83694   1.533   0.662   1.315 -0.2751 -0.2288  0.6519
  607MOL0     C83695   1.629   0.623   1.225 -0.1256 -0.0114  0.5764
  607MOL0     C83696   1.672   0.728   1.125  0.1463  0.4422  0.4571
  607MOL0     H83697   1.748   0.275   0.816  0.3900 -0.7186  0.3661
  607MOL0     H83698   1.928   0.254   0.626  2.5566  1.8225 -1.1976
  607MOL0     H83699   2.001   0.607   0.499 -0.7245 -0.8205 -1.6457
  607MOL0     H83700   2.037   0.495   0.383  0.7021  1.1721 -1.8358
  607MOL0     H83701   2.179   0.694   0.375 -0.8715  1.5719  1.4036
  607MOL0     H83702   2.248   0.663   0.528 -1.2979 -0.9296  0.1321
  607MOL0     H83703   2.366   0.450   0.440  0.1892 -0.8624 -0.0132
  607MOL0     H83704   2.286   0.467   0.287 -0.3425 -0.0660 -0.6942
  607MOL0     H83705   2.413   0.657   0.235  1.1538  0.5524 -0.5948
  607MOL0     H83706   2.460   0.694   0.406  0.2030  1.6237 -2.2131
  607MOL0     H83707   2.577   0.500   0.211  0.9287  0.2246  0.5758
  607MOL0     H83708   2.567   0.443   0.379  0.0980 -1.1255 -0.8863
  607MOL0     H83709   2.702   0.711   0.315  1.0744  0.0563  0.2881
  607MOL0     H83710   2.697   0.627   0.455 -0.0253 -0.1503  0.0125
  607MOL0     H83711   2.828   0.518   0.205 -2.3280 -0.3068 -0.5351
  607MOL0     H83712   2.828   0.431   0.361  1.0008 -0.5760 -1.5113
  607MOL0     H83713   2.923   0.707   0.284  1.0220  0.9075  0.6207
  607MOL0     H83714   2.930   0.655   0.453  0.5633 -0.4219  0.9227
  607MOL0     H83715   3.216   0.719   0.401  1.3522 -1.0716  1.2583
  607MOL0     H83716   3.489   0.461   0.309 -1.6739  0.6675 -1.3143
  607MOL0     H83717   3.443   0.534   0.461  2.0131 -4.2306  0.2288
  607MOL0     H83718   3.462   0.758   0.345 -1.7095 -0.7595 -1.1100
  607MOL0     H83719   3.624   0.668   0.336  0.6073  1.0109  1.3399
  607MOL0     H83720   3.437   0.693   0.099  1.7410  4.2972 -0.4169
  607MOL0     H83721   3.587   0.759   0.129 -4.0519  2.1689 -1.5722
  607MOL0     H83722   3.525   0.465   0.084  0.0702 -0.7469 -3.6775
  607MOL0     H83723   3.605   0.575  -0.019 -0.7126 -1.0816  0.3570
  607MOL0     H83724   3.796   0.622  -0.089  0.6633  0.4499 -1.8264
  607MOL0     H83725   4.070   0.529  -0.283 -2.1502 -0.2305 -1.3284
  607MOL0     H83726   4.076   0.698  -0.251 -1.2381  0.3606 -1.8179
  607MOL0     H83727   3.919   0.621  -0.276 -0.5846 -0.4753  0.0974
  607MOL0     H83728   4.555   0.620  -0.091  1.5951 -0.6751  0.6434
  607MOL0     H83729   4.758   0.540  -0.189  1.2704  0.5233 -2.1455
  607MOL0     H83730   4.923   0.512  -0.349  0.5173 -0.4813 -0.6408
  607MOL0     H83731   4.910   0.371  -0.236 -1.8597  1.6777  1.0668
  607MOL0     H83732   4.967   0.241  -0.452  2.4315 -0.8849 -1.3946
  607MOL0     H83733   5.045   0.396  -0.503 -0.4110 -0.8802 -1.3118
  607MOL0     H83734   5.112   0.222  -0.255  2.7903 -1.2442 -2.1076
  607MOL0     H83735   5.180   0.385  -0.288  2.5076 -1.5289  0.6343
  607MOL0     H83736   5.280   0.303  -0.497 -0.7524 -1.2767 -1.7735
  607MOL0     H83737   5.179   0.158  -0.485 -0.4167 -0.2716  0.8470
  607MOL0     H83738   5.385   0.259  -0.273  0.1536 -0.3396 -0.2557
  607MOL0     H83739   5.309   0.098  -0.275  2.0017  0.4863  1.5009
  607MOL0     H83740   5.499   0.202  -0.491 -0.5837 -0.6856  0.3526
  607MOL0     H83741   5.443   0.037  -0.476  0.8598  0.9452 -2.9023
  607MOL0     H83742   5.542  -0.017  -0.276 -0.4898 -0.4385 -1.8246
  607MOL0     H83743   5.588   0.156  -0.236  0.5194 -0.4194  0.7744
  607MOL0     H83744   5.673   0.009  -0.476 -0.2015 -0.5066 -0.2837
  607MOL0     H83745   5.764  -0.014  -0.330  0.3980  1.2648  1.0235
  607MOL0     H83746   4.525   0.273  -0.435  0.8405  0.3925 -1.2129
  607MOL0     H83747   4.326   0.347  -0.332  0.0042 -0.9931  0.5685
  607MOL0     H83748   4.159   0.457   0.196 -0.8642 -1.9236 -0.4297
  607MOL0     H83749   3.942   0.480   0.284  3.6635 -0.4681  0.9650
  607MOL0     H83750   2.096   0.618   0.728 -0.2621  1.1496  1.2024
  607MOL0     H83751   1.945   0.634   0.937 -4.7386  3.1504 -2.4186
  607MOL0     H83752   1.656   0.302   1.332 -1.9231 -1.1208 -2.1575
  607MOL0     H83753   1.487   0.375   1.464 -0.6618  0.2159 -0.0378
  607MOL0     H83754   1.315   0.441   1.549 -0.7615  0.6826 -0.8849
  607MOL0     H83755   1.440   0.506   1.656 -0.9837 -0.2785  1.0337
  607MOL0     H83756   1.196   0.680   1.620  1.5612  1.6664 -0.2767
  607MOL0     H83757   1.307   0.665   1.747 -0.7252  0.2259 -0.2258
  607MOL0     H83758   1.093   0.576   1.802 -0.7404 -1.2249  0.9149
  607MOL0     H83759   1.099   0.445   1.682 -1.0147  1.4032  0.1715
  607MOL0     H83760   1.331   0.370   1.801  0.7930  2.2703 -2.5525
  607MOL0     H83761   1.183   0.335   1.895  0.7020  0.3575  0.6410
  607MOL0     H83762   1.377   0.623   2.131  0.4063  0.2726 -0.1793
  607MOL0     H83763   1.489   0.761   1.310  0.1336  0.0864  2.6318
  607MOL0     H83764   1.778   0.706   1.112 -0.0557 -1.2649  1.4393
  607MOL0     H83765   1.616   0.718   1.032  1.4949 -2.7671 -0.1442
  607MOL0     H83766   1.664   0.829   1.167 -1.3135  0.7544 -0.5096
  608MOL0     O83767   1.376   3.808   7.298 -0.1513  0.2082  0.6118
  608MOL0     C83768   1.422   3.797   7.412 -0.2250  0.5086 -1.2152
  608MOL0     O83769   1.549   3.769   7.449  0.2699  0.0669  0.2198
  608MOL0     C83770   1.656   3.751   7.368  0.5032 -0.1410  1.1186
  608MOL0     C83771   1.766   3.683   7.429  0.6372  0.0435 -0.2317
  608MOL0     C83772   1.890   3.666   7.350  0.0823  0.2841  0.4875
  608MOL0     C83773   1.897   3.710   7.219 -0.2925  0.1692  0.0287
  608MOL0     O83774   2.007   3.681   7.152 -0.4678 -0.0283 -0.0256
  608MOL0     C83775   2.068   3.777   7.070 -0.5233 -0.0784 -0.0875
  608MOL0     C83776   2.186   3.854   7.131 -1.1954 -0.0376 -0.9844
  608MOL0     C83777   2.235   3.977   7.052 -0.4938  1.1732 -0.4410
  608MOL0     C83778   2.355   4.039   7.123  0.5616  0.1262 -0.3700
  608MOL0     C83779   2.424   4.132   7.026 -0.0609 -0.1429 -0.1011
  608MOL0     C83780   2.533   4.206   7.106 -0.5476 -0.1129 -0.3530
  608MOL0     C83781   2.614   4.302   7.025  0.1321 -0.8375  0.4817
  608MOL0     C83782   2.738   4.349   7.099 -0.4063 -0.3605  0.7103
  608MOL0     N83783   2.838   4.237   7.098  0.8696  0.6908  0.1129
  608MOL0     C83784   2.942   4.223   7.008 -0.2128  0.0653  0.3445
  608MOL0     C83785   3.037   4.151   7.080 -0.2894 -0.1398  0.3277
  608MOL0     C83786   3.171   4.106   7.028 -0.1914  0.3303  0.4764
  608MOL0     C83787   3.220   4.160   6.887 -0.2212 -0.2231 -0.4164
  608MOL0     C83788   3.360   4.120   6.865 -0.9718 -0.0707  0.0832
  608MOL0     C83789   3.391   4.144   6.719 -0.5184  0.4387 -0.0556
  608MOL0     O83790   3.516   4.091   6.686 -0.7666 -0.8816  0.3452
  608MOL0     C83791   3.635   4.171   6.684  0.6789  0.3291 -0.8342
  608MOL0     C83792   3.658   4.282   6.758 -0.1952 -0.3881 -0.0388
  608MOL0     C83793   3.788   4.340   6.768 -0.0395 -0.9109  1.1707
  608MOL0     C83794   3.787   4.471   6.848 -0.3569  0.1432  0.2096
  608MOL0     C83795   3.899   4.272   6.703  0.2247  0.5866  0.1180
  608MOL0     C83796   4.037   4.314   6.709  0.3923 -0.6675 -0.0630
  608MOL0     O83797   4.119   4.266   6.605  0.0576  0.4110 -0.8405
  608MOL0     C83798   4.258   4.260   6.617 -1.2807  0.7472 -0.7231
  608MOL0     C83799   4.320   4.244   6.498 -0.3971 -0.4526  0.2822
  608MOL0     C83800   4.459   4.247   6.493  0.4482  0.9735  0.1438
  608MOL0     C83801   4.540   4.231   6.606  1.1958 -0.7817  0.5041
  608MOL0     O83802   4.675   4.232   6.602  0.5980 -0.0504  0.2251
  608MOL0     C83803   4.721   4.124   6.533 -0.4589  0.2332  0.5924
  608MOL0     C83804   4.865   4.136   6.518  0.1843  0.1673  0.0362
  608MOL0     C83805   4.932   4.017   6.448 -0.0919 -0.0035 -0.1670
  608MOL0     C83806   4.895   4.012   6.303 -0.1491  0.3909  0.8560
  608MOL0     C83807   4.918   3.875   6.235 -0.7797  0.6262  0.0593
  608MOL0     C83808   5.049   3.814   6.270 -1.0210  0.6399 -0.2680
  608MOL0     C83809   5.090   3.702   6.168  0.5022  0.3998 -0.6078
  608MOL0     C83810   5.236   3.688   6.148 -0.7035 -0.7057 -0.2133
  608MOL0    Cl83811   5.327   3.626   6.289 -0.1618  0.1999  0.1929
  608MOL0     C83812   4.475   4.252   6.726 -0.6095 -0.1513 -0.1629
  608MOL0     C83813   4.335   4.253   6.739 -0.6103  0.2544  0.3484
  608MOL0     O83814   4.077   4.384   6.803 -0.2578  0.4918  0.0852
  608MOL0     C83815   3.870   4.155   6.622  0.1504 -0.4190 -0.6020
  608MOL0     C83816   3.737   4.105   6.617 -0.1437  0.2711 -0.1795
  608MOL0     N83817   2.986   4.120   7.208  0.2260  0.1379  0.2006
  608MOL0     N83818   2.867   4.175   7.214 -0.7442 -0.3927  0.0010
  608MOL0     C83819   1.783   3.764   7.160  0.6330 -0.0749 -0.5995
  608MOL0     C83820   1.667   3.791   7.235 -0.8398 -0.3220  0.6353
  608MOL0     C83821   1.316   3.800   7.521  0.1575 -0.1073 -0.3818
  608MOL0     C83822   1.196   3.866   7.482  0.0004 -0.0859  0.5830
  608MOL0     C83823   1.081   3.861   7.567 -0.8830 -0.9843 -0.3311
  608MOL0     C83824   1.084   3.792   7.695 -0.0962  0.2929  0.0847
  608MOL0     O83825   0.977   3.780   7.782 -0.3473 -0.0063  0.2257
  608MOL0     C83826   0.847   3.831   7.744 -0.1729 -0.2391  0.3887
  608MOL0     C83827   0.776   3.750   7.633 -0.8365  0.4856  0.1275
  608MOL0     C83828   0.767   3.608   7.675 -1.0630  0.2780 -0.7933
  608MOL0     C83829   0.681   3.522   7.580 -0.1012  0.3454  0.0536
  608MOL0     C83830   0.540   3.559   7.592 -0.3203 -0.8172 -0.0712
  608MOL0     C83831   0.419   3.584   7.591 -0.6178  0.0813 -0.0718
  608MOL0     C83832   1.209   3.735   7.739 -0.0317  0.6248  0.1656
  608MOL0     C83833   1.319   3.740   7.655 -0.4213  0.2825  0.7663
  608MOL0     C83834   1.449   3.685   7.704  0.2012  0.1211 -0.0377
  608MOL0     H83835   1.743   3.666   7.534 -0.7748 -1.1650 -0.6944
  608MOL0     H83836   1.979   3.616   7.385 -0.0653  0.0024  0.4693
  608MOL0     H83837   1.990   3.851   7.050 -1.0423 -0.0435  1.9047
  608MOL0     H83838   2.087   3.741   6.968  1.6174  1.8772 -0.4548
  608MOL0     H83839   2.167   3.900   7.229 -0.2286  4.1850 -2.5793
  608MOL0     H83840   2.279   3.796   7.128  0.1993  1.5424  3.4942
  608MOL0     H83841   2.274   3.944   6.955  0.0030 -0.6113  0.3240
  608MOL0     H83842   2.161   4.056   7.041 -1.2783  1.0758  3.0169
  608MOL0     H83843   2.330   4.103   7.208  1.2247  3.1137 -2.2898
  608MOL0     H83844   2.428   3.965   7.157  1.2106  0.1911 -1.5533
  608MOL0     H83845   2.358   4.210   6.988  0.3841  2.4518  3.8425
  608MOL0     H83846   2.459   4.074   6.941  1.4589  1.2083 -0.4598
  608MOL0     H83847   2.490   4.260   7.191 -0.9054 -1.5588  0.4172
  608MOL0     H83848   2.597   4.130   7.151 -2.5924 -2.0358 -0.5229
  608MOL0     H83849   2.554   4.379   6.976  0.6516 -0.2569  0.7405
  608MOL0     H83850   2.645   4.243   6.937 -0.7455 -1.3644  0.5179
  608MOL0     H83851   2.783   4.438   7.054  1.2927 -1.6585 -0.2967
  608MOL0     H83852   2.708   4.383   7.198  0.0560  0.4794  0.5702
  608MOL0     H83853   2.944   4.262   6.906  3.0351  0.2226  0.3614
  608MOL0     H83854   3.168   3.996   7.032  1.4732  0.1657 -1.3600
  608MOL0     H83855   3.239   4.140   7.107 -0.7075  0.6540  0.7857
  608MOL0     H83856   3.147   4.106   6.825 -1.1887 -0.3030  0.7485
  608MOL0     H83857   3.204   4.268   6.885 -0.8975 -0.3256 -1.1379
  608MOL0     H83858   3.426   4.177   6.931 -1.4184 -0.1407  0.5988
  608MOL0     H83859   3.377   4.018   6.901  0.9655  0.7082  1.5876
  608MOL0     H83860   3.314   4.104   6.653 -1.1012  3.2848 -1.2701
  608MOL0     H83861   3.387   4.252   6.699 -3.4388  0.0808 -2.0742
  608MOL0     H83862   3.579   4.325   6.819 -1.7345 -1.9361 -0.8168
  608MOL0     H83863   3.800   4.438   6.951  1.7442 -1.9609 -0.6453
  608MOL0     H83864   3.692   4.526   6.840  0.7543  2.2191  0.5099
  608MOL0     H83865   3.873   4.535   6.827  0.1471 -0.6030 -0.0191
  608MOL0     H83866   4.262   4.240   6.407  1.0441  2.2725 -0.8748
  608MOL0     H83867   4.506   4.236   6.396  1.1494 -1.0750  0.6570
  608MOL0     H83868   4.700   4.032   6.587 -2.7667  1.8045  2.5904
  608MOL0     H83869   4.681   4.115   6.432  3.1535  1.4118 -1.1296
  608MOL0     H83870   4.895   4.222   6.457  1.3484 -1.6783 -2.1241
  608MOL0     H83871   4.898   4.137   6.623  1.2274  0.6389 -0.2851
  608MOL0     H83872   4.900   3.929   6.505  0.5082  1.7562  3.1746
  608MOL0     H83873   5.040   4.029   6.463  0.1366 -2.9622  1.2759
  608MOL0     H83874   4.964   4.085   6.259 -1.4505  0.9320 -0.3506
  608MOL0     H83875   4.792   4.044   6.287 -0.3053 -0.6917 -0.4195
  608MOL0     H83876   4.833   3.809   6.255 -1.7591  1.2592 -1.7972
  608MOL0     H83877   4.915   3.886   6.127 -0.1285 -0.8623 -0.1422
  608MOL0     H83878   5.057   3.788   6.376 -0.3511 -0.0134 -0.4778
  608MOL0     H83879   5.125   3.893   6.265 -0.5736  0.4009  1.7266
  608MOL0     H83880   5.054   3.719   6.066 -2.0671  0.2124  0.2122
  608MOL0     H83881   5.047   3.609   6.206  0.0219  1.6829  2.2641
  608MOL0     H83882   5.280   3.786   6.123 -1.5251 -0.4338 -0.6203
  608MOL0     H83883   5.259   3.625   6.062 -1.5497 -0.0514 -0.9343
  608MOL0     H83884   4.531   4.242   6.819  0.1115  1.1117 -0.4458
  608MOL0     H83885   4.289   4.258   6.837 -2.8792  1.0643 -0.6877
  608MOL0     H83886   3.955   4.110   6.571  2.7371  1.2914  1.9151
  608MOL0     H83887   3.711   4.018   6.559 -2.1698  1.7624 -1.6476
  608MOL0     H83888   1.790   3.793   7.055  2.2428  2.5500  0.1225
  608MOL0     H83889   1.582   3.837   7.187 -0.5950  0.4857  0.9667
  608MOL0     H83890   1.168   3.910   7.387 -1.4311 -0.2116  0.9220
  608MOL0     H83891   0.984   3.899   7.537  0.0019  1.9579  0.2037
  608MOL0     H83892   0.782   3.839   7.832 -0.1363 -0.5256  0.4440
  608MOL0     H83893   0.860   3.932   7.703  0.9751 -0.1081  1.0047
  608MOL0     H83894   0.821   3.758   7.534  1.6833 -1.4277  1.0107
  608MOL0     H83895   0.674   3.790   7.629 -0.4819  2.2948  4.2921
  608MOL0     H83896   0.868   3.567   7.674 -0.4997  1.6263 -1.4723
  608MOL0     H83897   0.748   3.586   7.781  0.2460 -1.1765 -0.8230
  608MOL0     H83898   0.691   3.417   7.609 -0.2496  0.6075  1.0716
  608MOL0     H83899   0.717   3.540   7.478 -3.2678  1.8801 -0.9290
  608MOL0     H83900   0.316   3.608   7.577 -0.4418  0.4044 -0.8910
  608MOL0     H83901   1.214   3.700   7.842  1.6503 -1.0051 -0.4213
  608MOL0     H83902   1.480   3.616   7.625  1.7073 -1.2986  1.7125
  608MOL0     H83903   1.527   3.762   7.709  3.1029 -2.6545  0.3986
  608MOL0     H83904   1.438   3.633   7.799 -1.4682 -1.6852 -1.1514
  609MOL0     O83905   3.455   1.118   1.444  0.6325  0.8132  0.1398
  609MOL0     C83906   3.414   1.215   1.382 -0.6835  0.1954  0.4763
  609MOL0     O83907   3.503   1.303   1.316  0.0452 -0.5408 -0.1581
  609MOL0     C83908   3.636   1.309   1.335 -0.9454 -0.1125 -0.5018
  609MOL0     C83909   3.725   1.197   1.334 -0.2727 -0.6326  0.0023
  609MOL0     C83910   3.868   1.223   1.348 -0.4596  0.0343  0.0355
  609MOL0     C83911   3.923   1.348   1.363  0.3367 -0.4332  0.2120
  609MOL0     O83912   4.054   1.381   1.381 -0.6145  0.8378  0.2204
  609MOL0     C83913   4.158   1.278   1.410  1.0753 -0.5218  0.8483
  609MOL0     C83914   4.305   1.324   1.402 -0.6969 -0.0162  0.6030
  609MOL0     C83915   4.329   1.433   1.507  0.1160  0.4938 -0.2457
  609MOL0     C83916   4.473   1.494   1.491  0.0628 -0.3211 -0.0942
  609MOL0     C83917   4.472   1.618   1.395  0.3484 -0.0129  0.0742
  609MOL0     C83918   4.597   1.702   1.411  0.2255  0.1404  0.3943
  609MOL0     C83919   4.595   1.810   1.301 -0.1183 -0.1848  0.2452
  609MOL0     C83920   4.718   1.905   1.310 -0.4684 -0.1223  0.2479
  609MOL0     N83921   4.839   1.844   1.268  0.1859  0.5091  0.1316
  609MOL0     C83922   4.846   1.772   1.152 -0.3758  0.2397  0.0877
  609MOL0     C83923   4.951   1.689   1.164  0.2396  0.2583  0.1021
  609MOL0     C83924   5.003   1.588   1.062 -0.4090  0.6015  0.4106
  609MOL0     C83925   4.927   1.459   1.103 -0.2554  0.0986 -0.5679
  609MOL0     C83926   5.005   1.333   1.060  0.7936 -0.4491 -0.2987
  609MOL0     C83927   5.130   1.305   1.143  0.3115  0.0945  0.3001
  609MOL0     O83928   5.214   1.188   1.103  0.0839 -0.3154  0.8992
  609MOL0     C83929   5.328   1.162   1.171 -0.6838 -0.1889 -0.0589
  609MOL0     C83930   5.373   1.033   1.155  0.3371 -0.0063  0.2821
  609MOL0     C83931   5.506   0.991   1.196  0.0786  0.1808  0.4488
  609MOL0     C83932   5.547   0.847   1.168  0.5402  0.2704 -0.1044
  609MOL0     C83933   5.585   1.081   1.265  0.4315  0.3786  0.6970
  609MOL0     C83934   5.721   1.057   1.321 -0.3851  0.1286 -0.6424
  609MOL0     O83935   5.774   1.149   1.418 -0.0118  0.1316 -0.1699
  609MOL0     C83936   5.897   1.127   1.473 -1.2174  0.8317  0.1172
  609MOL0     C83937   6.000   1.210   1.431  0.2708  0.3954 -0.5535
  609MOL0     C83938   6.127   1.201   1.485  0.4108  0.2193  0.0436
  609MOL0     C83939   6.155   1.110   1.588 -0.8622  0.1361 -0.2197
  609MOL0     O83940   6.281   1.132   1.642  0.6977 -0.4118 -0.1425
  609MOL0     C83941   6.310   1.048   1.750 -0.2212 -0.4577  0.0060
  609MOL0     C83942   6.451   1.065   1.809 -0.2205 -0.0146 -0.0431
  609MOL0     C83943   6.494   0.940   1.894 -0.2338 -1.4369 -0.0189
  609MOL0     C83944   6.631   0.962   1.953  0.0294 -0.0137  0.0241
  609MOL0     C83945   6.687   0.838   2.032 -0.0663  0.0232  0.8068
  609MOL0     C83946   6.818   0.796   1.959 -0.2128 -0.2886  0.0896
  609MOL0     C83947   6.902   0.676   2.017 -0.2019 -0.6594  0.3743
  609MOL0     C83948   6.992   0.709   2.133  0.3818  0.2994 -0.1253
  609MOL0    Cl83949   7.112   0.575   2.158 -0.4113  0.0529  0.1350
  609MOL0     C83950   6.059   1.001   1.609 -0.7172 -1.0726  0.7616
  609MOL0     C83951   5.934   1.009   1.551  0.1234 -0.4707  0.2442
  609MOL0     O83952   5.788   0.965   1.282 -0.1979 -0.7106  0.1207
  609MOL0     C83953   5.533   1.211   1.288 -0.6005  0.3479  0.1286
  609MOL0     C83954   5.410   1.252   1.232  0.5330  0.1151 -0.0135
  609MOL0     N83955   5.017   1.720   1.275  0.5284 -0.2944  0.0284
  609MOL0     N83956   4.944   1.807   1.345  0.1739  0.6398 -0.0600
  609MOL0     C83957   3.830   1.457   1.362  0.4739  0.8167 -0.6607
  609MOL0     C83958   3.689   1.437   1.358  0.3060  0.3399  0.2784
  609MOL0     C83959   3.272   1.238   1.362 -0.1993 -0.2889  0.1782
  609MOL0     C83960   3.237   1.338   1.268 -1.4370 -0.0395 -1.2236
  609MOL0     C83961   3.105   1.372   1.246  0.3163  0.2546 -0.3398
  609MOL0     C83962   3.004   1.297   1.304 -0.5226  1.6455  0.6764
  609MOL0     O83963   2.869   1.328   1.300 -0.5233 -0.3077  0.2443
  609MOL0     C83964   2.812   1.436   1.229  0.8649  0.5232 -0.1019
  609MOL0     C83965   2.665   1.439   1.268 -0.1662  0.1537  0.1430
  609MOL0     C83966   2.589   1.579   1.245 -0.1525  0.1448 -0.0699
  609MOL0     C83967   2.436   1.564   1.283  0.0018  0.5738  0.8324
  609MOL0     C83968   2.377   1.465   1.192  0.3747 -0.7425 -0.5610
  609MOL0     C83969   2.324   1.375   1.127  0.2284  0.2615 -0.0214
  609MOL0     C83970   3.043   1.194   1.379  0.4342 -0.5423 -0.6900
  609MOL0     C83971   3.170   1.164   1.420  0.0207 -0.2533  0.2339
  609MOL0     C83972   3.183   1.056   1.530 -0.4654 -0.8246  0.1945
  609MOL0     H83973   3.696   1.096   1.310  1.2195 -0.8312 -1.1486
  609MOL0     H83974   3.926   1.134   1.328 -1.7108 -0.7714 -0.1389
  609MOL0     H83975   4.147   1.203   1.332 -1.4829  0.4328  0.1986
  609MOL0     H83976   4.136   1.236   1.509  0.2293 -1.3885  0.3084
  609MOL0     H83977   4.371   1.238   1.417 -1.3662 -0.5843  0.3043
  609MOL0     H83978   4.335   1.366   1.306 -0.8923  0.3932  0.7205
  609MOL0     H83979   4.246   1.504   1.500 -0.8366 -0.7294 -2.1888
  609MOL0     H83980   4.328   1.376   1.600  0.4292  1.2395  0.2257
  609MOL0     H83981   4.495   1.536   1.590  1.8277  3.1359 -1.7849
  609MOL0     H83982   4.547   1.419   1.463  1.8812  2.1930 -2.6191
  609MOL0     H83983   4.385   1.675   1.427  1.1276  2.0173 -1.2495
  609MOL0     H83984   4.456   1.585   1.292 -3.4507  2.2291 -0.2136
  609MOL0     H83985   4.601   1.740   1.513 -0.4664  0.8186  0.1830
  609MOL0     H83986   4.681   1.632   1.406 -0.4272 -0.5535 -2.0260
  609MOL0     H83987   4.504   1.868   1.321 -1.9690 -2.1931 -1.6574
  609MOL0     H83988   4.576   1.768   1.201 -1.7698  3.4693 -1.1577
  609MOL0     H83989   4.697   1.995   1.251 -0.7951  1.0803  2.0963
  609MOL0     H83990   4.727   1.952   1.408  2.4708  1.9457 -0.8915
  609MOL0     H83991   4.775   1.761   1.070 -0.0971 -2.0122  0.0761
  609MOL0     H83992   5.110   1.565   1.071 -0.6569 -0.2061  1.5325
  609MOL0     H83993   4.981   1.612   0.958 -0.0679  2.6450  0.7731
  609MOL0     H83994   4.914   1.448   1.211  1.1414  1.3299 -0.2376
  609MOL0     H83995   4.826   1.463   1.061  0.2320 -1.2828 -1.9396
  609MOL0     H83996   4.940   1.245   1.072  1.3604 -0.8006  0.2621
  609MOL0     H83997   5.031   1.338   0.953 -3.9518 -1.2842 -1.7233
  609MOL0     H83998   5.194   1.392   1.126  0.1470 -0.0191 -1.0265
  609MOL0     H83999   5.101   1.311   1.248  0.4965  1.4807  0.2928
  609MOL0     H84000   5.306   0.959   1.115  0.8042 -0.1666 -0.2203
  609MOL0     H84001   5.612   0.858   1.081 -0.2739  0.4590 -0.7021
  609MOL0     H84002   5.466   0.777   1.144  0.1722  0.8446 -0.5737
  609MOL0     H84003   5.613   0.809   1.247  0.8377 -4.3497 -2.2629
  609MOL0     H84004   5.982   1.288   1.358  0.4567  0.8099 -0.1630
  609MOL0     H84005   6.196   1.282   1.463 -0.5711  1.1418  0.2933
  609MOL0     H84006   6.230   1.057   1.824 -2.3282  0.8719 -2.2713
  609MOL0     H84007   6.312   0.947   1.708 -0.4799  0.1291 -1.4850
  609MOL0     H84008   6.521   1.085   1.728  0.4091  0.2659  0.5569
  609MOL0     H84009   6.453   1.154   1.873 -0.5986  0.0310 -0.0890
  609MOL0     H84010   6.493   0.849   1.833  1.5664 -3.4705  2.7177
  609MOL0     H84011   6.417   0.932   1.972  0.5822  1.1367  1.1736
  609MOL0     H84012   6.631   1.047   2.022  1.5983 -0.3358  0.4569
  609MOL0     H84013   6.693   0.990   1.867  0.9378  1.8847  1.2489
  609MOL0     H84014   6.712   0.883   2.129 -1.5530 -0.0052  1.2265
  609MOL0     H84015   6.609   0.763   2.048 -0.0078 -0.5150 -1.2045
  609MOL0     H84016   6.886   0.881   1.974  1.7949 -2.0296  1.5992
  609MOL0     H84017   6.790   0.778   1.855 -3.3954  1.0025  0.6065
  609MOL0     H84018   6.952   0.626   1.933 -0.6395  2.0518 -1.6410
  609MOL0     H84019   6.820   0.611   2.049 -3.5678  2.5848 -0.9963
  609MOL0     H84020   6.941   0.740   2.225 -0.1553  0.7884 -0.5818
  609MOL0     H84021   7.058   0.792   2.107  0.7104 -0.7778 -3.0574
  609MOL0     H84022   6.090   0.911   1.661  1.3802 -2.1170 -2.0955
  609MOL0     H84023   5.867   0.926   1.571 -0.6075 -0.2649 -1.1869
  609MOL0     H84024   5.592   1.291   1.331  2.2689 -1.0510 -0.8874
  609MOL0     H84025   5.376   1.355   1.233 -3.1690 -0.9531  0.2016
  609MOL0     H84026   3.871   1.557   1.376  3.4852 -0.3751 -0.1583
  609MOL0     H84027   3.626   1.525   1.359 -0.6879 -0.3490  1.1801
  609MOL0     H84028   3.308   1.398   1.211  0.0972  2.9520  3.3214
  609MOL0     H84029   3.090   1.460   1.184  1.1518  1.5462  1.2139
  609MOL0     H84030   2.856   1.530   1.262 -0.1210  1.6566 -1.8625
  609MOL0     H84031   2.827   1.428   1.120  1.9057  1.2310 -0.0316
  609MOL0     H84032   2.663   1.418   1.376  0.3808  1.6613  0.4800
  609MOL0     H84033   2.613   1.358   1.218  2.2998 -0.2807 -1.9605
  609MOL0     H84034   2.632   1.657   1.309 -1.4728  0.8604 -0.0137
  609MOL0     H84035   2.602   1.610   1.141  0.3759 -2.2628 -0.7804
  609MOL0     H84036   2.391   1.662   1.262 -0.2090 -0.1070 -2.2784
  609MOL0     H84037   2.421   1.535   1.387  1.1907 -0.1404  0.8170
  609MOL0     H84038   2.253   1.312   1.078 -1.3829  0.5825  1.8172
  609MOL0     H84039   2.960   1.141   1.426 -0.1026  0.3464 -0.6144
  609MOL0     H84040   3.087   1.014   1.561  0.8064 -2.7849  1.7136
  609MOL0     H84041   3.242   0.972   1.492  2.1632  0.6681  0.7615
  609MOL0     H84042   3.216   1.105   1.622 -2.8625 -0.0074  0.6878
  610MOL0     O84043   9.182   7.889   9.723  0.1369  0.0251  0.4064
  610MOL0     C84044   9.120   7.895   9.824 -1.6480  0.3677 -0.0692
  610MOL0     O84045   9.171   7.859   9.944 -0.8954 -0.5768  0.0426
  610MOL0     C84046   9.300   7.818   9.974 -0.0233 -0.1590  0.5525
  610MOL0     C84047   9.405   7.815   9.881  1.1632  0.0763 -0.5067
  610MOL0     C84048   9.534   7.794   9.927  0.3179 -0.3568 -0.2290
  610MOL0     C84049   9.561   7.766  10.066  0.0386 -0.2457 -0.7180
  610MOL0     O84050   9.691   7.753  10.099  0.2194  0.5435  0.0106
  610MOL0     C84051   9.721   7.787  10.229  0.3362 -0.6562  0.2128
  610MOL0     C84052   9.872   7.818  10.249 -0.4561  0.4695 -0.1681
  610MOL0     C84053   9.961   7.694  10.266 -0.1548 -0.4940 -0.3580
  610MOL0     C84054  10.110   7.719  10.246 -0.6344  0.0155 -0.5946
  610MOL0     C84055  10.188   7.750  10.372 -1.2510  0.1611  0.1698
  610MOL0     C84056  10.338   7.785  10.347  0.2437  0.3207  0.1093
  610MOL0     C84057  10.407   7.874  10.450  0.2156  0.4203 -0.0739
  610MOL0     C84058  10.556   7.904  10.434 -0.3500 -0.2322 -0.1091
  610MOL0     N84059  10.633   7.783  10.487  0.0207 -0.2313  0.2873
  610MOL0     C84060  10.681   7.680  10.416  0.0377 -0.3142 -0.1388
  610MOL0     C84061  10.756   7.615  10.510  0.2705 -0.7865  0.0889
  610MOL0     C84062  10.845   7.498  10.488 -0.1761 -0.4600 -0.2837
  610MOL0     C84063  10.978   7.522  10.417  0.2993 -0.1406 -0.0463
  610MOL0     C84064  10.986   7.634  10.311  0.5490 -1.2480  0.5949
  610MOL0     C84065  11.116   7.637  10.227  0.0272 -0.7048 -0.7612
  610MOL0     O84066  11.240   7.630  10.302 -0.5477  0.1298 -0.5319
  610MOL0     C84067  11.341   7.723  10.304 -0.0366 -0.2506  0.6270
  610MOL0     C84068  11.413   7.728  10.424 -0.1265 -0.2398  0.0500
  610MOL0     C84069  11.517   7.826  10.441 -0.2318 -0.5018  0.2479
  610MOL0     C84070  11.599   7.832  10.567 -0.3618 -0.1903 -0.1994
  610MOL0     C84071  11.549   7.911  10.331  0.3027  0.0846  0.7013
  610MOL0     C84072  11.652   8.014  10.329 -0.7307  0.9881  0.7983
  610MOL0     O84073  11.732   8.016  10.218  0.6198 -0.3341 -0.5786
  610MOL0     C84074  11.844   8.085  10.208  0.2676  0.1769  0.7164
  610MOL0     C84075  11.877   8.111  10.074  0.3347 -0.7342  0.9460
  610MOL0     C84076  12.002   8.173  10.045 -0.0412 -0.2017  0.6893
  610MOL0     C84077  12.080   8.225  10.146 -0.0303  0.0473  0.3905
  610MOL0     O84078  12.166   8.316  10.110 -0.1444 -0.3330  0.5033
  610MOL0     C84079  12.287   8.323  10.192  0.8687 -0.3386 -0.0099
  610MOL0     C84080  12.404   8.409  10.130 -0.2690  0.1318 -0.1746
  610MOL0     C84081  12.494   8.331  10.034  0.9021 -0.1111  0.2925
  610MOL0     C84082  12.617   8.410   9.998  0.9504  0.1884  0.0493
  610MOL0     C84083  12.711   8.353   9.893 -1.2735  0.4883 -0.1505
  610MOL0     C84084  12.856   8.407   9.899  1.1637  0.7255 -0.1013
  610MOL0     C84085  12.864   8.543   9.840 -0.5540 -0.1926 -0.2793
  610MOL0     C84086  13.010   8.605   9.832  0.2233  0.1061  0.3701
  610MOL0    Cl84087  13.047   8.654   9.999 -0.2152  0.0055 -0.3589
  610MOL0     C84088  12.050   8.192  10.277 -0.8483  0.5810 -0.1466
  610MOL0     C84089  11.930   8.121  10.307 -0.7060 -0.6248  0.9813
  610MOL0     O84090  11.667   8.087  10.421 -0.5518 -0.7573  0.1301
  610MOL0     C84091  11.461   7.913  10.222  0.1633  0.1478  0.4844
  610MOL0     C84092  11.362   7.817  10.201 -0.3028 -0.3519 -0.2500
  610MOL0     N84093  10.752   7.687  10.629  0.5888 -0.2821  0.0589
  610MOL0     N84094  10.673   7.781  10.622  0.0502 -0.2030 -0.5313
  610MOL0     C84095   9.452   7.762  10.156  0.3040 -0.1780 -0.5375
  610MOL0     C84096   9.322   7.789  10.108 -0.8157  0.2313 -0.0900
  610MOL0     C84097   8.978   7.939   9.810 -0.3834  0.5123 -0.4476
  610MOL0     C84098   8.928   7.994   9.688 -0.6861  0.2001  0.4907
  610MOL0     C84099   8.798   8.041   9.687 -0.9027 -0.4920  0.3817
  610MOL0     C84100   8.707   8.024   9.786  0.3898 -0.3627 -0.7979
  610MOL0     O84101   8.572   8.073   9.787 -0.4432  0.3743 -0.7363
  610MOL0     C84102   8.549   8.193   9.714 -0.6410 -0.6764  0.5409
  610MOL0     C84103   8.423   8.266   9.755 -0.1321 -0.0222 -0.1960
  610MOL0     C84104   8.300   8.169   9.755  0.2578 -0.5966 -0.5119
  610MOL0     C84105   8.170   8.241   9.779  0.2725  0.4130 -0.7591
  610MOL0     C84106   8.132   8.334   9.674 -0.8230  0.5765 -0.2353
  610MOL0     C84107   8.101   8.405   9.581 -0.4549 -0.3316  0.2217
  610MOL0     C84108   8.749   7.945   9.896  0.7352 -0.7475 -0.3623
  610MOL0     C84109   8.876   7.900   9.907 -0.0491 -0.2664 -0.1671
  610MOL0     C84110   8.903   7.801  10.026 -0.9254  0.6146  0.1653
  610MOL0     H84111   9.395   7.834   9.775 -0.5912  2.2138 -0.0319
  610MOL0     H84112   9.623   7.794   9.865  1.8041  0.2427  1.8211
  610MOL0     H84113   9.687   7.712  10.301 -1.0137  0.3216  0.6307
  610MOL0     H84114   9.674   7.882  10.256  4.0452  1.1463  1.0374
  610MOL0     H84115   9.895   7.861  10.151 -3.6694 -1.1307 -1.8072
  610MOL0     H84116   9.890   7.876  10.340 -1.3052 -0.6712  0.7601
  610MOL0     H84117   9.942   7.636  10.356 -0.6807  1.0586  0.5797
  610MOL0     H84118   9.932   7.629  10.183 -2.3169 -1.1408  0.8352
  610MOL0     H84119  10.161   7.632  10.204  1.6461  0.1099  1.7342
  610MOL0     H84120  10.128   7.803  10.178  3.9408 -0.7095 -0.5644
  610MOL0     H84121  10.192   7.662  10.436  1.5382 -0.2801 -0.4577
  610MOL0     H84122  10.136   7.820  10.437 -2.0637 -0.6856  0.4463
  610MOL0     H84123  10.401   7.697  10.333 -1.9616 -1.6708  2.0362
  610MOL0     H84124  10.331   7.844  10.254 -1.5311 -0.8476 -0.5494
  610MOL0     H84125  10.382   7.832  10.548 -1.1927  2.1091  0.3345
  610MOL0     H84126  10.356   7.971  10.449 -0.4183  0.0914 -0.1109
  610MOL0     H84127  10.577   7.916  10.328 -0.6799  2.6451  0.0654
  610MOL0     H84128  10.587   7.995  10.486 -1.6218 -0.4008  1.0026
  610MOL0     H84129  10.667   7.661  10.309 -0.9024  2.1630 -0.5206
  610MOL0     H84130  10.786   7.419  10.441  1.0552 -0.6025 -1.6621
  610MOL0     H84131  10.882   7.461  10.584  0.2113  3.5430  1.3095
  610MOL0     H84132  11.052   7.556  10.490 -1.3419  3.1791  0.2845
  610MOL0     H84133  11.009   7.427  10.374  1.8321 -0.1052  0.8781
  610MOL0     H84134  10.903   7.610  10.244 -0.6560  0.9825  1.2022
  610MOL0     H84135  10.960   7.733  10.349  1.0453 -0.6210 -0.6452
  610MOL0     H84136  11.113   7.557  10.152 -0.4916 -2.0812  0.6843
  610MOL0     H84137  11.111   7.726  10.163 -3.0999  1.4377  2.1221
  610MOL0     H84138  11.379   7.669  10.508 -0.3159  1.0793  0.9304
  610MOL0     H84139  11.557   7.905  10.636  2.8706  0.7439  0.9558
  610MOL0     H84140  11.699   7.871  10.547 -0.1888  0.6217  2.0518
  610MOL0     H84141  11.605   7.739  10.624 -0.9715 -0.6894 -0.9209
  610MOL0     H84142  11.807   8.078   9.998 -0.6961  0.1935  1.4843
  610MOL0     H84143  12.028   8.202   9.943 -0.1363  3.7746  1.6377
  610MOL0     H84144  12.264   8.374  10.287 -0.0150 -0.6305 -0.0569
  610MOL0     H84145  12.328   8.227  10.225  0.8448  0.4053  2.4101
  610MOL0     H84146  12.367   8.499  10.080  1.3197 -0.3010 -2.2647
  610MOL0     H84147  12.473   8.429  10.212  0.6968  0.0883 -0.9586
  610MOL0     H84148  12.438   8.314   9.941 -0.5867  1.1089  0.9242
  610MOL0     H84149  12.520   8.234  10.077  2.1230  0.7239  1.4930
  610MOL0     H84150  12.675   8.431  10.089  1.5420  1.3112 -0.5566
  610MOL0     H84151  12.571   8.505   9.968 -0.6604  0.1903  2.2581
  610MOL0     H84152  12.719   8.244   9.902  1.4789  0.2427 -3.4196
  610MOL0     H84153  12.672   8.369   9.792  0.2415 -2.2910 -1.2887
  610MOL0     H84154  12.919   8.339   9.842  0.4473  0.2446 -0.3246
  610MOL0     H84155  12.908   8.402   9.996 -0.4041 -1.9663  0.6896
  610MOL0     H84156  12.815   8.617   9.903 -1.5058 -1.0183 -0.0312
  610MOL0     H84157  12.816   8.537   9.742  1.7866 -1.3670 -1.4511
  610MOL0     H84158  12.993   8.694   9.770  2.8210  0.9774  0.8012
  610MOL0     H84159  13.090   8.540   9.795  0.2750  0.9928 -1.1535
  610MOL0     H84160  12.116   8.225  10.358 -1.1096  0.1205  0.2567
  610MOL0     H84161  11.897   8.093  10.406  0.3270 -3.9623  0.4938
  610MOL0     H84162  11.491   7.981  10.142  2.9849  1.5164  2.5063
  610MOL0     H84163  11.311   7.811  10.106 -0.3612  1.9695 -0.4375
  610MOL0     H84164   9.461   7.745  10.263 -0.0400 -0.5285 -0.5588
  610MOL0     H84165   9.233   7.813  10.166 -1.1211  1.0915 -0.8772
  610MOL0     H84166   8.997   8.007   9.606  1.0519  1.8694  2.1144
  610MOL0     H84167   8.765   8.088   9.595 -0.1924 -2.0692 -0.7403
  610MOL0     H84168   8.633   8.260   9.733 -0.8354 -0.4604  0.6434
  610MOL0     H84169   8.547   8.177   9.606  1.2691  0.3231  0.3237
  610MOL0     H84170   8.405   8.352   9.690  1.9923  0.3079 -0.3994
  610MOL0     H84171   8.442   8.284   9.861  1.0597 -0.4461 -0.3190
  610MOL0     H84172   8.299   8.111   9.662 -1.4242 -0.2839 -0.7197
  610MOL0     H84173   8.311   8.099   9.838 -0.3550  0.7917  0.7873
  610MOL0     H84174   8.163   8.294   9.875 -2.9124 -0.0050 -0.6254
  610MOL0     H84175   8.090   8.166   9.784  1.5734 -1.0488 -0.9803
  610MOL0     H84176   8.060   8.457   9.497 -0.0676 -1.9845 -1.0411
  610MOL0     H84177   8.674   7.921   9.970  0.0419  0.0687 -0.7758
  610MOL0     H84178   8.943   7.705   9.992 -0.7628  0.9213 -0.5313
  610MOL0     H84179   8.980   7.843  10.091 -1.0606 -0.2936  0.9274
  610MOL0     H84180   8.816   7.783  10.090 -1.5399  0.7015 -0.6248
  611MOL0     O84181   6.492   2.885   1.353  0.2188 -0.3044  0.0781
  611MOL0     C84182   6.490   2.929   1.471  0.1889 -0.2490 -0.1455
  611MOL0     O84183   6.593   2.906   1.563  0.5898 -0.0284 -0.0910
  611MOL0     C84184   6.702   2.837   1.524 -0.0167  0.1585 -0.2334
  611MOL0     C84185   6.691   2.704   1.482 -0.0886  0.0059 -0.5008
  611MOL0     C84186   6.794   2.632   1.430 -0.6156 -0.3929 -0.6388
  611MOL0     C84187   6.922   2.692   1.425  0.4687 -0.2780  0.3246
  611MOL0     O84188   7.027   2.641   1.356  0.4299 -0.8787  0.1286
  611MOL0     C84189   7.020   2.506   1.310  0.3452 -0.4099 -0.5632
  611MOL0     C84190   7.148   2.466   1.235 -0.6903 -0.2387  0.0802
  611MOL0     C84191   7.283   2.499   1.307  0.1287  0.6803  0.2920
  611MOL0     C84192   7.387   2.482   1.204  0.0369  0.4592  0.0146
  611MOL0     C84193   7.521   2.543   1.252  0.8871  0.2206  0.0070
  611MOL0     C84194   7.637   2.491   1.171 -0.3393  0.4618 -0.1680
  611MOL0     C84195   7.777   2.513   1.244  0.6262  0.2040  0.2390
  611MOL0     C84196   7.873   2.402   1.208  0.5390  0.2537  0.7903
  611MOL0     N84197   7.995   2.411   1.287  0.0320  0.2647 -0.0332
  611MOL0     C84198   8.005   2.367   1.417 -0.0414 -0.7873 -0.1929
  611MOL0     C84199   8.130   2.410   1.460 -0.4425  1.0647 -0.2514
  611MOL0     C84200   8.173   2.396   1.610 -0.1725  0.5529  0.0478
  611MOL0     C84201   8.311   2.321   1.637 -0.2808 -0.2539  0.1488
  611MOL0     C84202   8.444   2.404   1.611  0.2454  0.3003  0.5717
  611MOL0     C84203   8.567   2.330   1.661  0.2208 -0.5771 -0.1751
  611MOL0     O84204   8.572   2.203   1.593  0.4053  0.5021 -0.0350
  611MOL0     C84205   8.689   2.140   1.570 -0.0051 -0.7028 -0.1031
  611MOL0     C84206   8.680   2.015   1.508  0.2666 -0.0575  0.5110
  611MOL0     C84207   8.794   1.938   1.480  0.0033 -0.5131  0.4210
  611MOL0     C84208   8.768   1.801   1.408 -0.6436 -0.4405  0.0439
  611MOL0     C84209   8.919   1.986   1.527 -0.3489  0.5752  0.1583
  611MOL0     C84210   9.050   1.922   1.490 -0.4466 -0.2789  0.0826
  611MOL0     O84211   9.143   1.926   1.592  0.3678  0.0913 -0.1352
  611MOL0     C84212   9.271   1.879   1.564 -0.4574  0.1763 -0.9480
  611MOL0     C84213   9.315   1.741   1.589  0.8465 -0.3660  0.7042
  611MOL0     C84214   9.449   1.703   1.563 -0.3216  0.2122  0.5250
  611MOL0     C84215   9.548   1.798   1.522  0.5841 -0.3483 -0.8104
  611MOL0     O84216   9.682   1.778   1.493 -0.6865 -0.0070  0.2572
  611MOL0     C84217   9.743   1.669   1.576 -0.4027  0.4458  0.0688
  611MOL0     C84218   9.890   1.669   1.547 -0.5194 -0.2836 -0.1172
  611MOL0     C84219   9.955   1.789   1.612 -0.7341 -0.0581  0.5443
  611MOL0     C84220  10.098   1.761   1.671 -0.7943  0.0846 -0.8147
  611MOL0     C84221  10.161   1.881   1.747  0.1151  0.3525  0.8844
  611MOL0     C84222  10.181   2.008   1.663  0.6764 -0.4072 -0.2421
  611MOL0     C84223  10.315   2.083   1.678  0.1890  0.0888  0.2921
  611MOL0     C84224  10.442   1.988   1.660  0.9131  0.3952  0.8254
  611MOL0    Cl84225  10.575   2.096   1.667 -0.0055 -0.1264  0.2542
  611MOL0     C84226   9.506   1.927   1.503 -1.5848 -0.3449 -0.8652
  611MOL0     C84227   9.374   1.971   1.519  0.4519  0.4565 -0.3725
  611MOL0     O84228   9.068   1.869   1.380 -0.3641 -0.0048 -0.1494
  611MOL0     C84229   8.928   2.102   1.596 -1.0322  0.4626  0.3367
  611MOL0     C84230   8.816   2.181   1.618  0.6258 -1.0043 -0.0061
  611MOL0     N84231   8.196   2.473   1.356  0.4129  0.3981  0.2998
  611MOL0     N84232   8.110   2.474   1.258  0.0359  0.5721  0.4072
  611MOL0     C84233   6.938   2.819   1.476 -0.5339 -0.3885  0.7283
  611MOL0     C84234   6.829   2.894   1.528  0.5321  0.8273  0.0898
  611MOL0     C84235   6.375   3.015   1.509  1.2562 -0.8354  0.2279
  611MOL0     C84236   6.260   3.012   1.426  0.0417  0.6000 -0.1465
  611MOL0     C84237   6.150   3.090   1.455  0.0579  0.5802 -0.1247
  611MOL0     C84238   6.145   3.162   1.571 -0.1990  0.1884 -0.3829
  611MOL0     O84239   6.035   3.231   1.606  0.7138  0.3250  0.3592
  611MOL0     C84240   5.937   3.260   1.499 -0.3321 -0.7636 -0.5854
  611MOL0     C84241   5.827   3.355   1.547 -0.2173  0.1223  0.0075
  611MOL0     C84242   5.718   3.286   1.624 -0.2005 -0.5020 -0.6464
  611MOL0     C84243   5.622   3.383   1.692 -0.6932 -0.6139  0.3333
  611MOL0     C84244   5.538   3.443   1.583  0.2125  0.4841 -0.0139
  611MOL0     C84245   5.462   3.502   1.508  0.4607  0.4050  0.0616
  611MOL0     C84246   6.257   3.172   1.644  0.3772 -1.4751  0.3169
  611MOL0     C84247   6.373   3.100   1.622  1.1701 -0.3752 -0.2139
  611MOL0     C84248   6.474   3.097   1.722 -0.1806 -0.1553  0.7141
  611MOL0     H84249   6.593   2.657   1.483 -0.1663  0.0821 -2.1592
  611MOL0     H84250   6.784   2.534   1.385  0.0639 -1.2483  0.9888
  611MOL0     H84251   6.935   2.495   1.242 -0.9843  0.2141  0.9211
  611MOL0     H84252   7.000   2.432   1.388  1.9776  0.3871  0.6692
  611MOL0     H84253   7.151   2.360   1.209 -1.4258 -0.1150 -0.5434
  611MOL0     H84254   7.152   2.519   1.139  0.5935 -2.5256 -1.1985
  611MOL0     H84255   7.290   2.601   1.346  1.3916  0.4088  0.8337
  611MOL0     H84256   7.302   2.426   1.386  0.5191 -0.0798 -0.4795
  611MOL0     H84257   7.391   2.375   1.180  0.0010  0.7670 -1.4164
  611MOL0     H84258   7.355   2.549   1.124 -0.1134  2.7924  1.9003
  611MOL0     H84259   7.533   2.513   1.357  1.6240 -1.4584 -0.5288
  611MOL0     H84260   7.527   2.652   1.240  2.0081  0.0260 -1.5346
  611MOL0     H84261   7.618   2.385   1.152  1.1270  0.5437 -2.4291
  611MOL0     H84262   7.631   2.547   1.077 -3.2659  1.0029  0.2356
  611MOL0     H84263   7.760   2.521   1.352 -1.8718 -1.2872  0.0525
  611MOL0     H84264   7.829   2.605   1.219  0.1176  0.3069 -0.4760
  611MOL0     H84265   7.818   2.308   1.221 -1.8647  1.5264  0.3922
  611MOL0     H84266   7.898   2.410   1.102 -0.3955 -2.8058  0.2352
  611MOL0     H84267   7.918   2.330   1.470 -3.0251  4.9180 -0.2819
  611MOL0     H84268   8.099   2.326   1.651  1.3057  0.2452  2.3261
  611MOL0     H84269   8.158   2.487   1.668 -0.6444 -0.7283  2.0214
  611MOL0     H84270   8.308   2.288   1.741 -1.3400  0.2967  0.3069
  611MOL0     H84271   8.315   2.225   1.584 -2.3464 -0.5279  0.4111
  611MOL0     H84272   8.446   2.410   1.502 -1.6552 -1.7603  0.3627
  611MOL0     H84273   8.440   2.507   1.648 -0.7756 -0.6693  3.5164
  611MOL0     H84274   8.661   2.380   1.635  1.5222 -1.2508  2.8148
  611MOL0     H84275   8.565   2.326   1.770 -3.1409  1.0834 -0.0729
  611MOL0     H84276   8.579   1.982   1.486  0.1270  1.5408 -1.6032
  611MOL0     H84277   8.662   1.789   1.387 -1.8382  2.4012  3.4111
  611MOL0     H84278   8.800   1.726   1.481 -1.0534  1.2247  2.0317
  611MOL0     H84279   8.841   1.796   1.327 -0.8935  2.0890 -0.3960
  611MOL0     H84280   9.245   1.663   1.619  0.9339 -0.6585  0.1672
  611MOL0     H84281   9.497   1.606   1.577  3.6912  1.3749 -3.1180
  611MOL0     H84282   9.712   1.683   1.680 -0.6360  0.2868  0.0218
  611MOL0     H84283   9.700   1.573   1.548 -0.3827  0.5138 -0.1952
  611MOL0     H84284   9.941   1.577   1.577  2.7940  1.9238  1.7948
  611MOL0     H84285   9.901   1.680   1.439 -1.7000 -0.3323 -0.2540
  611MOL0     H84286   9.904   1.819   1.704  1.2918  2.0172  1.0917
  611MOL0     H84287   9.960   1.877   1.546 -0.1915 -1.4391 -1.3497
  611MOL0     H84288  10.171   1.718   1.602  1.4913  1.0543  0.8568
  611MOL0     H84289  10.085   1.690   1.752  0.3237  1.3573  0.5534
  611MOL0     H84290  10.109   1.906   1.840 -0.0215  1.5398  0.5037
  611MOL0     H84291  10.261   1.847   1.779  2.0753  3.2931 -1.5388
  611MOL0     H84292  10.097   2.075   1.687 -0.0274 -1.2258 -0.3442
  611MOL0     H84293  10.177   1.983   1.557 -0.5203 -1.1259 -0.0529
  611MOL0     H84294  10.310   2.132   1.776  1.0520 -0.0089  0.3930
  611MOL0     H84295  10.321   2.165   1.605 -2.4858 -1.2403 -1.5887
  611MOL0     H84296  10.436   1.951   1.558  1.2996  2.4494  0.0192
  611MOL0     H84297  10.453   1.917   1.742  0.2896  1.6333  2.0348
  611MOL0     H84298   9.580   1.991   1.455  2.6307 -3.8970  0.2041
  611MOL0     H84299   9.345   2.071   1.488 -1.6808  0.3698  1.0847
  611MOL0     H84300   9.022   2.126   1.646 -1.5374 -1.5392  2.4286
  611MOL0     H84301   8.822   2.271   1.678 -1.0604 -0.5226 -0.4940
  611MOL0     H84302   7.036   2.864   1.476 -0.0199 -1.4231 -1.2453
  611MOL0     H84303   6.843   2.997   1.559 -0.8705  1.5380 -1.4960
  611MOL0     H84304   6.268   2.947   1.339 -1.4864  0.8047 -0.4640
  611MOL0     H84305   6.063   3.087   1.391 -1.3043  1.2003  1.6177
  611MOL0     H84306   5.989   3.313   1.419  0.8997  0.7180  1.1046
  611MOL0     H84307   5.892   3.166   1.465  0.9747 -0.7902 -2.3740
  611MOL0     H84308   5.784   3.401   1.457  0.5573 -0.0494 -0.4649
  611MOL0     H84309   5.865   3.442   1.600  1.0096  0.2037 -0.9707
  611MOL0     H84310   5.668   3.220   1.552  0.4471 -0.5971 -1.0191
  611MOL0     H84311   5.766   3.227   1.703  0.9398  3.1590  1.6456
  611MOL0     H84312   5.675   3.466   1.740  1.4725  0.0353 -2.8662
  611MOL0     H84313   5.563   3.326   1.764 -0.1999 -0.4161  0.9020
  611MOL0     H84314   5.389   3.544   1.442 -0.0162 -1.4943 -0.6853
  611MOL0     H84315   6.251   3.229   1.737  2.4326 -1.6666  0.5981
  611MOL0     H84316   6.501   2.998   1.757  2.5868  0.6258  1.0310
  611MOL0     H84317   6.570   3.132   1.683  0.8155 -1.2041  2.1320
  611MOL0     H84318   6.447   3.161   1.807 -1.2668 -0.1027  0.3419
  612MOL0     O84319  10.375   5.561   5.480  0.2784 -0.1377  0.3831
  612MOL0     C84320  10.314   5.472   5.416  0.2928 -0.1885 -0.8849
  612MOL0     O84321  10.365   5.353   5.377 -0.3051  0.1622 -0.2962
  612MOL0     C84322  10.497   5.330   5.361 -0.1388  0.1280  0.1962
  612MOL0     C84323  10.536   5.197   5.358 -0.0018 -0.1590  0.1520
  612MOL0     C84324  10.674   5.160   5.343 -0.1050  0.7834  0.2142
  612MOL0     C84325  10.769   5.267   5.321 -0.2631 -0.2607  0.7031
  612MOL0     O84326  10.901   5.236   5.296  0.4348 -0.7099  0.0349
  612MOL0     C84327  10.962   5.232   5.425  0.8056 -0.1285  0.5922
  612MOL0     C84328  11.100   5.161   5.405  0.9190 -0.0285 -0.3571
  612MOL0     C84329  11.203   5.242   5.322 -0.2738  0.8630 -0.0235
  612MOL0     C84330  11.331   5.164   5.331  0.9871 -0.4227 -0.1227
  612MOL0     C84331  11.449   5.247   5.287 -0.2453 -0.2340 -0.2471
  612MOL0     C84332  11.581   5.185   5.329  0.4893 -0.6411  0.4568
  612MOL0     C84333  11.713   5.246   5.275 -0.2275 -0.1240 -0.5568
  612MOL0     C84334  11.784   5.296   5.401  0.0963 -0.0373 -0.4783
  612MOL0     N84335  11.925   5.333   5.368 -0.5399  0.4599 -0.1608
  612MOL0     C84336  12.017   5.251   5.301 -0.6408 -0.2436  0.0048
  612MOL0     C84337  12.128   5.333   5.285  0.1419 -0.2068  0.1456
  612MOL0     C84338  12.256   5.305   5.209  0.4421  0.8697  0.4481
  612MOL0     C84339  12.322   5.433   5.162 -0.0022 -0.6387  0.0609
  612MOL0     C84340  12.475   5.424   5.140 -0.6509  0.7330 -0.0632
  612MOL0     C84341  12.550   5.541   5.097 -0.3266 -0.2999  0.2313
  612MOL0     O84342  12.687   5.502   5.077  0.0389  0.1722 -0.4466
  612MOL0     C84343  12.766   5.555   4.976 -0.5380  0.7485 -0.7121
  612MOL0     C84344  12.725   5.662   4.891  0.3771  0.3783  0.2250
  612MOL0     C84345  12.812   5.723   4.797  0.0636  1.0405  0.0119
  612MOL0     C84346  12.753   5.825   4.705  0.2530  0.1797 -0.1806
  612MOL0     C84347  12.942   5.668   4.783  0.4519 -0.3300 -0.2735
  612MOL0     C84348  13.046   5.725   4.692  0.1407 -0.6388 -0.5350
  612MOL0     O84349  13.151   5.647   4.651 -0.0377  0.6919  0.3636
  612MOL0     C84350  13.238   5.689   4.561  0.0299 -0.5523 -0.0321
  612MOL0     C84351  13.370   5.650   4.571  0.6207 -0.8238 -0.8596
  612MOL0     C84352  13.462   5.678   4.473  0.5608 -0.1442 -0.1230
  612MOL0     C84353  13.430   5.739   4.356 -0.0422  0.1465  0.7533
  612MOL0     O84354  13.513   5.768   4.253 -0.0328  0.3718 -0.2642
  612MOL0     C84355  13.578   5.652   4.207 -0.1373 -0.6596 -0.8059
  612MOL0     C84356  13.717   5.695   4.165  0.6801 -0.6303 -0.8506
  612MOL0     C84357  13.800   5.667   4.286 -0.2074 -0.5464 -0.5663
  612MOL0     C84358  13.948   5.710   4.271  0.2403  0.1155 -0.6643
  612MOL0     C84359  14.026   5.688   4.399  0.1621 -0.0018 -0.1770
  612MOL0     C84360  14.170   5.735   4.384  0.0748  0.1457 -0.2832
  612MOL0     C84361  14.247   5.705   4.514 -0.9043  0.7379 -0.0488
  612MOL0     C84362  14.383   5.780   4.517  0.5358  0.3627  0.9439
  612MOL0    Cl84363  14.486   5.690   4.630 -0.4160  0.2850  0.0465
  612MOL0     C84364  13.295   5.774   4.335  0.5759 -0.6116 -0.2700
  612MOL0     C84365  13.200   5.756   4.442 -0.3557 -0.0566  0.9840
  612MOL0     O84366  13.032   5.845   4.670 -0.6547  0.2127  0.0978
  612MOL0     C84367  12.977   5.559   4.863 -0.5569 -0.0371 -0.3765
  612MOL0     C84368  12.895   5.499   4.954  0.4471 -0.0589  0.1728
  612MOL0     N84369  12.108   5.449   5.363  0.0212  0.4801 -0.4419
  612MOL0     N84370  11.982   5.447   5.404 -0.7399 -0.1025 -0.3371
  612MOL0     C84371  10.727   5.403   5.330  0.3418 -0.0946 -1.0041
  612MOL0     C84372  10.595   5.432   5.344  0.3232 -0.3585 -0.4686
  612MOL0     C84373  10.171   5.489   5.403  0.6645  1.6144  0.3513
  612MOL0     C84374  10.097   5.375   5.415  0.3761  0.2668 -0.1345
  612MOL0     C84375   9.954   5.367   5.393 -0.2461  1.0235 -0.4149
  612MOL0     C84376   9.886   5.478   5.357  0.3703  0.1977  0.7516
  612MOL0     O84377   9.753   5.469   5.327  0.6906 -0.2435 -0.6245
  612MOL0     C84378   9.664   5.576   5.374  0.5387 -0.1169 -0.5799
  612MOL0     C84379   9.518   5.549   5.391 -0.4938  0.0193 -0.5498
  612MOL0     C84380   9.498   5.410   5.452 -0.1963  0.0110  0.4105
  612MOL0     C84381   9.355   5.373   5.488 -0.0985 -0.3374  0.7364
  612MOL0     C84382   9.251   5.371   5.382 -0.4025  0.1537  0.0124
  612MOL0     C84383   9.160   5.374   5.300 -0.4204 -0.3556  0.4416
  612MOL0     C84384   9.959   5.599   5.360 -0.5579  0.5454  0.2377
  612MOL0     C84385  10.096   5.604   5.378 -0.1002  0.5279 -0.8867
  612MOL0     C84386  10.149   5.746   5.380  1.4067  0.1360  0.7916
  612MOL0     H84387  10.464   5.119   5.375  0.5209 -0.6406  0.1790
  612MOL0     H84388  10.709   5.058   5.353 -0.7480  0.6528  1.2127
  612MOL0     H84389  10.898   5.171   5.489  1.1607 -2.6841 -1.2905
  612MOL0     H84390  10.972   5.333   5.463  2.2210  0.7594 -1.8930
  612MOL0     H84391  11.151   5.138   5.499  0.5386 -1.7596 -0.5574
  612MOL0     H84392  11.083   5.061   5.364 -1.7084 -0.0712  0.6385
  612MOL0     H84393  11.188   5.257   5.215  1.2999 -1.3649 -0.6350
  612MOL0     H84394  11.218   5.338   5.372 -1.5938  0.2661  1.6406
  612MOL0     H84395  11.347   5.138   5.436  2.7704  2.0119  0.3018
  612MOL0     H84396  11.322   5.072   5.273  1.2829 -0.6694  0.2237
  612MOL0     H84397  11.443   5.348   5.328  0.2116 -0.7366  1.1085
  612MOL0     H84398  11.448   5.265   5.179  1.2626  1.4695 -0.0318
  612MOL0     H84399  11.582   5.172   5.438  0.8516  0.2958  0.5754
  612MOL0     H84400  11.568   5.086   5.285 -1.6945 -0.0653 -0.2976
  612MOL0     H84401  11.715   5.328   5.203  1.2744  2.1952  1.9135
  612MOL0     H84402  11.778   5.172   5.229  3.4806  2.5101  0.0069
  612MOL0     H84403  11.727   5.382   5.438 -1.1859 -2.0546  2.6393
  612MOL0     H84404  11.785   5.216   5.475  0.3486  0.0241 -0.4154
  612MOL0     H84405  11.990   5.156   5.256 -1.6740  1.0740 -2.3006
  612MOL0     H84406  12.228   5.243   5.124  1.0678  0.1381  0.7647
  612MOL0     H84407  12.322   5.238   5.265 -0.7837 -4.4202 -3.5693
  612MOL0     H84408  12.267   5.451   5.070 -2.1223  0.0646  1.3878
  612MOL0     H84409  12.297   5.511   5.234 -1.6286 -2.1912  1.2596
  612MOL0     H84410  12.530   5.379   5.223 -0.9077  0.3700 -0.0845
  612MOL0     H84411  12.487   5.360   5.052  0.0659  4.1050 -2.6284
  612MOL0     H84412  12.503   5.570   5.002  0.0710  1.0361  0.4283
  612MOL0     H84413  12.543   5.627   5.164  0.4876 -1.8577  2.4482
  612MOL0     H84414  12.628   5.712   4.893 -0.8338 -1.8234  0.3469
  612MOL0     H84415  12.647   5.846   4.719  0.0294 -0.8759 -0.2273
  612MOL0     H84416  12.769   5.797   4.600  0.2095  0.1876 -0.1888
  612MOL0     H84417  12.806   5.919   4.725  2.2093 -0.8414 -0.3537
  612MOL0     H84418  13.403   5.594   4.658 -3.1931  1.5620  2.4900
  612MOL0     H84419  13.566   5.650   4.482  1.4626  1.1241 -4.3229
  612MOL0     H84420  13.586   5.578   4.287  0.3690  1.1284  0.8691
  612MOL0     H84421  13.528   5.606   4.121  1.6252  0.0241 -2.2579
  612MOL0     H84422  13.743   5.637   4.076 -1.3721 -0.8982 -1.3319
  612MOL0     H84423  13.720   5.801   4.142 -2.2389 -0.6080 -1.5293
  612MOL0     H84424  13.805   5.559   4.302 -2.7359 -0.3757  2.1877
  612MOL0     H84425  13.762   5.715   4.376  2.1240  0.3282  0.0129
  612MOL0     H84426  13.957   5.813   4.236 -0.1171  0.9874  1.6724
  612MOL0     H84427  13.993   5.653   4.188 -2.2283 -2.1765 -0.5697
  612MOL0     H84428  13.980   5.754   4.474  0.5727 -1.5179  1.4965
  612MOL0     H84429  14.017   5.583   4.429  1.7898 -0.2629 -0.4950
  612MOL0     H84430  14.156   5.843   4.370  0.0131  0.3675  1.2690
  612MOL0     H84431  14.209   5.686   4.295 -0.4203 -0.4088 -0.2040
  612MOL0     H84432  14.256   5.597   4.523  0.4349  0.8614  0.4676
  612MOL0     H84433  14.187   5.738   4.600 -0.6642 -1.7518  1.1509
  612MOL0     H84434  14.386   5.883   4.553 -2.4786  0.9267 -0.0854
  612MOL0     H84435  14.438   5.774   4.422  0.7943 -0.1964  1.1216
  612MOL0     H84436  13.254   5.816   4.245 -3.2853  0.1804  1.6617
  612MOL0     H84437  13.093   5.761   4.421 -0.1976 -1.3731 -0.3584
  612MOL0     H84438  13.082   5.537   4.849 -0.6718 -2.1554  1.3708
  612MOL0     H84439  12.925   5.410   5.008 -0.4818 -1.6524 -1.7979
  612MOL0     H84440  10.800   5.481   5.314  0.3522  0.1491  0.1583
  612MOL0     H84441  10.569   5.537   5.333  1.4564  0.0214  0.3040
  612MOL0     H84442  10.146   5.279   5.430  2.0362  0.6701 -2.4303
  612MOL0     H84443   9.903   5.272   5.385 -1.4377  1.8010 -3.2114
  612MOL0     H84444   9.693   5.610   5.474  1.5125  1.6940 -1.4290
  612MOL0     H84445   9.672   5.665   5.310 -3.5009  2.1319  1.6769
  612MOL0     H84446   9.470   5.546   5.293 -2.3479  2.2205  0.2007
  612MOL0     H84447   9.464   5.622   5.453  0.1995  1.4492 -1.5804
  612MOL0     H84448   9.546   5.333   5.391 -0.0500  1.2519 -1.0961
  612MOL0     H84449   9.548   5.412   5.549  1.0226  1.3310 -0.2141
  612MOL0     H84450   9.316   5.453   5.552  1.4217 -0.9220  2.4807
  612MOL0     H84451   9.358   5.289   5.559 -0.1027  0.3115  1.5268
  612MOL0     H84452   9.091   5.375   5.219 -0.0741 -2.3250  0.0666
  612MOL0     H84453   9.912   5.692   5.329  2.8433  1.0994 -4.3465
  612MOL0     H84454  10.092   5.805   5.452  0.4930 -1.0266  1.0465
  612MOL0     H84455  10.257   5.752   5.398  1.4560  1.2633  0.1655
  612MOL0     H84456  10.135   5.782   5.278  0.5327 -1.0650  0.4687
  613MOL0     O84457   3.111   0.216   4.466 -1.4346 -0.3902  0.1453
  613MOL0     C84458   3.072   0.168   4.365 -0.8007 -0.5485 -0.9888
  613MOL0     O84459   3.086   0.041   4.341 -0.7949 -0.4101 -0.8362
  613MOL0     C84460   3.148  -0.048   4.424  0.0215 -0.3810 -1.3172
  613MOL0     C84461   3.079  -0.155   4.447  0.5972  0.4070  0.0638
  613MOL0     C84462   3.126  -0.258   4.534 -0.3134  0.7010  0.3805
  613MOL0     C84463   3.254  -0.250   4.595  0.4909 -0.2720  1.0521
  613MOL0     O84464   3.296  -0.358   4.672 -0.1465 -0.2859  0.0414
  613MOL0     C84465   3.435  -0.376   4.703 -0.1973 -0.4061 -0.3150
  613MOL0     C84466   3.446  -0.496   4.793 -0.2040  0.1046  0.2819
  613MOL0     C84467   3.592  -0.512   4.853  0.0798  0.6882 -1.1255
  613MOL0     C84468   3.591  -0.622   4.958  0.3894  0.6623  0.0006
  613MOL0     C84469   3.518  -0.592   5.094 -0.3802  0.8119  0.4221
  613MOL0     C84470   3.515  -0.716   5.182 -0.3865 -0.2195 -0.2801
  613MOL0     C84471   3.645  -0.753   5.248 -0.8714  0.6106 -0.2948
  613MOL0     C84472   3.647  -0.876   5.331 -0.3571  0.3164  0.2711
  613MOL0     N84473   3.786  -0.914   5.361 -0.1831  0.2088  0.0089
  613MOL0     C84474   3.880  -0.852   5.448 -0.1551  0.8666  0.6831
  613MOL0     C84475   3.992  -0.927   5.439 -0.4020 -0.6187  1.2896
  613MOL0     C84476   4.110  -0.917   5.522 -0.1149 -0.7176 -0.1669
  613MOL0     C84477   4.214  -0.812   5.462 -1.0128 -0.6742 -0.1065
  613MOL0     C84478   4.362  -0.857   5.506  0.2567  0.0056 -0.2865
  613MOL0     C84479   4.469  -0.761   5.460 -0.1298 -0.3274  0.1477
  613MOL0     O84480   4.593  -0.816   5.505  0.0908  0.1599 -0.6151
  613MOL0     C84481   4.714  -0.748   5.470 -0.1178 -0.5012 -0.4027
  613MOL0     C84482   4.716  -0.622   5.403  0.3220 -0.5065  0.0351
  613MOL0     C84483   4.845  -0.556   5.379  0.5839 -0.0423  0.2728
  613MOL0     C84484   4.829  -0.424   5.302  0.1214 -0.3609  0.4806
  613MOL0     C84485   4.962  -0.613   5.425 -0.4270 -0.3661 -0.1979
  613MOL0     C84486   5.100  -0.552   5.393 -0.4062 -0.3495 -0.1104
  613MOL0     O84487   5.200  -0.643   5.410  0.1309 -0.5155  0.2056
  613MOL0     C84488   5.337  -0.632   5.387 -0.3548  0.1445  0.2687
  613MOL0     C84489   5.418  -0.731   5.435  0.6192 -0.3403 -0.5906
  613MOL0     C84490   5.555  -0.706   5.442 -0.1957  0.0983  0.1428
  613MOL0     C84491   5.619  -0.593   5.386 -0.4701  0.3729  0.6145
  613MOL0     O84492   5.753  -0.575   5.370  0.0611  0.7918 -1.3312
  613MOL0     C84493   5.841  -0.683   5.391 -0.6880 -0.5400  1.0285
  613MOL0     C84494   5.976  -0.606   5.393  0.1055  0.2712 -0.1305
  613MOL0     C84495   6.104  -0.693   5.425 -0.2978 -0.1571  0.0820
  613MOL0     C84496   6.236  -0.617   5.404  0.5140 -0.2187  0.1019
  613MOL0     C84497   6.267  -0.524   5.522  0.0491  0.1168  0.7531
  613MOL0     C84498   6.419  -0.515   5.555 -0.3618 -0.1713 -0.3467
  613MOL0     C84499   6.491  -0.424   5.447 -0.6435  0.5381  0.4442
  613MOL0     C84500   6.644  -0.427   5.464  0.2326  0.5205 -1.0153
  613MOL0    Cl84501   6.721  -0.296   5.359  0.5492 -0.2385 -0.2285
  613MOL0     C84502   5.533  -0.503   5.323 -0.3539  0.3028  0.7263
  613MOL0     C84503   5.392  -0.515   5.330 -0.3765  0.4897  0.6936
  613MOL0     O84504   5.110  -0.431   5.385  0.1656 -0.2647  0.0906
  613MOL0     C84505   4.955  -0.743   5.480 -0.3956 -0.4880 -0.5120
  613MOL0     C84506   4.837  -0.812   5.493  0.2370 -0.5399  0.2687
  613MOL0     N84507   3.980  -1.022   5.335  0.6031 -0.0797  0.3440
  613MOL0     N84508   3.857  -1.018   5.291 -0.5180 -0.4993  0.4597
  613MOL0     C84509   3.333  -0.133   4.554  0.2649 -0.0406 -0.0418
  613MOL0     C84510   3.275  -0.030   4.489 -0.0020  0.0437 -0.8443
  613MOL0     C84511   2.980   0.255   4.287 -0.2349  0.3645  0.6423
  613MOL0     C84512   2.883   0.199   4.202 -0.1784 -0.9889 -1.0753
  613MOL0     C84513   2.797   0.285   4.126 -0.3168 -0.2142 -0.4211
  613MOL0     C84514   2.800   0.426   4.129  0.7848 -0.5567  0.5151
  613MOL0     O84515   2.712   0.505   4.058 -0.0596  0.1570 -0.1503
  613MOL0     C84516   2.650   0.609   4.137  0.3755 -0.2001  0.4237
  613MOL0     C84517   2.514   0.641   4.070 -0.0830  0.5477  0.7958
  613MOL0     C84518   2.413   0.518   4.054  0.1808 -0.0110 -0.8633
  613MOL0     C84519   2.414   0.470   3.907  0.4942  0.2222  0.2457
  613MOL0     C84520   2.321   0.360   3.874 -0.5702 -0.2590  0.0747
  613MOL0     C84521   2.243   0.272   3.839 -0.0169 -0.0528  0.2487
  613MOL0     C84522   2.900   0.479   4.211  0.1152 -0.3666  0.6551
  613MOL0     C84523   2.987   0.396   4.291 -0.2036  0.1061 -0.1976
  613MOL0     C84524   3.098   0.478   4.373 -0.2775 -0.3920 -0.9487
  613MOL0     H84525   2.980  -0.182   4.410 -0.5832 -1.1069  3.7800
  613MOL0     H84526   3.068  -0.349   4.548  1.1916 -0.8764 -2.7352
  613MOL0     H84527   3.481  -0.286   4.745 -2.1182  0.8820 -0.8613
  613MOL0     H84528   3.475  -0.414   4.608 -1.5363 -1.8406 -0.3444
  613MOL0     H84529   3.358  -0.492   4.858 -1.1587 -0.2747 -0.9434
  613MOL0     H84530   3.437  -0.589   4.735  0.7103  0.2187 -0.0655
  613MOL0     H84531   3.652  -0.558   4.774 -1.5869  1.7580 -3.1127
  613MOL0     H84532   3.649  -0.423   4.884  1.7134 -0.6367 -0.1881
  613MOL0     H84533   3.539  -0.704   4.908 -1.1701  1.3123  0.4879
  613MOL0     H84534   3.690  -0.659   4.982  0.8226  0.6795 -1.6381
  613MOL0     H84535   3.418  -0.548   5.082 -0.2348  1.2577  0.8156
  613MOL0     H84536   3.575  -0.512   5.141 -1.2992  2.4304 -1.0938
  613MOL0     H84537   3.446  -0.693   5.264 -0.4430 -1.1297 -0.0665
  613MOL0     H84538   3.479  -0.797   5.118  0.1626 -1.0894  0.4897
  613MOL0     H84539   3.678  -0.677   5.320 -1.8753 -0.0244  0.8773
  613MOL0     H84540   3.718  -0.777   5.170 -0.4502 -3.4915  1.1509
  613MOL0     H84541   3.591  -0.864   5.425 -4.0276 -1.4841 -1.5024
  613MOL0     H84542   3.598  -0.954   5.273 -2.1969 -0.5097  2.7610
  613MOL0     H84543   3.862  -0.769   5.515  1.0148 -1.0166  3.5208
  613MOL0     H84544   4.154  -1.017   5.520  1.5794 -0.0714  1.9253
  613MOL0     H84545   4.086  -0.888   5.624  0.3501  1.1575 -0.5475
  613MOL0     H84546   4.214  -0.800   5.353  2.4336 -1.5455 -0.3152
  613MOL0     H84547   4.199  -0.712   5.504  1.2506  0.4052 -1.6955
  613MOL0     H84548   4.383  -0.862   5.613 -0.9118  3.2049  0.2068
  613MOL0     H84549   4.387  -0.956   5.467 -0.9907  0.2404 -1.7752
  613MOL0     H84550   4.471  -0.738   5.353  0.5179 -1.7081 -0.1580
  613MOL0     H84551   4.462  -0.664   5.510 -2.3917 -1.3108  1.9452
  613MOL0     H84552   4.624  -0.573   5.375  0.5082 -0.7700 -1.0533
  613MOL0     H84553   4.729  -0.410   5.260  0.7511  0.9603 -0.6290
  613MOL0     H84554   4.900  -0.419   5.220 -0.9942 -1.8051 -0.6396
  613MOL0     H84555   4.867  -0.346   5.369  4.5817 -3.0008  1.4443
  613MOL0     H84556   5.386  -0.824   5.481 -0.9418  0.8380  0.8383
  613MOL0     H84557   5.611  -0.790   5.483  1.3174  1.4358  0.8974
  613MOL0     H84558   5.821  -0.730   5.488 -2.2785 -2.3508 -0.1069
  613MOL0     H84559   5.832  -0.765   5.319 -2.3337 -0.7316  1.4029
  613MOL0     H84560   5.989  -0.563   5.294  0.2939 -2.2349 -1.2778
  613MOL0     H84561   5.967  -0.525   5.465 -0.4954 -1.3578  1.7170
  613MOL0     H84562   6.099  -0.770   5.348 -0.9764  0.5222 -0.5733
  613MOL0     H84563   6.098  -0.740   5.524  2.1334 -1.9843 -0.5388
  613MOL0     H84564   6.239  -0.573   5.304  0.2533 -1.2509 -0.3759
  613MOL0     H84565   6.304  -0.702   5.410 -0.7488 -1.2554  0.1257
  613MOL0     H84566   6.216  -0.429   5.506 -0.4589 -0.4808 -1.6093
  613MOL0     H84567   6.233  -0.558   5.620  1.4212 -0.3243  1.0954
  613MOL0     H84568   6.469  -0.612   5.546 -1.4748 -0.7986  0.0208
  613MOL0     H84569   6.441  -0.489   5.659 -0.8068 -1.6918  0.1570
  613MOL0     H84570   6.462  -0.319   5.457  2.1994  1.5819 -1.1204
  613MOL0     H84571   6.463  -0.458   5.347  2.0376 -0.3105 -0.0848
  613MOL0     H84572   6.690  -0.523   5.436  1.0135  1.1262 -1.8624
  613MOL0     H84573   6.678  -0.406   5.566  2.0340  1.0489 -1.6830
  613MOL0     H84574   5.570  -0.412   5.276 -1.3992  0.7005  0.6388
  613MOL0     H84575   5.317  -0.449   5.288  0.5136  2.6645  2.2928
  613MOL0     H84576   5.039  -0.798   5.519 -0.4232 -0.0411  0.1882
  613MOL0     H84577   4.837  -0.909   5.542 -0.3357 -1.3335 -1.2215
  613MOL0     H84578   3.437  -0.125   4.584  0.6589 -0.6641 -1.1909
  613MOL0     H84579   3.329   0.059   4.460 -1.9422  0.4300 -3.6302
  613MOL0     H84580   2.869   0.093   4.182 -1.3238 -1.0884  0.1052
  613MOL0     H84581   2.725   0.236   4.062 -1.5622  1.8196 -0.6538
  613MOL0     H84582   2.632   0.576   4.240 -0.2865  0.3035  0.4806
  613MOL0     H84583   2.708   0.701   4.143  1.6564 -1.0394  1.5283
  613MOL0     H84584   2.532   0.675   3.968 -1.4699  0.4824  0.5135
  613MOL0     H84585   2.469   0.724   4.125 -0.0095  1.3855 -0.3743
  613MOL0     H84586   2.431   0.437   4.125 -2.2592  1.2727  1.4263
  613MOL0     H84587   2.311   0.551   4.076 -0.6469 -0.2476 -3.9387
  613MOL0     H84588   2.514   0.454   3.866  1.9798  2.4606  2.6779
  613MOL0     H84589   2.369   0.555   3.854  0.9441  1.7303  2.1458
  613MOL0     H84590   2.169   0.204   3.802  1.5616 -0.1896 -2.9268
  613MOL0     H84591   2.908   0.587   4.211  0.5392 -0.3782 -0.7282
  613MOL0     H84592   3.199   0.441   4.354  1.5458  4.5473 -2.1082
  613MOL0     H84593   3.100   0.583   4.345  2.1673  0.1810  1.0500
  613MOL0     H84594   3.062   0.474   4.477  1.0810  0.7372 -0.4126
  614MOL0     O84595   4.627   6.623   4.007 -0.0714 -0.0664 -0.7512
  614MOL0     C84596   4.562   6.608   4.115 -0.1712  0.5538  0.4588
  614MOL0     O84597   4.613   6.535   4.228  0.2707  0.5342 -0.6763
  614MOL0     C84598   4.745   6.493   4.222  0.7987 -1.4063  0.3662
  614MOL0     C84599   4.774   6.362   4.250 -0.8438 -0.5117 -0.2252
  614MOL0     C84600   4.914   6.330   4.269  0.1165  0.4096 -0.0327
  614MOL0     C84601   5.010   6.427   4.262  0.1735 -0.0149 -0.4935
  614MOL0     O84602   5.134   6.388   4.306  0.5190  0.9834  0.0891
  614MOL0     C84603   5.248   6.471   4.290 -0.4282 -1.3165  0.4076
  614MOL0     C84604   5.360   6.397   4.350 -0.1382 -0.4129 -0.5195
  614MOL0     C84605   5.497   6.476   4.343 -0.8184 -0.2306 -0.5190
  614MOL0     C84606   5.612   6.390   4.399 -0.3527 -0.6162 -0.0782
  614MOL0     C84607   5.747   6.470   4.412  1.0948  0.6315 -0.7445
  614MOL0     C84608   5.850   6.405   4.500 -0.5144  0.1481 -0.2334
  614MOL0     C84609   5.992   6.478   4.507  0.3729  1.4451 -0.8607
  614MOL0     C84610   6.095   6.370   4.530 -0.3813 -0.5278 -0.6314
  614MOL0     N84611   6.235   6.423   4.532 -0.2057  0.3265 -0.0210
  614MOL0     C84612   6.270   6.531   4.599 -1.2227 -0.3626 -0.5425
  614MOL0     C84613   6.404   6.536   4.569 -0.2592  0.4012 -0.3979
  614MOL0     C84614   6.505   6.642   4.613  0.1821 -0.4448 -0.8605
  614MOL0     C84615   6.499   6.676   4.768  0.4495  0.1972  0.4585
  614MOL0     C84616   6.519   6.543   4.854  1.0132  0.4220  0.1907
  614MOL0     C84617   6.654   6.490   4.859 -0.0572 -0.0835  0.2604
  614MOL0     O84618   6.733   6.601   4.902  0.0694 -0.2032  0.5731
  614MOL0     C84619   6.874   6.604   4.885  0.9381  0.3662  0.3942
  614MOL0     C84620   6.929   6.733   4.885 -0.5017  0.2772  0.7003
  614MOL0     C84621   7.069   6.745   4.896 -0.2777 -0.9125  0.1711
  614MOL0     C84622   7.119   6.884   4.900  0.3916  0.1818 -0.3834
  614MOL0     C84623   7.152   6.622   4.890  0.1699  0.4873  0.2231
  614MOL0     C84624   7.294   6.613   4.898 -0.0443  0.0018 -0.1921
  614MOL0     O84625   7.352   6.719   4.954 -0.2238 -0.2703  0.3169
  614MOL0     C84626   7.486   6.744   4.942  0.7061 -0.1919  0.6261
  614MOL0     C84627   7.590   6.649   4.952 -0.6075  0.7941  0.0338
  614MOL0     C84628   7.724   6.692   4.938  0.3195 -0.4658  0.2966
  614MOL0     C84629   7.754   6.831   4.929 -0.4903 -0.2519 -0.1981
  614MOL0     O84630   7.883   6.854   4.881  0.3292  0.3976  0.3181
  614MOL0     C84631   7.938   6.982   4.873 -0.2274 -0.1422  0.4991
  614MOL0     C84632   7.965   7.021   5.023  0.0731 -0.2979  0.1102
  614MOL0     C84633   8.062   7.145   5.047  0.4233  0.2067  0.5792
  614MOL0     C84634   8.205   7.104   4.995  0.2481 -0.0147 -1.0216
  614MOL0     C84635   8.285   7.222   5.047  0.6850 -0.0380 -1.1641
  614MOL0     C84636   8.417   7.250   4.967  0.2625  0.5998 -0.4771
  614MOL0     C84637   8.499   7.372   5.025 -0.3512 -0.5567  0.5602
  614MOL0     C84638   8.616   7.417   4.930 -0.6293  0.3599 -0.0788
  614MOL0    Cl84639   8.727   7.281   4.895 -0.3875 -0.0289 -0.1266
  614MOL0     C84640   7.653   6.924   4.929  0.5460 -0.2393 -0.5215
  614MOL0     C84641   7.520   6.878   4.937 -0.4289 -0.4035  0.0836
  614MOL0     O84642   7.353   6.517   4.843  0.0898 -0.1160 -0.3544
  614MOL0     C84643   7.087   6.492   4.878  0.1794  0.1904  0.3961
  614MOL0     C84644   6.948   6.486   4.872  0.6549 -0.6122 -0.0192
  614MOL0     N84645   6.448   6.430   4.491 -0.2403 -0.6049  0.1004
  614MOL0     N84646   6.339   6.366   4.466 -0.1738  0.0545  0.1695
  614MOL0     C84647   4.976   6.557   4.224  0.4533 -0.2059  0.7909
  614MOL0     C84648   4.844   6.592   4.208 -0.9288  0.0684 -0.3144
  614MOL0     C84649   4.422   6.652   4.115  0.3238  0.2554  0.0953
  614MOL0     C84650   4.337   6.601   4.211 -0.9470 -0.3703  0.4200
  614MOL0     C84651   4.207   6.645   4.230  0.8892 -0.3168  0.2864
  614MOL0     C84652   4.152   6.735   4.140 -0.1597  0.1643  0.1058
  614MOL0     O84653   4.019   6.781   4.155  0.3178  0.0055  0.0038
  614MOL0     C84654   3.922   6.697   4.225  1.1331 -0.5911 -0.1201
  614MOL0     C84655   3.783   6.741   4.161 -0.7632 -0.1701 -0.1897
  614MOL0     C84656   3.693   6.836   4.228  0.3780 -0.1396  0.6831
  614MOL0     C84657   3.564   6.864   4.136  0.7069  0.3300  0.3712
  614MOL0     C84658   3.472   6.949   4.209  0.0444 -0.0822  0.6685
  614MOL0     C84659   3.396   7.023   4.274 -0.1380  0.4843 -0.4874
  614MOL0     C84660   4.239   6.794   4.046 -0.1191 -0.5194  0.0064
  614MOL0     C84661   4.371   6.758   4.034 -0.4126  0.0015 -0.4323
  614MOL0     C84662   4.457   6.846   3.936 -0.0230  0.5190  0.7503
  614MOL0     H84663   4.696   6.287   4.254 -0.9855 -0.3751 -0.4176
  614MOL0     H84664   4.943   6.227   4.289 -1.4488 -0.0430  0.0308
  614MOL0     H84665   5.224   6.562   4.346 -1.0196  0.1090 -2.0321
  614MOL0     H84666   5.259   6.486   4.182 -0.7282 -1.5217  0.3463
  614MOL0     H84667   5.336   6.369   4.453 -1.5524  0.6763 -0.5177
  614MOL0     H84668   5.376   6.299   4.303  0.4462  0.0811 -1.3676
  614MOL0     H84669   5.517   6.519   4.245 -1.6149 -0.1919 -0.6691
  614MOL0     H84670   5.499   6.564   4.409  2.0126 -0.0734 -0.6955
  614MOL0     H84671   5.578   6.346   4.493 -0.8400 -1.0466 -0.4542
  614MOL0     H84672   5.628   6.303   4.335  0.9758 -1.6891  1.6074
  614MOL0     H84673   5.735   6.571   4.454  0.5152 -0.6585  2.5463
  614MOL0     H84674   5.775   6.473   4.307 -1.8856 -1.9313 -1.7482
  614MOL0     H84675   5.809   6.403   4.601  0.1983  3.4121  0.2467
  614MOL0     H84676   5.864   6.299   4.476  3.5010  1.1652 -3.4052
  614MOL0     H84677   5.992   6.545   4.594  0.3676 -1.3120  1.4365
  614MOL0     H84678   6.012   6.534   4.416 -1.6581 -0.8082 -2.8089
  614MOL0     H84679   6.072   6.333   4.631 -0.8244 -2.2120 -1.3162
  614MOL0     H84680   6.093   6.283   4.464 -1.8445 -0.7551 -0.3107
  614MOL0     H84681   6.208   6.598   4.657 -0.6623  0.6958 -1.1323
  614MOL0     H84682   6.473   6.734   4.563 -2.5861 -0.4170  0.7401
  614MOL0     H84683   6.612   6.626   4.597  1.5563  3.9114  2.1180
  614MOL0     H84684   6.578   6.747   4.792 -0.9616  0.7761  3.8115
  614MOL0     H84685   6.401   6.719   4.793  0.3633  0.7169 -0.6778
  614MOL0     H84686   6.484   6.550   4.958 -3.2704 -1.6135 -0.8609
  614MOL0     H84687   6.457   6.459   4.820  0.5636  0.8123  0.0295
  614MOL0     H84688   6.680   6.417   4.936  5.1613  2.4970  1.4248
  614MOL0     H84689   6.687   6.451   4.762  0.2077  2.2691 -0.6726
  614MOL0     H84690   6.860   6.816   4.885 -0.1961  0.6445 -2.0794
  614MOL0     H84691   7.197   6.893   4.976 -1.1415 -0.9874  1.3874
  614MOL0     H84692   7.046   6.956   4.938 -1.1259  0.9194 -4.2353
  614MOL0     H84693   7.153   6.915   4.800  1.2829 -1.9492 -0.7816
  614MOL0     H84694   7.559   6.545   4.957  0.3236  0.5131  0.1503
  614MOL0     H84695   7.807   6.622   4.944 -0.8152 -2.0825 -1.3917
  614MOL0     H84696   8.027   6.992   4.809  0.0762 -1.1080  0.7419
  614MOL0     H84697   7.861   7.048   4.831 -0.6060  0.4750  2.1056
  614MOL0     H84698   7.874   7.044   5.079  0.0423 -0.1750  0.0105
  614MOL0     H84699   8.013   6.934   5.069  1.6772  0.1855 -0.5572
  614MOL0     H84700   8.054   7.175   5.152 -0.2367  0.2341  0.5258
  614MOL0     H84701   8.022   7.225   4.984 -1.4095 -0.3914  0.9026
  614MOL0     H84702   8.200   7.092   4.887 -1.9620  1.3494 -1.1332
  614MOL0     H84703   8.238   7.010   5.039 -0.5216  0.1866  0.0284
  614MOL0     H84704   8.231   7.317   5.051  2.5533  1.0508  0.0996
  614MOL0     H84705   8.297   7.192   5.151 -1.5977 -0.3778 -0.9561
  614MOL0     H84706   8.384   7.284   4.868  1.3850 -1.6467 -1.7171
  614MOL0     H84707   8.473   7.157   4.951  1.7074  1.4617 -0.7070
  614MOL0     H84708   8.540   7.340   5.121  3.7153  5.5371  1.4986
  614MOL0     H84709   8.423   7.450   5.034 -1.1201 -1.0340 -1.3592
  614MOL0     H84710   8.671   7.504   4.967  0.4573  0.4392 -1.7306
  614MOL0     H84711   8.582   7.453   4.832 -2.6692  0.4196  0.6096
  614MOL0     H84712   7.673   7.031   4.927  0.6721 -0.2780 -1.8728
  614MOL0     H84713   7.441   6.949   4.957  0.3618  0.4852  0.0999
  614MOL0     H84714   7.135   6.395   4.865  0.4446  0.1126  1.7959
  614MOL0     H84715   6.893   6.394   4.858  0.9649 -0.9603  0.9473
  614MOL0     H84716   5.064   6.622   4.223  2.0600 -2.2830  0.3916
  614MOL0     H84717   4.825   6.693   4.174  1.6877  0.2286 -1.5916
  614MOL0     H84718   4.388   6.527   4.272 -0.5126 -1.9264 -1.7466
  614MOL0     H84719   4.148   6.610   4.314 -1.6491  0.9072 -0.8906
  614MOL0     H84720   3.940   6.589   4.228  1.4171 -0.5305  2.6087
  614MOL0     H84721   3.907   6.718   4.331  0.7551  1.5497 -0.5461
  614MOL0     H84722   3.729   6.646   4.154  0.9364 -1.1662 -0.3271
  614MOL0     H84723   3.799   6.773   4.058 -0.5724  0.1014 -0.0761
  614MOL0     H84724   3.651   6.785   4.315  0.0773 -1.1030 -0.0092
  614MOL0     H84725   3.748   6.926   4.259  2.6729 -1.5869  1.0696
  614MOL0     H84726   3.508   6.775   4.108  2.6607 -1.2261  1.1944
  614MOL0     H84727   3.592   6.922   4.047  0.8670 -2.5490 -1.6014
  614MOL0     H84728   3.324   7.080   4.329  1.6673  1.5314  0.9216
  614MOL0     H84729   4.198   6.877   3.989  0.3117 -1.5763 -1.9741
  614MOL0     H84730   4.404   6.940   3.913 -1.7332 -0.1633  1.6924
  614MOL0     H84731   4.553   6.868   3.982  0.5408 -0.7314  0.1990
  614MOL0     H84732   4.463   6.795   3.840  3.4913  1.1121  0.5485
  615MOL0     O84733   6.664   3.613   4.858  0.3294  0.2317  0.2664
  615MOL0     C84734   6.593   3.710   4.890 -0.2029 -0.1631 -0.3294
  615MOL0     O84735   6.630   3.814   4.975 -0.2280  0.5419 -0.4505
  615MOL0     C84736   6.757   3.821   5.026  0.1269  0.6538  1.2885
  615MOL0     C84737   6.860   3.841   4.934  0.3457 -0.3426  0.5855
  615MOL0     C84738   6.986   3.844   4.978 -0.4451 -0.5569 -0.3057
  615MOL0     C84739   7.023   3.841   5.117 -0.0525 -0.0924 -0.2385
  615MOL0     O84740   7.152   3.846   5.164 -0.2701  0.7072  0.0567
  615MOL0     C84741   7.272   3.862   5.084  0.3897 -0.1735 -0.0131
  615MOL0     C84742   7.278   4.009   5.036  0.6761  0.3560 -0.1995
  615MOL0     C84743   7.412   4.042   4.968 -0.3148 -0.8594  0.2872
  615MOL0     C84744   7.422   4.196   4.945  0.2285 -0.0556  0.2039
  615MOL0     C84745   7.569   4.251   4.933 -0.1799  0.2204 -0.5886
  615MOL0     C84746   7.661   4.165   4.846 -0.5460  0.6688  0.0978
  615MOL0     C84747   7.806   4.219   4.825 -0.2783  0.2727  0.0415
  615MOL0     C84748   7.902   4.180   4.950  0.3012 -0.3690 -0.1077
  615MOL0     N84749   8.046   4.213   4.935  0.4261 -0.4666  0.4993
  615MOL0     C84750   8.143   4.134   4.890 -0.1788 -0.5936  0.3168
  615MOL0     C84751   8.258   4.201   4.927  0.4461 -0.1739  0.2052
  615MOL0     C84752   8.397   4.161   4.890  0.2034  0.4434  0.3329
  615MOL0     C84753   8.476   4.120   5.018  0.2858  0.0892  0.6621
  615MOL0     C84754   8.613   4.061   4.964 -0.7667 -0.6819 -0.4145
  615MOL0     C84755   8.714   4.028   5.084  0.0874  0.5729  0.5678
  615MOL0     O84756   8.742   4.151   5.159 -0.3476 -0.2106  0.0433
  615MOL0     C84757   8.852   4.229   5.126 -0.1848  0.4137  1.3591
  615MOL0     C84758   8.865   4.353   5.181 -0.6736  0.4359 -0.1653
  615MOL0     C84759   8.971   4.437   5.166  0.7618  0.4992  0.5097
  615MOL0     C84760   8.952   4.582   5.214 -0.5133 -0.1090 -0.0042
  615MOL0     C84761   9.085   4.384   5.099 -0.3334  0.2395 -0.0923
  615MOL0     C84762   9.212   4.465   5.076 -0.6882 -0.5893  0.2445
  615MOL0     O84763   9.298   4.418   4.982  1.0708  0.6534  0.2201
  615MOL0     C84764   9.413   4.486   4.952  0.6418  0.3616 -1.0540
  615MOL0     C84765   9.424   4.551   4.837  0.5124 -0.2849 -0.2723
  615MOL0     C84766   9.532   4.627   4.812 -0.1336 -0.4401  0.1985
  615MOL0     C84767   9.639   4.625   4.899  0.2240 -0.1742 -0.3189
  615MOL0     O84768   9.750   4.696   4.880 -0.4725  0.5344  0.3306
  615MOL0     C84769   9.819   4.681   4.755  0.0839  0.2328 -0.5472
  615MOL0     C84770   9.975   4.697   4.759 -0.1212 -0.0499  0.5484
  615MOL0     C84771  10.036   4.598   4.861 -0.1375  0.8667  0.8847
  615MOL0     C84772  10.175   4.631   4.909 -0.5330  0.7519  0.3958
  615MOL0     C84773  10.234   4.536   5.012  0.1717 -0.1288 -0.6282
  615MOL0     C84774  10.267   4.392   4.968  0.8099  0.7064  0.2414
  615MOL0     C84775  10.323   4.308   5.081 -0.5579 -0.6513 -0.9438
  615MOL0     C84776  10.466   4.261   5.049  0.4449 -0.7792  0.3310
  615MOL0    Cl84777  10.580   4.403   5.036 -0.5018 -0.3101 -0.2933
  615MOL0     C84778   9.626   4.562   5.023  0.4555  0.2399 -0.5673
  615MOL0     C84779   9.515   4.486   5.051  0.1959 -0.4878 -0.2858
  615MOL0     O84780   9.246   4.565   5.144  0.4985 -0.0891 -0.7256
  615MOL0     C84781   9.083   4.256   5.051  0.8113 -0.8116  0.6703
  615MOL0     C84782   8.963   4.178   5.058 -0.2407 -0.6238 -0.1417
  615MOL0     N84783   8.224   4.320   4.984  0.3786  0.9210 -0.7748
  615MOL0     N84784   8.095   4.323   5.002 -0.4234 -0.4928  0.3081
  615MOL0     C84785   6.920   3.841   5.209  0.0509 -0.6563  0.2060
  615MOL0     C84786   6.784   3.823   5.164  0.6242 -0.0329 -0.4181
  615MOL0     C84787   6.453   3.725   4.842 -0.2691 -0.6657 -0.4350
  615MOL0     C84788   6.402   3.855   4.843  0.4317 -0.0359 -0.3958
  615MOL0     C84789   6.285   3.882   4.773 -0.8659 -0.2447  0.0514
  615MOL0     C84790   6.209   3.792   4.704 -0.1217  0.2654 -0.3316
  615MOL0     O84791   6.092   3.820   4.627  0.1499 -0.0739 -0.0562
  615MOL0     C84792   6.127   3.920   4.529  0.4281  0.0231 -0.3422
  615MOL0     C84793   6.016   3.945   4.428  0.9966  0.4069 -0.1421
  615MOL0     C84794   5.910   4.052   4.478  0.0767 -0.7423 -0.0704
  615MOL0     C84795   5.836   4.117   4.365  1.2252 -0.6126 -0.3557
  615MOL0     C84796   5.736   4.211   4.419 -0.2811 -0.1681 -0.3453
  615MOL0     C84797   5.657   4.297   4.472  0.9157  0.4534 -0.8985
  615MOL0     C84798   6.255   3.656   4.710  0.3400 -0.0609 -0.2370
  615MOL0     C84799   6.372   3.626   4.781  0.2880  0.4824  0.4397
  615MOL0     C84800   6.409   3.475   4.783  0.7543 -0.6117 -0.0178
  615MOL0     H84801   6.841   3.858   4.829  0.0455  2.4814  1.0171
  615MOL0     H84802   7.066   3.845   4.904  0.4326 -1.5375  0.6074
  615MOL0     H84803   7.268   3.788   5.004 -0.3978 -1.9268  1.5478
  615MOL0     H84804   7.359   3.841   5.148  0.7275 -0.0126 -0.4194
  615MOL0     H84805   7.195   4.032   4.968 -2.7436 -3.1528  2.3742
  615MOL0     H84806   7.280   4.075   5.123 -0.3711 -1.8253  1.5728
  615MOL0     H84807   7.495   4.007   5.031 -0.8990 -0.8807  1.0533
  615MOL0     H84808   7.417   3.995   4.870 -2.6701  1.1997 -0.9433
  615MOL0     H84809   7.356   4.223   4.862 -3.2185 -1.8007  2.1465
  615MOL0     H84810   7.372   4.243   5.030  0.3604  0.7518 -0.1634
  615MOL0     H84811   7.614   4.241   5.032 -0.0037 -0.9582 -0.7677
  615MOL0     H84812   7.567   4.357   4.909 -1.2506  0.7887  1.6876
  615MOL0     H84813   7.669   4.060   4.876 -0.2929 -0.3912 -3.3061
  615MOL0     H84814   7.631   4.170   4.741  0.5113 -2.0802 -0.4142
  615MOL0     H84815   7.806   4.328   4.820 -1.0997  0.4123  2.1583
  615MOL0     H84816   7.851   4.182   4.732  1.0506 -2.1001  1.5304
  615MOL0     H84817   7.860   4.218   5.043 -3.0978 -1.0855 -1.1917
  615MOL0     H84818   7.900   4.072   4.965 -0.5968 -0.0160  2.8231
  615MOL0     H84819   8.132   4.057   4.814  0.0222 -2.7998  2.3811
  615MOL0     H84820   8.446   4.244   4.838  2.6668 -1.3212 -0.3816
  615MOL0     H84821   8.399   4.078   4.819 -0.3359  1.6857 -1.1874
  615MOL0     H84822   8.489   4.207   5.083  0.3470  2.4637 -2.3018
  615MOL0     H84823   8.427   4.034   5.064  0.5442 -3.4065 -4.6434
  615MOL0     H84824   8.600   3.970   4.904 -0.3776 -0.3076 -1.0704
  615MOL0     H84825   8.669   4.123   4.894 -0.3742  0.3016  0.7397
  615MOL0     H84826   8.660   3.952   5.142  3.2668 -2.1375  0.3154
  615MOL0     H84827   8.801   3.974   5.046 -1.3608 -2.8393  1.6985
  615MOL0     H84828   8.775   4.394   5.227 -1.3858 -1.7735  0.5668
  615MOL0     H84829   8.987   4.610   5.313  1.0713  0.7823 -0.7800
  615MOL0     H84830   8.847   4.613   5.205  0.5034  3.4747 -1.4047
  615MOL0     H84831   9.004   4.654   5.150 -0.8417  1.8797  1.8585
  615MOL0     H84832   9.340   4.544   4.770 -0.2302 -1.8487  0.7747
  615MOL0     H84833   9.541   4.698   4.730 -0.7277  0.1749  0.6555
  615MOL0     H84834   9.802   4.581   4.715  1.8550 -0.6712  0.8095
  615MOL0     H84835   9.775   4.758   4.691  1.3998  0.7259 -0.8962
  615MOL0     H84836  10.015   4.686   4.658 -0.1265 -0.3836  0.5815
  615MOL0     H84837   9.994   4.800   4.790  3.2229 -1.0445  2.2484
  615MOL0     H84838  10.059   4.508   4.803  1.3796  0.2354  2.3900
  615MOL0     H84839   9.974   4.569   4.946 -1.0609 -0.2454 -0.1445
  615MOL0     H84840  10.171   4.734   4.944 -0.2188  0.3866  1.5886
  615MOL0     H84841  10.244   4.630   4.824  0.4202  0.4088  1.1525
  615MOL0     H84842  10.326   4.586   5.041 -1.2031  2.3413 -0.2797
  615MOL0     H84843  10.176   4.549   5.104  1.0152 -1.4604  0.1246
  615MOL0     H84844  10.340   4.412   4.890 -0.4047  0.7105 -0.9293
  615MOL0     H84845  10.183   4.333   4.928  0.9916  1.8805 -1.9967
  615MOL0     H84846  10.266   4.215   5.088 -0.5041 -0.9228 -3.3546
  615MOL0     H84847  10.317   4.373   5.169  2.7788  0.4805 -1.3963
  615MOL0     H84848  10.468   4.200   4.958  0.9363  0.3071 -0.4097
  615MOL0     H84849  10.494   4.204   5.138  3.4296  4.4141  3.2154
  615MOL0     H84850   9.707   4.560   5.095 -2.3998  2.1171  3.0082
  615MOL0     H84851   9.504   4.430   5.143 -1.1490  2.2781  1.3855
  615MOL0     H84852   9.158   4.221   4.981  2.9657  1.5920  1.5870
  615MOL0     H84853   8.965   4.089   4.995 -2.0409 -1.0587  0.3634
  615MOL0     H84854   6.948   3.844   5.313 -0.7375 -1.7188  0.4657
  615MOL0     H84855   6.703   3.792   5.229  0.6218 -0.6963 -0.7322
  615MOL0     H84856   6.454   3.939   4.888 -0.3073  0.0635  0.2949
  615MOL0     H84857   6.255   3.984   4.756  2.7502  0.7742 -1.1694
  615MOL0     H84858   6.149   4.014   4.581 -0.2306 -1.1450  2.1909
  615MOL0     H84859   6.212   3.889   4.467 -1.7536  1.5982 -4.4517
  615MOL0     H84860   5.966   3.849   4.417 -1.2781  1.7958 -3.2726
  615MOL0     H84861   6.055   3.967   4.328 -0.2813 -4.0785 -1.8254
  615MOL0     H84862   5.839   4.001   4.544  0.3710 -0.6304  0.3381
  615MOL0     H84863   5.963   4.130   4.534 -1.6882 -0.2032  0.9197
  615MOL0     H84864   5.782   4.033   4.320 -1.2305 -0.1165  1.4409
  615MOL0     H84865   5.903   4.171   4.297 -0.0948  1.5305 -0.0613
  615MOL0     H84866   5.573   4.358   4.495  0.5719 -1.0968  2.7574
  615MOL0     H84867   6.194   3.576   4.668 -0.0190 -0.2402  0.6033
  615MOL0     H84868   6.494   3.461   4.716 -1.2402  2.4938 -3.6215
  615MOL0     H84869   6.439   3.432   4.879  0.3192 -2.2956 -0.5970
  615MOL0     H84870   6.331   3.417   4.732  3.1490 -1.2328 -3.3410
  616MOL0     O84871   8.112   3.939   8.246 -0.4940 -0.4044 -0.3531
  616MOL0     C84872   8.078   4.043   8.187 -0.7347 -0.4533 -0.8316
  616MOL0     O84873   8.090   4.058   8.055 -0.3995 -0.8927  0.8911
  616MOL0     C84874   8.137   3.957   7.976  0.9319  0.9062  0.3724
  616MOL0     C84875   8.053   3.878   7.890 -1.1455 -0.5699 -0.0974
  616MOL0     C84876   8.116   3.795   7.792 -0.5044  0.1689  0.9309
  616MOL0     C84877   8.256   3.778   7.795 -0.0713  0.0450  0.3887
  616MOL0     O84878   8.312   3.700   7.697 -0.1056 -0.0649  0.4832
  616MOL0     C84879   8.447   3.681   7.674  0.1176  0.6442  0.6202
  616MOL0     C84880   8.470   3.659   7.527 -0.7491  0.4832  0.5279
  616MOL0     C84881   8.467   3.790   7.453  0.1285 -0.3737 -0.3089
  616MOL0     C84882   8.563   3.903   7.495  0.7123  0.4434 -0.4152
  616MOL0     C84883   8.556   4.021   7.392 -0.3115 -0.5655 -0.1917
  616MOL0     C84884   8.636   4.143   7.431 -0.0101  0.9197 -0.2052
  616MOL0     C84885   8.788   4.117   7.445 -0.1517  0.0308  0.0380
  616MOL0     C84886   8.876   4.241   7.431  0.7518 -0.8190 -0.2731
  616MOL0     N84887   9.001   4.227   7.362 -0.4290 -0.5832  0.0518
  616MOL0     C84888   9.125   4.264   7.409  0.0764  0.0454 -0.4285
  616MOL0     C84889   9.208   4.238   7.310  0.0633  0.8076  0.8758
  616MOL0     C84890   9.352   4.279   7.305 -0.3765  0.3018  0.0244
  616MOL0     C84891   9.376   4.357   7.176 -0.3754 -0.0495 -0.5333
  616MOL0     C84892   9.512   4.425   7.189 -0.3425 -0.3822  0.5248
  616MOL0     C84893   9.530   4.491   7.052 -0.1236 -0.9512 -0.1532
  616MOL0     O84894   9.632   4.590   7.053 -0.0913  0.2696  0.2625
  616MOL0     C84895   9.767   4.568   7.041 -0.1189 -0.3841  0.3274
  616MOL0     C84896   9.845   4.665   7.089 -0.1153 -0.2069 -0.7555
  616MOL0     C84897   9.983   4.652   7.097 -0.1158  0.9381  0.7626
  616MOL0     C84898  10.062   4.768   7.157  0.4813  0.1497 -0.4698
  616MOL0     C84899  10.047   4.540   7.030  0.9517 -0.2874 -0.0777
  616MOL0     C84900  10.195   4.508   7.033  0.3196 -0.0586  0.1792
  616MOL0     O84901  10.232   4.419   6.933  0.0133 -0.4555 -0.0893
  616MOL0     C84902  10.359   4.380   6.954 -0.7016 -0.2935  0.5115
  616MOL0     C84903  10.466   4.441   6.889  0.3770 -0.1357  0.1698
  616MOL0     C84904  10.600   4.412   6.913 -0.1497  0.4787 -0.2720
  616MOL0     C84905  10.624   4.309   7.006 -0.9550  0.6418  0.2236
  616MOL0     O84906  10.760   4.279   7.033 -0.1449  0.3764 -0.0646
  616MOL0     C84907  10.796   4.139   7.077  0.7087 -0.4185  0.1345
  616MOL0     C84908  10.947   4.139   7.075  0.3562 -0.9866  0.8435
  616MOL0     C84909  10.996   4.063   7.193 -0.0810  0.7989  0.1794
  616MOL0     C84910  11.145   4.056   7.199  0.6312 -0.8713 -0.3930
  616MOL0     C84911  11.185   3.947   7.301 -0.2093  0.2939  0.0358
  616MOL0     C84912  11.338   3.908   7.298  0.3554  0.0530 -0.6581
  616MOL0     C84913  11.378   3.809   7.411 -0.3534 -0.6438  0.2196
  616MOL0     C84914  11.333   3.863   7.540  0.1103 -0.3895 -0.2526
  616MOL0    Cl84915  11.399   3.761   7.682  0.2627 -0.2238 -0.1077
  616MOL0     C84916  10.517   4.252   7.076 -0.5334  0.6041  0.0046
  616MOL0     C84917  10.386   4.287   7.052 -0.0050  1.1336  0.4505
  616MOL0     O84918  10.262   4.565   7.116 -0.0614 -0.0159  0.1637
  616MOL0     C84919   9.958   4.446   6.970  0.0288  0.3312 -0.5856
  616MOL0     C84920   9.825   4.454   6.979  0.1964  0.6381  0.2940
  616MOL0     N84921   9.140   4.186   7.208 -0.6845  0.4066 -0.5828
  616MOL0     N84922   9.017   4.172   7.236 -0.7909 -0.1522  0.8882
  616MOL0     C84923   8.335   3.849   7.884 -0.4228  0.6483  0.3309
  616MOL0     C84924   8.273   3.939   7.972 -0.2524  0.0605 -0.1598
  616MOL0     C84925   8.023   4.159   8.267 -0.0664 -0.4891 -0.1865
  616MOL0     C84926   7.982   4.150   8.402  0.2929  0.6297 -0.4234
  616MOL0     C84927   7.935   4.259   8.477 -0.6759 -0.1554  0.0914
  616MOL0     C84928   7.920   4.381   8.413 -0.2950 -0.3105 -1.1886
  616MOL0     O84929   7.864   4.478   8.489  0.1692 -0.0671 -0.1626
  616MOL0     C84930   7.881   4.616   8.456  0.3167 -0.9172  0.7853
  616MOL0     C84931   7.858   4.698   8.582 -0.7007 -0.2003  0.4889
  616MOL0     C84932   7.797   4.836   8.536  0.1276 -0.3593 -0.0678
  616MOL0     C84933   7.738   4.912   8.661  0.0877 -0.5451 -0.6094
  616MOL0     C84934   7.822   4.921   8.780  0.7864  0.2890 -0.6353
  616MOL0     C84935   7.890   4.931   8.880 -0.4614 -0.6963  0.3259
  616MOL0     C84936   7.949   4.396   8.275  0.6387  0.0215  0.1914
  616MOL0     C84937   8.013   4.293   8.209  0.0430  1.0842 -0.0932
  616MOL0     C84938   8.074   4.333   8.077 -0.5800  0.8491 -0.0944
  616MOL0     H84939   7.946   3.891   7.882 -0.8091  1.6927 -1.8997
  616MOL0     H84940   8.063   3.746   7.710  1.1130  2.0769 -1.4100
  616MOL0     H84941   8.472   3.586   7.722  2.7122  0.5664 -0.7093
  616MOL0     H84942   8.520   3.753   7.710  1.1494  1.0657 -2.0966
  616MOL0     H84943   8.565   3.605   7.517  0.4263  2.1339  2.0127
  616MOL0     H84944   8.394   3.595   7.483 -0.8198 -1.0594  2.7203
  616MOL0     H84945   8.495   3.761   7.351  0.9547 -0.6217 -0.0204
  616MOL0     H84946   8.368   3.836   7.459  1.1806  1.9767  0.0682
  616MOL0     H84947   8.527   3.937   7.593 -0.3583 -2.4949  0.3129
  616MOL0     H84948   8.664   3.865   7.506 -0.7965 -4.7142 -1.7148
  616MOL0     H84949   8.456   4.059   7.367  1.3973  2.9877 -2.4228
  616MOL0     H84950   8.592   3.985   7.295 -2.2132 -1.4464 -0.6118
  616MOL0     H84951   8.615   4.228   7.365  0.0947  1.5667  0.5854
  616MOL0     H84952   8.601   4.169   7.531  0.2035  1.8555 -0.3660
  616MOL0     H84953   8.839   4.041   7.385  1.2164  2.0759 -1.5455
  616MOL0     H84954   8.803   4.072   7.544 -1.4504  0.7099  0.5721
  616MOL0     H84955   8.818   4.312   7.371 -0.0903 -0.0981  1.3259
  616MOL0     H84956   8.887   4.283   7.532  2.2257  0.6550 -1.0007
  616MOL0     H84957   9.143   4.324   7.498  5.1487 -1.0787 -0.4182
  616MOL0     H84958   9.417   4.191   7.313 -0.4877 -0.0898 -2.4178
  616MOL0     H84959   9.374   4.344   7.390 -0.7419 -0.5247  0.7528
  616MOL0     H84960   9.371   4.291   7.088  2.0953 -1.3693  0.2069
  616MOL0     H84961   9.308   4.442   7.178 -1.1079 -0.6400  1.2338
  616MOL0     H84962   9.514   4.498   7.270  0.7365 -2.0521  2.0768
  616MOL0     H84963   9.600   4.360   7.200  0.3083  0.7381  2.4363
  616MOL0     H84964   9.543   4.414   6.976 -3.7066 -2.5907  0.7013
  616MOL0     H84965   9.440   4.545   7.021  2.0896  1.2984 -3.3684
  616MOL0     H84966   9.801   4.756   7.129  2.4262  0.3983  0.8294
  616MOL0     H84967  10.075   4.741   7.262  0.3268 -0.5898 -0.6367
  616MOL0     H84968  10.003   4.858   7.137 -1.4775 -1.0634 -0.3802
  616MOL0     H84969  10.160   4.787   7.113  0.4096  0.6302 -0.4245
  616MOL0     H84970  10.440   4.520   6.819 -1.4336 -0.7366  0.0907
  616MOL0     H84971  10.677   4.463   6.857 -0.7863 -1.6069 -3.3197
  616MOL0     H84972  10.747   4.125   7.173 -1.9478 -3.1602 -1.4378
  616MOL0     H84973  10.761   4.068   7.001  0.5196  0.3048 -0.4650
  616MOL0     H84974  10.987   4.091   6.985  1.9822 -1.2804  1.6782
  616MOL0     H84975  10.984   4.241   7.092  0.3250 -0.9875  0.9212
  616MOL0     H84976  10.956   3.961   7.195 -0.2220  0.8189 -0.9598
  616MOL0     H84977  10.968   4.111   7.287 -0.5499 -2.0712  1.6268
  616MOL0     H84978  11.190   4.152   7.226  1.6583 -1.3188 -0.4438
  616MOL0     H84979  11.177   4.025   7.099  1.4392  0.2967 -0.5202
  616MOL0     H84980  11.145   3.986   7.395 -2.1538  2.0901 -1.4494
  616MOL0     H84981  11.127   3.857   7.279 -1.0593  1.0002 -0.6812
  616MOL0     H84982  11.394   4.001   7.308 -2.5499  1.9087 -0.5285
  616MOL0     H84983  11.375   3.867   7.203 -0.7922 -0.8737 -0.7378
  616MOL0     H84984  11.487   3.809   7.401 -0.5000  0.3950 -1.8555
  616MOL0     H84985  11.342   3.706   7.397 -2.9833 -0.0218  1.7780
  616MOL0     H84986  11.225   3.869   7.560  0.3056  1.8913  0.4857
  616MOL0     H84987  11.369   3.967   7.539  0.1641 -0.3864  0.7027
  616MOL0     H84988  10.525   4.163   7.138 -1.6372 -0.7829 -1.7260
  616MOL0     H84989  10.303   4.240   7.105 -0.6882  0.8732 -0.8005
  616MOL0     H84990   9.985   4.360   6.910  0.2808  0.6508 -0.9373
  616MOL0     H84991   9.758   4.374   6.947 -1.9153  1.6801  1.8432
  616MOL0     H84992   8.444   3.853   7.875 -0.4234  1.8677  0.6069
  616MOL0     H84993   8.331   3.999   8.041 -0.8792  2.4453 -1.5976
  616MOL0     H84994   7.984   4.051   8.446 -1.5157  0.9908  0.5664
  616MOL0     H84995   7.897   4.236   8.576 -0.5065  0.0199  0.1967
  616MOL0     H84996   7.984   4.627   8.421  0.1938  3.9930  1.2336
  616MOL0     H84997   7.830   4.644   8.364  1.1347  0.3838  0.7035
  616MOL0     H84998   7.949   4.720   8.638  0.0684  0.6155 -1.0025
  616MOL0     H84999   7.782   4.646   8.641 -1.8932  1.4496  0.4824
  616MOL0     H85000   7.881   4.891   8.493 -1.1550  0.6244 -1.4200
  616MOL0     H85001   7.723   4.829   8.457  2.4154 -0.6818 -2.3252
  616MOL0     H85002   7.651   4.853   8.691 -0.3993  0.1412 -0.6548
  616MOL0     H85003   7.706   5.014   8.638  0.2161  0.2836  2.4213
  616MOL0     H85004   7.955   4.958   8.961  1.5250  1.0527 -1.6863
  616MOL0     H85005   7.940   4.497   8.234  0.7874 -0.7862 -1.9465
  616MOL0     H85006   8.080   4.443   8.072  2.2398  0.7686 -0.0341
  616MOL0     H85007   8.177   4.295   8.077 -1.0424 -0.6407  2.4713
  616MOL0     H85008   8.019   4.298   7.989  0.9026 -1.7442 -0.0630
  617MOL0     O85009   3.004   8.978   5.426 -0.3323  0.0137 -0.4744
  617MOL0     C85010   3.019   8.892   5.516  0.0612 -0.7654 -0.6570
  617MOL0     O85011   3.136   8.812   5.539 -0.0906 -0.2265  0.5999
  617MOL0     C85012   3.242   8.838   5.457 -1.3249  0.3004  0.4590
  617MOL0     C85013   3.322   8.951   5.455  0.7111 -0.6039  0.4620
  617MOL0     C85014   3.428   8.956   5.359  0.2886 -0.8644 -0.3553
  617MOL0     C85015   3.432   8.861   5.260 -0.4281  0.4187  0.2319
  617MOL0     O85016   3.530   8.876   5.166 -0.3524 -0.9231  0.4179
  617MOL0     C85017   3.482   8.876   5.024  0.2269  0.1433  0.2961
  617MOL0     C85018   3.549   8.760   4.949 -0.1633 -0.5102 -0.0447
  617MOL0     C85019   3.488   8.722   4.808  0.4746 -0.3306  0.1250
  617MOL0     C85020   3.372   8.617   4.824 -0.8165  0.4190  0.4959
  617MOL0     C85021   3.307   8.604   4.685  0.1192  0.3292 -0.6013
  617MOL0     C85022   3.206   8.490   4.686 -0.0087 -0.1423  0.7177
  617MOL0     C85023   3.179   8.442   4.540  0.4701  0.0382 -0.6335
  617MOL0     C85024   3.118   8.549   4.450  0.2303 -0.3505  0.4288
  617MOL0     N85025   2.985   8.600   4.488  0.4875  0.3808  0.1387
  617MOL0     C85026   2.945   8.676   4.596 -0.8503  0.2621  0.2536
  617MOL0     C85027   2.814   8.692   4.596 -0.0705  0.8174  1.2804
  617MOL0     C85028   2.732   8.773   4.689  0.3932  0.6290 -0.3161
  617MOL0     C85029   2.755   8.920   4.659  0.7166 -0.3062 -0.5414
  617MOL0     C85030   2.711   9.003   4.782  0.4141  0.1429 -0.5139
  617MOL0     C85031   2.741   9.151   4.756 -0.6620  0.1855 -0.0038
  617MOL0     O85032   2.669   9.228   4.852  0.6757 -0.2125 -0.2316
  617MOL0     C85033   2.660   9.364   4.828 -0.5665  0.4449  0.7279
  617MOL0     C85034   2.565   9.436   4.901  0.2956  0.7087  0.1089
  617MOL0     C85035   2.554   9.572   4.886 -0.6489 -0.1475  0.6394
  617MOL0     C85036   2.461   9.636   4.987  0.4787  0.0043  0.8832
  617MOL0     C85037   2.636   9.645   4.798 -0.6672 -0.8475  0.2974
  617MOL0     C85038   2.608   9.788   4.780 -0.0768 -0.2533 -0.5461
  617MOL0     O85039   2.488   9.837   4.818 -0.0733  0.2547  0.2834
  617MOL0     C85040   2.469   9.969   4.808  0.4022 -0.6114 -0.1241
  617MOL0     C85041   2.374  10.019   4.721 -0.2409 -0.2773 -0.1758
  617MOL0     C85042   2.352  10.160   4.710 -0.4245 -0.8615  0.7493
  617MOL0     C85043   2.426  10.252   4.792 -0.6491  0.2780 -0.9178
  617MOL0     O85044   2.409  10.384   4.798 -0.0462  0.2004 -0.7378
  617MOL0     C85045   2.402  10.437   4.667 -0.4665 -0.8443  0.6278
  617MOL0     C85046   2.431  10.586   4.658  0.1508 -0.0184 -0.0221
  617MOL0     C85047   2.557  10.637   4.729  0.6946 -0.0311  0.2503
  617MOL0     C85048   2.572  10.788   4.728 -0.7718  0.0392  0.2640
  617MOL0     C85049   2.550  10.845   4.593  0.5400  0.6662  0.6017
  617MOL0     C85050   2.616  10.975   4.561 -0.4487  0.0754 -0.6808
  617MOL0     C85051   2.608  11.002   4.409  0.2716 -0.4240 -0.0449
  617MOL0     C85052   2.669  11.130   4.366 -0.0825 -1.0857  0.0120
  617MOL0    Cl85053   2.572  11.268   4.437 -0.1970  0.0465  0.0821
  617MOL0     C85054   2.526  10.194   4.879  1.0358 -0.5615  0.7539
  617MOL0     C85055   2.539  10.065   4.887  0.3105  1.4013 -0.1998
  617MOL0     O85056   2.697   9.853   4.730  0.2569  0.6524 -0.0055
  617MOL0     C85057   2.734   9.580   4.725 -0.1771  0.3473  0.5966
  617MOL0     C85058   2.750   9.436   4.742 -0.3082 -0.0532  0.0094
  617MOL0     N85059   2.771   8.631   4.480 -0.7358  0.5068 -0.8962
  617MOL0     N85060   2.871   8.584   4.416 -0.3979  0.5803 -0.2962
  617MOL0     C85061   3.353   8.744   5.264  1.0653 -0.5317  0.2929
  617MOL0     C85062   3.268   8.730   5.369  0.2816  0.0488  0.0481
  617MOL0     C85063   2.906   8.875   5.607  0.2497 -0.0192 -0.5938
  617MOL0     C85064   2.837   8.985   5.655 -0.1518 -0.3929 -1.6132
  617MOL0     C85065   2.739   8.977   5.757  0.1582  0.7648  0.3780
  617MOL0     C85066   2.706   8.852   5.816 -0.9782 -0.3786  0.6448
  617MOL0     O85067   2.611   8.850   5.914 -0.3756 -0.3691  0.4027
  617MOL0     C85068   2.586   8.729   5.991 -0.1393 -0.1532  0.6050
  617MOL0     C85069   2.514   8.766   6.129 -0.8495 -0.5155  0.4456
  617MOL0     C85070   2.369   8.822   6.114 -0.0439 -0.0463 -0.0623
  617MOL0     C85071   2.313   8.872   6.251 -0.1111 -0.4644 -0.6694
  617MOL0     C85072   2.215   8.976   6.228 -0.0507  0.0718 -0.3003
  617MOL0     C85073   2.127   9.065   6.236 -1.2206  0.2775  0.6609
  617MOL0     C85074   2.773   8.740   5.756  0.3453 -0.1578  0.4491
  617MOL0     C85075   2.858   8.754   5.646 -0.1919  0.5782  0.3348
  617MOL0     C85076   2.900   8.622   5.582 -0.0239 -0.7763  0.6670
  617MOL0     H85077   3.286   9.034   5.514 -2.0821  0.3750 -2.3433
  617MOL0     H85078   3.497   9.040   5.364 -1.0180  0.1847  1.1380
  617MOL0     H85079   3.510   8.973   4.981  0.8064  1.0972  2.6436
  617MOL0     H85080   3.373   8.869   5.015  0.1510 -0.3131  1.4202
  617MOL0     H85081   3.652   8.792   4.933 -0.6975  0.2446 -2.2322
  617MOL0     H85082   3.557   8.675   5.019 -0.9785  0.3394  1.1229
  617MOL0     H85083   3.450   8.810   4.755  1.7288  0.3147  0.2546
  617MOL0     H85084   3.572   8.677   4.753  0.9062  0.6854 -0.0755
  617MOL0     H85085   3.410   8.524   4.868  1.0320  1.6408  1.6209
  617MOL0     H85086   3.292   8.658   4.887 -0.2764  0.9354  0.8520
  617MOL0     H85087   3.388   8.581   4.616  0.0146  1.4587 -1.1136
  617MOL0     H85088   3.250   8.691   4.651 -2.2393 -1.9023 -2.7886
  617MOL0     H85089   3.247   8.400   4.732 -1.9128 -2.8699 -2.5127
  617MOL0     H85090   3.118   8.515   4.746 -0.6661  2.3845 -1.1254
  617MOL0     H85091   3.112   8.357   4.549 -0.6771  0.5382 -3.4744
  617MOL0     H85092   3.274   8.407   4.498  1.4725  0.6297  1.0657
  617MOL0     H85093   3.190   8.632   4.438 -2.4362  1.8723 -1.5209
  617MOL0     H85094   3.108   8.506   4.351  0.3412  1.9603 -0.6654
  617MOL0     H85095   3.019   8.716   4.664  2.7890 -4.4854 -0.4185
  617MOL0     H85096   2.759   8.739   4.790 -0.0130  0.7246 -0.1723
  617MOL0     H85097   2.626   8.748   4.677  0.1474  0.8168  1.2032
  617MOL0     H85098   2.857   8.946   4.629  0.0739  1.0624 -1.6644
  617MOL0     H85099   2.687   8.938   4.575  0.6501 -3.0288 -1.1777
  617MOL0     H85100   2.606   8.996   4.810 -0.4516  0.2621 -3.4772
  617MOL0     H85101   2.775   8.979   4.868  1.4684 -0.9749 -1.5592
  617MOL0     H85102   2.848   9.174   4.763 -0.9046  1.4120 -0.1180
  617MOL0     H85103   2.716   9.162   4.650  1.2272  0.8054 -0.4208
  617MOL0     H85104   2.492   9.379   4.958 -1.9099  1.3454 -1.9160
  617MOL0     H85105   2.498   9.731   5.025 -1.9435  1.0684  0.7839
  617MOL0     H85106   2.452   9.566   5.071 -1.7554 -0.9948 -0.1053
  617MOL0     H85107   2.360   9.646   4.947 -0.3731  1.7127  3.2204
  617MOL0     H85108   2.309   9.964   4.654 -0.8679  0.1127  0.1007
  617MOL0     H85109   2.262  10.192   4.657  0.1100  0.0937  0.4023
  617MOL0     H85110   2.483  10.388   4.612 -0.9417 -2.9973  1.7452
  617MOL0     H85111   2.301  10.413   4.632 -1.3426 -0.0641  2.4554
  617MOL0     H85112   2.445  10.603   4.551  1.9882  0.0489  0.2015
  617MOL0     H85113   2.340  10.639   4.690 -0.5427 -0.9691 -0.3561
  617MOL0     H85114   2.644  10.582   4.692 -1.2019 -1.5244 -2.3042
  617MOL0     H85115   2.546  10.610   4.835 -0.7706 -1.1557 -0.1460
  617MOL0     H85116   2.675  10.802   4.761 -0.5601  2.7841 -1.2621
  617MOL0     H85117   2.500  10.832   4.798 -2.3324 -0.0853 -1.1888
  617MOL0     H85118   2.585  10.761   4.531 -1.4113 -0.2514  0.6731
  617MOL0     H85119   2.444  10.853   4.570  0.7778 -1.8076 -2.0153
  617MOL0     H85120   2.719  10.955   4.591 -0.7734  2.2937  2.3401
  617MOL0     H85121   2.576  11.054   4.625 -0.7305 -0.8858  0.3662
  617MOL0     H85122   2.504  11.016   4.378 -0.3108  0.1856  1.9698
  617MOL0     H85123   2.660  10.916   4.367  2.9310  0.9118  0.2525
  617MOL0     H85124   2.663  11.139   4.257 -2.2391  1.8314  0.2610
  617MOL0     H85125   2.771  11.136   4.405  0.0691  0.8694 -0.5496
  617MOL0     H85126   2.569  10.262   4.953 -1.5533  2.2706 -0.1226
  617MOL0     H85127   2.604  10.040   4.971 -0.3237  1.6508  0.3831
  617MOL0     H85128   2.798   9.638   4.659 -2.2366  2.0797  0.0026
  617MOL0     H85129   2.832   9.396   4.684 -0.7176 -2.3959  0.9521
  617MOL0     H85130   3.389   8.676   5.187  2.0406  0.4400 -0.1393
  617MOL0     H85131   3.195   8.650   5.365 -2.8373  2.7353 -1.2343
  617MOL0     H85132   2.868   9.085   5.626  1.4616 -0.4881 -0.3821
  617MOL0     H85133   2.692   9.064   5.803 -1.2128  1.1146 -1.5862
  617MOL0     H85134   2.511   8.668   5.939  0.4135 -0.7879  0.5455
  617MOL0     H85135   2.683   8.680   6.000  0.2620  0.4220 -0.4542
  617MOL0     H85136   2.577   8.838   6.183  1.4956 -2.3131  0.2538
  617MOL0     H85137   2.502   8.670   6.182  0.3071 -1.1813 -0.4635
  617MOL0     H85138   2.374   8.907   6.045  0.0499  0.6410  0.7816
  617MOL0     H85139   2.295   8.749   6.079 -2.2634  1.9556  0.1417
  617MOL0     H85140   2.402   8.907   6.304  0.3336  0.6541 -2.0818
  617MOL0     H85141   2.260   8.801   6.316 -1.5211  0.6758 -0.5254
  617MOL0     H85142   2.056   9.145   6.240 -0.7944  0.6066  3.3537
  617MOL0     H85143   2.734   8.643   5.786  4.1905 -1.7618  0.8802
  617MOL0     H85144   2.932   8.637   5.479 -2.5667  0.8387  0.0384
  617MOL0     H85145   2.982   8.575   5.638 -1.5789 -0.9911  2.8852
  617MOL0     H85146   2.814   8.556   5.576  1.1849 -2.3528  0.0906
  618MOL0     O85147   7.560   6.432   6.154 -0.3247 -0.2018  0.2104
  618MOL0     C85148   7.571   6.545   6.098  0.3103  0.2603 -0.3288
  618MOL0     O85149   7.675   6.635   6.124 -0.1611 -0.1973 -0.6610
  618MOL0     C85150   7.795   6.572   6.143  0.1100  0.0079  0.3025
  618MOL0     C85151   7.876   6.541   6.036  0.5841 -0.0277  0.5135
  618MOL0     C85152   7.992   6.485   6.056  0.4557  0.4665  0.0599
  618MOL0     C85153   8.040   6.453   6.185 -0.6389  0.4872 -0.4699
  618MOL0     O85154   8.169   6.397   6.186  0.4235  0.1721  0.0453
  618MOL0     C85155   8.242   6.373   6.303  0.2619 -0.7191 -0.0611
  618MOL0     C85156   8.383   6.345   6.241  0.1310  0.0855  0.2034
  618MOL0     C85157   8.447   6.471   6.162  0.9248 -0.0779 -0.4715
  618MOL0     C85158   8.517   6.566   6.262  0.2012  0.0032  0.6774
  618MOL0     C85159   8.540   6.707   6.212 -0.5663 -0.2927 -0.3584
  618MOL0     C85160   8.628   6.789   6.298 -0.1578  0.1927  0.2509
  618MOL0     C85161   8.766   6.732   6.310  0.6600  0.0066 -0.0624
  618MOL0     C85162   8.871   6.837   6.358  0.0118  0.0648 -0.3165
  618MOL0     N85163   9.007   6.781   6.384 -0.4539  0.0934 -0.5954
  618MOL0     C85164   9.073   6.776   6.510 -0.2774  1.4828  0.6095
  618MOL0     C85165   9.198   6.738   6.470 -0.1855  0.6898 -0.6254
  618MOL0     C85166   9.314   6.757   6.567 -0.4334  0.9070  0.7879
  618MOL0     C85167   9.449   6.684   6.538  0.9967  0.1243  0.6171
  618MOL0     C85168   9.435   6.536   6.492  0.3413  0.3596  0.3702
  618MOL0     C85169   9.574   6.467   6.465 -0.7119 -0.1108  0.0405
  618MOL0     O85170   9.657   6.457   6.585  0.0989  0.0399  0.2710
  618MOL0     C85171   9.788   6.403   6.572  0.7387 -0.3037 -0.6650
  618MOL0     C85172   9.876   6.438   6.676 -0.7268 -0.0584 -0.0141
  618MOL0     C85173  10.010   6.403   6.675  0.4699 -0.4464 -0.4012
  618MOL0     C85174  10.089   6.454   6.785  0.2747 -0.4060  0.0991
  618MOL0     C85175  10.061   6.334   6.563 -0.3626  0.5960 -0.1730
  618MOL0     C85176  10.197   6.274   6.544 -1.3084  0.5254 -0.6774
  618MOL0     O85177  10.223   6.186   6.440 -0.9465  0.2688  0.6370
  618MOL0     C85178  10.356   6.138   6.437  0.5660 -0.7729 -0.9589
  618MOL0     C85179  10.394   6.033   6.527 -0.3581 -0.0484  0.2408
  618MOL0     C85180  10.521   5.984   6.530 -0.1671 -0.4703 -0.7233
  618MOL0     C85181  10.607   6.029   6.432 -0.0677  1.1843  0.0032
  618MOL0     O85182  10.730   5.958   6.421 -0.0491  0.8658 -0.3942
  618MOL0     C85183  10.852   6.030   6.371  0.7405  0.1381 -0.3378
  618MOL0     C85184  10.965   5.929   6.357  1.1092 -0.2186  0.4814
  618MOL0     C85185  11.023   5.912   6.492 -0.1273  0.5386  0.2991
  618MOL0     C85186  11.139   5.801   6.490  0.6912  0.1699 -0.6297
  618MOL0     C85187  11.203   5.802   6.627 -0.6283 -0.2382  0.2401
  618MOL0     C85188  11.327   5.703   6.635  0.4314 -0.2393  0.3608
  618MOL0     C85189  11.404   5.731   6.768  0.2856 -0.8268 -0.1921
  618MOL0     C85190  11.540   5.665   6.764  0.0409 -0.3143 -0.6154
  618MOL0    Cl85191  11.635   5.740   6.632  0.1073 -0.4702 -0.0004
  618MOL0     C85192  10.572   6.119   6.338  0.4887 -0.7450  0.5363
  618MOL0     C85193  10.444   6.176   6.342 -1.0132  0.0170 -0.0911
  618MOL0     O85194  10.284   6.317   6.619 -0.5702 -0.0477 -0.0065
  618MOL0     C85195   9.973   6.319   6.452  0.2002 -0.2452  0.0709
  618MOL0     C85196   9.835   6.338   6.460  0.7024 -0.2578 -0.5656
  618MOL0     N85197   9.201   6.728   6.333 -0.2212 -0.0137 -0.3515
  618MOL0     N85198   9.096   6.775   6.282  0.6964  0.7155 -0.4288
  618MOL0     C85199   7.962   6.479   6.295 -1.0099 -0.4275  1.0912
  618MOL0     C85200   7.838   6.543   6.276  0.4286  0.2130 -0.9832
  618MOL0     C85201   7.462   6.604   6.016  0.1031 -0.2266  0.9069
  618MOL0     C85202   7.488   6.732   5.949  0.2826 -0.5884  0.2652
  618MOL0     C85203   7.396   6.802   5.877  0.7789  0.5581 -0.0975
  618MOL0     C85204   7.266   6.745   5.862 -0.2592 -0.7162  0.7300
  618MOL0     O85205   7.156   6.798   5.789  0.2769 -0.2225  0.2093
  618MOL0     C85206   7.166   6.934   5.752  0.6199  0.3591 -0.7430
  618MOL0     C85207   7.054   6.963   5.661  0.1795  0.0085  1.3402
  618MOL0     C85208   7.090   7.095   5.606 -0.2423  0.0004  0.4725
  618MOL0     C85209   7.016   7.135   5.481  0.6462 -0.0422  0.6169
  618MOL0     C85210   7.061   7.265   5.422  0.6095 -0.0692 -0.1389
  618MOL0     C85211   7.101   7.364   5.369  0.4859 -0.2666  0.4490
  618MOL0     C85212   7.238   6.625   5.928  0.3366  0.6634 -0.3127
  618MOL0     C85213   7.334   6.546   5.995 -0.2935 -0.2783  0.1178
  618MOL0     C85214   7.292   6.413   6.029 -1.3140 -0.5172 -0.2844
  618MOL0     H85215   7.851   6.570   5.935  1.0991  1.1478  0.7163
  618MOL0     H85216   8.044   6.454   5.966 -0.9101 -2.2099  0.0764
  618MOL0     H85217   8.207   6.280   6.349 -0.3834 -0.8100 -0.7256
  618MOL0     H85218   8.248   6.450   6.380  2.0916  1.6579 -2.4090
  618MOL0     H85219   8.452   6.308   6.317  2.1945  2.5029 -0.3576
  618MOL0     H85220   8.369   6.258   6.177  0.6775 -0.6405  1.0500
  618MOL0     H85221   8.524   6.425   6.100  0.6976 -0.1868 -0.6717
  618MOL0     H85222   8.378   6.530   6.100 -0.1456  1.3783  1.9387
  618MOL0     H85223   8.454   6.577   6.351  1.8887  0.5559  1.8461
  618MOL0     H85224   8.608   6.511   6.289 -1.4842 -3.1207  0.4180
  618MOL0     H85225   8.444   6.756   6.199 -1.3068 -0.8515  2.3342
  618MOL0     H85226   8.585   6.707   6.112  0.4843 -1.0199  0.0997
  618MOL0     H85227   8.626   6.888   6.250  2.7918 -1.1798 -3.1183
  618MOL0     H85228   8.594   6.802   6.401 -0.6987 -0.2346  0.1330
  618MOL0     H85229   8.793   6.691   6.213 -0.4063  3.4124 -1.9641
  618MOL0     H85230   8.760   6.661   6.394 -1.6769 -3.2765 -2.7353
  618MOL0     H85231   8.879   6.910   6.276  1.1481  2.0574  1.4622
  618MOL0     H85232   8.841   6.893   6.447 -1.4425 -2.2964  0.7756
  618MOL0     H85233   9.049   6.793   6.615  2.2939 -0.0759  1.5528
  618MOL0     H85234   9.277   6.723   6.664 -2.2875  0.4100 -0.0438
  618MOL0     H85235   9.312   6.866   6.577 -2.7314  0.9379  0.5844
  618MOL0     H85236   9.498   6.739   6.457 -1.8142 -1.9717 -2.8353
  618MOL0     H85237   9.512   6.697   6.626  2.3486 -1.5378 -0.0487
  618MOL0     H85238   9.391   6.479   6.574 -3.6380 -0.3394 -2.0280
  618MOL0     H85239   9.364   6.519   6.410  1.0330  2.5635 -0.7898
  618MOL0     H85240   9.566   6.362   6.433 -0.5802  0.4179 -1.8751
  618MOL0     H85241   9.633   6.519   6.389  0.0782  0.0968  0.7813
  618MOL0     H85242   9.843   6.519   6.740 -3.0507  0.9769 -2.3302
  618MOL0     H85243  10.159   6.527   6.745 -0.5066 -0.4017 -1.3199
  618MOL0     H85244  10.143   6.370   6.830 -1.0522 -2.4552 -1.9067
  618MOL0     H85245  10.023   6.508   6.854 -2.4065  2.9394 -4.4758
  618MOL0     H85246  10.317   6.006   6.598 -0.1950  1.8446  1.1908
  618MOL0     H85247  10.566   5.921   6.606  1.0407  0.5476 -0.5659
  618MOL0     H85248  10.836   6.081   6.276  0.7898 -0.3562 -0.6174
  618MOL0     H85249  10.882   6.109   6.440  2.6082 -0.4616 -0.4274
  618MOL0     H85250  10.926   5.835   6.318 -0.3513  0.6218 -0.1716
  618MOL0     H85251  11.038   5.967   6.285  2.0156 -1.1038  0.9112
  618MOL0     H85252  10.950   5.897   6.572  0.8604  2.5030  1.6661
  618MOL0     H85253  11.067   6.008   6.522  1.4257 -0.1557  0.3303
  618MOL0     H85254  11.225   5.823   6.425  0.4396  2.1290 -0.3771
  618MOL0     H85255  11.101   5.702   6.467  1.3563 -0.6254  1.4797
  618MOL0     H85256  11.231   5.907   6.642 -0.7263  0.0391 -1.3047
  618MOL0     H85257  11.138   5.764   6.706 -2.4821 -3.1545 -2.4496
  618MOL0     H85258  11.389   5.716   6.546  0.7852 -0.1798  0.6117
  618MOL0     H85259  11.302   5.597   6.626 -0.7991 -0.0505  1.3231
  618MOL0     H85260  11.351   5.690   6.854  1.5260  2.8560  2.5734
  618MOL0     H85261  11.407   5.838   6.787  0.8045 -1.0032  0.7850
  618MOL0     H85262  11.543   5.556   6.759  4.0705 -0.3723 -0.3267
  618MOL0     H85263  11.596   5.692   6.854  1.7771 -1.1525 -1.3944
  618MOL0     H85264  10.642   6.148   6.261  0.5166  0.7491  1.1057
  618MOL0     H85265  10.413   6.243   6.262 -0.8625  0.1285 -0.0585
  618MOL0     H85266  10.014   6.285   6.357  0.7789  0.2713  0.1302
  618MOL0     H85267   9.781   6.318   6.368 -0.1390 -2.8627  0.4263
  618MOL0     H85268   7.999   6.439   6.389  0.5640 -0.7438  0.3758
  618MOL0     H85269   7.768   6.573   6.354  0.4193 -3.9751  0.9071
  618MOL0     H85270   7.586   6.777   5.962  0.3782 -0.7748  0.1794
  618MOL0     H85271   7.417   6.906   5.854 -2.5702  1.7682  1.6299
  618MOL0     H85272   7.144   6.992   5.842  1.6412 -0.4004  0.0138
  618MOL0     H85273   7.267   6.957   5.718  0.7195 -1.5706 -1.9056
  618MOL0     H85274   6.958   6.959   5.712 -0.2669 -0.6962  0.4898
  618MOL0     H85275   7.048   6.892   5.577  0.6898 -0.4851  1.7132
  618MOL0     H85276   7.084   7.170   5.685  1.6316 -0.5090  1.1324
  618MOL0     H85277   7.196   7.092   5.578 -0.3813  0.7902 -0.1750
  618MOL0     H85278   6.908   7.136   5.501  0.6304  0.7349  0.4969
  618MOL0     H85279   7.023   7.059   5.403  2.2070 -0.8810  1.5141
  618MOL0     H85280   7.131   7.451   5.314 -4.2509  0.8474 -0.7518
  618MOL0     H85281   7.134   6.593   5.931  0.0005  1.5351 -1.6024
  618MOL0     H85282   7.365   6.343   5.987 -1.6045 -0.2953 -1.1778
  618MOL0     H85283   7.295   6.407   6.138  1.9131 -0.1462 -0.2461
  618MOL0     H85284   7.197   6.379   5.986 -1.3248  0.5847 -1.1690
  619MOL0     O85285   7.866   9.293   3.505 -0.2833 -0.4394 -0.0099
  619MOL0     C85286   7.758   9.312   3.450  0.5064 -0.4433 -0.2592
  619MOL0     O85287   7.738   9.338   3.314  0.2286 -0.4408 -0.7282
  619MOL0     C85288   7.841   9.308   3.223 -0.7086 -0.1878 -0.2184
  619MOL0     C85289   7.942   9.210   3.243  0.0830  0.9279 -0.2984
  619MOL0     C85290   8.044   9.193   3.154 -0.2139  0.3212 -0.0947
  619MOL0     C85291   8.051   9.273   3.040 -0.6691 -0.5825  0.4333
  619MOL0     O85292   8.169   9.268   2.966  1.0821 -0.4308  0.3939
  619MOL0     C85293   8.163   9.306   2.830  0.0598 -0.2802  0.0277
  619MOL0     C85294   8.287   9.248   2.760  0.2280 -0.2311 -0.2477
  619MOL0     C85295   8.420   9.314   2.804 -0.3490 -0.2857  0.8205
  619MOL0     C85296   8.527   9.241   2.717  0.4201 -0.7188 -0.0686
  619MOL0     C85297   8.667   9.288   2.762 -0.1257 -0.1773  0.0335
  619MOL0     C85298   8.774   9.259   2.652  0.0680 -0.2177 -0.2030
  619MOL0     C85299   8.909   9.228   2.712 -0.7731 -0.7958  1.3061
  619MOL0     C85300   8.935   9.091   2.771  0.6092 -0.1600 -0.2753
  619MOL0     N85301   8.845   8.983   2.734  0.2718 -0.1771  0.1932
  619MOL0     C85302   8.871   8.882   2.650 -0.1639  1.1222  0.7004
  619MOL0     C85303   8.758   8.801   2.651  0.4137 -0.5297  0.8811
  619MOL0     C85304   8.740   8.677   2.577 -0.2131  0.2348  0.7317
  619MOL0     C85305   8.826   8.567   2.634 -0.8293  0.0313  0.7644
  619MOL0     C85306   8.793   8.437   2.561 -0.2931  0.4494  0.7833
  619MOL0     C85307   8.920   8.372   2.516  0.2134  0.2607  1.0784
  619MOL0     O85308   8.974   8.314   2.628  0.1309  0.0871 -0.8245
  619MOL0     C85309   9.088   8.239   2.616  1.1714  0.1040  0.5899
  619MOL0     C85310   9.136   8.178   2.494 -0.3673  0.4588  0.0690
  619MOL0     C85311   9.259   8.096   2.488  0.2330 -0.5331  0.0093
  619MOL0     C85312   9.289   8.030   2.353 -0.0865 -0.0652 -0.3898
  619MOL0     C85313   9.328   8.076   2.608  0.1380  0.0112  0.1662
  619MOL0     C85314   9.459   8.001   2.632  0.1988  0.2015  0.2772
  619MOL0     O85315   9.510   7.988   2.761  0.5772 -0.4243  0.4175
  619MOL0     C85316   9.641   7.942   2.766 -0.4673  0.9111  0.1554
  619MOL0     C85317   9.655   7.802   2.775 -0.3818  0.8749  0.3499
  619MOL0     C85318   9.784   7.760   2.814 -0.4850 -0.2480 -0.2092
  619MOL0     C85319   9.899   7.847   2.823  0.6054 -0.6553  0.6752
  619MOL0     O85320  10.027   7.800   2.841 -0.3865  0.6918  0.4153
  619MOL0     C85321  10.040   7.661   2.825 -0.4623  0.6188  0.1846
  619MOL0     C85322  10.185   7.614   2.828 -0.2815 -0.3634 -0.5045
  619MOL0     C85323  10.269   7.673   2.715 -0.2926 -0.8550 -0.6644
  619MOL0     C85324  10.416   7.613   2.719  0.0913  0.1627 -0.3288
  619MOL0     C85325  10.475   7.611   2.585 -0.9242  0.9290  0.5443
  619MOL0     C85326  10.609   7.539   2.581 -0.3719 -0.5390  0.1614
  619MOL0     C85327  10.612   7.386   2.601  0.2491  0.5670  0.1507
  619MOL0     C85328  10.542   7.312   2.489  0.3688  0.2830  1.4564
  619MOL0    Cl85329  10.553   7.133   2.533  0.2550 -0.1828 -0.2622
  619MOL0     C85330   9.874   7.981   2.807 -0.3895 -0.3310 -0.2175
  619MOL0     C85331   9.755   8.027   2.783  1.9982 -0.1516  0.9253
  619MOL0     O85332   9.514   7.956   2.530 -0.1723 -0.0158  0.7132
  619MOL0     C85333   9.274   8.139   2.727 -0.4460  0.3921 -0.8918
  619MOL0     C85334   9.160   8.206   2.730  0.9709 -0.1481  0.4664
  619MOL0     N85335   8.666   8.856   2.741  0.3677 -0.2911 -0.0023
  619MOL0     N85336   8.723   8.964   2.791 -0.4541 -0.0789 -0.4844
  619MOL0     C85337   7.946   9.362   3.007  0.2941  0.1914  0.1287
  619MOL0     C85338   7.851   9.386   3.103  0.6485  1.1896 -0.7206
  619MOL0     C85339   7.635   9.336   3.533 -0.4368  0.4216 -0.6535
  619MOL0     C85340   7.544   9.437   3.496 -1.1491 -0.1788  1.0124
  619MOL0     C85341   7.431   9.449   3.564 -0.1646 -0.5012 -0.2965
  619MOL0     C85342   7.395   9.375   3.672 -0.1353  0.1408  0.0785
  619MOL0     O85343   7.274   9.397   3.726  0.3148 -0.4454 -0.5740
  619MOL0     C85344   7.218   9.300   3.803  0.2585  0.2336 -0.5002
  619MOL0     C85345   7.072   9.324   3.841  0.2970  0.2748  0.7644
  619MOL0     C85346   6.976   9.347   3.720 -0.1420  0.9804  0.3457
  619MOL0     C85347   6.943   9.207   3.653  0.0750 -0.3196  0.3600
  619MOL0     C85348   6.879   9.230   3.520  0.9996  0.1983 -0.3153
  619MOL0     C85349   6.812   9.229   3.419 -0.4046  0.3647  0.1368
  619MOL0     C85350   7.479   9.275   3.708 -0.3354  0.4583 -0.2265
  619MOL0     C85351   7.609   9.254   3.650 -0.2542  0.1537  0.5863
  619MOL0     C85352   7.709   9.151   3.700 -0.3470 -0.0810 -0.4324
  619MOL0     H85353   7.943   9.137   3.324 -2.4563  1.8755  0.6800
  619MOL0     H85354   8.125   9.122   3.166 -0.7731 -0.1831  0.8431
  619MOL0     H85355   8.163   9.415   2.822  0.8503 -0.2260  0.6032
  619MOL0     H85356   8.071   9.270   2.783 -1.0600  0.1221  1.8178
  619MOL0     H85357   8.285   9.141   2.782 -1.4219 -0.9063 -3.2099
  619MOL0     H85358   8.275   9.257   2.652 -0.1483  0.8471 -0.1348
  619MOL0     H85359   8.422   9.422   2.790 -0.2019 -0.6244 -2.5433
  619MOL0     H85360   8.438   9.298   2.911  0.6700 -1.3685  0.5137
  619MOL0     H85361   8.520   9.132   2.726 -0.0639 -0.6608  0.3010
  619MOL0     H85362   8.506   9.267   2.613 -0.0104 -1.1158 -0.0828
  619MOL0     H85363   8.694   9.234   2.854 -5.6597  0.2474  2.3009
  619MOL0     H85364   8.656   9.394   2.785 -3.8595 -0.6423  1.0660
  619MOL0     H85365   8.758   9.162   2.603 -0.8270 -0.5489  0.7082
  619MOL0     H85366   8.776   9.346   2.586  1.6880  0.9565  1.3184
  619MOL0     H85367   8.928   9.309   2.784 -3.0187 -1.3592  2.6116
  619MOL0     H85368   8.985   9.237   2.634 -1.0974 -0.9556  0.9686
  619MOL0     H85369   9.036   9.053   2.754  2.1561  3.1163  0.7898
  619MOL0     H85370   8.916   9.105   2.878 -0.2479  4.5335 -0.8264
  619MOL0     H85371   8.965   8.872   2.597 -0.9366 -1.4277 -0.3397
  619MOL0     H85372   8.765   8.681   2.471  3.1394 -3.4064  1.1584
  619MOL0     H85373   8.634   8.650   2.575 -0.0180 -0.5788  0.9886
  619MOL0     H85374   8.932   8.591   2.629 -0.7020  0.1264  3.1034
  619MOL0     H85375   8.804   8.556   2.740 -2.7154 -0.6684  0.3540
  619MOL0     H85376   8.750   8.364   2.630  2.2036 -1.8773  0.0498
  619MOL0     H85377   8.716   8.443   2.484 -0.5362  0.6837  1.0415
  619MOL0     H85378   8.898   8.295   2.441  1.4662 -1.0172  1.9875
  619MOL0     H85379   9.000   8.433   2.475 -0.3494  1.1965  1.3470
  619MOL0     H85380   9.097   8.211   2.398  1.2267  0.8656 -0.4603
  619MOL0     H85381   9.213   8.057   2.279 -0.2817  2.3949  0.6360
  619MOL0     H85382   9.301   7.922   2.366 -1.0572 -0.4743 -2.4332
  619MOL0     H85383   9.384   8.074   2.323  0.1376  1.5082  2.3072
  619MOL0     H85384   9.576   7.729   2.763  1.7629 -2.1093  2.6643
  619MOL0     H85385   9.787   7.652   2.829 -1.9658 -0.0653  1.8761
  619MOL0     H85386   9.986   7.610   2.905 -0.3440 -0.9631 -0.7069
  619MOL0     H85387  10.001   7.628   2.728  4.2882  0.0437 -1.7601
  619MOL0     H85388  10.227   7.644   2.925  1.6101 -1.8282 -0.8162
  619MOL0     H85389  10.204   7.507   2.821  1.2769 -0.4616  2.8921
  619MOL0     H85390  10.273   7.782   2.709 -0.5920 -0.8882 -1.5143
  619MOL0     H85391  10.212   7.643   2.626  0.5965 -0.1571 -1.4814
  619MOL0     H85392  10.406   7.508   2.749 -1.0908  0.1476 -0.7271
  619MOL0     H85393  10.480   7.666   2.791  0.4008  0.4898 -0.8336
  619MOL0     H85394  10.412   7.557   2.513  2.9063 -1.9358 -1.0185
  619MOL0     H85395  10.491   7.715   2.556  1.6676  0.6982  0.9152
  619MOL0     H85396  10.679   7.583   2.653  1.0848 -1.9323 -0.3601
  619MOL0     H85397  10.659   7.556   2.485  1.0010 -2.0608  0.5679
  619MOL0     H85398  10.559   7.365   2.694  2.0064 -1.3793  0.7781
  619MOL0     H85399  10.713   7.350   2.622  1.2725  2.8924 -0.4725
  619MOL0     H85400  10.588   7.334   2.392 -0.5037  2.9963  1.5763
  619MOL0     H85401  10.438   7.347   2.487  0.1569 -0.3677  0.7513
  619MOL0     H85402   9.950   8.057   2.819 -0.5007 -0.4994  1.9261
  619MOL0     H85403   9.727   8.131   2.783  0.3904 -0.4900 -1.7873
  619MOL0     H85404   9.316   8.133   2.827  0.1332  0.2055 -1.1423
  619MOL0     H85405   9.121   8.245   2.824 -1.3456 -1.8842  0.3279
  619MOL0     H85406   7.957   9.421   2.916 -0.4286 -0.0904 -0.1473
  619MOL0     H85407   7.783   9.471   3.098 -1.1101  0.0687  1.7045
  619MOL0     H85408   7.569   9.501   3.412  0.9336 -2.0296  0.1217
  619MOL0     H85409   7.356   9.525   3.542 -1.1458 -1.7601 -1.4576
  619MOL0     H85410   7.236   9.197   3.771  0.1216  0.7229 -2.2154
  619MOL0     H85411   7.271   9.306   3.899  0.6427  1.5685 -0.7751
  619MOL0     H85412   7.074   9.418   3.896 -1.6775 -0.0880  1.5405
  619MOL0     H85413   7.034   9.241   3.902  1.6389 -1.7813 -1.0108
  619MOL0     H85414   6.885   9.395   3.757 -0.0753  2.1043 -0.8915
  619MOL0     H85415   7.022   9.415   3.648 -0.0564  1.3108  0.7091
  619MOL0     H85416   6.868   9.150   3.709 -0.3544 -1.6870 -1.5121
  619MOL0     H85417   7.036   9.151   3.642 -0.2805 -0.5386 -2.1835
  619MOL0     H85418   6.755   9.234   3.328 -0.1343 -0.2325 -0.0731
  619MOL0     H85419   7.460   9.215   3.796 -0.8199  0.4540 -0.3305
  619MOL0     H85420   7.792   9.211   3.739 -1.0039 -0.5625  1.8614
  619MOL0     H85421   7.668   9.093   3.784 -1.5474 -2.0488 -2.2605
  619MOL0     H85422   7.742   9.087   3.617  2.5923  0.2426  0.3742
  620MOL0     O85423   6.552   8.760  10.038 -0.9117  0.3883 -0.5609
  620MOL0     C85424   6.494   8.819   9.953 -0.0372 -0.9527  0.7516
  620MOL0     O85425   6.545   8.930   9.891 -0.0637  0.3634 -0.1725
  620MOL0     C85426   6.670   8.983   9.920 -0.3570 -0.2780 -0.7436
  620MOL0     C85427   6.774   8.900   9.953 -0.0653  0.1155 -0.0899
  620MOL0     C85428   6.887   8.962  10.008 -0.3870  0.4871  1.2907
  620MOL0     C85429   6.899   9.100  10.012 -0.5399 -0.2844 -0.0948
  620MOL0     O85430   7.020   9.137  10.055  0.1986  0.3588 -0.3052
  620MOL0     C85431   7.019   9.262  10.135  0.6888 -0.1434 -0.5207
  620MOL0     C85432   7.119   9.243  10.245 -0.0131 -0.0135 -0.4986
  620MOL0     C85433   7.255   9.237  10.191 -0.3172  0.4204  0.3253
  620MOL0     C85434   7.361   9.202  10.307  0.1707  0.4155  0.3750
  620MOL0     C85435   7.499   9.184  10.243 -0.1211  0.9367  0.1641
  620MOL0     C85436   7.552   9.309  10.160  0.2626 -0.3624  0.0207
  620MOL0     C85437   7.680   9.295  10.081 -0.3441 -0.2039  0.2847
  620MOL0     C85438   7.670   9.183   9.978  0.0461  0.3141  0.0560
  620MOL0     N85439   7.744   9.218   9.856  0.7681  0.0480 -0.3210
  620MOL0     C85440   7.696   9.182   9.730 -0.2756  0.4394  0.2981
  620MOL0     C85441   7.780   9.240   9.638 -0.3357 -0.8787  0.7053
  620MOL0     C85442   7.786   9.229   9.483 -0.0062 -0.2013 -1.2305
  620MOL0     C85443   7.743   9.365   9.421  0.2534 -0.7563  0.5016
  620MOL0     C85444   7.711   9.362   9.266  0.0820  0.2509  0.2106
  620MOL0     C85445   7.833   9.315   9.185 -1.0460  0.0650 -0.3345
  620MOL0     O85446   7.818   9.169   9.168 -0.6444  0.0829 -0.6831
  620MOL0     C85447   7.821   9.121   9.045  0.5892 -0.7186  0.3952
  620MOL0     C85448   7.728   9.017   9.012  1.1836 -1.0467 -0.2605
  620MOL0     C85449   7.725   8.956   8.880 -0.5014  0.2569 -0.3770
  620MOL0     C85450   7.655   8.819   8.861 -0.1232  0.1999  0.1524
  620MOL0     C85451   7.814   9.010   8.780  0.0124 -0.1040 -0.1229
  620MOL0     C85452   7.803   8.978   8.634  0.3522 -0.2920 -0.0354
  620MOL0     O85453   7.907   9.006   8.558 -0.2283  0.2653  0.1408
  620MOL0     C85454   7.884   9.012   8.422 -0.8375  0.1843  0.7493
  620MOL0     C85455   7.857   9.140   8.357 -0.5912  0.4957 -0.2650
  620MOL0     C85456   7.851   9.145   8.215 -0.5878  0.0006  0.3334
  620MOL0     C85457   7.865   9.031   8.134  0.5798  1.3152 -0.2846
  620MOL0     O85458   7.865   9.050   7.998  0.7620  0.9592  0.9103
  620MOL0     C85459   7.823   8.941   7.910  0.2897  0.1935 -0.0067
  620MOL0     C85460   7.818   8.994   7.768  0.5976 -0.3545 -0.3131
  620MOL0     C85461   7.692   9.080   7.744  0.2717  0.0635  0.4852
  620MOL0     C85462   7.574   8.982   7.719  0.1418  0.2493  0.3637
  620MOL0     C85463   7.444   9.054   7.679  0.5452 -0.0813  0.2159
  620MOL0     C85464   7.321   8.953   7.679  0.7406  0.1094 -0.5030
  620MOL0     C85465   7.195   9.028   7.624  0.3874  0.1283  0.1157
  620MOL0     C85466   7.062   8.957   7.616 -0.3599  0.0099 -0.7582
  620MOL0    Cl85467   7.071   8.827   7.497 -0.2269 -0.1684  0.3325
  620MOL0     C85468   7.876   8.907   8.199  0.1605 -0.2958  0.4292
  620MOL0     C85469   7.892   8.899   8.340  0.5959 -0.2968  0.1406
  620MOL0     O85470   7.693   8.939   8.594 -0.2115 -0.2221 -0.0744
  620MOL0     C85471   7.897   9.113   8.809 -0.1421  0.5234 -0.4640
  620MOL0     C85472   7.906   9.162   8.940 -0.7250 -0.8990 -0.2872
  620MOL0     N85473   7.873   9.321   9.714 -0.2615  0.8153  0.0501
  620MOL0     N85474   7.853   9.302   9.841 -0.5605  0.0591  0.3321
  620MOL0     C85475   6.794   9.181   9.971 -0.0660  0.5810 -0.1895
  620MOL0     C85476   6.681   9.123   9.923  0.4426  1.3375  1.1677
  620MOL0     C85477   6.369   8.759   9.899  0.6458  0.0232  0.2703
  620MOL0     C85478   6.332   8.803   9.770  0.4581  0.0315 -0.4136
  620MOL0     C85479   6.216   8.742   9.713 -0.9988 -0.6109 -0.4085
  620MOL0     C85480   6.141   8.638   9.770 -0.4863 -0.7015  0.6010
  620MOL0     O85481   6.041   8.563   9.707 -0.4206 -0.0979  0.1792
  620MOL0     C85482   5.984   8.615   9.588  0.3270  0.0231 -0.1534
  620MOL0     C85483   5.934   8.505   9.496  0.5324  0.3776 -0.3805
  620MOL0     C85484   5.814   8.431   9.567 -0.0171 -0.0882  0.0838
  620MOL0     C85485   5.679   8.470   9.506 -0.2222 -0.0155  0.4397
  620MOL0     C85486   5.661   8.414   9.373  0.0820  0.2307 -0.0545
  620MOL0     C85487   5.640   8.381   9.256  0.1105 -1.0831  0.8369
  620MOL0     C85488   6.181   8.592   9.893  0.5459 -0.2730 -0.7063
  620MOL0     C85489   6.293   8.648   9.952 -0.0801  0.3036 -0.8807
  620MOL0     C85490   6.335   8.588  10.082  0.7290  0.0620 -0.4075
  620MOL0     H85491   6.764   8.792   9.943  0.0040 -0.1483  2.2646
  620MOL0     H85492   6.964   8.902  10.056  1.0574  0.8837 -0.4445
  620MOL0     H85493   6.919   9.275  10.179 -0.3351  0.9630 -2.9879
  620MOL0     H85494   7.049   9.350  10.078  0.5054  1.5996  1.9484
  620MOL0     H85495   7.112   9.320  10.322 -2.1007 -1.4041  0.8019
  620MOL0     H85496   7.092   9.155  10.304  1.8352  1.4893  2.8582
  620MOL0     H85497   7.260   9.160  10.114 -3.4525 -0.0407  0.4787
  620MOL0     H85498   7.269   9.335  10.145 -0.4592 -0.1909 -1.0640
  620MOL0     H85499   7.375   9.276  10.386 -2.9775 -0.4892  1.9277
  620MOL0     H85500   7.339   9.105  10.353  2.3654 -0.5907 -0.5740
  620MOL0     H85501   7.482   9.104  10.171 -1.2554  1.3251 -0.0142
  620MOL0     H85502   7.570   9.158  10.322  0.0017 -1.1467 -0.5759
  620MOL0     H85503   7.479   9.329  10.081  0.6248  0.0033 -0.2273
  620MOL0     H85504   7.558   9.402  10.217 -0.0130  0.8499 -1.8178
  620MOL0     H85505   7.753   9.272  10.158  0.9003  1.1141 -0.4559
  620MOL0     H85506   7.709   9.392  10.041 -1.9855  0.3762  0.4340
  620MOL0     H85507   7.703   9.093  10.029 -0.1780  0.6003  0.7213
  620MOL0     H85508   7.563   9.174   9.957 -0.4576  2.1990  1.4904
  620MOL0     H85509   7.621   9.109   9.699 -2.2256  2.4844 -0.0254
  620MOL0     H85510   7.727   9.145   9.442  0.8229 -0.6420 -1.5562
  620MOL0     H85511   7.882   9.187   9.451 -0.5656 -0.7549 -2.2538
  620MOL0     H85512   7.659   9.408   9.477 -0.2071  0.3011 -0.9155
  620MOL0     H85513   7.820   9.439   9.441 -0.2036 -0.8061  2.6533
  620MOL0     H85514   7.625   9.296   9.249  0.3360 -0.3123  1.0536
  620MOL0     H85515   7.677   9.458   9.226 -1.1696 -0.7974 -1.3997
  620MOL0     H85516   7.820   9.370   9.092 -3.5265 -1.4323 -0.9554
  620MOL0     H85517   7.926   9.338   9.239 -1.7126 -0.3921  1.0564
  620MOL0     H85518   7.655   8.977   9.081 -0.7917 -0.0092 -1.6468
  620MOL0     H85519   7.727   8.742   8.830  2.8339  3.3874 -1.6755
  620MOL0     H85520   7.590   8.815   8.774  0.9996 -0.4423 -0.6901
  620MOL0     H85521   7.607   8.795   8.956 -2.4783  2.4889 -0.3680
  620MOL0     H85522   7.850   9.241   8.396  0.3109  2.6874 -5.0615
  620MOL0     H85523   7.828   9.242   8.172 -2.5768  0.2751  1.8680
  620MOL0     H85524   7.902   8.866   7.904  1.3722  1.4281 -2.6291
  620MOL0     H85525   7.726   8.905   7.947 -0.0304 -0.7646 -1.6938
  620MOL0     H85526   7.914   9.043   7.749  0.4904  1.3033  2.8039
  620MOL0     H85527   7.808   8.902   7.710  0.2936 -2.1604  2.4039
  620MOL0     H85528   7.715   9.153   7.666 -2.2998  0.6417  0.1540
  620MOL0     H85529   7.671   9.144   7.831 -0.3920  0.8978 -0.2696
  620MOL0     H85530   7.550   8.938   7.816 -1.2690 -0.8902 -0.4666
  620MOL0     H85531   7.605   8.906   7.646  2.8567  1.2521  0.3476
  620MOL0     H85532   7.439   9.145   7.739 -0.7912  0.2576 -0.3667
  620MOL0     H85533   7.467   9.082   7.575 -1.5041 -1.1603 -0.5801
  620MOL0     H85534   7.302   8.921   7.782  0.0075  0.8745 -0.3855
  620MOL0     H85535   7.333   8.861   7.621 -0.1642 -0.7796  0.6880
  620MOL0     H85536   7.216   9.057   7.520 -1.1309 -0.3958 -0.3662
  620MOL0     H85537   7.180   9.118   7.684  2.4276  0.6703 -0.1300
  620MOL0     H85538   6.982   9.030   7.600 -1.0106 -0.3832  0.5484
  620MOL0     H85539   7.044   8.917   7.716  0.2077  0.5770 -0.4199
  620MOL0     H85540   7.904   8.820   8.141  1.7025  0.4004  0.0919
  620MOL0     H85541   7.912   8.800   8.379  0.5370  0.2939  1.7452
  620MOL0     H85542   7.971   9.153   8.740  0.4229  0.6702  0.2106
  620MOL0     H85543   7.981   9.240   8.958 -2.2334  0.9170 -1.4849
  620MOL0     H85544   6.806   9.287   9.954  2.3095  0.1764 -1.5158
  620MOL0     H85545   6.610   9.195   9.883  0.9507  0.5326 -1.3332
  620MOL0     H85546   6.377   8.891   9.726  1.8878  0.7402  2.2408
  620MOL0     H85547   6.199   8.781   9.613  3.4038 -3.3305 -2.5445
  620MOL0     H85548   5.905   8.683   9.622 -0.5576 -1.4247  0.7999
  620MOL0     H85549   6.055   8.671   9.526  0.3217 -0.0306 -0.2082
  620MOL0     H85550   6.022   8.442   9.480 -1.8967 -3.0065 -1.6194
  620MOL0     H85551   5.897   8.537   9.398 -0.7872  2.2415  0.6434
  620MOL0     H85552   5.826   8.322   9.561  1.4782 -0.2466  3.3869
  620MOL0     H85553   5.813   8.459   9.673  2.4274 -1.1779  0.4634
  620MOL0     H85554   5.684   8.578   9.525  2.5711 -0.3205  1.9772
  620MOL0     H85555   5.597   8.422   9.560  1.0092 -1.9225  0.6869
  620MOL0     H85556   5.627   8.343   9.157 -1.8410 -0.7600  0.9301
  620MOL0     H85557   6.124   8.510   9.936 -0.8347 -1.8280 -5.0045
  620MOL0     H85558   6.255   8.519  10.112 -0.6120  1.2025 -1.2126
  620MOL0     H85559   6.421   8.521  10.077  1.3780  0.5376  2.5422
  620MOL0     H85560   6.352   8.667  10.156 -2.7522 -0.7907  1.5546
  621MOL0     O85561   3.183   5.638  10.553  0.1589  0.1834  0.3982
  621MOL0     C85562   3.074   5.691  10.538  0.1493  0.2812 -0.3839
  621MOL0     O85563   2.958   5.629  10.562  0.2180  0.1361  0.6468
  621MOL0     C85564   2.938   5.496  10.560  0.7229  0.0887  0.4395
  621MOL0     C85565   3.009   5.419  10.466  0.0310 -0.5317 -0.0955
  621MOL0     C85566   2.995   5.279  10.482 -0.3878 -0.0960  0.3132
  621MOL0     C85567   2.917   5.222  10.578  0.6574 -0.1788 -0.3340
  621MOL0     O85568   2.904   5.091  10.609 -0.4641  0.1309 -0.3468
  621MOL0     C85569   2.958   4.999  10.504  0.0150  1.2839  0.2785
  621MOL0     C85570   2.943   4.849  10.535 -0.3021  0.0597  0.0813
  621MOL0     C85571   2.990   4.828  10.686 -0.5271  0.4779 -0.2501
  621MOL0     C85572   3.135   4.875  10.720 -0.9786  0.3683 -0.3315
  621MOL0     C85573   3.249   4.800  10.650 -0.7042  0.3817 -0.2183
  621MOL0     C85574   3.389   4.846  10.698  0.7838 -0.7091 -0.4551
  621MOL0     C85575   3.508   4.826  10.601 -0.1665 -0.2801 -0.0050
  621MOL0     C85576   3.623   4.905  10.651  0.0310  0.5381 -0.4561
  621MOL0     N85577   3.722   4.937  10.541 -0.5454  0.8209 -0.5244
  621MOL0     C85578   3.811   4.841  10.495 -0.1008  0.8064 -0.1331
  621MOL0     C85579   3.880   4.907  10.403 -0.0746  0.3687  0.2361
  621MOL0     C85580   3.978   4.846  10.309  0.0616 -0.2571  0.0171
  621MOL0     C85581   4.122   4.820  10.367  0.4779 -0.3424 -0.7174
  621MOL0     C85582   4.213   4.942  10.357 -0.8792  0.0996  0.2584
  621MOL0     C85583   4.365   4.914  10.386 -1.0415 -0.0123  0.5523
  621MOL0     O85584   4.406   4.778  10.349 -0.3817 -0.6014 -0.6500
  621MOL0     C85585   4.517   4.722  10.410 -0.1849 -0.5265 -0.8298
  621MOL0     C85586   4.625   4.800  10.453 -0.5022 -0.0203 -0.0941
  621MOL0     C85587   4.749   4.745  10.503 -0.0480  0.2511  0.0531
  621MOL0     C85588   4.864   4.835  10.551  0.4559  0.1132  0.0193
  621MOL0     C85589   4.754   4.604  10.522  0.0641 -0.2346  0.2763
  621MOL0     C85590   4.855   4.537  10.600  0.6244  1.0305 -0.4622
  621MOL0     O85591   4.861   4.398  10.590 -0.1111 -0.5029 -0.3102
  621MOL0     C85592   4.963   4.331  10.655  0.7489  0.0766 -0.7357
  621MOL0     C85593   5.099   4.339  10.624  0.2017  0.0605  0.2163
  621MOL0     C85594   5.190   4.259  10.694 -0.5647 -0.1408 -0.3996
  621MOL0     C85595   5.155   4.180  10.802 -0.1875  0.0437  0.2870
  621MOL0     O85596   5.239   4.111  10.875 -0.1014 -0.3663 -0.4258
  621MOL0     C85597   5.377   4.146  10.862 -0.1319 -0.1905 -0.4208
  621MOL0     C85598   5.454   4.068  10.966  0.2972  0.0509  0.4078
  621MOL0     C85599   5.601   4.092  10.957  0.1032  0.7080 -0.4802
  621MOL0     C85600   5.673   3.995  11.056 -0.5120  0.5593 -1.2077
  621MOL0     C85601   5.823   4.023  11.060  0.0308  0.2068 -0.0858
  621MOL0     C85602   5.886   3.929  11.173  0.5060 -0.7259  0.7619
  621MOL0     C85603   6.028   3.967  11.200  0.1082  0.3454  0.6031
  621MOL0     C85604   6.129   3.919  11.092 -0.0137 -0.0786  0.4724
  621MOL0    Cl85605   6.292   3.964  11.148 -0.1912 -0.0354 -0.4391
  621MOL0     C85606   5.017   4.176  10.831 -0.9753  0.0874 -0.3233
  621MOL0     C85607   4.922   4.252  10.766 -0.3984  0.0771  0.4872
  621MOL0     O85608   4.921   4.601  10.686 -0.1199 -0.0074  0.0106
  621MOL0     C85609   4.645   4.527  10.477  1.1234  0.6509 -0.0447
  621MOL0     C85610   4.536   4.586  10.406  0.0863  0.3820  0.1598
  621MOL0     N85611   3.841   5.038  10.403  0.2030 -0.3469 -0.8229
  621MOL0     N85612   3.748   5.059  10.483  0.1430 -0.7558  0.4325
  621MOL0     C85613   2.850   5.309  10.669  0.1708  1.1295 -0.3367
  621MOL0     C85614   2.863   5.445  10.658  0.9230  0.5286  0.0869
  621MOL0     C85615   3.085   5.832  10.497 -0.0960 -0.5906 -0.1479
  621MOL0     C85616   2.961   5.900  10.483  0.2513 -0.0143  0.2683
  621MOL0     C85617   2.955   6.024  10.435 -0.0143  0.1311  0.5958
  621MOL0     C85618   3.066   6.093  10.400  0.0732  0.8678  0.0247
  621MOL0     O85619   3.059   6.220  10.356  0.2696 -0.4809  0.1421
  621MOL0     C85620   2.937   6.264  10.302  0.9986 -0.3404 -0.0349
  621MOL0     C85621   2.961   6.366  10.195  0.5500  0.3603  0.1547
  621MOL0     C85622   2.827   6.395  10.119 -0.3036 -0.4316 -0.6889
  621MOL0     C85623   2.831   6.479   9.992 -0.6654  0.0884 -0.5321
  621MOL0     C85624   2.855   6.619  10.034 -0.1301  0.6591 -0.0730
  621MOL0     C85625   2.878   6.733  10.069  0.2827  0.1336  0.1509
  621MOL0     C85626   3.190   6.037  10.412  0.3481 -0.4296 -0.1673
  621MOL0     C85627   3.200   5.907  10.462  0.1518  0.2219  0.5155
  621MOL0     C85628   3.339   5.846  10.454 -0.0921  0.5606  0.2415
  621MOL0     H85629   3.079   5.466  10.398 -0.4249  0.3891  0.0508
  621MOL0     H85630   3.056   5.221  10.414 -1.6857 -2.3965  1.0086
  621MOL0     H85631   3.065   5.020  10.495 -0.1099  1.7906 -0.1063
  621MOL0     H85632   2.911   5.021  10.408 -1.2545 -1.5096  0.1783
  621MOL0     H85633   2.840   4.816  10.514  0.3706 -2.4588  0.3468
  621MOL0     H85634   3.005   4.793  10.465  2.2507  0.3391  1.9516
  621MOL0     H85635   2.921   4.871  10.758 -0.9068 -1.6846  0.7604
  621MOL0     H85636   2.985   4.720  10.703 -2.0631  0.9432  2.8904
  621MOL0     H85637   3.152   4.982  10.708 -2.5479  0.8096  1.0286
  621MOL0     H85638   3.139   4.853  10.827  0.8091  1.0441 -0.2347
  621MOL0     H85639   3.250   4.820  10.542  0.4428  1.5945 -0.0059
  621MOL0     H85640   3.232   4.692  10.652 -0.7135  0.3023 -2.2280
  621MOL0     H85641   3.383   4.954  10.715 -0.7950 -0.2120 -3.5280
  621MOL0     H85642   3.410   4.804  10.797  0.0090  0.1310  0.0901
  621MOL0     H85643   3.472   4.873  10.510  0.0956  1.6163  0.8369
  621MOL0     H85644   3.537   4.721  10.585 -0.8326 -0.2080 -1.7977
  621MOL0     H85645   3.590   4.995  10.704  1.5508  1.2174 -0.5988
  621MOL0     H85646   3.668   4.855  10.738  1.3220  2.5085  0.0829
  621MOL0     H85647   3.818   4.733  10.508  0.5539  1.1042  2.3523
  621MOL0     H85648   3.987   4.919  10.228  0.0904  1.5417  1.5780
  621MOL0     H85649   3.940   4.753  10.267 -1.3308  0.7351 -1.0436
  621MOL0     H85650   4.115   4.784  10.470  1.8323  0.7303 -0.2170
  621MOL0     H85651   4.168   4.738  10.310  0.5850 -0.4226 -0.5148
  621MOL0     H85652   4.212   4.976  10.253  0.8899 -2.1789 -0.5764
  621MOL0     H85653   4.165   5.020  10.418  2.5137  1.8270  0.9766
  621MOL0     H85654   4.423   4.988  10.330  1.6196 -1.5550  1.1342
  621MOL0     H85655   4.385   4.922  10.493  0.0029 -2.4461  0.6100
  621MOL0     H85656   4.609   4.907  10.455  0.3234  0.1011  1.7328
  621MOL0     H85657   4.859   4.850  10.659  0.5232 -0.2315  0.0696
  621MOL0     H85658   4.865   4.933  10.501 -1.2251  1.7168  2.8674
  621MOL0     H85659   4.957   4.785  10.523 -0.2789 -1.4992  0.3445
  621MOL0     H85660   5.139   4.408  10.550 -0.2335 -1.7024 -1.7607
  621MOL0     H85661   5.290   4.263  10.653 -1.1137 -1.2888 -1.9384
  621MOL0     H85662   5.407   4.122  10.760  1.1230 -3.3015  0.5400
  621MOL0     H85663   5.387   4.255  10.864 -1.8047 -0.0122 -1.0234
  621MOL0     H85664   5.419   4.100  11.065  1.9974 -0.2062  1.1224
  621MOL0     H85665   5.427   3.962  10.958 -2.3305  0.7733 -1.6754
  621MOL0     H85666   5.628   4.196  10.978  0.9642  0.4440 -0.2797
  621MOL0     H85667   5.631   4.061  10.856 -3.0799 -2.3304 -0.6973
  621MOL0     H85668   5.662   3.889  11.033  0.8432 -0.3316  1.7741
  621MOL0     H85669   5.634   4.017  11.155  0.1837 -0.8261 -0.5960
  621MOL0     H85670   5.868   4.021  10.961 -1.7785  1.2709 -0.9814
  621MOL0     H85671   5.841   4.122  11.103  2.1448 -0.0683 -0.2558
  621MOL0     H85672   5.871   3.824  11.147 -0.2573 -0.9328  1.9251
  621MOL0     H85673   5.828   3.935  11.266 -2.0874 -0.8450 -0.7329
  621MOL0     H85674   6.063   3.923  11.293 -1.3056  0.1341  1.0519
  621MOL0     H85675   6.036   4.076  11.201 -0.4670  0.3906  0.4797
  621MOL0     H85676   6.119   3.964  10.993  1.9323  0.9953  0.7269
  621MOL0     H85677   6.114   3.816  11.059 -0.5427  0.7881 -2.2268
  621MOL0     H85678   4.992   4.121  10.921  4.1342 -1.2858  0.6167
  621MOL0     H85679   4.818   4.257  10.795  0.0493 -0.0942  2.2421
  621MOL0     H85680   4.648   4.419  10.493 -0.6960  0.7249  1.0875
  621MOL0     H85681   4.457   4.523  10.367 -1.0828  1.1072  1.2836
  621MOL0     H85682   2.801   5.263  10.754 -3.5398  2.2332 -1.7067
  621MOL0     H85683   2.820   5.511  10.732 -1.1099 -0.2082 -0.3684
  621MOL0     H85684   2.863   5.858  10.502 -0.6829  1.5481 -0.9173
  621MOL0     H85685   2.851   6.056  10.437 -0.2415 -0.6116  1.5807
  621MOL0     H85686   2.882   6.180  10.257 -1.9858  0.0156  2.6080
  621MOL0     H85687   2.859   6.291  10.373  1.6121  1.6929 -0.0871
  621MOL0     H85688   3.018   6.319  10.115 -3.3780  2.0286 -4.0839
  621MOL0     H85689   2.998   6.459  10.239  0.0243  0.0774  1.2291
  621MOL0     H85690   2.780   6.302  10.085 -0.2740  0.0302 -2.0077
  621MOL0     H85691   2.759   6.448  10.188  0.8115  0.1991 -0.0457
  621MOL0     H85692   2.737   6.466   9.938 -3.2125  0.0122  3.4703
  621MOL0     H85693   2.917   6.444   9.934  0.6718  2.2658  0.0035
  621MOL0     H85694   2.909   6.832  10.096  2.0074 -0.6520  1.1957
  621MOL0     H85695   3.272   6.108  10.403  1.2495 -1.3463  0.4939
  621MOL0     H85696   3.336   5.745  10.413  1.5209  2.0616 -4.1479
  621MOL0     H85697   3.412   5.898  10.392  1.0519 -1.8790 -0.5769
  621MOL0     H85698   3.373   5.835  10.557  0.1036 -0.8566  0.0392
  622MOL0     O85699   7.237   9.022   6.275  0.6117  0.5615 -0.7116
  622MOL0     C85700   7.291   9.105   6.353  0.4129  0.3166 -0.9063
  622MOL0     O85701   7.425   9.099   6.389  0.4688 -0.5768  0.2679
  622MOL0     C85702   7.519   9.016   6.331  0.0310 -0.4446 -0.1515
  622MOL0     C85703   7.491   8.881   6.302 -0.0641  0.2083  0.7127
  622MOL0     C85704   7.592   8.801   6.250 -0.1416  0.5348 -0.1018
  622MOL0     C85705   7.718   8.847   6.213 -0.5753 -0.4309  0.4896
  622MOL0     O85706   7.823   8.772   6.158  0.5320 -0.0699 -0.2820
  622MOL0     C85707   7.799   8.634   6.149 -0.4234  0.0112 -0.2866
  622MOL0     C85708   7.938   8.569   6.125  0.4789  0.1637  0.5272
  622MOL0     C85709   7.982   8.520   6.266 -0.4577 -0.1826 -0.5579
  622MOL0     C85710   8.112   8.434   6.265 -0.7424  0.3307 -0.0062
  622MOL0     C85711   8.213   8.447   6.387  0.2893 -0.1979  0.0591
  622MOL0     C85712   8.329   8.345   6.377  0.0700  0.3912  0.5437
  622MOL0     C85713   8.436   8.399   6.277 -0.3987 -0.9836 -0.1753
  622MOL0     C85714   8.524   8.509   6.341 -0.1143 -0.1088 -0.7466
  622MOL0     N85715   8.666   8.488   6.312 -0.5023 -0.1267  0.0234
  622MOL0     C85716   8.768   8.533   6.394 -0.0087 -0.0305  0.3185
  622MOL0     C85717   8.878   8.526   6.316  1.1750  0.7552 -0.1086
  622MOL0     C85718   9.017   8.545   6.360 -0.3069 -0.0418  0.4232
  622MOL0     C85719   9.115   8.542   6.244  0.4759 -0.1942  0.6663
  622MOL0     C85720   9.258   8.549   6.296  0.6320  0.2964 -0.6384
  622MOL0     C85721   9.368   8.549   6.193  0.4208  0.1725  0.0349
  622MOL0     O85722   9.480   8.555   6.284 -0.1980  0.6091 -0.8752
  622MOL0     C85723   9.600   8.619   6.243 -0.7056 -0.3865  0.0021
  622MOL0     C85724   9.625   8.682   6.119 -0.1460 -0.1055  0.3863
  622MOL0     C85725   9.752   8.723   6.090  0.7245 -0.6003 -0.2026
  622MOL0     C85726   9.782   8.767   5.944 -0.1852 -0.0941 -0.5710
  622MOL0     C85727   9.853   8.729   6.193  0.2637  0.2170 -0.2284
  622MOL0     C85728   9.989   8.780   6.180 -0.7089  0.2438 -0.2560
  622MOL0     O85729  10.057   8.838   6.284 -1.0435 -0.1158 -0.1244
  622MOL0     C85730  10.169   8.913   6.264  0.4195 -0.4946  1.3386
  622MOL0     C85731  10.179   9.018   6.166  0.6835  0.0561  0.0952
  622MOL0     C85732  10.293   9.104   6.171 -0.5480  0.2962  0.6672
  622MOL0     C85733  10.399   9.087   6.269  0.7824 -0.3033  0.0735
  622MOL0     O85734  10.493   9.184   6.286 -0.8211  0.1876  0.0865
  622MOL0     C85735  10.510   9.233   6.424 -0.5888 -0.2449  0.7693
  622MOL0     C85736  10.575   9.370   6.416  0.5015  1.0187 -0.3532
  622MOL0     C85737  10.641   9.415   6.545  0.3389  0.8696 -0.2888
  622MOL0     C85738  10.551   9.500   6.639  0.5448  0.6274 -1.0075
  622MOL0     C85739  10.627   9.515   6.777  0.9943 -0.4451  0.3328
  622MOL0     C85740  10.757   9.597   6.787  0.0403  0.4187 -0.4851
  622MOL0     C85741  10.743   9.738   6.718 -0.5630  0.4468  0.0746
  622MOL0     C85742  10.650   9.840   6.780  0.1647  0.4704 -0.2846
  622MOL0    Cl85743  10.677   9.861   6.955 -0.4148 -0.0782  0.3457
  622MOL0     C85744  10.387   8.980   6.353  0.0547  0.3066  0.8406
  622MOL0     C85745  10.280   8.888   6.344  0.3227 -1.0939  0.4782
  622MOL0     O85746  10.034   8.780   6.066  0.5724 -0.1509 -0.2967
  622MOL0     C85747   9.823   8.681   6.320  0.0786  0.6565  0.0910
  622MOL0     C85748   9.705   8.613   6.335 -0.6202 -0.4744 -0.2097
  622MOL0     N85749   8.832   8.502   6.182 -0.0320 -0.2010 -0.8658
  622MOL0     N85750   8.705   8.487   6.178 -0.0499  0.2743 -0.1335
  622MOL0     C85751   7.748   8.982   6.243 -0.2349  0.2244 -0.1114
  622MOL0     C85752   7.647   9.064   6.292 -0.0898 -0.0490  0.4035
  622MOL0     C85753   7.208   9.225   6.397 -0.4760  0.7947 -0.5882
  622MOL0     C85754   7.284   9.323   6.474  0.3951 -0.9255  0.9314
  622MOL0     C85755   7.224   9.433   6.527 -0.4981 -0.3508 -0.3668
  622MOL0     C85756   7.096   9.464   6.490 -0.0367  0.4812  0.4209
  622MOL0     O85757   7.039   9.575   6.539  0.0673  0.6044  0.5783
  622MOL0     C85758   7.072   9.697   6.470  0.3000 -1.0765  1.2487
  622MOL0     C85759   6.962   9.727   6.364 -1.0321 -0.6158  0.0658
  622MOL0     C85760   6.823   9.697   6.415  0.0763  0.0220 -0.2748
  622MOL0     C85761   6.727   9.731   6.301  0.2880  0.0636  0.1046
  622MOL0     C85762   6.586   9.733   6.350  0.5116  0.3552 -0.6768
  622MOL0     C85763   6.462   9.746   6.375  0.7892  0.8977  0.3486
  622MOL0     C85764   7.016   9.366   6.425  0.1787 -0.3150 -0.0173
  622MOL0     C85765   7.067   9.244   6.390 -1.0630 -0.8553 -0.4190
  622MOL0     C85766   6.979   9.148   6.320 -0.2063  0.6336  0.1107
  622MOL0     H85767   7.388   8.846   6.305 -0.7423  1.9229 -0.7873
  622MOL0     H85768   7.567   8.696   6.233  3.7350 -0.8816  1.8046
  622MOL0     H85769   7.729   8.617   6.066  1.4165 -2.2679 -1.5294
  622MOL0     H85770   7.753   8.601   6.242 -1.0442  2.9831  0.5543
  622MOL0     H85771   7.931   8.483   6.058  0.4609  1.0472 -0.6359
  622MOL0     H85772   8.009   8.638   6.079  0.7956  1.0953  2.3542
  622MOL0     H85773   8.006   8.612   6.322  0.9757 -0.5262 -0.5765
  622MOL0     H85774   7.904   8.471   6.325 -0.7828  1.7246  0.6836
  622MOL0     H85775   8.084   8.332   6.240  2.0308 -0.4003 -0.4451
  622MOL0     H85776   8.177   8.471   6.185 -0.0315  0.7717  0.7564
  622MOL0     H85777   8.146   8.415   6.468  0.1668  1.2878  0.5768
  622MOL0     H85778   8.245   8.550   6.410 -0.4620  0.3589 -1.3060
  622MOL0     H85779   8.363   8.343   6.481 -0.0251  0.2123  0.5701
  622MOL0     H85780   8.292   8.245   6.353 -2.4935  0.2135  4.3247
  622MOL0     H85781   8.386   8.425   6.184 -0.4160 -1.3198 -0.2626
  622MOL0     H85782   8.500   8.313   6.253  1.0520  0.3869 -1.5139
  622MOL0     H85783   8.495   8.611   6.313 -1.5909 -0.5101 -0.7915
  622MOL0     H85784   8.516   8.506   6.450 -2.1901 -2.8507 -0.8538
  622MOL0     H85785   8.754   8.564   6.497 -0.5162 -0.8734  0.5071
  622MOL0     H85786   9.031   8.460   6.427  1.8786  0.3585  0.5655
  622MOL0     H85787   9.036   8.634   6.421  1.1667  0.2540 -0.4188
  622MOL0     H85788   9.106   8.457   6.175  1.4517 -0.7111  1.1501
  622MOL0     H85789   9.090   8.631   6.186  1.1054 -1.3705 -1.5440
  622MOL0     H85790   9.273   8.639   6.356 -2.6117  1.1430 -0.9126
  622MOL0     H85791   9.279   8.474   6.373 -2.3075  0.7579  0.7763
  622MOL0     H85792   9.361   8.462   6.127  0.6390 -1.6759  2.3154
  622MOL0     H85793   9.364   8.635   6.125 -0.0609 -0.9894 -1.4505
  622MOL0     H85794   9.554   8.680   6.037  2.1907  0.5449 -1.7662
  622MOL0     H85795   9.698   8.760   5.874 -0.9812 -0.0482  0.3666
  622MOL0     H85796   9.866   8.707   5.909  0.5392 -1.0016  2.4875
  622MOL0     H85797   9.805   8.874   5.948  0.0489 -0.1646 -0.0047
  622MOL0     H85798  10.103   9.035   6.091  1.0346  1.0229 -0.0663
  622MOL0     H85799  10.314   9.177   6.093  0.8886 -0.1505  0.6049
  622MOL0     H85800  10.414   9.249   6.475 -0.5329  0.8540  0.5574
  622MOL0     H85801  10.579   9.163   6.472 -0.6589  0.5107  2.0154
  622MOL0     H85802  10.652   9.364   6.339  1.1617 -1.1283  0.3981
  622MOL0     H85803  10.496   9.439   6.384 -1.1465  1.4666  3.9687
  622MOL0     H85804  10.725   9.472   6.504  1.0839 -1.1597 -1.7849
  622MOL0     H85805  10.666   9.321   6.595  0.2137  0.2899 -1.2838
  622MOL0     H85806  10.459   9.444   6.660  2.5501 -2.0648  1.3119
  622MOL0     H85807  10.518   9.596   6.597 -0.1514  1.1768  0.7138
  622MOL0     H85808  10.563   9.581   6.836 -0.4004 -2.3423  1.0081
  622MOL0     H85809  10.628   9.420   6.830 -3.0345 -0.2662  1.0328
  622MOL0     H85810  10.835   9.546   6.731  0.5365  2.7376 -2.0753
  622MOL0     H85811  10.787   9.607   6.891  0.8359 -0.7599 -0.5907
  622MOL0     H85812  10.718   9.717   6.613  0.4926  2.1986 -0.5737
  622MOL0     H85813  10.839   9.790   6.725 -0.0035 -0.8076  3.6049
  622MOL0     H85814  10.547   9.815   6.756 -1.1739  1.0080  4.1330
  622MOL0     H85815  10.674   9.941   6.743 -2.6063  1.1815 -0.3153
  622MOL0     H85816  10.471   8.964   6.420  0.6287 -2.8134 -0.4418
  622MOL0     H85817  10.286   8.811   6.420  0.6745  0.3159  1.9510
  622MOL0     H85818   9.888   8.684   6.407 -2.1490 -1.2145  1.9447
  622MOL0     H85819   9.689   8.570   6.433  0.3196  0.3546  0.3252
  622MOL0     H85820   7.844   9.032   6.232 -2.2041  4.5636  0.2025
  622MOL0     H85821   7.662   9.171   6.300  1.8150 -0.4241  3.3550
  622MOL0     H85822   7.388   9.317   6.505  0.6591  2.6315  1.1361
  622MOL0     H85823   7.273   9.494   6.602 -2.7573  0.8330  0.2347
  622MOL0     H85824   7.070   9.782   6.539  0.3839 -2.2966  2.8073
  622MOL0     H85825   7.170   9.690   6.421 -0.2249 -0.2263  0.0242
  622MOL0     H85826   6.987   9.666   6.278 -0.4884  1.1427 -1.0834
  622MOL0     H85827   6.970   9.832   6.335 -2.6589 -0.4533  0.0637
  622MOL0     H85828   6.824   9.587   6.418 -0.6249  0.0358  0.5256
  622MOL0     H85829   6.797   9.742   6.511  2.8481  2.6865 -0.6110
  622MOL0     H85830   6.743   9.660   6.219 -1.2581 -0.9417  0.6379
  622MOL0     H85831   6.757   9.830   6.267 -0.9691  0.8634  1.2488
  622MOL0     H85832   6.358   9.745   6.400  1.0312  1.0267  1.4259
  622MOL0     H85833   6.914   9.387   6.396  0.6087  0.3449 -1.1557
  622MOL0     H85834   7.022   9.132   6.221 -0.4814  1.6887 -0.1908
  622MOL0     H85835   6.976   9.050   6.368 -1.4520  0.1347 -0.9310
  622MOL0     H85836   6.875   9.183   6.315 -0.7152 -0.8333  0.0972
  623MOL0     O85837   3.476   8.738   7.192  0.0557  0.1129  0.0926
  623MOL0     C85838   3.481   8.663   7.291 -0.5749  0.5910  0.1445
  623MOL0     O85839   3.508   8.530   7.284 -0.4561  0.2629  0.3472
  623MOL0     C85840   3.539   8.459   7.170 -0.8269  1.1924  0.8585
  623MOL0     C85841   3.637   8.502   7.074 -1.2928 -0.6898  0.7277
  623MOL0     C85842   3.660   8.419   6.965  0.2870 -0.9013  0.4729
  623MOL0     C85843   3.594   8.296   6.941 -0.0326 -0.5175 -0.3482
  623MOL0     O85844   3.615   8.228   6.827 -0.1328 -0.1807  0.4538
  623MOL0     C85845   3.753   8.210   6.780  0.8781  0.7406 -0.8616
  623MOL0     C85846   3.751   8.083   6.696 -0.2209 -0.4259  0.6408
  623MOL0     C85847   3.890   8.011   6.658 -0.3160  0.0191 -0.3904
  623MOL0     C85848   3.885   7.942   6.524  0.1008  0.2774  0.2637
  623MOL0     C85849   4.011   7.859   6.520 -0.4912  0.2359  0.8190
  623MOL0     C85850   4.022   7.806   6.373 -0.0499 -0.0770  0.0732
  623MOL0     C85851   4.111   7.688   6.366 -0.3077 -0.1061 -0.8145
  623MOL0     C85852   4.134   7.647   6.217  0.0173 -0.6075  0.0126
  623MOL0     N85853   4.239   7.547   6.206  0.6469 -1.0579  0.0642
  623MOL0     C85854   4.348   7.544   6.285  0.5119  0.2607  0.2923
  623MOL0     C85855   4.420   7.445   6.234 -0.1152  0.3543  0.2054
  623MOL0     C85856   4.542   7.397   6.311 -0.5460  0.0148  0.3427
  623MOL0     C85857   4.658   7.497   6.279  0.1915 -0.5486 -0.0858
  623MOL0     C85858   4.794   7.455   6.340  0.2167  0.4270 -0.7136
  623MOL0     C85859   4.913   7.502   6.255 -0.9180 -0.4488 -0.4620
  623MOL0     O85860   5.031   7.430   6.304  0.0943 -0.2589 -1.2208
  623MOL0     C85861   5.131   7.380   6.228  0.5367 -0.2530 -0.2240
  623MOL0     C85862   5.151   7.420   6.100  0.3929 -0.3206  0.6267
  623MOL0     C85863   5.249   7.357   6.015  0.6175 -1.0204 -0.5296
  623MOL0     C85864   5.264   7.397   5.874  0.1798  0.3271 -0.3218
  623MOL0     C85865   5.336   7.259   6.071 -0.1035  0.5578 -0.4544
  623MOL0     C85866   5.466   7.197   6.006 -0.0860  1.0472 -1.2476
  623MOL0     O85867   5.522   7.085   6.063 -0.1630 -0.1100  0.4388
  623MOL0     C85868   5.648   7.042   6.030 -0.5343  1.4288  0.2930
  623MOL0     C85869   5.668   6.905   6.004  0.3926  0.2834 -0.3728
  623MOL0     C85870   5.800   6.859   5.975  0.0534  0.1645  0.3468
  623MOL0     C85871   5.913   6.943   5.977 -0.7829  0.2373 -0.8445
  623MOL0     O85872   6.035   6.887   5.950 -0.2903  0.1342  0.0539
  623MOL0     C85873   6.150   6.972   5.943  0.5627 -0.8135  0.4010
  623MOL0     C85874   6.270   6.886   5.968 -0.1780  0.6505  0.0547
  623MOL0     C85875   6.276   6.849   6.109  0.1630 -0.0253  0.2566
  623MOL0     C85876   6.403   6.764   6.132 -0.2192  0.1805  0.4376
  623MOL0     C85877   6.407   6.722   6.275  0.3875  0.1726 -0.2136
  623MOL0     C85878   6.522   6.622   6.284  0.4969 -0.8638  0.5040
  623MOL0     C85879   6.562   6.597   6.434 -1.1610 -0.2121 -0.1106
  623MOL0     C85880   6.686   6.502   6.445 -0.6986 -0.2454  0.5341
  623MOL0    Cl85881   6.737   6.484   6.616  0.1006  0.0003  0.6985
  623MOL0     C85882   5.892   7.072   6.006  0.3110 -0.0968 -0.1905
  623MOL0     C85883   5.763   7.127   6.036 -0.0416 -0.1186  0.1811
  623MOL0     O85884   5.509   7.250   5.908 -0.4963 -0.5285  0.1743
  623MOL0     C85885   5.309   7.221   6.209 -0.1557 -0.8322  0.5180
  623MOL0     C85886   5.206   7.280   6.284  0.7001 -0.4739 -0.2466
  623MOL0     N85887   4.344   7.380   6.132 -0.3106 -0.3284  0.5421
  623MOL0     N85888   4.235   7.446   6.115  0.2054  0.5256 -0.6781
  623MOL0     C85889   3.497   8.257   7.029  0.5220  0.2248  0.0586
  623MOL0     C85890   3.475   8.330   7.149  0.3046 -0.5065  0.1759
  623MOL0     C85891   3.470   8.722   7.430  0.0164  0.2764  0.2829
  623MOL0     C85892   3.516   8.642   7.539 -0.1700 -0.1821  0.6590
  623MOL0     C85893   3.514   8.687   7.667 -0.3707  0.4541  0.6196
  623MOL0     C85894   3.465   8.814   7.703  0.1377  0.4435 -0.7990
  623MOL0     O85895   3.460   8.850   7.842 -0.3836  0.2025  0.7192
  623MOL0     C85896   3.444   8.992   7.886 -0.6780  0.1669 -0.5782
  623MOL0     C85897   3.577   9.068   7.853  0.3307 -0.5470 -0.1325
  623MOL0     C85898   3.687   9.010   7.946 -0.0545 -1.0474  1.0339
  623MOL0     C85899   3.803   9.116   7.965  0.2605 -0.2383  1.1835
  623MOL0     C85900   3.921   9.059   8.017 -0.7690 -0.4249  0.0426
  623MOL0     C85901   4.036   9.032   8.055  0.9866 -0.2160 -0.4847
  623MOL0     C85902   3.407   8.891   7.603 -0.0984 -0.7259  0.4741
  623MOL0     C85903   3.416   8.849   7.465  0.5849  0.2614  0.2342
  623MOL0     C85904   3.335   8.922   7.366  0.5469 -0.3848  0.0871
  623MOL0     H85905   3.684   8.600   7.080  1.8640 -1.9950 -0.2565
  623MOL0     H85906   3.722   8.445   6.880  1.9092 -0.4604  1.7381
  623MOL0     H85907   3.815   8.196   6.869 -2.2705  1.0039  1.5329
  623MOL0     H85908   3.802   8.296   6.734  1.9925  0.5740 -0.0284
  623MOL0     H85909   3.696   8.004   6.747 -2.7107  0.4683 -0.4826
  623MOL0     H85910   3.707   8.102   6.597  2.7676 -0.0199 -0.7360
  623MOL0     H85911   3.974   8.082   6.653  1.1158 -1.6822 -1.5823
  623MOL0     H85912   3.914   7.943   6.740  1.2356 -0.6112 -1.3334
  623MOL0     H85913   3.793   7.884   6.517  0.6086 -0.4036 -1.1724
  623MOL0     H85914   3.894   8.019   6.446  0.2957  1.1254  1.1112
  623MOL0     H85915   3.997   7.765   6.575 -3.6681 -1.7165 -2.8427
  623MOL0     H85916   4.095   7.921   6.552 -1.4472  0.6942  2.5432
  623MOL0     H85917   3.926   7.766   6.341 -0.1511 -4.6116  4.7470
  623MOL0     H85918   4.062   7.888   6.312  0.0999  0.7400  1.2302
  623MOL0     H85919   4.076   7.600   6.421  2.0211 -1.4574 -1.3977
  623MOL0     H85920   4.201   7.731   6.412 -1.7785  0.9706  1.2533
  623MOL0     H85921   4.044   7.614   6.164 -0.7929  3.2199 -1.3232
  623MOL0     H85922   4.171   7.735   6.163 -1.7889 -0.6363 -1.3803
  623MOL0     H85923   4.383   7.621   6.353 -0.0685  0.9753 -0.1987
  623MOL0     H85924   4.577   7.299   6.277 -1.7467 -0.8552  1.5346
  623MOL0     H85925   4.535   7.392   6.420  4.6193  0.0251  0.9266
  623MOL0     H85926   4.661   7.504   6.170 -1.8899  1.4241 -0.0867
  623MOL0     H85927   4.634   7.594   6.323  1.2088 -0.6149  0.6318
  623MOL0     H85928   4.811   7.505   6.436 -0.5124  2.0899 -1.4040
  623MOL0     H85929   4.809   7.348   6.353  0.4823  0.4159 -1.1144
  623MOL0     H85930   4.897   7.474   6.151 -0.7441 -0.3434 -0.5182
  623MOL0     H85931   4.932   7.610   6.256  1.9496 -0.8314  2.5976
  623MOL0     H85932   5.106   7.515   6.072  2.2456  0.2003 -0.7727
  623MOL0     H85933   5.293   7.315   5.808  0.4276 -0.8285  1.1593
  623MOL0     H85934   5.334   7.481   5.870  0.7055 -0.1390 -1.4579
  623MOL0     H85935   5.169   7.428   5.831  0.1302 -1.0756 -1.2947
  623MOL0     H85936   5.579   6.843   6.010  0.9074 -0.4414  0.1425
  623MOL0     H85937   5.824   6.756   5.949 -0.0031  0.5600 -1.3744
  623MOL0     H85938   6.154   7.015   5.843 -1.4784  1.1455  1.0618
  623MOL0     H85939   6.150   7.050   6.020 -2.2759  0.1498 -0.4374
  623MOL0     H85940   6.274   6.796   5.907 -0.3219  0.3365  0.5002
  623MOL0     H85941   6.359   6.947   5.950 -0.0957  0.1264 -1.4651
  623MOL0     H85942   6.187   6.790   6.136 -1.7297  2.3423 -0.5046
  623MOL0     H85943   6.284   6.941   6.168  2.5434  0.7922 -1.2230
  623MOL0     H85944   6.493   6.812   6.093 -1.0111  0.0334 -1.6924
  623MOL0     H85945   6.395   6.671   6.075  0.7305  0.6404 -0.4804
  623MOL0     H85946   6.411   6.806   6.344 -2.1605  0.4052 -0.2556
  623MOL0     H85947   6.310   6.685   6.309  0.9209  0.2324  1.4863
  623MOL0     H85948   6.606   6.664   6.227 -1.5602 -1.7889 -3.5919
  623MOL0     H85949   6.507   6.525   6.234  3.3835 -0.9093 -0.5093
  623MOL0     H85950   6.482   6.560   6.499  0.6445  3.5538  4.9074
  623MOL0     H85951   6.593   6.688   6.487 -0.5340 -0.0356 -0.7623
  623MOL0     H85952   6.768   6.544   6.386 -1.3609  2.2579  1.2704
  623MOL0     H85953   6.657   6.403   6.408  0.7707  0.0477 -1.6419
  623MOL0     H85954   5.982   7.132   6.009  2.3650 -2.6276 -3.5454
  623MOL0     H85955   5.761   7.235   6.046 -1.0311 -0.0584 -0.4788
  623MOL0     H85956   5.370   7.144   6.255  0.1468  1.2613  3.9947
  623MOL0     H85957   5.186   7.257   6.388 -0.9518 -1.5818 -0.7687
  623MOL0     H85958   3.438   8.168   7.013 -0.0597  0.6007  0.0894
  623MOL0     H85959   3.402   8.297   7.222 -1.1585 -0.9553 -1.4108
  623MOL0     H85960   3.548   8.541   7.519 -1.6791 -0.3542 -1.1516
  623MOL0     H85961   3.553   8.621   7.745  0.9722 -0.6708 -0.9361
  623MOL0     H85962   3.369   9.043   7.825 -0.6447 -1.5929 -2.1804
  623MOL0     H85963   3.414   9.006   7.990  0.5718  3.9448 -0.5671
  623MOL0     H85964   3.547   9.171   7.874  0.0840 -0.7400  0.4840
  623MOL0     H85965   3.600   9.050   7.748 -3.7951 -0.1885 -1.2915
  623MOL0     H85966   3.646   8.992   8.046  1.8571  0.1609  2.1028
  623MOL0     H85967   3.719   8.916   7.900  3.3630  0.4504  0.0130
  623MOL0     H85968   3.761   9.189   8.034 -0.4585  0.5020 -0.0120
  623MOL0     H85969   3.822   9.155   7.864 -2.3977 -2.3884 -0.3050
  623MOL0     H85970   4.136   9.030   8.095  0.3931  0.7051  1.1439
  623MOL0     H85971   3.366   8.989   7.626  2.4235  0.8335 -1.2096
  623MOL0     H85972   3.250   8.863   7.330 -0.0251  0.6283 -0.2511
  623MOL0     H85973   3.286   9.011   7.405 -2.5226 -2.3147  0.9583
  623MOL0     H85974   3.399   8.954   7.283 -1.8901  1.0403 -1.3221
  624MOL0     O85975   9.878   4.474   9.594  0.2463 -0.0759 -0.1617
  624MOL0     C85976   9.823   4.571   9.538 -0.3933  0.5809 -0.1742
  624MOL0     O85977   9.868   4.699   9.537  0.1738 -0.6378 -0.1074
  624MOL0     C85978   9.979   4.730   9.611 -0.9410 -0.2796  0.5394
  624MOL0     C85979   9.970   4.750   9.747 -0.4569  0.4116  0.6123
  624MOL0     C85980  10.075   4.792   9.820 -0.0570 -0.3326  0.1571
  624MOL0     C85981  10.196   4.836   9.762 -0.2557  0.0709  0.9409
  624MOL0     O85982  10.301   4.900   9.826 -0.2705  0.0257  0.4804
  624MOL0     C85983  10.274   4.936   9.957  0.7465 -0.1602  0.7453
  624MOL0     C85984  10.397   4.996  10.024  0.5904  0.8235  0.6757
  624MOL0     C85985  10.526   4.905  10.017  0.9490  0.3351  0.5553
  624MOL0     C85986  10.631   4.976  10.112 -0.7023  0.2905 -0.3530
  624MOL0     C85987  10.763   4.895  10.122  1.2744 -0.0410 -0.2124
  624MOL0     C85988  10.867   4.993  10.187 -0.0221  0.1317  0.3326
  624MOL0     C85989  11.002   4.908  10.193  0.9904  0.7632 -0.7632
  624MOL0     C85990  11.113   5.002  10.242  0.3575 -0.3091 -0.2452
  624MOL0     N85991  11.246   4.947  10.268  0.8289  0.0371 -0.0805
  624MOL0     C85992  11.279   4.877  10.381  0.2689  0.1153  0.7873
  624MOL0     C85993  11.399   4.819  10.346 -0.4769 -0.1142 -0.8990
  624MOL0     C85994  11.477   4.732  10.434  0.0248  0.1515 -0.1398
  624MOL0     C85995  11.609   4.799  10.476 -0.3939  1.0151 -0.0144
  624MOL0     C85996  11.591   4.908  10.584 -0.0661  0.4703 -0.2834
  624MOL0     C85997  11.720   4.943  10.659  0.2053 -0.0420  0.1702
  624MOL0     O85998  11.817   4.997  10.569  0.1662  0.7684  0.2080
  624MOL0     C85999  11.944   5.027  10.622  0.1780  0.6748  0.4107
  624MOL0     C86000  12.000   4.983  10.747 -0.1632 -0.3558  0.0900
  624MOL0     C86001  12.134   5.011  10.777 -0.0617  0.9302  0.5225
  624MOL0     C86002  12.176   4.952  10.906 -0.0025  0.4133  0.6879
  624MOL0     C86003  12.214   5.078  10.684 -0.3640 -0.0087 -0.0338
  624MOL0     C86004  12.362   5.120  10.693 -1.1594 -0.6436 -0.0655
  624MOL0     O86005  12.410   5.216  10.598  0.3000  0.0163  0.3508
  624MOL0     C86006  12.537   5.262  10.610  0.3002 -0.0665 -0.5751
  624MOL0     C86007  12.556   5.397  10.620 -0.9716 -0.0906  0.1292
  624MOL0     C86008  12.686   5.457  10.605  0.3273  0.2875  0.4793
  624MOL0     C86009  12.802   5.372  10.574 -0.0526 -0.7806 -0.3177
  624MOL0     O86010  12.917   5.432  10.535 -0.4396 -0.4106  0.2158
  624MOL0     C86011  13.028   5.354  10.485 -0.1647 -0.5803 -0.1027
  624MOL0     C86012  13.167   5.424  10.454  1.5738  0.6790 -0.7752
  624MOL0     C86013  13.268   5.336  10.373 -0.2080 -0.4277  0.3757
  624MOL0     C86014  13.409   5.395  10.396 -0.9273  0.2711 -0.1145
  624MOL0     C86015  13.518   5.314  10.329 -0.4439 -0.0075  0.0432
  624MOL0     C86016  13.651   5.366  10.352 -0.1113 -0.1922  0.0550
  624MOL0     C86017  13.765   5.287  10.297  0.4246  0.6176 -0.3079
  624MOL0     C86018  13.904   5.335  10.329  0.3545  0.5224  0.2789
  624MOL0    Cl86019  14.030   5.227  10.269 -0.1344  0.3550 -0.0284
  624MOL0     C86020  12.774   5.236  10.573  0.1426  0.9070 -0.5193
  624MOL0     C86021  12.647   5.182  10.585  0.5141  1.0737 -0.6532
  624MOL0     O86022  12.433   5.076  10.783 -0.3034 -0.7693  0.1857
  624MOL0     C86023  12.158   5.122  10.563 -0.1012 -0.7411 -0.6497
  624MOL0     C86024  12.023   5.099  10.534 -0.7034 -0.2056  0.4637
  624MOL0     N86025  11.435   4.855  10.218  0.3625 -0.1276 -0.3460
  624MOL0     N86026  11.339   4.918  10.168 -0.2764 -1.3759  0.5588
  624MOL0     C86027  10.206   4.818   9.629  0.1704  1.0405  0.3147
  624MOL0     C86028  10.101   4.763   9.551 -0.0039 -0.1375  0.2614
  624MOL0     C86029   9.709   4.529   9.455  0.6128 -0.3082 -0.9210
  624MOL0     C86030   9.647   4.402   9.498  0.9049  0.2722  0.7108
  624MOL0     C86031   9.553   4.340   9.415  0.1359 -0.5532 -0.1486
  624MOL0     C86032   9.501   4.401   9.294 -0.1847 -0.6332  0.2605
  624MOL0     O86033   9.433   4.345   9.191 -1.0235 -0.0459  0.2757
  624MOL0     C86034   9.403   4.206   9.197 -0.1882  0.4994 -0.0077
  624MOL0     C86035   9.349   4.160   9.064 -0.0157 -0.0401  0.2623
  624MOL0     C86036   9.205   4.202   9.050 -0.2028  0.6186  0.0423
  624MOL0     C86037   9.150   4.157   8.911  0.0967  0.4222  0.5517
  624MOL0     C86038   9.171   4.014   8.884  0.5747 -0.0992 -0.1971
  624MOL0     C86039   9.196   3.898   8.860  0.1901  0.0145  0.9019
  624MOL0     C86040   9.555   4.527   9.265 -0.6953 -0.4567  0.3375
  624MOL0     C86041   9.649   4.593   9.344  0.8519  0.2474  0.6232
  624MOL0     C86042   9.699   4.726   9.298 -0.2676  0.5268  0.2754
  624MOL0     H86043   9.871   4.726   9.784 -1.3445  0.4066 -1.6125
  624MOL0     H86044  10.057   4.811   9.925  3.1388 -0.5109  0.8324
  624MOL0     H86045  10.249   4.849  10.020  0.5598 -1.1881 -0.6961
  624MOL0     H86046  10.191   5.007   9.964  1.4555  0.5795  1.9885
  624MOL0     H86047  10.420   5.085   9.965  0.5802  0.5994  0.3341
  624MOL0     H86048  10.381   5.023  10.129  0.8333  2.0436  0.4061
  624MOL0     H86049  10.506   4.803  10.049 -3.0209 -0.2098 -2.8819
  624MOL0     H86050  10.567   4.900   9.916 -0.1185  0.4591  0.1106
  624MOL0     H86051  10.651   5.076  10.072  0.0303  0.2513 -0.1104
  624MOL0     H86052  10.590   4.986  10.212 -1.1758 -0.5075 -0.4649
  624MOL0     H86053  10.793   4.871  10.019 -0.4817 -0.8831 -0.5575
  624MOL0     H86054  10.750   4.806  10.184  2.9003 -1.2845 -1.5521
  624MOL0     H86055  10.879   5.082  10.125 -3.7583  0.4621 -0.0992
  624MOL0     H86056  10.819   5.017  10.282 -0.9664 -1.3056  0.2455
  624MOL0     H86057  11.021   4.883  10.088 -1.5307 -3.1653 -0.4678
  624MOL0     H86058  10.986   4.820  10.255 -1.0315  1.2088 -0.5817
  624MOL0     H86059  11.122   5.078  10.164  0.5874 -0.7256 -0.6339
  624MOL0     H86060  11.085   5.047  10.338  0.9336 -2.4114  0.9789
  624MOL0     H86061  11.228   4.883  10.477 -0.0689  0.4018  0.5945
  624MOL0     H86062  11.497   4.643  10.374  3.1715  0.6307  0.0246
  624MOL0     H86063  11.424   4.706  10.526 -1.1057  0.4165 -0.6944
  624MOL0     H86064  11.649   4.712  10.529 -0.9349 -0.8162 -2.4487
  624MOL0     H86065  11.667   4.832  10.390  0.1061 -2.1418 -1.0163
  624MOL0     H86066  11.541   4.996  10.543  0.6850 -0.8719 -4.5547
  624MOL0     H86067  11.520   4.873  10.659 -0.4266 -1.1982 -1.3419
  624MOL0     H86068  11.681   5.024  10.721 -2.8005 -1.1329 -0.1379
  624MOL0     H86069  11.753   4.859  10.721 -0.7587 -1.0828 -0.6934
  624MOL0     H86070  11.924   4.925  10.799 -1.7302  2.7633  1.5072
  624MOL0     H86071  12.273   4.908  10.881  0.7961  2.6129 -0.3111
  624MOL0     H86072  12.104   4.876  10.940  1.4551 -0.9737  0.7808
  624MOL0     H86073  12.197   5.030  10.979  0.7427  0.3652  0.5286
  624MOL0     H86074  12.473   5.465  10.634 -2.0893 -1.2294 -0.6963
  624MOL0     H86075  12.707   5.562  10.618  2.2893  0.0927 -0.7867
  624MOL0     H86076  13.049   5.284  10.567 -0.9671 -2.4053 -1.3778
  624MOL0     H86077  12.993   5.299  10.397  0.0086 -2.5575  1.0051
  624MOL0     H86078  13.147   5.521  10.407  0.2123  2.3203  2.7722
  624MOL0     H86079  13.208   5.455  10.551 -0.3004 -0.0852  0.3194
  624MOL0     H86080  13.249   5.348  10.266 -2.7937 -0.1164  0.7884
  624MOL0     H86081  13.249   5.233  10.406  0.8797 -0.4001  1.1460
  624MOL0     H86082  13.424   5.387  10.504 -0.5509 -2.4161 -0.2872
  624MOL0     H86083  13.416   5.499  10.362 -1.8800  0.8804  1.4897
  624MOL0     H86084  13.524   5.208  10.355  3.4812 -0.1931 -0.9918
  624MOL0     H86085  13.485   5.321  10.225 -1.9194 -0.9964  0.4294
  624MOL0     H86086  13.674   5.367  10.459  0.8827 -1.7566 -0.1005
  624MOL0     H86087  13.646   5.469  10.315 -0.6678 -0.8024 -1.6418
  624MOL0     H86088  13.747   5.276  10.189 -1.1286 -1.8001  0.1204
  624MOL0     H86089  13.761   5.182  10.327  2.4474  0.6215  0.0671
  624MOL0     H86090  13.914   5.355  10.436  1.0984  0.2316  0.2684
  624MOL0     H86091  13.918   5.434  10.286 -2.1574  0.0637 -1.8008
  624MOL0     H86092  12.846   5.156  10.563  0.0428  0.5562  1.2087
  624MOL0     H86093  12.638   5.074  10.574  0.3619  0.6809  2.5299
  624MOL0     H86094  12.209   5.174  10.483 -1.0238  1.6482  0.2196
  624MOL0     H86095  11.981   5.128  10.438 -0.9457  0.6509  0.8213
  624MOL0     H86096  10.307   4.830   9.591  0.9989 -1.5129  1.4241
  624MOL0     H86097  10.122   4.745   9.446  0.5974  1.4352  0.0769
  624MOL0     H86098   9.663   4.356   9.595 -2.3300 -2.2094  0.2505
  624MOL0     H86099   9.515   4.244   9.449  0.3774 -0.5559  0.1208
  624MOL0     H86100   9.492   4.149   9.226 -0.0833  1.1419  0.9885
  624MOL0     H86101   9.334   4.178   9.276 -1.0285  2.4370 -0.0137
  624MOL0     H86102   9.351   4.050   9.066  4.8491 -0.1437  1.0530
  624MOL0     H86103   9.414   4.201   8.986  1.1558 -1.0083  0.6977
  624MOL0     H86104   9.145   4.159   9.131  2.9998 -1.8156  1.3098
  624MOL0     H86105   9.197   4.311   9.050 -3.2064  0.5131 -1.2735
  624MOL0     H86106   9.207   4.219   8.841  1.0512  0.6058  1.4597
  624MOL0     H86107   9.045   4.190   8.908 -0.0684 -0.0732  0.7292
  624MOL0     H86108   9.228   3.797   8.840 -1.9513 -0.0191 -3.7195
  624MOL0     H86109   9.516   4.575   9.176 -0.1747 -2.3463 -0.9858
  624MOL0     H86110   9.662   4.757   9.200 -2.8767  1.3953  1.4474
  624MOL0     H86111   9.675   4.804   9.370 -0.6631 -0.7219  1.5390
  624MOL0     H86112   9.808   4.727   9.291 -0.3729  0.8809 -3.1652
  625MOL0     O86113   8.830   8.545   8.935 -0.0341  0.0106 -0.7639
  625MOL0     C86114   8.780   8.441   8.893 -1.0811  0.3911  0.2878
  625MOL0     O86115   8.851   8.335   8.823  0.0093  0.0262 -0.6434
  625MOL0     C86116   8.987   8.348   8.808 -0.8917 -0.0487  0.3065
  625MOL0     C86117   9.054   8.448   8.738 -0.5211 -0.0238  0.3734
  625MOL0     C86118   9.189   8.450   8.731  0.1551  0.1010  0.6235
  625MOL0     C86119   9.267   8.348   8.787  0.2277  0.5189 -0.7645
  625MOL0     O86120   9.405   8.353   8.798  0.2920  0.3706 -0.2094
  625MOL0     C86121   9.456   8.464   8.867  0.2767 -0.1066  0.1026
  625MOL0     C86122   9.595   8.453   8.930  0.6256 -0.3029  0.3356
  625MOL0     C86123   9.649   8.583   8.990  0.4219 -0.2719  0.2273
  625MOL0     C86124   9.792   8.565   9.048  0.2552  0.0390 -0.4773
  625MOL0     C86125   9.839   8.701   9.112  0.0786 -0.5002 -0.3744
  625MOL0     C86126   9.990   8.708   9.105  1.7749 -0.1237  0.3826
  625MOL0     C86127  10.056   8.623   9.207  0.2097  0.0865 -0.2286
  625MOL0     C86128  10.209   8.651   9.222  0.0758  0.3798 -0.0748
  625MOL0     N86129  10.239   8.617   9.368 -0.1154  0.5163  0.7920
  625MOL0     C86130  10.315   8.514   9.408 -0.0380 -0.5217 -0.2125
  625MOL0     C86131  10.317   8.510   9.543 -0.8351 -0.9455  0.7146
  625MOL0     C86132  10.392   8.406   9.620  0.3614 -0.1025 -0.1321
  625MOL0     C86133  10.541   8.414   9.621  0.0737  0.0870  0.6219
  625MOL0     C86134  10.593   8.550   9.660  0.6411  0.7930  0.1409
  625MOL0     C86135  10.733   8.587   9.615  0.2689  0.3622 -0.1515
  625MOL0     O86136  10.831   8.495   9.663  0.1440 -0.4276 -0.0132
  625MOL0     C86137  10.966   8.533   9.663  1.0532  0.6726 -0.1207
  625MOL0     C86138  11.055   8.439   9.718  0.2632 -0.1322 -0.0252
  625MOL0     C86139  11.191   8.464   9.726 -0.7536 -0.1380  0.3470
  625MOL0     C86140  11.276   8.354   9.790  0.7015 -0.0242 -1.0158
  625MOL0     C86141  11.239   8.585   9.678 -0.2362  0.3249  0.0325
  625MOL0     C86142  11.390   8.614   9.677 -0.1280  0.4328  0.3647
  625MOL0     O86143  11.482   8.523   9.681  0.3927 -0.7480 -0.1722
  625MOL0     C86144  11.617   8.549   9.663  0.1858 -0.1313 -0.3672
  625MOL0     C86145  11.674   8.663   9.597 -0.2811 -0.2671  0.1618
  625MOL0     C86146  11.811   8.683   9.581  0.1291  0.5017  0.5161
  625MOL0     C86147  11.896   8.581   9.611  0.0695 -0.1806 -0.2491
  625MOL0     O86148  12.029   8.613   9.602  0.0238  0.0429  0.1649
  625MOL0     C86149  12.115   8.499   9.607  0.0161 -0.1128  0.5805
  625MOL0     C86150  12.187   8.512   9.740 -0.1975  0.0118  0.1665
  625MOL0     C86151  12.295   8.622   9.737  0.1348  0.0630 -0.5356
  625MOL0     C86152  12.419   8.579   9.652 -0.8687  0.3461 -0.8388
  625MOL0     C86153  12.489   8.701   9.599  0.5893  0.2636  0.4372
  625MOL0     C86154  12.543   8.775   9.722  0.3954 -0.1044  0.1979
  625MOL0     C86155  12.595   8.909   9.679 -0.4890  0.1523  1.0030
  625MOL0     C86156  12.725   8.951   9.751 -0.7552 -0.8004  0.6483
  625MOL0    Cl86157  12.793   9.088   9.664 -0.0254 -0.1561  0.4942
  625MOL0     C86158  11.845   8.468   9.685 -0.6436  0.6252  0.6084
  625MOL0     C86159  11.707   8.449   9.715 -0.1265 -0.1905 -0.8085
  625MOL0     O86160  11.412   8.733   9.670  0.4295 -0.9557 -0.1812
  625MOL0     C86161  11.145   8.676   9.618 -0.0451 -0.3065 -0.5518
  625MOL0     C86162  11.014   8.651   9.615  0.4781 -0.9374 -0.8357
  625MOL0     N86163  10.245   8.621   9.592 -0.0322 -0.4924  0.4401
  625MOL0     N86164  10.206   8.680   9.480  1.4685 -0.1709  0.9156
  625MOL0     C86165   9.209   8.237   8.848 -0.0773  0.0975 -0.4164
  625MOL0     C86166   9.069   8.240   8.856 -0.1008  0.4067  0.8493
  625MOL0     C86167   8.636   8.419   8.919  0.2882  0.1344  0.3481
  625MOL0     C86168   8.548   8.524   8.925 -0.1787  0.5714  0.4888
  625MOL0     C86169   8.409   8.499   8.925  0.6061  0.3016  0.1381
  625MOL0     C86170   8.349   8.376   8.950  0.0079 -1.1739 -0.2336
  625MOL0     O86171   8.216   8.359   8.973 -0.0579  0.3922 -0.0681
  625MOL0     C86172   8.148   8.471   9.023 -0.0733  0.5342 -0.2027
  625MOL0     C86173   8.024   8.415   9.096  0.9688 -0.4897 -0.6835
  625MOL0     C86174   7.958   8.525   9.177  0.1843 -0.8478 -1.1289
  625MOL0     C86175   7.869   8.626   9.098 -0.9140  0.3501 -0.4474
  625MOL0     C86176   7.956   8.725   9.022 -0.3977 -0.4624  0.1024
  625MOL0     C86177   8.022   8.805   8.963 -0.1462 -0.1432  0.2285
  625MOL0     C86178   8.446   8.265   8.957  0.8026  0.3702 -0.2692
  625MOL0     C86179   8.582   8.288   8.949 -0.4460 -0.0198 -0.3125
  625MOL0     C86180   8.664   8.158   8.970  0.4390 -0.7913 -0.0324
  625MOL0     H86181   9.005   8.537   8.699  1.5952  0.5982 -1.0377
  625MOL0     H86182   9.243   8.533   8.687  0.9815 -1.0899 -0.6920
  625MOL0     H86183   9.379   8.478   8.943 -0.4819  0.1077 -0.6916
  625MOL0     H86184   9.457   8.553   8.803 -2.9404  0.4740  0.7182
  625MOL0     H86185   9.593   8.384   9.015 -2.9357 -0.0374  0.5920
  625MOL0     H86186   9.661   8.419   8.849 -2.0406  0.4757 -2.3448
  625MOL0     H86187   9.656   8.653   8.907  2.0282  1.5310  1.7754
  625MOL0     H86188   9.577   8.632   9.056  0.5678  0.6065 -0.2536
  625MOL0     H86189   9.791   8.490   9.128  2.5891 -0.0751 -0.5005
  625MOL0     H86190   9.860   8.522   8.974  0.3644  3.1566 -2.3566
  625MOL0     H86191   9.806   8.718   9.215  2.3789  0.8053  0.2304
  625MOL0     H86192   9.801   8.785   9.053 -0.4416 -1.3291 -1.2458
  625MOL0     H86193  10.018   8.689   9.001 -0.4318 -0.9921 -0.0930
  625MOL0     H86194  10.024   8.808   9.132  2.0391 -0.6616  2.2429
  625MOL0     H86195  10.044   8.516   9.185  1.5007 -0.4080  1.2808
  625MOL0     H86196  10.004   8.650   9.299 -2.7945 -0.0516 -1.7628
  625MOL0     H86197  10.271   8.591   9.154 -1.2737 -0.6881 -0.4121
  625MOL0     H86198  10.243   8.754   9.207  1.4312  0.1472  1.1254
  625MOL0     H86199  10.365   8.443   9.342  1.5075 -1.3345  1.7556
  625MOL0     H86200  10.362   8.306   9.589  2.4204 -0.9179  0.3357
  625MOL0     H86201  10.365   8.423   9.725 -1.4000 -0.4876 -0.4918
  625MOL0     H86202  10.575   8.339   9.693 -1.8607 -2.4159 -0.8775
  625MOL0     H86203  10.564   8.399   9.515 -0.9064  2.6543 -0.0090
  625MOL0     H86204  10.530   8.629   9.616  1.0588  1.3787  0.5816
  625MOL0     H86205  10.569   8.567   9.765 -0.6826 -0.1455  0.0213
  625MOL0     H86206  10.737   8.607   9.507  1.1197  1.4734  0.0629
  625MOL0     H86207  10.752   8.685   9.661 -0.5400  0.9529 -1.0253
  625MOL0     H86208  11.013   8.347   9.757 -0.5456  1.6768  3.8264
  625MOL0     H86209  11.319   8.387   9.885  1.0863 -0.7477 -0.9299
  625MOL0     H86210  11.349   8.320   9.716  1.2911  2.1205 -1.4822
  625MOL0     H86211  11.201   8.279   9.815 -1.1790  1.9325 -0.4840
  625MOL0     H86212  11.608   8.735   9.550 -0.0891 -1.2282 -1.6366
  625MOL0     H86213  11.855   8.775   9.545 -1.0261  1.3819  1.2442
  625MOL0     H86214  12.068   8.404   9.580 -2.5464  1.8680 -2.5952
  625MOL0     H86215  12.190   8.505   9.527  1.0893 -2.6177  1.2848
  625MOL0     H86216  12.111   8.542   9.813 -2.0724 -1.4162 -1.0885
  625MOL0     H86217  12.233   8.421   9.777 -0.5137  0.5124  1.8772
  625MOL0     H86218  12.320   8.636   9.842 -0.7349 -1.1926 -0.1448
  625MOL0     H86219  12.252   8.715   9.699  0.8155  1.4435  1.8551
  625MOL0     H86220  12.390   8.514   9.569 -2.4569 -1.3627  0.9709
  625MOL0     H86221  12.481   8.518   9.719 -2.9664  0.7881  1.6621
  625MOL0     H86222  12.575   8.672   9.538  0.6421 -0.1479  0.7035
  625MOL0     H86223  12.414   8.758   9.543 -0.9345 -0.5159  1.6120
  625MOL0     H86224  12.620   8.714   9.772  2.9863  0.0998 -3.1768
  625MOL0     H86225  12.468   8.802   9.797 -1.3741 -1.8920 -0.8344
  625MOL0     H86226  12.514   8.981   9.688 -2.1158 -1.6033  0.9628
  625MOL0     H86227  12.617   8.914   9.572 -0.6173  1.9690  1.0318
  625MOL0     H86228  12.798   8.870   9.755  0.8104  0.4226 -1.3457
  625MOL0     H86229  12.698   8.989   9.850 -1.0644  2.2469 -0.4968
  625MOL0     H86230  11.910   8.395   9.733 -1.2088  0.7571  1.6065
  625MOL0     H86231  11.669   8.369   9.778  1.2137  1.0803  1.8170
  625MOL0     H86232  11.184   8.768   9.574 -2.2599  0.5548 -0.8235
  625MOL0     H86233  10.944   8.721   9.570  1.2634  1.7650  1.7961
  625MOL0     H86234   9.275   8.158   8.884  0.2666 -0.9077 -3.0395
  625MOL0     H86235   9.014   8.161   8.905  0.9590 -0.0917  1.2692
  625MOL0     H86236   8.585   8.626   8.918  2.8127 -0.4096  0.5477
  625MOL0     H86237   8.351   8.590   8.918  0.3234  0.1183  0.0609
  625MOL0     H86238   8.211   8.530   9.090 -2.5607  0.8526  2.0310
  625MOL0     H86239   8.115   8.535   8.941 -0.2075  3.2668  1.8619
  625MOL0     H86240   8.049   8.333   9.164  0.7224 -1.2882 -1.5431
  625MOL0     H86241   7.951   8.376   9.024  1.7018  0.4745 -1.9936
  625MOL0     H86242   7.893   8.476   9.250  0.5339 -0.7331 -0.7392
  625MOL0     H86243   8.031   8.574   9.242 -3.9047  2.7875  1.3197
  625MOL0     H86244   7.793   8.667   9.165 -0.8026 -0.3955  0.1564
  625MOL0     H86245   7.813   8.573   9.020 -1.4216 -1.2860  0.9527
  625MOL0     H86246   8.090   8.873   8.915 -0.3615 -0.0724  0.0198
  625MOL0     H86247   8.413   8.163   8.971  2.3074 -0.3807 -1.8249
  625MOL0     H86248   8.616   8.084   9.034  0.2501 -0.2507  0.4569
  625MOL0     H86249   8.698   8.113   8.876  0.5708 -0.6647 -0.0460
  625MOL0     H86250   8.754   8.188   9.025 -0.0847  3.3837 -1.0925
  626MOL0     O86251   6.349   6.749   0.020  0.7981  0.4976  0.4244
  626MOL0     C86252   6.344   6.664   0.109  1.4099 -0.2438 -0.2447
  626MOL0     O86253   6.451   6.611   0.176  0.0841  0.2109  0.3444
  626MOL0     C86254   6.577   6.646   0.133 -0.7006 -0.0331 -1.4350
  626MOL0     C86255   6.674   6.665   0.234  0.7178 -0.5610 -0.0338
  626MOL0     C86256   6.807   6.692   0.208  0.8828 -0.3495 -0.4560
  626MOL0     C86257   6.851   6.691   0.075  0.0463 -0.0268  0.0210
  626MOL0     O86258   6.990   6.693   0.056 -0.4190  0.7218  0.3077
  626MOL0     C86259   7.033   6.606  -0.049  0.3696  0.2886 -0.8893
  626MOL0     C86260   7.185   6.589  -0.042 -0.1290 -0.0758  0.1033
  626MOL0     C86261   7.232   6.521   0.087  0.1684 -0.2866  0.6050
  626MOL0     C86262   7.376   6.477   0.067  0.9756  0.4246 -0.7947
  626MOL0     C86263   7.482   6.585   0.074  0.5873  0.1657  1.2583
  626MOL0     C86264   7.619   6.526   0.058 -1.4317  0.2436  0.1572
  626MOL0     C86265   7.735   6.624   0.075  0.6325 -0.9268  0.7102
  626MOL0     C86266   7.866   6.565   0.047  0.3103  0.1878  0.2203
  626MOL0     N86267   7.972   6.673   0.062 -1.0006 -0.3577 -0.5101
  626MOL0     C86268   8.016   6.772  -0.026  0.4389 -0.6341  0.2030
  626MOL0     C86269   8.117   6.835   0.046 -0.3897 -0.2176  0.0800
  626MOL0     C86270   8.174   6.956  -0.012 -0.4607  0.5917  0.1802
  626MOL0     C86271   8.104   7.083   0.006 -0.0526  0.2508 -0.0621
  626MOL0     C86272   8.173   7.198  -0.063  0.3740 -0.1161  0.6203
  626MOL0     C86273   8.286   7.273   0.012  0.5677  1.1403  1.0348
  626MOL0     O86274   8.413   7.200   0.017 -0.1906 -0.1577  0.5457
  626MOL0     C86275   8.521   7.250   0.091  0.8214 -0.3919 -0.9573
  626MOL0     C86276   8.635   7.174   0.112 -0.2133  0.3777  0.7361
  626MOL0     C86277   8.739   7.219   0.194 -0.1947  0.1214 -0.2592
  626MOL0     C86278   8.866   7.138   0.220  0.5199 -0.5772  0.8208
  626MOL0     C86279   8.726   7.339   0.253  1.1286  0.4449 -0.6502
  626MOL0     C86280   8.818   7.393   0.354  0.0175  0.2726 -0.1510
  626MOL0     O86281   8.850   7.316   0.466  0.2558  0.7684 -0.6132
  626MOL0     C86282   8.973   7.322   0.519 -0.4629 -0.1452 -0.4273
  626MOL0     C86283   9.093   7.326   0.440  0.7479  0.4150 -0.0196
  626MOL0     C86284   9.226   7.352   0.491 -0.4885  0.3284 -0.4508
  626MOL0     C86285   9.239   7.361   0.630  0.2080  0.5575 -0.7862
  626MOL0     O86286   9.358   7.386   0.697 -0.1238 -0.1934  0.4459
  626MOL0     C86287   9.479   7.406   0.624  0.1898  0.2609  0.5096
  626MOL0     C86288   9.570   7.481   0.713 -0.1026  0.3615 -0.8582
  626MOL0     C86289   9.620   7.389   0.828 -0.4144  0.4994 -0.6273
  626MOL0     C86290   9.767   7.423   0.856 -0.0992  0.5741 -0.1377
  626MOL0     C86291   9.824   7.308   0.948 -0.0431 -0.0756 -0.3639
  626MOL0     C86292   9.977   7.322   0.960  0.6719  0.3974  0.2611
  626MOL0     C86293  10.044   7.455   1.000 -0.6394  0.0814  0.4877
  626MOL0     C86294  10.180   7.436   1.058  0.7327 -0.1811  0.4919
  626MOL0    Cl86295  10.274   7.320   0.965 -0.2854  0.3124  0.1562
  626MOL0     C86296   9.121   7.363   0.706 -0.8574 -0.1425  0.1733
  626MOL0     C86297   8.991   7.345   0.654 -0.6947  0.0115 -0.4511
  626MOL0     O86298   8.876   7.505   0.335  0.4909  0.3252  0.2260
  626MOL0     C86299   8.620   7.422   0.213 -0.0057 -0.3009  0.0362
  626MOL0     C86300   8.516   7.377   0.133  0.2565  0.2801  0.1286
  626MOL0     N86301   8.136   6.767   0.164 -0.4307 -0.0637  0.3907
  626MOL0     N86302   8.048   6.674   0.169 -0.6916  0.1676 -0.0473
  626MOL0     C86303   6.751   6.677  -0.028  0.2258  0.4230 -0.4246
  626MOL0     C86304   6.620   6.644   0.003 -1.0281  0.0734  1.0149
  626MOL0     C86305   6.205   6.617   0.152 -0.2959  0.1474 -0.3015
  626MOL0     C86306   6.094   6.627   0.064 -0.5155  0.3296  0.2072
  626MOL0     C86307   5.974   6.566   0.093 -0.3015 -0.0412 -0.2393
  626MOL0     C86308   5.953   6.495   0.207 -0.1014  0.7554 -0.3775
  626MOL0     O86309   5.843   6.420   0.239 -0.1335  0.1746 -0.6917
  626MOL0     C86310   5.725   6.421   0.155 -0.2083 -0.4544 -0.1012
  626MOL0     C86311   5.628   6.324   0.239  0.0678 -0.5406  0.3072
  626MOL0     C86312   5.499   6.322   0.162  0.4992 -0.2343 -0.3602
  626MOL0     C86313   5.401   6.235   0.233  0.2952 -0.0408 -0.3003
  626MOL0     C86314   5.384   6.238   0.378 -0.7419  1.0618  0.5179
  626MOL0     C86315   5.362   6.236   0.494 -0.6436  0.3222 -0.6473
  626MOL0     C86316   6.053   6.483   0.299 -0.6472 -0.0779 -0.2481
  626MOL0     C86317   6.179   6.536   0.271 -0.1487  0.1489 -0.5177
  626MOL0     C86318   6.286   6.502   0.369  0.0389  0.3167 -1.0263
  626MOL0     H86319   6.648   6.666   0.340  2.6650  0.6239  0.4917
  626MOL0     H86320   6.885   6.705   0.282  0.3274  1.6489 -0.1824
  626MOL0     H86321   7.033   6.657  -0.146  0.4450  1.0913 -0.4777
  626MOL0     H86322   6.991   6.506  -0.039  3.3130 -0.8738  1.2263
  626MOL0     H86323   7.215   6.524  -0.124  1.3323  1.1575 -0.4004
  626MOL0     H86324   7.230   6.687  -0.059  0.3664 -0.3466 -0.1403
  626MOL0     H86325   7.225   6.589   0.173 -1.4937  0.7090 -0.2563
  626MOL0     H86326   7.163   6.438   0.106  2.2068 -1.7328  2.1296
  626MOL0     H86327   7.387   6.407   0.150 -1.6028 -0.2950 -0.9771
  626MOL0     H86328   7.389   6.415  -0.021  0.5727 -1.1927  0.2480
  626MOL0     H86329   7.490   6.631   0.173  0.6186  1.2800  0.7524
  626MOL0     H86330   7.461   6.667   0.005 -2.6571  1.8626  3.9376
  626MOL0     H86331   7.635   6.449   0.135  2.9048  1.0038  0.2917
  626MOL0     H86332   7.625   6.467  -0.034  0.0648  0.1583  0.2836
  626MOL0     H86333   7.730   6.676   0.171  3.5161 -1.1345  1.0521
  626MOL0     H86334   7.720   6.701  -0.001  0.8106 -0.7047  0.8958
  626MOL0     H86335   7.874   6.476   0.110 -2.1887 -2.0694 -2.3723
  626MOL0     H86336   7.862   6.522  -0.053 -0.3324  0.6182  0.0506
  626MOL0     H86337   7.978   6.798  -0.124  1.1385 -2.7301 -0.6832
  626MOL0     H86338   8.199   6.945  -0.118  1.3016 -1.2561  0.7211
  626MOL0     H86339   8.267   6.972   0.043  0.6701 -1.3690 -1.0509
  626MOL0     H86340   8.003   7.074  -0.034 -0.2477 -1.7104  0.7663
  626MOL0     H86341   8.095   7.103   0.113 -1.5344 -0.9326  0.0755
  626MOL0     H86342   8.207   7.179  -0.165 -0.4810  3.9482 -0.5654
  626MOL0     H86343   8.105   7.283  -0.064  1.7207  1.0025 -0.2698
  626MOL0     H86344   8.295   7.368  -0.042 -2.4074  0.2128 -1.3844
  626MOL0     H86345   8.252   7.298   0.113 -1.1572 -2.1799  1.3990
  626MOL0     H86346   8.631   7.083   0.052  0.7839  0.1178  1.0241
  626MOL0     H86347   8.876   7.047   0.162 -0.2429 -0.3282  0.2875
  626MOL0     H86348   8.873   7.108   0.325  2.9854 -4.7122 -0.3150
  626MOL0     H86349   8.949   7.206   0.199 -0.8517  1.1594  0.7941
  626MOL0     H86350   9.090   7.318   0.332  0.6058  0.9812 -0.0645
  626MOL0     H86351   9.315   7.345   0.430  0.5419 -1.0475  1.1114
  626MOL0     H86352   9.524   7.311   0.594 -0.6512  0.0684 -0.1491
  626MOL0     H86353   9.461   7.468   0.536  2.0877  0.0943 -0.0504
  626MOL0     H86354   9.654   7.513   0.650  2.3751 -3.4387  0.1283
  626MOL0     H86355   9.513   7.565   0.753 -2.9898 -2.6256  1.8612
  626MOL0     H86356   9.614   7.282   0.804  1.5823 -0.5636  2.8974
  626MOL0     H86357   9.568   7.403   0.924 -0.6278  0.6251 -0.7597
  626MOL0     H86358   9.779   7.528   0.883 -2.8265  1.4584 -1.8855
  626MOL0     H86359   9.830   7.415   0.768 -1.1793  0.0809 -0.8903
  626MOL0     H86360   9.784   7.327   1.048  0.7930 -1.2708  0.2314
  626MOL0     H86361   9.792   7.208   0.918  1.0960 -0.4701 -0.3390
  626MOL0     H86362  10.012   7.295   0.860 -1.1735  0.2187 -0.3777
  626MOL0     H86363  10.011   7.247   1.032  2.4232  0.2485 -0.6698
  626MOL0     H86364   9.981   7.500   1.078 -1.1943 -0.5107  0.3930
  626MOL0     H86365  10.053   7.514   0.908  2.1053 -0.8142  0.1093
  626MOL0     H86366  10.177   7.402   1.162 -1.1717 -0.5342  0.3556
  626MOL0     H86367  10.231   7.532   1.044  2.3613 -1.2858 -1.8362
  626MOL0     H86368   9.133   7.372   0.814  1.8339 -0.7005 -0.0074
  626MOL0     H86369   8.910   7.339   0.726 -1.9654  3.3537 -1.4135
  626MOL0     H86370   8.608   7.520   0.257  2.6090  0.4335 -0.7027
  626MOL0     H86371   8.428   7.440   0.122  1.6528  2.2866 -0.0629
  626MOL0     H86372   6.793   6.693  -0.126  3.5670  1.3582  1.0034
  626MOL0     H86373   6.553   6.635  -0.081  0.7249  1.3964 -0.6001
  626MOL0     H86374   6.110   6.695  -0.019 -0.8883 -1.3166 -1.2733
  626MOL0     H86375   5.892   6.573   0.022 -0.3304  0.9535 -0.1287
  626MOL0     H86376   5.696   6.527   0.157  0.9627 -0.1127 -0.5353
  626MOL0     H86377   5.753   6.392   0.054  1.1964  1.1569 -0.2195
  626MOL0     H86378   5.610   6.362   0.340  0.6415 -1.6622  0.8483
  626MOL0     H86379   5.673   6.224   0.242 -1.4622 -1.4141 -2.6017
  626MOL0     H86380   5.460   6.420   0.132 -2.5137 -1.2141  0.0106
  626MOL0     H86381   5.516   6.261   0.072  1.2322 -4.5408  2.3859
  626MOL0     H86382   5.427   6.131   0.209 -1.8300 -1.3142  2.4293
  626MOL0     H86383   5.307   6.247   0.179  0.0835  0.8425  0.2379
  626MOL0     H86384   5.340   6.218   0.597 -1.4060 -2.7696 -1.2192
  626MOL0     H86385   6.039   6.420   0.387  0.1968  0.2734  0.1562
  626MOL0     H86386   6.245   6.485   0.469 -1.0577  0.5390 -1.4280
  626MOL0     H86387   6.341   6.409   0.352 -0.3610 -0.6069  1.9968
  626MOL0     H86388   6.348   6.591   0.384  1.7497 -0.9919  0.0758
  627MOL0     O86389   3.945   2.829   3.502 -0.0094 -0.9531 -0.3132
  627MOL0     C86390   3.863   2.767   3.426  0.3632  0.1444 -0.5159
  627MOL0     O86391   3.899   2.677   3.332 -0.6255  0.0725  0.0775
  627MOL0     C86392   4.035   2.674   3.308 -0.7213  0.9365  0.1073
  627MOL0     C86393   4.132   2.613   3.389  0.0325  0.1525  0.2762
  627MOL0     C86394   4.261   2.602   3.339 -0.3458  0.0816 -0.1088
  627MOL0     C86395   4.308   2.659   3.217 -0.0055  0.2666  0.4337
  627MOL0     O86396   4.443   2.640   3.176 -0.3750 -0.5345  0.4007
  627MOL0     C86397   4.494   2.721   3.068  0.4675 -0.5300  0.3101
  627MOL0     C86398   4.647   2.727   3.069  0.5550  0.2247  0.9534
  627MOL0     C86399   4.708   2.805   3.193  1.0165 -0.1948  0.1995
  627MOL0     C86400   4.859   2.802   3.206 -0.2895 -0.8951 -0.6535
  627MOL0     C86401   4.894   2.890   3.333  0.2318 -0.1587 -0.2557
  627MOL0     C86402   5.044   2.861   3.380  0.6604 -0.4758  0.0690
  627MOL0     C86403   5.079   2.970   3.487 -0.3682  1.1279 -0.0515
  627MOL0     C86404   5.202   2.935   3.587  0.1958 -0.0708  1.0764
  627MOL0     N86405   5.327   2.908   3.512 -0.5916 -0.3409 -0.2808
  627MOL0     C86406   5.384   2.989   3.419  0.1064 -0.6836 -0.4976
  627MOL0     C86407   5.507   2.940   3.403  0.1122 -0.1346  0.5026
  627MOL0     C86408   5.610   3.006   3.313 -0.0802 -0.6850  0.2161
  627MOL0     C86409   5.725   2.913   3.275  0.8220  0.3069 -0.2663
  627MOL0     C86410   5.815   2.993   3.186 -0.2934 -0.0065  0.1818
  627MOL0     C86411   5.927   2.906   3.129  0.0243 -0.0696 -0.1226
  627MOL0     O86412   5.973   2.984   3.021 -0.6629 -0.9051  0.3875
  627MOL0     C86413   6.094   2.970   2.963  1.2012  0.3587 -0.0194
  627MOL0     C86414   6.124   3.077   2.886  0.5925  0.2754 -0.5349
  627MOL0     C86415   6.245   3.096   2.823 -0.0674  0.3497 -0.3911
  627MOL0     C86416   6.245   3.216   2.732 -0.1411  0.5582 -0.2331
  627MOL0     C86417   6.352   3.002   2.855 -0.1936 -0.0792  0.1627
  627MOL0     C86418   6.499   3.019   2.816 -0.2289 -0.5697  0.2059
  627MOL0     O86419   6.571   2.908   2.783 -0.3816 -0.5448 -0.0030
  627MOL0     C86420   6.706   2.913   2.759  0.2909 -0.2480 -0.2438
  627MOL0     C86421   6.773   3.015   2.691  0.0173 -0.6583 -0.3765
  627MOL0     C86422   6.914   3.027   2.684  0.1094  0.5757  0.1933
  627MOL0     C86423   6.992   2.926   2.749 -0.3127  0.3393 -0.7975
  627MOL0     O86424   7.129   2.929   2.763  0.5805 -0.0469  0.4859
  627MOL0     C86425   7.200   3.014   2.677  0.2035 -0.0367  1.1552
  627MOL0     C86426   7.349   2.998   2.709  0.7060 -0.2077 -0.0007
  627MOL0     C86427   7.403   2.855   2.698  0.2028  0.2504 -0.0675
  627MOL0     C86428   7.417   2.778   2.568  0.1835  0.6342 -0.4798
  627MOL0     C86429   7.525   2.670   2.580  1.3757  0.7782  0.0371
  627MOL0     C86430   7.570   2.610   2.450 -0.1866 -0.1788 -0.1129
  627MOL0     C86431   7.459   2.517   2.396  0.2545 -0.2629  0.1212
  627MOL0     C86432   7.471   2.524   2.242  0.0164 -0.2932 -0.3378
  627MOL0    Cl86433   7.335   2.427   2.178 -0.1061 -0.0024 -0.0058
  627MOL0     C86434   6.923   2.817   2.810  0.5350  0.4018 -0.4456
  627MOL0     C86435   6.785   2.817   2.821  0.4652 -0.8210 -0.2901
  627MOL0     O86436   6.541   3.132   2.827 -0.0298  0.4440 -0.1093
  627MOL0     C86437   6.309   2.886   2.921  0.0883 -0.8295  0.1540
  627MOL0     C86438   6.184   2.874   2.987  0.0968 -0.0846  0.3779
  627MOL0     N86439   5.521   2.814   3.469  0.0260 -0.2576 -0.1454
  627MOL0     N86440   5.408   2.796   3.531 -0.5962  0.0755  0.5557
  627MOL0     C86441   4.211   2.736   3.152  0.4482  0.6790 -0.0196
  627MOL0     C86442   4.072   2.741   3.192 -0.1205 -0.2910  0.0954
  627MOL0     C86443   3.729   2.826   3.414 -0.0431 -0.0467  0.4580
  627MOL0     C86444   3.672   2.838   3.285  0.3579 -0.3617 -0.2825
  627MOL0     C86445   3.541   2.882   3.265 -0.4188 -0.2607  0.6310
  627MOL0     C86446   3.465   2.934   3.367  0.5507  0.2097 -0.2783
  627MOL0     O86447   3.335   2.976   3.334 -0.1052  0.2799  0.4084
  627MOL0     C86448   3.240   3.018   3.439  0.4782  0.3877  0.6027
  627MOL0     C86449   3.156   2.893   3.467  0.0988 -0.2587 -0.3545
  627MOL0     C86450   3.041   2.904   3.568  0.3005 -0.1753 -0.1165
  627MOL0     C86451   2.943   2.999   3.516  0.5322 -0.4932 -0.0853
  627MOL0     C86452   2.858   3.015   3.634  0.1531  0.6505  0.5194
  627MOL0     C86453   2.794   3.023   3.740 -0.4117  0.5990 -0.0395
  627MOL0     C86454   3.522   2.930   3.496 -0.0033 -0.2180 -0.5291
  627MOL0     C86455   3.650   2.884   3.519 -0.2811 -0.7567  0.2525
  627MOL0     C86456   3.700   2.876   3.659  0.7058  0.1996 -0.5443
  627MOL0     H86457   4.110   2.565   3.484  0.0774  1.1241  0.7849
  627MOL0     H86458   4.335   2.540   3.388 -0.0528  0.6768  0.2192
  627MOL0     H86459   4.463   2.825   3.076  0.6356 -0.6292  3.4588
  627MOL0     H86460   4.467   2.682   2.969  1.9576  0.7097 -0.6279
  627MOL0     H86461   4.692   2.628   3.061 -1.3421 -0.5647 -0.6268
  627MOL0     H86462   4.663   2.783   2.975  1.2775  1.4017  1.7427
  627MOL0     H86463   4.671   2.908   3.197 -1.3160 -1.0228  3.1565
  627MOL0     H86464   4.675   2.756   3.285 -2.4059  2.5676  0.6412
  627MOL0     H86465   4.887   2.697   3.226 -1.5484 -1.3269 -1.0913
  627MOL0     H86466   4.912   2.833   3.116  3.1423 -0.7222  1.2397
  627MOL0     H86467   4.834   2.868   3.422  2.5138  1.2382  1.7414
  627MOL0     H86468   4.879   2.995   3.304  1.1729  0.3001  0.8528
  627MOL0     H86469   5.066   2.764   3.426  0.1539  0.4374  2.3485
  627MOL0     H86470   5.117   2.872   3.299 -0.6146  4.0605 -0.7390
  627MOL0     H86471   4.991   3.006   3.541 -0.5341  2.5734 -1.2256
  627MOL0     H86472   5.106   3.056   3.425  2.8737 -0.5629 -1.2044
  627MOL0     H86473   5.237   3.015   3.652  2.7023  0.3201 -0.6151
  627MOL0     H86474   5.173   2.847   3.645 -2.0030  1.1058  1.8708
  627MOL0     H86475   5.347   3.084   3.380  0.3191 -0.0739  0.7314
  627MOL0     H86476   5.645   3.099   3.360 -2.3707 -0.3275  1.3430
  627MOL0     H86477   5.554   3.039   3.225  0.4517 -2.4500 -0.8380
  627MOL0     H86478   5.777   2.891   3.369 -0.5425 -3.4849 -0.2565
  627MOL0     H86479   5.682   2.820   3.237  2.3740 -0.5300 -0.0693
  627MOL0     H86480   5.753   3.019   3.100 -2.2074 -3.6613  0.2879
  627MOL0     H86481   5.860   3.079   3.237  0.8591 -0.4225 -0.0862
  627MOL0     H86482   6.002   2.882   3.206  1.6567  1.7983 -1.0462
  627MOL0     H86483   5.903   2.805   3.093  0.9676 -0.7475  1.0530
  627MOL0     H86484   6.040   3.142   2.865  1.1056  0.6538 -1.4228
  627MOL0     H86485   6.143   3.244   2.703 -1.6660 -0.9872  3.0710
  627MOL0     H86486   6.310   3.195   2.647 -0.3814 -4.2392  0.5048
  627MOL0     H86487   6.279   3.299   2.796  1.7397 -0.1290 -0.2916
  627MOL0     H86488   6.709   3.093   2.651  0.6879  0.2607  0.2760
  627MOL0     H86489   6.950   3.124   2.651 -0.5388  1.8791  2.9698
  627MOL0     H86490   7.178   3.000   2.571  0.6192 -0.3134  1.1042
  627MOL0     H86491   7.175   3.117   2.703  1.1310  1.1630 -2.2198
  627MOL0     H86492   7.413   3.066   2.654  1.2877  1.1241  2.2121
  627MOL0     H86493   7.354   3.022   2.815 -2.3369 -0.4864  0.3139
  627MOL0     H86494   7.343   2.794   2.767  1.7458  0.9278  1.9908
  627MOL0     H86495   7.501   2.865   2.745 -1.3566  1.7324  3.1600
  627MOL0     H86496   7.452   2.854   2.498 -0.5506  3.3398  1.9245
  627MOL0     H86497   7.321   2.741   2.533  0.0911  0.8610 -0.4635
  627MOL0     H86498   7.613   2.719   2.623  1.5448 -0.0952  0.7090
  627MOL0     H86499   7.497   2.588   2.647 -0.9753  1.4005 -0.0957
  627MOL0     H86500   7.666   2.558   2.459 -1.3245 -2.4871 -0.6743
  627MOL0     H86501   7.589   2.691   2.380 -0.5139 -0.4332 -0.5054
  627MOL0     H86502   7.356   2.541   2.422 -0.6178 -1.0925 -2.3281
  627MOL0     H86503   7.475   2.411   2.417 -0.1376 -0.3463  0.0067
  627MOL0     H86504   7.572   2.502   2.208  0.4157 -0.3551  0.8555
  627MOL0     H86505   7.451   2.627   2.210 -2.1712 -1.5202 -3.3456
  627MOL0     H86506   6.972   2.728   2.846 -2.6108 -2.8817 -3.5095
  627MOL0     H86507   6.740   2.730   2.868 -0.2424 -1.1094 -1.4693
  627MOL0     H86508   6.375   2.802   2.941  0.4454 -0.4263  0.6856
  627MOL0     H86509   6.170   2.793   3.058  1.9501 -0.0024  0.8904
  627MOL0     H86510   4.231   2.784   3.057 -3.3997  0.5656 -1.0631
  627MOL0     H86511   4.002   2.804   3.138 -0.8747  0.6429  2.0651
  627MOL0     H86512   3.734   2.806   3.203  0.0187 -3.4881  0.5503
  627MOL0     H86513   3.504   2.869   3.164 -0.7796 -1.3809  0.8887
  627MOL0     H86514   3.293   3.041   3.532  2.1697 -1.1317  0.0773
  627MOL0     H86515   3.185   3.103   3.398  1.1181  0.1785 -0.7554
  627MOL0     H86516   3.215   2.812   3.512 -2.6497 -1.5823  1.1843
  627MOL0     H86517   3.124   2.854   3.370 -0.4412  0.7696 -0.6049
  627MOL0     H86518   2.999   2.804   3.582 -0.1104 -0.4003 -2.5140
  627MOL0     H86519   3.089   2.936   3.661 -1.5472 -2.3957  1.7231
  627MOL0     H86520   2.882   2.963   3.433 -0.8643  1.1711  0.1674
  627MOL0     H86521   2.990   3.095   3.497  1.6673 -1.0104  0.0278
  627MOL0     H86522   2.740   3.001   3.829  1.3618 -1.5833  0.5940
  627MOL0     H86523   3.474   2.970   3.585  0.5872  1.4966 -0.9389
  627MOL0     H86524   3.739   2.780   3.695  1.5964 -0.2028 -2.4297
  627MOL0     H86525   3.790   2.936   3.670  2.5637 -2.8765  4.3831
  627MOL0     H86526   3.617   2.903   3.724  1.1106  0.3197 -0.0743
  628MOL0     O86527  10.282   2.903   3.405  0.2015  0.0731 -0.0411
  628MOL0     C86528  10.340   2.810   3.464 -0.4298  0.0643  0.1050
  628MOL0     O86529  10.463   2.815   3.529  0.6246  0.1368  0.4771
  628MOL0     C86530  10.538   2.927   3.544  0.3298  0.5492  0.1057
  628MOL0     C86531  10.488   3.058   3.553 -0.0491 -0.6159  0.1115
  628MOL0     C86532  10.578   3.164   3.553 -0.9132 -0.9132 -0.3745
  628MOL0     C86533  10.716   3.143   3.575  0.4638  0.1980  0.7835
  628MOL0     O86534  10.802   3.251   3.603 -0.2040 -0.2578  1.0822
  628MOL0     C86535  10.923   3.258   3.523  0.8468  0.2269 -0.0274
  628MOL0     C86536  11.001   3.385   3.564 -0.4381 -0.0261 -0.3680
  628MOL0     C86537  11.104   3.345   3.667  0.4690 -0.5678 -0.2288
  628MOL0     C86538  11.213   3.447   3.683 -0.1119 -0.2411  0.0923
  628MOL0     C86539  11.311   3.416   3.799  0.6704 -0.4535  0.2332
  628MOL0     C86540  11.441   3.494   3.793  0.6637 -1.2116  0.2066
  628MOL0     C86541  11.418   3.654   3.800 -0.5725 -0.2317  0.2001
  628MOL0     C86542  11.551   3.718   3.790  0.2131  0.4010 -0.2182
  628MOL0     N86543  11.616   3.715   3.664 -0.0581  0.0182  0.0660
  628MOL0     C86544  11.561   3.760   3.545  0.0277  0.0430 -0.2436
  628MOL0     C86545  11.644   3.715   3.445  0.5754  0.4325  0.2375
  628MOL0     C86546  11.611   3.731   3.292 -0.1798 -0.2309  0.3499
  628MOL0     C86547  11.737   3.706   3.204  0.1906 -0.0598 -0.0460
  628MOL0     C86548  11.711   3.692   3.054 -0.5114 -0.1077 -0.4263
  628MOL0     C86549  11.844   3.723   2.971 -0.1460  1.1780 -0.0241
  628MOL0     O86550  11.950   3.637   3.017  0.1896 -0.0279  0.7543
  628MOL0     C86551  12.075   3.667   2.981 -0.1782 -0.8603 -0.2331
  628MOL0     C86552  12.184   3.609   3.048 -0.3760 -0.3205  0.4154
  628MOL0     C86553  12.319   3.630   3.007 -0.8106 -0.5642 -0.6802
  628MOL0     C86554  12.435   3.570   3.083 -0.0498  0.2098 -0.2690
  628MOL0     C86555  12.340   3.709   2.892 -1.0771  0.3399  0.5242
  628MOL0     C86556  12.478   3.738   2.837  0.2093  0.1591  0.2136
  628MOL0     O86557  12.493   3.868   2.790  0.2292  0.1791 -0.6370
  628MOL0     C86558  12.627   3.911   2.762 -0.4207 -0.8247 -0.0657
  628MOL0     C86559  12.656   3.951   2.634  0.2133 -0.9013 -0.7176
  628MOL0     C86560  12.782   3.996   2.600 -0.1815 -0.0046 -0.6400
  628MOL0     C86561  12.879   4.011   2.697 -0.1493  0.4046  0.1205
  628MOL0     O86562  12.993   4.072   2.652 -0.0531 -0.3435  0.2926
  628MOL0     C86563  13.126   4.022   2.695 -0.2221 -0.1301  0.0721
  628MOL0     C86564  13.236   4.117   2.674 -0.8920  0.3240 -0.0989
  628MOL0     C86565  13.377   4.054   2.710  0.6486  0.1205 -0.1134
  628MOL0     C86566  13.494   4.135   2.668 -0.3729  0.3688 -0.3885
  628MOL0     C86567  13.625   4.069   2.703  0.0289  0.5461 -0.1715
  628MOL0     C86568  13.740   4.150   2.642 -0.0409 -0.4452 -0.0641
  628MOL0     C86569  13.865   4.136   2.725 -0.7919  0.7289 -0.2516
  628MOL0     C86570  13.981   4.211   2.672 -0.3678 -0.0078  0.3436
  628MOL0    Cl86571  13.973   4.388   2.675 -0.0514  0.1274 -0.0857
  628MOL0     C86572  12.852   3.973   2.835 -0.1377  0.3658  0.9441
  628MOL0     C86573  12.724   3.914   2.862 -0.2560  0.6148 -0.1443
  628MOL0     O86574  12.568   3.658   2.856  0.0179 -0.1079 -0.3704
  628MOL0     C86575  12.227   3.767   2.836  0.5153 -0.3886  0.0022
  628MOL0     C86576  12.094   3.737   2.866  0.2247  0.0479  0.2930
  628MOL0     N86577  11.747   3.649   3.509 -0.5877  1.1446  0.1077
  628MOL0     N86578  11.732   3.641   3.637  0.1854  0.5860  0.7277
  628MOL0     C86579  10.766   3.010   3.569  0.6305 -0.1183  0.5339
  628MOL0     C86580  10.678   2.899   3.546  0.4930  0.2724  0.2636
  628MOL0     C86581  10.278   2.675   3.474 -0.1794 -0.2322 -0.5323
  628MOL0     C86582  10.351   2.573   3.539 -0.5891  0.3021 -0.6131
  628MOL0     C86583  10.294   2.445   3.551  0.4473  0.2590  0.0235
  628MOL0     C86584  10.169   2.417   3.499 -0.2491  0.4622 -0.1065
  628MOL0     O86585  10.113   2.294   3.505 -0.5144  0.5948 -0.7701
  628MOL0     C86586  10.109   2.218   3.630 -0.1695  0.0026 -0.9643
  628MOL0     C86587   9.982   2.125   3.633 -0.6657  0.2862 -0.1048
  628MOL0     C86588   9.856   2.203   3.599 -0.6079  0.3070 -0.1322
  628MOL0     C86589   9.730   2.118   3.613 -0.2630 -0.1244 -0.3431
  628MOL0     C86590   9.608   2.207   3.625 -0.7107 -0.1783 -0.0600
  628MOL0     C86591   9.515   2.281   3.623  0.3707  0.2305 -0.1405
  628MOL0     C86592  10.095   2.513   3.440 -0.2438  0.1436 -0.1320
  628MOL0     C86593  10.150   2.644   3.427 -0.0353 -0.4639 -0.0541
  628MOL0     C86594  10.061   2.743   3.359 -0.6487  0.2823  0.2283
  628MOL0     H86595  10.380   3.072   3.547  0.0612 -0.3417 -3.3607
  628MOL0     H86596  10.548   3.268   3.560  0.7594 -0.3112 -1.5950
  628MOL0     H86597  10.903   3.260   3.415  1.7438 -1.7348 -0.2756
  628MOL0     H86598  10.978   3.164   3.533 -0.0214 -0.3087 -0.2367
  628MOL0     H86599  11.049   3.425   3.474  2.1934 -0.2250  0.8705
  628MOL0     H86600  10.929   3.451   3.614 -0.1678 -0.2941  0.3874
  628MOL0     H86601  11.042   3.326   3.755 -1.5885  0.4481 -1.3925
  628MOL0     H86602  11.165   3.257   3.643  3.0755  0.2902  2.5902
  628MOL0     H86603  11.261   3.453   3.585  0.9158  0.6013  0.6249
  628MOL0     H86604  11.175   3.547   3.707 -0.6604 -0.5285  0.4420
  628MOL0     H86605  11.344   3.312   3.793  2.1129 -0.0771  1.1820
  628MOL0     H86606  11.265   3.433   3.897 -0.2687  3.1771 -0.6890
  628MOL0     H86607  11.504   3.463   3.877  0.4228 -1.8554  0.1523
  628MOL0     H86608  11.500   3.466   3.705  2.6747  1.1401  0.6866
  628MOL0     H86609  11.389   3.690   3.899 -1.2477  3.3279 -1.1729
  628MOL0     H86610  11.351   3.696   3.725 -2.5170 -0.3244  1.7950
  628MOL0     H86611  11.526   3.823   3.809 -2.0421  0.0917 -1.1460
  628MOL0     H86612  11.617   3.685   3.870 -0.3902  1.0084  0.5528
  628MOL0     H86613  11.471   3.816   3.521  0.4741  0.3908 -1.1355
  628MOL0     H86614  11.572   3.832   3.273  0.0740 -0.1864  0.0542
  628MOL0     H86615  11.531   3.664   3.259 -1.3875  1.3266 -0.0198
  628MOL0     H86616  11.818   3.776   3.226  0.1906 -0.5821  1.8473
  628MOL0     H86617  11.784   3.610   3.231 -1.4982 -0.5920  1.1801
  628MOL0     H86618  11.676   3.592   3.029  1.2518 -1.4601  2.0493
  628MOL0     H86619  11.646   3.772   3.017 -1.3826 -0.9642 -0.7770
  628MOL0     H86620  11.827   3.692   2.867 -0.4991 -3.0287  1.0979
  628MOL0     H86621  11.867   3.830   2.967 -1.7157  1.5954  1.1329
  628MOL0     H86622  12.160   3.538   3.127  1.1874 -2.5540 -0.9785
  628MOL0     H86623  12.420   3.512   3.175  1.8792  0.9831  0.5966
  628MOL0     H86624  12.505   3.643   3.124  0.5330 -0.1767 -0.5536
  628MOL0     H86625  12.490   3.507   3.011 -0.1324 -1.8821  1.3982
  628MOL0     H86626  12.578   3.973   2.562  0.2040 -2.2815 -1.1591
  628MOL0     H86627  12.809   4.017   2.497  2.7704 -1.6668 -0.3225
  628MOL0     H86628  13.110   4.005   2.802 -1.2385  1.4028  0.1904
  628MOL0     H86629  13.148   3.933   2.635 -0.5668 -1.6132  2.0149
  628MOL0     H86630  13.230   4.141   2.568 -2.1581  0.7568  0.0478
  628MOL0     H86631  13.223   4.216   2.718  1.2558  1.5596 -2.0389
  628MOL0     H86632  13.369   3.958   2.656 -2.9302 -0.5453  1.2759
  628MOL0     H86633  13.390   4.026   2.814 -0.4349 -1.8321 -0.4314
  628MOL0     H86634  13.490   4.227   2.727 -2.1141 -0.4925  0.9491
  628MOL0     H86635  13.484   4.153   2.561 -1.1093  2.4383 -0.0252
  628MOL0     H86636  13.632   4.068   2.812 -2.0516 -3.4559  0.1196
  628MOL0     H86637  13.620   3.966   2.665  0.7819  0.7970 -0.9734
  628MOL0     H86638  13.723   4.258   2.635 -0.0888 -0.5099 -1.0871
  628MOL0     H86639  13.759   4.109   2.542  0.9084  3.3566 -1.6368
  628MOL0     H86640  13.878   4.027   2.733 -1.2198  0.6596 -0.4688
  628MOL0     H86641  13.843   4.168   2.827 -1.9041 -1.6968  0.3523
  628MOL0     H86642  13.987   4.176   2.569 -2.4771  0.0677  0.1662
  628MOL0     H86643  14.073   4.178   2.722 -1.4194 -1.9134  1.1372
  628MOL0     H86644  12.917   3.984   2.921 -0.1867  3.3307  0.7101
  628MOL0     H86645  12.696   3.897   2.966  0.1649  3.7413  0.5725
  628MOL0     H86646  12.243   3.830   2.750  0.6026  0.2737  0.4916
  628MOL0     H86647  12.018   3.758   2.793  0.6256  0.3817 -0.0312
  628MOL0     H86648  10.870   2.978   3.565  0.4801 -0.5846  0.2884
  628MOL0     H86649  10.712   2.796   3.543 -1.0405 -0.2308 -0.6594
  628MOL0     H86650  10.438   2.594   3.600  0.3001  1.2583 -2.1462
  628MOL0     H86651  10.343   2.366   3.607  1.6343  0.3954 -0.8087
  628MOL0     H86652  10.202   2.162   3.637 -0.1091  0.2759  2.1676
  628MOL0     H86653  10.112   2.290   3.713  2.1695  0.3861 -1.3211
  628MOL0     H86654   9.979   2.082   3.733  1.2105 -1.3348 -0.6866
  628MOL0     H86655   9.999   2.049   3.556 -0.1205  0.4247 -0.1247
  628MOL0     H86656   9.838   2.286   3.668 -0.5659  0.1141  0.1124
  628MOL0     H86657   9.858   2.240   3.496 -2.3570  0.0656 -0.2922
  628MOL0     H86658   9.730   2.055   3.702 -1.3754 -0.5878 -0.6628
  628MOL0     H86659   9.713   2.056   3.525 -1.3679 -0.8880  0.3914
  628MOL0     H86660   9.441   2.357   3.610  0.0071 -0.3537 -1.8058
  628MOL0     H86661   9.999   2.477   3.406 -0.6366  0.8694  0.1884
  628MOL0     H86662  10.086   2.745   3.253  0.3565  0.9821  0.4612
  628MOL0     H86663   9.954   2.719   3.364 -0.4345 -0.8473 -0.1702
  628MOL0     H86664  10.059   2.841   3.407 -2.4242  0.7880 -0.7875
  629MOL0     O86665   4.850   3.805   5.869 -0.4749  0.6264 -0.0834
  629MOL0     C86666   4.818   3.700   5.923  0.2605 -0.5282 -0.5301
  629MOL0     O86667   4.873   3.579   5.907 -1.3313 -0.3429 -0.5916
  629MOL0     C86668   4.980   3.548   5.823 -0.1411 -0.2826 -0.6702
  629MOL0     C86669   5.034   3.422   5.838  0.0303  0.7964 -0.2872
  629MOL0     C86670   5.131   3.376   5.757  0.2201 -0.2286 -0.0198
  629MOL0     C86671   5.194   3.461   5.663  0.5285 -0.5346 -0.4585
  629MOL0     O86672   5.301   3.434   5.584 -0.3602 -0.3706 -0.5973
  629MOL0     C86673   5.345   3.300   5.562  0.2516 -0.0082  0.7304
  629MOL0     C86674   5.446   3.310   5.448 -0.2972 -0.5749 -0.4326
  629MOL0     C86675   5.552   3.425   5.458 -0.1993 -0.1035  0.4941
  629MOL0     C86676   5.626   3.426   5.596 -0.5742 -0.2690  1.0969
  629MOL0     C86677   5.750   3.513   5.599  0.5069  0.8376  0.4672
  629MOL0     C86678   5.857   3.457   5.513  0.5271  0.6262  0.1753
  629MOL0     C86679   5.996   3.520   5.533 -0.2328 -0.2680 -0.2701
  629MOL0     C86680   6.056   3.490   5.672  0.3872  0.3626 -0.5061
  629MOL0     N86681   6.203   3.512   5.659 -0.2825 -0.4904  0.3306
  629MOL0     C86682   6.298   3.423   5.597  0.7588 -0.8138  0.5979
  629MOL0     C86683   6.423   3.489   5.599  1.1603 -0.2464 -0.6241
  629MOL0     C86684   6.552   3.450   5.535  0.1350  0.3800 -0.3423
  629MOL0     C86685   6.681   3.451   5.624  0.1490  0.1548 -0.1355
  629MOL0     C86686   6.791   3.380   5.556  0.5637 -0.6565 -0.3457
  629MOL0     C86687   6.922   3.401   5.622 -0.6959  0.3732  0.0070
  629MOL0     O86688   7.030   3.337   5.540  0.4401 -0.4214  0.2700
  629MOL0     C86689   7.147   3.407   5.533 -0.3892  0.2145 -0.1455
  629MOL0     C86690   7.275   3.359   5.575 -0.1581 -0.0141 -0.1006
  629MOL0     C86691   7.392   3.436   5.556 -0.5248 -0.0346 -0.4700
  629MOL0     C86692   7.523   3.368   5.595 -0.5150  0.0953 -0.3112
  629MOL0     C86693   7.388   3.561   5.500 -0.0284 -0.3031  0.4625
  629MOL0     C86694   7.497   3.665   5.504  0.1281  0.3064  0.8065
  629MOL0     O86695   7.501   3.768   5.420 -0.6117  0.1021 -0.2669
  629MOL0     C86696   7.579   3.877   5.445  0.3496  0.4935  0.7667
  629MOL0     C86697   7.602   3.939   5.574 -0.3593  0.1235 -0.1161
  629MOL0     C86698   7.687   4.054   5.579 -0.6577  0.7159  1.0440
  629MOL0     C86699   7.757   4.101   5.464 -0.3736  0.2927  0.5709
  629MOL0     O86700   7.839   4.211   5.486 -0.1639  0.4927  0.3149
  629MOL0     C86701   7.909   4.274   5.369 -0.1099 -0.7013  0.2196
  629MOL0     C86702   8.003   4.376   5.419  0.5681 -0.0291 -0.4880
  629MOL0     C86703   8.083   4.431   5.304 -0.0559  0.5502  0.5584
  629MOL0     C86704   8.131   4.564   5.341  0.3445 -0.2347  0.3535
  629MOL0     C86705   8.220   4.629   5.244  1.1966 -0.4084  0.3921
  629MOL0     C86706   8.355   4.568   5.250 -0.4923  0.2906  0.5960
  629MOL0     C86707   8.436   4.624   5.134 -0.6508  0.0961 -0.2076
  629MOL0     C86708   8.566   4.549   5.128 -0.1348 -0.2899  0.1301
  629MOL0    Cl86709   8.640   4.577   4.976  0.0697 -0.0588 -0.2146
  629MOL0     C86710   7.726   4.045   5.342 -0.0249 -0.5658  1.1338
  629MOL0     C86711   7.631   3.940   5.333  0.6793  0.1756 -0.6234
  629MOL0     O86712   7.576   3.648   5.593  0.2592  0.0359  0.0896
  629MOL0     C86713   7.269   3.606   5.456  0.2884  0.7429  0.3462
  629MOL0     C86714   7.154   3.534   5.477  0.7350 -0.1267 -0.8139
  629MOL0     N86715   6.405   3.609   5.672 -0.1232  0.1623 -0.4033
  629MOL0     N86716   6.280   3.621   5.702  0.2914 -0.2354 -0.1026
  629MOL0     C86717   5.145   3.595   5.656  0.1873  0.3913  0.5005
  629MOL0     C86718   5.035   3.638   5.726 -0.8257  0.2482 -0.5524
  629MOL0     C86719   4.702   3.709   6.020 -0.4128  0.8284  0.6482
  629MOL0     C86720   4.666   3.838   6.040  0.0723  0.2207  0.0677
  629MOL0     C86721   4.549   3.861   6.114 -0.0290 -0.7685  0.8590
  629MOL0     C86722   4.485   3.753   6.174 -0.3779 -0.0527 -0.9013
  629MOL0     O86723   4.362   3.757   6.235  1.0494  0.5745 -0.5952
  629MOL0     C86724   4.339   3.870   6.325  0.3899  0.3970  0.1918
  629MOL0     C86725   4.222   3.838   6.426 -0.0455  0.6048  0.9367
  629MOL0     C86726   4.081   3.818   6.356 -0.4498  0.4872  0.5063
  629MOL0     C86727   3.986   3.762   6.459  0.5855  0.4175 -0.3784
  629MOL0     C86728   3.849   3.750   6.415 -0.0562  0.2932 -0.6545
  629MOL0     C86729   3.731   3.747   6.387 -0.1784  0.3342 -0.2129
  629MOL0     C86730   4.530   3.622   6.160  0.6563  0.1824 -0.2054
  629MOL0     C86731   4.639   3.592   6.088 -0.2784  0.6105  0.1084
  629MOL0     C86732   4.676   3.444   6.084  0.0273  0.1126  0.4163
  629MOL0     H86733   4.995   3.363   5.920 -0.5035 -1.4776 -2.0593
  629MOL0     H86734   5.172   3.278   5.778  0.6654  0.0253  0.3212
  629MOL0     H86735   5.259   3.240   5.529 -0.3760  0.5453  1.3233
  629MOL0     H86736   5.393   3.266   5.654 -0.2054  1.3738  1.5060
  629MOL0     H86737   5.518   3.228   5.452  1.6836  0.9902 -1.7799
  629MOL0     H86738   5.398   3.310   5.349  1.1586  1.3292 -1.1918
  629MOL0     H86739   5.621   3.419   5.373  0.3956 -0.5118  1.0033
  629MOL0     H86740   5.496   3.517   5.438  0.7379 -0.3959 -5.1065
  629MOL0     H86741   5.554   3.461   5.671  0.8115  0.5430  2.1034
  629MOL0     H86742   5.651   3.325   5.631 -1.4199 -0.8280  0.1407
  629MOL0     H86743   5.787   3.513   5.703  1.1186  2.1293  0.2673
  629MOL0     H86744   5.724   3.617   5.576  2.5553  1.0662 -1.1271
  629MOL0     H86745   5.850   3.349   5.525 -0.5256  0.9231  3.1626
  629MOL0     H86746   5.831   3.470   5.407  0.1914 -0.0995  0.1628
  629MOL0     H86747   5.992   3.628   5.515  1.6275 -0.4137 -1.7712
  629MOL0     H86748   6.063   3.479   5.458  0.1039  1.7630 -1.1309
  629MOL0     H86749   6.028   3.563   5.749  1.2224  0.9561 -0.7530
  629MOL0     H86750   6.037   3.391   5.715  0.9559 -0.8415 -2.8784
  629MOL0     H86751   6.262   3.341   5.537  0.2643  0.7362 -1.3538
  629MOL0     H86752   6.570   3.520   5.453  2.2040 -1.1670 -1.3242
  629MOL0     H86753   6.541   3.347   5.499 -2.8875  0.3109  0.5000
  629MOL0     H86754   6.703   3.555   5.651  2.0099 -0.0097 -0.8382
  629MOL0     H86755   6.668   3.399   5.719  1.1452  2.5817  1.4427
  629MOL0     H86756   6.769   3.273   5.544 -1.1882 -0.4629  0.7453
  629MOL0     H86757   6.796   3.434   5.461 -4.1719 -1.5532 -1.3582
  629MOL0     H86758   6.939   3.508   5.636 -1.9422  0.3752  1.9268
  629MOL0     H86759   6.922   3.353   5.721  2.0068 -0.8475 -0.4890
  629MOL0     H86760   7.274   3.254   5.603 -0.6334  0.0929  0.3086
  629MOL0     H86761   7.599   3.400   5.524 -0.1642  0.5204  0.2473
  629MOL0     H86762   7.502   3.263   5.575 -2.3048  0.8990 -3.2235
  629MOL0     H86763   7.559   3.380   5.698  2.8058  0.3720 -1.3957
  629MOL0     H86764   7.569   3.891   5.666  2.5820 -2.5435 -0.2651
  629MOL0     H86765   7.721   4.089   5.676  0.3783  0.6959  0.6991
  629MOL0     H86766   7.968   4.202   5.312  1.2120  0.7592 -0.3341
  629MOL0     H86767   7.834   4.310   5.297 -0.2211  1.1158  1.1912
  629MOL0     H86768   7.954   4.456   5.475 -1.9076 -1.4064 -0.5402
  629MOL0     H86769   8.069   4.322   5.487 -1.1648 -2.1566 -0.3874
  629MOL0     H86770   8.017   4.450   5.218  0.5514  0.7896  0.1414
  629MOL0     H86771   8.162   4.359   5.285  0.9061  1.2666  1.7241
  629MOL0     H86772   8.183   4.566   5.438  0.9802 -2.3480  0.1220
  629MOL0     H86773   8.044   4.627   5.357  0.8559  0.2496  1.3153
  629MOL0     H86774   8.170   4.630   5.146  1.5737  0.7253  0.1927
  629MOL0     H86775   8.221   4.729   5.288 -2.1445 -0.5273  1.0244
  629MOL0     H86776   8.355   4.460   5.234  0.7361  0.4792 -1.0221
  629MOL0     H86777   8.409   4.581   5.344  1.2702 -1.2394 -0.1403
  629MOL0     H86778   8.461   4.728   5.152  0.4352 -0.3333  0.8647
  629MOL0     H86779   8.380   4.602   5.043  3.6801 -1.8638 -2.7535
  629MOL0     H86780   8.544   4.444   5.146 -0.8844  0.0456  1.3232
  629MOL0     H86781   8.638   4.577   5.206  5.0588 -0.9832 -3.8006
  629MOL0     H86782   7.773   4.082   5.251  1.9879 -0.4994  2.1570
  629MOL0     H86783   7.609   3.917   5.230  0.5587 -2.0767 -0.1516
  629MOL0     H86784   7.250   3.707   5.422 -1.7230  0.2998  0.0451
  629MOL0     H86785   7.062   3.581   5.443  0.6059  0.5433  0.4008
  629MOL0     H86786   5.208   3.668   5.606 -0.0773  1.3615  1.5598
  629MOL0     H86787   4.997   3.740   5.721  0.3735  0.8407  1.3171
  629MOL0     H86788   4.716   3.926   6.000  2.6284 -1.0975  0.1232
  629MOL0     H86789   4.512   3.963   6.113 -1.6327 -1.3046 -1.2650
  629MOL0     H86790   4.427   3.885   6.389  0.1780  0.1172  0.5556
  629MOL0     H86791   4.314   3.961   6.270  1.6655  0.7212  0.1240
  629MOL0     H86792   4.225   3.926   6.490  0.7937  1.7450 -0.5836
  629MOL0     H86793   4.251   3.746   6.478 -1.1589  1.3116  2.9017
  629MOL0     H86794   4.046   3.911   6.311  2.0971  0.9519 -0.6633
  629MOL0     H86795   4.091   3.750   6.271 -0.2197 -1.5324  2.0564
  629MOL0     H86796   3.997   3.808   6.558  1.4425  0.1451 -0.3353
  629MOL0     H86797   4.008   3.656   6.480 -1.8132 -0.3453 -1.3189
  629MOL0     H86798   3.627   3.743   6.363  0.3623 -0.8151 -2.6941
  629MOL0     H86799   4.462   3.538   6.171  0.1338  0.2938 -2.2049
  629MOL0     H86800   4.666   3.401   6.184  1.3040 -2.1833 -0.3808
  629MOL0     H86801   4.616   3.388   6.012 -2.6977  0.5314  2.1876
  629MOL0     H86802   4.783   3.433   6.064 -0.0591 -2.0167  0.9297
  630MOL0     O86803   9.223   4.922   8.305 -0.0484  0.3695 -0.0484
  630MOL0     C86804   9.175   4.995   8.396 -1.0969 -0.3307  0.1978
  630MOL0     O86805   9.236   5.112   8.447  0.0536  0.4881  0.6064
  630MOL0     C86806   9.375   5.108   8.442  0.1335  0.2998  0.3505
  630MOL0     C86807   9.438   5.121   8.323  0.0095  0.0340  0.0723
  630MOL0     C86808   9.578   5.120   8.312  0.2209 -0.0898 -0.1234
  630MOL0     C86809   9.656   5.111   8.421 -0.7350 -0.4507 -0.4421
  630MOL0     O86810   9.786   5.120   8.437  0.6239 -0.1164  0.6045
  630MOL0     C86811   9.854   5.223   8.351  0.5903  0.7933 -0.5293
  630MOL0     C86812  10.007   5.191   8.364  0.0389 -0.1331 -0.1596
  630MOL0     C86813  10.088   5.254   8.251 -0.3038 -0.3933  0.0966
  630MOL0     C86814  10.087   5.412   8.253 -0.4045 -0.4203  0.7650
  630MOL0     C86815  10.194   5.462   8.159 -0.0139  0.4897 -0.4718
  630MOL0     C86816  10.210   5.615   8.160 -0.3371 -0.1387  0.5866
  630MOL0     C86817  10.302   5.672   8.041 -0.1768  1.0901  0.3223
  630MOL0     C86818  10.361   5.805   8.068 -0.2434 -0.2438 -0.3913
  630MOL0     N86819  10.451   5.851   7.959 -0.8752 -0.4528 -0.1374
  630MOL0     C86820  10.425   5.906   7.834 -0.3097  0.2471 -0.4310
  630MOL0     C86821  10.551   5.912   7.777  0.3983 -0.2171  0.2330
  630MOL0     C86822  10.582   5.967   7.639 -0.4757 -0.7283  0.2518
  630MOL0     C86823  10.734   5.972   7.606 -0.5700 -0.6320 -0.3355
  630MOL0     C86824  10.773   5.965   7.454 -0.4393  0.3192 -0.0969
  630MOL0     C86825  10.919   6.021   7.439 -0.4995 -0.3528  0.6825
  630MOL0     O86826  10.946   6.155   7.476  0.0861 -0.1733 -0.1471
  630MOL0     C86827  11.074   6.205   7.489  0.2527 -0.0806  0.3224
  630MOL0     C86828  11.083   6.340   7.526  0.5687  0.0455  0.2314
  630MOL0     C86829  11.209   6.405   7.532  0.7292 -0.2998  0.1332
  630MOL0     C86830  11.216   6.556   7.548  0.1350  0.3494  0.8026
  630MOL0     C86831  11.325   6.339   7.494 -0.6114  0.4910  0.3483
  630MOL0     C86832  11.462   6.395   7.497 -0.7424  0.4588  0.2137
  630MOL0     O86833  11.553   6.337   7.412 -0.2450 -0.0307  0.4329
  630MOL0     C86834  11.684   6.372   7.391 -0.0853  0.7225  0.1698
  630MOL0     C86835  11.739   6.414   7.272 -0.0067 -0.1896  0.1597
  630MOL0     C86836  11.868   6.467   7.257  0.3544  0.3081 -0.4234
  630MOL0     C86837  11.946   6.468   7.374 -0.2695  0.1805  0.5751
  630MOL0     O86838  12.083   6.512   7.376 -0.0690  0.1654  0.9924
  630MOL0     C86839  12.143   6.507   7.241  0.6173  0.9709 -0.3373
  630MOL0     C86840  12.137   6.646   7.170 -0.1082  0.4806  0.3118
  630MOL0     C86841  12.162   6.629   7.018 -0.6592 -0.0356  0.4901
  630MOL0     C86842  12.304   6.582   6.984  0.1309 -0.1125 -0.1904
  630MOL0     C86843  12.364   6.660   6.869  0.0269  0.2977  0.4104
  630MOL0     C86844  12.290   6.628   6.730 -0.3025 -0.7655 -0.9055
  630MOL0     C86845  12.349   6.719   6.615 -1.1036 -0.6219 -0.5237
  630MOL0     C86846  12.323   6.654   6.482  0.6323  0.3865  0.4978
  630MOL0    Cl86847  12.146   6.620   6.479 -0.5277  0.5717 -0.0878
  630MOL0     C86848  11.896   6.420   7.494 -0.0148 -0.0327 -0.2773
  630MOL0     C86849  11.764   6.376   7.508  0.1672  0.0359  0.4450
  630MOL0     O86850  11.488   6.499   7.559  0.5560 -0.1396  0.2066
  630MOL0     C86851  11.314   6.200   7.461 -0.2568 -0.3572  0.6916
  630MOL0     C86852  11.190   6.128   7.459  0.3827 -0.3944 -0.2063
  630MOL0     N86853  10.646   5.871   7.867 -0.7233  0.7618 -0.3545
  630MOL0     N86854  10.586   5.818   7.963  0.3076  0.9345  0.2105
  630MOL0     C86855   9.589   5.095   8.548 -0.1123 -0.1539 -0.4290
  630MOL0     C86856   9.447   5.081   8.558  0.5207 -0.4551  0.3025
  630MOL0     C86857   9.037   4.962   8.432 -0.1430  0.3090 -0.3041
  630MOL0     C86858   8.939   4.971   8.329  0.4730 -0.1324 -0.4904
  630MOL0     C86859   8.802   4.945   8.345  0.0973 -0.7342 -0.1679
  630MOL0     C86860   8.761   4.912   8.475  0.2681 -0.2653 -0.0621
  630MOL0     O86861   8.629   4.902   8.499 -0.1469 -0.6043  0.1826
  630MOL0     C86862   8.583   4.906   8.634  1.0747  0.4259  0.6778
  630MOL0     C86863   8.432   4.893   8.638  0.7543  0.4737  0.6799
  630MOL0     C86864   8.387   4.748   8.624  0.2769  0.5935  0.5438
  630MOL0     C86865   8.232   4.730   8.598 -0.4132  0.6131 -0.0420
  630MOL0     C86866   8.204   4.588   8.607  0.5555 -0.2652  0.3128
  630MOL0     C86867   8.179   4.469   8.623 -0.4757 -0.2617  0.3113
  630MOL0     C86868   8.857   4.895   8.580  0.4181  0.1978 -0.4962
  630MOL0     C86869   8.991   4.924   8.562 -0.2865 -0.0203  0.1289
  630MOL0     C86870   9.088   4.898   8.669 -0.1213 -0.0607  0.3376
  630MOL0     H86871   9.377   5.126   8.234  1.8945 -0.4933 -1.3150
  630MOL0     H86872   9.628   5.141   8.217  2.2029 -1.8547  0.4454
  630MOL0     H86873   9.838   5.328   8.376  0.7540  0.8259 -0.5630
  630MOL0     H86874   9.823   5.211   8.246  0.2037 -0.6185 -0.2839
  630MOL0     H86875  10.032   5.247   8.455  0.2133 -0.7738  0.1981
  630MOL0     H86876  10.025   5.083   8.369  0.7873 -0.1223 -2.0516
  630MOL0     H86877  10.194   5.229   8.254 -0.6383 -1.7969  1.0194
  630MOL0     H86878  10.038   5.211   8.163 -2.3246  1.9375 -0.0129
  630MOL0     H86879   9.990   5.451   8.224  1.0103  1.5751 -1.7145
  630MOL0     H86880  10.108   5.443   8.356  1.0052  0.1571  0.3334
  630MOL0     H86881  10.169   5.426   8.058 -0.6962 -0.1881 -0.0716
  630MOL0     H86882  10.288   5.414   8.186 -0.6501 -0.7381 -0.3424
  630MOL0     H86883  10.120   5.676   8.155  0.9450  1.7600 -1.9962
  630MOL0     H86884  10.257   5.643   8.254  1.0027 -2.5642  0.7222
  630MOL0     H86885  10.239   5.680   7.951 -0.0811  0.6671  0.2177
  630MOL0     H86886  10.385   5.604   8.020 -1.3789 -0.2494 -0.2546
  630MOL0     H86887  10.276   5.874   8.075  1.0888  1.5259 -0.9440
  630MOL0     H86888  10.420   5.792   8.158  1.0672  2.2122 -0.8217
  630MOL0     H86889  10.331   5.937   7.789 -0.7035  1.4251  1.1099
  630MOL0     H86890  10.548   6.070   7.632 -0.8433 -0.8373  0.4064
  630MOL0     H86891  10.534   5.912   7.558 -0.5764 -0.1556 -0.0757
  630MOL0     H86892  10.772   6.062   7.656 -0.1800 -0.9759 -0.0133
  630MOL0     H86893  10.787   5.886   7.648  0.4237  0.7941  1.4780
  630MOL0     H86894  10.764   5.864   7.414  0.7610  0.7373 -1.5154
  630MOL0     H86895  10.705   6.020   7.388  0.8492  2.2356  0.0804
  630MOL0     H86896  10.994   5.959   7.489  1.9854  1.9674  0.0195
  630MOL0     H86897  10.930   6.020   7.330 -2.8780  1.2569  0.3549
  630MOL0     H86898  10.999   6.394   7.568  0.2180 -0.8278  0.6675
  630MOL0     H86899  11.259   6.580   7.646 -0.3857 -0.9303  1.3567
  630MOL0     H86900  11.118   6.606   7.551  0.6868  1.5757 -0.3226
  630MOL0     H86901  11.259   6.617   7.468 -2.5929 -1.5611 -2.3567
  630MOL0     H86902  11.691   6.428   7.176 -0.2454 -1.3475  0.0946
  630MOL0     H86903  11.903   6.519   7.169 -0.6916  4.2099  1.2582
  630MOL0     H86904  12.251   6.503   7.260  0.3927  0.3221  0.8877
  630MOL0     H86905  12.100   6.434   7.171 -1.9827  1.4470  0.6586
  630MOL0     H86906  12.040   6.696   7.170  2.0281  5.2774 -1.7234
  630MOL0     H86907  12.205   6.716   7.220  1.7820 -1.7356  1.0543
  630MOL0     H86908  12.144   6.720   6.960 -1.2341  1.4232  2.8461
  630MOL0     H86909  12.087   6.560   6.978 -0.5740 -0.2825  0.7549
  630MOL0     H86910  12.299   6.475   6.960 -1.1295 -0.0239 -0.3722
  630MOL0     H86911  12.366   6.600   7.072 -0.1355  0.6662 -0.1567
  630MOL0     H86912  12.352   6.768   6.879  0.9067  0.3875  0.5780
  630MOL0     H86913  12.472   6.646   6.859  0.0888 -0.3864  1.7487
  630MOL0     H86914  12.185   6.658   6.739  0.1346  0.1999  1.7728
  630MOL0     H86915  12.289   6.523   6.699 -1.0624 -0.4819 -1.9047
  630MOL0     H86916  12.455   6.738   6.633 -1.6482  1.1593  1.2935
  630MOL0     H86917  12.303   6.819   6.622  1.1018  0.3948  0.4916
  630MOL0     H86918  12.374   6.558   6.477  1.1265  0.6672 -0.1181
  630MOL0     H86919  12.337   6.714   6.391  1.4258 -2.0413 -1.0747
  630MOL0     H86920  11.964   6.409   7.577  0.5013 -1.5872 -0.8752
  630MOL0     H86921  11.733   6.341   7.606 -1.6950 -3.5808 -1.2069
  630MOL0     H86922  11.410   6.156   7.440  1.3432  3.1884 -0.2143
  630MOL0     H86923  11.196   6.026   7.422  1.1278 -0.0201 -1.1467
  630MOL0     H86924   9.648   5.078   8.638 -0.4319 -1.5569 -0.4590
  630MOL0     H86925   9.401   5.064   8.655 -0.4939  3.4675  0.7101
  630MOL0     H86926   8.975   4.999   8.230 -0.4936  0.1717 -0.7655
  630MOL0     H86927   8.737   4.959   8.260 -0.4789  2.7552  0.6958
  630MOL0     H86928   8.622   4.832   8.704 -0.3212 -0.9554  0.0372
  630MOL0     H86929   8.608   5.004   8.678 -0.9678  0.9564  0.7436
  630MOL0     H86930   8.386   4.943   8.552  2.5083  0.5169 -0.2652
  630MOL0     H86931   8.392   4.935   8.731  0.2152  0.6527  0.3687
  630MOL0     H86932   8.453   4.691   8.558  0.3059  0.5352  0.6215
  630MOL0     H86933   8.418   4.692   8.712 -0.7767 -3.5800 -1.4746
  630MOL0     H86934   8.202   4.756   8.496 -1.4155 -2.1604 -0.5469
  630MOL0     H86935   8.168   4.768   8.678 -0.0846 -2.1897  1.6830
  630MOL0     H86936   8.155   4.365   8.627 -0.6714 -0.2632 -0.6830
  630MOL0     H86937   8.827   4.869   8.681  2.2921 -4.4967 -0.9220
  630MOL0     H86938   9.033   4.859   8.754 -3.7014 -0.7020 -2.0673
  630MOL0     H86939   9.164   4.827   8.634  0.1708 -0.2926  1.3984
  630MOL0     H86940   9.140   4.989   8.701  1.0356 -1.5576  2.9736
  631MOL0     O86941   0.927   3.268   7.648  0.6471  0.3529 -0.0080
  631MOL0     C86942   0.909   3.195   7.743  0.3553 -0.4502  0.5205
  631MOL0     O86943   0.821   3.090   7.749 -0.6363 -0.3936 -0.0120
  631MOL0     C86944   0.710   3.075   7.673  0.3071 -0.4529  0.0352
  631MOL0     C86945   0.720   3.026   7.544 -0.8395  0.5387 -0.2888
  631MOL0     C86946   0.611   3.006   7.464  0.4951 -0.4013  0.6077
  631MOL0     C86947   0.483   3.048   7.508  0.2810  0.1861  0.2257
  631MOL0     O86948   0.383   3.026   7.411  0.1412  0.1642 -0.0775
  631MOL0     C86949   0.252   3.065   7.446  0.0647  0.0178 -0.4924
  631MOL0     C86950   0.145   3.024   7.344 -0.5068 -0.1365 -0.1443
  631MOL0     C86951   0.010   3.072   7.398  0.3463  0.0842 -0.7582
  631MOL0     C86952  -0.100   3.026   7.309 -0.4177 -0.2988 -0.5045
  631MOL0     C86953  -0.235   3.043   7.391  0.9045 -0.3007  0.4247
  631MOL0     C86954  -0.348   2.971   7.319 -0.4859 -0.2842  1.6564
  631MOL0     C86955  -0.372   3.020   7.169  0.2332 -0.3168 -0.0727
  631MOL0     C86956  -0.438   3.148   7.166  0.5531  0.1699  0.4198
  631MOL0     N86957  -0.588   3.146   7.144  0.1499 -0.6304  0.2583
  631MOL0     C86958  -0.685   3.084   7.215 -0.2597 -0.7783 -0.4755
  631MOL0     C86959  -0.798   3.103   7.134  0.7287 -0.0763  0.9870
  631MOL0     C86960  -0.928   3.043   7.161  0.0173  0.3410 -0.3857
  631MOL0     C86961  -0.914   2.893   7.145  0.1432 -1.1339  0.4168
  631MOL0     C86962  -0.902   2.847   6.993 -0.1430 -0.2115  0.3329
  631MOL0     C86963  -0.911   2.692   6.994  0.5833  0.9157 -0.6619
  631MOL0     O86964  -0.828   2.632   7.093 -0.0484 -0.3852 -0.6962
  631MOL0     C86965  -0.695   2.628   7.071  0.0148 -0.6586 -0.1373
  631MOL0     C86966  -0.613   2.602   7.182  0.2338  0.0242 -0.2895
  631MOL0     C86967  -0.476   2.585   7.169  0.2934  0.4806  0.1821
  631MOL0     C86968  -0.403   2.563   7.293 -0.0784  0.4903 -0.1223
  631MOL0     C86969  -0.409   2.601   7.045 -0.3460  0.2562 -0.2906
  631MOL0     C86970  -0.257   2.609   7.020 -0.8807 -0.4562 -0.6738
  631MOL0     O86971  -0.210   2.554   6.902 -0.7506 -0.1984 -0.0901
  631MOL0     C86972  -0.084   2.568   6.864 -0.5892 -0.5190 -0.7870
  631MOL0     C86973   0.016   2.501   6.938  0.4188 -0.7149  0.3787
  631MOL0     C86974   0.148   2.508   6.886 -0.8440  0.1719  0.3020
  631MOL0     C86975   0.185   2.580   6.780 -0.7682 -0.2326  0.5507
  631MOL0     O86976   0.321   2.598   6.754  0.3525 -0.0497  0.0893
  631MOL0     C86977   0.397   2.477   6.740 -0.0579 -0.1637  0.6997
  631MOL0     C86978   0.535   2.487   6.802 -0.0065  0.5235 -0.3536
  631MOL0     C86979   0.545   2.460   6.952  0.0392 -0.0759 -0.7525
  631MOL0     C86980   0.687   2.447   7.013  0.0395 -0.6142 -0.4379
  631MOL0     C86981   0.699   2.466   7.166  0.0564  0.5189 -0.7234
  631MOL0     C86982   0.837   2.416   7.215  0.6193 -0.3088 -0.2767
  631MOL0     C86983   0.901   2.528   7.309 -0.8023 -0.6353 -0.5190
  631MOL0     C86984   0.816   2.565   7.436  0.3982 -0.8792 -0.6402
  631MOL0    Cl86985   0.910   2.670   7.547 -0.1537 -0.2026 -0.1712
  631MOL0     C86986   0.088   2.656   6.717  0.5113 -0.4234 -0.1958
  631MOL0     C86987  -0.046   2.653   6.760  0.2161  0.1041  0.5393
  631MOL0     O86988  -0.184   2.662   7.110  0.7433 -0.6211 -0.3136
  631MOL0     C86989  -0.495   2.620   6.941 -0.4179 -0.3694  0.6956
  631MOL0     C86990  -0.632   2.633   6.945 -0.3390  0.3253 -0.2121
  631MOL0     N86991  -0.762   3.177   7.023 -0.8127  0.0886  0.0896
  631MOL0     N86992  -0.634   3.202   7.031  0.6350  0.1816 -0.4743
  631MOL0     C86993   0.470   3.096   7.634  0.0968  0.3439 -0.0560
  631MOL0     C86994   0.585   3.110   7.721  0.7969 -1.0597 -0.1457
  631MOL0     C86995   0.972   3.228   7.872  0.4319  0.6505 -0.3206
  631MOL0     C86996   0.911   3.174   7.991 -0.7779 -0.0297 -0.7087
  631MOL0     C86997   0.958   3.225   8.119  0.8425  0.1706  0.0149
  631MOL0     C86998   1.075   3.298   8.129 -0.5769 -0.4563  0.2677
  631MOL0     O86999   1.112   3.350   8.246 -1.3040 -0.2159  0.4617
  631MOL0     C87000   1.180   3.272   8.346  0.6998 -0.4942 -0.0385
  631MOL0     C87001   1.193   3.353   8.480 -0.3231  0.1782 -0.2209
  631MOL0     C87002   1.245   3.251   8.580 -0.8148 -0.1783 -0.5788
  631MOL0     C87003   1.299   3.323   8.710  1.0802 -0.0963 -0.1049
  631MOL0     C87004   1.298   3.229   8.816 -0.2787 -0.6436  0.1891
  631MOL0     C87005   1.308   3.141   8.902 -1.0230 -0.5641  0.5556
  631MOL0     C87006   1.142   3.328   8.009  0.5108 -0.1994 -0.2970
  631MOL0     C87007   1.091   3.296   7.884 -0.0996  0.9207  0.2558
  631MOL0     C87008   1.164   3.354   7.763 -0.3883 -0.3398  0.8429
  631MOL0     H87009   0.817   2.995   7.506 -1.2108  0.3742 -1.1336
  631MOL0     H87010   0.614   2.981   7.358 -3.0187 -1.1553  0.5552
  631MOL0     H87011   0.259   3.174   7.447  1.2626 -0.0118  1.6359
  631MOL0     H87012   0.209   3.036   7.543 -1.1699 -0.6997 -1.2263
  631MOL0     H87013   0.150   3.075   7.247 -0.1060  0.8848  0.3987
  631MOL0     H87014   0.155   2.915   7.334 -1.1436 -0.2540  0.4250
  631MOL0     H87015  -0.012   3.051   7.503 -1.4282 -0.5478 -1.2320
  631MOL0     H87016   0.016   3.181   7.396  2.7842 -0.0008 -1.8626
  631MOL0     H87017  -0.110   3.079   7.214 -0.0778 -3.0983 -2.2071
  631MOL0     H87018  -0.089   2.920   7.283 -3.3287 -1.5688  2.7046
  631MOL0     H87019  -0.258   3.150   7.396 -1.0447 -0.5369 -1.8807
  631MOL0     H87020  -0.232   2.990   7.487 -1.0976 -1.2951 -0.0187
  631MOL0     H87021  -0.328   2.864   7.326 -4.4859 -1.1341  2.2129
  631MOL0     H87022  -0.444   2.991   7.368 -1.7930  0.8811 -1.1759
  631MOL0     H87023  -0.429   2.943   7.115 -1.9018  0.7493  0.5675
  631MOL0     H87024  -0.278   3.044   7.118  0.9881  1.3268  1.9681
  631MOL0     H87025  -0.416   3.189   7.265 -3.7979 -2.1440  2.6026
  631MOL0     H87026  -0.395   3.207   7.084  0.4709  1.5905  1.3569
  631MOL0     H87027  -0.680   3.030   7.309  0.3922 -2.0098 -1.1892
  631MOL0     H87028  -1.009   3.077   7.097 -1.5362 -0.5087  1.0432
  631MOL0     H87029  -0.946   3.069   7.266  0.8634  2.3955 -0.7101
  631MOL0     H87030  -0.820   2.855   7.187  0.9454 -0.2990 -0.5751
  631MOL0     H87031  -0.998   2.846   7.196 -1.3494 -0.6149 -1.4532
  631MOL0     H87032  -0.986   2.893   6.941 -0.5759  0.1885  1.3542
  631MOL0     H87033  -0.807   2.889   6.959  0.6777 -0.8730  1.7175
  631MOL0     H87034  -1.013   2.660   7.018  1.5584 -1.3978  0.7092
  631MOL0     H87035  -0.886   2.654   6.895 -0.6188 -0.9329 -0.3098
  631MOL0     H87036  -0.662   2.591   7.278  2.4636 -2.0244  0.7229
  631MOL0     H87037  -0.369   2.656   7.340  4.2304 -0.6137 -0.6200
  631MOL0     H87038  -0.316   2.500   7.273 -1.8021 -0.9495 -3.9818
  631MOL0     H87039  -0.469   2.524   7.371  3.2255 -2.1997  1.6103
  631MOL0     H87040  -0.006   2.447   7.029 -0.7848  1.2328  1.3167
  631MOL0     H87041   0.224   2.462   6.949 -1.7853 -1.9293 -0.0120
  631MOL0     H87042   0.356   2.383   6.777  0.1477 -1.5890 -2.3845
  631MOL0     H87043   0.416   2.466   6.633 -1.3383 -1.4025  0.5746
  631MOL0     H87044   0.589   2.401   6.760  1.4254  0.0330  2.2563
  631MOL0     H87045   0.590   2.577   6.774 -1.4770  1.3479 -0.6694
  631MOL0     H87046   0.511   2.357   6.972  1.7147 -0.4913  0.1127
  631MOL0     H87047   0.489   2.533   7.011  1.2935 -2.3159  3.6591
  631MOL0     H87048   0.747   2.525   6.965  1.4077 -1.3127  0.1002
  631MOL0     H87049   0.726   2.348   6.988  2.7284  0.7368 -2.0849
  631MOL0     H87050   0.691   2.575   7.171  0.1118  0.5035 -0.2518
  631MOL0     H87051   0.624   2.418   7.230  0.2369  0.4252 -0.5811
  631MOL0     H87052   0.908   2.403   7.134 -1.7267 -1.5873 -2.2636
  631MOL0     H87053   0.829   2.320   7.268  1.8524 -0.2667  0.0182
  631MOL0     H87054   0.927   2.620   7.255 -1.5036  0.1622  0.4446
  631MOL0     H87055   0.993   2.483   7.348  1.0860  1.6900 -1.9951
  631MOL0     H87056   0.787   2.476   7.493  2.0802 -0.0842  1.6024
  631MOL0     H87057   0.717   2.604   7.409  1.9168  2.5849 -1.8017
  631MOL0     H87058   0.117   2.739   6.653 -2.6073 -0.8119 -2.3594
  631MOL0     H87059  -0.117   2.719   6.711  2.1991  0.2351 -2.3901
  631MOL0     H87060  -0.444   2.645   6.848 -0.5661  3.4769  1.4945
  631MOL0     H87061  -0.682   2.626   6.849  1.3166 -3.5414 -1.0063
  631MOL0     H87062   0.374   3.129   7.672 -0.6358  0.6915 -2.1049
  631MOL0     H87063   0.584   3.166   7.814 -0.0602  0.9940 -1.3067
  631MOL0     H87064   0.828   3.105   7.981 -1.0108  0.0880  0.3191
  631MOL0     H87065   0.891   3.219   8.204 -2.2349  1.9879 -2.0458
  631MOL0     H87066   1.122   3.181   8.361 -0.5174 -0.6090 -4.2401
  631MOL0     H87067   1.279   3.246   8.306  0.0275 -0.1926 -1.9786
  631MOL0     H87068   1.099   3.379   8.529  0.0493 -2.3542  2.0643
  631MOL0     H87069   1.255   3.444   8.472  1.3501 -1.0367 -2.0883
  631MOL0     H87070   1.164   3.186   8.614 -0.3058 -2.5049 -3.3504
  631MOL0     H87071   1.332   3.193   8.547  0.2558 -0.8047  2.9467
  631MOL0     H87072   1.231   3.403   8.740  1.4537  0.9392 -1.8530
  631MOL0     H87073   1.399   3.366   8.700  0.3579  2.0419  1.2380
  631MOL0     H87074   1.337   3.050   8.950 -1.9492 -1.1875 -0.0457
  631MOL0     H87075   1.228   3.393   8.015 -0.6749  1.5209 -1.0886
  631MOL0     H87076   1.115   3.446   7.731 -1.5121 -1.4830 -0.9068
  631MOL0     H87077   1.264   3.379   7.799 -0.6649  2.2402  0.0031
  631MOL0     H87078   1.171   3.291   7.674  0.0945  3.2262 -1.8445
  632MOL0     O87079   3.691   6.795   9.772 -0.4388  0.1419  0.5032
  632MOL0     C87080   3.775   6.871   9.819 -0.2239  0.7572  0.1435
  632MOL0     O87081   3.739   6.986   9.884  0.3887  0.3056  1.5385
  632MOL0     C87082   3.603   7.009   9.896  0.3851  0.4786 -0.2870
  632MOL0     C87083   3.535   6.960  10.010  0.1530  0.2860  0.3249
  632MOL0     C87084   3.397   6.994  10.033 -0.4247 -0.0633  0.1481
  632MOL0     C87085   3.335   7.085   9.947  0.3711  0.3387 -0.1225
  632MOL0     O87086   3.211   7.142   9.978 -0.4318  0.0609 -0.0177
  632MOL0     C87087   3.096   7.096   9.916 -0.6388 -0.2069  0.5252
  632MOL0     C87088   2.991   7.204   9.942 -0.8708 -0.4018 -0.8802
  632MOL0     C87089   3.034   7.348   9.898  0.0773  0.7403 -0.2180
  632MOL0     C87090   2.917   7.448   9.912 -0.4878 -0.6340 -0.3251
  632MOL0     C87091   2.782   7.419   9.827 -0.5225 -0.2962 -0.3870
  632MOL0     C87092   2.670   7.528   9.868  0.8665 -0.1353  0.4109
  632MOL0     C87093   2.556   7.524   9.758 -0.5157 -0.6783 -0.6027
  632MOL0     C87094   2.612   7.582   9.627 -0.0354 -0.3907 -0.4086
  632MOL0     N87095   2.515   7.646   9.540 -1.2030 -0.6238 -0.1992
  632MOL0     C87096   2.385   7.612   9.513  0.2463 -0.4082  0.5489
  632MOL0     C87097   2.347   7.689   9.405 -0.4057  0.3792 -0.0017
  632MOL0     C87098   2.218   7.693   9.330  0.1561  0.0728  0.2018
  632MOL0     C87099   2.097   7.665   9.419  0.3098  1.1069 -0.0558
  632MOL0     C87100   1.964   7.675   9.328 -1.7975  0.1369  0.3338
  632MOL0     C87101   1.848   7.622   9.390 -0.6325  0.3170  0.9508
  632MOL0     O87102   1.736   7.633   9.297  0.0507  0.7119 -0.5071
  632MOL0     C87103   1.617   7.578   9.334 -1.2040 -0.4278 -0.3865
  632MOL0     C87104   1.585   7.533   9.462 -0.7938 -0.1872 -0.3341
  632MOL0     C87105   1.466   7.477   9.506  0.7925  0.6661 -0.2164
  632MOL0     C87106   1.458   7.420   9.652  1.2533 -0.0110 -0.7788
  632MOL0     C87107   1.364   7.460   9.407  0.1648 -0.2524 -0.3994
  632MOL0     C87108   1.231   7.399   9.428 -0.1936  0.0574  0.8316
  632MOL0     O87109   1.166   7.360   9.314 -0.3015  0.0208  0.3739
  632MOL0     C87110   1.029   7.328   9.326  0.4348 -0.6089  0.2131
  632MOL0     C87111   0.932   7.420   9.374  0.2406 -1.0565 -0.3279
  632MOL0     C87112   0.790   7.395   9.357  0.6766 -1.0858 -0.2267
  632MOL0     C87113   0.745   7.276   9.292 -0.5851  1.0018 -0.2122
  632MOL0     O87114   0.612   7.257   9.271 -0.0204  0.1776 -0.4418
  632MOL0     C87115   0.569   7.170   9.172  0.0275  0.1348  0.6683
  632MOL0     C87116   0.416   7.153   9.183  0.8223 -0.0240 -0.1217
  632MOL0     C87117   0.372   7.040   9.274  1.3623 -0.4793  0.3060
  632MOL0     C87118   0.214   7.025   9.271  0.3813 -0.2247  0.7349
  632MOL0     C87119   0.167   6.913   9.354 -0.0690 -0.3670  0.4663
  632MOL0     C87120   0.017   6.898   9.335  0.1449  0.0848 -0.0021
  632MOL0     C87121  -0.033   6.786   9.433 -0.1797  0.0838  1.0608
  632MOL0     C87122  -0.170   6.738   9.390  0.1751 -0.1501 -0.4417
  632MOL0    Cl87123  -0.160   6.666   9.225 -0.5942  0.6611 -0.1954
  632MOL0     C87124   0.841   7.197   9.227  0.2062 -0.4056 -1.2632
  632MOL0     C87125   0.981   7.221   9.243  0.3032 -0.5133 -0.3279
  632MOL0     O87126   1.186   7.401   9.540 -0.0400  0.2392  0.3134
  632MOL0     C87127   1.394   7.510   9.272 -0.0425 -0.5776  0.3076
  632MOL0     C87128   1.523   7.575   9.241  0.1656  0.3307  0.7261
  632MOL0     N87129   2.452   7.781   9.392  0.2210 -0.0015  0.3652
  632MOL0     N87130   2.546   7.763   9.475  0.1204  0.1491 -0.5158
  632MOL0     C87131   3.399   7.120   9.820 -0.0114 -0.0773 -0.2522
  632MOL0     C87132   3.532   7.091   9.799  0.5389  0.4902 -0.2958
  632MOL0     C87133   3.914   6.825   9.818  0.1491 -0.1170 -0.0804
  632MOL0     C87134   4.009   6.915   9.866  0.6256 -0.6102 -0.2380
  632MOL0     C87135   4.147   6.889   9.855 -0.9674 -0.2821  0.0797
  632MOL0     C87136   4.186   6.777   9.781  0.0790 -0.1159  0.1982
  632MOL0     O87137   4.326   6.757   9.770 -0.4408  0.0214  0.0360
  632MOL0     C87138   4.377   6.682   9.661  0.7455  0.0326 -0.2552
  632MOL0     C87139   4.516   6.732   9.631  0.3438  0.1003  0.2639
  632MOL0     C87140   4.570   6.657   9.504  0.6530  0.5318 -0.8996
  632MOL0     C87141   4.710   6.695   9.474 -0.2311  0.0649 -0.1184
  632MOL0     C87142   4.803   6.686   9.589  0.0099 -0.4214 -0.0071
  632MOL0     C87143   4.880   6.680   9.681  1.1382  0.0821 -0.1732
  632MOL0     C87144   4.097   6.681   9.750  0.7979  0.7294  0.2193
  632MOL0     C87145   3.960   6.707   9.761 -0.2452  0.5689  0.7634
  632MOL0     C87146   3.873   6.610   9.684 -0.5147 -0.2860 -0.5601
  632MOL0     H87147   3.590   6.905  10.086 -1.7220  0.4425  1.8532
  632MOL0     H87148   3.351   6.949  10.120  0.6531  4.4533  3.3755
  632MOL0     H87149   3.057   7.013   9.974 -0.0241 -2.5600 -2.2225
  632MOL0     H87150   3.111   7.069   9.811  1.2125 -1.3734  1.0478
  632MOL0     H87151   2.900   7.175   9.888 -1.6919  0.2413  0.1072
  632MOL0     H87152   2.978   7.206  10.051  3.4956  0.4446 -0.2245
  632MOL0     H87153   3.113   7.385   9.964 -0.0283 -0.8021  0.8526
  632MOL0     H87154   3.078   7.356   9.798 -0.9825 -0.8738 -0.8496
  632MOL0     H87155   2.896   7.447  10.019 -0.6199 -1.6221 -0.3548
  632MOL0     H87156   2.951   7.549   9.886 -1.0147  0.4829  2.9091
  632MOL0     H87157   2.753   7.314   9.822  2.1563 -1.1569  0.6017
  632MOL0     H87158   2.816   7.442   9.726  0.8546  2.9628  0.6710
  632MOL0     H87159   2.622   7.504   9.963 -1.3932 -2.4385 -1.1739
  632MOL0     H87160   2.714   7.628   9.873  0.4344  0.1427 -0.7831
  632MOL0     H87161   2.469   7.576   9.799  2.0431  2.2941  1.5112
  632MOL0     H87162   2.521   7.421   9.750 -2.3830 -0.6920  4.2816
  632MOL0     H87163   2.668   7.668   9.667 -2.4686  1.0745  0.0546
  632MOL0     H87164   2.673   7.511   9.571 -0.2750 -0.4886 -0.5463
  632MOL0     H87165   2.334   7.523   9.549 -0.0701 -0.8108 -0.8179
  632MOL0     H87166   2.226   7.627   9.243  1.8558  1.6894 -0.9740
  632MOL0     H87167   2.227   7.788   9.275  0.2887 -1.2355 -2.1848
  632MOL0     H87168   2.101   7.563   9.460 -3.3526 -0.6901 -3.4910
  632MOL0     H87169   2.089   7.739   9.499 -1.6429  2.9982 -1.8733
  632MOL0     H87170   1.935   7.777   9.299 -1.7690  0.5938  1.8099
  632MOL0     H87171   1.976   7.625   9.232  0.0758 -1.9121  1.5467
  632MOL0     H87172   1.859   7.519   9.424  0.6665  0.9486  2.5583
  632MOL0     H87173   1.823   7.672   9.484 -0.8429  0.6660  0.7111
  632MOL0     H87174   1.663   7.540   9.537 -1.8489 -0.7390  0.8576
  632MOL0     H87175   1.554   7.428   9.704  0.7208 -2.5085  0.7571
  632MOL0     H87176   1.415   7.320   9.662 -0.8197  1.0168  1.5731
  632MOL0     H87177   1.372   7.464   9.703 -0.5573 -2.0911 -1.8348
  632MOL0     H87178   0.973   7.509   9.423 -0.0548 -1.1678  0.1231
  632MOL0     H87179   0.722   7.463   9.407 -1.4586 -2.2127 -1.4433
  632MOL0     H87180   0.586   7.206   9.071 -0.8955  0.4710  0.6173
  632MOL0     H87181   0.603   7.066   9.173 -3.0771 -1.0043 -0.4176
  632MOL0     H87182   0.361   7.242   9.217  2.3594  0.5356  1.0414
  632MOL0     H87183   0.389   7.125   9.081  1.5289  1.9004 -0.8929
  632MOL0     H87184   0.390   7.071   9.377 -0.9423 -1.6054  1.1230
  632MOL0     H87185   0.419   6.944   9.251 -1.2194 -1.4559 -1.3934
  632MOL0     H87186   0.193   6.994   9.169 -2.2007 -1.2988  1.5211
  632MOL0     H87187   0.170   7.122   9.295  0.0377  0.2314 -1.5448
  632MOL0     H87188   0.220   6.819   9.336  0.1279 -0.3106  0.7498
  632MOL0     H87189   0.177   6.939   9.460 -1.8048 -2.0558  1.0921
  632MOL0     H87190  -0.004   6.873   9.230 -3.0444 -0.8681  0.7544
  632MOL0     H87191  -0.030   6.995   9.354  0.0944  0.0192  0.1992
  632MOL0     H87192  -0.028   6.824   9.535  1.2405  1.6124  0.4732
  632MOL0     H87193   0.033   6.700   9.420  3.3341  2.6786  0.2110
  632MOL0     H87194  -0.237   6.823   9.404  0.2905 -0.1651  0.2614
  632MOL0     H87195  -0.213   6.655   9.446 -0.8099  1.4750  1.3162
  632MOL0     H87196   0.818   7.109   9.168  1.2522 -1.1995 -0.5312
  632MOL0     H87197   1.042   7.146   9.193  1.9607  0.1163  0.6927
  632MOL0     H87198   1.327   7.518   9.187  0.7633  2.2062 -0.1692
  632MOL0     H87199   1.528   7.614   9.139 -0.9658  0.4279  0.6859
  632MOL0     H87200   3.350   7.176   9.741  1.4645 -1.8987 -2.5997
  632MOL0     H87201   3.581   7.142   9.718 -1.3655  2.5315 -0.2698
  632MOL0     H87202   3.982   7.012   9.907 -0.8049 -0.1658 -2.1177
  632MOL0     H87203   4.223   6.955   9.896 -1.6417 -0.0523  1.0073
  632MOL0     H87204   4.371   6.575   9.681 -1.7860 -0.2417 -2.0199
  632MOL0     H87205   4.312   6.699   9.574 -0.7025 -2.2194  0.2875
  632MOL0     H87206   4.581   6.720   9.717  0.0187 -0.1603  0.4769
  632MOL0     H87207   4.503   6.836   9.600  2.3007 -0.9286 -5.3614
  632MOL0     H87208   4.553   6.549   9.509 -1.6277  0.7299 -2.6329
  632MOL0     H87209   4.509   6.683   9.417  2.1129 -0.7288 -2.3452
  632MOL0     H87210   4.710   6.803   9.459 -1.9110  0.9116  4.3455
  632MOL0     H87211   4.756   6.649   9.386 -0.3666 -1.4518  0.5815
  632MOL0     H87212   4.929   6.670   9.776  0.5333  0.5709  0.1940
  632MOL0     H87213   4.120   6.579   9.719  1.2403  0.2179  2.0939
  632MOL0     H87214   3.789   6.591   9.752  0.3378  1.4112  1.0365
  632MOL0     H87215   3.828   6.650   9.593 -1.5146  0.1575  0.1008
  632MOL0     H87216   3.920   6.511   9.676 -1.3155 -0.8037  0.7524
  633MOL0     O87217   6.560   0.940   2.340  0.1277  0.0708  0.2404
  633MOL0     C87218   6.562   1.055   2.296 -0.1274  1.0239  0.6673
  633MOL0     O87219   6.675   1.133   2.276 -0.2865  0.5342 -0.3390
  633MOL0     C87220   6.798   1.077   2.309 -0.9848 -0.3111 -0.7759
  633MOL0     C87221   6.895   1.072   2.205  0.0252 -0.1950  1.0155
  633MOL0     C87222   7.031   1.035   2.235 -0.3877 -0.8388  0.6053
  633MOL0     C87223   7.070   0.999   2.361 -0.5947  0.4761 -0.2396
  633MOL0     O87224   7.199   0.958   2.379 -0.9176  0.8441  0.2959
  633MOL0     C87225   7.262   1.025   2.484 -0.6237 -0.0496 -0.1018
  633MOL0     C87226   7.413   1.040   2.468  0.6776 -0.3565 -0.3564
  633MOL0     C87227   7.473   0.899   2.452 -0.5014  0.1628 -0.2809
  633MOL0     C87228   7.624   0.901   2.417  0.4083 -0.3711 -0.0771
  633MOL0     C87229   7.723   0.994   2.503  0.0498  0.2981  0.3014
  633MOL0     C87230   7.726   0.946   2.654 -0.5174 -0.5740  0.6103
  633MOL0     C87231   7.804   1.053   2.738  0.0334 -1.0774 -0.2864
  633MOL0     C87232   7.796   1.043   2.886 -1.2191 -0.0143  0.3360
  633MOL0     N87233   7.867   1.156   2.953  0.0586  0.4575  0.1755
  633MOL0     C87234   7.827   1.289   2.964  0.8422  0.5689  0.0740
  633MOL0     C87235   7.915   1.348   3.046 -0.4552  0.6654  0.2260
  633MOL0     C87236   7.906   1.499   3.067  0.4155  0.9903  0.1284
  633MOL0     C87237   8.030   1.550   3.134 -0.3539 -0.0594  0.3402
  633MOL0     C87238   8.006   1.697   3.167  0.3137  0.0909  0.5780
  633MOL0     C87239   8.128   1.736   3.247  1.2075 -0.7630 -0.5170
  633MOL0     O87240   8.243   1.755   3.162 -0.4869 -0.5746  1.1679
  633MOL0     C87241   8.376   1.748   3.214  0.0627  0.3043 -0.4547
  633MOL0     C87242   8.394   1.755   3.352  0.0635 -0.6518  0.0339
  633MOL0     C87243   8.524   1.747   3.412 -0.4858  0.0433 -0.2754
  633MOL0     C87244   8.542   1.794   3.544  0.4403 -0.2557 -0.4204
  633MOL0     C87245   8.641   1.707   3.335  0.3854  0.1339  0.8491
  633MOL0     C87246   8.780   1.681   3.378 -0.0684 -0.8429  0.0360
  633MOL0     O87247   8.877   1.689   3.288 -0.6324  0.1220  0.6848
  633MOL0     C87248   9.012   1.658   3.312 -0.3614 -0.0887 -0.6143
  633MOL0     C87249   9.097   1.718   3.218  0.1747 -0.1265  0.6966
  633MOL0     C87250   9.233   1.682   3.210 -0.0482 -0.0611 -0.0918
  633MOL0     C87251   9.283   1.594   3.307 -0.6705 -0.6048  0.1788
  633MOL0     O87252   9.418   1.581   3.292 -0.0202  0.1177  0.0547
  633MOL0     C87253   9.492   1.557   3.413 -0.6198 -0.5392  0.2195
  633MOL0     C87254   9.621   1.638   3.424 -0.2598 -0.3575 -0.0517
  633MOL0     C87255   9.684   1.652   3.279 -0.2273 -0.2654 -0.7706
  633MOL0     C87256   9.825   1.710   3.292 -0.0172  0.7133 -0.0819
  633MOL0     C87257   9.882   1.699   3.152  0.8994  0.2855  0.8618
  633MOL0     C87258  10.041   1.704   3.155  0.5659  0.1064 -1.1248
  633MOL0     C87259  10.104   1.693   3.018 -0.1503 -0.2411  0.4023
  633MOL0     C87260  10.248   1.647   3.030 -0.1456 -0.4885 -0.1474
  633MOL0    Cl87261  10.344   1.744   3.147  0.4152  0.0577 -0.1087
  633MOL0     C87262   9.199   1.529   3.395 -0.0871  0.0904  0.0312
  633MOL0     C87263   9.068   1.558   3.395  0.0331 -0.0635  0.3194
  633MOL0     O87264   8.799   1.668   3.499 -0.1361  0.0368  0.0492
  633MOL0     C87265   8.611   1.691   3.195 -0.9424  0.4050 -0.2088
  633MOL0     C87266   8.483   1.710   3.137 -1.0832  0.6846 -0.1680
  633MOL0     N87267   8.013   1.255   3.076 -0.4307 -0.7614 -0.5053
  633MOL0     N87268   7.986   1.140   3.027 -0.0555  0.1558  0.4369
  633MOL0     C87269   6.971   0.989   2.463 -0.0807  0.1080  0.3623
  633MOL0     C87270   6.843   1.029   2.436  0.3901  0.2947 -0.0072
  633MOL0     C87271   6.437   1.119   2.252 -0.5892  0.4616  0.0713
  633MOL0     C87272   6.439   1.247   2.195 -0.0762 -0.2829 -0.2782
  633MOL0     C87273   6.324   1.324   2.161 -0.6553 -0.9861  0.1644
  633MOL0     C87274   6.204   1.254   2.163 -0.3266  0.0035  0.0806
  633MOL0     O87275   6.091   1.315   2.116 -0.4747  0.1848  0.3308
  633MOL0     C87276   6.075   1.324   1.970 -0.4993  0.7766  0.2282
  633MOL0     C87277   5.995   1.203   1.929 -0.0962  0.0001  0.7159
  633MOL0     C87278   5.850   1.193   1.983 -0.1112  0.4460  0.1819
  633MOL0     C87279   5.751   1.266   1.900 -0.3049  0.5194  0.4699
  633MOL0     C87280   5.765   1.413   1.920 -0.0798 -0.6009 -0.2798
  633MOL0     C87281   5.766   1.539   1.910 -0.0283  0.3780  0.1006
  633MOL0     C87282   6.195   1.130   2.219 -0.0606 -0.0278 -0.5144
  633MOL0     C87283   6.310   1.055   2.269  0.1083  0.1374 -0.1793
  633MOL0     C87284   6.287   0.909   2.318 -0.4364 -0.9816 -0.7045
  633MOL0     H87285   6.857   1.104   2.109  1.0920 -0.1380  0.5926
  633MOL0     H87286   7.099   1.025   2.151  0.0532 -1.3272  1.0139
  633MOL0     H87287   7.248   0.970   2.578  0.1213 -0.4040 -0.1913
  633MOL0     H87288   7.224   1.126   2.498 -2.5151 -0.9750  2.2681
  633MOL0     H87289   7.441   1.113   2.391  1.0644 -0.5250 -0.3763
  633MOL0     H87290   7.449   1.081   2.562 -3.1889 -2.5422  2.4020
  633MOL0     H87291   7.452   0.834   2.537 -1.6592 -1.2323 -1.5821
  633MOL0     H87292   7.428   0.841   2.371  1.7748 -0.9150 -0.8696
  633MOL0     H87293   7.663   0.801   2.437 -0.0799 -0.3276  1.2058
  633MOL0     H87294   7.632   0.924   2.311 -0.4564  1.2306  0.1765
  633MOL0     H87295   7.679   1.094   2.498 -1.2807 -0.3240 -0.9370
  633MOL0     H87296   7.822   0.998   2.456 -0.4968 -1.5722 -1.0856
  633MOL0     H87297   7.629   0.951   2.704  0.1676  1.3132  1.8538
  633MOL0     H87298   7.760   0.842   2.663 -2.9648 -1.6194 -1.1202
  633MOL0     H87299   7.757   1.150   2.717  1.0564  0.4561  3.5360
  633MOL0     H87300   7.907   1.070   2.705  0.1668  3.6755  1.6630
  633MOL0     H87301   7.692   1.045   2.920 -1.1569  1.9787  0.5018
  633MOL0     H87302   7.837   0.950   2.926 -1.1126  0.1780  0.6708
  633MOL0     H87303   7.744   1.341   2.918  0.1053  2.1144  2.8736
  633MOL0     H87304   7.814   1.513   3.124 -0.9042 -2.4645 -0.8562
  633MOL0     H87305   7.891   1.550   2.971  0.4284  0.4567 -0.1635
  633MOL0     H87306   8.041   1.498   3.229  0.3075  0.4013  0.5255
  633MOL0     H87307   8.119   1.540   3.071 -1.6417  0.9946 -1.7415
  633MOL0     H87308   7.974   1.763   3.085 -0.9188 -1.4148 -0.2299
  633MOL0     H87309   7.923   1.697   3.238  0.8582  0.2316  1.2144
  633MOL0     H87310   8.103   1.827   3.302 -2.3593 -0.6216 -2.0630
  633MOL0     H87311   8.146   1.654   3.317  0.7429  0.0444  0.5729
  633MOL0     H87312   8.312   1.770   3.422 -0.5496 -1.2924 -0.5377
  633MOL0     H87313   8.509   1.717   3.615 -3.2553  1.6373  0.1733
  633MOL0     H87314   8.480   1.880   3.569  1.0631 -0.0073  0.3261
  633MOL0     H87315   8.644   1.828   3.566  0.2200  0.2393 -0.1417
  633MOL0     H87316   9.050   1.794   3.157 -1.3082 -1.3892  0.1961
  633MOL0     H87317   9.288   1.723   3.126 -1.0885 -0.5445 -1.0320
  633MOL0     H87318   9.436   1.582   3.503 -0.0093  1.0838  0.1745
  633MOL0     H87319   9.511   1.449   3.417  0.1393 -0.4698  5.5878
  633MOL0     H87320   9.596   1.742   3.451 -0.6876 -0.7044  0.9210
  633MOL0     H87321   9.694   1.583   3.483  0.9020  0.4365 -0.6956
  633MOL0     H87322   9.621   1.717   3.218  1.2164  2.6914  0.6633
  633MOL0     H87323   9.691   1.553   3.233  2.8420 -0.0426 -0.9481
  633MOL0     H87324   9.887   1.651   3.359  1.2246 -1.2023 -2.7535
  633MOL0     H87325   9.811   1.813   3.325 -0.9859  0.1721  1.2755
  633MOL0     H87326   9.856   1.599   3.115 -1.2199  0.6810  1.1473
  633MOL0     H87327   9.846   1.773   3.080  0.2417 -0.3496  0.5172
  633MOL0     H87328  10.077   1.621   3.217 -0.5208  0.4476  0.0082
  633MOL0     H87329  10.063   1.804   3.194 -1.4334  0.5209 -0.9269
  633MOL0     H87330  10.102   1.783   2.955 -0.9947  0.5892  1.5795
  633MOL0     H87331  10.050   1.618   2.959 -1.4438  1.0212 -0.0675
  633MOL0     H87332  10.291   1.638   2.930 -2.0784 -0.4671 -1.0176
  633MOL0     H87333  10.240   1.548   3.078  0.5014 -0.9541 -0.9654
  633MOL0     H87334   9.233   1.472   3.480 -1.0628  1.6956  1.5758
  633MOL0     H87335   8.998   1.510   3.463 -0.0292 -1.7297 -0.8848
  633MOL0     H87336   8.688   1.660   3.125 -2.1636  1.4923 -2.0933
  633MOL0     H87337   8.466   1.694   3.031 -1.7845  2.3149 -0.3250
  633MOL0     H87338   7.001   0.948   2.559  2.7448  0.8172 -0.1131
  633MOL0     H87339   6.768   1.023   2.514  1.9224 -1.2480  1.4363
  633MOL0     H87340   6.532   1.297   2.170 -0.6423  1.0234  0.1417
  633MOL0     H87341   6.326   1.422   2.115 -0.3798 -0.3457  1.5088
  633MOL0     H87342   6.018   1.414   1.947 -3.3762 -1.4998 -2.3691
  633MOL0     H87343   6.171   1.325   1.917 -0.5114 -0.2153  0.1700
  633MOL0     H87344   6.043   1.108   1.955 -1.2674 -0.3453  1.6861
  633MOL0     H87345   5.988   1.203   1.819 -3.2246  2.5754  0.7797
  633MOL0     H87346   5.816   1.089   1.985 -0.0288  0.3896  3.0389
  633MOL0     H87347   5.845   1.230   2.086  1.0514 -0.6243  0.6418
  633MOL0     H87348   5.652   1.227   1.926  0.8239 -1.6160  1.8078
  633MOL0     H87349   5.765   1.245   1.793  0.5012  0.8162  0.5090
  633MOL0     H87350   5.766   1.645   1.902 -1.0003  0.5235  1.5665
  633MOL0     H87351   6.099   1.078   2.221 -0.0574 -0.1805 -2.4366
  633MOL0     H87352   6.182   0.881   2.319 -0.3586 -1.4427 -2.3249
  633MOL0     H87353   6.345   0.848   2.248  1.9312 -0.4713  0.6932
  633MOL0     H87354   6.330   0.898   2.418  0.2160 -2.7080 -1.1338
  634MOL0     O87355  10.024   7.027   6.291  0.0297 -0.2177  0.6171
  634MOL0     C87356   9.976   7.075   6.183 -0.4063 -0.7301  0.9465
  634MOL0     O87357  10.044   7.169   6.107 -0.2416 -0.2252  0.2035
  634MOL0     C87358  10.164   7.211   6.143  0.0461  0.4997  1.2934
  634MOL0     C87359  10.272   7.179   6.060  0.2852  0.3247  0.3712
  634MOL0     C87360  10.404   7.209   6.085  0.1712 -0.2215 -0.3611
  634MOL0     C87361  10.435   7.260   6.211 -0.4093 -0.0158  0.0942
  634MOL0     O87362  10.558   7.268   6.267 -0.5371  0.6983 -0.0925
  634MOL0     C87363  10.674   7.252   6.181 -0.9701  0.8106 -0.6943
  634MOL0     C87364  10.798   7.295   6.282  0.5011  0.5917 -0.1276
  634MOL0     C87365  10.923   7.327   6.201 -0.2313  0.0418  0.2610
  634MOL0     C87366  11.033   7.407   6.276 -0.3685 -0.2599 -0.6226
  634MOL0     C87367  11.157   7.432   6.192  0.5169  0.4748  0.5362
  634MOL0     C87368  11.251   7.527   6.264  0.2831 -0.2782 -0.1066
  634MOL0     C87369  11.304   7.482   6.407  0.3342  0.3620  0.6408
  634MOL0     C87370  11.368   7.343   6.414 -0.4192 -0.4478  0.6969
  634MOL0     N87371  11.493   7.344   6.326  0.7373  0.4066  0.0232
  634MOL0     C87372  11.619   7.333   6.380  0.3231  0.0635  0.0086
  634MOL0     C87373  11.702   7.323   6.275 -0.4789 -0.3270 -1.2617
  634MOL0     C87374  11.849   7.307   6.305 -0.7441  0.4344  0.8536
  634MOL0     C87375  11.910   7.447   6.340 -0.6376  0.8885 -0.1421
  634MOL0     C87376  12.060   7.438   6.336  0.1353  0.2829  0.1974
  634MOL0     C87377  12.123   7.430   6.192 -0.7882  0.5297 -0.0497
  634MOL0     O87378  12.260   7.477   6.195  0.5039 -0.2232  0.2611
  634MOL0     C87379  12.284   7.614   6.196 -0.1022  0.4401  0.7720
  634MOL0     C87380  12.413   7.640   6.238 -0.5942 -0.3119  0.5232
  634MOL0     C87381  12.456   7.773   6.261 -0.4071  0.4753 -0.0666
  634MOL0     C87382  12.607   7.789   6.290  0.4128 -0.1612 -0.5184
  634MOL0     C87383  12.369   7.880   6.241  0.3807 -0.2347  0.3561
  634MOL0     C87384  12.396   8.017   6.282  0.5665  0.6328  0.7139
  634MOL0     O87385  12.508   8.048   6.357 -0.6651 -0.0183 -0.2457
  634MOL0     C87386  12.555   8.179   6.374 -0.3795  0.3801  0.4184
  634MOL0     C87387  12.638   8.225   6.273 -0.2277 -0.6132 -0.5122
  634MOL0     C87388  12.681   8.361   6.277  0.1171  0.0096 -0.2571
  634MOL0     C87389  12.634   8.448   6.371  0.1812 -0.2266 -0.0780
  634MOL0     O87390  12.677   8.578   6.386 -1.1925 -0.1769  0.4767
  634MOL0     C87391  12.657   8.669   6.277 -0.6506 -0.0999 -0.0842
  634MOL0     C87392  12.741   8.796   6.323  0.1345 -0.8356  0.5568
  634MOL0     C87393  12.887   8.772   6.287  0.0525 -0.4068  0.9259
  634MOL0     C87394  12.966   8.908   6.265  0.2358  0.0460 -0.3767
  634MOL0     C87395  12.980   8.998   6.391 -0.4191  0.5601  0.1003
  634MOL0     C87396  13.000   9.146   6.362  0.5520  0.2455  0.3939
  634MOL0     C87397  13.123   9.171   6.282 -0.0229 -1.1665  0.5403
  634MOL0     C87398  13.143   9.315   6.233 -0.3148  0.2629  0.3385
  634MOL0    Cl87399  13.291   9.355   6.143  0.4727 -0.5463  0.1618
  634MOL0     C87400  12.548   8.401   6.469 -0.0270 -0.1966 -0.4652
  634MOL0     C87401  12.512   8.266   6.471  1.1090  0.1203  1.3144
  634MOL0     O87402  12.300   8.094   6.266  0.0685  0.2267 -0.1715
  634MOL0     C87403  12.238   7.850   6.184 -0.4001  0.7485  0.3395
  634MOL0     C87404  12.196   7.718   6.164  0.3279 -0.0840  0.3141
  634MOL0     N87405  11.633   7.332   6.155 -0.0968 -0.1001  0.0844
  634MOL0     N87406  11.503   7.336   6.186  0.2396 -0.4353 -0.3036
  634MOL0     C87407  10.330   7.289   6.291 -0.2688  0.4690  0.3885
  634MOL0     C87408  10.194   7.279   6.256 -0.0644 -0.3546  0.4600
  634MOL0     C87409   9.853   7.024   6.133 -0.5210  0.3249  1.1020
  634MOL0     C87410   9.820   7.055   5.995  0.0394  0.1499 -1.0878
  634MOL0     C87411   9.687   7.021   5.949 -0.4448 -0.8568  0.2068
  634MOL0     C87412   9.591   6.957   6.028 -0.1963 -0.6798  0.3726
  634MOL0     O87413   9.464   6.931   5.977 -0.0100  0.1007 -0.0050
  634MOL0     C87414   9.376   6.833   6.047  0.3041 -0.1537 -0.1306
  634MOL0     C87415   9.254   6.818   5.955 -0.1356  0.2410 -0.6494
  634MOL0     C87416   9.221   6.671   5.927 -0.1567 -0.4322  0.6695
  634MOL0     C87417   9.119   6.667   5.815 -0.2850  0.1361 -0.5327
  634MOL0     C87418   8.994   6.727   5.867 -0.4234  0.8285  0.3543
  634MOL0     C87419   8.895   6.786   5.912  0.3388 -0.4180  1.1919
  634MOL0     C87420   9.620   6.936   6.164  0.5068 -0.7903  0.4915
  634MOL0     C87421   9.750   6.964   6.213  0.2748 -1.1021 -0.5577
  634MOL0     C87422   9.763   6.951   6.364 -0.3485  0.5901 -0.7628
  634MOL0     H87423  10.261   7.118   5.970  2.6980  2.8636 -1.8577
  634MOL0     H87424  10.486   7.161   6.032  0.4727 -0.6260  0.4571
  634MOL0     H87425  10.670   7.312   6.090  0.5667  0.8664 -0.7516
  634MOL0     H87426  10.702   7.149   6.155  0.2899  0.5302  1.5469
  634MOL0     H87427  10.772   7.390   6.330  0.8953  0.0570  1.1901
  634MOL0     H87428  10.824   7.235   6.369  1.5319  2.4517  0.9160
  634MOL0     H87429  10.963   7.232   6.162  1.7295  1.3835 -1.1705
  634MOL0     H87430  10.897   7.380   6.109  0.1165 -1.3025 -0.6483
  634MOL0     H87431  11.000   7.503   6.318  0.7104 -0.3935  0.5804
  634MOL0     H87432  11.059   7.343   6.361  2.9448  0.0425 -1.2759
  634MOL0     H87433  11.139   7.461   6.088  1.2442 -0.2067  0.2080
  634MOL0     H87434  11.210   7.337   6.192 -0.2548  0.0312  1.2911
  634MOL0     H87435  11.336   7.553   6.199  1.1314  0.3080  1.1826
  634MOL0     H87436  11.188   7.615   6.276 -0.5621 -1.0319  1.1758
  634MOL0     H87437  11.222   7.482   6.479  1.5122 -3.9582  2.3048
  634MOL0     H87438  11.376   7.556   6.444  0.0390  0.1883  1.5824
  634MOL0     H87439  11.394   7.314   6.517  3.7074 -1.4546 -0.4288
  634MOL0     H87440  11.288   7.276   6.380 -0.9844  1.1919 -1.3870
  634MOL0     H87441  11.643   7.311   6.484  1.0258 -0.1042 -0.1845
  634MOL0     H87442  11.902   7.263   6.220  2.0541  0.9357  2.2553
  634MOL0     H87443  11.855   7.241   6.392 -2.9883 -1.4234 -0.2545
  634MOL0     H87444  11.872   7.533   6.284 -0.9698  1.2637  0.6533
  634MOL0     H87445  11.880   7.475   6.441  0.2470 -0.2427  0.4583
  634MOL0     H87446  12.102   7.525   6.387 -0.7935 -0.9019  3.2117
  634MOL0     H87447  12.090   7.349   6.393 -0.7280 -0.0388  0.1670
  634MOL0     H87448  12.115   7.329   6.151 -0.4411  1.6968 -3.3534
  634MOL0     H87449  12.066   7.494   6.124 -0.3986  1.6723  0.6746
  634MOL0     H87450  12.483   7.560   6.259  0.9147  0.1041 -2.4951
  634MOL0     H87451  12.669   7.716   6.236  1.0740  0.8428 -1.1441
  634MOL0     H87452  12.623   7.768   6.397 -2.1916 -0.3054 -0.0999
  634MOL0     H87453  12.649   7.886   6.261  0.6442 -0.3786 -0.9240
  634MOL0     H87454  12.679   8.156   6.200 -2.7469  0.1176 -2.7908
  634MOL0     H87455  12.762   8.392   6.211  2.5798 -5.5444 -0.4381
  634MOL0     H87456  12.683   8.627   6.179 -0.7359  0.1684 -0.2224
  634MOL0     H87457  12.552   8.698   6.266 -0.6997 -0.4484 -0.6003
  634MOL0     H87458  12.704   8.883   6.269  0.0711  0.3150  2.3535
  634MOL0     H87459  12.729   8.807   6.432  3.3269 -0.0203  0.9108
  634MOL0     H87460  12.899   8.722   6.191 -1.0621 -0.1678  0.6471
  634MOL0     H87461  12.931   8.711   6.367  0.4514 -0.5579  0.5921
  634MOL0     H87462  12.920   8.975   6.192  3.3876  3.0516  0.1293
  634MOL0     H87463  13.061   8.878   6.220  0.9154  1.3611  0.1421
  634MOL0     H87464  12.898   8.983   6.462  1.7315  1.9943  3.0633
  634MOL0     H87465  13.069   8.968   6.447 -1.1636 -0.9290  0.5329
  634MOL0     H87466  13.012   9.207   6.452 -1.4941 -0.7561  1.4221
  634MOL0     H87467  12.907   9.176   6.313  0.6681 -0.7628 -0.4587
  634MOL0     H87468  13.102   9.114   6.191 -1.1987  0.5944 -0.3493
  634MOL0     H87469  13.220   9.135   6.318 -0.0198 -0.8952  0.8096
  634MOL0     H87470  13.145   9.387   6.316  1.5691  0.7770 -0.0928
  634MOL0     H87471  13.057   9.345   6.173  0.4122 -1.5113 -1.7253
  634MOL0     H87472  12.518   8.460   6.554  0.1651  1.1945 -1.3341
  634MOL0     H87473  12.443   8.226   6.544 -1.7283  0.2398 -1.1084
  634MOL0     H87474  12.162   7.924   6.164 -1.5496 -0.2025  1.0381
  634MOL0     H87475  12.091   7.725   6.136  0.5954 -0.7207 -0.9329
  634MOL0     H87476  10.372   7.337   6.378  1.4615  0.7518 -0.5583
  634MOL0     H87477  10.119   7.321   6.322  0.1939 -0.4789  0.8288
  634MOL0     H87478   9.885   7.112   5.929 -0.3531 -1.0163 -2.5270
  634MOL0     H87479   9.671   7.049   5.845 -3.6898  1.6880  1.2184
  634MOL0     H87480   9.428   6.742   6.078 -2.9756 -1.7291  1.2275
  634MOL0     H87481   9.331   6.880   6.135 -0.1264  1.8534 -1.3699
  634MOL0     H87482   9.263   6.875   5.863  3.2487  2.6441  0.9563
  634MOL0     H87483   9.170   6.859   6.011  0.2040  1.8334 -1.2764
  634MOL0     H87484   9.310   6.616   5.895  0.2543  1.6524 -2.1269
  634MOL0     H87485   9.182   6.624   6.018  0.0316  2.3212  2.2622
  634MOL0     H87486   9.105   6.563   5.785  2.4507 -0.6445  0.5090
  634MOL0     H87487   9.165   6.725   5.734  0.9591 -0.2056 -0.1008
  634MOL0     H87488   8.813   6.852   5.929 -1.5709 -2.6013  0.9712
  634MOL0     H87489   9.546   6.897   6.234 -1.2352  0.3886 -0.6176
  634MOL0     H87490   9.825   7.029   6.410  0.0436 -0.8711  1.3629
  634MOL0     H87491   9.666   6.959   6.414 -0.5843 -1.0000 -0.9360
  634MOL0     H87492   9.819   6.861   6.391 -1.9446 -0.2273 -0.0086
  635MOL0     O87493   1.701   9.026   5.314  0.9303  0.1303 -0.9357
  635MOL0     C87494   1.614   8.960   5.383  0.3855 -0.9752 -0.4312
  635MOL0     O87495   1.647   8.839   5.449 -0.3064  0.6178 -0.2207
  635MOL0     C87496   1.763   8.775   5.422 -0.4157 -0.3523  0.9100
  635MOL0     C87497   1.871   8.797   5.515  1.1331  0.2988 -0.3159
  635MOL0     C87498   1.993   8.730   5.492  0.9894 -0.1506  0.5565
  635MOL0     C87499   2.013   8.648   5.378  0.3089  0.1664 -0.2277
  635MOL0     O87500   2.134   8.582   5.375  0.4693  0.2825  0.2740
  635MOL0     C87501   2.130   8.448   5.318 -0.1160 -0.2065 -0.0896
  635MOL0     C87502   2.271   8.394   5.295  1.1021 -0.4909  0.2791
  635MOL0     C87503   2.350   8.477   5.195  0.8431  0.7227 -0.1481
  635MOL0     C87504   2.468   8.396   5.142  0.0745 -0.4327  0.0332
  635MOL0     C87505   2.555   8.488   5.047 -0.2576 -0.2621  0.3230
  635MOL0     C87506   2.671   8.394   5.006  0.3825  0.1800 -0.4112
  635MOL0     C87507   2.754   8.455   4.889 -0.5992  0.1261 -0.2370
  635MOL0     C87508   2.873   8.380   4.838  1.3280 -0.4561 -0.1324
  635MOL0     N87509   2.961   8.321   4.939 -0.7079 -0.6866 -0.2315
  635MOL0     C87510   3.059   8.384   5.015 -0.2405 -0.3393  0.6187
  635MOL0     C87511   3.124   8.283   5.083  0.5770  0.0404 -0.5938
  635MOL0     C87512   3.251   8.301   5.166  0.6336  0.0592 -0.0761
  635MOL0     C87513   3.376   8.250   5.097 -0.3789 -0.9032  0.4308
  635MOL0     C87514   3.494   8.227   5.194  0.2995  0.4405 -0.3988
  635MOL0     C87515   3.552   8.350   5.259  0.4386  0.8065  0.2835
  635MOL0     O87516   3.697   8.340   5.267 -0.2948  0.4010 -0.1872
  635MOL0     C87517   3.767   8.445   5.316 -0.3750 -0.4166 -0.6877
  635MOL0     C87518   3.709   8.572   5.360 -0.1363  0.2231 -0.3214
  635MOL0     C87519   3.785   8.676   5.425 -0.9345  0.4813  0.3197
  635MOL0     C87520   3.705   8.793   5.481  0.1480  0.8130 -0.4747
  635MOL0     C87521   3.929   8.662   5.422  0.3522  0.0578 -0.9114
  635MOL0     C87522   4.030   8.762   5.463 -0.6944  0.5225 -0.0507
  635MOL0     O87523   4.154   8.746   5.421  0.1381  0.5028 -0.3043
  635MOL0     C87524   4.227   8.861   5.411  0.0812 -0.3629  0.1860
  635MOL0     C87525   4.259   8.944   5.518 -0.4521  0.2381  0.2663
  635MOL0     C87526   4.343   9.059   5.500 -0.6900  0.3934 -0.1797
  635MOL0     C87527   4.384   9.091   5.373 -0.4720  0.4621  0.7978
  635MOL0     O87528   4.473   9.194   5.350  0.6221 -0.8461  0.3744
  635MOL0     C87529   4.500   9.297   5.441 -0.0339 -0.5184  0.5604
  635MOL0     C87530   4.612   9.248   5.527 -0.8132 -0.5003 -0.4649
  635MOL0     C87531   4.747   9.264   5.469  0.5150  0.1024 -0.5644
  635MOL0     C87532   4.806   9.399   5.500 -0.2056 -0.2653 -0.2839
  635MOL0     C87533   4.931   9.424   5.417  0.4092 -0.0352  0.2791
  635MOL0     C87534   5.029   9.525   5.472 -0.8172 -0.7349  0.4585
  635MOL0     C87535   5.147   9.541   5.368  0.4594  0.1948  0.3693
  635MOL0     C87536   5.252   9.647   5.409  0.0126  0.1958 -1.1039
  635MOL0    Cl87537   5.334   9.613   5.570 -0.0327 -0.5095 -0.1992
  635MOL0     C87538   4.350   9.008   5.273  0.1939  1.1662  0.4083
  635MOL0     C87539   4.280   8.890   5.289 -0.5900  0.0289 -0.2084
  635MOL0     O87540   3.987   8.847   5.543  0.4932  0.7271  0.8484
  635MOL0     C87541   3.985   8.540   5.382  0.2552  0.1742  0.0781
  635MOL0     C87542   3.907   8.433   5.331 -0.5525 -0.1188  0.3653
  635MOL0     N87543   3.065   8.164   5.054  0.3741  0.1542  0.9071
  635MOL0     N87544   2.983   8.190   4.963 -0.2260  0.3009  1.1834
  635MOL0     C87545   1.904   8.640   5.283 -0.4068 -0.1808  0.8779
  635MOL0     C87546   1.779   8.704   5.303 -0.7611  0.3322  0.1518
  635MOL0     C87547   1.466   9.011   5.395 -0.6061 -0.0129  0.3193
  635MOL0     C87548   1.368   8.920   5.445 -0.1572  0.3677 -0.1307
  635MOL0     C87549   1.243   8.958   5.464  0.5418 -0.7861 -0.6066
  635MOL0     C87550   1.195   9.078   5.419  0.4426 -0.6991 -0.3970
  635MOL0     O87551   1.063   9.117   5.429  0.1930  0.6502 -0.1021
  635MOL0     C87552   0.966   9.006   5.441 -0.1648 -0.1521  0.3792
  635MOL0     C87553   0.827   9.053   5.421  0.4927  0.0471 -0.7554
  635MOL0     C87554   0.773   9.152   5.529 -0.4817 -0.3564  0.2294
  635MOL0     C87555   0.626   9.188   5.515  0.8709  0.5495  0.6939
  635MOL0     C87556   0.595   9.257   5.385  0.1740 -0.1180  1.0921
  635MOL0     C87557   0.566   9.316   5.278 -0.1867 -0.2924 -0.4478
  635MOL0     C87558   1.282   9.170   5.355  0.6052  0.0060  0.0334
  635MOL0     C87559   1.416   9.135   5.342  0.5192 -0.5293 -0.1677
  635MOL0     C87560   1.505   9.240   5.280 -0.2707 -0.0889 -0.0042
  635MOL0     H87561   1.868   8.849   5.610  4.1262  0.8910 -0.4581
  635MOL0     H87562   2.059   8.725   5.578  1.5238 -1.4736  0.1026
  635MOL0     H87563   2.075   8.444   5.223  0.1846 -0.6376 -0.2479
  635MOL0     H87564   2.086   8.388   5.398  0.6013  2.0072  2.1029
  635MOL0     H87565   2.333   8.377   5.384  0.4124  0.1152  0.8865
  635MOL0     H87566   2.252   8.297   5.248  1.7218  0.6930 -2.6485
  635MOL0     H87567   2.285   8.493   5.109  1.8619 -1.9642 -1.5656
  635MOL0     H87568   2.383   8.573   5.235  1.4086  0.6023 -0.3268
  635MOL0     H87569   2.532   8.363   5.224  1.8428  1.4720 -0.4762
  635MOL0     H87570   2.435   8.310   5.083  0.5379  0.2642 -1.3053
  635MOL0     H87571   2.596   8.575   5.099 -0.0526  0.2906 -0.7384
  635MOL0     H87572   2.502   8.522   4.957  0.0600 -0.0651  0.2089
  635MOL0     H87573   2.741   8.373   5.087 -1.0289  1.0077  1.0925
  635MOL0     H87574   2.639   8.296   4.969 -0.1733 -0.4052  1.4872
  635MOL0     H87575   2.783   8.557   4.917 -0.3948  0.2604 -0.9104
  635MOL0     H87576   2.684   8.457   4.805 -0.0757  0.1673 -0.6763
  635MOL0     H87577   2.846   8.296   4.774  2.3937  0.2357 -1.5457
  635MOL0     H87578   2.926   8.452   4.775 -0.2799  0.2898 -0.6896
  635MOL0     H87579   3.087   8.489   5.026 -1.0761  0.1596 -1.5121
  635MOL0     H87580   3.241   8.237   5.254 -0.5866 -1.0918 -1.0066
  635MOL0     H87581   3.261   8.406   5.196 -2.2135  0.6556 -0.9276
  635MOL0     H87582   3.358   8.159   5.040  0.7267  0.3876 -2.1720
  635MOL0     H87583   3.404   8.313   5.012 -3.2763  0.0969  0.1018
  635MOL0     H87584   3.470   8.157   5.274  0.6321  0.1246 -0.5724
  635MOL0     H87585   3.570   8.172   5.137  2.1848  2.6369 -0.1184
  635MOL0     H87586   3.516   8.435   5.200  0.7381 -0.1073 -1.2720
  635MOL0     H87587   3.509   8.351   5.359 -2.4541 -0.1513 -0.8620
  635MOL0     H87588   3.602   8.590   5.365  0.0491  1.0857  1.4007
  635MOL0     H87589   3.728   8.816   5.586  1.3122  0.4555 -0.6304
  635MOL0     H87590   3.607   8.745   5.486  0.0645  0.9077 -1.1784
  635MOL0     H87591   3.706   8.884   5.421  0.9514  0.4535 -1.0317
  635MOL0     H87592   4.230   8.916   5.618  0.0149  2.8683  1.2259
  635MOL0     H87593   4.365   9.126   5.582 -0.9435 -1.0002  1.0759
  635MOL0     H87594   4.529   9.380   5.376 -0.6369  1.6971  2.9185
  635MOL0     H87595   4.415   9.334   5.499  1.1341 -0.6189  2.4274
  635MOL0     H87596   4.612   9.295   5.626  2.7742 -0.9812 -0.0983
  635MOL0     H87597   4.606   9.141   5.548  0.5048 -0.8951 -1.8818
  635MOL0     H87598   4.733   9.245   5.362  2.0065  0.3316 -0.8193
  635MOL0     H87599   4.812   9.185   5.508  1.9122 -0.0904 -3.0837
  635MOL0     H87600   4.827   9.421   5.605  2.7489  3.3949 -1.3941
  635MOL0     H87601   4.735   9.476   5.470 -0.9095 -0.8708 -0.1800
  635MOL0     H87602   4.993   9.335   5.402  2.2961  1.4544 -1.2239
  635MOL0     H87603   4.903   9.436   5.312 -1.9461 -1.7386  0.6276
  635MOL0     H87604   5.060   9.499   5.573 -0.2233 -1.5394  0.0720
  635MOL0     H87605   4.987   9.626   5.479 -2.6921 -1.2676 -1.7561
  635MOL0     H87606   5.114   9.576   5.270 -0.5608  1.7989  1.2330
  635MOL0     H87607   5.197   9.445   5.354  1.7931  1.0335 -0.9079
  635MOL0     H87608   5.201   9.744   5.416  1.3778  0.8283  0.7504
  635MOL0     H87609   5.333   9.658   5.335  2.0845  2.7101  1.2988
  635MOL0     H87610   4.382   9.020   5.170  1.8678 -2.1205  0.4181
  635MOL0     H87611   4.264   8.825   5.203 -0.8395  0.9284 -0.8500
  635MOL0     H87612   4.091   8.522   5.376  0.4416 -0.4897  3.2338
  635MOL0     H87613   3.963   8.344   5.304  2.4370  2.0636 -1.2126
  635MOL0     H87614   1.902   8.581   5.192  0.2414 -2.3385  2.1857
  635MOL0     H87615   1.701   8.682   5.231  1.5129 -1.8243 -1.8625
  635MOL0     H87616   1.397   8.821   5.479  0.2589  0.6639  0.4023
  635MOL0     H87617   1.184   8.883   5.516  0.2959  1.0139  1.9175
  635MOL0     H87618   0.981   8.919   5.376 -0.2351 -2.8642  3.7520
  635MOL0     H87619   0.968   8.964   5.542 -0.8470 -0.4086  0.2894
  635MOL0     H87620   0.759   8.968   5.429  2.3059 -1.3174  1.6398
  635MOL0     H87621   0.838   9.094   5.320  2.2372  0.7409 -0.3210
  635MOL0     H87622   0.784   9.112   5.631 -0.5030  0.4841  0.5726
  635MOL0     H87623   0.841   9.237   5.518 -0.0648 -0.8323 -0.9892
  635MOL0     H87624   0.600   9.259   5.594  1.1369  0.7816  0.5768
  635MOL0     H87625   0.569   9.095   5.520 -0.1723  0.9200 -2.1312
  635MOL0     H87626   0.551   9.383   5.196  1.0650 -0.1997 -0.6178
  635MOL0     H87627   1.240   9.266   5.327  1.9639  0.2913 -1.1918
  635MOL0     H87628   1.542   9.219   5.180  0.9531  1.4267  0.0932
  635MOL0     H87629   1.450   9.334   5.266  3.6758  1.9762 -3.9104
  635MOL0     H87630   1.590   9.260   5.346 -2.1060  0.2348  2.4112
  636MOL0     O87631  11.361   0.469   7.329  1.2581 -0.4185 -0.2470
  636MOL0     C87632  11.262   0.542   7.308 -0.2026 -0.0990 -0.4223
  636MOL0     O87633  11.264   0.672   7.264  0.2219 -0.0203  0.1399
  636MOL0     C87634  11.383   0.748   7.263 -0.8652  0.5227 -0.6924
  636MOL0     C87635  11.434   0.812   7.147 -0.3433  0.7591 -0.1846
  636MOL0     C87636  11.556   0.887   7.154  0.7148  0.4898  0.1925
  636MOL0     C87637  11.620   0.901   7.274 -0.0288 -0.3870 -0.5381
  636MOL0     O87638  11.741   0.971   7.269  0.1235  0.0078 -0.1229
  636MOL0     C87639  11.821   0.985   7.390 -0.2225 -1.0151  0.3021
  636MOL0     C87640  11.918   1.107   7.373 -0.1448  0.4043 -0.5785
  636MOL0     C87641  11.992   1.091   7.245 -0.1303 -0.2774  0.5178
  636MOL0     C87642  12.087   1.208   7.234 -0.7692  0.0655 -1.0603
  636MOL0     C87643  12.191   1.193   7.121  0.1198 -0.2313 -1.0391
  636MOL0     C87644  12.310   1.279   7.132 -0.3229 -0.3904 -0.7592
  636MOL0     C87645  12.290   1.433   7.123 -0.4282 -0.6848 -0.4918
  636MOL0     C87646  12.249   1.476   6.976 -0.5441 -0.3047  0.1141
  636MOL0     N87647  12.378   1.482   6.893  0.7906 -0.3566  0.0787
  636MOL0     C87648  12.446   1.379   6.832  0.1214  0.1086  0.0824
  636MOL0     C87649  12.555   1.445   6.781 -0.5366 -0.3915  0.7096
  636MOL0     C87650  12.672   1.367   6.724  0.2306 -0.5498  0.6463
  636MOL0     C87651  12.811   1.440   6.724 -0.3637  0.1175  1.0963
  636MOL0     C87652  12.891   1.374   6.609 -0.0140  0.4837 -0.3889
  636MOL0     C87653  13.021   1.435   6.561  0.5919 -0.5021  0.2335
  636MOL0     O87654  13.120   1.430   6.663  0.3196  0.0363  0.0017
  636MOL0     C87655  13.248   1.421   6.620  0.2390  1.1104 -0.6326
  636MOL0     C87656  13.292   1.473   6.501  0.5342 -0.2227 -0.5987
  636MOL0     C87657  13.425   1.478   6.481  0.2198 -0.0936  1.0361
  636MOL0     C87658  13.467   1.560   6.354  0.4964  0.1358 -0.5578
  636MOL0     C87659  13.515   1.415   6.565  0.2444  0.7107 -0.5750
  636MOL0     C87660  13.663   1.402   6.541  0.7433  0.1306 -0.8126
  636MOL0     O87661  13.741   1.376   6.649 -0.4176  0.9758 -0.1296
  636MOL0     C87662  13.872   1.350   6.628 -0.5858  0.4791 -0.2662
  636MOL0     C87663  13.935   1.236   6.656  0.0103  0.2021  0.3484
  636MOL0     C87664  14.072   1.216   6.643  0.3360 -0.4254  0.3765
  636MOL0     C87665  14.151   1.317   6.587  0.4390 -0.5352  0.3072
  636MOL0     O87666  14.286   1.299   6.569  0.1738  0.1790 -0.5102
  636MOL0     C87667  14.363   1.401   6.495 -0.2920 -0.5140 -0.5484
  636MOL0     C87668  14.498   1.345   6.448 -0.0696 -0.0242  0.0318
  636MOL0     C87669  14.590   1.448   6.387  0.3082 -0.8842 -0.2035
  636MOL0     C87670  14.728   1.384   6.362  0.5320 -0.3899  0.5826
  636MOL0     C87671  14.837   1.479   6.310 -1.5877 -0.6442 -0.4190
  636MOL0     C87672  14.981   1.429   6.295  0.1626 -0.2584 -0.6333
  636MOL0     C87673  15.084   1.544   6.331  0.7760 -0.2943  0.2442
  636MOL0     C87674  15.229   1.500   6.319 -0.7551  0.4468 -0.3601
  636MOL0    Cl87675  15.321   1.641   6.333 -0.0167 -0.1566  0.0683
  636MOL0     C87676  14.084   1.439   6.545 -1.3827  0.1019 -0.5303
  636MOL0     C87677  13.952   1.452   6.570  1.5376 -0.6434 -0.2423
  636MOL0     O87678  13.691   1.405   6.421 -0.2349  0.0797 -0.7727
  636MOL0     C87679  13.466   1.367   6.692  0.2178 -0.8245 -0.2472
  636MOL0     C87680  13.333   1.379   6.722  0.0381 -0.0199  0.3762
  636MOL0     N87681  12.542   1.584   6.803 -0.3695  0.7542 -0.6300
  636MOL0     N87682  12.430   1.602   6.871 -0.6795 -0.3806 -0.0042
  636MOL0     C87683  11.568   0.843   7.392 -0.2351 -0.3657  0.0349
  636MOL0     C87684  11.446   0.769   7.386  0.0871  0.1548  0.5217
  636MOL0     C87685  11.123   0.490   7.325  0.8947 -0.1031 -0.5458
  636MOL0     C87686  11.019   0.562   7.263  0.5761 -0.0897  0.2462
  636MOL0     C87687  10.881   0.526   7.263  0.3149  0.4948 -0.0764
  636MOL0     C87688  10.843   0.416   7.334  0.0439  0.5664 -0.4353
  636MOL0     O87689  10.720   0.355   7.333  0.2192  0.3650  0.7764
  636MOL0     C87690  10.605   0.435   7.316  0.5201 -0.0806 -0.2342
  636MOL0     C87691  10.497   0.366   7.387  0.4350 -0.4767 -0.5355
  636MOL0     C87692  10.372   0.453   7.404 -0.3398  0.8915 -0.3698
  636MOL0     C87693  10.285   0.401   7.518  0.3336 -0.3440 -0.1023
  636MOL0     C87694  10.147   0.451   7.521 -0.6049  0.1694 -0.2331
  636MOL0     C87695  10.028   0.483   7.518 -0.0155  0.2384  0.4377
  636MOL0     C87696  10.938   0.342   7.405 -0.0164  0.0246 -0.9107
  636MOL0     C87697  11.075   0.382   7.404  0.3288 -0.1674  0.3113
  636MOL0     C87698  11.172   0.316   7.496  0.4141  0.5990 -0.9942
  636MOL0     H87699  11.375   0.790   7.059 -0.2113 -0.4488  0.0060
  636MOL0     H87700  11.595   0.923   7.059  0.8550 -1.9312 -0.7385
  636MOL0     H87701  11.875   0.893   7.412  0.5762 -0.9826 -1.3678
  636MOL0     H87702  11.758   1.012   7.475 -1.3319  2.1214 -1.3520
  636MOL0     H87703  11.861   1.200   7.372  2.4892  2.1045 -1.2465
  636MOL0     H87704  11.995   1.108   7.451  0.5711 -0.6018 -1.2632
  636MOL0     H87705  12.049   0.998   7.254 -1.4505 -1.0180  1.6423
  636MOL0     H87706  11.921   1.092   7.162 -0.5903  1.0658  0.9056
  636MOL0     H87707  12.039   1.306   7.230 -0.3455  0.5814  2.7483
  636MOL0     H87708  12.144   1.210   7.327 -2.4049 -1.5313  0.0168
  636MOL0     H87709  12.135   1.219   7.030  0.5789  1.3838 -0.9056
  636MOL0     H87710  12.218   1.088   7.111 -3.0125 -1.0328 -2.1687
  636MOL0     H87711  12.365   1.258   7.224  0.7802  2.6694 -0.5939
  636MOL0     H87712  12.379   1.248   7.053 -0.4502  0.7155 -1.3255
  636MOL0     H87713  12.386   1.470   7.160 -0.2686 -1.2370 -0.3333
  636MOL0     H87714  12.218   1.457   7.201 -1.7182 -1.5385 -1.3684
  636MOL0     H87715  12.190   1.402   6.922 -0.8668  0.5855 -0.7826
  636MOL0     H87716  12.194   1.570   6.968 -0.6477 -0.3855 -0.1180
  636MOL0     H87717  12.428   1.272   6.828 -0.1094  0.1483  0.0470
  636MOL0     H87718  12.649   1.354   6.617 -1.4745 -0.1857  0.9316
  636MOL0     H87719  12.690   1.269   6.769 -0.1881 -0.6239  0.6612
  636MOL0     H87720  12.804   1.549   6.719  0.2598  0.1405  0.5359
  636MOL0     H87721  12.867   1.417   6.814  0.9426  1.9926  0.8355
  636MOL0     H87722  12.920   1.274   6.642 -3.0788 -0.5295 -0.4893
  636MOL0     H87723  12.823   1.364   6.524  0.5640 -3.5277 -0.5591
  636MOL0     H87724  13.043   1.375   6.472  1.3156 -1.9718  1.3542
  636MOL0     H87725  13.002   1.539   6.533 -0.3932 -1.1973 -1.8709
  636MOL0     H87726  13.232   1.515   6.421  3.1415  0.6957 -2.2107
  636MOL0     H87727  13.394   1.640   6.336  0.8751  0.5273 -0.3654
  636MOL0     H87728  13.468   1.501   6.262  0.5146  2.7845 -2.3678
  636MOL0     H87729  13.564   1.611   6.363  0.1121  1.3112 -2.3716
  636MOL0     H87730  13.870   1.155   6.690  1.4067  0.0917  2.9997
  636MOL0     H87731  14.108   1.116   6.664 -0.9272 -0.8789  0.5007
  636MOL0     H87732  14.312   1.443   6.409  0.0796 -1.1751 -1.1036
  636MOL0     H87733  14.387   1.489   6.556  1.8832  1.2935 -3.6897
  636MOL0     H87734  14.548   1.335   6.546 -1.2273  1.4929  0.8199
  636MOL0     H87735  14.499   1.254   6.387  1.6874  0.9910 -1.5676
  636MOL0     H87736  14.594   1.529   6.460 -3.1813  0.1944 -1.0081
  636MOL0     H87737  14.542   1.486   6.296  0.1342  0.9720  0.6235
  636MOL0     H87738  14.719   1.324   6.271  5.6520  1.3987 -1.4551
  636MOL0     H87739  14.774   1.333   6.447  1.3888  0.8073  0.8745
  636MOL0     H87740  14.800   1.511   6.212 -1.0306  0.8248 -0.1680
  636MOL0     H87741  14.836   1.563   6.380  1.4047 -0.0022 -1.0169
  636MOL0     H87742  14.999   1.365   6.208 -0.2411  1.3905 -1.9812
  636MOL0     H87743  14.997   1.352   6.371 -2.3412 -3.0247 -2.6757
  636MOL0     H87744  15.061   1.575   6.434 -2.0825 -0.0290 -0.3906
  636MOL0     H87745  15.058   1.629   6.268 -3.2827 -2.5068 -1.4407
  636MOL0     H87746  15.243   1.457   6.219  1.8842 -1.0784  0.5584
  636MOL0     H87747  15.258   1.423   6.392  0.1505 -0.0800 -1.2640
  636MOL0     H87748  14.132   1.529   6.506  0.8483 -1.1589 -0.8261
  636MOL0     H87749  13.897   1.540   6.537 -0.3494 -1.2620  1.0847
  636MOL0     H87750  13.526   1.327   6.774 -2.2159 -1.1191  1.4971
  636MOL0     H87751  13.297   1.362   6.823 -1.9700  1.7915  0.0613
  636MOL0     H87752  11.633   0.846   7.479  0.3740  1.4709 -0.4252
  636MOL0     H87753  11.411   0.728   7.480  0.8952 -5.5871 -1.3007
  636MOL0     H87754  11.038   0.653   7.206  3.8157 -1.0302 -0.3806
  636MOL0     H87755  10.818   0.581   7.194 -0.6680 -1.5662 -0.9266
  636MOL0     H87756  10.623   0.532   7.365  3.2306 -0.7052  0.1484
  636MOL0     H87757  10.583   0.455   7.211 -2.0494 -1.5079 -0.0517
  636MOL0     H87758  10.530   0.343   7.488 -0.6333 -0.7866 -0.2462
  636MOL0     H87759  10.480   0.272   7.334  2.7828 -0.1299 -2.1034
  636MOL0     H87760  10.403   0.557   7.418  0.8633  0.5528 -0.4537
  636MOL0     H87761  10.315   0.450   7.311 -1.1943 -0.5838  0.1697
  636MOL0     H87762  10.332   0.413   7.616 -0.0888 -2.5196  0.4129
  636MOL0     H87763  10.271   0.294   7.500  0.5514 -0.5290  0.7923
  636MOL0     H87764   9.931   0.526   7.507  0.0802  0.3974  0.2115
  636MOL0     H87765  10.906   0.251   7.457  0.9485 -0.5210 -1.2614
  636MOL0     H87766  11.236   0.388   7.548  1.3645 -0.2884 -0.8856
  636MOL0     H87767  11.111   0.262   7.568 -2.1168  0.9947 -2.7273
  636MOL0     H87768  11.241   0.245   7.449 -1.1471 -1.3841 -0.4342
  637MOL0     O87769   7.429   8.587   5.962 -0.4340 -0.1704  0.5157
  637MOL0     C87770   7.339   8.547   6.031 -0.5588 -0.1907  0.3717
  637MOL0     O87771   7.350   8.439   6.121  0.4803  0.5187  0.5174
  637MOL0     C87772   7.457   8.359   6.095 -0.6060 -0.8133  0.3210
  637MOL0     C87773   7.476   8.275   5.990  0.5030 -0.0513  0.4992
  637MOL0     C87774   7.591   8.201   5.967 -0.5396 -1.4357  0.4764
  637MOL0     C87775   7.699   8.214   6.056  0.1903 -0.2887 -0.1811
  637MOL0     O87776   7.809   8.141   6.025 -0.3965 -0.5605 -0.1899
  637MOL0     C87777   7.901   8.118   6.129 -0.3606  0.1582 -0.5164
  637MOL0     C87778   8.040   8.080   6.089 -0.1352  0.8556 -0.0687
  637MOL0     C87779   8.098   8.173   5.978  0.4038  0.4757 -0.3488
  637MOL0     C87780   8.245   8.151   5.957 -0.0668 -0.1746 -0.0446
  637MOL0     C87781   8.314   8.246   5.846 -0.3016 -0.2301 -0.4687
  637MOL0     C87782   8.464   8.257   5.860 -0.1254 -0.1709  0.2364
  637MOL0     C87783   8.507   8.362   5.757 -0.4942  1.1060  0.2202
  637MOL0     C87784   8.660   8.389   5.750  0.2111  0.3167 -0.4999
  637MOL0     N87785   8.745   8.269   5.734  0.2529 -0.0763 -0.1729
  637MOL0     C87786   8.773   8.200   5.620  0.4257 -0.0460 -0.1559
  637MOL0     C87787   8.874   8.112   5.641 -0.3654 -0.5543  0.0921
  637MOL0     C87788   8.925   8.029   5.527 -0.5133 -0.3510 -0.2930
  637MOL0     C87789   9.053   8.089   5.465 -0.1170 -0.3003 -0.8875
  637MOL0     C87790   9.174   8.052   5.565 -0.2645 -0.2626  0.5078
  637MOL0     C87791   9.310   8.094   5.505 -0.0400  0.0541 -0.1734
  637MOL0     O87792   9.336   8.231   5.526 -0.8606  0.1557 -0.2747
  637MOL0     C87793   9.464   8.268   5.498 -0.4030  0.5371 -0.3814
  637MOL0     C87794   9.521   8.357   5.588  0.1564 -0.3151  0.0251
  637MOL0     C87795   9.654   8.400   5.579  0.1701 -0.1870 -0.1959
  637MOL0     C87796   9.693   8.502   5.685  0.0365  0.0137 -0.2343
  637MOL0     C87797   9.726   8.356   5.462 -0.8452  0.8749 -0.9602
  637MOL0     C87798   9.858   8.411   5.427 -0.4190 -0.5757 -1.2530
  637MOL0     O87799   9.905   8.523   5.489  0.0426  0.0122 -0.9587
  637MOL0     C87800  10.035   8.572   5.465 -0.0560  0.5225 -0.6003
  637MOL0     C87801  10.096   8.580   5.342  0.0155 -0.0677 -0.0506
  637MOL0     C87802  10.215   8.648   5.323 -0.8666  0.2324 -0.3123
  637MOL0     C87803  10.287   8.705   5.436  0.9612  0.3753 -0.0428
  637MOL0     O87804  10.390   8.787   5.416 -0.2331  0.2522  0.6696
  637MOL0     C87805  10.392   8.924   5.459  0.2896  0.0261 -0.0234
  637MOL0     C87806  10.537   8.977   5.430  0.5729 -0.3707  0.3247
  637MOL0     C87807  10.665   8.912   5.479 -0.2627 -0.3177  0.0867
  637MOL0     C87808  10.694   8.912   5.632  0.1905  0.5697  0.3873
  637MOL0     C87809  10.822   8.832   5.664 -0.3415 -0.0418 -0.8811
  637MOL0     C87810  10.812   8.796   5.811 -0.4392  0.4385 -0.6987
  637MOL0     C87811  10.912   8.680   5.846 -0.3292 -0.1299  0.4253
  637MOL0     C87812  10.907   8.629   5.987  0.1120 -0.3648  0.3113
  637MOL0    Cl87813  11.041   8.513   6.007 -0.1457  0.3611  0.4112
  637MOL0     C87814  10.210   8.709   5.559 -0.1169 -0.4209  0.6193
  637MOL0     C87815  10.090   8.640   5.574  0.4660 -0.6625  0.7550
  637MOL0     O87816   9.929   8.331   5.371 -0.0392 -0.3402  0.0399
  637MOL0     C87817   9.659   8.271   5.371 -0.3035  0.4516  0.1660
  637MOL0     C87818   9.532   8.222   5.391 -0.3781 -0.1843 -0.2741
  637MOL0     N87819   8.904   8.121   5.774  0.0285  0.2777  0.2549
  637MOL0     N87820   8.825   8.211   5.832 -0.1003  0.1759 -1.1506
  637MOL0     C87821   7.677   8.286   6.174  0.4254 -1.3260 -0.0347
  637MOL0     C87822   7.557   8.364   6.192  0.2795  0.5408  0.4368
  637MOL0     C87823   7.219   8.635   6.027  0.3007  0.5631 -0.3665
  637MOL0     C87824   7.238   8.771   6.035  0.0062  1.1352 -0.6425
  637MOL0     C87825   7.139   8.858   6.011  0.1929  0.7224 -0.6090
  637MOL0     C87826   7.015   8.806   5.972 -0.0510  0.4542 -0.0561
  637MOL0     O87827   6.901   8.879   5.942 -0.5867  1.1238  0.6363
  637MOL0     C87828   6.903   9.023   5.952  0.6896 -0.0139  0.6591
  637MOL0     C87829   6.757   9.068   5.921  0.0508 -0.8937 -0.4139
  637MOL0     C87830   6.745   9.218   5.920 -0.7441 -0.0288  0.0904
  637MOL0     C87831   6.621   9.284   5.852 -0.2412 -0.2051  0.6099
  637MOL0     C87832   6.501   9.242   5.917 -0.4300  0.4406  0.5201
  637MOL0     C87833   6.401   9.207   5.971 -0.3460  0.0399  0.7908
  637MOL0     C87834   6.994   8.668   5.977 -0.1960 -0.2316  0.7811
  637MOL0     C87835   7.087   8.579   6.008 -0.8703  0.1778  0.7899
  637MOL0     C87836   7.056   8.429   6.036 -0.1154 -0.7246  0.7076
  637MOL0     H87837   7.397   8.255   5.919 -0.5392 -4.5174  2.5498
  637MOL0     H87838   7.597   8.142   5.875 -1.8868  1.5039 -1.6687
  637MOL0     H87839   7.856   8.043   6.194  1.8635 -1.4959 -0.7694
  637MOL0     H87840   7.912   8.210   6.187 -2.3288 -1.6627  3.0117
  637MOL0     H87841   8.106   8.080   6.177 -2.8867 -0.7746  2.1479
  637MOL0     H87842   8.034   7.977   6.052 -0.3518  0.5441  0.8279
  637MOL0     H87843   8.041   8.153   5.886 -1.5586  0.7569  0.7565
  637MOL0     H87844   8.078   8.277   6.007 -0.5944  0.7996 -2.0189
  637MOL0     H87845   8.288   8.171   6.056  4.3219  1.8643 -2.1027
  637MOL0     H87846   8.266   8.046   5.935 -1.5051 -0.3659 -0.6482
  637MOL0     H87847   8.272   8.347   5.851 -1.4925 -0.4327 -3.6612
  637MOL0     H87848   8.292   8.217   5.742  0.7732 -0.7747 -0.5590
  637MOL0     H87849   8.491   8.281   5.963 -0.9539  2.4206 -0.0764
  637MOL0     H87850   8.512   8.166   5.822 -0.6249 -0.6017  0.6155
  637MOL0     H87851   8.467   8.459   5.788  0.9327  2.0670 -0.8363
  637MOL0     H87852   8.468   8.334   5.659 -0.3984 -1.5356  0.8596
  637MOL0     H87853   8.684   8.464   5.675 -0.4778  2.2392  1.1264
  637MOL0     H87854   8.693   8.437   5.842 -1.2732 -1.4428  1.0377
  637MOL0     H87855   8.723   8.219   5.525  0.1657 -0.7450 -0.1614
  637MOL0     H87856   8.846   8.040   5.451 -0.4830  0.8427 -0.1674
  637MOL0     H87857   8.950   7.931   5.569  0.7882 -0.4199 -1.1604
  637MOL0     H87858   9.067   8.046   5.366 -0.2543  2.0007 -1.9760
  637MOL0     H87859   9.033   8.196   5.456 -2.1346 -0.7591 -2.7210
  637MOL0     H87860   9.155   8.090   5.666 -0.8416  2.1734 -0.4256
  637MOL0     H87861   9.170   7.943   5.566 -1.0766 -0.2699 -0.7830
  637MOL0     H87862   9.390   8.027   5.540 -0.8850 -1.2858 -0.7508
  637MOL0     H87863   9.312   8.071   5.398 -1.9161  0.6134 -0.3635
  637MOL0     H87864   9.464   8.402   5.667  0.6532 -1.4600  1.0721
  637MOL0     H87865   9.659   8.601   5.651  0.3755 -0.2482 -1.3682
  637MOL0     H87866   9.799   8.509   5.708 -0.0648  1.1867 -0.0632
  637MOL0     H87867   9.639   8.472   5.775 -1.5602 -0.5622 -1.3399
  637MOL0     H87868  10.044   8.532   5.260 -1.4514  1.0251  0.1936
  637MOL0     H87869  10.258   8.660   5.224  1.2935 -1.3766  0.3561
  637MOL0     H87870  10.314   8.985   5.412 -2.7417 -3.0223  0.6827
  637MOL0     H87871  10.375   8.925   5.567  0.4754 -0.6298  0.0133
  637MOL0     H87872  10.545   8.980   5.321  1.0958 -0.0724  0.3701
  637MOL0     H87873  10.538   9.080   5.467 -0.0288  0.5770 -2.0571
  637MOL0     H87874  10.750   8.968   5.439 -0.4428  2.0235  2.6904
  637MOL0     H87875  10.670   8.811   5.436  0.8934 -0.4697  0.5453
  637MOL0     H87876  10.600   8.889   5.683 -0.7374  2.2839 -0.4551
  637MOL0     H87877  10.707   9.016   5.665 -2.1552  0.4203  1.9844
  637MOL0     H87878  10.820   8.743   5.600  3.1508 -0.4357 -0.6219
  637MOL0     H87879  10.914   8.888   5.646  0.0520  0.2208  1.6468
  637MOL0     H87880  10.709   8.768   5.836 -0.6150  0.7157 -1.0884
  637MOL0     H87881  10.840   8.888   5.864  2.5435  0.4267 -2.0495
  637MOL0     H87882  11.010   8.729   5.840  0.3450 -1.5737 -4.2057
  637MOL0     H87883  10.900   8.599   5.773 -2.8213 -0.5765  1.2492
  637MOL0     H87884  10.808   8.584   5.995  0.1596 -1.2565 -2.8350
  637MOL0     H87885  10.921   8.719   6.048  1.4854  1.9831 -3.1844
  637MOL0     H87886  10.256   8.752   5.648 -2.8238 -0.0249  1.9299
  637MOL0     H87887  10.050   8.639   5.675  4.2642  1.4845  2.5285
  637MOL0     H87888   9.705   8.223   5.285 -1.1145  0.7727 -0.4638
  637MOL0     H87889   9.483   8.154   5.323 -1.5270 -1.9365  2.1699
  637MOL0     H87890   7.742   8.298   6.260 -0.0292  4.5535 -0.1428
  637MOL0     H87891   7.532   8.407   6.289  0.4207 -1.9436  1.6597
  637MOL0     H87892   7.332   8.808   6.074 -1.5270  1.2177  3.4407
  637MOL0     H87893   7.168   8.960   6.036 -1.3434  0.5746  2.1438
  637MOL0     H87894   6.946   9.059   6.046 -0.6748  0.9848  0.9367
  637MOL0     H87895   6.964   9.068   5.874 -3.3278  2.4347 -1.3833
  637MOL0     H87896   6.682   9.022   5.986 -1.4587 -0.0944 -1.5213
  637MOL0     H87897   6.735   9.044   5.817  1.7580 -1.8914 -0.5793
  637MOL0     H87898   6.727   9.255   6.021  0.1501 -1.9411  0.9899
  637MOL0     H87899   6.839   9.253   5.874 -0.9923 -0.0148 -0.4149
  637MOL0     H87900   6.625   9.237   5.754 -0.2451 -2.7788  1.7751
  637MOL0     H87901   6.632   9.392   5.840 -0.3088  0.3338  4.2324
  637MOL0     H87902   6.318   9.167   6.026  0.6514 -3.5042 -0.0333
  637MOL0     H87903   6.893   8.640   5.949 -0.4103  1.0303  0.2091
  637MOL0     H87904   7.109   8.361   5.968 -1.5028  0.6644 -1.9227
  637MOL0     H87905   7.090   8.408   6.138 -0.4895 -0.1326  0.9586
  637MOL0     H87906   6.953   8.395   6.019 -0.0450 -1.4090  1.5729
  638MOL0     O87907   3.333   9.029   1.215  0.1498  0.0302  0.2397
  638MOL0     C87908   3.408   8.947   1.156  0.9224 -0.0926  0.0896
  638MOL0     O87909   3.382   8.812   1.129  0.5121  0.2128 -0.3970
  638MOL0     C87910   3.251   8.769   1.148 -0.6248  0.5887 -0.7597
  638MOL0     C87911   3.222   8.653   1.226 -0.3350  0.4210 -0.3537
  638MOL0     C87912   3.087   8.628   1.262  0.0194 -0.3387 -0.0283
  638MOL0     C87913   2.983   8.709   1.215 -0.0445 -0.7928  0.7430
  638MOL0     O87914   2.851   8.682   1.234  0.0801 -0.4015  0.3342
  638MOL0     C87915   2.815   8.562   1.161  0.2045  0.3726  0.0141
  638MOL0     C87916   2.711   8.595   1.064 -0.0034 -0.4606  0.6551
  638MOL0     C87917   2.572   8.618   1.118  0.3760 -0.0662 -0.2552
  638MOL0     C87918   2.525   8.528   1.240  0.6404  0.4055  0.5243
  638MOL0     C87919   2.376   8.486   1.239  0.1997 -0.3026  0.0875
  638MOL0     C87920   2.348   8.367   1.340 -0.1642 -0.8272 -0.4750
  638MOL0     C87921   2.192   8.378   1.378 -0.1793 -0.4777 -1.0760
  638MOL0     C87922   2.163   8.466   1.500  0.1846  0.8346 -0.0435
  638MOL0     N87923   2.121   8.379   1.616  0.1483 -0.3355 -0.0084
  638MOL0     C87924   2.181   8.274   1.676 -0.0623  1.0130 -0.0247
  638MOL0     C87925   2.109   8.234   1.788 -0.7154  0.8338 -0.8288
  638MOL0     C87926   2.155   8.112   1.867 -0.4867 -0.2159  0.1053
  638MOL0     C87927   2.198   8.146   2.007 -0.3172 -0.6853 -0.4233
  638MOL0     C87928   2.216   8.014   2.082 -0.3337 -0.3291  0.1395
  638MOL0     C87929   2.247   8.031   2.236  0.4060 -0.6177  0.0070
  638MOL0     O87930   2.378   8.074   2.264  0.5758  0.5287 -0.5086
  638MOL0     C87931   2.493   8.005   2.248 -0.4651 -0.7952 -0.2223
  638MOL0     C87932   2.502   7.870   2.216 -0.0181  0.2128 -0.0982
  638MOL0     C87933   2.624   7.809   2.223  0.0402  1.1362  0.3119
  638MOL0     C87934   2.620   7.661   2.196 -0.5293 -0.4534 -0.4319
  638MOL0     C87935   2.741   7.885   2.256 -0.3179  0.6509 -0.8481
  638MOL0     C87936   2.879   7.827   2.256  0.3400 -0.0713  0.2388
  638MOL0     O87937   2.977   7.895   2.326 -0.5198 -0.2447  0.2608
  638MOL0     C87938   3.105   7.850   2.315 -0.2957  0.2629  0.1502
  638MOL0     C87939   3.180   7.844   2.433  0.2523  0.4251  0.8306
  638MOL0     C87940   3.323   7.830   2.416  0.2044  0.2343 -0.5011
  638MOL0     C87941   3.388   7.828   2.292 -0.5231  0.0985  0.3138
  638MOL0     O87942   3.522   7.817   2.273  0.2826  0.1138  0.1116
  638MOL0     C87943   3.616   7.842   2.375  0.4949  0.7627 -0.6708
  638MOL0     C87944   3.755   7.850   2.315 -0.7590  0.6661  0.7250
  638MOL0     C87945   3.862   7.825   2.415 -0.7470 -0.3358 -1.1670
  638MOL0     C87946   3.904   7.678   2.431  0.7530  0.4450  0.0405
  638MOL0     C87947   4.043   7.664   2.487 -0.4170  0.3684 -0.2718
  638MOL0     C87948   4.059   7.518   2.517 -0.7550 -0.2376  0.2267
  638MOL0     C87949   4.202   7.480   2.572 -0.5106 -0.0246  0.2994
  638MOL0     C87950   4.235   7.541   2.702 -0.5159 -0.5912  0.9609
  638MOL0    Cl87951   4.293   7.714   2.691  0.3681 -0.2144  0.1667
  638MOL0     C87952   3.300   7.828   2.180  0.0767 -0.3320  0.9018
  638MOL0     C87953   3.161   7.828   2.192  0.3446 -1.4945 -0.1693
  638MOL0     O87954   2.902   7.720   2.197  0.5639 -0.4991  0.0665
  638MOL0     C87955   2.724   8.012   2.301 -0.1790  0.1298 -0.2203
  638MOL0     C87956   2.599   8.081   2.293  0.1608  0.2008  0.1094
  638MOL0     N87957   2.003   8.324   1.806  0.3813 -0.6000 -0.0018
  638MOL0     N87958   2.017   8.407   1.701  0.6058 -0.1352 -0.1915
  638MOL0     C87959   3.012   8.809   1.124 -0.7715 -0.1701 -0.0713
  638MOL0     C87960   3.146   8.839   1.096  0.9417 -0.1273 -0.6642
  638MOL0     C87961   3.546   8.986   1.126 -0.2788  0.2962 -0.1900
  638MOL0     C87962   3.654   8.905   1.155  0.0141  0.4608 -1.1264
  638MOL0     C87963   3.791   8.946   1.151  0.1104  0.2315  1.0347
  638MOL0     C87964   3.820   9.072   1.104  0.0459  0.6818  0.6697
  638MOL0     O87965   3.940   9.123   1.072  0.7937 -0.3694 -0.7047
  638MOL0     C87966   4.048   9.034   1.088 -0.1374 -0.4545 -0.0435
  638MOL0     C87967   4.170   9.127   1.087 -0.4605 -0.5280  0.4842
  638MOL0     C87968   4.165   9.219   0.954  0.0961 -0.2889  0.6936
  638MOL0     C87969   4.300   9.282   0.940 -0.2726  0.2616  1.3506
  638MOL0     C87970   4.306   9.379   0.824  0.3004  0.5611 -0.4005
  638MOL0     C87971   4.301   9.472   0.749 -1.2227  0.3082  0.1116
  638MOL0     C87972   3.715   9.155   1.082  1.2069 -0.8351 -0.2272
  638MOL0     C87973   3.578   9.116   1.086 -0.3378 -0.2181 -0.2378
  638MOL0     C87974   3.478   9.221   1.048 -0.4349 -0.1405 -0.2851
  638MOL0     H87975   3.304   8.602   1.275 -0.5386  0.3365 -0.0928
  638MOL0     H87976   3.057   8.540   1.317  0.4527 -0.0148  0.7481
  638MOL0     H87977   2.773   8.510   1.248 -3.0522  1.9530 -0.4606
  638MOL0     H87978   2.886   8.492   1.117 -2.0338 -2.1121  0.0408
  638MOL0     H87979   2.729   8.683   1.002 -1.2151  0.6075  1.7376
  638MOL0     H87980   2.691   8.516   0.991 -1.1065 -0.1389  0.5851
  638MOL0     H87981   2.579   8.725   1.139  1.0035  0.1612 -1.5229
  638MOL0     H87982   2.500   8.609   1.036 -0.3419  0.6183  0.2937
  638MOL0     H87983   2.581   8.434   1.238 -0.0278 -0.0457 -2.7941
  638MOL0     H87984   2.544   8.575   1.337  0.1945 -0.2893  0.9614
  638MOL0     H87985   2.349   8.457   1.137 -0.3058 -0.6848  0.3253
  638MOL0     H87986   2.319   8.572   1.275  0.8775  0.6514 -1.0708
  638MOL0     H87987   2.373   8.268   1.301  3.3740 -0.1925 -0.1549
  638MOL0     H87988   2.405   8.385   1.432 -0.4594 -0.0025 -0.4403
  638MOL0     H87989   2.161   8.279   1.413 -2.5209  1.1470  1.8321
  638MOL0     H87990   2.144   8.403   1.283  2.4856 -1.6237 -2.8596
  638MOL0     H87991   2.258   8.518   1.516  0.2491  1.1013 -1.2078
  638MOL0     H87992   2.081   8.536   1.478 -0.6889 -0.7835 -2.2810
  638MOL0     H87993   2.267   8.222   1.634 -1.1503  0.1616 -1.2731
  638MOL0     H87994   2.247   8.081   1.816 -0.1422  3.2751 -1.7185
  638MOL0     H87995   2.071   8.041   1.863  1.3828 -2.5057 -0.6576
  638MOL0     H87996   2.296   8.196   2.007 -1.5924  2.0493  1.3613
  638MOL0     H87997   2.127   8.213   2.055 -0.6945 -1.2238 -0.2196
  638MOL0     H87998   2.128   7.950   2.075 -0.8314  0.4942 -2.4428
  638MOL0     H87999   2.293   7.960   2.025 -0.9313  2.0806 -3.3229
  638MOL0     H88000   2.174   8.100   2.278 -3.3134 -4.6027  0.8815
  638MOL0     H88001   2.229   7.933   2.283  0.2077 -0.8069 -0.4534
  638MOL0     H88002   2.412   7.812   2.200  0.4935 -1.6046  2.9149
  638MOL0     H88003   2.683   7.617   2.274  0.0300  0.1693 -0.5247
  638MOL0     H88004   2.661   7.643   2.096  3.8107 -0.9204  1.2099
  638MOL0     H88005   2.517   7.625   2.191  0.5766 -4.3034  0.7076
  638MOL0     H88006   3.131   7.856   2.529 -1.1578  1.7995 -0.0083
  638MOL0     H88007   3.390   7.822   2.501 -1.6929 -1.0203  0.9739
  638MOL0     H88008   3.595   7.931   2.435  0.3563  0.7984 -0.7721
  638MOL0     H88009   3.609   7.757   2.443  1.0559 -0.1135 -1.6763
  638MOL0     H88010   3.760   7.769   2.241 -1.5516  0.3650  0.9989
  638MOL0     H88011   3.770   7.951   2.277  1.5751 -0.3524 -1.4138
  638MOL0     H88012   3.819   7.862   2.509  1.1049  2.8093 -1.4275
  638MOL0     H88013   3.950   7.886   2.393 -0.9984  0.1087 -0.9511
  638MOL0     H88014   3.907   7.628   2.333 -1.5521 -1.1398  0.6992
  638MOL0     H88015   3.822   7.622   2.477  1.9652 -1.9957 -0.5724
  638MOL0     H88016   4.122   7.699   2.420 -0.4794  1.3530  0.1510
  638MOL0     H88017   4.067   7.721   2.578  3.4263  1.1666 -1.5800
  638MOL0     H88018   4.046   7.466   2.422 -2.1388  0.8721 -0.2349
  638MOL0     H88019   3.978   7.491   2.585 -0.6219 -1.2481  0.0029
  638MOL0     H88020   4.275   7.507   2.495  2.1905  1.7075  3.2301
  638MOL0     H88021   4.204   7.370   2.580  0.5969 -0.0365  0.0601
  638MOL0     H88022   4.306   7.469   2.745 -0.4459 -0.7359  0.6086
  638MOL0     H88023   4.145   7.537   2.763 -1.3496  0.9629 -0.1149
  638MOL0     H88024   3.342   7.842   2.080  2.3528  2.5818  2.1057
  638MOL0     H88025   3.105   7.842   2.100 -1.1371 -4.1218  0.2287
  638MOL0     H88026   2.804   8.084   2.316  0.7590 -0.9968  0.3241
  638MOL0     H88027   2.582   8.187   2.307 -1.1821 -0.3330  3.4413
  638MOL0     H88028   2.928   8.872   1.094  1.0434  2.6673  0.4296
  638MOL0     H88029   3.144   8.921   1.025 -2.5851 -0.1876 -0.8231
  638MOL0     H88030   3.635   8.805   1.194 -0.6017  2.5331  4.9153
  638MOL0     H88031   3.863   8.868   1.174  0.0045  0.4567  2.1596
  638MOL0     H88032   4.061   8.991   1.187  0.7808  1.3418  0.6634
  638MOL0     H88033   4.051   8.958   1.009  0.1287  0.3836 -0.8605
  638MOL0     H88034   4.266   9.076   1.077 -0.4116  0.0168 -3.9709
  638MOL0     H88035   4.170   9.187   1.178  0.7879 -1.7467  1.3181
  638MOL0     H88036   4.139   9.172   0.859  1.5679  3.3347 -1.7142
  638MOL0     H88037   4.081   9.289   0.962 -0.6612 -1.2225  1.2074
  638MOL0     H88038   4.376   9.206   0.917 -2.8448 -1.8389 -0.8550
  638MOL0     H88039   4.331   9.332   1.032 -0.4123  1.8167  0.5914
  638MOL0     H88040   4.305   9.550   0.675 -0.2686 -0.8700 -1.1256
  638MOL0     H88041   3.736   9.260   1.060  1.5549 -0.0877  3.0385
  638MOL0     H88042   3.521   9.322   1.049 -2.4143  0.7584  0.9354
  638MOL0     H88043   3.457   9.193   0.944  0.7182 -0.4750 -0.4343
  638MOL0     H88044   3.385   9.221   1.106 -1.2325 -3.2611 -1.3398
  639MOL0     O88045   1.846   1.016   2.652  0.0224  0.5956 -0.5093
  639MOL0     C88046   1.787   1.084   2.568  0.2199  0.6843 -0.5107
  639MOL0     O88047   1.821   1.207   2.527  0.7848 -0.2372 -0.0359
  639MOL0     C88048   1.939   1.268   2.569  0.3959 -0.5722 -0.6047
  639MOL0     C88049   2.027   1.236   2.678  0.7252  0.4704 -0.3123
  639MOL0     C88050   2.139   1.315   2.712  0.0745  0.6614 -0.4683
  639MOL0     C88051   2.170   1.427   2.624  0.5413  0.2435  0.5236
  639MOL0     O88052   2.299   1.479   2.619 -0.3957  0.8635 -0.1609
  639MOL0     C88053   2.392   1.436   2.721  0.2410  0.1536 -0.1825
  639MOL0     C88054   2.512   1.527   2.715 -0.0693  0.4358 -0.3311
  639MOL0     C88055   2.634   1.456   2.788 -0.6461  0.4120 -0.7847
  639MOL0     C88056   2.768   1.534   2.750  0.0765  0.5659 -0.2212
  639MOL0     C88057   2.895   1.472   2.817  0.2364  0.6438  0.0220
  639MOL0     C88058   3.030   1.557   2.826  0.1061 -0.5886  0.3751
  639MOL0     C88059   3.061   1.638   2.697  0.2530  0.1746  0.3585
  639MOL0     C88060   3.074   1.553   2.572 -0.8090  1.3379  0.2699
  639MOL0     N88061   3.192   1.453   2.584 -0.1478  0.5883 -0.1188
  639MOL0     C88062   3.191   1.333   2.649  0.2613  0.6980 -0.5261
  639MOL0     C88063   3.321   1.305   2.659 -0.7343  0.7683 -0.2761
  639MOL0     C88064   3.378   1.186   2.732  0.2664 -0.1466 -0.0912
  639MOL0     C88065   3.316   1.056   2.679  0.9601 -0.4338 -0.1081
  639MOL0     C88066   3.341   1.042   2.530 -0.0316  0.0687  0.9850
  639MOL0     C88067   3.490   1.041   2.481  0.7209  0.0754  0.3717
  639MOL0     O88068   3.491   0.987   2.343  0.2503 -0.2492  0.2912
  639MOL0     C88069   3.606   0.949   2.274  0.2905  0.7515  0.0645
  639MOL0     C88070   3.606   0.850   2.174  0.3298  0.4752 -1.0770
  639MOL0     C88071   3.730   0.813   2.113  0.5361 -0.3180 -0.1884
  639MOL0     C88072   3.716   0.718   1.994 -0.0987 -0.1902 -1.0182
  639MOL0     C88073   3.851   0.867   2.149  0.0757  0.2307  0.0749
  639MOL0     C88074   3.988   0.836   2.086  1.2911  0.8373 -0.2541
  639MOL0     O88075   4.087   0.930   2.107 -0.1790 -0.0001  0.2465
  639MOL0     C88076   4.211   0.899   2.060  0.2867  0.0240 -0.4692
  639MOL0     C88077   4.269   1.010   1.999  0.4213  0.1917 -0.6418
  639MOL0     C88078   4.401   1.001   1.964 -0.0892 -0.1200  0.1923
  639MOL0     C88079   4.475   0.879   1.981  0.3359  0.3686  0.0807
  639MOL0     O88080   4.596   0.877   1.925 -0.2209  0.1265  0.0366
  639MOL0     C88081   4.687   0.982   1.950 -0.4408 -0.1802 -0.3584
  639MOL0     C88082   4.828   0.927   1.930  0.2841  0.1225 -0.4616
  639MOL0     C88083   4.928   1.051   1.919  0.3515 -0.8245 -1.2001
  639MOL0     C88084   5.068   1.015   1.863 -0.6274 -0.5640 -0.2092
  639MOL0     C88085   5.154   0.933   1.965  0.0474  0.5261  0.9594
  639MOL0     C88086   5.191   1.012   2.091  0.3081  0.5338  0.1203
  639MOL0     C88087   5.234   0.922   2.204  0.8594 -0.2380  0.3128
  639MOL0     C88088   5.217   0.981   2.342  0.4984  0.2770 -0.4493
  639MOL0    Cl88089   5.311   0.872   2.451  0.4977 -0.1191 -0.2791
  639MOL0     C88090   4.414   0.768   2.037  0.0193 -0.7583 -0.2975
  639MOL0     C88091   4.277   0.781   2.082  0.2853  0.6598  0.1300
  639MOL0     O88092   3.994   0.735   2.016 -0.1245  0.1836 -0.1760
  639MOL0     C88093   3.846   0.969   2.247  0.5920  0.0738 -0.2211
  639MOL0     C88094   3.728   1.005   2.306  0.0704  0.3543  0.0484
  639MOL0     N88095   3.397   1.401   2.598 -0.1365 -0.0988 -0.0195
  639MOL0     N88096   3.320   1.488   2.552 -0.1074  0.0622  0.4856
  639MOL0     C88097   2.080   1.459   2.519 -0.4458  0.3041 -0.1221
  639MOL0     C88098   1.968   1.384   2.499  0.0857  0.8106 -0.3128
  639MOL0     C88099   1.653   1.023   2.513 -1.3098  0.8219 -0.8083
  639MOL0     C88100   1.618   0.895   2.573  0.5907 -0.5691  0.1573
  639MOL0     C88101   1.498   0.828   2.527 -0.0588 -1.0810  0.2472
  639MOL0     C88102   1.427   0.873   2.419 -0.4282  0.6191  0.3351
  639MOL0     O88103   1.331   0.793   2.366  0.5672  0.2215  0.1421
  639MOL0     C88104   1.252   0.700   2.448  0.1661 -0.2008 -0.0496
  639MOL0     C88105   1.287   0.552   2.444 -0.0431  0.8068  0.4311
  639MOL0     C88106   1.159   0.473   2.489  0.0225  0.9205 -0.9149
  639MOL0     C88107   1.186   0.316   2.510  0.2978  0.5502  0.3254
  639MOL0     C88108   1.217   0.250   2.384 -0.3005  0.4911  0.3507
  639MOL0     C88109   1.230   0.185   2.281 -0.2604 -0.0527  0.0405
  639MOL0     C88110   1.455   0.995   2.374 -0.2548 -0.8250 -0.3755
  639MOL0     C88111   1.571   1.072   2.412  0.6166  0.5919  0.6331
  639MOL0     C88112   1.592   1.203   2.350  1.2904 -0.2374  0.3004
  639MOL0     H88113   2.007   1.147   2.738 -1.0065  0.0640 -1.4230
  639MOL0     H88114   2.202   1.271   2.790  0.7050  1.1106 -0.7142
  639MOL0     H88115   2.418   1.332   2.698  1.0397  0.8240 -2.5784
  639MOL0     H88116   2.356   1.446   2.824  1.4394  1.2361  0.1455
  639MOL0     H88117   2.542   1.532   2.610 -1.2535 -4.1065 -1.1090
  639MOL0     H88118   2.485   1.624   2.758  0.7825  1.1156 -1.2850
  639MOL0     H88119   2.609   1.474   2.893  1.2133 -0.7264 -0.0903
  639MOL0     H88120   2.642   1.349   2.767  1.2863 -0.4355  3.2770
  639MOL0     H88121   2.794   1.527   2.644 -0.1932 -0.6607 -0.2140
  639MOL0     H88122   2.759   1.642   2.769  2.4329  0.3869  2.6478
  639MOL0     H88123   2.919   1.382   2.759 -1.6425 -0.5925  1.0655
  639MOL0     H88124   2.870   1.444   2.919 -2.3204  1.3345 -0.3490
  639MOL0     H88125   3.017   1.631   2.906 -2.8848  0.4054 -0.8854
  639MOL0     H88126   3.112   1.490   2.852  2.0129  0.9355 -1.3665
  639MOL0     H88127   3.153   1.694   2.714  0.0060  0.3307  1.2262
  639MOL0     H88128   2.987   1.717   2.680 -0.9265 -1.0681 -0.5871
  639MOL0     H88129   2.985   1.494   2.549 -0.8233  1.0006  1.1715
  639MOL0     H88130   3.101   1.610   2.482  0.7809 -2.0752 -1.6266
  639MOL0     H88131   3.104   1.288   2.696 -0.2551  1.3324 -0.8473
  639MOL0     H88132   3.367   1.197   2.841  1.0995 -2.3844  0.2704
  639MOL0     H88133   3.485   1.169   2.717 -0.4363 -2.4519 -3.5847
  639MOL0     H88134   3.362   0.969   2.727  0.9337 -0.3978 -0.0174
  639MOL0     H88135   3.211   1.058   2.711  1.2110  1.4824  0.7130
  639MOL0     H88136   3.295   0.952   2.488  0.5833 -0.3696  1.2424
  639MOL0     H88137   3.296   1.127   2.477  0.0590 -0.5745 -0.1544
  639MOL0     H88138   3.535   1.140   2.498  1.6825 -0.5405  1.5792
  639MOL0     H88139   3.542   0.967   2.543 -0.8220 -1.3375  0.0495
  639MOL0     H88140   3.515   0.800   2.141 -0.0059  0.2879  0.0795
  639MOL0     H88141   3.622   0.734   1.940 -1.4228 -0.6140  1.0642
  639MOL0     H88142   3.727   0.612   2.018 -0.4190  0.0808  0.4017
  639MOL0     H88143   3.795   0.746   1.924 -0.6502  0.8131 -1.2637
  639MOL0     H88144   4.200   1.090   1.974 -4.4404 -3.2188  0.2992
  639MOL0     H88145   4.450   1.082   1.911  1.2519 -0.2312  1.1976
  639MOL0     H88146   4.666   1.069   1.887 -3.1438 -0.4179  0.0877
  639MOL0     H88147   4.669   1.022   2.050 -1.5347 -0.5379 -0.3999
  639MOL0     H88148   4.851   0.868   2.019 -0.6619  2.9170  1.7891
  639MOL0     H88149   4.838   0.857   1.846  0.2444 -1.0005  0.4388
  639MOL0     H88150   4.940   1.099   2.016 -2.1533 -0.7507 -0.8575
  639MOL0     H88151   4.897   1.134   1.855 -0.0027 -0.5509 -0.6827
  639MOL0     H88152   5.122   1.108   1.842  2.0034 -1.3197  2.4853
  639MOL0     H88153   5.057   0.963   1.767 -2.0288  0.6765 -0.7696
  639MOL0     H88154   5.086   0.856   2.003  1.0667 -0.7080  0.3659
  639MOL0     H88155   5.242   0.893   1.913 -1.5936  1.9876 -3.4172
  639MOL0     H88156   5.099   1.052   2.136  0.6498 -0.3778  1.7051
  639MOL0     H88157   5.257   1.096   2.069  1.9001 -0.6994  0.0414
  639MOL0     H88158   5.339   0.898   2.186  1.2400  2.0585 -0.8248
  639MOL0     H88159   5.169   0.834   2.199 -0.0609  0.4395 -4.5760
  639MOL0     H88160   5.111   0.987   2.368 -0.0043  0.1023 -2.3333
  639MOL0     H88161   5.253   1.085   2.350  0.4934  0.2409  0.0922
  639MOL0     H88162   4.476   0.679   2.043  0.9508 -0.1509 -0.6258
  639MOL0     H88163   4.221   0.702   2.131 -0.2550  2.0269  1.8023
  639MOL0     H88164   3.935   1.021   2.282  1.0909 -0.8871 -0.0346
  639MOL0     H88165   3.727   1.094   2.368  1.9213  0.4563 -0.0100
  639MOL0     H88166   2.103   1.529   2.439  1.3915  0.0556  0.1313
  639MOL0     H88167   1.897   1.420   2.425  0.3770  2.7262  0.2889
  639MOL0     H88168   1.662   0.844   2.658 -0.7089 -0.8958  0.6607
  639MOL0     H88169   1.477   0.733   2.577 -0.7062 -0.2699  1.5706
  639MOL0     H88170   1.255   0.733   2.552  4.2741  1.0809 -0.4177
  639MOL0     H88171   1.149   0.712   2.412  1.0618  0.5624 -2.5490
  639MOL0     H88172   1.377   0.524   2.500 -0.3254 -1.7601 -0.2582
  639MOL0     H88173   1.304   0.522   2.340 -2.3256  0.7131  0.0278
  639MOL0     H88174   1.127   0.508   2.587  0.3759 -0.8754 -0.1082
  639MOL0     H88175   1.079   0.488   2.416 -2.7744  0.7989  1.9605
  639MOL0     H88176   1.091   0.274   2.544  1.4357 -1.2232  1.4456
  639MOL0     H88177   1.268   0.300   2.581  3.2909  0.5417 -2.8823
  639MOL0     H88178   1.241   0.146   2.182 -1.1717 -0.1387 -0.0396
  639MOL0     H88179   1.395   1.040   2.296  3.1311  3.6574 -0.8289
  639MOL0     H88180   1.687   1.206   2.297  0.7755  1.3314 -0.5899
  639MOL0     H88181   1.514   1.237   2.281  0.0434  0.6296  2.0488
  639MOL0     H88182   1.595   1.277   2.430 -1.8156  2.9325 -2.2011
  640MOL0     O88183   4.969   2.552   8.995  0.8093 -0.3607  0.4080
  640MOL0     C88184   4.901   2.512   9.091 -0.5537  0.6298 -0.3192
  640MOL0     O88185   4.942   2.422   9.183  0.5555 -0.0847 -0.2637
  640MOL0     C88186   5.060   2.358   9.164  0.4960  0.8454 -0.2661
  640MOL0     C88187   5.174   2.394   9.232  0.0074  0.0161  0.3243
  640MOL0     C88188   5.298   2.324   9.222 -0.0906 -0.8611 -0.2828
  640MOL0     C88189   5.308   2.204   9.149  0.6247 -0.2035  0.6593
  640MOL0     O88190   5.429   2.145   9.154  0.1923  0.5178  0.0208
  640MOL0     C88191   5.438   1.997   9.147 -0.4119  0.5950 -0.6471
  640MOL0     C88192   5.575   1.957   9.213  0.2408  0.0011 -0.7940
  640MOL0     C88193   5.616   1.811   9.197  0.8189  0.3161  0.1986
  640MOL0     C88194   5.751   1.784   9.258 -0.3571  0.3772 -0.0395
  640MOL0     C88195   5.768   1.646   9.317 -0.1239 -0.0804  0.0995
  640MOL0     C88196   5.918   1.596   9.322  0.1354 -0.0518  0.3491
  640MOL0     C88197   5.998   1.656   9.436 -0.1764  0.5307 -0.1336
  640MOL0     C88198   6.149   1.659   9.426 -0.0848  0.1410 -0.2214
  640MOL0     N88199   6.208   1.533   9.378  0.0964  0.7257 -0.2611
  640MOL0     C88200   6.256   1.435   9.458  0.1547  0.5415  0.2102
  640MOL0     C88201   6.309   1.338   9.371  0.4383  0.2607  0.2561
  640MOL0     C88202   6.369   1.207   9.409 -0.0736  0.0118  0.0377
  640MOL0     C88203   6.513   1.237   9.450 -0.0009  0.1588  0.5360
  640MOL0     C88204   6.597   1.114   9.496  0.3368  0.0669  0.5314
  640MOL0     C88205   6.740   1.154   9.517  0.2379 -0.5429  0.8618
  640MOL0     O88206   6.804   1.194   9.393  0.0710 -0.0265 -0.0856
  640MOL0     C88207   6.939   1.199   9.395  0.0487  0.1384  0.2068
  640MOL0     C88208   7.024   1.146   9.293 -0.2665  1.3761  0.3727
  640MOL0     C88209   7.159   1.142   9.297 -0.4331 -0.2305 -0.6426
  640MOL0     C88210   7.228   1.055   9.199 -0.0493  0.2339  0.0291
  640MOL0     C88211   7.219   1.215   9.406  0.4646 -0.0204 -0.0536
  640MOL0     C88212   7.369   1.225   9.412  0.0524  0.1940 -0.0396
  640MOL0     O88213   7.405   1.305   9.513  0.0838  0.0608 -0.6488
  640MOL0     C88214   7.543   1.321   9.540 -0.5741 -0.2138 -0.3740
  640MOL0     C88215   7.619   1.215   9.583  0.1171 -0.2956 -0.7152
  640MOL0     C88216   7.758   1.227   9.607  0.3940 -0.6178  0.1612
  640MOL0     C88217   7.825   1.350   9.581  0.7267  0.3611  0.9738
  640MOL0     O88218   7.963   1.365   9.591  0.0826 -0.2669 -0.7319
  640MOL0     C88219   8.046   1.268   9.661 -0.4098  0.6404 -0.5604
  640MOL0     C88220   8.179   1.328   9.706 -0.4362 -0.2051  0.2166
  640MOL0     C88221   8.248   1.250   9.812  0.0853  0.0057  0.1189
  640MOL0     C88222   8.345   1.335   9.885 -0.7276 -0.4188  0.1268
  640MOL0     C88223   8.432   1.249   9.985 -0.4719 -0.0745 -0.1310
  640MOL0     C88224   8.353   1.166  10.088  0.5985  0.2837  0.7327
  640MOL0     C88225   8.458   1.124  10.185 -0.1575  0.5223 -0.1416
  640MOL0     C88226   8.388   1.050  10.297  0.3677  0.4915 -0.1652
  640MOL0    Cl88227   8.296   0.906  10.240  0.5017  0.2381  0.2415
  640MOL0     C88228   7.746   1.458   9.542 -0.7561 -0.3675  1.1826
  640MOL0     C88229   7.609   1.445   9.517  0.3582  0.6772 -0.2686
  640MOL0     O88230   7.444   1.161   9.340  0.0794 -0.2392 -0.6929
  640MOL0     C88231   7.136   1.284   9.494  0.3836 -0.1339 -1.3068
  640MOL0     C88232   7.000   1.272   9.494  0.2447  0.5841  0.1765
  640MOL0     N88233   6.276   1.385   9.240 -0.4071  0.3640 -0.1077
  640MOL0     N88234   6.222   1.504   9.246  0.0799 -0.2353 -0.4075
  640MOL0     C88235   5.192   2.153   9.093  0.6046  0.1506  0.7575
  640MOL0     C88236   5.071   2.229   9.099 -0.0367  0.0401  0.5738
  640MOL0     C88237   4.763   2.552   9.098 -0.0536 -0.6592  0.3975
  640MOL0     C88238   4.670   2.462   9.155  0.7724 -0.2865 -0.0480
  640MOL0     C88239   4.536   2.501   9.177 -0.1940  0.0676 -0.6994
  640MOL0     C88240   4.484   2.621   9.126  0.5888 -0.9560  0.4239
  640MOL0     O88241   4.358   2.659   9.154 -0.5637  0.2029 -0.5902
  640MOL0     C88242   4.299   2.786   9.104 -0.6796  0.3355 -0.1785
  640MOL0     C88243   4.178   2.820   9.189 -0.5701 -0.3847  0.3904
  640MOL0     C88244   4.068   2.721   9.164  0.1303  0.5453  0.1659
  640MOL0     C88245   3.981   2.694   9.291 -0.2429 -0.8860 -0.1623
  640MOL0     C88246   3.853   2.624   9.260 -0.0587 -0.4041 -0.6625
  640MOL0     C88247   3.760   2.555   9.230 -0.3036  0.2060 -0.8856
  640MOL0     C88248   4.574   2.711   9.069 -0.7585  0.1722 -0.4757
  640MOL0     C88249   4.712   2.679   9.056 -0.1380 -0.3826  0.4242
  640MOL0     C88250   4.792   2.794   9.000  0.0217  0.4837  0.1566
  640MOL0     H88251   5.163   2.483   9.293 -0.3604 -0.8653  1.6054
  640MOL0     H88252   5.387   2.366   9.266 -0.4475 -0.4677  0.0755
  640MOL0     H88253   5.445   1.961   9.044 -2.8559  0.3436 -0.7744
  640MOL0     H88254   5.349   1.955   9.196  0.8162  0.0335  1.1996
  640MOL0     H88255   5.658   2.018   9.176 -0.2257  2.4726  1.8737
  640MOL0     H88256   5.573   1.995   9.315  1.6087 -2.1876  0.1128
  640MOL0     H88257   5.539   1.747   9.241 -0.3186  2.4932  1.5283
  640MOL0     H88258   5.606   1.768   9.096 -0.0695 -0.9989  0.8125
  640MOL0     H88259   5.831   1.807   9.188  1.7424 -2.7709  1.1130
  640MOL0     H88260   5.765   1.853   9.342 -1.2931 -3.1074  3.2743
  640MOL0     H88261   5.702   1.583   9.258 -0.6501  0.7835 -0.2540
  640MOL0     H88262   5.735   1.643   9.421  2.1911 -0.7055  0.8907
  640MOL0     H88263   5.911   1.488   9.333 -0.4374 -0.3390 -2.3578
  640MOL0     H88264   5.961   1.613   9.223  1.1909 -2.5301  0.3239
  640MOL0     H88265   5.969   1.603   9.528 -0.3747 -0.7925 -0.9340
  640MOL0     H88266   5.963   1.758   9.457  0.5291  0.8862 -0.6749
  640MOL0     H88267   6.182   1.743   9.364  1.1688  0.4537  0.8244
  640MOL0     H88268   6.189   1.674   9.527  2.4490  1.7094 -1.3681
  640MOL0     H88269   6.245   1.434   9.566  1.2950  0.6024  0.3439
  640MOL0     H88270   6.369   1.141   9.322 -4.3595  1.7180 -1.4825
  640MOL0     H88271   6.307   1.173   9.492 -1.2938  1.6155 -0.1661
  640MOL0     H88272   6.564   1.286   9.366  2.2178 -0.9032  1.1863
  640MOL0     H88273   6.509   1.307   9.533  2.6576  1.2808 -0.1566
  640MOL0     H88274   6.563   1.087   9.596  2.7165  0.8654  1.6114
  640MOL0     H88275   6.589   1.030   9.426  0.9859 -0.6628  1.3239
  640MOL0     H88276   6.749   1.235   9.590  3.2293 -2.8153  3.2136
  640MOL0     H88277   6.792   1.068   9.558  0.6891 -0.7169 -0.0431
  640MOL0     H88278   6.966   1.090   9.220  1.7307  0.8748 -0.9315
  640MOL0     H88279   7.302   1.107   9.138  1.7065 -1.9985  0.1352
  640MOL0     H88280   7.159   1.013   9.126  0.3305 -1.8530  0.8244
  640MOL0     H88281   7.262   0.970   9.259 -0.4567  0.0017 -0.0629
  640MOL0     H88282   7.561   1.123   9.584 -1.1066  0.3995 -2.3712
  640MOL0     H88283   7.808   1.132   9.623  0.2821 -0.8507 -0.8360
  640MOL0     H88284   7.987   1.222   9.740  0.5126  0.1148 -0.1583
  640MOL0     H88285   8.066   1.191   9.586  3.0649 -0.8351  1.6240
  640MOL0     H88286   8.249   1.330   9.622  1.3671 -0.3141  1.6724
  640MOL0     H88287   8.163   1.427   9.750  0.1653  1.0041 -2.0773
  640MOL0     H88288   8.294   1.163   9.765 -2.0922 -1.3197  0.3051
  640MOL0     H88289   8.170   1.214   9.880  0.0334 -2.0832 -0.9529
  640MOL0     H88290   8.281   1.409   9.934 -1.6180 -0.8650 -0.3347
  640MOL0     H88291   8.410   1.389   9.815  1.1159  0.4262  2.3632
  640MOL0     H88292   8.487   1.178   9.923 -0.3557  0.2598 -0.4119
  640MOL0     H88293   8.494   1.323  10.036 -1.3918 -0.0939  1.0527
  640MOL0     H88294   8.315   1.073  10.045 -1.3078  1.8137 -1.1356
  640MOL0     H88295   8.268   1.226  10.124 -2.4131 -0.9199 -3.5327
  640MOL0     H88296   8.507   1.218  10.213 -1.7375  1.2598  0.2573
  640MOL0     H88297   8.535   1.062  10.137 -0.1401  0.3972  0.0470
  640MOL0     H88298   8.307   1.117  10.330 -1.3358 -1.2894 -0.4978
  640MOL0     H88299   8.453   1.038  10.384 -0.0990  1.0327  0.2679
  640MOL0     H88300   7.800   1.549   9.520  2.4787 -2.2745  0.5713
  640MOL0     H88301   7.540   1.526   9.498 -1.0959 -0.0770  1.4846
  640MOL0     H88302   7.172   1.337   9.581 -4.1376  0.4083  0.5134
  640MOL0     H88303   6.943   1.302   9.581  0.5196 -1.4865  1.1344
  640MOL0     H88304   5.204   2.069   9.026  1.9545  1.7183 -1.0977
  640MOL0     H88305   4.978   2.199   9.051  0.8115  0.4303 -1.3963
  640MOL0     H88306   4.699   2.361   9.181  1.0422 -0.4709 -1.0120
  640MOL0     H88307   4.467   2.426   9.215 -0.0334 -1.0138 -2.4209
  640MOL0     H88308   4.363   2.874   9.101 -1.7882  1.1407 -1.3431
  640MOL0     H88309   4.263   2.786   9.000 -0.0134  3.6411 -0.5253
  640MOL0     H88310   4.144   2.921   9.163  1.8812  1.4751  3.6997
  640MOL0     H88311   4.197   2.819   9.297 -1.4248 -1.9566  0.5664
  640MOL0     H88312   4.005   2.766   9.086  0.0131 -1.4350 -0.9482
  640MOL0     H88313   4.101   2.623   9.128 -0.5168 -0.2144  1.5623
  640MOL0     H88314   3.968   2.792   9.338  1.9245 -0.9871  0.8016
  640MOL0     H88315   4.031   2.634   9.367 -2.5590 -0.9022  1.4430
  640MOL0     H88316   3.685   2.482   9.209 -1.2805  0.2344  1.9607
  640MOL0     H88317   4.545   2.809   9.034 -2.6713 -0.1401  0.0909
  640MOL0     H88318   4.785   2.803   8.891  1.4385 -2.1018 -0.2303
  640MOL0     H88319   4.766   2.889   9.049 -1.2804 -1.2122  2.9722
  640MOL0     H88320   4.898   2.776   9.021  0.2545 -0.5110 -1.6878
  641MOL0     O88321   1.135   1.099   5.578 -0.4238 -0.8214 -0.3959
  641MOL0     C88322   1.094   1.045   5.482 -0.6012  0.1096  0.8991
  641MOL0     O88323   1.115   1.072   5.348  0.6977  0.2993  0.1537
  641MOL0     C88324   1.229   1.136   5.316 -0.4899  0.8687  0.1327
  641MOL0     C88325   1.224   1.263   5.251  0.3993 -0.0832  0.1254
  641MOL0     C88326   1.339   1.334   5.215 -0.2518  0.3891  0.8586
  641MOL0     C88327   1.469   1.274   5.245  0.0069  0.3177  0.1791
  641MOL0     O88328   1.589   1.328   5.205  0.7037 -0.4217 -0.3436
  641MOL0     C88329   1.570   1.423   5.106  0.1304 -0.6379 -0.2716
  641MOL0     C88330   1.707   1.481   5.056 -0.5536 -0.3893 -0.2515
  641MOL0     C88331   1.687   1.565   4.931  0.8241  0.6276 -0.1688
  641MOL0     C88332   1.782   1.677   4.918 -0.1393 -0.8109 -0.3965
  641MOL0     C88333   1.919   1.634   4.859 -0.1272 -0.0358  0.1980
  641MOL0     C88334   2.009   1.758   4.840  0.2192 -0.4394 -0.3354
  641MOL0     C88335   2.153   1.743   4.780  0.4337 -0.2889  0.0834
  641MOL0     C88336   2.245   1.637   4.854  0.2783 -0.1850 -0.0659
  641MOL0     N88337   2.377   1.670   4.825 -1.0322 -0.0461 -0.2954
  641MOL0     C88338   2.434   1.781   4.882 -0.6250 -0.4862  0.1752
  641MOL0     C88339   2.560   1.775   4.832 -0.0701 -0.0672 -0.1644
  641MOL0     C88340   2.651   1.886   4.847  0.3314 -0.3124 -0.1401
  641MOL0     C88341   2.732   1.934   4.722 -0.5488 -0.4031 -0.0517
  641MOL0     C88342   2.834   2.049   4.750  0.3325  0.1615  0.4177
  641MOL0     C88343   2.940   2.013   4.856 -0.3237  0.1274 -0.0344
  641MOL0     O88344   3.023   1.903   4.823 -0.3271 -0.0134 -0.0379
  641MOL0     C88345   3.137   1.933   4.753 -0.2807  0.3122 -0.1600
  641MOL0     C88346   3.251   1.935   4.834 -0.4036  0.0843  0.2326
  641MOL0     C88347   3.372   1.960   4.771 -0.2175 -0.0833 -0.5922
  641MOL0     C88348   3.496   1.951   4.857  0.3003  0.0800  0.5862
  641MOL0     C88349   3.372   2.004   4.637 -0.2892  0.0583  0.3985
  641MOL0     C88350   3.500   2.033   4.567 -0.2575 -0.0262 -0.1834
  641MOL0     O88351   3.613   1.962   4.586 -0.0156 -0.1503  0.8224
  641MOL0     C88352   3.714   1.981   4.498 -0.1642 -0.3333 -0.2464
  641MOL0     C88353   3.724   1.908   4.380 -0.3334  0.1620 -0.3276
  641MOL0     C88354   3.813   1.927   4.279  0.6859  0.1665  0.4808
  641MOL0     C88355   3.917   2.015   4.302 -0.4093 -0.0383 -0.1021
  641MOL0     O88356   4.008   2.039   4.203 -0.3751  0.1563  0.2017
  641MOL0     C88357   4.026   2.178   4.166 -0.5971  0.1190  0.2609
  641MOL0     C88358   4.128   2.174   4.059 -0.5002 -0.7476  0.6083
  641MOL0     C88359   4.268   2.166   4.099  0.6268 -0.5385 -0.5863
  641MOL0     C88360   4.352   2.133   3.982 -0.2480 -0.2911  0.1916
  641MOL0     C88361   4.503   2.130   4.004  0.0029 -0.1717  0.3131
  641MOL0     C88362   4.567   2.079   3.876 -0.0935 -0.6392 -0.4208
  641MOL0     C88363   4.541   2.162   3.747  0.4819 -0.3070 -0.5464
  641MOL0     C88364   4.664   2.151   3.664  0.9081 -0.2110  1.0194
  641MOL0    Cl88365   4.703   1.983   3.628  0.4127  0.1407  0.0040
  641MOL0     C88366   3.925   2.087   4.419 -0.4850  0.6282 -0.5471
  641MOL0     C88367   3.828   2.064   4.522 -0.0066 -0.1586 -0.0942
  641MOL0     O88368   3.492   2.129   4.495  0.2121 -0.0351  0.5969
  641MOL0     C88369   3.251   2.009   4.565 -0.8995  1.2378  0.2787
  641MOL0     C88370   3.132   1.974   4.621  0.4086  1.1829 -0.0071
  641MOL0     N88371   2.582   1.672   4.746  0.1275  0.0639  0.1359
  641MOL0     N88372   2.466   1.608   4.739 -0.0311 -0.0588  0.1020
  641MOL0     C88373   1.472   1.145   5.307  0.2006  0.4913  0.7299
  641MOL0     C88374   1.354   1.081   5.344  0.0475  0.2986  0.2106
  641MOL0     C88375   1.006   0.939   5.514  0.9635  0.7080 -0.3161
  641MOL0     C88376   0.902   0.901   5.423 -0.8181  0.1370 -0.2352
  641MOL0     C88377   0.827   0.788   5.439  0.0739 -0.0702  0.1674
  641MOL0     C88378   0.855   0.700   5.538 -0.2785 -0.0069  0.4685
  641MOL0     O88379   0.784   0.586   5.559  0.0250 -0.1307  0.4037
  641MOL0     C88380   0.681   0.543   5.470 -0.1306 -0.5348 -0.2352
  641MOL0     C88381   0.680   0.392   5.473  0.4607 -0.6710 -0.3150
  641MOL0     C88382   0.798   0.332   5.394  0.3940 -0.1710  0.3880
  641MOL0     C88383   0.798   0.185   5.411 -0.1895  0.0354  0.3041
  641MOL0     C88384   0.819   0.150   5.550 -0.2664  0.1615 -0.5365
  641MOL0     C88385   0.832   0.111   5.666  0.8671  0.5861  0.0687
  641MOL0     C88386   0.954   0.729   5.626  0.0332  0.6180 -0.1510
  641MOL0     C88387   1.032   0.843   5.618 -0.4639 -0.0038 -0.0511
  641MOL0     C88388   1.145   0.864   5.712 -0.4995 -0.3058  0.4661
  641MOL0     H88389   1.125   1.296   5.223  0.6683 -0.2057 -1.0514
  641MOL0     H88390   1.325   1.433   5.174  3.8764  0.4739 -0.8694
  641MOL0     H88391   1.506   1.510   5.121 -0.5137 -0.4465 -3.3735
  641MOL0     H88392   1.524   1.370   5.022  0.6917 -0.4616 -0.6949
  641MOL0     H88393   1.745   1.542   5.139 -0.3820  0.8121 -1.1968
  641MOL0     H88394   1.777   1.403   5.025 -0.8865 -1.1170  0.7665
  641MOL0     H88395   1.699   1.491   4.851 -0.3864 -1.6093  1.5777
  641MOL0     H88396   1.586   1.607   4.924  0.6809  0.0523 -2.4354
  641MOL0     H88397   1.739   1.756   4.856  2.4317 -0.4213 -1.8343
  641MOL0     H88398   1.796   1.723   5.017  0.6046 -1.8949  0.0147
  641MOL0     H88399   1.903   1.585   4.762 -0.5910 -0.5142  0.5082
  641MOL0     H88400   1.947   1.550   4.923  0.4081 -0.4044 -0.4963
  641MOL0     H88401   1.948   1.827   4.781  0.1433  0.6847  1.0087
  641MOL0     H88402   2.022   1.804   4.938  0.8112  2.0339 -1.5032
  641MOL0     H88403   2.202   1.841   4.782  1.6745 -0.8682 -0.5693
  641MOL0     H88404   2.139   1.711   4.676 -3.1168 -0.1098  0.3740
  641MOL0     H88405   2.234   1.643   4.963  0.8373  3.1969 -0.1127
  641MOL0     H88406   2.224   1.535   4.818  1.3742  0.1687 -1.8168
  641MOL0     H88407   2.387   1.856   4.945  1.1207 -1.0908  2.2934
  641MOL0     H88408   2.728   1.857   4.919  1.8470  0.8131 -1.2665
  641MOL0     H88409   2.597   1.973   4.885  1.4055  0.5734 -0.6000
  641MOL0     H88410   2.774   1.848   4.667 -0.2879 -2.0731  2.5847
  641MOL0     H88411   2.665   1.980   4.649  2.2178 -0.9169 -3.2118
  641MOL0     H88412   2.881   2.080   4.656  0.7299  2.1418  1.2097
  641MOL0     H88413   2.782   2.139   4.785 -0.5760  0.1333 -0.8020
  641MOL0     H88414   3.001   2.098   4.889 -2.4259  0.4575  3.3692
  641MOL0     H88415   2.895   1.993   4.953  3.1504 -0.8312  1.5673
  641MOL0     H88416   3.230   1.931   4.941  2.4433 -0.3597  0.8640
  641MOL0     H88417   3.560   2.040   4.846  2.0300 -1.2396 -0.7264
  641MOL0     H88418   3.563   1.869   4.829  0.2237  0.1344  0.2323
  641MOL0     H88419   3.475   1.949   4.964  1.6172  2.9494  1.0124
  641MOL0     H88420   3.656   1.831   4.346  1.0211 -2.8081  3.0460
  641MOL0     H88421   3.810   1.874   4.184 -1.2438 -0.4714  0.8512
  641MOL0     H88422   3.936   2.221   4.122 -0.4579  1.0566  0.8701
  641MOL0     H88423   4.062   2.237   4.251  0.3652  1.0716 -0.7624
  641MOL0     H88424   4.101   2.097   3.986 -2.6913  1.4916 -1.1490
  641MOL0     H88425   4.122   2.275   4.018  1.8858  1.4669  5.0640
  641MOL0     H88426   4.278   2.087   4.174  0.7643  0.2240  0.2181
  641MOL0     H88427   4.304   2.258   4.147  0.3329 -1.2995  1.1679
  641MOL0     H88428   4.334   2.218   3.915 -2.4483  2.6596  4.0784
  641MOL0     H88429   4.320   2.037   3.943 -0.3408 -0.5057  0.7893
  641MOL0     H88430   4.547   2.228   4.026 -0.0177  0.1894 -1.1489
  641MOL0     H88431   4.518   2.065   4.091 -0.2236  1.7693  1.8912
  641MOL0     H88432   4.537   1.975   3.859 -1.6804 -0.1551 -0.7768
  641MOL0     H88433   4.675   2.078   3.895 -0.6712  0.3280  4.1796
  641MOL0     H88434   4.530   2.269   3.766 -1.5360 -0.8713  1.9583
  641MOL0     H88435   4.459   2.116   3.692 -1.8460 -2.3225  4.0008
  641MOL0     H88436   4.752   2.200   3.708  1.8066 -1.5677  0.7826
  641MOL0     H88437   4.647   2.201   3.569  0.0782  0.8406  1.6970
  641MOL0     H88438   4.003   2.161   4.431  0.7551 -0.6922 -0.1197
  641MOL0     H88439   3.838   2.115   4.617  0.7392 -0.0701 -0.2149
  641MOL0     H88440   3.249   2.050   4.465  2.5886 -2.6150 -1.7020
  641MOL0     H88441   3.040   1.977   4.564  0.4174 -0.3296 -0.1511
  641MOL0     H88442   1.568   1.099   5.328  0.4538 -1.4017 -3.5999
  641MOL0     H88443   1.356   0.998   5.414 -1.5324 -1.0422 -1.2672
  641MOL0     H88444   0.895   0.980   5.349  1.5402  0.3643 -0.3094
  641MOL0     H88445   0.742   0.767   5.375 -0.4904 -0.2010  0.9390
  641MOL0     H88446   0.588   0.594   5.497  0.3355  0.7830 -1.0232
  641MOL0     H88447   0.710   0.565   5.367  4.4438 -1.6962  0.6086
  641MOL0     H88448   0.596   0.350   5.418 -0.2888  1.1777 -0.6570
  641MOL0     H88449   0.672   0.362   5.578 -1.8664  2.1571  0.4488
  641MOL0     H88450   0.790   0.356   5.288  2.2065  0.6289  0.3856
  641MOL0     H88451   0.889   0.376   5.436 -1.1445  3.4536  0.3218
  641MOL0     H88452   0.883   0.150   5.351  2.0550  3.0546  1.5325
  641MOL0     H88453   0.698   0.152   5.380 -0.2145  0.7450 -0.4191
  641MOL0     H88454   0.850   0.083   5.768  1.9005  1.0450  0.0280
  641MOL0     H88455   0.968   0.657   5.705 -0.5024  0.8900  0.2005
  641MOL0     H88456   1.231   0.889   5.650 -1.5530  0.4726 -0.7086
  641MOL0     H88457   1.110   0.938   5.784 -1.3766 -1.1722  0.9672
  641MOL0     H88458   1.163   0.771   5.767  2.4831  0.3139  0.7261
  642MOL0     O88459   5.357   6.809   2.390  0.2947 -0.3304 -0.7247
  642MOL0     C88460   5.391   6.915   2.431 -0.0473 -0.3272 -0.4429
  642MOL0     O88461   5.519   6.953   2.476  0.4814 -0.2471  0.1644
  642MOL0     C88462   5.629   6.881   2.450 -0.7858 -0.5755  0.7681
  642MOL0     C88463   5.652   6.786   2.347  0.5249  0.6612 -0.9070
  642MOL0     C88464   5.769   6.728   2.329 -0.2978 -0.0074 -0.1608
  642MOL0     C88465   5.874   6.757   2.417  0.4864 -0.3606  0.0000
  642MOL0     O88466   5.993   6.690   2.394  0.1131  1.0209 -0.0843
  642MOL0     C88467   6.055   6.613   2.503  0.5219 -0.2124  0.6391
  642MOL0     C88468   6.205   6.599   2.489  0.6359 -0.8220 -1.0655
  642MOL0     C88469   6.231   6.517   2.366  0.0558 -1.2390  0.7022
  642MOL0     C88470   6.383   6.517   2.351 -0.2243  0.3246 -0.5907
  642MOL0     C88471   6.429   6.437   2.228  0.9833  0.2991 -0.4264
  642MOL0     C88472   6.397   6.496   2.092 -0.0078 -0.1091  0.2203
  642MOL0     C88473   6.422   6.401   1.971 -0.1989  0.2006 -0.1932
  642MOL0     C88474   6.569   6.366   1.937  0.0513 -0.3746 -0.5917
  642MOL0     N88475   6.655   6.481   1.941 -0.2944  0.5239  0.9287
  642MOL0     C88476   6.646   6.584   1.849  0.0326  0.0520  0.4490
  642MOL0     C88477   6.732   6.673   1.890 -0.3863  0.9777 -0.9137
  642MOL0     C88478   6.769   6.794   1.815  0.3107 -0.3920  0.6449
  642MOL0     C88479   6.905   6.783   1.738  0.1796 -0.3178  0.1237
  642MOL0     C88480   6.936   6.919   1.677  0.6896  0.0379 -0.6330
  642MOL0     C88481   7.020   6.905   1.553 -0.4315  1.2996  0.5550
  642MOL0     O88482   7.140   6.839   1.585  0.5011  0.0568 -0.4358
  642MOL0     C88483   7.254   6.910   1.622  0.3410  0.3098 -0.6408
  642MOL0     C88484   7.256   7.050   1.607  0.5838  0.6414  0.6015
  642MOL0     C88485   7.369   7.125   1.638  0.5951 -0.4674  0.2337
  642MOL0     C88486   7.355   7.275   1.629 -0.2713  0.1295  0.1288
  642MOL0     C88487   7.487   7.053   1.674 -0.1012 -0.1678 -0.3891
  642MOL0     C88488   7.617   7.119   1.727  0.7112 -0.6832  0.5920
  642MOL0     O88489   7.591   7.230   1.799  0.1480  0.0394  0.0595
  642MOL0     C88490   7.698   7.305   1.840 -0.6776  0.4107  0.4881
  642MOL0     C88491   7.732   7.431   1.796  0.1719  0.6923 -0.4143
  642MOL0     C88492   7.835   7.497   1.851  0.1922 -0.6053  0.4750
  642MOL0     C88493   7.913   7.454   1.964  0.2369 -0.2708 -0.0521
  642MOL0     O88494   8.005   7.526   2.029  0.3199 -0.8219 -0.2160
  642MOL0     C88495   8.003   7.669   2.020  0.1543 -0.2230  0.4115
  642MOL0     C88496   8.091   7.717   2.146 -0.4139 -0.1590  0.1928
  642MOL0     C88497   8.240   7.676   2.139  0.6014 -0.3722  0.5311
  642MOL0     C88498   8.303   7.746   2.266 -0.1755 -0.2340  0.2469
  642MOL0     C88499   8.456   7.752   2.261 -0.1726  0.5792 -0.0072
  642MOL0     C88500   8.515   7.765   2.397 -0.5090  0.2495 -0.2090
  642MOL0     C88501   8.497   7.913   2.447  0.6658 -0.3982 -0.3152
  642MOL0     C88502   8.596   7.948   2.563  0.3031 -0.2412 -0.0428
  642MOL0    Cl88503   8.747   7.996   2.493 -0.2397  0.0065 -0.1171
  642MOL0     C88504   7.887   7.324   2.017  1.0179 -0.3346  0.5136
  642MOL0     C88505   7.776   7.255   1.950  0.1028  0.2952  0.4424
  642MOL0     O88506   7.724   7.063   1.721  0.4091 -0.0022 -0.0585
  642MOL0     C88507   7.483   6.914   1.677  1.1326  0.0723 -0.4520
  642MOL0     C88508   7.367   6.840   1.649  0.3133 -1.1909 -0.0049
  642MOL0     N88509   6.785   6.632   2.011 -0.1925 -0.8363 -0.1976
  642MOL0     N88510   6.737   6.519   2.043  0.1792 -0.4050 -0.5053
  642MOL0     C88511   5.854   6.846   2.526 -0.0443 -0.3152 -0.5341
  642MOL0     C88512   5.738   6.915   2.536 -0.2564 -0.1365  0.0030
  642MOL0     C88513   5.279   7.001   2.469 -0.2216 -0.4839 -0.0070
  642MOL0     C88514   5.251   7.044   2.600 -0.1480  0.4392 -0.0575
  642MOL0     C88515   5.140   7.125   2.624 -0.2226  0.3601  0.3442
  642MOL0     C88516   5.063   7.176   2.523 -0.2128  1.2161 -0.8429
  642MOL0     O88517   4.957   7.257   2.555 -0.0226 -1.2635 -0.0679
  642MOL0     C88518   4.848   7.299   2.465 -0.2242  0.4263  0.5103
  642MOL0     C88519   4.761   7.180   2.399 -0.5140 -0.7225 -0.3597
  642MOL0     C88520   4.649   7.138   2.502 -0.3430 -0.2129  0.5919
  642MOL0     C88521   4.541   7.238   2.533  0.9472 -0.2371 -0.4953
  642MOL0     C88522   4.456   7.276   2.417 -0.5282  0.0011  0.5026
  642MOL0     C88523   4.385   7.290   2.325  0.4891  0.1771  0.5850
  642MOL0     C88524   5.091   7.145   2.393  0.3987 -0.6183  0.1967
  642MOL0     C88525   5.197   7.052   2.370  1.3487 -0.3089 -0.0755
  642MOL0     C88526   5.210   7.027   2.221  0.4251  0.1233 -1.2311
  642MOL0     H88527   5.577   6.769   2.271  0.0555 -0.1472 -0.2765
  642MOL0     H88528   5.776   6.667   2.238 -0.1992  0.2341 -0.3170
  642MOL0     H88529   6.008   6.514   2.495  3.0642 -1.4817 -0.0199
  642MOL0     H88530   6.029   6.648   2.603 -0.3706 -0.9438  0.6744
  642MOL0     H88531   6.249   6.699   2.482  1.8300 -1.2172  0.2409
  642MOL0     H88532   6.247   6.554   2.579  1.8622  1.4488 -0.4367
  642MOL0     H88533   6.202   6.413   2.380  0.8057 -1.3912  1.2027
  642MOL0     H88534   6.181   6.553   2.276 -0.5488 -3.1648  0.2341
  642MOL0     H88535   6.428   6.617   2.350  2.0341 -0.5036  2.6138
  642MOL0     H88536   6.426   6.464   2.437 -1.4878  1.0178  0.5006
  642MOL0     H88537   6.400   6.331   2.233  0.9985  0.3373  0.9287
  642MOL0     H88538   6.538   6.433   2.230  1.0692 -0.2713 -2.7477
  642MOL0     H88539   6.291   6.521   2.078  0.4729  1.6475 -0.5534
  642MOL0     H88540   6.454   6.587   2.077  0.3040 -0.6688 -2.3864
  642MOL0     H88541   6.381   6.447   1.881  4.0653  2.1733 -1.3874
  642MOL0     H88542   6.370   6.310   2.002 -0.8955  1.6158  3.2743
  642MOL0     H88543   6.606   6.299   2.016  1.7602  1.4366  0.2414
  642MOL0     H88544   6.562   6.316   1.840 -1.2712  0.3924 -0.9119
  642MOL0     H88545   6.581   6.598   1.763  1.0107 -2.5346 -0.8321
  642MOL0     H88546   6.761   6.882   1.879 -4.1388 -0.7437  0.8493
  642MOL0     H88547   6.689   6.815   1.744  2.8316  4.0742 -1.3214
  642MOL0     H88548   6.984   6.742   1.801  1.4852  1.3147 -0.4128
  642MOL0     H88549   6.867   6.709   1.666 -1.4073 -0.2395  0.8500
  642MOL0     H88550   6.846   6.975   1.649 -0.3988 -1.2325  0.1885
  642MOL0     H88551   6.989   6.987   1.744  1.8674  0.4322 -1.9204
  642MOL0     H88552   6.986   6.829   1.483  1.0884  1.2193 -0.1412
  642MOL0     H88553   7.028   6.995   1.492 -1.7966  0.8989 -0.2340
  642MOL0     H88554   7.163   7.103   1.590 -0.9602 -1.5327  1.8353
  642MOL0     H88555   7.425   7.315   1.555  0.2784 -2.0122 -0.5668
  642MOL0     H88556   7.375   7.322   1.726 -1.6754 -2.1785  1.6315
  642MOL0     H88557   7.261   7.317   1.591  1.6103  0.6978 -4.6903
  642MOL0     H88558   7.680   7.481   1.716  2.5043  0.3065 -2.3049
  642MOL0     H88559   7.845   7.600   1.820 -1.4781 -0.1296  1.3975
  642MOL0     H88560   8.053   7.707   1.931  1.6581  1.0297  1.7283
  642MOL0     H88561   7.902   7.710   2.035  0.5252  1.5396 -1.5137
  642MOL0     H88562   8.081   7.824   2.162  1.7123  0.1911 -0.5922
  642MOL0     H88563   8.039   7.668   2.229  1.6802 -0.7850  1.2082
  642MOL0     H88564   8.287   7.711   2.047 -3.6671  0.9840 -1.3796
  642MOL0     H88565   8.260   7.568   2.133  1.3720 -0.2698  1.0265
  642MOL0     H88566   8.272   7.691   2.355  1.6203 -1.9269 -0.1117
  642MOL0     H88567   8.270   7.848   2.287 -0.3863 -0.5789  1.6467
  642MOL0     H88568   8.493   7.659   2.217  0.8204  0.6319  0.6856
  642MOL0     H88569   8.499   7.833   2.202 -1.4548  0.0596 -1.7477
  642MOL0     H88570   8.624   7.756   2.387 -0.5268 -0.4451  0.1495
  642MOL0     H88571   8.479   7.687   2.465 -1.4509  1.4035  0.6429
  642MOL0     H88572   8.399   7.917   2.496  1.8485  2.2043  2.0886
  642MOL0     H88573   8.510   7.987   2.368  1.3809 -0.6243 -0.4145
  642MOL0     H88574   8.610   7.861   2.627 -2.3268  0.4679  1.6777
  642MOL0     H88575   8.545   8.014   2.633  0.5640 -0.3572  0.2612
  642MOL0     H88576   7.936   7.290   2.108  0.7923  0.9069  1.1260
  642MOL0     H88577   7.751   7.156   1.989 -1.8093  1.0310  1.2190
  642MOL0     H88578   7.571   6.859   1.708  1.1098 -0.9979 -2.1023
  642MOL0     H88579   7.354   6.732   1.655 -1.3667 -1.1393 -1.7259
  642MOL0     H88580   5.929   6.878   2.598 -0.1793  0.5077 -0.7439
  642MOL0     H88581   5.733   6.985   2.618  4.2686 -0.7439  1.0682
  642MOL0     H88582   5.307   7.011   2.686  0.6741 -2.3285 -1.5422
  642MOL0     H88583   5.115   7.143   2.728  0.9900  3.8405  0.1486
  642MOL0     H88584   4.791   7.371   2.524  0.3116 -0.6850  2.4648
  642MOL0     H88585   4.900   7.349   2.383  0.2970 -2.4129 -1.0178
  642MOL0     H88586   4.820   7.091   2.377  1.4946  0.2340  0.8517
  642MOL0     H88587   4.724   7.225   2.306  1.0786  1.3136 -0.0845
  642MOL0     H88588   4.594   7.052   2.462  1.3124 -1.2438  0.4260
  642MOL0     H88589   4.694   7.099   2.594 -0.4168 -1.1302  0.2443
  642MOL0     H88590   4.586   7.326   2.580  0.9746  1.2664 -3.1010
  642MOL0     H88591   4.463   7.200   2.600 -0.6883  1.5749 -1.2753
  642MOL0     H88592   4.321   7.310   2.242 -0.3162  0.5529  1.2845
  642MOL0     H88593   5.028   7.186   2.315  3.0748  4.5468  0.2936
  642MOL0     H88594   5.160   7.106   2.164  1.4969  0.6949 -1.4139
  642MOL0     H88595   5.317   7.024   2.198  1.4054 -1.8983  2.6305
  642MOL0     H88596   5.154   6.936   2.199  0.4958 -0.8032  1.8911
  643MOL0     O88597   7.346   5.018   3.897  0.2775  0.7054 -0.1541
  643MOL0     C88598   7.262   4.984   3.980 -0.2098  0.5655 -0.2076
  643MOL0     O88599   7.281   4.982   4.114  0.0969  0.2041  1.1456
  643MOL0     C88600   7.400   5.022   4.170 -0.1511  0.6192  0.2957
  643MOL0     C88601   7.455   4.950   4.272  0.5470  0.5801  0.0259
  643MOL0     C88602   7.561   5.002   4.352  0.2593  0.2247  0.1396
  643MOL0     C88603   7.607   5.133   4.331  0.4873  0.5255  0.7472
  643MOL0     O88604   7.712   5.179   4.402 -0.4162 -0.2655  0.0113
  643MOL0     C88605   7.744   5.317   4.415 -0.1566 -0.2796 -0.1630
  643MOL0     C88606   7.840   5.364   4.305  0.8535  0.3713  0.5828
  643MOL0     C88607   7.861   5.518   4.322 -0.8102  0.4054 -0.1358
  643MOL0     C88608   7.963   5.570   4.214 -0.3054 -0.4901  0.8600
  643MOL0     C88609   8.110   5.559   4.247 -0.3520 -0.1880 -0.2801
  643MOL0     C88610   8.202   5.600   4.130 -0.3229  0.0311 -0.2959
  643MOL0     C88611   8.355   5.592   4.166  0.0297  0.4546  0.0691
  643MOL0     C88612   8.435   5.600   4.045 -0.5422  0.4776 -0.5908
  643MOL0     N88613   8.581   5.619   4.075 -0.4083  0.1476 -0.6717
  643MOL0     C88614   8.663   5.530   4.145 -0.1731 -0.6084  0.5321
  643MOL0     C88615   8.772   5.606   4.172 -0.6030 -1.2757 -0.2001
  643MOL0     C88616   8.880   5.550   4.263  0.0688 -0.3765  0.0578
  643MOL0     C88617   9.022   5.601   4.215  0.5333  0.5206 -0.8183
  643MOL0     C88618   9.135   5.544   4.289 -0.3902 -0.3978  0.8990
  643MOL0     C88619   9.258   5.626   4.282 -0.4180 -0.7559  0.2548
  643MOL0     O88620   9.359   5.562   4.364  0.3554 -0.5711  0.2565
  643MOL0     C88621   9.481   5.629   4.389  0.6875 -0.1204  0.5224
  643MOL0     C88622   9.508   5.761   4.332 -0.7169  0.3614 -0.2774
  643MOL0     C88623   9.640   5.814   4.342  0.1260 -0.1552  0.7047
  643MOL0     C88624   9.661   5.955   4.281  0.2263 -0.1292  0.5635
  643MOL0     C88625   9.746   5.738   4.402  0.5183  0.2417  1.0280
  643MOL0     C88626   9.893   5.777   4.387  0.8019  0.4845 -0.2293
  643MOL0     O88627   9.986   5.725   4.473  0.8142  0.0637 -0.0916
  643MOL0     C88628  10.122   5.748   4.474 -0.1849 -1.2542 -0.7745
  643MOL0     C88629  10.191   5.744   4.598 -0.2471 -0.2677  1.1139
  643MOL0     C88630  10.325   5.775   4.606  0.3680 -0.2537 -1.2492
  643MOL0     C88631  10.395   5.806   4.497 -0.2880  0.0392  0.6745
  643MOL0     O88632  10.535   5.826   4.506 -0.0503 -0.5543  0.4988
  643MOL0     C88633  10.595   5.806   4.635 -0.3388 -0.1073 -0.7868
  643MOL0     C88634  10.747   5.836   4.626 -0.6967 -1.3061  0.8921
  643MOL0     C88635  10.780   5.981   4.638 -0.2932 -0.4988 -0.1586
  643MOL0     C88636  10.928   6.010   4.606 -0.0122  0.0730  0.1564
  643MOL0     C88637  10.975   6.147   4.651 -0.5170  0.0013 -0.4543
  643MOL0     C88638  11.116   6.184   4.615 -0.1655 -0.4890  0.2030
  643MOL0     C88639  11.136   6.203   4.464  0.1410  0.5823  0.2939
  643MOL0     C88640  11.281   6.197   4.428 -0.5906  0.1467  0.9175
  643MOL0    Cl88641  11.297   6.253   4.257  0.1200  0.1235  0.2418
  643MOL0     C88642  10.334   5.807   4.372  0.2340 -0.1682  0.0599
  643MOL0     C88643  10.200   5.773   4.360 -0.0484  0.3888 -0.4905
  643MOL0     O88644   9.919   5.849   4.294  0.3100 -0.2022  0.2127
  643MOL0     C88645   9.713   5.619   4.465  0.1623 -0.3226 -0.4258
  643MOL0     C88646   9.589   5.565   4.462  0.0254 -0.7060  0.4129
  643MOL0     N88647   8.751   5.734   4.128  0.1656  0.3971 -0.2021
  643MOL0     N88648   8.634   5.742   4.076  0.5838 -0.3303  0.0030
  643MOL0     C88649   7.545   5.203   4.227 -0.0681 -0.1889  0.1593
  643MOL0     C88650   7.447   5.151   4.145  0.2674  0.7483  0.4830
  643MOL0     C88651   7.134   4.933   3.926  0.2785 -0.3024 -0.2417
  643MOL0     C88652   7.028   4.926   4.019 -0.0317  0.2216  0.8218
  643MOL0     C88653   6.906   4.886   3.978  0.0349 -0.3903  0.5567
  643MOL0     C88654   6.879   4.840   3.851 -0.1333 -0.1646 -1.5022
  643MOL0     O88655   6.754   4.788   3.835 -0.0016  0.2677 -0.2161
  643MOL0     C88656   6.755   4.645   3.793 -0.2502  0.1620 -0.4517
  643MOL0     C88657   6.769   4.554   3.922  0.9078  0.2047 -0.4233
  643MOL0     C88658   6.649   4.587   4.023 -0.6167  0.2514 -1.6096
  643MOL0     C88659   6.636   4.473   4.127 -0.9287  0.0729 -1.1690
  643MOL0     C88660   6.531   4.497   4.236 -0.9547  0.2340 -0.4966
  643MOL0     C88661   6.441   4.523   4.313 -0.1446 -0.6269 -0.3898
  643MOL0     C88662   6.975   4.848   3.754  0.7678  0.5722  0.4425
  643MOL0     C88663   7.100   4.897   3.788 -0.8846  0.0631  0.0033
  643MOL0     C88664   7.203   4.901   3.675 -0.7189  0.2241  0.0114
  643MOL0     H88665   7.415   4.850   4.281 -1.9041  1.5108  0.1445
  643MOL0     H88666   7.585   4.952   4.445 -0.6262  3.9304  2.5860
  643MOL0     H88667   7.802   5.321   4.508 -1.5320  0.2293  0.7022
  643MOL0     H88668   7.653   5.375   4.432 -1.8337 -2.9338  0.4436
  643MOL0     H88669   7.933   5.308   4.313  1.5264  1.5770  1.5586
  643MOL0     H88670   7.805   5.353   4.201  1.2626  0.3257  0.4483
  643MOL0     H88671   7.765   5.569   4.308 -1.1517  0.4824  2.1479
  643MOL0     H88672   7.896   5.541   4.423  0.5744  0.9109 -0.7013
  643MOL0     H88673   7.948   5.510   4.124  2.8907 -2.0405  1.2344
  643MOL0     H88674   7.936   5.672   4.185  1.9435 -0.2059 -0.4371
  643MOL0     H88675   8.122   5.456   4.282 -0.7182  0.1325  0.8340
  643MOL0     H88676   8.139   5.624   4.331 -1.2589  1.3675 -1.1209
  643MOL0     H88677   8.181   5.551   4.034 -2.1209  0.4826 -0.1610
  643MOL0     H88678   8.187   5.708   4.116 -2.1233 -0.0892  0.5297
  643MOL0     H88679   8.393   5.520   4.239  0.8124 -0.4725 -1.2249
  643MOL0     H88680   8.388   5.684   4.216 -0.6448 -0.0877  1.5499
  643MOL0     H88681   8.428   5.503   3.995  4.4651 -0.7017  0.4642
  643MOL0     H88682   8.390   5.677   3.981  1.4109  0.4821 -2.0354
  643MOL0     H88683   8.640   5.429   4.175 -0.7390 -0.4165  0.7617
  643MOL0     H88684   8.865   5.442   4.268 -1.1977 -0.1758  4.1716
  643MOL0     H88685   8.865   5.584   4.366 -0.3741 -1.5467  0.3929
  643MOL0     H88686   9.029   5.574   4.109  1.1740  0.7186 -0.8317
  643MOL0     H88687   9.023   5.708   4.240 -1.3450  0.1442  1.2156
  643MOL0     H88688   9.101   5.528   4.391 -2.1654  0.5256  0.4852
  643MOL0     H88689   9.158   5.448   4.243 -1.7900  0.1654 -1.1403
  643MOL0     H88690   9.295   5.628   4.179 -0.4681  3.4652  0.1165
  643MOL0     H88691   9.245   5.727   4.323 -1.8954 -2.0677  3.3304
  643MOL0     H88692   9.430   5.819   4.283 -0.7760  1.0502  0.6086
  643MOL0     H88693   9.721   5.940   4.191 -0.5734 -1.6096  0.2445
  643MOL0     H88694   9.705   6.018   4.358  0.4736  2.5494 -1.6403
  643MOL0     H88695   9.567   6.001   4.250  0.9762  1.0802  0.0485
  643MOL0     H88696  10.138   5.731   4.691  1.0601 -1.9442  1.6657
  643MOL0     H88697  10.365   5.776   4.707  1.9285 -1.4948 -1.8205
  643MOL0     H88698  10.558   5.863   4.721 -0.5490  1.6256 -1.9878
  643MOL0     H88699  10.584   5.699   4.657 -1.8447 -0.1033 -1.4162
  643MOL0     H88700  10.807   5.779   4.698  1.2570 -1.9965 -1.1771
  643MOL0     H88701  10.778   5.804   4.526  1.3729  2.0113  0.3239
  643MOL0     H88702  10.766   6.008   4.743  2.7778  1.3182 -0.0920
  643MOL0     H88703  10.707   6.041   4.584 -2.2885 -0.6534  2.1942
  643MOL0     H88704  10.936   6.009   4.497 -0.7867  1.9537  0.0459
  643MOL0     H88705  10.998   5.939   4.650  0.6759  0.8239  0.2990
  643MOL0     H88706  10.906   6.225   4.617 -0.9913 -0.8624 -1.5105
  643MOL0     H88707  10.970   6.148   4.760 -1.4594  0.3330 -0.4863
  643MOL0     H88708  11.184   6.111   4.658  0.5391 -0.9476 -1.5903
  643MOL0     H88709  11.145   6.281   4.657  0.4889 -1.3758  1.8928
  643MOL0     H88710  11.102   6.299   4.425 -0.5862 -0.5990 -2.1570
  643MOL0     H88711  11.084   6.121   4.414 -1.6585  1.2211  0.9935
  643MOL0     H88712  11.325   6.097   4.436  0.5397  0.6060  0.7265
  643MOL0     H88713  11.344   6.268   4.483 -0.3364  2.1173 -1.7021
  643MOL0     H88714  10.389   5.829   4.280 -0.1941  0.1923 -0.1114
  643MOL0     H88715  10.159   5.782   4.260 -0.3439  0.0256 -0.4024
  643MOL0     H88716   9.802   5.567   4.499  0.5460 -0.4299 -1.5377
  643MOL0     H88717   9.572   5.459   4.477 -1.1587 -1.0656 -2.7578
  643MOL0     H88718   7.588   5.296   4.193  1.6605 -0.7500  0.7073
  643MOL0     H88719   7.418   5.213   4.061  0.7072  2.5245  1.5836
  643MOL0     H88720   7.042   4.950   4.124  1.3990 -1.7223  1.1358
  643MOL0     H88721   6.824   4.896   4.049 -0.1293 -0.1756  0.3407
  643MOL0     H88722   6.663   4.632   3.736  0.8104 -0.6766 -2.0494
  643MOL0     H88723   6.830   4.610   3.721 -0.5148 -1.4499  0.0196
  643MOL0     H88724   6.863   4.575   3.973  1.2625 -0.5573 -0.7565
  643MOL0     H88725   6.764   4.449   3.894  1.2567 -0.5750  2.1797
  643MOL0     H88726   6.678   4.674   4.082  0.3401 -1.5791  0.7547
  643MOL0     H88727   6.556   4.610   3.970 -0.1765  0.0858 -2.4762
  643MOL0     H88728   6.730   4.452   4.178 -1.9463  1.6971  1.5661
  643MOL0     H88729   6.617   4.380   4.072  1.9584 -0.8484 -0.7786
  643MOL0     H88730   6.357   4.546   4.374 -0.2929 -0.6631 -0.5776
  643MOL0     H88731   6.943   4.821   3.654 -0.9588  1.1807  0.7950
  643MOL0     H88732   7.186   4.821   3.603 -2.0565 -0.1396  0.6974
  643MOL0     H88733   7.203   4.997   3.622  1.8055 -0.3706 -1.2148
  643MOL0     H88734   7.301   4.880   3.717  0.2023  0.5652 -1.8642
  644MOL0     O88735   8.430   0.966   8.658 -0.6372 -0.0536 -0.3738
  644MOL0     C88736   8.315   1.002   8.646 -0.0681  0.1582  0.6513
  644MOL0     O88737   8.241   1.072   8.747  0.5536 -0.0712 -0.6311
  644MOL0     C88738   8.308   1.107   8.857  0.3057 -1.3103  0.6946
  644MOL0     C88739   8.375   1.010   8.931  0.0417  0.1247  0.2277
  644MOL0     C88740   8.459   1.052   9.036 -0.3282 -0.1974  0.3730
  644MOL0     C88741   8.462   1.183   9.076 -0.2338 -0.2043  0.5024
  644MOL0     O88742   8.534   1.216   9.187  0.1886 -0.2766 -0.0440
  644MOL0     C88743   8.450   1.281   9.285  0.2329 -0.1823  0.1922
  644MOL0     C88744   8.534   1.393   9.341 -0.8657  0.8637 -0.0452
  644MOL0     C88745   8.565   1.499   9.234  0.8537 -1.0615 -0.3014
  644MOL0     C88746   8.630   1.619   9.307  0.2852 -0.5353 -0.0140
  644MOL0     C88747   8.667   1.719   9.200  0.0973 -0.7521 -0.2846
  644MOL0     C88748   8.740   1.843   9.259 -0.0991  0.2591 -0.3708
  644MOL0     C88749   8.838   1.809   9.369 -1.0146 -0.6921  0.2141
  644MOL0     C88750   8.914   1.936   9.425 -0.0227  0.5271 -0.2648
  644MOL0     N88751   9.007   1.995   9.322  0.2066  0.2657  0.0113
  644MOL0     C88752   9.128   1.951   9.292 -0.6706  0.2184  0.0947
  644MOL0     C88753   9.194   2.055   9.232 -0.1970 -0.3048 -0.5725
  644MOL0     C88754   9.324   2.052   9.159  0.1455 -0.0975  0.5950
  644MOL0     C88755   9.454   2.082   9.233 -0.4979  0.0893 -0.6485
  644MOL0     C88756   9.462   2.210   9.296  0.8681 -0.5806  0.3661
  644MOL0     C88757   9.596   2.242   9.370  0.1340 -0.0890  0.0190
  644MOL0     O88758   9.701   2.211   9.277  0.9050 -0.2657 -0.0952
  644MOL0     C88759   9.831   2.223   9.323  0.6622 -0.5595  0.5109
  644MOL0     C88760   9.927   2.159   9.241 -0.7051  0.2531 -0.5351
  644MOL0     C88761  10.064   2.178   9.266  1.3218  0.3803  1.6645
  644MOL0     C88762  10.160   2.131   9.156  0.3518 -0.4189 -0.5296
  644MOL0     C88763  10.102   2.245   9.390 -0.5575 -0.4063 -0.1521
  644MOL0     C88764  10.238   2.275   9.428 -0.4385  0.3530 -0.0991
  644MOL0     O88765  10.255   2.392   9.489  0.4879  0.5458  0.0072
  644MOL0     C88766  10.380   2.430   9.536 -0.1556 -0.1175 -0.0113
  644MOL0     C88767  10.500   2.416   9.474 -0.2295  0.2476  0.0502
  644MOL0     C88768  10.623   2.442   9.541 -0.5567 -0.4567  0.7522
  644MOL0     C88769  10.629   2.502   9.671  0.7063 -0.9418  0.0837
  644MOL0     O88770  10.736   2.535   9.750 -0.6945 -0.6184  0.0785
  644MOL0     C88771  10.833   2.428   9.758  0.3682 -0.0438 -0.6536
  644MOL0     C88772  10.896   2.424   9.898  0.7537  0.4042  0.7011
  644MOL0     C88773  11.015   2.522   9.899 -0.1018 -0.3263  0.7136
  644MOL0     C88774  11.067   2.558  10.033  0.0030 -0.2206  1.0392
  644MOL0     C88775  11.196   2.631  10.012 -0.1565 -0.9480  0.4675
  644MOL0     C88776  11.244   2.677  10.148 -0.3125  0.0289 -0.4735
  644MOL0     C88777  11.370   2.763  10.131 -0.4569 -0.1070  0.3500
  644MOL0     C88778  11.495   2.688  10.084 -0.7743  0.0399  0.6296
  644MOL0    Cl88779  11.534   2.585  10.231  0.3878  0.3754 -0.6448
  644MOL0     C88780  10.501   2.533   9.724 -0.3544 -0.7843  0.4652
  644MOL0     C88781  10.384   2.498   9.657  0.2799 -0.2301 -0.3869
  644MOL0     O88782  10.324   2.188   9.408  0.2421  0.3051 -0.2882
  644MOL0     C88783  10.010   2.302   9.471 -0.3885 -0.3184 -0.6247
  644MOL0     C88784   9.879   2.294   9.436 -0.0081 -0.2840  0.5954
  644MOL0     N88785   9.097   2.154   9.220 -0.8369 -0.2322 -0.3139
  644MOL0     N88786   8.985   2.120   9.274  0.2492  0.1072  0.0275
  644MOL0     C88787   8.400   1.280   8.992 -0.1498 -0.0373 -0.0317
  644MOL0     C88788   8.326   1.241   8.884 -0.3123 -0.2041 -0.5606
  644MOL0     C88789   8.242   0.947   8.528  0.5017 -1.0092 -0.5587
  644MOL0     C88790   8.111   0.904   8.551  0.5012  0.3369 -0.1747
  644MOL0     C88791   8.036   0.847   8.452  0.0946 -0.0619 -0.3603
  644MOL0     C88792   8.095   0.828   8.322  0.8341 -0.3258 -0.4681
  644MOL0     O88793   8.015   0.770   8.224 -0.0808 -1.3049 -0.3392
  644MOL0     C88794   8.063   0.748   8.092 -0.0921 -0.0121  0.7611
  644MOL0     C88795   7.938   0.677   8.026 -0.2480 -0.7276 -0.4418
  644MOL0     C88796   7.811   0.763   8.031 -0.1019 -0.6990  0.3266
  644MOL0     C88797   7.695   0.675   8.072  0.0665  0.3490  0.5562
  644MOL0     C88798   7.583   0.756   8.104  0.7393 -0.3981 -0.9680
  644MOL0     C88799   7.491   0.828   8.133 -1.0910  0.9560 -0.0008
  644MOL0     C88800   8.224   0.880   8.293 -0.0312 -0.2976 -0.2879
  644MOL0     C88801   8.297   0.938   8.400 -0.0369 -0.4250 -0.4583
  644MOL0     C88802   8.433   0.993   8.364  0.9258  0.0990  0.2469
  644MOL0     H88803   8.355   0.907   8.903 -0.7331  0.3571 -0.0805
  644MOL0     H88804   8.526   0.983   9.087  0.6611  0.3311 -0.1794
  644MOL0     H88805   8.424   1.202   9.355  0.5995  1.9706  2.9560
  644MOL0     H88806   8.358   1.321   9.240 -1.8158 -2.0105  2.5127
  644MOL0     H88807   8.474   1.430   9.425 -1.2781  1.1748 -0.4703
  644MOL0     H88808   8.624   1.349   9.386  0.4952  1.7561 -1.7788
  644MOL0     H88809   8.642   1.461   9.165  1.7923  2.5978 -1.4660
  644MOL0     H88810   8.474   1.536   9.187 -1.2301 -4.8803  0.3178
  644MOL0     H88811   8.561   1.662   9.380  0.9715 -1.2295  1.0647
  644MOL0     H88812   8.712   1.574   9.363  1.6837 -1.0316 -2.3293
  644MOL0     H88813   8.574   1.746   9.149 -0.1752  2.1562  1.5197
  644MOL0     H88814   8.738   1.667   9.136  0.2036 -1.0350  0.0624
  644MOL0     H88815   8.774   1.910   9.179  0.2929  1.5080  0.8114
  644MOL0     H88816   8.659   1.893   9.314  1.2759  0.1292  1.8838
  644MOL0     H88817   8.920   1.746   9.333 -0.2492 -0.0577  0.8009
  644MOL0     H88818   8.782   1.763   9.451  0.9321 -2.3000  0.7457
  644MOL0     H88819   8.841   2.013   9.452  0.3084  0.8759 -0.3601
  644MOL0     H88820   8.981   1.904   9.505 -0.8874 -0.5388  0.0489
  644MOL0     H88821   9.173   1.854   9.310  1.3518  1.1413  0.3037
  644MOL0     H88822   9.298   2.120   9.077 -0.2919 -0.4442  0.4393
  644MOL0     H88823   9.339   1.951   9.119  0.7307  0.6499 -1.1391
  644MOL0     H88824   9.457   2.007   9.313 -2.3315  1.6833  1.0165
  644MOL0     H88825   9.536   2.058   9.164  0.2125 -2.9637  1.0959
  644MOL0     H88826   9.444   2.287   9.221 -0.6675 -1.2445  0.0164
  644MOL0     H88827   9.384   2.216   9.373  2.0959  1.4035  1.5746
  644MOL0     H88828   9.604   2.346   9.402  1.0706 -1.0313  3.1691
  644MOL0     H88829   9.599   2.187   9.464 -2.0158  2.7374  1.9166
  644MOL0     H88830   9.892   2.102   9.155  1.7155 -1.3092 -0.5693
  644MOL0     H88831  10.212   2.219   9.115 -0.9288  1.5299  1.7475
  644MOL0     H88832  10.118   2.066   9.079  1.6284 -2.9790  0.7999
  644MOL0     H88833  10.239   2.069   9.199  0.6379 -0.2080 -0.7389
  644MOL0     H88834  10.498   2.374   9.374  1.1938  0.8704 -0.2550
  644MOL0     H88835  10.714   2.420   9.488 -0.2426  0.3952  0.9181
  644MOL0     H88836  10.782   2.339   9.721  2.0833 -0.7051 -1.5282
  644MOL0     H88837  10.914   2.449   9.687 -0.6805  0.1769 -1.8174
  644MOL0     H88838  10.816   2.459   9.963 -1.0248  1.7330 -1.9772
  644MOL0     H88839  10.924   2.321   9.921  0.2462  0.0196 -0.3202
  644MOL0     H88840  10.977   2.613   9.853 -0.6195 -1.1299 -0.5163
  644MOL0     H88841  11.095   2.483   9.836 -1.0519 -0.5814 -0.3664
  644MOL0     H88842  11.099   2.466  10.081  1.4974  0.9311  2.3797
  644MOL0     H88843  10.997   2.614  10.096 -1.7412  1.0329 -1.7979
  644MOL0     H88844  11.272   2.567   9.967 -2.1020 -1.9567 -1.5977
  644MOL0     H88845  11.171   2.720   9.954 -0.7064 -1.5244 -0.2038
  644MOL0     H88846  11.252   2.595  10.220  0.6344 -0.7356 -1.4121
  644MOL0     H88847  11.165   2.743  10.184  1.8442  3.0630 -0.9047
  644MOL0     H88848  11.389   2.826  10.219  2.6148  0.3469 -0.5341
  644MOL0     H88849  11.351   2.837  10.053  0.8653 -1.4163 -1.2760
  644MOL0     H88850  11.584   2.752  10.078  0.4292 -1.5049  1.1529
  644MOL0     H88851  11.485   2.637   9.988  2.7268 -0.1504  0.2136
  644MOL0     H88852  10.488   2.592   9.815  1.5011  0.0999  0.2017
  644MOL0     H88853  10.303   2.528   9.723 -1.3899 -1.5163 -1.7549
  644MOL0     H88854  10.035   2.363   9.558 -3.4125 -2.2981  1.8676
  644MOL0     H88855   9.806   2.358   9.484  0.1266  1.7431 -1.7174
  644MOL0     H88856   8.409   1.387   9.011 -0.2562  0.1830 -1.1458
  644MOL0     H88857   8.282   1.327   8.835 -1.5820  1.0175  2.5015
  644MOL0     H88858   8.058   0.931   8.641 -0.1360 -0.7487 -0.2081
  644MOL0     H88859   7.928   0.843   8.450  0.1165 -0.9853 -2.3907
  644MOL0     H88860   8.100   0.841   8.047  2.0071  1.1564  4.4201
  644MOL0     H88861   8.151   0.683   8.099  0.3742  0.4706 -0.3300
  644MOL0     H88862   7.922   0.581   8.075 -2.1745 -0.9308 -1.4036
  644MOL0     H88863   7.966   0.660   7.922  2.1422  1.7533 -0.3396
  644MOL0     H88864   7.817   0.848   8.100 -0.1262 -1.5397  1.3789
  644MOL0     H88865   7.793   0.817   7.937 -0.3487 -0.5506  0.4575
  644MOL0     H88866   7.712   0.617   8.163  2.0738 -1.7684 -1.0650
  644MOL0     H88867   7.664   0.609   7.991  0.6803  1.9587 -1.0372
  644MOL0     H88868   7.413   0.895   8.163  0.9842  2.5841  2.2053
  644MOL0     H88869   8.267   0.858   8.196  0.8247 -3.1471  0.6542
  644MOL0     H88870   8.507   0.916   8.387  1.4108  1.2280  2.8680
  644MOL0     H88871   8.443   1.032   8.262  2.2637  3.2525  1.4468
  644MOL0     H88872   8.468   1.077   8.425  1.0469  0.3407 -0.1509
  645MOL0     O88873   9.204   2.600   1.801 -0.0557  0.1750  0.4253
  645MOL0     C88874   9.141   2.499   1.839 -0.7863  0.0209  0.0730
  645MOL0     O88875   9.188   2.369   1.844  0.1238 -0.5927  0.5068
  645MOL0     C88876   9.319   2.362   1.839 -0.3653 -0.0921  0.1285
  645MOL0     C88877   9.398   2.425   1.936 -0.0895 -0.3561  0.3739
  645MOL0     C88878   9.542   2.409   1.935  0.5227 -0.1087 -0.2844
  645MOL0     C88879   9.602   2.327   1.838  0.1748 -0.4790  1.0842
  645MOL0     O88880   9.731   2.292   1.819  0.5123 -0.1711 -0.4606
  645MOL0     C88881   9.819   2.302   1.927 -0.4230  0.3793 -0.4434
  645MOL0     C88882   9.948   2.213   1.913 -0.2903 -0.2994 -1.0128
  645MOL0     C88883  10.046   2.261   2.028 -0.3157 -0.2916 -0.2581
  645MOL0     C88884  10.162   2.176   2.051  0.5112 -0.6115  1.1724
  645MOL0     C88885  10.271   2.251   2.121 -0.1177  0.5393 -0.5668
  645MOL0     C88886  10.405   2.180   2.114 -0.4042  0.6515 -0.6030
  645MOL0     C88887  10.508   2.253   2.207 -0.0695  0.0785  0.2224
  645MOL0     C88888  10.603   2.342   2.118  0.4440  0.2633  0.7773
  645MOL0     N88889  10.675   2.438   2.200  0.6618  0.0600 -0.4837
  645MOL0     C88890  10.748   2.547   2.167  0.3921 -0.6426 -0.4461
  645MOL0     C88891  10.826   2.580   2.283 -0.8438  0.0422 -0.1922
  645MOL0     C88892  10.920   2.696   2.293  0.2180 -0.4377  0.2315
  645MOL0     C88893  11.056   2.658   2.251  0.2955 -0.6814 -0.2004
  645MOL0     C88894  11.153   2.775   2.277  0.1737  0.4685  0.4170
  645MOL0     C88895  11.149   2.888   2.181  0.2073  0.3027 -0.7563
  645MOL0     O88896  11.177   2.848   2.052  0.1159 -0.3862  0.0472
  645MOL0     C88897  11.302   2.868   2.007 -0.5229 -0.3615 -0.4996
  645MOL0     C88898  11.341   2.999   1.992 -0.2232  0.0512 -0.1286
  645MOL0     C88899  11.469   3.027   1.955 -0.6569 -0.5584 -0.4272
  645MOL0     C88900  11.506   3.174   1.937  0.0860  0.3039  0.3269
  645MOL0     C88901  11.567   2.921   1.940  1.0944 -0.6408 -0.7405
  645MOL0     C88902  11.704   2.950   1.892  0.8420  0.4348 -0.9085
  645MOL0     O88903  11.711   3.041   1.791  0.0078 -0.3875  0.1178
  645MOL0     C88904  11.827   3.098   1.751  0.4199  0.4894 -0.3792
  645MOL0     C88905  11.808   3.211   1.671 -0.4327  0.7086 -0.8663
  645MOL0     C88906  11.913   3.284   1.611 -0.8377 -0.7759  0.3229
  645MOL0     C88907  12.046   3.243   1.632  0.1514 -0.2219 -0.3096
  645MOL0     O88908  12.162   3.294   1.572  0.2825  0.0153 -0.2554
  645MOL0     C88909  12.148   3.351   1.442  0.4789  0.4651  0.4161
  645MOL0     C88910  12.278   3.375   1.363 -0.2756 -0.1988  0.0630
  645MOL0     C88911  12.365   3.480   1.427  0.4583  0.5370 -0.7961
  645MOL0     C88912  12.473   3.532   1.334  0.8228 -0.3244  0.0463
  645MOL0     C88913  12.565   3.621   1.423 -0.4723 -0.4469 -0.4488
  645MOL0     C88914  12.689   3.667   1.341 -0.5144 -0.5074 -0.5021
  645MOL0     C88915  12.792   3.737   1.427  0.5179  0.0527 -0.2111
  645MOL0     C88916  12.920   3.744   1.349 -0.7291 -0.3666  0.3322
  645MOL0    Cl88917  12.902   3.880   1.235 -0.5108  0.2759  0.2331
  645MOL0     C88918  12.061   3.127   1.710  0.0036  0.5324 -0.4508
  645MOL0     C88919  11.960   3.053   1.766  1.0325  0.5005 -0.4098
  645MOL0     O88920  11.793   2.869   1.925 -0.2515 -0.4291 -0.1218
  645MOL0     C88921  11.523   2.787   1.956  0.4633  0.9827 -0.2000
  645MOL0     C88922  11.388   2.763   1.988 -0.6616 -0.2664 -0.3346
  645MOL0     N88923  10.798   2.487   2.382  0.6914 -0.5167 -0.6820
  645MOL0     N88924  10.707   2.411   2.333 -0.2115 -0.4992 -0.1905
  645MOL0     C88925   9.522   2.263   1.743  0.3737 -0.0568  0.5597
  645MOL0     C88926   9.386   2.284   1.744  0.6876  0.2037 -0.0806
  645MOL0     C88927   8.996   2.512   1.871 -0.9262 -0.6627  0.6214
  645MOL0     C88928   8.934   2.424   1.963  0.9514  0.7286 -0.1376
  645MOL0     C88929   8.797   2.425   1.977 -0.3341 -0.4381 -0.3538
  645MOL0     C88930   8.721   2.523   1.922  1.2370 -0.4408  0.5209
  645MOL0     O88931   8.593   2.550   1.954  0.2063  0.4499  0.0144
  645MOL0     C88932   8.522   2.450   2.039 -0.1211 -0.1954  0.5256
  645MOL0     C88933   8.387   2.513   2.063 -0.0320 -0.0428 -0.8827
  645MOL0     C88934   8.391   2.637   2.152  0.7770 -0.5410  0.2322
  645MOL0     C88935   8.256   2.675   2.222  1.0434  1.0209  0.1093
  645MOL0     C88936   8.141   2.675   2.130 -0.4747  0.3231  0.3559
  645MOL0     C88937   8.059   2.676   2.046  0.2733 -0.0219 -0.3470
  645MOL0     C88938   8.778   2.613   1.836 -0.0641  0.8959  0.4326
  645MOL0     C88939   8.917   2.615   1.812 -0.1029 -0.0897 -0.0324
  645MOL0     C88940   8.964   2.717   1.712  0.0316 -0.0975  0.7508
  645MOL0     H88941   9.348   2.486   2.011  1.7756  1.7230  0.0374
  645MOL0     H88942   9.609   2.464   2.000 -0.2058 -0.2089  0.5658
  645MOL0     H88943   9.765   2.266   2.015 -0.1384 -0.4046 -0.5816
  645MOL0     H88944   9.846   2.408   1.935  0.2477  0.0748  2.3035
  645MOL0     H88945   9.921   2.112   1.943  3.0665 -0.3085  2.8837
  645MOL0     H88946  10.002   2.215   1.817  3.3137 -0.6580  0.8257
  645MOL0     H88947  10.086   2.355   1.990 -1.3008  0.5214  0.6662
  645MOL0     H88948   9.983   2.295   2.111 -0.6021  3.4584 -1.8265
  645MOL0     H88949  10.146   2.082   2.103  2.9943 -2.3102 -0.8685
  645MOL0     H88950  10.199   2.154   1.950  2.4796  1.7286  1.2587
  645MOL0     H88951  10.237   2.271   2.223  2.1102  1.2640  0.0762
  645MOL0     H88952  10.285   2.345   2.066  0.4789 -0.7239 -2.7097
  645MOL0     H88953  10.386   2.075   2.136  1.7989  0.2496 -0.4272
  645MOL0     H88954  10.434   2.178   2.008 -2.2075 -0.0394 -1.1188
  645MOL0     H88955  10.557   2.177   2.268 -2.1877 -0.9083  0.8103
  645MOL0     H88956  10.454   2.310   2.283  0.0943 -0.6831  0.9211
  645MOL0     H88957  10.674   2.267   2.082 -2.0094 -1.5196 -0.6833
  645MOL0     H88958  10.549   2.389   2.036  3.3648  0.6477 -1.0798
  645MOL0     H88959  10.758   2.597   2.071 -2.6495 -0.0661 -0.5582
  645MOL0     H88960  10.914   2.729   2.397 -1.3819  1.1255 -0.3024
  645MOL0     H88961  10.879   2.775   2.229 -1.0821 -2.4372 -1.5384
  645MOL0     H88962  11.082   2.575   2.317 -1.4742 -0.8936  0.3023
  645MOL0     H88963  11.067   2.622   2.148 -0.2143 -3.6284  0.6758
  645MOL0     H88964  11.152   2.815   2.379  1.6044  3.2130 -0.5228
  645MOL0     H88965  11.243   2.716   2.258  0.6548  1.6115 -0.9732
  645MOL0     H88966  11.046   2.924   2.181  0.9016  2.5046 -2.5490
  645MOL0     H88967  11.203   2.973   2.223  1.1492 -0.9753  0.7527
  645MOL0     H88968  11.271   3.083   1.990  2.2977  2.2771 -1.8654
  645MOL0     H88969  11.433   3.248   1.970 -0.6058  0.5841 -1.7217
  645MOL0     H88970  11.533   3.203   1.835  0.4133 -0.2161  0.2609
  645MOL0     H88971  11.594   3.191   2.000 -0.2844  0.1867  0.8781
  645MOL0     H88972  11.709   3.251   1.654 -0.8792  1.7048  3.0371
  645MOL0     H88973  11.890   3.369   1.548 -1.4047 -1.8635 -1.0051
  645MOL0     H88974  12.081   3.294   1.378  0.4454 -1.4427  2.0578
  645MOL0     H88975  12.096   3.446   1.461 -0.0699  0.1952  0.2711
  645MOL0     H88976  12.339   3.287   1.339 -1.1599 -1.8587  3.3061
  645MOL0     H88977  12.237   3.408   1.267  0.9935  3.0363  0.5233
  645MOL0     H88978  12.404   3.449   1.525 -1.5595  0.0361 -0.1130
  645MOL0     H88979  12.299   3.565   1.447  0.5133  0.2813  0.6272
  645MOL0     H88980  12.424   3.584   1.251  0.6803 -1.4527 -0.5959
  645MOL0     H88981  12.524   3.444   1.294 -1.2955 -2.1796  1.2147
  645MOL0     H88982  12.495   3.697   1.458 -1.0149 -0.8963 -0.5322
  645MOL0     H88983  12.606   3.567   1.509  1.5891 -0.2223 -1.2400
  645MOL0     H88984  12.647   3.739   1.270 -5.7676 -2.4453  0.2499
  645MOL0     H88985  12.738   3.588   1.284  2.8444 -1.2050  2.9505
  645MOL0     H88986  12.800   3.677   1.518  0.1466 -0.9130 -0.7958
  645MOL0     H88987  12.757   3.836   1.457  0.1231  0.4074 -1.7697
  645MOL0     H88988  12.948   3.652   1.297 -0.2042  1.6254 -3.2092
  645MOL0     H88989  12.994   3.772   1.425 -0.8045 -2.7704  1.4127
  645MOL0     H88990  12.163   3.094   1.723  0.0231  1.1337  1.0175
  645MOL0     H88991  11.990   2.975   1.835  2.8902  0.0777 -1.5967
  645MOL0     H88992  11.594   2.710   1.928  0.0395 -0.2840  2.0290
  645MOL0     H88993  11.354   2.660   1.992  0.4281 -0.6207  0.2713
  645MOL0     H88994   9.565   2.185   1.681 -2.1371 -1.7368  0.7899
  645MOL0     H88995   9.329   2.218   1.679  0.4715  1.0018 -0.7278
  645MOL0     H88996   8.998   2.349   2.008  1.7097  1.3541 -0.1618
  645MOL0     H88997   8.756   2.355   2.049  2.3086 -1.5158  0.2179
  645MOL0     H88998   8.491   2.355   1.994 -2.5796  0.9320 -0.3640
  645MOL0     H88999   8.579   2.427   2.130  1.4973 -1.5452 -0.7574
  645MOL0     H89000   8.313   2.440   2.095 -1.3157  1.1597 -0.9976
  645MOL0     H89001   8.349   2.550   1.967  0.0443  0.1932 -0.8233
  645MOL0     H89002   8.460   2.613   2.234  1.9106  4.1553  0.9774
  645MOL0     H89003   8.431   2.717   2.089  1.5545 -1.9660 -1.1555
  645MOL0     H89004   8.271   2.773   2.268  1.1644  0.5188  1.1818
  645MOL0     H89005   8.234   2.606   2.305 -3.2332  2.7862  0.6963
  645MOL0     H89006   7.973   2.660   1.985 -0.5896 -1.8468  1.2723
  645MOL0     H89007   8.712   2.687   1.792 -1.5907 -1.6925 -1.9316
  645MOL0     H89008   9.017   2.663   1.632  1.3300 -0.4462  1.8042
  645MOL0     H89009   8.872   2.764   1.676  0.1270  0.0960  0.7617
  645MOL0     H89010   9.030   2.794   1.754 -1.7116  0.2223  3.0869
  646MOL0     O89011  10.203   1.945   8.173 -0.2336 -0.0760 -0.4197
  646MOL0     C89012  10.138   2.000   8.077 -1.1579  0.3150 -0.3711
  646MOL0     O89013  10.206   2.056   7.976 -0.6603 -0.2802  0.0506
  646MOL0     C89014  10.337   2.013   7.944  0.7210 -0.5487 -1.0729
  646MOL0     C89015  10.442   2.081   8.002 -0.0878 -0.9961 -0.1090
  646MOL0     C89016  10.570   2.041   7.965 -0.7916  0.0578 -0.0595
  646MOL0     C89017  10.590   1.933   7.872 -0.8234  0.7799  0.0653
  646MOL0     O89018  10.711   1.888   7.826  0.5491 -0.3766  0.2483
  646MOL0     C89019  10.824   1.895   7.914  0.1584  0.6654  0.2518
  646MOL0     C89020  10.919   1.999   7.870 -0.7305  0.0747  1.0684
  646MOL0     C89021  11.040   2.016   7.958  0.3028  0.4010  0.0001
  646MOL0     C89022  11.120   2.139   7.903 -0.9886  0.1928  0.3751
  646MOL0     C89023  11.224   2.189   8.010 -0.5913  0.3550  0.1828
  646MOL0     C89024  11.352   2.096   8.011  0.2383 -0.0630  1.1536
  646MOL0     C89025  11.450   2.127   8.115  0.3267 -0.0526 -0.3098
  646MOL0     C89026  11.496   2.270   8.102  0.2788  0.3457 -0.0949
  646MOL0     N89027  11.628   2.287   8.148 -0.4761 -0.2647  0.8015
  646MOL0     C89028  11.727   2.312   8.055 -0.2182 -0.8598 -0.5867
  646MOL0     C89029  11.826   2.375   8.124 -1.1709  0.4529  0.0652
  646MOL0     C89030  11.955   2.403   8.047  0.2954 -0.5347  0.6929
  646MOL0     C89031  12.081   2.368   8.130  0.1956 -0.4926 -0.0279
  646MOL0     C89032  12.216   2.375   8.059  0.2214 -0.2934  0.0751
  646MOL0     C89033  12.331   2.361   8.159  0.0078 -0.3999 -0.2404
  646MOL0     O89034  12.409   2.255   8.104 -0.0472  0.1353 -0.8511
  646MOL0     C89035  12.538   2.240   8.153  0.2837  0.5140 -0.4427
  646MOL0     C89036  12.574   2.209   8.287  0.1591 -0.3284  0.2527
  646MOL0     C89037  12.708   2.186   8.325  0.4414  1.0506  0.2821
  646MOL0     C89038  12.733   2.143   8.469 -0.2824  0.2416  0.3251
  646MOL0     C89039  12.810   2.213   8.230  0.6466 -0.0283 -0.7120
  646MOL0     C89040  12.951   2.172   8.245  0.4906 -0.2114 -0.7210
  646MOL0     O89041  12.981   2.073   8.341 -0.0420  0.2763  0.1963
  646MOL0     C89042  13.109   2.052   8.370  0.1904  0.4091 -0.0673
  646MOL0     C89043  13.137   1.926   8.428 -0.2089 -0.0958  0.5891
  646MOL0     C89044  13.264   1.887   8.476  0.0280  0.1395  0.3145
  646MOL0     C89045  13.371   1.975   8.451 -0.3570  0.4985 -0.4498
  646MOL0     O89046  13.496   1.934   8.481  0.1497  0.1585 -0.0024
  646MOL0     C89047  13.562   1.875   8.370 -0.5013  0.0885  0.4461
  646MOL0     C89048  13.708   1.902   8.394 -0.5322 -0.0268  0.6475
  646MOL0     C89049  13.736   2.056   8.378  0.4152 -0.2177  0.5179
  646MOL0     C89050  13.869   2.080   8.430 -0.0852  0.3249 -0.4679
  646MOL0     C89051  13.888   2.229   8.414  0.0934  0.4342  0.0965
  646MOL0     C89052  14.033   2.276   8.431 -0.1038  0.0780 -0.0917
  646MOL0     C89053  14.034   2.433   8.428 -0.0964  0.7243 -0.0348
  646MOL0     C89054  14.181   2.475   8.418 -0.6956 -0.0176  0.2305
  646MOL0    Cl89055  14.221   2.476   8.236  0.0527 -0.0745  0.3578
  646MOL0     C89056  13.343   2.106   8.401  0.5178  0.8992 -0.0610
  646MOL0     C89057  13.211   2.147   8.368 -0.8348 -0.7854 -0.8819
  646MOL0     O89058  13.027   2.226   8.166  0.1327  0.3832 -0.1612
  646MOL0     C89059  12.768   2.275   8.104 -0.3321  0.2756 -0.7480
  646MOL0     C89060  12.640   2.285   8.064 -0.8411 -0.2171 -0.3784
  646MOL0     N89061  11.800   2.372   8.260  0.4501  0.0896 -0.2204
  646MOL0     N89062  11.681   2.317   8.267 -0.2812  0.0890  0.1586
  646MOL0     C89063  10.482   1.869   7.808  0.1553 -0.2700 -0.3979
  646MOL0     C89064  10.359   1.904   7.858 -0.1021 -0.4863  0.1118
  646MOL0     C89065   9.993   1.993   8.064 -0.2966 -0.6205  0.3630
  646MOL0     C89066   9.934   2.000   7.940  0.1176 -0.6861  0.0798
  646MOL0     C89067   9.796   2.009   7.908 -0.3538 -0.2921 -0.1547
  646MOL0     C89068   9.710   2.012   8.023 -0.0713  0.4181 -0.0589
  646MOL0     O89069   9.573   1.999   8.009  0.1348  0.2683 -0.4193
  646MOL0     C89070   9.510   1.989   7.882  0.2237  0.1291 -0.3618
  646MOL0     C89071   9.365   2.019   7.897 -0.4889 -0.4711 -0.0363
  646MOL0     C89072   9.274   2.006   7.774 -0.9630 -0.7841  0.3786
  646MOL0     C89073   9.126   2.045   7.810 -0.7981 -0.0630 -0.5262
  646MOL0     C89074   9.064   1.975   7.919  0.0120  0.3403 -1.2447
  646MOL0     C89075   9.024   1.907   8.006  0.6012  0.3540 -0.1508
  646MOL0     C89076   9.764   2.000   8.151 -0.0195 -0.6604 -0.3501
  646MOL0     C89077   9.902   1.990   8.171  0.1072 -0.0452 -0.9493
  646MOL0     C89078   9.951   1.990   8.313 -0.6534  0.4903 -0.4813
  646MOL0     H89079  10.431   2.165   8.070  1.1533 -0.3218 -0.6890
  646MOL0     H89080  10.654   2.089   8.014  1.7344  2.8717 -6.0516
  646MOL0     H89081  10.883   1.805   7.897 -0.3211  0.7649 -2.5626
  646MOL0     H89082  10.792   1.912   8.017  0.5150  0.1440  0.4495
  646MOL0     H89083  10.957   1.982   7.769  0.3110 -2.0874  1.7637
  646MOL0     H89084  10.863   2.092   7.856 -0.3672  0.2684  0.8843
  646MOL0     H89085  11.007   2.047   8.058  0.5965 -0.8223  0.4936
  646MOL0     H89086  11.102   1.926   7.949 -0.8922 -0.4918  0.5028
  646MOL0     H89087  11.172   2.114   7.810 -3.2018 -0.5186 -0.7463
  646MOL0     H89088  11.050   2.220   7.880  0.3634  1.5056  0.7436
  646MOL0     H89089  11.178   2.200   8.108 -2.0927  3.8426 -0.7463
  646MOL0     H89090  11.252   2.293   7.991 -0.3384  0.4283  0.9409
  646MOL0     H89091  11.321   1.992   8.027  0.4776 -0.1987  0.7575
  646MOL0     H89092  11.398   2.103   7.912 -0.5885 -0.7470  0.7023
  646MOL0     H89093  11.541   2.066   8.113  1.5882  1.6518  1.2172
  646MOL0     H89094  11.406   2.103   8.213  0.4287 -1.0522 -0.4985
  646MOL0     H89095  11.502   2.297   7.996 -0.1042 -1.7313 -0.6948
  646MOL0     H89096  11.429   2.334   8.160  1.7678  0.9171  1.0476
  646MOL0     H89097  11.724   2.301   7.947  2.2760 -0.9795 -0.7009
  646MOL0     H89098  11.961   2.512   8.034  1.6907 -0.5312  1.1797
  646MOL0     H89099  11.951   2.352   7.950  1.9756 -1.2053  0.9472
  646MOL0     H89100  12.076   2.421   8.226  0.6398 -1.6763  0.6838
  646MOL0     H89101  12.068   2.262   8.157 -1.6638 -0.9024 -2.2052
  646MOL0     H89102  12.225   2.302   7.978 -0.5081  0.6271 -0.8609
  646MOL0     H89103  12.226   2.470   8.005  0.9922 -1.5436 -2.0823
  646MOL0     H89104  12.395   2.449   8.170 -2.1861  1.0548  1.6781
  646MOL0     H89105  12.298   2.322   8.255  0.3796 -0.8926 -0.3115
  646MOL0     H89106  12.495   2.202   8.361 -1.0195  1.2922 -0.7709
  646MOL0     H89107  12.805   2.213   8.513 -0.3658  1.9452 -2.0579
  646MOL0     H89108  12.766   2.039   8.472  0.3112  0.3798 -0.7391
  646MOL0     H89109  12.637   2.131   8.520 -0.0133 -1.1053  0.5573
  646MOL0     H89110  13.055   1.854   8.423 -1.9731  1.8829 -0.4982
  646MOL0     H89111  13.294   1.798   8.531  1.2303  1.1065  1.2876
  646MOL0     H89112  13.535   1.769   8.368 -0.3928  0.0083  1.9127
  646MOL0     H89113  13.520   1.915   8.277 -0.6507  0.4570  0.6692
  646MOL0     H89114  13.756   1.864   8.485  2.0852 -1.8035 -1.3319
  646MOL0     H89115  13.759   1.847   8.314  0.6736  1.6274  0.2340
  646MOL0     H89116  13.667   2.125   8.429 -1.6973  0.4400 -2.9134
  646MOL0     H89117  13.735   2.082   8.272  0.2746 -0.7002  0.4004
  646MOL0     H89118  13.951   2.031   8.375 -1.9769 -2.3074 -1.1342
  646MOL0     H89119  13.877   2.047   8.534  0.1067  0.2548 -0.5032
  646MOL0     H89120  13.861   2.248   8.309  3.4828 -0.1488 -0.9927
  646MOL0     H89121  13.825   2.275   8.490 -1.5726 -0.3440 -0.7568
  646MOL0     H89122  14.083   2.234   8.343 -1.1417  2.0946 -1.7202
  646MOL0     H89123  14.085   2.237   8.519  1.2796  0.1411 -0.8520
  646MOL0     H89124  13.995   2.474   8.522 -0.8852 -0.8913  0.3793
  646MOL0     H89125  13.969   2.483   8.355 -0.9495  0.5572  0.5969
  646MOL0     H89126  14.244   2.404   8.472  1.6664  2.4804  0.9834
  646MOL0     H89127  14.199   2.573   8.463 -3.4263  1.3744 -1.4466
  646MOL0     H89128  13.425   2.177   8.398  0.5140  0.9537  0.8364
  646MOL0     H89129  13.196   2.252   8.346 -0.2793 -0.6369 -0.5878
  646MOL0     H89130  12.841   2.302   8.028 -0.6439 -0.2064 -1.2304
  646MOL0     H89131  12.619   2.319   7.963  0.7081  2.3411  0.0681
  646MOL0     H89132  10.496   1.794   7.731 -2.1492  0.3353 -1.4965
  646MOL0     H89133  10.270   1.849   7.829 -0.2770 -0.3333  0.3503
  646MOL0     H89134  10.005   2.002   7.859  1.1412  0.1676  0.9685
  646MOL0     H89135   9.765   2.012   7.805 -5.0599  0.1112  1.0437
  646MOL0     H89136   9.544   2.060   7.806  1.7892 -0.4374 -0.2316
  646MOL0     H89137   9.533   1.891   7.838 -0.0149 -0.6376  1.1590
  646MOL0     H89138   9.349   2.122   7.931 -3.1735 -0.5116 -0.9115
  646MOL0     H89139   9.322   1.947   7.968 -1.0268 -1.6346 -1.4896
  646MOL0     H89140   9.318   2.073   7.700 -1.1639 -1.6340 -0.5294
  646MOL0     H89141   9.266   1.908   7.725  0.7839 -1.5869  1.6198
  646MOL0     H89142   9.059   2.040   7.723  0.6625 -2.1307 -1.5990
  646MOL0     H89143   9.132   2.152   7.833 -1.2679 -0.0055 -0.6495
  646MOL0     H89144   8.974   1.835   8.068 -1.0540 -1.7402 -3.5826
  646MOL0     H89145   9.696   2.003   8.236 -0.6995  2.5273 -0.8819
  646MOL0     H89146   9.984   1.894   8.354 -2.1204 -0.6009 -1.7469
  646MOL0     H89147  10.032   2.062   8.326 -0.4698 -0.0491  1.7168
  646MOL0     H89148   9.866   2.020   8.376  0.7119  2.1711  0.6391
  647MOL0     O89149   1.561   1.400   1.941 -1.2559  0.4288  0.2912
  647MOL0     C89150   1.589   1.283   1.963  0.7035  0.0708 -0.1196
  647MOL0     O89151   1.699   1.238   2.003  0.0516 -0.2769 -0.2857
  647MOL0     C89152   1.819   1.295   1.957  0.1363 -0.0424 -0.3183
  647MOL0     C89153   1.925   1.314   2.048 -0.2697  0.0546 -0.4814
  647MOL0     C89154   2.050   1.382   2.012  0.3158 -0.3515  0.4315
  647MOL0     C89155   2.066   1.422   1.885 -0.1226  0.0856 -0.6088
  647MOL0     O89156   2.188   1.478   1.857 -0.2439 -0.3977 -0.4170
  647MOL0     C89157   2.171   1.609   1.803  0.3384 -0.0232  0.2454
  647MOL0     C89158   2.267   1.639   1.685  0.4651 -0.0362  0.5545
  647MOL0     C89159   2.411   1.643   1.751 -0.2260 -0.2492  0.4954
  647MOL0     C89160   2.518   1.650   1.644 -0.2630 -0.4575  0.0741
  647MOL0     C89161   2.655   1.668   1.710 -0.9986 -0.1199  0.2228
  647MOL0     C89162   2.766   1.698   1.618 -0.3173 -0.6821 -0.4160
  647MOL0     C89163   2.782   1.854   1.586 -0.0984 -0.7057  0.7664
  647MOL0     C89164   2.841   1.876   1.445 -0.6427  0.2587 -0.4303
  647MOL0     N89165   2.970   1.809   1.422  0.4630  0.2080  0.4574
  647MOL0     C89166   3.087   1.823   1.491 -0.4386 -0.3089 -0.1153
  647MOL0     C89167   3.184   1.779   1.402  0.2940 -0.3111  0.4593
  647MOL0     C89168   3.320   1.766   1.437 -0.5678 -0.8316 -0.6063
  647MOL0     C89169   3.403   1.891   1.391 -0.3900  0.8301  1.1364
  647MOL0     C89170   3.430   1.889   1.242 -0.0750  0.5574 -0.0014
  647MOL0     C89171   3.536   1.781   1.206  0.5189  0.5721  0.2775
  647MOL0     O89172   3.654   1.803   1.282  0.0321  0.4379  0.3342
  647MOL0     C89173   3.767   1.863   1.217 -0.3260 -0.3550 -1.4172
  647MOL0     C89174   3.881   1.848   1.278 -0.3553 -0.3584 -0.0596
  647MOL0     C89175   4.007   1.886   1.222  0.2100  0.3713 -0.4730
  647MOL0     C89176   4.125   1.839   1.306  0.1330  0.3378  0.1340
  647MOL0     C89177   4.005   1.944   1.093 -0.0704  0.8139  0.4248
  647MOL0     C89178   4.125   1.974   1.012 -0.7659 -0.9014  0.3642
  647MOL0     O89179   4.117   1.978   0.871 -0.0149 -0.4414 -0.1738
  647MOL0     C89180   4.220   2.034   0.811 -0.4538 -0.4255  0.1022
  647MOL0     C89181   4.255   2.172   0.826 -0.5756 -1.0058 -0.1785
  647MOL0     C89182   4.370   2.224   0.770 -1.2143 -0.5073  0.6208
  647MOL0     C89183   4.447   2.153   0.686 -0.0479  1.0182 -0.1112
  647MOL0     O89184   4.556   2.225   0.648 -0.8630 -0.1163  0.1386
  647MOL0     C89185   4.639   2.188   0.536 -0.5314  0.2413  0.6212
  647MOL0     C89186   4.744   2.292   0.482  0.2524  0.4231 -1.1621
  647MOL0     C89187   4.800   2.279   0.346 -0.1537 -0.3480 -0.2757
  647MOL0     C89188   4.892   2.154   0.337  0.3486 -0.4065 -0.3605
  647MOL0     C89189   4.951   2.128   0.200 -0.4769 -0.0360  0.7398
  647MOL0     C89190   4.851   2.059   0.109 -0.1922 -0.0098 -0.5401
  647MOL0     C89191   4.917   2.057  -0.034  0.0488  1.0288  0.2909
  647MOL0     C89192   4.826   1.988  -0.141 -0.4839  0.1808 -0.3411
  647MOL0    Cl89193   4.792   1.816  -0.087 -0.2500  0.0009  0.3788
  647MOL0     C89194   4.417   2.017   0.668 -0.1431 -0.5815  0.2937
  647MOL0     C89195   4.302   1.966   0.724  0.8052  1.4469  0.2575
  647MOL0     O89196   4.223   2.017   1.077 -0.0165 -0.8728  0.8054
  647MOL0     C89197   3.888   1.969   1.026 -0.7371 -0.2114 -0.1909
  647MOL0     C89198   3.765   1.930   1.087  0.0660 -0.9331  0.0227
  647MOL0     N89199   3.122   1.744   1.285  0.3323  0.0008 -0.0700
  647MOL0     N89200   2.996   1.748   1.302  0.2662  0.0241 -0.8106
  647MOL0     C89201   1.973   1.402   1.785  0.5913  0.7362  0.1731
  647MOL0     C89202   1.844   1.345   1.825 -0.1387 -0.5360  0.0450
  647MOL0     C89203   1.479   1.179   1.968 -0.1413  0.8761 -0.5575
  647MOL0     C89204   1.517   1.051   2.021  0.0674 -0.8625  0.3525
  647MOL0     C89205   1.423   0.953   2.032 -0.1169  0.1557  0.3378
  647MOL0     C89206   1.291   0.975   2.000  0.0674  0.0812  0.3674
  647MOL0     O89207   1.206   0.868   2.018  0.2213 -0.3779  0.2412
  647MOL0     C89208   1.067   0.900   2.049 -0.6215  0.4882 -1.0098
  647MOL0     C89209   1.017   0.761   2.110  0.3788  0.1485  0.1502
  647MOL0     C89210   0.862   0.764   2.121  1.3437 -0.7772  0.0473
  647MOL0     C89211   0.805   0.625   2.156  0.7678 -0.3230 -0.2672
  647MOL0     C89212   0.815   0.544   2.034 -0.3915  0.0120  0.0196
  647MOL0     C89213   0.840   0.471   1.942  0.5857 -0.4245 -0.0961
  647MOL0     C89214   1.248   1.094   1.943 -0.3700 -0.1134  1.1083
  647MOL0     C89215   1.342   1.201   1.925  0.4141  0.6448  0.1090
  647MOL0     C89216   1.295   1.326   1.860  0.3390 -0.6484 -0.1695
  647MOL0     H89217   1.919   1.294   2.155  1.2654  1.1678 -0.1597
  647MOL0     H89218   2.126   1.423   2.077  1.8882 -1.2448 -0.7530
  647MOL0     H89219   2.183   1.683   1.882  0.4390 -2.2632  2.4608
  647MOL0     H89220   2.071   1.624   1.763  1.0208  2.4129 -0.7466
  647MOL0     H89221   2.264   1.557   1.614  1.4173 -1.7464  2.4007
  647MOL0     H89222   2.236   1.738   1.648  0.4677  0.2948  1.4007
  647MOL0     H89223   2.419   1.738   1.805 -0.2586  0.6053 -0.9466
  647MOL0     H89224   2.421   1.551   1.809  1.0001 -1.4854 -1.5671
  647MOL0     H89225   2.523   1.565   1.576  0.2241  0.0624 -0.5539
  647MOL0     H89226   2.504   1.740   1.583  1.8146  0.1590  0.4167
  647MOL0     H89227   2.686   1.581   1.768 -1.7794 -0.0220  0.7996
  647MOL0     H89228   2.657   1.753   1.779  2.0103  1.4782 -1.5859
  647MOL0     H89229   2.864   1.667   1.656  0.2736  1.2455 -0.2810
  647MOL0     H89230   2.748   1.645   1.524 -1.9450  1.9678 -1.6981
  647MOL0     H89231   2.841   1.897   1.668 -1.9894 -1.5178  2.6577
  647MOL0     H89232   2.690   1.913   1.587 -0.1117 -0.7181  0.2866
  647MOL0     H89233   2.776   1.839   1.365 -2.2227 -0.6296  1.1613
  647MOL0     H89234   2.849   1.984   1.432 -1.8674  0.4803  0.4403
  647MOL0     H89235   3.111   1.855   1.592 -0.9317  1.2302 -0.4599
  647MOL0     H89236   3.348   1.674   1.384 -0.8433 -1.4119  0.2336
  647MOL0     H89237   3.343   1.756   1.543  1.0447 -0.7925 -0.9179
  647MOL0     H89238   3.339   1.978   1.409 -3.8300 -1.0424 -0.9857
  647MOL0     H89239   3.494   1.903   1.451 -0.3604  2.3961  0.8191
  647MOL0     H89240   3.340   1.881   1.180 -1.9347 -2.7895  2.8201
  647MOL0     H89241   3.492   1.976   1.217  2.5589 -1.6157 -1.5880
  647MOL0     H89242   3.494   1.684   1.233  0.7126 -0.0224 -1.4386
  647MOL0     H89243   3.552   1.769   1.099  0.8224  3.0377  0.0020
  647MOL0     H89244   3.871   1.802   1.376 -0.3400 -0.7721 -0.2496
  647MOL0     H89245   4.101   1.781   1.396  2.0421  0.2474  0.6285
  647MOL0     H89246   4.181   1.926   1.341  0.5737 -0.4269  1.3761
  647MOL0     H89247   4.189   1.780   1.238  0.0539  1.4870 -0.9682
  647MOL0     H89248   4.207   2.237   0.899  0.4658 -1.8062  1.2690
  647MOL0     H89249   4.386   2.329   0.792 -1.3354 -0.7020  1.7222
  647MOL0     H89250   4.691   2.098   0.570 -1.0961  0.5100  2.3059
  647MOL0     H89251   4.576   2.160   0.451  0.0404 -1.1030  0.6223
  647MOL0     H89252   4.700   2.392   0.494  0.4741  0.3594  0.3907
  647MOL0     H89253   4.826   2.293   0.554 -1.7752 -1.7221  1.3995
  647MOL0     H89254   4.854   2.369   0.317  1.2183 -1.0255  0.0901
  647MOL0     H89255   4.720   2.262   0.274  2.7139 -0.7489 -3.6714
  647MOL0     H89256   4.847   2.059   0.365  0.5331  0.2357  2.4536
  647MOL0     H89257   4.979   2.169   0.402  0.7708  0.6834 -1.1364
  647MOL0     H89258   4.973   2.228   0.161  1.5898 -0.8720 -0.4226
  647MOL0     H89259   5.041   2.066   0.202 -0.1705  0.4082  0.9758
  647MOL0     H89260   4.759   2.117   0.102 -1.2153 -1.5749 -0.7142
  647MOL0     H89261   4.821   1.959   0.143 -1.5480  0.7872  0.7067
  647MOL0     H89262   5.016   2.011  -0.024  0.4491  1.8465  0.2224
  647MOL0     H89263   4.927   2.160  -0.071 -1.6321  0.2168 -2.7275
  647MOL0     H89264   4.879   1.986  -0.236 -0.2822 -0.9766 -0.2185
  647MOL0     H89265   4.735   2.047  -0.152  0.4246  1.7449  0.1956
  647MOL0     H89266   4.481   1.951   0.610 -0.7098 -1.7130  0.9248
  647MOL0     H89267   4.277   1.862   0.706  2.3422  1.1785 -0.5895
  647MOL0     H89268   3.890   2.015   0.928  0.9227 -0.2662 -0.2055
  647MOL0     H89269   3.672   1.950   1.035  0.6199  0.8132 -0.3829
  647MOL0     H89270   1.987   1.441   1.685  1.8321  1.3303  0.5623
  647MOL0     H89271   1.766   1.328   1.751 -1.0812  1.2849  0.5698
  647MOL0     H89272   1.618   1.024   2.049  0.4582 -0.7591 -0.9130
  647MOL0     H89273   1.460   0.860   2.074  0.2533 -1.1651 -2.6115
  647MOL0     H89274   1.053   0.985   2.117 -0.7553  0.6765 -1.2732
  647MOL0     H89275   1.008   0.927   1.961 -0.0222 -0.9139 -1.8745
  647MOL0     H89276   1.059   0.752   2.211 -0.1287  2.1300  0.5918
  647MOL0     H89277   1.047   0.679   2.044 -0.2690 -0.5451  0.6873
  647MOL0     H89278   0.833   0.840   2.194  0.5114 -0.2716 -0.7896
  647MOL0     H89279   0.814   0.795   2.028  2.7296  3.3408  0.5144
  647MOL0     H89280   0.697   0.623   2.176  0.3597 -1.0578 -2.3202
  647MOL0     H89281   0.852   0.580   2.244 -0.2407  1.3372  1.1906
  647MOL0     H89282   0.863   0.407   1.859  2.5949  0.9857 -0.7022
  647MOL0     H89283   1.145   1.102   1.907 -0.1854  1.0670  0.7972
  647MOL0     H89284   1.305   1.402   1.938  0.2935 -1.1405  0.3198
  647MOL0     H89285   1.356   1.355   1.773  1.3461 -0.6858  0.5079
  647MOL0     H89286   1.190   1.326   1.830  0.3045 -0.9964 -0.0437
  648MOL0     O89287   4.842   7.055   9.152  0.2943  0.5338 -0.3566
  648MOL0     C89288   4.754   6.973   9.187  0.5196 -0.6307 -0.1901
  648MOL0     O89289   4.761   6.835   9.178 -0.4227  0.6670 -0.0508
  648MOL0     C89290   4.886   6.789   9.160 -0.2532 -0.1724 -0.1662
  648MOL0     C89291   4.982   6.807   9.262  0.6215  0.1149  0.6865
  648MOL0     C89292   5.113   6.746   9.257  0.3308 -0.1718  0.0450
  648MOL0     C89293   5.146   6.678   9.140  0.6888 -0.0580  1.4489
  648MOL0     O89294   5.261   6.610   9.124  0.1755 -0.3147  0.6164
  648MOL0     C89295   5.367   6.676   9.050  0.4703  0.2000  0.2506
  648MOL0     C89296   5.488   6.619   9.111 -0.0094 -0.0722 -0.0433
  648MOL0     C89297   5.606   6.701   9.076 -0.3083 -0.6230  0.2826
  648MOL0     C89298   5.733   6.644   9.145  0.1726 -0.5324 -0.0759
  648MOL0     C89299   5.725   6.647   9.297 -0.4014 -1.0518 -0.4148
  648MOL0     C89300   5.863   6.630   9.364 -1.2590  0.2600 -0.2852
  648MOL0     C89301   5.859   6.624   9.521 -0.3604 -0.5520  0.4975
  648MOL0     C89302   5.995   6.626   9.593 -0.3357  0.9433 -0.1496
  648MOL0     N89303   6.076   6.740   9.547  0.1916  0.2818  0.2631
  648MOL0     C89304   6.069   6.871   9.589 -0.2515  0.3886  0.2357
  648MOL0     C89305   6.176   6.932   9.535  0.1211  0.9126  0.1588
  648MOL0     C89306   6.195   7.079   9.537 -0.2256 -0.3149 -0.1987
  648MOL0     C89307   6.342   7.134   9.519 -0.1003  0.9796 -0.5246
  648MOL0     C89308   6.440   7.079   9.615 -0.3018  0.2815 -0.7256
  648MOL0     C89309   6.558   7.178   9.626  0.2112 -0.3664 -0.5703
  648MOL0     O89310   6.522   7.299   9.694  0.4076  0.8485 -0.6302
  648MOL0     C89311   6.603   7.364   9.782  0.5486  0.4846  0.3254
  648MOL0     C89312   6.541   7.451   9.868  0.0426  0.3979 -0.7162
  648MOL0     C89313   6.612   7.544   9.948  0.2811  0.6092 -0.3674
  648MOL0     C89314   6.531   7.626  10.049  0.6506 -0.3618  0.0217
  648MOL0     C89315   6.752   7.548   9.949 -0.0589  0.3647  1.4872
  648MOL0     C89316   6.838   7.645  10.032 -0.4249  0.0808 -0.1999
  648MOL0     O89317   6.784   7.736  10.115  0.2093 -0.4775  0.2305
  648MOL0     C89318   6.880   7.802  10.192  0.7084  0.5652  0.0152
  648MOL0     C89319   6.898   7.762  10.323 -0.4730 -0.1005  0.8074
  648MOL0     C89320   6.976   7.838  10.416 -0.1741  0.0898  0.0756
  648MOL0     C89321   7.027   7.968  10.376  0.6011  0.9562 -0.8786
  648MOL0     O89322   7.111   8.025  10.468  0.1002 -0.3186  0.5559
  648MOL0     C89323   7.063   8.040  10.598 -0.0261  0.1935 -0.1520
  648MOL0     C89324   7.186   8.032  10.694 -1.5321 -0.6847 -0.0741
  648MOL0     C89325   7.150   8.046  10.848  0.1435  1.1951  0.7007
  648MOL0     C89326   7.105   7.917  10.916  0.5421 -1.0665 -0.2400
  648MOL0     C89327   7.037   7.953  11.051  0.0536  0.4106 -0.2417
  648MOL0     C89328   6.891   8.014  11.037 -0.5086  0.3138 -0.0288
  648MOL0     C89329   6.827   8.030  11.174  0.3206 -0.7220 -0.4926
  648MOL0     C89330   6.689   8.092  11.175  0.3864 -0.5695  0.4295
  648MOL0    Cl89331   6.699   8.270  11.164  0.2520 -0.0719 -0.1402
  648MOL0     C89332   7.017   8.012  10.245  0.5522  0.0527  0.5544
  648MOL0     C89333   6.945   7.928  10.152 -0.7251  0.2074 -0.1674
  648MOL0     O89334   6.958   7.641  10.011 -0.5702  0.8192 -0.5208
  648MOL0     C89335   6.815   7.456   9.858  0.8225 -0.7774 -0.8785
  648MOL0     C89336   6.738   7.363   9.777 -0.3639  0.6628 -0.2990
  648MOL0     N89337   6.236   6.841   9.450 -0.4331 -0.0533  0.0608
  648MOL0     N89338   6.171   6.730   9.450  0.0534 -0.0522 -0.1116
  648MOL0     C89339   5.045   6.657   9.046  0.6803 -0.6986  0.2567
  648MOL0     C89340   4.917   6.713   9.051 -0.0496 -0.6513  0.1592
  648MOL0     C89341   4.618   7.010   9.239 -0.3050 -0.5624  0.5041
  648MOL0     C89342   4.509   6.973   9.160 -0.7579 -0.1361  0.0038
  648MOL0     C89343   4.379   6.999   9.196  0.3085 -0.3586  0.2200
  648MOL0     C89344   4.351   7.075   9.309 -0.2046 -0.5924 -0.1304
  648MOL0     O89345   4.219   7.093   9.352  0.0609 -0.0913 -0.3086
  648MOL0     C89346   4.165   6.970   9.410  0.0889 -0.8708 -0.2472
  648MOL0     C89347   4.014   6.965   9.410 -0.1247  0.9151  0.4018
  648MOL0     C89348   3.943   7.078   9.481  0.0337  0.1025 -0.4633
  648MOL0     C89349   3.792   7.084   9.440  0.1004  0.7135 -0.5089
  648MOL0     C89350   3.723   6.957   9.459  0.3301 -0.1759  0.3041
  648MOL0     C89351   3.662   6.853   9.469  0.3755 -0.2194  0.5567
  648MOL0     C89352   4.464   7.110   9.389 -0.6156  0.1512  0.0368
  648MOL0     C89353   4.596   7.084   9.356  0.2208  0.6713  0.0365
  648MOL0     C89354   4.713   7.138   9.439 -0.0913 -0.5353  0.0844
  648MOL0     H89355   4.955   6.879   9.338 -2.4659  0.6674 -0.7916
  648MOL0     H89356   5.194   6.763   9.328  1.0521  0.1116 -0.8243
  648MOL0     H89357   5.364   6.785   9.052  2.1502  0.3538 -1.8652
  648MOL0     H89358   5.353   6.642   8.947 -2.0020 -2.6420  1.3805
  648MOL0     H89359   5.478   6.616   9.219 -0.4147 -1.4496 -0.1011
  648MOL0     H89360   5.494   6.513   9.084  2.4049  0.0394 -0.1730
  648MOL0     H89361   5.624   6.692   8.968  3.9042 -0.6388  0.8281
  648MOL0     H89362   5.588   6.808   9.088 -1.3184 -0.7339 -0.1732
  648MOL0     H89363   5.752   6.546   9.100  1.6701 -0.3661  0.1460
  648MOL0     H89364   5.810   6.720   9.131 -0.2478  0.0877  0.8837
  648MOL0     H89365   5.652   6.573   9.332 -0.4165 -0.4846  0.8081
  648MOL0     H89366   5.677   6.742   9.323  0.5847 -0.8569  0.8151
  648MOL0     H89367   5.918   6.545   9.323  1.3434  0.9515  1.5226
  648MOL0     H89368   5.923   6.717   9.335 -0.3434 -0.8273 -1.7702
  648MOL0     H89369   5.807   6.538   9.564  0.4194 -0.2314  2.1732
  648MOL0     H89370   5.809   6.719   9.544  1.8402  1.0925 -1.0792
  648MOL0     H89371   5.981   6.644   9.700  0.0317  0.9475 -0.1020
  648MOL0     H89372   6.043   6.533   9.563  0.4151  1.3816 -0.3243
  648MOL0     H89373   5.999   6.919   9.657 -0.5341 -1.2640  1.1827
  648MOL0     H89374   6.151   7.126   9.626  2.7350  1.1834  0.6148
  648MOL0     H89375   6.137   7.121   9.455 -1.1967 -2.3902 -0.6330
  648MOL0     H89376   6.369   7.077   9.430  2.7035 -1.8489  1.9297
  648MOL0     H89377   6.346   7.243   9.506 -0.9751  1.0777 -0.0274
  648MOL0     H89378   6.397   7.085   9.716 -1.9046  1.6900 -1.4374
  648MOL0     H89379   6.478   6.980   9.589  1.2176  0.6352  0.0167
  648MOL0     H89380   6.638   7.126   9.681 -0.1420 -1.1534 -0.7881
  648MOL0     H89381   6.613   7.193   9.532  1.5870  1.8858  0.5171
  648MOL0     H89382   6.433   7.437   9.872  0.2597 -1.5488 -0.4184
  648MOL0     H89383   6.424   7.614  10.027  0.4782  0.7203  0.2247
  648MOL0     H89384   6.548   7.734  10.046  2.0843 -0.4606  2.3889
  648MOL0     H89385   6.556   7.605  10.153  2.2455 -0.0491 -0.2726
  648MOL0     H89386   6.857   7.663  10.342  1.1600 -0.9255  0.2117
  648MOL0     H89387   6.980   7.798  10.516 -0.7448  0.3092  0.1889
  648MOL0     H89388   6.995   8.125  10.601 -4.2364 -2.5563 -4.1236
  648MOL0     H89389   6.999   7.959  10.635  1.5863 -0.3532  1.6196
  648MOL0     H89390   7.235   7.936  10.679  1.9819  0.6066  1.8849
  648MOL0     H89391   7.263   8.106  10.670 -0.4034 -2.4698 -2.2901
  648MOL0     H89392   7.069   8.118  10.855  1.4180  2.5181  3.8459
  648MOL0     H89393   7.235   8.077  10.910 -0.6540  3.1441  0.8816
  648MOL0     H89394   7.194   7.859  10.941  1.7367  1.4191  1.7283
  648MOL0     H89395   7.034   7.870  10.847 -0.7715  1.2614 -0.5994
  648MOL0     H89396   7.027   7.860  11.108 -0.0832  0.4769 -0.1575
  648MOL0     H89397   7.100   8.013  11.119  1.4081 -2.5944  1.3933
  648MOL0     H89398   6.827   7.960  10.967 -2.4800  1.3177  0.8818
  648MOL0     H89399   6.911   8.113  10.993  3.0120 -0.4600 -0.4371
  648MOL0     H89400   6.901   8.098  11.218  2.0699 -2.6514 -0.2783
  648MOL0     H89401   6.835   7.939  11.234  2.9209 -1.0630 -1.2232
  648MOL0     H89402   6.642   8.075  11.272 -2.1365 -1.7583 -0.8907
  648MOL0     H89403   6.627   8.042  11.100  1.6073 -1.0015 -0.3197
  648MOL0     H89404   7.057   8.106  10.209 -0.9054  0.2406 -0.6656
  648MOL0     H89405   6.933   7.953  10.047 -0.9106 -3.0775 -1.0290
  648MOL0     H89406   6.923   7.446   9.856  0.9721  0.7838 -2.7696
  648MOL0     H89407   6.795   7.290   9.720  0.5852  0.7828  0.4538
  648MOL0     H89408   5.073   6.602   8.957  0.2630 -0.3261 -0.1086
  648MOL0     H89409   4.857   6.699   8.962 -0.3694 -1.7168  0.5336
  648MOL0     H89410   4.545   6.928   9.068  4.5280 -0.6711  1.9757
  648MOL0     H89411   4.298   6.965   9.133 -0.2571  1.5940 -0.1687
  648MOL0     H89412   4.202   6.877   9.367  2.2869 -0.5548  0.8219
  648MOL0     H89413   4.188   6.972   9.517  1.5279 -0.1273 -0.5354
  648MOL0     H89414   3.985   6.869   9.455  3.5100 -0.6723 -0.2798
  648MOL0     H89415   3.985   6.964   9.305  1.3687 -1.4612 -0.0766
  648MOL0     H89416   3.958   7.069   9.589  0.0797  0.4250 -0.4420
  648MOL0     H89417   3.992   7.170   9.446  1.6669 -0.6196 -0.1776
  648MOL0     H89418   3.789   7.109   9.334  1.0791  0.5755 -0.5769
  648MOL0     H89419   3.742   7.160   9.501  2.1852  0.2595  1.9676
  648MOL0     H89420   3.618   6.756   9.479  1.6999 -1.2134 -2.2639
  648MOL0     H89421   4.445   7.164   9.482  0.1313  0.4248  0.0367
  648MOL0     H89422   4.803   7.076   9.438  0.6279  0.3610  2.2229
  648MOL0     H89423   4.736   7.237   9.399 -1.2633  0.4737  1.7740
  648MOL0     H89424   4.688   7.167   9.542 -0.1785  0.7953 -0.2870
  649MOL0     O89425   4.798   8.665   8.010 -0.4514 -0.6581  1.1243
  649MOL0     C89426   4.779   8.658   7.888  0.4444 -0.0347 -0.2097
  649MOL0     O89427   4.858   8.591   7.793 -0.9340 -0.3520 -0.3872
  649MOL0     C89428   4.993   8.576   7.801  0.1898 -0.6092  0.5143
  649MOL0     C89429   5.052   8.484   7.714 -0.0000 -0.6655 -0.8787
  649MOL0     C89430   5.192   8.465   7.711 -0.4564  0.4536  0.4074
  649MOL0     C89431   5.271   8.532   7.808 -0.0604 -0.0399  1.4798
  649MOL0     O89432   5.402   8.524   7.826 -0.2478  0.4609  0.3450
  649MOL0     C89433   5.485   8.447   7.751 -0.5974 -0.2428  0.5130
  649MOL0     C89434   5.480   8.305   7.809 -0.1610 -0.6828 -0.6566
  649MOL0     C89435   5.568   8.202   7.750 -1.3459  0.4115 -0.9693
  649MOL0     C89436   5.543   8.171   7.594 -0.0976 -0.5323  0.0622
  649MOL0     C89437   5.634   8.054   7.558  0.0311  0.0482  0.1448
  649MOL0     C89438   5.771   8.113   7.518  0.1992  0.7145 -0.1963
  649MOL0     C89439   5.871   7.997   7.494  0.3761 -0.1401 -0.4344
  649MOL0     C89440   6.002   8.052   7.427 -0.5704 -0.1991  0.8813
  649MOL0     N89441   6.107   7.951   7.421 -0.1986  0.8334 -0.0667
  649MOL0     C89442   6.169   7.891   7.528 -0.3223  0.6556 -0.0903
  649MOL0     C89443   6.233   7.789   7.476 -0.5146  0.1589  0.1874
  649MOL0     C89444   6.328   7.689   7.545 -0.0045  0.0039  0.0003
  649MOL0     C89445   6.465   7.736   7.593 -0.1217 -0.7666 -0.4985
  649MOL0     C89446   6.546   7.789   7.474 -0.4142 -0.0481  0.0724
  649MOL0     C89447   6.606   7.686   7.379 -0.0341  0.1317 -0.6789
  649MOL0     O89448   6.647   7.574   7.454  0.4718 -0.1206 -0.1236
  649MOL0     C89449   6.770   7.569   7.508 -1.0186 -0.1781 -0.3369
  649MOL0     C89450   6.794   7.455   7.583  0.4265 -0.4812 -0.0184
  649MOL0     C89451   6.899   7.444   7.663  0.7953  0.5233  0.4599
  649MOL0     C89452   6.920   7.326   7.752  0.3151 -0.1445  0.1490
  649MOL0     C89453   6.999   7.546   7.668  0.5414  0.0345  0.9012
  649MOL0     C89454   7.110   7.534   7.762 -0.5260  0.1331  0.0991
  649MOL0     O89455   7.225   7.586   7.719  0.4530 -0.6207  0.5009
  649MOL0     C89456   7.334   7.602   7.801 -0.0880 -0.8842  0.3340
  649MOL0     C89457   7.441   7.508   7.795 -0.1523  0.6423  0.6666
  649MOL0     C89458   7.548   7.521   7.874  0.0583 -0.4403  0.4848
  649MOL0     C89459   7.572   7.625   7.957 -0.2330 -0.3437 -0.2659
  649MOL0     O89460   7.695   7.633   8.015 -0.3149 -0.0827 -0.0199
  649MOL0     C89461   7.715   7.748   8.100  0.1097  0.0817  0.1793
  649MOL0     C89462   7.833   7.709   8.190 -0.3021 -0.0736  0.7139
  649MOL0     C89463   7.871   7.831   8.272 -0.1128 -0.2679  0.7050
  649MOL0     C89464   7.990   7.797   8.361 -0.6318  0.1102  0.2279
  649MOL0     C89465   8.012   7.912   8.468 -0.7383  0.5872 -0.3204
  649MOL0     C89466   8.132   7.889   8.569  1.0208 -0.3354 -0.5853
  649MOL0     C89467   8.146   8.015   8.662  0.1175 -0.0655 -0.0167
  649MOL0     C89468   8.260   7.997   8.763 -0.3878  0.0742 -0.0583
  649MOL0    Cl89469   8.407   8.008   8.660  0.7221 -0.0876 -0.3006
  649MOL0     C89470   7.477   7.726   7.958  0.5280 -0.1514  0.3362
  649MOL0     C89471   7.355   7.712   7.887 -0.9967  0.5429  0.1859
  649MOL0     O89472   7.084   7.497   7.880  0.0028  0.0946  0.5278
  649MOL0     C89473   6.979   7.660   7.587 -0.1373  0.7939 -0.8116
  649MOL0     C89474   6.866   7.670   7.519  0.7370 -0.2582  0.1785
  649MOL0     N89475   6.203   7.780   7.342  0.3248 -0.2311 -0.3742
  649MOL0     N89476   6.119   7.871   7.311 -0.0570  0.5429  0.0437
  649MOL0     C89477   5.208   8.627   7.886  0.7165 -1.1933  0.6995
  649MOL0     C89478   5.071   8.651   7.892 -0.4065  0.5990  0.1788
  649MOL0     C89479   4.643   8.700   7.840  0.4381  0.0562 -0.0507
  649MOL0     C89480   4.580   8.608   7.756 -0.2126 -0.0736  0.5339
  649MOL0     C89481   4.452   8.630   7.720  0.4034  0.0660 -0.5218
  649MOL0     C89482   4.380   8.743   7.750  0.3177 -0.8536 -0.5892
  649MOL0     O89483   4.248   8.752   7.712 -0.3283  0.1692  0.1013
  649MOL0     C89484   4.191   8.876   7.662  0.1802 -0.2805  0.2400
  649MOL0     C89485   4.043   8.848   7.630  0.2706 -0.8840 -0.4117
  649MOL0     C89486   3.974   8.960   7.554  0.6427  0.0335 -0.6328
  649MOL0     C89487   3.833   8.921   7.518 -0.9448  0.0101  0.0060
  649MOL0     C89488   3.835   8.805   7.433 -0.0415  0.3264  0.1021
  649MOL0     C89489   3.832   8.707   7.354  0.9333  0.3419  0.1847
  649MOL0     C89490   4.446   8.845   7.824  0.4066 -0.1850  0.0215
  649MOL0     C89491   4.577   8.817   7.872  0.6426  0.2155  0.1059
  649MOL0     C89492   4.643   8.918   7.965 -0.0014 -0.5648 -0.1909
  649MOL0     H89493   4.990   8.427   7.645 -1.3040  0.7382 -0.9317
  649MOL0     H89494   5.236   8.403   7.634  1.8509  2.5980 -0.1352
  649MOL0     H89495   5.589   8.482   7.759 -0.4745  0.9097 -3.7529
  649MOL0     H89496   5.455   8.453   7.647 -0.7473 -0.6450  0.5315
  649MOL0     H89497   5.514   8.307   7.912  0.0645 -2.2690 -0.6700
  649MOL0     H89498   5.375   8.274   7.810 -0.4151  0.0731 -1.7466
  649MOL0     H89499   5.672   8.234   7.761 -0.6250 -1.5361 -1.6818
  649MOL0     H89500   5.552   8.112   7.810 -1.1841  0.7149 -0.4612
  649MOL0     H89501   5.437   8.150   7.578 -0.4407  1.6281 -0.9777
  649MOL0     H89502   5.563   8.265   7.541 -0.4597 -0.2923  0.3485
  649MOL0     H89503   5.592   7.998   7.474  1.0403  0.6293 -0.7724
  649MOL0     H89504   5.662   7.981   7.635  0.8379 -0.6733 -0.7980
  649MOL0     H89505   5.752   8.165   7.424  0.1220 -0.8334 -1.0561
  649MOL0     H89506   5.825   8.172   7.593  0.5449 -0.1424  0.2413
  649MOL0     H89507   5.828   7.926   7.423 -0.9263  1.2685 -1.1331
  649MOL0     H89508   5.902   7.951   7.588 -1.4644  1.3861  0.9966
  649MOL0     H89509   5.963   8.080   7.329 -0.1554 -0.8132  0.5357
  649MOL0     H89510   6.033   8.143   7.480  0.9273  0.0436 -0.3745
  649MOL0     H89511   6.174   7.936   7.626  2.1302  0.3021  0.0001
  649MOL0     H89512   6.343   7.601   7.483 -0.2077 -1.0800  1.4348
  649MOL0     H89513   6.294   7.641   7.637  2.0440 -1.6121 -0.0021
  649MOL0     H89514   6.461   7.821   7.661 -0.6851  1.1318 -2.7728
  649MOL0     H89515   6.510   7.647   7.637 -1.4045 -0.8097  0.7796
  649MOL0     H89516   6.489   7.857   7.410 -1.4436  1.2294  2.2626
  649MOL0     H89517   6.619   7.841   7.537 -0.9681  0.6929  0.1184
  649MOL0     H89518   6.529   7.648   7.310 -0.8623 -1.0207  0.8187
  649MOL0     H89519   6.685   7.725   7.314  1.1903 -1.5097 -0.2425
  649MOL0     H89520   6.718   7.377   7.588 -0.7689  0.7413  1.6679
  649MOL0     H89521   7.021   7.285   7.758 -0.5165 -2.5495 -0.9772
  649MOL0     H89522   6.857   7.241   7.722  0.5841  0.0628 -1.0482
  649MOL0     H89523   6.898   7.355   7.855 -0.7248  1.8120 -0.5760
  649MOL0     H89524   7.432   7.425   7.725  1.9672 -0.3424  1.4867
  649MOL0     H89525   7.628   7.449   7.861 -0.4748 -1.2373  1.4701
  649MOL0     H89526   7.723   7.841   8.044 -0.2462 -1.1326 -2.0068
  649MOL0     H89527   7.631   7.752   8.170 -0.5481 -3.5966 -0.1954
  649MOL0     H89528   7.801   7.632   8.261 -0.3979 -1.8198 -1.1386
  649MOL0     H89529   7.908   7.668   8.122 -3.8299 -1.6520 -2.5497
  649MOL0     H89530   7.780   7.857   8.326 -0.7108  0.5021 -0.6400
  649MOL0     H89531   7.897   7.920   8.214  0.6554  1.8150  3.9298
  649MOL0     H89532   8.076   7.802   8.293 -0.4452 -1.1976  0.3428
  649MOL0     H89533   7.979   7.704   8.417 -3.1087  1.7682  2.7647
  649MOL0     H89534   8.038   8.003   8.413 -0.2008  0.6191 -0.0218
  649MOL0     H89535   7.916   7.929   8.518  0.2276 -0.9192  2.2672
  649MOL0     H89536   8.223   7.863   8.515  1.6325  1.5074 -0.5264
  649MOL0     H89537   8.105   7.801   8.628 -1.5038  0.4896 -0.3732
  649MOL0     H89538   8.049   8.037   8.708 -0.5453 -1.0307 -0.9211
  649MOL0     H89539   8.167   8.101   8.599 -2.0434  0.4514 -0.1107
  649MOL0     H89540   8.253   7.902   8.816 -0.2554  0.0351 -0.1114
  649MOL0     H89541   8.269   8.088   8.825  1.8741  0.8660 -1.4210
  649MOL0     H89542   7.481   7.827   7.998  0.2375  0.8123 -1.9006
  649MOL0     H89543   7.290   7.799   7.887 -0.5796  0.9889 -2.9279
  649MOL0     H89544   7.049   7.743   7.592 -0.8812  1.4034 -0.3785
  649MOL0     H89545   6.838   7.760   7.465  1.3423 -0.0573  0.1948
  649MOL0     H89546   5.260   8.690   7.958  0.7641 -1.8509  1.2480
  649MOL0     H89547   5.035   8.722   7.965  1.1338  0.1130  1.4815
  649MOL0     H89548   4.631   8.523   7.713 -1.0799 -1.2526  1.7607
  649MOL0     H89549   4.393   8.564   7.658  1.8945 -1.0062 -0.8680
  649MOL0     H89550   4.192   8.953   7.740 -0.6877 -2.1230  2.1781
  649MOL0     H89551   4.250   8.915   7.579 -2.4495  0.7288 -1.2682
  649MOL0     H89552   3.990   8.849   7.726  1.2337  0.3181  0.1465
  649MOL0     H89553   4.035   8.747   7.589 -0.2253 -1.7773  1.7475
  649MOL0     H89554   3.973   9.040   7.628 -0.2978  0.5153 -1.1497
  649MOL0     H89555   4.032   8.988   7.466  0.4479 -1.3216 -1.2170
  649MOL0     H89556   3.788   9.009   7.472 -1.3319 -1.2216 -2.0987
  649MOL0     H89557   3.768   8.898   7.604 -1.1741  2.5758  0.5995
  649MOL0     H89558   3.818   8.618   7.296  1.2505 -2.2091  3.7055
  649MOL0     H89559   4.394   8.936   7.851 -1.6085 -0.9960 -0.8828
  649MOL0     H89560   4.582   9.007   7.985  2.3956  0.5403  3.0244
  649MOL0     H89561   4.649   8.879   8.067  0.3447  1.1230  0.4758
  649MOL0     H89562   4.742   8.946   7.926 -1.4239 -0.2808 -4.0651
  650MOL0     O89563   8.867   3.977   4.160  0.2752 -0.0466 -0.4655
  650MOL0     C89564   8.768   4.047   4.158  0.2720 -0.1173  0.2033
  650MOL0     O89565   8.760   4.187   4.193  0.1855 -0.3274 -0.0305
  650MOL0     C89566   8.876   4.246   4.241 -0.6557 -0.5588 -0.7257
  650MOL0     C89567   8.960   4.318   4.154  0.4425  0.4253 -0.7065
  650MOL0     C89568   9.078   4.382   4.206 -0.3050  0.0503 -0.0080
  650MOL0     C89569   9.115   4.373   4.340 -0.0099  0.0959 -0.1773
  650MOL0     O89570   9.223   4.422   4.406 -0.0225  0.3167 -0.7200
  650MOL0     C89571   9.315   4.499   4.325  0.3341  0.4742 -0.6707
  650MOL0     C89572   9.423   4.534   4.425  1.3288 -0.2973 -0.0769
  650MOL0     C89573   9.499   4.655   4.371  0.1276  0.3538  0.0120
  650MOL0     C89574   9.639   4.677   4.425  0.1491 -0.1892 -0.3793
  650MOL0     C89575   9.713   4.799   4.366 -0.4007 -0.4044  0.5963
  650MOL0     C89576   9.867   4.796   4.373  0.4814 -0.1356  0.7131
  650MOL0     C89577   9.929   4.916   4.293  1.0033 -0.1243 -1.0750
  650MOL0     C89578  10.081   4.913   4.295 -0.7628 -0.1549 -0.0866
  650MOL0     N89579  10.133   4.927   4.425  0.1820 -0.4672 -0.2244
  650MOL0     C89580  10.128   5.029   4.522  1.1934  0.0952  0.2236
  650MOL0     C89581  10.178   4.969   4.637 -0.1583 -0.5066  0.1247
  650MOL0     C89582  10.189   5.033   4.769 -0.0587  0.4441 -0.9956
  650MOL0     C89583  10.326   5.006   4.846 -0.0950 -0.4528 -0.4686
  650MOL0     C89584  10.440   5.065   4.761  0.0086 -0.0800  0.0263
  650MOL0     C89585  10.565   5.082   4.847 -0.6659 -0.3169  0.3695
  650MOL0     O89586  10.645   5.177   4.777 -0.1538  0.1740  0.0139
  650MOL0     C89587  10.780   5.166   4.787 -1.0166 -0.5066 -0.9439
  650MOL0     C89588  10.850   5.142   4.672 -0.3290  0.0048  0.1248
  650MOL0     C89589  10.989   5.135   4.663  1.5057  0.5049  0.1738
  650MOL0     C89590  11.048   5.079   4.527  0.5622  0.1420  0.1501
  650MOL0     C89591  11.057   5.149   4.786  1.0993 -0.7728 -0.7125
  650MOL0     C89592  11.207   5.125   4.805  0.5702 -0.6553 -0.1985
  650MOL0     O89593  11.273   5.207   4.885  0.3514  0.1487 -0.4341
  650MOL0     C89594  11.409   5.204   4.875 -0.1232 -0.5704  0.3514
  650MOL0     C89595  11.471   5.330   4.877 -0.7160 -0.5469 -0.1476
  650MOL0     C89596  11.611   5.337   4.889 -0.1557  0.2102 -0.0568
  650MOL0     C89597  11.688   5.218   4.895 -0.7789 -0.1768 -0.5252
  650MOL0     O89598  11.825   5.212   4.895 -0.2017 -0.5822 -0.5866
  650MOL0     C89599  11.897   5.317   4.830 -0.2571  0.3403 -1.2894
  650MOL0     C89600  12.049   5.300   4.863  0.3656 -0.3317  0.2363
  650MOL0     C89601  12.122   5.378   4.754  0.5755 -0.1073  0.0011
  650MOL0     C89602  12.266   5.403   4.782 -0.0436 -0.2177  0.6455
  650MOL0     C89603  12.351   5.465   4.665  0.1311 -0.4209  0.0906
  650MOL0     C89604  12.497   5.421   4.663 -0.3891 -0.5064 -1.0119
  650MOL0     C89605  12.561   5.490   4.543  0.4364 -0.7756  0.9870
  650MOL0     C89606  12.711   5.464   4.530 -0.1013  0.7909  0.6675
  650MOL0    Cl89607  12.796   5.569   4.421 -0.3752 -0.1129  0.0821
  650MOL0     C89608  11.622   5.093   4.911  0.2763 -0.2886 -0.1893
  650MOL0     C89609  11.487   5.086   4.897  0.3200 -0.6468  0.2790
  650MOL0     O89610  11.256   5.036   4.734  0.3845 -0.0642 -0.1541
  650MOL0     C89611  10.984   5.197   4.898  0.2738 -0.0647 -0.8352
  650MOL0     C89612  10.847   5.196   4.907 -0.8908 -0.8613  0.3489
  650MOL0     N89613  10.217   4.843   4.600 -0.2117  0.1911  0.3070
  650MOL0     N89614  10.193   4.822   4.480 -0.6803 -0.5744 -0.4627
  650MOL0     C89615   9.030   4.291   4.424  0.1226 -0.1327  0.1475
  650MOL0     C89616   8.917   4.231   4.373  0.4652 -0.0576  0.3141
  650MOL0     C89617   8.644   3.972   4.108  0.6529 -0.4412 -0.4934
  650MOL0     C89618   8.519   4.042   4.112  0.3803 -0.0508 -0.1308
  650MOL0     C89619   8.391   3.979   4.090 -0.0164 -0.1125 -0.2420
  650MOL0     C89620   8.387   3.842   4.071  0.9761 -0.7053  0.5104
  650MOL0     O89621   8.266   3.782   4.047  0.0532  0.5022  0.4483
  650MOL0     C89622   8.256   3.640   4.007 -0.4277 -0.1563 -0.2496
  650MOL0     C89623   8.121   3.582   4.056  0.2769  0.5357  0.7719
  650MOL0     C89624   7.998   3.661   3.988  0.4637 -0.4878  0.1752
  650MOL0     C89625   7.856   3.602   4.028 -0.3498  0.1608  0.1654
  650MOL0     C89626   7.852   3.469   3.975 -0.0276 -0.6322 -0.1846
  650MOL0     C89627   7.868   3.363   3.914 -0.1749  0.1891  0.1251
  650MOL0     C89628   8.510   3.784   4.050 -1.0069 -0.0724  0.0042
  650MOL0     C89629   8.640   3.836   4.074 -0.7405 -0.0069  0.5324
  650MOL0     C89630   8.764   3.738   4.067  0.6500 -0.5438 -1.0177
  650MOL0     H89631   8.930   4.328   4.050  0.3742 -0.4258 -0.7726
  650MOL0     H89632   9.137   4.449   4.144  0.3222  0.5445  1.0906
  650MOL0     H89633   9.271   4.591   4.286 -0.1166  1.1637  1.3129
  650MOL0     H89634   9.359   4.439   4.245 -0.0532 -0.6458 -0.0625
  650MOL0     H89635   9.369   4.554   4.518 -2.2909 -2.8007 -1.4101
  650MOL0     H89636   9.494   4.451   4.436  2.1884  0.3962 -0.2720
  650MOL0     H89637   9.513   4.632   4.265  0.6196 -2.3750  0.6055
  650MOL0     H89638   9.451   4.752   4.388 -0.1113  0.4911 -1.3500
  650MOL0     H89639   9.632   4.697   4.533 -0.1723  0.3728 -0.5042
  650MOL0     H89640   9.695   4.583   4.417  1.6925  0.8589 -3.0860
  650MOL0     H89641   9.680   4.896   4.402 -1.5697  0.8562 -3.3177
  650MOL0     H89642   9.682   4.806   4.261  0.7106  3.2211  0.4018
  650MOL0     H89643   9.892   4.803   4.479  1.0021  1.8540  0.4982
  650MOL0     H89644   9.919   4.708   4.336  2.9595  1.6147 -0.1798
  650MOL0     H89645   9.886   5.002   4.347  3.0610 -0.4886  1.3657
  650MOL0     H89646   9.894   4.925   4.190  1.1390 -0.0507 -1.1152
  650MOL0     H89647  10.107   4.817   4.249 -1.2539  1.3998 -3.9540
  650MOL0     H89648  10.117   4.999   4.236 -0.7376  0.0117  0.1711
  650MOL0     H89649  10.091   5.131   4.515  1.5850  0.1820 -0.6806
  650MOL0     H89650  10.101   5.001   4.826 -1.9723 -2.7286 -5.1431
  650MOL0     H89651  10.182   5.142   4.765 -0.3017  0.4076 -2.0378
  650MOL0     H89652  10.316   5.051   4.945 -0.1622  1.6118 -1.3639
  650MOL0     H89653  10.352   4.903   4.871  1.5034  0.0162 -0.1010
  650MOL0     H89654  10.471   5.012   4.670  0.3513 -0.6269  0.4509
  650MOL0     H89655  10.404   5.162   4.726 -3.2041 -1.0300  0.4198
  650MOL0     H89656  10.555   5.130   4.945  0.3051  1.7820 -0.4907
  650MOL0     H89657  10.619   4.988   4.856  0.8038  0.0825 -2.9294
  650MOL0     H89658  10.790   5.122   4.583 -0.7610  2.3906 -0.1861
  650MOL0     H89659  11.085   4.978   4.549 -2.1584 -1.2704 -1.2841
  650MOL0     H89660  11.135   5.142   4.505 -0.7604  1.5317 -1.3249
  650MOL0     H89661  10.985   5.086   4.438  1.5701  1.7611 -0.4826
  650MOL0     H89662  11.398   5.409   4.863 -2.9701 -2.6892 -1.4085
  650MOL0     H89663  11.665   5.431   4.882 -0.0515  0.1658  0.1519
  650MOL0     H89664  11.879   5.315   4.722 -0.2791  2.1541 -1.3562
  650MOL0     H89665  11.862   5.418   4.855  1.0195  0.0734  2.0450
  650MOL0     H89666  12.064   5.329   4.967 -3.4571 -0.8584  1.0891
  650MOL0     H89667  12.084   5.196   4.856  0.2886 -0.2526 -2.9084
  650MOL0     H89668  12.081   5.479   4.738 -0.3598 -0.7542 -1.9824
  650MOL0     H89669  12.104   5.326   4.660  0.6656 -0.6804  0.2999
  650MOL0     H89670  12.312   5.311   4.817  0.7747 -0.0415  0.0876
  650MOL0     H89671  12.271   5.480   4.860 -4.4733 -2.1995  3.2282
  650MOL0     H89672  12.306   5.434   4.570 -0.5055  2.8526 -0.8123
  650MOL0     H89673  12.339   5.574   4.669 -0.0964 -0.4315 -0.2880
  650MOL0     H89674  12.505   5.312   4.658 -1.2834 -0.7683  1.6212
  650MOL0     H89675  12.549   5.452   4.754  0.1904 -1.5482 -0.9739
  650MOL0     H89676  12.540   5.598   4.546 -2.8631 -1.2075 -1.2116
  650MOL0     H89677  12.516   5.452   4.451  1.1077 -0.3715  0.4738
  650MOL0     H89678  12.726   5.366   4.486 -2.1929  0.8086 -0.1953
  650MOL0     H89679  12.762   5.478   4.625 -0.1045 -2.5788  1.2738
  650MOL0     H89680  11.677   5.005   4.942  1.7887  0.2871 -1.1635
  650MOL0     H89681  11.444   4.987   4.894 -1.1026 -0.0314 -0.9730
  650MOL0     H89682  11.036   5.229   4.988 -0.4987 -1.2578  0.0737
  650MOL0     H89683  10.789   5.223   4.994 -3.4286 -2.2037 -0.8392
  650MOL0     H89684   9.055   4.280   4.529 -0.7369  2.2902  0.6565
  650MOL0     H89685   8.842   4.179   4.431 -1.9593  0.1688 -2.4378
  650MOL0     H89686   8.507   4.145   4.145  0.3299 -0.7631  2.2585
  650MOL0     H89687   8.294   4.028   4.092  1.0997  2.2555 -0.8150
  650MOL0     H89688   8.264   3.631   3.898 -3.7111 -0.0125 -0.6103
  650MOL0     H89689   8.322   3.574   4.062 -0.9226 -2.7841 -2.5814
  650MOL0     H89690   8.104   3.594   4.163 -1.9551  0.8270  0.4343
  650MOL0     H89691   8.120   3.476   4.031  2.4434  0.2404  1.6771
  650MOL0     H89692   8.002   3.767   4.017 -5.1229  0.1172 -0.2977
  650MOL0     H89693   8.000   3.672   3.880 -2.8290 -0.3583  0.0362
  650MOL0     H89694   7.778   3.660   3.978  0.2588  0.3396 -0.6053
  650MOL0     H89695   7.845   3.602   4.137 -1.1557 -1.6212  0.1089
  650MOL0     H89696   7.906   3.285   3.852  0.9000  1.3625 -0.7343
  650MOL0     H89697   8.502   3.683   4.011 -0.2694  0.8154 -2.6530
  650MOL0     H89698   8.811   3.743   3.968 -1.6924 -2.5505 -2.3428
  650MOL0     H89699   8.838   3.750   4.147  0.1707  0.9551 -0.7783
  650MOL0     H89700   8.728   3.635   4.081 -2.7126  0.5876 -0.3325
  651MOL0     O89701   9.900   3.926   5.609 -0.6628  0.0458 -0.6022
  651MOL0     C89702   9.796   3.973   5.648  0.2055  0.2249  0.3972
  651MOL0     O89703   9.780   4.095   5.714 -0.1295  0.5902  0.1498
  651MOL0     C89704   9.898   4.152   5.752 -0.4920 -0.1542  0.3288
  651MOL0     C89705  10.016   4.083   5.808  0.5969 -0.2217  0.6778
  651MOL0     C89706  10.118   4.163   5.857  0.3701 -0.1307  0.4112
  651MOL0     C89707  10.120   4.303   5.860  0.4026  0.5624 -0.3848
  651MOL0     O89708  10.233   4.362   5.926  0.4531  0.2664  0.0822
  651MOL0     C89709  10.242   4.502   5.899 -0.0850  0.4703 -0.1206
  651MOL0     C89710  10.341   4.574   5.973 -0.3514  0.1641 -0.0162
  651MOL0     C89711  10.486   4.538   5.921  0.8713  0.2221 -0.1141
  651MOL0     C89712  10.589   4.571   6.031  0.3855  0.2404  0.0907
  651MOL0     C89713  10.725   4.516   6.013  1.4296  0.1865 -0.8903
  651MOL0     C89714  10.825   4.587   6.103 -0.0221  0.4662  0.6062
  651MOL0     C89715  10.964   4.526   6.083 -0.3200  0.1542  0.8548
  651MOL0     C89716  11.082   4.600   6.151 -0.4724 -1.0328  0.0274
  651MOL0     N89717  11.213   4.567   6.093 -0.6756 -0.0305 -0.2485
  651MOL0     C89718  11.278   4.450   6.109 -0.3088  1.0211  0.2690
  651MOL0     C89719  11.412   4.469   6.075  0.2244 -0.0705  0.3292
  651MOL0     C89720  11.516   4.368   6.050 -0.1903  0.0259 -0.3038
  651MOL0     C89721  11.657   4.427   6.028 -0.2511 -0.0198  0.0682
  651MOL0     C89722  11.761   4.324   5.995 -0.1534  0.1388 -0.2591
  651MOL0     C89723  11.896   4.377   5.994 -0.7218 -0.4112 -0.6986
  651MOL0     O89724  11.914   4.404   6.133 -0.2840  0.2583 -0.5609
  651MOL0     C89725  12.033   4.457   6.174  0.1583 -0.2977 -0.4309
  651MOL0     C89726  12.121   4.524   6.094  0.6854 -0.7423  0.5627
  651MOL0     C89727  12.244   4.572   6.136  0.1147 -0.3995  0.2529
  651MOL0     C89728  12.316   4.644   6.031 -0.1711  0.6498  0.5953
  651MOL0     C89729  12.287   4.547   6.273  0.0554 -0.9167 -0.3464
  651MOL0     C89730  12.414   4.595   6.333  0.7171  0.2894  0.3809
  651MOL0     O89731  12.454   4.534   6.443  0.6469  0.6298 -0.3969
  651MOL0     C89732  12.572   4.579   6.498  0.1739 -0.3796  0.6560
  651MOL0     C89733  12.648   4.484   6.560  0.7870 -0.0938 -0.9061
  651MOL0     C89734  12.776   4.509   6.619  0.7684  0.2092  0.8511
  651MOL0     C89735  12.826   4.641   6.623 -0.8301  0.1459  0.2358
  651MOL0     O89736  12.954   4.681   6.663  0.3597  0.3857 -0.5226
  651MOL0     C89737  13.050   4.584   6.710  1.1207  0.0799 -0.2799
  651MOL0     C89738  13.168   4.663   6.760  0.0661  0.6458  0.3207
  651MOL0     C89739  13.294   4.588   6.790  0.2152  0.0952 -0.1354
  651MOL0     C89740  13.294   4.480   6.899  0.1662 -0.4280  0.2928
  651MOL0     C89741  13.442   4.462   6.943 -0.5071  0.3760  0.4363
  651MOL0     C89742  13.456   4.364   7.062  0.0193 -0.4511 -0.3858
  651MOL0     C89743  13.404   4.419   7.197 -0.5617 -0.3674  0.6291
  651MOL0     C89744  13.461   4.339   7.311 -0.1409 -0.2123  0.1087
  651MOL0    Cl89745  13.372   4.186   7.312 -0.0316  0.1682  0.6580
  651MOL0     C89746  12.744   4.736   6.566  0.6039 -0.7080 -0.4534
  651MOL0     C89747  12.617   4.710   6.516 -0.4639  0.3614  0.2124
  651MOL0     O89748  12.482   4.670   6.266 -0.1606  0.4205  0.2084
  651MOL0     C89749  12.194   4.475   6.352 -0.4418  0.0939 -0.1440
  651MOL0     C89750  12.075   4.427   6.303  0.6636  0.0508 -0.1440
  651MOL0     N89751  11.424   4.608   6.050 -0.1067  1.0055  0.4134
  651MOL0     N89752  11.311   4.664   6.061 -0.7047 -0.2010  0.1438
  651MOL0     C89753  10.014   4.367   5.797  0.0682  0.7632 -0.2913
  651MOL0     C89754   9.904   4.293   5.749  0.9470 -0.2138 -0.4910
  651MOL0     C89755   9.672   3.898   5.616  0.0108 -0.2129  0.4541
  651MOL0     C89756   9.559   3.923   5.696  0.5250  0.1680 -0.6715
  651MOL0     C89757   9.441   3.863   5.665  0.5266  0.7602  0.7204
  651MOL0     C89758   9.433   3.766   5.556  0.2486  0.1337  0.4167
  651MOL0     O89759   9.324   3.694   5.521  0.2406 -1.0337 -0.1823
  651MOL0     C89760   9.198   3.691   5.593  0.4962 -1.0501 -0.2750
  651MOL0     C89761   9.115   3.570   5.546 -0.2215  0.0594  0.8332
  651MOL0     C89762   8.965   3.578   5.600 -0.1568 -0.1765  0.1063
  651MOL0     C89763   8.892   3.444   5.559 -0.3447  0.8533 -0.4109
  651MOL0     C89764   8.753   3.460   5.602 -1.0083  0.8366  0.7913
  651MOL0     C89765   8.636   3.473   5.614  0.0057 -0.0928  0.4088
  651MOL0     C89766   9.544   3.747   5.478 -0.1144  0.8540  0.4404
  651MOL0     C89767   9.655   3.814   5.499 -0.5112  0.6559 -0.2915
  651MOL0     C89768   9.775   3.776   5.406  0.0199 -0.5995 -0.4463
  651MOL0     H89769  10.017   3.976   5.824 -0.6536 -0.3878 -0.2159
  651MOL0     H89770  10.195   4.108   5.910  0.1121 -1.1366 -0.2127
  651MOL0     H89771  10.150   4.552   5.931 -0.6207 -1.3631  1.4070
  651MOL0     H89772  10.254   4.519   5.792 -1.9012 -1.5247 -0.7101
  651MOL0     H89773  10.327   4.679   5.945  0.4750 -0.1858 -1.9394
  651MOL0     H89774  10.336   4.560   6.081  2.7728 -2.0692 -0.0431
  651MOL0     H89775  10.495   4.432   5.893 -1.6198  0.4141 -2.0693
  651MOL0     H89776  10.508   4.586   5.825 -0.2354 -1.3474 -1.2210
  651MOL0     H89777  10.593   4.680   6.039  2.3069  0.1773  0.4120
  651MOL0     H89778  10.550   4.542   6.129  0.1702  0.0687 -0.0445
  651MOL0     H89779  10.750   4.533   5.908 -2.7530 -1.0434 -2.2885
  651MOL0     H89780  10.720   4.409   6.036 -3.0145 -0.2503 -2.7299
  651MOL0     H89781  10.824   4.695   6.089 -1.5795  0.3514 -0.3641
  651MOL0     H89782  10.794   4.572   6.207  0.6468 -3.2385  0.3970
  651MOL0     H89783  10.981   4.533   5.975  2.0142  3.4965  1.2871
  651MOL0     H89784  10.966   4.428   6.132  0.7458  1.1653  2.9430
  651MOL0     H89785  11.064   4.706   6.168 -2.4966 -1.3840  0.3029
  651MOL0     H89786  11.095   4.550   6.248  1.0810 -1.2039 -0.2383
  651MOL0     H89787  11.234   4.356   6.139  1.4526  0.6012  1.7149
  651MOL0     H89788  11.474   4.323   5.959 -3.2324  1.1963  0.3988
  651MOL0     H89789  11.508   4.302   6.137  1.5004  2.4911  1.8546
  651MOL0     H89790  11.655   4.502   5.948 -0.9789  0.3390  0.4194
  651MOL0     H89791  11.676   4.485   6.119  2.2643 -0.9019  0.1872
  651MOL0     H89792  11.749   4.247   6.072 -2.3985 -1.0171 -1.6299
  651MOL0     H89793  11.732   4.290   5.895  0.3388  1.3043 -0.8215
  651MOL0     H89794  11.968   4.303   5.960 -2.8584 -2.4570 -1.0841
  651MOL0     H89795  11.906   4.466   5.932  0.4073 -0.5960 -0.8045
  651MOL0     H89796  12.077   4.546   5.997  0.5734 -2.5853  0.1638
  651MOL0     H89797  12.280   4.617   5.931  1.8926  2.6719 -0.8155
  651MOL0     H89798  12.424   4.628   6.031 -0.3269 -0.8580  2.7241
  651MOL0     H89799  12.300   4.752   6.037  1.9117  1.0048  0.4145
  651MOL0     H89800  12.610   4.383   6.562 -0.3202  0.2469 -2.6649
  651MOL0     H89801  12.820   4.416   6.654  0.3448 -0.3582 -0.0897
  651MOL0     H89802  13.007   4.514   6.783  0.7642  1.8747  1.3289
  651MOL0     H89803  13.093   4.524   6.629  1.8964 -4.3489  3.0404
  651MOL0     H89804  13.186   4.725   6.671 -0.0138 -0.5806 -0.5690
  651MOL0     H89805  13.137   4.719   6.849 -0.4523  0.5462  0.2021
  651MOL0     H89806  13.371   4.655   6.830  0.7049 -0.4965 -0.0810
  651MOL0     H89807  13.330   4.538   6.700 -2.1520 -1.9227 -0.0722
  651MOL0     H89808  13.260   4.386   6.855 -0.5964  0.7074 -1.7092
  651MOL0     H89809  13.244   4.516   6.990  2.5014 -0.1885  1.5406
  651MOL0     H89810  13.493   4.427   6.853  0.4549  2.4279  0.1148
  651MOL0     H89811  13.481   4.562   6.963 -3.1093  1.9356 -1.5399
  651MOL0     H89812  13.563   4.344   7.075  0.2869  2.0583  2.3811
  651MOL0     H89813  13.399   4.273   7.042 -2.4805  0.0616  3.4151
  651MOL0     H89814  13.295   4.420   7.204 -0.7381 -2.8224 -0.6334
  651MOL0     H89815  13.442   4.521   7.208  1.8078 -1.1672  0.4323
  651MOL0     H89816  13.452   4.390   7.408  2.7587 -2.2518  1.5711
  651MOL0     H89817  13.569   4.327   7.303  0.4368  2.3605  2.4019
  651MOL0     H89818  12.774   4.839   6.552  2.7272 -1.5635 -3.2614
  651MOL0     H89819  12.558   4.793   6.479  2.4504  3.1203  1.2796
  651MOL0     H89820  12.227   4.439   6.449  1.4844 -1.1078 -1.1843
  651MOL0     H89821  12.015   4.368   6.371  0.8077 -0.3898 -0.3967
  651MOL0     H89822  10.003   4.475   5.790 -2.3193  0.5709 -0.2018
  651MOL0     H89823   9.810   4.340   5.723  0.1444 -1.6920 -0.3669
  651MOL0     H89824   9.554   3.993   5.778 -0.6128  0.0996 -0.6696
  651MOL0     H89825   9.345   3.879   5.715 -0.4457 -1.4781 -0.2883
  651MOL0     H89826   9.209   3.697   5.702 -3.2570 -0.5719  0.2282
  651MOL0     H89827   9.139   3.781   5.572  1.6100 -0.0224  0.8615
  651MOL0     H89828   9.162   3.479   5.587 -0.0936  0.0130  0.5850
  651MOL0     H89829   9.112   3.577   5.437  2.3663  4.2738  0.8204
  651MOL0     H89830   8.967   3.580   5.709  1.3271  0.6625  0.0843
  651MOL0     H89831   8.911   3.666   5.565 -2.8807 -0.4392  3.1834
  651MOL0     H89832   8.942   3.360   5.608  1.6207  1.2966 -1.5426
  651MOL0     H89833   8.902   3.427   5.451  0.8316 -2.0335  0.0806
  651MOL0     H89834   8.529   3.487   5.612 -0.1745 -1.1758  1.1211
  651MOL0     H89835   9.528   3.680   5.394 -3.1392 -1.1936  2.4416
  651MOL0     H89836   9.811   3.857   5.341  1.8138 -0.9337  0.0588
  651MOL0     H89837   9.861   3.746   5.467 -0.0346  1.9080  0.9969
  651MOL0     H89838   9.746   3.694   5.341  0.7127 -0.5286 -0.8615
  652MOL0     O89839   7.465   5.576  10.540  0.1879  0.0336  0.9781
  652MOL0     C89840   7.473   5.612  10.418 -0.3572 -0.3840 -0.2809
  652MOL0     O89841   7.586   5.575  10.336  0.3153  0.1715 -0.4889
  652MOL0     C89842   7.680   5.481  10.364 -0.6837  0.7502 -0.4760
  652MOL0     C89843   7.755   5.424  10.258  0.5290  0.4947 -0.1995
  652MOL0     C89844   7.855   5.336  10.272 -0.3895 -0.5253  0.0302
  652MOL0     C89845   7.894   5.300  10.400 -0.4178 -0.2193 -0.0746
  652MOL0     O89846   7.991   5.206  10.430  0.4008 -0.0134  0.0457
  652MOL0     C89847   8.032   5.121  10.325 -0.1335  0.1325 -0.7294
  652MOL0     C89848   8.136   5.024  10.376  0.0176  0.2522 -0.4943
  652MOL0     C89849   8.065   4.914  10.445  0.5936  0.6622 -0.2943
  652MOL0     C89850   8.161   4.817  10.513  0.0368  0.3126 -0.5677
  652MOL0     C89851   8.232   4.723  10.416 -0.4880  0.3455  0.2740
  652MOL0     C89852   8.313   4.610  10.478 -0.3502 -0.3413  0.3747
  652MOL0     C89853   8.423   4.650  10.577  0.4110 -0.8430 -0.1953
  652MOL0     C89854   8.530   4.541  10.610 -0.9964 -0.2539 -0.0849
  652MOL0     N89855   8.640   4.594  10.691 -0.6097  0.0987  0.8654
  652MOL0     C89856   8.725   4.692  10.655  0.3822  0.5717  0.7446
  652MOL0     C89857   8.814   4.704  10.757 -0.2665  0.7551 -0.6224
  652MOL0     C89858   8.934   4.791  10.779 -0.6084  0.0190 -0.1397
  652MOL0     C89859   9.031   4.779  10.664 -0.0780  0.3321  0.3936
  652MOL0     C89860   9.159   4.874  10.673  0.1230 -0.1255  0.4201
  652MOL0     C89861   9.262   4.812  10.762 -0.3490  0.2940  0.1297
  652MOL0     O89862   9.376   4.914  10.767 -0.3361 -0.7145  0.2690
  652MOL0     C89863   9.497   4.870  10.812  0.1143  0.9879  0.6626
  652MOL0     C89864   9.528   4.738  10.855  0.2370 -0.4905 -0.3324
  652MOL0     C89865   9.661   4.711  10.901  0.4580 -0.0580 -0.3612
  652MOL0     C89866   9.699   4.581  10.962 -0.0560  0.4517  0.5429
  652MOL0     C89867   9.763   4.805  10.884  1.0243  0.3030 -0.0566
  652MOL0     C89868   9.894   4.788  10.943  0.0387  0.4820 -0.1094
  652MOL0     O89869   9.989   4.770  10.849  0.4644 -0.2937  0.0655
  652MOL0     C89870  10.117   4.748  10.897 -0.0730  0.1822  0.1816
  652MOL0     C89871  10.198   4.848  10.954  0.6957 -0.4895  0.5108
  652MOL0     C89872  10.334   4.835  10.966 -0.1169  0.0791  0.5906
  652MOL0     C89873  10.389   4.713  10.935 -0.7775  0.2135 -0.0970
  652MOL0     O89874  10.518   4.685  10.938 -0.0894  0.3560 -1.0050
  652MOL0     C89875  10.600   4.798  10.944  0.7030  0.2996 -0.1511
  652MOL0     C89876  10.742   4.765  10.906  0.3539 -0.9264  1.0250
  652MOL0     C89877  10.809   4.655  10.982  0.1684  0.4098 -0.1330
  652MOL0     C89878  10.940   4.608  10.910 -0.5988 -0.3362  0.6853
  652MOL0     C89879  11.004   4.494  10.996 -0.1657 -0.5296  0.1467
  652MOL0     C89880  11.125   4.425  10.941  0.3326  0.6983  0.1580
  652MOL0     C89881  11.233   4.521  10.886  0.4260  0.3811 -0.4702
  652MOL0     C89882  11.371   4.455  10.884  0.0517  0.2016  0.3085
  652MOL0    Cl89883  11.451   4.562  10.760  0.0592 -0.2450  0.3266
  652MOL0     C89884  10.313   4.612  10.893  0.6129  0.5485  0.0785
  652MOL0     C89885  10.180   4.623  10.872  0.3496  0.3713  0.2254
  652MOL0     O89886   9.907   4.794  11.070  0.0988 -0.0453 -0.0525
  652MOL0     C89887   9.731   4.933  10.829 -0.3596 -0.2491  0.0058
  652MOL0     C89888   9.604   4.962  10.798 -0.1995 -0.5112 -0.3534
  652MOL0     N89889   8.767   4.621  10.856  0.5484  0.2664  0.0613
  652MOL0     N89890   8.667   4.553  10.815 -0.3561 -0.2321 -0.1519
  652MOL0     C89891   7.828   5.351  10.508 -0.3035 -0.3542  0.3231
  652MOL0     C89892   7.720   5.433  10.490  1.2227 -0.5717 -0.4938
  652MOL0     C89893   7.370   5.701  10.357  0.5506  0.2098 -0.6440
  652MOL0     C89894   7.357   5.723  10.225 -0.0841 -0.1864  0.8029
  652MOL0     C89895   7.264   5.806  10.156 -0.2784 -0.2000 -0.1208
  652MOL0     C89896   7.168   5.872  10.232  0.4057  0.1226 -0.0659
  652MOL0     O89897   7.060   5.945  10.188 -0.4680 -0.0247 -0.6230
  652MOL0     C89898   7.068   5.989  10.051  0.7725 -0.0956 -0.1820
  652MOL0     C89899   6.978   6.108  10.019 -0.2791 -0.2040  0.2054
  652MOL0     C89900   6.828   6.076  10.046 -0.0967 -0.8232 -1.4036
  652MOL0     C89901   6.757   5.979   9.944 -0.2029  0.2737 -0.3084
  652MOL0     C89902   6.797   6.009   9.808  0.9304 -0.5627  0.0692
  652MOL0     C89903   6.807   6.040   9.693 -0.4905  0.2318  0.1835
  652MOL0     C89904   7.171   5.846  10.374 -0.6623 -0.9767  0.1256
  652MOL0     C89905   7.263   5.762  10.437 -0.8110  0.0965 -0.3400
  652MOL0     C89906   7.253   5.741  10.586 -0.6421 -0.0826  0.3279
  652MOL0     H89907   7.713   5.452  10.162 -2.6756 -2.4267  0.1991
  652MOL0     H89908   7.892   5.305  10.175 -1.6214  1.7300 -1.2477
  652MOL0     H89909   8.082   5.180  10.247  2.4657  0.2411  0.9117
  652MOL0     H89910   7.945   5.071  10.280 -1.0051  0.8932  0.0593
  652MOL0     H89911   8.203   4.991  10.297  1.6038  0.4874  0.7049
  652MOL0     H89912   8.204   5.078  10.443  1.7980 -0.5276 -1.5914
  652MOL0     H89913   7.998   4.948  10.524 -0.0345 -1.0293 -0.0539
  652MOL0     H89914   7.997   4.855  10.382 -0.8109 -1.7749  3.2125
  652MOL0     H89915   8.237   4.877  10.565  0.7217 -2.0279  1.3263
  652MOL0     H89916   8.097   4.761  10.582  1.1386 -1.1424 -0.6723
  652MOL0     H89917   8.301   4.772  10.346 -0.2066  1.2445  1.1595
  652MOL0     H89918   8.160   4.671  10.352  1.4583 -2.3750  0.1039
  652MOL0     H89919   8.247   4.537  10.525 -1.7671  1.8420  2.0264
  652MOL0     H89920   8.368   4.558  10.400  0.6722 -0.9512  1.4731
  652MOL0     H89921   8.375   4.682  10.670 -1.9037  0.7924 -1.8351
  652MOL0     H89922   8.488   4.720  10.524  3.5743 -2.5244  1.1502
  652MOL0     H89923   8.485   4.456  10.661  2.5263 -1.7985  0.7129
  652MOL0     H89924   8.581   4.506  10.520  0.1664  1.4191 -0.1210
  652MOL0     H89925   8.734   4.753  10.566 -1.9164 -0.4537 -0.2804
  652MOL0     H89926   8.990   4.779  10.872  0.1180 -1.4900 -0.7223
  652MOL0     H89927   8.901   4.895  10.772  2.2312  1.0394  0.1527
  652MOL0     H89928   9.062   4.675  10.650  0.0283  0.5423 -1.0734
  652MOL0     H89929   8.978   4.800  10.571  0.0938 -1.8228 -0.2348
  652MOL0     H89930   9.202   4.880  10.573 -0.6512  3.0878  0.1533
  652MOL0     H89931   9.132   4.976  10.704  2.0167  1.6587 -3.1353
  652MOL0     H89932   9.228   4.811  10.866  2.3360  1.8206  1.1394
  652MOL0     H89933   9.296   4.714  10.727  0.0741  0.6493 -0.4810
  652MOL0     H89934   9.443   4.672  10.867 -2.0408  2.0150 -1.5158
  652MOL0     H89935   9.783   4.526  10.919 -0.7362 -0.6519  0.5764
  652MOL0     H89936   9.613   4.513  10.961  0.1977  0.1228 -0.3259
  652MOL0     H89937   9.726   4.600  11.066  0.0441  0.7645  0.4606
  652MOL0     H89938  10.152   4.940  10.987  0.9318 -1.3516  3.5527
  652MOL0     H89939  10.389   4.915  11.015  0.6787 -2.3405  4.0599
  652MOL0     H89940  10.559   4.875  10.878 -1.6252 -1.6511 -1.1148
  652MOL0     H89941  10.605   4.843  11.044  0.0953  1.9642 -0.8425
  652MOL0     H89942  10.738   4.724  10.804  0.3255  0.6427  0.3642
  652MOL0     H89943  10.812   4.848  10.914  0.9399 -1.3570  0.4867
  652MOL0     H89944  10.740   4.569  10.988  0.4428  0.1620 -0.4749
  652MOL0     H89945  10.823   4.683  11.086  2.9487 -2.7157  0.5127
  652MOL0     H89946  10.996   4.701  10.900 -1.2968  0.0043 -0.2451
  652MOL0     H89947  10.928   4.578  10.806  1.4728  1.2844 -0.0728
  652MOL0     H89948  11.030   4.530  11.095  1.4834  0.5546 -0.6421
  652MOL0     H89949  10.928   4.415  10.995 -0.2208 -0.5470 -2.5488
  652MOL0     H89950  11.098   4.363  10.855  2.8941  0.7248 -0.7423
  652MOL0     H89951  11.162   4.354  11.016 -2.0342 -0.5035  0.2703
  652MOL0     H89952  11.245   4.612  10.946  1.2239 -1.1125  1.7492
  652MOL0     H89953  11.204   4.551  10.784 -2.0416  4.9310  1.2875
  652MOL0     H89954  11.375   4.353  10.843 -1.4297  0.2323  0.0541
  652MOL0     H89955  11.422   4.461  10.981  0.9651 -2.0523  0.0453
  652MOL0     H89956  10.365   4.521  10.865  0.3856 -0.2970  2.2436
  652MOL0     H89957  10.122   4.547  10.821  1.7300  0.3209 -1.3487
  652MOL0     H89958   9.803   5.010  10.803 -0.8287  0.1574 -0.1013
  652MOL0     H89959   9.578   5.061  10.762 -1.2400 -0.8246 -0.4986
  652MOL0     H89960   7.856   5.333  10.611 -0.3336 -0.2170  0.3552
  652MOL0     H89961   7.664   5.466  10.577  1.1316  4.2932 -2.1337
  652MOL0     H89962   7.427   5.671  10.160  1.4006  0.3112  1.9214
  652MOL0     H89963   7.270   5.808  10.048  0.6851 -2.6831 -0.1932
  652MOL0     H89964   7.168   6.018  10.017  0.2630  0.2037 -1.5155
  652MOL0     H89965   7.034   5.901   9.995 -0.3244 -0.8747  1.6047
  652MOL0     H89966   6.996   6.127   9.913 -2.3060 -2.6147 -0.6809
  652MOL0     H89967   7.013   6.185  10.089  0.5098 -2.1360  2.0406
  652MOL0     H89968   6.821   6.020  10.140 -3.5073 -3.1931 -2.8706
  652MOL0     H89969   6.767   6.165  10.064 -2.1121 -2.8363  3.5002
  652MOL0     H89970   6.648   5.978   9.958 -0.0216  1.0011  1.4344
  652MOL0     H89971   6.788   5.875   9.951 -2.7898 -0.7416 -2.1458
  652MOL0     H89972   6.804   6.069   9.590 -0.6675 -0.5151 -0.0312
  652MOL0     H89973   7.091   5.880  10.439  0.8481  0.4635  1.2910
  652MOL0     H89974   7.183   5.808  10.636  1.4754  0.9230  2.1096
  652MOL0     H89975   7.236   5.637  10.615 -1.6775 -0.6735 -2.0932
  652MOL0     H89976   7.349   5.775  10.624 -0.8007  2.1786 -1.1014
  653MOL0     O89977   9.292  10.138   0.265  0.9883 -0.1528 -0.4106
  653MOL0     C89978   9.235  10.172   0.163  0.5231  0.3604  0.3752
  653MOL0     O89979   9.293  10.259   0.067  0.7164 -0.1942  0.1807
  653MOL0     C89980   9.419  10.306   0.095  0.0926  0.3459  0.4017
  653MOL0     C89981   9.532  10.228   0.108  0.1058  0.0094  0.0980
  653MOL0     C89982   9.656  10.285   0.127 -0.5760 -0.6188 -0.8021
  653MOL0     C89983   9.665  10.428   0.117 -0.4961 -0.0150  0.1511
  653MOL0     O89984   9.787  10.496   0.127  0.5937  0.0422 -0.1399
  653MOL0     C89985   9.897  10.433   0.183  0.1100  0.2254  0.1985
  653MOL0     C89986  10.022  10.530   0.214  0.3191  0.0536 -0.9183
  653MOL0     C89987   9.975  10.658   0.277 -0.5857 -0.5189  0.4789
  653MOL0     C89988  10.097  10.739   0.312 -0.2175 -0.1091  0.3932
  653MOL0     C89989  10.044  10.870   0.364  0.9101  0.1428 -0.3979
  653MOL0     C89990  10.167  10.942   0.426 -0.9430  0.7218  0.1880
  653MOL0     C89991  10.130  11.063   0.500  0.0950 -0.0179 -0.2624
  653MOL0     C89992  10.249  11.152   0.557 -0.3036 -1.2932 -0.0294
  653MOL0     N89993  10.276  11.110   0.700 -1.3332 -0.5874 -0.4222
  653MOL0     C89994  10.344  10.994   0.731 -0.0156  0.9042 -0.8822
  653MOL0     C89995  10.363  10.993   0.864 -0.0450  1.0338 -0.0170
  653MOL0     C89996  10.440  10.889   0.936  0.2064  0.5121 -1.1688
  653MOL0     C89997  10.586  10.867   0.925 -0.6978  0.8883 -0.5835
  653MOL0     C89998  10.653  10.993   0.947 -0.4478 -0.0479 -0.0834
  653MOL0     C89999  10.651  11.042   1.098 -0.1610 -0.0078  0.3021
  653MOL0     O90000  10.690  10.940   1.188 -0.5102  0.2305 -0.1974
  653MOL0     C90001  10.720  10.982   1.309 -0.1706 -1.1613 -0.0967
  653MOL0     C90002  10.732  10.884   1.404  0.4615 -0.7774 -0.4658
  653MOL0     C90003  10.763  10.907   1.534 -0.2700  0.3516  0.4780
  653MOL0     C90004  10.763  10.781   1.627  0.1692  0.1075  0.1733
  653MOL0     C90005  10.796  11.042   1.582 -0.2757  0.1554 -0.2985
  653MOL0     C90006  10.848  11.068   1.720 -0.2688 -0.1669 -0.6850
  653MOL0     O90007  10.839  11.198   1.753  0.3281 -0.2321 -0.2480
  653MOL0     C90008  10.874  11.232   1.881 -0.1885  0.3992  0.4410
  653MOL0     C90009  10.976  11.319   1.917 -0.5919  0.1915  0.0134
  653MOL0     C90010  11.005  11.348   2.049 -0.2392 -0.5424  0.1092
  653MOL0     C90011  10.934  11.291   2.148  0.2584 -0.4741  0.4191
  653MOL0     O90012  10.971  11.310   2.277  0.1971  0.3787  0.2978
  653MOL0     C90013  10.996  11.194   2.355  0.5191  0.0535  0.4727
  653MOL0     C90014  10.921  11.187   2.486  0.3530 -0.8682  1.2358
  653MOL0     C90015  10.967  11.067   2.569  1.2296 -0.5706 -0.2174
  653MOL0     C90016  11.108  11.068   2.621 -0.0629 -0.3544 -0.1934
  653MOL0     C90017  11.156  11.216   2.657  0.0155  0.0961  0.8447
  653MOL0     C90018  11.290  11.218   2.729  0.3786 -0.0845 -0.0273
  653MOL0     C90019  11.325  11.362   2.766  0.1127  0.0337  0.4630
  653MOL0     C90020  11.217  11.436   2.853 -0.1439  0.5756 -0.4050
  653MOL0    Cl90021  11.199  11.355   3.019 -0.1647 -0.5918  0.6888
  653MOL0     C90022  10.831  11.204   2.113  1.6154 -0.7554  0.5034
  653MOL0     C90023  10.806  11.170   1.976  0.3040  0.5443 -0.8434
  653MOL0     O90024  10.895  10.981   1.793  0.1000 -0.1316 -0.6025
  653MOL0     C90025  10.776  11.150   1.485 -0.1794  0.4082  1.0169
  653MOL0     C90026  10.730  11.124   1.353 -0.3254 -0.2936  0.6763
  653MOL0     N90027  10.306  11.106   0.914  0.7316  0.1074 -0.3727
  653MOL0     N90028  10.254  11.176   0.824 -0.3789  0.1647  0.3273
  653MOL0     C90029   9.550  10.508   0.102 -0.0712  0.0738 -0.1616
  653MOL0     C90030   9.425  10.444   0.089 -0.5812  0.0260 -0.2605
  653MOL0     C90031   9.092  10.133   0.133 -0.3137  0.5277 -0.1013
  653MOL0     C90032   9.040  10.184   0.011 -0.1127  0.4986  0.6041
  653MOL0     C90033   8.913  10.158  -0.029  0.3001 -0.1524  0.4951
  653MOL0     C90034   8.820  10.097   0.049 -0.9635  0.4508  0.2413
  653MOL0     O90035   8.691  10.091  -0.002 -0.1206 -0.2534  0.2157
  653MOL0     C90036   8.585  10.052   0.091 -0.3828  0.8772  0.2170
  653MOL0     C90037   8.443  10.109   0.048 -0.3401  0.1081  0.3282
  653MOL0     C90038   8.385  10.014  -0.064 -0.5733 -0.4406 -0.1623
  653MOL0     C90039   8.242  10.066  -0.107 -0.1187 -0.0353 -0.7840
  653MOL0     C90040   8.260  10.173  -0.194 -0.1299  0.5098 -0.5839
  653MOL0     C90041   8.274  10.266  -0.265 -0.0306 -0.6883  0.0920
  653MOL0     C90042   8.871  10.038   0.172  0.1003  0.5896  0.2136
  653MOL0     C90043   9.007  10.036   0.206 -0.3848 -0.9194 -0.4989
  653MOL0     C90044   9.057   9.951   0.330  0.9042  0.1386  0.0804
  653MOL0     H90045   9.518  10.120   0.107  1.4372 -0.2452  2.3113
  653MOL0     H90046   9.748  10.228   0.137  0.3569  0.9855  0.2011
  653MOL0     H90047   9.928  10.347   0.123 -1.7091 -2.2403  2.5191
  653MOL0     H90048   9.861  10.395   0.279 -1.1025 -0.8325 -0.6420
  653MOL0     H90049  10.088  10.485   0.288 -1.3987 -0.2225  0.5346
  653MOL0     H90050  10.063  10.540   0.113 -3.1739 -1.1251 -2.6149
  653MOL0     H90051   9.910  10.715   0.211 -0.0889  0.8577  1.1336
  653MOL0     H90052   9.914  10.639   0.366 -1.2518 -0.6589  0.0001
  653MOL0     H90053  10.144  10.681   0.392  0.8723 -1.3682 -1.0994
  653MOL0     H90054  10.172  10.757   0.235  0.1097  1.2479  0.9917
  653MOL0     H90055   9.963  10.858   0.437  1.5128 -0.2477  0.2215
  653MOL0     H90056  10.011  10.927   0.277  0.5205 -0.7643 -0.8601
  653MOL0     H90057  10.220  10.870   0.490 -1.2532 -1.8996 -2.2844
  653MOL0     H90058  10.232  10.965   0.341 -1.3518 -0.2697 -0.4225
  653MOL0     H90059  10.070  11.023   0.582  1.8376 -3.8851 -0.6868
  653MOL0     H90060  10.061  11.123   0.440 -1.8930 -0.4463  1.4743
  653MOL0     H90061  10.338  11.134   0.496  0.8541  2.6432  0.2459
  653MOL0     H90062  10.225  11.258   0.546  0.6777 -0.8963  1.3046
  653MOL0     H90063  10.387  10.917   0.668  2.0753  2.3340 -1.3018
  653MOL0     H90064  10.394  10.792   0.915 -0.1307  0.6209 -0.9418
  653MOL0     H90065  10.410  10.914   1.038  0.8944 -0.4668 -0.7109
  653MOL0     H90066  10.627  10.789   0.989  2.8293  1.9565 -1.3352
  653MOL0     H90067  10.605  10.844   0.819 -0.7821 -3.2425  0.1396
  653MOL0     H90068  10.757  10.986   0.915  0.0548  0.1911  1.4234
  653MOL0     H90069  10.616  11.073   0.882  0.2771  0.9260  0.6602
  653MOL0     H90070  10.729  11.119   1.096 -0.4907  0.3184 -0.6015
  653MOL0     H90071  10.555  11.090   1.121 -1.8902 -1.9761 -2.2321
  653MOL0     H90072  10.705  10.786   1.368 -0.7574 -0.4054 -0.5993
  653MOL0     H90073  10.676  10.798   1.691  1.1982  1.3244  1.3055
  653MOL0     H90074  10.860  10.780   1.677  1.7316  1.0479 -2.6679
  653MOL0     H90075  10.751  10.693   1.563  3.0174  0.0569 -0.3992
  653MOL0     H90076  11.041  11.358   1.839  1.8328  0.9401  2.2789
  653MOL0     H90077  11.093  11.409   2.068 -0.7882  0.3153 -0.0815
  653MOL0     H90078  10.973  11.102   2.300 -3.2348  0.8072  0.5287
  653MOL0     H90079  11.105  11.189   2.364  0.3727 -1.0426  1.8192
  653MOL0     H90080  10.923  11.279   2.544  1.4158 -2.0090  3.1471
  653MOL0     H90081  10.817  11.182   2.451  1.3060 -1.5304 -1.8000
  653MOL0     H90082  10.953  10.979   2.505 -3.2703 -0.5233  0.3559
  653MOL0     H90083  10.893  11.062   2.649  1.8999  0.9583  0.5340
  653MOL0     H90084  11.175  11.029   2.544  0.8149  0.2265  0.2583
  653MOL0     H90085  11.119  11.003   2.708  1.4397 -1.6618 -1.3016
  653MOL0     H90086  11.175  11.260   2.559 -0.2253 -3.1108 -0.7678
  653MOL0     H90087  11.078  11.262   2.718 -0.9693 -2.0432  1.3049
  653MOL0     H90088  11.378  11.195   2.668  2.0207  2.8864  1.0325
  653MOL0     H90089  11.281  11.166   2.824 -2.6404  0.5015  0.1306
  653MOL0     H90090  11.333  11.413   2.670 -0.5572 -2.5246 -1.0398
  653MOL0     H90091  11.419  11.359   2.822  1.1030 -1.4210 -1.1972
  653MOL0     H90092  11.116  11.441   2.813 -0.9139  0.2065  1.3972
  653MOL0     H90093  11.251  11.539   2.872  0.3642  0.1007  1.4707
  653MOL0     H90094  10.773  11.145   2.184  0.3942 -0.2007 -0.0076
  653MOL0     H90095  10.731  11.094   1.957  0.4007 -0.0379  0.8609
  653MOL0     H90096  10.799  11.252   1.516 -0.7378  0.2408  2.0510
  653MOL0     H90097  10.728  11.207   1.284  0.0878 -0.3541  0.5930
  653MOL0     H90098   9.546  10.616   0.094 -0.1990 -0.0475 -2.4517
  653MOL0     H90099   9.338  10.508   0.077 -1.3335 -1.4887 -3.9687
  653MOL0     H90100   9.095  10.247  -0.059  0.0904  1.1972  1.3792
  653MOL0     H90101   8.865  10.201  -0.117 -0.2134  0.2003  0.9465
  653MOL0     H90102   8.580   9.942   0.093 -2.9047  0.9308  0.5632
  653MOL0     H90103   8.603  10.096   0.190 -2.9240  0.4303  0.9565
  653MOL0     H90104   8.452  10.215   0.022 -1.6444 -0.0570 -0.9737
  653MOL0     H90105   8.372  10.100   0.131 -1.0543  0.4712 -0.2329
  653MOL0     H90106   8.458  10.003  -0.146  1.5561 -0.4460  1.6382
  653MOL0     H90107   8.374   9.917  -0.015 -0.9317 -1.5372 -2.2940
  653MOL0     H90108   8.192  10.097  -0.015  0.6416 -0.0975 -0.3425
  653MOL0     H90109   8.178   9.991  -0.157 -0.4637  0.0616 -0.4903
  653MOL0     H90110   8.291  10.347  -0.333  0.7085 -0.3738  0.6270
  653MOL0     H90111   8.802   9.981   0.234  0.5843 -0.6857 -0.3884
  653MOL0     H90112   9.091  10.012   0.414 -1.2312  0.4518  0.7724
  653MOL0     H90113   8.981   9.879   0.361  1.8268 -1.2342 -0.6878
  653MOL0     H90114   9.135   9.881   0.298 -0.9405 -1.7679 -0.5068
  654MOL0     O90115   6.236   7.131   0.794  0.1183  0.0250  0.7718
  654MOL0     C90116   6.190   7.233   0.843 -0.8356  0.4977 -0.2005
  654MOL0     O90117   6.261   7.347   0.875 -0.4548 -0.1312 -0.4751
  654MOL0     C90118   6.400   7.342   0.887  0.7998 -0.0707  0.3371
  654MOL0     C90119   6.456   7.349   1.014 -0.3407  0.2147  0.9990
  654MOL0     C90120   6.592   7.349   1.046  0.0049 -0.1875 -0.0104
  654MOL0     C90121   6.684   7.365   0.937  0.2834 -0.7625  0.2434
  654MOL0     O90122   6.809   7.373   0.982 -0.0537  0.5091 -0.9943
  654MOL0     C90123   6.922   7.388   0.889 -1.5882  0.6259  0.6940
  654MOL0     C90124   7.014   7.493   0.954  0.3114  0.8829 -0.3070
  654MOL0     C90125   7.161   7.487   0.890  0.5642  0.1115  0.4076
  654MOL0     C90126   7.266   7.541   0.986 -0.1359 -0.2539 -0.0380
  654MOL0     C90127   7.399   7.569   0.922 -0.6366 -0.6599 -0.2730
  654MOL0     C90128   7.494   7.634   1.019  0.2255  0.2358  0.3048
  654MOL0     C90129   7.619   7.684   0.957  0.9378  0.3656 -0.1166
  654MOL0     C90130   7.718   7.732   1.064 -0.7557  0.1942 -0.4544
  654MOL0     N90131   7.857   7.699   1.030  0.0866 -0.1166 -0.4062
  654MOL0     C90132   7.897   7.577   0.987  0.3345 -0.2355  0.5224
  654MOL0     C90133   8.022   7.556   1.028  0.1300 -0.7226 -0.0162
  654MOL0     C90134   8.098   7.429   0.998 -0.6791  0.1109 -0.7003
  654MOL0     C90135   8.152   7.428   0.857 -0.6261 -0.0274  0.4253
  654MOL0     C90136   8.226   7.300   0.828  0.7756  0.2519  0.2041
  654MOL0     C90137   8.376   7.306   0.863  0.1593  0.1338  0.0564
  654MOL0     O90138   8.396   7.279   1.002  0.7677  0.8812 -0.1274
  654MOL0     C90139   8.521   7.291   1.059  0.6892 -0.1864  0.0796
  654MOL0     C90140   8.525   7.263   1.194  0.3507  0.2759 -0.9153
  654MOL0     C90141   8.643   7.274   1.268 -0.1557  0.2847 -0.3170
  654MOL0     C90142   8.651   7.236   1.405 -0.2867  0.2947 -0.2756
  654MOL0     C90143   8.754   7.328   1.202 -1.1215  0.7775 -0.9148
  654MOL0     C90144   8.887   7.353   1.275  0.8583  0.8264 -0.0161
  654MOL0     O90145   8.994   7.322   1.194 -0.4133  0.1855 -0.1283
  654MOL0     C90146   9.123   7.318   1.253  0.4322 -0.2306  0.1014
  654MOL0     C90147   9.227   7.334   1.160  0.1761  0.6759 -0.7169
  654MOL0     C90148   9.357   7.339   1.206 -0.0021 -0.0827  0.0644
  654MOL0     C90149   9.395   7.315   1.340 -1.2933 -0.0265 -0.3066
  654MOL0     O90150   9.531   7.309   1.354 -0.5865 -0.0578  0.4130
  654MOL0     C90151   9.585   7.308   1.481 -0.7098 -0.1683 -0.3271
  654MOL0     C90152   9.740   7.316   1.488  0.1352 -0.4944  0.4714
  654MOL0     C90153   9.793   7.193   1.408 -0.0311  0.6946  0.3527
  654MOL0     C90154   9.937   7.208   1.396 -0.8694  0.1416 -0.2667
  654MOL0     C90155   9.997   7.079   1.339 -0.3215  0.2551 -0.2641
  654MOL0     C90156  10.141   7.076   1.381  0.3043  0.4934 -0.2655
  654MOL0     C90157  10.205   6.959   1.316  0.2212 -0.0875 -0.0591
  654MOL0     C90158  10.344   6.923   1.370 -0.2446  0.6550 -0.2257
  654MOL0    Cl90159  10.453   7.052   1.312  0.2782 -0.0540 -0.0313
  654MOL0     C90160   9.290   7.297   1.434  0.1382  0.5185  0.0936
  654MOL0     C90161   9.152   7.305   1.393  0.1746 -0.7607 -0.0399
  654MOL0     O90162   8.888   7.421   1.369 -0.5191 -0.5666 -0.7029
  654MOL0     C90163   8.747   7.364   1.069 -0.5991  0.9696 -0.2992
  654MOL0     C90164   8.631   7.346   0.990  0.0494  0.0031 -0.2980
  654MOL0     N90165   8.056   7.665   1.104  0.0215 -0.1963  0.7856
  654MOL0     N90166   7.965   7.748   1.099  0.0864  0.3521  0.2223
  654MOL0     C90167   6.630   7.358   0.802 -0.1038 -0.2370 -0.3820
  654MOL0     C90168   6.492   7.354   0.780 -0.6201  0.1258  0.0646
  654MOL0     C90169   6.047   7.226   0.885 -0.9580 -0.2599  0.6223
  654MOL0     C90170   5.987   7.346   0.939  0.0061  0.2832  0.2764
  654MOL0     C90171   5.851   7.342   0.977  0.3730  0.1993 -0.3420
  654MOL0     C90172   5.771   7.229   0.966  0.4954  0.6368  0.5876
  654MOL0     O90173   5.641   7.239   1.001 -0.7769 -0.2549 -0.3375
  654MOL0     C90174   5.527   7.199   0.923 -0.0596  0.4448  0.5772
  654MOL0     C90175   5.511   7.300   0.810 -0.5629  0.1891 -0.2554
  654MOL0     C90176   5.484   7.449   0.858  0.0986  0.4705 -1.1155
  654MOL0     C90177   5.470   7.551   0.756 -0.8870 -0.0968  0.1192
  654MOL0     C90178   5.364   7.522   0.666 -0.2543 -0.8382 -0.0109
  654MOL0     C90179   5.271   7.488   0.595  0.3865 -0.2692  0.7061
  654MOL0     C90180   5.829   7.122   0.891 -0.1665 -0.0329  0.1177
  654MOL0     C90181   5.966   7.111   0.862 -0.9700 -0.1283  0.7514
  654MOL0     C90182   6.003   6.986   0.799  0.1641 -0.2838  0.0374
  654MOL0     H90183   6.382   7.334   1.092  1.3685 -2.2471  2.2790
  654MOL0     H90184   6.627   7.334   1.148 -0.4770 -0.5181  0.1095
  654MOL0     H90185   6.885   7.417   0.789 -5.0011  2.2567  2.2520
  654MOL0     H90186   6.981   7.297   0.877  0.4495  1.5841  2.8104
  654MOL0     H90187   6.968   7.586   0.920 -1.6271  0.1041  0.0650
  654MOL0     H90188   7.014   7.482   1.063 -3.4315  2.5613  0.0129
  654MOL0     H90189   7.198   7.386   0.868 -0.6803  0.0140 -1.4834
  654MOL0     H90190   7.168   7.549   0.799  0.9700 -2.3582 -1.3492
  654MOL0     H90191   7.224   7.639   1.011  0.5316  2.0519 -6.1994
  654MOL0     H90192   7.288   7.470   1.067 -2.4702  1.0208  1.8528
  654MOL0     H90193   7.381   7.637   0.839  1.3492  3.2717  2.2169
  654MOL0     H90194   7.441   7.473   0.892  2.9559  0.6023  0.2260
  654MOL0     H90195   7.439   7.712   1.072 -2.0558  0.8908 -2.7665
  654MOL0     H90196   7.526   7.557   1.090  1.5866 -0.1353 -0.6608
  654MOL0     H90197   7.591   7.769   0.894 -0.1000  0.2743  0.1925
  654MOL0     H90198   7.661   7.612   0.886 -0.3192 -1.4348  0.8563
  654MOL0     H90199   7.704   7.840   1.070  3.8447  1.0014 -0.6807
  654MOL0     H90200   7.690   7.679   1.156  0.0527  0.6820  0.0882
  654MOL0     H90201   7.842   7.502   0.931  0.4237  1.3942 -1.9011
  654MOL0     H90202   8.027   7.346   1.001 -0.0348 -0.4252 -0.2117
  654MOL0     H90203   8.182   7.415   1.066  0.3561 -0.5299 -2.0605
  654MOL0     H90204   8.068   7.421   0.787  0.5213  3.3725 -1.5019
  654MOL0     H90205   8.215   7.513   0.828 -0.0068 -1.4080 -2.7396
  654MOL0     H90206   8.183   7.209   0.871 -0.6969  1.6682  1.8834
  654MOL0     H90207   8.206   7.281   0.722 -3.3760 -0.6903  0.9743
  654MOL0     H90208   8.423   7.223   0.810 -2.7413 -0.7804 -1.2822
  654MOL0     H90209   8.415   7.404   0.833 -0.4597  0.5861  0.6641
  654MOL0     H90210   8.433   7.233   1.243  0.3536  1.6858  0.0187
  654MOL0     H90211   8.696   7.139   1.424 -1.4521 -0.0978  0.6142
  654MOL0     H90212   8.547   7.234   1.441 -0.6956  1.3653 -1.3233
  654MOL0     H90213   8.712   7.302   1.467  3.4527 -1.0564 -2.2001
  654MOL0     H90214   9.201   7.331   1.055  0.9198 -1.6807 -0.8875
  654MOL0     H90215   9.429   7.342   1.125 -1.6076  0.3741 -1.3955
  654MOL0     H90216   9.539   7.393   1.533 -3.5002 -0.7578 -1.6398
  654MOL0     H90217   9.556   7.219   1.537  1.8471 -0.2308  1.0328
  654MOL0     H90218   9.752   7.416   1.445 -0.8904  0.8907  3.1362
  654MOL0     H90219   9.780   7.316   1.589  0.1253  1.5805  0.5188
  654MOL0     H90220   9.748   7.193   1.308 -0.6070  1.8369  0.5878
  654MOL0     H90221   9.757   7.108   1.466 -0.3780  1.7077  1.6840
  654MOL0     H90222   9.966   7.227   1.500 -3.2088 -0.6298  0.5910
  654MOL0     H90223   9.949   7.303   1.342 -0.2600  2.2982  3.3263
  654MOL0     H90224   9.935   6.996   1.375 -0.5912 -0.0887 -1.4544
  654MOL0     H90225  10.000   7.076   1.229  0.3871 -0.8144 -0.2278
  654MOL0     H90226  10.142   7.056   1.488 -1.2916  1.0874 -0.1145
  654MOL0     H90227  10.182   7.174   1.353 -1.2298  0.8965 -1.2528
  654MOL0     H90228  10.218   6.979   1.209 -0.9228  1.6659  0.0961
  654MOL0     H90229  10.131   6.878   1.315 -0.2596  0.3185  1.0196
  654MOL0     H90230  10.383   6.833   1.323  2.6565  0.2933  2.5635
  654MOL0     H90231  10.353   6.909   1.478 -1.7627  0.6182 -0.0757
  654MOL0     H90232   9.303   7.278   1.540 -3.5338  1.7289  0.9159
  654MOL0     H90233   9.080   7.292   1.472 -0.4791 -0.4126 -0.5669
  654MOL0     H90234   8.836   7.404   1.023  1.2892 -0.9870  1.4676
  654MOL0     H90235   8.624   7.378   0.887  0.6211  0.1653 -0.2922
  654MOL0     H90236   6.695   7.349   0.716 -1.0269 -0.2082 -1.1048
  654MOL0     H90237   6.466   7.341   0.675 -0.9460 -0.0683  0.1679
  654MOL0     H90238   6.052   7.430   0.962  1.1398 -0.0272 -1.6272
  654MOL0     H90239   5.804   7.433   1.014  0.2624 -0.8693  2.4206
  654MOL0     H90240   5.550   7.103   0.877  0.2806 -0.5186  2.6540
  654MOL0     H90241   5.434   7.181   0.978 -1.6548  1.0201 -1.7606
  654MOL0     H90242   5.430   7.268   0.743 -0.0183  1.5422 -1.6174
  654MOL0     H90243   5.601   7.315   0.750 -0.8789  3.0323 -0.1484
  654MOL0     H90244   5.398   7.442   0.925  2.3021 -4.0195  1.8154
  654MOL0     H90245   5.564   7.480   0.926 -1.0097 -0.8102  0.8998
  654MOL0     H90246   5.553   7.551   0.686 -1.7074 -2.5947 -0.9553
  654MOL0     H90247   5.454   7.646   0.809 -0.8501 -0.0046 -0.0345
  654MOL0     H90248   5.190   7.451   0.534 -0.7476  1.3832  1.1474
  654MOL0     H90249   5.774   7.029   0.884  1.3825 -0.9900  0.0216
  654MOL0     H90250   6.026   6.994   0.693 -0.5680  2.1741  0.0109
  654MOL0     H90251   6.094   6.947   0.846 -1.2817 -3.9227  0.1574
  654MOL0     H90252   5.922   6.913   0.804 -0.9786  0.9442 -0.1060
  655MOL0     O90253   0.789   2.917  10.587  0.1841 -0.1254 -0.5186
  655MOL0     C90254   0.755   2.852  10.686  0.4928  1.0432 -0.0976
  655MOL0     O90255   0.843   2.806  10.783  0.2126  0.1133  0.1959
  655MOL0     C90256   0.969   2.856  10.786  0.3657  0.2615  0.4680
  655MOL0     C90257   0.978   2.970  10.862 -0.4385 -0.2406 -0.0037
  655MOL0     C90258   1.104   3.019  10.879  0.3828 -0.6245  0.1951
  655MOL0     C90259   1.219   2.968  10.817 -0.1282  0.4204  0.6430
  655MOL0     O90260   1.338   3.033  10.835 -0.3179  0.3924 -0.3768
  655MOL0     C90261   1.458   2.948  10.802 -0.6495 -0.5280 -0.2574
  655MOL0     C90262   1.585   3.022  10.843  0.6957 -0.8387  0.2579
  655MOL0     C90263   1.599   3.150  10.759 -0.6973  0.1769 -0.2871
  655MOL0     C90264   1.663   3.112  10.627  1.0634 -0.0009 -0.2166
  655MOL0     C90265   1.661   3.227  10.534 -0.4399  0.4036  0.2525
  655MOL0     C90266   1.756   3.185  10.415 -0.4621 -0.1287  0.2864
  655MOL0     C90267   1.762   3.299  10.317  0.3649  0.1538 -0.4319
  655MOL0     C90268   1.821   3.245  10.188  0.5025  0.2182 -0.1762
  655MOL0     N90269   1.724   3.151  10.126  0.4385 -0.9292 -0.0427
  655MOL0     C90270   1.591   3.183  10.104  0.0528 -0.2603 -0.0893
  655MOL0     C90271   1.524   3.075  10.045 -0.1264 -0.0781  0.0372
  655MOL0     C90272   1.379   3.046  10.025 -1.2747  0.6775 -0.3678
  655MOL0     C90273   1.293   3.167  10.007 -0.8613  0.0220 -0.6303
  655MOL0     C90274   1.313   3.216   9.864  0.7304 -0.2055 -0.3946
  655MOL0     C90275   1.251   3.355   9.844  0.0750 -0.6929  0.0039
  655MOL0     O90276   1.305   3.459   9.933 -0.9721 -0.3301 -0.0904
  655MOL0     C90277   1.442   3.490   9.929  0.8761  0.1659  0.1695
  655MOL0     C90278   1.497   3.541  10.042  0.2301 -0.2976 -0.3821
  655MOL0     C90279   1.629   3.575  10.050 -0.5258 -0.7019  0.7806
  655MOL0     C90280   1.685   3.616  10.189 -0.2133 -0.0514  0.4653
  655MOL0     C90281   1.718   3.569   9.942  0.1962 -0.0412 -0.3340
  655MOL0     C90282   1.859   3.612   9.935  0.1456 -0.1811 -0.2470
  655MOL0     O90283   1.931   3.555   9.838 -0.7576 -0.1830  0.0906
  655MOL0     C90284   2.059   3.578   9.835 -1.2098 -0.0478 -0.1259
  655MOL0     C90285   2.148   3.552   9.945  0.2338 -0.0219 -0.3091
  655MOL0     C90286   2.287   3.587   9.944  0.6562  0.7746  0.1617
  655MOL0     C90287   2.350   3.606   9.820  0.0801  0.7138  0.2052
  655MOL0     O90288   2.488   3.627   9.806 -0.6116  0.3293 -0.0960
  655MOL0     C90289   2.537   3.693   9.692  0.2550 -0.2702 -0.3671
  655MOL0     C90290   2.685   3.715   9.717  0.3856 -1.2753  0.8160
  655MOL0     C90291   2.753   3.577   9.719  0.7994 -0.3305 -0.8013
  655MOL0     C90292   2.906   3.598   9.728  0.9498  0.3027 -1.0848
  655MOL0     C90293   2.988   3.464   9.739 -0.4833 -0.8242 -0.5019
  655MOL0     C90294   3.142   3.493   9.739  0.4259  0.0283  0.0393
  655MOL0     C90295   3.174   3.560   9.864 -0.0530  0.3174 -1.1313
  655MOL0     C90296   3.327   3.603   9.876  0.9308 -0.1375  0.6707
  655MOL0    Cl90297   3.444   3.471   9.899  0.4365 -0.3344 -0.4750
  655MOL0     C90298   2.263   3.611   9.702 -1.1405  0.6621 -0.5368
  655MOL0     C90299   2.125   3.598   9.718  0.1603  0.2743  0.4157
  655MOL0     O90300   1.888   3.713   9.995  1.1983 -0.7531 -0.7506
  655MOL0     C90301   1.664   3.504   9.825  0.3640  0.5253  0.3070
  655MOL0     C90302   1.528   3.467   9.822  0.0383  0.5234  0.2254
  655MOL0     N90303   1.630   2.983  10.031  0.4457  0.2850  0.8136
  655MOL0     N90304   1.744   3.025  10.083  0.3549 -0.0257 -0.1328
  655MOL0     C90305   1.206   2.853  10.742  0.0745  0.1858 -0.1082
  655MOL0     C90306   1.081   2.797  10.721 -0.2266 -0.3898  0.0983
  655MOL0     C90307   0.616   2.816  10.702 -1.4955 -0.2196 -0.1712
  655MOL0     C90308   0.560   2.872  10.816  0.6455  0.0744  0.8346
  655MOL0     C90309   0.424   2.855  10.839 -0.0179 -0.7919 -0.0653
  655MOL0     C90310   0.346   2.785  10.745  0.5452  0.5780 -0.4466
  655MOL0     O90311   0.211   2.762  10.775 -0.3211 -0.2364 -0.0027
  655MOL0     C90312   0.131   2.674  10.694 -0.6457  0.2439  0.5164
  655MOL0     C90313   0.066   2.749  10.575 -0.3312  0.0584  0.7330
  655MOL0     C90314  -0.064   2.828  10.623  0.2611  0.7885 -0.2241
  655MOL0     C90315  -0.157   2.849  10.501  0.2176 -0.5533  0.2929
  655MOL0     C90316  -0.239   2.734  10.458  0.0693  0.9848  0.6165
  655MOL0     C90317  -0.311   2.640  10.420  0.0624  0.8828  0.4628
  655MOL0     C90318   0.403   2.737  10.620 -0.1376 -0.1176 -0.3453
  655MOL0     C90319   0.541   2.754  10.602  0.0276  0.8575 -0.4370
  655MOL0     C90320   0.607   2.681  10.490 -0.3486  0.1362  0.3397
  655MOL0     H90321   0.897   3.011  10.921 -0.6312 -2.7791  1.6383
  655MOL0     H90322   1.121   3.102  10.947 -2.1696 -0.2809  0.5199
  655MOL0     H90323   1.458   2.928  10.694 -0.8000 -1.2674 -0.1280
  655MOL0     H90324   1.456   2.855  10.859 -0.3755 -0.7782 -0.6455
  655MOL0     H90325   1.567   3.051  10.947  0.1289  1.9678 -0.5216
  655MOL0     H90326   1.667   2.950  10.833 -0.4499 -2.0122 -1.2636
  655MOL0     H90327   1.505   3.205  10.744 -0.4822  0.3053 -1.2214
  655MOL0     H90328   1.670   3.217  10.807  0.1223  0.5470 -1.9274
  655MOL0     H90329   1.764   3.077  10.651  0.8086  1.9837  5.5051
  655MOL0     H90330   1.606   3.031  10.582  2.7934 -2.7978  2.2212
  655MOL0     H90331   1.702   3.315  10.585  0.8272 -1.3604  2.4931
  655MOL0     H90332   1.562   3.250  10.495 -0.2898 -0.3519 -0.6141
  655MOL0     H90333   1.855   3.160  10.454 -0.8213 -1.0449  0.6349
  655MOL0     H90334   1.713   3.098  10.366 -1.2001  0.9340 -1.0235
  655MOL0     H90335   1.824   3.381  10.353 -0.2510 -0.2908  1.7577
  655MOL0     H90336   1.659   3.334  10.302  0.3196 -0.4140 -1.5594
  655MOL0     H90337   1.832   3.322  10.112  0.1966 -0.3062 -0.7640
  655MOL0     H90338   1.919   3.198  10.190  0.0087 -0.8403  0.3398
  655MOL0     H90339   1.537   3.275  10.125  0.0832 -0.2678  0.0239
  655MOL0     H90340   1.350   2.989  10.114  1.5959  0.0560  0.2654
  655MOL0     H90341   1.350   2.980   9.943 -1.9776  1.5619 -0.8403
  655MOL0     H90342   1.188   3.143  10.025 -1.4862  1.8594 -1.6063
  655MOL0     H90343   1.322   3.247  10.075 -0.1593 -1.8768  1.4274
  655MOL0     H90344   1.419   3.210   9.836  1.0505 -1.5697  0.9481
  655MOL0     H90345   1.262   3.153   9.791 -0.9835  0.9871 -0.2704
  655MOL0     H90346   1.274   3.380   9.740  3.7272 -0.0456  0.8038
  655MOL0     H90347   1.143   3.352   9.859 -0.2180  1.2482 -1.3122
  655MOL0     H90348   1.432   3.561  10.126 -0.1341  0.2292 -0.7821
  655MOL0     H90349   1.735   3.712  10.178 -1.2253  0.2402 -2.3384
  655MOL0     H90350   1.765   3.545  10.212 -1.4093 -1.1338  1.5533
  655MOL0     H90351   1.612   3.602  10.270 -0.7451 -0.2079 -0.0303
  655MOL0     H90352   2.114   3.520  10.043 -1.7443 -4.0068 -2.0449
  655MOL0     H90353   2.328   3.581  10.044 -0.1589  1.1202  0.5252
  655MOL0     H90354   2.514   3.627   9.608 -3.4938  1.0382 -0.5694
  655MOL0     H90355   2.488   3.791   9.684 -0.0466 -0.3943 -0.0674
  655MOL0     H90356   2.719   3.768   9.628 -0.8468 -0.6879  0.6796
  655MOL0     H90357   2.704   3.765   9.813 -0.0014 -1.4934  1.0108
  655MOL0     H90358   2.731   3.525   9.625  0.2784  2.0669 -2.1106
  655MOL0     H90359   2.731   3.511   9.803  0.5147 -1.3121 -1.6187
  655MOL0     H90360   2.924   3.657   9.818 -1.6564  0.0425 -0.3198
  655MOL0     H90361   2.941   3.668   9.652  1.3765  3.7193  1.9666
  655MOL0     H90362   2.958   3.410   9.829 -1.0406 -2.1442 -1.4396
  655MOL0     H90363   2.957   3.396   9.659  0.9975 -0.0485 -1.7850
  655MOL0     H90364   3.167   3.562   9.657 -0.7822 -0.6445 -0.9258
  655MOL0     H90365   3.198   3.399   9.738 -2.2383 -1.6916 -1.5897
  655MOL0     H90366   3.145   3.496   9.949 -1.8503  1.8981 -0.4643
  655MOL0     H90367   3.124   3.657   9.870 -0.8401 -0.1321  0.3739
  655MOL0     H90368   3.337   3.681   9.952 -3.1540  1.1879  0.1231
  655MOL0     H90369   3.348   3.657   9.783 -1.8847  1.9551  1.1149
  655MOL0     H90370   2.303   3.624   9.602 -0.7105 -0.6551 -0.5624
  655MOL0     H90371   2.058   3.610   9.632  0.0396  0.4066  0.5264
  655MOL0     H90372   1.720   3.494   9.733 -0.2946  2.4504 -0.3547
  655MOL0     H90373   1.508   3.422   9.726  2.0097 -2.6801  1.1620
  655MOL0     H90374   1.290   2.796  10.703 -0.4211 -0.3944 -0.3490
  655MOL0     H90375   1.077   2.708  10.660 -1.1999  0.0663 -0.5300
  655MOL0     H90376   0.612   2.932  10.890  1.8660  1.6957 -1.2255
  655MOL0     H90377   0.379   2.887  10.932  1.0924  0.2795  0.1250
  655MOL0     H90378   0.198   2.598  10.652  0.8505  2.3305 -1.0988
  655MOL0     H90379   0.064   2.621  10.762  0.3793 -2.0821 -0.1993
  655MOL0     H90380   0.039   2.672  10.502  0.7898  0.7011 -0.3978
  655MOL0     H90381   0.129   2.808  10.508 -2.6894  2.3015  0.3000
  655MOL0     H90382  -0.111   2.771  10.703 -0.4535  0.4630 -0.8651
  655MOL0     H90383  -0.036   2.929  10.655  1.4440  0.8241 -1.2608
  655MOL0     H90384  -0.099   2.901  10.424 -0.0219 -0.4550  0.1789
  655MOL0     H90385  -0.224   2.931  10.524 -1.5883 -0.8273 -3.3135
  655MOL0     H90386  -0.378   2.561  10.392 -0.9001  2.2329 -1.2197
  655MOL0     H90387   0.360   2.681  10.537  1.4371 -1.1852 -0.5015
  655MOL0     H90388   0.639   2.744  10.406 -1.6106  2.0452  1.1949
  655MOL0     H90389   0.692   2.627  10.532 -1.2095  0.8140  3.2611
  655MOL0     H90390   0.535   2.611  10.448  0.7112 -0.2460 -0.8813
  656MOL0     O90391   1.205   0.122   1.530  0.0151 -0.0248  0.4764
  656MOL0     C90392   1.223   0.087   1.641 -0.0359  0.2438  0.8842
  656MOL0     O90393   1.347   0.048   1.694 -0.5743 -0.0314  0.1005
  656MOL0     C90394   1.469   0.060   1.632  0.4278  0.6931  0.2268
  656MOL0     C90395   1.485   0.049   1.495  0.0861  0.2915 -0.0531
  656MOL0     C90396   1.616   0.040   1.444  0.0371  0.7303 -0.1631
  656MOL0     C90397   1.729   0.051   1.526 -0.4377  0.1621 -0.5723
  656MOL0     O90398   1.860   0.054   1.471 -0.0246 -0.2268 -0.5327
  656MOL0     C90399   1.957   0.133   1.534 -0.0420 -0.0051 -0.5046
  656MOL0     C90400   2.096   0.122   1.468  0.2438 -0.2408 -0.3352
  656MOL0     C90401   2.133  -0.003   1.390  1.1317 -0.6526 -0.1000
  656MOL0     C90402   2.229   0.018   1.276  0.1538  0.0061 -0.2186
  656MOL0     C90403   2.257  -0.112   1.208  0.7946 -0.0889  0.1899
  656MOL0     C90404   2.360  -0.103   1.094 -0.1598 -0.4005 -0.5875
  656MOL0     C90405   2.377  -0.236   1.024 -0.6297  0.0871 -0.0964
  656MOL0     C90406   2.483  -0.223   0.913 -0.3571 -0.4895  0.5712
  656MOL0     N90407   2.623  -0.192   0.953  0.1523 -0.2003 -0.7852
  656MOL0     C90408   2.689  -0.250   1.062 -0.0925  0.9052  0.6102
  656MOL0     C90409   2.792  -0.161   1.081  0.0736  0.0300 -0.0303
  656MOL0     C90410   2.916  -0.181   1.177 -0.1246  0.4394 -0.0903
  656MOL0     C90411   2.982  -0.054   1.236 -0.5228  0.2739 -0.2102
  656MOL0     C90412   3.105  -0.078   1.324 -0.0754  0.3676 -0.1113
  656MOL0     C90413   3.201  -0.163   1.244  0.5113  0.2021  0.3133
  656MOL0     O90414   3.325  -0.169   1.313  0.4127  0.1272  0.0186
  656MOL0     C90415   3.436  -0.206   1.257 -0.1641  0.0691  0.4259
  656MOL0     C90416   3.452  -0.205   1.117  0.7669 -0.2161 -0.3339
  656MOL0     C90417   3.576  -0.236   1.068 -0.4116  0.7617 -0.0602
  656MOL0     C90418   3.579  -0.232   0.921  0.8519 -0.4240  0.7249
  656MOL0     C90419   3.689  -0.271   1.152  0.5964  0.6059 -0.6045
  656MOL0     C90420   3.826  -0.303   1.099 -0.4118 -0.3524  0.3565
  656MOL0     O90421   3.926  -0.307   1.186 -0.2336 -0.1952  0.1344
  656MOL0     C90422   4.055  -0.331   1.151  0.0034 -0.1673 -0.3991
  656MOL0     C90423   4.121  -0.436   1.208  0.1848  0.1140  0.1163
  656MOL0     C90424   4.255  -0.457   1.180  0.3340 -0.3686  0.3610
  656MOL0     C90425   4.316  -0.390   1.078  0.1705 -0.1560  0.4527
  656MOL0     O90426   4.447  -0.421   1.029 -0.1531  0.6133 -0.3893
  656MOL0     C90427   4.526  -0.320   0.964  0.1863  0.2336 -0.4137
  656MOL0     C90428   4.666  -0.380   0.953  0.2751 -0.0382 -0.4033
  656MOL0     C90429   4.750  -0.328   0.832  1.0162  0.3129  0.3665
  656MOL0     C90430   4.901  -0.306   0.862  0.0016  0.3153  0.4392
  656MOL0     C90431   4.990  -0.273   0.737 -0.4152  0.5616  0.1747
  656MOL0     C90432   5.136  -0.253   0.771 -0.5453  0.2517 -1.1325
  656MOL0     C90433   5.209  -0.381   0.805 -0.1998 -0.1828 -0.5309
  656MOL0     C90434   5.350  -0.359   0.846  0.0064 -0.2904  0.0278
  656MOL0    Cl90435   5.442  -0.229   0.753  0.3096  0.5799 -0.2801
  656MOL0     C90436   4.250  -0.292   1.010  0.3504  0.3787 -0.2626
  656MOL0     C90437   4.119  -0.258   1.050 -0.0796  0.1647 -0.2425
  656MOL0     O90438   3.835  -0.315   0.976 -0.3605 -0.4818 -0.0809
  656MOL0     C90439   3.678  -0.275   1.293 -0.2654 -0.0102 -0.1461
  656MOL0     C90440   3.549  -0.231   1.341  0.6437  0.0339 -0.3459
  656MOL0     N90441   2.783  -0.053   0.991  0.0493 -0.5293  0.4391
  656MOL0     N90442   2.674  -0.064   0.919 -0.7832  0.2331  0.0018
  656MOL0     C90443   1.712   0.052   1.656  0.1559 -0.8609  0.0195
  656MOL0     C90444   1.585   0.054   1.712  1.0535 -0.1954 -0.4089
  656MOL0     C90445   1.102   0.088   1.735  0.1675 -0.3683 -0.7814
  656MOL0     C90446   0.990   0.153   1.688  0.4644  0.0688 -0.5136
  656MOL0     C90447   0.866   0.161   1.753  0.0200  0.4385 -0.6017
  656MOL0     C90448   0.864   0.105   1.878 -0.8147  0.0027  0.1786
  656MOL0     O90449   0.755   0.135   1.956  0.3556 -0.3654 -0.4116
  656MOL0     C90450   0.768   0.128   2.101  0.6677 -0.4170  0.8333
  656MOL0     C90451   0.636   0.192   2.161 -0.8384  0.9257  0.3248
  656MOL0     C90452   0.651   0.293   2.266 -0.0425 -0.2618  0.1847
  656MOL0     C90453   0.510   0.342   2.324 -0.2496 -1.3605  0.7153
  656MOL0     C90454   0.453   0.242   2.413 -0.1092  0.0596 -0.2670
  656MOL0     C90455   0.414   0.158   2.496  0.8990  0.4920 -0.5713
  656MOL0     C90456   0.975   0.038   1.932  0.0371 -0.2376  0.3274
  656MOL0     C90457   1.096   0.039   1.864  0.4876  0.3005  1.0170
  656MOL0     C90458   1.211  -0.040   1.924  0.5893 -0.4069 -0.7222
  656MOL0     H90459   1.403   0.058   1.424  0.4434 -0.0555 -0.5179
  656MOL0     H90460   1.637   0.041   1.337  0.1193 -0.3801 -0.1667
  656MOL0     H90461   1.969   0.094   1.636 -0.0693 -0.1953 -0.5737
  656MOL0     H90462   1.933   0.239   1.545 -2.2523 -0.6353  1.6988
  656MOL0     H90463   2.106   0.198   1.390  0.8321  0.8268  0.7577
  656MOL0     H90464   2.173   0.152   1.540  0.4980 -1.7211  0.0509
  656MOL0     H90465   2.172  -0.078   1.459  1.1392 -0.3686  0.2063
  656MOL0     H90466   2.042  -0.036   1.338  0.0996 -0.7247  1.6863
  656MOL0     H90467   2.186   0.081   1.197 -1.8430 -0.0813  0.7433
  656MOL0     H90468   2.309   0.079   1.320  0.0589 -0.9594  1.3767
  656MOL0     H90469   2.160  -0.150   1.172  1.0561 -0.5222 -0.0683
  656MOL0     H90470   2.295  -0.184   1.281  1.1954 -2.3217 -2.0636
  656MOL0     H90471   2.339  -0.024   1.022  0.8689 -0.0821 -0.5437
  656MOL0     H90472   2.449  -0.069   1.148 -0.3107 -1.2786  0.2671
  656MOL0     H90473   2.282  -0.257   0.974 -0.1090 -1.3622 -0.5397
  656MOL0     H90474   2.393  -0.319   1.094  0.8110  1.0744  0.7996
  656MOL0     H90475   2.468  -0.318   0.862 -2.9184 -0.8134  1.7871
  656MOL0     H90476   2.454  -0.144   0.843  2.8628  1.1442  0.8884
  656MOL0     H90477   2.673  -0.346   1.110  0.7309  0.7157  0.5193
  656MOL0     H90478   2.990  -0.231   1.114  2.7278  1.7401  1.9851
  656MOL0     H90479   2.883  -0.240   1.263  1.7419  1.1356  1.1623
  656MOL0     H90480   3.004   0.022   1.159 -2.4902  1.0380 -0.0848
  656MOL0     H90481   2.908  -0.012   1.306 -2.3508 -3.8422  0.6063
  656MOL0     H90482   3.157   0.015   1.352 -0.5115  0.3157  0.9405
  656MOL0     H90483   3.080  -0.135   1.414 -1.4290 -0.3368 -0.9054
  656MOL0     H90484   3.164  -0.265   1.230 -1.5539  0.3734  3.4754
  656MOL0     H90485   3.217  -0.111   1.150 -1.8246  0.6495  0.1010
  656MOL0     H90486   3.376  -0.166   1.051  1.1285  0.5723 -0.2875
  656MOL0     H90487   3.491  -0.187   0.875  1.4328 -1.5623 -1.6474
  656MOL0     H90488   3.595  -0.330   0.876 -0.9743 -0.0176 -0.9466
  656MOL0     H90489   3.654  -0.159   0.888  0.6048  0.3769  1.8650
  656MOL0     H90490   4.065  -0.486   1.286 -0.6530 -1.4084 -1.3771
  656MOL0     H90491   4.307  -0.533   1.237  1.6428 -1.8575 -2.6246
  656MOL0     H90492   4.490  -0.310   0.861  0.2946 -0.0343 -0.4810
  656MOL0     H90493   4.523  -0.223   1.014  2.7164 -0.2541  0.8317
  656MOL0     H90494   4.731  -0.354   1.036 -1.9863  2.9703  0.6307
  656MOL0     H90495   4.653  -0.488   0.945 -1.0784  0.1558 -1.2511
  656MOL0     H90496   4.708  -0.235   0.794 -0.4901 -0.3558  0.3070
  656MOL0     H90497   4.741  -0.403   0.753  0.1007 -0.4540  1.1704
  656MOL0     H90498   4.928  -0.407   0.896  0.7824 -0.0081 -1.0401
  656MOL0     H90499   4.922  -0.243   0.948  1.3696 -0.1309  0.4560
  656MOL0     H90500   4.983  -0.351   0.661  0.9016  0.1297  0.4779
  656MOL0     H90501   4.947  -0.184   0.690 -0.3105 -0.1941 -1.4000
  656MOL0     H90502   5.157  -0.180   0.849 -2.7191  2.6401 -2.6431
  656MOL0     H90503   5.185  -0.216   0.681  2.0621 -0.4929 -0.1348
  656MOL0     H90504   5.204  -0.449   0.719  1.5491 -1.0308 -0.0069
  656MOL0     H90505   5.178  -0.431   0.897  0.4983 -1.5707 -1.0168
  656MOL0     H90506   5.405  -0.454   0.842 -0.2967 -0.4147 -2.0222
  656MOL0     H90507   5.356  -0.335   0.953  1.0755 -3.8240  0.9256
  656MOL0     H90508   4.291  -0.233   0.928  0.1400  1.3198  0.2948
  656MOL0     H90509   4.075  -0.173   1.000 -2.2721 -0.4593  0.4953
  656MOL0     H90510   3.760  -0.304   1.358  0.4457 -1.1971 -1.5012
  656MOL0     H90511   3.541  -0.221   1.448 -1.6751  2.5788 -0.6526
  656MOL0     H90512   1.798   0.044   1.722 -0.3847 -0.9954  0.7175
  656MOL0     H90513   1.582   0.039   1.819  0.8491  0.3846 -0.3327
  656MOL0     H90514   0.991   0.204   1.592 -0.6088  1.5857  0.2171
  656MOL0     H90515   0.785   0.210   1.700  1.2829 -0.8607 -3.9926
  656MOL0     H90516   0.777   0.023   2.128 -1.2423 -0.5926  0.9466
  656MOL0     H90517   0.848   0.188   2.145  2.0064  0.3321 -2.3602
  656MOL0     H90518   0.586   0.102   2.196  0.7691 -0.8591 -1.6885
  656MOL0     H90519   0.575   0.225   2.077 -1.0696 -2.1795 -0.8565
  656MOL0     H90520   0.710   0.264   2.354 -0.5963 -3.4460 -0.3621
  656MOL0     H90521   0.698   0.380   2.220 -2.3639  0.6673 -0.5535
  656MOL0     H90522   0.448   0.369   2.239  1.4702 -0.1167 -0.2248
  656MOL0     H90523   0.528   0.433   2.381  0.5334 -1.2771  0.3521
  656MOL0     H90524   0.372   0.085   2.562  1.9379  1.5601  1.3575
  656MOL0     H90525   0.989   0.008   2.035  2.0139 -1.9125 -0.3428
  656MOL0     H90526   1.297   0.028   1.928  1.0986 -0.9459 -1.8911
  656MOL0     H90527   1.184  -0.080   2.023 -3.5692  1.7635 -0.7717
  656MOL0     H90528   1.218  -0.130   1.861 -0.3180 -0.4194 -0.8154
  657MOL0     O90529   3.482  11.249  10.657 -0.0666  0.0904 -0.7301
  657MOL0     C90530   3.443  11.180  10.753  1.0291  0.4551  0.3434
  657MOL0     O90531   3.455  11.045  10.762  0.4527  0.0985 -0.6448
  657MOL0     C90532   3.543  10.982  10.679 -1.0471  0.2187  0.4876
  657MOL0     C90533   3.685  10.989  10.697 -0.2567 -0.0332  0.2944
  657MOL0     C90534   3.770  10.925  10.613 -0.0829  0.6416  1.1763
  657MOL0     C90535   3.719  10.843  10.511  0.3997  0.1637 -0.4136
  657MOL0     O90536   3.785  10.750  10.436 -0.5603  0.0551  0.4582
  657MOL0     C90537   3.845  10.809  10.320  0.3674 -0.0381  0.2831
  657MOL0     C90538   3.931  10.706  10.246  0.0912  0.8699  1.8661
  657MOL0     C90539   4.046  10.648  10.322  0.1124  0.6297 -0.0839
  657MOL0     C90540   4.149  10.752  10.367  0.1803 -0.2754 -0.6126
  657MOL0     C90541   4.273  10.703  10.445  0.6001  0.5302 -0.1453
  657MOL0     C90542   4.384  10.667  10.339  0.2004  0.1540  0.5375
  657MOL0     C90543   4.513  10.627  10.411 -0.0072 -0.9530 -0.9762
  657MOL0     C90544   4.631  10.580  10.320 -0.1427 -0.4859 -0.3845
  657MOL0     N90545   4.678  10.681  10.213  0.7513 -0.1513 -0.0036
  657MOL0     C90546   4.769  10.782  10.233  0.6241 -0.7534 -0.0901
  657MOL0     C90547   4.747  10.868  10.129  0.1282  0.7822  0.1270
  657MOL0     C90548   4.820  10.995  10.099 -0.1928  0.9539 -0.2052
  657MOL0     C90549   4.970  10.970  10.063 -0.5956  0.5082 -0.1804
  657MOL0     C90550   5.051  10.884  10.156 -0.0156 -0.0835  0.8162
  657MOL0     C90551   5.205  10.909  10.135 -0.1432  0.5354 -0.0489
  657MOL0     O90552   5.259  11.025  10.210  0.8067  0.1019  0.0839
  657MOL0     C90553   5.397  11.032  10.236  0.5255  0.2114  0.0078
  657MOL0     C90554   5.446  11.107  10.339 -0.7371  0.2126 -0.7776
  657MOL0     C90555   5.587  11.135  10.360 -0.1888  0.4772 -0.1991
  657MOL0     C90556   5.638  11.238  10.459 -0.0458  1.1138 -0.8898
  657MOL0     C90557   5.679  11.080  10.267  0.7879  0.4071 -0.4857
  657MOL0     C90558   5.821  11.116  10.246  0.7531 -0.1702 -0.1628
  657MOL0     O90559   5.913  11.010  10.229 -0.2674  0.5110  0.2630
  657MOL0     C90560   6.049  11.048  10.224  0.3703  0.5324 -0.7257
  657MOL0     C90561   6.121  11.009  10.117  0.3988 -0.2776  0.1932
  657MOL0     C90562   6.259  11.026  10.113  0.3983 -0.0832 -0.7107
  657MOL0     C90563   6.326  11.085  10.219  0.0242  0.9741  0.0541
  657MOL0     O90564   6.464  11.086  10.218 -0.2935  0.1150 -0.4161
  657MOL0     C90565   6.538  11.047  10.105 -0.1270 -0.2902 -0.4107
  657MOL0     C90566   6.683  11.085  10.120 -0.2155 -0.9919 -0.2064
  657MOL0     C90567   6.753  11.012  10.240  0.5334 -0.5401  0.2757
  657MOL0     C90568   6.895  11.064  10.251  0.1441  0.2153  0.1357
  657MOL0     C90569   6.962  11.005  10.375  0.7889  0.2169  0.6280
  657MOL0     C90570   7.117  11.043  10.382 -0.4420 -0.0106 -0.1263
  657MOL0     C90571   7.175  11.050  10.521  0.5022 -0.0469  0.5352
  657MOL0     C90572   7.327  11.090  10.510  0.9740  1.3279 -0.1747
  657MOL0    Cl90573   7.388  11.116  10.670  0.1768  0.2827  0.1306
  657MOL0     C90574   6.254  11.138  10.328 -0.0063  0.3700  0.8671
  657MOL0     C90575   6.118  11.112  10.329  0.3657 -0.3874  0.1299
  657MOL0     O90576   5.849  11.232  10.254 -0.1954  0.1413 -0.0278
  657MOL0     C90577   5.628  10.992  10.172  0.5526  0.1937 -0.6345
  657MOL0     C90578   5.491  10.963  10.164  0.4259 -0.6665  0.5357
  657MOL0     N90579   4.658  10.812  10.038 -0.0717  1.1187  0.0973
  657MOL0     N90580   4.639  10.690  10.086 -0.0114 -0.4155  0.4079
  657MOL0     C90581   3.579  10.839  10.494  0.5895 -0.8570  0.8451
  657MOL0     C90582   3.488  10.917  10.568 -0.3337  0.5384 -0.1838
  657MOL0     C90583   3.342  11.233  10.849 -0.0118  0.0236  0.7186
  657MOL0     C90584   3.239  11.147  10.892  0.2797  0.0267 -0.3046
  657MOL0     C90585   3.151  11.188  10.991 -0.0954  0.3838 -0.2083
  657MOL0     C90586   3.164  11.315  11.049 -0.5396  0.3736  0.2936
  657MOL0     O90587   3.069  11.345  11.145  0.2174  0.0191 -0.8963
  657MOL0     C90588   3.063  11.476  11.202  0.2777  0.3505  0.6585
  657MOL0     C90589   2.922  11.514  11.248  0.5129  0.8251 -0.4398
  657MOL0     C90590   2.928  11.653  11.290 -0.0641 -0.8512 -0.3923
  657MOL0     C90591   2.786  11.703  11.325  0.0525  0.1716  0.0391
  657MOL0     C90592   2.718  11.747  11.208  0.4173  0.5719 -0.0696
  657MOL0     C90593   2.645  11.783  11.122 -0.4762 -0.2222 -0.2074
  657MOL0     C90594   3.266  11.398  11.004  0.3520  0.1470 -0.6726
  657MOL0     C90595   3.355  11.364  10.907 -0.1582  0.3383  0.3558
  657MOL0     C90596   3.464  11.460  10.867  0.1414  0.1476  0.1468
  657MOL0     H90597   3.714  11.040  10.788 -2.1763  0.6123  0.6028
  657MOL0     H90598   3.875  10.914  10.639 -0.1439 -2.8164  0.5075
  657MOL0     H90599   3.909  10.891  10.354  0.4109 -0.6580  1.7635
  657MOL0     H90600   3.766  10.840  10.252 -1.5308 -2.3378  1.3117
  657MOL0     H90601   3.867  10.627  10.208 -0.8430  3.2540 -2.0350
  657MOL0     H90602   3.977  10.758  10.161 -0.0005 -3.1545 -0.9347
  657MOL0     H90603   4.011  10.592  10.409 -0.4633 -0.4010 -0.9399
  657MOL0     H90604   4.094  10.570  10.262 -1.4996 -1.4743  1.2492
  657MOL0     H90605   4.183  10.812  10.282 -0.5583 -0.1303 -0.8086
  657MOL0     H90606   4.109  10.827  10.436  1.6513  0.9591 -1.0429
  657MOL0     H90607   4.245  10.608  10.490  2.6534  0.2268  0.6101
  657MOL0     H90608   4.307  10.775  10.520  1.7269 -1.1682  1.0594
  657MOL0     H90609   4.349  10.580  10.282  0.0903 -0.2807  1.2566
  657MOL0     H90610   4.408  10.749  10.271  1.5665  1.2267  2.2473
  657MOL0     H90611   4.489  10.555  10.489 -0.5423 -1.0089 -1.1864
  657MOL0     H90612   4.551  10.714  10.465  0.2714 -1.0377 -1.0349
  657MOL0     H90613   4.715  10.555  10.384 -0.3208 -1.5473 -0.5504
  657MOL0     H90614   4.604  10.484  10.276 -0.6861 -0.6468  0.2803
  657MOL0     H90615   4.829  10.815  10.317  2.5865  3.2839 -2.7866
  657MOL0     H90616   4.816  11.067  10.181  0.8566  2.5734 -1.5206
  657MOL0     H90617   4.773  11.046  10.015  0.2321 -1.2848 -1.9156
  657MOL0     H90618   4.961  10.911   9.971 -2.7281 -1.8550  1.4166
  657MOL0     H90619   5.026  11.060  10.034  2.1755 -1.5332 -1.6112
  657MOL0     H90620   5.031  10.912  10.260 -0.6553 -1.5354  1.0989
  657MOL0     H90621   5.031  10.777  10.153 -0.8548 -0.0130  2.5660
  657MOL0     H90622   5.253  10.818  10.173 -2.0145  0.1092  1.5112
  657MOL0     H90623   5.224  10.918  10.028  0.7204 -3.9951 -0.4980
  657MOL0     H90624   5.372  11.159  10.399 -1.4343 -2.1397  0.5235
  657MOL0     H90625   5.663  11.338  10.422  1.0491  1.1068 -0.2330
  657MOL0     H90626   5.737  11.198  10.485  0.2541  2.2976 -0.1107
  657MOL0     H90627   5.576  11.249  10.548  0.1996  1.6610 -0.7848
  657MOL0     H90628   6.072  10.966  10.030  2.5806  0.7237 -1.6373
  657MOL0     H90629   6.309  10.980  10.028  0.7171 -3.4005  1.1216
  657MOL0     H90630   6.522  10.939  10.092  1.1594 -0.5253 -0.2110
  657MOL0     H90631   6.500  11.091  10.012  0.4596  1.0416 -0.0377
  657MOL0     H90632   6.728  11.070  10.021  1.5448  2.1312  0.0080
  657MOL0     H90633   6.673  11.192  10.139 -0.3878 -0.8629 -0.9700
  657MOL0     H90634   6.749  10.904  10.227 -0.4232 -0.4616 -0.1471
  657MOL0     H90635   6.700  11.031  10.334  0.1519 -1.1733  0.1950
  657MOL0     H90636   6.904  11.173  10.259  2.2020  0.1931 -1.2241
  657MOL0     H90637   6.946  11.037  10.158  0.2198 -0.2626  0.3135
  657MOL0     H90638   6.908  11.040  10.463 -0.5596  0.4552 -0.2626
  657MOL0     H90639   6.959  10.896  10.384  1.0280  0.3472  2.8580
  657MOL0     H90640   7.125  11.138  10.328  0.5799 -0.3754 -0.6366
  657MOL0     H90641   7.167  10.968  10.321  0.5344 -0.9903  1.7947
  657MOL0     H90642   7.164  10.957  10.577 -1.2900  1.3155  2.6032
  657MOL0     H90643   7.129  11.132  10.577 -0.3281 -0.1088 -0.0491
  657MOL0     H90644   7.327  11.188  10.463  0.2864  1.3263 -0.1913
  657MOL0     H90645   7.388  11.027  10.444 -1.3432 -1.0825 -0.1789
  657MOL0     H90646   6.299  11.205  10.401 -3.0219  0.3465  2.9141
  657MOL0     H90647   6.072  11.159  10.415  2.9520 -0.4863  1.6745
  657MOL0     H90648   5.701  10.940  10.111  1.4665  1.0483 -0.3034
  657MOL0     H90649   5.461  10.882  10.098 -0.8719  0.1237  0.1128
  657MOL0     H90650   3.534  10.777  10.418  1.3262 -0.2211 -0.1405
  657MOL0     H90651   3.383  10.907  10.545  0.1309 -0.6785 -2.0456
  657MOL0     H90652   3.233  11.046  10.853 -0.6953 -0.9963  2.2837
  657MOL0     H90653   3.062  11.128  11.010  1.7407 -1.6586  2.7194
  657MOL0     H90654   3.129  11.481  11.289 -2.4931  0.5309  2.8635
  657MOL0     H90655   3.093  11.543  11.120 -2.5496 -0.3826 -1.1156
  657MOL0     H90656   2.888  11.455  11.333  0.2247  3.1316  1.1488
  657MOL0     H90657   2.857  11.500  11.161 -0.0288  2.0162 -0.2443
  657MOL0     H90658   2.992  11.654  11.378  0.1241  1.6798 -0.4931
  657MOL0     H90659   2.963  11.719  11.210 -0.6720  0.4990  0.4110
  657MOL0     H90660   2.793  11.779  11.402 -0.7656  1.1341 -0.8017
  657MOL0     H90661   2.729  11.622  11.372 -1.2346  1.7044  1.1939
  657MOL0     H90662   2.585  11.801  11.035  0.1266 -2.2218 -1.0904
  657MOL0     H90663   3.279  11.494  11.053  0.4187 -0.5529  0.7312
  657MOL0     H90664   3.567  11.425  10.877 -0.4801 -1.6185  0.6330
  657MOL0     H90665   3.455  11.490  10.762 -1.1956 -0.1609  0.1619
  657MOL0     H90666   3.462  11.551  10.928 -0.0281  1.9197 -2.3590
  658MOL0     O90667   5.875   7.125   0.438  0.3608 -0.1991  0.4486
  658MOL0     C90668   5.768   7.116   0.499  0.3550  0.3079  0.6843
  658MOL0     O90669   5.679   7.216   0.537  0.2819 -0.2346  0.0548
  658MOL0     C90670   5.710   7.348   0.522  0.2484 -0.2953  0.6007
  658MOL0     C90671   5.822   7.401   0.587 -0.4814  0.6749 -0.1006
  658MOL0     C90672   5.849   7.532   0.569 -0.0694 -0.0150  0.7930
  658MOL0     C90673   5.767   7.620   0.490  0.1774 -0.5704 -0.2195
  658MOL0     O90674   5.778   7.758   0.487  0.2587  0.4007  0.8023
  658MOL0     C90675   5.911   7.816   0.470  0.1134  0.2024  0.0309
  658MOL0     C90676   5.970   7.806   0.325 -0.3086 -0.2088 -0.4352
  658MOL0     C90677   5.897   7.881   0.213 -0.3002  0.0877  0.8382
  658MOL0     C90678   5.933   7.815   0.077  0.4387 -1.5356 -0.2463
  658MOL0     C90679   5.953   7.920  -0.037 -0.1621 -0.2432 -0.0125
  658MOL0     C90680   5.960   7.850  -0.173  0.0711 -0.5772 -0.2283
  658MOL0     C90681   6.088   7.762  -0.208  0.3408  0.2634  0.0617
  658MOL0     C90682   6.215   7.842  -0.188 -0.4096  0.4422 -0.1405
  658MOL0     N90683   6.328   7.795  -0.270 -0.5272 -0.5106 -0.2222
  658MOL0     C90684   6.398   7.681  -0.266 -0.5040  0.0749  0.5399
  658MOL0     C90685   6.505   7.693  -0.345 -0.3198  0.0555  0.7657
  658MOL0     C90686   6.612   7.594  -0.372 -0.9950 -0.7946 -0.7895
  658MOL0     C90687   6.759   7.649  -0.363 -1.2750 -0.3691  0.3298
  658MOL0     C90688   6.868   7.543  -0.383  0.4555  0.3254  0.0433
  658MOL0     C90689   6.867   7.445  -0.259 -0.3525 -0.7126 -0.1252
  658MOL0     O90690   6.896   7.517  -0.151 -0.5315  0.5920 -1.0194
  658MOL0     C90691   7.022   7.582  -0.124 -0.2588  0.4884  0.2354
  658MOL0     C90692   7.138   7.555  -0.201  0.4478 -0.2265  0.7547
  658MOL0     C90693   7.256   7.623  -0.169  0.5719  0.2317  0.3276
  658MOL0     C90694   7.369   7.581  -0.258  0.9008 -0.8346 -0.6555
  658MOL0     C90695   7.262   7.724  -0.074  0.4665 -0.2848  0.1199
  658MOL0     C90696   7.377   7.816  -0.039 -0.0961  0.3981  0.5597
  658MOL0     O90697   7.381   7.864   0.081  0.2557  0.0505 -0.3660
  658MOL0     C90698   7.501   7.911   0.138  0.0291  0.3034  0.1399
  658MOL0     C90699   7.509   8.045   0.182 -0.2276 -0.2420  1.1106
  658MOL0     C90700   7.619   8.094   0.252  0.2594  0.0021  0.7945
  658MOL0     C90701   7.730   8.013   0.280 -0.7047  0.0153 -0.4486
  658MOL0     O90702   7.832   8.084   0.345 -0.2742  0.1522  0.5487
  658MOL0     C90703   7.941   8.008   0.383  0.4699  0.1001 -0.1320
  658MOL0     C90704   8.026   8.081   0.487  0.8876 -0.0056 -0.0189
  658MOL0     C90705   8.074   8.221   0.443 -0.5772  0.3380 -0.3836
  658MOL0     C90706   8.164   8.266   0.560 -0.2303  0.1664 -0.0876
  658MOL0     C90707   8.287   8.350   0.504 -0.1306 -0.3369  0.0307
  658MOL0     C90708   8.238   8.487   0.453  0.3183  0.3686 -0.6279
  658MOL0     C90709   8.354   8.559   0.385 -1.0082 -0.2273 -0.1725
  658MOL0     C90710   8.446   8.496   0.285 -0.2200 -0.3997 -0.5648
  658MOL0    Cl90711   8.382   8.443   0.134 -0.3263  0.0155 -0.2317
  658MOL0     C90712   7.734   7.878   0.234  0.0331 -0.6297  0.3933
  658MOL0     C90713   7.613   7.837   0.169 -0.2469  0.2311  0.0949
  658MOL0     O90714   7.465   7.825  -0.122 -0.2052  0.4927  0.6155
  658MOL0     C90715   7.141   7.749   0.002  0.3828 -0.0293 -1.4571
  658MOL0     C90716   7.027   7.676  -0.015 -0.3147  0.1128 -0.0459
  658MOL0     N90717   6.514   7.824  -0.386  0.5297 -0.5020  0.6616
  658MOL0     N90718   6.409   7.880  -0.339  0.1367  0.4540 -0.0180
  658MOL0     C90719   5.662   7.562   0.423  1.5422 -0.4163  0.1221
  658MOL0     C90720   5.626   7.426   0.440  0.2875 -0.4778 -0.4187
  658MOL0     C90721   5.719   6.976   0.525 -0.5996  0.1105 -0.0093
  658MOL0     C90722   5.592   6.963   0.581  0.0389 -0.5954 -0.8441
  658MOL0     C90723   5.527   6.842   0.604  0.1671  0.4674 -0.5138
  658MOL0     C90724   5.584   6.724   0.557 -0.0329 -1.1154 -0.7469
  658MOL0     O90725   5.531   6.601   0.578  0.0585 -0.1637  0.2485
  658MOL0     C90726   5.384   6.590   0.613  0.3837  0.0849  0.2825
  658MOL0     C90727   5.289   6.626   0.493 -0.9023  0.1861  0.0159
  658MOL0     C90728   5.149   6.671   0.538 -0.1614  0.9642  0.0533
  658MOL0     C90729   5.061   6.683   0.414  0.4487  0.9409 -0.0963
  658MOL0     C90730   4.937   6.763   0.439  0.6816  0.3858 -0.7926
  658MOL0     C90731   4.832   6.822   0.466 -0.0107 -0.4320 -0.6152
  658MOL0     C90732   5.715   6.734   0.510  0.2512 -0.0323 -0.2337
  658MOL0     C90733   5.787   6.855   0.493  0.3320 -0.2773  0.1881
  658MOL0     C90734   5.929   6.842   0.437  0.3032  0.4360 -1.2640
  658MOL0     H90735   5.883   7.341   0.654 -0.6190  0.8029  0.1408
  658MOL0     H90736   5.938   7.582   0.604 -0.4450  1.1559  0.1055
  658MOL0     H90737   5.987   7.781   0.540 -0.0349  1.9216  1.1277
  658MOL0     H90738   5.902   7.921   0.500 -0.4791  0.9199 -2.4577
  658MOL0     H90739   6.071   7.846   0.333 -1.8036  3.6621  1.5839
  658MOL0     H90740   5.976   7.701   0.295  1.6166 -1.4599  3.6515
  658MOL0     H90741   5.788   7.879   0.224 -0.2097 -1.2266  1.7792
  658MOL0     H90742   5.925   7.986   0.220  0.7214 -0.2513  2.3619
  658MOL0     H90743   6.019   7.747   0.088  1.6580  0.1220  0.8238
  658MOL0     H90744   5.847   7.751   0.053 -1.1049  0.8371 -1.3506
  658MOL0     H90745   6.044   7.975  -0.008 -1.6970  1.8276  1.1394
  658MOL0     H90746   5.872   7.993  -0.044  0.4647  0.4773 -0.0093
  658MOL0     H90747   5.863   7.801  -0.183 -1.2876  2.2609 -2.4044
  658MOL0     H90748   5.949   7.922  -0.254 -1.5864 -1.7755 -1.1361
  658MOL0     H90749   6.091   7.721  -0.310  1.3578 -1.3791  0.6982
  658MOL0     H90750   6.097   7.669  -0.150  1.0152 -0.0555 -0.5416
  658MOL0     H90751   6.203   7.945  -0.224  0.0799  0.0494 -1.5041
  658MOL0     H90752   6.248   7.835  -0.084 -1.1166 -2.4247 -0.0233
  658MOL0     H90753   6.377   7.593  -0.206  3.9068 -1.4915  0.1276
  658MOL0     H90754   6.603   7.554  -0.473 -0.5490  2.1656 -2.1015
  658MOL0     H90755   6.595   7.514  -0.300 -0.2747 -2.5127 -2.4404
  658MOL0     H90756   6.771   7.730  -0.436  0.2934 -1.0047 -0.1767
  658MOL0     H90757   6.780   7.696  -0.267 -2.1795 -0.8143  0.7558
  658MOL0     H90758   6.856   7.485  -0.475 -2.1295 -3.7678  2.6513
  658MOL0     H90759   6.962   7.597  -0.397 -0.0333  0.5993 -2.8128
  658MOL0     H90760   6.763   7.413  -0.244 -0.0791 -1.1193  0.9358
  658MOL0     H90761   6.939   7.364  -0.276 -0.2195 -0.6727  0.2474
  658MOL0     H90762   7.137   7.489  -0.287  1.7775  2.1165 -1.1893
  658MOL0     H90763   7.386   7.664  -0.328  0.6549 -0.1292  0.1057
  658MOL0     H90764   7.347   7.485  -0.305 -0.0064 -0.2574 -1.4459
  658MOL0     H90765   7.459   7.575  -0.196  1.4446 -1.3661 -1.4685
  658MOL0     H90766   7.431   8.116   0.156  1.9500  1.2049 -2.2788
  658MOL0     H90767   7.624   8.196   0.287  0.1539  0.2654  0.0704
  658MOL0     H90768   7.908   7.913   0.426  1.3981 -0.1369  0.0810
  658MOL0     H90769   8.002   7.987   0.294  1.9785 -2.1871  1.3308
  658MOL0     H90770   7.959   8.093   0.573  2.3760 -0.6602  1.2823
  658MOL0     H90771   8.112   8.021   0.519  2.3951  1.8703 -0.3493
  658MOL0     H90772   7.986   8.284   0.428 -1.5416 -0.6812  0.7794
  658MOL0     H90773   8.125   8.206   0.348  0.4924  1.4887 -0.0187
  658MOL0     H90774   8.206   8.188   0.624  0.5268 -0.1997 -1.0057
  658MOL0     H90775   8.093   8.323   0.621 -0.8785 -0.3603 -0.3465
  658MOL0     H90776   8.363   8.363   0.581 -0.9178  2.3589  0.4650
  658MOL0     H90777   8.344   8.289   0.433  0.2490  0.3954 -0.3041
  658MOL0     H90778   8.205   8.538   0.544  0.8146 -2.4092  1.2553
  658MOL0     H90779   8.163   8.477   0.374  0.4939  0.1063 -0.7615
  658MOL0     H90780   8.417   8.599   0.465 -1.9697 -0.2818  0.6246
  658MOL0     H90781   8.306   8.638   0.325 -0.8352 -1.0611 -1.4437
  658MOL0     H90782   8.501   8.412   0.329 -3.2999 -3.0983 -1.4942
  658MOL0     H90783   8.527   8.568   0.272 -1.6937  0.9905 -2.7832
  658MOL0     H90784   7.811   7.805   0.259 -0.9764 -1.1660  2.1207
  658MOL0     H90785   7.607   7.734   0.133  0.4684  0.0913  0.3599
  658MOL0     H90786   7.145   7.813   0.090 -1.3282 -1.7926 -0.0131
  658MOL0     H90787   6.941   7.686   0.051  0.0251 -0.3754  0.4706
  658MOL0     H90788   5.591   7.619   0.364  0.3220 -1.4008  0.5766
  658MOL0     H90789   5.529   7.394   0.402 -0.2090 -0.3886  0.7580
  658MOL0     H90790   5.526   7.041   0.618 -1.0330 -1.6737 -0.4213
  658MOL0     H90791   5.437   6.837   0.665  0.9445  1.7360  0.7885
  658MOL0     H90792   5.363   6.486   0.639 -0.6450  0.1760 -0.1376
  658MOL0     H90793   5.353   6.647   0.701 -0.4510  2.2202 -1.3077
  658MOL0     H90794   5.299   6.537   0.430  1.7478  1.2703 -1.2507
  658MOL0     H90795   5.328   6.718   0.448 -3.9625  2.1422  1.0872
  658MOL0     H90796   5.117   6.590   0.604 -0.9598  1.4270  0.2376
  658MOL0     H90797   5.135   6.766   0.589 -4.5542 -0.4591  2.0156
  658MOL0     H90798   5.027   6.582   0.390 -1.5478  0.4078  4.1334
  658MOL0     H90799   5.113   6.723   0.327 -3.3464 -0.5796 -3.3639
  658MOL0     H90800   4.746   6.879   0.497  1.0366  1.3880 -0.9127
  658MOL0     H90801   5.750   6.632   0.495  0.9190 -0.0213  1.1286
  658MOL0     H90802   5.940   6.740   0.400  0.0394  0.4378 -1.3452
  658MOL0     H90803   5.949   6.912   0.355  0.0136  1.2554 -0.6468
  658MOL0     H90804   6.002   6.865   0.516 -0.2957 -0.3583 -0.4646
  659MOL0     O90805   9.339   8.035   0.313 -0.5256  0.2886  0.1834
  659MOL0     C90806   9.327   8.149   0.353  0.7547 -0.4417  0.3190
  659MOL0     O90807   9.419   8.215   0.424 -0.2335 -0.2204 -0.3390
  659MOL0     C90808   9.544   8.163   0.456  0.6591  0.2860 -0.0512
  659MOL0     C90809   9.582   8.176   0.588 -0.2821 -0.5103 -0.0091
  659MOL0     C90810   9.711   8.120   0.620  0.3970  0.5483 -0.7903
  659MOL0     C90811   9.790   8.050   0.527 -0.9788  0.1634 -0.7505
  659MOL0     O90812   9.910   7.990   0.575 -0.2742 -0.0414  0.8952
  659MOL0     C90813  10.032   8.037   0.521 -0.2581  0.1873  0.2620
  659MOL0     C90814  10.085   7.921   0.442  0.0971 -1.2616 -0.7051
  659MOL0     C90815  10.221   7.962   0.374 -0.3209 -0.0949 -0.0263
  659MOL0     C90816  10.340   7.951   0.483  0.9965 -0.5971  0.1513
  659MOL0     C90817  10.472   8.009   0.436  0.0991  0.0180 -0.6313
  659MOL0     C90818  10.588   8.016   0.540 -0.1338  0.0560 -0.3704
  659MOL0     C90819  10.716   8.071   0.472  0.2930  0.2133 -0.0332
  659MOL0     C90820  10.835   8.079   0.565  0.6333  0.6150 -0.4779
  659MOL0     N90821  10.817   8.176   0.679 -0.9421  0.1166  1.0026
  659MOL0     C90822  10.920   8.215   0.755 -0.6201  1.3496 -0.6720
  659MOL0     C90823  10.875   8.317   0.832 -0.2561  0.5180  0.3038
  659MOL0     C90824  10.961   8.388   0.936  1.5163  0.3244 -0.3137
  659MOL0     C90825  11.100   8.412   0.890  0.0124  0.6835 -0.4147
  659MOL0     C90826  11.168   8.489   0.989 -0.3135 -0.3122  0.4116
  659MOL0     C90827  11.309   8.525   0.947 -0.3819 -0.2898  0.6253
  659MOL0     O90828  11.382   8.403   0.933 -0.2952  0.5550  0.6728
  659MOL0     C90829  11.522   8.407   0.933  0.4937  0.1862 -0.7094
  659MOL0     C90830  11.607   8.514   0.912  0.3070 -0.3075  0.4979
  659MOL0     C90831  11.750   8.503   0.907  0.2609 -0.7097  0.2816
  659MOL0     C90832  11.827   8.629   0.900 -0.1864 -1.0017  0.3992
  659MOL0     C90833  11.805   8.372   0.913  0.7583 -0.4950 -0.1598
  659MOL0     C90834  11.952   8.343   0.913 -0.0978  0.1173 -1.0193
  659MOL0     O90835  11.991   8.213   0.952 -0.1501 -0.0221  0.0328
  659MOL0     C90836  12.124   8.165   0.942  1.0088 -0.4966  0.5999
  659MOL0     C90837  12.138   8.056   1.023 -0.3639 -0.3390  0.2081
  659MOL0     C90838  12.267   7.988   1.022 -0.3393  1.2782  0.0695
  659MOL0     C90839  12.366   8.033   0.935 -0.6781  0.0728  0.2579
  659MOL0     O90840  12.495   7.986   0.931  0.1885 -0.4539  0.3529
  659MOL0     C90841  12.523   7.866   1.001  0.1795 -0.6732 -0.4754
  659MOL0     C90842  12.660   7.814   0.971 -0.1094  0.1493  0.1417
  659MOL0     C90843  12.666   7.675   1.028  0.0193 -0.5066 -0.0518
  659MOL0     C90844  12.805   7.622   1.001 -0.7130  0.6022  0.0047
  659MOL0     C90845  12.834   7.485   1.078  1.1044 -0.0842  0.1858
  659MOL0     C90846  12.970   7.427   1.041 -0.0477  0.4483  0.3327
  659MOL0     C90847  13.089   7.515   1.098 -0.4056 -0.1041 -0.6853
  659MOL0     C90848  13.224   7.457   1.078  0.4574 -0.1952  0.1225
  659MOL0    Cl90849  13.253   7.314   1.185  0.0559  0.1642  0.0521
  659MOL0     C90850  12.336   8.123   0.839 -0.2809 -0.3282 -0.3883
  659MOL0     C90851  12.217   8.189   0.842 -0.1403  0.2346  0.1088
  659MOL0     O90852  12.025   8.434   0.877  0.4307  0.0781  0.2153
  659MOL0     C90853  11.716   8.269   0.933  0.1197 -0.0755 -0.0773
  659MOL0     C90854  11.577   8.285   0.943 -0.3018 -0.2090 -0.6059
  659MOL0     N90855  10.742   8.339   0.805  0.1659  0.2370  0.4938
  659MOL0     N90856  10.715   8.265   0.700  0.2814  1.2524  0.4726
  659MOL0     C90857   9.744   8.028   0.398 -1.0106  0.5103 -0.2660
  659MOL0     C90858   9.628   8.099   0.361 -0.5975 -0.2696  0.5240
  659MOL0     C90859   9.195   8.217   0.334  0.0490  0.6607 -0.2126
  659MOL0     C90860   9.171   8.328   0.417  0.1330  0.7231 -0.5432
  659MOL0     C90861   9.056   8.400   0.403  0.1904 -0.0487  0.7325
  659MOL0     C90862   8.952   8.356   0.327  0.0351 -0.0285  0.1615
  659MOL0     O90863   8.830   8.420   0.332 -0.2453  0.7444 -0.2161
  659MOL0     C90864   8.802   8.498   0.445  0.1667 -0.6910 -0.0211
  659MOL0     C90865   8.800   8.423   0.580  0.3436  0.8491  0.0268
  659MOL0     C90866   8.692   8.313   0.560 -0.1572 -0.5508 -0.2298
  659MOL0     C90867   8.688   8.224   0.686  0.2426 -0.1813  0.5873
  659MOL0     C90868   8.591   8.115   0.672  0.0599 -0.0770 -0.4409
  659MOL0     C90869   8.505   8.032   0.654  0.3416 -0.5244 -0.4602
  659MOL0     C90870   8.972   8.247   0.236  0.5104 -0.3518 -0.0620
  659MOL0     C90871   9.096   8.183   0.231 -0.1054  0.4382  0.0188
  659MOL0     C90872   9.110   8.087   0.114  0.0198 -0.1596 -0.1439
  659MOL0     H90873   9.519   8.230   0.657 -0.5981 -1.0833  0.1581
  659MOL0     H90874   9.755   8.130   0.719 -2.1561  0.7922  0.4062
  659MOL0     H90875  10.110   8.048   0.597  2.5581 -0.7856 -2.3316
  659MOL0     H90876  10.018   8.117   0.448 -1.1925 -1.3959 -1.3712
  659MOL0     H90877  10.094   7.836   0.510  0.2857 -0.4488  0.3105
  659MOL0     H90878  10.025   7.893   0.355  0.2281 -1.9817 -0.5697
  659MOL0     H90879  10.243   7.899   0.288  1.0636  0.9840 -0.4782
  659MOL0     H90880  10.208   8.064   0.339  1.3353  1.4225  3.2949
  659MOL0     H90881  10.315   8.011   0.571 -1.6324 -1.9105  0.3977
  659MOL0     H90882  10.351   7.847   0.515  1.2145 -0.4406  0.6020
  659MOL0     H90883  10.454   8.112   0.403  1.8872  0.8916  0.9548
  659MOL0     H90884  10.499   7.942   0.355 -2.2847 -1.8928  0.0211
  659MOL0     H90885  10.562   8.082   0.623 -2.0828  1.6370 -2.1329
  659MOL0     H90886  10.607   7.916   0.580  0.4354  0.8125  1.3088
  659MOL0     H90887  10.696   8.169   0.428 -0.3137  0.4705  0.7995
  659MOL0     H90888  10.745   7.998   0.395 -0.4581 -1.5731  1.3135
  659MOL0     H90889  10.864   7.983   0.607  1.5729  0.7262 -0.8513
  659MOL0     H90890  10.924   8.103   0.507  0.7775 -2.4894 -1.7217
  659MOL0     H90891  11.020   8.175   0.760 -2.0897 -2.6765  1.8482
  659MOL0     H90892  10.964   8.316   1.018  1.1465 -1.0388 -1.4485
  659MOL0     H90893  10.910   8.471   0.985 -0.6457 -0.7725 -0.5987
  659MOL0     H90894  11.147   8.314   0.878  1.9565  1.4541  0.4941
  659MOL0     H90895  11.093   8.468   0.796  0.1482 -0.1280 -0.9249
  659MOL0     H90896  11.105   8.578   1.002  0.7963  0.6199 -0.3651
  659MOL0     H90897  11.185   8.429   1.079 -1.9781 -4.0039 -1.5129
  659MOL0     H90898  11.312   8.587   0.857  1.2790 -0.4215  0.5418
  659MOL0     H90899  11.344   8.590   1.027 -2.6669  0.8999  0.7407
  659MOL0     H90900  11.557   8.609   0.898 -0.0127 -0.4876  0.4259
  659MOL0     H90901  11.902   8.638   0.979  1.7239 -2.8506 -1.0918
  659MOL0     H90902  11.765   8.716   0.922  0.1949 -0.3348 -1.0107
  659MOL0     H90903  11.877   8.650   0.804 -0.6893 -1.4981  0.0231
  659MOL0     H90904  12.061   8.021   1.092 -1.6495 -0.1330 -1.0731
  659MOL0     H90905  12.277   7.897   1.082  0.2662 -0.2884 -2.2566
  659MOL0     H90906  12.530   7.885   1.109  0.8836  0.0532 -0.6456
  659MOL0     H90907  12.443   7.796   0.974  0.0983 -1.1552  0.9135
  659MOL0     H90908  12.668   7.813   0.862  2.3300 -2.3891  0.2393
  659MOL0     H90909  12.744   7.870   1.013  1.8414 -0.5082 -2.5995
  659MOL0     H90910  12.593   7.606   0.983 -2.7793  1.3132  1.4242
  659MOL0     H90911  12.645   7.674   1.135 -3.5819  0.9839 -0.5951
  659MOL0     H90912  12.890   7.689   1.018  1.0482 -1.3447 -0.7115
  659MOL0     H90913  12.799   7.598   0.895 -1.6135  3.3213 -0.6450
  659MOL0     H90914  12.827   7.497   1.187  2.3150 -2.8184  0.6403
  659MOL0     H90915  12.751   7.422   1.046 -2.0548  3.1188  1.3677
  659MOL0     H90916  12.973   7.427   0.931 -1.2176 -0.1823  0.2768
  659MOL0     H90917  12.980   7.328   1.085  1.7176  1.2723  1.9085
  659MOL0     H90918  13.077   7.532   1.206 -0.1410  1.1247 -0.8424
  659MOL0     H90919  13.094   7.613   1.052 -1.9651 -0.2657 -1.2410
  659MOL0     H90920  13.294   7.540   1.090 -2.3788  2.7779 -1.9609
  659MOL0     H90921  13.245   7.441   0.972  2.4184  0.7487  0.3360
  659MOL0     H90922  12.399   8.142   0.753 -0.4091 -4.8384 -1.7533
  659MOL0     H90923  12.192   8.257   0.762 -0.7988 -1.2897 -1.0147
  659MOL0     H90924  11.743   8.166   0.952 -1.7404 -0.1647  2.7814
  659MOL0     H90925  11.531   8.191   0.972 -1.4513  0.7402  0.7389
  659MOL0     H90926   9.801   7.966   0.329  2.5017 -0.5466  3.2459
  659MOL0     H90927   9.586   8.091   0.261 -2.4329  0.8336  1.1723
  659MOL0     H90928   9.244   8.358   0.492 -1.4642 -0.7901  1.7155
  659MOL0     H90929   9.046   8.491   0.462 -0.0319  1.8418 -1.9996
  659MOL0     H90930   8.866   8.585   0.457 -1.1192  0.0159  2.3407
  659MOL0     H90931   8.704   8.545   0.431  0.1993  0.0298  1.8939
  659MOL0     H90932   8.768   8.493   0.657 -2.5493 -0.8792  0.5397
  659MOL0     H90933   8.898   8.383   0.607  1.0828  1.1698 -1.9934
  659MOL0     H90934   8.599   8.368   0.539  0.3374  0.7735  0.8685
  659MOL0     H90935   8.700   8.244   0.476 -1.7733 -2.1456  0.8502
  659MOL0     H90936   8.657   8.286   0.771 -1.4528 -1.8132  1.2192
  659MOL0     H90937   8.787   8.181   0.704  0.1383 -0.0088  1.6212
  659MOL0     H90938   8.430   7.972   0.606  1.6320 -0.6933 -2.3636
  659MOL0     H90939   8.887   8.227   0.171  0.6704  0.5583 -0.5640
  659MOL0     H90940   9.191   8.125   0.051 -1.8215  2.3791 -1.1637
  659MOL0     H90941   9.145   7.989   0.147  1.5845  1.2130  2.5968
  659MOL0     H90942   9.019   8.081   0.053 -0.3698 -1.3269  0.5295
  660MOL0     O90943   8.169   9.956   8.130  0.3302  0.7811  0.1518
  660MOL0     C90944   8.164   9.834   8.171  0.1804 -0.5301  1.1640
  660MOL0     O90945   8.265   9.747   8.180  0.0645 -0.4235 -0.2858
  660MOL0     C90946   8.399   9.784   8.164 -0.0465 -1.0217  0.6098
  660MOL0     C90947   8.449   9.910   8.179  0.3961 -0.0873  0.6860
  660MOL0     C90948   8.585   9.940   8.162  0.1882 -0.7439  0.5113
  660MOL0     C90949   8.675   9.843   8.117 -0.2058 -0.2387  0.1113
  660MOL0     O90950   8.806   9.887   8.096  0.3363 -0.3291  0.1562
  660MOL0     C90951   8.892   9.803   8.012  0.1978  0.5719  0.1594
  660MOL0     C90952   9.032   9.863   8.002 -0.2331 -0.6794 -0.2634
  660MOL0     C90953   9.048  10.018   8.023  0.6759  1.1494 -0.0575
  660MOL0     C90954   9.192  10.069   7.999  0.7428 -0.1362  0.0344
  660MOL0     C90955   9.199  10.225   8.013  0.6926  0.2506 -0.9495
  660MOL0     C90956   9.187  10.240   8.167  0.3734 -0.0226 -0.5467
  660MOL0     C90957   9.275  10.369   8.208  0.1105  0.2786 -0.0937
  660MOL0     C90958   9.425  10.357   8.185  0.0136  0.9269 -0.0761
  660MOL0     N90959   9.472  10.219   8.219 -0.6145 -0.8940 -0.0582
  660MOL0     C90960   9.514  10.194   8.345  0.2195  0.7219  0.3532
  660MOL0     C90961   9.579  10.077   8.326 -0.4054  0.3499  0.1533
  660MOL0     C90962   9.650  10.003   8.426 -0.5841 -0.4524  0.4512
  660MOL0     C90963   9.789   9.973   8.384  0.6990  0.0306  0.2359
  660MOL0     C90964   9.858   9.916   8.514 -0.4265  0.1148  0.3098
  660MOL0     C90965   9.997   9.865   8.487 -0.4873  0.2490  0.9934
  660MOL0     O90966  10.084   9.967   8.442  0.3102 -0.3340  0.5306
  660MOL0     C90967  10.217   9.957   8.480  0.2561 -0.0009  1.0871
  660MOL0     C90968  10.291  10.072   8.508 -0.0870 -0.4256  0.3275
  660MOL0     C90969  10.412  10.069   8.568 -0.9348 -0.0909 -1.0317
  660MOL0     C90970  10.493  10.202   8.588  0.1721 -0.8686 -0.2061
  660MOL0     C90971  10.482   9.947   8.583 -0.4710 -0.1236  0.3607
  660MOL0     C90972  10.620   9.926   8.646 -0.3498 -0.4428  0.3936
  660MOL0     O90973  10.651   9.794   8.690  0.6218  0.0686 -0.0071
  660MOL0     C90974  10.772   9.773   8.734  1.1316 -0.2975 -0.4363
  660MOL0     C90975  10.806   9.798   8.872  0.3359 -0.9001 -0.1086
  660MOL0     C90976  10.943   9.803   8.918  0.4005  0.2976 -0.7439
  660MOL0     C90977  11.047   9.777   8.829  0.3166  0.4882 -0.2755
  660MOL0     O90978  11.174   9.787   8.880 -0.1794  0.2237 -0.2875
  660MOL0     C90979  11.239   9.664   8.896  0.0834  0.2073  0.5018
  660MOL0     C90980  11.375   9.672   8.970  0.4410 -0.8344  0.1633
  660MOL0     C90981  11.482   9.737   8.889  0.3638  0.2734  0.2065
  660MOL0     C90982  11.625   9.716   8.941 -0.2868 -0.4203  0.2562
  660MOL0     C90983  11.721   9.827   8.903  0.0568  0.5224 -0.3064
  660MOL0     C90984  11.859   9.802   8.968  0.2079 -0.3000  0.1242
  660MOL0     C90985  11.950   9.930   8.948  0.1074 -0.1499 -0.3689
  660MOL0     C90986  12.085   9.910   9.026 -1.6656  0.6525 -0.4416
  660MOL0    Cl90987  12.190  10.052   9.037 -0.3555 -0.1657 -0.4017
  660MOL0     C90988  11.016   9.752   8.692 -0.0549 -0.0977 -0.1899
  660MOL0     C90989  10.883   9.747   8.645  0.3098 -0.6385 -0.6583
  660MOL0     O90990  10.700  10.022   8.644  0.0421 -0.2150 -0.4053
  660MOL0     C90991  10.414   9.827   8.530 -0.6178 -0.6918  0.7241
  660MOL0     C90992  10.286   9.842   8.482  0.4286  0.2151  1.4886
  660MOL0     N90993   9.581  10.044   8.195 -0.1133  0.1787  0.3367
  660MOL0     N90994   9.516  10.130   8.129  0.2584 -0.4133  0.7112
  660MOL0     C90995   8.625   9.711   8.114 -0.0315  0.7600 -0.5100
  660MOL0     C90996   8.491   9.683   8.130 -0.0114  0.7746  0.2490
  660MOL0     C90997   8.023   9.800   8.203  0.1482  0.4782  0.2158
  660MOL0     C90998   7.921   9.899   8.188 -0.8958 -0.2148 -0.1621
  660MOL0     C90999   7.788   9.876   8.222 -0.0706  0.2644  0.3456
  660MOL0     C91000   7.748   9.757   8.276 -0.2607 -0.1519 -0.1369
  660MOL0     O91001   7.622   9.763   8.326  0.2020  0.3087  0.3390
  660MOL0     C91002   7.571   9.648   8.396  0.4018  0.0098 -0.5871
  660MOL0     C91003   7.520   9.529   8.298  0.8032  0.0236  0.2808
  660MOL0     C91004   7.521   9.395   8.373 -0.8417 -0.8710 -0.0178
  660MOL0     C91005   7.403   9.374   8.466 -0.1072 -0.3835 -0.5628
  660MOL0     C91006   7.440   9.272   8.564 -0.0777 -0.4024 -0.2848
  660MOL0     C91007   7.494   9.189   8.627  1.0405 -0.1048 -0.5147
  660MOL0     C91008   7.841   9.661   8.293 -0.6526  0.5549  0.0093
  660MOL0     C91009   7.981   9.677   8.264  0.1071 -0.8293  0.0835
  660MOL0     C91010   8.070   9.556   8.279 -0.0835 -0.3256  0.1284
  660MOL0     H91011   8.381   9.984   8.219 -1.6871 -1.9912  0.8839
  660MOL0     H91012   8.605  10.045   8.178 -0.3916 -0.2572 -1.5718
  660MOL0     H91013   8.858   9.782   7.910  1.7020 -1.0457 -0.0495
  660MOL0     H91014   8.915   9.709   8.061  0.9921  0.0997 -1.0677
  660MOL0     H91015   9.084   9.815   8.085  0.8316  0.7425 -0.0711
  660MOL0     H91016   9.088   9.828   7.915  3.0575 -0.4278  1.5740
  660MOL0     H91017   8.983  10.074   7.955 -0.4280  0.3091  0.2761
  660MOL0     H91018   9.015  10.051   8.122 -1.5810  0.3496 -0.4804
  660MOL0     H91019   9.255  10.017   8.072 -1.4000 -0.6093  1.6642
  660MOL0     H91020   9.242  10.035   7.908 -1.1506 -3.9899  0.2292
  660MOL0     H91021   9.117  10.284   7.972  0.9034  1.4317  0.2723
  660MOL0     H91022   9.296  10.258   7.974  0.3836  2.2242 -0.1367
  660MOL0     H91023   9.080  10.260   8.180  0.0851 -0.8047 -1.5677
  660MOL0     H91024   9.226  10.161   8.231 -0.8553  0.3061  0.6470
  660MOL0     H91025   9.259  10.382   8.316  0.3906 -2.2083  0.3139
  660MOL0     H91026   9.238  10.457   8.156 -1.5895 -1.8903 -2.8464
  660MOL0     H91027   9.443  10.367   8.077 -3.0699 -0.0230 -0.7614
  660MOL0     H91028   9.472  10.422   8.259  2.0458 -2.1363  1.5625
  660MOL0     H91029   9.511  10.250   8.438  0.1688 -0.0453  0.8241
  660MOL0     H91030   9.597   9.908   8.423 -0.2475 -0.6210 -0.2552
  660MOL0     H91031   9.644  10.054   8.523 -0.8629  2.2166 -0.8546
  660MOL0     H91032   9.782   9.895   8.307 -0.0690 -0.7332  1.0562
  660MOL0     H91033   9.848  10.059   8.350 -1.1292  0.5369 -1.9167
  660MOL0     H91034   9.869   9.996   8.588 -2.0765 -1.4827  2.3820
  660MOL0     H91035   9.793   9.835   8.549  0.1517 -2.2069 -3.4456
  660MOL0     H91036  10.040   9.828   8.580 -0.4818  0.8782  1.2415
  660MOL0     H91037   9.993   9.793   8.405 -2.6248 -0.1554  1.3942
  660MOL0     H91038  10.247  10.169   8.488 -1.8984 -2.0511 -5.5278
  660MOL0     H91039  10.416  10.278   8.571 -0.1430 -1.4273 -1.3955
  660MOL0     H91040  10.568  10.218   8.510  0.1886  1.9861  0.2856
  660MOL0     H91041  10.532  10.212   8.689  1.3381 -0.7919 -0.6471
  660MOL0     H91042  10.729   9.812   8.948  0.9102 -3.1126  0.9624
  660MOL0     H91043  10.963   9.831   9.021 -0.1060 -1.9762  0.0317
  660MOL0     H91044  11.179   9.608   8.969  2.4026  0.3200  2.6256
  660MOL0     H91045  11.246   9.615   8.798  2.6938  0.8757  0.2854
  660MOL0     H91046  11.363   9.727   9.064 -1.4314 -0.5056 -0.2175
  660MOL0     H91047  11.411   9.573   8.998  3.4893 -0.0661 -0.6450
  660MOL0     H91048  11.459   9.843   8.873  0.7709  0.2670 -0.4678
  660MOL0     H91049  11.493   9.694   8.789  0.1080 -1.2960  0.8419
  660MOL0     H91050  11.659   9.620   8.901 -0.4486 -0.8153  1.0543
  660MOL0     H91051  11.610   9.704   9.048  1.1944  0.4297  0.5828
  660MOL0     H91052  11.725   9.820   8.794 -2.6507 -1.0260 -0.3980
  660MOL0     H91053  11.684   9.922   8.942 -0.1543 -0.0027  0.8125
  660MOL0     H91054  11.914   9.719   8.922 -2.1098 -1.5570 -0.5131
  660MOL0     H91055  11.848   9.778   9.074  1.4454 -0.4516  0.2310
  660MOL0     H91056  11.908  10.014   9.003 -0.0589 -0.8875  0.6586
  660MOL0     H91057  11.962   9.948   8.841  1.0077 -1.0667 -0.4420
  660MOL0     H91058  12.147   9.843   8.966  4.4040  1.1188  4.3416
  660MOL0     H91059  12.076   9.856   9.120  0.8720  0.0246 -0.4982
  660MOL0     H91060  11.092   9.709   8.628 -0.1378 -2.1952  1.0261
  660MOL0     H91061  10.844   9.734   8.545 -0.4017 -0.1766 -0.4574
  660MOL0     H91062  10.461   9.729   8.525  0.2498 -0.2275 -1.5077
  660MOL0     H91063  10.237   9.758   8.434 -3.9686  2.2204  1.9298
  660MOL0     H91064   8.686   9.624   8.091 -0.7422  0.5294 -1.5675
  660MOL0     H91065   8.456   9.580   8.131 -0.3243  0.8782  0.0274
  660MOL0     H91066   7.947   9.995   8.146 -0.0506  1.0256  2.9576
  660MOL0     H91067   7.706   9.944   8.206  0.3006  0.7401  0.4282
  660MOL0     H91068   7.643   9.614   8.471 -0.9581 -0.7859  0.4256
  660MOL0     H91069   7.481   9.680   8.451  1.1959  0.5725  0.4167
  660MOL0     H91070   7.573   9.537   8.202 -1.0208 -2.4970 -1.0634
  660MOL0     H91071   7.419   9.549   8.262  1.1358  0.3795 -0.4895
  660MOL0     H91072   7.526   9.307   8.307 -0.5036 -0.8470 -0.0235
  660MOL0     H91073   7.609   9.393   8.437 -1.0540 -1.1451  0.2689
  660MOL0     H91074   7.312   9.351   8.410 -1.1003  2.9088 -0.5072
  660MOL0     H91075   7.376   9.469   8.512 -2.0723 -1.2006  0.0934
  660MOL0     H91076   7.553   9.113   8.675  0.1733 -0.4338  0.0659
  660MOL0     H91077   7.827   9.565   8.342  2.3018 -1.2985 -2.4133
  660MOL0     H91078   8.093   9.513   8.181  1.9017  0.5706  0.1603
  660MOL0     H91079   8.164   9.588   8.325  0.4599 -1.9525  0.1973
  660MOL0     H91080   8.029   9.475   8.340  0.5773 -2.6355 -2.3164
  661MOL0     O91081   1.752   3.487   6.169  0.0545  0.2006 -0.5190
  661MOL0     C91082   1.678   3.563   6.108 -0.3712  0.5653 -0.0807
  661MOL0     O91083   1.729   3.660   6.032 -0.0884 -0.1712 -0.3677
  661MOL0     C91084   1.835   3.631   5.949 -0.2835  0.3263 -0.3740
  661MOL0     C91085   1.886   3.504   5.893  0.3498  0.3286 -0.1782
  661MOL0     C91086   1.999   3.499   5.802  0.3833  0.0619  0.0588
  661MOL0     C91087   2.060   3.621   5.764 -0.5301  0.7076 -0.3128
  661MOL0     O91088   2.171   3.618   5.684  0.3247 -0.5475  0.1065
  661MOL0     C91089   2.180   3.529   5.576  0.5441 -0.4090  0.4734
  661MOL0     C91090   2.296   3.562   5.480  0.2046  0.2680 -0.2685
  661MOL0     C91091   2.280   3.481   5.347  0.0889  0.5911  0.4966
  661MOL0     C91092   2.402   3.503   5.257 -0.1971  0.2823 -0.0223
  661MOL0     C91093   2.388   3.454   5.112  0.2146 -0.7349 -0.6295
  661MOL0     C91094   2.514   3.481   5.039 -0.0452  0.6413  0.0756
  661MOL0     C91095   2.491   3.477   4.886 -0.1024 -0.2378  0.1566
  661MOL0     C91096   2.616   3.497   4.806 -0.1496  0.7267 -0.2274
  661MOL0     N91097   2.733   3.415   4.847  0.0565  0.9686 -0.3484
  661MOL0     C91098   2.761   3.283   4.801  0.3056 -0.0145 -0.8302
  661MOL0     C91099   2.867   3.245   4.874 -1.2305 -0.3059  0.5132
  661MOL0     C91100   2.928   3.104   4.880  0.2382 -0.3563  0.4778
  661MOL0     C91101   3.020   3.081   4.757  0.1134 -0.1468 -0.2917
  661MOL0     C91102   3.060   2.935   4.760 -0.8262  0.2718 -0.6484
  661MOL0     C91103   3.166   2.912   4.646 -0.2860 -0.0876 -0.4417
  661MOL0     O91104   3.103   2.949   4.525 -0.8239  0.5904  0.1581
  661MOL0     C91105   3.149   2.897   4.408  0.1634 -0.1546  0.1661
  661MOL0     C91106   3.081   2.925   4.286  0.3716 -0.8516 -0.1657
  661MOL0     C91107   3.114   2.872   4.159 -0.4286 -0.5851  0.1697
  661MOL0     C91108   3.020   2.901   4.047 -0.4268 -0.5303 -0.1832
  661MOL0     C91109   3.228   2.783   4.154  1.0663 -0.1808 -0.5598
  661MOL0     C91110   3.276   2.717   4.032  0.3032  0.7854 -0.8117
  661MOL0     O91111   3.198   2.715   3.919  0.5188  0.8523  0.7503
  661MOL0     C91112   3.250   2.668   3.797  0.6576  0.1792  0.0416
  661MOL0     C91113   3.165   2.611   3.701  0.4559  0.3163 -0.7932
  661MOL0     C91114   3.213   2.554   3.578  0.1553 -0.4569  1.0262
  661MOL0     C91115   3.348   2.539   3.546 -0.0830 -0.5083  0.6327
  661MOL0     O91116   3.386   2.485   3.420  0.2003  0.1085  0.2219
  661MOL0     C91117   3.498   2.544   3.345 -0.5057  0.7773  0.0680
  661MOL0     C91118   3.625   2.460   3.361  0.3180 -0.6668 -0.4824
  661MOL0     C91119   3.620   2.319   3.309  0.0746  0.2409 -0.0462
  661MOL0     C91120   3.547   2.315   3.176 -0.0055 -1.1653 -0.5153
  661MOL0     C91121   3.531   2.180   3.115  0.2245  0.4349  0.9348
  661MOL0     C91122   3.467   2.063   3.187 -0.9315 -0.2383 -0.7524
  661MOL0     C91123   3.324   2.099   3.232  0.6781  0.1647  0.5076
  661MOL0     C91124   3.239   1.972   3.248 -0.8324  0.6988 -0.0986
  661MOL0    Cl91125   3.171   1.923   3.088  0.2356  0.1045 -0.3182
  661MOL0     C91126   3.434   2.601   3.640  0.0823 -0.2932 -0.1561
  661MOL0     C91127   3.390   2.671   3.763 -1.0760 -0.0726  0.5347
  661MOL0     O91128   3.388   2.669   4.030 -0.1252  0.1471  0.4272
  661MOL0     C91129   3.302   2.762   4.271  0.2357 -0.8241  0.3905
  661MOL0     C91130   3.267   2.821   4.393  0.6454  0.7676 -0.2024
  661MOL0     N91131   2.903   3.349   4.959 -0.0735 -0.1249 -0.5181
  661MOL0     N91132   2.821   3.454   4.948 -1.6040  0.4482  0.3272
  661MOL0     C91133   2.008   3.736   5.814 -0.0095 -0.3677  0.1442
  661MOL0     C91134   1.901   3.745   5.901 -0.1773 -0.4681 -0.5414
  661MOL0     C91135   1.533   3.574   6.163  0.0099  0.7027  0.3917
  661MOL0     C91136   1.475   3.700   6.184  0.5272  0.2777  0.3671
  661MOL0     C91137   1.348   3.702   6.240 -0.7403 -0.1887 -0.5214
  661MOL0     C91138   1.282   3.594   6.285  0.4830  0.6884  0.0648
  661MOL0     O91139   1.157   3.593   6.336  0.5452 -0.2732 -0.9017
  661MOL0     C91140   1.092   3.714   6.369  0.2041  0.0345  0.9173
  661MOL0     C91141   0.958   3.690   6.428  0.5128  0.2525  0.8932
  661MOL0     C91142   0.866   3.602   6.333 -0.5671  0.2697 -0.7592
  661MOL0     C91143   0.904   3.457   6.292 -0.0575 -0.3348 -0.3600
  661MOL0     C91144   0.791   3.372   6.260 -0.6828 -0.4406  1.0574
  661MOL0     C91145   0.700   3.296   6.259  0.0823  0.5313 -0.6531
  661MOL0     C91146   1.334   3.472   6.246  0.8197 -0.5022  0.3900
  661MOL0     C91147   1.453   3.454   6.183 -0.4763  0.3902 -0.4494
  661MOL0     C91148   1.501   3.316   6.153 -0.0245  0.4132 -0.5480
  661MOL0     H91149   1.850   3.408   5.928  2.0129  0.0165  0.7672
  661MOL0     H91150   2.043   3.407   5.765  2.0348  0.5078  0.8098
  661MOL0     H91151   2.087   3.531   5.519  1.3720 -0.9066 -0.9465
  661MOL0     H91152   2.196   3.426   5.610 -2.0246 -0.4033  1.9642
  661MOL0     H91153   2.266   3.664   5.452  1.0395  1.4212  2.6760
  661MOL0     H91154   2.398   3.555   5.517  0.9250  0.8823 -2.0154
  661MOL0     H91155   2.265   3.376   5.372 -0.2167  1.0352  2.3340
  661MOL0     H91156   2.182   3.514   5.310 -0.4295 -2.4657 -1.1633
  661MOL0     H91157   2.435   3.607   5.263  0.7702 -0.0019 -0.2635
  661MOL0     H91158   2.484   3.449   5.304  0.6157  2.0250  0.6214
  661MOL0     H91159   2.304   3.516   5.078 -1.4057 -2.5579 -0.1183
  661MOL0     H91160   2.350   3.352   5.113 -0.1422 -0.6482 -2.0885
  661MOL0     H91161   2.542   3.585   5.059  1.3440 -0.1402  2.7081
  661MOL0     H91162   2.599   3.422   5.074 -0.7017 -0.6705 -0.4606
  661MOL0     H91163   2.420   3.554   4.858  2.4066  1.9448 -0.5887
  661MOL0     H91164   2.452   3.379   4.857 -0.8284 -0.3509  1.4219
  661MOL0     H91165   2.580   3.481   4.704 -1.1833  2.2591 -0.1383
  661MOL0     H91166   2.660   3.596   4.824  2.1286 -0.3414  0.4688
  661MOL0     H91167   2.704   3.219   4.734 -1.3655 -0.2627  0.7493
  661MOL0     H91168   2.843   3.036   4.879 -0.5141  0.5432 -1.4678
  661MOL0     H91169   3.000   3.097   4.962  1.7478  3.3732 -0.2860
  661MOL0     H91170   2.956   3.092   4.668 -0.4037 -0.0925  0.0794
  661MOL0     H91171   3.103   3.152   4.754 -1.5193  1.8514 -2.8880
  661MOL0     H91172   3.108   2.908   4.854  0.0474 -2.3818 -1.7646
  661MOL0     H91173   2.972   2.872   4.743 -0.0461 -0.7103 -1.1506
  661MOL0     H91174   3.264   2.958   4.662 -0.1543 -0.8373  1.0191
  661MOL0     H91175   3.185   2.805   4.642 -1.3801 -0.5869  3.3913
  661MOL0     H91176   2.993   2.984   4.310 -1.1415 -3.1402  0.2655
  661MOL0     H91177   3.078   2.909   3.955  0.8783  1.2810  0.7372
  661MOL0     H91178   2.973   2.999   4.061 -1.4525 -0.5933 -2.6413
  661MOL0     H91179   2.946   2.821   4.036 -3.1445  1.2128  3.1753
  661MOL0     H91180   3.059   2.600   3.723  0.0370 -1.2254 -3.1982
  661MOL0     H91181   3.137   2.499   3.523  1.6981 -2.7722  1.0639
  661MOL0     H91182   3.480   2.554   3.238 -2.1633  1.2276  0.3560
  661MOL0     H91183   3.507   2.647   3.380  1.5585  0.5584  0.3425
  661MOL0     H91184   3.704   2.523   3.320 -0.3062  0.9749  0.7690
  661MOL0     H91185   3.654   2.445   3.465  1.3859 -1.6762 -0.8984
  661MOL0     H91186   3.581   2.252   3.387 -0.1290  0.3503 -0.0512
  661MOL0     H91187   3.719   2.277   3.293  0.5624  1.5393 -0.5387
  661MOL0     H91188   3.597   2.377   3.101  1.0531  1.3788  2.1217
  661MOL0     H91189   3.445   2.354   3.185  0.9897  2.1832 -2.1259
  661MOL0     H91190   3.473   2.206   3.026 -0.4921  0.5716  1.4293
  661MOL0     H91191   3.627   2.141   3.080  1.0553  1.7907  1.6280
  661MOL0     H91192   3.530   2.040   3.274  0.7774 -0.1588 -1.9050
  661MOL0     H91193   3.451   1.978   3.121 -2.7623 -1.6133  1.3342
  661MOL0     H91194   3.284   2.168   3.158  0.6706 -0.5384 -0.1495
  661MOL0     H91195   3.328   2.141   3.333 -1.9780  2.3236 -0.1656
  661MOL0     H91196   3.155   1.996   3.314 -0.3544  1.0466  0.3989
  661MOL0     H91197   3.298   1.902   3.308 -1.2972  0.6071  0.2608
  661MOL0     H91198   3.540   2.606   3.615 -0.3407 -0.6856 -2.2534
  661MOL0     H91199   3.466   2.722   3.821  0.5890 -0.9946 -0.7197
  661MOL0     H91200   3.385   2.693   4.263  0.6102 -0.2235 -1.3647
  661MOL0     H91201   3.338   2.808   4.475  0.6887 -1.7388 -0.5494
  661MOL0     H91202   2.057   3.831   5.796 -0.2557 -0.1702  0.4890
  661MOL0     H91203   1.862   3.844   5.924  0.4441 -0.5890  1.2424
  661MOL0     H91204   1.516   3.796   6.154  3.7716 -0.4575  1.9880
  661MOL0     H91205   1.304   3.800   6.256  0.1347 -0.0852  1.5843
  661MOL0     H91206   1.155   3.771   6.438  0.8130 -1.0954  1.3358
  661MOL0     H91207   1.075   3.770   6.277 -1.8864 -1.4195  0.3477
  661MOL0     H91208   0.914   3.786   6.457  0.8867 -0.1239  2.8219
  661MOL0     H91209   0.969   3.640   6.525  1.1598 -0.2101  0.5849
  661MOL0     H91210   0.769   3.591   6.384 -0.4663  1.0795 -0.3795
  661MOL0     H91211   0.845   3.673   6.252 -1.2593 -0.9322 -1.6741
  661MOL0     H91212   0.969   3.408   6.366  0.2755 -2.1567 -1.7737
  661MOL0     H91213   0.962   3.477   6.201  1.3871 -1.2433  0.3159
  661MOL0     H91214   0.627   3.217   6.259 -0.3803  0.7971  2.7355
  661MOL0     H91215   1.269   3.388   6.269 -0.1157  0.5390  1.6518
  661MOL0     H91216   1.592   3.298   6.210  0.4634 -1.0653 -1.7171
  661MOL0     H91217   1.420   3.246   6.180 -0.8233  1.8680  1.0523
  661MOL0     H91218   1.526   3.306   6.047  1.0756 -1.5096 -0.1413
  662MOL0     O91219   7.533  11.328   3.018 -0.5695 -0.0134  0.5276
  662MOL0     C91220   7.472  11.220   3.004 -0.6456 -0.9182  0.3915
  662MOL0     O91221   7.517  11.102   2.950 -0.9369 -0.3217  0.7775
  662MOL0     C91222   7.628  11.092   2.866  0.1319  1.1953 -0.2029
  662MOL0     C91223   7.708  11.191   2.811  0.8495 -0.7730  0.1056
  662MOL0     C91224   7.828  11.155   2.738  0.4844 -1.0860  0.3460
  662MOL0     C91225   7.858  11.022   2.723  0.0181  0.4262 -0.8570
  662MOL0     O91226   7.974  11.005   2.659 -0.3646 -0.5305  0.7810
  662MOL0     C91227   8.018  10.864   2.638  0.4208  0.5113  0.2976
  662MOL0     C91228   8.158  10.856   2.582 -0.4515  0.4689  0.2928
  662MOL0     C91229   8.260  10.924   2.676  0.1016 -0.9625  0.7947
  662MOL0     C91230   8.397  10.901   2.612 -0.3518 -1.0429  0.0015
  662MOL0     C91231   8.524  10.956   2.696  0.5961 -0.2186  0.5527
  662MOL0     C91232   8.650  10.945   2.621 -0.1230  0.6839 -0.2908
  662MOL0     C91233   8.766  11.036   2.666 -0.1668 -0.1536  0.6669
  662MOL0     C91234   8.899  10.957   2.635  0.3233  0.1420  0.0037
  662MOL0     N91235   8.938  10.988   2.500 -0.2707  0.5492 -1.0348
  662MOL0     C91236   8.907  10.910   2.393  0.4181 -0.7496  0.4166
  662MOL0     C91237   8.940  10.987   2.292 -0.3333  0.4564 -0.0672
  662MOL0     C91238   8.920  10.957   2.151 -0.1250  0.1774 -0.0906
  662MOL0     C91239   9.004  10.841   2.103  0.0217  0.3231 -1.2412
  662MOL0     C91240   9.146  10.885   2.068 -0.8147  0.2183  0.0475
  662MOL0     C91241   9.241  10.769   2.080 -0.0756  0.1025 -0.4127
  662MOL0     O91242   9.373  10.803   2.035 -0.6445 -0.1554 -0.1451
  662MOL0     C91243   9.474  10.710   2.053  0.1062  0.6402 -0.6272
  662MOL0     C91244   9.597  10.737   1.990 -0.1372  0.3213  0.1204
  662MOL0     C91245   9.708  10.650   2.000  0.3310  0.1274  0.3318
  662MOL0     C91246   9.832  10.703   1.930 -0.5240 -0.5586 -0.0296
  662MOL0     C91247   9.694  10.529   2.067  0.0217 -0.2679  1.1170
  662MOL0     C91248   9.806  10.446   2.070  0.2691 -0.3080  0.3500
  662MOL0     O91249   9.858  10.407   1.942  0.0229 -0.4273 -0.8656
  662MOL0     C91250   9.983  10.347   1.951  0.3740  0.6041 -0.2747
  662MOL0     C91251  10.102  10.406   1.931  0.2755 -0.1176 -0.2848
  662MOL0     C91252  10.220  10.332   1.934 -0.6343 -0.3147  0.7335
  662MOL0     C91253  10.227  10.193   1.952 -0.4702  0.0308 -0.9676
  662MOL0     O91254  10.348  10.126   1.960  0.2421 -0.0879 -0.1485
  662MOL0     C91255  10.352   9.996   1.897  0.1779 -0.2230 -0.3616
  662MOL0     C91256  10.498   9.933   1.907 -0.6658 -0.9478  1.0123
  662MOL0     C91257  10.502   9.817   1.800 -0.4128  0.0372 -0.3781
  662MOL0     C91258  10.494   9.870   1.655  0.1558  0.0719 -0.1487
  662MOL0     C91259  10.383   9.792   1.582 -0.4224 -0.1806  0.0288
  662MOL0     C91260  10.390   9.831   1.434  0.3536  0.2511 -0.9230
  662MOL0     C91261  10.274   9.774   1.357 -0.4973  0.1559  0.6086
  662MOL0     C91262  10.267   9.826   1.215  0.2593 -0.5199  0.1313
  662MOL0    Cl91263  10.150   9.728   1.133 -0.0510  0.6182 -0.3749
  662MOL0     C91264  10.101  10.131   1.979  0.6095 -0.5418 -0.0949
  662MOL0     C91265   9.980  10.208   1.978 -0.1164 -0.1141 -0.0816
  662MOL0     O91266   9.850  10.410   2.175  0.1926  0.3976  0.1196
  662MOL0     C91267   9.576  10.501   2.142  0.4260  0.3367 -0.3378
  662MOL0     C91268   9.471  10.595   2.144  0.6184 -0.3166  0.3904
  662MOL0     N91269   9.006  11.099   2.332  0.3939  0.2585  0.5969
  662MOL0     N91270   8.995  11.103   2.458  0.0079  0.4301  0.5507
  662MOL0     C91271   7.778  10.922   2.780  0.2239 -0.4158  0.8259
  662MOL0     C91272   7.666  10.957   2.852 -0.3039 -0.2724  0.1080
  662MOL0     C91273   7.326  11.208   3.040 -0.5792 -0.2397 -0.4047
  662MOL0     C91274   7.278  11.079   3.064  0.0175 -0.0608 -0.1739
  662MOL0     C91275   7.145  11.052   3.108  0.8750 -0.6413  0.1526
  662MOL0     C91276   7.058  11.167   3.132  0.1922  1.7544 -0.3924
  662MOL0     O91277   6.932  11.157   3.192 -0.4137  0.3888  0.2966
  662MOL0     C91278   6.871  11.025   3.210 -0.0561 -0.0959  0.8536
  662MOL0     C91279   6.754  11.035   3.308  0.3571 -0.4794 -0.0864
  662MOL0     C91280   6.626  11.096   3.250 -0.2685 -0.2861 -0.2847
  662MOL0     C91281   6.507  11.063   3.340  0.5809  0.1724 -0.5553
  662MOL0     C91282   6.372  11.074   3.284  0.2680 -0.0999  0.6162
  662MOL0     C91283   6.259  11.087   3.254  0.3163 -0.7377  0.8995
  662MOL0     C91284   7.105  11.290   3.097 -0.2444  0.0899  0.1636
  662MOL0     C91285   7.235  11.314   3.057  0.1379  0.3156  0.6787
  662MOL0     C91286   7.267  11.459   3.021 -0.3323 -0.1032  0.0782
  662MOL0     H91287   7.669  11.292   2.816  2.4995  0.3554 -4.4523
  662MOL0     H91288   7.894  11.231   2.697 -1.1733 -1.2167 -2.8642
  662MOL0     H91289   7.958  10.802   2.572  1.5024  0.2693 -0.4840
  662MOL0     H91290   8.027  10.818   2.737 -1.9576  1.3904  0.9969
  662MOL0     H91291   8.187  10.751   2.572 -0.5641  0.2663  1.9355
  662MOL0     H91292   8.148  10.908   2.486 -3.2647  1.7246  1.1713
  662MOL0     H91293   8.246  11.032   2.678 -1.0761 -1.1051  0.7379
  662MOL0     H91294   8.251  10.874   2.774 -0.6001 -1.0169  0.7043
  662MOL0     H91295   8.422  10.798   2.587  1.2022 -0.0219 -3.3033
  662MOL0     H91296   8.383  10.948   2.514  0.8078 -0.1042  0.2631
  662MOL0     H91297   8.522  10.908   2.794 -1.6865  0.1077  0.7247
  662MOL0     H91298   8.514  11.063   2.714 -0.7486 -0.7362  3.5755
  662MOL0     H91299   8.678  10.840   2.630  0.8218  1.0271  1.0288
  662MOL0     H91300   8.645  10.948   2.511  0.0208  0.0186 -0.3160
  662MOL0     H91301   8.766  11.053   2.774  0.8071  1.0262  0.5065
  662MOL0     H91302   8.769  11.130   2.609 -1.0245 -1.6402 -2.0083
  662MOL0     H91303   8.981  10.984   2.702  3.5022 -2.2480 -2.5991
  662MOL0     H91304   8.878  10.850   2.649 -2.6240  0.5158 -0.8650
  662MOL0     H91305   8.860  10.812   2.385 -0.7152 -0.0664 -2.8105
  662MOL0     H91306   8.929  11.050   2.095  2.2277  0.2457  0.2919
  662MOL0     H91307   8.816  10.923   2.145 -0.5003  1.2310  0.3436
  662MOL0     H91308   8.986  10.755   2.168 -0.6193  2.5058  1.6883
  662MOL0     H91309   8.957  10.827   2.005 -1.0149  3.7932 -1.3738
  662MOL0     H91310   9.152  10.917   1.964  0.5186 -0.8667 -0.2208
  662MOL0     H91311   9.189  10.954   2.142  0.3807  0.8568 -1.1922
  662MOL0     H91312   9.239  10.740   2.185 -2.4691  2.4644  0.3150
  662MOL0     H91313   9.201  10.690   2.017  0.6502 -1.5196  1.0820
  662MOL0     H91314   9.603  10.832   1.938  3.2688  0.6435  0.8885
  662MOL0     H91315   9.921  10.653   1.968  0.6354 -2.5817 -4.7142
  662MOL0     H91316   9.838  10.811   1.946  0.4228 -0.8079  1.4885
  662MOL0     H91317   9.822  10.689   1.821  1.9724  1.9687 -0.6998
  662MOL0     H91318  10.116  10.513   1.924  0.0106 -0.0025  0.6995
  662MOL0     H91319  10.312  10.380   1.903 -0.4125 -1.6712 -0.8389
  662MOL0     H91320  10.271   9.937   1.942  0.6993  0.8684  2.1999
  662MOL0     H91321  10.317  10.011   1.795 -0.8808  1.8384  0.2329
  662MOL0     H91322  10.576  10.009   1.893  0.0063 -1.6056  1.1352
  662MOL0     H91323  10.508   9.889   2.006 -1.7546  1.7397  2.4138
  662MOL0     H91324  10.420   9.750   1.826  0.2967 -1.2851 -1.4507
  662MOL0     H91325  10.590   9.753   1.811 -1.1045 -0.7326  0.8907
  662MOL0     H91326  10.592   9.852   1.608  1.4398 -2.5456  3.0983
  662MOL0     H91327  10.484   9.979   1.647 -1.2834 -0.1276 -1.7902
  662MOL0     H91328  10.391   9.686   1.608  1.3628 -0.0007  0.3866
  662MOL0     H91329  10.287   9.827   1.620 -0.8454 -0.7504 -0.4863
  662MOL0     H91330  10.487   9.800   1.395  0.1611  1.3794 -2.4128
  662MOL0     H91331  10.390   9.940   1.428  1.3821  0.4019  1.0082
  662MOL0     H91332  10.183   9.796   1.414 -2.0217 -2.5023 -0.5863
  662MOL0     H91333  10.293   9.666   1.356 -0.9907  0.0647  0.2148
  662MOL0     H91334  10.358   9.815   1.156  1.4179  3.0202  1.0326
  662MOL0     H91335  10.227   9.927   1.225 -0.1539 -0.9064  3.9282
  662MOL0     H91336  10.093  10.023   1.993 -0.9982 -0.3946  0.3776
  662MOL0     H91337   9.885  10.169   2.014 -1.1050 -0.2743 -2.6327
  662MOL0     H91338   9.577  10.417   2.211 -0.2818 -1.1793 -2.0884
  662MOL0     H91339   9.382  10.581   2.204  0.4749 -3.0436 -0.3353
  662MOL0     H91340   7.793  10.816   2.763 -2.6611 -0.5745 -1.5354
  662MOL0     H91341   7.616  10.877   2.907  0.3857 -1.7584 -1.3334
  662MOL0     H91342   7.337  10.990   3.046 -1.8886 -0.9403 -2.5844
  662MOL0     H91343   7.108  10.951   3.120  0.4055 -0.2743  2.0775
  662MOL0     H91344   6.833  10.987   3.115 -2.6493 -1.6088  2.3699
  662MOL0     H91345   6.942  10.950   3.248 -1.0337 -1.2463  0.4736
  662MOL0     H91346   6.786  11.094   3.394 -0.0118  1.0097 -0.9215
  662MOL0     H91347   6.737  10.935   3.349  0.3802  0.3349  1.9973
  662MOL0     H91348   6.632  11.205   3.244 -0.6255 -0.3058 -1.3150
  662MOL0     H91349   6.604  11.064   3.147 -0.5466 -1.1616  0.0333
  662MOL0     H91350   6.502  11.129   3.427 -0.7460 -0.3120 -0.2441
  662MOL0     H91351   6.515  10.959   3.370  0.5559  0.8935  2.2928
  662MOL0     H91352   6.154  11.082   3.235  0.4934 -1.4946  0.0616
  662MOL0     H91353   7.053  11.382   3.118  1.2133  1.0043 -0.0475
  662MOL0     H91354   7.332  11.496   3.100  1.8751  0.1419 -1.7500
  662MOL0     H91355   7.313  11.456   2.922 -0.9489 -0.3216 -0.2102
  662MOL0     H91356   7.173  11.515   3.012 -2.0764 -2.8752 -0.6954
  663MOL0     O91357   7.315  10.820  10.831  0.1491  0.3974 -0.0897
  663MOL0     C91358   7.320  10.767  10.940  0.4845  0.5062  0.1869
  663MOL0     O91359   7.437  10.724  11.000  0.0560 -0.2663  0.4878
  663MOL0     C91360   7.557  10.756  10.939  0.1410  0.2802  0.5741
  663MOL0     C91361   7.607  10.880  10.913 -0.0903 -0.6352 -0.2918
  663MOL0     C91362   7.733  10.895  10.854 -0.3154 -0.2877 -0.8284
  663MOL0     C91363   7.814  10.781  10.810  0.1778 -0.3912 -0.0166
  663MOL0     O91364   7.946  10.791  10.762  0.5590  0.8951 -0.8188
  663MOL0     C91365   8.008  10.916  10.736  0.4860  0.3982  0.3408
  663MOL0     C91366   8.158  10.890  10.695 -0.6827 -0.3186 -0.1548
  663MOL0     C91367   8.258  10.887  10.814  0.6016  0.2221  1.1361
  663MOL0     C91368   8.396  10.915  10.768 -0.1921  0.4184  0.0636
  663MOL0     C91369   8.476  10.900  10.892  0.8227 -0.2940  0.1008
  663MOL0     C91370   8.624  10.929  10.876 -0.6167  0.0232  0.4090
  663MOL0     C91371   8.713  10.900  10.995 -0.0501  0.0522  0.0462
  663MOL0     C91372   8.862  10.909  10.962  0.1759  0.7287  0.0918
  663MOL0     N91373   8.910  11.047  10.946 -1.0835  0.0635 -0.1347
  663MOL0     C91374   8.887  11.129  10.835  0.4502 -0.3225  0.0086
  663MOL0     C91375   8.934  11.246  10.873 -0.4275 -0.1668 -0.6396
  663MOL0     C91376   8.940  11.370  10.795  0.4546 -1.2002  0.5942
  663MOL0     C91377   9.052  11.363  10.690  0.4464 -0.4492  0.3385
  663MOL0     C91378   9.194  11.371  10.745  0.5936 -0.9468 -0.5306
  663MOL0     C91379   9.290  11.434  10.647  0.4716 -0.0664  0.1615
  663MOL0     O91380   9.428  11.414  10.695  0.0922 -0.0116  0.1803
  663MOL0     C91381   9.531  11.480  10.632  0.7910 -0.6370  0.6516
  663MOL0     C91382   9.638  11.539  10.707 -0.2405 -0.3292 -0.1343
  663MOL0     C91383   9.743  11.599  10.645  0.8022  0.2476  0.3051
  663MOL0     C91384   9.846  11.662  10.737  0.1346  0.0969  0.2792
  663MOL0     C91385   9.749  11.608  10.503 -0.3197  0.0464  0.2275
  663MOL0     C91386   9.866  11.673  10.426 -0.8464 -0.9880  0.4053
  663MOL0     O91387   9.857  11.673  10.289 -0.0026 -0.4647 -0.0799
  663MOL0     C91388   9.943  11.762  10.226  0.4513  0.1106  0.2335
  663MOL0     C91389   9.946  11.901  10.252 -0.0324 -0.9257  0.2724
  663MOL0     C91390  10.014  11.991  10.174  1.0792  0.1381 -0.3314
  663MOL0     C91391  10.074  11.948  10.056  0.5073 -0.4786 -0.6316
  663MOL0     O91392  10.151  12.025   9.969 -0.7185 -0.2376 -1.0735
  663MOL0     C91393  10.187  12.162  10.007 -1.1660 -0.5623  1.2991
  663MOL0     C91394  10.085  12.274   9.973  1.0216  0.1603 -0.6312
  663MOL0     C91395  10.057  12.304   9.822  0.6899  0.5231 -0.2489
  663MOL0     C91396  10.187  12.337   9.744 -0.0269  0.1446 -0.4192
  663MOL0     C91397  10.164  12.363   9.593  0.2508 -0.3845 -0.4709
  663MOL0     C91398  10.287  12.426   9.520 -0.1289  0.1176 -0.4670
  663MOL0     C91399  10.307  12.416   9.368 -0.7914  0.0803  0.5292
  663MOL0     C91400  10.216  12.525   9.289 -0.6975 -0.9307  0.1564
  663MOL0    Cl91401  10.297  12.678   9.342 -0.3235 -0.0270 -0.1129
  663MOL0     C91402  10.080  11.820  10.031  0.0214  0.3901 -1.0578
  663MOL0     C91403  10.014  11.722  10.109  0.4146 -0.0423 -0.4457
  663MOL0     O91404   9.970  11.700  10.487 -0.2432 -0.1966 -0.1399
  663MOL0     C91405   9.649  11.550  10.423 -0.4979  0.6097  0.1554
  663MOL0     C91406   9.540  11.492  10.492  0.1067 -0.0534 -0.3562
  663MOL0     N91407   8.996  11.229  11.001 -0.0299 -0.3127 -0.2137
  663MOL0     N91408   8.993  11.111  11.043 -0.3705 -0.3328  0.3316
  663MOL0     C91409   7.753  10.655  10.837  1.0974 -0.5749 -0.1830
  663MOL0     C91410   7.628  10.646  10.905 -0.5686 -0.1580  0.2744
  663MOL0     C91411   7.187  10.726  11.003  0.6727 -0.1765  0.0606
  663MOL0     C91412   7.175  10.632  11.102 -0.8564  0.2921  0.3920
  663MOL0     C91413   7.054  10.585  11.154 -0.4520 -0.7257  0.8000
  663MOL0     C91414   6.932  10.633  11.109  0.0672 -0.4391  0.4279
  663MOL0     O91415   6.817  10.585  11.171 -0.0540 -0.8286  0.7176
  663MOL0     C91416   6.701  10.602  11.092 -0.8222  0.2406 -0.0315
  663MOL0     C91417   6.587  10.532  11.171  0.0456 -0.4804  1.2875
  663MOL0     C91418   6.618  10.378  11.193  0.8857 -0.2099 -0.3907
  663MOL0     C91419   6.503  10.306  11.269  0.3236 -0.1314 -0.7632
  663MOL0     C91420   6.370  10.338  11.224 -0.5715  0.4533 -1.0815
  663MOL0     C91421   6.249  10.354  11.192 -0.0039 -0.0302 -0.2491
  663MOL0     C91422   6.938  10.742  11.018 -0.1278  0.6320 -0.6711
  663MOL0     C91423   7.058  10.792  10.966 -0.0454  0.6110 -0.3638
  663MOL0     C91424   7.051  10.915  10.882 -0.0263 -0.5229 -0.3925
  663MOL0     H91425   7.551  10.966  10.950  0.6889 -0.9002  1.6820
  663MOL0     H91426   7.776  10.995  10.861  0.9069 -0.9414  2.6376
  663MOL0     H91427   8.004  10.977  10.827  0.9023 -0.7644  1.1520
  663MOL0     H91428   7.951  10.966  10.657  0.2710  0.5531  0.5960
  663MOL0     H91429   8.164  10.798  10.635  1.3344  1.4936 -3.0058
  663MOL0     H91430   8.185  10.978  10.637 -0.6058  2.4485  3.7383
  663MOL0     H91431   8.227  10.953  10.895  1.8436  0.9712  1.0278
  663MOL0     H91432   8.243  10.788  10.857 -0.7849 -0.8045 -1.4828
  663MOL0     H91433   8.434  10.830  10.712 -2.1026 -0.7485  0.4573
  663MOL0     H91434   8.408  11.008  10.710  0.5432  0.1261 -0.2584
  663MOL0     H91435   8.454  10.802  10.935 -2.6044 -0.0538 -0.8227
  663MOL0     H91436   8.442  10.973  10.967 -0.2710 -0.2085 -0.4661
  663MOL0     H91437   8.652  10.867  10.790  0.4872  0.2708  0.5836
  663MOL0     H91438   8.626  11.031  10.835  0.3813 -0.9127 -2.0892
  663MOL0     H91439   8.685  10.806  11.042  0.5339  0.7260  1.7893
  663MOL0     H91440   8.694  10.974  11.073 -1.3834  0.3015 -0.4720
  663MOL0     H91441   8.903  10.852  11.046 -1.6709 -2.0191 -0.7419
  663MOL0     H91442   8.878  10.853  10.869 -1.8385  0.5866 -0.2261
  663MOL0     H91443   8.835  11.106  10.743 -0.0470 -0.4380  0.3148
  663MOL0     H91444   8.961  11.458  10.855  2.3998 -0.6789 -0.7644
  663MOL0     H91445   8.847  11.385  10.738  1.6341 -0.1533 -1.1457
  663MOL0     H91446   9.049  11.263  10.646  1.1228 -0.7192  0.8935
  663MOL0     H91447   9.038  11.444  10.618 -0.2250 -0.3576  0.5601
  663MOL0     H91448   9.201  11.425  10.840  0.6752 -2.0367  0.1014
  663MOL0     H91449   9.243  11.276  10.769  1.6883 -0.6236 -1.4163
  663MOL0     H91450   9.275  11.382  10.551  1.5122 -0.1790  0.0517
  663MOL0     H91451   9.261  11.538  10.633  0.0967 -0.4094 -1.9743
  663MOL0     H91452   9.635  11.535  10.816 -1.1141 -1.1884 -0.1745
  663MOL0     H91453   9.860  11.762  10.695 -1.5876 -0.8819 -2.9824
  663MOL0     H91454   9.933  11.596  10.731 -0.2828 -0.4678  0.2662
  663MOL0     H91455   9.807  11.675  10.838  0.5543  3.1664  0.1117
  663MOL0     H91456   9.896  11.931  10.343  1.3024  1.9130  0.1732
  663MOL0     H91457  10.013  12.098  10.190 -1.1214  0.5682 -2.6055
  663MOL0     H91458  10.209  12.173  10.113  0.2063 -0.6918  1.0489
  663MOL0     H91459  10.278  12.196   9.956  0.0681 -2.4164  2.1673
  663MOL0     H91460   9.989  12.235  10.009  0.9198  0.1636 -0.8997
  663MOL0     H91461  10.121  12.356  10.035  1.3286 -1.7711  1.9263
  663MOL0     H91462   9.987  12.388   9.817  0.0209 -0.0880 -3.1765
  663MOL0     H91463  10.011  12.215   9.778  1.2848 -0.0460  0.2614
  663MOL0     H91464  10.246  12.245   9.748 -1.9256 -1.1086  2.5662
  663MOL0     H91465  10.246  12.415   9.793  2.3384 -0.5439 -1.9824
  663MOL0     H91466  10.131  12.272   9.543  1.2440 -0.3781 -1.1476
  663MOL0     H91467  10.084  12.438   9.604  0.9119  0.0720  1.9368
  663MOL0     H91468  10.380  12.385   9.560  0.5357  2.9335  1.1972
  663MOL0     H91469  10.299  12.531   9.551 -1.3062  0.8591 -2.3613
  663MOL0     H91470  10.282  12.313   9.343 -1.3580  0.1269  0.8721
  663MOL0     H91471  10.412  12.437   9.347 -0.2060 -3.3293 -0.5011
  663MOL0     H91472  10.113  12.522   9.324 -0.0762 -2.9282  2.0627
  663MOL0     H91473  10.216  12.509   9.181 -1.3056  0.8875 -0.1421
  663MOL0     H91474  10.139  11.799   9.942 -2.7794  0.9307 -3.2001
  663MOL0     H91475  10.021  11.614  10.095  0.0505 -0.3930  1.7382
  663MOL0     H91476   9.654  11.543  10.315  0.7733  0.9835  0.1690
  663MOL0     H91477   9.458  11.453  10.434  0.7846 -2.1550 -0.0137
  663MOL0     H91478   7.800  10.559  10.818 -1.3816 -1.8895 -0.1476
  663MOL0     H91479   7.586  10.550  10.932  0.7451 -1.0550 -0.7475
  663MOL0     H91480   7.266  10.585  11.136 -0.2086  0.2459 -1.3319
  663MOL0     H91481   7.047  10.510  11.232  1.9978  0.4378  2.2606
  663MOL0     H91482   6.678  10.709  11.093 -0.6227  0.2862  1.0175
  663MOL0     H91483   6.706  10.557  10.993 -1.9757 -0.5442  0.2354
  663MOL0     H91484   6.489  10.545  11.123 -0.1847  1.5451  2.2142
  663MOL0     H91485   6.570  10.570  11.272  2.4796  1.0324  1.1944
  663MOL0     H91486   6.633  10.341  11.092  0.1581 -0.2495 -0.4873
  663MOL0     H91487   6.704  10.365  11.259  1.8203  1.2415 -1.2732
  663MOL0     H91488   6.513  10.326  11.376  2.4078  0.4441 -1.0137
  663MOL0     H91489   6.516  10.201  11.244 -1.4420  0.2297 -3.6155
  663MOL0     H91490   6.146  10.383  11.184  0.0192  1.1321  2.5266
  663MOL0     H91491   6.850  10.804  11.000 -0.1139  0.7114 -0.4745
  663MOL0     H91492   6.948  10.949  10.885  0.0427 -0.2471 -1.0092
  663MOL0     H91493   7.118  10.992  10.923 -0.4308 -1.9565  3.4309
  663MOL0     H91494   7.073  10.887  10.779 -0.8276 -1.1666 -0.3950
  664MOL0     O91495   0.886   5.325   9.362  0.1158 -0.5467 -0.1634
  664MOL0     C91496   0.845   5.211   9.378 -1.4901  0.1147 -0.4645
  664MOL0     O91497   0.918   5.099   9.391 -0.1301  0.2362  0.6180
  664MOL0     C91498   1.036   5.081   9.324  0.3718  0.4769 -0.7391
  664MOL0     C91499   1.081   5.156   9.216  0.0940 -0.2950 -0.1274
  664MOL0     C91500   1.205   5.132   9.166  0.1707  0.4100 -1.1479
  664MOL0     C91501   1.289   5.032   9.221 -0.0408 -0.6914 -0.5083
  664MOL0     O91502   1.420   5.009   9.189 -0.2714 -0.4268 -0.3428
  664MOL0     C91503   1.482   5.080   9.080 -1.5036 -0.3472  1.0728
  664MOL0     C91504   1.535   5.213   9.131 -0.1940  0.3096 -0.0539
  664MOL0     C91505   1.676   5.202   9.183 -0.3767  0.2328 -0.6813
  664MOL0     C91506   1.777   5.203   9.071  0.1578  0.3851 -0.4789
  664MOL0     C91507   1.923   5.230   9.115  0.4973  0.6322  0.5090
  664MOL0     C91508   2.019   5.207   9.004  0.0654 -0.2077  0.0820
  664MOL0     C91509   2.165   5.248   9.033 -0.5872 -0.2671  0.1002
  664MOL0     C91510   2.254   5.167   8.938  0.6657  0.4280 -0.3537
  664MOL0     N91511   2.395   5.199   8.961  0.5575  0.1198 -0.2199
  664MOL0     C91512   2.466   5.297   8.906 -0.7879 -0.0318  0.5591
  664MOL0     C91513   2.592   5.263   8.914 -0.1540  0.2522 -0.3796
  664MOL0     C91514   2.695   5.342   8.851 -1.0611 -0.1156  0.2889
  664MOL0     C91515   2.713   5.313   8.700  0.2545  0.5597 -0.4489
  664MOL0     C91516   2.739   5.431   8.606 -0.5904  0.2102 -0.1337
  664MOL0     C91517   2.683   5.412   8.463 -0.3392 -0.6414  0.6927
  664MOL0     O91518   2.681   5.542   8.393 -0.4336 -0.5148 -0.2753
  664MOL0     C91519   2.569   5.625   8.409  0.0644  0.1519 -0.1653
  664MOL0     C91520   2.436   5.595   8.442 -0.4904  0.2000  0.1755
  664MOL0     C91521   2.335   5.685   8.486 -0.6989 -0.2704 -0.1562
  664MOL0     C91522   2.198   5.626   8.507 -0.1208 -0.2903 -0.0380
  664MOL0     C91523   2.376   5.826   8.491 -0.4919  0.0303 -0.8695
  664MOL0     C91524   2.299   5.935   8.548  0.6448 -0.3244 -0.0833
  664MOL0     O91525   2.347   6.061   8.549 -0.5160  0.3419 -0.2163
  664MOL0     C91526   2.277   6.179   8.589 -0.2503  0.7748  0.6963
  664MOL0     C91527   2.363   6.287   8.570  0.6118  0.3816  0.3875
  664MOL0     C91528   2.320   6.413   8.617 -1.3331  0.6207  0.4197
  664MOL0     C91529   2.211   6.426   8.701  0.2772 -0.3922  0.9711
  664MOL0     O91530   2.163   6.552   8.731 -0.2650 -0.0292 -0.8955
  664MOL0     C91531   2.081   6.564   8.848 -0.1926  0.6112 -0.1058
  664MOL0     C91532   2.076   6.715   8.861  0.0519  0.3732 -0.5965
  664MOL0     C91533   2.002   6.756   8.985 -0.1649 -0.5504  0.1097
  664MOL0     C91534   2.035   6.906   9.016  0.4573 -0.6306  0.2011
  664MOL0     C91535   2.173   6.934   9.075 -0.2341 -0.5077 -0.1145
  664MOL0     C91536   2.186   6.877   9.213  0.4697  0.8118 -0.0144
  664MOL0     C91537   2.328   6.862   9.264  0.3853  0.4291  0.0327
  664MOL0     C91538   2.341   6.812   9.410 -0.3840 -1.0370  0.1960
  664MOL0    Cl91539   2.509   6.797   9.445  0.2103  0.2845 -0.1899
  664MOL0     C91540   2.138   6.311   8.732  0.5099  0.2865 -1.0687
  664MOL0     C91541   2.168   6.184   8.676 -0.1032  0.2099  0.1326
  664MOL0     O91542   2.198   5.903   8.611  0.2680 -0.3231 -0.5228
  664MOL0     C91543   2.502   5.865   8.441 -0.3162  0.4089 -0.2935
  664MOL0     C91544   2.597   5.761   8.408  0.3402 -0.2968  0.2010
  664MOL0     N91545   2.598   5.155   9.004 -0.6780 -0.7312 -0.0566
  664MOL0     N91546   2.479   5.107   9.019 -0.0593 -0.2755 -0.4678
  664MOL0     C91547   1.241   4.951   9.326 -0.3544  0.1568 -0.5620
  664MOL0     C91548   1.114   4.975   9.381 -0.2908  0.7205  0.7533
  664MOL0     C91549   0.701   5.192   9.396  0.3687 -0.6262 -0.3620
  664MOL0     C91550   0.642   5.269   9.499 -0.3399  0.9817  0.7039
  664MOL0     C91551   0.505   5.270   9.523  1.0556  0.2014  1.4140
  664MOL0     C91552   0.423   5.194   9.437 -0.3591  0.6663 -1.0496
  664MOL0     O91553   0.290   5.197   9.466  0.6887  0.0920  0.6084
  664MOL0     C91554   0.203   5.181   9.357  0.4495 -0.1509  0.0572
  664MOL0     C91555   0.052   5.176   9.412 -0.2579 -0.5678  0.3981
  664MOL0     C91556   0.001   5.320   9.423 -0.7779  0.9057  0.4698
  664MOL0     C91557  -0.121   5.345   9.503  0.5003 -0.2282 -0.6400
  664MOL0     C91558  -0.239   5.263   9.462 -0.1569  0.7116 -0.7449
  664MOL0     C91559  -0.334   5.198   9.427 -0.2953 -0.4014 -0.0801
  664MOL0     C91560   0.482   5.112   9.333  1.0443 -0.0418  1.0779
  664MOL0     C91561   0.620   5.098   9.325  0.1969 -0.1976  0.7848
  664MOL0     C91562   0.679   5.023   9.212  0.1037  0.1798  1.0543
  664MOL0     H91563   1.024   5.232   9.164 -1.4619  0.4712  2.5341
  664MOL0     H91564   1.228   5.189   9.076  0.2799  5.1693  1.5693
  664MOL0     H91565   1.409   5.097   9.001  1.2125  2.7303 -1.0235
  664MOL0     H91566   1.559   5.024   9.027 -2.5137  0.7007 -1.6964
  664MOL0     H91567   1.537   5.288   9.052  4.7311 -2.9472 -3.6025
  664MOL0     H91568   1.477   5.245   9.218 -0.0542 -2.6492  1.2547
  664MOL0     H91569   1.706   5.292   9.237  0.4260  1.5317 -3.1185
  664MOL0     H91570   1.684   5.123   9.257 -3.1270  0.4117 -0.0847
  664MOL0     H91571   1.771   5.117   9.004  0.1510 -1.1956  1.4524
  664MOL0     H91572   1.756   5.289   9.007 -1.6405 -0.5137 -1.1494
  664MOL0     H91573   1.955   5.170   9.201  0.1101  1.3509  1.1722
  664MOL0     H91574   1.925   5.335   9.148  1.8919  0.3553  1.3774
  664MOL0     H91575   2.029   5.099   8.988  0.0524 -0.4589  1.5928
  664MOL0     H91576   1.977   5.259   8.918 -0.5186  1.9570  1.6023
  664MOL0     H91577   2.206   5.218   9.130  0.8605  1.7521  0.1692
  664MOL0     H91578   2.185   5.354   9.017 -3.6138  0.5215  0.9082
  664MOL0     H91579   2.230   5.061   8.953  0.4005  0.2723 -1.7631
  664MOL0     H91580   2.243   5.185   8.831  0.8267 -0.7462 -0.5837
  664MOL0     H91581   2.432   5.381   8.847  2.3060 -1.2040 -3.2823
  664MOL0     H91582   2.795   5.328   8.892 -0.8397  1.8696  0.5348
  664MOL0     H91583   2.674   5.449   8.854 -1.8406 -0.2152 -1.0177
  664MOL0     H91584   2.789   5.237   8.678  0.4582  1.1924 -2.0458
  664MOL0     H91585   2.617   5.267   8.675  1.2436 -1.4000 -0.8029
  664MOL0     H91586   2.710   5.523   8.657  2.6927  1.4528 -0.2194
  664MOL0     H91587   2.848   5.446   8.608 -0.6442  0.9653 -1.4399
  664MOL0     H91588   2.743   5.335   8.414  0.4913 -1.2058  2.5017
  664MOL0     H91589   2.580   5.377   8.470 -0.7973  0.2768 -0.9597
  664MOL0     H91590   2.409   5.490   8.433  2.8398 -0.8233  0.5520
  664MOL0     H91591   2.191   5.534   8.448  2.3620 -1.4109  1.2833
  664MOL0     H91592   2.122   5.690   8.460 -0.0924 -1.3249 -1.5996
  664MOL0     H91593   2.194   5.609   8.614  0.9414 -2.9093 -0.3465
  664MOL0     H91594   2.446   6.296   8.500  0.1626 -1.5981 -0.4725
  664MOL0     H91595   2.378   6.502   8.593 -0.1260  1.0384  4.2426
  664MOL0     H91596   1.981   6.521   8.844  0.9957 -2.3029 -1.2800
  664MOL0     H91597   2.132   6.527   8.938  1.6299  1.0661 -0.9067
  664MOL0     H91598   2.174   6.764   8.861 -0.5579  1.7090  1.1367
  664MOL0     H91599   2.024   6.768   8.780 -2.2830 -1.7434 -0.5934
  664MOL0     H91600   2.032   6.689   9.066  0.6717  0.3183  0.5403
  664MOL0     H91601   1.898   6.738   8.958 -0.1051 -3.8629  1.5701
  664MOL0     H91602   1.955   6.940   9.082 -2.3664 -4.0241 -1.1588
  664MOL0     H91603   2.035   6.969   8.926 -0.2344  2.5430  2.2526
  664MOL0     H91604   2.254   6.889   9.017  0.8768  2.8573 -1.3654
  664MOL0     H91605   2.186   7.042   9.070 -2.2588 -0.1915  0.5865
  664MOL0     H91606   2.138   6.779   9.214 -1.7885  1.8149 -1.1780
  664MOL0     H91607   2.137   6.949   9.280 -1.8332  0.1737 -0.9166
  664MOL0     H91608   2.394   6.948   9.249 -0.1771  0.8905  0.1794
  664MOL0     H91609   2.378   6.781   9.211  0.4593 -1.1522  2.3734
  664MOL0     H91610   2.294   6.713   9.407 -1.0770 -0.6982 -0.2303
  664MOL0     H91611   2.288   6.875   9.482 -1.7345 -2.8111  0.8304
  664MOL0     H91612   2.047   6.318   8.790  2.5583  1.5493  2.2803
  664MOL0     H91613   2.102   6.099   8.690  0.5119 -0.3790 -0.4533
  664MOL0     H91614   2.535   5.968   8.438  0.6088  0.1296 -3.4762
  664MOL0     H91615   2.699   5.799   8.404  0.2969 -0.1782  0.2398
  664MOL0     H91616   1.297   4.864   9.358  2.0323  1.6563 -0.4276
  664MOL0     H91617   1.075   4.909   9.458 -1.2802 -1.3634 -1.3915
  664MOL0     H91618   0.714   5.316   9.565 -0.0418 -0.2751  1.3119
  664MOL0     H91619   0.441   5.332   9.584 -2.0274 -0.0927 -1.2476
  664MOL0     H91620   0.214   5.267   9.291  0.0656  0.3664  0.6480
  664MOL0     H91621   0.216   5.091   9.296  2.8060  0.3288 -0.2104
  664MOL0     H91622   0.046   5.144   9.516 -0.8710 -2.3589 -0.1506
  664MOL0     H91623  -0.008   5.110   9.348 -0.6778 -0.1274  0.3228
  664MOL0     H91624   0.083   5.381   9.462  2.0476 -2.5643  0.4451
  664MOL0     H91625  -0.017   5.349   9.319 -2.6912  0.2447  0.5800
  664MOL0     H91626  -0.145   5.451   9.506 -1.7502 -0.6977  1.9989
  664MOL0     H91627  -0.100   5.335   9.609  0.8349  2.4258 -0.4127
  664MOL0     H91628  -0.397   5.114   9.404  1.1622 -0.9939 -2.2245
  664MOL0     H91629   0.419   5.042   9.279  0.1852  1.0049  0.6974
  664MOL0     H91630   0.696   5.079   9.119  2.2678 -1.0574  0.6274
  664MOL0     H91631   0.772   4.979   9.248  0.3631 -1.6519 -1.5604
  664MOL0     H91632   0.601   4.949   9.193  0.6828 -0.1263 -0.2439
  665MOL0     O91633   9.434   9.083   4.481 -0.3368 -0.5424 -0.3420
  665MOL0     C91634   9.379   9.183   4.434  0.8403  0.9873 -0.2843
  665MOL0     O91635   9.442   9.282   4.370  0.1061  0.5006  0.1332
  665MOL0     C91636   9.574   9.319   4.377  0.0308  0.2119  0.1263
  665MOL0     C91637   9.684   9.241   4.422  0.2701  0.2055  0.4540
  665MOL0     C91638   9.809   9.300   4.445  0.1541  1.0886  0.0303
  665MOL0     C91639   9.836   9.441   4.422 -0.3435  0.5527 -0.5866
  665MOL0     O91640   9.958   9.491   4.461 -0.2093 -0.1550 -0.2665
  665MOL0     C91641   9.999   9.626   4.431  0.3384  0.0046 -0.3098
  665MOL0     C91642  10.120   9.667   4.525 -0.3221 -1.1583  0.0163
  665MOL0     C91643  10.252   9.592   4.491  0.0834 -0.3483 -0.2351
  665MOL0     C91644  10.368   9.634   4.588 -0.8389  0.2808  0.8036
  665MOL0     C91645  10.412   9.785   4.559  0.7566  0.9917 -0.0776
  665MOL0     C91646  10.524   9.816   4.656 -0.8066 -0.4428 -0.5040
  665MOL0     C91647  10.618   9.924   4.616  0.1052 -0.2049  0.4099
  665MOL0     C91648  10.710   9.893   4.506  0.8832 -0.1307  0.5807
  665MOL0     N91649  10.834   9.809   4.539  1.0767 -0.3976  0.3962
  665MOL0     C91650  10.956   9.860   4.566  0.0852 -0.0890 -0.1161
  665MOL0     C91651  11.045   9.754   4.571  0.7697  0.1150 -0.0952
  665MOL0     C91652  11.186   9.769   4.606 -0.7552 -0.5661 -0.1238
  665MOL0     C91653  11.209   9.682   4.733 -0.1584  0.1951  0.0134
  665MOL0     C91654  11.355   9.672   4.770  0.6188  0.1871 -0.2675
  665MOL0     C91655  11.413   9.795   4.842 -0.3562 -0.4914  0.3178
  665MOL0     O91656  11.549   9.759   4.881 -0.2782  0.8031 -0.0644
  665MOL0     C91657  11.624   9.865   4.941 -0.2244 -0.6235 -0.1577
  665MOL0     C91658  11.588   9.998   4.942  0.0917 -0.7921  0.1334
  665MOL0     C91659  11.653  10.091   5.023 -0.3140  0.2236  0.3324
  665MOL0     C91660  11.601  10.238   5.012  1.1347  1.0729 -0.3401
  665MOL0     C91661  11.769  10.049   5.094  0.2067  0.4589  0.0387
  665MOL0     C91662  11.851  10.137   5.183  0.1364 -0.8260  0.0983
  665MOL0     O91663  11.947  10.075   5.257 -0.3285  0.0116 -0.4342
  665MOL0     C91664  12.036  10.141   5.340 -0.2433  0.1514  0.0604
  665MOL0     C91665  12.094  10.056   5.430  0.6645 -0.0323 -0.0453
  665MOL0     C91666  12.208  10.087   5.506 -0.3532  0.0049  0.8073
  665MOL0     C91667  12.254  10.217   5.500 -0.2200  0.0507 -0.2971
  665MOL0     O91668  12.369  10.271   5.559  0.0488 -0.2490 -0.8091
  665MOL0     C91669  12.452  10.201   5.652 -0.7605  0.1526  0.1205
  665MOL0     C91670  12.572  10.287   5.688  0.6080 -0.0019 -0.0142
  665MOL0     C91671  12.649  10.324   5.568 -0.0715  0.2462  0.4290
  665MOL0     C91672  12.795  10.366   5.586  0.1357  0.6503  1.0204
  665MOL0     C91673  12.844  10.422   5.455  0.0826 -0.6948  0.0411
  665MOL0     C91674  12.987  10.484   5.476 -0.4106 -0.3563 -0.4536
  665MOL0     C91675  12.994  10.618   5.557  0.1288 -0.5996 -0.1860
  665MOL0     C91676  13.126  10.701   5.534 -0.6830 -0.3854 -0.2514
  665MOL0    Cl91677  13.259  10.628   5.631  0.2661 -0.0226 -0.0417
  665MOL0     C91678  12.195  10.306   5.410  0.1066 -0.1829 -0.0790
  665MOL0     C91679  12.087  10.271   5.331  0.0601  0.1641 -0.1893
  665MOL0     O91680  11.822  10.258   5.187  0.4598  0.7767  0.0222
  665MOL0     C91681  11.803   9.911   5.091  0.1040 -0.2342  0.0751
  665MOL0     C91682  11.728   9.821   5.019 -0.2803 -0.0713 -0.1343
  665MOL0     N91683  10.968   9.636   4.541  0.2344  0.3381  0.8465
  665MOL0     N91684  10.851   9.678   4.509 -0.6093 -0.3211  0.0332
  665MOL0     C91685   9.729   9.517   4.368 -0.5593  0.3104  0.3108
  665MOL0     C91686   9.602   9.458   4.347  0.0280 -0.2997 -0.4918
  665MOL0     C91687   9.231   9.195   4.431  0.1608 -0.3092 -0.3693
  665MOL0     C91688   9.168   9.321   4.419  0.0283 -0.1166  0.3469
  665MOL0     C91689   9.025   9.334   4.423 -0.1741 -0.7742 -0.0459
  665MOL0     C91690   8.944   9.224   4.459 -0.1969 -0.7746 -0.2302
  665MOL0     O91691   8.807   9.248   4.479 -0.5459 -0.5957  0.1395
  665MOL0     C91692   8.721   9.144   4.529  0.2182  0.2401 -0.0015
  665MOL0     C91693   8.577   9.191   4.555 -0.0051 -0.0392  0.1535
  665MOL0     C91694   8.515   9.252   4.426  0.0848 -0.4807  0.1289
  665MOL0     C91695   8.371   9.280   4.460  0.0406 -0.2600 -0.3612
  665MOL0     C91696   8.327   9.365   4.350 -0.2568  0.5403 -0.3317
  665MOL0     C91697   8.283   9.450   4.277 -0.6091  0.0024  0.3393
  665MOL0     C91698   9.007   9.102   4.467  0.2502  0.1869 -0.0619
  665MOL0     C91699   9.144   9.085   4.447 -0.2841  0.3937 -0.2007
  665MOL0     C91700   9.197   8.945   4.454 -0.0843 -0.0401 -0.4192
  665MOL0     H91701   9.676   9.134   4.432  1.9821 -0.1472 -1.2695
  665MOL0     H91702   9.899   9.251   4.480 -0.0327  0.0225 -0.9335
  665MOL0     H91703   9.921   9.700   4.452 -1.0507 -1.4389 -0.1979
  665MOL0     H91704  10.032   9.643   4.328  0.4341 -0.5751 -0.3763
  665MOL0     H91705  10.118   9.774   4.504  0.4856 -1.0531  0.4412
  665MOL0     H91706  10.094   9.662   4.631 -1.2534  1.2533 -0.0453
  665MOL0     H91707  10.235   9.484   4.492 -3.2251  0.0442 -1.1394
  665MOL0     H91708  10.278   9.630   4.392  2.6075  1.5883  1.0542
  665MOL0     H91709  10.332   9.623   4.691  2.3109 -1.1070  1.9062
  665MOL0     H91710  10.455   9.571   4.566 -0.9521  0.4874 -0.2731
  665MOL0     H91711  10.331   9.854   4.583 -0.3843 -0.6090  0.8150
  665MOL0     H91712  10.437   9.793   4.452  1.6980  0.0275  0.0566
  665MOL0     H91713  10.483   9.844   4.754  1.5337 -0.8684  0.6771
  665MOL0     H91714  10.590   9.731   4.677  0.1545  0.5717  0.7949
  665MOL0     H91715  10.689   9.929   4.699  2.9686 -0.5669 -1.8519
  665MOL0     H91716  10.563  10.018   4.606 -0.2875 -0.6133 -1.7015
  665MOL0     H91717  10.643   9.858   4.428  1.5950 -1.0496  0.3609
  665MOL0     H91718  10.739   9.995   4.478 -1.0820  0.6198  1.1062
  665MOL0     H91719  10.979   9.964   4.586  0.0734 -0.4070  1.6999
  665MOL0     H91720  11.208   9.871   4.638 -0.6649 -1.2859  2.3619
  665MOL0     H91721  11.238   9.719   4.524 -0.1111  0.7028 -0.5059
  665MOL0     H91722  11.143   9.715   4.814  0.6160  3.0228 -0.3753
  665MOL0     H91723  11.175   9.579   4.718  0.5641  0.0368 -0.5558
  665MOL0     H91724  11.357   9.593   4.846 -0.2409 -0.9070 -1.3415
  665MOL0     H91725  11.409   9.649   4.678 -1.6928 -1.0260 -1.4275
  665MOL0     H91726  11.413   9.883   4.778  0.7676  0.1705  1.1729
  665MOL0     H91727  11.352   9.820   4.929 -0.3468  2.0782 -0.3331
  665MOL0     H91728  11.528  10.051   4.869  0.2342 -0.1937  0.4424
  665MOL0     H91729  11.685  10.302   4.985  1.9379  0.6769  1.1367
  665MOL0     H91730  11.555  10.268   5.107  1.5672 -1.6055  0.8221
  665MOL0     H91731  11.527  10.253   4.933  0.6164 -2.3736 -0.6663
  665MOL0     H91732  12.061   9.953   5.441  2.2054 -0.4541  0.8902
  665MOL0     H91733  12.257  10.011   5.566  0.7238  0.0863  0.0550
  665MOL0     H91734  12.396  10.181   5.743 -0.6259  0.6785  0.3240
  665MOL0     H91735  12.488  10.105   5.614  0.6915  0.6538  0.1574
  665MOL0     H91736  12.539  10.381   5.734  0.0954 -0.4349  0.5190
  665MOL0     H91737  12.636  10.235   5.760 -1.9651 -1.1946  1.5784
  665MOL0     H91738  12.596  10.411   5.527  0.9165  0.0493 -1.3790
  665MOL0     H91739  12.652  10.254   5.484  3.1698  0.7464 -0.0158
  665MOL0     H91740  12.848  10.273   5.607  1.3426  0.4139 -2.4500
  665MOL0     H91741  12.800  10.440   5.666  1.4620  1.5755  0.1386
  665MOL0     H91742  12.839  10.343   5.380  0.7595 -2.2137  1.5267
  665MOL0     H91743  12.774  10.498   5.418 -1.4065 -2.9307 -2.1045
  665MOL0     H91744  13.016  10.521   5.377 -1.0158 -0.0923 -0.5378
  665MOL0     H91745  13.065  10.416   5.510  0.5612  1.4087  1.0246
  665MOL0     H91746  12.990  10.583   5.660  1.2908  0.3720  0.2025
  665MOL0     H91747  12.912  10.679   5.519  0.9234  0.3014 -0.5052
  665MOL0     H91748  13.095  10.795   5.581  2.7980 -0.4304  2.5178
  665MOL0     H91749  13.164  10.710   5.432 -2.2612 -2.2110 -1.0750
  665MOL0     H91750  12.234  10.407   5.401 -3.0574  1.2837  1.1605
  665MOL0     H91751  12.042  10.338   5.257  0.8336 -0.9678 -1.7389
  665MOL0     H91752  11.892   9.869   5.139  2.0312  1.1153 -2.1056
  665MOL0     H91753  11.752   9.715   5.023 -1.9788 -0.4933  4.3313
  665MOL0     H91754   9.732   9.621   4.336  1.6626 -0.2167 -1.4764
  665MOL0     H91755   9.524   9.512   4.293  0.3852 -0.0013 -0.7094
  665MOL0     H91756   9.230   9.408   4.402  0.8160 -0.6467  0.4748
  665MOL0     H91757   8.984   9.434   4.410  1.9266  0.0066 -1.1311
  665MOL0     H91758   8.721   9.054   4.468 -0.6555  0.3410 -0.1729
  665MOL0     H91759   8.755   9.105   4.625  0.0638 -1.4011 -0.5893
  665MOL0     H91760   8.586   9.271   4.628 -2.9570 -0.0036  0.6231
  665MOL0     H91761   8.518   9.111   4.600  0.7496  0.0609  1.3301
  665MOL0     H91762   8.576   9.338   4.398 -0.8344  0.1771  0.0850
  665MOL0     H91763   8.509   9.181   4.344 -2.7719  0.6094 -0.7353
  665MOL0     H91764   8.338   9.328   4.552 -1.1039  0.1247 -0.9483
  665MOL0     H91765   8.309   9.190   4.460 -0.0905 -0.1857 -1.3383
  665MOL0     H91766   8.248   9.525   4.210  1.2606  2.1012  1.5845
  665MOL0     H91767   8.947   9.018   4.500 -2.0400  2.1049  0.9707
  665MOL0     H91768   9.123   8.864   4.451 -2.2119  1.8366 -2.4349
  665MOL0     H91769   9.272   8.926   4.376 -0.1101  0.2185 -0.5097
  665MOL0     H91770   9.241   8.928   4.552 -0.7572  1.8678  0.2624
  666MOL0     O91771   0.935   8.747  11.118  0.5748  0.0356  0.0548
  666MOL0     C91772   0.887   8.663  11.038 -0.0519  0.2206 -0.2931
  666MOL0     O91773   0.963   8.589  10.955  0.2632 -0.3851  0.1256
  666MOL0     C91774   1.101   8.575  10.954  0.3671  0.3031 -0.5748
  666MOL0     C91775   1.182   8.569  11.071  0.0809 -0.5271 -0.0147
  666MOL0     C91776   1.322   8.547  11.065 -0.0286  0.1723 -0.3199
  666MOL0     C91777   1.372   8.503  10.944  0.1645 -0.1338  0.7645
  666MOL0     O91778   1.505   8.473  10.921  0.0582 -0.3675  1.2418
  666MOL0     C91779   1.601   8.473  11.024  0.3419  0.5212 -0.4446
  666MOL0     C91780   1.744   8.452  10.968 -0.3030 -0.3525 -0.7020
  666MOL0     C91781   1.766   8.306  10.938 -0.4724  0.2818 -0.6135
  666MOL0     C91782   1.910   8.270  10.920 -0.0635  0.0055 -0.6813
  666MOL0     C91783   1.923   8.125  10.874  0.5022  0.3813 -0.2234
  666MOL0     C91784   2.068   8.074  10.867 -0.1869 -0.0993 -0.1500
  666MOL0     C91785   2.168   8.167  10.783  0.1245 -0.6330  0.4505
  666MOL0     C91786   2.133   8.172  10.635  0.5837  0.1016  0.3279
  666MOL0     N91787   2.160   8.046  10.566  0.7526  0.0907  0.4158
  666MOL0     C91788   2.280   8.020  10.503  0.1891  0.3612  0.5300
  666MOL0     C91789   2.269   7.901  10.440  0.2644  0.2292  0.4003
  666MOL0     C91790   2.375   7.821  10.376  0.1102  0.0969 -0.5122
  666MOL0     C91791   2.476   7.769  10.477  0.5170 -0.7758  0.0621
  666MOL0     C91792   2.562   7.647  10.437 -0.3428 -0.3466 -0.3587
  666MOL0     C91793   2.657   7.688  10.316  0.0320  0.5441 -0.1508
  666MOL0     O91794   2.701   7.825  10.316 -0.3291  0.4053  0.1178
  666MOL0     C91795   2.815   7.855  10.383  0.6493 -0.5022  0.0211
  666MOL0     C91796   2.861   7.993  10.401  0.6647  1.0851 -0.6732
  666MOL0     C91797   2.974   8.034  10.463 -0.4553 -0.0322 -1.1976
  666MOL0     C91798   2.986   8.182  10.467 -0.4657 -0.5810  0.0184
  666MOL0     C91799   3.065   7.934  10.500 -0.3304  0.2673 -0.2979
  666MOL0     C91800   3.205   7.968  10.533  0.9342 -0.2559 -0.0698
  666MOL0     O91801   3.244   8.095  10.498 -0.0751  0.7962 -0.9085
  666MOL0     C91802   3.373   8.143  10.516 -0.4596  0.6423  0.0456
  666MOL0     C91803   3.492   8.068  10.489 -0.0511  0.1866  0.1165
  666MOL0     C91804   3.618   8.121  10.512  0.1721  0.3342 -0.4143
  666MOL0     C91805   3.622   8.259  10.555 -0.4413 -0.7617  0.9862
  666MOL0     O91806   3.745   8.322  10.572  0.1183 -0.9963  0.8679
  666MOL0     C91807   3.837   8.302  10.466  0.3967 -0.7020  0.3584
  666MOL0     C91808   3.962   8.387  10.492 -0.2520  0.3011  0.0707
  666MOL0     C91809   4.040   8.376  10.625 -0.6415  0.1124  0.4219
  666MOL0     C91810   4.157   8.484  10.638 -0.2844  0.0783  0.2092
  666MOL0     C91811   4.118   8.631  10.628 -0.2012 -0.6823 -0.1637
  666MOL0     C91812   4.234   8.712  10.668  0.0652  0.2054  0.4347
  666MOL0     C91813   4.208   8.863  10.649 -0.0586 -0.0324  1.0031
  666MOL0     C91814   4.268   8.956  10.750 -0.1796 -0.4273 -0.8733
  666MOL0    Cl91815   4.446   8.965  10.719 -0.3897 -0.1009 -0.2321
  666MOL0     C91816   3.508   8.336  10.578 -0.0939  0.0217 -0.4532
  666MOL0     C91817   3.380   8.275  10.565 -0.5669 -0.4511  0.3620
  666MOL0     O91818   3.268   7.882  10.600 -0.1330 -0.0428 -0.3177
  666MOL0     C91819   3.020   7.799  10.499  0.5055  0.6150 -0.4775
  666MOL0     C91820   2.902   7.755  10.437  0.1035  0.5171 -0.2259
  666MOL0     N91821   2.137   7.854  10.461  0.4206 -1.0866 -0.5853
  666MOL0     N91822   2.072   7.944  10.533 -0.0981 -0.8808 -0.3881
  666MOL0     C91823   1.287   8.487  10.830  0.2265 -0.3754  0.5004
  666MOL0     C91824   1.154   8.527  10.833  0.6074  0.0971  0.1462
  666MOL0     C91825   0.745   8.639  11.026  0.1661 -0.3687  0.5435
  666MOL0     C91826   0.693   8.589  10.909  0.0491 -0.0536 -0.2366
  666MOL0     C91827   0.565   8.538  10.899  0.0634  0.6190 -0.0544
  666MOL0     C91828   0.478   8.544  11.009  0.5013  0.5517  0.2689
  666MOL0     O91829   0.347   8.512  10.977 -0.9767 -1.2032  0.4321
  666MOL0     C91830   0.274   8.433  11.073 -0.3615  0.1768  0.2880
  666MOL0     C91831   0.180   8.340  10.991 -0.1257  1.2560 -0.6047
  666MOL0     C91832   0.056   8.417  10.934  0.7695 -0.0325 -0.6507
  666MOL0     C91833  -0.052   8.331  10.873  0.8195 -0.0752 -0.3486
  666MOL0     C91834  -0.004   8.231  10.778 -0.5532  0.7598  0.4026
  666MOL0     C91835   0.048   8.161  10.696 -0.0766 -0.7391  0.0376
  666MOL0     C91836   0.522   8.605  11.131  0.4374  0.1027 -0.5039
  666MOL0     C91837   0.656   8.656  11.134  0.1681 -0.1228 -0.0952
  666MOL0     C91838   0.689   8.733  11.254 -0.0330 -0.3605  0.0434
  666MOL0     H91839   1.144   8.578  11.172  2.5336  3.8409  0.7292
  666MOL0     H91840   1.384   8.540  11.154 -1.3997 -2.0837  0.5549
  666MOL0     H91841   1.575   8.402  11.103  0.4881  2.8883  1.8854
  666MOL0     H91842   1.598   8.574  11.068  3.3695  0.1020  1.0206
  666MOL0     H91843   1.759   8.507  10.875  3.2537  0.2118  0.0453
  666MOL0     H91844   1.814   8.496  11.041 -1.0680  0.5423 -0.4831
  666MOL0     H91845   1.725   8.252  11.024  0.2484 -1.0737 -1.0945
  666MOL0     H91846   1.728   8.274  10.841  0.0820  0.9240 -1.0477
  666MOL0     H91847   1.946   8.339  10.843 -1.5450  0.0882 -1.3201
  666MOL0     H91848   1.963   8.287  11.015 -2.2230  1.1430  0.3959
  666MOL0     H91849   1.875   8.109  10.776  4.3351 -1.0157 -2.0845
  666MOL0     H91850   1.867   8.058  10.940  1.5321 -1.8485 -1.5026
  666MOL0     H91851   2.110   8.067  10.968 -0.9687 -1.6216  0.1005
  666MOL0     H91852   2.067   7.977  10.817  2.5577 -1.7285  2.5957
  666MOL0     H91853   2.270   8.130  10.797  2.1036  4.0696  0.4466
  666MOL0     H91854   2.177   8.271  10.817 -0.3763 -0.5745  0.4181
  666MOL0     H91855   2.027   8.195  10.627  0.9729  1.3009 -4.6292
  666MOL0     H91856   2.187   8.254  10.588  1.0260 -0.5465 -0.3307
  666MOL0     H91857   2.373   8.074  10.521 -0.7226  1.9305  0.6585
  666MOL0     H91858   2.423   7.878  10.296 -0.9320  0.1564 -1.1009
  666MOL0     H91859   2.330   7.734  10.327  1.9762 -2.7572  2.4833
  666MOL0     H91860   2.535   7.857  10.501 -3.4627  2.8643 -1.9822
  666MOL0     H91861   2.427   7.733  10.568  0.1755 -0.6079 -0.0526
  666MOL0     H91862   2.621   7.626  10.527 -1.8305  0.3521  0.8282
  666MOL0     H91863   2.503   7.556  10.421 -1.2449 -0.1942  1.7211
  666MOL0     H91864   2.742   7.621  10.306  0.0348  0.5890 -0.4339
  666MOL0     H91865   2.591   7.670  10.230  0.5357 -2.3147 -0.0282
  666MOL0     H91866   2.800   8.071  10.356 -1.3110  0.2542  0.4383
  666MOL0     H91867   3.047   8.220  10.385  0.3647 -1.5957  0.1392
  666MOL0     H91868   3.027   8.207  10.566  1.3545  1.2122 -1.1148
  666MOL0     H91869   2.888   8.229  10.459 -0.7867 -1.4600 -1.4909
  666MOL0     H91870   3.474   7.970  10.447  0.1961 -0.1182  0.7179
  666MOL0     H91871   3.702   8.059  10.483  0.4587 -0.2898  1.6419
  666MOL0     H91872   3.857   8.195  10.460 -0.7522 -0.8777 -0.6892
  666MOL0     H91873   3.798   8.325  10.367 -0.6567 -0.4844  0.8182
  666MOL0     H91874   4.036   8.377  10.412  0.4802  0.4656  0.7189
  666MOL0     H91875   3.925   8.490  10.478 -2.7848 -0.5204  0.1224
  666MOL0     H91876   4.086   8.277  10.626  0.6347  0.6738 -0.1195
  666MOL0     H91877   3.970   8.388  10.708  1.9488  1.3446  2.5982
  666MOL0     H91878   4.224   8.468  10.553 -2.3404 -0.8601 -1.3160
  666MOL0     H91879   4.208   8.468  10.733  1.1650  0.3939 -0.4781
  666MOL0     H91880   4.071   8.657  10.533  0.0668  1.4572  0.2417
  666MOL0     H91881   4.034   8.644  10.697  0.5340 -0.4938  0.7122
  666MOL0     H91882   4.323   8.695  10.606 -1.5037 -1.6659 -1.4390
  666MOL0     H91883   4.270   8.683  10.767 -0.5536 -2.1266  0.0179
  666MOL0     H91884   4.101   8.872  10.668 -0.3815  1.1632 -1.1567
  666MOL0     H91885   4.228   8.894  10.546  1.3666 -3.3022  0.1377
  666MOL0     H91886   4.242   8.922  10.851  0.1143 -2.2527 -1.3681
  666MOL0     H91887   4.244   9.060  10.728 -1.3930 -0.1951  1.3650
  666MOL0     H91888   3.512   8.435  10.622  2.7040  0.7243 -2.0059
  666MOL0     H91889   3.287   8.325  10.589 -1.2626 -1.1722 -0.7520
  666MOL0     H91890   3.086   7.727  10.547  0.4566  2.0010  1.8518
  666MOL0     H91891   2.892   7.647  10.441  1.2489  0.3861 -0.5027
  666MOL0     H91892   1.328   8.442  10.740  0.3988  0.9466 -0.1138
  666MOL0     H91893   1.094   8.499  10.747 -2.2737  0.6706  1.8348
  666MOL0     H91894   0.751   8.600  10.818  0.2475 -0.6558 -0.1868
  666MOL0     H91895   0.527   8.505  10.803 -0.0034 -0.5902  0.3654
  666MOL0     H91896   0.332   8.364  11.136  0.0161 -1.1684 -1.4576
  666MOL0     H91897   0.215   8.501  11.135  0.4478  0.9978  0.1887
  666MOL0     H91898   0.154   8.270  11.071  2.1100  1.5453  0.4276
  666MOL0     H91899   0.244   8.293  10.916 -1.3571  2.2499 -2.3711
  666MOL0     H91900   0.015   8.475  11.017  0.9818  3.7804 -2.9378
  666MOL0     H91901   0.091   8.488  10.858 -0.6757  0.1592 -1.1854
  666MOL0     H91902  -0.129   8.387  10.818 -3.7809 -4.6939  0.5743
  666MOL0     H91903  -0.100   8.283  10.959 -2.8151  1.0803 -1.5135
  666MOL0     H91904   0.087   8.111  10.610  1.0343  0.1122  0.0137
  666MOL0     H91905   0.446   8.603  11.209  2.5001 -1.7215  1.6038
  666MOL0     H91906   0.607   8.747  11.325 -0.1611 -0.1185 -0.1482
  666MOL0     H91907   0.770   8.675  11.298  0.8432 -0.5700 -1.7396
  666MOL0     H91908   0.730   8.830  11.225 -1.4688 -0.7369 -3.9839
  667MOL0     O91909   0.038   6.214  10.042 -0.2103 -0.1599  0.2393
  667MOL0     C91910   0.079   6.150   9.944  0.0395  0.4744  0.4792
  667MOL0     O91911  -0.003   6.077   9.855  0.1727  0.0664  0.0238
  667MOL0     C91912  -0.133   6.074   9.884 -0.0719  0.5978  0.1722
  667MOL0     C91913  -0.174   5.976   9.967 -0.4126  0.1301  0.3885
  667MOL0     C91914  -0.307   5.959   9.995 -0.0730 -0.6478  0.0553
  667MOL0     C91915  -0.407   6.040   9.933  0.3838 -0.2635  0.4397
  667MOL0     O91916  -0.542   6.024   9.957 -0.0376 -0.1493  0.1927
  667MOL0     C91917  -0.585   5.891   9.981  1.0821  1.0388 -0.0832
  667MOL0     C91918  -0.728   5.904  10.041 -0.4754 -0.4245  0.8910
  667MOL0     C91919  -0.828   5.995   9.959 -0.7521 -0.2155  0.1538
  667MOL0     C91920  -0.960   5.989  10.035  0.8923  0.6870 -0.1573
  667MOL0     C91921  -0.962   6.065  10.171 -0.1414 -0.3382 -0.4433
  667MOL0     C91922  -1.108   6.083  10.218  0.1018 -0.1938  0.2133
  667MOL0     C91923  -1.109   6.154  10.350 -0.9119  0.1988 -0.0250
  667MOL0     C91924  -1.243   6.195  10.400  0.1971 -0.4302  0.5162
  667MOL0     N91925  -1.245   6.195  10.548 -1.0010 -0.4560 -0.7671
  667MOL0     C91926  -1.188   6.304  10.627  0.6718 -0.9129  0.8480
  667MOL0     C91927  -1.253   6.279  10.744 -0.8638 -0.9968 -0.2636
  667MOL0     C91928  -1.197   6.336  10.875  0.0565  0.0832 -0.3762
  667MOL0     C91929  -1.204   6.228  10.985 -0.4771 -0.2243 -0.6653
  667MOL0     C91930  -1.166   6.288  11.122 -0.3075 -0.0468 -0.5432
  667MOL0     C91931  -1.018   6.338  11.130 -0.5272  0.0336  0.0919
  667MOL0     O91932  -1.012   6.472  11.088 -0.5733  0.5492  0.6375
  667MOL0     C91933  -0.897   6.546  11.108 -0.3012  0.1450 -0.1728
  667MOL0     C91934  -0.886   6.680  11.068 -0.3531  0.2530  0.6967
  667MOL0     C91935  -0.765   6.748  11.093  0.1096  0.5568  0.0246
  667MOL0     C91936  -0.769   6.895  11.073 -0.3607 -0.3966  0.2765
  667MOL0     C91937  -0.651   6.684  11.151  0.3597  0.0438  0.3033
  667MOL0     C91938  -0.530   6.758  11.184  0.0824 -0.4344 -0.1085
  667MOL0     O91939  -0.488   6.743  11.314  0.4215  0.0927 -0.1334
  667MOL0     C91940  -0.368   6.815  11.346  0.4501  0.2407 -0.2575
  667MOL0     C91941  -0.372   6.932  11.423 -0.2943 -0.4188 -0.0953
  667MOL0     C91942  -0.258   7.004  11.448 -0.3900  0.7848  0.0501
  667MOL0     C91943  -0.133   6.961  11.399  1.1621 -0.6517 -0.1151
  667MOL0     O91944  -0.017   7.045  11.415 -0.0662  0.2334 -0.2202
  667MOL0     C91945   0.076   7.066  11.310  0.5525 -0.3047 -0.2001
  667MOL0     C91946   0.179   7.161  11.360  0.1041  0.1170  0.5582
  667MOL0     C91947   0.265   7.193  11.238  0.3832 -0.3167  0.0839
  667MOL0     C91948   0.385   7.274  11.274  0.3138 -0.1470 -0.5078
  667MOL0     C91949   0.502   7.188  11.331  0.2529  0.7087  0.4343
  667MOL0     C91950   0.620   7.261  11.402 -0.4736 -0.5692 -0.0431
  667MOL0     C91951   0.708   7.339  11.307  0.0667 -0.1043 -0.0613
  667MOL0     C91952   0.848   7.349  11.374  0.6472  0.0952  0.3970
  667MOL0    Cl91953   0.933   7.195  11.353 -0.4426  0.3074  0.3599
  667MOL0     C91954  -0.133   6.847  11.314  0.2543 -0.1891 -0.1803
  667MOL0     C91955  -0.244   6.776  11.297  0.1270  0.2243 -0.1189
  667MOL0     O91956  -0.464   6.812  11.095 -0.3034  0.1416 -0.1622
  667MOL0     C91957  -0.666   6.555  11.196  1.1703 -0.0587 -0.1928
  667MOL0     C91958  -0.785   6.487  11.174 -0.7990 -0.0861 -0.2106
  667MOL0     N91959  -1.339   6.172  10.737  0.0033  0.3157  0.2126
  667MOL0     N91960  -1.325   6.117  10.624 -0.4066  0.2058 -0.5698
  667MOL0     C91961  -0.362   6.149   9.855  0.2156  1.0837  0.6951
  667MOL0     C91962  -0.224   6.162   9.827  0.0888  0.2821 -0.2270
  667MOL0     C91963   0.229   6.140   9.919 -0.4552  0.1593 -1.1558
  667MOL0     C91964   0.274   6.037   9.830 -0.2828 -0.7062 -0.0938
  667MOL0     C91965   0.410   6.017   9.807  0.1955  0.1812 -0.4128
  667MOL0     C91966   0.509   6.104   9.855  0.0779  0.1506  0.2482
  667MOL0     O91967   0.638   6.083   9.815 -0.5659 -0.2995  0.3120
  667MOL0     C91968   0.738   6.187   9.832 -0.1209  0.5074  0.1943
  667MOL0     C91969   0.869   6.141   9.765 -0.1335 -0.3267 -0.3324
  667MOL0     C91970   0.991   6.213   9.823  0.5070  0.3542  0.5068
  667MOL0     C91971   1.101   6.217   9.711 -0.4304  0.0988  0.4880
  667MOL0     C91972   1.159   6.082   9.677  0.0418  0.0299 -0.0175
  667MOL0     C91973   1.209   5.971   9.665  0.2491  0.1497 -0.5360
  667MOL0     C91974   0.467   6.212   9.935 -0.4012  0.8873  0.8285
  667MOL0     C91975   0.331   6.228   9.971 -0.1188  0.2682  0.0219
  667MOL0     C91976   0.306   6.349  10.058  0.3825  0.2864 -0.2637
  667MOL0     H91977  -0.097   5.910  10.006  1.2390  0.7557 -1.6035
  667MOL0     H91978  -0.339   5.892  10.075 -2.1044 -0.6566 -0.7214
  667MOL0     H91979  -0.534   5.853  10.070  1.0455  1.6202  0.1879
  667MOL0     H91980  -0.582   5.818   9.899 -1.7140 -2.6832  2.7470
  667MOL0     H91981  -0.767   5.804  10.064 -1.6398 -0.3364 -0.5463
  667MOL0     H91982  -0.705   5.949  10.138  0.5698 -2.7345  1.7888
  667MOL0     H91983  -0.787   6.097   9.961 -3.2257  0.8673  2.2067
  667MOL0     H91984  -0.830   5.959   9.856  2.3755 -2.6349  0.7697
  667MOL0     H91985  -1.038   6.030   9.970  2.7027  3.6726 -0.6056
  667MOL0     H91986  -0.980   5.886  10.069  1.2509  1.0524  1.2294
  667MOL0     H91987  -0.910   6.159  10.149  2.6791 -1.6686  0.1381
  667MOL0     H91988  -0.897   6.020  10.247 -1.1084  2.2062  2.0951
  667MOL0     H91989  -1.167   6.145  10.149  2.3340  0.4425 -1.2216
  667MOL0     H91990  -1.157   5.986  10.229  1.5407 -0.9150  0.3760
  667MOL0     H91991  -1.048   6.245  10.350  1.2876 -1.1546 -2.6674
  667MOL0     H91992  -1.070   6.078  10.418  0.3608 -1.3866 -2.4007
  667MOL0     H91993  -1.280   6.292  10.365  0.8757 -0.5556 -0.5870
  667MOL0     H91994  -1.311   6.117  10.366  0.9458 -1.3123  1.0286
  667MOL0     H91995  -1.111   6.369  10.587 -0.4741 -1.3234 -2.3131
  667MOL0     H91996  -1.250   6.426  10.908  2.8838  1.4451  0.7859
  667MOL0     H91997  -1.093   6.367  10.860  0.2342 -0.5500 -0.4729
  667MOL0     H91998  -1.307   6.193  10.988 -0.4548 -0.3349 -1.0842
  667MOL0     H91999  -1.132   6.152  10.952  0.4744  1.0305 -1.6189
  667MOL0     H92000  -1.222   6.375  11.157 -0.2734 -1.2258  2.8780
  667MOL0     H92001  -1.183   6.216  11.203  0.8004  1.9933  1.6239
  667MOL0     H92002  -0.999   6.338  11.238 -3.5031  0.5629  0.6978
  667MOL0     H92003  -0.941   6.279  11.081  0.6103  2.5344 -1.3331
  667MOL0     H92004  -0.964   6.729  11.011  1.0557  2.2803  0.4228
  667MOL0     H92005  -0.738   6.959  11.157 -0.6082  0.9804 -0.6523
  667MOL0     H92006  -0.868   6.928  11.042  0.3660  2.1406  0.4202
  667MOL0     H92007  -0.704   6.927  10.991  1.4938 -1.5200  1.2334
  667MOL0     H92008  -0.451   6.957  11.494 -0.1002 -0.7341  0.2348
  667MOL0     H92009  -0.259   7.098  11.502  0.8255  0.6634  0.3019
  667MOL0     H92010   0.126   6.975  11.278  1.4804 -0.2033  0.9151
  667MOL0     H92011   0.022   7.109  11.225  0.7531 -0.5978 -0.4800
  667MOL0     H92012   0.147   7.255  11.404  1.0333 -0.2730  2.1424
  667MOL0     H92013   0.240   7.109  11.434  1.6173 -0.4482 -1.0153
  667MOL0     H92014   0.205   7.242  11.161 -0.1369 -1.4518 -0.2546
  667MOL0     H92015   0.298   7.101  11.187  1.9995  1.1890 -1.7357
  667MOL0     H92016   0.352   7.344  11.351 -2.8162 -1.3281 -0.6290
  667MOL0     H92017   0.418   7.326  11.183  1.5463 -0.9996 -0.5762
  667MOL0     H92018   0.455   7.127  11.409 -0.7498  1.6912  0.6215
  667MOL0     H92019   0.545   7.129  11.250  0.0873  0.1507  0.7503
  667MOL0     H92020   0.674   7.173  11.441  1.5250  0.1070 -1.1246
  667MOL0     H92021   0.584   7.320  11.486 -5.4587 -0.4935 -1.9008
  667MOL0     H92022   0.660   7.436  11.292 -1.6706 -1.0898 -1.0662
  667MOL0     H92023   0.721   7.298  11.207  1.1514 -0.1759  0.0939
  667MOL0     H92024   0.830   7.381  11.477 -3.9045 -0.0836 -0.1367
  667MOL0     H92025   0.906   7.431  11.332  0.0037  1.0853  1.3906
  667MOL0     H92026  -0.039   6.821  11.266  0.3029 -0.0621 -0.1552
  667MOL0     H92027  -0.246   6.682  11.243 -2.7555  0.1039  0.0377
  667MOL0     H92028  -0.599   6.509  11.267 -1.4515 -4.0823 -0.0031
  667MOL0     H92029  -0.791   6.386  11.214 -1.2422 -0.2844 -0.7731
  667MOL0     H92030  -0.431   6.219   9.809 -0.4643 -0.3655 -0.5891
  667MOL0     H92031  -0.180   6.228   9.753  2.9445 -2.3175 -1.0448
  667MOL0     H92032   0.199   5.974   9.783  1.8198 -3.1091 -0.4628
  667MOL0     H92033   0.427   5.918   9.765  0.6550  0.0945 -0.0241
  667MOL0     H92034   0.698   6.280   9.792 -1.8885 -0.6113 -0.7076
  667MOL0     H92035   0.756   6.208   9.938  0.7917 -0.4029  0.2388
  667MOL0     H92036   0.869   6.151   9.656 -0.2357 -0.6606 -0.3633
  667MOL0     H92037   0.894   6.037   9.785 -0.7374 -0.4503 -0.2194
  667MOL0     H92038   0.959   6.312   9.857 -2.5641 -1.7867  4.8178
  667MOL0     H92039   1.016   6.150   9.908 -0.2425  1.1659  1.3538
  667MOL0     H92040   1.185   6.275   9.751 -0.6630  1.0707 -0.3831
  667MOL0     H92041   1.068   6.274   9.623  0.1316 -1.6160 -0.8933
  667MOL0     H92042   1.260   5.878   9.650 -0.1564 -0.0934 -0.4255
  667MOL0     H92043   0.547   6.274   9.976  1.1002 -0.4363 -0.0138
  667MOL0     H92044   0.265   6.323  10.156 -0.9419  1.2609 -0.5367
  667MOL0     H92045   0.397   6.406  10.078  0.5815  0.0680 -0.5287
  667MOL0     H92046   0.232   6.413  10.010 -2.3671 -1.1261  1.8391
  668MOL0     O92047   3.180   7.473   5.406  0.2801  0.5397 -0.1969
  668MOL0     C92048   3.115   7.474   5.298 -0.2137 -0.2365 -0.5320
  668MOL0     O92049   3.162   7.520   5.184  0.1577 -0.7176 -0.0056
  668MOL0     C92050   3.280   7.594   5.179 -0.3047  0.2682 -1.5015
  668MOL0     C92051   3.271   7.725   5.227  0.0178 -0.1966 -0.6976
  668MOL0     C92052   3.386   7.808   5.229  0.5488  0.1445 -0.1348
  668MOL0     C92053   3.504   7.765   5.192  0.5376  0.1276 -0.1792
  668MOL0     O92054   3.607   7.851   5.215 -0.5111  0.5506  0.3939
  668MOL0     C92055   3.704   7.850   5.117 -0.0740  0.2377 -0.6896
  668MOL0     C92056   3.809   7.954   5.146 -0.5486  0.4936  0.8594
  668MOL0     C92057   3.881   7.999   5.021 -0.0037 -0.5457 -0.1517
  668MOL0     C92058   4.001   8.078   5.067 -0.5735  0.4145  0.4050
  668MOL0     C92059   4.079   8.155   4.955  0.2441  0.1749  0.5447
  668MOL0     C92060   4.149   8.282   5.003  0.3377 -1.1292 -0.3953
  668MOL0     C92061   4.237   8.253   5.125  0.3461  0.0625  0.1198
  668MOL0     C92062   4.356   8.161   5.091  0.0594 -0.6564  0.4624
  668MOL0     N92063   4.443   8.136   5.205 -0.4668  0.5088  0.4654
  668MOL0     C92064   4.563   8.205   5.224  0.1811  0.5780 -0.0979
  668MOL0     C92065   4.612   8.139   5.330  1.1828  0.1329  0.0741
  668MOL0     C92066   4.745   8.151   5.400 -0.8653 -0.4901  0.4824
  668MOL0     C92067   4.828   8.034   5.356 -1.0921 -0.9837 -0.3264
  668MOL0     C92068   4.969   8.043   5.406  0.2801  0.3251 -0.1441
  668MOL0     C92069   4.978   8.027   5.558 -0.0148  0.1072 -0.3314
  668MOL0     O92070   5.102   8.060   5.611  0.2358 -0.0530 -0.3677
  668MOL0     C92071   5.205   7.975   5.621  0.0704  0.1079  0.1095
  668MOL0     C92072   5.193   7.841   5.592 -0.2448  0.7619 -0.7659
  668MOL0     C92073   5.294   7.751   5.611 -0.6790 -0.1006  0.3135
  668MOL0     C92074   5.265   7.611   5.568  0.0065  0.7481 -0.6098
  668MOL0     C92075   5.421   7.797   5.652  0.8043 -0.8013  0.2964
  668MOL0     C92076   5.542   7.720   5.658  0.4563  1.0600 -0.4226
  668MOL0     O92077   5.541   7.614   5.567  0.1128  0.1471 -0.1734
  668MOL0     C92078   5.652   7.537   5.563  0.4407 -0.2805  0.9537
  668MOL0     C92079   5.645   7.403   5.613 -0.5702 -0.4215 -0.3832
  668MOL0     C92080   5.759   7.325   5.611 -0.1665 -0.3600 -0.9241
  668MOL0     C92081   5.879   7.368   5.556  0.6018 -0.0493 -0.1148
  668MOL0     O92082   5.989   7.280   5.546  0.3004  0.5395 -0.6957
  668MOL0     C92083   5.988   7.142   5.586  0.0521 -0.2412  0.5803
  668MOL0     C92084   6.099   7.068   5.524 -0.0745 -0.2598  0.4513
  668MOL0     C92085   6.072   7.023   5.381 -0.2698  0.1145 -0.5410
  668MOL0     C92086   6.210   6.965   5.325  0.0595 -0.1129 -0.1077
  668MOL0     C92087   6.208   6.871   5.197  0.3453 -0.6635 -0.8479
  668MOL0     C92088   6.107   6.761   5.207  0.3505 -0.2455  0.1435
  668MOL0     C92089   6.103   6.681   5.079  0.2667  0.1035 -0.2120
  668MOL0     C92090   6.039   6.544   5.072 -0.4795 -0.9022 -0.2260
  668MOL0    Cl92091   6.027   6.481   4.904 -0.0834 -0.1684  0.2135
  668MOL0     C92092   5.893   7.498   5.502  0.4924 -0.9412 -0.2494
  668MOL0     C92093   5.775   7.581   5.502 -0.1400 -0.4504  0.0443
  668MOL0     O92094   5.630   7.749   5.735 -0.3513 -0.1703  1.0996
  668MOL0     C92095   5.433   7.928   5.694  0.6233  0.2124  0.0133
  668MOL0     C92096   5.326   8.021   5.670  0.0335  0.1787 -0.4853
  668MOL0     N92097   4.529   8.030   5.357  0.4614  0.1101  0.6406
  668MOL0     N92098   4.428   8.023   5.277  0.4284 -1.0345  0.0179
  668MOL0     C92099   3.511   7.633   5.135 -0.1499 -0.7084 -0.7996
  668MOL0     C92100   3.399   7.550   5.132 -0.3758  0.6373  0.3964
  668MOL0     C92101   2.972   7.435   5.308  1.0237 -0.6412  0.2789
  668MOL0     C92102   2.883   7.498   5.225  0.1149  0.0745  0.1092
  668MOL0     C92103   2.741   7.475   5.235 -0.1150 -0.0204 -0.2668
  668MOL0     C92104   2.681   7.383   5.332 -0.1096 -0.1812  0.7848
  668MOL0     O92105   2.554   7.363   5.366 -0.1435  0.7831  0.0974
  668MOL0     C92106   2.451   7.335   5.267 -0.8004  0.5050 -0.5941
  668MOL0     C92107   2.464   7.193   5.215  0.4214 -0.3435  0.3315
  668MOL0     C92108   2.330   7.113   5.207  0.7104 -0.3857  0.5239
  668MOL0     C92109   2.331   6.971   5.274  0.4390 -0.2148 -0.3021
  668MOL0     C92110   2.213   6.891   5.244  0.6941 -0.4131 -0.2302
  668MOL0     C92111   2.114   6.839   5.197  0.4650  0.3235 -0.7462
  668MOL0     C92112   2.771   7.317   5.406 -0.7643  0.1523 -0.0593
  668MOL0     C92113   2.914   7.343   5.406  0.0883  1.1209  0.1025
  668MOL0     C92114   3.008   7.243   5.486 -0.5101 -0.2374  0.3198
  668MOL0     H92115   3.178   7.767   5.265 -0.1993 -0.8736 -0.4703
  668MOL0     H92116   3.374   7.905   5.276 -0.1776 -0.6951  1.5196
  668MOL0     H92117   3.656   7.868   5.020 -0.6188 -0.9406 -0.6609
  668MOL0     H92118   3.760   7.756   5.112 -1.7853 -0.8607 -0.0896
  668MOL0     H92119   3.763   8.037   5.200 -0.7522 -0.4944  2.2399
  668MOL0     H92120   3.880   7.905   5.213  1.1811  0.5856 -0.8152
  668MOL0     H92121   3.903   7.911   4.961 -1.6414 -0.3392 -1.1122
  668MOL0     H92122   3.813   8.063   4.965  1.5661  2.4750  1.1561
  668MOL0     H92123   3.973   8.157   5.137 -0.5490  1.2015 -0.4559
  668MOL0     H92124   4.069   8.021   5.131 -0.1956 -1.3519 -1.4824
  668MOL0     H92125   4.010   8.180   4.874 -1.9868 -1.7856  1.7213
  668MOL0     H92126   4.151   8.086   4.911  1.9748  2.8011 -1.0507
  668MOL0     H92127   4.205   8.326   4.919  0.2675 -1.1290 -0.4421
  668MOL0     H92128   4.071   8.354   5.030 -0.1467 -1.8157  0.0425
  668MOL0     H92129   4.175   8.217   5.207  0.1491  0.6968  0.2489
  668MOL0     H92130   4.277   8.342   5.173  0.3424 -1.9163  4.2071
  668MOL0     H92131   4.322   8.060   5.067  0.0531 -0.6324  0.3738
  668MOL0     H92132   4.407   8.202   5.004 -2.7071  0.6804 -0.6191
  668MOL0     H92133   4.607   8.273   5.152 -0.1205  1.6759  0.7442
  668MOL0     H92134   4.738   8.137   5.508  1.0988  0.1836  0.7381
  668MOL0     H92135   4.806   8.239   5.375  0.1937 -1.2746  0.2365
  668MOL0     H92136   4.778   7.943   5.391 -1.0050  0.1152  2.9759
  668MOL0     H92137   4.839   8.039   5.248  0.0107  0.2956 -0.1836
  668MOL0     H92138   5.027   7.963   5.360  1.5522  1.5942 -0.8404
  668MOL0     H92139   5.013   8.134   5.364  2.2819  1.1483  3.3733
  668MOL0     H92140   4.923   8.113   5.599  2.0171  1.1075  0.4437
  668MOL0     H92141   4.938   7.932   5.593  0.6129 -0.8402 -2.0859
  668MOL0     H92142   5.097   7.796   5.567  0.4538  0.4545 -3.1123
  668MOL0     H92143   5.325   7.537   5.621  1.5333 -0.1297 -3.3629
  668MOL0     H92144   5.286   7.603   5.461 -0.3777 -0.4289 -0.6042
  668MOL0     H92145   5.161   7.588   5.592  0.2947  1.6816  1.8662
  668MOL0     H92146   5.561   7.352   5.661 -0.7637  1.4646  1.4361
  668MOL0     H92147   5.759   7.226   5.656  0.8270 -1.0195 -2.3173
  668MOL0     H92148   5.994   7.139   5.695  0.4097  1.4444  0.6314
  668MOL0     H92149   5.891   7.100   5.556  0.5806 -0.7943 -0.4050
  668MOL0     H92150   6.195   7.121   5.529 -0.1952 -0.0945  1.0605
  668MOL0     H92151   6.117   6.985   5.592  1.4812  1.1170  1.8201
  668MOL0     H92152   6.036   7.106   5.320 -1.2679  0.8775  1.0059
  668MOL0     H92153   5.991   6.950   5.377  2.2319 -2.8428 -0.6635
  668MOL0     H92154   6.263   6.928   5.414 -1.0292 -2.6994 -0.4376
  668MOL0     H92155   6.262   7.050   5.282  1.4522 -2.0715 -2.5377
  668MOL0     H92156   6.191   6.935   5.111  2.1010  2.2945  0.8616
  668MOL0     H92157   6.311   6.836   5.183  0.2535 -1.4558  0.2227
  668MOL0     H92158   6.007   6.801   5.224  1.4043  2.8842 -0.4197
  668MOL0     H92159   6.119   6.695   5.293 -0.3257 -0.8109 -0.1850
  668MOL0     H92160   6.205   6.660   5.048 -0.0686  0.9227 -2.0132
  668MOL0     H92161   6.065   6.748   5.001  0.5092 -0.3161 -0.6978
  668MOL0     H92162   5.939   6.562   5.113 -0.1721 -0.1501  0.1944
  668MOL0     H92163   6.107   6.483   5.133  0.4012  1.7235  1.5786
  668MOL0     H92164   5.986   7.533   5.457 -0.7498  1.6578 -0.9763
  668MOL0     H92165   5.784   7.680   5.459  0.3397 -0.0532  1.0357
  668MOL0     H92166   5.528   7.966   5.729  2.3792 -0.7685 -3.2395
  668MOL0     H92167   5.336   8.126   5.697  1.8942 -1.0654  4.8897
  668MOL0     H92168   3.601   7.610   5.077 -0.1256  0.5157 -1.2795
  668MOL0     H92169   3.412   7.460   5.071 -2.4475 -0.4516  1.4441
  668MOL0     H92170   2.914   7.577   5.158 -0.2477  0.6559  0.6255
  668MOL0     H92171   2.675   7.538   5.176  1.2580  1.6012 -0.1529
  668MOL0     H92172   2.358   7.341   5.325 -0.5003 -2.1112  0.3060
  668MOL0     H92173   2.446   7.411   5.188 -0.1607 -0.9129 -2.0451
  668MOL0     H92174   2.531   7.139   5.282  5.6696  1.1122 -3.0665
  668MOL0     H92175   2.507   7.203   5.115  1.6943 -2.8227  0.5572
  668MOL0     H92176   2.247   7.162   5.259 -2.1476 -1.6482 -2.5173
  668MOL0     H92177   2.298   7.106   5.103 -1.2788  2.5696  0.8021
  668MOL0     H92178   2.340   6.983   5.383 -1.6397 -0.1566 -0.1079
  668MOL0     H92179   2.420   6.929   5.225  1.2472  3.2112 -2.0783
  668MOL0     H92180   2.027   6.795   5.152 -0.4543  0.0944  1.1588
  668MOL0     H92181   2.734   7.237   5.468 -1.3334  0.2822 -0.2241
  668MOL0     H92182   3.014   7.286   5.586  0.3905  1.6371 -0.4960
  668MOL0     H92183   2.976   7.139   5.493 -0.2311 -0.3317  0.2128
  668MOL0     H92184   3.110   7.238   5.447  0.7433  0.4786  3.2133
  669MOL0     O92185   2.338   1.155   6.916 -1.0251  0.1367  0.1894
  669MOL0     C92186   2.368   1.229   7.015 -0.2447 -0.7551 -0.6923
  669MOL0     O92187   2.487   1.237   7.086 -0.3029  0.3647 -0.1476
  669MOL0     C92188   2.574   1.136   7.049  0.1694  0.1911 -0.4486
  669MOL0     C92189   2.555   1.001   7.077 -0.4740 -0.0732  0.4516
  669MOL0     C92190   2.640   0.897   7.032  0.2763  0.7384 -0.1327
  669MOL0     C92191   2.759   0.934   6.970 -0.1372 -0.4280 -0.4540
  669MOL0     O92192   2.846   0.837   6.937 -0.1598  0.3680  0.8700
  669MOL0     C92193   2.974   0.864   6.886  0.1305 -0.9738 -0.3108
  669MOL0     C92194   3.052   0.733   6.899 -0.7808 -0.2953  0.3740
  669MOL0     C92195   3.192   0.760   6.856  0.0828  0.4733 -0.3800
  669MOL0     C92196   3.284   0.635   6.839  1.0618 -0.3753  0.3293
  669MOL0     C92197   3.436   0.663   6.797  0.5448  0.2103  1.2498
  669MOL0     C92198   3.460   0.727   6.661  0.0193 -0.2541  0.2747
  669MOL0     C92199   3.596   0.741   6.610 -0.3089 -0.0319  0.6408
  669MOL0     C92200   3.649   0.602   6.556 -0.0804 -0.3909 -0.6437
  669MOL0     N92201   3.796   0.617   6.536  0.2897  0.3702 -0.2657
  669MOL0     C92202   3.876   0.506   6.532 -0.3310  0.4666 -0.9108
  669MOL0     C92203   4.001   0.553   6.506 -0.0920  0.7458 -0.5800
  669MOL0     C92204   4.131   0.476   6.487  0.2108 -0.6166 -0.5448
  669MOL0     C92205   4.249   0.544   6.550 -0.1366  0.8660  0.0401
  669MOL0     C92206   4.375   0.451   6.543 -0.3763 -0.4929  0.8262
  669MOL0     C92207   4.502   0.540   6.562  0.6795 -0.2605 -0.6632
  669MOL0     O92208   4.610   0.452   6.576 -0.6741 -0.0693  0.2515
  669MOL0     C92209   4.739   0.482   6.558 -0.3186  0.6777  0.9901
  669MOL0     C92210   4.814   0.374   6.505 -0.5409  0.8516 -0.1776
  669MOL0     C92211   4.947   0.390   6.457  0.0908 -0.1332  0.8289
  669MOL0     C92212   5.021   0.274   6.398 -1.3697 -0.0248 -0.2814
  669MOL0     C92213   5.003   0.519   6.450 -0.4182 -0.4016  0.5569
  669MOL0     C92214   5.140   0.553   6.389  0.9147  0.5656  0.5745
  669MOL0     O92215   5.166   0.482   6.273  0.1842  0.0763 -0.6017
  669MOL0     C92216   5.284   0.490   6.219 -0.2476  0.9627  0.4869
  669MOL0     C92217   5.299   0.571   6.105 -0.0818  0.0988 -0.0366
  669MOL0     C92218   5.419   0.583   6.044 -0.0898 -0.1678 -0.9869
  669MOL0     C92219   5.527   0.515   6.090 -0.9473  0.5026 -0.0968
  669MOL0     O92220   5.655   0.515   6.032 -0.9081  1.1231 -0.0154
  669MOL0     C92221   5.672   0.568   5.902 -0.2301 -0.3914  0.0435
  669MOL0     C92222   5.813   0.527   5.844 -0.3446 -0.8232  0.4313
  669MOL0     C92223   5.922   0.625   5.864  0.4478 -0.5926 -0.2730
  669MOL0     C92224   6.061   0.576   5.825  0.0767  0.3549  0.3498
  669MOL0     C92225   6.079   0.597   5.666  0.9896 -0.4471 -0.6509
  669MOL0     C92226   6.226   0.569   5.633 -0.1325  0.1180 -0.0381
  669MOL0     C92227   6.272   0.655   5.519 -0.2802  0.4560  0.2657
  669MOL0     C92228   6.418   0.675   5.540  0.1012 -0.3142  0.7774
  669MOL0    Cl92229   6.481   0.780   5.406  0.1483 -0.4084 -0.0387
  669MOL0     C92230   5.518   0.431   6.195  0.4785  0.2233  0.4399
  669MOL0     C92231   5.394   0.412   6.261 -0.3294 -0.5937  0.2846
  669MOL0     O92232   5.212   0.641   6.443  1.0812 -0.3096  0.2969
  669MOL0     C92233   4.935   0.623   6.519  0.8507 -0.7298  0.4678
  669MOL0     C92234   4.799   0.610   6.558 -0.7662 -0.0159 -0.0542
  669MOL0     N92235   3.990   0.688   6.498 -0.1959  1.2792  0.3713
  669MOL0     N92236   3.866   0.728   6.502  0.7565  0.3349 -0.9820
  669MOL0     C92237   2.781   1.073   6.940 -0.5663  1.2688  0.0154
  669MOL0     C92238   2.694   1.169   6.985 -0.5228 -0.3240 -0.2700
  669MOL0     C92239   2.274   1.335   7.056 -0.3018  0.2874 -0.5850
  669MOL0     C92240   2.318   1.459   7.090 -0.4234 -0.8627 -0.0984
  669MOL0     C92241   2.222   1.563   7.117 -0.4914 -0.1317  0.5278
  669MOL0     C92242   2.086   1.536   7.105  0.0897  0.4769 -1.0070
  669MOL0     O92243   1.988   1.633   7.137 -0.9061 -0.0450  0.0541
  669MOL0     C92244   1.927   1.687   7.020 -0.8800 -0.2085  0.3784
  669MOL0     C92245   1.783   1.715   7.045 -0.0972  0.2638 -1.0386
  669MOL0     C92246   1.700   1.592   7.027  0.3165 -0.2385  0.1221
  669MOL0     C92247   1.549   1.630   7.040 -0.1973  0.2504  0.4159
  669MOL0     C92248   1.470   1.508   7.064 -0.4324  0.1481 -0.5888
  669MOL0     C92249   1.389   1.425   7.075 -0.6905  0.0717  0.9966
  669MOL0     C92250   2.038   1.403   7.093 -0.3573  1.1841 -0.0697
  669MOL0     C92251   2.134   1.305   7.056  0.6667 -0.3047 -0.0485
  669MOL0     C92252   2.073   1.164   7.045 -0.7584 -0.0602 -0.0068
  669MOL0     H92253   2.455   0.978   7.113 -1.0072  1.2314 -0.1409
  669MOL0     H92254   2.615   0.793   7.051  3.3663 -0.1634 -0.4853
  669MOL0     H92255   3.024   0.940   6.947 -2.4345  0.1517  0.5253
  669MOL0     H92256   2.967   0.898   6.782  0.3509  1.8569  0.5434
  669MOL0     H92257   3.055   0.691   7.000  0.3553 -0.8788  0.1084
  669MOL0     H92258   3.002   0.664   6.831 -1.6168  2.5571 -2.1367
  669MOL0     H92259   3.185   0.798   6.754  0.9603 -1.3733 -1.1853
  669MOL0     H92260   3.253   0.826   6.918  2.0996  2.6454 -4.2719
  669MOL0     H92261   3.284   0.596   6.941 -1.2554 -1.9418 -0.1945
  669MOL0     H92262   3.238   0.560   6.774  0.1884 -0.9873  1.6277
  669MOL0     H92263   3.482   0.564   6.788  0.8707  0.2537  2.2937
  669MOL0     H92264   3.482   0.727   6.874 -1.4671  1.5333  1.4215
  669MOL0     H92265   3.410   0.676   6.578  0.4037  2.2243 -1.5912
  669MOL0     H92266   3.424   0.831   6.660  2.5225  0.7436  2.2321
  669MOL0     H92267   3.657   0.781   6.692  1.0136 -0.6069 -0.0444
  669MOL0     H92268   3.591   0.809   6.525  2.3636 -1.7698 -1.0653
  669MOL0     H92269   3.635   0.523   6.631 -1.2694  0.6194  0.2328
  669MOL0     H92270   3.599   0.572   6.464  0.0886  1.1652 -1.2656
  669MOL0     H92271   3.857   0.399   6.537 -0.2184  0.4792 -0.0604
  669MOL0     H92272   4.169   0.452   6.388 -2.9261 -0.4147 -1.9367
  669MOL0     H92273   4.115   0.381   6.540  0.3204  0.4878  1.6134
  669MOL0     H92274   4.266   0.638   6.498 -4.1444  1.1678 -1.0267
  669MOL0     H92275   4.232   0.564   6.656 -0.6863  0.2395  0.0778
  669MOL0     H92276   4.371   0.369   6.614 -3.5026 -1.2875 -0.0769
  669MOL0     H92277   4.372   0.409   6.442 -0.8361 -0.1093  0.6700
  669MOL0     H92278   4.512   0.602   6.473  0.3883 -0.9563 -1.1924
  669MOL0     H92279   4.489   0.604   6.649 -0.2298  2.5915 -2.7705
  669MOL0     H92280   4.776   0.272   6.510  2.8320 -0.5226  0.2153
  669MOL0     H92281   5.115   0.276   6.453 -2.6121  3.9920  2.1445
  669MOL0     H92282   5.022   0.261   6.290  1.4980 -0.9214 -0.2081
  669MOL0     H92283   4.975   0.182   6.437  0.9499 -0.9001  0.5614
  669MOL0     H92284   5.214   0.614   6.053 -0.6704 -1.1086 -0.0943
  669MOL0     H92285   5.415   0.645   5.956 -3.4141 -1.5156 -1.9601
  669MOL0     H92286   5.595   0.525   5.836 -0.8444  1.1639 -0.2781
  669MOL0     H92287   5.662   0.676   5.898  3.2149  0.0366  0.1372
  669MOL0     H92288   5.851   0.435   5.889  0.3630  0.4204  2.5346
  669MOL0     H92289   5.802   0.513   5.736  2.0981  0.3202 -0.0387
  669MOL0     H92290   5.928   0.661   5.967  0.5946  2.2792 -1.1821
  669MOL0     H92291   5.897   0.718   5.812 -0.2142  0.4068  1.7538
  669MOL0     H92292   6.060   0.472   5.859  1.2000  1.1697  3.2158
  669MOL0     H92293   6.140   0.624   5.885 -1.3852 -0.4290  3.0875
  669MOL0     H92294   6.003   0.542   5.609  1.8341  0.5068 -2.8136
  669MOL0     H92295   6.054   0.703   5.660  1.0288 -0.3388  0.8452
  669MOL0     H92296   6.244   0.463   5.610 -0.2707 -0.0849  0.7574
  669MOL0     H92297   6.284   0.598   5.721  1.4309  3.5452 -1.9895
  669MOL0     H92298   6.219   0.750   5.521  2.3816  2.0386  0.6534
  669MOL0     H92299   6.250   0.616   5.419 -1.0879 -0.9492  0.9745
  669MOL0     H92300   6.474   0.582   5.555  0.9570  0.1574  0.5411
  669MOL0     H92301   6.425   0.738   5.629  0.3272  3.0425 -1.4583
  669MOL0     H92302   5.606   0.378   6.231  0.0287 -0.3419  0.7205
  669MOL0     H92303   5.378   0.348   6.347 -1.1606  1.2396  1.5562
  669MOL0     H92304   4.978   0.723   6.527 -0.6283 -0.1798  2.2795
  669MOL0     H92305   4.735   0.692   6.588  1.0045  1.2416  0.4473
  669MOL0     H92306   2.875   1.100   6.893  1.5248 -0.1944  2.9664
  669MOL0     H92307   2.707   1.276   6.971 -1.6203 -0.0838  0.4910
  669MOL0     H92308   2.424   1.482   7.090 -0.2439 -1.5697 -1.6825
  669MOL0     H92309   2.247   1.666   7.138 -0.6997 -0.2127  1.1796
  669MOL0     H92310   1.980   1.780   6.994 -0.5976 -0.1193  1.2244
  669MOL0     H92311   1.940   1.622   6.934 -2.8729  1.0415 -0.9436
  669MOL0     H92312   1.752   1.795   6.977  2.2709  0.9003 -1.4767
  669MOL0     H92313   1.771   1.744   7.149 -0.3261 -0.3621 -0.8874
  669MOL0     H92314   1.721   1.549   6.929  0.9182 -3.0841  1.3874
  669MOL0     H92315   1.725   1.520   7.105 -1.6406 -0.1721  0.8646
  669MOL0     H92316   1.509   1.677   6.950  0.5179 -0.4840 -0.2984
  669MOL0     H92317   1.534   1.698   7.125  0.8445  3.1413 -1.5633
  669MOL0     H92318   1.299   1.367   7.082 -1.0200  0.6132  1.3513
  669MOL0     H92319   1.934   1.371   7.090  0.5510 -2.0474 -1.1955
  669MOL0     H92320   2.116   1.105   7.126 -0.6959  1.0767  0.8246
  669MOL0     H92321   1.966   1.169   7.067 -0.7586  2.2137 -0.2493
  669MOL0     H92322   2.072   1.112   6.949  0.6588 -0.7289  0.3067
  670MOL0     O92323   4.326   4.515   3.638 -0.3763  0.1155  0.8667
  670MOL0     C92324   4.265   4.412   3.674  1.0394 -0.7155 -0.3160
  670MOL0     O92325   4.293   4.339   3.782  0.4076 -0.8009  0.2661
  670MOL0     C92326   4.401   4.368   3.867 -0.0283  0.3431 -0.6516
  670MOL0     C92327   4.523   4.402   3.814 -0.1782 -0.9425  0.1353
  670MOL0     C92328   4.629   4.424   3.900  0.4263  0.8497  0.0600
  670MOL0     C92329   4.620   4.406   4.038  0.2860 -0.2563  0.1351
  670MOL0     O92330   4.733   4.429   4.113  0.7304  0.0196  0.3414
  670MOL0     C92331   4.716   4.412   4.256 -0.5684  0.1118  0.3190
  670MOL0     C92332   4.829   4.474   4.340  0.1902 -0.0802  0.0312
  670MOL0     C92333   4.834   4.620   4.306  0.4098 -0.1593  0.5084
  670MOL0     C92334   4.947   4.704   4.359 -0.7620  0.3652 -0.0082
  670MOL0     C92335   5.081   4.689   4.296 -0.0936  0.1633 -0.3779
  670MOL0     C92336   5.172   4.796   4.357  0.0185 -0.4485  0.2498
  670MOL0     C92337   5.305   4.829   4.288  0.7984  0.4052 -1.1243
  670MOL0     C92338   5.380   4.699   4.271 -0.5767 -0.1366 -0.7617
  670MOL0     N92339   5.510   4.700   4.204  0.1807  0.5152 -0.2457
  670MOL0     C92340   5.619   4.638   4.253  0.5350  0.4424  0.0358
  670MOL0     C92341   5.714   4.669   4.162 -0.3037  0.5022 -0.0819
  670MOL0     C92342   5.862   4.625   4.170  0.0878  0.4538 -0.4775
  670MOL0     C92343   5.918   4.692   4.286  0.9383 -0.7017 -0.1608
  670MOL0     C92344   6.032   4.613   4.354 -0.6228 -0.3631  0.5035
  670MOL0     C92345   5.977   4.499   4.433 -0.1706  0.4703 -0.0667
  670MOL0     O92346   6.076   4.445   4.526 -0.2750 -0.0570  0.4464
  670MOL0     C92347   6.165   4.346   4.483  0.5472 -0.3792  0.5250
  670MOL0     C92348   6.167   4.289   4.352 -0.2034 -0.3051 -0.2502
  670MOL0     C92349   6.262   4.196   4.322  0.9506 -0.4656 -0.1616
  670MOL0     C92350   6.268   4.141   4.181  0.2363 -0.6175 -0.5170
  670MOL0     C92351   6.356   4.159   4.415 -0.5585 -0.6753 -0.4363
  670MOL0     C92352   6.464   4.059   4.379 -0.8523 -0.4345  0.4949
  670MOL0     O92353   6.484   3.954   4.473 -0.0831 -0.3391  0.0665
  670MOL0     C92354   6.609   3.894   4.466 -0.9171  0.4794  0.4020
  670MOL0     C92355   6.702   3.924   4.564 -0.1689 -0.1961 -0.4822
  670MOL0     C92356   6.832   3.883   4.558 -0.4448  0.3969  1.2420
  670MOL0     C92357   6.874   3.803   4.447  0.1160  0.3575  0.9908
  670MOL0     O92358   7.010   3.775   4.437  0.2401 -1.1200  0.6851
  670MOL0     C92359   7.059   3.778   4.301 -0.2361 -0.0045 -0.5518
  670MOL0     C92360   7.210   3.788   4.312 -0.2231 -0.3473  1.0921
  670MOL0     C92361   7.280   3.781   4.168  0.5926  0.0408 -0.3747
  670MOL0     C92362   7.428   3.781   4.173 -0.2086  0.4474 -0.6778
  670MOL0     C92363   7.503   3.780   4.037 -0.2898 -0.8028 -0.2971
  670MOL0     C92364   7.495   3.642   3.966 -0.0183 -0.2008 -0.4217
  670MOL0     C92365   7.501   3.656   3.818  0.3787 -0.1852  1.0298
  670MOL0     C92366   7.508   3.522   3.751 -0.6615 -0.1930 -0.1625
  670MOL0    Cl92367   7.472   3.530   3.578 -0.7551  0.1323  0.5467
  670MOL0     C92368   6.775   3.750   4.355 -0.0547 -0.4720  0.3562
  670MOL0     C92369   6.642   3.796   4.365 -0.3701  0.3210 -0.1281
  670MOL0     O92370   6.533   4.072   4.274 -0.0854  0.2162  0.0937
  670MOL0     C92371   6.352   4.210   4.544  0.7141 -0.4700  0.3420
  670MOL0     C92372   6.262   4.305   4.574  1.2711  1.3144 -0.1108
  670MOL0     N92373   5.667   4.763   4.071 -0.2258  0.7456 -0.6033
  670MOL0     N92374   5.543   4.775   4.098 -0.2896 -0.2710 -0.5206
  670MOL0     C92375   4.495   4.364   4.087  0.5411 -0.2935 -0.0168
  670MOL0     C92376   4.382   4.346   4.005 -0.1068 -0.0165 -0.0350
  670MOL0     C92377   4.141   4.389   3.591 -0.2685 -0.3309  0.4477
  670MOL0     C92378   4.030   4.344   3.662  0.4346 -0.4821  0.5741
  670MOL0     C92379   3.914   4.302   3.598 -0.7088 -0.5461 -0.8456
  670MOL0     C92380   3.908   4.298   3.464 -0.6459 -0.2655 -0.5056
  670MOL0     O92381   3.784   4.259   3.416 -0.3208 -0.2998  0.4409
  670MOL0     C92382   3.738   4.316   3.294 -0.2363  0.1611  0.8835
  670MOL0     C92383   3.621   4.232   3.247 -0.5923 -0.5945  0.6067
  670MOL0     C92384   3.651   4.083   3.197  0.0981  0.1782 -0.0502
  670MOL0     C92385   3.521   4.008   3.152 -0.4037  0.0051 -0.6950
  670MOL0     C92386   3.566   3.872   3.110  0.8794 -0.2446 -0.6442
  670MOL0     C92387   3.575   3.759   3.071 -0.2775  0.2871  0.6659
  670MOL0     C92388   4.014   4.338   3.388 -1.3181  0.1976  0.7098
  670MOL0     C92389   4.132   4.382   3.453 -0.6168 -0.5822 -0.2512
  670MOL0     C92390   4.247   4.418   3.362  0.2494 -0.1640  0.1391
  670MOL0     H92391   4.529   4.421   3.708 -1.9899  1.1377  0.3423
  670MOL0     H92392   4.722   4.446   3.848  0.8224 -1.9329 -0.5771
  670MOL0     H92393   4.708   4.304   4.274 -0.9802  0.1436  0.3275
  670MOL0     H92394   4.625   4.465   4.285  0.2963  0.5951  2.3003
  670MOL0     H92395   4.814   4.444   4.444 -0.5753 -2.4782 -0.7163
  670MOL0     H92396   4.926   4.437   4.305 -0.0550  0.2780 -1.0701
  670MOL0     H92397   4.828   4.634   4.197 -0.7201  1.2258  0.7259
  670MOL0     H92398   4.745   4.664   4.353  0.0780  0.2449 -0.4636
  670MOL0     H92399   4.914   4.808   4.351  1.4975  1.1561  0.3646
  670MOL0     H92400   4.966   4.677   4.464 -2.2242 -1.5416 -0.1828
  670MOL0     H92401   5.062   4.712   4.191 -0.4921  2.0341  0.0681
  670MOL0     H92402   5.121   4.587   4.303 -1.2602 -0.4845 -2.2294
  670MOL0     H92403   5.118   4.891   4.352 -1.8791 -1.4851  0.3414
  670MOL0     H92404   5.192   4.768   4.461  1.2580 -0.5572  0.0005
  670MOL0     H92405   5.369   4.910   4.323  2.6671 -0.5394 -2.2100
  670MOL0     H92406   5.273   4.868   4.191  0.8196  1.5903 -0.6626
  670MOL0     H92407   5.411   4.674   4.372  0.7354  1.2303 -0.7900
  670MOL0     H92408   5.322   4.621   4.221 -0.0007  0.2049 -2.0178
  670MOL0     H92409   5.618   4.583   4.347 -2.0351  0.8263  0.3113
  670MOL0     H92410   5.923   4.663   4.088  1.8053  2.1149  1.4660
  670MOL0     H92411   5.858   4.516   4.176 -1.5382  0.5301  0.5183
  670MOL0     H92412   5.955   4.777   4.228 -0.5786  0.5205  0.6140
  670MOL0     H92413   5.845   4.725   4.360  0.3477  0.7749 -1.3534
  670MOL0     H92414   6.112   4.577   4.288 -1.2254 -0.0228 -0.4381
  670MOL0     H92415   6.086   4.679   4.422  0.1673 -0.1490 -0.3108
  670MOL0     H92416   5.897   4.537   4.497 -0.1323  0.3226  0.0704
  670MOL0     H92417   5.937   4.421   4.368  2.5289 -0.2303 -1.0376
  670MOL0     H92418   6.106   4.318   4.267 -0.9252 -0.0079  0.3559
  670MOL0     H92419   6.182   4.175   4.123  1.5813 -0.1023 -2.2985
  670MOL0     H92420   6.268   4.031   4.182 -0.4528 -0.6152  0.0631
  670MOL0     H92421   6.355   4.183   4.129 -0.1683 -0.4742 -1.0990
  670MOL0     H92422   6.674   3.983   4.651 -0.3944  1.0870 -1.4136
  670MOL0     H92423   6.903   3.900   4.638 -0.0638  0.9059  0.7945
  670MOL0     H92424   7.037   3.686   4.245  2.7816  0.1805 -2.2771
  670MOL0     H92425   7.013   3.861   4.247 -0.0743 -0.1905 -0.9801
  670MOL0     H92426   7.235   3.875   4.373  3.0023 -0.9830  0.8566
  670MOL0     H92427   7.250   3.705   4.371  0.9505 -0.5055  0.1115
  670MOL0     H92428   7.243   3.873   4.120 -0.4148 -0.0626  0.1590
  670MOL0     H92429   7.255   3.692   4.110 -0.9322  0.7497 -0.8849
  670MOL0     H92430   7.472   3.710   4.244  0.8620  1.0739 -0.6824
  670MOL0     H92431   7.452   3.880   4.212 -3.9225  1.9089 -1.6694
  670MOL0     H92432   7.453   3.858   3.979 -0.7779 -0.5114  0.5050
  670MOL0     H92433   7.610   3.798   4.053 -0.7103  0.8648  0.8648
  670MOL0     H92434   7.409   3.579   3.991  0.2434 -0.7653 -0.8918
  670MOL0     H92435   7.582   3.587   4.003 -0.2475  0.1336  0.6370
  670MOL0     H92436   7.585   3.721   3.791  1.7794 -1.5675  1.8989
  670MOL0     H92437   7.410   3.707   3.783  0.0294 -0.8064  1.0227
  670MOL0     H92438   7.428   3.461   3.793 -1.0103  0.1416 -0.3305
  670MOL0     H92439   7.606   3.478   3.766  0.1556  1.7785  0.7329
  670MOL0     H92440   6.812   3.677   4.284  2.5338 -0.4948  1.6432
  670MOL0     H92441   6.580   3.756   4.285  1.8460 -1.5476 -1.0065
  670MOL0     H92442   6.431   4.177   4.609  1.9365 -0.9892 -1.3357
  670MOL0     H92443   6.260   4.346   4.675  2.3813 -0.2532  0.5963
  670MOL0     H92444   4.484   4.346   4.193 -1.3466 -0.5235 -0.2242
  670MOL0     H92445   4.292   4.320   4.059  1.3030 -1.2959  1.8116
  670MOL0     H92446   4.019   4.343   3.770  1.2673 -0.8334  0.6664
  670MOL0     H92447   3.830   4.264   3.655 -2.0024 -0.4913 -2.6282
  670MOL0     H92448   3.707   4.420   3.307 -4.4498 -0.6147 -1.3171
  670MOL0     H92449   3.806   4.300   3.210 -0.2870 -0.5961  0.9824
  670MOL0     H92450   3.588   4.289   3.160  3.4552  2.0859  0.5492
  670MOL0     H92451   3.543   4.244   3.323 -0.2359 -3.3029  1.5052
  670MOL0     H92452   3.729   4.081   3.121 -3.2924  1.1515 -3.8727
  670MOL0     H92453   3.689   4.033   3.287  0.5940  0.4358 -0.1128
  670MOL0     H92454   3.479   4.060   3.066 -0.6250  1.3296  0.1801
  670MOL0     H92455   3.449   4.007   3.234  0.1671  1.1141 -0.1517
  670MOL0     H92456   3.602   3.658   3.048  0.6420  0.5920  0.3728
  670MOL0     H92457   4.018   4.338   3.280 -0.1891  1.8876  0.7155
  670MOL0     H92458   4.229   4.516   3.319  2.1517 -0.8019 -2.3194
  670MOL0     H92459   4.338   4.416   3.423 -1.9126  0.6856  3.7242
  670MOL0     H92460   4.256   4.342   3.284  0.8864 -0.6813  0.7007
  671MOL0     O92461   2.217   6.648   6.585  0.4745  0.2901  0.0463
  671MOL0     C92462   2.139   6.578   6.518 -0.0922 -0.0754 -0.5176
  671MOL0     O92463   2.166   6.509   6.404  0.2593 -0.3078 -0.2788
  671MOL0     C92464   2.289   6.527   6.348 -0.5099  0.6529  0.1330
  671MOL0     C92465   2.392   6.428   6.368 -0.8011 -0.1247  0.6167
  671MOL0     C92466   2.508   6.434   6.290 -0.1610  0.3501 -0.3772
  671MOL0     C92467   2.524   6.512   6.179 -0.0839  0.1408  0.4575
  671MOL0     O92468   2.617   6.484   6.089 -0.7588  0.0172  0.5639
  671MOL0     C92469   2.715   6.590   6.051 -0.8992  1.1593 -0.4701
  671MOL0     C92470   2.831   6.532   5.964  0.1548  0.5064 -0.1858
  671MOL0     C92471   2.803   6.513   5.811 -0.0427  0.1296 -0.4348
  671MOL0     C92472   2.685   6.426   5.787 -0.1190  0.1687  0.2906
  671MOL0     C92473   2.658   6.396   5.636 -0.7866  0.5275  0.1524
  671MOL0     C92474   2.620   6.507   5.539 -0.4535  0.6222  1.1162
  671MOL0     C92475   2.563   6.448   5.396 -0.1687 -0.2738 -0.3510
  671MOL0     C92476   2.484   6.547   5.314 -0.0594 -0.0475 -0.9360
  671MOL0     N92477   2.560   6.642   5.234  0.1814  0.4534  0.1703
  671MOL0     C92478   2.667   6.724   5.272  0.1138  0.1917  0.0994
  671MOL0     C92479   2.714   6.768   5.153  0.9365  0.1094  0.3203
  671MOL0     C92480   2.831   6.852   5.130  0.1560  0.3980  1.0956
  671MOL0     C92481   2.834   6.981   5.210  0.6613  0.1787  0.5070
  671MOL0     C92482   2.946   7.073   5.160 -0.7261 -0.1960  0.2754
  671MOL0     C92483   3.084   7.009   5.182  0.8681  0.0623 -0.0461
  671MOL0     O92484   3.180   7.106   5.149 -0.1197 -0.1115 -0.1009
  671MOL0     C92485   3.316   7.069   5.170  0.2946  0.4456 -0.1298
  671MOL0     C92486   3.394   7.175   5.220 -0.9085 -0.1240 -1.3511
  671MOL0     C92487   3.523   7.159   5.265  0.1668 -0.0677  0.5055
  671MOL0     C92488   3.589   7.287   5.314  0.3265 -0.2725 -0.1527
  671MOL0     C92489   3.590   7.042   5.234 -0.4608 -0.0819 -0.1655
  671MOL0     C92490   3.737   7.027   5.263 -0.3181  0.7478 -0.1835
  671MOL0     O92491   3.787   6.919   5.201  0.3222  0.2465  0.1772
  671MOL0     C92492   3.921   6.910   5.174 -0.3675  0.0684 -0.3613
  671MOL0     C92493   4.023   7.010   5.184  0.0410 -0.2383  0.4459
  671MOL0     C92494   4.158   6.976   5.156 -0.7311  0.0436  0.2029
  671MOL0     C92495   4.188   6.847   5.115 -0.5255 -0.1428  0.4446
  671MOL0     O92496   4.318   6.817   5.090 -0.5950 -0.0626 -0.2218
  671MOL0     C92497   4.360   6.833   4.954 -0.1378 -0.0324  0.0084
  671MOL0     C92498   4.508   6.874   4.955  0.6010 -0.0684 -0.1508
  671MOL0     C92499   4.555   6.935   4.824  0.4923  0.2130 -0.4007
  671MOL0     C92500   4.571   6.829   4.713  0.7975 -1.0790 -0.4729
  671MOL0     C92501   4.662   6.883   4.600 -0.2853  0.3260  0.5423
  671MOL0     C92502   4.811   6.875   4.636 -0.2748  1.3035 -0.6263
  671MOL0     C92503   4.901   6.877   4.511 -0.2731 -0.1175  0.2994
  671MOL0     C92504   5.048   6.868   4.553  0.5594 -0.5218  0.6269
  671MOL0    Cl92505   5.151   6.887   4.405 -0.2166  0.1900 -0.0454
  671MOL0     C92506   4.089   6.749   5.100 -0.5857  0.3640  0.7074
  671MOL0     C92507   3.957   6.779   5.117 -0.3008 -0.1533  0.0153
  671MOL0     O92508   3.792   7.096   5.345 -0.0680  0.3746 -0.8408
  671MOL0     C92509   3.513   6.924   5.187  0.1680  0.1274 -0.6644
  671MOL0     C92510   3.370   6.936   5.166 -0.3127 -0.3053 -0.4258
  671MOL0     N92511   2.644   6.707   5.046 -0.0470 -0.2336  0.5962
  671MOL0     N92512   2.560   6.624   5.100 -0.0961 -0.4775  0.1429
  671MOL0     C92513   2.430   6.617   6.171  1.0519 -0.7520  0.3401
  671MOL0     C92514   2.316   6.628   6.251  0.2850  0.1876 -0.3723
  671MOL0     C92515   2.002   6.578   6.566 -0.2857 -0.3897 -0.9156
  671MOL0     C92516   1.918   6.469   6.531  0.3257 -0.1979 -0.4478
  671MOL0     C92517   1.785   6.467   6.565 -0.5582  0.1597  0.0817
  671MOL0     C92518   1.729   6.569   6.645  0.2178  0.2775 -0.7004
  671MOL0     O92519   1.593   6.573   6.689 -0.3450  0.0881 -0.5190
  671MOL0     C92520   1.501   6.479   6.628  0.3310 -0.0280  0.4313
  671MOL0     C92521   1.453   6.527   6.490 -0.7140  0.2414  0.2904
  671MOL0     C92522   1.371   6.657   6.493  0.2903 -0.3778  0.1210
  671MOL0     C92523   1.301   6.686   6.366 -0.2316 -0.5202  0.1561
  671MOL0     C92524   1.232   6.818   6.379  0.2526 -0.3606  0.1402
  671MOL0     C92525   1.163   6.914   6.377  0.1245 -0.4927  1.0731
  671MOL0     C92526   1.807   6.676   6.685  0.4097 -0.0019 -0.0800
  671MOL0     C92527   1.948   6.683   6.648  0.4924  0.5902 -0.2149
  671MOL0     C92528   2.026   6.801   6.694  0.0539 -0.3851 -0.4978
  671MOL0     H92529   2.385   6.346   6.439 -1.6825  0.4378  1.1957
  671MOL0     H92530   2.585   6.361   6.315  0.8994  1.9549  1.2205
  671MOL0     H92531   2.767   6.638   6.134 -1.5684  4.2229 -1.6609
  671MOL0     H92532   2.665   6.669   5.994  0.5694  1.6928 -1.0838
  671MOL0     H92533   2.915   6.601   5.978  0.9974 -0.5851  0.2952
  671MOL0     H92534   2.854   6.436   6.011 -0.5771  0.7484  0.6933
  671MOL0     H92535   2.796   6.607   5.756 -0.5377 -0.4455 -1.3862
  671MOL0     H92536   2.885   6.459   5.763 -2.3346 -1.4059 -2.9277
  671MOL0     H92537   2.685   6.331   5.841  0.7176  0.9972  1.7929
  671MOL0     H92538   2.607   6.488   5.832  0.9279  2.0840 -0.4491
  671MOL0     H92539   2.569   6.332   5.635  0.2568 -0.9728 -1.0140
  671MOL0     H92540   2.741   6.333   5.603  1.7663  3.9746 -0.5820
  671MOL0     H92541   2.557   6.588   5.578 -1.6721  0.3841 -0.2820
  671MOL0     H92542   2.718   6.553   5.524 -0.3519  0.5715  1.6092
  671MOL0     H92543   2.491   6.367   5.411 -0.2603 -0.2373 -0.5876
  671MOL0     H92544   2.643   6.404   5.336  1.4052 -1.4931  2.4385
  671MOL0     H92545   2.429   6.483   5.244  1.1941 -2.4556  0.1486
  671MOL0     H92546   2.407   6.599   5.371 -4.1098 -3.6831 -2.4779
  671MOL0     H92547   2.693   6.749   5.374  0.3789  0.8441 -0.1230
  671MOL0     H92548   2.834   6.855   5.021 -0.0526  0.1814  1.0842
  671MOL0     H92549   2.918   6.790   5.153 -0.4330 -1.0081 -0.3212
  671MOL0     H92550   2.733   7.022   5.210 -0.6187 -2.7121 -0.4971
  671MOL0     H92551   2.853   6.950   5.314 -0.5629 -1.3791  0.2964
  671MOL0     H92552   2.928   7.097   5.055 -1.5949  1.9276  0.8522
  671MOL0     H92553   2.948   7.172   5.207  3.1087  0.3675 -0.7983
  671MOL0     H92554   3.103   6.973   5.284  1.0321 -1.1663 -0.4865
  671MOL0     H92555   3.092   6.925   5.112 -0.6214 -0.0551 -0.1072
  671MOL0     H92556   3.341   7.270   5.221 -0.1257  0.3364 -2.1435
  671MOL0     H92557   3.666   7.302   5.238 -2.1619  0.4339 -2.7238
  671MOL0     H92558   3.631   7.266   5.413 -2.9707 -0.2617  1.3793
  671MOL0     H92559   3.515   7.367   5.310  0.1325 -0.4785 -0.8596
  671MOL0     H92560   3.985   7.107   5.213  1.1512 -0.3472  2.4460
  671MOL0     H92561   4.235   7.046   5.186 -2.0518  1.3947  0.5522
  671MOL0     H92562   4.341   6.746   4.890  0.8243  1.3047 -2.1967
  671MOL0     H92563   4.306   6.921   4.919 -1.0649 -0.5790  0.0320
  671MOL0     H92564   4.524   6.949   5.033 -1.1221  0.9195 -0.6806
  671MOL0     H92565   4.568   6.786   4.981  1.3942  0.6662  0.5682
  671MOL0     H92566   4.654   6.977   4.847  0.4326  0.4631 -0.5936
  671MOL0     H92567   4.489   7.009   4.778 -1.1284 -1.5127 -0.9728
  671MOL0     H92568   4.469   6.806   4.681  0.6474  1.5182 -2.1461
  671MOL0     H92569   4.613   6.738   4.758  1.9502 -1.5269 -2.3574
  671MOL0     H92570   4.641   6.826   4.509  1.8395 -0.3995  0.4356
  671MOL0     H92571   4.644   6.988   4.577  0.2507  0.1996 -0.5252
  671MOL0     H92572   4.824   6.774   4.678  2.1907  2.1611  0.8709
  671MOL0     H92573   4.843   6.951   4.707 -0.1695  1.0312 -0.3809
  671MOL0     H92574   4.882   6.970   4.458  0.3867 -0.5073 -0.6526
  671MOL0     H92575   4.870   6.801   4.439  0.9079 -1.0311  0.7122
  671MOL0     H92576   5.063   6.771   4.601 -0.1080 -0.5849  0.7118
  671MOL0     H92577   5.073   6.949   4.622 -0.5807  0.9657 -0.6538
  671MOL0     H92578   4.108   6.650   5.060  2.8996  0.8880  0.7013
  671MOL0     H92579   3.881   6.701   5.118 -0.3479 -0.1501  2.6388
  671MOL0     H92580   3.558   6.826   5.177  0.7365  0.5094 -2.0337
  671MOL0     H92581   3.313   6.851   5.130 -1.1679 -0.7404  1.7974
  671MOL0     H92582   2.454   6.692   6.096 -2.8122 -0.9617 -1.3326
  671MOL0     H92583   2.239   6.701   6.228 -3.1511 -2.8439  0.5453
  671MOL0     H92584   1.953   6.393   6.462 -0.1540 -0.0000 -0.9228
  671MOL0     H92585   1.731   6.378   6.535  0.1781 -0.7926  1.4574
  671MOL0     H92586   1.541   6.378   6.614 -0.4347 -0.2507 -0.2269
  671MOL0     H92587   1.417   6.465   6.697  0.4811  0.1399  0.6490
  671MOL0     H92588   1.391   6.444   6.456  0.4773 -1.1525  1.3618
  671MOL0     H92589   1.539   6.542   6.425  1.7339 -2.5813  2.5373
  671MOL0     H92590   1.283   6.645   6.557  1.1515 -1.5094  1.1590
  671MOL0     H92591   1.433   6.738   6.531 -0.0944 -0.5049  1.0674
  671MOL0     H92592   1.216   6.618   6.354 -2.6031  2.3186 -0.3819
  671MOL0     H92593   1.363   6.684   6.276 -1.5575  0.4040 -0.8319
  671MOL0     H92594   1.107   7.005   6.373  0.8405 -0.0722 -0.2041
  671MOL0     H92595   1.768   6.762   6.738  2.7798  0.1590  1.5812
  671MOL0     H92596   2.079   6.848   6.611  0.8845 -3.2893 -1.7200
  671MOL0     H92597   1.957   6.879   6.729 -0.7252 -1.2446 -0.0792
  671MOL0     H92598   2.093   6.774   6.776  0.2110  1.4655  0.0405
  672MOL0     O92599   0.915  10.467   4.438 -0.3409  0.3530  0.1222
  672MOL0     C92600   0.965  10.540   4.349 -0.3269 -0.3240  0.1308
  672MOL0     O92601   0.894  10.625   4.271  0.7551 -0.0813  0.6798
  672MOL0     C92602   0.755  10.618   4.271  0.7665 -0.2054 -0.2122
  672MOL0     C92603   0.676  10.505   4.246 -0.2360  0.3602  0.1760
  672MOL0     C92604   0.538  10.522   4.254  0.2943 -0.4131 -0.4993
  672MOL0     C92605   0.481  10.651   4.275 -0.0177 -0.3394 -0.0659
  672MOL0     O92606   0.348  10.666   4.305 -0.7610  0.7358 -0.0576
  672MOL0     C92607   0.268  10.710   4.196 -0.1673  0.2601  0.3054
  672MOL0     C92608   0.131  10.754   4.252  0.5687  0.5320 -0.2747
  672MOL0     C92609   0.019  10.770   4.144  0.2470 -0.2369  0.8546
  672MOL0     C92610  -0.117  10.821   4.191  0.2797 -0.9870  0.6467
  672MOL0     C92611  -0.176  10.716   4.287 -0.0417 -0.1429 -0.0392
  672MOL0     C92612  -0.319  10.767   4.324  0.2279  0.0981 -0.0182
  672MOL0     C92613  -0.375  10.687   4.439 -0.3759  0.6964  0.2414
  672MOL0     C92614  -0.456  10.556   4.389 -0.5857 -0.1860  0.2776
  672MOL0     N92615  -0.517  10.458   4.486 -0.3223 -0.3649  0.1681
  672MOL0     C92616  -0.475  10.441   4.616  0.2478 -0.5586 -0.0862
  672MOL0     C92617  -0.504  10.312   4.649 -0.6801  0.2203 -0.0917
  672MOL0     C92618  -0.455  10.236   4.776  0.2991  0.5669 -0.6489
  672MOL0     C92619  -0.304  10.198   4.756 -0.0171 -0.6671 -0.0673
  672MOL0     C92620  -0.231  10.163   4.886  0.5534  0.6393  0.6830
  672MOL0     C92621  -0.224  10.286   4.977 -0.7534 -0.8517 -0.6900
  672MOL0     O92622  -0.137  10.249   5.089 -0.2111 -0.7924  0.0887
  672MOL0     C92623  -0.144  10.341   5.190 -0.6596  0.3555  0.6801
  672MOL0     C92624  -0.105  10.302   5.311 -0.4560  0.6231 -0.3410
  672MOL0     C92625  -0.086  10.393   5.423 -0.4253 -0.8736  0.7482
  672MOL0     C92626  -0.020  10.332   5.548  0.8849 -0.2245 -0.7736
  672MOL0     C92627  -0.126  10.531   5.409 -0.1191  0.4532  0.1455
  672MOL0     C92628  -0.115  10.623   5.514 -0.0601 -1.0057  0.3574
  672MOL0     O92629  -0.168  10.754   5.487  0.6073  0.7247 -0.6794
  672MOL0     C92630  -0.134  10.850   5.579 -0.0390 -0.6006  0.4105
  672MOL0     C92631  -0.018  10.934   5.548  0.2105 -0.3067  0.8377
  672MOL0     C92632   0.026  11.040   5.630  0.3798 -0.3657 -0.2666
  672MOL0     C92633  -0.044  11.059   5.757  0.0319 -0.8223 -0.2390
  672MOL0     O92634  -0.022  11.157   5.846  0.3716 -0.0579 -0.5471
  672MOL0     C92635   0.091  11.240   5.839 -0.3910  0.6397 -0.4784
  672MOL0     C92636   0.191  11.175   5.924 -0.0860 -0.2390  0.1162
  672MOL0     C92637   0.329  11.250   5.917  0.3263  0.2709 -0.0082
  672MOL0     C92638   0.420  11.229   6.030  1.4545 -0.3697  0.7453
  672MOL0     C92639   0.551  11.291   5.996 -1.5585 -0.1514  0.2382
  672MOL0     C92640   0.614  11.300   6.128  0.1137  0.1434  0.1121
  672MOL0     C92641   0.761  11.348   6.119  0.3182  0.4212  0.5670
  672MOL0     C92642   0.804  11.395   6.261  0.2815 -0.5275 -0.8462
  672MOL0    Cl92643   0.976  11.455   6.264 -0.2935 -0.1128  0.2859
  672MOL0     C92644  -0.148  10.965   5.794 -0.0390  0.2249 -0.1258
  672MOL0     C92645  -0.198  10.878   5.703  0.1091  0.3908 -0.3779
  672MOL0     O92646  -0.039  10.601   5.610  0.5133  0.1850  0.7675
  672MOL0     C92647  -0.166  10.568   5.278 -0.2890  0.0905 -0.2790
  672MOL0     C92648  -0.178  10.478   5.173  0.2108 -0.0301 -0.8937
  672MOL0     N92649  -0.589  10.270   4.548  0.8276 -0.3829 -0.3369
  672MOL0     N92650  -0.597  10.353   4.455  0.5759  0.2852 -0.1383
  672MOL0     C92651   0.562  10.763   4.287  0.5321  1.2902 -0.3021
  672MOL0     C92652   0.699  10.743   4.291  0.5881  0.2641  0.0366
  672MOL0     C92653   1.108  10.557   4.322  0.3638  0.1236 -0.9645
  672MOL0     C92654   1.159  10.508   4.203  0.0994  0.7862 -0.5742
  672MOL0     C92655   1.295  10.516   4.165 -0.1863 -0.3343  0.6409
  672MOL0     C92656   1.378  10.594   4.245  0.5284  0.3325 -0.3424
  672MOL0     O92657   1.503  10.618   4.206 -0.0301  0.2640  0.4730
  672MOL0     C92658   1.574  10.733   4.257  0.9561 -0.0442  0.1451
  672MOL0     C92659   1.703  10.769   4.183  0.6178 -0.4469  0.8219
  672MOL0     C92660   1.715  10.915   4.156  0.3101  0.7352  0.6582
  672MOL0     C92661   1.861  10.963   4.177 -0.5149  0.4725 -0.3201
  672MOL0     C92662   1.851  11.109   4.176  0.4096  0.1339 -0.5784
  672MOL0     C92663   1.850  11.231   4.164  0.4322  0.0116  0.2557
  672MOL0     C92664   1.330  10.640   4.374 -0.2102  0.0769 -0.0936
  672MOL0     C92665   1.200  10.617   4.417  1.1435 -0.7720  1.2446
  672MOL0     C92666   1.164  10.668   4.547  0.0416 -0.4139  0.4867
  672MOL0     H92667   0.726  10.412   4.221 -0.2337  0.5491 -0.5277
  672MOL0     H92668   0.471  10.441   4.230 -1.8139  1.3274 -0.7605
  672MOL0     H92669   0.247  10.623   4.133  0.7421 -0.8479  1.4780
  672MOL0     H92670   0.315  10.789   4.137  4.5518 -1.2363  1.5752
  672MOL0     H92671   0.103  10.671   4.317 -1.7186  0.0874 -1.7180
  672MOL0     H92672   0.150  10.848   4.305 -1.2419  1.0648 -0.5083
  672MOL0     H92673   0.065  10.833   4.068  3.8812 -1.9028  1.4561
  672MOL0     H92674  -0.005  10.681   4.086 -0.3479  1.1359 -1.0791
  672MOL0     H92675  -0.095  10.916   4.242  3.1568 -2.0105  1.5087
  672MOL0     H92676  -0.195  10.835   4.115 -0.2817  0.1814  1.4010
  672MOL0     H92677  -0.116  10.708   4.378 -0.3896 -0.6671  0.1466
  672MOL0     H92678  -0.184  10.615   4.248 -1.8164  0.0696 -0.2985
  672MOL0     H92679  -0.306  10.871   4.354 -1.6927  0.8915 -1.7131
  672MOL0     H92680  -0.395  10.759   4.246 -0.2704 -2.8444  0.6296
  672MOL0     H92681  -0.445  10.754   4.489 -0.2874  2.6795 -2.1512
  672MOL0     H92682  -0.296  10.656   4.508 -0.0383 -1.1628 -0.9198
  672MOL0     H92683  -0.534  10.599   4.325  1.2858 -1.5063 -3.1578
  672MOL0     H92684  -0.390  10.490   4.331  1.4494  0.6487  1.5305
  672MOL0     H92685  -0.413  10.513   4.669 -0.2534 -0.0618 -0.1605
  672MOL0     H92686  -0.501  10.138   4.791  0.6424  0.5317  0.2399
  672MOL0     H92687  -0.477  10.290   4.869  0.2270  1.8657 -1.3912
  672MOL0     H92688  -0.289  10.116   4.685 -0.8971 -2.3630  1.5946
  672MOL0     H92689  -0.265  10.288   4.708 -2.5414  0.7219  0.3106
  672MOL0     H92690  -0.284  10.084   4.941 -0.5557  0.6585 -0.3058
  672MOL0     H92691  -0.129  10.133   4.859 -0.0867  0.1571 -1.3436
  672MOL0     H92692  -0.186  10.368   4.915 -0.1473  0.0949  0.8976
  672MOL0     H92693  -0.319  10.324   5.017 -1.6570 -3.0196 -0.6222
  672MOL0     H92694  -0.061  10.203   5.318 -1.3419  0.0991 -1.7422
  672MOL0     H92695   0.071  10.392   5.562  0.2165  1.8018 -4.0242
  672MOL0     H92696  -0.005  10.226   5.529 -0.9511 -1.0995  2.1422
  672MOL0     H92697  -0.079  10.337   5.639  0.6903  3.3111 -0.9353
  672MOL0     H92698   0.027  10.920   5.450  0.3301 -2.0456  1.1121
  672MOL0     H92699   0.097  11.120   5.611 -2.2659  2.6390  1.4973
  672MOL0     H92700   0.136  11.264   5.742  2.2594 -3.3176 -0.4520
  672MOL0     H92701   0.058  11.338   5.875 -2.2641 -0.1054 -0.0236
  672MOL0     H92702   0.155  11.172   6.028 -1.4073  2.5988 -0.1835
  672MOL0     H92703   0.214  11.073   5.890  0.9171  0.0546 -0.1302
  672MOL0     H92704   0.309  11.354   5.891  1.3758  0.3109 -0.6790
  672MOL0     H92705   0.382  11.209   5.831 -0.1978 -2.4515  0.8668
  672MOL0     H92706   0.427  11.122   6.052 -3.9038 -1.2471 -0.4111
  672MOL0     H92707   0.371  11.281   6.112 -0.9154  1.2146 -1.5197
  672MOL0     H92708   0.609  11.237   5.922  0.1450  0.8756  0.7674
  672MOL0     H92709   0.538  11.393   5.958 -2.4988 -0.3771 -0.0752
  672MOL0     H92710   0.618  11.208   6.187  1.0139 -0.2972 -0.6162
  672MOL0     H92711   0.557  11.371   6.188  0.2278  1.4842 -1.2965
  672MOL0     H92712   0.757  11.425   6.041  1.2926 -2.8306 -2.9793
  672MOL0     H92713   0.823  11.264   6.086 -0.1227 -0.5224  2.0344
  672MOL0     H92714   0.785  11.320   6.339  0.5956 -1.9620 -2.0984
  672MOL0     H92715   0.743  11.483   6.283 -0.5355 -1.4782  0.9658
  672MOL0     H92716  -0.185  10.985   5.893 -1.8375  0.6053 -0.8409
  672MOL0     H92717  -0.286  10.819   5.726 -0.6701  0.8463 -2.0773
  672MOL0     H92718  -0.192  10.672   5.258 -0.0156  0.7642  2.4856
  672MOL0     H92719  -0.197  10.512   5.072  1.7554 -4.4943 -2.9512
  672MOL0     H92720   0.529  10.863   4.313  1.9653  1.0017  3.1632
  672MOL0     H92721   0.771  10.822   4.309  0.7081  0.2705 -0.4561
  672MOL0     H92722   1.089  10.459   4.136  1.6858 -1.2273 -0.8633
  672MOL0     H92723   1.323  10.470   4.071  0.4231  3.1246 -1.0474
  672MOL0     H92724   1.505  10.817   4.243 -0.8572 -1.8053 -2.1536
  672MOL0     H92725   1.607  10.729   4.361  1.7232 -0.9721 -0.1270
  672MOL0     H92726   1.697  10.719   4.086 -1.3909  2.0389 -0.4653
  672MOL0     H92727   1.782  10.724   4.244  1.6699 -1.7669 -1.3896
  672MOL0     H92728   1.669  10.943   4.061 -1.5881 -3.7924 -0.0250
  672MOL0     H92729   1.658  10.959   4.238 -0.8976 -2.0702  1.4449
  672MOL0     H92730   1.933  10.931   4.100  1.5560  2.5118  0.6339
  672MOL0     H92731   1.899  10.927   4.273  0.9053 -3.2237 -2.0812
  672MOL0     H92732   1.830  11.336   4.156 -0.6093 -0.3111 -2.7491
  672MOL0     H92733   1.402  10.683   4.443  0.0056 -1.5203  0.7208
  672MOL0     H92734   1.245  10.642   4.615  1.1784 -4.5149 -2.0970
  672MOL0     H92735   1.145  10.776   4.553  0.3233 -0.3485  0.2374
  672MOL0     H92736   1.082  10.608   4.588 -0.5115  0.8719  1.3273
  673MOL0     O92737   1.819   8.831   3.287 -0.1533  0.6587 -0.0871
  673MOL0     C92738   1.918   8.883   3.252 -0.5792 -0.2811  1.0178
  673MOL0     O92739   1.960   9.000   3.306 -0.9411 -0.6578 -0.1772
  673MOL0     C92740   2.069   9.059   3.259  0.0522  0.0301 -0.0119
  673MOL0     C92741   2.058   9.146   3.149  0.5051 -0.0706  0.3015
  673MOL0     C92742   2.170   9.195   3.083  0.1662  0.4186 -0.2820
  673MOL0     C92743   2.296   9.175   3.129 -0.3297 -0.8501 -0.0944
  673MOL0     O92744   2.403   9.212   3.053 -0.4352  0.1199  0.0225
  673MOL0     C92745   2.463   9.342   3.092  0.6171 -0.6987  0.2216
  673MOL0     C92746   2.584   9.365   3.004  0.2344 -0.5187 -0.0325
  673MOL0     C92747   2.691   9.455   3.065  0.8262 -0.1333 -0.5076
  673MOL0     C92748   2.794   9.504   2.968  0.6192 -0.3495 -0.1427
  673MOL0     C92749   2.905   9.570   3.051  0.3361  0.5042  0.4003
  673MOL0     C92750   2.975   9.485   3.155  0.2337 -0.3420  0.1074
  673MOL0     C92751   3.112   9.543   3.187  0.8236  0.5220  0.5377
  673MOL0     C92752   3.162   9.490   3.316 -0.2160 -0.6095 -0.5787
  673MOL0     N92753   3.294   9.550   3.345 -0.9526 -0.3562  0.3348
  673MOL0     C92754   3.321   9.688   3.374 -0.1043 -0.3203  0.1469
  673MOL0     C92755   3.454   9.697   3.402 -0.0842 -0.2054 -0.4775
  673MOL0     C92756   3.529   9.818   3.446 -0.2202 -0.1124  0.8496
  673MOL0     C92757   3.676   9.787   3.472 -0.9032 -0.7428  0.5527
  673MOL0     C92758   3.753   9.919   3.489  0.5416 -0.4371 -0.1236
  673MOL0     C92759   3.900   9.913   3.522  0.4090  0.1515  0.3622
  673MOL0     O92760   3.974   9.828   3.430  0.2877 -0.2051 -0.6278
  673MOL0     C92761   4.114   9.830   3.423  0.0543 -0.8844  0.3222
  673MOL0     C92762   4.209   9.902   3.502 -0.3748  0.6783  0.0958
  673MOL0     C92763   4.345   9.891   3.480  0.5951  0.7106 -0.2695
  673MOL0     C92764   4.439   9.964   3.574  0.3748 -0.0236 -0.5852
  673MOL0     C92765   4.395   9.812   3.374 -0.7769 -1.0560  0.5392
  673MOL0     C92766   4.533   9.794   3.342  0.3701  1.1283  0.4037
  673MOL0     O92767   4.564   9.782   3.206  0.0155 -0.3067  0.0016
  673MOL0     C92768   4.668   9.693   3.184 -0.0086  0.2978 -0.3953
  673MOL0     C92769   4.646   9.554   3.190 -0.2850 -0.0473  0.4913
  673MOL0     C92770   4.748   9.457   3.179 -0.3260 -0.0124 -0.1629
  673MOL0     C92771   4.880   9.502   3.166  0.9529  0.7453  0.0284
  673MOL0     O92772   4.971   9.401   3.156 -0.0400  0.0785  0.3982
  673MOL0     C92773   5.103   9.440   3.179 -0.3458  0.3666  0.3539
  673MOL0     C92774   5.198   9.314   3.176  0.6047 -0.3356  0.3435
  673MOL0     C92775   5.335   9.343   3.240 -0.6295  0.8775 -0.6970
  673MOL0     C92776   5.436   9.221   3.242  0.4294  0.0368 -0.4594
  673MOL0     C92777   5.572   9.242   3.296 -0.7598  0.6925 -0.1151
  673MOL0     C92778   5.572   9.324   3.430 -0.1572  0.7155  0.5639
  673MOL0     C92779   5.722   9.320   3.481 -0.2587 -0.4810  0.2059
  673MOL0     C92780   5.733   9.385   3.616 -0.5373 -0.3802  0.3525
  673MOL0    Cl92781   5.624   9.300   3.733  0.2716 -0.0037  0.0643
  673MOL0     C92782   4.903   9.640   3.145 -0.1267  0.4316  0.6178
  673MOL0     C92783   4.803   9.734   3.159  0.7201 -0.2827  0.0361
  673MOL0     O92784   4.620   9.790   3.428 -0.2269 -0.0634  0.7140
  673MOL0     C92785   4.307   9.748   3.294 -0.3030  0.0742 -0.1097
  673MOL0     C92786   4.171   9.753   3.319  0.3257 -0.3981  0.2676
  673MOL0     N92787   3.513   9.567   3.383  0.1714 -0.0333  0.3606
  673MOL0     N92788   3.412   9.483   3.351 -0.6477 -0.7383  0.4424
  673MOL0     C92789   2.314   9.095   3.247  0.3861 -0.3869 -0.2666
  673MOL0     C92790   2.199   9.042   3.318  0.3083  0.1643 -0.6434
  673MOL0     C92791   2.008   8.808   3.154  0.4852 -0.2003 -0.2519
  673MOL0     C92792   2.136   8.773   3.184 -0.0897  0.0422  0.5206
  673MOL0     C92793   2.227   8.707   3.096 -0.1763 -0.4414 -0.0469
  673MOL0     C92794   2.181   8.665   2.971 -0.3105 -0.3511  0.2756
  673MOL0     O92795   2.283   8.599   2.899  0.2764  0.2350 -0.4632
  673MOL0     C92796   2.245   8.553   2.767 -0.0113 -0.8435  1.0970
  673MOL0     C92797   2.177   8.420   2.772  0.2877  1.2254  0.6667
  673MOL0     C92798   2.274   8.305   2.819 -0.0572 -0.3859 -0.1881
  673MOL0     C92799   2.384   8.263   2.719  1.0914  0.9482  0.2957
  673MOL0     C92800   2.349   8.145   2.638 -0.7891  1.5920 -0.8698
  673MOL0     C92801   2.313   8.038   2.581  0.3922 -0.8883  0.0564
  673MOL0     C92802   2.056   8.716   2.930 -0.1440 -0.4069  0.1416
  673MOL0     C92803   1.967   8.770   3.024  0.2568  0.0948 -0.1769
  673MOL0     C92804   1.826   8.805   2.981 -0.0414  0.1954  1.2731
  673MOL0     H92805   1.959   9.154   3.105 -0.5020 -4.6309  1.2432
  673MOL0     H92806   2.148   9.254   2.994  0.9886 -0.9219 -1.4172
  673MOL0     H92807   2.501   9.338   3.195  0.2089  1.8124  0.5384
  673MOL0     H92808   2.394   9.427   3.083  0.6679 -0.8034 -1.5846
  673MOL0     H92809   2.628   9.269   2.977 -0.2959 -0.6106 -0.5772
  673MOL0     H92810   2.558   9.409   2.907  0.7927  1.8479  0.8166
  673MOL0     H92811   2.638   9.541   3.107 -0.3795 -0.3794 -1.4717
  673MOL0     H92812   2.738   9.399   3.147  1.7484 -0.9722 -1.5899
  673MOL0     H92813   2.840   9.431   2.901 -1.5311 -1.6931 -0.2421
  673MOL0     H92814   2.746   9.582   2.908 -0.7959 -2.2279 -1.5716
  673MOL0     H92815   2.854   9.646   3.110 -0.6881 -1.2143  1.8307
  673MOL0     H92816   2.977   9.620   2.986 -0.2382  3.1524  1.6475
  673MOL0     H92817   2.911   9.472   3.243  1.4701  1.8994  1.4402
  673MOL0     H92818   2.990   9.388   3.108 -3.4805 -1.5672  1.1035
  673MOL0     H92819   3.098   9.651   3.197 -0.5673  0.8133 -3.0692
  673MOL0     H92820   3.173   9.507   3.104 -0.1785 -0.3277  0.1463
  673MOL0     H92821   3.079   9.494   3.386 -0.4476 -1.3149 -0.8110
  673MOL0     H92822   3.185   9.384   3.302  0.5899 -0.3766 -1.0683
  673MOL0     H92823   3.254   9.773   3.362 -0.9650 -0.9088  0.6180
  673MOL0     H92824   3.477   9.860   3.533 -1.8421 -1.4372  0.5698
  673MOL0     H92825   3.531   9.894   3.368  2.1344 -0.5507  0.4020
  673MOL0     H92826   3.685   9.725   3.562  0.1454  2.0145  2.4958
  673MOL0     H92827   3.716   9.733   3.386 -1.9012  2.2369 -1.9901
  673MOL0     H92828   3.745   9.977   3.396  0.8464  2.1522  1.3736
  673MOL0     H92829   3.706   9.972   3.572  0.1763 -1.8814  0.6247
  673MOL0     H92830   3.934  10.015   3.500 -1.2698  0.5237 -0.6388
  673MOL0     H92831   3.924   9.889   3.627  3.5724 -2.8174 -0.8412
  673MOL0     H92832   4.157   9.955   3.582 -3.5748  0.2130 -1.5039
  673MOL0     H92833   4.515   9.909   3.629  1.8288  2.5949  0.2272
  673MOL0     H92834   4.375  10.021   3.642  1.1723 -0.1511  0.2778
  673MOL0     H92835   4.491  10.043   3.517  1.1926 -1.6297 -2.1667
  673MOL0     H92836   4.543   9.527   3.209 -0.3328 -1.4831 -1.5092
  673MOL0     H92837   4.725   9.351   3.173  0.2374 -0.2044  0.7550
  673MOL0     H92838   5.131   9.507   3.097 -1.1431  0.3171  0.0294
  673MOL0     H92839   5.123   9.493   3.272  1.0473 -0.3687  0.5041
  673MOL0     H92840   5.156   9.233   3.237 -1.2979  0.1256 -0.2987
  673MOL0     H92841   5.203   9.282   3.072  0.7366 -0.4884  0.3964
  673MOL0     H92842   5.325   9.377   3.343  0.3441  0.5522 -0.4814
  673MOL0     H92843   5.385   9.423   3.185  2.1731  0.6451  1.3385
  673MOL0     H92844   5.442   9.175   3.143  1.6217 -2.1205  0.5494
  673MOL0     H92845   5.392   9.143   3.306 -0.7832  0.3162 -0.9291
  673MOL0     H92846   5.625   9.147   3.311 -0.9245  0.7711  1.0629
  673MOL0     H92847   5.628   9.298   3.221  0.9082 -0.9273 -0.1625
  673MOL0     H92848   5.504   9.282   3.505  0.4959  1.3396  1.5233
  673MOL0     H92849   5.542   9.428   3.417  0.4144  1.0861  1.9481
  673MOL0     H92850   5.799   9.368   3.419  0.8582  0.7491  2.4162
  673MOL0     H92851   5.761   9.218   3.490  0.4930 -0.0474  2.1764
  673MOL0     H92852   5.719   9.494   3.611  0.4547 -0.2802 -1.1785
  673MOL0     H92853   5.835   9.361   3.648 -0.8408 -2.5333 -0.1252
  673MOL0     H92854   4.997   9.674   3.103 -0.5286  1.0902  0.2356
  673MOL0     H92855   4.827   9.836   3.133  2.9738 -0.9942 -0.9534
  673MOL0     H92856   4.342   9.700   3.203 -0.4225 -1.5009  0.6624
  673MOL0     H92857   4.108   9.703   3.246  0.7562 -2.0053  0.9586
  673MOL0     H92858   2.415   9.085   3.285 -0.3864  0.1613  2.1456
  673MOL0     H92859   2.198   8.986   3.411 -1.4263  0.9488 -0.1369
  673MOL0     H92860   2.165   8.781   3.288 -0.7329  0.2382  0.6863
  673MOL0     H92861   2.324   8.672   3.131  1.7719  2.4549 -2.0441
  673MOL0     H92862   2.181   8.625   2.716 -0.2296 -1.0113  1.1373
  673MOL0     H92863   2.333   8.549   2.701 -2.7695  2.6448 -3.3745
  673MOL0     H92864   2.145   8.392   2.672 -0.8333 -0.7181  1.5033
  673MOL0     H92865   2.089   8.437   2.835  0.3049  2.6265  0.3279
  673MOL0     H92866   2.321   8.347   2.909 -2.1956  0.0050  0.8134
  673MOL0     H92867   2.212   8.221   2.852 -1.5659  0.7955  0.1235
  673MOL0     H92868   2.477   8.247   2.775  1.1274  0.1050  0.0096
  673MOL0     H92869   2.404   8.349   2.655  2.4339  1.5451  1.4858
  673MOL0     H92870   2.272   7.964   2.515 -3.2305  0.3474  0.7359
  673MOL0     H92871   2.022   8.701   2.828 -1.1824 -0.4756  0.4793
  673MOL0     H92872   1.808   8.770   2.879  1.2449  4.8498 -0.8191
  673MOL0     H92873   1.753   8.763   3.051 -0.4785  0.1293  0.7797
  673MOL0     H92874   1.791   8.909   2.981  0.3664  0.3830 -1.0541
  674MOL0     O92875   7.009   3.982   1.190 -0.5171 -0.6338 -0.9033
  674MOL0     C92876   7.002   3.868   1.147  0.4147  0.1123  0.5456
  674MOL0     O92877   7.109   3.796   1.099 -0.7526 -0.6115  0.3304
  674MOL0     C92878   7.246   3.838   1.124 -0.6128 -0.5716 -0.0254
  674MOL0     C92879   7.298   3.956   1.172 -0.6134 -0.3945 -0.4853
  674MOL0     C92880   7.429   3.964   1.206  0.1479  0.2374 -1.0418
  674MOL0     C92881   7.515   3.855   1.198 -0.5884  0.8327  0.1643
  674MOL0     O92882   7.645   3.843   1.230  0.0169  0.3481 -1.0742
  674MOL0     C92883   7.712   3.942   1.307  0.3636 -0.2785 -0.2842
  674MOL0     C92884   7.856   3.928   1.276 -0.7027  1.2383 -0.1134
  674MOL0     C92885   7.912   3.789   1.306  0.3802  0.2473 -1.2013
  674MOL0     C92886   8.065   3.777   1.321  0.8654 -0.1518 -0.1535
  674MOL0     C92887   8.103   3.642   1.373 -1.1178 -0.7038 -0.5477
  674MOL0     C92888   8.129   3.526   1.275  0.5460 -0.8408 -0.0238
  674MOL0     C92889   8.249   3.548   1.178  0.6729 -0.0358  0.8015
  674MOL0     C92890   8.387   3.557   1.249  0.2348 -0.5699 -0.2260
  674MOL0     N92891   8.476   3.576   1.130 -0.0664  0.3591 -0.7154
  674MOL0     C92892   8.523   3.476   1.050  0.2336  0.2008 -0.4207
  674MOL0     C92893   8.607   3.531   0.968  0.3321  0.1361 -0.2688
  674MOL0     C92894   8.678   3.467   0.855 -0.2337  0.4347 -0.3583
  674MOL0     C92895   8.574   3.382   0.778 -0.3437 -0.5257  0.1386
  674MOL0     C92896   8.627   3.347   0.634  0.4236  0.7942 -0.0364
  674MOL0     C92897   8.746   3.256   0.641 -0.4354  0.0940 -0.1034
  674MOL0     O92898   8.710   3.138   0.717  0.5919 -0.9755  0.1732
  674MOL0     C92899   8.798   3.038   0.736 -0.4484 -0.2423 -0.0284
  674MOL0     C92900   8.744   2.929   0.792  0.1007 -0.0801 -0.6626
  674MOL0     C92901   8.810   2.808   0.811 -0.5670 -0.3106 -0.2528
  674MOL0     C92902   8.730   2.696   0.884 -0.3901 -0.8862  0.3225
  674MOL0     C92903   8.950   2.802   0.778  0.9767 -0.1202 -0.6586
  674MOL0     C92904   9.036   2.674   0.789 -0.7959  0.5780 -0.1971
  674MOL0     O92905   9.177   2.701   0.788 -0.1261 -0.1807 -0.1946
  674MOL0     C92906   9.259   2.601   0.824  0.3495  0.3499 -0.4654
  674MOL0     C92907   9.380   2.588   0.752 -0.8085  0.0291 -0.3352
  674MOL0     C92908   9.478   2.497   0.785 -0.1760  0.6574 -0.2003
  674MOL0     C92909   9.459   2.397   0.882 -0.2310 -1.3035 -0.4240
  674MOL0     O92910   9.534   2.286   0.899  0.6000 -0.8280  0.0161
  674MOL0     C92911   9.674   2.296   0.887 -0.8402  0.7890 -1.1065
  674MOL0     C92912   9.719   2.170   0.958  0.7717 -0.5230  0.1457
  674MOL0     C92913   9.874   2.169   0.969  0.3954  0.2431  0.5186
  674MOL0     C92914   9.908   2.029   1.026 -1.1283  0.3114 -0.2388
  674MOL0     C92915  10.053   2.004   1.067 -0.4663  0.2659 -0.2057
  674MOL0     C92916  10.087   2.070   1.198  0.0257 -0.7262  0.4302
  674MOL0     C92917  10.225   2.027   1.260  0.3300  0.2525 -0.0263
  674MOL0     C92918  10.337   2.069   1.169 -0.2900 -0.8187 -0.0769
  674MOL0    Cl92919  10.493   2.011   1.245  0.5088  0.5454 -0.0565
  674MOL0     C92920   9.339   2.408   0.960  1.0851 -0.4581 -0.8465
  674MOL0     C92921   9.239   2.508   0.936  0.3341  0.2812 -0.5798
  674MOL0     O92922   8.985   2.561   0.806 -0.4273 -0.6034  0.0889
  674MOL0     C92923   9.003   2.920   0.721  0.6324  0.0827 -0.2677
  674MOL0     C92924   8.935   3.033   0.700  0.2755 -0.9477  0.2136
  674MOL0     N92925   8.603   3.669   0.986 -0.9981 -0.7013  0.2880
  674MOL0     N92926   8.538   3.689   1.091 -0.0896 -0.5179 -0.8408
  674MOL0     C92927   7.462   3.739   1.147  0.1063  0.0186 -0.5777
  674MOL0     C92928   7.328   3.729   1.111  0.5220  0.0038  0.3643
  674MOL0     C92929   6.869   3.804   1.128 -0.2798 -0.3519 -0.0471
  674MOL0     C92930   6.752   3.876   1.162  0.8979  0.3287  0.4421
  674MOL0     C92931   6.625   3.817   1.152  0.4489 -0.8559  0.0034
  674MOL0     C92932   6.599   3.697   1.088  0.8705  0.2764  1.0334
  674MOL0     O92933   6.474   3.638   1.071 -0.1832  1.0263  0.4957
  674MOL0     C92934   6.347   3.693   1.110 -0.0863  1.1898  0.3488
  674MOL0     C92935   6.303   3.783   0.994  0.6921 -0.2199 -0.2279
  674MOL0     C92936   6.151   3.822   0.999  0.0736  0.3121 -0.3108
  674MOL0     C92937   6.132   3.922   1.113 -0.2981 -0.4626 -0.4007
  674MOL0     C92938   6.001   3.995   1.107 -0.3190 -0.1478  0.6475
  674MOL0     C92939   5.897   4.046   1.096 -0.0146  0.7126  0.7537
  674MOL0     C92940   6.712   3.631   1.056 -1.1069  0.1653 -0.2737
  674MOL0     C92941   6.847   3.677   1.068  0.2291 -0.6583  0.6495
  674MOL0     C92942   6.951   3.601   0.994  0.0669  0.7273 -0.3162
  674MOL0     H92943   7.242   4.047   1.191  1.3176  0.6257  0.5337
  674MOL0     H92944   7.456   4.062   1.243  0.4757 -0.4319  0.5419
  674MOL0     H92945   7.692   3.926   1.413  1.0278 -1.6592 -0.3433
  674MOL0     H92946   7.683   4.043   1.277 -1.9600 -0.3381  1.4531
  674MOL0     H92947   7.864   3.940   1.167 -2.0459 -1.9067 -0.6522
  674MOL0     H92948   7.907   4.002   1.339  0.1873  0.1981  0.4121
  674MOL0     H92949   7.874   3.750   1.401  0.0422  0.1113 -1.3905
  674MOL0     H92950   7.880   3.720   1.228 -0.6040  1.5563 -2.0058
  674MOL0     H92951   8.117   3.797   1.227  1.3345  0.5765  0.2549
  674MOL0     H92952   8.101   3.846   1.397 -0.9476 -1.2375  1.8091
  674MOL0     H92953   8.037   3.605   1.452 -0.1899 -1.6243 -0.1703
  674MOL0     H92954   8.201   3.663   1.418 -1.5070 -0.5399  0.2333
  674MOL0     H92955   8.157   3.442   1.339 -2.8257 -0.5643  2.1137
  674MOL0     H92956   8.031   3.505   1.230 -0.4830  1.3769  1.0197
  674MOL0     H92957   8.222   3.641   1.127 -1.9734  0.1477  2.3360
  674MOL0     H92958   8.251   3.469   1.102 -4.2504 -1.2410  1.5466
  674MOL0     H92959   8.388   3.642   1.317  1.2517 -0.9954  0.3169
  674MOL0     H92960   8.413   3.472   1.314  2.0890  0.3758  0.3238
  674MOL0     H92961   8.497   3.370   1.056 -0.1201  0.2009 -1.6448
  674MOL0     H92962   8.755   3.396   0.888 -0.5450  0.7927  1.1905
  674MOL0     H92963   8.721   3.547   0.794  0.0174  0.8102  0.2964
  674MOL0     H92964   8.541   3.293   0.832  0.6078  0.2485  2.1138
  674MOL0     H92965   8.496   3.453   0.748 -1.2042 -0.5574  2.1629
  674MOL0     H92966   8.547   3.298   0.578 -2.5155  4.0186  0.9324
  674MOL0     H92967   8.656   3.441   0.586  0.5470  0.7410 -0.0667
  674MOL0     H92968   8.771   3.231   0.538 -0.9669  1.0139 -0.4691
  674MOL0     H92969   8.836   3.303   0.681  0.2602 -0.6520 -0.7832
  674MOL0     H92970   8.638   2.931   0.816  0.3556 -2.2939  1.0440
  674MOL0     H92971   8.693   2.620   0.815 -1.9563  0.0337  0.1028
  674MOL0     H92972   8.646   2.749   0.930 -0.9461 -1.5441  0.0734
  674MOL0     H92973   8.809   2.660   0.951  2.7404  2.9037 -0.9380
  674MOL0     H92974   9.384   2.647   0.661 -1.1857  1.7819  0.7411
  674MOL0     H92975   9.556   2.493   0.709 -0.1693  1.0364 -0.2121
  674MOL0     H92976   9.701   2.281   0.782  2.4157  1.4833 -0.4797
  674MOL0     H92977   9.700   2.393   0.928 -1.3829  1.1612 -1.6237
  674MOL0     H92978   9.672   2.172   1.057  1.2186  0.8152  0.3597
  674MOL0     H92979   9.689   2.076   0.911  2.4737 -1.0913  0.1349
  674MOL0     H92980   9.923   2.251   1.023  2.5666 -2.2595  2.6580
  674MOL0     H92981   9.916   2.165   0.868  1.9504 -2.2237  1.1502
  674MOL0     H92982   9.888   1.950   0.953 -3.4305 -3.4412  4.0008
  674MOL0     H92983   9.839   2.003   1.107 -1.3030  1.0427 -0.1449
  674MOL0     H92984  10.056   1.894   1.074  3.3606  0.0206 -2.8576
  674MOL0     H92985  10.121   2.043   0.991  0.8770  1.6541  1.6367
  674MOL0     H92986  10.004   2.053   1.269  0.2186  1.3902  1.2177
  674MOL0     H92987  10.092   2.177   1.179 -2.8227 -0.7764 -1.0668
  674MOL0     H92988  10.234   1.920   1.281  3.3451  0.4509  0.1608
  674MOL0     H92989  10.236   2.082   1.355  2.4985  1.7499 -1.0518
  674MOL0     H92990  10.340   2.178   1.158  0.3374 -0.7694  0.5471
  674MOL0     H92991  10.325   2.033   1.066  2.3959  2.7969 -1.8953
  674MOL0     H92992   9.316   2.331   1.033 -0.5942 -1.6869 -2.5922
  674MOL0     H92993   9.154   2.493   1.002  1.3094 -0.9119  0.4618
  674MOL0     H92994   9.102   2.907   0.679  1.0112 -1.1474  0.9312
  674MOL0     H92995   8.978   3.117   0.647 -1.0235 -0.5699 -0.2827
  674MOL0     H92996   7.533   3.657   1.154  0.1854  0.2396  2.3962
  674MOL0     H92997   7.282   3.633   1.087  1.0111  0.0062 -0.6181
  674MOL0     H92998   6.756   3.976   1.205 -2.2382 -0.8779  4.1494
  674MOL0     H92999   6.543   3.868   1.202  1.5348  1.5897 -0.5463
  674MOL0     H93000   6.287   3.605   1.131  1.4823  0.2212  0.8994
  674MOL0     H93001   6.346   3.753   1.201  0.9982  0.0492  1.1398
  674MOL0     H93002   6.324   3.753   0.891  3.1111  0.4355  0.0240
  674MOL0     H93003   6.372   3.868   0.993 -1.6115  1.7991 -2.3540
  674MOL0     H93004   6.125   3.872   0.905  1.2267 -0.0125 -0.8198
  674MOL0     H93005   6.082   3.739   1.021  0.2677  1.1119  4.4191
  674MOL0     H93006   6.202   4.005   1.108 -1.5999  0.7224  0.3261
  674MOL0     H93007   6.148   3.873   1.210  5.2358 -2.7380 -2.0738
  674MOL0     H93008   5.801   4.082   1.067 -0.5599 -0.5518  0.9088
  674MOL0     H93009   6.686   3.538   1.006 -3.0525 -0.5111  1.8744
  674MOL0     H93010   6.897   3.514   0.954  0.5198 -1.0686  2.6133
  674MOL0     H93011   6.984   3.659   0.908  1.5915 -0.2495 -0.4312
  674MOL0     H93012   7.037   3.560   1.049 -0.6979 -0.4252  0.0729
  675MOL0     O93013   7.205   4.847   7.991 -0.1325  0.1820  0.2445
  675MOL0     C93014   7.314   4.894   7.965  1.0539 -1.0076 -0.0406
  675MOL0     O93015   7.436   4.839   7.986 -0.1752 -0.1261 -0.1130
  675MOL0     C93016   7.440   4.713   8.039  0.4993 -0.5567  0.1576
  675MOL0     C93017   7.371   4.603   7.992  0.2019 -0.2466 -0.4307
  675MOL0     C93018   7.406   4.472   8.033 -0.4973  0.1986  0.6833
  675MOL0     C93019   7.503   4.452   8.129 -0.5093 -0.6024 -0.9241
  675MOL0     O93020   7.550   4.321   8.167  1.0370 -0.0935  0.0774
  675MOL0     C93021   7.658   4.282   8.083 -0.1025  0.6377 -0.3531
  675MOL0     C93022   7.611   4.201   7.967  0.3069  0.0391  0.0878
  675MOL0     C93023   7.728   4.159   7.873  0.3502 -0.1753  0.6574
  675MOL0     C93024   7.662   4.109   7.738 -0.5114  0.2104  0.4417
  675MOL0     C93025   7.760   4.119   7.613  0.2017  0.2035 -0.0374
  675MOL0     C93026   7.893   4.052   7.638 -0.0576 -0.4639  0.3165
  675MOL0     C93027   7.980   4.055   7.516 -0.2986  0.3432  0.7462
  675MOL0     C93028   8.045   4.189   7.482  1.1844  0.0431  0.6679
  675MOL0     N93029   8.124   4.249   7.586  0.1133 -0.3299 -0.6226
  675MOL0     C93030   8.228   4.195   7.658 -0.1941  0.4868 -0.1857
  675MOL0     C93031   8.260   4.293   7.744 -0.1666 -1.1151 -0.5132
  675MOL0     C93032   8.368   4.287   7.840 -1.0395 -0.1837  0.2358
  675MOL0     C93033   8.516   4.295   7.787  0.3406  0.1674  0.0821
  675MOL0     C93034   8.612   4.250   7.901  0.4135 -0.9154  0.1006
  675MOL0     C93035   8.750   4.214   7.843  0.4466 -0.2618 -0.5937
  675MOL0     O93036   8.849   4.215   7.951  1.0553 -0.6452  0.0013
  675MOL0     C93037   8.977   4.192   7.910  0.2420  0.0022  0.6867
  675MOL0     C93038   9.012   4.131   7.789  0.3658 -0.0978 -0.0546
  675MOL0     C93039   9.148   4.091   7.753  0.3182 -0.3690 -0.7014
  675MOL0     C93040   9.180   4.027   7.617  0.0956  0.0683  0.1391
  675MOL0     C93041   9.249   4.122   7.852 -0.6430 -0.4242  0.7019
  675MOL0     C93042   9.395   4.095   7.833 -0.1045 -0.7824 -0.3492
  675MOL0     O93043   9.484   4.178   7.902 -0.0384  0.3445  0.1090
  675MOL0     C93044   9.614   4.155   7.871 -0.7050  0.2089 -0.2278
  675MOL0     C93045   9.709   4.119   7.966 -0.0681  0.5051 -1.0077
  675MOL0     C93046   9.846   4.109   7.936  0.2376 -0.3474  0.3021
  675MOL0     C93047   9.883   4.120   7.799  0.1096 -0.1114 -0.5325
  675MOL0     O93048  10.014   4.114   7.756 -0.0011  0.2144  0.2018
  675MOL0     C93049  10.113   4.072   7.851 -0.1901  0.6451 -0.8548
  675MOL0     C93050  10.261   4.097   7.798 -0.9733 -0.3637 -0.0017
  675MOL0     C93051  10.376   4.029   7.877  0.3662  0.3611  0.0430
  675MOL0     C93052  10.508   4.075   7.823 -0.2774 -0.7097  0.3767
  675MOL0     C93053  10.625   4.008   7.900  0.7366 -0.3847  0.4209
  675MOL0     C93054  10.636   4.068   8.044 -0.1184  0.8452 -0.1533
  675MOL0     C93055  10.759   4.011   8.129  0.5444 -0.3026 -0.3727
  675MOL0     C93056  10.887   4.073   8.087 -0.3991  0.0387  1.3467
  675MOL0    Cl93057  10.899   4.245   8.110  0.0362  0.0640  0.3912
  675MOL0     C93058   9.791   4.159   7.704 -0.5510  0.5587  0.6114
  675MOL0     C93059   9.662   4.181   7.739  0.0302 -0.0646 -0.6396
  675MOL0     O93060   9.425   4.000   7.764  0.4916  0.3098 -0.7477
  675MOL0     C93061   9.220   4.188   7.969  0.2091  0.0128  0.1448
  675MOL0     C93062   9.089   4.215   8.000 -0.0822  0.0758  0.1643
  675MOL0     N93063   8.173   4.402   7.740 -0.1719  0.1119 -0.3988
  675MOL0     N93064   8.092   4.371   7.642  0.5361  0.1335 -0.1386
  675MOL0     C93065   7.568   4.567   8.188  0.0730  0.1294 -0.4623
  675MOL0     C93066   7.541   4.695   8.136  0.4761 -0.9084  0.4600
  675MOL0     C93067   7.302   5.030   7.907 -0.4287 -0.2582 -0.2781
  675MOL0     C93068   7.420   5.111   7.909 -0.3398  0.9185 -0.1850
  675MOL0     C93069   7.417   5.250   7.875 -0.0270  0.4681  0.1955
  675MOL0     C93070   7.307   5.299   7.820 -0.0951 -0.4546  0.4035
  675MOL0     O93071   7.313   5.431   7.793 -0.2692  0.1578 -0.2423
  675MOL0     C93072   7.224   5.482   7.694  0.1800 -0.5571  0.3836
  675MOL0     C93073   7.270   5.620   7.636 -0.1189  0.2465  0.3755
  675MOL0     C93074   7.275   5.734   7.739  0.2672 -0.4032  0.1997
  675MOL0     C93075   7.135   5.789   7.771  0.3245  0.7880 -0.1692
  675MOL0     C93076   7.090   5.867   7.654  0.0413 -1.0099 -0.1240
  675MOL0     C93077   7.056   5.916   7.540 -0.1055  0.7546 -0.2538
  675MOL0     C93078   7.191   5.222   7.800  0.1518  0.0475  0.0508
  675MOL0     C93079   7.185   5.088   7.852 -0.6911 -0.6905  1.0720
  675MOL0     C93080   7.056   5.020   7.837 -0.3346 -0.4237 -0.4674
  675MOL0     H93081   7.284   4.613   7.929 -0.6494  2.2878  1.0174
  675MOL0     H93082   7.342   4.386   8.012 -2.2554  1.6293 -0.1068
  675MOL0     H93083   7.734   4.233   8.145  1.4180  0.9511 -1.9080
  675MOL0     H93084   7.710   4.370   8.043  2.1403 -1.4301 -2.3182
  675MOL0     H93085   7.554   4.113   7.998 -2.9536  1.1397 -2.2228
  675MOL0     H93086   7.544   4.263   7.906  1.0176  0.8359  0.0970
  675MOL0     H93087   7.798   4.241   7.855 -0.1309  0.0311 -0.3732
  675MOL0     H93088   7.782   4.071   7.909  1.2788 -0.1144 -0.5331
  675MOL0     H93089   7.633   4.004   7.748  1.4365 -0.3435  0.6836
  675MOL0     H93090   7.576   4.175   7.727 -0.6002  1.0051  4.4266
  675MOL0     H93091   7.776   4.226   7.599  2.4474 -0.3402 -2.6629
  675MOL0     H93092   7.708   4.085   7.522  0.7994  2.9109 -1.5081
  675MOL0     H93093   7.946   4.108   7.716 -0.3547  0.1003  0.1214
  675MOL0     H93094   7.878   3.951   7.675  1.4727 -0.0248  2.3202
  675MOL0     H93095   7.917   4.034   7.429  0.0699 -2.6340  1.0898
  675MOL0     H93096   8.059   3.980   7.526 -0.3727 -0.4082 -2.9369
  675MOL0     H93097   8.112   4.181   7.396 -0.5866 -0.4803 -0.7109
  675MOL0     H93098   7.975   4.268   7.454  2.1537  0.7431  0.1218
  675MOL0     H93099   8.265   4.095   7.639 -3.0411 -0.3316 -2.1205
  675MOL0     H93100   8.359   4.191   7.892  1.6126 -1.5124 -1.5662
  675MOL0     H93101   8.368   4.371   7.911 -0.4701  1.2637 -1.3998
  675MOL0     H93102   8.520   4.222   7.706  0.3157 -1.6456  1.6390
  675MOL0     H93103   8.528   4.397   7.750 -0.8758  0.6754  0.9959
  675MOL0     H93104   8.621   4.333   7.972 -1.5266 -0.8881  0.3706
  675MOL0     H93105   8.571   4.163   7.953  2.1572 -0.0915  3.1184
  675MOL0     H93106   8.743   4.109   7.812 -0.6427 -1.0383  1.9664
  675MOL0     H93107   8.771   4.271   7.753 -1.9982  1.3067 -0.2628
  675MOL0     H93108   8.934   4.092   7.724 -1.2581  1.6714  0.7055
  675MOL0     H93109   9.208   3.921   7.618  1.3348  0.3162 -2.3114
  675MOL0     H93110   9.272   4.073   7.581  2.1733 -1.2614  3.2738
  675MOL0     H93111   9.096   4.031   7.547 -1.2463 -0.4146  1.6445
  675MOL0     H93112   9.674   4.104   8.068 -0.3271 -2.7283 -1.4620
  675MOL0     H93113   9.920   4.094   8.014  2.4334  4.0669 -0.6141
  675MOL0     H93114  10.109   4.130   7.943 -0.4722 -0.2399 -0.2905
  675MOL0     H93115  10.107   3.965   7.875 -0.3133  1.2693  2.4087
  675MOL0     H93116  10.266   4.057   7.697 -1.2784 -0.0848 -0.1315
  675MOL0     H93117  10.285   4.204   7.793  0.0019 -0.5333  0.7487
  675MOL0     H93118  10.367   3.921   7.871  0.9600  0.3611 -4.5052
  675MOL0     H93119  10.361   4.049   7.984  1.5544 -0.0941  0.3047
  675MOL0     H93120  10.500   4.184   7.832 -4.0923 -0.8714  0.4298
  675MOL0     H93121  10.514   4.051   7.717  2.6461  1.3053 -0.0316
  675MOL0     H93122  10.598   3.903   7.902 -0.9943  0.0371  1.5053
  675MOL0     H93123  10.719   4.019   7.844 -0.6759 -1.8175 -2.4142
  675MOL0     H93124  10.548   4.046   8.106  0.4357  0.0279  0.3711
  675MOL0     H93125  10.636   4.177   8.036 -3.5033  1.0400  0.8804
  675MOL0     H93126  10.756   3.903   8.115 -1.3942 -0.4156  0.6481
  675MOL0     H93127  10.747   4.041   8.234 -1.8318 -0.7543 -0.4741
  675MOL0     H93128  10.905   4.040   7.984 -2.2679 -2.5584  1.7231
  675MOL0     H93129  10.962   4.018   8.144  2.2424  0.9595 -1.0136
  675MOL0     H93130   9.831   4.193   7.609  1.1129 -3.2005 -0.2606
  675MOL0     H93131   9.596   4.226   7.665  1.2276 -0.5241 -2.0271
  675MOL0     H93132   9.300   4.203   8.042  0.0424  2.0613 -0.0606
  675MOL0     H93133   9.062   4.262   8.094  0.0509  0.9322 -0.2263
  675MOL0     H93134   7.656   4.558   8.252 -1.4502 -0.7295  1.6301
  675MOL0     H93135   7.593   4.781   8.177  0.4488 -1.0338  0.7636
  675MOL0     H93136   7.516   5.076   7.944 -0.7980 -1.6697 -1.3115
  675MOL0     H93137   7.500   5.318   7.887 -1.4156  1.8407  2.7851
  675MOL0     H93138   7.213   5.409   7.613  0.6195  1.7659 -1.9171
  675MOL0     H93139   7.130   5.511   7.741 -0.7727  0.5297 -1.9854
  675MOL0     H93140   7.203   5.644   7.553  1.9594  2.3423 -0.8117
  675MOL0     H93141   7.362   5.607   7.579 -0.4724  3.8756 -1.2878
  675MOL0     H93142   7.320   5.694   7.830  0.4791 -2.2523 -0.6720
  675MOL0     H93143   7.343   5.811   7.702 -0.8501 -1.1586 -4.0730
  675MOL0     H93144   7.145   5.843   7.866  3.7744  1.7939 -0.9448
  675MOL0     H93145   7.072   5.704   7.798  2.4545 -0.1485  2.2414
  675MOL0     H93146   7.050   5.966   7.445  3.8265  1.8198 -0.1288
  675MOL0     H93147   7.103   5.268   7.755  0.4997  1.1461  0.4543
  675MOL0     H93148   7.018   5.006   7.939  1.4485  2.0522  0.6442
  675MOL0     H93149   6.986   5.078   7.775  0.1452  1.1343  0.3883
  675MOL0     H93150   7.064   4.930   7.776  3.2172  0.3914 -1.4237
  676MOL0     O93151   4.073   5.947   1.976 -0.2279 -0.0811  0.4372
  676MOL0     C93152   4.005   5.898   1.894  0.0493 -0.0015  0.1422
  676MOL0     O93153   4.011   5.925   1.758 -0.4302  0.4695 -0.3028
  676MOL0     C93154   4.121   5.986   1.705 -0.2375 -0.1163  0.3946
  676MOL0     C93155   4.250   5.938   1.731 -0.1999  0.1420 -0.0827
  676MOL0     C93156   4.371   6.002   1.686  0.3070  0.5566  0.0220
  676MOL0     C93157   4.364   6.110   1.605 -0.3598 -0.3672  0.3056
  676MOL0     O93158   4.481   6.164   1.548  0.0022  0.4047 -0.1906
  676MOL0     C93159   4.478   6.272   1.447  0.3999  0.5425 -0.3291
  676MOL0     C93160   4.615   6.282   1.383 -0.5815 -0.0951  0.2183
  676MOL0     C93161   4.700   6.394   1.448  0.1048 -1.2204  0.0830
  676MOL0     C93162   4.843   6.393   1.392 -0.0193 -0.2440  0.1039
  676MOL0     C93163   4.924   6.491   1.470  0.4284 -0.4874 -0.0055
  676MOL0     C93164   5.070   6.486   1.421 -0.2715 -0.1293 -0.3273
  676MOL0     C93165   5.161   6.539   1.532  0.2803 -0.3841  0.7174
  676MOL0     C93166   5.162   6.689   1.556  0.2844 -0.3254  0.2688
  676MOL0     N93167   5.265   6.734   1.649 -0.0387  1.0296 -0.4160
  676MOL0     C93168   5.274   6.679   1.779  0.2336 -0.5684  0.1330
  676MOL0     C93169   5.389   6.738   1.831 -0.1525  1.3670  0.2337
  676MOL0     C93170   5.451   6.713   1.966 -0.1923  0.5697  0.1060
  676MOL0     C93171   5.606   6.711   1.967  0.6154  0.0189 -0.2393
  676MOL0     C93172   5.685   6.583   1.926  0.9340  0.9595 -0.2115
  676MOL0     C93173   5.670   6.544   1.780 -0.1362  0.2694  0.2864
  676MOL0     O93174   5.789   6.477   1.726  0.0780  0.1820 -0.0353
  676MOL0     C93175   5.903   6.557   1.704 -1.0195 -0.1863 -0.5913
  676MOL0     C93176   5.933   6.693   1.723  0.4020  0.2610 -0.2612
  676MOL0     C93177   6.046   6.758   1.673 -0.6433 -0.3183 -0.0449
  676MOL0     C93178   6.068   6.904   1.697  0.4943  0.3839 -0.0260
  676MOL0     C93179   6.147   6.680   1.608 -0.2277 -0.4863  0.2564
  676MOL0     C93180   6.280   6.742   1.559  0.3614 -0.5451  0.6269
  676MOL0     O93181   6.334   6.843   1.623  0.4935  0.0969  0.0653
  676MOL0     C93182   6.439   6.904   1.562 -0.2753  0.1343 -0.2627
  676MOL0     C93183   6.551   6.840   1.531 -0.2880  0.0380  0.1177
  676MOL0     C93184   6.665   6.912   1.476  0.0515  0.1251 -0.3829
  676MOL0     C93185   6.655   7.055   1.459 -0.0185 -0.7821  0.3161
  676MOL0     O93186   6.774   7.118   1.426  1.2609  0.0527  0.4243
  676MOL0     C93187   6.770   7.268   1.431  0.6529  1.5332 -0.7694
  676MOL0     C93188   6.902   7.299   1.365 -0.0578 -0.1171  0.8695
  676MOL0     C93189   6.935   7.454   1.367  0.4782 -0.2162  0.0135
  676MOL0     C93190   7.086   7.469   1.352  0.1570  0.1223 -0.7581
  676MOL0     C93191   7.113   7.613   1.345 -0.6228  0.2076  0.2154
  676MOL0     C93192   7.263   7.647   1.341 -0.6356 -0.8543  0.0959
  676MOL0     C93193   7.330   7.634   1.474  0.1367 -0.0896  0.0207
  676MOL0     C93194   7.471   7.681   1.478  0.4823 -0.0179 -0.9377
  676MOL0    Cl93195   7.586   7.551   1.453  0.4357  0.0675 -0.0480
  676MOL0     C93196   6.536   7.117   1.498 -0.3611 -0.1819 -0.3038
  676MOL0     C93197   6.430   7.039   1.555  0.5128 -0.8236  0.2301
  676MOL0     O93198   6.331   6.690   1.459  0.5126 -0.4426 -0.3307
  676MOL0     C93199   6.132   6.538   1.612  0.0625  0.3287 -0.0801
  676MOL0     C93200   6.007   6.482   1.651 -0.0382 -0.4381  0.6953
  676MOL0     N93201   5.439   6.813   1.732  0.3368 -0.0402 -0.0671
  676MOL0     N93202   5.371   6.810   1.624 -0.0992 -0.5390 -0.1094
  676MOL0     C93203   4.235   6.159   1.568  0.3666  0.0610  0.3839
  676MOL0     C93204   4.119   6.096   1.614 -0.6307  0.1694 -0.0433
  676MOL0     C93205   3.910   5.795   1.940 -0.7375 -0.0918 -0.2056
  676MOL0     C93206   3.888   5.697   1.842  0.1005  0.5373  0.5324
  676MOL0     C93207   3.775   5.612   1.857  0.1304  0.0609 -0.6259
  676MOL0     C93208   3.709   5.597   1.981  0.7399  0.0098  0.1987
  676MOL0     O93209   3.629   5.496   2.010  0.3169  0.0111  0.2124
  676MOL0     C93210   3.566   5.425   1.910  0.3630  0.0195  0.1726
  676MOL0     C93211   3.463   5.331   1.963 -0.1490 -0.4152 -0.2162
  676MOL0     C93212   3.412   5.260   1.841 -0.3801  1.0623  0.5096
  676MOL0     C93213   3.339   5.130   1.894  0.0575 -1.4820 -0.0844
  676MOL0     C93214   3.240   5.076   1.798  0.1298  0.0714  0.4768
  676MOL0     C93215   3.153   5.031   1.728 -0.3879  0.8858  0.5775
  676MOL0     C93216   3.744   5.692   2.083  0.4767  0.5818 -0.0298
  676MOL0     C93217   3.837   5.792   2.062 -0.7672 -0.2331 -0.0770
  676MOL0     C93218   3.875   5.893   2.167  0.4281  0.1713  0.3013
  676MOL0     H93219   4.255   5.846   1.788 -0.1438 -0.8920 -1.6902
  676MOL0     H93220   4.467   5.955   1.702 -1.0941 -3.2426 -1.4566
  676MOL0     H93221   4.443   6.366   1.492 -3.0751 -0.6739 -0.2110
  676MOL0     H93222   4.412   6.240   1.366 -0.2857  0.8711  0.0958
  676MOL0     H93223   4.665   6.186   1.392 -2.0842 -1.1501 -1.9059
  676MOL0     H93224   4.596   6.301   1.277  0.7599  1.7702  0.2595
  676MOL0     H93225   4.660   6.493   1.424 -0.1917 -1.3624 -0.0146
  676MOL0     H93226   4.695   6.384   1.557 -3.8946 -1.5757  0.0237
  676MOL0     H93227   4.884   6.295   1.415  0.8923  0.5111  1.8513
  676MOL0     H93228   4.843   6.407   1.283 -2.0727  0.4931  0.1410
  676MOL0     H93229   4.899   6.478   1.576  2.4717  0.2581  0.6275
  676MOL0     H93230   4.893   6.593   1.448  0.7629 -0.7095 -1.6550
  676MOL0     H93231   5.102   6.388   1.388  1.1984 -0.2014  1.1577
  676MOL0     H93232   5.073   6.547   1.330 -0.1165 -2.1226 -1.7260
  676MOL0     H93233   5.263   6.513   1.503  0.4305  0.5778  0.3577
  676MOL0     H93234   5.141   6.487   1.626  0.2958 -0.9904  0.3896
  676MOL0     H93235   5.195   6.744   1.467  1.3320  0.1284  0.9178
  676MOL0     H93236   5.067   6.730   1.590 -1.6239 -2.9479 -1.5326
  676MOL0     H93237   5.202   6.609   1.819 -0.2890  0.5299  1.2128
  676MOL0     H93238   5.414   6.613   1.991  1.3877 -0.1814 -0.4383
  676MOL0     H93239   5.412   6.790   2.033  2.0746  1.5075  0.4351
  676MOL0     H93240   5.644   6.798   1.913 -0.4010  0.3735 -0.4042
  676MOL0     H93241   5.637   6.729   2.071  0.5999  1.1324 -0.4135
  676MOL0     H93242   5.788   6.601   1.958  1.6624 -2.0777 -0.5385
  676MOL0     H93243   5.657   6.500   1.992  4.8326 -0.8964 -0.6145
  676MOL0     H93244   5.588   6.476   1.758  0.8930 -0.4125 -1.6833
  676MOL0     H93245   5.652   6.638   1.727  0.0568  0.4197  0.4853
  676MOL0     H93246   5.862   6.760   1.772  2.1284  2.2222 -0.2939
  676MOL0     H93247   6.130   6.920   1.786 -1.0341 -1.0931  1.4162
  676MOL0     H93248   5.975   6.954   1.725  1.1001  1.5636 -0.0763
  676MOL0     H93249   6.107   6.953   1.608 -1.2527  1.5013 -0.2310
  676MOL0     H93250   6.581   6.739   1.556  3.1331  0.2276 -2.3971
  676MOL0     H93251   6.757   6.863   1.445  1.5226  1.5911  1.4527
  676MOL0     H93252   6.693   7.303   1.362 -0.3919 -0.1803 -0.5408
  676MOL0     H93253   6.765   7.311   1.532  1.9619  0.7752 -0.3643
  676MOL0     H93254   6.982   7.253   1.423  0.6703  0.0265 -0.0094
  676MOL0     H93255   6.903   7.267   1.260 -1.4610 -1.2087  1.1412
  676MOL0     H93256   6.904   7.506   1.458 -0.3123  1.7595 -1.2889
  676MOL0     H93257   6.876   7.501   1.287 -0.1455 -0.4691  0.3180
  676MOL0     H93258   7.128   7.419   1.265  1.3900  1.0448 -0.7147
  676MOL0     H93259   7.139   7.427   1.437 -3.8327  2.7207  3.5426
  676MOL0     H93260   7.065   7.650   1.253  0.8306 -1.1926 -1.1679
  676MOL0     H93261   7.064   7.669   1.426 -0.8711 -0.9655  0.8913
  676MOL0     H93262   7.272   7.746   1.295 -3.8612 -0.9945 -1.1054
  676MOL0     H93263   7.321   7.584   1.273 -0.3841 -2.2085  1.5124
  676MOL0     H93264   7.333   7.533   1.516  0.9992  0.0479  0.3110
  676MOL0     H93265   7.266   7.702   1.530 -0.0712 -0.6084  0.4270
  676MOL0     H93266   7.484   7.731   1.575  1.1963 -0.2723 -0.8932
  676MOL0     H93267   7.477   7.760   1.403  1.0588  1.1152  0.2465
  676MOL0     H93268   6.521   7.225   1.499  0.9749  0.1054  2.8236
  676MOL0     H93269   6.338   7.087   1.587  0.4845 -0.3875 -0.4871
  676MOL0     H93270   6.196   6.469   1.558  0.8888  0.8860  0.1756
  676MOL0     H93271   5.990   6.376   1.632  2.9273 -1.4036  2.6061
  676MOL0     H93272   4.213   6.242   1.502 -0.1587 -0.6356 -0.3416
  676MOL0     H93273   4.019   6.138   1.608 -1.4465 -1.4251  1.4619
  676MOL0     H93274   3.952   5.696   1.754  0.7198  0.5958  0.9763
  676MOL0     H93275   3.765   5.541   1.776  0.7105 -0.5838 -0.1490
  676MOL0     H93276   3.524   5.488   1.831 -0.2546  1.2615  1.4584
  676MOL0     H93277   3.643   5.361   1.866  1.1375  1.5320 -0.7695
  676MOL0     H93278   3.383   5.395   2.002 -0.0961  0.6154 -1.6893
  676MOL0     H93279   3.499   5.256   2.034 -4.0900 -4.3407 -1.9219
  676MOL0     H93280   3.347   5.323   1.779  0.6528 -0.6617 -2.5965
  676MOL0     H93281   3.497   5.219   1.786 -2.0206  0.3750 -1.6800
  676MOL0     H93282   3.279   5.159   1.981  0.3395 -1.9777  0.2761
  676MOL0     H93283   3.410   5.054   1.929  0.8196 -0.6122  0.2850
  676MOL0     H93284   3.085   4.998   1.653 -1.4217 -0.6240  2.1278
  676MOL0     H93285   3.691   5.689   2.177  0.0516  0.6085 -0.2683
  676MOL0     H93286   3.833   5.992   2.148  0.3965  0.1686  0.3548
  676MOL0     H93287   3.837   5.869   2.267  1.0123  0.9129  0.7062
  676MOL0     H93288   3.982   5.905   2.187  0.5361 -0.1705 -0.0656
  677MOL0     O93289   9.379   5.483   1.513  0.0267 -0.1546  0.0891
  677MOL0     C93290   9.390   5.373   1.569 -0.0734 -0.4367 -0.7852
  677MOL0     O93291   9.452   5.263   1.521 -0.1505  0.0973  0.3522
  677MOL0     C93292   9.532   5.266   1.411  0.2750  0.2402 -0.6814
  677MOL0     C93293   9.664   5.212   1.420  0.3789  0.5719 -0.2003
  677MOL0     C93294   9.750   5.195   1.307  0.1471 -0.7484 -0.1598
  677MOL0     C93295   9.700   5.228   1.177 -0.4187  0.4881 -0.5979
  677MOL0     O93296   9.777   5.215   1.065 -0.5388 -0.2892  0.0555
  677MOL0     C93297   9.913   5.257   1.076 -0.1304  0.6031 -0.2842
  677MOL0     C93298   9.972   5.281   0.946 -0.9634 -0.1108  0.0684
  677MOL0     C93299  10.123   5.277   0.954  0.2645  0.2058  0.0939
  677MOL0     C93300  10.178   5.295   0.814  0.1256 -0.6887  0.6730
  677MOL0     C93301  10.335   5.303   0.819  0.2821  1.1466  0.0217
  677MOL0     C93302  10.399   5.374   0.701 -0.8930 -0.2859  0.3869
  677MOL0     C93303  10.549   5.360   0.711 -0.3797 -0.5147  0.6388
  677MOL0     C93304  10.621   5.456   0.807 -0.4188  1.2588  0.0964
  677MOL0     N93305  10.768   5.423   0.806  0.6962 -0.3685  0.3214
  677MOL0     C93306  10.822   5.319   0.871 -0.8147  1.2016 -1.3122
  677MOL0     C93307  10.957   5.336   0.866 -0.5105 -0.3411 -0.6258
  677MOL0     C93308  11.060   5.246   0.924  0.1244  0.4909 -0.2168
  677MOL0     C93309  11.069   5.265   1.076  0.3303 -0.4582 -0.0071
  677MOL0     C93310  11.137   5.395   1.126  0.3585  0.1402 -0.3022
  677MOL0     C93311  11.173   5.387   1.278  0.0319 -0.1698  0.0458
  677MOL0     O93312  11.295   5.308   1.295 -0.5802 -0.0283  0.5388
  677MOL0     C93313  11.344   5.310   1.420  0.1806  0.2491 -1.4173
  677MOL0     C93314  11.467   5.244   1.456 -0.3419  0.0833 -0.0868
  677MOL0     C93315  11.518   5.241   1.586 -0.6965 -0.6808  0.3000
  677MOL0     C93316  11.661   5.175   1.596 -0.2447  0.2636 -0.5963
  677MOL0     C93317  11.453   5.304   1.695 -0.0758 -0.4277 -0.4637
  677MOL0     C93318  11.500   5.317   1.836  0.7362 -0.4835 -0.3633
  677MOL0     O93319  11.413   5.368   1.934  0.6985 -0.2122 -0.8393
  677MOL0     C93320  11.472   5.402   2.054  0.5902  0.5210 -0.5420
  677MOL0     C93321  11.465   5.308   2.158  0.3792  0.4132 -0.5465
  677MOL0     C93322  11.500   5.338   2.289 -0.3297  0.1196 -0.4564
  677MOL0     C93323  11.556   5.466   2.318  0.1864 -0.3751 -0.0468
  677MOL0     O93324  11.598   5.497   2.446 -0.3308 -0.4775 -0.0405
  677MOL0     C93325  11.533   5.607   2.512  0.5263  0.0630  0.0843
  677MOL0     C93326  11.381   5.590   2.540  1.0393  0.2238 -0.1855
  677MOL0     C93327  11.351   5.462   2.606  0.7183  1.0238  0.0991
  677MOL0     C93328  11.199   5.424   2.585 -0.3343 -0.4068  0.5367
  677MOL0     C93329  11.099   5.515   2.651  0.1419  0.1512  0.0119
  677MOL0     C93330  10.947   5.488   2.624 -0.4534  1.2229  0.2734
  677MOL0     C93331  10.856   5.565   2.709 -0.1433  0.3173 -0.9807
  677MOL0     C93332  10.715   5.552   2.636  0.6684 -0.1978 -0.2830
  677MOL0    Cl93333  10.643   5.384   2.646  0.2240  0.2386 -0.3985
  677MOL0     C93334  11.555   5.567   2.213 -0.5617  0.7217 -0.7564
  677MOL0     C93335  11.509   5.529   2.088 -0.6157  1.0641  0.2275
  677MOL0     O93336  11.611   5.266   1.859 -0.1604  0.2194 -0.8319
  677MOL0     C93337  11.325   5.356   1.668 -0.5455  1.0583  0.9955
  677MOL0     C93338  11.275   5.359   1.540  0.2198 -0.9098  0.6554
  677MOL0     N93339  10.985   5.440   0.785 -0.5529  0.0958  0.4546
  677MOL0     N93340  10.870   5.491   0.748  0.3315 -0.0361 -0.0035
  677MOL0     C93341   9.569   5.272   1.169  0.3285 -0.1239  0.1776
  677MOL0     C93342   9.491   5.298   1.285 -0.0723  0.3569  0.3458
  677MOL0     C93343   9.352   5.362   1.714 -0.1014  1.0369  0.9667
  677MOL0     C93344   9.304   5.235   1.747 -0.0572  0.2518 -0.8236
  677MOL0     C93345   9.254   5.207   1.876 -0.0247 -0.1488 -1.0991
  677MOL0     C93346   9.257   5.293   1.975 -0.3752  0.1288  0.4065
  677MOL0     O93347   9.221   5.249   2.104 -0.2658  0.1141  0.5747
  677MOL0     C93348   9.245   5.329   2.220  0.5709 -0.3636  0.2787
  677MOL0     C93349   9.398   5.330   2.273 -0.2095  0.5589  0.1616
  677MOL0     C93350   9.514   5.375   2.178 -0.5759  0.6633 -0.7199
  677MOL0     C93351   9.659   5.351   2.239  0.3190 -0.3353  0.2984
  677MOL0     C93352   9.694   5.470   2.312  0.3520 -0.1576 -0.4020
  677MOL0     C93353   9.739   5.567   2.373  0.5351  0.0032  0.1844
  677MOL0     C93354   9.298   5.422   1.936 -0.4414  0.6754  0.1470
  677MOL0     C93355   9.332   5.462   1.803  0.5890  0.4334 -0.5530
  677MOL0     C93356   9.365   5.604   1.770 -0.2573 -0.0071  0.0858
  677MOL0     H93357   9.708   5.179   1.514  1.6231  2.2815 -0.1438
  677MOL0     H93358   9.848   5.150   1.318  0.4357 -0.4651 -1.4849
  677MOL0     H93359   9.975   5.183   1.127  0.0371 -0.3093 -1.7492
  677MOL0     H93360   9.919   5.346   1.139  1.8893  0.4935 -0.2435
  677MOL0     H93361   9.943   5.207   0.870 -0.0961 -1.0549  0.6341
  677MOL0     H93362   9.942   5.378   0.906 -1.4555 -0.1946  0.2321
  677MOL0     H93363  10.174   5.336   1.031 -0.0990 -0.2346  0.6798
  677MOL0     H93364  10.149   5.175   0.983 -0.6920  0.2202  1.0363
  677MOL0     H93365  10.151   5.218   0.740  0.8925  1.0431 -1.5157
  677MOL0     H93366  10.136   5.389   0.777 -0.3351 -0.4004  1.8847
  677MOL0     H93367  10.386   5.207   0.834 -1.4659  0.1842  0.1088
  677MOL0     H93368  10.350   5.363   0.910  0.6500  1.4193 -0.2170
  677MOL0     H93369  10.362   5.330   0.608  2.4170 -0.7337 -0.8527
  677MOL0     H93370  10.367   5.478   0.704  0.8235  0.2894  2.7283
  677MOL0     H93371  10.581   5.390   0.611 -0.9989  1.8773  1.1001
  677MOL0     H93372  10.586   5.257   0.712  4.1715  0.9173  0.9155
  677MOL0     H93373  10.612   5.562   0.780  2.6114  1.5932  0.1337
  677MOL0     H93374  10.583   5.437   0.907  1.2941  1.2582  0.7706
  677MOL0     H93375  10.776   5.234   0.921 -1.5326 -0.0928 -4.0207
  677MOL0     H93376  11.163   5.265   0.892  0.5044  0.0078  0.6524
  677MOL0     H93377  11.043   5.140   0.902  2.3274 -0.0483  0.3414
  677MOL0     H93378  10.968   5.270   1.117  0.5911 -0.5152  0.6449
  677MOL0     H93379  11.126   5.177   1.105  0.2149 -0.9250 -1.1134
  677MOL0     H93380  11.224   5.409   1.061 -0.6207 -0.0571 -1.7048
  677MOL0     H93381  11.071   5.481   1.112  0.0125 -0.3077 -1.5817
  677MOL0     H93382  11.191   5.488   1.314  0.2330 -0.7457  1.6136
  677MOL0     H93383  11.081   5.354   1.329  0.4457  1.1756  1.7364
  677MOL0     H93384  11.516   5.211   1.364  1.0968  2.0597 -0.0934
  677MOL0     H93385  11.717   5.184   1.503 -0.5527  3.2783 -0.5970
  677MOL0     H93386  11.654   5.073   1.633 -0.5181  0.4227 -0.2030
  677MOL0     H93387  11.736   5.225   1.658  1.9101 -1.7344 -1.4393
  677MOL0     H93388  11.418   5.211   2.141 -4.2832  2.5143 -1.1671
  677MOL0     H93389  11.488   5.250   2.352  2.1815 -1.9383 -2.6046
  677MOL0     H93390  11.578   5.614   2.611 -1.7897  0.0762  1.2018
  677MOL0     H93391  11.549   5.698   2.454  1.6706 -1.1011 -1.5589
  677MOL0     H93392  11.352   5.667   2.612 -0.6699 -1.5684  1.1580
  677MOL0     H93393  11.333   5.604   2.442 -0.1198  1.8127  0.5633
  677MOL0     H93394  11.369   5.471   2.713 -0.8387  3.2608  0.2388
  677MOL0     H93395  11.407   5.375   2.570 -1.8662 -1.4045  1.5936
  677MOL0     H93396  11.191   5.315   2.595 -1.8295 -0.8347 -3.4156
  677MOL0     H93397  11.177   5.433   2.478 -1.6636  0.4085  0.8640
  677MOL0     H93398  11.116   5.528   2.758 -0.0195  1.1691 -0.0723
  677MOL0     H93399  11.112   5.613   2.602  0.3478  0.9614  1.6261
  677MOL0     H93400  10.936   5.380   2.640 -4.4728  1.4792  0.2891
  677MOL0     H93401  10.930   5.500   2.516  0.3620  0.3567  0.0326
  677MOL0     H93402  10.884   5.671   2.717  1.3947 -0.2089  1.7319
  677MOL0     H93403  10.847   5.535   2.814  2.4484  0.7886 -0.5403
  677MOL0     H93404  10.711   5.595   2.536 -2.2261 -0.1401 -0.2481
  677MOL0     H93405  10.640   5.617   2.682  0.2605 -0.4153 -0.6364
  677MOL0     H93406  11.596   5.665   2.235  3.1661 -0.9667  0.8272
  677MOL0     H93407  11.507   5.591   1.999  0.7951 -1.9446 -2.1040
  677MOL0     H93408  11.261   5.390   1.748  0.6507  1.5103  1.7835
  677MOL0     H93409  11.174   5.395   1.532 -0.1175 -0.9549  3.7018
  677MOL0     H93410   9.541   5.299   1.067  2.5748  0.1140 -0.4531
  677MOL0     H93411   9.389   5.329   1.261  0.3734  3.3938  1.8846
  677MOL0     H93412   9.317   5.152   1.678  3.5565 -0.6530  0.6926
  677MOL0     H93413   9.211   5.110   1.895  0.6080  0.3701  4.8289
  677MOL0     H93414   9.220   5.433   2.197  2.8670  0.4127  0.9702
  677MOL0     H93415   9.177   5.288   2.296 -1.0616 -1.4890 -1.6985
  677MOL0     H93416   9.418   5.229   2.308 -2.2196 -0.2253 -0.8068
  677MOL0     H93417   9.406   5.398   2.359 -0.8765 -0.1494  0.7962
  677MOL0     H93418   9.506   5.329   2.079  0.3697  0.3387 -0.6596
  677MOL0     H93419   9.498   5.482   2.163 -1.9340  0.6892  0.7154
  677MOL0     H93420   9.734   5.320   2.166  0.2302  1.1567 -0.4737
  677MOL0     H93421   9.653   5.275   2.316  3.2723  0.3199  1.2903
  677MOL0     H93422   9.776   5.660   2.411  0.5832  0.4164 -0.8442
  677MOL0     H93423   9.283   5.499   2.011  0.9420  2.0350 -0.8917
  677MOL0     H93424   9.347   5.671   1.855  0.9519 -0.4410  0.7064
  677MOL0     H93425   9.468   5.613   1.735  0.3981  1.1851  2.1300
  677MOL0     H93426   9.310   5.632   1.679  2.7497 -1.4524 -2.3317
  678MOL0     O93427   1.900   8.042   2.187  0.7282  0.1371 -0.3489
  678MOL0     C93428   1.807   8.009   2.252  0.6351 -0.3153 -0.9396
  678MOL0     O93429   1.790   7.894   2.334 -0.0532  1.0631  0.1594
  678MOL0     C93430   1.908   7.842   2.377 -0.0857  0.2540 -0.3536
  678MOL0     C93431   1.984   7.763   2.296  0.1987  0.1797  0.4153
  678MOL0     C93432   2.090   7.685   2.340  0.5726  0.4482 -0.3927
  678MOL0     C93433   2.118   7.699   2.479  0.2555  0.3761  0.2386
  678MOL0     O93434   2.237   7.655   2.535 -0.7194  0.0849 -0.2463
  678MOL0     C93435   2.312   7.557   2.464 -0.2156 -0.1572 -0.2070
  678MOL0     C93436   2.424   7.506   2.560  0.1586  0.4378  0.2263
  678MOL0     C93437   2.530   7.610   2.616  0.4087 -1.3111 -0.3759
  678MOL0     C93438   2.609   7.548   2.728 -0.0624 -0.1170  0.0459
  678MOL0     C93439   2.738   7.630   2.762  0.2316 -0.4160 -0.8984
  678MOL0     C93440   2.712   7.758   2.849 -0.2562 -0.7658  1.0163
  678MOL0     C93441   2.774   7.885   2.774 -0.3437  0.5689  0.2425
  678MOL0     C93442   2.805   8.002   2.872 -0.5245  0.6471  0.2062
  678MOL0     N93443   2.924   8.077   2.837  0.7632 -0.1362 -0.0783
  678MOL0     C93444   2.944   8.135   2.716 -0.1417  0.9119 -0.2805
  678MOL0     C93445   3.047   8.223   2.730  0.0100  1.0874  0.1174
  678MOL0     C93446   3.117   8.295   2.627 -0.7934 -0.0243 -0.2015
  678MOL0     C93447   3.195   8.213   2.529  0.4946 -0.5210  0.1056
  678MOL0     C93448   3.301   8.128   2.599  0.5208  0.2442 -0.0499
  678MOL0     C93449   3.411   8.198   2.679  0.4730 -0.5051 -0.1152
  678MOL0     O93450   3.505   8.102   2.705 -0.2423 -0.2807 -0.0062
  678MOL0     C93451   3.635   8.124   2.747  0.6606 -0.8434  0.3363
  678MOL0     C93452   3.739   8.035   2.728  0.6724 -0.2554 -0.3900
  678MOL0     C93453   3.868   8.069   2.774  0.7069  0.9081 -0.1896
  678MOL0     C93454   3.975   7.966   2.748 -0.7304  1.1321  0.4839
  678MOL0     C93455   3.896   8.191   2.828  0.3121 -0.0755  0.0009
  678MOL0     C93456   4.027   8.234   2.868 -0.9180  0.6015  0.4785
  678MOL0     O93457   4.039   8.296   2.989  0.0838  0.1876  0.2435
  678MOL0     C93458   4.163   8.334   3.036  0.6960 -0.5926 -0.2349
  678MOL0     C93459   4.182   8.457   3.106 -0.1647 -0.7381  0.1026
  678MOL0     C93460   4.309   8.501   3.149  0.1548  0.2980 -0.1679
  678MOL0     C93461   4.423   8.430   3.113 -0.5298  0.1513 -0.7245
  678MOL0     O93462   4.543   8.492   3.140 -0.4114 -0.3496 -0.2730
  678MOL0     C93463   4.665   8.445   3.085 -0.3742  0.7349  0.3243
  678MOL0     C93464   4.783   8.530   3.132  0.5494  0.3867  0.0806
  678MOL0     C93465   4.909   8.454   3.119  0.2064 -0.0738  0.4263
  678MOL0     C93466   5.030   8.532   3.168 -0.3716  0.3556  0.4902
  678MOL0     C93467   5.160   8.459   3.135  0.0212  0.5622 -0.2852
  678MOL0     C93468   5.280   8.513   3.206  0.1100  0.5069  1.1186
  678MOL0     C93469   5.400   8.421   3.201 -0.0034 -0.6366 -0.3910
  678MOL0     C93470   5.397   8.303   3.300 -0.5703 -0.3883  0.9047
  678MOL0    Cl93471   5.556   8.218   3.281  0.0318  0.1973  0.1877
  678MOL0     C93472   4.413   8.312   3.037  0.4179 -0.2149  0.8630
  678MOL0     C93473   4.284   8.259   3.014  0.3893  0.8886  0.2067
  678MOL0     O93474   4.123   8.224   2.788 -0.3192  0.9055  0.0045
  678MOL0     C93475   3.790   8.282   2.844 -0.3387  0.7633  0.1232
  678MOL0     C93476   3.660   8.251   2.803 -0.2806 -0.7165 -0.2268
  678MOL0     N93477   3.072   8.227   2.867  0.0343  0.2764 -0.9090
  678MOL0     N93478   2.992   8.147   2.934 -0.0800  0.0797 -0.7546
  678MOL0     C93479   2.053   7.792   2.562  1.4172  0.2487  0.6557
  678MOL0     C93480   1.940   7.855   2.510  0.3262 -0.4144 -0.5498
  678MOL0     C93481   1.680   8.092   2.244 -0.1136  0.6297 -0.3445
  678MOL0     C93482   1.584   8.064   2.341  0.2181  0.4482 -0.0052
  678MOL0     C93483   1.480   8.159   2.363  1.1346 -0.4338  0.8072
  678MOL0     C93484   1.466   8.262   2.277  0.8286 -0.0864  0.0114
  678MOL0     O93485   1.367   8.361   2.287  0.4204  0.4415 -0.5237
  678MOL0     C93486   1.254   8.355   2.375 -0.5709  0.5730  0.4254
  678MOL0     C93487   1.162   8.477   2.364  0.0685  0.5176  0.6602
  678MOL0     C93488   1.031   8.474   2.441 -0.4821  0.3004  0.1238
  678MOL0     C93489   0.952   8.600   2.386  0.2029 -0.2392 -0.4523
  678MOL0     C93490   0.831   8.614   2.473  0.0717 -0.3493 -0.1701
  678MOL0     C93491   0.724   8.634   2.537 -0.1448 -0.0999 -0.3235
  678MOL0     C93492   1.547   8.278   2.173 -0.7418 -0.0722  0.0550
  678MOL0     C93493   1.661   8.193   2.154  0.1137  0.2749 -0.1460
  678MOL0     C93494   1.747   8.236   2.040  0.2136 -0.1699  0.5805
  678MOL0     H93495   1.941   7.750   2.197  2.4788 -0.6190 -0.5371
  678MOL0     H93496   2.140   7.629   2.261 -1.2347  1.8479 -2.6258
  678MOL0     H93497   2.353   7.595   2.370 -0.9740  0.8043 -0.1493
  678MOL0     H93498   2.238   7.478   2.449  0.1783 -0.3705 -1.1089
  678MOL0     H93499   2.376   7.452   2.642  0.9863 -1.3326 -0.4033
  678MOL0     H93500   2.473   7.434   2.495 -1.3274 -0.6537  0.2741
  678MOL0     H93501   2.599   7.648   2.541 -0.2690 -2.1401 -1.4527
  678MOL0     H93502   2.474   7.697   2.651  0.0620 -1.4368 -0.6153
  678MOL0     H93503   2.540   7.532   2.811 -1.6631 -0.3761 -1.2983
  678MOL0     H93504   2.639   7.448   2.695  1.8774  0.1997  0.7265
  678MOL0     H93505   2.790   7.653   2.668  4.0015 -2.1902  0.5194
  678MOL0     H93506   2.804   7.563   2.818  0.1507  0.5238  0.3868
  678MOL0     H93507   2.607   7.779   2.872 -0.3176 -0.0910  0.1757
  678MOL0     H93508   2.770   7.748   2.941 -0.1398 -0.4100  0.9856
  678MOL0     H93509   2.697   7.911   2.701 -1.6214 -1.5461  0.7406
  678MOL0     H93510   2.860   7.850   2.715  0.5210  1.4292  0.9545
  678MOL0     H93511   2.721   8.071   2.876 -1.9820 -0.9267 -1.5376
  678MOL0     H93512   2.823   7.962   2.973  2.3027  1.3095  0.0481
  678MOL0     H93513   2.884   8.122   2.627 -0.7354  3.5195 -0.3656
  678MOL0     H93514   3.193   8.355   2.679 -2.8953  1.4343  1.3486
  678MOL0     H93515   3.046   8.356   2.571 -2.7555 -0.0842  2.0774
  678MOL0     H93516   3.136   8.138   2.476  1.2409 -2.2216  1.5255
  678MOL0     H93517   3.253   8.286   2.472 -1.9315  0.7626 -0.8373
  678MOL0     H93518   3.249   8.076   2.680 -1.3208  0.0848 -1.2861
  678MOL0     H93519   3.339   8.054   2.528 -3.1973 -2.0683  0.1189
  678MOL0     H93520   3.442   8.286   2.621 -1.9989 -0.5867 -1.7215
  678MOL0     H93521   3.378   8.238   2.775  2.7280  0.3655  0.3703
  678MOL0     H93522   3.731   7.947   2.664  2.1917 -0.1557 -0.7397
  678MOL0     H93523   4.036   7.949   2.838  1.7101 -0.2566 -1.3167
  678MOL0     H93524   4.050   7.990   2.672 -0.9024 -2.6365 -1.0854
  678MOL0     H93525   3.936   7.875   2.702  1.6095  0.3233 -0.0248
  678MOL0     H93526   4.094   8.512   3.137  0.7018 -0.8125  2.9938
  678MOL0     H93527   4.332   8.584   3.216  0.9996 -1.6294  2.1062
  678MOL0     H93528   4.685   8.340   3.111 -0.4105  0.9799  1.4082
  678MOL0     H93529   4.638   8.463   2.981 -1.4282  1.0990  0.6435
  678MOL0     H93530   4.776   8.624   3.077 -2.8166  1.4872  2.0575
  678MOL0     H93531   4.781   8.552   3.240  2.7885  0.8453  0.0838
  678MOL0     H93532   4.918   8.437   3.011 -2.7659  2.2287 -0.3407
  678MOL0     H93533   4.902   8.357   3.169  2.5272 -1.8698 -2.4024
  678MOL0     H93534   5.012   8.553   3.274  1.6033  0.6737  0.7998
  678MOL0     H93535   5.040   8.626   3.112  3.6406  0.0639  0.3887
  678MOL0     H93536   5.148   8.355   3.168 -1.2700  0.6122 -0.5240
  678MOL0     H93537   5.164   8.447   3.026 -2.4055  0.2089 -0.3968
  678MOL0     H93538   5.254   8.517   3.312  0.0249  1.9937  1.0615
  678MOL0     H93539   5.304   8.610   3.161 -0.0753 -0.6814 -1.7950
  678MOL0     H93540   5.483   8.485   3.232 -2.3447  1.4583  2.1347
  678MOL0     H93541   5.418   8.386   3.099  1.9949 -1.9079  0.3341
  678MOL0     H93542   5.322   8.231   3.268  1.5796 -1.1508 -2.9623
  678MOL0     H93543   5.390   8.331   3.406  0.0084 -1.1851  1.1653
  678MOL0     H93544   4.501   8.261   3.000  0.3153 -2.3499  3.2720
  678MOL0     H93545   4.294   8.169   2.955 -1.3656 -0.8898  2.4224
  678MOL0     H93546   3.814   8.377   2.891  1.2557 -0.4967  2.0063
  678MOL0     H93547   3.585   8.328   2.819  1.2293  0.7470  0.0907
  678MOL0     H93548   2.074   7.790   2.668  2.8697 -0.9122  0.3728
  678MOL0     H93549   1.871   7.906   2.577  0.3242  0.3565 -1.1277
  678MOL0     H93550   1.598   7.973   2.397  0.2793 -0.5732 -1.6284
  678MOL0     H93551   1.409   8.143   2.444  2.2028 -2.7989  1.3700
  678MOL0     H93552   1.192   8.268   2.354  0.7453 -0.2549 -0.1447
  678MOL0     H93553   1.294   8.352   2.477 -2.2192 -1.9582  1.0941
  678MOL0     H93554   1.143   8.486   2.257  2.1721  1.9973  0.3639
  678MOL0     H93555   1.208   8.570   2.397  2.0501  0.1311 -0.8426
  678MOL0     H93556   0.971   8.385   2.419  0.0266  0.4405 -2.0407
  678MOL0     H93557   1.054   8.475   2.548  1.4341 -0.6427 -0.2334
  678MOL0     H93558   0.905   8.583   2.289  2.0240 -2.7382 -0.9942
  678MOL0     H93559   1.019   8.687   2.385 -0.2627  0.1165 -1.5107
  678MOL0     H93560   0.625   8.646   2.577 -0.6179  1.8310 -1.8662
  678MOL0     H93561   1.540   8.362   2.105  0.4078 -0.1527 -0.1875
  678MOL0     H93562   1.703   8.300   1.963  1.3314 -0.9660 -0.7697
  678MOL0     H93563   1.830   8.296   2.078 -0.1818 -0.0484  1.2616
  678MOL0     H93564   1.786   8.145   1.993  0.1301 -1.4445  2.8612
  679MOL0     O93565   6.048   6.020   1.667 -0.4732 -0.4971 -0.9363
  679MOL0     C93566   5.960   5.967   1.732  1.0847  0.3010  0.0322
  679MOL0     O93567   5.973   5.913   1.851  0.6597 -1.0849 -0.1988
  679MOL0     C93568   6.071   5.946   1.945  0.1283  0.2211  0.5209
  679MOL0     C93569   6.035   5.960   2.081  0.0138  0.0211  0.1173
  679MOL0     C93570   6.137   5.997   2.170 -0.2667 -0.3602 -0.3983
  679MOL0     C93571   6.264   6.037   2.132 -0.3467  1.0708 -0.5143
  679MOL0     O93572   6.353   6.089   2.222  0.1725  0.1931 -0.1274
  679MOL0     C93573   6.404   5.999   2.313 -0.0027  0.5159  0.2323
  679MOL0     C93574   6.500   6.084   2.409  0.2879  0.3663  0.1285
  679MOL0     C93575   6.632   6.117   2.339 -0.0476 -0.2852  0.2420
  679MOL0     C93576   6.735   6.176   2.439 -0.1101  0.1992 -0.8320
  679MOL0     C93577   6.866   6.207   2.364 -0.5009  0.5474  0.2798
  679MOL0     C93578   6.937   6.319   2.440 -0.3225 -0.5550 -0.4845
  679MOL0     C93579   7.062   6.365   2.370 -0.4263 -0.3589 -0.0476
  679MOL0     C93580   7.027   6.468   2.253  0.7187 -0.6986  0.6082
  679MOL0     N93581   7.138   6.511   2.172 -0.2044 -0.2946  0.6600
  679MOL0     C93582   7.217   6.427   2.096 -0.2535 -0.1864 -0.9737
  679MOL0     C93583   7.290   6.502   2.029  0.6294 -0.2041  0.7316
  679MOL0     C93584   7.400   6.452   1.940 -0.4547  0.4944  0.7610
  679MOL0     C93585   7.510   6.560   1.919  0.0090  0.3991  0.2713
  679MOL0     C93586   7.626   6.500   1.826  0.3940 -0.1780 -0.6810
  679MOL0     C93587   7.703   6.601   1.743 -0.5407  0.5249 -0.3133
  679MOL0     O93588   7.744   6.708   1.820  0.3274 -0.1283 -0.4691
  679MOL0     C93589   7.867   6.711   1.881  0.4957  0.4540 -0.2303
  679MOL0     C93590   7.907   6.841   1.925  0.3678 -0.4453 -0.4780
  679MOL0     C93591   8.034   6.866   1.987  1.1272 -0.3237  0.0559
  679MOL0     C93592   8.050   6.998   2.054  0.6133  0.2164 -0.5411
  679MOL0     C93593   8.125   6.755   1.995 -0.1707 -0.5786 -0.4220
  679MOL0     C93594   8.262   6.774   2.050 -0.0540  0.0974 -0.1940
  679MOL0     O93595   8.321   6.666   2.085 -0.5276 -0.3595 -0.7567
  679MOL0     C93596   8.447   6.664   2.122  0.2394  0.3668 -0.0351
  679MOL0     C93597   8.546   6.608   2.036 -0.5591  0.2643 -0.0029
  679MOL0     C93598   8.678   6.595   2.078  0.0484 -0.1597 -0.2428
  679MOL0     C93599   8.718   6.650   2.200 -0.0403  0.1086  0.2952
  679MOL0     O93600   8.852   6.651   2.233 -0.0258 -0.5037  0.3405
  679MOL0     C93601   8.916   6.779   2.270 -0.2291  1.4895  0.2971
  679MOL0     C93602   9.067   6.748   2.258 -0.7154 -0.5693  0.3789
  679MOL0     C93603   9.107   6.733   2.110 -0.5941 -0.5848  0.8261
  679MOL0     C93604   9.106   6.875   2.036 -0.2689 -0.1882  0.3179
  679MOL0     C93605   9.174   6.886   1.895 -0.5244  0.5630 -0.0509
  679MOL0     C93606   9.326   6.902   1.895 -0.8102 -0.2315  0.1628
  679MOL0     C93607   9.382   6.942   1.755  0.2357 -0.6238  0.3174
  679MOL0     C93608   9.531   6.936   1.733 -0.6625  0.6332  0.0593
  679MOL0    Cl93609   9.607   6.771   1.778 -0.1949 -0.2433  0.0290
  679MOL0     C93610   8.619   6.696   2.287  0.0969 -0.0271  0.1998
  679MOL0     C93611   8.488   6.715   2.244  1.4255  0.3962  0.6612
  679MOL0     O93612   8.316   6.880   2.035 -0.3285  0.1013 -0.1192
  679MOL0     C93613   8.086   6.626   1.954 -0.0995 -0.6815  0.1327
  679MOL0     C93614   7.954   6.610   1.897  0.1791  0.5099 -0.3879
  679MOL0     N93615   7.258   6.638   2.050  0.8012  0.2145  0.2980
  679MOL0     N93616   7.157   6.641   2.129  0.4617  0.7695 -0.0624
  679MOL0     C93617   6.300   6.014   2.001 -0.5432 -0.2599  0.5385
  679MOL0     C93618   6.203   5.964   1.913  0.0269 -0.3662  1.2237
  679MOL0     C93619   5.824   5.952   1.670  0.0592 -0.1252 -0.1374
  679MOL0     C93620   5.754   5.832   1.703  0.6148 -0.5372  0.4029
  679MOL0     C93621   5.621   5.816   1.657  0.1456 -0.3916  0.1539
  679MOL0     C93622   5.553   5.918   1.583 -0.2815 -0.4436 -0.4265
  679MOL0     O93623   5.420   5.904   1.567  0.0948 -0.1949 -0.5114
  679MOL0     C93624   5.351   5.975   1.461 -0.2453 -0.3041  0.5138
  679MOL0     C93625   5.211   5.934   1.455  0.0596 -0.2151  0.2477
  679MOL0     C93626   5.131   6.003   1.569 -0.1596 -0.5102 -0.6947
  679MOL0     C93627   4.998   5.931   1.595 -0.0255 -0.7994 -0.2497
  679MOL0     C93628   4.906   6.026   1.667  0.4248 -0.5903 -0.5252
  679MOL0     C93629   4.832   6.103   1.720  0.2335  0.4698  0.8094
  679MOL0     C93630   5.634   6.019   1.543 -0.8921  0.0020  0.6404
  679MOL0     C93631   5.758   6.045   1.590 -1.3613 -0.1889  0.0375
  679MOL0     C93632   5.831   6.167   1.552 -0.0179  0.2086 -0.2614
  679MOL0     H93633   5.930   5.939   2.102  0.0582 -1.6533 -1.0678
  679MOL0     H93634   6.105   5.987   2.273 -0.2049  0.8969 -0.2397
  679MOL0     H93635   6.457   5.920   2.259  0.6115  0.3855  1.0082
  679MOL0     H93636   6.323   5.952   2.370  0.6660  2.4221  2.9570
  679MOL0     H93637   6.447   6.172   2.449  0.3281  0.4379  0.0261
  679MOL0     H93638   6.531   6.030   2.498  2.2996  3.3855  1.4383
  679MOL0     H93639   6.682   6.023   2.312 -0.1005 -0.7980  1.8357
  679MOL0     H93640   6.625   6.183   2.253 -0.7816 -1.3048 -0.5103
  679MOL0     H93641   6.691   6.271   2.471  0.1015 -0.1211  0.4789
  679MOL0     H93642   6.746   6.111   2.527 -1.3888  1.5178  0.3672
  679MOL0     H93643   6.838   6.246   2.266  1.5851 -0.5862 -0.8283
  679MOL0     H93644   6.931   6.120   2.353 -0.6137  0.7062 -2.0509
  679MOL0     H93645   6.877   6.409   2.457  1.6940  0.2194  4.4054
  679MOL0     H93646   6.967   6.285   2.540  2.4578 -0.7952 -1.3346
  679MOL0     H93647   7.110   6.274   2.333  0.4538 -1.0981  2.6791
  679MOL0     H93648   7.125   6.417   2.443 -0.3465 -1.4376  0.6804
  679MOL0     H93649   6.967   6.416   2.178  0.4506 -1.1228  1.1095
  679MOL0     H93650   6.970   6.555   2.288 -1.1249 -1.4639 -0.3486
  679MOL0     H93651   7.213   6.319   2.095 -1.5485 -0.1565 -0.9162
  679MOL0     H93652   7.348   6.421   1.849  0.3968  1.4464 -0.0593
  679MOL0     H93653   7.448   6.365   1.985 -0.1132 -0.6476 -1.6716
  679MOL0     H93654   7.463   6.640   1.860  0.6367  0.7439  0.2331
  679MOL0     H93655   7.546   6.604   2.012 -0.5892  0.8827  0.2787
  679MOL0     H93656   7.703   6.451   1.887  0.9699 -2.0525 -2.7690
  679MOL0     H93657   7.585   6.425   1.758  1.7027  0.6536 -2.4777
  679MOL0     H93658   7.793   6.557   1.700  0.3002  0.6234  1.2810
  679MOL0     H93659   7.647   6.628   1.653  0.6116  0.1126 -1.1729
  679MOL0     H93660   7.840   6.926   1.922  0.5362 -0.2955 -0.1306
  679MOL0     H93661   8.124   6.977   2.131 -0.6252  0.8002  0.8743
  679MOL0     H93662   7.955   7.032   2.097  0.3051 -1.1186 -0.1422
  679MOL0     H93663   8.086   7.083   1.994 -1.3372  1.5645  0.1014
  679MOL0     H93664   8.512   6.576   1.938 -1.4649  1.2231 -0.0306
  679MOL0     H93665   8.745   6.559   2.001  0.1025 -1.4128  0.3781
  679MOL0     H93666   8.879   6.863   2.211 -2.0121  1.8347  1.7908
  679MOL0     H93667   8.890   6.792   2.376 -1.1479  0.1038  0.2693
  679MOL0     H93668   9.115   6.830   2.313 -1.4474  0.6953 -0.7872
  679MOL0     H93669   9.100   6.656   2.307  1.8692 -1.1388 -2.1452
  679MOL0     H93670   9.038   6.661   2.065 -0.4695  0.9730 -2.1131
  679MOL0     H93671   9.210   6.699   2.112 -1.2469 -2.8078 -0.4251
  679MOL0     H93672   9.151   6.946   2.105  0.9849 -1.3063  0.7042
  679MOL0     H93673   9.004   6.906   2.013 -0.2068 -0.5748 -0.5225
  679MOL0     H93674   9.149   6.803   1.827  1.4474  0.1321 -0.2916
  679MOL0     H93675   9.131   6.979   1.858 -0.2585  0.4534 -0.6516
  679MOL0     H93676   9.377   6.809   1.921  0.6727  0.6048  0.3889
  679MOL0     H93677   9.347   6.975   1.974 -0.0553  0.2282 -0.4464
  679MOL0     H93678   9.339   7.040   1.732 -2.2105 -1.2851  1.7385
  679MOL0     H93679   9.334   6.880   1.678  1.4632 -0.1984 -0.8292
  679MOL0     H93680   9.574   7.019   1.790 -0.6090 -1.0683  2.6659
  679MOL0     H93681   9.547   6.943   1.625  0.6432 -2.0838 -0.0088
  679MOL0     H93682   8.654   6.724   2.386  0.1691  2.8979 -0.5452
  679MOL0     H93683   8.406   6.740   2.311  0.9055 -2.5600  1.2893
  679MOL0     H93684   8.148   6.538   1.972  0.3105 -0.2859  0.6882
  679MOL0     H93685   7.924   6.507   1.883  2.7470 -0.1256 -2.1144
  679MOL0     H93686   6.401   6.034   1.966 -0.8882  1.9151  0.6751
  679MOL0     H93687   6.225   5.948   1.808 -1.2853  2.4737  0.4140
  679MOL0     H93688   5.810   5.759   1.759  0.0717 -1.2123  0.0835
  679MOL0     H93689   5.569   5.725   1.684  2.9354 -2.0064  0.5263
  679MOL0     H93690   5.351   6.082   1.485  0.1302 -0.5714  1.7701
  679MOL0     H93691   5.398   5.957   1.364  1.9292  0.6489  1.3074
  679MOL0     H93692   5.203   5.825   1.454  2.1825 -0.4656 -2.4623
  679MOL0     H93693   5.185   5.972   1.355 -0.6681 -0.5834  0.2886
  679MOL0     H93694   5.192   5.991   1.660  0.0147 -1.3433 -0.9070
  679MOL0     H93695   5.125   6.109   1.545  1.6112 -0.3530 -0.6213
  679MOL0     H93696   5.001   5.852   1.670 -0.2715 -1.4938 -0.9639
  679MOL0     H93697   4.944   5.888   1.510 -1.9969 -0.7704  0.9119
  679MOL0     H93698   4.770   6.171   1.776  0.1116 -2.4134  4.5329
  679MOL0     H93699   5.596   6.091   1.471 -0.4470 -2.5003 -2.3180
  679MOL0     H93700   5.763   6.229   1.492 -1.5435 -1.1450 -0.0133
  679MOL0     H93701   5.862   6.218   1.644 -1.3512 -0.3116  0.5196
  679MOL0     H93702   5.922   6.151   1.493  0.2851  0.3607  0.1589
  680MOL0     O93703   6.730   5.167   7.424  0.6414  0.3732 -0.4506
  680MOL0     C93704   6.710   5.051   7.451  0.2711 -0.0910  0.3473
  680MOL0     O93705   6.587   4.995   7.491 -0.7208 -0.2201 -0.7164
  680MOL0     C93706   6.465   5.066   7.503 -0.6497  0.5234  0.4554
  680MOL0     C93707   6.350   4.986   7.496 -0.7079 -0.7756  0.3739
  680MOL0     C93708   6.223   5.039   7.512  0.1557 -0.6624  0.4045
  680MOL0     C93709   6.211   5.181   7.543  0.8755 -0.2247 -0.5148
  680MOL0     O93710   6.085   5.237   7.571 -0.2112  0.3470 -0.0864
  680MOL0     C93711   5.975   5.144   7.589 -0.3843  0.5463  0.0953
  680MOL0     C93712   5.847   5.217   7.610  0.7141 -0.4944  0.2761
  680MOL0     C93713   5.855   5.280   7.754  0.6979  1.4467  1.5997
  680MOL0     C93714   5.723   5.351   7.787  0.8790  0.0219  0.4751
  680MOL0     C93715   5.748   5.402   7.931  0.4114 -0.0795 -0.8087
  680MOL0     C93716   5.637   5.507   7.969 -0.0923  0.4167 -0.2467
  680MOL0     C93717   5.508   5.445   8.011 -0.1401 -0.5559 -0.0982
  680MOL0     C93718   5.532   5.311   8.087  0.8836 -0.3041 -0.3107
  680MOL0     N93719   5.400   5.261   8.141  0.5251  0.0903 -0.6600
  680MOL0     C93720   5.292   5.209   8.065  0.1537 -1.1076 -0.3120
  680MOL0     C93721   5.200   5.176   8.158  0.5658  0.6056 -0.1572
  680MOL0     C93722   5.067   5.111   8.126 -0.3016 -0.5765 -0.5178
  680MOL0     C93723   5.061   4.957   8.154 -0.8794  0.3489  0.4805
  680MOL0     C93724   5.081   4.879   8.023  0.5362 -0.4654 -0.6227
  680MOL0     C93725   5.214   4.894   7.968 -0.3004  0.5288 -0.4712
  680MOL0     O93726   5.312   4.835   8.058  0.1891  0.2638  0.7867
  680MOL0     C93727   5.444   4.827   8.013  0.6567 -1.0082  0.4644
  680MOL0     C93728   5.541   4.762   8.090  0.8969  0.1698  0.3715
  680MOL0     C93729   5.677   4.759   8.048  0.5844 -0.2119  0.1515
  680MOL0     C93730   5.758   4.651   8.133 -0.0275  0.6662  0.1468
  680MOL0     C93731   5.717   4.827   7.926 -1.4031  0.1984  0.5315
  680MOL0     C93732   5.854   4.822   7.871 -0.6102 -0.3395 -0.0694
  680MOL0     O93733   5.949   4.776   7.959 -0.5688  0.1573  0.2790
  680MOL0     C93734   6.080   4.777   7.901 -0.4762  0.0241 -0.2205
  680MOL0     C93735   6.141   4.650   7.874 -0.3923 -0.2788 -0.0602
  680MOL0     C93736   6.271   4.649   7.833 -0.5764  0.4278  0.3147
  680MOL0     C93737   6.346   4.764   7.805  0.3274 -0.1983 -0.6436
  680MOL0     O93738   6.475   4.745   7.761 -0.1523 -0.3088 -0.2508
  680MOL0     C93739   6.571   4.846   7.794  0.2394 -0.3877  0.7724
  680MOL0     C93740   6.714   4.791   7.762  0.3830  0.0964  0.2651
  680MOL0     C93741   6.767   4.692   7.867 -0.1948 -0.0749  0.3947
  680MOL0     C93742   6.903   4.639   7.824 -0.7339 -0.2898  0.1443
  680MOL0     C93743   6.950   4.531   7.926 -0.0082  0.7434  0.0245
  680MOL0     C93744   7.001   4.409   7.849 -0.1950  0.4246  0.2468
  680MOL0     C93745   7.016   4.296   7.953 -0.2295  0.1208  0.6679
  680MOL0     C93746   7.074   4.169   7.898  0.5341  0.1274  0.0621
  680MOL0    Cl93747   7.250   4.182   7.897 -0.1268 -0.7432 -0.1495
  680MOL0     C93748   6.288   4.892   7.823 -0.4020 -0.1575 -0.1669
  680MOL0     C93749   6.157   4.893   7.881  0.9992  0.1653 -0.6957
  680MOL0     O93750   5.878   4.847   7.754 -0.0828 -0.7451  0.5141
  680MOL0     C93751   5.623   4.896   7.854  0.2881 -1.2099  0.1990
  680MOL0     C93752   5.489   4.900   7.897  0.1322 -0.2374  0.6268
  680MOL0     N93753   5.255   5.198   8.281 -0.0397 -0.0341  0.1473
  680MOL0     N93754   5.373   5.247   8.277  0.0536 -0.5836  0.2970
  680MOL0     C93755   6.325   5.256   7.556 -0.6396  0.0071 -0.8895
  680MOL0     C93756   6.452   5.206   7.539  0.3412 -0.4263 -0.1889
  680MOL0     C93757   6.825   4.956   7.466  0.5007 -0.4413  0.5109
  680MOL0     C93758   6.803   4.827   7.447 -0.2606  0.0525 -0.0372
  680MOL0     C93759   6.907   4.731   7.472 -0.5634  0.8662 -0.1165
  680MOL0     C93760   7.034   4.766   7.513 -0.5470 -0.3288  0.2012
  680MOL0     O93761   7.129   4.666   7.526 -0.4403 -0.1042 -0.1425
  680MOL0     C93762   7.259   4.700   7.571  1.4671 -0.4859 -0.5489
  680MOL0     C93763   7.339   4.579   7.612  0.2329  0.3316  0.1087
  680MOL0     C93764   7.355   4.482   7.494  0.2572 -0.3769  0.5435
  680MOL0     C93765   7.442   4.366   7.533 -0.3559  0.1270 -0.1215
  680MOL0     C93766   7.480   4.272   7.423  0.1659 -0.0275  0.5945
  680MOL0     C93767   7.473   4.181   7.341  0.1990  0.1349 -0.2749
  680MOL0     C93768   7.059   4.901   7.506  0.4288 -0.3258  0.7639
  680MOL0     C93769   6.960   4.998   7.487 -0.8158  0.7562 -0.1482
  680MOL0     C93770   7.004   5.140   7.489  0.4697 -0.6078  0.1177
  680MOL0     H93771   6.362   4.879   7.478 -0.2404 -0.3529 -2.2080
  680MOL0     H93772   6.144   4.964   7.513 -1.2121  0.7234  1.2579
  680MOL0     H93773   5.992   5.063   7.661 -0.7915 -0.7901 -1.2646
  680MOL0     H93774   5.967   5.093   7.493 -0.8737 -0.4033  0.6343
  680MOL0     H93775   5.833   5.293   7.534  0.6389  0.9203  1.6591
  680MOL0     H93776   5.766   5.144   7.601 -0.2494  0.2762  2.1251
  680MOL0     H93777   5.865   5.192   7.818  2.2212  1.0953  0.9292
  680MOL0     H93778   5.933   5.354   7.769 -1.9282  4.7108  0.3765
  680MOL0     H93779   5.700   5.433   7.718 -1.1346  2.5321  3.8181
  680MOL0     H93780   5.643   5.277   7.782  2.1083 -1.3035 -2.7238
  680MOL0     H93781   5.839   5.462   7.941 -0.1627  0.9988 -1.7749
  680MOL0     H93782   5.750   5.320   8.003 -1.3771 -1.4583 -2.2432
  680MOL0     H93783   5.677   5.575   8.045  0.1427  1.0277 -0.9037
  680MOL0     H93784   5.619   5.576   7.886 -1.5402  1.3975  0.8469
  680MOL0     H93785   5.454   5.435   7.916 -1.0283  5.0822 -0.4854
  680MOL0     H93786   5.450   5.516   8.070  1.3770  1.4726 -0.9464
  680MOL0     H93787   5.567   5.230   8.022 -2.5391 -1.6982 -0.6458
  680MOL0     H93788   5.606   5.326   8.166  1.0522  3.4208 -0.9673
  680MOL0     H93789   5.274   5.209   7.957  0.2844 -1.6702 -0.3355
  680MOL0     H93790   5.051   5.135   8.020 -0.5898  1.2911 -0.0790
  680MOL0     H93791   4.983   5.162   8.173 -1.5674 -1.8574 -1.3034
  680MOL0     H93792   5.142   4.928   8.221  0.8096 -1.5452 -2.1717
  680MOL0     H93793   4.970   4.910   8.194  0.5123 -2.3299  0.7624
  680MOL0     H93794   5.066   4.773   8.041 -1.2176 -0.0128  0.8868
  680MOL0     H93795   4.998   4.912   7.960 -0.2019  2.2761  1.5734
  680MOL0     H93796   5.217   4.831   7.878  2.5900 -0.4357  0.1923
  680MOL0     H93797   5.232   4.999   7.943  1.3059 -0.2032 -2.6683
  680MOL0     H93798   5.504   4.708   8.177  1.1210 -1.3199 -0.4215
  680MOL0     H93799   5.680   4.598   8.187 -0.7104  0.4894 -0.9747
  680MOL0     H93800   5.828   4.690   8.207  1.2769 -1.7312  0.2733
  680MOL0     H93801   5.808   4.572   8.076  0.1295 -0.5619  1.9157
  680MOL0     H93802   6.086   4.564   7.911 -0.0475 -0.1801  0.7150
  680MOL0     H93803   6.329   4.559   7.816 -2.6127 -1.0636  0.9326
  680MOL0     H93804   6.557   4.936   7.734  1.8216 -0.8122 -0.2779
  680MOL0     H93805   6.551   4.870   7.899  0.3187 -2.1234  1.2194
  680MOL0     H93806   6.704   4.750   7.661 -2.2045  2.4780 -0.5714
  680MOL0     H93807   6.788   4.870   7.749  0.1068  0.2422 -0.4305
  680MOL0     H93808   6.688   4.621   7.891  0.2071  0.0749  2.3387
  680MOL0     H93809   6.784   4.740   7.964  0.5250 -2.1849  1.3629
  680MOL0     H93810   6.973   4.720   7.847 -0.9150 -0.5246  1.6149
  680MOL0     H93811   6.904   4.612   7.718 -0.7539  0.8592 -0.1692
  680MOL0     H93812   7.021   4.581   7.994 -3.0567  3.9010  1.2173
  680MOL0     H93813   6.865   4.489   7.981 -1.2858 -0.7448 -2.8645
  680MOL0     H93814   7.102   4.421   7.810  0.2716  0.5860  1.4478
  680MOL0     H93815   6.925   4.384   7.775  2.2292  0.0475 -2.2722
  680MOL0     H93816   6.925   4.253   7.995  0.9423 -1.0293  2.1504
  680MOL0     H93817   7.074   4.319   8.044 -1.2071 -2.1531  1.9591
  680MOL0     H93818   7.023   4.150   7.803 -1.6618  2.0953  0.7344
  680MOL0     H93819   7.049   4.082   7.960 -1.2306 -1.3848 -2.5920
  680MOL0     H93820   6.350   4.981   7.815  0.9791 -0.8621  1.9135
  680MOL0     H93821   6.110   4.987   7.908  1.1907 -0.4849  2.2871
  680MOL0     H93822   5.643   4.943   7.759  1.2820 -1.9990  0.0112
  680MOL0     H93823   5.414   4.956   7.844 -0.5644  0.8743  2.6593
  680MOL0     H93824   6.307   5.360   7.582  0.9408  0.6817 -2.2441
  680MOL0     H93825   6.539   5.267   7.562  0.4466 -1.0530  1.1906
  680MOL0     H93826   6.700   4.800   7.425 -0.7235  2.4014 -1.0334
  680MOL0     H93827   6.886   4.624   7.472 -1.0413  0.9547  0.4251
  680MOL0     H93828   7.316   4.760   7.500  0.1522  1.7045  0.1665
  680MOL0     H93829   7.245   4.757   7.663  1.9711 -0.0373 -0.7484
  680MOL0     H93830   7.287   4.525   7.691  0.6410  1.4238  1.1621
  680MOL0     H93831   7.438   4.598   7.656 -0.6183  0.1768  2.1896
  680MOL0     H93832   7.252   4.455   7.471 -0.4101  1.1833  1.4938
  680MOL0     H93833   7.397   4.542   7.413  2.1565  1.2125  2.5755
  680MOL0     H93834   7.387   4.301   7.602  2.6660 -2.8768 -0.3093
  680MOL0     H93835   7.525   4.415   7.584  0.6067 -0.9005 -0.6499
  680MOL0     H93836   7.460   4.086   7.294 -0.1527 -1.2251  2.3772
  680MOL0     H93837   7.160   4.939   7.496 -0.1991  0.7997 -2.4464
  680MOL0     H93838   7.005   5.184   7.389  1.0463  0.5016  0.5968
  680MOL0     H93839   6.936   5.189   7.560  1.3189  0.3147  0.3155
  680MOL0     H93840   7.105   5.154   7.529  0.4397 -0.3715  0.1122
  681MOL0     O93841  10.147   0.729   3.059  0.3946 -1.0080 -0.0487
  681MOL0     C93842  10.159   0.670   2.951  0.7728 -0.7944  0.8293
  681MOL0     O93843  10.280   0.637   2.895 -0.5144  0.1670  0.1502
  681MOL0     C93844  10.397   0.671   2.946  0.6204  0.2946  0.4341
  681MOL0     C93845  10.451   0.587   3.042  0.1962 -0.9980  0.0513
  681MOL0     C93846  10.573   0.622   3.103 -0.3354  0.6236  0.8685
  681MOL0     C93847  10.640   0.738   3.069 -0.1111  0.7008  0.0698
  681MOL0     O93848  10.770   0.761   3.105  0.1393  0.1307  0.5804
  681MOL0     C93849  10.834   0.678   3.200 -0.1943 -0.3135 -0.7477
  681MOL0     C93850  10.978   0.716   3.238  0.8693 -0.7343  0.0848
  681MOL0     C93851  11.041   0.598   3.312  0.4002 -0.4418  0.7489
  681MOL0     C93852  10.963   0.519   3.408  1.0175  0.2622 -0.9095
  681MOL0     C93853  11.042   0.423   3.502 -0.0359  0.0385  0.3122
  681MOL0     C93854  10.947   0.330   3.572 -0.2188  0.1054 -0.5326
  681MOL0     C93855  11.023   0.229   3.651 -0.5696 -0.2254 -0.1550
  681MOL0     C93856  11.111   0.280   3.769 -0.2258  0.1958  0.3962
  681MOL0     N93857  11.171   0.167   3.836 -0.6014 -0.0064 -0.2132
  681MOL0     C93858  11.101   0.094   3.932  0.3800  0.8431 -0.1560
  681MOL0     C93859  11.184  -0.004   3.956  0.3094  0.6143  0.5058
  681MOL0     C93860  11.152  -0.103   4.062 -0.4544 -0.4833  0.7401
  681MOL0     C93861  11.252  -0.117   4.176 -0.2819 -0.6910 -0.2504
  681MOL0     C93862  11.402  -0.127   4.132  0.4437  0.1564  0.1840
  681MOL0     C93863  11.492  -0.181   4.242 -0.2935 -0.3513  0.2969
  681MOL0     O93864  11.542  -0.071   4.319  0.4974 -0.0449  0.3297
  681MOL0     C93865  11.640   0.018   4.293 -0.2160 -0.0480 -0.3745
  681MOL0     C93866  11.678   0.095   4.404  0.3252 -0.1120  0.1902
  681MOL0     C93867  11.771   0.197   4.396  0.4667  0.9772  0.1744
  681MOL0     C93868  11.770   0.296   4.511 -0.1209 -0.4723 -0.5181
  681MOL0     C93869  11.835   0.225   4.273 -0.8556 -0.1100 -0.1465
  681MOL0     C93870  11.951   0.325   4.262  0.4533  0.2035 -0.0104
  681MOL0     O93871  11.990   0.349   4.130 -0.3005  0.7495 -1.0933
  681MOL0     C93872  12.098   0.433   4.102  0.6460  0.5927 -0.1664
  681MOL0     C93873  12.219   0.410   4.149  0.3574 -0.2751 -0.8312
  681MOL0     C93874  12.325   0.495   4.111  0.7174 -0.0124  0.2868
  681MOL0     C93875  12.305   0.607   4.030 -0.8435  0.0439 -0.6634
  681MOL0     O93876  12.398   0.692   3.987 -1.2793 -0.2225 -0.5724
  681MOL0     C93877  12.527   0.640   3.955  0.5106  0.6140 -0.4998
  681MOL0     C93878  12.603   0.744   3.875 -0.0938  1.3252  0.0845
  681MOL0     C93879  12.544   0.768   3.734  0.0789 -0.5701  0.3759
  681MOL0     C93880  12.609   0.879   3.652  0.5676  0.1100  0.0576
  681MOL0     C93881  12.741   0.828   3.599 -0.7879  0.4830 -0.5526
  681MOL0     C93882  12.808   0.935   3.508  0.5195 -1.0016 -0.3579
  681MOL0     C93883  12.876   1.049   3.585  0.1838  0.1285 -0.1716
  681MOL0     C93884  12.919   1.154   3.494  0.8920 -0.2639 -0.3373
  681MOL0    Cl93885  13.032   1.099   3.361 -0.0946  0.2496 -0.2094
  681MOL0     C93886  12.170   0.633   3.995  0.9808 -0.2948  1.0812
  681MOL0     C93887  12.073   0.545   4.028 -0.6979  0.0660  0.9226
  681MOL0     O93888  12.011   0.364   4.366  0.3446  0.1940  0.4295
  681MOL0     C93889  11.809   0.145   4.158  0.5264 -0.1303 -0.3190
  681MOL0     C93890  11.711   0.041   4.170 -0.2043  0.7022  0.5255
  681MOL0     N93891  11.291   0.000   3.868 -0.2775 -0.6975 -0.2372
  681MOL0     N93892  11.291   0.109   3.797 -0.1881  0.3869  0.4066
  681MOL0     C93893  10.581   0.826   2.984 -0.6607  0.3382 -0.0579
  681MOL0     C93894  10.457   0.791   2.925  0.2274  0.6081  0.6055
  681MOL0     C93895  10.054   0.597   2.891 -0.2410 -0.0258  0.4425
  681MOL0     C93896  10.077   0.470   2.843  0.2726  0.5883  0.1709
  681MOL0     C93897   9.968   0.398   2.794 -0.5212 -0.0845 -0.4999
  681MOL0     C93898   9.837   0.458   2.789 -0.2090 -0.1287 -0.6873
  681MOL0     O93899   9.743   0.371   2.745  0.0030 -0.0829 -0.2402
  681MOL0     C93900   9.628   0.432   2.681 -0.0673  0.0288  0.0920
  681MOL0     C93901   9.541   0.323   2.614  0.4211 -0.1098 -0.4865
  681MOL0     C93902   9.443   0.386   2.513  0.3254 -0.2274  0.4462
  681MOL0     C93903   9.333   0.477   2.573  0.0561  0.0707 -0.3662
  681MOL0     C93904   9.256   0.413   2.683  0.0998 -1.1934 -0.6345
  681MOL0     C93905   9.205   0.337   2.762  0.0828 -1.0207 -0.1000
  681MOL0     C93906   9.819   0.587   2.833  0.0329  0.1680 -0.1089
  681MOL0     C93907   9.929   0.660   2.880 -0.1093  0.5635 -1.0457
  681MOL0     C93908   9.907   0.811   2.922 -0.3893 -0.4209  0.8678
  681MOL0     H93909  10.416   0.489   3.071  1.5403 -1.4755  0.1359
  681MOL0     H93910  10.616   0.543   3.163 -0.4377 -2.3263 -2.5558
  681MOL0     H93911  10.835   0.577   3.158 -1.6634  0.7084 -3.4890
  681MOL0     H93912  10.775   0.664   3.291  0.1686  0.9696 -0.3010
  681MOL0     H93913  11.037   0.734   3.147 -1.0143  0.9373 -0.8759
  681MOL0     H93914  10.971   0.808   3.296 -1.0396  0.1469 -1.4339
  681MOL0     H93915  11.084   0.533   3.235 -0.2343 -1.3656  1.1589
  681MOL0     H93916  11.123   0.624   3.379  0.7086 -0.8497  0.5365
  681MOL0     H93917  10.912   0.587   3.477  0.1367 -2.1488  0.9542
  681MOL0     H93918  10.880   0.470   3.356 -0.1363  1.4086 -0.2239
  681MOL0     H93919  11.118   0.466   3.567  2.2307 -1.4658 -1.2062
  681MOL0     H93920  11.107   0.360   3.440  2.3016  1.7674  0.8705
  681MOL0     H93921  10.895   0.388   3.649 -0.0397 -1.7870  1.1010
  681MOL0     H93922  10.875   0.288   3.500 -1.1115 -0.3314  0.5860
  681MOL0     H93923  11.088   0.178   3.579 -0.9767  3.0352 -3.0989
  681MOL0     H93924  10.945   0.160   3.686 -0.1159 -0.5017  0.3197
  681MOL0     H93925  11.191   0.347   3.737 -0.1466  0.3137  0.8458
  681MOL0     H93926  11.059   0.350   3.834 -0.8579  0.0005  0.1111
  681MOL0     H93927  10.998   0.108   3.964  0.7690  0.5180  1.2825
  681MOL0     H93928  11.140  -0.202   4.017 -0.5984  0.7969 -2.3081
  681MOL0     H93929  11.061  -0.079   4.117  1.4823  0.9782  3.5107
  681MOL0     H93930  11.242  -0.018   4.223 -2.0643 -0.8960 -0.1482
  681MOL0     H93931  11.225  -0.200   4.242  1.1654 -1.5812 -0.7148
  681MOL0     H93932  11.410  -0.199   4.049  3.4461  0.4045  0.1409
  681MOL0     H93933  11.443  -0.038   4.084 -0.7449  0.5343 -0.1404
  681MOL0     H93934  11.429  -0.253   4.293 -2.0307  1.5857  1.0445
  681MOL0     H93935  11.578  -0.232   4.198 -0.6833 -1.4892  0.8260
  681MOL0     H93936  11.639   0.072   4.503  0.7824  3.1747  1.2816
  681MOL0     H93937  11.863   0.290   4.567 -0.5766  0.8757  0.4386
  681MOL0     H93938  11.680   0.275   4.570  1.5445 -1.2581  1.9067
  681MOL0     H93939  11.767   0.399   4.473  3.6696  1.4307  3.5220
  681MOL0     H93940  12.243   0.327   4.215  4.6450  2.3297  1.4254
  681MOL0     H93941  12.425   0.472   4.148  1.3440 -0.8507 -1.7782
  681MOL0     H93942  12.568   0.594   4.045 -0.5601 -0.8845 -0.7418
  681MOL0     H93943  12.512   0.550   3.894 -2.0238 -0.5130  1.6171
  681MOL0     H93944  12.607   0.840   3.929 -0.9339  1.8547 -0.7499
  681MOL0     H93945  12.703   0.703   3.859 -0.2455  1.3469 -0.9612
  681MOL0     H93946  12.437   0.793   3.733 -0.4078 -2.3746 -1.8168
  681MOL0     H93947  12.549   0.676   3.675 -2.1086  0.9299 -2.3700
  681MOL0     H93948  12.624   0.970   3.711 -0.3968 -0.4309  1.1691
  681MOL0     H93949  12.552   0.913   3.565 -0.0750 -3.1402 -0.9278
  681MOL0     H93950  12.811   0.808   3.681  0.1324  0.6875 -1.2676
  681MOL0     H93951  12.722   0.736   3.543 -1.9149 -0.1293  0.7738
  681MOL0     H93952  12.733   0.975   3.439 -2.6835 -2.0272  2.3023
  681MOL0     H93953  12.880   0.885   3.442  0.0793 -0.7178 -1.0718
  681MOL0     H93954  12.959   0.992   3.627  0.6144 -0.8605 -2.2173
  681MOL0     H93955  12.826   1.090   3.673 -1.8265 -4.9755  1.4354
  681MOL0     H93956  12.972   1.219   3.564  1.5476 -0.5251 -0.5908
  681MOL0     H93957  12.829   1.201   3.452  0.5330  0.0775  0.7651
  681MOL0     H93958  12.145   0.725   3.943  0.8250 -1.1610 -0.4138
  681MOL0     H93959  11.976   0.574   3.988  0.3386  0.7808 -1.2057
  681MOL0     H93960  11.860   0.161   4.064  2.3647 -0.6144  0.5454
  681MOL0     H93961  11.681  -0.022   4.087  0.2179  0.9852  0.1577
  681MOL0     H93962  10.637   0.911   2.948  2.2974 -1.1737  0.6721
  681MOL0     H93963  10.409   0.847   2.845 -1.3041 -0.0421  1.0258
  681MOL0     H93964  10.172   0.418   2.849 -0.1839 -0.2052  0.6827
  681MOL0     H93965   9.963   0.302   2.745 -2.6668 -0.7190  0.7916
  681MOL0     H93966   9.561   0.493   2.743  0.9117  1.0395  0.1989
  681MOL0     H93967   9.669   0.502   2.607 -2.4387 -0.1781 -1.5170
  681MOL0     H93968   9.489   0.261   2.687  2.2644 -0.5934  0.4665
  681MOL0     H93969   9.606   0.253   2.561  0.3720 -0.3316 -0.2476
  681MOL0     H93970   9.502   0.440   2.439 -1.4906  2.8693  1.0524
  681MOL0     H93971   9.387   0.302   2.472  1.4985 -0.9049  0.2110
  681MOL0     H93972   9.275   0.506   2.485  0.1097 -1.0164 -0.7716
  681MOL0     H93973   9.379   0.566   2.616  0.8649 -0.5024 -0.0261
  681MOL0     H93974   9.165   0.270   2.835  0.1186  0.8102  1.6682
  681MOL0     H93975   9.719   0.628   2.828 -0.0879  0.3715  2.5189
  681MOL0     H93976   9.891   0.826   3.029 -1.9948  3.3033  0.2654
  681MOL0     H93977  10.000   0.863   2.896 -0.9916  0.6998  0.9081
  681MOL0     H93978   9.831   0.857   2.858  0.8125 -1.3690 -1.3636
  682MOL0     O93979   6.702   8.350   5.578 -0.2396  0.1062  0.3979
  682MOL0     C93980   6.703   8.470   5.562 -0.5449  0.6662 -0.3188
  682MOL0     O93981   6.815   8.553   5.537  0.4107  0.1228  0.1604
  682MOL0     C93982   6.941   8.498   5.552  0.5973  0.0601  0.1866
  682MOL0     C93983   6.991   8.418   5.454  0.5217 -0.4620  0.1657
  682MOL0     C93984   7.122   8.371   5.474  0.1118 -0.1562  0.4679
  682MOL0     C93985   7.202   8.409   5.581  0.2233  0.4229  0.3836
  682MOL0     O93986   7.323   8.347   5.590  0.7543 -0.1609 -0.8171
  682MOL0     C93987   7.440   8.428   5.614 -0.0358 -0.6122  0.6572
  682MOL0     C93988   7.485   8.482   5.475  0.2636 -0.0741 -0.7937
  682MOL0     C93989   7.429   8.620   5.422  0.3274  0.0436 -0.2368
  682MOL0     C93990   7.460   8.733   5.527  0.1606 -0.4024  0.0161
  682MOL0     C93991   7.386   8.862   5.487  0.7131  1.0402  0.1333
  682MOL0     C93992   7.229   8.851   5.498 -0.7845 -0.1434  0.9197
  682MOL0     C93993   7.167   8.989   5.503 -0.3247  0.0431 -0.3987
  682MOL0     C93994   7.012   8.968   5.497  0.6449 -0.2396 -0.7087
  682MOL0     N93995   6.935   9.098   5.507 -0.1755 -0.4222  0.0960
  682MOL0     C93996   6.985   9.216   5.557 -0.3627 -0.1328  0.9716
  682MOL0     C93997   6.882   9.299   5.532  0.8981 -0.0248  0.6166
  682MOL0     C93998   6.874   9.443   5.570  0.0144 -0.7524  0.4796
  682MOL0     C93999   7.003   9.512   5.579 -0.1050 -0.3126 -0.6251
  682MOL0     C94000   7.093   9.519   5.458  0.0323  1.1663 -0.5822
  682MOL0     C94001   7.014   9.577   5.332  0.0926 -0.4278 -0.0549
  682MOL0     O94002   6.969   9.471   5.246 -0.2468 -0.5137  0.6452
  682MOL0     C94003   7.058   9.379   5.197  0.5220 -0.5014 -0.5732
  682MOL0     C94004   7.008   9.251   5.161  0.5457  0.1324 -0.1866
  682MOL0     C94005   7.087   9.150   5.106 -0.6017 -0.5486 -0.4731
  682MOL0     C94006   7.031   9.018   5.057  0.0174  0.7897  0.0820
  682MOL0     C94007   7.227   9.178   5.103  0.3312  0.1087 -0.6083
  682MOL0     C94008   7.332   9.083   5.053 -0.2763 -0.2128  0.0605
  682MOL0     O94009   7.329   8.962   5.104 -0.2091  0.2051 -0.5879
  682MOL0     C94010   7.396   8.860   5.046 -1.0172  0.3792  0.5223
  682MOL0     C94011   7.342   8.780   4.946  0.3194  1.2647 -0.2276
  682MOL0     C94012   7.419   8.672   4.894  0.3216 -0.2194 -0.3230
  682MOL0     C94013   7.544   8.641   4.947 -0.0063  0.2890 -0.3139
  682MOL0     O94014   7.627   8.537   4.909  0.3464  0.6004  0.6105
  682MOL0     C94015   7.570   8.437   4.821  0.4246  0.1350  0.2240
  682MOL0     C94016   7.680   8.330   4.806 -0.1414 -0.7189  0.7609
  682MOL0     C94017   7.703   8.238   4.927  1.2254  0.4936 -0.3376
  682MOL0     C94018   7.776   8.299   5.049  0.8782  0.6695  0.0997
  682MOL0     C94019   7.758   8.207   5.176 -0.7892  0.6128 -0.1000
  682MOL0     C94020   7.822   8.264   5.306  0.1187 -0.0000 -0.4104
  682MOL0     C94021   7.822   8.161   5.423  0.6637 -0.4424  0.2298
  682MOL0     C94022   7.869   8.227   5.550 -0.1825  0.3820  0.4654
  682MOL0    Cl94023   8.047   8.263   5.550  0.3596 -0.0514 -0.2396
  682MOL0     C94024   7.609   8.725   5.030  0.6027 -0.2010 -0.3939
  682MOL0     C94025   7.533   8.831   5.088 -0.0556  0.0267  0.2646
  682MOL0     O94026   7.410   9.125   4.964  0.4811 -0.6450  0.1700
  682MOL0     C94027   7.273   9.302   5.136  0.1927 -0.2217 -0.6419
  682MOL0     C94028   7.187   9.406   5.179 -0.4080 -1.0394  0.9103
  682MOL0     N94029   6.779   9.230   5.468 -0.8353 -0.5103 -0.3776
  682MOL0     N94030   6.811   9.105   5.450  0.3933  0.8458  0.0380
  682MOL0     C94031   7.146   8.501   5.669  0.2257 -0.4570 -0.4801
  682MOL0     C94032   7.017   8.547   5.652 -0.6843 -0.3177  1.0441
  682MOL0     C94033   6.568   8.543   5.539 -0.1414  0.1255 -0.4664
  682MOL0     C94034   6.458   8.484   5.473 -0.1869  0.3742  0.0214
  682MOL0     C94035   6.334   8.539   5.458 -0.2592 -0.2521  0.3790
  682MOL0     C94036   6.312   8.675   5.490  0.2439  0.1844  0.3706
  682MOL0     O94037   6.196   8.740   5.480  0.0080  0.0221  0.7868
  682MOL0     C94038   6.073   8.675   5.445  0.2104 -0.9178  1.0527
  682MOL0     C94039   5.964   8.775   5.499  1.1268  0.2523 -0.1283
  682MOL0     C94040   5.940   8.897   5.401 -0.2310  0.8412  0.1819
  682MOL0     C94041   5.830   8.991   5.437  0.1681  0.1666  0.1602
  682MOL0     C94042   5.831   9.026   5.578 -0.0945  0.4689  0.0129
  682MOL0     C94043   5.821   9.043   5.695  0.0696 -0.4293 -0.8677
  682MOL0     C94044   6.422   8.742   5.545  0.4203 -0.7609  0.3691
  682MOL0     C94045   6.538   8.680   5.575  0.3592 -0.0506 -0.0486
  682MOL0     C94046   6.642   8.754   5.647 -0.4967 -0.4403 -0.6773
  682MOL0     H94047   6.936   8.395   5.363  0.8633 -2.2897  0.3844
  682MOL0     H94048   7.160   8.293   5.408 -0.6913  0.6884 -1.0519
  682MOL0     H94049   7.524   8.368   5.650 -0.0706 -2.1700 -1.6428
  682MOL0     H94050   7.422   8.512   5.681  0.1125  1.5207 -1.8198
  682MOL0     H94051   7.595   8.488   5.480  0.3177 -1.6471  1.5368
  682MOL0     H94052   7.476   8.408   5.395 -0.8580  0.3217 -1.0487
  682MOL0     H94053   7.469   8.632   5.321  0.2781 -1.7571 -0.5097
  682MOL0     H94054   7.322   8.611   5.400  0.2220  0.8117 -0.0813
  682MOL0     H94055   7.441   8.707   5.631 -1.3593  3.1944  0.8032
  682MOL0     H94056   7.564   8.765   5.519  0.4556 -1.4441 -0.3865
  682MOL0     H94057   7.421   8.891   5.388  0.6489 -1.0351 -0.5496
  682MOL0     H94058   7.411   8.941   5.559 -0.7417  0.7645  0.9903
  682MOL0     H94059   7.184   8.790   5.419  0.2714 -3.0656  2.3981
  682MOL0     H94060   7.208   8.798   5.591 -1.9017  0.0504  0.7871
  682MOL0     H94061   7.195   9.051   5.417 -0.6001  0.9598  0.1588
  682MOL0     H94062   7.200   9.042   5.593  0.7596  0.5884 -1.0980
  682MOL0     H94063   6.977   8.923   5.404 -0.6018 -1.3781  0.2679
  682MOL0     H94064   6.972   8.904   5.576  1.9885  0.3074  0.4653
  682MOL0     H94065   7.077   9.241   5.609  0.4943  0.0545 -0.5767
  682MOL0     H94066   6.826   9.450   5.668 -1.2162 -1.4025 -0.0547
  682MOL0     H94067   6.812   9.504   5.503 -0.5761 -2.0602 -0.2022
  682MOL0     H94068   6.987   9.617   5.603  1.4635  0.1321 -1.3807
  682MOL0     H94069   7.058   9.463   5.660 -0.6058 -0.1531 -0.1846
  682MOL0     H94070   7.174   9.591   5.471 -0.1389  0.9152  2.4735
  682MOL0     H94071   7.139   9.421   5.441  1.0662  1.4239  0.5782
  682MOL0     H94072   6.920   9.628   5.355 -2.8539 -4.3432 -2.1747
  682MOL0     H94073   7.083   9.651   5.289 -0.8617  0.7101  0.3190
  682MOL0     H94074   6.900   9.255   5.150  0.7181 -0.3002 -2.4836
  682MOL0     H94075   6.923   9.020   5.044  0.1059 -0.9968 -1.4695
  682MOL0     H94076   7.054   8.945   5.135 -0.5327 -0.8773 -1.2598
  682MOL0     H94077   7.063   8.984   4.957 -1.9006  0.4813 -0.4603
  682MOL0     H94078   7.247   8.802   4.899 -0.8349 -0.2122  1.2764
  682MOL0     H94079   7.371   8.613   4.816 -0.8530 -1.3769  1.1977
  682MOL0     H94080   7.477   8.394   4.861  1.1426 -2.2986 -0.5314
  682MOL0     H94081   7.562   8.495   4.728  4.5911 -0.4848 -0.7393
  682MOL0     H94082   7.656   8.270   4.718 -1.3818  0.0616  0.5497
  682MOL0     H94083   7.767   8.394   4.789 -2.7360  3.0679  0.5729
  682MOL0     H94084   7.763   8.150   4.902 -0.8539 -0.9874 -0.3907
  682MOL0     H94085   7.606   8.202   4.962  1.5512 -2.3729 -2.0537
  682MOL0     H94086   7.739   8.397   5.083  2.0685  0.3612  2.5718
  682MOL0     H94087   7.883   8.320   5.034  0.7190  0.8145 -0.8957
  682MOL0     H94088   7.654   8.188   5.206  0.0939 -0.9559  2.2713
  682MOL0     H94089   7.814   8.113   5.170  0.2807  1.2028  0.4216
  682MOL0     H94090   7.758   8.346   5.338 -0.8568 -0.8259 -0.2072
  682MOL0     H94091   7.927   8.294   5.297  1.0272 -1.6855  2.7930
  682MOL0     H94092   7.868   8.067   5.391 -2.2069 -1.3053 -1.8161
  682MOL0     H94093   7.719   8.132   5.448  0.2307  0.7793 -0.0486
  682MOL0     H94094   7.849   8.171   5.641 -0.6904 -0.1226  0.0527
  682MOL0     H94095   7.826   8.327   5.552 -1.0801 -0.0182  1.5551
  682MOL0     H94096   7.712   8.705   5.058  0.0285 -1.7479  0.7168
  682MOL0     H94097   7.576   8.896   5.163 -0.9145  1.0320 -0.0826
  682MOL0     H94098   7.375   9.337   5.130 -0.2375  2.3384  3.3210
  682MOL0     H94099   7.244   9.493   5.211  2.9579 -1.0789 -3.8783
  682MOL0     H94100   7.208   8.527   5.754 -1.2322 -3.1467  1.5520
  682MOL0     H94101   6.961   8.618   5.713 -0.9955  0.5366 -0.1978
  682MOL0     H94102   6.471   8.381   5.442 -0.2273 -0.1240  1.5729
  682MOL0     H94103   6.248   8.478   5.431 -0.1329 -1.4341  2.4909
  682MOL0     H94104   6.064   8.666   5.337  0.4556  1.8168  0.7352
  682MOL0     H94105   6.054   8.579   5.494 -0.6033 -1.5428 -0.4156
  682MOL0     H94106   6.001   8.820   5.591  0.1337  0.1337  0.3295
  682MOL0     H94107   5.867   8.726   5.503 -0.2286  2.7661 -0.5091
  682MOL0     H94108   6.034   8.952   5.391  1.6368 -1.6246  2.7785
  682MOL0     H94109   5.922   8.863   5.299 -0.2202 -0.8201  0.7041
  682MOL0     H94110   5.738   8.940   5.404  0.0957  1.1396 -1.2215
  682MOL0     H94111   5.830   9.085   5.381  1.4138  1.2189  1.8318
  682MOL0     H94112   5.810   9.046   5.802 -3.4312 -0.8773 -1.1032
  682MOL0     H94113   6.399   8.841   5.584  0.5898 -0.5899  0.0321
  682MOL0     H94114   6.718   8.792   5.578  2.2880 -1.1215  1.7729
  682MOL0     H94115   6.601   8.832   5.712 -0.5225 -1.2989  0.3820
  682MOL0     H94116   6.695   8.694   5.723  0.2901 -0.3483 -1.1432
  683MOL0     O94117   7.072   1.552   3.269 -0.0421  0.1755 -0.4037
  683MOL0     C94118   6.981   1.483   3.323 -0.4253 -0.1779  0.0041
  683MOL0     O94119   7.009   1.397   3.422 -0.0116 -0.8936  0.1126
  683MOL0     C94120   7.131   1.418   3.492 -0.2357  0.4612 -0.3072
  683MOL0     C94121   7.144   1.516   3.589 -0.1282 -0.1173 -0.7896
  683MOL0     C94122   7.266   1.531   3.654  0.1900  0.2716  0.6954
  683MOL0     C94123   7.369   1.448   3.621 -0.1125 -0.2614  0.1284
  683MOL0     O94124   7.484   1.480   3.688 -0.6514 -0.1904  0.1516
  683MOL0     C94125   7.557   1.367   3.746  0.4331 -0.5620 -0.1201
  683MOL0     C94126   7.667   1.427   3.826  0.5661  0.6530 -1.2168
  683MOL0     C94127   7.739   1.321   3.909  0.4575  0.5411 -0.4059
  683MOL0     C94128   7.872   1.371   3.966 -0.3042 -0.2714 -0.6970
  683MOL0     C94129   7.942   1.256   4.043 -0.3400 -0.4710 -0.3058
  683MOL0     C94130   8.036   1.165   3.959 -0.5772 -0.0224 -0.0491
  683MOL0     C94131   8.160   1.252   3.922 -0.7855  0.4709  0.1399
  683MOL0     C94132   8.290   1.193   3.978 -0.2554  0.3680 -1.2698
  683MOL0     N94133   8.404   1.259   3.914  0.8637  0.2347  0.2602
  683MOL0     C94134   8.448   1.223   3.785 -0.5846  0.0265 -0.6812
  683MOL0     C94135   8.573   1.274   3.772 -0.5431  0.3489  0.1097
  683MOL0     C94136   8.654   1.271   3.643  0.1782 -0.8127 -0.5378
  683MOL0     C94137   8.784   1.196   3.666 -0.2358 -0.3522  0.6051
  683MOL0     C94138   8.883   1.281   3.739  0.0357 -0.4704  0.3310
  683MOL0     C94139   9.026   1.235   3.730 -0.2534  0.7063  0.4489
  683MOL0     O94140   9.119   1.319   3.793  0.2270  0.2106 -0.5296
  683MOL0     C94141   9.255   1.324   3.763  0.7948  0.5006 -0.1951
  683MOL0     C94142   9.323   1.433   3.814 -0.5100  0.4313 -0.2619
  683MOL0     C94143   9.460   1.456   3.795  0.8251 -0.1183 -0.3874
  683MOL0     C94144   9.508   1.583   3.851 -0.7103 -0.6835  0.4736
  683MOL0     C94145   9.532   1.361   3.724 -1.1377  0.1211 -0.1392
  683MOL0     C94146   9.681   1.377   3.700  0.4716  0.3488  0.1237
  683MOL0     O94147   9.733   1.304   3.603  0.3832 -0.3355  0.1354
  683MOL0     C94148   9.854   1.339   3.549 -0.2700  0.0610 -0.3003
  683MOL0     C94149   9.872   1.356   3.405 -0.0882  0.3984  0.9427
  683MOL0     C94150   9.999   1.382   3.349 -0.4009 -0.3149 -1.0322
  683MOL0     C94151  10.116   1.392   3.434  0.6600 -0.1514  0.2252
  683MOL0     O94152  10.232   1.421   3.374 -0.0381  0.0878  0.2642
  683MOL0     C94153  10.350   1.426   3.457 -0.6417  0.1183 -0.1073
  683MOL0     C94154  10.468   1.454   3.361 -0.0423  0.3506 -0.2391
  683MOL0     C94155  10.589   1.519   3.431  0.4566 -0.6157 -0.0839
  683MOL0     C94156  10.690   1.581   3.330 -0.4302 -1.3983 -0.1379
  683MOL0     C94157  10.656   1.716   3.272  0.1446 -0.5371 -0.8802
  683MOL0     C94158  10.590   1.814   3.375  0.4304 -0.2640 -0.1863
  683MOL0     C94159  10.573   1.958   3.315 -0.5898  0.7618  0.1966
  683MOL0     C94160  10.532   2.076   3.415  0.6053 -0.7622  0.1865
  683MOL0    Cl94161  10.361   2.072   3.425 -0.1515 -0.2379  0.2458
  683MOL0     C94162  10.098   1.374   3.576  0.0506 -0.2854  0.4424
  683MOL0     C94163   9.969   1.329   3.632  0.5027  1.1247  0.4274
  683MOL0     O94164   9.742   1.434   3.790  0.0818 -0.1768  0.0487
  683MOL0     C94165   9.461   1.254   3.666 -0.1378 -0.6946 -0.2883
  683MOL0     C94166   9.321   1.239   3.682 -0.6669  0.2333  0.0856
  683MOL0     N94167   8.600   1.357   3.882 -0.2175 -0.2537  0.4029
  683MOL0     N94168   8.499   1.348   3.969  0.1862  0.0568  0.0958
  683MOL0     C94169   7.359   1.342   3.534  0.1764 -0.2565 -0.0900
  683MOL0     C94170   7.234   1.325   3.475  0.4379  0.1051  0.0811
  683MOL0     C94171   6.845   1.508   3.273  1.0158 -0.1008  0.5885
  683MOL0     C94172   6.739   1.470   3.354 -0.3976 -0.2997 -0.1046
  683MOL0     C94173   6.609   1.496   3.316 -0.3557  0.8860 -0.3178
  683MOL0     C94174   6.575   1.557   3.197 -0.6583  1.0904  0.8473
  683MOL0     O94175   6.438   1.568   3.176 -0.5804 -0.0015  0.4824
  683MOL0     C94176   6.391   1.641   3.060  0.6648  0.3257  0.7344
  683MOL0     C94177   6.231   1.639   3.046 -0.1598 -0.1609 -0.0918
  683MOL0     C94178   6.173   1.506   3.019 -0.9151 -0.0330  0.2960
  683MOL0     C94179   6.117   1.435   3.138 -0.3933  0.5554  0.2024
  683MOL0     C94180   6.039   1.310   3.102 -0.5985 -0.0746  0.0230
  683MOL0     C94181   5.984   1.210   3.068  0.2285  1.1754  0.0177
  683MOL0     C94182   6.676   1.598   3.114  0.3071 -0.2465 -0.9812
  683MOL0     C94183   6.810   1.583   3.153 -0.0370 -0.0728  0.0746
  683MOL0     C94184   6.905   1.654   3.057  0.6447  0.2561 -0.5215
  683MOL0     H94185   7.059   1.580   3.611 -0.6107 -0.4252 -1.7152
  683MOL0     H94186   7.262   1.600   3.737  1.7859 -1.1848  2.0544
  683MOL0     H94187   7.604   1.304   3.670 -0.4646  0.6666 -1.7579
  683MOL0     H94188   7.487   1.311   3.808 -1.2128  1.8442  0.3699
  683MOL0     H94189   7.739   1.477   3.761 -1.1344  1.2592 -2.7596
  683MOL0     H94190   7.618   1.498   3.893  1.9301 -1.0319  1.7437
  683MOL0     H94191   7.675   1.294   3.994 -1.7051  3.0673 -1.0989
  683MOL0     H94192   7.758   1.228   3.854 -0.8176 -0.9219  1.4609
  683MOL0     H94193   7.946   1.414   3.897  3.0784  1.1526  3.3360
  683MOL0     H94194   7.854   1.458   4.031  2.0795 -0.1742 -0.0339
  683MOL0     H94195   7.862   1.202   4.094 -0.0196  0.5621  1.3546
  683MOL0     H94196   8.006   1.292   4.123  1.4884  1.9847 -2.6860
  683MOL0     H94197   8.062   1.076   4.017  1.9166  0.3733 -0.4462
  683MOL0     H94198   7.995   1.121   3.868  2.0213  0.2849 -1.4564
  683MOL0     H94199   8.167   1.358   3.948  1.6307  1.1328 -2.6375
  683MOL0     H94200   8.172   1.237   3.814  1.8257  1.4925  0.2058
  683MOL0     H94201   8.292   1.215   4.086  1.9347 -1.2428 -0.9232
  683MOL0     H94202   8.297   1.084   3.970  0.4565  0.4766 -2.2755
  683MOL0     H94203   8.393   1.158   3.718 -0.0809 -0.5927 -0.4974
  683MOL0     H94204   8.668   1.364   3.587  1.3941 -1.0969 -0.7131
  683MOL0     H94205   8.589   1.215   3.575 -1.0968  2.2060 -2.0338
  683MOL0     H94206   8.764   1.102   3.718 -0.8026 -0.3651  0.3693
  683MOL0     H94207   8.815   1.172   3.563 -2.1009  1.3392 -0.4033
  683MOL0     H94208   8.867   1.384   3.705 -2.5424 -1.6901 -2.5846
  683MOL0     H94209   8.855   1.279   3.845 -0.2272  2.9886  0.4367
  683MOL0     H94210   9.037   1.136   3.777 -0.5029  1.9787  3.3826
  683MOL0     H94211   9.056   1.233   3.625 -0.5464 -0.9774  0.3605
  683MOL0     H94212   9.257   1.496   3.873 -0.8692  0.0431 -0.2380
  683MOL0     H94213   9.551   1.638   3.767 -2.6492 -1.2646 -0.9807
  683MOL0     H94214   9.568   1.566   3.941 -0.7728 -1.8533  0.3020
  683MOL0     H94215   9.427   1.651   3.880  0.3126  1.4440 -1.3470
  683MOL0     H94216   9.788   1.338   3.339  0.1160  1.8333  0.2604
  683MOL0     H94217  10.008   1.385   3.241  2.5927  1.9929 -0.8604
  683MOL0     H94218  10.332   1.508   3.527  0.8062  0.6381 -0.3145
  683MOL0     H94219  10.381   1.332   3.503  2.3276  0.4314 -1.2704
  683MOL0     H94220  10.503   1.368   3.303  1.1248  0.0862  0.8219
  683MOL0     H94221  10.427   1.527   3.291 -1.1213  0.6201  0.6335
  683MOL0     H94222  10.640   1.438   3.485 -0.3989 -0.0603  1.6494
  683MOL0     H94223  10.569   1.596   3.506  0.9042  1.0993 -1.6660
  683MOL0     H94224  10.706   1.504   3.254 -0.3578 -1.2060 -0.3192
  683MOL0     H94225  10.784   1.577   3.385  1.3088 -2.7284 -2.9392
  683MOL0     H94226  10.753   1.751   3.235  0.6130  0.4061  1.1073
  683MOL0     H94227  10.595   1.704   3.182 -1.6348 -2.1245  0.4280
  683MOL0     H94228  10.649   1.813   3.467  0.2182  3.5444  0.1375
  683MOL0     H94229  10.489   1.774   3.388  0.8374 -1.2058  0.2163
  683MOL0     H94230  10.511   1.969   3.225  0.8079 -0.6378 -1.0055
  683MOL0     H94231  10.674   1.984   3.281 -0.2659 -2.4569 -1.7610
  683MOL0     H94232  10.542   2.176   3.373  0.2300 -0.3881  0.9692
  683MOL0     H94233  10.597   2.063   3.502 -0.4744  0.6996  1.2685
  683MOL0     H94234  10.176   1.388   3.651  0.3054  2.3249 -0.2268
  683MOL0     H94235   9.959   1.306   3.737 -0.5238  1.9460  0.5319
  683MOL0     H94236   9.502   1.185   3.593 -1.3107 -2.8782  1.0074
  683MOL0     H94237   9.266   1.160   3.632 -1.5785  3.2372 -4.2228
  683MOL0     H94238   7.445   1.291   3.492 -1.0030 -1.4388 -1.1536
  683MOL0     H94239   7.220   1.237   3.413  0.3902 -1.5948  2.3670
  683MOL0     H94240   6.765   1.425   3.450  0.5000  0.6617  0.1289
  683MOL0     H94241   6.542   1.466   3.396 -0.4297  2.7479  0.3724
  683MOL0     H94242   6.424   1.742   3.085 -3.1826  1.3320  2.6221
  683MOL0     H94243   6.434   1.606   2.966 -3.4264  0.8705 -1.5606
  683MOL0     H94244   6.202   1.699   2.959  0.7136  0.2227 -0.1297
  683MOL0     H94245   6.200   1.678   3.143 -2.4701 -1.3814 -0.2726
  683MOL0     H94246   6.080   1.527   2.964 -0.9145 -2.3540 -0.7144
  683MOL0     H94247   6.246   1.456   2.956  1.0187  1.0369  1.6068
  683MOL0     H94248   6.062   1.514   3.189 -0.4133  0.7440 -0.1093
  683MOL0     H94249   6.201   1.407   3.203 -0.1461 -1.0645 -0.7513
  683MOL0     H94250   5.936   1.118   3.040  1.2491 -0.7760  3.9726
  683MOL0     H94251   6.657   1.636   3.014  1.8593  1.2939 -0.7456
  683MOL0     H94252   6.949   1.741   3.107 -1.0586  1.2254 -0.6300
  683MOL0     H94253   6.984   1.592   3.015  2.5204  2.1610 -0.0031
  683MOL0     H94254   6.851   1.693   2.970 -0.2994 -0.9598 -0.5149
  684MOL0     O94255  10.050   3.337   1.230 -0.8337  0.2360 -0.0053
  684MOL0     C94256   9.976   3.239   1.232 -0.8987 -0.1063  0.7460
  684MOL0     O94257  10.023   3.111   1.262 -0.6267  0.2564 -0.0811
  684MOL0     C94258  10.135   3.089   1.350 -0.1928 -0.6029  0.6374
  684MOL0     C94259  10.168   2.951   1.348 -0.0762  0.0574  0.9480
  684MOL0     C94260  10.262   2.900   1.435 -0.5219 -0.6338  0.5403
  684MOL0     C94261  10.336   2.991   1.513  0.0752 -0.4281  0.5891
  684MOL0     O94262  10.427   2.941   1.598 -0.2861 -0.0418  0.5537
  684MOL0     C94263  10.569   2.959   1.565 -0.1963 -0.4609  0.7944
  684MOL0     C94264  10.617   2.881   1.439  0.5765  0.2749 -0.8204
  684MOL0     C94265  10.770   2.885   1.425 -0.2069 -1.1367 -0.3018
  684MOL0     C94266  10.823   2.804   1.304 -0.1230 -0.7648 -0.3022
  684MOL0     C94267  10.973   2.784   1.302  0.0229 -0.5168 -0.3379
  684MOL0     C94268  11.010   2.712   1.168 -0.0037 -0.1197 -0.1330
  684MOL0     C94269  11.163   2.682   1.142 -0.3774  0.2676 -0.7318
  684MOL0     C94270  11.209   2.551   1.210 -0.8058 -0.0574  1.0530
  684MOL0     N94271  11.349   2.518   1.184  0.7303  0.8167 -0.2978
  684MOL0     C94272  11.438   2.500   1.288 -0.9301  0.3765  0.1288
  684MOL0     C94273  11.546   2.456   1.225  0.1210  0.8852  0.2953
  684MOL0     C94274  11.678   2.424   1.294 -0.5333  0.6439 -0.9129
  684MOL0     C94275  11.666   2.301   1.386 -0.1450  0.5398  0.0308
  684MOL0     C94276  11.715   2.167   1.320  0.2017  0.6059  0.6297
  684MOL0     C94277  11.662   2.049   1.406  0.1543  0.2414 -0.7510
  684MOL0     O94278  11.720   2.066   1.539  0.7256 -0.3335  0.1496
  684MOL0     C94279  11.699   1.966   1.627 -0.7747 -0.9110 -0.0045
  684MOL0     C94280  11.813   1.927   1.710 -0.0751  0.4932 -0.8264
  684MOL0     C94281  11.796   1.822   1.798 -0.6998 -0.1060 -0.3505
  684MOL0     C94282  11.915   1.779   1.880 -0.2213  0.5690  0.2187
  684MOL0     C94283  11.680   1.743   1.798 -0.1325  0.3426 -0.8003
  684MOL0     C94284  11.656   1.617   1.886 -0.2339  0.2348 -0.5239
  684MOL0     O94285  11.531   1.544   1.876  0.0213 -0.5626  0.1848
  684MOL0     C94286  11.513   1.443   1.969 -0.6193  0.0565 -0.2047
  684MOL0     C94287  11.427   1.474   2.073  0.0105 -0.1590 -0.0823
  684MOL0     C94288  11.392   1.382   2.169 -0.2398 -0.2387  0.4758
  684MOL0     C94289  11.464   1.260   2.173 -1.2611  0.5623 -0.2089
  684MOL0     O94290  11.453   1.164   2.271  0.2805  0.1168  0.2894
  684MOL0     C94291  11.388   1.189   2.399  0.9602  0.1740  0.8083
  684MOL0     C94292  11.391   1.072   2.492 -0.9677 -0.5997 -0.4243
  684MOL0     C94293  11.325   0.945   2.434 -0.3911  0.7171  0.3728
  684MOL0     C94294  11.365   0.817   2.516  0.7531 -0.0651  0.4343
  684MOL0     C94295  11.313   0.684   2.456 -0.2971 -0.8724 -0.1978
  684MOL0     C94296  11.316   0.577   2.558 -0.5680 -0.1911  0.3211
  684MOL0     C94297  11.464   0.539   2.615  0.2271  0.2550 -1.1105
  684MOL0     C94298  11.458   0.399   2.668  0.1571 -0.4504  0.7806
  684MOL0    Cl94299  11.493   0.299   2.519  0.1137 -0.0436  0.2512
  684MOL0     C94300  11.570   1.240   2.083  0.2344  0.0117  1.3018
  684MOL0     C94301  11.593   1.326   1.975 -0.5148 -0.9055 -0.9336
  684MOL0     O94302  11.747   1.587   1.967  0.0011 -0.4655 -0.4572
  684MOL0     C94303  11.575   1.769   1.707  0.6610 -0.7285 -0.2009
  684MOL0     C94304  11.582   1.884   1.629 -0.4213  0.3038  0.0144
  684MOL0     N94305  11.517   2.459   1.086 -0.3042 -0.8875  0.4486
  684MOL0     N94306  11.402   2.505   1.061 -0.0493 -0.3626 -0.5688
  684MOL0     C94307  10.305   3.128   1.514 -0.3667 -0.5874 -0.4653
  684MOL0     C94308  10.205   3.184   1.430  0.3481 -0.0394 -0.2876
  684MOL0     C94309   9.850   3.260   1.163 -0.0860  0.4795  0.4701
  684MOL0     C94310   9.791   3.146   1.115 -0.5427 -0.3798 -0.5064
  684MOL0     C94311   9.650   3.141   1.087  0.3269  0.3528 -0.0991
  684MOL0     C94312   9.568   3.266   1.094 -0.5073 -0.1966  0.1956
  684MOL0     O94313   9.439   3.284   1.043 -0.1243 -0.0843  0.4478
  684MOL0     C94314   9.397   3.189   0.948 -0.3484  1.0032  0.6734
  684MOL0     C94315   9.248   3.198   0.902 -0.4118 -0.3877  0.8450
  684MOL0     C94316   9.191   3.346   0.908  0.7223  0.2910  0.3934
  684MOL0     C94317   9.041   3.353   0.869  0.4791  0.4216 -0.0191
  684MOL0     C94318   9.016   3.489   0.821  0.5536 -0.8800  1.9316
  684MOL0     C94319   8.990   3.611   0.804  0.6639  0.7470  0.2029
  684MOL0     C94320   9.642   3.380   1.132  0.2666 -0.0224  0.0588
  684MOL0     C94321   9.775   3.378   1.159  1.1307  0.8484 -0.5547
  684MOL0     C94322   9.836   3.512   1.191 -1.0568 -0.6979  1.2190
  684MOL0     H94323  10.103   2.882   1.295  1.4777  0.7818 -2.1785
  684MOL0     H94324  10.274   2.793   1.434 -0.0853 -0.6941  3.5828
  684MOL0     H94325  10.630   2.925   1.650  3.1229  2.8279 -0.0388
  684MOL0     H94326  10.591   3.064   1.545 -0.6011 -0.4771  0.2348
  684MOL0     H94327  10.583   2.777   1.444  0.6258  0.1749 -2.0925
  684MOL0     H94328  10.565   2.924   1.352 -0.2842  0.5210 -0.1966
  684MOL0     H94329  10.804   2.985   1.398  2.1706 -0.6512  3.7687
  684MOL0     H94330  10.812   2.847   1.519 -0.2742  0.9568  0.6196
  684MOL0     H94331  10.776   2.707   1.285  1.5809 -1.3689 -1.6802
  684MOL0     H94332  10.804   2.860   1.212 -1.3009 -0.3738  0.1600
  684MOL0     H94333  11.008   2.720   1.383 -0.4272 -2.4092 -1.5812
  684MOL0     H94334  11.030   2.877   1.314 -0.8566 -0.0335  0.2441
  684MOL0     H94335  10.955   2.619   1.153 -0.1831 -0.3674  1.8350
  684MOL0     H94336  10.981   2.782   1.089 -1.5272  2.1956  2.2907
  684MOL0     H94337  11.225   2.767   1.174 -1.1066  1.5918 -2.6175
  684MOL0     H94338  11.179   2.669   1.034 -0.3186  0.0798 -0.6997
  684MOL0     H94339  11.193   2.562   1.318 -1.2185 -1.7820  1.2119
  684MOL0     H94340  11.153   2.458   1.191  0.5962 -0.8560  0.6547
  684MOL0     H94341  11.425   2.520   1.394  2.5988 -0.8973  0.9482
  684MOL0     H94342  11.701   2.509   1.358  1.7728 -1.2880  1.0397
  684MOL0     H94343  11.753   2.413   1.215  0.4165  0.3116  0.0074
  684MOL0     H94344  11.713   2.311   1.484 -0.5255 -1.2464  0.4229
  684MOL0     H94345  11.558   2.296   1.406 -1.3436 -2.1419 -5.3169
  684MOL0     H94346  11.674   2.162   1.219  1.8121 -1.5023 -0.0185
  684MOL0     H94347  11.822   2.155   1.298 -0.4099 -3.4670 -1.1789
  684MOL0     H94348  11.554   2.057   1.416 -0.0756 -3.0017  0.3702
  684MOL0     H94349  11.689   1.953   1.362  0.4770 -0.5292  1.0193
  684MOL0     H94350  11.904   1.985   1.700  1.8172 -2.1355 -0.1257
  684MOL0     H94351  11.942   1.676   1.856  0.7804  0.6445  0.9920
  684MOL0     H94352  11.904   1.793   1.988  1.5162  0.9828  0.3576
  684MOL0     H94353  12.006   1.833   1.856  1.0412 -1.4086  0.3544
  684MOL0     H94354  11.386   1.574   2.066 -0.9249 -0.6389 -2.2649
  684MOL0     H94355  11.313   1.398   2.242 -2.5811 -4.0193 -0.9038
  684MOL0     H94356  11.415   1.288   2.438 -1.7975  1.0058  0.8361
  684MOL0     H94357  11.281   1.210   2.393  0.7056 -1.2376 -0.0294
  684MOL0     H94358  11.497   1.046   2.505 -0.4807  2.5187  3.7303
  684MOL0     H94359  11.364   1.120   2.586 -0.5848 -2.0152  0.4307
  684MOL0     H94360  11.356   0.934   2.329 -0.5836  3.5794 -0.0668
  684MOL0     H94361  11.216   0.951   2.428 -0.5333 -1.9020 -1.6698
  684MOL0     H94362  11.333   0.835   2.618  0.8511  2.9012  0.0418
  684MOL0     H94363  11.474   0.808   2.522  0.7525  0.0343  0.5785
  684MOL0     H94364  11.211   0.692   2.416 -0.2669 -2.8460 -0.7889
  684MOL0     H94365  11.386   0.652   2.381 -0.2959  1.9382 -1.5493
  684MOL0     H94366  11.276   0.485   2.513 -2.7390  0.3940  0.9340
  684MOL0     H94367  11.246   0.611   2.635 -1.5126  1.1124 -1.0522
  684MOL0     H94368  11.480   0.595   2.708 -0.9472 -0.0723 -0.6969
  684MOL0     H94369  11.543   0.551   2.540  1.7878  2.7891  0.8003
  684MOL0     H94370  11.364   0.377   2.720 -0.7731  0.1067 -0.5989
  684MOL0     H94371  11.537   0.381   2.740 -0.9762 -1.5860  1.7951
  684MOL0     H94372  11.632   1.152   2.094 -1.9006 -1.9292 -1.0038
  684MOL0     H94373  11.678   1.325   1.908 -1.1574  0.3271 -1.8090
  684MOL0     H94374  11.486   1.710   1.688 -0.6376  1.7545 -2.4467
  684MOL0     H94375  11.499   1.888   1.559 -0.4727 -1.6244 -0.0693
  684MOL0     H94376  10.360   3.199   1.575 -0.4556 -1.7234  1.0013
  684MOL0     H94377  10.173   3.287   1.442 -1.3954 -0.6817  0.9539
  684MOL0     H94378   9.852   3.057   1.118  0.3277  0.2136  0.2087
  684MOL0     H94379   9.606   3.044   1.064 -3.4471  1.4472  1.5809
  684MOL0     H94380   9.468   3.186   0.865 -0.4045 -0.0582  0.6457
  684MOL0     H94381   9.405   3.091   0.997 -0.5067 -0.6888 -2.4286
  684MOL0     H94382   9.190   3.128   0.963 -0.9076 -1.4024 -0.7248
  684MOL0     H94383   9.228   3.169   0.798  0.6531  2.4640 -0.2609
  684MOL0     H94384   9.204   3.395   1.005  0.8814 -2.0375  1.6071
  684MOL0     H94385   9.258   3.398   0.840  0.5486 -0.5757 -0.4571
  684MOL0     H94386   8.974   3.337   0.954  4.0579  0.5735  3.0904
  684MOL0     H94387   9.030   3.285   0.785 -0.6271 -0.7512  1.0396
  684MOL0     H94388   8.978   3.717   0.799 -3.0270  0.5571  1.8930
  684MOL0     H94389   9.587   3.473   1.139  1.1383  0.5161 -0.0888
  684MOL0     H94390   9.858   3.525   1.297 -0.2017  1.8079  0.8082
  684MOL0     H94391   9.922   3.535   1.127 -2.0357 -0.4744 -0.0425
  684MOL0     H94392   9.765   3.588   1.160  0.2241 -0.9927 -3.2574
  685MOL0     O94393   1.167   6.275   6.557 -0.2765 -0.6649  0.5526
  685MOL0     C94394   1.086   6.235   6.637  0.2203  0.4990  0.1712
  685MOL0     O94395   1.116   6.180   6.760  0.2406 -0.3906  0.2594
  685MOL0     C94396   1.250   6.192   6.806  0.6198 -0.5082  1.2330
  685MOL0     C94397   1.352   6.133   6.737 -0.3717  0.6640 -0.6003
  685MOL0     C94398   1.485   6.150   6.773  0.1116  0.2082  0.3500
  685MOL0     C94399   1.515   6.227   6.885 -0.3599  0.6733  0.4955
  685MOL0     O94400   1.649   6.232   6.919  0.5756 -0.4405  0.3870
  685MOL0     C94401   1.689   6.269   7.051 -0.3883  0.3576 -0.1145
  685MOL0     C94402   1.842   6.279   7.061 -0.1649  0.1283 -0.2890
  685MOL0     C94403   1.903   6.385   6.976 -0.2051 -0.0005  0.5353
  685MOL0     C94404   2.060   6.399   6.987  0.1961  0.5386  0.2950
  685MOL0     C94405   2.116   6.496   6.893  0.0580 -0.1506 -0.1409
  685MOL0     C94406   2.259   6.526   6.919  0.2682  0.6694  0.5170
  685MOL0     C94407   2.364   6.426   6.858  0.1197 -0.0973  0.0683
  685MOL0     C94408   2.386   6.434   6.711  0.8806  1.0241  0.1861
  685MOL0     N94409   2.499   6.352   6.674 -0.1811  0.0891 -0.2841
  685MOL0     C94410   2.490   6.217   6.661  0.3041 -0.2114  0.1703
  685MOL0     C94411   2.611   6.181   6.607  0.0659  1.3713  0.0574
  685MOL0     C94412   2.663   6.036   6.583  0.6492 -0.1920  0.4824
  685MOL0     C94413   2.812   6.018   6.557  0.0987 -0.3615  0.4904
  685MOL0     C94414   2.838   5.868   6.551 -0.5260 -0.0970  0.4349
  685MOL0     C94415   2.973   5.836   6.477  0.4728  0.4498 -0.8377
  685MOL0     O94416   2.946   5.830   6.332  0.2382 -0.9196  0.4723
  685MOL0     C94417   3.061   5.793   6.260 -0.2076  0.2035 -0.5888
  685MOL0     C94418   3.195   5.796   6.309 -0.1024 -0.0217  0.7957
  685MOL0     C94419   3.304   5.730   6.244 -0.5978  0.3101 -0.3599
  685MOL0     C94420   3.436   5.752   6.310  0.3298  0.9625  0.1636
  685MOL0     C94421   3.282   5.663   6.126  0.5600  0.1386  0.5778
  685MOL0     C94422   3.385   5.586   6.043 -0.3721  0.1032  0.8477
  685MOL0     O94423   3.343   5.505   5.942  0.3316 -0.3850 -0.4835
  685MOL0     C94424   3.446   5.435   5.881 -0.2967 -0.2600  0.8593
  685MOL0     C94425   3.521   5.334   5.931 -0.4421 -0.4223 -1.1350
  685MOL0     C94426   3.606   5.259   5.850 -0.6893 -0.2224  1.1203
  685MOL0     C94427   3.619   5.303   5.716 -0.1477  0.1471  0.2539
  685MOL0     O94428   3.708   5.249   5.633 -0.1981 -0.6157  0.8026
  685MOL0     C94429   3.836   5.203   5.681  0.0454  0.3531 -0.0046
  685MOL0     C94430   3.950   5.226   5.575  0.1981  0.1470  0.1058
  685MOL0     C94431   4.089   5.187   5.627  0.1612 -0.1868  0.5638
  685MOL0     C94432   4.191   5.264   5.535  0.1762 -0.2076 -0.5340
  685MOL0     C94433   4.341   5.266   5.579 -0.2096  0.6982 -0.2924
  685MOL0     C94434   4.404   5.128   5.576 -0.1872  0.3029  0.3848
  685MOL0     C94435   4.541   5.124   5.635 -0.7896  0.1808  1.1080
  685MOL0     C94436   4.597   4.990   5.622  0.2496 -0.2035  0.5375
  685MOL0    Cl94437   4.638   4.947   5.450  0.2971 -0.1535  0.0622
  685MOL0     C94438   3.535   5.392   5.663 -0.2841 -0.6565 -0.0228
  685MOL0     C94439   3.442   5.453   5.742 -0.4694 -0.3188 -0.8732
  685MOL0     O94440   3.501   5.601   6.077  0.2550  0.0173 -0.0536
  685MOL0     C94441   3.150   5.662   6.079  0.1347  0.1397  0.1557
  685MOL0     C94442   3.042   5.732   6.138  0.1993 -0.6534  0.0360
  685MOL0     N94443   2.695   6.286   6.587 -0.0336  0.2078  0.2937
  685MOL0     N94444   2.618   6.388   6.616  0.4213 -0.2199  0.2699
  685MOL0     C94445   1.414   6.303   6.944  0.4016  0.2310  0.0052
  685MOL0     C94446   1.275   6.283   6.904 -0.5697  0.0466  0.2020
  685MOL0     C94447   0.944   6.234   6.595 -0.5441 -0.1864  0.0889
  685MOL0     C94448   0.848   6.245   6.694  0.6006  0.3951 -0.6086
  685MOL0     C94449   0.708   6.246   6.670  0.1289 -0.3986 -0.3544
  685MOL0     C94450   0.664   6.231   6.540  0.4748 -0.1545 -1.3547
  685MOL0     O94451   0.528   6.214   6.529 -0.2850  0.3341  0.1200
  685MOL0     C94452   0.478   6.166   6.399  0.4531  0.3282 -0.0710
  685MOL0     C94453   0.325   6.154   6.388  0.4411 -0.2129 -0.2615
  685MOL0     C94454   0.276   6.049   6.500 -0.3230  0.0981 -0.0427
  685MOL0     C94455   0.148   5.982   6.474 -0.2386  1.3162  0.4936
  685MOL0     C94456   0.060   6.068   6.394 -0.0185 -0.4192 -0.0936
  685MOL0     C94457  -0.015   6.136   6.328 -0.0071 -0.1485 -0.4248
  685MOL0     C94458   0.764   6.221   6.434  0.5014  0.9656 -0.4015
  685MOL0     C94459   0.901   6.226   6.460  0.3489 -0.3219  0.1834
  685MOL0     C94460   0.988   6.202   6.342 -0.1231 -0.4248 -0.4259
  685MOL0     H94461   1.325   6.090   6.641 -0.8060 -0.2447 -0.0827
  685MOL0     H94462   1.567   6.107   6.717 -0.1818  0.1132 -0.0129
  685MOL0     H94463   1.664   6.193   7.126 -1.4023  0.1576 -0.6492
  685MOL0     H94464   1.647   6.364   7.086  0.3941  0.2912  1.0909
  685MOL0     H94465   1.868   6.311   7.162  2.8743 -0.3228 -0.8135
  685MOL0     H94466   1.883   6.178   7.051 -1.5903 -0.7577  2.0722
  685MOL0     H94467   1.877   6.360   6.873 -1.0491  0.1313  0.7045
  685MOL0     H94468   1.859   6.480   7.007  1.2539  0.4914  1.1899
  685MOL0     H94469   2.081   6.416   7.093 -0.4305  2.4624  0.1552
  685MOL0     H94470   2.090   6.295   6.967  0.3065  0.3952  1.1799
  685MOL0     H94471   2.067   6.594   6.897 -1.0403 -0.6248 -1.3135
  685MOL0     H94472   2.108   6.459   6.791 -1.0074 -1.9639  0.5646
  685MOL0     H94473   2.279   6.619   6.864 -1.2330  1.1224  0.6979
  685MOL0     H94474   2.277   6.523   7.027 -2.2815 -1.0459  0.9738
  685MOL0     H94475   2.335   6.323   6.880  2.1289 -1.2058 -1.9986
  685MOL0     H94476   2.458   6.437   6.912 -0.1318 -0.4450  0.5814
  685MOL0     H94477   2.296   6.416   6.653  0.8390  3.7811 -0.7503
  685MOL0     H94478   2.416   6.535   6.681  2.3417  0.2475 -1.0807
  685MOL0     H94479   2.403   6.158   6.687 -1.5469  2.2692  0.0024
  685MOL0     H94480   2.620   6.001   6.489 -0.8459  2.8808 -0.0965
  685MOL0     H94481   2.628   5.985   6.673 -0.6877 -2.9780 -1.4855
  685MOL0     H94482   2.833   6.060   6.458  2.4989  2.1566  1.9184
  685MOL0     H94483   2.883   6.063   6.628  0.1846 -1.1944  0.9352
  685MOL0     H94484   2.846   5.828   6.652  1.6845 -2.0734 -0.4389
  685MOL0     H94485   2.762   5.823   6.487 -3.0425  0.7238  2.6727
  685MOL0     H94486   3.051   5.910   6.498 -1.9531  3.0569 -0.3895
  685MOL0     H94487   3.008   5.744   6.524 -0.1128  0.0254 -1.2155
  685MOL0     H94488   3.221   5.826   6.410  1.7096 -2.2210  1.0596
  685MOL0     H94489   3.420   5.800   6.407  1.4683  0.0431  0.8237
  685MOL0     H94490   3.499   5.820   6.251 -1.0014  0.6664 -1.7046
  685MOL0     H94491   3.487   5.660   6.338 -1.2717  0.1776  0.5738
  685MOL0     H94492   3.504   5.306   6.035 -2.4994  0.5288 -1.1472
  685MOL0     H94493   3.675   5.181   5.883 -0.8910 -0.7164  0.3886
  685MOL0     H94494   3.864   5.236   5.781 -2.5574 -0.8169  1.2158
  685MOL0     H94495   3.830   5.094   5.689  0.4604  0.3410  0.1407
  685MOL0     H94496   3.931   5.163   5.487  0.8486 -0.3720  0.3286
  685MOL0     H94497   3.940   5.332   5.549  0.0607  0.3049  0.7815
  685MOL0     H94498   4.090   5.078   5.622 -0.4792 -0.1923  0.4151
  685MOL0     H94499   4.118   5.211   5.730  0.7556 -3.8567  1.3813
  685MOL0     H94500   4.170   5.372   5.536  3.5971  0.5794  0.3124
  685MOL0     H94501   4.176   5.215   5.438 -3.9593  0.7656 -0.5535
  685MOL0     H94502   4.394   5.331   5.510 -0.1949  2.4280  1.2565
  685MOL0     H94503   4.349   5.304   5.682 -0.5263 -0.9191  0.3657
  685MOL0     H94504   4.391   5.085   5.476 -3.0642 -1.8904  1.5669
  685MOL0     H94505   4.343   5.073   5.649 -2.2928  1.3224 -0.5098
  685MOL0     H94506   4.530   5.158   5.739 -2.0852  0.9145  0.7550
  685MOL0     H94507   4.605   5.192   5.578  0.2823 -0.6261  1.3232
  685MOL0     H94508   4.528   4.918   5.666 -1.1743  0.6074 -0.2837
  685MOL0     H94509   4.691   4.988   5.677 -0.8701 -1.4915  2.5079
  685MOL0     H94510   3.525   5.426   5.560 -0.7832  0.2928  0.3321
  685MOL0     H94511   3.365   5.523   5.712 -0.6343  1.2273  2.7192
  685MOL0     H94512   3.116   5.601   5.996  1.5939  1.5504 -1.5527
  685MOL0     H94513   2.948   5.737   6.084  1.0971  1.2604 -1.4893
  685MOL0     H94514   1.427   6.375   7.023  2.8501 -0.6610  0.4913
  685MOL0     H94515   1.189   6.325   6.956 -2.3009 -1.2494 -1.4493
  685MOL0     H94516   0.874   6.250   6.800  1.6868 -3.1853 -0.5859
  685MOL0     H94517   0.637   6.245   6.752 -0.8686 -1.3328 -1.1797
  685MOL0     H94518   0.506   6.236   6.320  1.9831  1.3416  1.3219
  685MOL0     H94519   0.523   6.071   6.368  0.5755 -0.1433  1.4811
  685MOL0     H94520   0.305   6.108   6.291  0.4060 -1.3478  0.2730
  685MOL0     H94521   0.268   6.247   6.403 -2.9128 -2.4106  2.2376
  685MOL0     H94522   0.353   5.976   6.522 -0.1643  1.0038  2.8586
  685MOL0     H94523   0.262   6.104   6.593 -1.1510 -1.7061  0.9475
  685MOL0     H94524   0.109   5.959   6.574  0.4742 -1.1082  0.2936
  685MOL0     H94525   0.180   5.890   6.423  1.0992  1.9685  0.1095
  685MOL0     H94526  -0.087   6.194   6.273 -0.0589  0.6250  0.4449
  685MOL0     H94527   0.734   6.206   6.331  1.4498 -0.2925 -0.5219
  685MOL0     H94528   1.017   6.099   6.364  1.8947  0.6280  2.3742
  685MOL0     H94529   0.941   6.217   6.244 -0.4080 -1.9331 -0.5452
  685MOL0     H94530   1.077   6.266   6.335  0.3052 -1.1586 -2.6290
  686MOL0     O94531   4.811   7.805   9.460  0.8772  0.4835  0.4960
  686MOL0     C94532   4.736   7.704   9.454  1.0627 -0.9895 -0.8777
  686MOL0     O94533   4.757   7.595   9.376 -0.2176  0.0979  0.0417
  686MOL0     C94534   4.843   7.582   9.270  0.0659  0.4143 -0.9635
  686MOL0     C94535   4.814   7.483   9.169 -0.2795  0.3047 -0.5221
  686MOL0     C94536   4.902   7.458   9.064  0.5792  0.3614 -0.4529
  686MOL0     C94537   5.023   7.532   9.054 -0.6655  0.1441  0.2867
  686MOL0     O94538   5.121   7.516   8.958 -0.1009  0.3964  0.7597
  686MOL0     C94539   5.075   7.500   8.817  0.1652  0.6559  0.7384
  686MOL0     C94540   5.193   7.454   8.722 -0.3812 -0.3613 -0.3342
  686MOL0     C94541   5.313   7.550   8.737  0.2496 -0.0707  0.1186
  686MOL0     C94542   5.427   7.506   8.642  0.6802  0.1647 -0.2721
  686MOL0     C94543   5.552   7.597   8.662 -0.3343  0.2793 -0.1108
  686MOL0     C94544   5.666   7.579   8.558  0.8988 -0.8945  0.3298
  686MOL0     C94545   5.792   7.668   8.580  0.0468  0.3196  0.8887
  686MOL0     C94546   5.861   7.704   8.451  0.4495 -0.3888 -0.1044
  686MOL0     N94547   5.994   7.761   8.479  0.0225 -0.6759 -0.3168
  686MOL0     C94548   6.101   7.692   8.540  0.8789 -0.4513  0.4268
  686MOL0     C94549   6.195   7.790   8.564 -0.4415 -0.1638  0.1682
  686MOL0     C94550   6.333   7.781   8.632  0.0410  0.0285  0.3516
  686MOL0     C94551   6.336   7.822   8.768  0.4591  0.3263 -0.2368
  686MOL0     C94552   6.299   7.970   8.795 -0.4872  0.0677  0.2302
  686MOL0     C94553   6.371   8.064   8.701 -0.4088 -0.2117  0.2315
  686MOL0     O94554   6.514   8.040   8.713  0.8059  0.8058  0.1808
  686MOL0     C94555   6.591   8.145   8.722 -1.2036 -0.0066 -0.1830
  686MOL0     C94556   6.710   8.125   8.796 -0.5828  0.0341  0.9773
  686MOL0     C94557   6.808   8.227   8.812 -1.0803  0.2184  0.3699
  686MOL0     C94558   6.925   8.194   8.908 -0.4051  0.2441 -0.6370
  686MOL0     C94559   6.784   8.351   8.756 -0.0423 -0.2140  0.7844
  686MOL0     C94560   6.869   8.479   8.779  0.7249  0.1961  0.1410
  686MOL0     O94561   6.813   8.605   8.791 -0.1264  0.3359  0.6339
  686MOL0     C94562   6.900   8.704   8.822 -0.6353  0.3960  0.1820
  686MOL0     C94563   6.887   8.766   8.943 -0.5768  0.7635  0.0419
  686MOL0     C94564   6.958   8.881   8.973  0.0176 -0.0549  0.3830
  686MOL0     C94565   7.053   8.935   8.878  0.8446  0.2381  0.3277
  686MOL0     O94566   7.118   9.047   8.900 -0.6221 -0.0671  0.2180
  686MOL0     C94567   7.179   9.054   9.026 -0.7936 -0.2217  0.7704
  686MOL0     C94568   7.296   9.153   9.017  0.1198 -0.2699 -0.0757
  686MOL0     C94569   7.387   9.157   9.149 -0.2235 -0.5995  0.2454
  686MOL0     C94570   7.312   9.151   9.279 -0.0657  0.0319  0.3672
  686MOL0     C94571   7.408   9.141   9.405  0.2856  0.2034 -0.0285
  686MOL0     C94572   7.340   9.136   9.543 -0.3882 -0.9284  0.3135
  686MOL0     C94573   7.316   9.268   9.620  0.3246  0.7451  0.2078
  686MOL0     C94574   7.260   9.240   9.755 -0.7545  0.1829  0.2179
  686MOL0    Cl94575   7.226   9.397   9.851 -0.3172  0.1896  0.2653
  686MOL0     C94576   7.066   8.870   8.750 -0.1080 -0.6067 -0.2321
  686MOL0     C94577   6.996   8.747   8.727  0.5752  0.0774  0.6817
  686MOL0     O94578   6.990   8.456   8.794 -0.1696  0.3277 -0.2035
  686MOL0     C94579   6.661   8.365   8.688 -0.1501  0.0749 -0.1720
  686MOL0     C94580   6.569   8.269   8.665  0.0903  0.1880  0.2128
  686MOL0     N94581   6.141   7.903   8.514 -0.0651  0.4697 -0.2174
  686MOL0     N94582   6.019   7.892   8.470  0.7425  0.5899  0.1475
  686MOL0     C94583   5.057   7.620   9.159  0.7332 -1.4306  1.0202
  686MOL0     C94584   4.970   7.637   9.268 -0.6098 -0.4721 -0.2559
  686MOL0     C94585   4.616   7.714   9.532 -0.0113 -0.1437 -0.7039
  686MOL0     C94586   4.542   7.832   9.538  0.2103  0.3246  0.6400
  686MOL0     C94587   4.417   7.842   9.593  0.2675 -0.2259 -0.0503
  686MOL0     C94588   4.362   7.737   9.655 -0.3382  0.8807  0.1134
  686MOL0     O94589   4.242   7.741   9.712 -0.1787  0.0191 -0.2794
  686MOL0     C94590   4.157   7.853   9.682  0.7871 -1.5418 -0.0373
  686MOL0     C94591   4.028   7.821   9.765  0.4207 -0.2196  0.7369
  686MOL0     C94592   3.959   7.693   9.711 -0.7228  0.6625 -0.3801
  686MOL0     C94593   3.854   7.651   9.814  0.1608 -0.7700  0.5859
  686MOL0     C94594   3.762   7.554   9.756  0.5629  0.8370  0.4011
  686MOL0     C94595   3.696   7.465   9.705  0.7516 -0.5297 -0.0710
  686MOL0     C94596   4.437   7.626   9.671 -0.9317 -0.0465  0.2783
  686MOL0     C94597   4.558   7.603   9.600 -0.2368 -0.4933 -0.5675
  686MOL0     C94598   4.626   7.471   9.627 -0.0785 -0.2467 -0.0866
  686MOL0     H94599   4.728   7.419   9.186  0.5028  0.0512  3.3213
  686MOL0     H94600   4.878   7.377   8.995  0.3433  0.6634 -0.7294
  686MOL0     H94601   5.030   7.591   8.776  0.8648  1.5037  1.7872
  686MOL0     H94602   5.006   7.416   8.810  2.7497 -1.6653  1.3384
  686MOL0     H94603   5.221   7.351   8.745  1.1141  0.6472  3.0721
  686MOL0     H94604   5.167   7.453   8.616 -1.6133 -1.6279 -0.0416
  686MOL0     H94605   5.290   7.656   8.728  0.7974  0.2930  2.3734
  686MOL0     H94606   5.348   7.545   8.841 -1.8211 -1.9995  0.8240
  686MOL0     H94607   5.453   7.402   8.662  1.0011  0.7123  2.6741
  686MOL0     H94608   5.386   7.517   8.541  1.7373  0.7900 -0.6560
  686MOL0     H94609   5.588   7.572   8.762 -0.6202  0.9308  0.1605
  686MOL0     H94610   5.531   7.704   8.665  1.3129  0.6087  0.7264
  686MOL0     H94611   5.689   7.472   8.550 -0.8003 -1.1546 -1.7893
  686MOL0     H94612   5.624   7.618   8.465  0.8718  1.7243  1.3482
  686MOL0     H94613   5.852   7.612   8.652 -1.0141  0.6521  2.0720
  686MOL0     H94614   5.756   7.762   8.625 -0.8433 -0.7095  2.4295
  686MOL0     H94615   5.882   7.609   8.400  0.3415 -0.4428 -0.0476
  686MOL0     H94616   5.793   7.772   8.400 -3.3634 -1.4395  3.0877
  686MOL0     H94617   6.104   7.587   8.568 -1.9395 -0.4068  1.1998
  686MOL0     H94618   6.408   7.839   8.577 -2.6012  1.2678 -2.1816
  686MOL0     H94619   6.360   7.675   8.637  1.5173  0.3411 -0.3828
  686MOL0     H94620   6.266   7.768   8.832  1.0515  2.1390  2.1281
  686MOL0     H94621   6.432   7.790   8.810  0.5958  0.7997 -0.1789
  686MOL0     H94622   6.190   7.974   8.793 -0.5515 -0.1249  1.8188
  686MOL0     H94623   6.324   7.991   8.899 -1.8843 -2.5224  1.1857
  686MOL0     H94624   6.341   8.040   8.598  1.9819 -2.2855 -0.0845
  686MOL0     H94625   6.347   8.169   8.720  0.5798  0.3379 -1.3116
  686MOL0     H94626   6.739   8.027   8.831 -0.9815 -0.7059 -0.6857
  686MOL0     H94627   6.953   8.295   8.938  0.1389  0.4416 -1.7894
  686MOL0     H94628   7.003   8.139   8.856 -1.4342 -0.2981 -1.6571
  686MOL0     H94629   6.889   8.136   8.994  1.0812 -0.5015 -0.4831
  686MOL0     H94630   6.820   8.720   9.014  0.2308  0.1552  0.4298
  686MOL0     H94631   6.931   8.944   9.058 -3.3119  1.1257 -1.3699
  686MOL0     H94632   7.100   9.071   9.099  0.9517  1.3856  2.3914
  686MOL0     H94633   7.226   8.962   9.063  1.3247  0.3735 -0.2606
  686MOL0     H94634   7.360   9.109   8.940 -1.0165  0.0265 -1.2354
  686MOL0     H94635   7.248   9.248   8.991  3.8567  1.6423 -0.6919
  686MOL0     H94636   7.444   9.249   9.142  1.4586 -1.6617 -0.7859
  686MOL0     H94637   7.462   9.077   9.146 -0.5548 -0.8898 -0.8193
  686MOL0     H94638   7.249   9.062   9.288 -0.3642  0.2850  0.8580
  686MOL0     H94639   7.250   9.241   9.290  2.5341  1.7622  2.1439
  686MOL0     H94640   7.463   9.049   9.383  1.2224  0.2523  1.8435
  686MOL0     H94641   7.485   9.219   9.394  2.2036 -1.3168  1.7915
  686MOL0     H94642   7.407   9.091   9.616 -0.7808  0.4418  1.5499
  686MOL0     H94643   7.248   9.077   9.537 -1.4232  0.4109  2.0346
  686MOL0     H94644   7.244   9.326   9.562  0.3769 -1.8873 -2.7251
  686MOL0     H94645   7.415   9.313   9.627 -0.4104  2.4103  0.2388
  686MOL0     H94646   7.333   9.177   9.807 -1.7194 -1.3597 -0.2180
  686MOL0     H94647   7.167   9.183   9.749 -0.6508 -0.1053  1.1511
  686MOL0     H94648   7.137   8.915   8.681  0.4629 -0.3688  0.4912
  686MOL0     H94649   7.015   8.701   8.630  2.5454 -0.7124  1.3977
  686MOL0     H94650   6.626   8.457   8.641 -2.7869 -1.2800 -1.0357
  686MOL0     H94651   6.486   8.297   8.600 -0.1570 -0.0782  0.4101
  686MOL0     H94652   5.151   7.674   9.163 -0.4391  0.7236  1.5956
  686MOL0     H94653   5.010   7.704   9.343  1.6295 -1.7137 -0.2406
  686MOL0     H94654   4.583   7.901   9.464  0.4122  0.0477  0.4902
  686MOL0     H94655   4.357   7.930   9.576 -0.9499 -0.8111  1.0616
  686MOL0     H94656   4.203   7.950   9.704 -1.0242 -0.2567 -1.5882
  686MOL0     H94657   4.133   7.866   9.576 -3.8288  0.4190  1.0005
  686MOL0     H94658   3.962   7.908   9.751  2.5818  1.4296  0.2420
  686MOL0     H94659   4.045   7.810   9.873  0.8097  3.6702  1.2165
  686MOL0     H94660   3.919   7.722   9.613 -0.6661  1.3598 -0.1955
  686MOL0     H94661   4.038   7.617   9.708 -0.6220  0.7053  0.7540
  686MOL0     H94662   3.791   7.737   9.840 -0.3189  0.2295 -3.2561
  686MOL0     H94663   3.912   7.609   9.897  2.8969 -2.2717 -1.8707
  686MOL0     H94664   3.627   7.388   9.678  0.9385 -0.3720 -1.0558
  686MOL0     H94665   4.408   7.555   9.748  0.3856 -1.2554 -0.2904
  686MOL0     H94666   4.734   7.465   9.611 -0.0039  1.5474 -0.5324
  686MOL0     H94667   4.602   7.445   9.730  2.5921  0.0883  0.6987
  686MOL0     H94668   4.581   7.396   9.562 -0.7599  0.9116 -0.9999
  687MOL0     O94669   3.193  10.797   8.078  0.0703  0.4117 -0.7689
  687MOL0     C94670   3.074  10.755   8.096  0.4229 -0.8046  0.4453
  687MOL0     O94671   3.044  10.630   8.155  0.4295 -0.2755 -0.0340
  687MOL0     C94672   3.147  10.549   8.189  0.0779 -0.4362 -0.2836
  687MOL0     C94673   3.236  10.573   8.298  0.1290  0.2790  0.7238
  687MOL0     C94674   3.324  10.478   8.335  0.2054  0.1928 -1.3681
  687MOL0     C94675   3.335  10.353   8.266  0.1426 -0.3114  0.1843
  687MOL0     O94676   3.424  10.258   8.301 -0.3660 -0.2208 -0.4069
  687MOL0     C94677   3.356  10.136   8.334  0.1873  1.2815  0.0893
  687MOL0     C94678   3.377  10.023   8.234 -0.0552  0.6783  0.4141
  687MOL0     C94679   3.514   9.951   8.262  0.5308 -0.1432 -0.3298
  687MOL0     C94680   3.532   9.804   8.206 -0.3132  0.2942  0.1495
  687MOL0     C94681   3.650   9.720   8.275  0.2424  0.2816 -0.1462
  687MOL0     C94682   3.797   9.777   8.285  0.8764  0.3637  0.6528
  687MOL0     C94683   3.888   9.684   8.364  0.6508 -0.1160 -0.4446
  687MOL0     C94684   4.034   9.706   8.344 -1.2322 -0.0219 -0.2756
  687MOL0     N94685   4.136   9.602   8.392 -0.1575  0.0059  0.4200
  687MOL0     C94686   4.152   9.573   8.523 -0.4509 -0.1467  0.3267
  687MOL0     C94687   4.239   9.471   8.517 -1.0788 -0.0901  0.4292
  687MOL0     C94688   4.301   9.385   8.625  0.4016 -0.6377  0.3588
  687MOL0     C94689   4.459   9.368   8.597 -0.0035  0.3563  0.4575
  687MOL0     C94690   4.503   9.230   8.645  0.5101  0.6265  0.0763
  687MOL0     C94691   4.641   9.188   8.605  1.1017  0.3548 -0.1227
  687MOL0     O94692   4.737   9.271   8.671  0.3766 -0.3871  0.1069
  687MOL0     C94693   4.872   9.250   8.631 -0.2530 -0.0796  0.0275
  687MOL0     C94694   4.963   9.322   8.709 -0.8201 -0.3119 -0.2607
  687MOL0     C94695   5.103   9.330   8.668 -0.1798 -0.5624  0.1704
  687MOL0     C94696   5.186   9.432   8.751  0.1962 -0.0698  0.2239
  687MOL0     C94697   5.149   9.268   8.548 -0.4927 -0.6326 -0.4456
  687MOL0     C94698   5.288   9.279   8.494  0.3580  0.4612 -0.6545
  687MOL0     O94699   5.296   9.231   8.363 -0.8263 -0.9958  0.1893
  687MOL0     C94700   5.419   9.241   8.301  0.8324  1.1044 -0.7792
  687MOL0     C94701   5.424   9.269   8.167  0.5894 -0.5382  0.4440
  687MOL0     C94702   5.546   9.238   8.098  0.2986  0.1646 -0.2825
  687MOL0     C94703   5.665   9.202   8.167 -0.6049  0.8139  0.0127
  687MOL0     O94704   5.781   9.183   8.092  0.2568 -0.0433 -0.9214
  687MOL0     C94705   5.908   9.213   8.151 -0.0361 -0.1219 -0.0208
  687MOL0     C94706   6.007   9.108   8.102  0.4949  0.0551  0.5638
  687MOL0     C94707   6.135   9.113   8.177 -0.1936  0.1300  0.2358
  687MOL0     C94708   6.225   8.991   8.152  0.0204 -0.8490 -0.2819
  687MOL0     C94709   6.357   9.003   8.235  0.1429 -1.0175 -0.2192
  687MOL0     C94710   6.456   8.890   8.216  0.1455  0.0873  0.1562
  687MOL0     C94711   6.566   8.904   8.322 -0.3184 -0.7519 -0.8844
  687MOL0     C94712   6.661   8.790   8.307 -0.1198  1.1300  0.2574
  687MOL0    Cl94713   6.783   8.769   8.442  0.1508 -0.6021  0.2316
  687MOL0     C94714   5.644   9.158   8.298  0.2371 -0.2641  0.2545
  687MOL0     C94715   5.524   9.176   8.363  0.0941 -0.2144 -0.4673
  687MOL0     O94716   5.376   9.324   8.565 -0.3311  0.5847 -0.2531
  687MOL0     C94717   5.054   9.189   8.478 -0.0524  0.6638  0.0791
  687MOL0     C94718   4.918   9.178   8.521 -0.1624  0.4632 -0.6039
  687MOL0     N94719   4.261   9.443   8.379  0.0162 -0.0286 -0.0848
  687MOL0     N94720   4.191   9.516   8.303 -0.0182 -0.1092  0.1817
  687MOL0     C94721   3.264  10.339   8.146 -0.7597  0.4012 -0.0173
  687MOL0     C94722   3.173  10.438   8.105  0.5871  0.2404  0.3836
  687MOL0     C94723   2.958  10.838   8.092 -0.0307  0.3010 -0.3279
  687MOL0     C94724   2.953  10.943   8.181  0.0946 -0.4504  0.0366
  687MOL0     C94725   2.845  11.024   8.182  0.4201 -1.1066  0.1412
  687MOL0     C94726   2.733  11.001   8.095  0.0570 -0.5594  0.1226
  687MOL0     O94727   2.625  11.081   8.099  0.2527 -1.1192 -0.0332
  687MOL0     C94728   2.623  11.209   8.180 -0.1388  1.4477  0.9634
  687MOL0     C94729   2.491  11.283   8.173  0.1087 -0.4613 -0.5957
  687MOL0     C94730   2.506  11.420   8.241 -0.2511  0.1402  0.0733
  687MOL0     C94731   2.512  11.531   8.129  0.8838  0.1762 -0.4848
  687MOL0     C94732   2.615  11.519   8.034 -1.2583 -0.8222 -0.4414
  687MOL0     C94733   2.700  11.536   7.945  0.2106  0.6992  0.0095
  687MOL0     C94734   2.731  10.892   8.011 -0.2947 -0.3191 -0.4847
  687MOL0     C94735   2.849  10.815   8.010 -0.0318  0.0154 -0.1268
  687MOL0     C94736   2.846  10.697   7.925  0.0613  1.0159 -1.1196
  687MOL0     H94737   3.236  10.676   8.333  1.1438 -0.2225  2.3048
  687MOL0     H94738   3.395  10.503   8.414  1.7784 -1.4739 -2.1710
  687MOL0     H94739   3.249  10.149   8.352  0.7173  0.7452  4.9751
  687MOL0     H94740   3.400  10.102   8.428  3.9499  1.0432 -1.5850
  687MOL0     H94741   3.293   9.956   8.253 -0.4137  1.0255  0.0703
  687MOL0     H94742   3.376  10.051   8.128 -1.7676 -1.3568 -0.1986
  687MOL0     H94743   3.581  10.021   8.212 -0.4282  0.1361 -1.2501
  687MOL0     H94744   3.538   9.942   8.368 -0.1699 -3.8099 -0.3546
  687MOL0     H94745   3.438   9.752   8.223 -0.9963  0.9799 -1.3343
  687MOL0     H94746   3.553   9.810   8.099 -2.0802  0.3946 -0.2232
  687MOL0     H94747   3.670   9.628   8.220  3.5757  0.5654  0.3855
  687MOL0     H94748   3.612   9.706   8.376  0.5192  0.6766  0.0170
  687MOL0     H94749   3.843   9.793   8.187  2.3516  1.7402  1.5298
  687MOL0     H94750   3.811   9.875   8.331 -0.4407  1.3004 -0.8213
  687MOL0     H94751   3.873   9.578   8.340  1.4493  0.0732 -1.9346
  687MOL0     H94752   3.866   9.686   8.471  1.3224  3.5120 -0.2650
  687MOL0     H94753   4.043   9.713   8.235 -1.5996 -0.1194 -0.3142
  687MOL0     H94754   4.060   9.807   8.378 -1.9887  0.9948 -2.4909
  687MOL0     H94755   4.115   9.623   8.612  1.7348 -0.5648  1.5354
  687MOL0     H94756   4.248   9.290   8.615  0.6462 -0.5506 -2.8105
  687MOL0     H94757   4.290   9.438   8.720 -0.4084  1.8781 -1.0315
  687MOL0     H94758   4.492   9.394   8.496  0.8417  0.7402  0.8180
  687MOL0     H94759   4.513   9.445   8.653  1.9808 -0.6708  0.0466
  687MOL0     H94760   4.476   9.212   8.750 -0.3748  0.1633 -0.2166
  687MOL0     H94761   4.437   9.161   8.591  1.2313 -0.7904  0.9460
  687MOL0     H94762   4.657   9.082   8.626  0.4417 -0.2753 -2.4761
  687MOL0     H94763   4.654   9.209   8.498 -1.4931  2.2298 -0.1650
  687MOL0     H94764   4.932   9.367   8.803  0.4253  0.5822 -0.2623
  687MOL0     H94765   5.119   9.517   8.769  0.3300  0.1969 -0.5033
  687MOL0     H94766   5.282   9.466   8.712  0.5906  0.2378  1.4057
  687MOL0     H94767   5.212   9.399   8.852 -0.5736 -0.0536  0.4366
  687MOL0     H94768   5.339   9.314   8.118  0.5224  1.9323  2.5862
  687MOL0     H94769   5.552   9.257   7.991  2.6550  2.5610  0.1566
  687MOL0     H94770   5.949   9.309   8.116  2.6006 -1.2177 -0.1739
  687MOL0     H94771   5.905   9.219   8.260 -2.9418  1.9787 -0.0777
  687MOL0     H94772   5.963   9.008   8.104 -0.0938  0.2902 -0.1758
  687MOL0     H94773   6.027   9.127   7.996  0.8240 -2.2058  0.1599
  687MOL0     H94774   6.121   9.133   8.283 -0.8481  1.7085 -0.1147
  687MOL0     H94775   6.194   9.198   8.140  1.1088 -0.4456  0.9517
  687MOL0     H94776   6.256   8.980   8.048 -2.0024  0.1752 -1.0371
  687MOL0     H94777   6.179   8.899   8.189 -0.5410 -0.0834  0.9925
  687MOL0     H94778   6.410   9.099   8.228 -2.1404  0.4490  1.3104
  687MOL0     H94779   6.322   9.013   8.338  0.2611 -0.2421 -0.2433
  687MOL0     H94780   6.498   8.897   8.115 -1.4248 -0.4146 -0.5593
  687MOL0     H94781   6.397   8.800   8.231  1.8346 -1.3083 -1.0507
  687MOL0     H94782   6.522   8.906   8.422  2.5452 -2.8256  0.5717
  687MOL0     H94783   6.611   9.003   8.315 -1.4152  0.0617  2.2114
  687MOL0     H94784   6.707   8.796   8.208 -0.4670 -2.5475 -0.2682
  687MOL0     H94785   6.603   8.698   8.300  4.2946 -1.9358 -0.3565
  687MOL0     H94786   5.728   9.107   8.345  0.5565  0.2552  0.2511
  687MOL0     H94787   5.515   9.138   8.464 -1.4400  1.2397 -0.0042
  687MOL0     H94788   5.081   9.149   8.381 -1.8551 -2.0453  0.5911
  687MOL0     H94789   4.846   9.123   8.462  0.5269 -1.6884  0.4458
  687MOL0     H94790   3.280  10.245   8.094 -0.8049  1.9305 -2.9875
  687MOL0     H94791   3.126  10.439   8.008  1.4946  1.8695 -0.0814
  687MOL0     H94792   3.027  10.958   8.258 -0.5478 -0.7432  0.7295
  687MOL0     H94793   2.844  11.108   8.250 -3.9947  1.2079 -2.3710
  687MOL0     H94794   2.644  11.176   8.282  1.0520 -2.1839 -0.3068
  687MOL0     H94795   2.698  11.272   8.130 -2.0120  2.2850 -0.9261
  687MOL0     H94796   2.406  11.225   8.211 -0.1674 -0.1220 -0.6849
  687MOL0     H94797   2.467  11.305   8.068  0.4763  1.1339 -0.3822
  687MOL0     H94798   2.418  11.446   8.300 -0.4750  2.1712 -1.0470
  687MOL0     H94799   2.596  11.412   8.302  0.4086  0.3213 -0.8555
  687MOL0     H94800   2.523  11.627   8.181  2.2770 -0.2040 -0.0425
  687MOL0     H94801   2.417  11.526   8.076  0.1890 -0.9577  0.7862
  687MOL0     H94802   2.780  11.559   7.878 -0.6861  0.1129 -1.3102
  687MOL0     H94803   2.641  10.862   7.958 -0.9347  1.6573 -0.6180
  687MOL0     H94804   2.807  10.613   7.982 -1.9068  2.4118 -0.2885
  687MOL0     H94805   2.772  10.718   7.847 -1.4451  0.8765  0.2125
  687MOL0     H94806   2.946  10.673   7.889 -0.3060  0.2104 -1.6296
  688MOL0     O94807   3.077   3.908   4.688 -0.1519  0.0497 -0.0567
  688MOL0     C94808   3.079   3.916   4.808  0.1916 -0.3387  0.1318
  688MOL0     O94809   3.162   3.840   4.891 -0.7457 -0.0583  0.2142
  688MOL0     C94810   3.191   3.716   4.835 -0.6208  0.6533 -0.5136
  688MOL0     C94811   3.297   3.713   4.743  0.0877  0.7034 -0.1178
  688MOL0     C94812   3.347   3.590   4.697 -0.2924 -0.2122 -0.1728
  688MOL0     C94813   3.292   3.466   4.742  0.0070 -0.4275  0.6190
  688MOL0     O94814   3.322   3.344   4.691  0.4933 -0.6719  0.1429
  688MOL0     C94815   3.442   3.317   4.621 -0.4981 -0.0721  0.0812
  688MOL0     C94816   3.442   3.169   4.594  0.5570  0.3248 -0.6403
  688MOL0     C94817   3.562   3.106   4.525 -0.4645 -0.1154 -0.5801
  688MOL0     C94818   3.580   3.160   4.375  0.3026 -0.1187 -1.1620
  688MOL0     C94819   3.617   3.054   4.268  0.1264 -0.6854 -1.0053
  688MOL0     C94820   3.759   2.977   4.277 -0.0445 -0.1449  0.6562
  688MOL0     C94821   3.792   2.867   4.167  0.4241 -0.9872 -0.0798
  688MOL0     C94822   3.783   2.912   4.021  0.2815 -0.9802  0.2736
  688MOL0     N94823   3.899   2.986   3.968 -0.5586 -0.3990  0.4679
  688MOL0     C94824   4.011   2.925   3.931  0.2312  0.0147 -0.2700
  688MOL0     C94825   4.062   2.997   3.829 -0.0766 -0.1357  0.0771
  688MOL0     C94826   4.188   2.965   3.762  0.5438  0.3834 -0.4979
  688MOL0     C94827   4.297   3.051   3.828 -0.3436  0.4517  0.4767
  688MOL0     C94828   4.378   2.965   3.925 -0.4100  0.1459  0.0879
  688MOL0     C94829   4.419   3.058   4.043  0.8874  0.6266 -0.1261
  688MOL0     O94830   4.313   3.061   4.138 -1.0207 -0.2663  0.4553
  688MOL0     C94831   4.293   2.951   4.221 -1.0961  0.0327 -0.7452
  688MOL0     C94832   4.392   2.848   4.245 -0.2220 -0.3917 -0.3771
  688MOL0     C94833   4.361   2.757   4.347  0.7371 -0.1106  0.6828
  688MOL0     C94834   4.469   2.651   4.366 -0.4098  0.0371  0.7161
  688MOL0     C94835   4.233   2.756   4.416  0.3630  0.2151  0.1652
  688MOL0     C94836   4.191   2.646   4.511  0.7807 -0.0270  0.4300
  688MOL0     O94837   4.062   2.666   4.573 -0.6206 -0.4622 -0.2480
  688MOL0     C94838   4.017   2.562   4.641  0.5323  0.5917  0.0871
  688MOL0     C94839   4.046   2.551   4.777  0.3086  0.0029 -0.4525
  688MOL0     C94840   3.976   2.463   4.856  0.8574  0.3867 -0.1388
  688MOL0     C94841   3.882   2.375   4.808 -1.2269  0.0299  0.1619
  688MOL0     O94842   3.817   2.275   4.880  0.0968  0.0729 -0.5981
  688MOL0     C94843   3.861   2.267   5.018  0.9934  0.9728 -0.0846
  688MOL0     C94844   3.811   2.132   5.071  0.8148  0.4611  0.1974
  688MOL0     C94845   3.859   2.013   4.998  0.0752 -0.2709  0.2810
  688MOL0     C94846   3.829   1.878   5.065 -1.2393 -0.7324  0.1888
  688MOL0     C94847   3.912   1.762   4.995  0.2064  0.7829  0.2190
  688MOL0     C94848   4.060   1.753   5.047  0.4465  0.0225  0.5543
  688MOL0     C94849   4.117   1.627   4.994 -0.7372 -0.3266  0.1331
  688MOL0     C94850   4.083   1.503   5.071  0.5130  0.7745 -0.4394
  688MOL0    Cl94851   4.171   1.502   5.229  0.1318 -0.5969  0.5258
  688MOL0     C94852   3.861   2.380   4.665 -0.0621 -0.3055  0.0638
  688MOL0     C94853   3.926   2.470   4.585  0.2878  0.5258 -0.1633
  688MOL0     O94854   4.264   2.553   4.538  0.3726 -0.1563 -0.0574
  688MOL0     C94855   4.140   2.857   4.382  1.0692  0.5594  0.5256
  688MOL0     C94856   4.168   2.947   4.285 -0.7630 -0.4671 -0.3193
  688MOL0     N94857   3.984   3.104   3.803  0.3502  0.2603 -0.0757
  688MOL0     N94858   3.888   3.096   3.889 -0.6379  0.4429  0.9677
  688MOL0     C94859   3.204   3.481   4.844  0.4048  1.0010  0.1349
  688MOL0     C94860   3.146   3.599   4.896 -0.1399  0.5734  0.3565
  688MOL0     C94861   2.984   4.008   4.871  0.2766 -0.6154  0.7441
  688MOL0     C94862   3.044   4.101   4.955 -0.1013  0.0175 -0.8180
  688MOL0     C94863   2.968   4.203   5.023 -0.2540  0.0822  0.0042
  688MOL0     C94864   2.838   4.229   4.987  0.1371 -1.1089 -0.0520
  688MOL0     O94865   2.780   4.331   5.053 -0.5563  0.2772  0.4114
  688MOL0     C94866   2.642   4.358   5.049  0.5075 -0.1010 -0.1147
  688MOL0     C94867   2.643   4.508   5.050  0.5725 -0.2881 -0.2264
  688MOL0     C94868   2.521   4.559   5.132  0.2233  0.8062 -0.3141
  688MOL0     C94869   2.491   4.715   5.105 -0.3507 -0.2713  0.4778
  688MOL0     C94870   2.392   4.767   5.200 -0.1614 -0.4899 -0.8194
  688MOL0     C94871   2.308   4.803   5.287  0.0758 -0.4652  1.6617
  688MOL0     C94872   2.786   4.154   4.885 -0.0576  0.4217 -0.1868
  688MOL0     C94873   2.848   4.040   4.832 -0.5002 -0.6458  0.3673
  688MOL0     C94874   2.783   3.978   4.714 -0.2904  0.3755 -0.3909
  688MOL0     H94875   3.336   3.806   4.706  1.5155  0.7252  1.3210
  688MOL0     H94876   3.420   3.597   4.618 -0.2112 -0.5590 -0.1285
  688MOL0     H94877   3.535   3.351   4.667 -0.9051 -1.3179  1.9438
  688MOL0     H94878   3.433   3.351   4.518  1.8691 -2.6130 -1.0714
  688MOL0     H94879   3.437   3.124   4.693  2.5537  3.0270  0.8101
  688MOL0     H94880   3.354   3.148   4.532 -0.7688  2.7355  0.3039
  688MOL0     H94881   3.645   3.144   4.585  0.2785  1.8123 -2.6948
  688MOL0     H94882   3.567   2.997   4.522  2.7100 -0.0414 -1.0326
  688MOL0     H94883   3.509   3.229   4.330  2.1288  1.0330 -2.4398
  688MOL0     H94884   3.671   3.221   4.381  0.3663 -0.2872 -0.2717
  688MOL0     H94885   3.614   3.117   4.179 -2.0572  2.4131  1.0324
  688MOL0     H94886   3.536   2.980   4.264 -0.5534  0.0447 -1.0330
  688MOL0     H94887   3.837   3.054   4.276  0.2906 -0.4888 -0.0002
  688MOL0     H94888   3.768   2.927   4.373  0.0961 -3.6097 -0.9886
  688MOL0     H94889   3.718   2.786   4.175 -0.4870 -0.2937 -1.2058
  688MOL0     H94890   3.895   2.837   4.185  0.7390  0.7240  1.1790
  688MOL0     H94891   3.761   2.818   3.968 -1.8255 -1.1315  1.2930
  688MOL0     H94892   3.701   2.984   4.015  2.2077  1.2934 -0.3834
  688MOL0     H94893   4.052   2.833   3.971  1.4967  0.1221 -1.2688
  688MOL0     H94894   4.169   2.977   3.656 -1.9407 -0.2333 -0.1789
  688MOL0     H94895   4.211   2.860   3.780  0.5557  0.6636  1.3182
  688MOL0     H94896   4.355   3.103   3.751  0.2651 -0.4161  0.3341
  688MOL0     H94897   4.244   3.128   3.885 -2.0169 -0.9924  0.9474
  688MOL0     H94898   4.332   2.878   3.973 -0.2081 -0.7079 -1.2079
  688MOL0     H94899   4.457   2.916   3.868 -0.1005  2.2788 -1.4166
  688MOL0     H94900   4.515   3.036   4.091 -0.2104  0.9738  2.4134
  688MOL0     H94901   4.425   3.160   4.004  0.2805  0.0864 -1.7103
  688MOL0     H94902   4.478   2.832   4.181 -0.9998 -1.6315 -1.1452
  688MOL0     H94903   4.510   2.636   4.467  1.6765 -3.0764 -0.4312
  688MOL0     H94904   4.556   2.668   4.301 -0.3026  0.5560  0.9899
  688MOL0     H94905   4.435   2.556   4.323  2.4928 -0.8220  0.0751
  688MOL0     H94906   4.116   2.621   4.822 -1.6660  1.8783 -0.1375
  688MOL0     H94907   3.993   2.472   4.963  1.3149 -2.9534  0.1645
  688MOL0     H94908   3.970   2.263   5.022  0.9262 -1.7051  0.6785
  688MOL0     H94909   3.821   2.351   5.075 -0.1213  1.3571 -1.3758
  688MOL0     H94910   3.832   2.127   5.178 -1.9562 -1.8483  0.7460
  688MOL0     H94911   3.702   2.140   5.070  0.7453 -0.0390  1.6287
  688MOL0     H94912   3.968   2.023   4.996 -0.0989  2.2690 -0.6971
  688MOL0     H94913   3.822   2.005   4.895  0.3114 -0.0819  0.1806
  688MOL0     H94914   3.721   1.868   5.052 -1.4368  2.1822 -1.1176
  688MOL0     H94915   3.854   1.878   5.172 -1.4805 -1.3606  0.2505
  688MOL0     H94916   3.855   1.671   5.015  0.1808  1.4392  3.8307
  688MOL0     H94917   3.925   1.769   4.886 -2.7630  1.7031 -0.1893
  688MOL0     H94918   4.065   1.758   5.156 -1.2246  2.0168  0.5923
  688MOL0     H94919   4.127   1.830   5.008  1.1669 -0.3874  0.9600
  688MOL0     H94920   4.225   1.639   5.005 -0.8114 -1.0333  1.8593
  688MOL0     H94921   4.090   1.608   4.889 -2.6746 -2.6654  0.9638
  688MOL0     H94922   4.118   1.417   5.013 -1.5341 -0.6658  0.3365
  688MOL0     H94923   3.975   1.497   5.088  0.6988 -0.4350  0.4252
  688MOL0     H94924   3.788   2.310   4.626  1.8592 -2.3783  0.0141
  688MOL0     H94925   3.918   2.470   4.477  2.1983 -0.6611 -0.3661
  688MOL0     H94926   4.038   2.847   4.418  0.7333 -2.5497 -0.9368
  688MOL0     H94927   4.100   3.028   4.259  0.2604  0.1573 -1.1772
  688MOL0     H94928   3.174   3.386   4.886  1.6711  0.7481  0.5106
  688MOL0     H94929   3.076   3.594   4.978 -0.2493  1.0476  0.3009
  688MOL0     H94930   3.144   4.083   4.993 -0.3841  1.4891  0.7493
  688MOL0     H94931   3.007   4.250   5.113  0.1947 -2.8651  1.4989
  688MOL0     H94932   2.580   4.310   4.973  3.1878 -2.6290 -0.8826
  688MOL0     H94933   2.606   4.326   5.147  0.9054  0.6432  0.2834
  688MOL0     H94934   2.642   4.549   4.949  0.4819  1.0338  0.2842
  688MOL0     H94935   2.740   4.536   5.092  0.9042 -2.8335  0.9192
  688MOL0     H94936   2.436   4.494   5.107 -0.0665  1.7114 -1.7919
  688MOL0     H94937   2.548   4.551   5.238  1.6324  2.5282 -0.4938
  688MOL0     H94938   2.459   4.722   5.001 -2.7374 -2.2856  0.9700
  688MOL0     H94939   2.587   4.765   5.114 -0.2708 -0.5806  1.4847
  688MOL0     H94940   2.244   4.839   5.364 -0.3037  0.9839  0.7082
  688MOL0     H94941   2.683   4.173   4.857 -0.3747  0.4586  0.9351
  688MOL0     H94942   2.807   3.872   4.714  0.5985  0.4595  3.5198
  688MOL0     H94943   2.675   3.989   4.729 -0.2532  0.3010 -0.0756
  688MOL0     H94944   2.813   4.041   4.629 -2.9277  3.6340  0.8445
  689MOL0     O94945   0.647   4.683   8.932  0.7557  0.7684  0.2297
  689MOL0     C94946   0.622   4.794   8.927 -0.4222 -0.7715 -0.1012
  689MOL0     O94947   0.713   4.886   8.872 -0.4827 -0.3773 -0.2223
  689MOL0     C94948   0.846   4.841   8.858  0.6018  0.5085 -0.6266
  689MOL0     C94949   0.891   4.804   8.730 -0.2698  1.0008 -0.6964
  689MOL0     C94950   1.033   4.773   8.706  0.4188 -0.8052  0.0631
  689MOL0     C94951   1.115   4.771   8.819 -0.2218 -0.2919 -0.5522
  689MOL0     O94952   1.245   4.737   8.791  0.0398 -0.1129  0.3086
  689MOL0     C94953   1.354   4.778   8.876  0.8675  0.4120 -0.7722
  689MOL0     C94954   1.494   4.747   8.818 -0.2913  0.6320 -0.5277
  689MOL0     C94955   1.514   4.775   8.672 -0.3459 -0.0078 -0.0722
  689MOL0     C94956   1.657   4.778   8.624 -0.3548  1.1175 -0.2767
  689MOL0     C94957   1.662   4.798   8.472  0.4475  0.3286 -0.3658
  689MOL0     C94958   1.790   4.756   8.403  0.9410 -0.3134 -0.5208
  689MOL0     C94959   1.806   4.604   8.385 -0.2214 -0.5500  0.3317
  689MOL0     C94960   1.906   4.557   8.290 -0.0011  0.7035 -0.6555
  689MOL0     N94961   2.039   4.623   8.299 -0.2232  0.0531 -0.3566
  689MOL0     C94962   2.148   4.573   8.370  0.2601 -0.4923 -0.0026
  689MOL0     C94963   2.250   4.649   8.318 -0.2428 -0.1959  0.4498
  689MOL0     C94964   2.382   4.644   8.377 -0.4685 -0.4150 -0.1242
  689MOL0     C94965   2.503   4.624   8.285 -0.0556  0.1122  0.4227
  689MOL0     C94966   2.495   4.486   8.226 -0.0598 -0.2441 -0.2810
  689MOL0     C94967   2.510   4.365   8.325  0.0813 -0.5799  0.0658
  689MOL0     O94968   2.615   4.382   8.416 -0.0863 -0.3801 -0.3610
  689MOL0     C94969   2.745   4.390   8.374  0.0294  0.0861  0.0205
  689MOL0     C94970   2.796   4.347   8.250 -0.0688  0.2938 -0.6361
  689MOL0     C94971   2.935   4.345   8.226 -0.7051 -0.4632 -1.4045
  689MOL0     C94972   2.998   4.305   8.100 -0.2998  0.2910 -0.0649
  689MOL0     C94973   3.016   4.406   8.323 -0.2889  0.4014 -0.2830
  689MOL0     C94974   3.170   4.420   8.306 -0.9254  1.9228 -0.1790
  689MOL0     O94975   3.240   4.304   8.265 -0.4296  0.2723  0.9762
  689MOL0     C94976   3.374   4.300   8.288  0.2322  0.2452  0.3655
  689MOL0     C94977   3.443   4.201   8.213  0.1888 -0.5857 -0.0336
  689MOL0     C94978   3.578   4.193   8.233 -0.7861  0.2901 -0.6379
  689MOL0     C94979   3.647   4.268   8.322 -1.0184 -0.2943 -0.2212
  689MOL0     O94980   3.788   4.265   8.331 -0.7331  0.7937 -0.1602
  689MOL0     C94981   3.858   4.287   8.207  0.3313  0.2317  0.7800
  689MOL0     C94982   4.007   4.286   8.237 -0.2273 -0.4807  0.1941
  689MOL0     C94983   4.105   4.313   8.125 -0.0086  0.0516 -0.2775
  689MOL0     C94984   4.115   4.459   8.084  0.2666  0.3733  0.0677
  689MOL0     C94985   4.224   4.480   7.980 -0.4659  0.3599  0.6932
  689MOL0     C94986   4.363   4.510   8.039  0.1903 -0.6636  0.6921
  689MOL0     C94987   4.481   4.489   7.935 -0.2528 -0.5841  0.1079
  689MOL0     C94988   4.518   4.613   7.870  0.6555 -0.2485  0.0223
  689MOL0    Cl94989   4.381   4.707   7.810 -0.4683  0.1139 -0.4622
  689MOL0     C94990   3.578   4.369   8.395 -0.5281  0.6459  0.5639
  689MOL0     C94991   3.442   4.387   8.382  0.4387  0.7886 -0.2884
  689MOL0     O94992   3.212   4.531   8.296 -0.0461 -0.5085 -0.1538
  689MOL0     C94993   2.961   4.473   8.437 -0.3760 -1.0516  0.9138
  689MOL0     C94994   2.833   4.456   8.468  0.0344 -0.2827 -0.2434
  689MOL0     N94995   2.197   4.737   8.229 -0.7008  0.1942 -0.1062
  689MOL0     N94996   2.074   4.725   8.215  0.1626 -0.2808  0.0393
  689MOL0     C94997   1.066   4.801   8.948 -0.0319 -0.3054  0.2328
  689MOL0     C94998   0.935   4.834   8.966  0.5876  0.0035 -0.1166
  689MOL0     C94999   0.486   4.849   8.959 -0.0774 -0.6754  0.1672
  689MOL0     C95000   0.456   4.981   8.918  0.1072 -0.1165 -0.4937
  689MOL0     C95001   0.339   5.047   8.960 -0.5635 -0.6021 -0.5293
  689MOL0     C95002   0.235   4.979   9.028  0.7849 -0.0138 -0.3067
  689MOL0     O95003   0.112   5.030   9.060 -0.5391 -0.2482 -0.1320
  689MOL0     C95004   0.058   5.136   8.985 -0.2581  0.3653  0.0877
  689MOL0     C95005  -0.085   5.118   9.010 -0.4669 -0.2024 -0.8880
  689MOL0     C95006  -0.176   5.236   8.968 -0.2049 -0.3122  0.8564
  689MOL0     C95007  -0.328   5.208   8.946  0.7719  0.3779  0.1382
  689MOL0     C95008  -0.387   5.330   8.883 -0.1073 -0.1130  0.4333
  689MOL0     C95009  -0.446   5.432   8.847 -0.0282  0.7487 -0.2011
  689MOL0     C95010   0.259   4.848   9.065  0.9510  0.1826 -0.1872
  689MOL0     C95011   0.386   4.784   9.043 -0.3520  0.2965 -0.0605
  689MOL0     C95012   0.402   4.648   9.102 -0.3339 -0.0939  0.1034
  689MOL0     H95013   0.823   4.806   8.646 -1.9138  1.0182  0.5677
  689MOL0     H95014   1.080   4.754   8.610  1.1577  2.0787 -0.2182
  689MOL0     H95015   1.341   4.710   8.960 -2.0400  0.4534 -1.0637
  689MOL0     H95016   1.355   4.885   8.897  0.9576  0.0216  1.3842
  689MOL0     H95017   1.567   4.788   8.887 -0.0177  0.6235 -0.8074
  689MOL0     H95018   1.499   4.638   8.826  0.1278  0.7339  0.6389
  689MOL0     H95019   1.465   4.698   8.612  0.9390 -1.8699  1.1148
  689MOL0     H95020   1.473   4.868   8.634 -2.9428 -1.0709 -0.0445
  689MOL0     H95021   1.710   4.852   8.684 -0.5641  0.5331  0.6373
  689MOL0     H95022   1.701   4.683   8.654 -0.3820  1.6438  1.5555
  689MOL0     H95023   1.631   4.897   8.438 -0.3303  0.3380  0.3407
  689MOL0     H95024   1.583   4.738   8.426 -0.1357 -0.3901  1.5019
  689MOL0     H95025   1.792   4.803   8.304 -0.0285 -2.1242 -1.4540
  689MOL0     H95026   1.876   4.790   8.461  1.2590  1.5985 -2.0104
  689MOL0     H95027   1.720   4.555   8.339 -0.3023  1.1122 -1.4023
  689MOL0     H95028   1.826   4.567   8.486  1.3529 -2.5369 -0.6205
  689MOL0     H95029   1.908   4.448   8.295 -1.4746  0.5532 -2.2801
  689MOL0     H95030   1.864   4.581   8.192  1.4787  2.7768 -0.8466
  689MOL0     H95031   2.155   4.511   8.459  0.2945  2.7875  2.4577
  689MOL0     H95032   2.386   4.568   8.456 -0.6824 -0.3705 -0.0712
  689MOL0     H95033   2.398   4.744   8.420  2.5214  0.0297 -1.9793
  689MOL0     H95034   2.514   4.700   8.206  2.1105 -1.5974 -1.0526
  689MOL0     H95035   2.597   4.633   8.339 -0.0813  1.1992  0.3252
  689MOL0     H95036   2.400   4.482   8.172 -0.0982  1.1989 -0.3472
  689MOL0     H95037   2.576   4.472   8.153  0.0167 -2.1618  0.1066
  689MOL0     H95038   2.412   4.357   8.373  0.1857 -2.7255  0.0225
  689MOL0     H95039   2.525   4.267   8.278  1.2989 -0.5622  0.3935
  689MOL0     H95040   2.730   4.304   8.175  1.1903 -0.4998 -1.3294
  689MOL0     H95041   2.926   4.315   8.018  0.5032 -3.0842 -1.3620
  689MOL0     H95042   3.034   4.203   8.087  0.6971  0.8253 -1.7787
  689MOL0     H95043   3.085   4.364   8.071 -0.3712  0.1979 -0.4816
  689MOL0     H95044   3.377   4.140   8.153 -0.6007  0.4144 -0.2022
  689MOL0     H95045   3.631   4.116   8.178  1.1839  1.9583 -1.1758
  689MOL0     H95046   3.845   4.211   8.129  2.4270  3.3514 -2.9728
  689MOL0     H95047   3.833   4.376   8.150 -0.9692 -1.0144 -0.6576
  689MOL0     H95048   4.020   4.369   8.307  1.9653 -0.1998 -0.4832
  689MOL0     H95049   4.035   4.191   8.283 -2.2131 -1.2313 -0.0511
  689MOL0     H95050   4.068   4.267   8.033  1.1091  3.5228 -2.6695
  689MOL0     H95051   4.207   4.278   8.148  1.4521  1.7761 -3.4075
  689MOL0     H95052   4.139   4.509   8.178  1.2692 -0.4832  0.2932
  689MOL0     H95053   4.021   4.495   8.041  0.8202  0.7295 -0.8774
  689MOL0     H95054   4.233   4.390   7.919 -1.2167  0.6028  0.2090
  689MOL0     H95055   4.192   4.556   7.907  0.6050  0.0218 -0.1608
  689MOL0     H95056   4.383   4.442   8.123  0.4627 -2.5098 -0.7943
  689MOL0     H95057   4.374   4.609   8.084  1.2942 -0.2349 -0.4479
  689MOL0     H95058   4.446   4.414   7.864 -1.3549 -0.3397  0.3674
  689MOL0     H95059   4.570   4.446   7.982 -0.8128 -0.3995  1.3883
  689MOL0     H95060   4.580   4.587   7.784 -0.7959  0.5946 -1.3391
  689MOL0     H95061   4.572   4.678   7.939 -2.3512  1.3061  1.0954
  689MOL0     H95062   3.642   4.421   8.464  0.3456 -1.0383  1.0869
  689MOL0     H95063   3.392   4.459   8.446  1.5537  0.4681  0.9966
  689MOL0     H95064   3.026   4.538   8.494  1.1704  0.4339 -2.3017
  689MOL0     H95065   2.800   4.512   8.555 -1.3307  0.0943 -0.9810
  689MOL0     H95066   1.140   4.776   9.024 -0.0153 -2.8622 -0.5457
  689MOL0     H95067   0.896   4.856   9.065  1.7399  0.8092  0.1797
  689MOL0     H95068   0.527   5.037   8.858  0.6901 -2.0573 -1.6873
  689MOL0     H95069   0.317   5.151   8.935  0.4585  0.5633  2.8485
  689MOL0     H95070   0.105   5.230   9.015  1.0605 -0.1465 -0.2765
  689MOL0     H95071   0.084   5.120   8.880  1.8637 -1.0043  0.7489
  689MOL0     H95072  -0.092   5.115   9.120  0.9001 -2.1178 -0.7981
  689MOL0     H95073  -0.113   5.023   8.963  3.2507 -1.7704 -0.2652
  689MOL0     H95074  -0.160   5.324   9.032 -2.8485  0.4208  0.6180
  689MOL0     H95075  -0.144   5.272   8.870  1.5880 -1.2488  1.0582
  689MOL0     H95076  -0.375   5.196   9.044 -1.0587  0.7058 -0.6609
  689MOL0     H95077  -0.348   5.114   8.893  2.5359 -0.1268  0.3199
  689MOL0     H95078  -0.483   5.524   8.805  1.5748  0.5273 -2.2623
  689MOL0     H95079   0.188   4.803   9.134  2.6448  0.8365  2.0886
  689MOL0     H95080   0.314   4.622   9.161 -0.5591  1.2283  0.3833
  689MOL0     H95081   0.433   4.589   9.015 -1.7845  1.3118 -1.4306
  689MOL0     H95082   0.483   4.641   9.176 -0.0667 -2.2178 -0.3106
  690MOL0     O95083   8.261   0.427   1.116  0.3831 -0.8059 -0.3360
  690MOL0     C95084   8.253   0.341   1.032  0.4806 -0.1244  0.4158
  690MOL0     O95085   8.357   0.279   0.974 -0.2446 -0.2713  0.2045
  690MOL0     C95086   8.482   0.333   0.960  0.1248 -2.0670  0.5145
  690MOL0     C95087   8.595   0.251   0.958  0.6260  0.4061 -0.1251
  690MOL0     C95088   8.727   0.291   0.962  0.5316 -0.6964 -0.6934
  690MOL0     C95089   8.748   0.434   0.965  0.0701  0.4521  0.4181
  690MOL0     O95090   8.872   0.503   0.956  0.8956  0.4749  0.0205
  690MOL0     C95091   8.989   0.439   0.910 -0.1675 -0.3889  0.0277
  690MOL0     C95092   9.106   0.532   0.853  0.3246  0.3238 -0.4282
  690MOL0     C95093   9.056   0.628   0.742 -0.4219 -0.0720  0.0561
  690MOL0     C95094   9.169   0.715   0.688 -0.2505 -0.4867  0.7749
  690MOL0     C95095   9.219   0.813   0.793 -0.6853 -0.0516  0.4831
  690MOL0     C95096   9.301   0.926   0.719  0.1317  0.1453  0.2861
  690MOL0     C95097   9.344   1.043   0.808  0.3726 -0.4156  1.4239
  690MOL0     C95098   9.432   0.991   0.920  1.0554 -1.1600  0.2246
  690MOL0     N95099   9.481   1.105   1.009 -0.1391 -0.8030 -0.4075
  690MOL0     C95100   9.420   1.138   1.127 -0.3290 -0.2979 -0.8135
  690MOL0     C95101   9.515   1.199   1.196 -0.4136 -0.1306 -1.5763
  690MOL0     C95102   9.506   1.273   1.331 -0.9141  0.3026 -0.0919
  690MOL0     C95103   9.362   1.324   1.356  0.2378 -0.5224  0.0968
  690MOL0     C95104   9.346   1.477   1.315  0.2671  0.9423 -0.0569
  690MOL0     C95105   9.196   1.516   1.322 -0.3009 -0.6744 -0.0337
  690MOL0     O95106   9.131   1.465   1.439 -0.4587 -0.3719 -1.2329
  690MOL0     C95107   9.000   1.437   1.425  0.4311 -0.2867 -0.0532
  690MOL0     C95108   8.933   1.363   1.522 -0.0827 -0.0878  0.2875
  690MOL0     C95109   8.796   1.328   1.508  0.1756  0.1313 -1.2879
  690MOL0     C95110   8.740   1.229   1.614 -0.4729  0.0981 -0.1966
  690MOL0     C95111   8.715   1.389   1.411  0.0953 -0.0996  0.8014
  690MOL0     C95112   8.571   1.369   1.403 -0.3393 -0.8521  0.7126
  690MOL0     O95113   8.503   1.406   1.288 -0.2364  0.1456 -0.1141
  690MOL0     C95114   8.373   1.388   1.262  0.2745  0.4274 -0.2886
  690MOL0     C95115   8.286   1.298   1.331  0.2346  0.3540 -0.1099
  690MOL0     C95116   8.146   1.299   1.310 -0.3032 -0.4540 -0.3928
  690MOL0     C95117   8.093   1.404   1.228  0.3218 -0.1190  0.0346
  690MOL0     O95118   7.960   1.404   1.189  0.0019  0.2479 -0.2797
  690MOL0     C95119   7.862   1.381   1.292  0.2915  0.7123  0.2759
  690MOL0     C95120   7.725   1.399   1.224 -0.7095  0.9681 -0.2568
  690MOL0     C95121   7.721   1.524   1.135  0.6810  0.2344 -0.1312
  690MOL0     C95122   7.585   1.522   1.068 -0.3843  0.2584  1.0282
  690MOL0     C95123   7.597   1.651   0.983  0.5768 -0.0753 -0.3981
  690MOL0     C95124   7.469   1.693   0.900  0.0681  0.4415 -0.2267
  690MOL0     C95125   7.428   1.582   0.798 -0.5091 -0.2207 -0.4338
  690MOL0     C95126   7.321   1.647   0.710 -0.1036 -0.1249  1.4493
  690MOL0    Cl95127   7.385   1.784   0.613  0.1951 -0.2650  0.1286
  690MOL0     C95128   8.180   1.496   1.168  0.1089  0.7571  0.6877
  690MOL0     C95129   8.319   1.487   1.184  0.2353  0.3479  0.3672
  690MOL0     O95130   8.511   1.353   1.508 -0.6966 -0.1108 -0.1371
  690MOL0     C95131   8.777   1.478   1.318  0.4008 -0.8906  0.1184
  690MOL0     C95132   8.915   1.500   1.327  0.7433 -0.7298  0.0419
  690MOL0     N95133   9.642   1.186   1.132 -0.6227  0.0565  0.6982
  690MOL0     N95134   9.612   1.127   1.019  0.2123  0.1799  0.0472
  690MOL0     C95135   8.636   0.520   0.961 -0.0573 -0.7365  1.0003
  690MOL0     C95136   8.503   0.471   0.955  0.2242  0.0647 -0.6555
  690MOL0     C95137   8.115   0.300   0.963  0.1284 -0.0127 -0.2961
  690MOL0     C95138   8.102   0.253   0.826  0.8452  0.0408 -0.1516
  690MOL0     C95139   7.984   0.227   0.763  0.3343 -0.3227  0.5034
  690MOL0     C95140   7.867   0.237   0.833 -0.6489  0.3529  0.1607
  690MOL0     O95141   7.749   0.215   0.765  0.5881  0.2303 -0.7769
  690MOL0     C95142   7.641   0.187   0.860  0.2400 -0.6551 -0.3107
  690MOL0     C95143   7.508   0.153   0.781 -0.4720 -0.9580 -0.4613
  690MOL0     C95144   7.416   0.063   0.864 -0.1826 -0.2081 -0.0327
  690MOL0     C95145   7.304   0.008   0.770 -0.1201 -0.8231 -0.0041
  690MOL0     C95146   7.229  -0.087   0.841  0.5261  0.3805  0.0261
  690MOL0     C95147   7.158  -0.162   0.907  0.7131 -0.2307 -0.7831
  690MOL0     C95148   7.876   0.277   0.969 -0.3246 -0.0192 -0.0461
  690MOL0     C95149   7.996   0.302   1.034  0.7297  0.5933  0.7915
  690MOL0     C95150   7.990   0.321   1.181  0.5358  0.3779  0.5827
  690MOL0     H95151   8.566   0.147   0.959 -4.8062  1.6175  1.1935
  690MOL0     H95152   8.810   0.221   0.969  0.2599 -1.1835 -2.1069
  690MOL0     H95153   8.963   0.372   0.827  0.2094 -1.0793  0.4601
  690MOL0     H95154   9.035   0.384   0.993  3.8342  2.1520 -0.2253
  690MOL0     H95155   9.147   0.584   0.940 -1.6366  1.4731 -0.1233
  690MOL0     H95156   9.186   0.469   0.814  1.4146  1.6686 -0.4217
  690MOL0     H95157   9.013   0.571   0.659 -3.4768 -0.2604  1.6588
  690MOL0     H95158   8.972   0.685   0.783  0.2079  0.1968  1.0195
  690MOL0     H95159   9.253   0.659   0.645 -0.3912 -0.5372  0.5640
  690MOL0     H95160   9.118   0.775   0.612 -1.2347 -0.4977  1.4084
  690MOL0     H95161   9.279   0.753   0.862 -1.2006 -0.3741  0.6532
  690MOL0     H95162   9.144   0.858   0.859 -0.1368  1.8548 -0.1275
  690MOL0     H95163   9.384   0.878   0.667  0.2160 -0.2924  0.8182
  690MOL0     H95164   9.232   0.959   0.640 -1.8989 -0.1325  1.8782
  690MOL0     H95165   9.263   1.101   0.852  2.2263  0.0945  4.4428
  690MOL0     H95166   9.406   1.109   0.747  0.4329 -2.0378 -0.4096
  690MOL0     H95167   9.385   0.909   0.975  1.3939 -1.3631  0.2101
  690MOL0     H95168   9.520   0.946   0.872  2.2107  3.2725 -2.4118
  690MOL0     H95169   9.317   1.123   1.156 -0.4421  1.6999 -0.0243
  690MOL0     H95170   9.573   1.358   1.342  0.6708 -0.2101 -4.1371
  690MOL0     H95171   9.524   1.197   1.408 -0.1231  0.2544 -0.3212
  690MOL0     H95172   9.288   1.273   1.294 -1.7733  3.4020 -1.0588
  690MOL0     H95173   9.349   1.304   1.463 -2.5085  0.4782  0.0463
  690MOL0     H95174   9.410   1.528   1.388  0.4404 -0.9836  1.2092
  690MOL0     H95175   9.379   1.495   1.213  1.4278  0.2859  0.1888
  690MOL0     H95176   9.198   1.625   1.309  2.1094 -0.9026 -2.7219
  690MOL0     H95177   9.140   1.472   1.239  0.3589  0.6320 -1.2173
  690MOL0     H95178   8.998   1.327   1.602  3.0165 -1.5630 -2.6160
  690MOL0     H95179   8.689   1.149   1.559  0.8326  0.1862 -1.6141
  690MOL0     H95180   8.671   1.263   1.692  1.5705 -0.3940  1.9129
  690MOL0     H95181   8.826   1.188   1.668 -1.3022 -1.0231  0.3023
  690MOL0     H95182   8.334   1.214   1.380 -0.7793 -1.2355 -1.7291
  690MOL0     H95183   8.094   1.216   1.355  0.5690 -0.1385  1.2759
  690MOL0     H95184   7.869   1.283   1.341 -0.8879  0.8631  0.7722
  690MOL0     H95185   7.882   1.457   1.368  1.3058  1.9884 -1.2119
  690MOL0     H95186   7.701   1.309   1.167 -1.9410 -0.1139  1.8247
  690MOL0     H95187   7.646   1.405   1.301  1.0996 -1.9295  2.0193
  690MOL0     H95188   7.798   1.514   1.057 -0.8031  1.1947 -1.7962
  690MOL0     H95189   7.728   1.613   1.197  2.5126  0.7535 -1.0213
  690MOL0     H95190   7.506   1.539   1.142 -1.3118 -2.3898  0.7413
  690MOL0     H95191   7.562   1.431   1.012  0.2901  0.3289  0.6285
  690MOL0     H95192   7.634   1.727   1.053 -3.3455 -0.1813  2.0507
  690MOL0     H95193   7.683   1.635   0.916  1.4237  2.0612  0.0798
  690MOL0     H95194   7.495   1.776   0.834  1.2613 -1.0040 -1.6306
  690MOL0     H95195   7.391   1.727   0.969  0.9148 -2.1669  2.2418
  690MOL0     H95196   7.389   1.501   0.860 -0.1190  1.2993  1.9681
  690MOL0     H95197   7.515   1.539   0.747 -0.8799 -2.1646  0.4851
  690MOL0     H95198   7.238   1.687   0.769 -3.8680 -1.7498 -2.2507
  690MOL0     H95199   7.275   1.569   0.649  1.5581  0.3163 -0.4853
  690MOL0     H95200   8.146   1.566   1.092  3.2034 -0.4180 -2.0544
  690MOL0     H95201   8.396   1.555   1.147  2.8659 -0.9566  3.0288
  690MOL0     H95202   8.716   1.537   1.251  1.7588 -2.6505 -2.9179
  690MOL0     H95203   8.957   1.573   1.259 -0.1969 -1.5274 -1.4287
  690MOL0     H95204   8.647   0.628   0.961 -6.4295  0.3292 -0.9101
  690MOL0     H95205   8.424   0.545   0.948  0.3263  0.0286 -2.7511
  690MOL0     H95206   8.197   0.249   0.772  1.3557 -0.4455  0.7654
  690MOL0     H95207   7.974   0.195   0.660  1.3392  3.4657 -0.9359
  690MOL0     H95208   7.675   0.108   0.927  1.9888  1.0653  0.8949
  690MOL0     H95209   7.619   0.275   0.920 -0.0943 -0.9582  0.0172
  690MOL0     H95210   7.541   0.105   0.689  0.8973  0.4004 -0.7303
  690MOL0     H95211   7.455   0.247   0.764  0.6389 -0.0342  0.8767
  690MOL0     H95212   7.466  -0.024   0.908 -2.0187 -1.6616 -0.7129
  690MOL0     H95213   7.370   0.124   0.941 -0.7693  2.6180 -2.4564
  690MOL0     H95214   7.341  -0.024   0.672  0.2332  0.9977 -0.5067
  690MOL0     H95215   7.234   0.088   0.742 -0.4227 -1.0389  0.1251
  690MOL0     H95216   7.098  -0.239   0.953  1.8579 -0.4319  0.4645
  690MOL0     H95217   7.784   0.302   1.020 -1.1506  3.6596 -2.9304
  690MOL0     H95218   7.927   0.245   1.227  1.1115 -0.6551 -0.2926
  690MOL0     H95219   8.086   0.301   1.230  0.0788  1.5695  2.0432
  690MOL0     H95220   7.962   0.425   1.202 -0.8619  0.0727  0.3080
  691MOL0     O95221  11.244   2.299   4.434 -0.5250 -0.0870  0.5113
  691MOL0     C95222  11.148   2.376   4.427 -1.0821 -0.2705 -0.2270
  691MOL0     O95223  11.129   2.475   4.337 -0.7601  0.0664  0.3904
  691MOL0     C95224  11.227   2.490   4.244  0.6213  0.2570  0.1915
  691MOL0     C95225  11.255   2.393   4.145 -0.4644  0.1705  0.1961
  691MOL0     C95226  11.349   2.427   4.046  0.4907  0.9446 -0.2595
  691MOL0     C95227  11.404   2.553   4.044 -0.0701  0.1911 -0.5035
  691MOL0     O95228  11.495   2.588   3.949 -0.3984  0.2647  0.1048
  691MOL0     C95229  11.463   2.567   3.813 -0.1554 -0.3008 -1.0742
  691MOL0     C95230  11.546   2.672   3.746 -0.3463  0.2374  0.0442
  691MOL0     C95231  11.698   2.644   3.759 -0.9397  0.2173 -0.5076
  691MOL0     C95232  11.787   2.738   3.671  0.4547  0.0607 -0.4041
  691MOL0     C95233  11.933   2.709   3.680  0.1838  0.0155  0.4496
  691MOL0     C95234  12.024   2.775   3.574  0.1001 -0.1632 -0.9236
  691MOL0     C95235  12.052   2.930   3.577 -1.0092 -0.1325 -0.8626
  691MOL0     C95236  12.148   2.985   3.469 -0.2796 -0.1225 -0.4828
  691MOL0     N95237  12.146   2.909   3.339  0.5139 -0.3338  0.8030
  691MOL0     C95238  12.034   2.885   3.263 -0.4694 -0.5246 -1.6059
  691MOL0     C95239  12.086   2.838   3.147 -0.3652  0.7373 -0.6166
  691MOL0     C95240  12.011   2.782   3.039 -0.7046 -0.3956  0.0813
  691MOL0     C95241  11.946   2.891   2.951  0.5977 -0.1319  0.0104
  691MOL0     C95242  12.038   2.992   2.866  0.7336  0.0061 -1.4634
  691MOL0     C95243  12.156   2.918   2.800  0.6414  0.4038 -0.0110
  691MOL0     O95244  12.187   3.001   2.689  0.5308 -0.8253 -0.3787
  691MOL0     C95245  12.281   2.966   2.596 -0.4049  0.2594  0.6199
  691MOL0     C95246  12.378   2.868   2.624  0.6012  0.2528  0.5146
  691MOL0     C95247  12.480   2.824   2.535 -0.6095 -0.9050 -0.4071
  691MOL0     C95248  12.588   2.723   2.583 -0.0047  0.6301  0.3640
  691MOL0     C95249  12.472   2.884   2.403 -0.4703  0.7641 -0.1505
  691MOL0     C95250  12.577   2.856   2.303  0.1944  0.2366  1.0626
  691MOL0     O95251  12.552   2.898   2.181  0.5714  0.2205 -0.6428
  691MOL0     C95252  12.648   2.920   2.090 -0.8269  0.8174  0.0858
  691MOL0     C95253  12.642   2.847   1.974  0.4150  0.7298  0.6515
  691MOL0     C95254  12.735   2.862   1.873  0.1183  0.2348  0.0955
  691MOL0     C95255  12.839   2.957   1.882 -0.5625  0.2183  0.8249
  691MOL0     O95256  12.933   2.962   1.777 -0.1175 -0.1544 -0.4749
  691MOL0     C95257  12.986   3.086   1.745 -0.2994 -0.3194 -0.2166
  691MOL0     C95258  13.090   3.057   1.636 -0.7843 -0.7265  0.6314
  691MOL0     C95259  13.154   3.197   1.597  0.5063  0.2496 -0.0102
  691MOL0     C95260  13.266   3.184   1.492  0.6002  0.1167 -0.3882
  691MOL0     C95261  13.330   3.319   1.465 -0.3193 -0.6534  0.1998
  691MOL0     C95262  13.419   3.301   1.344 -0.4305 -0.0456  1.0875
  691MOL0     C95263  13.334   3.278   1.215 -0.0065  0.1679  0.7021
  691MOL0     C95264  13.390   3.365   1.094  0.2638 -0.6600 -1.0886
  691MOL0    Cl95265  13.551   3.308   1.050 -0.1754  0.3975 -0.3351
  691MOL0     C95266  12.845   3.032   2.005  0.2369  0.0615  0.3394
  691MOL0     C95267  12.753   3.011   2.104  0.4516  0.5572 -0.0049
  691MOL0     O95268  12.689   2.812   2.341 -0.6874  1.1198 -0.1430
  691MOL0     C95269  12.380   2.981   2.377  0.0106  0.2835  0.2030
  691MOL0     C95270  12.282   3.025   2.468 -0.0558  0.6773 -0.2602
  691MOL0     N95271  12.216   2.825   3.155 -0.7075  0.5191 -0.0355
  691MOL0     N95272  12.254   2.878   3.267  0.0469  0.7262  1.3291
  691MOL0     C95273  11.377   2.650   4.140 -0.1905 -0.1383 -0.5878
  691MOL0     C95274  11.284   2.615   4.241 -0.2880  0.0826 -0.4667
  691MOL0     C95275  11.060   2.370   4.541  0.4276  0.7193 -0.2944
  691MOL0     C95276  10.952   2.462   4.547 -0.5645 -0.8905  1.0875
  691MOL0     C95277  10.856   2.452   4.648 -0.2004 -0.8455  0.0607
  691MOL0     C95278  10.869   2.355   4.749 -0.0002 -0.3311 -0.2000
  691MOL0     O95279  10.785   2.334   4.861 -0.0743 -0.0147 -0.5127
  691MOL0     C95280  10.660   2.412   4.856 -0.1046 -0.2857 -0.0955
  691MOL0     C95281  10.677   2.554   4.915 -0.8789 -0.2588  0.5773
  691MOL0     C95282  10.703   2.558   5.066 -0.3402  0.0174 -0.4462
  691MOL0     C95283  10.841   2.502   5.098  0.2446  0.1737 -0.5141
  691MOL0     C95284  10.893   2.549   5.229 -0.7315 -0.4611 -0.2733
  691MOL0     C95285  10.934   2.582   5.336 -1.0364 -0.9372 -0.0161
  691MOL0     C95286  10.968   2.260   4.732  0.2123 -0.3437  0.0179
  691MOL0     C95287  11.067   2.271   4.638  0.1986 -0.8575 -0.4447
  691MOL0     C95288  11.157   2.146   4.638  1.3829  0.0779 -1.4642
  691MOL0     H95289  11.202   2.299   4.137  2.3588 -1.5783  0.7714
  691MOL0     H95290  11.370   2.355   3.967  0.6799 -1.3239  1.7436
  691MOL0     H95291  11.360   2.593   3.785  0.4711  1.4965 -1.8333
  691MOL0     H95292  11.493   2.466   3.786  0.4572  0.0221 -1.6106
  691MOL0     H95293  11.529   2.655   3.639  3.2130  0.5689 -0.7161
  691MOL0     H95294  11.518   2.773   3.778  0.4910  0.2596  0.7286
  691MOL0     H95295  11.736   2.660   3.861 -1.0563  0.6185 -0.5253
  691MOL0     H95296  11.722   2.543   3.725 -1.2833 -0.6728  1.7186
  691MOL0     H95297  11.752   2.738   3.568 -2.0359  2.1292  0.3321
  691MOL0     H95298  11.776   2.844   3.694 -0.3119  0.0898 -0.8855
  691MOL0     H95299  11.949   2.601   3.680  0.2185 -0.0179 -1.8771
  691MOL0     H95300  11.966   2.744   3.779  0.1229 -1.5807  1.0725
  691MOL0     H95301  12.120   2.727   3.594  0.7109  1.2786 -0.2618
  691MOL0     H95302  11.989   2.732   3.479  0.6504  0.3967 -1.3840
  691MOL0     H95303  12.102   2.954   3.671  1.9482  2.7545 -2.9971
  691MOL0     H95304  11.952   2.974   3.572 -1.8869 -1.9999 -0.7797
  691MOL0     H95305  12.124   3.086   3.432  0.1292 -0.1752 -0.9087
  691MOL0     H95306  12.251   2.982   3.505 -1.1547 -1.8602  2.1245
  691MOL0     H95307  11.927   2.901   3.265 -0.4912 -0.7197 -0.6660
  691MOL0     H95308  11.928   2.729   3.086  0.2484 -0.0745  2.2280
  691MOL0     H95309  12.079   2.719   2.980  1.2329  1.3712  0.3277
  691MOL0     H95310  11.873   2.840   2.886 -1.5986  0.2836  2.0210
  691MOL0     H95311  11.890   2.959   3.016 -1.2880 -1.0244 -0.6154
  691MOL0     H95312  11.979   3.040   2.788  2.0402 -0.1516 -2.5809
  691MOL0     H95313  12.063   3.065   2.943 -1.3500 -0.6236 -0.0934
  691MOL0     H95314  12.235   2.908   2.874  1.4661 -0.0929 -0.9366
  691MOL0     H95315  12.128   2.815   2.779 -1.3355  0.5244  1.6462
  691MOL0     H95316  12.388   2.824   2.723  2.3478  1.0368  0.7210
  691MOL0     H95317  12.682   2.777   2.600 -2.2161  4.4024  1.8401
  691MOL0     H95318  12.583   2.642   2.510 -1.0392  0.2594  0.8144
  691MOL0     H95319  12.558   2.680   2.679  0.7742 -1.6741 -0.3568
  691MOL0     H95320  12.556   2.781   1.980  2.3709 -1.9975  0.6567
  691MOL0     H95321  12.735   2.793   1.789  1.1946  0.5695 -0.1904
  691MOL0     H95322  12.911   3.162   1.719  0.0779  0.4975  0.9636
  691MOL0     H95323  13.029   3.142   1.829 -0.3115  2.6215 -2.0367
  691MOL0     H95324  13.167   3.000   1.688  0.6181  0.5365  0.0062
  691MOL0     H95325  13.048   2.998   1.554  1.9763 -1.3641 -0.4098
  691MOL0     H95326  13.194   3.252   1.684  2.2924  2.0198 -1.8264
  691MOL0     H95327  13.069   3.257   1.563 -1.5700 -1.3865  1.9529
  691MOL0     H95328  13.218   3.135   1.407  0.0648 -0.5998  0.3049
  691MOL0     H95329  13.342   3.118   1.535 -1.5611 -1.1495  1.7799
  691MOL0     H95330  13.253   3.394   1.448 -1.3068 -1.2810  1.7246
  691MOL0     H95331  13.386   3.339   1.557 -0.6256 -2.0814  0.7166
  691MOL0     H95332  13.491   3.222   1.365 -1.6517 -0.9807  1.9781
  691MOL0     H95333  13.487   3.387   1.336  0.1007 -0.4801  0.9510
  691MOL0     H95334  13.231   3.307   1.237 -1.4780 -0.9301 -3.7267
  691MOL0     H95335  13.328   3.173   1.184 -1.2109  0.4140  0.0549
  691MOL0     H95336  13.407   3.471   1.116  0.2056 -0.5409 -1.5983
  691MOL0     H95337  13.319   3.369   1.010 -0.5463  0.6437 -0.3821
  691MOL0     H95338  12.921   3.110   2.017 -0.0160  0.2016  1.0477
  691MOL0     H95339  12.757   3.079   2.189  1.8616 -1.7503  1.8808
  691MOL0     H95340  12.386   3.035   2.283  0.1420  1.9613  1.1425
  691MOL0     H95341  12.212   3.101   2.436 -0.7206  0.0961 -0.2045
  691MOL0     H95342  11.449   2.731   4.129 -1.9166  1.4006 -0.9241
  691MOL0     H95343  11.258   2.685   4.321 -0.0783 -0.8618  0.4479
  691MOL0     H95344  10.945   2.546   4.479 -2.9274 -0.1414  2.1560
  691MOL0     H95345  10.777   2.526   4.653  0.5287 -0.1056  1.3614
  691MOL0     H95346  10.631   2.414   4.750  3.1279  1.1978 -1.0672
  691MOL0     H95347  10.587   2.364   4.922 -2.1208  0.1987 -1.8559
  691MOL0     H95348  10.587   2.612   4.894 -0.5016  0.2050  0.2258
  691MOL0     H95349  10.757   2.604   4.860 -2.3605  0.7463 -0.7275
  691MOL0     H95350  10.706   2.663   5.096 -1.9838  0.0065 -0.1555
  691MOL0     H95351  10.622   2.517   5.125  0.1030 -1.1364 -0.6083
  691MOL0     H95352  10.907   2.543   5.021  0.3418 -0.0195 -0.5337
  691MOL0     H95353  10.845   2.393   5.096  1.2593  0.2086 -1.0827
  691MOL0     H95354  10.969   2.603   5.435  0.1603 -1.9285 -0.2076
  691MOL0     H95355  10.965   2.181   4.806 -1.1786  0.5615  0.9874
  691MOL0     H95356  11.123   2.085   4.554 -2.8953  0.3990 -0.1807
  691MOL0     H95357  11.264   2.165   4.628  1.2181  1.1277 -1.3633
  691MOL0     H95358  11.153   2.099   4.737  3.6856  1.5492 -0.5973
  692MOL0     O95359   3.648   4.156   4.854  0.2959  0.4171  0.5561
  692MOL0     C95360   3.572   4.090   4.781  0.7786 -0.6070  0.2840
  692MOL0     O95361   3.578   3.957   4.749 -0.1192 -0.0483  0.3722
  692MOL0     C95362   3.684   3.872   4.778 -0.0218  0.5362 -0.5794
  692MOL0     C95363   3.692   3.755   4.706 -1.3360 -0.6145  0.0583
  692MOL0     C95364   3.778   3.650   4.748 -0.4965 -0.3929  0.3559
  692MOL0     C95365   3.860   3.659   4.861  0.1561 -0.4749  0.9423
  692MOL0     O95366   3.946   3.555   4.890 -0.3362 -0.3449 -1.1964
  692MOL0     C95367   3.974   3.534   5.035 -0.1745  0.3785 -0.0536
  692MOL0     C95368   3.964   3.385   5.062 -0.7074  0.9676 -0.2095
  692MOL0     C95369   4.061   3.307   4.973  0.1477 -0.1446  0.1662
  692MOL0     C95370   4.003   3.172   4.937  1.0767  0.7008  0.6233
  692MOL0     C95371   4.058   3.113   4.806 -1.0315 -0.5620 -0.5043
  692MOL0     C95372   3.962   3.007   4.751  0.0553 -0.5331 -0.8599
  692MOL0     C95373   3.950   2.886   4.850 -0.6873 -0.9736 -0.8618
  692MOL0     C95374   3.817   2.874   4.930  1.2505 -0.2481 -0.0592
  692MOL0     N95375   3.720   2.834   4.825 -0.6041  0.3027 -0.2415
  692MOL0     C95376   3.721   2.725   4.742  0.3974  0.3027 -0.3562
  692MOL0     C95377   3.601   2.709   4.678  0.1760 -0.3561 -0.2689
  692MOL0     C95378   3.564   2.599   4.589 -0.8182 -0.9194 -0.0301
  692MOL0     C95379   3.618   2.629   4.447  0.0889  0.4513  0.7813
  692MOL0     C95380   3.580   2.511   4.359 -0.3825 -0.7053  0.6736
  692MOL0     C95381   3.667   2.490   4.235 -0.5699  0.5472  0.7444
  692MOL0     O95382   3.807   2.519   4.254  0.5283 -0.5775  0.3810
  692MOL0     C95383   3.887   2.525   4.144 -0.0961 -0.1241  0.0743
  692MOL0     C95384   3.847   2.542   4.008 -0.0226 -0.0748 -0.2863
  692MOL0     C95385   3.952   2.561   3.913 -0.1812 -0.2308  0.3799
  692MOL0     C95386   3.901   2.572   3.773  0.0580  0.8127  1.7092
  692MOL0     C95387   4.092   2.572   3.947 -0.0930 -0.0345  0.2619
  692MOL0     C95388   4.206   2.576   3.853 -0.2499  0.0767 -0.0776
  692MOL0     O95389   4.329   2.618   3.896  0.0109  0.7877 -0.0064
  692MOL0     C95390   4.431   2.629   3.810 -1.0861  0.0730  0.1288
  692MOL0     C95391   4.420   2.684   3.677 -0.9747 -0.1705  0.1460
  692MOL0     C95392   4.535   2.678   3.581 -0.6091  0.4029  0.4294
  692MOL0     C95393   4.660   2.626   3.630  0.1147  0.2632  0.1948
  692MOL0     O95394   4.762   2.606   3.547 -0.0411 -0.0725 -0.1947
  692MOL0     C95395   4.794   2.470   3.522 -0.0602  0.6757 -0.0437
  692MOL0     C95396   4.845   2.475   3.374  0.2576 -0.7379 -0.2333
  692MOL0     C95397   4.903   2.334   3.343 -0.7765 -0.4034 -0.2980
  692MOL0     C95398   4.961   2.323   3.199  0.4934  0.3134 -0.7163
  692MOL0     C95399   5.037   2.190   3.179 -0.6095  0.3894  0.0215
  692MOL0     C95400   5.098   2.160   3.032 -0.3605 -0.2919 -0.3764
  692MOL0     C95401   4.982   2.145   2.930 -0.6127 -0.5362 -0.3963
  692MOL0     C95402   5.046   2.140   2.794  0.3455  0.1933  0.0050
  692MOL0    Cl95403   5.189   2.029   2.766  0.2617  0.3032 -0.1290
  692MOL0     C95404   4.677   2.587   3.765  0.5834  0.8365 -0.0002
  692MOL0     C95405   4.563   2.591   3.847 -0.7989 -1.0054  1.4774
  692MOL0     O95406   4.181   2.544   3.733  0.2756  0.1170 -0.2676
  692MOL0     C95407   4.122   2.555   4.079 -0.5142 -0.1728  0.4325
  692MOL0     C95408   4.019   2.534   4.171 -0.6073  0.5388 -1.3475
  692MOL0     N95409   3.522   2.818   4.717 -0.3517  0.6402  0.1911
  692MOL0     N95410   3.594   2.891   4.805  0.4259 -0.2062  0.2130
  692MOL0     C95411   3.849   3.779   4.929 -0.5087  0.0814 -0.4924
  692MOL0     C95412   3.766   3.882   4.893 -0.8471  0.1848  0.9752
  692MOL0     C95413   3.449   4.168   4.742  0.4290 -0.6486  0.3824
  692MOL0     C95414   3.396   4.252   4.841  1.1913  0.0245 -0.5435
  692MOL0     C95415   3.279   4.331   4.815  0.4727  0.6293 -0.7198
  692MOL0     C95416   3.198   4.302   4.704  0.0148 -1.6650  1.0640
  692MOL0     O95417   3.085   4.381   4.680  0.1820  0.0816  0.0682
  692MOL0     C95418   2.990   4.331   4.584  0.8445  0.5392 -0.1357
  692MOL0     C95419   2.867   4.424   4.573 -0.1830  0.3174 -0.3770
  692MOL0     C95420   2.759   4.391   4.678  0.5855 -1.4308  0.8885
  692MOL0     C95421   2.631   4.480   4.641  0.3473 -0.1924 -0.1395
  692MOL0     C95422   2.514   4.438   4.723  0.3263 -0.0814 -0.2950
  692MOL0     C95423   2.412   4.411   4.786 -0.0068  0.3676  0.5811
  692MOL0     C95424   3.247   4.203   4.616  0.4491 -0.0263 -0.7501
  692MOL0     C95425   3.371   4.143   4.630  0.1234  0.1027  0.7146
  692MOL0     C95426   3.402   4.044   4.518 -0.2146 -0.4911 -0.0745
  692MOL0     H95427   3.637   3.746   4.613  1.5753  1.6856 -2.0732
  692MOL0     H95428   3.787   3.574   4.672  1.5214 -1.5190  1.6305
  692MOL0     H95429   3.902   3.590   5.095 -1.9154 -1.4809 -0.2667
  692MOL0     H95430   4.074   3.575   5.052 -0.1143 -0.0108  0.5708
  692MOL0     H95431   3.999   3.366   5.164  2.2140  3.0034 -0.7018
  692MOL0     H95432   3.861   3.354   5.042 -0.7373  0.9441 -0.0210
  692MOL0     H95433   4.077   3.358   4.877 -1.6234  1.5590  0.7231
  692MOL0     H95434   4.153   3.304   5.031  0.9966 -3.4189 -1.1318
  692MOL0     H95435   4.025   3.104   5.020  0.5618 -1.5095 -0.9707
  692MOL0     H95436   3.894   3.176   4.928  1.0302 -2.8743 -3.1053
  692MOL0     H95437   4.159   3.073   4.819 -0.1214  0.7723 -2.7565
  692MOL0     H95438   4.059   3.195   4.733 -2.1733 -0.0053  0.0828
  692MOL0     H95439   3.865   3.057   4.743  0.3096  0.3985  1.1965
  692MOL0     H95440   3.984   2.968   4.651  0.1374  0.3802 -1.2125
  692MOL0     H95441   4.035   2.895   4.918 -1.2871 -1.6220 -0.0038
  692MOL0     H95442   3.958   2.794   4.791 -0.0024 -0.3922 -1.6949
  692MOL0     H95443   3.825   2.797   5.007  0.0793  1.3933  1.8100
  692MOL0     H95444   3.794   2.961   4.993  1.3932 -0.5602  0.4261
  692MOL0     H95445   3.804   2.657   4.750 -0.5451 -0.6997  1.4923
  692MOL0     H95446   3.455   2.592   4.591 -0.8371 -0.6316  1.0379
  692MOL0     H95447   3.603   2.506   4.632  2.4250  1.3426  2.4720
  692MOL0     H95448   3.593   2.724   4.400 -0.7313 -0.3312 -0.4266
  692MOL0     H95449   3.727   2.627   4.462  0.2278  1.6828  0.0709
  692MOL0     H95450   3.596   2.419   4.416  2.5575 -0.6312  0.1399
  692MOL0     H95451   3.474   2.515   4.333  0.0562 -0.9777 -1.2984
  692MOL0     H95452   3.656   2.386   4.203  0.4936  0.8279 -0.6369
  692MOL0     H95453   3.629   2.549   4.151  2.3555  1.1330 -0.3080
  692MOL0     H95454   3.748   2.557   3.966 -0.7306 -1.5203  0.8079
  692MOL0     H95455   3.925   2.484   3.712  3.0248  1.7854  1.2947
  692MOL0     H95456   3.946   2.656   3.719 -0.0004 -0.4256 -0.3884
  692MOL0     H95457   3.793   2.562   3.758  0.4735 -0.5327 -0.9335
  692MOL0     H95458   4.325   2.711   3.634  0.1315  1.6269 -1.3212
  692MOL0     H95459   4.527   2.701   3.475 -0.6746  2.8924  0.9108
  692MOL0     H95460   4.869   2.428   3.589 -1.1377  0.8229  1.2989
  692MOL0     H95461   4.703   2.411   3.532  0.5237  0.0821  2.4341
  692MOL0     H95462   4.761   2.506   3.311  0.8458 -1.4207 -1.3927
  692MOL0     H95463   4.931   2.542   3.366 -0.1297 -0.2451 -0.2899
  692MOL0     H95464   4.833   2.250   3.349 -0.0559 -0.9857  0.0854
  692MOL0     H95465   4.992   2.326   3.406  0.1429  1.7618 -1.2266
  692MOL0     H95466   5.022   2.414   3.194 -2.5114  2.5301  0.2554
  692MOL0     H95467   4.876   2.340   3.133  0.4032  0.6121 -0.5249
  692MOL0     H95468   5.116   2.178   3.254 -1.0833  0.2231  0.5052
  692MOL0     H95469   4.963   2.112   3.200  0.1196 -0.9280 -2.0026
  692MOL0     H95470   5.162   2.071   3.033  0.4378  0.1655 -3.2419
  692MOL0     H95471   5.159   2.246   3.005 -3.0269  1.9700  0.3609
  692MOL0     H95472   4.915   2.231   2.939  0.6595  0.4304  0.0710
  692MOL0     H95473   4.926   2.053   2.953  2.8451 -2.4528  1.1847
  692MOL0     H95474   5.083   2.242   2.782  0.1202  0.6866  2.7777
  692MOL0     H95475   4.966   2.121   2.722  0.1191  0.2047  0.2514
  692MOL0     H95476   4.772   2.542   3.795 -0.1344 -3.0338 -2.7705
  692MOL0     H95477   4.575   2.553   3.948  0.2968 -2.4604  0.8390
  692MOL0     H95478   4.218   2.560   4.129 -0.8862  2.3070  1.0322
  692MOL0     H95479   4.045   2.525   4.277 -0.3066  0.1605 -1.4507
  692MOL0     H95480   3.918   3.806   5.008 -1.8692  1.4974  0.2609
  692MOL0     H95481   3.780   3.973   4.950  0.9274  0.1864  0.6153
  692MOL0     H95482   3.453   4.270   4.931  2.2111 -1.4551 -0.8642
  692MOL0     H95483   3.241   4.406   4.884  0.9588 -1.3336  1.8382
  692MOL0     H95484   3.031   4.317   4.483  2.5418 -2.3078  0.8494
  692MOL0     H95485   2.949   4.236   4.617 -0.9172  1.4804  0.5129
  692MOL0     H95486   2.829   4.403   4.473 -2.0335  1.2473  0.0978
  692MOL0     H95487   2.895   4.530   4.573  0.0648  0.2732 -1.8723
  692MOL0     H95488   2.741   4.283   4.674  1.2735 -1.5239 -0.0875
  692MOL0     H95489   2.790   4.406   4.782 -0.5494 -0.6999  1.1362
  692MOL0     H95490   2.608   4.455   4.537 -3.6617 -2.0896  0.9863
  692MOL0     H95491   2.636   4.588   4.655  1.2220  0.0447 -1.9862
  692MOL0     H95492   2.326   4.392   4.846 -0.9609 -2.0934 -1.4093
  692MOL0     H95493   3.191   4.176   4.527 -0.4805 -0.9655  0.0893
  692MOL0     H95494   3.361   3.944   4.533 -2.0432  0.0816 -1.0609
  692MOL0     H95495   3.365   4.078   4.421 -0.9502 -1.2873 -0.0775
  692MOL0     H95496   3.512   4.044   4.520 -0.0767  3.2236  0.1472
  693MOL0     O95497   8.105   5.479   6.340 -0.8305  0.4744  0.3944
  693MOL0     C95498   8.006   5.499   6.391 -0.5273 -0.3636  0.1211
  693MOL0     O95499   7.989   5.596   6.488 -0.2786 -0.4082 -0.8864
  693MOL0     C95500   8.100   5.626   6.556  0.6515  0.8044  0.0731
  693MOL0     C95501   8.174   5.737   6.523 -0.3447 -0.8195  0.2153
  693MOL0     C95502   8.295   5.763   6.582 -0.0654 -0.6157 -0.2385
  693MOL0     C95503   8.344   5.674   6.678  0.4480  0.3290  0.1823
  693MOL0     O95504   8.474   5.712   6.715  0.8252  0.0748  0.0602
  693MOL0     C95505   8.512   5.634   6.835 -0.1755  0.0106 -0.4415
  693MOL0     C95506   8.643   5.678   6.897 -0.2879 -0.6069 -0.3515
  693MOL0     C95507   8.644   5.833   6.942 -0.4834 -0.2250  0.4213
  693MOL0     C95508   8.761   5.859   7.043  0.4807  1.4497 -0.4834
  693MOL0     C95509   8.809   5.995   7.014 -0.4014  0.4693 -0.7043
  693MOL0     C95510   8.928   6.039   7.105  0.5324 -0.0517  0.4086
  693MOL0     C95511   9.063   5.970   7.083 -0.1992  0.4830  0.7308
  693MOL0     C95512   9.099   5.964   6.928 -0.5530  0.1304  0.6788
  693MOL0     N95513   9.240   5.912   6.905 -0.4916 -0.2989 -0.2865
  693MOL0     C95514   9.268   5.783   6.862  0.1627 -1.4438 -0.3341
  693MOL0     C95515   9.398   5.787   6.817  0.6501  1.2661 -0.6894
  693MOL0     C95516   9.452   5.658   6.761  0.0467 -0.3754 -0.7504
  693MOL0     C95517   9.605   5.660   6.755  0.9701  0.7286  0.5242
  693MOL0     C95518   9.645   5.723   6.620  0.5468 -0.3944 -0.3742
  693MOL0     C95519   9.794   5.734   6.596  0.1742 -0.3773 -0.0823
  693MOL0     O95520   9.843   5.597   6.616  0.0143 -0.1032 -0.0786
  693MOL0     C95521   9.976   5.593   6.640  0.6390  0.5792  0.0898
  693MOL0     C95522  10.019   5.503   6.739  0.2331  0.2019 -0.3457
  693MOL0     C95523  10.154   5.481   6.771 -0.2829 -0.5978  0.4692
  693MOL0     C95524  10.189   5.380   6.882 -0.2766 -0.1983 -0.5486
  693MOL0     C95525  10.248   5.560   6.702 -0.7584 -0.8017  0.2345
  693MOL0     C95526  10.397   5.569   6.737  0.2284 -0.0342  0.8512
  693MOL0     O95527  10.457   5.689   6.711 -0.0836 -0.0971 -0.3094
  693MOL0     C95528  10.573   5.720   6.784 -1.0881  0.6778 -0.4697
  693MOL0     C95529  10.572   5.728   6.929  0.1584 -0.1488  0.5762
  693MOL0     C95530  10.680   5.778   7.000 -0.7311  0.0666  0.0475
  693MOL0     C95531  10.805   5.783   6.924  0.4224 -0.0461  0.4163
  693MOL0     O95532  10.930   5.804   6.976 -0.3650  0.9142  0.1153
  693MOL0     C95533  10.944   5.829   7.114 -0.5684 -0.2592  0.2201
  693MOL0     C95534  11.087   5.828   7.158 -0.1558 -1.1005 -0.4078
  693MOL0     C95535  11.129   5.680   7.150 -0.4327 -1.1752 -0.1650
  693MOL0     C95536  11.272   5.671   7.159  0.2133  0.1930 -0.3101
  693MOL0     C95537  11.338   5.528   7.144  0.2750 -0.2647  0.1096
  693MOL0     C95538  11.493   5.539   7.130 -0.1474 -1.1168  0.1107
  693MOL0     C95539  11.567   5.424   7.211  0.3353  0.2556  0.4792
  693MOL0     C95540  11.718   5.438   7.201  1.1573 -0.7625  0.9500
  693MOL0    Cl95541  11.810   5.350   7.323  0.1145 -0.1034 -0.0658
  693MOL0     C95542  10.807   5.751   6.780 -0.5065 -0.2183 -0.0758
  693MOL0     C95543  10.689   5.721   6.716 -0.9432  0.5052  0.4471
  693MOL0     O95544  10.452   5.475   6.792 -0.1649  0.3101  0.3677
  693MOL0     C95545  10.202   5.655   6.604 -0.5711 -1.1690 -0.2887
  693MOL0     C95546  10.069   5.669   6.574 -0.9589 -0.2621  0.8306
  693MOL0     N95547   9.444   5.913   6.847  0.0361  0.5437 -0.6307
  693MOL0     N95548   9.350   5.981   6.901 -0.4893  0.3263 -0.1968
  693MOL0     C95549   8.271   5.554   6.717  0.1448  0.3689 -0.2173
  693MOL0     C95550   8.142   5.533   6.663  0.2393 -0.0626 -0.4145
  693MOL0     C95551   7.886   5.437   6.329  0.7219 -0.6634  0.0358
  693MOL0     C95552   7.763   5.507   6.356 -0.0725 -0.3138  0.3496
  693MOL0     C95553   7.647   5.471   6.289 -0.5965  0.0407 -0.3239
  693MOL0     C95554   7.645   5.354   6.205 -0.3992  0.4947 -0.0361
  693MOL0     O95555   7.545   5.319   6.130 -0.1803  0.5893 -0.2076
  693MOL0     C95556   7.495   5.416   6.037  0.2709 -0.4040 -0.0635
  693MOL0     C95557   7.411   5.348   5.939  0.0037 -0.5825 -0.2805
  693MOL0     C95558   7.468   5.222   5.883 -0.7508 -0.5688  0.0841
  693MOL0     C95559   7.398   5.157   5.761  0.1930 -0.3183  0.6056
  693MOL0     C95560   7.478   5.061   5.692 -0.4555  0.2948  0.3555
  693MOL0     C95561   7.544   4.978   5.623  0.1841  0.0312  0.5806
  693MOL0     C95562   7.763   5.276   6.196  1.0872 -0.2369  0.1713
  693MOL0     C95563   7.884   5.315   6.255  0.1883  0.1330  0.0109
  693MOL0     C95564   8.007   5.233   6.227  0.6367 -0.7165  0.0799
  693MOL0     H95565   8.143   5.807   6.446 -0.2456  0.6126  1.4309
  693MOL0     H95566   8.354   5.852   6.562  2.6468 -1.8854  1.4368
  693MOL0     H95567   8.524   5.526   6.822 -1.4898 -0.2002 -0.0486
  693MOL0     H95568   8.442   5.646   6.918  2.9614 -0.3482  2.4571
  693MOL0     H95569   8.654   5.614   6.985 -1.7404  0.3988  0.6051
  693MOL0     H95570   8.724   5.663   6.825 -0.7439 -1.3045 -0.7308
  693MOL0     H95571   8.667   5.883   6.848 -5.5275 -0.3872 -1.1800
  693MOL0     H95572   8.549   5.867   6.984 -0.8389  1.1595 -1.3851
  693MOL0     H95573   8.728   5.860   7.147  2.5541  1.1426  0.2135
  693MOL0     H95574   8.837   5.780   7.043  1.0268  1.9225 -2.4227
  693MOL0     H95575   8.726   6.065   7.028  0.7153  1.9488 -1.2099
  693MOL0     H95576   8.837   6.003   6.909  0.3923 -1.2101 -0.6601
  693MOL0     H95577   8.951   6.146   7.094 -0.9166  0.1092 -1.7051
  693MOL0     H95578   8.895   6.029   7.209 -0.2235 -1.0319  0.0918
  693MOL0     H95579   9.050   5.864   7.109  0.0539  0.4959  0.9061
  693MOL0     H95580   9.137   6.022   7.144  0.8575 -2.2040  1.9108
  693MOL0     H95581   9.029   5.910   6.863 -1.1037  1.1280  0.4336
  693MOL0     H95582   9.099   6.065   6.887  1.2245  0.2014  0.7820
  693MOL0     H95583   9.200   5.698   6.853 -1.1563 -0.8865  3.0229
  693MOL0     H95584   9.417   5.642   6.658 -0.7498 -1.0812 -0.3800
  693MOL0     H95585   9.423   5.577   6.828 -0.1133  1.0131  0.9217
  693MOL0     H95586   9.633   5.723   6.839 -0.7941  1.9350  0.2632
  693MOL0     H95587   9.647   5.559   6.766 -2.8795 -0.8420  2.7920
  693MOL0     H95588   9.607   5.661   6.539  1.2290  1.1417 -1.9200
  693MOL0     H95589   9.594   5.819   6.604 -0.1231 -0.5489  0.6501
  693MOL0     H95590   9.810   5.773   6.495 -2.7648  1.2964 -0.0340
  693MOL0     H95591   9.833   5.804   6.670  0.3967 -2.7378  2.1993
  693MOL0     H95592   9.946   5.435   6.781  1.7921 -0.8671  0.7152
  693MOL0     H95593  10.095   5.360   6.935  0.7834  1.6372  2.3004
  693MOL0     H95594  10.253   5.427   6.958  0.2855 -2.3516  0.3871
  693MOL0     H95595  10.243   5.288   6.859  2.3535  0.3542  2.6012
  693MOL0     H95596  10.483   5.699   6.985 -0.5528  0.8078 -0.0417
  693MOL0     H95597  10.677   5.810   7.104 -2.5177 -2.4959  0.8739
  693MOL0     H95598  10.906   5.929   7.139 -1.4169 -0.6511  0.5325
  693MOL0     H95599  10.889   5.750   7.167  1.7660 -3.4284 -1.7111
  693MOL0     H95600  11.144   5.904   7.102 -0.1330 -1.5892 -1.0627
  693MOL0     H95601  11.087   5.857   7.263  1.6736  1.7476 -1.0799
  693MOL0     H95602  11.103   5.637   7.052 -3.0972 -0.2471  0.0557
  693MOL0     H95603  11.082   5.633   7.236 -1.3661  0.9169  0.5327
  693MOL0     H95604  11.293   5.713   7.258 -1.4980  0.4440 -0.0281
  693MOL0     H95605  11.312   5.729   7.076 -1.7675  1.9907 -0.1004
  693MOL0     H95606  11.303   5.472   7.231 -0.7932  0.9037  0.4731
  693MOL0     H95607  11.301   5.472   7.058 -0.1379 -0.8599  0.6718
  693MOL0     H95608  11.533   5.634   7.166  2.9376 -2.5811  0.9475
  693MOL0     H95609  11.529   5.523   7.028 -0.2380 -3.1928  0.3514
  693MOL0     H95610  11.532   5.331   7.164 -1.6359  1.2757 -0.1843
  693MOL0     H95611  11.531   5.438   7.313 -0.8523  3.7137 -0.2827
  693MOL0     H95612  11.752   5.542   7.196 -1.4755  0.1334 -3.0218
  693MOL0     H95613  11.750   5.392   7.108  0.6114 -3.4297  1.9947
  693MOL0     H95614  10.903   5.747   6.730 -2.0413 -1.8515 -3.1022
  693MOL0     H95615  10.693   5.695   6.611  1.5830  0.4262  0.5063
  693MOL0     H95616  10.271   5.731   6.569 -1.7863  3.2284  5.2565
  693MOL0     H95617  10.055   5.737   6.490 -2.7951 -1.4854  0.0533
  693MOL0     H95618   8.302   5.491   6.801 -1.1382  1.5353  1.1966
  693MOL0     H95619   8.080   5.449   6.692 -0.9725  1.1194  0.5437
  693MOL0     H95620   7.759   5.592   6.423  3.0435  0.5356 -0.3611
  693MOL0     H95621   7.560   5.535   6.291 -0.6445  0.0623 -1.8742
  693MOL0     H95622   7.439   5.491   6.094  2.8257  2.3900 -0.9820
  693MOL0     H95623   7.569   5.474   5.982 -0.6445 -1.1091 -2.1622
  693MOL0     H95624   7.402   5.414   5.852 -2.2591  0.2503  0.5110
  693MOL0     H95625   7.306   5.329   5.962 -0.4861  1.1579 -0.9303
  693MOL0     H95626   7.570   5.249   5.852 -0.4647 -1.9928 -0.2551
  693MOL0     H95627   7.483   5.144   5.958  1.9097 -0.8173 -0.6248
  693MOL0     H95628   7.378   5.240   5.692 -0.8174  1.5278  2.9572
  693MOL0     H95629   7.309   5.104   5.795  2.1269 -2.8263  2.0995
  693MOL0     H95630   7.592   4.900   5.569  1.1621  1.3272 -0.4820
  693MOL0     H95631   7.765   5.188   6.133  2.1976 -1.2555  1.5742
  693MOL0     H95632   8.072   5.230   6.315 -1.6764 -0.4500  1.9206
  693MOL0     H95633   7.966   5.135   6.200 -0.4942 -0.4298  0.6706
  693MOL0     H95634   8.056   5.279   6.141 -1.3717 -3.1018 -2.5328
  694MOL0     O95635   8.702   8.182   5.219 -0.1327 -0.8519  0.0436
  694MOL0     C95636   8.722   8.293   5.262 -0.7411  0.1963 -0.0429
  694MOL0     O95637   8.843   8.355   5.258 -0.4289  0.3479  0.0454
  694MOL0     C95638   8.955   8.298   5.201  0.3014 -0.8141 -0.5628
  694MOL0     C95639   8.964   8.208   5.092  0.0581 -0.4698 -0.8156
  694MOL0     C95640   9.091   8.151   5.059  0.1377 -0.1775 -0.4077
  694MOL0     C95641   9.208   8.202   5.122  0.1173 -0.2075 -0.2630
  694MOL0     O95642   9.336   8.145   5.094 -0.0905 -0.7390 -0.6950
  694MOL0     C95643   9.339   8.022   5.019 -0.6318 -0.1421 -0.7899
  694MOL0     C95644   9.474   7.962   5.036  1.6756 -0.8064 -0.1211
  694MOL0     C95645   9.595   8.037   4.974 -0.4918 -0.0606  0.3672
  694MOL0     C95646   9.726   7.996   5.036  0.8945  1.0233 -0.0686
  694MOL0     C95647   9.835   8.107   5.002 -0.2425  0.1607  1.0360
  694MOL0     C95648   9.959   8.104   5.092  1.0120  0.0321  0.3495
  694MOL0     C95649  10.067   8.184   5.028  0.4344 -0.6965  0.1285
  694MOL0     C95650  10.027   8.327   4.998  0.3016 -0.6747  0.1513
  694MOL0     N95651  10.139   8.399   4.932 -1.0586 -0.4579 -0.1773
  694MOL0     C95652  10.189   8.375   4.807 -0.1794  0.0125 -0.0831
  694MOL0     C95653  10.289   8.461   4.791  1.0195 -0.0924 -0.6810
  694MOL0     C95654  10.391   8.470   4.683 -0.0122 -0.4134  0.3728
  694MOL0     C95655  10.453   8.332   4.663  0.4820  0.0404 -0.5721
  694MOL0     C95656  10.514   8.264   4.797  1.2318 -0.3642  0.5363
  694MOL0     C95657  10.599   8.353   4.874 -0.1288 -0.2595 -0.3506
  694MOL0     O95658  10.668   8.284   4.967  0.0776 -0.0778 -0.0310
  694MOL0     C95659  10.603   8.244   5.079 -0.0381  0.8521 -0.6801
  694MOL0     C95660  10.676   8.147   5.150 -0.1214 -0.7929  0.4178
  694MOL0     C95661  10.622   8.087   5.258  0.8115  0.4970  0.5138
  694MOL0     C95662  10.704   7.967   5.309  1.1147  0.0229  0.7031
  694MOL0     C95663  10.491   8.123   5.306  0.5275  0.1592 -0.1223
  694MOL0     C95664  10.403   8.051   5.413  0.2113  0.0880  0.2599
  694MOL0     O95665  10.302   8.130   5.466 -0.8697  0.3679 -0.2231
  694MOL0     C95666  10.201   8.061   5.514 -0.7168 -0.0234 -1.0181
  694MOL0     C95667  10.082   8.070   5.451  0.7542 -0.0833  0.5563
  694MOL0     C95668   9.972   8.016   5.507  0.3309  0.0363 -1.2624
  694MOL0     C95669   9.973   7.950   5.630 -0.5744 -0.1617 -0.0609
  694MOL0     O95670   9.875   7.865   5.651 -0.0940  0.0824 -0.3033
  694MOL0     C95671   9.861   7.804   5.785  0.6630 -0.4572  0.3174
  694MOL0     C95672   9.728   7.730   5.810  0.4932  0.2652  0.1826
  694MOL0     C95673   9.608   7.821   5.811  0.2478 -0.3265 -0.1119
  694MOL0     C95674   9.480   7.741   5.805 -0.3033 -0.3825  0.6468
  694MOL0     C95675   9.358   7.825   5.852  0.2229 -0.5411  0.3550
  694MOL0     C95676   9.225   7.758   5.843  0.2971  0.3091  0.1313
  694MOL0     C95677   9.095   7.838   5.874  0.2409 -0.1941  0.9146
  694MOL0     C95678   8.958   7.771   5.839  0.0773  0.5402 -0.2784
  694MOL0    Cl95679   8.957   7.606   5.934  0.2592  0.0970  0.8125
  694MOL0     C95680  10.092   7.949   5.704 -0.2593  0.9195  0.1706
  694MOL0     C95681  10.204   8.010   5.646 -0.5595  0.3157  0.7156
  694MOL0     O95682  10.422   7.932   5.439 -0.3147 -0.0190  0.1833
  694MOL0     C95683  10.433   8.241   5.251  0.3276  0.2321  0.3207
  694MOL0     C95684  10.484   8.299   5.138  0.6738  0.3336  0.1652
  694MOL0     N95685  10.280   8.553   4.897 -1.0564  0.3267  0.3446
  694MOL0     N95686  10.196   8.513   4.982 -0.2019 -0.2179 -0.5065
  694MOL0     C95687   9.195   8.302   5.220  0.4452  0.4533 -0.6384
  694MOL0     C95688   9.072   8.352   5.259  0.1071  0.0618 -0.2566
  694MOL0     C95689   8.623   8.370   5.334  0.6736 -0.4045  0.9239
  694MOL0     C95690   8.650   8.498   5.383 -0.4408  0.7823  0.6662
  694MOL0     C95691   8.551   8.584   5.418 -0.1006  0.0892  0.5711
  694MOL0     C95692   8.420   8.552   5.426  0.8387 -0.9674 -0.1202
  694MOL0     O95693   8.316   8.648   5.453  0.1855  0.4519  0.0950
  694MOL0     C95694   8.184   8.592   5.490  0.6081 -0.6804  0.9531
  694MOL0     C95695   8.105   8.716   5.518 -0.5866 -1.2129  0.5329
  694MOL0     C95696   7.974   8.674   5.580 -0.0174 -0.0442  0.5175
  694MOL0     C95697   7.979   8.666   5.729  1.0027  0.6548 -1.0485
  694MOL0     C95698   7.851   8.602   5.766  0.5501  0.3174 -0.0893
  694MOL0     C95699   7.744   8.565   5.796  0.8324 -0.4067 -0.4016
  694MOL0     C95700   8.388   8.417   5.398 -0.0914  0.2325  0.3053
  694MOL0     C95701   8.485   8.328   5.351  0.3155  0.2173 -0.0659
  694MOL0     C95702   8.433   8.188   5.323  0.2820 -0.6602 -0.5462
  694MOL0     H95703   8.872   8.174   5.046  0.8869 -1.3337 -1.8979
  694MOL0     H95704   9.098   8.072   4.985 -1.7854 -0.9261  0.1500
  694MOL0     H95705   9.317   8.026   4.912  1.7812 -0.7039 -1.3647
  694MOL0     H95706   9.265   7.954   5.063 -1.5317  1.0405 -0.4129
  694MOL0     H95707   9.488   7.932   5.141 -3.3646 -2.2877  0.3863
  694MOL0     H95708   9.469   7.861   4.995 -0.9375 -0.8626  0.1756
  694MOL0     H95709   9.602   8.020   4.867  1.4589 -2.7944  0.8272
  694MOL0     H95710   9.577   8.144   4.990  0.5561  0.1335  0.2930
  694MOL0     H95711   9.718   7.987   5.145  1.5117 -0.6851 -0.1271
  694MOL0     H95712   9.750   7.897   4.994 -2.5112 -0.1234  0.3934
  694MOL0     H95713   9.782   8.202   5.011  0.7673  1.1508 -2.1587
  694MOL0     H95714   9.875   8.097   4.900 -2.8874 -0.5470 -0.0062
  694MOL0     H95715   9.933   8.139   5.192  1.1945  1.2957 -0.0260
  694MOL0     H95716  10.000   8.003   5.102 -0.2708 -0.5851 -0.3445
  694MOL0     H95717  10.082   8.142   4.928 -0.6226 -0.4027 -0.1582
  694MOL0     H95718  10.169   8.174   5.066  0.7710  1.4125 -0.1099
  694MOL0     H95719   9.948   8.324   4.922 -0.5690 -0.7900  1.0385
  694MOL0     H95720   9.988   8.382   5.084  0.0720  0.1759 -0.4865
  694MOL0     H95721  10.150   8.302   4.737  1.6275 -0.5162 -0.5889
  694MOL0     H95722  10.470   8.543   4.705 -0.6036  1.0244 -1.9257
  694MOL0     H95723  10.346   8.503   4.589  2.5125  1.9036 -0.1460
  694MOL0     H95724  10.367   8.270   4.635  0.1404  0.7969 -1.2095
  694MOL0     H95725  10.527   8.348   4.584  1.7873 -0.9008  0.4124
  694MOL0     H95726  10.423   8.235   4.849 -0.7724  1.8802 -1.4769
  694MOL0     H95727  10.573   8.180   4.759  1.7546  1.5076 -3.3024
  694MOL0     H95728  10.673   8.400   4.809  0.8283 -3.0237 -1.4475
  694MOL0     H95729  10.540   8.433   4.920  0.0194 -0.5965  0.4496
  694MOL0     H95730  10.764   8.112   5.097 -1.3787 -2.4901 -0.6116
  694MOL0     H95731  10.808   7.979   5.275  0.3733 -1.7834 -2.6351
  694MOL0     H95732  10.670   7.872   5.267  2.7384  0.7615 -2.5924
  694MOL0     H95733  10.707   7.971   5.418  2.8778  3.9390  0.6747
  694MOL0     H95734  10.067   8.136   5.366  0.2079 -1.1695 -0.2143
  694MOL0     H95735   9.879   8.024   5.452  1.3803 -0.3894 -3.1926
  694MOL0     H95736   9.940   7.728   5.785  0.7940 -0.3368 -0.9367
  694MOL0     H95737   9.867   7.878   5.866  0.1562  0.3579 -0.3698
  694MOL0     H95738   9.713   7.649   5.739 -1.3648  1.3896 -0.8018
  694MOL0     H95739   9.735   7.679   5.906  1.9409 -1.0822 -0.6039
  694MOL0     H95740   9.604   7.890   5.726  1.9413 -1.9724 -1.6296
  694MOL0     H95741   9.609   7.870   5.908  2.2876 -0.3281 -0.0924
  694MOL0     H95742   9.484   7.649   5.864  1.8247 -1.7183 -1.4182
  694MOL0     H95743   9.452   7.710   5.704 -1.1787 -1.2945  1.1489
  694MOL0     H95744   9.375   7.851   5.957 -3.6934 -2.5695  1.6726
  694MOL0     H95745   9.335   7.912   5.791 -2.6431 -2.6140 -1.8156
  694MOL0     H95746   9.234   7.669   5.907  0.3401  0.0123 -0.2850
  694MOL0     H95747   9.208   7.718   5.743 -0.5856  0.6147  0.1505
  694MOL0     H95748   9.099   7.933   5.821 -0.3147 -0.5370  0.2513
  694MOL0     H95749   9.095   7.850   5.983  0.9279  1.6364  0.7472
  694MOL0     H95750   8.960   7.758   5.730 -1.6430  0.7980 -0.3665
  694MOL0     H95751   8.873   7.833   5.871  1.5050  0.9008  3.2428
  694MOL0     H95752  10.100   7.891   5.795 -1.6141 -0.0663 -0.3138
  694MOL0     H95753  10.293   8.005   5.708  0.3115 -1.0963 -0.5979
  694MOL0     H95754  10.344   8.284   5.296  1.4735 -0.2290  3.2807
  694MOL0     H95755  10.438   8.388   5.095 -1.3343 -1.1857 -0.9649
  694MOL0     H95756   9.281   8.330   5.280  0.3643 -0.1463 -0.2379
  694MOL0     H95757   9.065   8.416   5.346  1.4343 -3.5677  2.8049
  694MOL0     H95758   8.750   8.540   5.386  0.3769 -1.0923  3.4161
  694MOL0     H95759   8.583   8.687   5.433 -3.0701  1.0109  1.4186
  694MOL0     H95760   8.149   8.543   5.399  2.0772 -0.7369  0.3859
  694MOL0     H95761   8.212   8.522   5.570  2.8687 -1.8217 -0.6897
  694MOL0     H95762   8.088   8.771   5.425 -1.3981  0.6918  1.7339
  694MOL0     H95763   8.151   8.789   5.586  0.1568 -1.3016  0.1300
  694MOL0     H95764   7.903   8.755   5.559 -1.3615 -1.1369  0.6846
  694MOL0     H95765   7.920   8.588   5.538  0.9743 -0.2551 -0.3672
  694MOL0     H95766   8.001   8.768   5.762 -3.9001  1.7235 -0.2270
  694MOL0     H95767   8.056   8.599   5.768 -0.5272 -0.9156 -0.5636
  694MOL0     H95768   7.643   8.533   5.810  0.9881 -0.9351 -0.4555
  694MOL0     H95769   8.283   8.389   5.388 -0.1070  0.6371 -0.8801
  694MOL0     H95770   8.344   8.174   5.385 -1.4372  1.8115 -2.2503
  694MOL0     H95771   8.394   8.174   5.221 -2.0446 -1.1867  0.3547
  694MOL0     H95772   8.508   8.112   5.344  0.1575 -0.8592 -0.8173
  695MOL0     O95773   1.647  10.167   2.015  0.2484 -0.3292 -0.1974
  695MOL0     C95774   1.568  10.187   2.108  0.4438  0.0859 -0.8924
  695MOL0     O95775   1.610  10.219   2.236  0.2025 -0.3126 -0.3158
  695MOL0     C95776   1.729  10.270   2.258 -0.0711 -0.1254 -0.4045
  695MOL0     C95777   1.732  10.403   2.306 -0.1573  0.1688  0.4470
  695MOL0     C95778   1.858  10.463   2.318  0.4428 -0.0512 -0.3192
  695MOL0     C95779   1.973  10.391   2.277  0.5125 -0.0717 -0.2015
  695MOL0     O95780   2.094  10.452   2.275 -0.7603  0.6701 -0.2012
  695MOL0     C95781   2.114  10.575   2.348 -0.0730  0.7925  0.0715
  695MOL0     C95782   2.260  10.615   2.356 -0.1766 -0.0614 -0.7370
  695MOL0     C95783   2.352  10.499   2.375  0.0435  0.2816  0.1446
  695MOL0     C95784   2.390  10.430   2.242  0.0732  0.3845 -0.3681
  695MOL0     C95785   2.498  10.331   2.265  0.2787 -0.1177  0.7617
  695MOL0     C95786   2.491  10.239   2.135 -0.1646 -0.0413  0.4329
  695MOL0     C95787   2.603  10.136   2.113  0.4673  0.2885 -0.6783
  695MOL0     C95788   2.751  10.192   2.138  0.5635 -0.0500  0.1531
  695MOL0     N95789   2.781  10.293   2.043  0.4038  0.0616 -0.1427
  695MOL0     C95790   2.770  10.278   1.904 -0.4798  0.0854 -0.4992
  695MOL0     C95791   2.784  10.403   1.854  0.0162 -0.2990  1.1644
  695MOL0     C95792   2.756  10.441   1.711 -0.3414  0.8387  0.0135
  695MOL0     C95793   2.882  10.456   1.613 -0.4749  0.0509 -0.9231
  695MOL0     C95794   3.029  10.467   1.677  0.2006  0.1993  0.5255
  695MOL0     C95795   3.095  10.346   1.737  0.3832  0.1301 -0.1388
  695MOL0     O95796   3.154  10.247   1.649 -0.1752  0.0105  1.1836
  695MOL0     C95797   3.265  10.278   1.572  0.2576 -0.6422 -0.4012
  695MOL0     C95798   3.390  10.257   1.628 -0.3589 -0.6761  0.3079
  695MOL0     C95799   3.507  10.281   1.555 -0.6719  0.1399  0.2636
  695MOL0     C95800   3.641  10.276   1.620  0.0650 -0.7427 -0.2458
  695MOL0     C95801   3.499  10.317   1.418  0.7518  0.4693  0.9820
  695MOL0     C95802   3.607  10.335   1.318 -0.3164  0.3586  0.4476
  695MOL0     O95803   3.578  10.391   1.193  0.2967 -0.0134 -0.0871
  695MOL0     C95804   3.675  10.433   1.107  0.0354 -0.1067  0.3632
  695MOL0     C95805   3.709  10.566   1.093 -0.3890 -0.5368 -0.7252
  695MOL0     C95806   3.807  10.599   0.999  0.6295  0.2484 -0.3169
  695MOL0     C95807   3.868  10.508   0.916 -0.0941 -0.6999  0.0126
  695MOL0     O95808   3.966  10.545   0.823  0.3162 -0.3419  0.2813
  695MOL0     C95809   4.000  10.679   0.791 -0.4077 -0.0381  0.1023
  695MOL0     C95810   4.108  10.722   0.889  0.3705 -0.9682 -1.1463
  695MOL0     C95811   4.241  10.637   0.876  0.1714  0.8542 -0.0303
  695MOL0     C95812   4.343  10.702   0.780  0.0459  0.5000  0.6388
  695MOL0     C95813   4.453  10.598   0.757  0.4336  0.3771  0.0542
  695MOL0     C95814   4.541  10.565   0.881 -0.4874  0.3413 -0.8404
  695MOL0     C95815   4.658  10.470   0.855 -0.3881 -0.1937 -0.1187
  695MOL0     C95816   4.787  10.550   0.823  0.4005 -0.1319  0.6293
  695MOL0    Cl95817   4.806  10.609   0.659  0.0777  0.0266  0.5765
  695MOL0     C95818   3.828  10.378   0.924 -0.5203 -0.6983 -0.7665
  695MOL0     C95819   3.737  10.341   1.023  0.2720  0.3269 -0.8788
  695MOL0     O95820   3.723  10.299   1.352  0.0619  0.4939  0.1142
  695MOL0     C95821   3.370  10.345   1.368  0.0994 -0.0259 -0.4424
  695MOL0     C95822   3.252  10.318   1.440  0.1396 -0.1367  0.3848
  695MOL0     N95823   2.802  10.489   1.959 -0.5505  0.0264  0.1946
  695MOL0     N95824   2.793  10.424   2.070  0.2800 -0.1875  0.1529
  695MOL0     C95825   1.970  10.257   2.239  0.3238 -0.6283  0.4765
  695MOL0     C95826   1.848  10.197   2.238 -0.0163  0.8981 -0.5397
  695MOL0     C95827   1.422  10.187   2.081 -0.5621 -0.1215 -0.5694
  695MOL0     C95828   1.335  10.227   2.184 -0.6128  1.1136 -0.8366
  695MOL0     C95829   1.198  10.218   2.176 -0.5588 -0.5351 -0.1487
  695MOL0     C95830   1.139  10.175   2.060  0.3830  0.4252  0.3670
  695MOL0     O95831   1.005  10.157   2.035 -0.1146 -0.7833 -0.0665
  695MOL0     C95832   0.919  10.199   2.144 -0.3749 -0.4649 -0.4866
  695MOL0     C95833   0.769  10.183   2.113  0.0835 -0.3851  0.1311
  695MOL0     C95834   0.725  10.231   1.974 -0.6180  0.1399 -1.1730
  695MOL0     C95835   0.576  10.202   1.963 -0.0548  0.3222 -0.2574
  695MOL0     C95836   0.520  10.290   1.859 -0.7101 -0.9127 -0.6053
  695MOL0     C95837   0.469  10.359   1.767  0.6806  0.3170  0.2530
  695MOL0     C95838   1.228  10.141   1.960  0.1366 -0.2789  0.0618
  695MOL0     C95839   1.369  10.152   1.961 -0.1468  0.4240  0.2824
  695MOL0     C95840   1.439  10.114   1.832 -0.3618 -0.8404  0.3894
  695MOL0     H95841   1.645  10.461   2.338 -0.8401 -1.0757  0.8841
  695MOL0     H95842   1.862  10.566   2.351 -2.4969 -0.6142  2.1760
  695MOL0     H95843   2.069  10.553   2.446 -2.5212 -0.7945 -1.2979
  695MOL0     H95844   2.055  10.655   2.301 -1.1571 -0.4928 -0.8548
  695MOL0     H95845   2.288  10.673   2.267  1.5187  1.8448  0.9418
  695MOL0     H95846   2.273  10.683   2.441  2.1628  0.7499 -1.6610
  695MOL0     H95847   2.442  10.542   2.418 -1.4305  2.5877  1.1080
  695MOL0     H95848   2.314  10.436   2.456  0.6859  2.1530  2.0017
  695MOL0     H95849   2.304  10.376   2.202  0.2806  1.2129 -1.9958
  695MOL0     H95850   2.412  10.502   2.163  0.9410 -1.2993 -1.7230
  695MOL0     H95851   2.477  10.254   2.339 -1.3400 -1.5807 -1.1303
  695MOL0     H95852   2.599  10.370   2.284 -0.3502  2.2163 -0.3306
  695MOL0     H95853   2.395  10.189   2.148 -1.4301  2.2919  0.7358
  695MOL0     H95854   2.486  10.305   2.048  1.0105 -1.1279 -0.4893
  695MOL0     H95855   2.597  10.099   2.010 -1.6402 -3.0976  0.4657
  695MOL0     H95856   2.585  10.044   2.170 -3.1022  0.6032 -1.0617
  695MOL0     H95857   2.751  10.244   2.234 -4.2649  0.9046 -0.1144
  695MOL0     H95858   2.820  10.107   2.143 -0.7593 -1.0872  2.8223
  695MOL0     H95859   2.731  10.189   1.854  0.7342 -1.6734  1.5165
  695MOL0     H95860   2.712  10.541   1.716  0.2615  1.0967  0.2961
  695MOL0     H95861   2.684  10.367   1.675  1.5463 -1.4429  0.6503
  695MOL0     H95862   2.887  10.373   1.542 -1.7537  0.1013 -1.1055
  695MOL0     H95863   2.860  10.540   1.547 -0.9205 -0.9095 -2.0405
  695MOL0     H95864   3.087  10.505   1.593 -1.6393  2.2614  0.1148
  695MOL0     H95865   3.025  10.546   1.752  0.8173 -0.8490  1.7174
  695MOL0     H95866   3.174  10.375   1.806  1.2449 -1.9047 -0.1853
  695MOL0     H95867   3.021  10.302   1.805  0.4735  0.4745  0.1808
  695MOL0     H95868   3.404  10.229   1.731  1.2535 -1.6339 -0.1405
  695MOL0     H95869   3.696  10.186   1.590 -3.7323 -3.0693 -0.8496
  695MOL0     H95870   3.622  10.268   1.728  2.8319  1.3346  0.5139
  695MOL0     H95871   3.694  10.372   1.612  1.3530 -1.3765  0.3695
  695MOL0     H95872   3.663  10.651   1.142 -0.8492  0.3862 -2.6583
  695MOL0     H95873   3.838  10.703   0.993 -0.3531  0.5507 -0.4640
  695MOL0     H95874   4.044  10.681   0.691  0.8820  3.3676  0.6286
  695MOL0     H95875   3.916  10.748   0.788  1.3503  2.2182 -1.4089
  695MOL0     H95876   4.133  10.823   0.857  1.7179 -0.7670  0.4277
  695MOL0     H95877   4.074  10.718   0.993  1.1813  1.1694 -0.7512
  695MOL0     H95878   4.223  10.539   0.832 -1.4198  0.9086  0.4540
  695MOL0     H95879   4.283  10.615   0.975  3.2285 -2.3654 -1.8203
  695MOL0     H95880   4.386  10.794   0.822  3.3047 -0.3486 -0.5085
  695MOL0     H95881   4.299  10.729   0.684 -0.2709  1.0137  0.9217
  695MOL0     H95882   4.400  10.506   0.729 -2.0195  1.7088  0.0559
  695MOL0     H95883   4.510  10.630   0.669  2.7168  2.0366  2.0234
  695MOL0     H95884   4.470  10.511   0.945 -1.8517  2.4165 -0.5187
  695MOL0     H95885   4.580  10.650   0.938  0.4768 -1.0204  0.6131
  695MOL0     H95886   4.637  10.403   0.771  1.4665 -2.7994  1.3187
  695MOL0     H95887   4.666  10.414   0.949  1.3867  0.5533  0.2184
  695MOL0     H95888   4.871  10.481   0.833  0.9142  0.6622  2.0733
  695MOL0     H95889   4.808  10.630   0.895  1.0566  0.7083 -0.4748
  695MOL0     H95890   3.872  10.313   0.849 -0.1029  0.1138 -1.2353
  695MOL0     H95891   3.697  10.241   1.038  0.5599  0.1995 -0.9617
  695MOL0     H95892   3.344  10.375   1.267 -2.7007  2.9873  0.9621
  695MOL0     H95893   3.153  10.328   1.396  0.8987 -0.7331 -1.5601
  695MOL0     H95894   2.061  10.208   2.207  0.1122  1.0365 -3.1573
  695MOL0     H95895   1.840  10.092   2.212  1.4998  0.3458  1.0614
  695MOL0     H95896   1.379  10.258   2.278  3.1270 -2.1961 -1.2257
  695MOL0     H95897   1.137  10.253   2.259 -0.0488 -3.4268  1.5776
  695MOL0     H95898   0.939  10.153   2.241  0.2397  2.0135  0.6315
  695MOL0     H95899   0.937  10.307   2.151 -0.1169 -0.5265 -0.1765
  695MOL0     H95900   0.720  10.244   2.190  2.2829 -1.3897  2.4406
  695MOL0     H95901   0.747  10.076   2.119  0.4086 -0.6066 -1.8970
  695MOL0     H95902   0.746  10.338   1.969  0.5188  0.2462  2.7164
  695MOL0     H95903   0.798  10.186   1.906  1.0905  2.1529 -0.7768
  695MOL0     H95904   0.525  10.221   2.058  1.9848  0.9921  0.7574
  695MOL0     H95905   0.566  10.095   1.940 -1.0746  0.3586 -0.0097
  695MOL0     H95906   0.434  10.413   1.681  1.3019  0.4244  0.0609
  695MOL0     H95907   1.175  10.091   1.880 -0.2657 -0.4853  0.4498
  695MOL0     H95908   1.357  10.105   1.760 -2.3039  1.2210  2.1967
  695MOL0     H95909   1.505  10.194   1.796  0.2001  1.0682  4.9801
  695MOL0     H95910   1.499  10.023   1.844 -0.8397 -1.3508 -0.9063
  696MOL0     O95911   4.688   6.608  10.004  0.2935 -0.2488  0.0841
  696MOL0     C95912   4.647   6.708  10.064 -0.6292 -0.5132  0.0283
  696MOL0     O95913   4.737   6.805  10.115  0.1428  0.6140  0.0537
  696MOL0     C95914   4.877   6.787  10.102 -0.4336  0.2632  0.6757
  696MOL0     C95915   4.946   6.907  10.077 -0.1936  0.0106 -0.6336
  696MOL0     C95916   5.081   6.896  10.053  0.5884 -0.0739  0.3050
  696MOL0     C95917   5.146   6.771  10.066  0.0208 -0.6371 -0.4025
  696MOL0     O95918   5.284   6.771  10.038  0.2529 -0.3566  0.6803
  696MOL0     C95919   5.347   6.651  10.027 -0.2247 -0.0030  0.0737
  696MOL0     C95920   5.487   6.662   9.971  0.1134  0.4913  0.2244
  696MOL0     C95921   5.550   6.521   9.952  1.0088 -0.9454 -0.4205
  696MOL0     C95922   5.690   6.533   9.891  1.0161 -0.0535 -0.1204
  696MOL0     C95923   5.747   6.390   9.886  0.6500  0.0715  0.2369
  696MOL0     C95924   5.874   6.364   9.820 -1.3580  0.6534  0.3415
  696MOL0     C95925   5.916   6.209   9.816  0.7746 -0.5420  0.2926
  696MOL0     C95926   6.061   6.196   9.766 -0.3350  0.2288  0.3933
  696MOL0     N95927   6.104   6.055   9.778 -0.2787  0.0753 -0.0539
  696MOL0     C95928   6.232   6.011   9.822  0.3656  0.9521  0.2769
  696MOL0     C95929   6.243   5.883   9.782 -0.4814  0.6896  0.3056
  696MOL0     C95930   6.362   5.795   9.803 -0.4798  0.7910  0.4907
  696MOL0     C95931   6.376   5.739   9.949  1.1093 -0.6551 -0.1966
  696MOL0     C95932   6.440   5.603   9.946 -0.3562  0.0154  0.1481
  696MOL0     C95933   6.593   5.610   9.929  0.4785 -0.0701 -0.2489
  696MOL0     O95934   6.651   5.642  10.050 -0.1005 -0.5084 -0.0892
  696MOL0     C95935   6.692   5.545  10.145  0.8959  0.1834  0.9281
  696MOL0     C95936   6.762   5.595  10.257  0.4287  0.3696  0.2752
  696MOL0     C95937   6.782   5.516  10.367 -0.7420  0.2099  0.0134
  696MOL0     C95938   6.863   5.576  10.475  0.1697  0.2558  0.5436
  696MOL0     C95939   6.752   5.382  10.367  0.0158  0.3028  0.1709
  696MOL0     C95940   6.773   5.290  10.486  0.1237 -0.5416  0.0957
  696MOL0     O95941   6.730   5.159  10.457 -0.1618  0.2035 -0.6768
  696MOL0     C95942   6.721   5.057  10.547 -0.2778 -0.4959  0.9594
  696MOL0     C95943   6.718   5.068  10.684 -0.2267 -0.6551  0.5372
  696MOL0     C95944   6.747   4.949  10.751 -0.8230  0.5247 -0.5326
  696MOL0     C95945   6.739   4.822  10.695 -0.4576  0.2255 -0.4093
  696MOL0     O95946   6.753   4.710  10.780  0.4043  0.3288 -0.5108
  696MOL0     C95947   6.731   4.587  10.724  0.0737  0.1964 -0.4928
  696MOL0     C95948   6.682   4.483  10.828  0.0253  0.8964 -0.7361
  696MOL0     C95949   6.653   4.363  10.748  0.5650  0.7783 -0.2495
  696MOL0     C95950   6.587   4.251  10.830  0.3884  0.3189  0.6660
  696MOL0     C95951   6.529   4.140  10.744 -0.0043  0.5959 -0.2103
  696MOL0     C95952   6.469   4.021  10.825 -0.8212 -0.3877  0.0410
  696MOL0     C95953   6.407   3.915  10.733 -0.5305 -0.4035 -0.9221
  696MOL0     C95954   6.368   3.794  10.817  0.1065  0.0429 -0.1632
  696MOL0    Cl95955   6.366   3.645  10.731 -0.2149 -0.0213  0.4050
  696MOL0     C95956   6.723   4.819  10.559  0.6581 -0.7130 -0.4832
  696MOL0     C95957   6.718   4.935  10.486 -0.0346  0.7515 -0.3352
  696MOL0     O95958   6.806   5.327  10.598 -0.0702  0.4663  0.4092
  696MOL0     C95959   6.704   5.332  10.250  0.1983 -0.1402  0.4152
  696MOL0     C95960   6.671   5.408  10.135  0.2523 -0.1220 -0.2109
  696MOL0     N95961   6.132   5.854   9.709 -0.0526 -0.0473 -0.2481
  696MOL0     N95962   6.048   5.953   9.701  0.3044 -0.1743 -0.2346
  696MOL0     C95963   5.078   6.654  10.098  0.5200 -0.9528  0.3375
  696MOL0     C95964   4.941   6.663  10.116  1.2378 -0.5696  0.9663
  696MOL0     C95965   4.506   6.728  10.104 -0.0460  0.4005 -0.8763
  696MOL0     C95966   4.461   6.836  10.176  0.1757 -0.2210  0.8532
  696MOL0     C95967   4.330   6.867  10.222  0.7063 -0.0093  0.8843
  696MOL0     C95968   4.229   6.785  10.179 -0.6278  0.8824  0.7807
  696MOL0     O95969   4.111   6.817  10.227  0.7288  0.0366  0.9236
  696MOL0     C95970   4.000   6.740  10.192 -0.0083  0.5927  0.2129
  696MOL0     C95971   3.875   6.816  10.233 -0.1653  0.2392  0.5196
  696MOL0     C95972   3.869   6.860  10.379 -1.0184 -0.6303  0.1599
  696MOL0     C95973   3.731   6.896  10.417  0.5420 -0.5100 -0.8647
  696MOL0     C95974   3.647   6.781  10.439  0.0293  0.2217 -0.1577
  696MOL0     C95975   3.568   6.689  10.467  0.5736 -0.2700  0.4993
  696MOL0     C95976   4.268   6.669  10.106  0.5123 -0.1098  0.4093
  696MOL0     C95977   4.405   6.638  10.070 -0.0734  0.6025  0.5571
  696MOL0     C95978   4.434   6.512   9.990 -0.9938  0.9200 -1.0633
  696MOL0     H95979   4.896   7.003  10.072 -0.2050  0.3063  2.6575
  696MOL0     H95980   5.148   6.980  10.034  0.0797  0.1255 -0.7215
  696MOL0     H95981   5.287   6.601   9.950  0.1287  1.1663 -0.9952
  696MOL0     H95982   5.340   6.600  10.124  2.4007 -0.3402  0.1517
  696MOL0     H95983   5.484   6.706   9.871 -1.5920 -1.0967 -0.4837
  696MOL0     H95984   5.547   6.727  10.035 -0.5139  0.2354  1.0966
  696MOL0     H95985   5.545   6.471  10.049 -1.1842 -1.7940 -0.8980
  696MOL0     H95986   5.489   6.458   9.887 -0.0776 -2.0623  1.5911
  696MOL0     H95987   5.681   6.565   9.787  1.5515  1.1692  0.1834
  696MOL0     H95988   5.750   6.601   9.953  1.1566 -1.6063  1.5203
  696MOL0     H95989   5.672   6.320   9.849 -0.2794  1.8231 -1.3931
  696MOL0     H95990   5.761   6.361   9.991 -0.1333 -0.0501  0.3140
  696MOL0     H95991   5.871   6.387   9.713 -0.9585 -3.6186 -0.7794
  696MOL0     H95992   5.961   6.414   9.864  0.1084 -1.8520  0.5378
  696MOL0     H95993   5.839   6.166   9.751  0.3551  2.4666 -1.3432
  696MOL0     H95994   5.897   6.171   9.917 -1.2501  4.3687  2.0305
  696MOL0     H95995   6.075   6.238   9.667 -1.9048  0.3252  0.1857
  696MOL0     H95996   6.118   6.257   9.837 -1.7561 -0.2437  2.0124
  696MOL0     H95997   6.315   6.045   9.884  1.5614 -0.6693 -0.3637
  696MOL0     H95998   6.456   5.847   9.779  1.0991 -2.5064 -1.0887
  696MOL0     H95999   6.363   5.709   9.735  3.4750  0.7514  0.3591
  696MOL0     H96000   6.433   5.811  10.009  2.6750  0.4689 -2.8461
  696MOL0     H96001   6.275   5.730   9.990  0.6140  1.0739 -0.9085
  696MOL0     H96002   6.418   5.551  10.040  0.0546 -2.6931 -1.1345
  696MOL0     H96003   6.402   5.535   9.869 -2.2053  0.0851  0.9447
  696MOL0     H96004   6.636   5.516   9.893  1.8704  0.3375  0.3080
  696MOL0     H96005   6.614   5.682   9.849  0.3500 -0.1351 -0.3416
  696MOL0     H96006   6.788   5.699  10.246 -0.5121  0.7332  1.3444
  696MOL0     H96007   6.917   5.667  10.450 -1.7634  0.7981 -2.0887
  696MOL0     H96008   6.941   5.504  10.502  2.4914  0.4985 -4.4872
  696MOL0     H96009   6.806   5.606  10.564  0.4406  1.2636  0.3902
  696MOL0     H96010   6.709   5.162  10.736 -1.5392  1.1704 -2.7076
  696MOL0     H96011   6.755   4.956  10.859  1.0973 -0.9504 -0.5166
  696MOL0     H96012   6.645   4.598  10.656  0.3820  0.4278 -0.8503
  696MOL0     H96013   6.820   4.558  10.668 -0.7033  0.1053 -1.7464
  696MOL0     H96014   6.746   4.461  10.913 -0.4961 -0.4971 -0.6688
  696MOL0     H96015   6.593   4.515  10.882  0.3098 -1.3040  1.1814
  696MOL0     H96016   6.752   4.339  10.707  0.9412 -0.4378  1.2671
  696MOL0     H96017   6.583   4.387  10.667 -1.6974  0.4811  1.5329
  696MOL0     H96018   6.501   4.305  10.869 -0.5126  1.0222 -2.0450
  696MOL0     H96019   6.652   4.218  10.912 -1.2167 -0.1812  1.7832
  696MOL0     H96020   6.447   4.180  10.684 -0.5261  0.2809  0.2668
  696MOL0     H96021   6.614   4.103  10.686 -1.4219  0.2069 -2.1243
  696MOL0     H96022   6.402   4.061  10.901  1.5548 -2.3552  3.4644
  696MOL0     H96023   6.547   3.980  10.889 -0.1503  3.4957  2.0417
  696MOL0     H96024   6.479   3.882  10.656 -2.0687  0.6131 -2.8805
  696MOL0     H96025   6.324   3.962  10.680  2.7794  4.2731 -2.7529
  696MOL0     H96026   6.268   3.811  10.858  0.2083 -0.2301  0.2067
  696MOL0     H96027   6.441   3.782  10.898  0.7716 -1.0554 -0.8991
  696MOL0     H96028   6.735   4.740  10.485  0.8264  1.4038 -2.8624
  696MOL0     H96029   6.710   4.932  10.378 -2.2881  1.5029 -0.2417
  696MOL0     H96030   6.673   5.228  10.240  0.4579 -0.1873  0.0812
  696MOL0     H96031   6.628   5.356  10.050 -0.2466  1.7467 -1.1405
  696MOL0     H96032   5.114   6.552  10.106 -0.4509 -1.4099 -0.8523
  696MOL0     H96033   4.882   6.575  10.140  2.7212 -1.8203  0.2197
  696MOL0     H96034   4.538   6.912  10.189  1.4899 -1.6387  1.6923
  696MOL0     H96035   4.309   6.960  10.274  0.6732  0.9864 -0.8291
  696MOL0     H96036   3.997   6.723  10.084 -1.8344  4.7357 -0.5790
  696MOL0     H96037   4.012   6.647  10.248 -2.3092  1.7281  2.7905
  696MOL0     H96038   3.786   6.754  10.216  0.7388 -0.6409 -1.3355
  696MOL0     H96039   3.851   6.900  10.168 -1.9350  0.9206  1.9832
  696MOL0     H96040   3.910   6.776  10.436  1.9187  0.8943  0.4586
  696MOL0     H96041   3.940   6.942  10.387  1.3363 -2.2314 -2.4612
  696MOL0     H96042   3.677   6.960  10.346 -2.7427 -1.4973  0.5223
  696MOL0     H96043   3.745   6.956  10.508  3.8222 -2.8361  0.3379
  696MOL0     H96044   3.514   6.601  10.496 -1.0227  0.6325  0.3154
  696MOL0     H96045   4.191   6.593  10.093  0.9766 -0.4917 -0.1919
  696MOL0     H96046   4.493   6.440  10.047  1.0816  1.0543 -2.9614
  696MOL0     H96047   4.343   6.452   9.973  1.0564 -2.9167  0.2579
  696MOL0     H96048   4.483   6.529   9.894  1.0872 -2.6466 -0.7989
  697MOL0     O96049   8.246   4.191   5.625 -0.0122 -0.6654  0.5991
  697MOL0     C96050   8.271   4.134   5.517  0.2647 -0.8070  0.4684
  697MOL0     O96051   8.376   4.163   5.437 -0.1777 -0.1075 -0.3704
  697MOL0     C96052   8.476   4.260   5.468  0.4055 -0.4645  0.7162
  697MOL0     C96053   8.454   4.383   5.523  0.3540  0.0721  0.0557
  697MOL0     C96054   8.554   4.462   5.574  0.2831  0.0211  0.4174
  697MOL0     C96055   8.685   4.424   5.557 -0.6905  0.2060  0.0774
  697MOL0     O96056   8.775   4.516   5.601  0.1176 -0.4406 -0.2661
  697MOL0     C96057   8.922   4.500   5.595 -0.4899  0.8162 -0.5741
  697MOL0     C96058   8.987   4.616   5.666  0.5694 -0.3298  0.2951
  697MOL0     C96059   9.104   4.577   5.759 -0.0319 -0.0757 -0.1868
  697MOL0     C96060   9.168   4.709   5.818  0.3762  0.2128 -1.1200
  697MOL0     C96061   9.259   4.679   5.939  0.2657 -0.3789 -0.0667
  697MOL0     C96062   9.399   4.631   5.878 -0.5504 -0.2232  0.0149
  697MOL0     C96063   9.502   4.599   5.986  0.2033  0.7212 -0.2991
  697MOL0     C96064   9.617   4.521   5.915  0.9713  0.1146  0.0802
  697MOL0     N96065   9.724   4.488   6.010 -0.5441 -0.4892 -0.2796
  697MOL0     C96066   9.771   4.361   6.034  0.5154 -0.4377  1.1878
  697MOL0     C96067   9.882   4.394   6.111 -0.1823  0.3284 -0.3757
  697MOL0     C96068   9.974   4.294   6.173 -0.2263  0.0890 -1.1269
  697MOL0     C96069   9.925   4.239   6.303  0.7180  0.3300  0.9140
  697MOL0     C96070  10.009   4.118   6.356 -0.2124 -0.5353 -0.1909
  697MOL0     C96071   9.991   3.994   6.268 -0.3657  0.5282  0.0976
  697MOL0     O96072  10.071   3.882   6.315 -0.3510 -0.0240 -0.1331
  697MOL0     C96073  10.213   3.889   6.298  0.0386 -0.0329 -0.0314
  697MOL0     C96074  10.288   3.971   6.215 -1.0088  0.4483 -0.3640
  697MOL0     C96075  10.427   3.975   6.208 -1.2146 -0.2245  1.3439
  697MOL0     C96076  10.495   4.083   6.119  1.0664  0.5028  0.0130
  697MOL0     C96077  10.502   3.884   6.282 -0.5372  0.2166 -0.2934
  697MOL0     C96078  10.650   3.868   6.272 -0.3236  0.3136  1.0971
  697MOL0     O96079  10.710   3.788   6.361  0.5324  0.3729  1.0199
  697MOL0     C96080  10.842   3.754   6.340 -0.2668 -0.5827  0.2613
  697MOL0     C96081  10.948   3.840   6.383  0.3479 -0.0078  0.6541
  697MOL0     C96082  11.083   3.795   6.375  0.0273 -0.4104 -0.0165
  697MOL0     C96083  11.118   3.676   6.309  0.1619 -0.0660 -0.5839
  697MOL0     O96084  11.238   3.622   6.292 -0.3419  0.0798 -0.8420
  697MOL0     C96085  11.342   3.679   6.381 -0.0903  0.8023  0.1616
  697MOL0     C96086  11.468   3.592   6.364  0.4032  0.7563 -0.5914
  697MOL0     C96087  11.518   3.588   6.217  0.1723  0.1693 -0.1773
  697MOL0     C96088  11.660   3.539   6.220 -0.0469  0.5775 -0.2874
  697MOL0     C96089  11.721   3.530   6.080  0.9073  0.1691  0.3507
  697MOL0     C96090  11.867   3.486   6.078 -0.2651  0.4274 -0.7775
  697MOL0     C96091  11.922   3.476   5.934  0.5538 -0.6082  1.4087
  697MOL0     C96092  12.061   3.418   5.914 -0.2294 -0.1338 -0.3754
  697MOL0    Cl96093  12.092   3.417   5.742 -0.0680 -0.2873 -0.1195
  697MOL0     C96094  11.011   3.597   6.261  0.0046  0.4300  0.6261
  697MOL0     C96095  10.873   3.639   6.268 -0.7288  0.0600 -0.0905
  697MOL0     O96096  10.713   3.930   6.188  0.3700  0.2313  0.2432
  697MOL0     C96097  10.428   3.793   6.360 -0.3177  0.9732 -0.6397
  697MOL0     C96098  10.291   3.794   6.372 -0.1773  0.2634 -0.2052
  697MOL0     N96099   9.902   4.527   6.126  0.2970 -0.2280 -0.8850
  697MOL0     N96100   9.804   4.582   6.073 -0.3152  1.1160  0.4926
  697MOL0     C96101   8.711   4.303   5.498  0.4333 -0.0221  0.9947
  697MOL0     C96102   8.609   4.217   5.448 -0.0336  0.0680 -0.7650
  697MOL0     C96103   8.179   4.025   5.459  0.5995 -0.1317 -0.1018
  697MOL0     C96104   8.173   4.011   5.322 -0.3362  0.1530  0.1630
  697MOL0     C96105   8.082   3.929   5.258  0.2614  0.3353  0.0366
  697MOL0     C96106   8.002   3.840   5.335 -1.1728  0.1225  0.8063
  697MOL0     O96107   7.928   3.753   5.263 -0.0789 -0.1681  0.5502
  697MOL0     C96108   7.837   3.664   5.318  0.5536 -0.1334 -1.2746
  697MOL0     C96109   7.903   3.524   5.331 -0.1856 -0.6272 -1.4463
  697MOL0     C96110   7.939   3.466   5.193  0.6535  0.1547  0.0886
  697MOL0     C96111   7.962   3.313   5.202  0.3922  0.6604 -0.2570
  697MOL0     C96112   7.856   3.230   5.263  0.8199 -0.3268 -0.1512
  697MOL0     C96113   7.766   3.177   5.325 -0.1673  0.3256 -0.2553
  697MOL0     C96114   8.015   3.842   5.474  0.4664 -0.7703  0.3705
  697MOL0     C96115   8.099   3.937   5.536  0.4985  0.1314  0.5133
  697MOL0     C96116   8.113   3.938   5.682 -1.1491 -0.3478  0.6495
  697MOL0     H96117   8.352   4.420   5.533  0.3358  0.2645 -0.7847
  697MOL0     H96118   8.511   4.553   5.615 -0.8519  0.6140 -1.9174
  697MOL0     H96119   8.969   4.503   5.496  0.5141  0.8733 -0.1077
  697MOL0     H96120   8.954   4.408   5.645 -1.3584  0.9131  0.1897
  697MOL0     H96121   9.030   4.690   5.597  0.5975 -1.0650 -0.4944
  697MOL0     H96122   8.912   4.663   5.730 -0.8684 -0.2488 -1.3708
  697MOL0     H96123   9.061   4.527   5.846  2.1848 -1.5791  0.1408
  697MOL0     H96124   9.185   4.518   5.715  1.0082 -0.1485  1.7317
  697MOL0     H96125   9.241   4.769   5.763  4.4533 -0.4006  3.0860
  697MOL0     H96126   9.082   4.767   5.854 -0.6495 -1.5011 -0.7068
  697MOL0     H96127   9.226   4.595   6.000 -0.5877 -1.1319 -1.5032
  697MOL0     H96128   9.277   4.773   5.993  1.9083 -0.1142 -1.0129
  697MOL0     H96129   9.383   4.542   5.817 -0.5910 -0.8781  0.9702
  697MOL0     H96130   9.438   4.706   5.808 -1.9117  0.8013  0.2965
  697MOL0     H96131   9.462   4.535   6.065  0.4627 -2.2207 -2.3421
  697MOL0     H96132   9.530   4.695   6.029 -3.3225  1.3301  0.9011
  697MOL0     H96133   9.573   4.434   5.866 -0.8714  0.7357  0.5497
  697MOL0     H96134   9.656   4.593   5.843 -1.7904 -1.8253 -3.7113
  697MOL0     H96135   9.745   4.257   6.013  2.3887 -1.0726  1.7904
  697MOL0     H96136  10.075   4.335   6.182  0.4632 -1.5497 -1.0262
  697MOL0     H96137   9.986   4.207   6.108 -0.8860 -2.7329  2.2323
  697MOL0     H96138   9.934   4.317   6.379 -0.7756 -1.0932  2.6171
  697MOL0     H96139   9.822   4.205   6.289  0.1223  1.8299  1.4599
  697MOL0     H96140  10.109   4.164   6.362 -1.3132  2.1423 -1.0392
  697MOL0     H96141   9.983   4.091   6.459 -0.2437 -1.1946 -0.3684
  697MOL0     H96142   9.888   3.957   6.275 -0.3709  0.1341 -1.5019
  697MOL0     H96143  10.020   4.005   6.163 -0.1333 -0.1654  0.0838
  697MOL0     H96144  10.229   4.046   6.163 -0.3623  1.2836  0.0691
  697MOL0     H96145  10.557   4.050   6.035  3.2908  1.1151  1.3187
  697MOL0     H96146  10.570   4.139   6.176  2.8680 -0.6455 -1.1164
  697MOL0     H96147  10.422   4.156   6.084  1.6484 -0.1838 -2.8944
  697MOL0     H96148  10.919   3.934   6.429  0.8902 -0.8835  2.9139
  697MOL0     H96149  11.163   3.856   6.417 -0.0867 -1.3216  1.6242
  697MOL0     H96150  11.368   3.777   6.341  0.6179 -0.8202 -3.8347
  697MOL0     H96151  11.308   3.683   6.485 -0.2508  2.1860  0.0696
  697MOL0     H96152  11.544   3.620   6.436 -1.7411  2.1404  1.2617
  697MOL0     H96153  11.439   3.492   6.398 -0.0574 -0.0765 -3.1929
  697MOL0     H96154  11.529   3.688   6.174 -0.9562 -0.3425 -1.7293
  697MOL0     H96155  11.452   3.524   6.159 -1.0045  0.1702  1.1009
  697MOL0     H96156  11.677   3.445   6.273  0.9323  0.4831 -0.7445
  697MOL0     H96157  11.725   3.605   6.278  1.0174  0.0019 -0.7967
  697MOL0     H96158  11.675   3.452   6.018  2.2362 -0.2078 -0.2053
  697MOL0     H96159  11.706   3.619   6.019  0.4051 -1.0938 -1.4580
  697MOL0     H96160  11.874   3.387   6.124 -0.3652 -0.1867 -2.0201
  697MOL0     H96161  11.926   3.556   6.138 -0.1578  0.6559 -1.1443
  697MOL0     H96162  11.924   3.578   5.894  0.9468 -1.4913 -0.9250
  697MOL0     H96163  11.847   3.428   5.871  0.5411 -0.6274  1.4380
  697MOL0     H96164  12.074   3.320   5.961  1.5126 -0.4101 -1.3418
  697MOL0     H96165  12.125   3.490   5.966 -2.3931  0.8733  1.0457
  697MOL0     H96166  11.039   3.501   6.218  0.3379 -0.3177  2.4017
  697MOL0     H96167  10.797   3.575   6.224 -0.7020  0.0619 -0.1412
  697MOL0     H96168  10.482   3.710   6.406  1.6471  1.9585 -1.0434
  697MOL0     H96169  10.247   3.721   6.440 -1.1622 -0.7627 -1.8906
  697MOL0     H96170   8.817   4.290   5.475  0.5810  0.7730  1.1975
  697MOL0     H96171   8.629   4.129   5.387 -0.7710  1.3637 -3.0113
  697MOL0     H96172   8.241   4.067   5.258 -0.2014 -0.3155 -0.1081
  697MOL0     H96173   8.076   3.928   5.150 -2.4001 -0.2496  0.1247
  697MOL0     H96174   7.821   3.702   5.419 -0.3348  1.9078 -2.1367
  697MOL0     H96175   7.733   3.663   5.284  0.9789  0.3194 -2.6786
  697MOL0     H96176   7.832   3.457   5.381 -1.4507  1.7343  0.1400
  697MOL0     H96177   7.991   3.533   5.395  0.3785 -3.2490 -1.7778
  697MOL0     H96178   7.850   3.487   5.134 -2.0416 -3.9757  2.2370
  697MOL0     H96179   8.023   3.529   5.161  1.7220  0.7180  3.5950
  697MOL0     H96180   8.046   3.298   5.271  1.5343  1.5347 -1.4060
  697MOL0     H96181   7.987   3.276   5.102  2.4752  1.1576  0.0241
  697MOL0     H96182   7.684   3.125   5.371 -1.0736 -0.8784 -3.0012
  697MOL0     H96183   7.948   3.781   5.534 -1.5622 -0.2657 -1.2806
  697MOL0     H96184   8.085   3.841   5.726  1.4181 -2.1816 -1.4369
  697MOL0     H96185   8.220   3.946   5.704 -1.0735  1.1166 -0.1473
  697MOL0     H96186   8.067   4.022   5.734  0.1122  2.2774 -2.2145
  698MOL0     O96187   2.716   5.332   5.137 -0.3776 -0.0073 -0.2213
  698MOL0     C96188   2.604   5.361   5.101 -0.9844  0.3165  0.7358
  698MOL0     O96189   2.531   5.290   5.013 -0.3335 -0.5577 -0.0772
  698MOL0     C96190   2.577   5.169   4.951  1.1254 -0.3192 -0.0401
  698MOL0     C96191   2.694   5.092   4.984  0.4349  0.2609  2.0261
  698MOL0     C96192   2.721   4.976   4.915 -0.8758  0.0803 -0.6512
  698MOL0     C96193   2.650   4.929   4.813 -0.0331  0.2912 -0.8662
  698MOL0     O96194   2.695   4.815   4.753  0.2062 -0.5014  0.0941
  698MOL0     C96195   2.739   4.847   4.616 -0.3104  0.0725 -0.7743
  698MOL0     C96196   2.875   4.905   4.607 -0.6138  0.5672 -0.4155
  698MOL0     C96197   2.971   4.823   4.693  0.4056 -0.2813  0.4939
  698MOL0     C96198   3.111   4.894   4.687  1.0948  0.2263  0.8342
  698MOL0     C96199   3.225   4.824   4.761  0.2477  0.1241  0.4728
  698MOL0     C96200   3.255   4.688   4.689 -0.3156 -0.6321  0.0525
  698MOL0     C96201   3.399   4.646   4.705  1.0899  0.7626  0.2567
  698MOL0     C96202   3.445   4.625   4.851  0.2658  0.5865 -0.4637
  698MOL0     N96203   3.594   4.627   4.858 -0.8110  0.0095  0.4107
  698MOL0     C96204   3.679   4.523   4.881  0.2487  0.0240 -0.8106
  698MOL0     C96205   3.800   4.568   4.878 -0.2000 -0.2749 -0.5725
  698MOL0     C96206   3.932   4.494   4.909  0.5866 -0.1447 -0.1123
  698MOL0     C96207   3.903   4.397   5.026  0.3395  0.2872  0.0140
  698MOL0     C96208   4.029   4.318   5.076 -0.6533 -1.2160 -0.4342
  698MOL0     C96209   4.137   4.410   5.130 -0.6287  0.4794 -0.6797
  698MOL0     O96210   4.226   4.446   5.026  0.1136 -0.0336  0.3930
  698MOL0     C96211   4.358   4.451   5.065 -0.0264  0.2204  0.5109
  698MOL0     C96212   4.418   4.532   5.165 -0.9356 -0.2486  0.7420
  698MOL0     C96213   4.558   4.547   5.185  0.4111  0.2357  0.5508
  698MOL0     C96214   4.607   4.661   5.266 -0.0086 -0.7451 -0.1234
  698MOL0     C96215   4.643   4.453   5.128 -0.2464 -0.1828  0.7145
  698MOL0     C96216   4.788   4.456   5.140 -0.1628 -0.2107 -0.8456
  698MOL0     O96217   4.853   4.573   5.113 -0.0330 -0.8204 -0.0810
  698MOL0     C96218   4.988   4.587   5.139  0.3634 -0.4614  0.3387
  698MOL0     C96219   5.080   4.532   5.057 -0.0556  0.4733  0.4443
  698MOL0     C96220   5.207   4.574   5.063 -0.3757 -0.2790  0.6982
  698MOL0     C96221   5.252   4.667   5.156  0.9292  0.1669  0.3043
  698MOL0     O96222   5.381   4.706   5.159 -0.1504 -0.2582  0.4184
  698MOL0     C96223   5.429   4.820   5.232  0.4298 -0.0777  0.3341
  698MOL0     C96224   5.566   4.865   5.166  0.1837  0.7736 -0.5915
  698MOL0     C96225   5.678   4.779   5.228  0.6916 -1.3169  0.6595
  698MOL0     C96226   5.815   4.822   5.161  0.1506  0.6649  0.7487
  698MOL0     C96227   5.911   4.710   5.202 -0.1167  0.2489  0.1754
  698MOL0     C96228   6.050   4.749   5.140 -0.7376 -0.3856  0.2287
  698MOL0     C96229   6.156   4.630   5.145 -0.7856 -0.6456 -0.1256
  698MOL0     C96230   6.278   4.653   5.050  0.1745  0.1170  0.0191
  698MOL0    Cl96231   6.353   4.815   5.093  0.3827  0.1103 -0.0390
  698MOL0     C96232   5.159   4.715   5.256 -0.0371 -1.0059  0.5291
  698MOL0     C96233   5.028   4.673   5.249  0.4263  0.4134 -0.5769
  698MOL0     O96234   4.842   4.355   5.179  0.2932 -0.2386 -0.7306
  698MOL0     C96235   4.591   4.373   5.032  0.5152  0.3893  0.3241
  698MOL0     C96236   4.451   4.369   4.995 -0.8978 -0.2393 -0.4640
  698MOL0     N96237   3.792   4.702   4.850 -0.0205 -0.2848  0.4401
  698MOL0     N96238   3.674   4.735   4.833  0.1086  0.4284 -0.5473
  698MOL0     C96239   2.538   5.009   4.772  0.4812 -0.5604 -0.3714
  698MOL0     C96240   2.509   5.128   4.835 -0.1425  0.2723  0.0203
  698MOL0     C96241   2.560   5.494   5.146 -1.1090 -0.6166  0.5044
  698MOL0     C96242   2.485   5.565   5.057  0.5288  0.1205 -0.3025
  698MOL0     C96243   2.423   5.688   5.089  0.0599  0.4306 -0.4590
  698MOL0     C96244   2.464   5.747   5.217  0.2922  0.7741  0.3967
  698MOL0     O96245   2.417   5.870   5.241 -0.5016  0.1230  0.1784
  698MOL0     C96246   2.447   5.942   5.359 -0.3837 -0.1256  0.0452
  698MOL0     C96247   2.385   6.078   5.349 -0.2811  0.2312  0.4398
  698MOL0     C96248   2.234   6.076   5.373  0.3427  0.5866  0.3631
  698MOL0     C96249   2.173   6.206   5.325 -0.3142  0.0849 -1.0383
  698MOL0     C96250   2.214   6.316   5.420  1.1138  0.3437  0.0527
  698MOL0     C96251   2.227   6.412   5.498 -0.6227  0.8888 -0.1119
  698MOL0     C96252   2.544   5.672   5.300  0.5104 -0.1183 -0.8572
  698MOL0     C96253   2.594   5.551   5.268  0.3690  0.2664  0.1948
  698MOL0     C96254   2.680   5.481   5.367 -0.6947  0.2795 -0.1158
  698MOL0     H96255   2.764   5.122   5.061  1.5094  1.5797  0.5921
  698MOL0     H96256   2.808   4.920   4.948 -0.6729 -0.3785 -1.9205
  698MOL0     H96257   2.670   4.916   4.567 -5.1284 -2.0628  2.2412
  698MOL0     H96258   2.734   4.755   4.557  0.4131  0.1763 -1.0067
  698MOL0     H96259   2.909   4.906   4.503  0.9185  0.9114  0.0573
  698MOL0     H96260   2.871   5.008   4.643  1.7377  0.4523  0.3262
  698MOL0     H96261   2.937   4.824   4.797  1.2212  0.2479  0.7636
  698MOL0     H96262   2.978   4.717   4.668  1.5807  0.2498 -1.6810
  698MOL0     H96263   3.132   4.911   4.581 -0.2637 -1.5977  0.2223
  698MOL0     H96264   3.097   4.995   4.728 -0.6929  1.4544 -2.4519
  698MOL0     H96265   3.201   4.801   4.865  2.8306  0.1191  1.1371
  698MOL0     H96266   3.314   4.887   4.752 -1.0097  1.7007 -4.9507
  698MOL0     H96267   3.191   4.612   4.736  0.8434 -0.1839  2.5184
  698MOL0     H96268   3.222   4.698   4.585 -1.8711  0.5625  0.6092
  698MOL0     H96269   3.462   4.724   4.662 -1.5674  1.8228 -2.0031
  698MOL0     H96270   3.417   4.554   4.650 -0.1018  1.8958 -2.1722
  698MOL0     H96271   3.422   4.705   4.921 -0.6793 -1.7885  2.1307
  698MOL0     H96272   3.408   4.532   4.894 -0.7843  0.5958 -1.2943
  698MOL0     H96273   3.649   4.424   4.915 -0.6313  1.1198  1.8508
  698MOL0     H96274   4.004   4.571   4.940  0.6472  0.4847 -1.7197
  698MOL0     H96275   3.977   4.455   4.817  1.4965  3.1177 -1.1842
  698MOL0     H96276   3.855   4.450   5.109  1.4902  2.6129 -0.7158
  698MOL0     H96277   3.832   4.318   5.000  2.3074 -1.8450  0.7619
  698MOL0     H96278   4.001   4.249   5.157 -3.1831 -0.6380 -0.7120
  698MOL0     H96279   4.071   4.264   4.991  0.3230 -0.4467 -0.4593
  698MOL0     H96280   4.095   4.505   5.163 -1.3564  0.3801 -1.2869
  698MOL0     H96281   4.194   4.367   5.212 -0.3222 -1.2663 -1.7607
  698MOL0     H96282   4.350   4.609   5.201 -1.0096  0.9961 -1.8372
  698MOL0     H96283   4.699   4.638   5.320  0.2473 -1.7616 -0.9511
  698MOL0     H96284   4.534   4.706   5.333  0.5824  2.1204 -1.2736
  698MOL0     H96285   4.638   4.730   5.187  1.3607 -1.9281 -0.6648
  698MOL0     H96286   5.062   4.458   4.979 -1.9155  2.6006 -1.2775
  698MOL0     H96287   5.281   4.540   4.991 -0.6947 -2.5291  1.3459
  698MOL0     H96288   5.353   4.897   5.216  2.0534  1.5357  0.1342
  698MOL0     H96289   5.447   4.802   5.339 -0.9024  0.6426  0.7068
  698MOL0     H96290   5.558   4.851   5.058 -2.4155 -3.6189 -0.0864
  698MOL0     H96291   5.581   4.972   5.186  2.0938  1.0221 -3.0288
  698MOL0     H96292   5.653   4.674   5.206 -0.1578 -0.9333 -0.2992
  698MOL0     H96293   5.678   4.799   5.335 -0.5383  0.4660  0.3693
  698MOL0     H96294   5.845   4.918   5.203  0.8288  1.1451 -0.7699
  698MOL0     H96295   5.803   4.843   5.055 -0.4513 -0.3904  0.5984
  698MOL0     H96296   5.919   4.713   5.311 -0.3781  1.6501  0.1720
  698MOL0     H96297   5.877   4.615   5.160  1.1978  0.4903 -1.5619
  698MOL0     H96298   6.083   4.843   5.185 -2.4756  0.4206 -0.1037
  698MOL0     H96299   6.026   4.765   5.034 -0.9646  2.1327  0.6017
  698MOL0     H96300   6.106   4.535   5.126 -1.0294 -0.1152 -2.3577
  698MOL0     H96301   6.193   4.634   5.248 -0.8490 -2.2090 -0.0191
  698MOL0     H96302   6.243   4.643   4.947 -2.3320 -0.3981  0.8426
  698MOL0     H96303   6.347   4.568   5.052 -1.9291 -1.7138  2.4889
  698MOL0     H96304   5.194   4.784   5.332  0.9581 -0.2476 -0.5818
  698MOL0     H96305   4.952   4.715   5.314  0.4394  0.3244 -0.5032
  698MOL0     H96306   4.657   4.308   4.976 -1.6913 -2.0383  0.3709
  698MOL0     H96307   4.410   4.310   4.914 -1.6229 -1.0444  0.4688
  698MOL0     H96308   2.484   4.977   4.683  3.0705 -2.9682 -1.2306
  698MOL0     H96309   2.423   5.187   4.805 -0.7981  0.9150  2.8741
  698MOL0     H96310   2.451   5.515   4.966 -1.2304 -0.8506  0.8329
  698MOL0     H96311   2.358   5.744   5.023  0.2608  3.1405  1.4681
  698MOL0     H96312   2.414   5.882   5.445  2.1633 -1.4365  0.1908
  698MOL0     H96313   2.555   5.949   5.369 -0.5954  0.6989  2.6857
  698MOL0     H96314   2.413   6.122   5.253 -1.6166 -2.4515 -1.3047
  698MOL0     H96315   2.430   6.149   5.420 -2.5645  1.8980  0.3314
  698MOL0     H96316   2.188   5.998   5.311  1.1145  0.5409 -0.1788
  698MOL0     H96317   2.214   6.057   5.479  1.2496 -0.3048  0.3890
  698MOL0     H96318   2.064   6.217   5.322 -0.2399  0.9102 -4.2824
  698MOL0     H96319   2.205   6.217   5.221 -1.7236  1.3124 -1.3831
  698MOL0     H96320   2.232   6.495   5.564 -0.0351  0.9815 -0.2657
  698MOL0     H96321   2.572   5.710   5.397 -0.5960 -1.4678  0.0384
  698MOL0     H96322   2.682   5.533   5.463 -0.8557  0.7388 -0.3583
  698MOL0     H96323   2.639   5.381   5.381  1.4317 -0.7286 -0.6853
  698MOL0     H96324   2.785   5.471   5.337 -0.6636 -0.2947  0.1644
  699MOL0     O96325  10.136   5.814   0.060  0.0265  0.9229 -0.0795
  699MOL0     C96326  10.051   5.746   0.114  0.0169  0.1340 -0.5703
  699MOL0     O96327  10.072   5.671   0.229 -0.0312  0.3744 -0.5836
  699MOL0     C96328  10.204   5.675   0.285  0.3076 -0.1196 -0.0153
  699MOL0     C96329  10.244   5.777   0.359  0.0961 -0.4988 -0.2781
  699MOL0     C96330  10.375   5.785   0.411 -0.5695 -0.9175 -1.3396
  699MOL0     C96331  10.467   5.681   0.391 -0.1945  0.2378  0.1865
  699MOL0     O96332  10.601   5.683   0.435  0.6736 -1.0344  0.0641
  699MOL0     C96333  10.636   5.800   0.514 -0.1238  0.6401  0.2105
  699MOL0     C96334  10.779   5.789   0.575  0.6619  0.3960 -0.6480
  699MOL0     C96335  10.880   5.772   0.465 -1.2689  0.3266 -0.0639
  699MOL0     C96336  11.027   5.753   0.519  0.4622 -0.4349 -0.2443
  699MOL0     C96337  11.126   5.729   0.409  0.0375  0.8174  0.1930
  699MOL0     C96338  11.270   5.751   0.462  0.8075  0.9401  0.2237
  699MOL0     C96339  11.365   5.749   0.345  0.3814 -0.1684  0.4157
  699MOL0     C96340  11.369   5.885   0.269 -0.0447  0.1037 -0.7589
  699MOL0     N96341  11.449   5.971   0.353  0.1030 -0.2130  0.6823
  699MOL0     C96342  11.422   6.101   0.394 -1.0043  0.0421  0.3771
  699MOL0     C96343  11.540   6.140   0.459 -0.2835  0.6114  0.6504
  699MOL0     C96344  11.583   6.270   0.506  0.6322 -0.5731 -0.4865
  699MOL0     C96345  11.663   6.340   0.396 -0.2662  0.1954  0.4462
  699MOL0     C96346  11.718   6.477   0.431  0.6741  0.1666 -0.4542
  699MOL0     C96347  11.838   6.528   0.358  0.7127 -0.0051  1.0564
  699MOL0     O96348  11.916   6.602   0.452 -0.2708 -0.7563 -0.4650
  699MOL0     C96349  12.019   6.531   0.512 -0.0458 -0.0944 -0.9006
  699MOL0     C96350  12.019   6.394   0.542 -0.3548  0.2581 -0.1176
  699MOL0     C96351  12.129   6.323   0.596  0.4607 -0.7044 -0.2077
  699MOL0     C96352  12.112   6.174   0.607 -0.2635 -0.4215 -0.0269
  699MOL0     C96353  12.246   6.390   0.628 -0.2158 -0.4139 -0.3505
  699MOL0     C96354  12.364   6.314   0.687 -0.6365 -1.2580 -0.7901
  699MOL0     O96355  12.447   6.393   0.759  0.3716 -0.2450  0.2724
  699MOL0     C96356  12.571   6.344   0.790  0.1294 -0.8497 -0.0982
  699MOL0     C96357  12.590   6.275   0.914 -0.1548 -0.3779  0.7324
  699MOL0     C96358  12.715   6.220   0.952  0.5360  0.9419  0.6333
  699MOL0     C96359  12.826   6.221   0.859  0.2710 -0.1959  0.0878
  699MOL0     O96360  12.939   6.151   0.883 -0.4182  0.6131  0.0078
  699MOL0     C96361  12.986   6.130   1.019 -0.1976 -0.1408 -0.5059
  699MOL0     C96362  13.106   6.037   1.006 -0.4927 -0.5101  0.1063
  699MOL0     C96363  13.142   5.987   1.144 -0.2028  0.4218  0.8374
  699MOL0     C96364  13.267   5.894   1.144 -0.5139  0.5684  0.6798
  699MOL0     C96365  13.388   5.944   1.070  0.4036  0.4447 -0.6961
  699MOL0     C96366  13.502   5.853   1.108 -0.7643 -0.7437 -0.4985
  699MOL0     C96367  13.622   5.873   1.016 -0.2284 -0.1053  0.0981
  699MOL0     C96368  13.608   5.803   0.883 -0.2730 -0.4324 -0.7285
  699MOL0    Cl96369  13.689   5.896   0.751  0.4075  0.2072 -0.2158
  699MOL0     C96370  12.802   6.291   0.741  0.2721 -0.1771 -0.6257
  699MOL0     C96371  12.683   6.359   0.707 -0.1679 -0.3368 -0.5884
  699MOL0     O96372  12.375   6.192   0.680 -0.1347 -0.4630  0.0133
  699MOL0     C96373  12.251   6.532   0.609  0.1815  0.1619  0.4334
  699MOL0     C96374  12.142   6.599   0.558  0.6135 -0.0783  0.7815
  699MOL0     N96375  11.628   6.028   0.448 -0.3923 -0.1818  0.0407
  699MOL0     N96376  11.574   5.934   0.391  0.5416 -0.2064 -0.5715
  699MOL0     C96377  10.420   5.574   0.316  0.0348 -0.3201 -0.1041
  699MOL0     C96378  10.292   5.570   0.259  0.0185  0.2571 -0.5724
  699MOL0     C96379   9.930   5.722   0.039 -0.5269 -0.2008 -0.2557
  699MOL0     C96380   9.824   5.549   0.088  0.5693  0.5984 -0.1488
  699MOL0     C96381   9.659   5.488  -0.025  0.3904  0.5442  0.9283
  699MOL0     C96382   9.600   5.596  -0.189  0.7731 -0.3513 -0.4620
  699MOL0     O96383   9.481   5.564  -0.255  0.3888  0.6337  0.4405
  699MOL0     C96384   9.430   5.643  -0.372 -0.7326  0.4707 -0.0715
  699MOL0     C96385   9.356   5.757  -0.326  0.3139  0.1909 -0.0824
  699MOL0     C96386   9.239   5.727  -0.238  0.0576 -0.1757 -0.8125
  699MOL0     C96387   9.181   5.850  -0.168 -0.0922 -0.4478  0.6448
  699MOL0     C96388   9.048   5.817  -0.112  0.2086  0.0249  0.1081
  699MOL0     C96389   8.937   5.787  -0.082 -0.5603 -0.4835  0.3673
  699MOL0     C96390   9.706   5.773  -0.245  0.4621 -0.1132 -0.2805
  699MOL0     C96391   9.874   5.835  -0.131 -0.1346  0.6638 -0.0267
  699MOL0     C96392   9.944   5.958  -0.177  0.0835 -0.0934 -0.0856
  699MOL0     H96393  10.163   5.847   0.376  0.2982  0.1851 -2.0045
  699MOL0     H96394  10.395   5.867   0.479  0.0985 -2.6453  0.6417
  699MOL0     H96395  10.565   5.809   0.597 -0.8667  2.0002 -0.5493
  699MOL0     H96396  10.626   5.888   0.450  2.2436 -0.4242 -1.7729
  699MOL0     H96397  10.791   5.881   0.633 -1.1375  0.0176  0.4199
  699MOL0     H96398  10.774   5.709   0.650 -1.4001 -0.3054 -1.4527
  699MOL0     H96399  10.858   5.673   0.423  1.0624 -1.6799  3.0496
  699MOL0     H96400  10.872   5.858   0.398 -0.8850  0.1807 -0.3017
  699MOL0     H96401  11.053   5.848   0.568 -0.1047 -0.4749  0.1354
  699MOL0     H96402  11.037   5.680   0.600  0.2042  1.3680  1.4871
  699MOL0     H96403  11.108   5.785   0.318  1.3792  0.7855 -0.1109
  699MOL0     H96404  11.109   5.624   0.385 -1.4368  0.9831  0.4164
  699MOL0     H96405  11.275   5.850   0.508 -0.9746  0.6894  1.0702
  699MOL0     H96406  11.302   5.668   0.526  1.2770 -0.6081 -1.9033
  699MOL0     H96407  11.345   5.671   0.271  0.7791  0.6237 -0.5495
  699MOL0     H96408  11.461   5.719   0.390  0.0259 -2.2154 -0.0663
  699MOL0     H96409  11.410   5.873   0.169  0.5816 -1.0708 -0.3765
  699MOL0     H96410  11.266   5.921   0.258 -0.8520 -1.7379  0.3181
  699MOL0     H96411  11.333   6.162   0.377 -0.5055  0.9798  1.0542
  699MOL0     H96412  11.643   6.258   0.596 -0.0767 -0.4542  0.0154
  699MOL0     H96413  11.490   6.320   0.536  1.0098 -1.2170  1.9324
  699MOL0     H96414  11.741   6.271   0.363 -0.0561 -0.6896  2.6655
  699MOL0     H96415  11.604   6.358   0.306 -3.1074 -0.0966  2.1334
  699MOL0     H96416  11.638   6.551   0.417  0.7740  0.2117 -0.7986
  699MOL0     H96417  11.738   6.491   0.538  0.3578  0.0740 -0.3819
  699MOL0     H96418  11.886   6.441   0.312 -2.0087 -1.0533 -0.0104
  699MOL0     H96419  11.803   6.581   0.269  3.3391  0.7232  0.3760
  699MOL0     H96420  11.933   6.330   0.525  1.8765 -2.6038 -1.5456
  699MOL0     H96421  12.187   6.125   0.544  1.9133 -1.0008  2.8516
  699MOL0     H96422  12.008   6.143   0.588 -0.9224  1.9090 -0.5516
  699MOL0     H96423  12.130   6.136   0.708  1.3701 -1.3208 -0.6253
  699MOL0     H96424  12.502   6.257   0.976  0.2178 -3.1789  0.5643
  699MOL0     H96425  12.722   6.161   1.043 -0.7055  0.4493  0.4223
  699MOL0     H96426  13.012   6.218   1.078 -3.3819 -0.4408  1.6315
  699MOL0     H96427  12.910   6.079   1.080  0.2605 -0.1214  0.0949
  699MOL0     H96428  13.080   5.947   0.948 -2.1749  0.1950 -0.3021
  699MOL0     H96429  13.191   6.091   0.965  0.0449 -0.8878  0.7144
  699MOL0     H96430  13.055   5.931   1.180 -0.9512  1.5007  0.7807
  699MOL0     H96431  13.157   6.069   1.215  1.7612 -0.0364  1.0049
  699MOL0     H96432  13.241   5.806   1.084  1.7242  1.3053 -1.5103
  699MOL0     H96433  13.292   5.863   1.246 -0.5925 -2.5147 -0.1283
  699MOL0     H96434  13.360   5.948   0.964  0.3503 -0.3483 -0.7244
  699MOL0     H96435  13.410   6.048   1.096 -1.2119  0.7405 -0.4654
  699MOL0     H96436  13.469   5.749   1.111 -0.7842 -0.7730  3.3001
  699MOL0     H96437  13.537   5.880   1.209  0.4773  2.3406 -1.6292
  699MOL0     H96438  13.715   5.835   1.058  0.4745  2.5025  1.0986
  699MOL0     H96439  13.628   5.981   1.001  0.6961 -0.0995  0.4199
  699MOL0     H96440  13.502   5.799   0.856 -1.1912  2.6039  1.8024
  699MOL0     H96441  13.638   5.698   0.895 -1.6870 -0.7854 -0.0503
  699MOL0     H96442  12.890   6.288   0.678  2.2660 -1.3320  2.0395
  699MOL0     H96443  12.683   6.409   0.611  2.1054 -2.0367 -1.5664
  699MOL0     H96444  12.336   6.592   0.642  1.4013 -1.1433 -0.1904
  699MOL0     H96445  12.156   6.705   0.538  0.5864  0.6040  3.8223
  699MOL0     H96446  10.471   5.479   0.306  0.5850 -0.5583  3.3964
  699MOL0     H96447  10.254   5.489   0.197  0.0474 -0.4987  0.3781
  699MOL0     H96448   9.852   5.488   0.173 -2.3418  0.1733  0.6265
  699MOL0     H96449   9.602   5.405   0.015  2.1295 -0.5764  1.1957
  699MOL0     H96450   9.519   5.684  -0.420 -0.2272  1.2763  1.4848
  699MOL0     H96451   9.370   5.583  -0.441 -0.7059 -0.2146  0.4780
  699MOL0     H96452   9.322   5.817  -0.412  0.3348  0.3927  0.0489
  699MOL0     H96453   9.415   5.831  -0.271  0.6647  2.4370 -3.1679
  699MOL0     H96454   9.167   5.694  -0.313 -0.4126  0.6001 -0.7064
  699MOL0     H96455   9.262   5.647  -0.168 -2.0038  1.5942  2.0797
  699MOL0     H96456   9.173   5.934  -0.238 -1.9210 -0.4519  0.7910
  699MOL0     H96457   9.243   5.882  -0.084  0.0756 -0.9685  0.7193
  699MOL0     H96458   8.838   5.763  -0.049 -0.5907  0.8661  1.3406
  699MOL0     H96459   9.673   5.825  -0.334 -2.2257  1.1336  1.2960
  699MOL0     H96460  10.033   5.981  -0.117  0.2994  0.7913 -0.7093
  699MOL0     H96461   9.975   5.955  -0.283  1.3147  0.2271  0.2403
  699MOL0     H96462   9.878   6.045  -0.175  0.8234  0.4626  0.7125
  700MOL0     O96463  10.371  10.774   7.439  0.0339 -0.3633 -0.3531
  700MOL0     C96464  10.367  10.867   7.352  0.4068  1.0630 -0.1247
  700MOL0     O96465  10.445  10.881   7.245  0.1083  0.3661  0.1458
  700MOL0     C96466  10.565  10.812   7.243 -1.1508  0.0722  0.1802
  700MOL0     C96467  10.687  10.866   7.292 -0.3323  0.3882 -0.0741
  700MOL0     C96468  10.805  10.782   7.284 -0.2758 -0.2438 -0.7927
  700MOL0     C96469  10.804  10.655   7.226  0.4093 -0.6213  0.6598
  700MOL0     O96470  10.919  10.576   7.197 -0.3313 -0.5898  0.1439
  700MOL0     C96471  11.032  10.598   7.275  0.2212 -0.8547 -0.1427
  700MOL0     C96472  11.142  10.498   7.253  0.3304 -0.1940  0.1085
  700MOL0     C96473  11.228  10.482   7.374  0.1764  0.6062  0.0028
  700MOL0     C96474  11.325  10.362   7.371  0.6531  0.4916  0.5700
  700MOL0     C96475  11.417  10.352   7.500  0.5037 -0.3519  0.5642
  700MOL0     C96476  11.508  10.216   7.496  1.2208  0.7621 -0.0898
  700MOL0     C96477  11.601  10.185   7.614 -1.2877 -0.3247  0.3467
  700MOL0     C96478  11.682  10.309   7.645 -0.4050  0.0033 -0.6224
  700MOL0     N96479  11.802  10.293   7.727 -0.2169 -0.1441  0.4646
  700MOL0     C96480  11.923  10.223   7.687 -0.5588 -0.2011  0.8529
  700MOL0     C96481  11.995  10.221   7.795 -0.2927 -0.0059  0.6336
  700MOL0     C96482  12.134  10.162   7.801 -0.3716  0.1342  0.1782
  700MOL0     C96483  12.246  10.272   7.776  0.1876  1.1361 -0.0291
  700MOL0     C96484  12.246  10.385   7.878 -0.9308 -0.6146 -0.8293
  700MOL0     C96485  12.351  10.494   7.848  0.4229 -0.2726 -0.4352
  700MOL0     O96486  12.311  10.561   7.725  0.2661  0.6440 -0.0661
  700MOL0     C96487  12.394  10.635   7.652  0.0629 -0.5746 -0.0704
  700MOL0     C96488  12.362  10.654   7.514  0.9025 -0.0218  0.7545
  700MOL0     C96489  12.434  10.744   7.439 -0.1705 -1.0107 -0.0288
  700MOL0     C96490  12.396  10.752   7.292  0.8917  0.5279 -0.3409
  700MOL0     C96491  12.548  10.810   7.499 -0.2039 -0.0234 -0.4512
  700MOL0     C96492  12.650  10.890   7.425  0.3057  0.0264 -0.5679
  700MOL0     O96493  12.741  10.963   7.506 -0.5922  0.5656  0.9627
  700MOL0     C96494  12.845  11.021   7.435 -0.1968 -0.0269 -1.2685
  700MOL0     C96495  12.831  11.149   7.386  0.0537 -0.3759  1.2004
  700MOL0     C96496  12.934  11.229   7.332  0.4669 -0.0841 -0.4177
  700MOL0     C96497  13.064  11.180   7.323  0.3993 -0.7083 -0.2911
  700MOL0     O96498  13.165  11.253   7.263  0.1978 -0.0778  0.3041
  700MOL0     C96499  13.290  11.270   7.334 -0.6411  0.0759  0.9075
  700MOL0     C96500  13.403  11.196   7.263  0.2738  0.4764  0.2098
  700MOL0     C96501  13.530  11.186   7.348 -0.7813  0.1303 -0.2621
  700MOL0     C96502  13.518  11.077   7.452  0.2528 -0.0850  0.2377
  700MOL0     C96503  13.637  11.081   7.545  0.0423 -0.5591 -0.1378
  700MOL0     C96504  13.642  10.982   7.669  0.9531  0.2138 -0.6379
  700MOL0     C96505  13.500  10.974   7.747 -0.4366 -0.7677  0.2699
  700MOL0     C96506  13.525  10.936   7.894  0.6451  0.3008  1.0284
  700MOL0    Cl96507  13.596  10.769   7.895  0.3091 -0.0423 -0.0944
  700MOL0     C96508  13.089  11.046   7.368  0.6977  0.0923  0.1737
  700MOL0     C96509  12.974  10.970   7.425 -0.6880 -0.2092 -1.0047
  700MOL0     O96510  12.655  10.885   7.302 -0.5481  0.0856 -0.1558
  700MOL0     C96511  12.578  10.790   7.636 -0.6025 -0.7753 -0.6226
  700MOL0     C96512  12.503  10.696   7.706  0.0972 -0.7579 -0.1165
  700MOL0     N96513  11.935  10.286   7.898 -0.1864  0.6617 -0.1031
  700MOL0     N96514  11.825  10.335   7.854  0.4076  0.3298 -1.0462
  700MOL0     C96515  10.680  10.609   7.179 -0.3477 -0.1701  1.3838
  700MOL0     C96516  10.560  10.686   7.186 -0.1702 -0.4006  0.1482
  700MOL0     C96517  10.246  10.958   7.345 -0.7067  0.7035 -0.1541
  700MOL0     C96518  10.122  10.908   7.395 -0.4450  0.1652  0.1095
  700MOL0     C96519  10.005  10.982   7.386 -0.2668 -0.0963  0.5830
  700MOL0     C96520  10.009  11.106   7.324 -0.0798  0.4159 -1.0301
  700MOL0     O96521   9.907  11.191   7.308 -0.3416 -0.5201  0.9676
  700MOL0     C96522   9.772  11.140   7.313 -0.2779  0.5562  0.6806
  700MOL0     C96523   9.684  11.252   7.270  0.2399  0.4319  0.0859
  700MOL0     C96524   9.533  11.227   7.291 -1.1955  0.1810 -0.1121
  700MOL0     C96525   9.470  11.124   7.204  0.1681  0.0676  0.3734
  700MOL0     C96526   9.450  11.179   7.064 -0.8749 -0.4029 -0.1193
  700MOL0     C96527   9.437  11.226   6.954  0.2031 -0.1022 -0.5699
  700MOL0     C96528  10.130  11.155   7.288 -0.5353  0.0326 -0.3567
  700MOL0     C96529  10.252  11.091   7.294  0.4837 -0.1436  0.7692
  700MOL0     C96530  10.386  11.163   7.256  0.8960 -0.1003 -0.3133
  700MOL0     H96531  10.697  10.964   7.337  1.8403  1.0743 -1.8602
  700MOL0     H96532  10.897  10.822   7.327 -0.9044 -0.1072  0.4974
  700MOL0     H96533  10.988  10.595   7.375 -1.4047 -1.3005 -0.8272
  700MOL0     H96534  11.074  10.696   7.252  0.5624 -1.1291 -0.7126
  700MOL0     H96535  11.099  10.402   7.222  2.1911 -1.7483  2.0649
  700MOL0     H96536  11.202  10.540   7.171 -1.7838  3.5506  0.2515
  700MOL0     H96537  11.275  10.580   7.377  0.1794  0.6880 -1.7092
  700MOL0     H96538  11.163  10.459   7.459  0.6991  2.7986  1.0617
  700MOL0     H96539  11.264  10.271   7.374  0.2635  0.7299 -0.0594
  700MOL0     H96540  11.373  10.358   7.273 -1.4633 -0.5449 -0.4792
  700MOL0     H96541  11.364  10.359   7.596  0.5519  2.3632  0.4624
  700MOL0     H96542  11.489  10.433   7.508 -2.9094  3.5681 -3.3249
  700MOL0     H96543  11.440  10.131   7.490  0.9547  1.0326 -1.0952
  700MOL0     H96544  11.560  10.225   7.400  1.5748 -5.6461 -0.9621
  700MOL0     H96545  11.667  10.101   7.590 -0.4389  0.2001  0.8060
  700MOL0     H96546  11.534  10.154   7.694 -0.7627 -1.5761  0.3281
  700MOL0     H96547  11.707  10.379   7.565  0.2273 -1.3370 -1.6416
  700MOL0     H96548  11.616  10.370   7.707  0.1652  0.7243 -0.7039
  700MOL0     H96549  11.941  10.179   7.589 -1.2527  0.8785  0.2141
  700MOL0     H96550  12.149  10.078   7.733 -2.5947 -0.0766 -0.1209
  700MOL0     H96551  12.150  10.117   7.899  1.2767  1.1435  0.4065
  700MOL0     H96552  12.342  10.223   7.796 -0.2379  0.5648  0.6454
  700MOL0     H96553  12.247  10.295   7.669  0.2908 -1.1388 -0.5661
  700MOL0     H96554  12.147  10.431   7.885  0.9286  3.6963  0.4220
  700MOL0     H96555  12.276  10.347   7.976 -0.6461 -0.1774 -0.7421
  700MOL0     H96556  12.331  10.566   7.928  0.8086  1.9115 -2.2057
  700MOL0     H96557  12.457  10.465   7.852 -0.1452 -2.4996  1.3326
  700MOL0     H96558  12.294  10.583   7.468  0.4305  2.5764 -2.9974
  700MOL0     H96559  12.289  10.730   7.288  1.4521 -2.6210 -0.6046
  700MOL0     H96560  12.443  10.680   7.225 -2.7161  0.8147 -3.6005
  700MOL0     H96561  12.406  10.850   7.244  0.0929  0.7626 -0.0566
  700MOL0     H96562  12.728  11.184   7.391  0.3518  0.3492  2.7170
  700MOL0     H96563  12.914  11.333   7.306 -3.0095 -0.8420 -1.2426
  700MOL0     H96564  13.327  11.371   7.319 -1.1679 -0.1782 -3.3275
  700MOL0     H96565  13.277  11.256   7.442 -0.8826  1.3118  1.0422
  700MOL0     H96566  13.370  11.098   7.229 -0.3682  0.7728 -0.0565
  700MOL0     H96567  13.421  11.253   7.171 -0.3186  0.7287  0.2452
  700MOL0     H96568  13.555  11.282   7.395 -1.1648 -0.3157  0.8900
  700MOL0     H96569  13.616  11.159   7.286  0.5733  3.2197  0.1110
  700MOL0     H96570  13.510  10.983   7.397 -0.2001 -0.4801  0.9540
  700MOL0     H96571  13.425  11.089   7.509 -0.6269 -1.6572 -0.7991
  700MOL0     H96572  13.730  11.063   7.492  0.5503  0.8269  0.2191
  700MOL0     H96573  13.642  11.183   7.586 -0.3110 -0.3287 -0.6520
  700MOL0     H96574  13.713  11.020   7.742 -1.3111  1.3227  1.1173
  700MOL0     H96575  13.667  10.883   7.630 -0.4200 -0.4305  0.0608
  700MOL0     H96576  13.431  10.907   7.695  1.7438 -2.4147 -0.6820
  700MOL0     H96577  13.448  11.070   7.753  2.9987  1.3352 -0.9569
  700MOL0     H96578  13.427  10.937   7.942  0.6757  3.5429  1.2458
  700MOL0     H96579  13.597  11.002   7.942  1.8946 -0.3852  0.1539
  700MOL0     H96580  13.180  10.988   7.356 -0.9584 -3.5160  3.0803
  700MOL0     H96581  12.990  10.875   7.475 -0.5882  0.4809  0.3107
  700MOL0     H96582  12.657  10.842   7.689  0.6639 -4.1043  1.0430
  700MOL0     H96583  12.511  10.688   7.814  0.6935  1.6528  0.0726
  700MOL0     H96584  10.675  10.509   7.135 -1.6055 -0.2031  1.5900
  700MOL0     H96585  10.468  10.661   7.135 -1.7803  1.1136  2.1404
  700MOL0     H96586  10.114  10.814   7.448  0.2735 -0.4365 -0.8269
  700MOL0     H96587   9.917  10.938   7.431 -0.6144  0.3362  0.3398
  700MOL0     H96588   9.764  11.057   7.243  2.1452  1.0155 -0.2385
  700MOL0     H96589   9.751  11.107   7.415  2.0382  1.0686  1.3855
  700MOL0     H96590   9.689  11.282   7.165  0.7364  7.0319  1.5252
  700MOL0     H96591   9.711  11.339   7.330 -0.4156  0.6877  0.0222
  700MOL0     H96592   9.528  11.196   7.396  2.0340  0.5554  0.2730
  700MOL0     H96593   9.475  11.316   7.266  0.9256  0.5947 -4.6156
  700MOL0     H96594   9.373  11.091   7.240  1.6089 -1.9498  2.7707
  700MOL0     H96595   9.534  11.035   7.202  2.0010  1.3321 -0.9975
  700MOL0     H96596   9.416  11.261   6.856 -0.7349 -1.1625 -0.7661
  700MOL0     H96597  10.126  11.255   7.247  2.1754 -0.3782 -1.8447
  700MOL0     H96598  10.420  11.142   7.154  3.7888 -1.9065  0.9097
  700MOL0     H96599  10.372  11.272   7.264  2.1099 -0.0184  1.0993
  700MOL0     H96600  10.466  11.136   7.326 -0.6495  3.3108  3.1833
  701MOL0     O96601   2.617   1.910   8.134  0.1375  0.0433 -0.2172
  701MOL0     C96602   2.645   2.004   8.049  0.5801  0.8657 -0.4498
  701MOL0     O96603   2.776   2.046   8.024  0.2211 -0.0011  0.3756
  701MOL0     C96604   2.877   1.972   8.043 -0.7654  0.0932 -0.7316
  701MOL0     C96605   2.900   1.845   7.988  0.4674  0.5220 -0.6817
  701MOL0     C96606   3.025   1.787   7.990 -0.0320  0.7673 -0.0709
  701MOL0     C96607   3.133   1.837   8.060 -0.8211 -0.0867 -0.0263
  701MOL0     O96608   3.248   1.766   8.053  0.0247 -0.0463  0.6298
  701MOL0     C96609   3.367   1.812   8.111 -0.9959  0.4312 -0.5780
  701MOL0     C96610   3.474   1.813   8.002 -0.2300  0.4084  0.2494
  701MOL0     C96611   3.612   1.838   8.065  0.5564  0.1868 -1.6466
  701MOL0     C96612   3.645   1.728   8.170 -0.3944 -0.4126 -0.8208
  701MOL0     C96613   3.791   1.710   8.215  0.2429 -0.4845 -0.0088
  701MOL0     C96614   3.893   1.656   8.118 -0.3440  0.3072 -0.4420
  701MOL0     C96615   4.046   1.650   8.168 -0.0788  0.2958 -0.1935
  701MOL0     C96616   4.129   1.625   8.044  0.2542 -0.1854  1.0464
  701MOL0     N96617   4.267   1.608   8.087  0.8614  0.2827 -0.3713
  701MOL0     C96618   4.323   1.504   8.152 -0.4744  0.8806  0.1310
  701MOL0     C96619   4.451   1.534   8.175  0.6581  0.0300 -0.3714
  701MOL0     C96620   4.538   1.452   8.264 -0.4526 -0.0264  0.3793
  701MOL0     C96621   4.695   1.474   8.251 -0.8734 -0.1920  0.1723
  701MOL0     C96622   4.744   1.404   8.121 -1.2585  0.2721 -0.6677
  701MOL0     C96623   4.734   1.251   8.120 -0.4525 -0.8972  0.3616
  701MOL0     O96624   4.848   1.207   8.193  0.6591  0.4624 -0.7103
  701MOL0     C96625   4.967   1.182   8.133  0.3643  0.5500  0.0787
  701MOL0     C96626   5.067   1.140   8.219 -0.4335 -0.3822  0.7669
  701MOL0     C96627   5.194   1.104   8.178 -0.1732  0.0964 -0.5112
  701MOL0     C96628   5.282   1.050   8.291 -0.4975  0.0249  0.9120
  701MOL0     C96629   5.225   1.123   8.044 -0.2241  0.4354  0.4420
  701MOL0     C96630   5.362   1.105   7.983  0.4611  0.5871 -0.3714
  701MOL0     O96631   5.369   1.102   7.853 -0.1372 -0.7528 -0.6132
  701MOL0     C96632   5.492   1.076   7.798 -0.2443  0.6689  0.4813
  701MOL0     C96633   5.543   0.942   7.788  0.5773 -0.5001  0.5064
  701MOL0     C96634   5.666   0.914   7.726 -0.2383  0.0885  0.6255
  701MOL0     C96635   5.742   1.013   7.673  0.9380 -0.8093  0.0261
  701MOL0     O96636   5.861   0.987   7.610  0.6020  0.2042 -0.0809
  701MOL0     C96637   5.934   0.874   7.662  0.2321  0.2434 -0.5520
  701MOL0     C96638   6.082   0.886   7.634 -0.2659 -0.8985 -0.3425
  701MOL0     C96639   6.150   0.994   7.716  0.2349 -0.5444  0.0808
  701MOL0     C96640   6.302   1.002   7.682  0.1991 -0.9180  0.0483
  701MOL0     C96641   6.364   1.100   7.788  0.2195 -0.2557 -0.0783
  701MOL0     C96642   6.519   1.116   7.764 -0.3990 -0.4721  0.5224
  701MOL0     C96643   6.584   1.197   7.876  0.1131 -0.7486 -0.6567
  701MOL0     C96644   6.640   1.125   7.992 -0.9479  0.6756  0.1086
  701MOL0    Cl96645   6.678   1.235   8.128  0.1805  0.1728 -0.1592
  701MOL0     C96646   5.691   1.146   7.681 -0.1571  1.4153  0.3974
  701MOL0     C96647   5.569   1.175   7.740 -0.3261 -0.3691 -0.0747
  701MOL0     O96648   5.451   1.079   8.061 -0.2445  0.1789  0.4051
  701MOL0     C96649   5.126   1.158   7.950  0.2543  0.1426 -0.2194
  701MOL0     C96650   4.996   1.180   7.995  0.1550 -0.4411  0.0979
  701MOL0     N96651   4.473   1.662   8.136  0.7650 -0.4341 -0.3225
  701MOL0     N96652   4.361   1.704   8.080 -0.6107  0.6892 -0.0943
  701MOL0     C96653   3.110   1.966   8.114  0.6277  0.2092  0.2542
  701MOL0     C96654   2.989   2.030   8.104 -0.0449 -0.7800 -0.0754
  701MOL0     C96655   2.529   2.082   8.003  0.0701 -0.1274 -0.2048
  701MOL0     C96656   2.545   2.222   8.015  0.7240  0.5874  0.8943
  701MOL0     C96657   2.446   2.311   7.995 -0.1541  0.0391  0.2882
  701MOL0     C96658   2.317   2.264   7.965 -0.1603 -0.1862  0.7897
  701MOL0     O96659   2.219   2.366   7.949 -0.7198  0.2336 -0.3515
  701MOL0     C96660   2.080   2.335   7.920 -0.1738  0.1566 -1.0524
  701MOL0     C96661   2.014   2.328   8.059  0.2304  0.2663 -0.8814
  701MOL0     C96662   1.968   2.456   8.125  0.2089 -0.3897  0.2048
  701MOL0     C96663   2.074   2.564   8.151  0.0743  0.1526  0.5037
  701MOL0     C96664   2.190   2.529   8.229  1.0795  0.3422  0.0322
  701MOL0     C96665   2.289   2.496   8.286 -0.7847 -0.6388 -0.6933
  701MOL0     C96666   2.299   2.128   7.948  0.5034 -0.1967 -0.3383
  701MOL0     C96667   2.401   2.038   7.971  0.9080 -0.0775 -0.7591
  701MOL0     C96668   2.368   1.891   7.967 -0.1058 -0.6578  0.3114
  701MOL0     H96669   2.818   1.795   7.937  2.0135 -2.2764 -0.6689
  701MOL0     H96670   3.053   1.696   7.937  0.0016  2.5926 -3.4523
  701MOL0     H96671   3.381   1.750   8.200 -0.4852  1.7760  0.3159
  701MOL0     H96672   3.366   1.914   8.151 -2.1001  0.5069 -0.7588
  701MOL0     H96673   3.481   1.715   7.954  2.0602  0.1424  0.9881
  701MOL0     H96674   3.452   1.885   7.922  0.1024 -0.3404 -0.5269
  701MOL0     H96675   3.681   1.817   7.983  1.5431 -1.7842 -0.4011
  701MOL0     H96676   3.618   1.937   8.111 -2.7842 -0.1788 -0.1110
  701MOL0     H96677   3.580   1.747   8.256  1.2117  0.1643  0.3132
  701MOL0     H96678   3.620   1.629   8.131  0.9861 -0.7230 -0.9879
  701MOL0     H96679   3.782   1.637   8.296  2.6254 -1.5098 -0.5907
  701MOL0     H96680   3.821   1.808   8.253  1.4158 -0.2079 -1.5346
  701MOL0     H96681   3.864   1.557   8.079  1.4971  0.2353 -1.7573
  701MOL0     H96682   3.891   1.727   8.035  1.1659  3.2639  1.8851
  701MOL0     H96683   4.059   1.568   8.239  0.9082 -1.3831 -2.2158
  701MOL0     H96684   4.076   1.745   8.214  0.5723  0.9089 -1.8145
  701MOL0     H96685   4.084   1.535   7.999  0.3939 -0.4826  1.5002
  701MOL0     H96686   4.115   1.702   7.968 -0.6101 -2.2967 -1.0962
  701MOL0     H96687   4.278   1.412   8.187 -3.0329  1.1672 -2.0569
  701MOL0     H96688   4.505   1.348   8.259  1.4035 -0.6534  0.4190
  701MOL0     H96689   4.514   1.484   8.365  0.1314  2.7014 -0.2532
  701MOL0     H96690   4.702   1.583   8.254 -0.9328 -0.2142  2.5932
  701MOL0     H96691   4.759   1.441   8.333 -0.7745  4.0235  1.9984
  701MOL0     H96692   4.684   1.439   8.036  0.1183 -0.4850 -1.9921
  701MOL0     H96693   4.843   1.441   8.095 -1.2298  0.3257 -0.4836
  701MOL0     H96694   4.644   1.215   8.170 -0.6941  1.1675  1.5545
  701MOL0     H96695   4.730   1.221   8.015  0.8014  0.7499 -0.2110
  701MOL0     H96696   5.040   1.141   8.324 -0.9645  1.2434  0.6444
  701MOL0     H96697   5.227   1.026   8.382 -2.1415  0.3112  0.0222
  701MOL0     H96698   5.360   1.123   8.317 -1.2764  1.2046  0.0559
  701MOL0     H96699   5.332   0.959   8.258 -2.2094 -1.1196  1.4012
  701MOL0     H96700   5.483   0.882   7.855 -2.2400  2.5543  0.9962
  701MOL0     H96701   5.696   0.809   7.721 -2.0785 -0.4269 -0.4711
  701MOL0     H96702   5.922   0.854   7.769  1.4095  1.4962 -0.1629
  701MOL0     H96703   5.908   0.783   7.606  0.2712 -0.7918  1.0403
  701MOL0     H96704   6.122   0.791   7.672 -2.7473 -1.3944  1.2886
  701MOL0     H96705   6.100   0.895   7.527  1.0886  0.4195 -0.0285
  701MOL0     H96706   6.134   0.975   7.823 -0.6555 -1.9191 -0.2621
  701MOL0     H96707   6.114   1.093   7.687  0.4009 -0.2001  1.0045
  701MOL0     H96708   6.334   1.025   7.580  2.1551 -1.4690  0.5061
  701MOL0     H96709   6.324   0.895   7.684 -0.0836 -1.0913 -2.4847
  701MOL0     H96710   6.311   1.194   7.773  0.2047 -0.2570 -0.0327
  701MOL0     H96711   6.346   1.071   7.892 -0.1974 -1.0262 -0.3591
  701MOL0     H96712   6.543   1.164   7.669  0.7952  0.5304  1.3181
  701MOL0     H96713   6.567   1.017   7.767  0.5498 -0.2122 -2.4616
  701MOL0     H96714   6.515   1.267   7.922  1.8384 -0.9784  2.5815
  701MOL0     H96715   6.670   1.250   7.832  0.3567 -0.4746  0.1345
  701MOL0     H96716   6.728   1.071   7.958 -2.2064 -1.0204 -0.5636
  701MOL0     H96717   6.568   1.049   8.025 -1.4298  0.6556 -0.9290
  701MOL0     H96718   5.755   1.221   7.635  2.6295 -0.8407  0.3147
  701MOL0     H96719   5.528   1.276   7.747 -3.1051 -1.4950  1.4957
  701MOL0     H96720   5.138   1.168   7.842 -1.2879  2.7803 -0.2453
  701MOL0     H96721   4.915   1.199   7.926 -0.2971  0.6765  0.8986
  701MOL0     H96722   3.184   2.020   8.172 -0.2184  0.3728  1.2034
  701MOL0     H96723   2.973   2.124   8.157  2.3135 -0.8581  0.9081
  701MOL0     H96724   2.641   2.259   8.051  1.1464 -0.0775  0.4666
  701MOL0     H96725   2.444   2.420   7.998 -0.8164  0.0284  0.5408
  701MOL0     H96726   2.033   2.410   7.856  3.7732 -0.2276 -4.8283
  701MOL0     H96727   2.078   2.236   7.875 -2.0496 -0.6917  0.7199
  701MOL0     H96728   2.082   2.274   8.125 -2.7095 -1.5450  0.8453
  701MOL0     H96729   1.930   2.265   8.029  0.1887 -0.0511 -0.1171
  701MOL0     H96730   1.890   2.502   8.063 -0.6960  0.0226  1.5820
  701MOL0     H96731   1.910   2.417   8.210 -1.7337 -1.7722 -1.6514
  701MOL0     H96732   2.038   2.659   8.193  0.7649  0.5110  0.3055
  701MOL0     H96733   2.108   2.592   8.051 -1.4400  2.1061  0.4597
  701MOL0     H96734   2.367   2.450   8.344 -1.5279 -1.2845 -0.1763
  701MOL0     H96735   2.202   2.090   7.915 -1.5158  2.6407  1.8163
  701MOL0     H96736   2.329   1.861   8.065 -0.4930 -0.2238  0.2981
  701MOL0     H96737   2.281   1.865   7.906 -0.2274 -1.1616  0.6895
  701MOL0     H96738   2.456   1.833   7.941 -0.3631 -1.5801  1.4086
  702MOL0     O96739   4.438   9.449   5.750 -0.2729  0.7753 -0.3476
  702MOL0     C96740   4.343   9.516   5.717 -0.3758  0.0769 -0.1016
  702MOL0     O96741   4.345   9.627   5.627 -0.1386  0.0264  0.1828
  702MOL0     C96742   4.464   9.665   5.582 -0.0902 -0.1126 -0.1218
  702MOL0     C96743   4.463   9.709   5.451  0.4015 -0.2663 -0.0086
  702MOL0     C96744   4.576   9.766   5.392 -0.0090  0.3776  0.7485
  702MOL0     C96745   4.698   9.778   5.466 -0.8339 -0.0548  0.2465
  702MOL0     O96746   4.824   9.829   5.416  0.3891  0.3472  0.2541
  702MOL0     C96747   4.847   9.836   5.277 -0.4353 -0.7576  0.2348
  702MOL0     C96748   4.988   9.878   5.247 -0.4023 -0.9060  0.9540
  702MOL0     C96749   5.048   9.993   5.336  0.6701  0.8245 -0.0762
  702MOL0     C96750   5.195  10.008   5.298  0.0313  1.0922 -0.6515
  702MOL0     C96751   5.257  10.119   5.386 -0.2340 -0.0847  0.3865
  702MOL0     C96752   5.411  10.121   5.386  0.1107 -0.3796  0.5098
  702MOL0     C96753   5.470  10.226   5.474 -0.3914  0.0550 -0.8317
  702MOL0     C96754   5.628  10.237   5.487  0.3230 -0.3049 -0.2893
  702MOL0     N96755   5.692  10.103   5.498 -0.0983  0.4076  1.1146
  702MOL0     C96756   5.714  10.018   5.602 -0.2844  0.1022  0.1823
  702MOL0     C96757   5.778   9.904   5.554 -0.1139 -0.4336  0.8416
  702MOL0     C96758   5.813   9.785   5.637 -0.0427  0.8170 -0.2170
  702MOL0     C96759   5.687   9.692   5.643 -0.0546 -0.4164  0.0382
  702MOL0     C96760   5.709   9.546   5.672  0.6969  0.4086 -0.0373
  702MOL0     C96761   5.778   9.518   5.801 -0.2529  0.7574 -0.5421
  702MOL0     O96762   5.722   9.394   5.856  0.5003  1.1285 -0.3293
  702MOL0     C96763   5.605   9.393   5.926  0.3488  0.1611 -0.1113
  702MOL0     C96764   5.531   9.505   5.944  0.7183 -0.7042  0.5590
  702MOL0     C96765   5.409   9.496   6.013 -0.0983 -0.1063 -0.9134
  702MOL0     C96766   5.319   9.621   6.006  0.2400 -0.5569  0.1208
  702MOL0     C96767   5.362   9.373   6.073 -0.6804 -0.2772  1.3203
  702MOL0     C96768   5.224   9.342   6.121  0.1493  0.2091 -0.0841
  702MOL0     O96769   5.200   9.225   6.178 -0.0258 -0.1799 -0.4482
  702MOL0     C96770   5.081   9.183   6.206  0.5161 -0.4782 -0.3014
  702MOL0     C96771   4.986   9.258   6.279  0.0593 -0.6154 -0.7848
  702MOL0     C96772   4.855   9.203   6.321 -0.4088 -0.1125  0.3819
  702MOL0     C96773   4.815   9.083   6.270  0.2672  0.1923 -0.0027
  702MOL0     O96774   4.691   9.044   6.291 -0.5241  0.3842 -0.9335
  702MOL0     C96775   4.652   8.916   6.246 -0.3246  0.0299 -0.0579
  702MOL0     C96776   4.526   8.889   6.307  0.8252 -0.6224 -0.3035
  702MOL0     C96777   4.419   8.995   6.264  0.1060  0.5552  0.3457
  702MOL0     C96778   4.274   8.936   6.271 -0.2509 -0.2085  0.1772
  702MOL0     C96779   4.165   9.030   6.202 -0.1301 -0.3598  0.0458
  702MOL0     C96780   4.027   8.972   6.219 -0.3179  0.3704 -0.4486
  702MOL0     C96781   3.920   9.063   6.162 -0.2355  0.3686  0.3724
  702MOL0     C96782   3.791   8.986   6.153 -0.3332  0.2162 -0.9519
  702MOL0    Cl96783   3.804   8.845   6.030 -0.0998  0.0911  0.0619
  702MOL0     C96784   4.907   9.006   6.190  0.9293 -0.0754  0.5259
  702MOL0     C96785   5.036   9.056   6.165 -0.4287 -0.3680  0.5361
  702MOL0     O96786   5.137   9.429   6.103  0.2184 -0.0072 -0.3779
  702MOL0     C96787   5.451   9.266   6.062 -0.0441  0.0023  0.6031
  702MOL0     C96788   5.569   9.271   5.994 -0.0724  0.2317  0.4921
  702MOL0     N96789   5.807   9.931   5.419  0.5431 -0.4020 -0.3314
  702MOL0     N96790   5.761  10.047   5.393  0.0588  0.6295  0.1760
  702MOL0     C96791   4.691   9.742   5.602 -0.1464 -0.2128 -0.3337
  702MOL0     C96792   4.577   9.694   5.660 -0.1342  0.2646 -0.4680
  702MOL0     C96793   4.211   9.492   5.790  0.0631  0.2317  0.3262
  702MOL0     C96794   4.117   9.585   5.782 -0.0968  0.3387  0.1978
  702MOL0     C96795   3.998   9.570   5.844  0.0454 -0.1758 -0.2013
  702MOL0     C96796   3.975   9.466   5.932 -0.0661  0.7724  0.1087
  702MOL0     O96797   3.855   9.435   5.998 -0.4337  0.7537 -0.2530
  702MOL0     C96798   3.758   9.535   5.997  0.7131 -0.5739  0.2052
  702MOL0     C96799   3.692   9.533   6.135 -0.5262 -0.5768  0.6710
  702MOL0     C96800   3.601   9.408   6.163  0.0028 -0.0515  0.6155
  702MOL0     C96801   3.501   9.372   6.052  0.2581  0.3483  0.3559
  702MOL0     C96802   3.408   9.264   6.085  0.3389  0.0541 -0.2868
  702MOL0     C96803   3.335   9.176   6.127 -0.3691  0.7051 -0.0968
  702MOL0     C96804   4.073   9.368   5.945 -0.6506 -1.0251  0.4539
  702MOL0     C96805   4.194   9.377   5.869  0.8385 -0.8843  0.2650
  702MOL0     C96806   4.286   9.256   5.869  0.2735  0.1319 -0.2594
  702MOL0     H96807   4.370   9.706   5.395 -0.8414  2.6939  1.6780
  702MOL0     H96808   4.579   9.788   5.286 -0.8724 -1.5147  0.2934
  702MOL0     H96809   4.783   9.910   5.228  0.8247 -0.0431 -0.3938
  702MOL0     H96810   4.831   9.733   5.244 -1.6155 -0.7785  0.8177
  702MOL0     H96811   5.056   9.793   5.254 -0.1985 -1.0508 -1.7184
  702MOL0     H96812   4.986   9.905   5.141 -0.4512  0.4903  1.2934
  702MOL0     H96813   4.979  10.072   5.305 -0.3054  0.1638  0.3621
  702MOL0     H96814   5.045   9.971   5.443  0.8078 -1.9027 -0.5635
  702MOL0     H96815   5.253   9.916   5.311  0.6200  1.6065  0.5734
  702MOL0     H96816   5.200  10.029   5.191 -0.5387  1.4697 -0.6127
  702MOL0     H96817   5.230  10.106   5.491  1.2057  0.0790  0.8058
  702MOL0     H96818   5.233  10.224   5.367  3.0967  1.0204  1.6093
  702MOL0     H96819   5.453  10.029   5.428 -0.0869 -0.3553  0.7609
  702MOL0     H96820   5.429  10.131   5.279 -0.5475  0.4908  0.4681
  702MOL0     H96821   5.424  10.221   5.574  1.4406 -1.9340 -0.0190
  702MOL0     H96822   5.438  10.322   5.432 -2.8908  0.6151  2.0046
  702MOL0     H96823   5.665  10.292   5.400  2.1732 -1.6889 -0.4220
  702MOL0     H96824   5.648  10.297   5.576  1.2255 -2.6506  1.1754
  702MOL0     H96825   5.675  10.015   5.704  0.0835  2.1710  0.4256
  702MOL0     H96826   5.851   9.809   5.736 -0.2296  2.9394 -0.6189
  702MOL0     H96827   5.894   9.737   5.581  0.3918  1.5489 -0.2224
  702MOL0     H96828   5.614   9.723   5.718  0.4769 -1.4431  1.0156
  702MOL0     H96829   5.633   9.716   5.551 -1.3047 -0.1909  0.8131
  702MOL0     H96830   5.612   9.495   5.672 -0.3774  2.2781  1.6571
  702MOL0     H96831   5.763   9.501   5.589  2.7646  1.4574  0.6754
  702MOL0     H96832   5.887   9.508   5.789 -0.2618  1.5709 -1.3864
  702MOL0     H96833   5.766   9.601   5.871 -0.6346  1.0631 -0.9710
  702MOL0     H96834   5.558   9.600   5.901  2.2884 -0.6652  1.5689
  702MOL0     H96835   5.264   9.641   6.098  1.3415  2.5770  0.2033
  702MOL0     H96836   5.249   9.604   5.923  0.9782  1.0387 -0.8808
  702MOL0     H96837   5.380   9.711   5.995 -1.6143  0.9322  1.4014
  702MOL0     H96838   5.009   9.355   6.322 -1.4422 -0.7973  0.5409
  702MOL0     H96839   4.796   9.270   6.383 -0.5545 -0.8853  1.0873
  702MOL0     H96840   4.652   8.917   6.137 -2.0811  4.4469 -0.2248
  702MOL0     H96841   4.710   8.836   6.293  4.6893  2.3020 -1.6980
  702MOL0     H96842   4.498   8.787   6.279  2.5584 -0.8704 -1.2768
  702MOL0     H96843   4.542   8.894   6.415 -0.2377 -4.9771  0.2372
  702MOL0     H96844   4.435   9.023   6.160 -2.1040 -1.1535 -0.5403
  702MOL0     H96845   4.425   9.089   6.321  0.2160 -0.4314  2.0197
  702MOL0     H96846   4.251   8.916   6.377 -1.3707  4.0477  0.9058
  702MOL0     H96847   4.283   8.838   6.223  1.0931 -0.2030  0.3586
  702MOL0     H96848   4.164   9.122   6.261  3.3270 -0.9189  1.1762
  702MOL0     H96849   4.200   9.052   6.100  1.0522  0.6683  0.6570
  702MOL0     H96850   4.027   8.952   6.326  4.2962  1.7004  0.0008
  702MOL0     H96851   4.026   8.871   6.176  3.6966 -0.6397  1.3972
  702MOL0     H96852   3.951   9.085   6.060 -1.2852 -1.7607 -0.4810
  702MOL0     H96853   3.910   9.156   6.220  1.2277 -0.5639  2.2295
  702MOL0     H96854   3.702   9.048   6.137 -1.5493 -0.5429  2.1073
  702MOL0     H96855   3.780   8.936   6.250 -0.5548  0.7126 -0.7135
  702MOL0     H96856   4.882   8.917   6.133  1.4914  1.1268 -1.7262
  702MOL0     H96857   5.109   8.996   6.113 -1.2403  1.3908 -2.9185
  702MOL0     H96858   5.429   9.180   6.125 -0.5245  0.3092  0.8519
  702MOL0     H96859   5.622   9.176   5.987  0.3859  0.4255  1.2069
  702MOL0     H96860   4.780   9.735   5.665 -0.9026 -5.1133  0.6077
  702MOL0     H96861   4.565   9.678   5.766 -0.3178  1.9057 -0.2184
  702MOL0     H96862   4.134   9.679   5.731  1.4481  0.1636  0.3527
  702MOL0     H96863   3.926   9.650   5.831 -2.2266 -2.1067  0.0729
  702MOL0     H96864   3.813   9.627   5.975 -0.4106 -0.1378 -0.9231
  702MOL0     H96865   3.686   9.531   5.914  1.9840  0.6298 -1.0254
  702MOL0     H96866   3.629   9.622   6.149 -1.0774 -0.7120 -0.7177
  702MOL0     H96867   3.776   9.537   6.205  1.7161 -2.7543 -1.6880
  702MOL0     H96868   3.659   9.320   6.191 -0.8531  0.1433  3.2576
  702MOL0     H96869   3.540   9.444   6.246 -2.3043  0.2482 -1.1149
  702MOL0     H96870   3.537   9.342   5.953 -1.8582 -1.2971  0.0267
  702MOL0     H96871   3.455   9.469   6.030 -0.7410 -0.4195 -1.0616
  702MOL0     H96872   3.269   9.107   6.174  0.3022  0.0516 -0.0925
  702MOL0     H96873   4.043   9.280   6.001  2.3197 -1.4153  1.6147
  702MOL0     H96874   4.237   9.178   5.928 -1.8127  1.3841 -0.2506
  702MOL0     H96875   4.309   9.217   5.769 -0.6725  0.7205 -0.7191
  702MOL0     H96876   4.373   9.284   5.930 -0.0896  1.9097 -0.4984
  703MOL0     O96877   6.062   2.569   3.577  0.8251 -0.1381 -0.7964
  703MOL0     C96878   6.045   2.557   3.695 -0.9862 -0.3127 -0.7261
  703MOL0     O96879   6.109   2.473   3.772 -0.7581  0.3362 -0.3199
  703MOL0     C96880   6.234   2.425   3.736 -0.7393  0.3667  0.2667
  703MOL0     C96881   6.267   2.297   3.790 -0.3114  0.0201  0.0879
  703MOL0     C96882   6.386   2.245   3.763 -0.0574 -0.3589 -0.1966
  703MOL0     C96883   6.485   2.314   3.695 -0.1793  0.4023  0.3380
  703MOL0     O96884   6.613   2.275   3.678  0.1267  0.4224 -0.3899
  703MOL0     C96885   6.678   2.201   3.780  0.2538  1.3534 -0.6589
  703MOL0     C96886   6.818   2.171   3.751  0.1353 -1.1867 -0.5259
  703MOL0     C96887   6.910   2.291   3.754  0.1385  0.3550  1.0319
  703MOL0     C96888   7.044   2.261   3.684 -0.6311 -0.2732 -0.3316
  703MOL0     C96889   7.161   2.370   3.692  0.0914  0.1419 -0.1311
  703MOL0     C96890   7.214   2.385   3.832 -0.3174 -0.5559  0.4678
  703MOL0     C96891   7.336   2.476   3.837 -0.2210  0.1316  0.0607
  703MOL0     C96892   7.438   2.441   3.729 -0.3147 -0.7609  0.2160
  703MOL0     N96893   7.575   2.496   3.750 -0.2104  1.0614 -0.7157
  703MOL0     C96894   7.633   2.616   3.704  0.1047  0.2176 -1.3030
  703MOL0     C96895   7.759   2.612   3.757  0.0897  0.0019 -0.3334
  703MOL0     C96896   7.861   2.716   3.756 -0.2008 -0.0915 -0.5347
  703MOL0     C96897   7.797   2.861   3.750  0.2832 -0.3061  0.0834
  703MOL0     C96898   7.895   2.977   3.788 -0.2424 -0.1813  0.3183
  703MOL0     C96899   8.004   3.001   3.688  0.2686  0.1842 -0.0227
  703MOL0     O96900   8.079   3.127   3.728  1.1057  0.8836 -0.3188
  703MOL0     C96901   8.164   3.127   3.836  0.0332  0.5837  0.7690
  703MOL0     C96902   8.201   3.020   3.912 -0.7597  0.5541 -1.0498
  703MOL0     C96903   8.295   3.036   4.012  0.2269  0.1161  0.4625
  703MOL0     C96904   8.337   2.907   4.092  0.2858  0.2022 -0.1364
  703MOL0     C96905   8.345   3.163   4.049 -1.4825 -0.0521 -0.3069
  703MOL0     C96906   8.439   3.188   4.155 -0.5058 -0.0503 -0.0505
  703MOL0     O96907   8.433   3.310   4.214 -0.3481 -0.5608  1.0144
  703MOL0     C96908   8.532   3.334   4.304  0.5767  0.0552 -0.2199
  703MOL0     C96909   8.498   3.351   4.438 -0.2299  0.3480 -0.0511
  703MOL0     C96910   8.593   3.377   4.540  0.0892  0.1206 -0.2701
  703MOL0     C96911   8.728   3.380   4.495 -0.5552  0.6017  0.7380
  703MOL0     O96912   8.845   3.384   4.571  1.0620 -0.1464 -0.4317
  703MOL0     C96913   8.828   3.392   4.718 -0.7301 -0.5546  0.2539
  703MOL0     C96914   8.961   3.381   4.802  0.6824  0.2319  0.5654
  703MOL0     C96915   9.065   3.482   4.757  0.3532  0.1787  0.1667
  703MOL0     C96916   9.165   3.503   4.866 -0.0275  0.8395 -0.4372
  703MOL0     C96917   9.282   3.594   4.836 -0.2396 -0.1081 -0.4405
  703MOL0     C96918   9.377   3.602   4.967 -0.4797  0.5735  0.0859
  703MOL0     C96919   9.500   3.692   4.960 -0.2968  0.1131  0.2669
  703MOL0     C96920   9.575   3.689   5.095 -0.3032 -0.0029 -0.0655
  703MOL0    Cl96921   9.739   3.780   5.079 -0.5098 -0.2108 -0.0322
  703MOL0     C96922   8.766   3.363   4.360 -0.1407 -0.2264  0.2674
  703MOL0     C96923   8.663   3.348   4.266 -0.2079  0.3478 -0.6365
  703MOL0     O96924   8.521   3.099   4.186 -0.1269 -0.2361  0.0376
  703MOL0     C96925   8.305   3.276   3.976  0.5118 -0.1378  0.3600
  703MOL0     C96926   8.216   3.254   3.864 -0.0104  0.5696 -0.9809
  703MOL0     N96927   7.779   2.501   3.835  0.2848  0.9737 -0.9877
  703MOL0     N96928   7.667   2.431   3.828  0.1544  0.1646 -0.3560
  703MOL0     C96929   6.450   2.436   3.637 -0.2751  0.7486  0.2813
  703MOL0     C96930   6.327   2.495   3.653 -0.1656 -0.5940  0.3139
  703MOL0     C96931   5.937   2.630   3.761 -1.1316 -0.2478  0.1159
  703MOL0     C96932   5.951   2.691   3.875  0.0456 -0.0726 -0.0729
  703MOL0     C96933   5.851   2.764   3.948  0.3884  0.1036 -0.0838
  703MOL0     C96934   5.727   2.773   3.880  0.4437 -0.6045 -0.3344
  703MOL0     O96935   5.627   2.839   3.952  0.2865 -0.6409 -0.5772
  703MOL0     C96936   5.502   2.845   3.882  0.3846 -0.6256  0.0996
  703MOL0     C96937   5.401   2.948   3.933 -0.1271  0.7250 -0.4946
  703MOL0     C96938   5.451   3.027   4.055 -0.3192  0.9241 -0.0692
  703MOL0     C96939   5.342   3.107   4.128 -0.6913  0.6618  0.1533
  703MOL0     C96940   5.296   3.222   4.043 -0.2926  0.6371  0.2172
  703MOL0     C96941   5.260   3.325   3.987 -0.4451 -0.5744 -0.0119
  703MOL0     C96942   5.710   2.713   3.750 -0.5429  1.3603 -0.5027
  703MOL0     C96943   5.811   2.635   3.697  0.0896 -0.8533  0.2781
  703MOL0     C96944   5.782   2.553   3.576 -0.2175  0.2528  1.1506
  703MOL0     H96945   6.194   2.246   3.851 -1.7642 -0.2064 -1.7578
  703MOL0     H96946   6.416   2.150   3.806 -0.9449 -0.9393 -0.8242
  703MOL0     H96947   6.632   2.102   3.776  1.1325  0.8982  0.1745
  703MOL0     H96948   6.677   2.251   3.877 -2.0224  1.1434 -0.5205
  703MOL0     H96949   6.863   2.097   3.818  0.1198  0.4445  1.4149
  703MOL0     H96950   6.808   2.136   3.648 -0.2744  0.9629 -1.2648
  703MOL0     H96951   6.863   2.361   3.683  0.0586 -1.6103 -0.9638
  703MOL0     H96952   6.930   2.338   3.850  0.6297  1.1355  0.5577
  703MOL0     H96953   7.090   2.169   3.721 -0.1599  1.0814  2.8391
  703MOL0     H96954   7.031   2.248   3.577  4.5361  0.5808 -1.3069
  703MOL0     H96955   7.122   2.466   3.658  0.0030 -0.6326 -2.3722
  703MOL0     H96956   7.247   2.341   3.630  0.2612 -2.9905  1.3826
  703MOL0     H96957   7.129   2.421   3.890 -0.2239  1.5475 -0.5838
  703MOL0     H96958   7.257   2.288   3.861 -3.2055 -1.5413  1.7876
  703MOL0     H96959   7.377   2.464   3.938  0.3591 -2.7352 -0.4544
  703MOL0     H96960   7.299   2.578   3.820  1.2060  1.4466  3.7162
  703MOL0     H96961   7.450   2.332   3.730 -0.6712 -0.8396 -1.5439
  703MOL0     H96962   7.406   2.479   3.631  2.6216 -0.2945 -0.6626
  703MOL0     H96963   7.577   2.692   3.651 -0.7190  1.6854  1.5013
  703MOL0     H96964   7.924   2.698   3.669 -0.3643 -0.0801 -0.6559
  703MOL0     H96965   7.916   2.718   3.851 -1.6815  0.7060  0.3568
  703MOL0     H96966   7.749   2.883   3.654  0.8156 -1.0961 -0.3731
  703MOL0     H96967   7.719   2.874   3.825 -0.0191  2.4852 -0.5935
  703MOL0     H96968   7.847   3.075   3.796 -0.8394 -0.3644 -0.8600
  703MOL0     H96969   7.940   2.955   3.886 -0.4259 -1.3954  0.1333
  703MOL0     H96970   8.069   2.912   3.690 -0.2954 -0.2661 -0.9830
  703MOL0     H96971   7.971   3.009   3.584 -0.6955 -3.0474 -0.0957
  703MOL0     H96972   8.156   2.924   3.886 -0.3682 -0.4546  1.6804
  703MOL0     H96973   8.301   2.818   4.040  1.2302  0.7715 -1.8475
  703MOL0     H96974   8.296   2.911   4.193  1.0006  0.4509  0.1549
  703MOL0     H96975   8.446   2.901   4.101  0.2641  1.8507  2.0739
  703MOL0     H96976   8.395   3.341   4.469  0.4494  0.7551  2.5305
  703MOL0     H96977   8.559   3.369   4.643 -0.9529 -2.9481 -0.7404
  703MOL0     H96978   8.775   3.486   4.735  1.3507  0.8549 -0.5863
  703MOL0     H96979   8.770   3.309   4.758 -4.3908  1.8938  0.4916
  703MOL0     H96980   8.941   3.390   4.909 -1.4425  1.6584  0.1223
  703MOL0     H96981   8.997   3.279   4.790  0.5309 -0.0218  2.1436
  703MOL0     H96982   9.019   3.580   4.743 -1.0406 -0.3262  0.9815
  703MOL0     H96983   9.111   3.444   4.666 -1.8667 -3.0560  0.2545
  703MOL0     H96984   9.204   3.402   4.884  1.4677  1.5134  0.2637
  703MOL0     H96985   9.121   3.541   4.958  0.9905 -1.0862  0.9260
  703MOL0     H96986   9.345   3.571   4.750  0.9807 -1.3277  0.7314
  703MOL0     H96987   9.240   3.692   4.812 -1.9467 -0.8308 -0.5042
  703MOL0     H96988   9.414   3.500   4.982 -2.0260  0.2685  2.3150
  703MOL0     H96989   9.324   3.634   5.057  1.0867  0.1839  1.1842
  703MOL0     H96990   9.484   3.798   4.937  1.5353  0.4009  0.1412
  703MOL0     H96991   9.573   3.646   4.892  0.9951 -0.2520  1.8421
  703MOL0     H96992   9.599   3.587   5.124  1.7333  0.7698  1.2166
  703MOL0     H96993   9.511   3.735   5.170 -2.0116 -0.1940 -1.3353
  703MOL0     H96994   8.868   3.370   4.324  0.7003  1.0533  2.7004
  703MOL0     H96995   8.692   3.331   4.163 -2.0270 -4.6780 -0.6112
  703MOL0     H96996   8.349   3.375   3.985  1.8676 -0.4509 -2.0292
  703MOL0     H96997   8.190   3.335   3.797  0.9016  1.6084 -0.1297
  703MOL0     H96998   6.529   2.483   3.580 -1.1807 -1.3357 -2.9598
  703MOL0     H96999   6.307   2.590   3.604  3.1941  0.5260  0.8148
  703MOL0     H97000   6.037   2.661   3.935  1.0850  1.0434 -0.9581
  703MOL0     H97001   5.870   2.808   4.046 -0.1929 -0.2121  0.1798
  703MOL0     H97002   5.525   2.884   3.782 -2.3154  2.1354  0.4044
  703MOL0     H97003   5.460   2.744   3.888  1.5655 -1.2977 -2.0483
  703MOL0     H97004   5.301   2.905   3.944 -0.1056  0.5749 -0.8758
  703MOL0     H97005   5.387   3.017   3.850 -3.0194 -0.0534 -0.7544
  703MOL0     H97006   5.485   2.956   4.131 -3.0677 -1.4154 -0.8251
  703MOL0     H97007   5.534   3.094   4.033  0.4478 -0.1443 -0.5334
  703MOL0     H97008   5.387   3.157   4.215 -0.3394  0.2472  0.2126
  703MOL0     H97009   5.259   3.039   4.146  0.4667 -0.9840 -0.5705
  703MOL0     H97010   5.228   3.413   3.935  0.6494  0.8552  1.6294
  703MOL0     H97011   5.615   2.709   3.698 -0.2457 -0.0539 -0.9808
  703MOL0     H97012   5.826   2.452   3.577 -1.5104 -0.4063 -1.0263
  703MOL0     H97013   5.674   2.548   3.556  0.2474 -0.1289 -1.7308
  703MOL0     H97014   5.825   2.613   3.496  0.5219 -2.7160 -0.8667
  704MOL0     O97015   0.728   3.087   9.732  0.4018  0.7899  0.2360
  704MOL0     C97016   0.632   3.022   9.787 -0.4173  0.5783 -0.0416
  704MOL0     O97017   0.635   2.965   9.912  0.7431 -0.8367 -0.3627
  704MOL0     C97018   0.741   2.949   9.991 -1.0940 -0.8691  0.3763
  704MOL0     C97019   0.726   2.941  10.128  0.0235  0.2145 -0.1305
  704MOL0     C97020   0.834   2.909  10.211 -0.2342  0.4094 -0.0589
  704MOL0     C97021   0.970   2.904  10.169  0.2834 -0.0747  0.6620
  704MOL0     O97022   1.075   2.860  10.247 -0.2404 -0.1557 -0.1053
  704MOL0     C97023   1.071   2.889  10.390  0.3203  0.9071  0.4225
  704MOL0     C97024   1.052   3.030  10.424 -0.0994 -0.2989  0.2249
  704MOL0     C97025   1.156   3.115  10.366  0.3112  0.0608  0.0695
  704MOL0     C97026   1.125   3.266  10.392  0.2133  0.1715 -0.2436
  704MOL0     C97027   1.253   3.348  10.401 -0.6634 -0.2991 -0.6670
  704MOL0     C97028   1.224   3.487  10.425  0.8011 -0.2482 -0.2143
  704MOL0     C97029   1.345   3.572  10.426 -0.2290  0.2595  0.9713
  704MOL0     C97030   1.402   3.585  10.572 -0.5234  0.0390 -1.1070
  704MOL0     N97031   1.538   3.655  10.570  0.1381 -0.4877 -0.0892
  704MOL0     C97032   1.553   3.797  10.558  0.5724 -1.1301 -0.8048
  704MOL0     C97033   1.686   3.797  10.521  0.2254  0.4159 -0.2569
  704MOL0     C97034   1.754   3.924  10.504 -0.0964  0.0847 -0.6664
  704MOL0     C97035   1.740   3.976  10.364  0.5431 -0.2932 -0.1391
  704MOL0     C97036   1.815   4.115  10.343  0.5046  0.2262 -0.8247
  704MOL0     C97037   1.810   4.164  10.192 -0.5281  0.1868 -0.3309
  704MOL0     O97038   1.905   4.099  10.097  0.4366 -0.0174 -0.4175
  704MOL0     C97039   2.040   4.117  10.105 -0.6938 -0.7909  0.1988
  704MOL0     C97040   2.124   4.031  10.040  0.7856  0.1464 -0.0131
  704MOL0     C97041   2.264   4.035  10.042 -0.4775 -0.0559 -0.4811
  704MOL0     C97042   2.336   3.941   9.954  0.4345 -0.1334 -0.3757
  704MOL0     C97043   2.330   4.135  10.118 -0.0034 -0.3376 -0.3348
  704MOL0     C97044   2.480   4.152  10.125  0.1285  1.1048 -0.6320
  704MOL0     O97045   2.552   4.169  10.246  0.4089  0.3588 -0.2445
  704MOL0     C97046   2.687   4.196  10.237 -0.1757  0.4831 -0.3787
  704MOL0     C97047   2.776   4.126  10.318  0.5111  0.2164  0.5350
  704MOL0     C97048   2.914   4.148  10.312  0.0785  0.1986  0.1882
  704MOL0     C97049   2.963   4.235  10.216  0.5434  0.6694  0.0881
  704MOL0     O97050   3.095   4.237  10.201 -0.2629 -0.7681 -0.8776
  704MOL0     C97051   3.161   4.361  10.177  0.4062  0.0045  0.7417
  704MOL0     C97052   3.309   4.350  10.188 -0.2315  0.5071 -0.1081
  704MOL0     C97053   3.354   4.331  10.335 -0.1201  0.4985 -0.1031
  704MOL0     C97054   3.374   4.465  10.414  0.0659  0.0391 -0.4900
  704MOL0     C97055   3.417   4.450  10.553 -0.0635 -0.6940 -0.2182
  704MOL0     C97056   3.571   4.428  10.559  1.0807  0.1624 -0.6931
  704MOL0     C97057   3.607   4.363  10.693  0.1502 -0.3075 -0.1785
  704MOL0     C97058   3.751   4.383  10.746  0.4679  0.0001 -0.3668
  704MOL0    Cl97059   3.788   4.553  10.749  0.0011 -0.1170 -0.2115
  704MOL0     C97060   2.881   4.323  10.145 -0.3976 -0.0871  0.5553
  704MOL0     C97061   2.742   4.302  10.154  0.8043  0.0440 -0.0283
  704MOL0     O97062   2.533   4.141  10.014 -0.1170  0.1106  0.1542
  704MOL0     C97063   2.249   4.228  10.198 -0.5845 -0.0936  0.1438
  704MOL0     C97064   2.109   4.217  10.182 -0.2812 -0.1925 -0.3179
  704MOL0     N97065   1.746   3.672  10.505  0.5401 -0.9632 -0.5841
  704MOL0     N97066   1.652   3.592  10.527  0.4512 -0.3595  0.0101
  704MOL0     C97067   0.985   2.918  10.025 -0.7115 -0.2942 -0.8594
  704MOL0     C97068   0.877   2.934   9.935 -0.4411  0.2772 -0.6105
  704MOL0     C97069   0.500   3.012   9.722  1.3104 -0.4468 -0.1922
  704MOL0     C97070   0.498   3.055   9.589  0.6260 -0.9157 -0.1151
  704MOL0     C97071   0.382   3.072   9.515  0.0474 -1.5304 -1.0075
  704MOL0     C97072   0.263   3.063   9.579  0.2630  0.4438  1.2930
  704MOL0     O97073   0.141   3.074   9.511 -0.3436  0.3327 -0.1102
  704MOL0     C97074   0.136   3.082   9.370 -0.1286  0.3967  0.2134
  704MOL0     C97075  -0.003   3.075   9.318  0.3603 -1.1207  0.1899
  704MOL0     C97076  -0.092   3.179   9.380  0.6817 -0.2600  0.0497
  704MOL0     C97077  -0.223   3.176   9.304 -0.1780 -0.3365  0.2430
  704MOL0     C97078  -0.328   3.235   9.386 -0.4190 -0.6706  0.4448
  704MOL0     C97079  -0.408   3.292   9.451  1.1714 -0.3910  0.2075
  704MOL0     C97080   0.258   3.031   9.708 -0.4072 -0.0060 -0.4650
  704MOL0     C97081   0.373   3.011   9.790 -0.1465 -0.2241 -0.0110
  704MOL0     C97082   0.354   3.007   9.938 -0.0723 -0.5375  0.3552
  704MOL0     H97083   0.627   2.954  10.172 -0.1760 -1.3118 -0.0576
  704MOL0     H97084   0.813   2.884  10.314 -0.6019  0.5683 -0.0924
  704MOL0     H97085   1.161   2.845  10.435  0.7355  2.3078  1.0190
  704MOL0     H97086   0.990   2.834  10.438 -0.0991 -0.5637 -1.8241
  704MOL0     H97087   0.951   3.061  10.394 -0.4116 -1.2803  0.2209
  704MOL0     H97088   1.060   3.047  10.532  0.0825 -0.4519  0.2347
  704MOL0     H97089   1.243   3.081  10.423  0.2376 -4.2268 -1.9917
  704MOL0     H97090   1.182   3.086  10.264  1.3780 -1.1392  0.6623
  704MOL0     H97091   1.056   3.303  10.314  1.4417  1.4963 -0.7405
  704MOL0     H97092   1.075   3.274  10.489  1.1020 -0.7368  0.3051
  704MOL0     H97093   1.321   3.326  10.318 -0.4449 -0.3962 -0.4630
  704MOL0     H97094   1.310   3.308  10.486 -0.6625  1.8073  0.3719
  704MOL0     H97095   1.162   3.533  10.347  2.1614  1.2165 -0.4967
  704MOL0     H97096   1.179   3.491  10.525  0.9452  0.4697 -0.1708
  704MOL0     H97097   1.329   3.674  10.391  0.2107  1.0576  2.9755
  704MOL0     H97098   1.426   3.518  10.376  0.9819  1.8460  1.1414
  704MOL0     H97099   1.327   3.620  10.644  0.7150 -1.4520  1.0021
  704MOL0     H97100   1.402   3.480  10.603 -1.0050  0.0885 -0.9185
  704MOL0     H97101   1.484   3.879  10.570 -1.7938 -2.7015 -2.6877
  704MOL0     H97102   1.861   3.912  10.524 -0.5120 -2.5758  0.3464
  704MOL0     H97103   1.715   4.000  10.573 -0.5405  0.7523 -1.6408
  704MOL0     H97104   1.793   3.898  10.309  0.4128  0.0840 -0.8175
  704MOL0     H97105   1.631   3.970  10.354  0.3442 -2.3727  2.3473
  704MOL0     H97106   1.765   4.187  10.407 -0.6655 -2.5838  1.6073
  704MOL0     H97107   1.917   4.104  10.381  0.8380  1.4395 -1.3352
  704MOL0     H97108   1.706   4.148  10.161 -0.7066  1.2555 -0.3181
  704MOL0     H97109   1.819   4.273  10.187 -0.8981  0.2359  0.0502
  704MOL0     H97110   2.081   3.948   9.985  2.5137 -0.7975 -0.0055
  704MOL0     H97111   2.395   3.981   9.871  1.0710  1.8575  0.9784
  704MOL0     H97112   2.260   3.875   9.910  0.2950 -0.9745  1.0703
  704MOL0     H97113   2.390   3.866  10.012 -1.0495  0.6613  2.1764
  704MOL0     H97114   2.745   4.040  10.377 -0.6170 -0.2334 -0.6672
  704MOL0     H97115   2.984   4.087  10.368  1.3252 -0.0607 -1.5782
  704MOL0     H97116   3.139   4.390  10.074  0.0800  2.3040  1.3983
  704MOL0     H97117   3.124   4.435  10.249 -1.0700  1.3759 -1.3285
  704MOL0     H97118   3.342   4.259  10.137 -1.0811 -0.8755  1.6955
  704MOL0     H97119   3.357   4.441  10.151  2.5925 -1.4199 -1.5489
  704MOL0     H97120   3.447   4.276  10.348 -1.8193 -2.6827 -0.5852
  704MOL0     H97121   3.281   4.267  10.385  1.3860 -0.3600  1.0790
  704MOL0     H97122   3.284   4.526  10.403  0.6014  0.8112 -0.6718
  704MOL0     H97123   3.456   4.516  10.363  0.5778 -1.2649 -1.0128
  704MOL0     H97124   3.387   4.523  10.629  1.0469 -0.6185  0.1573
  704MOL0     H97125   3.376   4.357  10.594  0.6200 -1.2355 -0.7364
  704MOL0     H97126   3.624   4.522  10.539 -0.1834  1.0543  0.0139
  704MOL0     H97127   3.598   4.365  10.474  0.3412 -1.1410  0.0131
  704MOL0     H97128   3.587   4.257  10.679 -0.3428 -0.1183 -1.0090
  704MOL0     H97129   3.529   4.393  10.763 -2.7860 -0.9837 -2.9107
  704MOL0     H97130   3.828   4.327  10.691  0.8364 -1.5758  1.6515
  704MOL0     H97131   3.759   4.349  10.849 -1.7831 -0.2676 -0.2359
  704MOL0     H97132   2.933   4.392  10.080  1.4811 -1.5480  0.4258
  704MOL0     H97133   2.673   4.364  10.097  1.1248  1.4617  1.0893
  704MOL0     H97134   2.292   4.301  10.265 -1.0099 -0.4545  0.8210
  704MOL0     H97135   2.038   4.290  10.220 -0.0041  0.4522 -1.0108
  704MOL0     H97136   1.080   2.902   9.974  0.4707  1.9034  0.5031
  704MOL0     H97137   0.899   2.937   9.829 -3.2865  0.2974 -1.2630
  704MOL0     H97138   0.588   3.077   9.533  1.2037  0.4437  1.2575
  704MOL0     H97139   0.397   3.094   9.410  1.2294 -3.4915 -1.3067
  704MOL0     H97140   0.177   3.181   9.348  1.6364 -0.6206 -1.4783
  704MOL0     H97141   0.186   3.005   9.310 -1.3836  0.9011 -1.5622
  704MOL0     H97142  -0.044   2.974   9.328  0.7460 -1.4391 -1.2716
  704MOL0     H97143   0.003   3.098   9.212 -5.5874  4.8112  0.4892
  704MOL0     H97144  -0.120   3.175   9.486 -2.3660  1.6312 -0.5635
  704MOL0     H97145  -0.049   3.279   9.365 -0.6571  0.5796  1.5375
  704MOL0     H97146  -0.252   3.071   9.292 -2.0080  0.1967 -0.3052
  704MOL0     H97147  -0.215   3.229   9.209 -0.1406  1.3175  1.1214
  704MOL0     H97148  -0.493   3.340   9.497 -0.4655 -1.2643 -1.7270
  704MOL0     H97149   0.157   3.038   9.747 -0.1599  0.5068  0.0898
  704MOL0     H97150   0.247   3.020   9.958  0.0126 -0.4204  0.7469
  704MOL0     H97151   0.382   2.905   9.965 -1.0665 -0.2683  2.6677
  704MOL0     H97152   0.413   3.083   9.991 -1.2505 -0.2093  1.2396
  705MOL0     O97153   0.238   1.841   9.883 -0.0952 -0.0305 -0.5557
  705MOL0     C97154   0.170   1.861   9.789 -0.4412  0.4965  0.0235
  705MOL0     O97155   0.220   1.902   9.671 -0.2707 -0.5918 -0.6598
  705MOL0     C97156   0.353   1.914   9.657 -0.1443  0.5819 -0.2494
  705MOL0     C97157   0.428   1.800   9.621 -0.3504 -0.4588  0.1530
  705MOL0     C97158   0.568   1.794   9.638  0.3978  0.3326  0.5113
  705MOL0     C97159   0.643   1.913   9.676  0.1518 -0.9477 -0.3442
  705MOL0     O97160   0.775   1.925   9.699  0.6223  0.1986  0.3432
  705MOL0     C97161   0.864   1.823   9.635  0.0005 -0.0533 -0.0114
  705MOL0     C97162   0.998   1.803   9.719  0.5034 -0.9073  0.2080
  705MOL0     C97163   1.084   1.710   9.638 -0.2462 -0.2499 -0.0182
  705MOL0     C97164   1.207   1.671   9.727  0.1853 -0.3376 -0.2794
  705MOL0     C97165   1.309   1.593   9.649 -0.5024 -0.2746  0.2270
  705MOL0     C97166   1.428   1.553   9.740  0.1904 -0.5043 -0.2612
  705MOL0     C97167   1.545   1.476   9.687 -0.2791 -0.2546  0.4104
  705MOL0     C97168   1.655   1.458   9.790 -0.0837 -0.0476  0.0682
  705MOL0     N97169   1.781   1.504   9.731 -0.0089  0.1526 -0.0528
  705MOL0     C97170   1.805   1.625   9.668 -0.5302 -0.1810  0.0625
  705MOL0     C97171   1.938   1.627   9.639  0.5034 -0.6536  0.3057
  705MOL0     C97172   2.007   1.706   9.535 -1.3170  0.1625  0.4414
  705MOL0     C97173   2.149   1.747   9.581 -0.0690 -0.4364 -0.7676
  705MOL0     C97174   2.196   1.879   9.512  0.4695  0.3904  0.0641
  705MOL0     C97175   2.262   1.842   9.374 -0.0173 -0.9760  0.2169
  705MOL0     O97176   2.337   1.953   9.315  0.5356  0.1825  0.6732
  705MOL0     C97177   2.465   1.986   9.355 -0.1868 -0.6246 -0.6315
  705MOL0     C97178   2.546   1.932   9.458  0.2449 -0.0891 -0.2078
  705MOL0     C97179   2.668   1.990   9.501 -0.2043  0.5167 -0.0040
  705MOL0     C97180   2.722   1.935   9.630 -0.5290 -0.4755  0.1234
  705MOL0     C97181   2.730   2.083   9.417 -0.0572 -0.0200 -0.6171
  705MOL0     C97182   2.871   2.132   9.431  0.3528  0.7855 -0.0203
  705MOL0     O97183   2.909   2.239   9.351 -0.2639  0.0283  0.0041
  705MOL0     C97184   3.017   2.321   9.368  0.5457 -0.6507 -0.5665
  705MOL0     C97185   3.063   2.386   9.251 -0.0560  0.0505 -0.4072
  705MOL0     C97186   3.166   2.477   9.259 -0.5654 -0.5197  0.0582
  705MOL0     C97187   3.234   2.505   9.375 -0.5220 -0.9438  0.1429
  705MOL0     O97188   3.339   2.599   9.390 -0.3146 -0.1147 -0.2037
  705MOL0     C97189   3.381   2.681   9.286  0.6668 -0.1283  0.0006
  705MOL0     C97190   3.457   2.807   9.343 -0.6949  0.2003 -0.0902
  705MOL0     C97191   3.503   2.914   9.232 -0.0746  0.5429 -0.4753
  705MOL0     C97192   3.575   3.024   9.303 -0.3254  0.4560 -0.4821
  705MOL0     C97193   3.608   3.146   9.222  0.0356  0.6268 -0.3161
  705MOL0     C97194   3.681   3.121   9.090  0.4397 -0.3524 -0.2162
  705MOL0     C97195   3.813   3.039   9.101  0.8910 -0.7246 -0.1761
  705MOL0     C97196   3.875   3.016   8.966  0.6432 -0.4984  0.5246
  705MOL0    Cl97197   3.980   3.165   8.943 -0.0824 -0.0911 -0.3752
  705MOL0     C97198   3.191   2.445   9.494 -0.5552 -0.3478  0.0336
  705MOL0     C97199   3.090   2.352   9.487  0.6278 -0.4614  0.2326
  705MOL0     O97200   2.950   2.066   9.503  0.4351  0.7933  0.1703
  705MOL0     C97201   2.658   2.133   9.307  0.1740  0.2946  1.0063
  705MOL0     C97202   2.526   2.089   9.288 -0.4883 -0.0513  0.4020
  705MOL0     N97203   1.993   1.508   9.682  1.2285  0.1255 -0.1322
  705MOL0     N97204   1.897   1.435   9.739 -0.4994  0.2531  0.5205
  705MOL0     C97205   0.565   2.021   9.711  0.3750  0.3979 -0.8047
  705MOL0     C97206   0.423   2.025   9.702 -0.6279 -0.2805  0.3209
  705MOL0     C97207   0.024   1.820   9.790 -0.0176  0.2988  0.6066
  705MOL0     C97208  -0.039   1.815   9.665 -0.4732 -0.4795  1.0747
  705MOL0     C97209  -0.166   1.761   9.641 -0.2825  0.3348 -0.2937
  705MOL0     C97210  -0.241   1.710   9.749  0.0175 -0.8879  1.2317
  705MOL0     O97211  -0.369   1.656   9.746 -0.6743  0.2093 -0.3883
  705MOL0     C97212  -0.398   1.578   9.634  0.4701  0.0243 -0.0869
  705MOL0     C97213  -0.493   1.658   9.540  0.0757 -0.2871  0.0582
  705MOL0     C97214  -0.583   1.550   9.459 -0.5370 -0.3526 -0.5864
  705MOL0     C97215  -0.696   1.504   9.548 -0.5725  0.4238  1.2570
  705MOL0     C97216  -0.710   1.356   9.532 -0.5641 -0.1977 -0.5491
  705MOL0     C97217  -0.727   1.242   9.508 -0.7628 -0.0126 -0.1277
  705MOL0     C97218  -0.181   1.717   9.884 -0.7218  0.4282  0.9834
  705MOL0     C97219  -0.048   1.765   9.906  1.0380  0.0978  0.3544
  705MOL0     C97220  -0.012   1.798  10.050  0.0527  0.1648 -0.4073
  705MOL0     H97221   0.378   1.706   9.597  1.8781 -1.9472  0.9599
  705MOL0     H97222   0.612   1.700   9.607 -1.1901 -0.2421 -0.1016
  705MOL0     H97223   0.884   1.876   9.542  2.5312  2.8345  1.9778
  705MOL0     H97224   0.818   1.727   9.611 -3.3408  2.3004 -4.6275
  705MOL0     H97225   1.049   1.899   9.731  2.1312 -1.4549 -1.6906
  705MOL0     H97226   0.974   1.757   9.815 -1.4182 -0.4490 -0.0023
  705MOL0     H97227   1.035   1.624   9.591 -0.6454  0.5209 -1.0749
  705MOL0     H97228   1.128   1.770   9.558 -2.8694  0.5569 -0.9784
  705MOL0     H97229   1.254   1.757   9.776 -1.4074  0.4698 -0.0954
  705MOL0     H97230   1.174   1.599   9.802 -0.4603  0.4347  0.1970
  705MOL0     H97231   1.352   1.664   9.578  3.0240 -1.6345  0.7800
  705MOL0     H97232   1.266   1.509   9.594 -3.6812 -0.7020  2.9930
  705MOL0     H97233   1.453   1.642   9.799 -0.1449 -1.0787  0.7865
  705MOL0     H97234   1.372   1.493   9.813 -0.3054 -0.7653 -0.8525
  705MOL0     H97235   1.583   1.536   9.604  1.1261 -0.7526  0.6554
  705MOL0     H97236   1.504   1.384   9.647 -0.5521  0.5049 -1.1135
  705MOL0     H97237   1.642   1.527   9.874 -1.8206  0.0044 -0.2144
  705MOL0     H97238   1.666   1.352   9.817  0.6016  0.2226  0.9224
  705MOL0     H97239   1.733   1.699   9.634 -0.1411  0.1256 -0.1045
  705MOL0     H97240   1.947   1.792   9.503  0.4320  0.3680 -2.7151
  705MOL0     H97241   2.022   1.653   9.440  0.5364  1.3707  0.0062
  705MOL0     H97242   2.163   1.772   9.687  0.8781  1.7468 -1.3506
  705MOL0     H97243   2.213   1.660   9.563 -2.1528 -2.3880  0.6833
  705MOL0     H97244   2.113   1.948   9.493 -1.0333 -0.4724  2.8896
  705MOL0     H97245   2.274   1.916   9.578  1.0202  0.9082 -0.8631
  705MOL0     H97246   2.330   1.757   9.385  0.7845 -0.1272  2.6284
  705MOL0     H97247   2.179   1.816   9.308  0.8041  0.1436 -1.3374
  705MOL0     H97248   2.504   1.861   9.528  0.6194 -0.6503 -0.5396
  705MOL0     H97249   2.762   2.022   9.684 -0.3477 -0.2431 -0.3784
  705MOL0     H97250   2.811   1.873   9.613  0.4011  1.8853 -6.4861
  705MOL0     H97251   2.647   1.896   9.699 -0.2889  0.9068  1.2297
  705MOL0     H97252   3.008   2.355   9.163 -3.2201  1.8196  0.7779
  705MOL0     H97253   3.188   2.524   9.164 -2.6693 -0.4528 -0.4527
  705MOL0     H97254   3.444   2.626   9.215 -0.0416 -1.5679  0.4415
  705MOL0     H97255   3.295   2.730   9.238 -1.6153  0.5041  4.2539
  705MOL0     H97256   3.392   2.860   9.413 -2.1501 -1.9237  0.2520
  705MOL0     H97257   3.543   2.778   9.405 -0.3561  0.6649 -0.3354
  705MOL0     H97258   3.419   2.965   9.183  0.2797  0.1411 -1.5376
  705MOL0     H97259   3.565   2.857   9.162 -2.0984 -1.7254 -0.5540
  705MOL0     H97260   3.670   2.997   9.350 -0.4806  1.0795  0.2053
  705MOL0     H97261   3.521   3.062   9.390 -0.0031  0.9918 -0.5056
  705MOL0     H97262   3.512   3.199   9.212 -0.8468 -0.2379  2.5523
  705MOL0     H97263   3.675   3.207   9.283  1.1331 -2.7287  2.1053
  705MOL0     H97264   3.692   3.216   9.037 -1.6664  0.1411  0.1481
  705MOL0     H97265   3.613   3.072   9.021  2.9613  1.7187 -4.5918
  705MOL0     H97266   3.788   2.938   9.137 -4.1087  0.1763 -0.4693
  705MOL0     H97267   3.896   3.072   9.164  0.3396 -0.8725  0.6326
  705MOL0     H97268   3.803   3.019   8.885  2.0722  1.3970 -0.7720
  705MOL0     H97269   3.942   2.930   8.958 -0.0313 -0.8803 -1.6320
  705MOL0     H97270   3.237   2.467   9.590 -0.0356  2.5013 -0.7972
  705MOL0     H97271   3.069   2.298   9.579  2.4480 -2.0060 -0.1953
  705MOL0     H97272   2.692   2.205   9.233  0.4382  1.1477  1.9415
  705MOL0     H97273   2.461   2.128   9.211 -0.1739 -2.7541 -1.3510
  705MOL0     H97274   0.606   2.113   9.751  0.1225  0.7890 -1.4272
  705MOL0     H97275   0.362   2.103   9.745 -1.4233 -1.1872  0.8786
  705MOL0     H97276   0.007   1.853   9.574 -2.0431 -0.5797  0.2091
  705MOL0     H97277  -0.209   1.768   9.542 -1.6191  0.2016  0.2465
  705MOL0     H97278  -0.309   1.554   9.576  0.2482 -2.6464  0.5810
  705MOL0     H97279  -0.435   1.479   9.661 -1.2409 -0.1301 -2.5878
  705MOL0     H97280  -0.432   1.728   9.483  0.1933  0.7162  1.3664
  705MOL0     H97281  -0.553   1.717   9.610 -0.0905  0.4263 -0.6793
  705MOL0     H97282  -0.631   1.587   9.368  0.4516 -2.5575 -2.0975
  705MOL0     H97283  -0.522   1.466   9.423  1.9927  1.3490 -0.4931
  705MOL0     H97284  -0.797   1.538   9.520 -0.2174  0.2965 -0.2779
  705MOL0     H97285  -0.682   1.531   9.653 -0.6933 -1.4897  1.8018
  705MOL0     H97286  -0.740   1.140   9.477 -0.7887 -0.1722  0.3980
  705MOL0     H97287  -0.244   1.671   9.961 -4.5535  1.7342 -1.0808
  705MOL0     H97288   0.013   1.903  10.063  3.1262 -0.8189  3.3717
  705MOL0     H97289  -0.086   1.790  10.130  3.5932  2.1555  3.3934
  705MOL0     H97290   0.072   1.732  10.071 -0.2447  0.5187  2.1673
  706MOL0     O97291   4.077   4.278   9.999 -0.2069  0.6453 -0.4805
  706MOL0     C97292   3.992   4.195  10.026  1.1007  0.0815  0.2538
  706MOL0     O97293   3.914   4.201  10.130  0.5312 -0.0058  0.2431
  706MOL0     C97294   3.966   4.269  10.236 -0.4881 -0.8263 -0.4814
  706MOL0     C97295   4.092   4.243  10.289  0.1320  0.4672 -0.3037
  706MOL0     C97296   4.139   4.320  10.394 -0.6925 -0.2504  0.6820
  706MOL0     C97297   4.055   4.398  10.469 -0.3990  0.4627 -0.2705
  706MOL0     O97298   4.106   4.483  10.571 -0.3554  0.6737 -0.2897
  706MOL0     C97299   4.185   4.418  10.672  0.2825 -0.1338 -0.3591
  706MOL0     C97300   4.313   4.484  10.704  0.2107 -0.2788 -0.0157
  706MOL0     C97301   4.304   4.629  10.752  0.3083  0.1111 -1.1611
  706MOL0     C97302   4.429   4.697  10.796 -0.2149  0.5079 -0.4329
  706MOL0     C97303   4.410   4.850  10.806  0.2010  0.0498  0.4541
  706MOL0     C97304   4.531   4.931  10.808 -0.4497 -0.5883  0.8455
  706MOL0     C97305   4.626   4.901  10.929 -0.1634 -0.0327  1.1569
  706MOL0     C97306   4.567   4.905  11.074 -0.1311 -1.0963  1.0457
  706MOL0     N97307   4.659   4.927  11.181 -0.3900 -0.4537 -0.1514
  706MOL0     C97308   4.754   4.837  11.222  0.2438  0.2666 -0.8196
  706MOL0     C97309   4.802   4.883  11.339  0.1401 -0.3079 -0.3009
  706MOL0     C97310   4.888   4.806  11.434  0.6174 -0.1644 -0.1800
  706MOL0     C97311   5.034   4.837  11.421  0.0113 -0.2901 -0.7574
  706MOL0     C97312   5.121   4.754  11.519  0.2646  0.0270  0.2902
  706MOL0     C97313   5.130   4.604  11.491  0.6966 -0.7651 -0.3627
  706MOL0     O97314   5.234   4.559  11.576 -0.0561 -0.0837  0.0388
  706MOL0     C97315   5.370   4.591  11.543  0.0360  0.2788  0.1755
  706MOL0     C97316   5.405   4.645  11.418 -0.5882 -0.3042  0.1635
  706MOL0     C97317   5.533   4.706  11.408  0.5561  0.0128 -0.3093
  706MOL0     C97318   5.574   4.755  11.268  0.0284  0.5947  0.4697
  706MOL0     C97319   5.628   4.709  11.511  0.5107 -0.3776  0.2208
  706MOL0     C97320   5.771   4.762  11.496 -0.2906 -1.6341  0.2345
  706MOL0     O97321   5.831   4.745  11.375  0.0677  0.5189  0.0010
  706MOL0     C97322   5.964   4.743  11.347 -0.0802  0.6937 -0.4051
  706MOL0     C97323   6.067   4.772  11.440 -0.4247  0.2564 -0.5554
  706MOL0     C97324   6.197   4.774  11.379  0.2153 -0.6851 -0.5380
  706MOL0     C97325   6.221   4.759  11.240 -0.2579  0.4542 -0.9627
  706MOL0     O97326   6.342   4.758  11.187  0.0311  0.4237 -0.2885
  706MOL0     C97327   6.462   4.749  11.269 -0.1673  0.1199  0.3986
  706MOL0     C97328   6.569   4.714  11.162  0.3046  0.6395  0.4071
  706MOL0     C97329   6.701   4.721  11.227  0.7237 -0.7392  0.5876
  706MOL0     C97330   6.815   4.697  11.122  0.1693  0.0464  0.0475
  706MOL0     C97331   6.964   4.699  11.187  0.3124 -0.3050 -0.0797
  706MOL0     C97332   7.078   4.730  11.089 -0.3282 -0.6166 -0.3671
  706MOL0     C97333   7.204   4.765  11.164 -1.1753 -0.4715  0.0534
  706MOL0     C97334   7.309   4.840  11.088  0.2167  0.8680  1.5689
  706MOL0    Cl97335   7.458   4.857  11.187 -0.1200 -0.4627 -0.1609
  706MOL0     C97336   6.117   4.746  11.157 -0.3860  0.0872 -0.3272
  706MOL0     C97337   5.992   4.737  11.208 -0.5005 -0.3445  0.9159
  706MOL0     O97338   5.826   4.814  11.591 -0.3931 -0.0789  0.1571
  706MOL0     C97339   5.581   4.662  11.634 -0.3577  0.0493  0.2362
  706MOL0     C97340   5.460   4.602  11.645  0.7186 -0.8923  0.0250
  706MOL0     N97341   4.754   5.012  11.357 -0.2599  0.1046 -0.6299
  706MOL0     N97342   4.681   5.046  11.253 -0.4660 -0.2962  0.0461
  706MOL0     C97343   3.922   4.413  10.426  0.1206 -0.6066  0.3936
  706MOL0     C97344   3.875   4.344  10.315  0.3076  1.0745 -0.2387
  706MOL0     C97345   3.956   4.099   9.922 -0.1377  0.6289 -0.1759
  706MOL0     C97346   3.817   4.070   9.906 -0.7529  0.5757 -0.1690
  706MOL0     C97347   3.777   3.971   9.819 -0.4760 -0.4837  0.3336
  706MOL0     C97348   3.867   3.905   9.740 -0.3998 -0.9250 -0.0301
  706MOL0     O97349   3.819   3.818   9.646 -0.3048  0.4525 -0.4868
  706MOL0     C97350   3.913   3.767   9.548  0.0976 -0.4626 -0.0036
  706MOL0     C97351   3.950   3.872   9.441  0.5080  0.0121 -0.3323
  706MOL0     C97352   4.057   3.831   9.348  0.2967 -0.7226 -0.1658
  706MOL0     C97353   4.107   3.922   9.233  0.5327 -0.2381  0.2001
  706MOL0     C97354   4.008   3.940   9.120 -0.4633 -0.4144 -0.4716
  706MOL0     C97355   3.934   3.959   9.029  0.6697 -0.3302  0.1319
  706MOL0     C97356   4.007   3.932   9.757  0.5779 -0.5555  0.5735
  706MOL0     C97357   4.050   4.025   9.847  0.5853  0.1507  0.5668
  706MOL0     C97358   4.193   4.046   9.853 -0.1916  0.3728 -0.5043
  706MOL0     H97359   4.166   4.177  10.244  0.3042  0.8375 -0.5725
  706MOL0     H97360   4.244   4.310  10.420 -0.5979 -0.2631  0.2948
  706MOL0     H97361   4.217   4.324  10.628  0.5749  0.6835 -1.9557
  706MOL0     H97362   4.121   4.402  10.759 -0.8885 -1.2768 -1.4004
  706MOL0     H97363   4.352   4.421  10.784  0.7404 -1.0446 -0.8534
  706MOL0     H97364   4.376   4.473  10.615 -1.2748 -0.3145 -1.0981
  706MOL0     H97365   4.274   4.687  10.664  2.7168  0.8371 -1.5927
  706MOL0     H97366   4.220   4.642  10.820 -0.7384 -0.4649 -2.2957
  706MOL0     H97367   4.453   4.652  10.892  1.2052  1.2375 -0.4252
  706MOL0     H97368   4.517   4.684  10.732  1.6461 -1.6608  2.3398
  706MOL0     H97369   4.352   4.861  10.898 -0.8540  0.4309 -0.2417
  706MOL0     H97370   4.349   4.890  10.725 -3.0449 -2.3662  1.4801
  706MOL0     H97371   4.594   4.920  10.720 -1.4596 -2.8681  0.3525
  706MOL0     H97372   4.509   5.038  10.816 -0.1001 -0.4770  0.3621
  706MOL0     H97373   4.710   4.970  10.914 -0.2947  0.1473  1.2464
  706MOL0     H97374   4.666   4.799  10.918  2.2090  1.0370 -1.1982
  706MOL0     H97375   4.495   4.987  11.072  2.7241  1.5987  0.2332
  706MOL0     H97376   4.521   4.808  11.094 -0.3735 -1.2398 -0.0909
  706MOL0     H97377   4.766   4.738  11.179 -0.7574  0.3423 -1.3082
  706MOL0     H97378   4.868   4.699  11.421  0.6038 -0.0616 -1.0239
  706MOL0     H97379   4.866   4.826  11.540  1.0429  0.1305 -0.1411
  706MOL0     H97380   5.069   4.804  11.323 -0.0042 -2.4574 -0.0776
  706MOL0     H97381   5.054   4.943  11.440  1.7350 -0.8238  0.6674
  706MOL0     H97382   5.222   4.798  11.516  0.0540  0.4802 -0.2607
  706MOL0     H97383   5.078   4.763  11.619 -0.2123 -0.9434  0.1771
  706MOL0     H97384   5.031   4.564  11.517  0.1200  0.9410  0.2433
  706MOL0     H97385   5.154   4.582  11.386  1.0483 -0.6852 -0.2998
  706MOL0     H97386   5.338   4.658  11.333  3.1870  1.9100 -2.8276
  706MOL0     H97387   5.484   4.753  11.206  0.2765  2.7857 -0.0732
  706MOL0     H97388   5.646   4.691  11.217  0.4095  2.9993 -2.2787
  706MOL0     H97389   5.623   4.853  11.265  1.5893 -0.0993  1.7237
  706MOL0     H97390   6.062   4.788  11.548 -0.0091 -2.7627 -0.0088
  706MOL0     H97391   6.281   4.762  11.447 -1.4398 -3.3449  1.2066
  706MOL0     H97392   6.490   4.843  11.317 -0.3523  0.3634  0.0322
  706MOL0     H97393   6.463   4.664  11.338  1.1707 -0.9768 -0.9047
  706MOL0     H97394   6.552   4.608  11.139  0.2385  0.7114  0.1246
  706MOL0     H97395   6.567   4.776  11.072 -4.0240  0.5735  0.2463
  706MOL0     H97396   6.705   4.648  11.308 -1.0297 -2.4536 -0.7658
  706MOL0     H97397   6.716   4.824  11.262  0.5692 -0.5768  0.1831
  706MOL0     H97398   6.809   4.775  11.045 -0.7278 -1.1428 -1.1456
  706MOL0     H97399   6.792   4.603  11.070 -1.7205  0.8356 -0.6428
  706MOL0     H97400   6.969   4.767  11.274 -2.4283  2.8504 -2.1456
  706MOL0     H97401   6.986   4.604  11.235  1.3863  0.1659  0.3957
  706MOL0     H97402   7.054   4.818  11.028 -0.9565  1.6411  2.8550
  706MOL0     H97403   7.081   4.649  11.015 -2.2149  0.5134 -1.7876
  706MOL0     H97404   7.250   4.679  11.214 -0.7299  0.4487  1.2991
  706MOL0     H97405   7.180   4.829  11.250 -1.7306 -0.7573  0.1156
  706MOL0     H97406   7.268   4.939  11.066 -1.2276  0.2521  1.3911
  706MOL0     H97407   7.317   4.792  10.990 -1.5926  1.7877  0.9259
  706MOL0     H97408   6.134   4.731  11.051 -0.4604 -0.7312 -0.2300
  706MOL0     H97409   5.906   4.725  11.143  1.4595 -0.5119 -1.8195
  706MOL0     H97410   5.636   4.663  11.728  0.9180 -1.3025 -0.4566
  706MOL0     H97411   5.432   4.569  11.745  0.9896 -1.4891 -0.0941
  706MOL0     H97412   3.858   4.486  10.475 -0.9924 -2.4986  1.8938
  706MOL0     H97413   3.773   4.352  10.279  0.5435  1.8753 -0.7581
  706MOL0     H97414   3.740   4.132   9.951  0.5274  2.2167 -0.1236
  706MOL0     H97415   3.670   3.957   9.811 -1.0402  2.8605  0.6064
  706MOL0     H97416   3.995   3.708   9.589 -1.2730 -2.3130  0.2211
  706MOL0     H97417   3.864   3.688   9.489  0.8101 -0.2554 -0.8875
  706MOL0     H97418   3.982   3.961   9.496 -0.0257 -0.0183  0.0337
  706MOL0     H97419   3.859   3.895   9.384 -1.2119 -0.9600  1.8620
  706MOL0     H97420   4.138   3.825   9.422  0.0703  2.0086  0.4310
  706MOL0     H97421   4.030   3.733   9.308 -1.8273 -0.5433  0.7151
  706MOL0     H97422   4.200   3.886   9.188  0.0609  0.2535 -1.2144
  706MOL0     H97423   4.128   4.022   9.273 -2.0988 -0.1116  1.5477
  706MOL0     H97424   3.871   3.987   8.947  1.7088  1.4057 -0.1106
  706MOL0     H97425   4.086   3.885   9.700  0.1860  1.0111 -1.3942
  706MOL0     H97426   4.243   3.997   9.937 -2.4019  0.4274  0.9059
  706MOL0     H97427   4.245   4.008   9.764  1.6231 -0.5820  0.8796
  706MOL0     H97428   4.217   4.153   9.854 -2.7881  1.0118 -0.2049
  707MOL0     O97429   1.505   8.923   5.780 -0.1022  0.4839  0.2397
  707MOL0     C97430   1.515   8.988   5.878 -0.7508 -0.0598  0.2502
  707MOL0     O97431   1.637   9.033   5.932 -0.9730 -0.0637 -0.3391
  707MOL0     C97432   1.756   8.973   5.917  0.4711  0.0013  0.0715
  707MOL0     C97433   1.873   9.058   5.935  0.0477 -0.2602 -0.8399
  707MOL0     C97434   2.000   9.012   5.907  0.0744  0.1292  0.1550
  707MOL0     C97435   2.018   8.870   5.885  0.9581  0.2739 -0.2744
  707MOL0     O97436   2.135   8.812   5.857 -0.3810 -0.4426 -0.4018
  707MOL0     C97437   2.219   8.892   5.763  1.0419  0.3177 -0.0854
  707MOL0     C97438   2.313   8.799   5.705  0.6812  0.3603  0.5966
  707MOL0     C97439   2.364   8.849   5.569  0.0963 -0.1654  0.4130
  707MOL0     C97440   2.478   8.759   5.520  0.3848  0.3819 -0.0786
  707MOL0     C97441   2.554   8.825   5.395  0.3683 -0.4131  0.7152
  707MOL0     C97442   2.650   8.728   5.333 -0.7215 -0.0694  0.0796
  707MOL0     C97443   2.738   8.801   5.227  0.5850  0.4938  0.2654
  707MOL0     C97444   2.869   8.730   5.196 -0.4211  0.0610  0.0076
  707MOL0     N97445   2.951   8.796   5.100  0.2107 -0.1552 -0.1971
  707MOL0     C97446   2.987   8.926   5.104  0.3614  0.8899 -0.4859
  707MOL0     C97447   3.065   8.938   4.993  0.2556 -0.0992  0.0508
  707MOL0     C97448   3.107   9.073   4.953 -0.2880  0.2715  0.0537
  707MOL0     C97449   3.202   9.067   4.833  0.2034  0.3246 -0.3808
  707MOL0     C97450   3.277   9.200   4.820  0.0900 -0.1802  0.2130
  707MOL0     C97451   3.395   9.187   4.727 -0.1653  0.0978  1.2324
  707MOL0     O97452   3.353   9.134   4.597 -0.0429 -0.0044 -0.1460
  707MOL0     C97453   3.403   9.022   4.536 -0.2819 -0.2990  0.2733
  707MOL0     C97454   3.541   8.985   4.545 -0.4588 -0.3420 -0.1344
  707MOL0     C97455   3.603   8.878   4.477  0.4389  0.0408  0.5037
  707MOL0     C97456   3.748   8.866   4.500 -1.1402 -0.5032 -0.7182
  707MOL0     C97457   3.520   8.794   4.397  0.6834  0.3762 -0.7265
  707MOL0     C97458   3.572   8.667   4.335  0.3380  0.4055 -0.5401
  707MOL0     O97459   3.475   8.595   4.274  0.5351 -0.4821  0.0120
  707MOL0     C97460   3.505   8.468   4.232  0.7666 -0.3148  0.0322
  707MOL0     C97461   3.565   8.371   4.317 -1.0072 -0.4419 -0.1681
  707MOL0     C97462   3.575   8.235   4.282 -0.5871 -0.3896 -0.1877
  707MOL0     C97463   3.548   8.194   4.151  0.3013 -0.8396 -0.9737
  707MOL0     O97464   3.571   8.064   4.120 -0.4059  0.1997 -0.3146
  707MOL0     C97465   3.660   8.036   4.009 -0.3236 -0.3692 -0.1293
  707MOL0     C97466   3.730   7.897   4.028 -0.0471  1.1454 -0.3830
  707MOL0     C97467   3.849   7.913   4.129 -0.9644 -0.4121  0.0819
  707MOL0     C97468   3.892   7.779   4.190  0.3086  0.2258 -0.5725
  707MOL0     C97469   3.976   7.795   4.314  0.3902 -0.2467 -0.1552
  707MOL0     C97470   3.900   7.843   4.444  0.5688  0.3398 -0.5998
  707MOL0     C97471   4.000   7.820   4.559 -0.5990 -0.5956 -0.3289
  707MOL0     C97472   3.964   7.903   4.682  0.0668 -0.1525  0.4815
  707MOL0    Cl97473   3.796   7.883   4.719  0.3203  0.4690 -0.4193
  707MOL0     C97474   3.498   8.290   4.059 -0.4734  0.0005  0.1483
  707MOL0     C97475   3.482   8.424   4.095  0.7626  0.0269 -0.0577
  707MOL0     O97476   3.692   8.639   4.339 -0.2574 -0.0286 -0.2512
  707MOL0     C97477   3.382   8.829   4.383 -0.4206 -0.0748  0.3339
  707MOL0     C97478   3.328   8.938   4.447  0.3433 -0.6279  0.9849
  707MOL0     N97479   3.070   8.828   4.920 -0.1628 -0.2959 -0.1183
  707MOL0     N97480   3.000   8.735   4.987  0.2236 -0.4970  0.1866
  707MOL0     C97481   1.896   8.795   5.887 -0.4021 -0.5758 -0.1024
  707MOL0     C97482   1.773   8.842   5.893  0.5951  0.3885  0.7441
  707MOL0     C97483   1.387   9.033   5.944 -0.3108 -0.4881  0.0238
  707MOL0     C97484   1.389   9.138   6.041 -0.4923  0.2942  0.0472
  707MOL0     C97485   1.276   9.186   6.113 -0.1078  0.7169  0.2522
  707MOL0     C97486   1.154   9.121   6.096 -0.2599 -0.3964  0.2868
  707MOL0     O97487   1.047   9.156   6.172  0.0561  0.2426 -0.3247
  707MOL0     C97488   0.947   9.059   6.197 -0.2333 -0.3144 -0.3404
  707MOL0     C97489   0.859   9.107   6.306  0.8775 -0.0788 -0.4245
  707MOL0     C97490   0.719   9.036   6.317  0.4351 -0.4221  0.5181
  707MOL0     C97491   0.634   9.115   6.424  0.0271  0.3599 -0.3054
  707MOL0     C97492   0.693   9.099   6.555  0.4773  0.3022  0.2597
  707MOL0     C97493   0.735   9.072   6.666 -0.1731  0.1838 -0.2693
  707MOL0     C97494   1.151   9.006   6.011  0.1455 -0.3964  0.2244
  707MOL0     C97495   1.269   8.959   5.935  0.1314  0.1951  0.1048
  707MOL0     C97496   1.250   8.836   5.852 -0.6957 -0.0033 -0.0659
  707MOL0     H97497   1.858   9.161   5.962  1.8688  0.3825 -2.0463
  707MOL0     H97498   2.084   9.078   5.926  0.5895 -0.9920  2.0263
  707MOL0     H97499   2.272   8.978   5.806 -0.3803  2.2877 -2.0222
  707MOL0     H97500   2.153   8.921   5.681  1.2787 -1.5530 -0.9818
  707MOL0     H97501   2.379   8.753   5.779 -1.3231 -3.0936  0.4541
  707MOL0     H97502   2.257   8.710   5.674 -2.2797  1.4374  2.4433
  707MOL0     H97503   2.286   8.864   5.495  0.4858 -0.3551 -0.0427
  707MOL0     H97504   2.410   8.948   5.578 -2.1898  1.2127 -1.9620
  707MOL0     H97505   2.550   8.746   5.601  0.5213  0.5851 -0.1669
  707MOL0     H97506   2.431   8.664   5.490 -2.4970  2.1977 -1.7819
  707MOL0     H97507   2.598   8.921   5.425 -2.1586  0.7833  0.8677
  707MOL0     H97508   2.476   8.841   5.319 -0.3617 -0.8566  1.3631
  707MOL0     H97509   2.713   8.701   5.418 -1.8516  0.2742  1.0591
  707MOL0     H97510   2.591   8.643   5.298  1.9399 -2.0947  0.1607
  707MOL0     H97511   2.770   8.893   5.275  0.7698 -0.5735  2.3205
  707MOL0     H97512   2.680   8.809   5.135  0.2127 -1.6524  0.2449
  707MOL0     H97513   2.936   8.736   5.283  0.2008 -1.6616 -0.3220
  707MOL0     H97514   2.841   8.626   5.181  1.0170 -0.3009 -0.3415
  707MOL0     H97515   2.967   8.995   5.186  0.6828 -1.2197  1.4672
  707MOL0     H97516   3.169   9.109   5.035  1.2637 -0.7621 -0.6225
  707MOL0     H97517   3.018   9.135   4.940 -1.0983 -0.2641  2.4175
  707MOL0     H97518   3.275   8.986   4.846  0.7989  1.2617  3.2407
  707MOL0     H97519   3.148   9.052   4.739 -4.0495  4.6115  0.9983
  707MOL0     H97520   3.206   9.273   4.780 -0.9010  0.2328  2.5806
  707MOL0     H97521   3.305   9.227   4.922 -1.0510  0.2195  0.4295
  707MOL0     H97522   3.442   9.281   4.696  2.1272 -1.6797 -1.2004
  707MOL0     H97523   3.471   9.124   4.774  1.2100  0.5471 -0.2784
  707MOL0     H97524   3.602   9.046   4.610  2.1153 -0.5002 -2.2370
  707MOL0     H97525   3.794   8.943   4.563 -0.0806 -1.2816 -0.4993
  707MOL0     H97526   3.792   8.868   4.400 -0.6981  0.0129 -0.5174
  707MOL0     H97527   3.789   8.773   4.540  0.7858  0.8582  0.6490
  707MOL0     H97528   3.587   8.407   4.417  0.5098  1.2125 -1.0419
  707MOL0     H97529   3.608   8.159   4.352  2.1688 -0.1815 -1.1233
  707MOL0     H97530   3.597   8.026   3.920 -0.9837 -1.8857  0.4951
  707MOL0     H97531   3.739   8.112   3.998  1.0569 -1.9180 -1.5301
  707MOL0     H97532   3.661   7.825   4.075 -0.5725  2.7668  1.4695
  707MOL0     H97533   3.757   7.853   3.932 -1.7484  2.1696 -1.3901
  707MOL0     H97534   3.825   7.983   4.209  1.0492 -0.8714  1.1472
  707MOL0     H97535   3.936   7.947   4.072  0.2314 -1.3834  1.2716
  707MOL0     H97536   3.947   7.715   4.120 -0.0576 -0.8342  0.0933
  707MOL0     H97537   3.806   7.719   4.220 -0.5809  1.3081 -0.9273
  707MOL0     H97538   4.020   7.697   4.334  0.1308  0.1889  3.0714
  707MOL0     H97539   4.054   7.867   4.286 -3.1445  3.8413 -0.6067
  707MOL0     H97540   3.808   7.785   4.456  0.4474  0.7936  0.8809
  707MOL0     H97541   3.869   7.948   4.440 -2.1999 -0.3174  0.6969
  707MOL0     H97542   4.102   7.843   4.526  0.0327 -2.5265  0.1660
  707MOL0     H97543   4.004   7.719   4.600 -0.3945  0.4987  2.5153
  707MOL0     H97544   3.981   8.007   4.652 -0.6425 -0.8137 -2.5579
  707MOL0     H97545   4.029   7.873   4.765  2.4641  0.5872 -1.0419
  707MOL0     H97546   3.481   8.259   3.957 -0.8965 -0.1373  0.2605
  707MOL0     H97547   3.444   8.474   4.006 -0.1244 -3.2246 -1.6666
  707MOL0     H97548   3.315   8.778   4.315  1.5110  0.5987 -2.2512
  707MOL0     H97549   3.227   8.970   4.426 -0.1266 -1.1854  2.3048
  707MOL0     H97550   1.914   8.689   5.874  1.6186 -0.0095 -3.0440
  707MOL0     H97551   1.688   8.774   5.897  1.3962 -0.6675  0.4319
  707MOL0     H97552   1.481   9.195   6.051 -0.0280 -0.3767 -0.2953
  707MOL0     H97553   1.295   9.277   6.168  0.1797  2.1162 -2.0173
  707MOL0     H97554   0.886   9.032   6.111 -1.0041  1.0024 -0.2345
  707MOL0     H97555   0.990   8.965   6.234  2.9079  0.8725 -0.7102
  707MOL0     H97556   0.833   9.208   6.274 -0.0837 -0.7578 -1.9316
  707MOL0     H97557   0.904   9.101   6.405 -0.8890 -1.6489  0.3382
  707MOL0     H97558   0.664   9.040   6.222 -0.8339 -1.2811  1.1758
  707MOL0     H97559   0.731   8.933   6.353  3.1121 -0.3065  0.1500
  707MOL0     H97560   0.532   9.076   6.422  0.2047 -0.2674 -3.3939
  707MOL0     H97561   0.636   9.221   6.397 -2.1676  0.7315  0.7866
  707MOL0     H97562   0.787   9.050   6.757  0.2592 -0.9014 -0.7697
  707MOL0     H97563   1.056   8.958   5.988 -1.0327  1.9619 -0.0932
  707MOL0     H97564   1.331   8.765   5.868 -0.5588 -0.0719 -1.0337
  707MOL0     H97565   1.161   8.778   5.879 -1.2256  0.8023 -0.0553
  707MOL0     H97566   1.247   8.860   5.746 -1.7663  4.3567  0.7571
  708MOL0     O97567   2.658   2.314   9.816 -0.1355  0.5342 -0.1480
  708MOL0     C97568   2.654   2.243   9.918  0.5444 -0.1508  0.3077
  708MOL0     O97569   2.759   2.174   9.978  0.3653 -0.5161 -0.6845
  708MOL0     C97570   2.884   2.209   9.932 -0.4261  0.1798  0.2746
  708MOL0     C97571   2.964   2.111   9.874 -0.4744  0.2824  0.3528
  708MOL0     C97572   3.098   2.137   9.841  0.1605  0.4910  0.5546
  708MOL0     C97573   3.153   2.267   9.858 -0.5307  0.9084 -0.1242
  708MOL0     O97574   3.282   2.292   9.817  0.7547  0.5804  0.0712
  708MOL0     C97575   3.374   2.187   9.810 -0.2540  0.1346  0.4432
  708MOL0     C97576   3.516   2.224   9.855 -0.2967 -0.7486  0.2405
  708MOL0     C97577   3.605   2.099   9.841  0.0284 -1.0676  0.3495
  708MOL0     C97578   3.719   2.122   9.937  0.1696  0.5078  0.4870
  708MOL0     C97579   3.838   2.015   9.921 -0.1121 -0.1128 -0.6084
  708MOL0     C97580   3.922   2.047   9.795 -0.6035  0.1233 -0.4932
  708MOL0     C97581   4.041   1.956   9.782 -0.0691  0.8177 -0.1532
  708MOL0     C97582   4.074   1.958   9.635 -0.1047  0.3648  0.7410
  708MOL0     N97583   4.185   1.868   9.605 -0.3789  0.0696 -0.0351
  708MOL0     C97584   4.172   1.753   9.540 -0.0312  0.7262  0.5316
  708MOL0     C97585   4.295   1.721   9.497  0.2316  0.0233 -0.2518
  708MOL0     C97586   4.337   1.609   9.415 -0.6139 -0.0145 -0.5274
  708MOL0     C97587   4.423   1.509   9.503  0.5142 -0.4507 -0.5337
  708MOL0     C97588   4.551   1.561   9.569 -0.0669  0.2770  0.0414
  708MOL0     C97589   4.656   1.618   9.480  0.0889  0.0819  0.1961
  708MOL0     O97590   4.699   1.508   9.401  0.3497 -0.6672  0.7273
  708MOL0     C97591   4.814   1.529   9.330 -0.4993  0.7987  0.5787
  708MOL0     C97592   4.873   1.648   9.299  0.1490 -0.2146  0.5433
  708MOL0     C97593   5.001   1.670   9.247 -0.8979 -0.1946  0.4581
  708MOL0     C97594   5.048   1.810   9.224 -1.1225 -0.3617  0.9388
  708MOL0     C97595   5.083   1.554   9.209  0.5701  0.7797 -0.1810
  708MOL0     C97596   5.214   1.560   9.130 -0.2573  0.3347 -0.3139
  708MOL0     O97597   5.257   1.437   9.090  0.4822  0.1886  0.4393
  708MOL0     C97598   5.368   1.431   9.008  0.3576  0.5179 -0.2560
  708MOL0     C97599   5.357   1.403   8.873 -0.1724 -0.1892  0.0450
  708MOL0     C97600   5.466   1.391   8.783  0.2061 -0.6191  0.1109
  708MOL0     C97601   5.595   1.419   8.835 -0.2190 -0.7978 -0.2893
  708MOL0     O97602   5.710   1.421   8.755  0.2134 -0.1968  0.5847
  708MOL0     C97603   5.684   1.450   8.613 -1.0331  0.5083 -0.7813
  708MOL0     C97604   5.820   1.442   8.543  0.3839  0.3839  0.4400
  708MOL0     C97605   5.855   1.300   8.483  0.0377 -0.1686 -0.0595
  708MOL0     C97606   6.003   1.300   8.434  0.2937  0.4350  0.8032
  708MOL0     C97607   6.052   1.157   8.398 -0.2865 -0.0398  0.0726
  708MOL0     C97608   6.201   1.164   8.402 -0.2214  0.4805 -0.5161
  708MOL0     C97609   6.269   1.036   8.355 -0.5087 -0.6840 -0.0876
  708MOL0     C97610   6.417   1.051   8.357 -0.4868 -0.9267 -0.0788
  708MOL0    Cl97611   6.496   0.915   8.276 -0.3292  0.1524  0.1465
  708MOL0     C97612   5.610   1.469   8.968 -0.0289  0.5152  1.5710
  708MOL0     C97613   5.497   1.467   9.058  0.1649 -0.6431  0.4833
  708MOL0     O97614   5.275   1.662   9.110 -0.6374  0.0660 -0.6414
  708MOL0     C97615   5.021   1.431   9.244  0.5106  0.5211 -0.2289
  708MOL0     C97616   4.895   1.421   9.306 -0.1042  0.6729  0.3816
  708MOL0     N97617   4.382   1.816   9.532 -0.0060 -0.0909 -0.0433
  708MOL0     N97618   4.316   1.905   9.598  0.2967  0.2504  0.2742
  708MOL0     C97619   3.069   2.368   9.917  0.3144  0.1157 -0.8370
  708MOL0     C97620   2.936   2.340   9.953  0.1727 -0.0026 -0.1255
  708MOL0     C97621   2.521   2.208   9.973  0.0520 -0.5805 -0.1566
  708MOL0     C97622   2.512   2.217  10.118  0.0279 -0.0580  0.5593
  708MOL0     C97623   2.395   2.206  10.189 -0.0500  0.3008 -1.0080
  708MOL0     C97624   2.275   2.172  10.116  0.1687  0.2512 -0.0098
  708MOL0     O97625   2.154   2.153  10.196 -0.2709 -0.8277  0.4647
  708MOL0     C97626   2.019   2.145  10.129  0.0147  0.1618  0.6364
  708MOL0     C97627   1.906   2.182  10.223  0.2565 -0.1695  0.7461
  708MOL0     C97628   1.926   2.317  10.293  0.5280 -0.1513  0.6824
  708MOL0     C97629   1.865   2.325  10.432  0.2846 -0.1016 -0.0142
  708MOL0     C97630   1.717   2.311  10.427  0.4590  0.2002 -0.0104
  708MOL0     C97631   1.604   2.279  10.423  0.1287  0.1474  0.7915
  708MOL0     C97632   2.282   2.164   9.969  0.4510  0.3617 -0.6043
  708MOL0     C97633   2.403   2.176   9.900  0.0434  0.0189 -0.4201
  708MOL0     C97634   2.386   2.170   9.742  0.2034 -0.1692  0.2223
  708MOL0     H97635   2.916   2.014   9.870 -0.6816  0.4027 -0.2504
  708MOL0     H97636   3.161   2.068   9.787 -0.4431  0.0555  0.3935
  708MOL0     H97637   3.371   2.153   9.706 -3.0150 -1.2963  0.9092
  708MOL0     H97638   3.345   2.097   9.865  0.8636 -2.1471 -2.4403
  708MOL0     H97639   3.549   2.308   9.792 -2.0229 -0.7847 -0.7742
  708MOL0     H97640   3.508   2.255   9.959  2.1781  0.5219  0.1435
  708MOL0     H97641   3.544   2.012   9.867  0.0866 -1.1796  0.1094
  708MOL0     H97642   3.627   2.095   9.734 -1.5294  1.5920 -0.1591
  708MOL0     H97643   3.765   2.221   9.929  0.1022  0.4095 -1.6085
  708MOL0     H97644   3.690   2.109  10.042 -0.3713 -1.6314  0.1077
  708MOL0     H97645   3.794   1.915   9.918  0.5213 -0.4873  1.1685
  708MOL0     H97646   3.905   2.028  10.007 -0.2771  0.3166 -0.5455
  708MOL0     H97647   3.849   2.050   9.714  1.9531 -1.7830 -3.0958
  708MOL0     H97648   3.960   2.150   9.788 -1.8623  0.5287 -1.9937
  708MOL0     H97649   4.010   1.862   9.829  1.8733  0.3199  0.2092
  708MOL0     H97650   4.132   1.980   9.837  0.6827 -1.4796 -0.2745
  708MOL0     H97651   3.993   1.914   9.576  1.5497 -1.3035 -0.4133
  708MOL0     H97652   4.096   2.056   9.594 -0.6789  0.0335 -0.3906
  708MOL0     H97653   4.076   1.702   9.534  0.1465  0.4517 -0.0195
  708MOL0     H97654   4.393   1.647   9.329 -1.2988 -0.5137 -1.2087
  708MOL0     H97655   4.250   1.554   9.380 -1.0343  0.1059  0.2948
  708MOL0     H97656   4.365   1.468   9.586  1.2340  0.1634  0.2869
  708MOL0     H97657   4.457   1.425   9.441  2.4530  1.2749 -1.9676
  708MOL0     H97658   4.529   1.636   9.645  1.0928 -0.9644  1.6767
  708MOL0     H97659   4.596   1.471   9.610 -1.1580 -1.0096 -1.4573
  708MOL0     H97660   4.604   1.699   9.428 -2.7285 -0.9658  1.1535
  708MOL0     H97661   4.745   1.650   9.534  0.0408 -1.3101  1.1824
  708MOL0     H97662   4.809   1.736   9.303 -1.1556 -1.1764  2.4104
  708MOL0     H97663   5.092   1.808   9.123 -2.8282 -0.1209  0.1476
  708MOL0     H97664   5.131   1.842   9.288  0.4358  0.8603 -1.4947
  708MOL0     H97665   4.964   1.880   9.218 -0.5510  0.3424 -4.5251
  708MOL0     H97666   5.252   1.385   8.850 -1.0357  2.6933  1.2034
  708MOL0     H97667   5.440   1.362   8.682 -1.9677 -0.7639  0.6583
  708MOL0     H97668   5.613   1.376   8.575 -2.5997  1.5956 -0.0766
  708MOL0     H97669   5.641   1.548   8.592 -0.0643  0.5685 -2.6827
  708MOL0     H97670   5.824   1.515   8.462  2.3847  1.3453  1.3396
  708MOL0     H97671   5.911   1.465   8.598  2.2123  0.7403 -2.5348
  708MOL0     H97672   5.786   1.285   8.399 -0.9176  3.2572 -0.0567
  708MOL0     H97673   5.857   1.232   8.569  1.8640 -1.4683 -1.0650
  708MOL0     H97674   6.061   1.334   8.520  1.8532  0.6646 -0.2904
  708MOL0     H97675   6.018   1.372   8.352  4.1415 -1.1418 -0.0908
  708MOL0     H97676   6.015   1.088   8.473 -2.3015  0.3198 -0.5077
  708MOL0     H97677   6.029   1.120   8.297  1.1747  1.6401 -0.9498
  708MOL0     H97678   6.232   1.180   8.506  1.1473 -2.8176 -0.3041
  708MOL0     H97679   6.237   1.243   8.335  1.1772  0.6859  0.4272
  708MOL0     H97680   6.235   1.000   8.257 -1.6039 -3.0213  1.0948
  708MOL0     H97681   6.240   0.955   8.421  0.3908 -0.8369  0.1305
  708MOL0     H97682   6.453   1.069   8.459 -0.8184  0.6060 -0.2196
  708MOL0     H97683   6.442   1.136   8.293  0.7207 -1.1696  0.0573
  708MOL0     H97684   5.709   1.503   8.995  0.2157 -0.1861  1.5597
  708MOL0     H97685   5.513   1.505   9.159  0.7136 -0.0724  0.1890
  708MOL0     H97686   5.068   1.339   9.211 -0.5009 -0.9038  2.0700
  708MOL0     H97687   4.846   1.329   9.336 -1.8820  1.8055  1.0937
  708MOL0     H97688   3.102   2.472   9.922  1.3845 -0.2734  2.0654
  708MOL0     H97689   2.861   2.407   9.996  0.1176 -1.5729  2.4682
  708MOL0     H97690   2.594   2.243  10.185  1.1440  1.9685 -1.4723
  708MOL0     H97691   2.399   2.229  10.295  1.8655 -0.6062 -0.8287
  708MOL0     H97692   2.008   2.208  10.041  0.3916 -1.5139 -0.6647
  708MOL0     H97693   2.001   2.045  10.087  1.2319  0.3374 -0.3684
  708MOL0     H97694   1.913   2.100  10.295  1.2236 -0.2404  0.5896
  708MOL0     H97695   1.809   2.179  10.172  0.0808 -2.4503  1.1183
  708MOL0     H97696   2.033   2.333  10.307  0.3637  0.8877  0.8035
  708MOL0     H97697   1.886   2.390  10.223  2.3710  0.7103  0.4633
  708MOL0     H97698   1.905   2.416  10.480  1.3221 -0.1605 -0.7497
  708MOL0     H97699   1.898   2.238  10.490  0.8145 -0.3523 -0.6866
  708MOL0     H97700   1.504   2.240  10.426 -0.2271  1.1007  2.8028
  708MOL0     H97701   2.190   2.146   9.916 -1.2269 -0.0809  2.2437
  708MOL0     H97702   2.284   2.149   9.709 -0.1077  1.1789  0.2667
  708MOL0     H97703   2.409   2.269   9.701  0.8510 -0.3072  0.2347
  708MOL0     H97704   2.454   2.096   9.699  0.3347  0.1416 -0.1185
  709MOL0     O97705   6.128   9.016   7.759  0.1830  0.3000 -0.2752
  709MOL0     C97706   6.119   9.093   7.663 -0.4081 -0.3513  0.3536
  709MOL0     O97707   6.217   9.176   7.629  0.2944  0.4146  0.5201
  709MOL0     C97708   6.329   9.171   7.706 -0.5273  0.3371  0.0975
  709MOL0     C97709   6.434   9.103   7.647  0.3059  0.6201 -0.2251
  709MOL0     C97710   6.550   9.084   7.719 -0.8342 -0.1122  0.8658
  709MOL0     C97711   6.565   9.125   7.855  0.2402  0.2713  0.2709
  709MOL0     O97712   6.684   9.107   7.920 -0.1304 -0.0499  0.6241
  709MOL0     C97713   6.708   9.176   8.042  0.4448 -0.2797 -0.2554
  709MOL0     C97714   6.852   9.169   8.084 -0.2751 -0.3443  0.3017
  709MOL0     C97715   6.894   9.043   8.157  0.1639  0.1011 -0.0480
  709MOL0     C97716   7.020   9.071   8.230 -0.1823  0.6366 -0.0905
  709MOL0     C97717   7.140   9.096   8.138 -0.5476 -0.3150  0.7011
  709MOL0     C97718   7.280   9.072   8.209  0.6657  0.7384  0.1235
  709MOL0     C97719   7.382   9.075   8.099  0.1945  0.2172 -0.1829
  709MOL0     C97720   7.519   9.028   8.149  0.3309  0.0527  0.7497
  709MOL0     N97721   7.525   8.882   8.187  0.2272 -0.3357  0.4368
  709MOL0     C97722   7.533   8.842   8.313 -0.3834 -0.0296 -0.2470
  709MOL0     C97723   7.531   8.713   8.314 -0.2017  0.3207  0.5043
  709MOL0     C97724   7.502   8.645   8.438  0.4282 -0.0873  0.2622
  709MOL0     C97725   7.632   8.614   8.498 -0.7046 -0.8370  0.3034
  709MOL0     C97726   7.623   8.505   8.604 -0.2673  0.3024  0.5000
  709MOL0     C97727   7.755   8.443   8.656 -0.1570  0.1039  0.7744
  709MOL0     O97728   7.844   8.540   8.713  0.1679  0.1335  0.1135
  709MOL0     C97729   7.976   8.530   8.678  0.0608 -0.2398 -0.0907
  709MOL0     C97730   8.047   8.641   8.673 -0.0204  0.3428  0.1782
  709MOL0     C97731   8.180   8.651   8.623 -0.3602 -0.1195 -0.0447
  709MOL0     C97732   8.229   8.788   8.611 -0.5321  0.1482 -0.0196
  709MOL0     C97733   8.248   8.527   8.610 -0.3560  0.5078 -0.0612
  709MOL0     C97734   8.385   8.522   8.565 -0.1231  0.2045 -0.3029
  709MOL0     O97735   8.434   8.399   8.543 -0.1501 -0.2637 -0.4312
  709MOL0     C97736   8.561   8.396   8.489 -0.1656  0.8745  0.8112
  709MOL0     C97737   8.568   8.439   8.357 -0.0623 -0.9784 -0.2824
  709MOL0     C97738   8.695   8.443   8.292  0.0738 -0.4425  0.2642
  709MOL0     C97739   8.800   8.397   8.362 -1.2438  0.3024 -0.5731
  709MOL0     O97740   8.918   8.409   8.294  0.1068  0.2838  0.2198
  709MOL0     C97741   9.039   8.412   8.368 -0.3003  0.0513 -0.6064
  709MOL0     C97742   9.155   8.404   8.259  0.7021 -0.6645 -0.8029
  709MOL0     C97743   9.286   8.402   8.332  0.5903  0.0171  0.1322
  709MOL0     C97744   9.326   8.544   8.377 -0.7802 -0.7978 -0.9049
  709MOL0     C97745   9.462   8.538   8.456 -0.1451  0.1521  0.3552
  709MOL0     C97746   9.485   8.676   8.510 -0.6738 -0.8451 -0.8266
  709MOL0     C97747   9.625   8.658   8.577  0.6049  0.1305  0.1607
  709MOL0     C97748   9.663   8.788   8.637 -0.2447  1.1505  0.7885
  709MOL0    Cl97749   9.812   8.776   8.725  0.0088  0.0451  0.7921
  709MOL0     C97750   8.793   8.355   8.502  0.2155  0.5402  0.2585
  709MOL0     C97751   8.671   8.339   8.556  0.1733  0.1860 -0.5289
  709MOL0     O97752   8.455   8.625   8.554 -0.6880 -0.0232  0.0783
  709MOL0     C97753   8.183   8.410   8.621  0.0172 -0.6062  0.2660
  709MOL0     C97754   8.047   8.413   8.654  0.1427 -0.8806 -0.2638
  709MOL0     N97755   7.528   8.664   8.191  0.0687 -0.7673  0.6857
  709MOL0     N97756   7.507   8.767   8.110 -0.0793 -0.0739 -0.3706
  709MOL0     C97757   6.449   9.191   7.915  0.9719  1.0315  0.4668
  709MOL0     C97758   6.331   9.215   7.839  0.3435  0.1922  0.6748
  709MOL0     C97759   5.986   9.074   7.583 -0.0051 -0.5416 -1.2594
  709MOL0     C97760   5.900   9.186   7.574  0.1488  0.3438  1.1325
  709MOL0     C97761   5.774   9.176   7.507 -0.2454 -0.4592  0.1049
  709MOL0     C97762   5.726   9.050   7.459 -0.5657  0.3804  0.3489
  709MOL0     O97763   5.603   9.026   7.398 -0.1844  0.6725 -0.4060
  709MOL0     C97764   5.512   9.140   7.377 -1.0246  0.5339 -0.0271
  709MOL0     C97765   5.380   9.086   7.322  0.1262 -0.2651  0.2114
  709MOL0     C97766   5.284   9.201   7.266 -0.1770  0.6850 -0.5785
  709MOL0     C97767   5.137   9.150   7.265 -0.4728  0.1724  0.3584
  709MOL0     C97768   5.061   9.263   7.227  0.4465  0.0244 -0.5405
  709MOL0     C97769   4.998   9.365   7.207 -0.1358 -0.5364 -0.1593
  709MOL0     C97770   5.811   8.939   7.479  0.2376  0.3841  0.7358
  709MOL0     C97771   5.939   8.946   7.538 -0.3463 -0.3719 -0.2747
  709MOL0     C97772   6.025   8.817   7.555  0.3046 -0.2896 -0.7502
  709MOL0     H97773   6.417   9.082   7.541 -0.6129 -1.4550  0.2852
  709MOL0     H97774   6.630   9.021   7.682 -0.4807  1.2720 -0.8374
  709MOL0     H97775   6.642   9.130   8.117  0.6320 -0.6584 -0.3214
  709MOL0     H97776   6.683   9.279   8.015  0.0889 -1.2767 -4.3576
  709MOL0     H97777   6.918   9.178   7.998  0.0062 -0.0263  0.5487
  709MOL0     H97778   6.868   9.264   8.135 -2.3361 -0.1057  0.6087
  709MOL0     H97779   6.821   9.015   8.232 -0.1143  2.1738  0.5238
  709MOL0     H97780   6.901   8.955   8.092  0.8892  0.7693 -0.9085
  709MOL0     H97781   7.013   9.156   8.297  1.8229  2.1492 -1.6598
  709MOL0     H97782   7.041   8.977   8.283  2.2445  2.1497  1.8639
  709MOL0     H97783   7.134   9.194   8.090 -1.7202 -0.3270  0.7960
  709MOL0     H97784   7.125   9.020   8.061 -2.2009 -0.2504  0.9185
  709MOL0     H97785   7.301   9.155   8.277  0.2945 -1.5851  3.3208
  709MOL0     H97786   7.294   8.980   8.267 -2.0546 -1.8320 -2.9349
  709MOL0     H97787   7.391   9.178   8.063  1.9815 -0.8702 -3.1378
  709MOL0     H97788   7.352   9.019   8.010 -2.7872  1.0548  0.1623
  709MOL0     H97789   7.585   9.048   8.064 -2.8858  1.8558 -1.5175
  709MOL0     H97790   7.558   9.093   8.228 -1.0268 -0.8246  2.2263
  709MOL0     H97791   7.531   8.909   8.398  0.4951 -0.4159  0.0807
  709MOL0     H97792   7.446   8.554   8.413 -2.7063  1.3943  1.4250
  709MOL0     H97793   7.435   8.708   8.497  2.4702  0.4115  2.2087
  709MOL0     H97794   7.704   8.569   8.429 -0.0417 -1.5775  1.4390
  709MOL0     H97795   7.662   8.713   8.534 -0.1632  0.0380 -2.3826
  709MOL0     H97796   7.565   8.551   8.684  0.2045  1.7800  0.0235
  709MOL0     H97797   7.571   8.423   8.553  0.9492  0.8731 -1.7946
  709MOL0     H97798   7.729   8.360   8.722 -2.6828 -0.2993 -0.6089
  709MOL0     H97799   7.795   8.389   8.570 -1.4511 -0.4828  0.5224
  709MOL0     H97800   7.992   8.730   8.703 -1.9400 -0.2927 -1.2471
  709MOL0     H97801   8.147   8.857   8.596 -1.7041 -0.8863  1.3159
  709MOL0     H97802   8.304   8.789   8.532  1.4582 -0.5741  1.7375
  709MOL0     H97803   8.287   8.805   8.703  1.4933 -1.6419 -0.8752
  709MOL0     H97804   8.481   8.488   8.315  0.8432  0.5282 -0.4851
  709MOL0     H97805   8.699   8.502   8.201 -2.9659  1.7985  1.4062
  709MOL0     H97806   9.041   8.509   8.419 -1.1768  0.6152 -1.5950
  709MOL0     H97807   9.059   8.327   8.433 -0.7233 -0.6321 -1.3446
  709MOL0     H97808   9.134   8.318   8.196 -1.4468 -0.4364 -0.4880
  709MOL0     H97809   9.156   8.494   8.197 -2.1540  0.7927  1.0265
  709MOL0     H97810   9.352   8.357   8.257 -1.9982 -1.3531 -1.4552
  709MOL0     H97811   9.292   8.343   8.424 -0.0060  1.3825  1.0907
  709MOL0     H97812   9.245   8.586   8.437 -1.7680 -0.0678 -2.6886
  709MOL0     H97813   9.342   8.599   8.284  0.0748 -1.6690 -1.2899
  709MOL0     H97814   9.461   8.462   8.535 -0.9636  0.2121  0.4153
  709MOL0     H97815   9.543   8.515   8.386  0.2728  0.7395  0.6367
  709MOL0     H97816   9.408   8.706   8.582 -1.3045 -0.1122 -1.7793
  709MOL0     H97817   9.485   8.751   8.430 -2.4739 -0.2503 -0.3170
  709MOL0     H97818   9.695   8.636   8.496  1.4978  0.7525  0.7388
  709MOL0     H97819   9.622   8.585   8.659 -0.6075  0.3895  0.3681
  709MOL0     H97820   9.591   8.838   8.702 -0.6078 -0.4786  1.6845
  709MOL0     H97821   9.686   8.845   8.546 -0.2555 -0.3093 -0.1690
  709MOL0     H97822   8.882   8.326   8.556  1.5004  3.1035 -0.3680
  709MOL0     H97823   8.645   8.291   8.650 -0.3037  0.2737 -0.6135
  709MOL0     H97824   8.233   8.314   8.616 -2.2474 -1.8807  0.4499
  709MOL0     H97825   8.000   8.316   8.652  1.9746 -1.7982 -0.9735
  709MOL0     H97826   6.438   9.224   8.018  1.8140 -1.0410  1.2827
  709MOL0     H97827   6.255   9.266   7.897  0.2036 -0.6163  1.2112
  709MOL0     H97828   5.950   9.275   7.612  0.9951  0.5074 -0.2617
  709MOL0     H97829   5.708   9.261   7.493  1.0326  0.2680 -2.0581
  709MOL0     H97830   5.487   9.176   7.477  0.6406 -2.2553  1.5021
  709MOL0     H97831   5.560   9.221   7.322  1.7835  1.1716  3.0132
  709MOL0     H97832   5.331   9.040   7.408 -1.0870 -1.0977 -0.8877
  709MOL0     H97833   5.403   9.027   7.233  0.2976  1.0770 -0.6592
  709MOL0     H97834   5.299   9.295   7.319  5.3758  0.4065 -1.1089
  709MOL0     H97835   5.327   9.225   7.168 -1.3068  2.1127 -0.7583
  709MOL0     H97836   5.109   9.130   7.369 -2.4940  1.8439  0.2097
  709MOL0     H97837   5.123   9.065   7.198 -1.6701  0.4507  0.2315
  709MOL0     H97838   4.950   9.459   7.184  1.8697  0.5674 -0.0246
  709MOL0     H97839   5.775   8.848   7.431 -2.2281  1.2695  0.7632
  709MOL0     H97840   6.003   8.762   7.647 -2.1008 -0.2735 -1.2530
  709MOL0     H97841   5.998   8.753   7.471  0.9759  0.6080 -1.6747
  709MOL0     H97842   6.132   8.841   7.558  0.5945 -1.6165  0.7705
  710MOL0     O97843   3.536   4.493   0.525  0.1558 -0.1413  0.1838
  710MOL0     C97844   3.493   4.450   0.631 -0.1873 -0.3042  0.5137
  710MOL0     O97845   3.570   4.375   0.713 -0.5776 -0.5318  0.0565
  710MOL0     C97846   3.708   4.384   0.723  0.1639 -0.0132 -0.1716
  710MOL0     C97847   3.772   4.302   0.808  0.1284 -0.3915 -0.2298
  710MOL0     C97848   3.915   4.293   0.821 -0.7358 -0.7947 -0.2022
  710MOL0     C97849   3.992   4.395   0.766 -0.1906 -0.4588 -1.0100
  710MOL0     O97850   4.120   4.422   0.780 -0.6068 -0.0318 -0.5361
  710MOL0     C97851   4.200   4.342   0.864  0.1570  0.3380  0.5291
  710MOL0     C97852   4.243   4.213   0.788  0.0264  0.2027 -0.2655
  710MOL0     C97853   4.348   4.138   0.870 -0.5471 -0.7316 -0.2515
  710MOL0     C97854   4.377   3.997   0.815  0.4235 -0.6252 -0.8391
  710MOL0     C97855   4.492   3.920   0.888  0.4698 -0.4147 -0.4788
  710MOL0     C97856   4.519   3.785   0.832 -0.1981 -0.2509  0.1370
  710MOL0     C97857   4.556   3.786   0.675  0.2954  0.6298  0.2691
  710MOL0     C97858   4.564   3.636   0.632 -0.3093 -0.3700  0.2089
  710MOL0     N97859   4.451   3.602   0.540 -0.1233 -0.4167  0.5440
  710MOL0     C97860   4.459   3.584   0.404  0.6150  0.6175 -0.5635
  710MOL0     C97861   4.340   3.536   0.367 -0.1582  0.7373  0.0890
  710MOL0     C97862   4.318   3.478   0.235  0.8524 -0.8061  0.9375
  710MOL0     C97863   4.318   3.593   0.125 -0.6481  1.2977 -0.2042
  710MOL0     C97864   4.340   3.547  -0.015  0.2180 -0.1269 -0.1693
  710MOL0     C97865   4.448   3.442  -0.049 -0.7670 -0.6169 -0.1696
  710MOL0     O97866   4.569   3.488   0.015 -0.2120 -0.1231  0.2714
  710MOL0     C97867   4.676   3.445  -0.064  0.7504  0.9995 -0.1019
  710MOL0     C97868   4.699   3.310  -0.096  0.3723  0.1592  0.3079
  710MOL0     C97869   4.822   3.276  -0.147  0.5048  0.7995 -0.1382
  710MOL0     C97870   4.835   3.122  -0.160  0.5291 -0.8817 -0.5933
  710MOL0     C97871   4.925   3.369  -0.189  0.6020 -0.1385 -0.2565
  710MOL0     C97872   5.059   3.331  -0.241  0.0613  0.0655 -0.0831
  710MOL0     O97873   5.177   3.409  -0.229  0.5102 -0.0673  0.2806
  710MOL0     C97874   5.298   3.368  -0.272  1.0289  0.0467 -0.9481
  710MOL0     C97875   5.334   3.271  -0.377 -0.1357 -0.5709 -0.1568
  710MOL0     C97876   5.464   3.243  -0.407 -1.3659 -0.4905 -0.3406
  710MOL0     C97877   5.572   3.300  -0.332 -0.0186  0.2554  0.4280
  710MOL0     O97878   5.707   3.268  -0.342 -0.0380 -0.2866 -0.0193
  710MOL0     C97879   5.753   3.154  -0.405 -0.1418  0.1988 -0.3663
  710MOL0     C97880   5.903   3.136  -0.379 -1.1168 -0.0208 -0.9376
  710MOL0     C97881   5.935   3.117  -0.234  1.7579  0.4238 -0.2308
  710MOL0     C97882   6.077   3.071  -0.215 -0.9535  0.0335  0.5525
  710MOL0     C97883   6.101   3.042  -0.061  0.1703 -0.2468 -0.1358
  710MOL0     C97884   6.240   2.987  -0.028  0.8152 -0.2678  0.3714
  710MOL0     C97885   6.365   3.040  -0.091 -0.3948  0.5312 -0.1372
  710MOL0     C97886   6.479   2.975  -0.031 -0.0240 -0.5381  0.8321
  710MOL0    Cl97887   6.623   3.068  -0.079 -0.1576  0.1179  0.0890
  710MOL0     C97888   5.535   3.403  -0.242 -0.2282  0.6104 -1.2201
  710MOL0     C97889   5.402   3.439  -0.209  0.7947  0.0584  0.4554
  710MOL0     O97890   5.058   3.225  -0.299 -0.5093  1.0491 -0.5259
  710MOL0     C97891   4.893   3.506  -0.160 -0.3336 -0.2056 -0.3608
  710MOL0     C97892   4.770   3.540  -0.104 -0.2554  0.6785 -0.4436
  710MOL0     N97893   4.258   3.523   0.476 -0.3020  0.8682 -0.9847
  710MOL0     N97894   4.323   3.568   0.584  0.4334 -0.1272 -0.1685
  710MOL0     C97895   3.922   4.497   0.704 -0.2255  0.8857  0.2791
  710MOL0     C97896   3.785   4.493   0.683  0.0412  0.0519  0.3406
  710MOL0     C97897   3.351   4.463   0.678 -0.5976  0.5789 -0.5766
  710MOL0     C97898   3.313   4.381   0.792  0.8601 -0.6780 -0.3789
  710MOL0     C97899   3.182   4.388   0.834  0.4748 -0.2630  0.1538
  710MOL0     C97900   3.076   4.447   0.753 -1.1101  0.6789 -0.7233
  710MOL0     O97901   2.944   4.422   0.786 -0.3425  0.4019  0.8781
  710MOL0     C97902   2.898   4.428   0.923 -0.5700 -0.1329 -0.6860
  710MOL0     C97903   2.921   4.564   0.992 -1.4202  1.3266  0.1261
  710MOL0     C97904   2.852   4.672   0.912 -0.0921  0.0029 -0.2443
  710MOL0     C97905   2.811   4.790   1.000  0.2496 -0.3937  0.4992
  710MOL0     C97906   2.920   4.864   1.052  0.2507 -0.3073  0.8090
  710MOL0     C97907   3.012   4.931   1.098  0.7977  0.0816  0.0915
  710MOL0     C97908   3.113   4.535   0.658 -1.0817  0.4109 -0.3606
  710MOL0     C97909   3.252   4.544   0.614 -0.4744  0.5114 -0.7608
  710MOL0     C97910   3.278   4.619   0.483  0.1689  1.2918  0.0548
  710MOL0     H97911   3.724   4.220   0.860 -0.2370 -0.7895 -1.1841
  710MOL0     H97912   3.968   4.212   0.869 -0.5502 -0.4455  0.1957
  710MOL0     H97913   4.139   4.306   0.947 -0.1516  0.7050  0.4603
  710MOL0     H97914   4.290   4.394   0.899 -0.6328  2.3738 -0.3376
  710MOL0     H97915   4.150   4.159   0.772 -2.9785  3.4162  3.8969
  710MOL0     H97916   4.287   4.245   0.693  2.4712  0.1385  0.7638
  710MOL0     H97917   4.435   4.204   0.863 -2.1942  1.4059 -1.7122
  710MOL0     H97918   4.317   4.125   0.975  0.5376 -1.3966  0.0050
  710MOL0     H97919   4.284   3.940   0.819 -0.6550  1.1379  1.8771
  710MOL0     H97920   4.388   4.014   0.708 -1.1956 -0.5197 -0.9992
  710MOL0     H97921   4.470   3.908   0.994  3.4022 -1.2032  0.1316
  710MOL0     H97922   4.589   3.970   0.877  0.6136  0.0539  2.2619
  710MOL0     H97923   4.605   3.741   0.884  1.1875 -1.0892 -2.6293
  710MOL0     H97924   4.430   3.724   0.852 -0.1054 -0.1688  0.8119
  710MOL0     H97925   4.653   3.829   0.649  0.1879 -0.0249 -1.3679
  710MOL0     H97926   4.484   3.839   0.612 -1.7113 -1.3574  0.7544
  710MOL0     H97927   4.661   3.608   0.590 -1.0962 -1.7681 -0.7499
  710MOL0     H97928   4.547   3.574   0.720 -3.5378 -1.0380 -0.7548
  710MOL0     H97929   4.545   3.594   0.339  1.8000 -0.4517  0.7786
  710MOL0     H97930   4.226   3.419   0.237 -0.3475  0.9217 -0.3617
  710MOL0     H97931   4.407   3.419   0.212  1.9716  0.6668  1.3413
  710MOL0     H97932   4.225   3.650   0.134 -1.4100  0.2164 -0.9828
  710MOL0     H97933   4.396   3.664   0.154  2.5133 -2.4714  1.4876
  710MOL0     H97934   4.251   3.507  -0.063  0.8764  1.2074 -2.6985
  710MOL0     H97935   4.361   3.641  -0.066  2.0267  0.7270  1.9640
  710MOL0     H97936   4.417   3.344  -0.011 -1.9656 -0.5602 -0.9244
  710MOL0     H97937   4.454   3.437  -0.158 -0.8892  2.0300 -0.3582
  710MOL0     H97938   4.622   3.242  -0.064  0.0449 -0.3625 -1.4698
  710MOL0     H97939   4.938   3.103  -0.127  0.9290 -1.3941 -2.0375
  710MOL0     H97940   4.820   3.074  -0.257 -2.0893 -3.0157  0.7151
  710MOL0     H97941   4.757   3.076  -0.099  0.1244  0.2535 -0.2431
  710MOL0     H97942   5.262   3.233  -0.448  1.3807 -1.3425 -1.3283
  710MOL0     H97943   5.474   3.165  -0.483 -1.1754  0.7501 -1.6398
  710MOL0     H97944   5.709   3.058  -0.375  0.8414 -1.2030 -3.0238
  710MOL0     H97945   5.740   3.165  -0.513  1.0993  0.9512 -0.4540
  710MOL0     H97946   5.935   3.045  -0.431 -1.6554 -0.7247 -0.0777
  710MOL0     H97947   5.960   3.221  -0.418 -2.0628  0.2522 -1.7792
  710MOL0     H97948   5.868   3.041  -0.192  1.3471  1.4068  0.9721
  710MOL0     H97949   5.919   3.212  -0.181 -0.5542 -1.1846  2.1977
  710MOL0     H97950   6.147   3.142  -0.259 -2.1446  1.1338  0.3804
  710MOL0     H97951   6.089   2.976  -0.268 -0.3310 -0.1144  0.9471
  710MOL0     H97952   6.094   3.132   0.002  0.5367 -0.6024  0.4197
  710MOL0     H97953   6.017   2.978  -0.031  0.3103 -0.6690 -0.6327
  710MOL0     H97954   6.237   2.883  -0.064 -0.3355  0.4365 -1.7757
  710MOL0     H97955   6.251   2.990   0.080  0.5535 -0.2985  0.4004
  710MOL0     H97956   6.363   3.149  -0.087 -0.5293  0.5066  1.4465
  710MOL0     H97957   6.362   3.021  -0.198  0.0738 -4.2177  0.4360
  710MOL0     H97958   6.483   2.872  -0.067 -2.2678 -0.2474 -0.4382
  710MOL0     H97959   6.468   2.981   0.078  1.1408 -0.2244  0.9437
  710MOL0     H97960   5.613   3.451  -0.184 -0.1587 -1.2497  0.3398
  710MOL0     H97961   5.393   3.524  -0.142  0.3681  2.0138 -1.9310
  710MOL0     H97962   4.963   3.587  -0.181 -0.9198 -0.0065 -1.6070
  710MOL0     H97963   4.751   3.641  -0.070 -1.8470  0.4971 -0.6995
  710MOL0     H97964   3.982   4.580   0.666 -0.8622  1.1914 -0.0848
  710MOL0     H97965   3.724   4.568   0.634 -0.3302 -0.6240 -0.2564
  710MOL0     H97966   3.378   4.315   0.848  1.0748 -0.0752  0.0930
  710MOL0     H97967   3.159   4.327   0.920  0.2103  0.6319  0.7267
  710MOL0     H97968   2.790   4.408   0.920 -1.0321  2.0457 -0.0254
  710MOL0     H97969   2.952   4.350   0.977  0.1857 -0.4820 -1.9007
  710MOL0     H97970   3.027   4.587   0.999 -0.7945 -0.2792 -2.5600
  710MOL0     H97971   2.883   4.549   1.094 -1.6085 -4.0539 -0.4352
  710MOL0     H97972   2.919   4.704   0.832  0.2168 -1.2469 -0.5059
  710MOL0     H97973   2.761   4.628   0.870  0.2191 -0.0404 -0.8872
  710MOL0     H97974   2.739   4.773   1.081 -1.3331  0.1722 -0.7484
  710MOL0     H97975   2.760   4.872   0.949  1.8446  0.0506 -0.4286
  710MOL0     H97976   3.091   4.987   1.144  0.6539 -0.5791  1.1896
  710MOL0     H97977   3.026   4.579   0.609 -0.6613  1.0017 -0.5871
  710MOL0     H97978   3.192   4.682   0.459  0.7459  0.5006 -5.3337
  710MOL0     H97979   3.370   4.678   0.480  0.5427  0.7095 -0.0014
  710MOL0     H97980   3.285   4.561   0.390  0.2445  0.3769  0.6145
  711MOL0     O97981   9.641  10.113   4.050 -0.6551 -0.2636  0.6016
  711MOL0     C97982   9.619  10.220   3.995 -0.7875 -0.9833  0.1024
  711MOL0     O97983   9.713  10.321   3.962  0.1605  0.3940 -0.1986
  711MOL0     C97984   9.842  10.296   3.995  0.0504  0.0705 -1.7139
  711MOL0     C97985   9.933  10.274   3.895  0.9727  0.9424  0.1412
  711MOL0     C97986  10.063  10.247   3.929  0.3090  0.1737  0.2540
  711MOL0     C97987  10.106  10.266   4.058 -0.1151  0.9855 -1.5053
  711MOL0     O97988  10.239  10.256   4.081 -0.1444 -0.2657  0.5857
  711MOL0     C97989  10.291  10.265   4.226  0.3975 -0.6348 -0.4621
  711MOL0     C97990  10.444  10.259   4.212 -0.0190 -0.1558 -0.5707
  711MOL0     C97991  10.501  10.376   4.120  0.1159  0.1679  0.3268
  711MOL0     C97992  10.652  10.363   4.103 -0.2157  0.0487 -0.8736
  711MOL0     C97993  10.701  10.469   4.006 -0.1492  0.4767 -0.2384
  711MOL0     C97994  10.854  10.478   4.004  0.1872  0.2408 -0.8273
  711MOL0     C97995  10.906  10.609   3.951  0.4635  0.0874 -0.0694
  711MOL0     C97996  11.061  10.609   3.938  0.0305 -0.8334  0.5890
  711MOL0     N97997  11.115  10.543   3.819  0.7109  0.1400  0.9181
  711MOL0     C97998  11.116  10.597   3.696 -0.2536  0.4743  0.0515
  711MOL0     C97999  11.152  10.497   3.611  0.4517 -0.3666  0.1027
  711MOL0     C98000  11.184  10.510   3.466  0.1980 -0.2296  0.7313
  711MOL0     C98001  11.117  10.403   3.372  0.6094  0.5181  0.1614
  711MOL0     C98002  10.971  10.429   3.346 -0.9229 -0.3749 -0.3064
  711MOL0     C98003  10.905  10.320   3.259 -0.6886  0.3189  0.4799
  711MOL0     O98004  10.915  10.349   3.122 -0.9473  0.0789 -0.0128
  711MOL0     C98005  11.007  10.292   3.040 -0.7140 -0.0732 -0.0392
  711MOL0     C98006  10.978  10.287   2.908 -0.2958  0.5570  0.5610
  711MOL0     C98007  11.066  10.250   2.805 -0.1999 -0.3967 -0.1372
  711MOL0     C98008  11.045  10.293   2.662  0.3109 -0.2236 -0.4176
  711MOL0     C98009  11.191  10.212   2.848 -0.2779  0.7823  0.7112
  711MOL0     C98010  11.313  10.181   2.767  0.2005  0.4656  0.7845
  711MOL0     O98011  11.431  10.165   2.834  0.0488 -0.9474  0.3084
  711MOL0     C98012  11.559  10.164   2.781 -0.4635 -0.2741  0.3158
  711MOL0     C98013  11.670  10.152   2.869 -0.2539  1.2541  1.3399
  711MOL0     C98014  11.805  10.145   2.823  0.6255 -0.6479 -0.3672
  711MOL0     C98015  11.837  10.142   2.691  0.4143 -0.2207 -0.0640
  711MOL0     O98016  11.966  10.147   2.647 -0.0126 -0.0224  0.1937
  711MOL0     C98017  11.999  10.073   2.522  0.0337  0.2105 -0.2637
  711MOL0     C98018  12.151  10.057   2.516 -0.4161 -0.7289 -0.2232
  711MOL0     C98019  12.209   9.972   2.629  0.8633  0.4853  1.1156
  711MOL0     C98020  12.352   9.926   2.607 -0.4854  0.2202  0.5870
  711MOL0     C98021  12.409   9.879   2.747 -0.0418  0.3401 -0.7020
  711MOL0     C98022  12.546   9.829   2.741  0.2518  0.1285 -0.0878
  711MOL0     C98023  12.624   9.819   2.870 -0.4531  0.0226 -0.3803
  711MOL0     C98024  12.565   9.722   2.980 -0.2531 -0.4946  0.6830
  711MOL0    Cl98025  12.559   9.558   2.926 -0.1789  0.2420  0.0144
  711MOL0     C98026  11.726  10.151   2.603 -0.6178  0.3522  0.7759
  711MOL0     C98027  11.597  10.169   2.648  0.2021  0.2163 -0.0040
  711MOL0     O98028  11.295  10.161   2.649  0.2343  0.1966 -0.2561
  711MOL0     C98029  11.212  10.183   2.985 -0.5848 -0.0202 -0.0403
  711MOL0     C98030  11.124  10.216   3.078  0.7707 -0.0885 -0.5180
  711MOL0     N98031  11.172  10.386   3.701  0.4998  0.5484 -0.1437
  711MOL0     N98032  11.135  10.412   3.819 -0.3595  0.1519 -0.5689
  711MOL0     C98033  10.012  10.287   4.158  1.1836  0.1144 -1.4707
  711MOL0     C98034   9.882  10.292   4.127 -0.0369 -0.4662  0.0487
  711MOL0     C98035   9.485  10.252   3.960 -0.3249 -0.4257 -0.0836
  711MOL0     C98036   9.467  10.329   3.842  0.0198 -0.1040  0.6870
  711MOL0     C98037   9.332  10.364   3.802  0.6806 -0.1409 -0.2750
  711MOL0     C98038   9.227  10.312   3.870  1.1423 -0.2767  0.2929
  711MOL0     O98039   9.108  10.362   3.819 -0.2666 -0.5088 -0.3720
  711MOL0     C98040   9.001  10.387   3.904  0.8280  0.9353 -0.1341
  711MOL0     C98041   8.884  10.354   3.818 -0.3587 -0.5091  1.7344
  711MOL0     C98042   8.873  10.437   3.684  0.6497  0.9379  0.6429
  711MOL0     C98043   8.774  10.363   3.591 -0.4621  0.4101 -0.0454
  711MOL0     C98044   8.772  10.438   3.467  0.1051  0.0919  0.2781
  711MOL0     C98045   8.753  10.477   3.351  1.0750  0.1734 -0.7125
  711MOL0     C98046   9.248  10.234   3.979 -0.6283 -0.5749  0.5549
  711MOL0     C98047   9.374  10.206   4.026 -0.9379 -0.1512 -0.4963
  711MOL0     C98048   9.387  10.123   4.160  0.5482  0.5133 -0.4190
  711MOL0     H98049   9.898  10.262   3.793  1.9715  0.6096 -0.1795
  711MOL0     H98050  10.129  10.206   3.854  0.7464 -1.4027  1.4277
  711MOL0     H98051  10.250  10.187   4.291  0.3424 -0.2573 -0.0318
  711MOL0     H98052  10.264  10.362   4.270  1.0009  0.5289 -2.5271
  711MOL0     H98053  10.487  10.259   4.313  0.9606  0.1408 -0.9794
  711MOL0     H98054  10.466  10.160   4.170 -2.3081 -0.6967 -0.6529
  711MOL0     H98055  10.434  10.385   4.033 -0.4892  0.2829  0.7967
  711MOL0     H98056  10.481  10.466   4.179 -1.5514  1.8605 -2.5628
  711MOL0     H98057  10.704  10.369   4.199  0.9183 -0.9197 -1.3946
  711MOL0     H98058  10.672  10.263   4.062  3.1231 -0.3042  1.2372
  711MOL0     H98059  10.671  10.566   4.046  1.9572  0.9662  0.2673
  711MOL0     H98060  10.660  10.448   3.907 -0.9475 -2.7600  0.6360
  711MOL0     H98061  10.894  10.457   4.104 -0.7907  0.6980 -0.3284
  711MOL0     H98062  10.896  10.404   3.936  0.1300 -1.5222  0.9531
  711MOL0     H98063  10.879  10.697   4.011 -2.8020 -2.1763  2.1827
  711MOL0     H98064  10.861  10.622   3.852 -1.0916  0.7574  0.6939
  711MOL0     H98065  11.092  10.714   3.933 -4.2560  0.5698 -0.8849
  711MOL0     H98066  11.106  10.570   4.030  1.3697  0.2228  0.4200
  711MOL0     H98067  11.102  10.701   3.667  0.1000  0.2864 -0.8321
  711MOL0     H98068  11.292  10.491   3.460 -0.0858 -1.6544 -1.1124
  711MOL0     H98069  11.160  10.612   3.435 -2.0723 -0.8360  0.3065
  711MOL0     H98070  11.162  10.402   3.272  1.0047  0.4914  0.3365
  711MOL0     H98071  11.137  10.303   3.411  0.0377  0.0095 -0.8079
  711MOL0     H98072  10.919  10.425   3.442 -1.9222 -1.4444 -0.8650
  711MOL0     H98073  10.952  10.523   3.294 -1.3160 -0.4443 -0.2839
  711MOL0     H98074  10.935  10.224   3.300 -1.3595  0.4970  1.4272
  711MOL0     H98075  10.796  10.326   3.270 -1.1638 -4.1954 -0.1478
  711MOL0     H98076  10.884  10.325   2.869 -0.6155 -0.4755  0.3041
  711MOL0     H98077  11.047  10.208   2.593 -2.0475 -0.5173 -0.2183
  711MOL0     H98078  11.125  10.358   2.629  1.3858 -2.0139 -1.4833
  711MOL0     H98079  10.943  10.333   2.654  1.3212  1.9867 -4.1287
  711MOL0     H98080  11.662  10.141   2.977  2.9662 -1.8635  1.4503
  711MOL0     H98081  11.877  10.145   2.905 -2.7902  2.8520  3.0606
  711MOL0     H98082  11.951   9.975   2.529  0.8000 -0.0783  1.4931
  711MOL0     H98083  11.967  10.142   2.442 -1.1409  0.6142  0.5183
  711MOL0     H98084  12.163  10.020   2.414 -4.0314  0.9244 -1.4061
  711MOL0     H98085  12.201  10.154   2.515 -0.6599 -0.5878  0.4799
  711MOL0     H98086  12.159   9.875   2.617  0.7688  0.5222  1.2153
  711MOL0     H98087  12.198  10.015   2.729  3.3118  2.1032  0.7828
  711MOL0     H98088  12.413  10.008   2.568 -1.4285  1.2437  1.2149
  711MOL0     H98089  12.368   9.836   2.547  1.6333 -0.3135  1.8517
  711MOL0     H98090  12.403   9.955   2.825  0.7125 -3.7145  3.8092
  711MOL0     H98091  12.347   9.794   2.776  0.9087 -0.6083 -1.3657
  711MOL0     H98092  12.605   9.896   2.678  0.5785  1.4141  1.5321
  711MOL0     H98093  12.543   9.735   2.685  0.1196  2.3926 -4.3145
  711MOL0     H98094  12.638   9.912   2.926  1.3490 -0.5959  0.2460
  711MOL0     H98095  12.725   9.779   2.868  0.8825  2.4899  3.9380
  711MOL0     H98096  12.460   9.739   3.008  0.2832  1.7177  1.6256
  711MOL0     H98097  12.625   9.735   3.071 -0.0791  1.4076  0.3454
  711MOL0     H98098  11.741  10.144   2.496  0.3737 -1.3127  0.9766
  711MOL0     H98099  11.527  10.182   2.566  0.0030 -1.9012 -0.2355
  711MOL0     H98100  11.299  10.140   3.032 -0.2317  0.4093 -0.2970
  711MOL0     H98101  11.155  10.186   3.178  0.3767 -2.1604 -0.9711
  711MOL0     H98102  10.031  10.275   4.264  1.0035 -1.6425 -1.6067
  711MOL0     H98103   9.809  10.297   4.207  1.0535 -0.3778  1.0658
  711MOL0     H98104   9.543  10.378   3.782 -1.1958  3.5714  1.8311
  711MOL0     H98105   9.318  10.432   3.718  1.0708  0.7487  0.3628
  711MOL0     H98106   9.014  10.315   3.986 -0.2392  0.0443 -0.7211
  711MOL0     H98107   8.993  10.489   3.940  1.1384  1.2123 -0.8184
  711MOL0     H98108   8.790  10.368   3.872 -1.5301  2.4448 -0.7258
  711MOL0     H98109   8.897  10.248   3.795  3.6246  0.4337 -1.4384
  711MOL0     H98110   8.834  10.538   3.701 -2.4636 -0.0813  0.2216
  711MOL0     H98111   8.970  10.441   3.633  0.6204 -0.9922  0.3735
  711MOL0     H98112   8.672  10.372   3.627 -0.9298 -1.5952 -0.7691
  711MOL0     H98113   8.791  10.255   3.583 -1.3147  0.1260  1.6342
  711MOL0     H98114   8.734  10.512   3.252 -1.1526  1.3373  0.0504
  711MOL0     H98115   9.160  10.198   4.032 -2.4782  0.3750 -1.6549
  711MOL0     H98116   9.455  10.165   4.234 -1.7743 -0.0876  2.2210
  711MOL0     H98117   9.285  10.128   4.200  0.3193  2.1312 -1.1144
  711MOL0     H98118   9.401  10.014   4.155  2.4441  0.7576 -1.2030
  712MOL0     O98119   6.446   4.417   3.456 -0.2286 -0.1844  0.5339
  712MOL0     C98120   6.448   4.537   3.486 -0.9103  0.2216 -0.8938
  712MOL0     O98121   6.561   4.617   3.487  0.1082  0.0730 -0.4032
  712MOL0     C98122   6.684   4.561   3.466 -0.8059  0.1887  0.1242
  712MOL0     C98123   6.722   4.439   3.517 -0.3283 -1.1386 -0.1386
  712MOL0     C98124   6.860   4.394   3.501  0.2777  0.0309  0.3453
  712MOL0     C98125   6.947   4.462   3.411 -0.0623  0.6882  0.3168
  712MOL0     O98126   7.080   4.435   3.389  0.7774  0.0927 -0.0431
  712MOL0     C98127   7.145   4.332   3.473 -0.7557 -0.9801  0.5450
  712MOL0     C98128   7.291   4.340   3.440 -0.0692  0.1788  0.7036
  712MOL0     C98129   7.310   4.275   3.301  0.8239 -0.4303  0.5826
  712MOL0     C98130   7.456   4.269   3.250  0.8655  1.1808 -0.1406
  712MOL0     C98131   7.463   4.208   3.115 -0.2733  0.3143  0.9039
  712MOL0     C98132   7.604   4.208   3.041 -0.9588  0.1788 -0.4234
  712MOL0     C98133   7.615   4.130   2.908 -0.1841  0.8532  0.2196
  712MOL0     C98134   7.595   3.976   2.922  0.0217 -0.3760  0.2819
  712MOL0     N98135   7.668   3.911   3.033 -0.0936  0.0493 -0.0460
  712MOL0     C98136   7.745   3.797   3.026  0.7289 -0.9779  0.3767
  712MOL0     C98137   7.784   3.772   3.154  0.8479 -0.9281 -0.3856
  712MOL0     C98138   7.864   3.645   3.200  0.1431 -0.4015 -0.1630
  712MOL0     C98139   8.009   3.683   3.188 -0.8083 -0.1310  1.2431
  712MOL0     C98140   8.079   3.652   3.048  0.2924  0.8101 -0.4455
  712MOL0     C98141   8.222   3.698   3.043 -0.0906 -0.4333  0.5624
  712MOL0     O98142   8.302   3.607   3.125 -0.5579  0.1455  0.9029
  712MOL0     C98143   8.431   3.639   3.153  0.7728  0.0636 -0.5018
  712MOL0     C98144   8.504   3.530   3.186  0.2590 -0.0771  0.5380
  712MOL0     C98145   8.636   3.536   3.235  0.1190 -0.4943  0.4211
  712MOL0     C98146   8.713   3.414   3.277  0.3894  0.4495 -0.9352
  712MOL0     C98147   8.700   3.662   3.230  0.5564  0.4881 -0.2252
  712MOL0     C98148   8.840   3.684   3.261  0.3443 -0.1702 -0.1764
  712MOL0     O98149   8.885   3.635   3.379  0.3850 -0.4401 -0.3341
  712MOL0     C98150   8.986   3.702   3.446 -0.6282  0.1609  0.4313
  712MOL0     C98151   9.015   3.833   3.438  0.4009 -0.2434  1.0284
  712MOL0     C98152   9.130   3.889   3.501 -0.1048 -0.0556 -0.7495
  712MOL0     C98153   9.217   3.815   3.579 -0.2709 -0.3084  0.8218
  712MOL0     O98154   9.324   3.877   3.639  0.6150  0.2353 -0.1371
  712MOL0     C98155   9.439   3.807   3.674 -0.3749  0.0582  0.3717
  712MOL0     C98156   9.530   3.900   3.768 -0.2052  0.1972  0.2509
  712MOL0     C98157   9.677   3.863   3.757  0.2047 -0.2722 -0.2479
  712MOL0     C98158   9.738   3.906   3.624  0.4996  0.1680  0.6434
  712MOL0     C98159   9.888   3.909   3.640  0.0293  0.6155 -0.2434
  712MOL0     C98160   9.955   3.941   3.510  0.3588 -0.1619 -0.2151
  712MOL0     C98161  10.108   3.916   3.528  0.8263  0.1768 -0.3540
  712MOL0     C98162  10.165   3.931   3.397 -0.0567 -0.3856  0.3096
  712MOL0    Cl98163  10.344   3.903   3.384 -0.0886  0.7632 -0.0606
  712MOL0     C98164   9.196   3.676   3.574  0.2195  1.0781  0.2483
  712MOL0     C98165   9.078   3.620   3.515 -0.1093 -0.2818  0.2637
  712MOL0     O98166   8.906   3.755   3.191  0.1980 -0.2478  0.3452
  712MOL0     C98167   8.622   3.773   3.191 -0.7184  0.5391 -0.3289
  712MOL0     C98168   8.485   3.768   3.158  0.7504  0.8032  0.7922
  712MOL0     N98169   7.727   3.863   3.240 -0.1072  0.2596  0.3416
  712MOL0     N98170   7.650   3.943   3.165  0.3541  1.0426  0.1122
  712MOL0     C98171   6.909   4.591   3.366 -0.5976  0.5660  1.0953
  712MOL0     C98172   6.775   4.631   3.386 -0.0572 -0.1248  0.4221
  712MOL0     C98173   6.313   4.591   3.523  0.0875 -0.7705 -0.4588
  712MOL0     C98174   6.197   4.515   3.484  0.2283 -0.6677 -0.5841
  712MOL0     C98175   6.071   4.567   3.491 -0.3856 -0.9056  0.1876
  712MOL0     C98176   6.049   4.694   3.544  0.6733 -0.4146  0.1855
  712MOL0     O98177   5.917   4.744   3.562 -0.2754  0.9325 -0.4869
  712MOL0     C98178   5.900   4.801   3.695 -1.0353  0.1421 -0.3399
  712MOL0     C98179   5.748   4.806   3.735  0.0739 -0.6474 -0.2275
  712MOL0     C98180   5.686   4.672   3.721 -0.6784 -0.1141  0.7250
  712MOL0     C98181   5.531   4.689   3.722 -0.5507 -0.0603  0.3225
  712MOL0     C98182   5.463   4.774   3.628  0.6085 -0.0667  0.3056
  712MOL0     C98183   5.416   4.854   3.552 -0.2011 -0.4587 -0.7181
  712MOL0     C98184   6.158   4.777   3.582 -0.5187 -0.2958  0.3546
  712MOL0     C98185   6.298   4.730   3.578  1.1527 -0.6894  0.7189
  712MOL0     C98186   6.409   4.833   3.593 -1.4504 -0.1877 -0.3384
  712MOL0     H98187   6.657   4.382   3.583  1.6243 -0.7088  2.2525
  712MOL0     H98188   6.891   4.298   3.541 -2.5411 -2.7609 -3.3347
  712MOL0     H98189   7.098   4.237   3.445  2.4434 -2.2371 -1.2417
  712MOL0     H98190   7.138   4.353   3.580 -0.3215  2.4437  0.0032
  712MOL0     H98191   7.320   4.445   3.444 -0.4968  0.2937  0.8221
  712MOL0     H98192   7.355   4.284   3.509 -0.1720  0.2219  0.8341
  712MOL0     H98193   7.271   4.174   3.291  1.1479 -0.3139 -3.4309
  712MOL0     H98194   7.257   4.341   3.232  1.1870 -1.1788 -0.4451
  712MOL0     H98195   7.493   4.372   3.248 -0.0197  1.5774  1.4450
  712MOL0     H98196   7.521   4.209   3.314  0.9767  0.2785 -1.0686
  712MOL0     H98197   7.391   4.263   3.053 -0.0720  0.3587  0.7039
  712MOL0     H98198   7.429   4.104   3.116  1.6075 -0.4573 -1.5922
  712MOL0     H98199   7.626   4.312   3.014  1.8927  0.0845  1.1391
  712MOL0     H98200   7.676   4.184   3.120  0.2666  0.6299 -1.3702
  712MOL0     H98201   7.713   4.144   2.862  1.0023  1.5363  2.7759
  712MOL0     H98202   7.542   4.164   2.834 -0.5829 -1.5300 -0.5789
  712MOL0     H98203   7.487   3.963   2.932 -0.0761 -2.1285 -2.1656
  712MOL0     H98204   7.634   3.928   2.832  1.7375  0.7867  0.3572
  712MOL0     H98205   7.768   3.742   2.935 -0.7057 -1.4535  0.2867
  712MOL0     H98206   7.843   3.570   3.123 -0.7917 -0.3908  0.0696
  712MOL0     H98207   7.846   3.618   3.305  1.8454  2.7751  1.0956
  712MOL0     H98208   8.027   3.787   3.214  1.5709 -0.0360 -0.4657
  712MOL0     H98209   8.068   3.631   3.264  1.0093  0.9225  0.6064
  712MOL0     H98210   8.070   3.544   3.038  0.7325  0.6973  0.3064
  712MOL0     H98211   8.014   3.696   2.972 -2.2615  0.3640  1.3596
  712MOL0     H98212   8.255   3.717   2.940  0.9226 -1.3919  0.6900
  712MOL0     H98213   8.229   3.799   3.085 -1.2180 -0.3428  0.5493
  712MOL0     H98214   8.463   3.431   3.169  2.6708 -0.8575 -1.4263
  712MOL0     H98215   8.645   3.334   3.309  0.8969  0.8848  1.4658
  712MOL0     H98216   8.748   3.438   3.378  0.1291 -1.1421 -0.4457
  712MOL0     H98217   8.787   3.377   3.206 -2.0851 -2.8755 -2.0251
  712MOL0     H98218   8.942   3.891   3.382 -0.4227 -1.4058  0.8550
  712MOL0     H98219   9.147   3.996   3.490 -1.7583  0.4427  0.9485
  712MOL0     H98220   9.414   3.713   3.724  0.7708 -0.5074 -0.0910
  712MOL0     H98221   9.495   3.780   3.584  1.1947 -2.0853  1.8854
  712MOL0     H98222   9.512   4.002   3.734  2.2217  0.8334  0.6848
  712MOL0     H98223   9.515   3.900   3.877  0.2506  1.6305  0.3374
  712MOL0     H98224   9.681   3.758   3.789 -1.5862  0.5701  3.3016
  712MOL0     H98225   9.737   3.918   3.831 -1.5901  0.1882  0.9298
  712MOL0     H98226   9.701   3.995   3.572 -0.9926 -1.3526 -1.0683
  712MOL0     H98227   9.717   3.828   3.551  0.1308  1.9008 -1.1735
  712MOL0     H98228   9.925   3.990   3.704  0.3490 -0.0855  0.4720
  712MOL0     H98229   9.916   3.811   3.679 -5.0432 -0.6198  1.0851
  712MOL0     H98230   9.925   4.042   3.481 -2.0073 -0.3317  1.3193
  712MOL0     H98231   9.913   3.877   3.432 -0.3797 -2.4169  1.9005
  712MOL0     H98232  10.127   3.816   3.567 -4.5000 -0.6706  0.8965
  712MOL0     H98233  10.159   3.991   3.590  0.5857  0.0613 -0.0107
  712MOL0     H98234  10.159   4.035   3.363  0.3180  0.6103  3.0289
  712MOL0     H98235  10.122   3.870   3.317  1.3170 -1.5586  0.4246
  712MOL0     H98236   9.275   3.610   3.610 -0.6138 -1.1235 -1.6774
  712MOL0     H98237   9.061   3.514   3.505 -1.4920  0.0699 -1.5971
  712MOL0     H98238   8.670   3.870   3.190  1.4509 -0.4566  0.4975
  712MOL0     H98239   8.429   3.855   3.124  0.9116  1.0550  1.1647
  712MOL0     H98240   6.987   4.641   3.310  1.7889 -2.1638  1.7582
  712MOL0     H98241   6.734   4.723   3.346 -3.1175  0.0664  3.5077
  712MOL0     H98242   6.205   4.415   3.441  1.7346 -0.8378  0.0352
  712MOL0     H98243   5.983   4.508   3.465 -1.8282  0.9384  0.6609
  712MOL0     H98244   5.950   4.740   3.771 -0.3094  0.3710 -0.6283
  712MOL0     H98245   5.935   4.905   3.694  2.3231 -0.7969 -4.1431
  712MOL0     H98246   5.700   4.885   3.677 -0.1675  1.5894  2.7454
  712MOL0     H98247   5.750   4.834   3.841  2.5326 -1.0962 -0.0848
  712MOL0     H98248   5.710   4.632   3.622  0.3628  0.2522  0.8235
  712MOL0     H98249   5.712   4.607   3.805  0.4550 -0.4642  0.1177
  712MOL0     H98250   5.499   4.715   3.824 -0.1344 -2.8561  1.2703
  712MOL0     H98251   5.485   4.590   3.722  0.2018 -0.4393  1.5158
  712MOL0     H98252   5.364   4.922   3.488  1.7391  0.2780 -1.5901
  712MOL0     H98253   6.159   4.880   3.614  1.0600  0.4233 -1.8001
  712MOL0     H98254   6.504   4.793   3.628 -0.3621 -1.0690 -3.8751
  712MOL0     H98255   6.434   4.869   3.492 -0.8061 -0.0241 -0.1196
  712MOL0     H98256   6.379   4.918   3.655 -0.6394  0.2126 -0.4880
  713MOL0     O98257   3.029   7.182   9.538 -0.1320 -0.8093  0.1036
  713MOL0     C98258   3.053   7.200   9.417 -0.1249  0.0214  0.2147
  713MOL0     O98259   3.102   7.107   9.328 -0.6216  0.3209  0.1873
  713MOL0     C98260   3.169   6.999   9.384 -0.4281 -0.3685 -0.9010
  713MOL0     C98261   3.157   6.882   9.308 -0.1435 -0.9351 -0.2014
  713MOL0     C98262   3.218   6.767   9.356  0.4658  0.4699 -0.5664
  713MOL0     C98263   3.300   6.763   9.474 -0.0428  0.0410  0.0139
  713MOL0     O98264   3.360   6.653   9.527  0.0768  0.1656 -0.2736
  713MOL0     C98265   3.387   6.541   9.441 -0.0315 -0.0881  0.0543
  713MOL0     C98266   3.432   6.430   9.531  0.2299 -0.6892 -0.4925
  713MOL0     C98267   3.325   6.380   9.638 -0.8987 -0.7369  1.4655
  713MOL0     C98268   3.389   6.283   9.744  0.5533  0.0939 -0.4856
  713MOL0     C98269   3.274   6.227   9.837 -0.4413  0.2192  0.5523
  713MOL0     C98270   3.251   6.077   9.820 -0.5830 -0.6348 -0.5488
  713MOL0     C98271   3.136   6.036   9.915 -0.0925  1.0070 -0.0079
  713MOL0     C98272   3.176   6.042  10.060 -0.0291  0.2102 -0.8230
  713MOL0     N98273   3.314   5.992  10.087 -0.1210  0.0223 -0.2804
  713MOL0     C98274   3.406   6.074  10.138  0.0678 -0.1514  0.2101
  713MOL0     C98275   3.508   5.995  10.156 -0.6833 -0.1167 -0.5953
  713MOL0     C98276   3.634   6.068  10.216  0.6534 -0.7107 -0.7853
  713MOL0     C98277   3.740   5.985  10.281 -0.2605 -0.2126  0.6026
  713MOL0     C98278   3.810   5.893  10.177  0.7420 -0.2742 -0.1568
  713MOL0     C98279   3.935   5.823  10.235 -0.2463 -0.1121 -0.6499
  713MOL0     O98280   3.997   5.757  10.122 -0.0318 -0.7657  0.8635
  713MOL0     C98281   4.133   5.752  10.118 -0.1492  0.4856  0.2055
  713MOL0     C98282   4.197   5.712  10.002  0.1251 -0.2320 -0.8226
  713MOL0     C98283   4.333   5.689   9.984 -0.4031  0.0841 -0.4689
  713MOL0     C98284   4.386   5.661   9.849  0.2982  0.7286 -0.3851
  713MOL0     C98285   4.414   5.706  10.096  0.2007 -0.1033 -0.3680
  713MOL0     C98286   4.565   5.684  10.094  0.1469  0.0590  0.3231
  713MOL0     O98287   4.618   5.589  10.013  0.5845 -0.3129  0.3057
  713MOL0     C98288   4.744   5.600   9.970 -0.1799 -0.7546  0.9403
  713MOL0     C98289   4.815   5.722   9.947  0.0019 -0.8786 -0.0702
  713MOL0     C98290   4.949   5.712   9.897  0.1111 -0.1267  0.2580
  713MOL0     C98291   5.012   5.584   9.878  0.3341 -0.1037  0.4517
  713MOL0     O98292   5.141   5.589   9.825  0.3415  0.0461 -0.1104
  713MOL0     C98293   5.234   5.631   9.927  0.3958 -0.1285  0.3002
  713MOL0     C98294   5.379   5.611   9.889  0.3376 -0.2644  0.6137
  713MOL0     C98295   5.412   5.463   9.866  0.3390  0.0867  0.0736
  713MOL0     C98296   5.560   5.460   9.827  0.0937  0.3050 -0.2159
  713MOL0     C98297   5.629   5.316   9.821  0.9208  0.5480  0.1499
  713MOL0     C98298   5.779   5.320   9.791  0.6194  0.7201 -0.3856
  713MOL0     C98299   5.831   5.183   9.743 -0.5899  0.7327 -0.1856
  713MOL0     C98300   5.882   5.103   9.865 -0.2600  0.1234  0.7007
  713MOL0    Cl98301   5.732   5.059   9.959  0.0107  0.0265 -0.6736
  713MOL0     C98302   4.946   5.470   9.923 -0.5184 -0.0163  0.0512
  713MOL0     C98303   4.814   5.474   9.965  0.6452 -0.3830 -0.1402
  713MOL0     O98304   4.631   5.755  10.172  0.0403 -0.3362  0.1679
  713MOL0     C98305   4.361   5.749  10.217  0.2044 -1.0907 -0.0788
  713MOL0     C98306   4.223   5.778  10.224  0.1620 -0.2265 -0.6599
  713MOL0     N98307   3.481   5.862  10.139  0.9595 -0.4677  0.5211
  713MOL0     N98308   3.353   5.863  10.110  0.1817  0.8336  0.0739
  713MOL0     C98309   3.326   6.888   9.541  0.6551  0.4742  0.0293
  713MOL0     C98310   3.259   6.997   9.493  0.1929 -0.5644 -0.5778
  713MOL0     C98311   2.998   7.319   9.354 -0.8382 -0.4695 -0.1255
  713MOL0     C98312   2.953   7.424   9.433  0.2776 -0.5248 -1.2096
  713MOL0     C98313   2.899   7.545   9.381  0.1919 -0.2590 -0.0981
  713MOL0     C98314   2.903   7.572   9.243 -0.6363 -0.2765 -0.7224
  713MOL0     O98315   2.856   7.681   9.179  0.1671  0.0771  0.4491
  713MOL0     C98316   2.841   7.802   9.257  0.0328  0.5828  0.9055
  713MOL0     C98317   2.805   7.916   9.156  0.3725  1.0622  0.4417
  713MOL0     C98318   2.817   8.046   9.226  0.1934 -0.7022  0.0445
  713MOL0     C98319   2.746   8.067   9.365 -0.9461 -0.1922  0.8385
  713MOL0     C98320   2.766   8.211   9.411  0.4905 -0.0468  0.1176
  713MOL0     C98321   2.792   8.322   9.451  0.4444  0.8933 -0.9956
  713MOL0     C98322   2.953   7.472   9.166  0.5532 -0.4956  0.9510
  713MOL0     C98323   3.006   7.353   9.212 -0.3057  0.0094 -0.5631
  713MOL0     C98324   3.081   7.266   9.107  0.4336 -0.0753 -1.2181
  713MOL0     H98325   3.097   6.892   9.218  0.1468  1.2141 -0.2119
  713MOL0     H98326   3.206   6.677   9.296 -0.1278 -0.7050  1.2281
  713MOL0     H98327   3.464   6.582   9.375 -0.8794 -0.3291 -1.1083
  713MOL0     H98328   3.302   6.500   9.387 -0.4961 -0.1104  0.7894
  713MOL0     H98329   3.468   6.344   9.473  0.2424  0.1159 -1.7271
  713MOL0     H98330   3.518   6.467   9.586 -0.6453 -0.5535  0.8437
  713MOL0     H98331   3.285   6.467   9.691  1.1333  1.1890  0.0356
  713MOL0     H98332   3.248   6.336   9.574 -0.7706  1.5299 -0.3516
  713MOL0     H98333   3.438   6.201   9.689 -1.7083 -2.4574  1.0328
  713MOL0     H98334   3.453   6.342   9.810 -2.4365  2.5817  0.4269
  713MOL0     H98335   3.181   6.282   9.816 -0.4046  0.8066  1.8104
  713MOL0     H98336   3.291   6.256   9.941 -1.7471 -0.6135  1.0265
  713MOL0     H98337   3.225   6.045   9.718  1.6954 -3.4111 -0.3747
  713MOL0     H98338   3.344   6.025   9.844 -0.4694  0.9166  2.8939
  713MOL0     H98339   3.120   5.929   9.900  1.4915  0.8138 -0.5656
  713MOL0     H98340   3.044   6.093   9.904  0.0080  1.0310 -0.7997
  713MOL0     H98341   3.179   6.148  10.085 -0.1939  0.2054 -0.7847
  713MOL0     H98342   3.100   5.994  10.121  0.1220 -1.0954 -1.6232
  713MOL0     H98343   3.404   6.181  10.153  0.4209 -0.4826  3.2649
  713MOL0     H98344   3.598   6.141  10.288  0.9883 -0.7510 -0.5755
  713MOL0     H98345   3.688   6.116  10.134  2.2240 -0.7896  0.1598
  713MOL0     H98346   3.815   6.040  10.339 -2.5869  1.3952  2.2881
  713MOL0     H98347   3.684   5.922  10.352  1.1283 -1.4783  0.6216
  713MOL0     H98348   3.741   5.810  10.162 -0.1742  0.4601 -0.0762
  713MOL0     H98349   3.836   5.945  10.085 -1.9683  3.9142  1.1761
  713MOL0     H98350   3.993   5.894  10.295 -2.6760 -0.1560  1.9432
  713MOL0     H98351   3.918   5.742  10.307  0.8317  1.1058  1.0529
  713MOL0     H98352   4.124   5.686   9.926 -2.3354  1.6007  0.7565
  713MOL0     H98353   4.434   5.562   9.849  0.5139  0.8233  0.6829
  713MOL0     H98354   4.462   5.734   9.820  1.1231 -0.1467 -0.4891
  713MOL0     H98355   4.312   5.665   9.768  0.1215 -0.0588 -0.2755
  713MOL0     H98356   4.770   5.820   9.958 -2.0326 -1.6122 -1.2670
  713MOL0     H98357   5.007   5.802   9.877  1.5649 -0.3294  3.0006
  713MOL0     H98358   5.213   5.736   9.946  1.2220  0.0036  0.5163
  713MOL0     H98359   5.213   5.574  10.019  0.1431 -0.2981  0.1381
  713MOL0     H98360   5.414   5.671   9.805  2.2053 -1.7365  0.2611
  713MOL0     H98361   5.433   5.638   9.980 -1.6771  0.0302  1.7629
  713MOL0     H98362   5.356   5.427   9.779  0.8205  0.2728 -0.3153
  713MOL0     H98363   5.390   5.404   9.955 -0.6531 -0.1612 -0.3160
  713MOL0     H98364   5.613   5.512   9.907 -0.4027  1.0876 -0.3864
  713MOL0     H98365   5.588   5.516   9.737  2.0366  2.4972  1.6183
  713MOL0     H98366   5.616   5.266   9.917 -2.7296  1.4431  0.2742
  713MOL0     H98367   5.585   5.260   9.738 -1.7053 -0.3074  2.0061
  713MOL0     H98368   5.832   5.363   9.877 -0.0047  1.6902 -0.4631
  713MOL0     H98369   5.799   5.386   9.706  1.2669 -3.3714 -3.7265
  713MOL0     H98370   5.912   5.200   9.671 -1.0487 -0.8750 -1.1137
  713MOL0     H98371   5.749   5.127   9.699 -0.3722 -0.4208  0.8045
  713MOL0     H98372   5.956   5.153   9.928  1.0378 -1.2076  0.2946
  713MOL0     H98373   5.937   5.016   9.827 -0.0870 -0.0245  1.2702
  713MOL0     H98374   5.004   5.380   9.908  3.0252  2.4924 -3.0594
  713MOL0     H98375   4.756   5.383   9.981 -1.3148  0.6877 -0.8576
  713MOL0     H98376   4.415   5.765  10.310 -0.2760 -1.6639  0.3011
  713MOL0     H98377   4.181   5.788  10.323 -1.1509 -3.5726 -0.7367
  713MOL0     H98378   3.383   6.896   9.633 -2.7434 -0.2310  2.3665
  713MOL0     H98379   3.278   7.092   9.542 -0.1243  0.6904 -2.7609
  713MOL0     H98380   2.950   7.417   9.541 -0.4337  0.0805 -1.1809
  713MOL0     H98381   2.861   7.623   9.445  0.8172 -1.0441  1.2670
  713MOL0     H98382   2.759   7.798   9.329 -0.4187  4.6472  0.8999
  713MOL0     H98383   2.936   7.836   9.301 -0.7262  1.9295  1.5683
  713MOL0     H98384   2.702   7.903   9.124  0.5223  1.0899 -0.0646
  713MOL0     H98385   2.866   7.899   9.067  1.6285 -2.6035  1.8162
  713MOL0     H98386   2.921   8.078   9.235  0.3432 -1.2472  0.3219
  713MOL0     H98387   2.770   8.117   9.158  2.9382 -1.1058 -2.4957
  713MOL0     H98388   2.786   7.991   9.433  0.7039 -1.4781 -1.4350
  713MOL0     H98389   2.638   8.048   9.357 -0.7399 -1.1980  0.3076
  713MOL0     H98390   2.826   8.420   9.478  2.3351  0.4007 -1.4263
  713MOL0     H98391   2.947   7.487   9.059 -3.0191 -2.1998  0.7680
  713MOL0     H98392   3.038   7.166   9.105  0.4996 -0.2418  1.6942
  713MOL0     H98393   3.080   7.309   9.007 -1.6284 -2.4595 -2.3165
  713MOL0     H98394   3.183   7.244   9.139 -0.3040 -1.5725  0.2532
  714MOL0     O98395   0.368   8.133   9.728 -0.0218 -0.4865 -0.5359
  714MOL0     C98396   0.321   8.087   9.628  0.1529 -1.0118 -0.5911
  714MOL0     O98397   0.397   8.064   9.509 -0.1586 -0.4472 -0.5469
  714MOL0     C98398   0.526   8.100   9.509 -0.3589 -0.5071 -0.4213
  714MOL0     C98399   0.628   8.040   9.597  0.5990 -0.1356 -0.4042
  714MOL0     C98400   0.761   8.075   9.587 -0.2675  0.4488  0.1947
  714MOL0     C98401   0.804   8.154   9.479 -0.1126 -0.4617 -0.0532
  714MOL0     O98402   0.935   8.199   9.467 -0.4682  0.5084  0.5081
  714MOL0     C98403   1.035   8.112   9.515 -0.0868  0.3514  0.0613
  714MOL0     C98404   1.168   8.139   9.439  0.5913 -0.0379  1.0887
  714MOL0     C98405   1.243   8.268   9.478  0.3581  0.0503 -0.6594
  714MOL0     C98406   1.360   8.299   9.385  0.0622 -0.1117  0.3181
  714MOL0     C98407   1.440   8.410   9.437 -0.2899 -0.2667 -0.0767
  714MOL0     C98408   1.552   8.435   9.332  0.5900  0.4400  0.7421
  714MOL0     C98409   1.673   8.510   9.390 -0.1975  0.5369 -0.0675
  714MOL0     C98410   1.641   8.657   9.401 -0.1027  0.0344 -0.8666
  714MOL0     N98411   1.762   8.740   9.427  0.2212  0.4627  0.3730
  714MOL0     C98412   1.850   8.778   9.331 -0.2929  0.6385  0.6244
  714MOL0     C98413   1.920   8.880   9.388 -0.0482  0.5174 -0.2772
  714MOL0     C98414   2.022   8.966   9.312 -0.3071 -0.0901  0.0805
  714MOL0     C98415   2.169   8.960   9.360 -0.1321 -0.1117  0.7821
  714MOL0     C98416   2.186   8.992   9.507 -0.1351  0.2524  0.5198
  714MOL0     C98417   2.332   9.010   9.541 -0.5837 -0.2485  0.2106
  714MOL0     O98418   2.385   8.882   9.562 -0.4389  0.8602 -0.1346
  714MOL0     C98419   2.521   8.858   9.552 -0.5428 -0.0292  1.2257
  714MOL0     C98420   2.624   8.943   9.512  0.1072 -0.5640 -0.1742
  714MOL0     C98421   2.754   8.893   9.499  0.7235  0.7577 -0.4587
  714MOL0     C98422   2.862   8.987   9.455  0.3139  0.0771  0.7449
  714MOL0     C98423   2.784   8.755   9.518  0.8301 -0.0498 -0.3016
  714MOL0     C98424   2.919   8.693   9.509  0.5396 -0.0373  0.8450
  714MOL0     O98425   2.953   8.600   9.610 -0.6811  0.2942 -0.1819
  714MOL0     C98426   3.077   8.556   9.621 -0.0040  0.2430 -0.0375
  714MOL0     C98427   3.195   8.577   9.541 -0.5539  0.9980  0.8894
  714MOL0     C98428   3.310   8.518   9.584 -0.9239 -0.4816  0.3206
  714MOL0     C98429   3.320   8.425   9.690 -0.5552  0.0534 -0.6545
  714MOL0     O98430   3.448   8.370   9.705 -0.8235 -0.3775  0.0861
  714MOL0     C98431   3.479   8.300   9.830 -0.3487  0.7651  0.9864
  714MOL0     C98432   3.450   8.150   9.826  0.1814 -0.5783 -0.2954
  714MOL0     C98433   3.548   8.075   9.729  0.4256  0.2452 -0.4478
  714MOL0     C98434   3.535   7.926   9.767 -0.6785  0.1480 -0.1586
  714MOL0     C98435   3.394   7.873   9.739  0.1778  0.7453 -0.1873
  714MOL0     C98436   3.383   7.722   9.777  0.5934  0.4854 -0.0709
  714MOL0     C98437   3.250   7.660   9.749 -0.5247 -0.8796  0.0408
  714MOL0     C98438   3.229   7.607   9.603 -0.0501 -0.2275  0.1030
  714MOL0    Cl98439   3.354   7.485   9.565 -0.1893 -0.0276  0.3342
  714MOL0     C98440   3.209   8.406   9.765 -0.5478  1.5703  0.2752
  714MOL0     C98441   3.090   8.463   9.730  0.2589  0.3942 -0.0811
  714MOL0     O98442   2.982   8.718   9.402 -0.5044  0.1482  0.4192
  714MOL0     C98443   2.670   8.674   9.557 -0.7682  0.1117 -0.0599
  714MOL0     C98444   2.543   8.722   9.564 -0.5004 -0.4939  0.1217
  714MOL0     N98445   1.883   8.896   9.518  0.2971 -0.1066  0.0055
  714MOL0     N98446   1.782   8.813   9.545  0.0419 -0.5065  0.4140
  714MOL0     C98447   0.713   8.211   9.397  0.6344  1.1537 -0.3582
  714MOL0     C98448   0.573   8.190   9.409  1.2161 -0.4487 -0.5416
  714MOL0     C98449   0.183   8.029   9.619  0.1337 -0.3766 -0.3155
  714MOL0     C98450   0.137   7.964   9.501  0.1418 -0.5089 -0.0952
  714MOL0     C98451   0.001   7.935   9.484 -0.3633 -0.9614 -0.3936
  714MOL0     C98452  -0.098   7.952   9.583 -0.2819  0.6305 -0.6139
  714MOL0     O98453  -0.233   7.932   9.586 -0.1563  0.4608 -0.5273
  714MOL0     C98454  -0.282   7.864   9.470  0.3664 -0.1433 -0.6540
  714MOL0     C98455  -0.425   7.817   9.485 -1.0406  0.3867 -0.0015
  714MOL0     C98456  -0.526   7.925   9.517  0.2855 -0.7275 -0.4663
  714MOL0     C98457  -0.667   7.872   9.495  0.5526  0.9572  0.3737
  714MOL0     C98458  -0.759   7.964   9.561  0.2506  0.1650 -0.0496
  714MOL0     C98459  -0.844   8.026   9.628  0.2415  0.1135 -0.2773
  714MOL0     C98460  -0.043   8.010   9.702  0.9722 -0.1451  0.4030
  714MOL0     C98461   0.086   8.049   9.724 -0.3747 -0.5083 -0.4474
  714MOL0     C98462   0.111   8.089   9.866  0.9674 -0.4597  0.6677
  714MOL0     H98463   0.602   7.981   9.684  0.3552  3.8498  2.4982
  714MOL0     H98464   0.832   8.043   9.663 -1.5845 -0.1919  1.1890
  714MOL0     H98465   1.004   8.007   9.520 -1.9948  0.9050  0.8300
  714MOL0     H98466   1.054   8.148   9.616 -1.3230 -0.1923  0.5055
  714MOL0     H98467   1.230   8.052   9.460 -0.1013 -1.0483 -0.8614
  714MOL0     H98468   1.137   8.152   9.335  0.0502  0.6266  1.3220
  714MOL0     H98469   1.174   8.353   9.485  0.5948  0.3131 -1.4088
  714MOL0     H98470   1.277   8.244   9.579  0.9961 -2.7852 -1.4627
  714MOL0     H98471   1.429   8.216   9.372 -1.8977 -1.5620 -1.4288
  714MOL0     H98472   1.319   8.330   9.288 -1.5080  0.6323  1.1760
  714MOL0     H98473   1.484   8.367   9.527  0.9403 -0.4371 -0.7334
  714MOL0     H98474   1.378   8.498   9.453 -0.6611 -0.6476  0.6375
  714MOL0     H98475   1.604   8.344   9.301 -0.7575  0.6386 -2.5157
  714MOL0     H98476   1.495   8.476   9.248  0.7207 -1.1192 -0.1414
  714MOL0     H98477   1.761   8.505   9.325 -0.8337  1.7060 -1.0599
  714MOL0     H98478   1.704   8.473   9.488  1.3937  2.8480  0.3710
  714MOL0     H98479   1.591   8.699   9.313 -0.8907 -0.7278 -0.7894
  714MOL0     H98480   1.572   8.671   9.485  2.1036 -0.1696  1.0793
  714MOL0     H98481   1.858   8.748   9.227  2.8295 -1.9746  1.4792
  714MOL0     H98482   1.988   9.070   9.315 -0.1941 -0.0751  1.3674
  714MOL0     H98483   2.023   8.946   9.205  0.7138  0.8202 -0.0976
  714MOL0     H98484   2.200   8.856   9.345  2.1331  0.5509  0.4016
  714MOL0     H98485   2.234   9.014   9.291 -0.2940 -1.5407 -0.5555
  714MOL0     H98486   2.130   9.081   9.537 -0.8510  0.0648 -0.2271
  714MOL0     H98487   2.147   8.915   9.574  0.6266 -1.1411 -0.5849
  714MOL0     H98488   2.382   9.068   9.464 -0.1687  1.9723  2.0619
  714MOL0     H98489   2.348   9.056   9.639  1.9408  0.5775 -0.5179
  714MOL0     H98490   2.607   9.050   9.505  2.2005 -0.1641  0.1694
  714MOL0     H98491   2.836   9.093   9.454 -0.1760  0.0676  4.1148
  714MOL0     H98492   2.900   8.953   9.358  0.1914 -1.7244  1.2920
  714MOL0     H98493   2.943   8.969   9.527  2.6900 -1.2744 -2.0199
  714MOL0     H98494   3.202   8.626   9.444 -1.8835  0.1563  0.3405
  714MOL0     H98495   3.396   8.548   9.524 -1.6375 -0.2806 -0.6422
  714MOL0     H98496   3.587   8.313   9.846 -0.1750 -0.1674  0.6362
  714MOL0     H98497   3.423   8.344   9.913  0.8561  1.0503  1.6732
  714MOL0     H98498   3.446   8.119   9.931 -0.0634  2.1317  0.5846
  714MOL0     H98499   3.347   8.146   9.789  0.0018  4.4144 -1.0202
  714MOL0     H98500   3.652   8.107   9.743  0.1964  0.8675 -0.0704
  714MOL0     H98501   3.515   8.087   9.626 -1.5327  1.0259  0.2059
  714MOL0     H98502   3.554   7.901   9.872  1.9197  3.8558  0.4909
  714MOL0     H98503   3.605   7.869   9.704 -0.1568 -0.0054  0.5442
  714MOL0     H98504   3.324   7.914   9.813 -0.5389  1.3976 -1.2005
  714MOL0     H98505   3.368   7.902   9.637  2.8375  0.1540 -1.1151
  714MOL0     H98506   3.391   7.706   9.885  0.2573 -0.7866 -0.2170
  714MOL0     H98507   3.459   7.668   9.719 -1.0319  0.9809 -2.8187
  714MOL0     H98508   3.166   7.730   9.754  1.3079  1.6593 -2.0028
  714MOL0     H98509   3.244   7.578   9.822  3.8206 -0.6731  0.9334
  714MOL0     H98510   3.244   7.694   9.539 -0.0355 -0.1848  0.1636
  714MOL0     H98511   3.125   7.578   9.590  0.1025 -0.6368 -0.2262
  714MOL0     H98512   3.201   8.346   9.855  0.1649 -0.1987 -0.7727
  714MOL0     H98513   2.999   8.445   9.786  0.4710 -0.3964  0.0211
  714MOL0     H98514   2.691   8.567   9.563 -1.0120 -0.1224 -2.4437
  714MOL0     H98515   2.462   8.651   9.578  0.6311 -2.0073 -0.6895
  714MOL0     H98516   0.756   8.279   9.324  2.9339 -0.2297 -0.3733
  714MOL0     H98517   0.503   8.222   9.333  0.1916 -0.2993  0.4393
  714MOL0     H98518   0.210   7.955   9.421 -0.4268  2.2253 -1.0409
  714MOL0     H98519  -0.025   7.891   9.388  2.0344 -2.9512 -0.2516
  714MOL0     H98520  -0.271   7.935   9.388  0.1596  2.0158  1.1123
  714MOL0     H98521  -0.223   7.774   9.446  0.8474 -0.8311  2.5469
  714MOL0     H98522  -0.436   7.742   9.564 -2.2081  1.1885  0.6272
  714MOL0     H98523  -0.449   7.771   9.389 -1.5164  1.3492 -0.3631
  714MOL0     H98524  -0.507   7.960   9.619  1.7887  0.9075 -1.2479
  714MOL0     H98525  -0.508   8.004   9.443 -0.1865 -0.1932 -0.0185
  714MOL0     H98526  -0.678   7.768   9.528 -2.3340  0.5102 -1.6586
  714MOL0     H98527  -0.694   7.874   9.390  2.7066 -0.5493 -0.2845
  714MOL0     H98528  -0.916   8.074   9.691  1.7032 -0.1999  1.7269
  714MOL0     H98529  -0.119   8.008   9.779  0.2186 -1.6181 -0.3547
  714MOL0     H98530   0.018   8.095   9.923  0.0547 -3.5313 -0.2937
  714MOL0     H98531   0.177   8.014   9.912  0.2153 -0.9020  1.0311
  714MOL0     H98532   0.153   8.190   9.873 -1.0061  0.3403  1.6540
  715MOL0     O98533   6.042   2.159   2.052  0.0826  0.2117  0.1175
  715MOL0     C98534   6.099   2.123   1.948 -0.0351 -0.3697  0.4164
  715MOL0     O98535   6.219   2.066   1.943 -0.0123  0.0367 -0.5390
  715MOL0     C98536   6.283   2.007   2.053  1.2804 -1.0924  0.9213
  715MOL0     C98537   6.420   1.995   2.042 -0.3826 -0.6457  0.0119
  715MOL0     C98538   6.490   1.925   2.139 -0.5876 -1.0930  1.2701
  715MOL0     C98539   6.430   1.864   2.243 -0.3447 -0.0262 -1.0715
  715MOL0     O98540   6.500   1.780   2.331 -0.1502 -0.2882  0.3983
  715MOL0     C98541   6.563   1.863   2.431 -0.3864  0.0649  0.4945
  715MOL0     C98542   6.670   1.775   2.491  0.0437  0.2529 -0.3618
  715MOL0     C98543   6.762   1.846   2.596 -0.5258  0.3015  0.4718
  715MOL0     C98544   6.820   1.748   2.704 -1.4150 -0.2388  0.3647
  715MOL0     C98545   6.969   1.782   2.727 -0.3242  0.3523 -0.5247
  715MOL0     C98546   6.998   1.917   2.788 -0.7688  0.3170 -0.2241
  715MOL0     C98547   7.143   1.937   2.846 -0.1943  0.0311  0.3576
  715MOL0     C98548   7.257   1.940   2.751 -0.4462  0.2937  0.0345
  715MOL0     N98549   7.387   1.912   2.811 -0.3322  0.4190  0.2304
  715MOL0     C98550   7.443   1.977   2.917 -0.4452 -0.2079  0.5131
  715MOL0     C98551   7.533   1.888   2.970  0.0889 -0.1532 -0.2630
  715MOL0     C98552   7.603   1.921   3.098  0.1912  0.0951  1.6828
  715MOL0     C98553   7.701   2.037   3.081 -0.6430  0.3285  0.4955
  715MOL0     C98554   7.794   2.021   2.966 -0.4305 -0.1378  0.1790
  715MOL0     C98555   7.927   2.099   2.966 -0.1981  0.1801 -0.2331
  715MOL0     O98556   7.996   2.090   3.091  0.1744  0.3974 -0.3476
  715MOL0     C98557   8.125   2.134   3.094 -0.0470 -0.1740 -0.3511
  715MOL0     C98558   8.187   2.231   3.012 -0.8251  0.1441  0.1957
  715MOL0     C98559   8.325   2.265   3.024  0.2503  0.0656 -0.1867
  715MOL0     C98560   8.385   2.367   2.932  0.5516  1.6494 -0.1558
  715MOL0     C98561   8.401   2.187   3.119  0.8511 -0.0706  0.3980
  715MOL0     C98562   8.549   2.216   3.137  0.5429  0.5786  0.5469
  715MOL0     O98563   8.597   2.183   3.260 -0.3264 -1.3726 -0.1732
  715MOL0     C98564   8.732   2.171   3.282 -0.2802 -0.4440 -0.2924
  715MOL0     C98565   8.764   2.059   3.362  0.3269 -0.4674  0.2062
  715MOL0     C98566   8.902   2.027   3.380  1.0134  0.1078 -0.7708
  715MOL0     C98567   9.008   2.106   3.328  0.6560 -0.2456  0.7735
  715MOL0     O98568   9.138   2.070   3.350  0.0418 -0.3031  0.1762
  715MOL0     C98569   9.245   2.155   3.311  0.2811  1.1551  0.5648
  715MOL0     C98570   9.383   2.082   3.316  0.0090 -1.2490 -0.1951
  715MOL0     C98571   9.475   2.171   3.233 -0.0036 -0.2697  0.6040
  715MOL0     C98572   9.609   2.106   3.202 -0.8453 -0.2538 -0.9443
  715MOL0     C98573   9.730   2.205   3.191 -0.2586  0.3639  0.4151
  715MOL0     C98574   9.860   2.125   3.204 -0.2636 -0.1032  0.7222
  715MOL0     C98575   9.976   2.216   3.161  0.1794 -0.6972 -0.5121
  715MOL0     C98576  10.098   2.137   3.165  0.1478  0.9711 -0.2521
  715MOL0    Cl98577  10.252   2.235   3.174  0.3285 -0.2840  0.2383
  715MOL0     C98578   8.964   2.218   3.247  0.2375 -0.6553 -0.1945
  715MOL0     C98579   8.830   2.254   3.233 -0.8154  1.0023  0.7436
  715MOL0     O98580   8.613   2.238   3.042 -0.0561  0.1386  0.4122
  715MOL0     C98581   8.326   2.112   3.215  0.9203  0.4808 -0.2893
  715MOL0     C98582   8.197   2.089   3.203  0.3781  0.3419  0.1752
  715MOL0     N98583   7.527   1.769   2.906  0.0777  0.4301  0.2125
  715MOL0     N98584   7.442   1.785   2.809 -0.4401 -0.5574  0.0158
  715MOL0     C98585   6.292   1.867   2.253 -0.6947 -0.3388 -0.2164
  715MOL0     C98586   6.216   1.950   2.169  0.0842 -0.4096 -0.2664
  715MOL0     C98587   6.029   2.169   1.815 -0.7417 -0.8425 -0.4372
  715MOL0     C98588   6.045   2.086   1.705  0.1715 -0.0585 -0.4416
  715MOL0     C98589   5.981   2.115   1.585  0.2570 -0.0752 -0.1976
  715MOL0     C98590   5.882   2.214   1.576 -0.4446 -0.1031  0.3250
  715MOL0     O98591   5.809   2.223   1.459  0.1484 -0.0441  0.0871
  715MOL0     C98592   5.699   2.311   1.438  1.1832 -0.4603  1.3662
  715MOL0     C98593   5.578   2.309   1.529  0.1457  0.4647  0.0211
  715MOL0     C98594   5.455   2.371   1.451 -0.9939 -0.1091  0.4776
  715MOL0     C98595   5.338   2.399   1.548 -0.1730  0.0527 -0.2818
  715MOL0     C98596   5.377   2.508   1.642 -0.0203 -0.4612 -0.5164
  715MOL0     C98597   5.408   2.607   1.708 -0.0506  0.7834  0.0767
  715MOL0     C98598   5.872   2.305   1.687  0.5952  0.5134 -0.1280
  715MOL0     C98599   5.946   2.280   1.806  0.1986  0.2886 -0.4636
  715MOL0     C98600   5.943   2.393   1.908  1.0820  0.1081  0.3559
  715MOL0     H98601   6.473   2.044   1.960 -3.5604 -0.7099 -2.2226
  715MOL0     H98602   6.598   1.918   2.131 -0.8343 -3.8226 -1.8162
  715MOL0     H98603   6.500   1.897   2.514 -0.2892  2.3776 -0.2966
  715MOL0     H98604   6.601   1.954   2.384  0.9923 -1.1454 -0.8445
  715MOL0     H98605   6.624   1.684   2.532 -0.4244  0.5133 -0.2971
  715MOL0     H98606   6.735   1.726   2.418 -0.9499 -1.0014 -0.4386
  715MOL0     H98607   6.848   1.884   2.540 -1.0604  0.3384 -0.3391
  715MOL0     H98608   6.696   1.917   2.646  0.3561 -0.3709  2.7133
  715MOL0     H98609   6.755   1.748   2.792 -1.3315 -0.4238  0.4257
  715MOL0     H98610   6.814   1.645   2.666 -0.5959  0.2098 -1.0667
  715MOL0     H98611   7.025   1.771   2.633  2.5331 -0.9709  1.1702
  715MOL0     H98612   7.023   1.710   2.789  3.8834  1.0098 -2.9767
  715MOL0     H98613   6.987   1.987   2.705 -0.6540 -1.4401 -1.7852
  715MOL0     H98614   6.929   1.942   2.868  0.4971 -0.7889  1.2810
  715MOL0     H98615   7.164   1.852   2.912  0.4988 -0.7521 -0.8274
  715MOL0     H98616   7.151   2.018   2.919  0.5372 -0.5945  0.9998
  715MOL0     H98617   7.243   1.872   2.666  0.2182  0.9905 -0.6576
  715MOL0     H98618   7.262   2.043   2.713 -4.1579  1.3815  1.9918
  715MOL0     H98619   7.425   2.077   2.955 -2.6852  0.5851 -2.2554
  715MOL0     H98620   7.659   1.832   3.128 -0.0877  0.1200  2.2727
  715MOL0     H98621   7.532   1.944   3.177 -1.6097 -0.5612  0.3264
  715MOL0     H98622   7.642   2.129   3.068 -1.0719  0.0602  0.5187
  715MOL0     H98623   7.769   2.042   3.166 -0.1553 -1.2051  0.2197
  715MOL0     H98624   7.815   1.915   2.949  1.3513 -0.0596  1.6356
  715MOL0     H98625   7.744   2.053   2.874  1.3330 -0.3980 -0.9153
  715MOL0     H98626   7.995   2.057   2.891  0.9498 -1.9984  1.8780
  715MOL0     H98627   7.909   2.205   2.945  0.1801  1.0246  3.1117
  715MOL0     H98628   8.125   2.280   2.938  0.5521 -0.0106 -1.0917
  715MOL0     H98629   8.436   2.444   2.991 -0.4296  0.9618  1.6907
  715MOL0     H98630   8.310   2.413   2.867  0.0360 -1.6100 -2.0721
  715MOL0     H98631   8.457   2.316   2.868 -1.5138 -2.1094  0.2005
  715MOL0     H98632   8.682   1.997   3.397 -0.1765  0.1475  0.1187
  715MOL0     H98633   8.927   1.949   3.451 -1.0745  1.5389  1.6915
  715MOL0     H98634   9.231   2.183   3.207 -0.8049  0.4975  0.5207
  715MOL0     H98635   9.238   2.250   3.365 -1.5686  1.5703 -0.3244
  715MOL0     H98636   9.426   2.065   3.416  0.7289 -0.3476 -0.3273
  715MOL0     H98637   9.371   1.979   3.283  1.7260 -1.9059  1.0842
  715MOL0     H98638   9.483   2.264   3.290  0.5529  0.6110 -0.8523
  715MOL0     H98639   9.434   2.196   3.135  3.5550  0.2359 -0.9414
  715MOL0     H98640   9.603   2.056   3.105  0.6148 -1.9221 -0.2162
  715MOL0     H98641   9.636   2.024   3.269  0.9374 -0.2636 -1.6348
  715MOL0     H98642   9.726   2.240   3.088 -0.7090 -2.8533 -0.7806
  715MOL0     H98643   9.726   2.293   3.256 -3.5313 -0.5527  1.6880
  715MOL0     H98644   9.861   2.036   3.140  2.0919  0.1142  0.3830
  715MOL0     H98645   9.876   2.088   3.306 -1.0640 -1.0575  0.5166
  715MOL0     H98646   9.986   2.304   3.224 -0.8644 -0.5308 -0.5617
  715MOL0     H98647   9.954   2.254   3.060  1.2592 -0.2084 -0.5710
  715MOL0     H98648  10.096   2.074   3.076 -1.0086 -0.4359  0.7347
  715MOL0     H98649  10.092   2.059   3.240 -1.1150 -1.5214 -2.7694
  715MOL0     H98650   9.035   2.282   3.196  0.2978  0.2365  0.9684
  715MOL0     H98651   8.802   2.340   3.173 -1.3119  0.5844  0.3787
  715MOL0     H98652   8.382   2.055   3.289 -0.4633  1.2799  1.4315
  715MOL0     H98653   8.149   2.039   3.286 -0.4191 -1.2999 -1.2185
  715MOL0     H98654   6.243   1.812   2.333  1.2361 -1.6929  0.0904
  715MOL0     H98655   6.108   1.953   2.179  0.2495 -0.8632  2.1547
  715MOL0     H98656   6.096   1.991   1.713 -0.2467 -0.2392  0.1170
  715MOL0     H98657   5.999   2.042   1.507  1.7724 -2.2276  2.0390
  715MOL0     H98658   5.730   2.416   1.443 -0.8987  0.4768 -2.0036
  715MOL0     H98659   5.664   2.294   1.335 -0.1609  0.6099  1.6191
  715MOL0     H98660   5.606   2.362   1.621 -0.1299  0.6023  0.0272
  715MOL0     H98661   5.542   2.208   1.551  0.6817 -0.2328 -2.1056
  715MOL0     H98662   5.492   2.465   1.411 -0.6158  0.3598  1.8719
  715MOL0     H98663   5.426   2.299   1.375  0.2235 -1.7274  1.4729
  715MOL0     H98664   5.303   2.310   1.601 -1.9081  0.0086 -1.4133
  715MOL0     H98665   5.251   2.438   1.494 -0.6919  0.7778  1.0505
  715MOL0     H98666   5.435   2.690   1.771  0.2446  1.1764 -0.5597
  715MOL0     H98667   5.812   2.393   1.671  0.4791  0.7042  1.2077
  715MOL0     H98668   5.893   2.361   2.000 -0.7355 -0.8273 -0.9050
  715MOL0     H98669   6.044   2.414   1.946  1.8947 -0.1337 -1.5498
  715MOL0     H98670   5.889   2.481   1.873 -1.1566 -2.1952 -2.4708
  716MOL0     O98671   2.297   1.146   8.335 -0.6167 -1.0529  0.4262
  716MOL0     C98672   2.270   1.096   8.439 -0.3097 -0.3360  0.2389
  716MOL0     O98673   2.346   1.098   8.551  0.6457 -0.2519  0.1323
  716MOL0     C98674   2.469   1.135   8.563  0.2101 -0.0140 -0.0481
  716MOL0     C98675   2.518   1.118   8.699 -0.0238  0.3700  0.2848
  716MOL0     C98676   2.653   1.156   8.733  0.5156 -0.4905  0.3626
  716MOL0     C98677   2.739   1.195   8.632  0.5062  0.0601  0.2493
  716MOL0     O98678   2.865   1.225   8.674 -0.4303  0.0499 -0.1542
  716MOL0     C98679   2.978   1.139   8.628 -0.2257  0.4242 -0.0551
  716MOL0     C98680   3.105   1.214   8.677  0.7830  0.8940 -0.8480
  716MOL0     C98681   3.236   1.148   8.652 -0.0097 -0.2824 -0.2663
  716MOL0     C98682   3.302   1.203   8.521  0.0207  0.8126 -0.5907
  716MOL0     C98683   3.459   1.176   8.521  0.1110  0.3783 -0.3105
  716MOL0     C98684   3.533   1.233   8.398 -0.3806  0.5230  0.1667
  716MOL0     C98685   3.691   1.215   8.404  0.5513 -0.5878  0.4283
  716MOL0     C98686   3.750   1.286   8.283 -0.1335 -0.0035 -0.5546
  716MOL0     N98687   3.897   1.282   8.289  0.0017 -0.5603  0.7830
  716MOL0     C98688   3.979   1.333   8.388 -1.2474  0.4623  0.1557
  716MOL0     C98689   4.104   1.281   8.367 -0.2054 -0.6533 -0.6062
  716MOL0     C98690   4.222   1.300   8.460  0.8860 -0.1374 -0.0879
  716MOL0     C98691   4.315   1.184   8.457 -0.1789 -1.2543 -0.4721
  716MOL0     C98692   4.439   1.218   8.546  0.3899 -1.4281 -0.1017
  716MOL0     C98693   4.532   1.100   8.572  1.2903  0.2593 -0.8153
  716MOL0     O98694   4.586   1.054   8.444  0.6921  0.2369 -0.6291
  716MOL0     C98695   4.686   0.966   8.439  0.0585  0.4991  0.0487
  716MOL0     C98696   4.739   0.942   8.308 -0.4108 -0.3454 -0.4345
  716MOL0     C98697   4.852   0.867   8.286  0.0788  0.7025  0.1906
  716MOL0     C98698   4.895   0.837   8.144 -0.1390 -1.1297 -0.8147
  716MOL0     C98699   4.921   0.812   8.400  1.0444  0.0704  0.6108
  716MOL0     C98700   5.044   0.732   8.390 -0.4085  0.1316  0.3005
  716MOL0     O98701   5.112   0.738   8.274 -0.3530  0.1367  0.0157
  716MOL0     C98702   5.232   0.667   8.253  0.3207 -0.2984  0.1479
  716MOL0     C98703   5.335   0.678   8.345  0.3109 -0.4067 -0.0331
  716MOL0     C98704   5.447   0.607   8.319 -0.1223  1.0379 -0.3977
  716MOL0     C98705   5.474   0.533   8.207  0.2166  0.6465  0.1124
  716MOL0     O98706   5.595   0.469   8.197  0.4185  0.0955 -0.0074
  716MOL0     C98707   5.607   0.344   8.120  0.0319 -0.3903 -0.3968
  716MOL0     C98708   5.753   0.320   8.085 -0.8999  0.8743 -0.4546
  716MOL0     C98709   5.773   0.208   7.988 -0.2069  0.7460  0.4943
  716MOL0     C98710   5.923   0.173   7.970 -0.1284 -0.2603  0.6076
  716MOL0     C98711   5.952   0.068   7.857  0.1125 -0.9154  0.0528
  716MOL0     C98712   6.102   0.041   7.836 -0.0936 -0.3323  0.6146
  716MOL0     C98713   6.110  -0.047   7.712  0.0904  0.7705  0.2044
  716MOL0     C98714   6.261  -0.096   7.689  0.0028  0.1239  1.0510
  716MOL0    Cl98715   6.265  -0.249   7.619 -0.6716  0.1696 -0.1701
  716MOL0     C98716   5.375   0.519   8.115  0.6275  0.4597 -0.2533
  716MOL0     C98717   5.255   0.594   8.139  0.8993 -0.4103  0.1981
  716MOL0     O98718   5.076   0.669   8.492  1.0598  0.2293 -0.2922
  716MOL0     C98719   4.864   0.837   8.527  0.3745  0.5704  0.6592
  716MOL0     C98720   4.744   0.908   8.549 -0.1394 -0.2840  0.2501
  716MOL0     N98721   4.100   1.203   8.253 -0.1756 -0.1463  0.5428
  716MOL0     N98722   3.981   1.217   8.200 -0.2352 -0.0638 -0.1181
  716MOL0     C98723   2.693   1.204   8.499  0.0491 -0.1809  0.6017
  716MOL0     C98724   2.562   1.174   8.463 -0.2506 -0.1378 -1.3290
  716MOL0     C98725   2.155   1.008   8.446 -0.4328  0.3936  0.0189
  716MOL0     C98726   2.182   0.877   8.497 -0.7175 -0.4920 -0.4311
  716MOL0     C98727   2.080   0.788   8.520 -0.1399  0.3693 -0.6851
  716MOL0     C98728   1.947   0.819   8.501 -0.2536 -0.4666  0.5456
  716MOL0     O98729   1.866   0.714   8.522 -0.0771  0.2588  0.7004
  716MOL0     C98730   1.731   0.714   8.560  0.4055  0.2822 -0.0308
  716MOL0     C98731   1.651   0.686   8.434  0.1228 -0.4634 -0.3402
  716MOL0     C98732   1.501   0.691   8.450 -0.3908 -0.0148 -0.3593
  716MOL0     C98733   1.440   0.592   8.553  0.5701  0.6114  0.2329
  716MOL0     C98734   1.289   0.598   8.540  0.1539 -0.7560  0.9044
  716MOL0     C98735   1.170   0.612   8.541  0.1288 -0.3243 -0.6958
  716MOL0     C98736   1.917   0.945   8.443 -0.6491  0.1482  0.1153
  716MOL0     C98737   2.020   1.047   8.422  0.1135  0.4084 -0.0378
  716MOL0     C98738   1.987   1.183   8.369 -0.6563  0.2416  0.0019
  716MOL0     H98739   2.448   1.093   8.779 -1.0042  0.8650 -0.3935
  716MOL0     H98740   2.694   1.141   8.832  3.0784  2.9493 -0.0213
  716MOL0     H98741   2.967   1.130   8.519  1.9393 -2.4109 -0.1402
  716MOL0     H98742   2.981   1.035   8.661  1.0263  0.9214  1.5321
  716MOL0     H98743   3.099   1.310   8.625 -2.3949  0.4925 -1.4511
  716MOL0     H98744   3.097   1.234   8.784  2.3732  2.9877 -1.0641
  716MOL0     H98745   3.300   1.181   8.736 -0.8871  1.3465 -0.1836
  716MOL0     H98746   3.228   1.040   8.657 -0.0878 -0.3039  5.1932
  716MOL0     H98747   3.253   1.151   8.439 -1.6966  0.3085  0.6925
  716MOL0     H98748   3.282   1.310   8.507 -0.3241  0.4345 -3.6522
  716MOL0     H98749   3.462   1.067   8.532 -2.9263  0.2615  0.2097
  716MOL0     H98750   3.503   1.212   8.615  0.1385 -2.8536  1.0705
  716MOL0     H98751   3.492   1.180   8.312 -1.7960 -3.0445  2.7963
  716MOL0     H98752   3.510   1.340   8.388  1.5701  0.7505 -4.6685
  716MOL0     H98753   3.713   1.108   8.392  0.2998 -0.4555 -1.5880
  716MOL0     H98754   3.729   1.252   8.500 -1.9278  1.6932  0.6574
  716MOL0     H98755   3.719   1.227   8.197  1.0702 -0.4349 -0.6994
  716MOL0     H98756   3.718   1.391   8.279  0.9506  0.2945 -2.1391
  716MOL0     H98757   3.950   1.389   8.477  0.8539  0.9311  0.5983
  716MOL0     H98758   4.185   1.324   8.560 -1.4737 -2.0262 -0.4276
  716MOL0     H98759   4.275   1.391   8.429 -0.7696  1.4154  1.3988
  716MOL0     H98760   4.269   1.093   8.498 -0.8173 -0.7225  0.0039
  716MOL0     H98761   4.347   1.149   8.359 -0.8369 -2.0577 -0.4140
  716MOL0     H98762   4.508   1.286   8.495 -2.5334  1.2729 -0.7392
  716MOL0     H98763   4.415   1.273   8.637 -1.2859  2.7979 -2.8175
  716MOL0     H98764   4.605   1.137   8.645 -0.1756  3.2560 -0.7138
  716MOL0     H98765   4.471   1.022   8.619  0.9941  0.2349 -1.2439
  716MOL0     H98766   4.698   0.998   8.225 -0.0379  2.0748  0.8973
  716MOL0     H98767   4.916   0.730   8.148  1.4221 -0.8405  3.8862
  716MOL0     H98768   4.981   0.901   8.123 -1.1150 -0.3092 -2.5826
  716MOL0     H98769   4.822   0.878   8.073  1.5102  3.7780 -0.0563
  716MOL0     H98770   5.332   0.745   8.430  0.6129 -1.1898  0.6076
  716MOL0     H98771   5.527   0.607   8.393 -1.1914  0.0347  0.8032
  716MOL0     H98772   5.566   0.263   8.180 -1.2864 -0.4422 -1.3488
  716MOL0     H98773   5.552   0.348   8.026  1.1756  0.5904 -1.0648
  716MOL0     H98774   5.804   0.403   8.035  0.2650  0.1838 -0.4460
  716MOL0     H98775   5.800   0.299   8.182 -0.5757 -1.1796 -0.9968
  716MOL0     H98776   5.725   0.229   7.891 -1.4880 -1.4735  0.5854
  716MOL0     H98777   5.704   0.126   8.012 -1.5451  1.3917 -0.9440
  716MOL0     H98778   5.970   0.132   8.060  2.0475  1.7258  0.4994
  716MOL0     H98779   5.967   0.272   7.950  0.1676 -0.6662 -0.8953
  716MOL0     H98780   5.897  -0.023   7.883  0.4758 -1.8967 -2.3355
  716MOL0     H98781   5.901   0.111   7.770 -1.1021  0.0289  1.1774
  716MOL0     H98782   6.159  -0.002   7.919  0.3179  0.6985  0.8718
  716MOL0     H98783   6.149   0.131   7.795 -1.3809 -0.3938 -1.1109
  716MOL0     H98784   6.078   0.004   7.621  0.1342  3.2966  1.5178
  716MOL0     H98785   6.034  -0.126   7.719  1.6534 -0.9380 -0.9663
  716MOL0     H98786   6.320  -0.099   7.781  1.8890 -0.8162 -0.1221
  716MOL0     H98787   6.302  -0.015   7.628  0.8203 -0.5120  0.7300
  716MOL0     H98788   5.376   0.469   8.019  0.1941  0.8150 -0.4473
  716MOL0     H98789   5.183   0.594   8.058  2.7043 -0.7419 -1.4919
  716MOL0     H98790   4.919   0.798   8.612  2.5115 -1.3298 -1.4588
  716MOL0     H98791   4.701   0.924   8.647 -1.8935 -1.2893 -0.3182
  716MOL0     H98792   2.760   1.242   8.423  0.4367 -0.9944  0.5196
  716MOL0     H98793   2.534   1.186   8.359 -1.8295  2.1991 -0.7238
  716MOL0     H98794   2.289   0.860   8.506 -0.6837 -0.8343 -1.3589
  716MOL0     H98795   2.108   0.687   8.548 -0.5888  0.1031 -1.1906
  716MOL0     H98796   1.718   0.628   8.627  1.3515 -0.9498 -1.3641
  716MOL0     H98797   1.693   0.804   8.609  0.0810  0.5764 -0.7959
  716MOL0     H98798   1.668   0.582   8.404 -1.1305 -1.3203  1.6551
  716MOL0     H98799   1.681   0.754   8.354  0.4520 -0.3794 -0.1452
  716MOL0     H98800   1.471   0.792   8.479  0.5018  0.7172 -1.8994
  716MOL0     H98801   1.438   0.685   8.360 -2.0830 -1.1343  0.8250
  716MOL0     H98802   1.473   0.615   8.655  0.2678  1.6699  0.0990
  716MOL0     H98803   1.457   0.488   8.522 -1.6269  0.4216 -0.4845
  716MOL0     H98804   1.067   0.638   8.541  1.1731  5.6129  2.9069
  716MOL0     H98805   1.815   0.975   8.419  0.0704  2.4633 -0.2847
  716MOL0     H98806   1.880   1.181   8.348 -0.5315  3.3072 -1.4082
  716MOL0     H98807   2.000   1.261   8.445 -3.8385  0.4480  0.4402
  716MOL0     H98808   2.048   1.185   8.278  0.9751 -1.4783  0.9631
  717MOL0     O98809   6.887   6.901   9.590 -0.6005  0.3521 -0.0641
  717MOL0     C98810   6.834   6.797   9.560  0.1879 -0.2958  0.1249
  717MOL0     O98811   6.864   6.718   9.451 -0.4440 -0.5946 -0.0148
  717MOL0     C98812   6.982   6.741   9.370 -0.1956  0.2295  0.9704
  717MOL0     C98813   7.108   6.776   9.424 -0.3760 -0.4307  0.5479
  717MOL0     C98814   7.209   6.800   9.334 -0.4381 -0.4672 -0.3089
  717MOL0     C98815   7.208   6.775   9.203  0.0350  0.2242  0.5832
  717MOL0     O98816   7.312   6.792   9.104 -0.0658  0.3716  0.4008
  717MOL0     C98817   7.442   6.815   9.160  0.7724 -0.3544  0.5069
  717MOL0     C98818   7.536   6.848   9.049  1.6542  0.5266  0.2877
  717MOL0     C98819   7.681   6.818   9.078  0.1076  0.1292 -0.4207
  717MOL0     C98820   7.764   6.880   8.973  0.4847  0.4172 -0.5151
  717MOL0     C98821   7.912   6.885   9.008 -0.1266  0.1138 -0.9889
  717MOL0     C98822   7.993   6.778   8.935  1.2690 -0.8893 -0.1714
  717MOL0     C98823   8.126   6.745   8.999  0.2688 -0.3951  0.1378
  717MOL0     C98824   8.193   6.859   9.079 -0.1317 -0.0953 -0.7354
  717MOL0     N98825   8.336   6.830   9.086 -0.3531 -0.3087  0.1891
  717MOL0     C98826   8.430   6.855   8.983  0.9032  0.5334 -0.2197
  717MOL0     C98827   8.538   6.773   9.018  0.6948  0.4645 -0.5317
  717MOL0     C98828   8.675   6.773   8.958  0.2163  0.1133 -0.0833
  717MOL0     C98829   8.751   6.880   9.018 -0.2043 -0.5357  0.9126
  717MOL0     C98830   8.870   6.929   8.926 -0.2522 -0.1107  0.1856
  717MOL0     C98831   8.832   7.018   8.801  0.0497 -0.2931  0.2898
  717MOL0     O98832   8.944   7.063   8.723  0.2656  0.3521 -0.7087
  717MOL0     C98833   9.027   7.159   8.770  0.5089  0.0281  0.8980
  717MOL0     C98834   8.995   7.251   8.872  0.3589  0.0337 -0.6769
  717MOL0     C98835   9.090   7.347   8.910  0.3056  0.4121  0.8378
  717MOL0     C98836   9.053   7.448   9.017 -0.0750  0.8280  1.1117
  717MOL0     C98837   9.221   7.354   8.840  0.1378 -0.4285  0.5832
  717MOL0     C98838   9.336   7.445   8.875 -0.2757 -0.1475  0.2613
  717MOL0     O98839   9.424   7.484   8.779  0.6393 -0.1555 -0.0498
  717MOL0     C98840   9.539   7.532   8.821 -1.0101  0.2064 -0.4745
  717MOL0     C98841   9.558   7.677   8.828  0.3546  0.3347 -0.1983
  717MOL0     C98842   9.675   7.733   8.869  0.1039 -0.1418  0.0792
  717MOL0     C98843   9.778   7.647   8.910 -0.1998  0.3236  0.8059
  717MOL0     O98844   9.889   7.711   8.960 -0.4913 -0.0398 -0.1931
  717MOL0     C98845  10.000   7.624   8.993 -0.5137  0.0114 -0.2748
  717MOL0     C98846  10.113   7.690   9.078  0.6147  0.0754 -0.0476
  717MOL0     C98847  10.096   7.691   9.226  0.0637 -0.4685  0.0651
  717MOL0     C98848  10.189   7.793   9.294 -0.5330 -1.0133 -0.4430
  717MOL0     C98849  10.339   7.766   9.269 -0.5226  0.2860  0.2155
  717MOL0     C98850  10.403   7.631   9.310  0.2712  0.3745 -0.6144
  717MOL0     C98851  10.393   7.596   9.461  0.0985 -0.4018  0.8498
  717MOL0     C98852  10.290   7.485   9.494  0.5609  0.1520 -0.0373
  717MOL0    Cl98853  10.339   7.339   9.398 -0.0922  0.0126 -0.4595
  717MOL0     C98854   9.762   7.507   8.897 -0.3566 -1.1046  0.3019
  717MOL0     C98855   9.644   7.445   8.853  1.0499 -0.2939 -0.8980
  717MOL0     O98856   9.344   7.474   8.990  0.0490 -0.0464  0.0769
  717MOL0     C98857   9.243   7.264   8.739  1.1530 -0.8312 -0.0795
  717MOL0     C98858   9.149   7.169   8.703  0.3210  1.3937 -0.5067
  717MOL0     N98859   8.507   6.712   9.137 -0.3142 -0.4747 -0.2660
  717MOL0     N98860   8.395   6.751   9.181 -0.3071 -0.0903 -0.2997
  717MOL0     C98861   7.081   6.724   9.151  0.8502 -0.1482 -0.0796
  717MOL0     C98862   6.974   6.709   9.235 -0.2900  0.7342  0.8790
  717MOL0     C98863   6.707   6.757   9.634 -0.4870  0.3262 -0.5864
  717MOL0     C98864   6.606   6.693   9.565  0.3410 -0.6323  0.2132
  717MOL0     C98865   6.490   6.649   9.625  0.3310 -1.3414 -0.7687
  717MOL0     C98866   6.465   6.670   9.759  0.0630  0.7800 -0.0978
  717MOL0     O98867   6.346   6.627   9.818  0.4611 -0.2088 -0.0387
  717MOL0     C98868   6.320   6.646   9.959 -0.1138  0.0667 -0.1196
  717MOL0     C98869   6.234   6.766  10.009 -0.2687  0.4273 -0.0558
  717MOL0     C98870   6.102   6.777   9.936 -0.2375  1.4299 -0.1420
  717MOL0     C98871   6.003   6.883   9.996  0.4447 -0.4404  0.2782
  717MOL0     C98872   5.881   6.903   9.902 -0.1334  0.4299 -0.3796
  717MOL0     C98873   5.779   6.925   9.849 -0.1452  0.7450  0.5042
  717MOL0     C98874   6.564   6.736   9.836  0.2765 -0.1746  0.3387
  717MOL0     C98875   6.691   6.776   9.776 -0.3694 -0.8278 -0.1846
  717MOL0     C98876   6.803   6.829   9.863  0.1299  0.7545 -0.4495
  717MOL0     H98877   7.122   6.787   9.531  0.7463 -0.5347  0.4183
  717MOL0     H98878   7.291   6.861   9.371 -1.2204 -0.6156  1.7890
  717MOL0     H98879   7.470   6.722   9.210 -1.4923 -3.1973 -3.0123
  717MOL0     H98880   7.447   6.893   9.237  2.5763 -0.4823  0.5737
  717MOL0     H98881   7.506   6.807   8.952 -2.8555  3.0205  0.3609
  717MOL0     H98882   7.509   6.953   9.035  0.0921  0.2087  0.7989
  717MOL0     H98883   7.691   6.864   9.177  0.9188 -0.5462 -0.1763
  717MOL0     H98884   7.702   6.710   9.078  2.0219  0.4506  0.8538
  717MOL0     H98885   7.753   6.833   8.874  2.1022 -0.6280 -0.2449
  717MOL0     H98886   7.733   6.983   8.953  0.7665  0.7219  0.5898
  717MOL0     H98887   7.918   6.853   9.112 -2.5456 -1.1585 -1.1768
  717MOL0     H98888   7.953   6.987   9.005 -0.1447  0.2844  2.0669
  717MOL0     H98889   7.935   6.687   8.920 -1.4459  1.1157 -3.2780
  717MOL0     H98890   8.011   6.835   8.844 -1.4160  5.3788  2.5786
  717MOL0     H98891   8.189   6.713   8.915 -1.1562 -1.7558 -0.4535
  717MOL0     H98892   8.126   6.649   9.051  1.9195 -0.7512 -0.4773
  717MOL0     H98893   8.175   6.961   9.043 -1.3073  0.5882  1.5881
  717MOL0     H98894   8.145   6.868   9.177  1.4450  1.3864 -0.0580
  717MOL0     H98895   8.413   6.910   8.891  0.1062  3.7408  1.6768
  717MOL0     H98896   8.660   6.791   8.851 -0.3100 -1.6521 -0.3425
  717MOL0     H98897   8.729   6.678   8.969  0.4055  0.0639 -1.2769
  717MOL0     H98898   8.690   6.969   9.032 -0.7601 -0.9038  0.8458
  717MOL0     H98899   8.787   6.850   9.117  1.7344  2.2900  1.1916
  717MOL0     H98900   8.938   6.995   8.980 -0.0496 -0.4577  0.3565
  717MOL0     H98901   8.925   6.837   8.906  0.2233 -0.6045  3.3100
  717MOL0     H98902   8.764   6.961   8.736  1.4019 -2.1942  0.4483
  717MOL0     H98903   8.782   7.111   8.831  0.3955 -1.2881  4.4950
  717MOL0     H98904   8.904   7.256   8.930  2.2655  2.0131  2.4607
  717MOL0     H98905   9.119   7.533   8.998  1.9223 -1.0157 -0.7850
  717MOL0     H98906   9.064   7.412   9.120 -3.7514  0.9335  1.7003
  717MOL0     H98907   8.954   7.494   9.003 -0.4570 -0.3997 -0.5267
  717MOL0     H98908   9.472   7.736   8.798  0.0417 -0.2916 -0.5709
  717MOL0     H98909   9.682   7.840   8.882  0.4663 -0.4073  2.4525
  717MOL0     H98910   9.973   7.538   9.054 -1.3461  0.6876  0.3286
  717MOL0     H98911  10.042   7.597   8.895 -0.1960 -0.1842 -0.0859
  717MOL0     H98912  10.205   7.637   9.054  0.0317 -1.0125  0.0520
  717MOL0     H98913  10.104   7.790   9.034  1.0014 -0.2088 -0.7813
  717MOL0     H98914  10.107   7.594   9.274  2.9327 -1.0666 -1.5257
  717MOL0     H98915   9.996   7.730   9.245  0.0053 -0.2759 -0.6033
  717MOL0     H98916  10.165   7.796   9.401 -1.6760  4.3091 -0.5830
  717MOL0     H98917  10.159   7.896   9.272 -0.1511 -0.4632  1.4412
  717MOL0     H98918  10.360   7.780   9.162 -1.1026  0.2176  0.0937
  717MOL0     H98919  10.383   7.847   9.328 -1.8859 -1.3387  3.7348
  717MOL0     H98920  10.506   7.627   9.275  0.2414  1.4407 -0.8527
  717MOL0     H98921  10.355   7.552   9.252  1.5085  1.0625 -2.6469
  717MOL0     H98922  10.381   7.688   9.519  3.7057  1.8104 -1.4533
  717MOL0     H98923  10.491   7.555   9.487  0.0921 -0.0565  1.4178
  717MOL0     H98924  10.192   7.512   9.455 -0.5254 -1.0823  1.7220
  717MOL0     H98925  10.300   7.476   9.602 -1.0572  1.8516  0.3092
  717MOL0     H98926   9.853   7.448   8.898  0.0454 -0.5051 -0.3079
  717MOL0     H98927   9.623   7.338   8.845  3.5858 -0.8942 -0.3421
  717MOL0     H98928   9.333   7.264   8.679  0.6591 -1.3082 -0.8395
  717MOL0     H98929   9.173   7.093   8.629  0.2689 -0.4635  1.3027
  717MOL0     H98930   7.068   6.691   9.049  0.6935  0.6286 -0.3156
  717MOL0     H98931   6.881   6.668   9.197  0.2953  0.2503 -0.0756
  717MOL0     H98932   6.605   6.671   9.458 -0.4492 -0.6302  0.2131
  717MOL0     H98933   6.420   6.603   9.555 -0.9586 -2.6936  1.3072
  717MOL0     H98934   6.262   6.561   9.998 -0.5703  0.3952 -0.0793
  717MOL0     H98935   6.413   6.653  10.017 -0.0531 -1.3259 -0.0202
  717MOL0     H98936   6.292   6.858   9.999  0.5218 -0.1097 -0.4458
  717MOL0     H98937   6.213   6.766  10.116  3.7281  4.5989  1.0455
  717MOL0     H98938   6.120   6.782   9.828 -2.0295 -1.3837 -0.6764
  717MOL0     H98939   6.047   6.683   9.943  2.4248 -0.1085  2.1269
  717MOL0     H98940   6.066   6.971  10.015  1.9837 -1.2377 -0.9335
  717MOL0     H98941   5.961   6.841  10.088 -1.6476 -0.0305 -0.4231
  717MOL0     H98942   5.684   6.939   9.801 -1.1654 -0.8684  1.9460
  717MOL0     H98943   6.558   6.758   9.942  0.7616 -0.6566  0.4724
  717MOL0     H98944   6.784   6.936   9.862 -3.4302  0.2559 -0.0345
  717MOL0     H98945   6.808   6.788   9.964  1.9202 -2.1272 -1.5829
  717MOL0     H98946   6.900   6.806   9.818  0.6554 -0.9301  1.4133
  718MOL0     O98947   2.866   3.332   6.223 -0.2280  0.2987 -0.7841
  718MOL0     C98948   2.858   3.242   6.312  0.6906  0.4616  0.5534
  718MOL0     O98949   2.954   3.215   6.409  0.2465  0.1881  0.6208
  718MOL0     C98950   3.082   3.257   6.384 -0.0726 -0.2718  0.0112
  718MOL0     C98951   3.140   3.259   6.256 -0.2015 -1.1873  0.8637
  718MOL0     C98952   3.270   3.301   6.238 -0.3338  0.8533 -0.3855
  718MOL0     C98953   3.355   3.329   6.350  1.0441  0.2040  0.0413
  718MOL0     O98954   3.483   3.366   6.348  0.1290 -0.6027 -0.0777
  718MOL0     C98955   3.548   3.435   6.239  0.0510  0.1595  0.2893
  718MOL0     C98956   3.700   3.434   6.244  1.0764 -0.2590 -0.3174
  718MOL0     C98957   3.768   3.508   6.137 -0.1043 -0.4580  0.0657
  718MOL0     C98958   3.920   3.504   6.156 -0.1630  0.2879 -0.6662
  718MOL0     C98959   3.998   3.561   6.043 -0.2049 -0.8742  0.5622
  718MOL0     C98960   3.998   3.484   5.913 -0.2847  0.0368 -0.0224
  718MOL0     C98961   4.115   3.499   5.819  0.4274 -1.0046 -0.2130
  718MOL0     C98962   4.254   3.491   5.883  0.9452 -1.2111  0.2958
  718MOL0     N98963   4.350   3.431   5.787 -0.3437 -0.1241 -0.2145
  718MOL0     C98964   4.486   3.462   5.760 -0.9502  0.2737 -0.2575
  718MOL0     C98965   4.535   3.370   5.685  0.1637 -0.3667 -0.4482
  718MOL0     C98966   4.673   3.376   5.642  0.3930  0.6526  0.0465
  718MOL0     C98967   4.698   3.276   5.522 -0.8410 -0.3959  0.0286
  718MOL0     C98968   4.850   3.290   5.464  0.2079  0.0298  0.5182
  718MOL0     C98969   4.879   3.190   5.345  0.0938 -0.3305 -0.1984
  718MOL0     O98970   4.999   3.225   5.277 -0.3490 -0.0288  0.1260
  718MOL0     C98971   5.051   3.148   5.172  0.5327 -0.1195 -1.0976
  718MOL0     C98972   5.180   3.184   5.131  0.0935 -1.2144  0.8230
  718MOL0     C98973   5.241   3.111   5.026 -0.6334 -1.5955 -0.3995
  718MOL0     C98974   5.372   3.162   4.963  0.1797 -0.2282 -0.2691
  718MOL0     C98975   5.175   3.005   4.969 -0.7400 -0.1817 -0.1397
  718MOL0     C98976   5.242   2.916   4.864  1.0566 -0.0740  0.3498
  718MOL0     O98977   5.329   2.968   4.768 -0.4025  0.1375 -0.8289
  718MOL0     C98978   5.402   2.881   4.689  0.4728  0.2427  0.6978
  718MOL0     C98979   5.442   2.754   4.730  0.6386 -0.2483  0.0529
  718MOL0     C98980   5.518   2.678   4.639  0.2363 -0.3617  0.0589
  718MOL0     C98981   5.558   2.731   4.508  0.5748  0.5853 -0.4433
  718MOL0     O98982   5.604   2.646   4.411  0.6677  0.0992 -1.4123
  718MOL0     C98983   5.640   2.687   4.287  0.0788  0.4232 -0.2278
  718MOL0     C98984   5.698   2.563   4.228 -0.3163  0.6827  1.3062
  718MOL0     C98985   5.829   2.525   4.292 -0.9788  0.0404  0.1199
  718MOL0     C98986   5.901   2.434   4.188  0.6788 -0.6659 -1.0839
  718MOL0     C98987   6.046   2.412   4.222  0.1497 -0.8017 -0.0165
  718MOL0     C98988   6.100   2.301   4.136 -0.6002 -0.0070  0.2046
  718MOL0     C98989   6.247   2.277   4.134 -0.0530 -0.2971 -0.8310
  718MOL0     C98990   6.294   2.234   4.268  0.4058  0.7447 -0.4253
  718MOL0    Cl98991   6.200   2.097   4.349 -0.7273  0.2212  0.3158
  718MOL0     C98992   5.514   2.861   4.474  0.4622  0.4566  0.2398
  718MOL0     C98993   5.445   2.929   4.563 -0.3584 -0.9569 -1.3240
  718MOL0     O98994   5.187   2.810   4.856 -0.1316 -0.4566  0.6421
  718MOL0     C98995   5.049   2.977   5.011 -0.6903  0.0624 -0.1215
  718MOL0     C98996   4.990   3.043   5.108  0.6437  0.6403  0.3600
  718MOL0     N98997   4.445   3.270   5.668  0.4448  0.5085 -0.2977
  718MOL0     N98998   4.327   3.313   5.726 -0.5940  0.0413  0.4546
  718MOL0     C98999   3.294   3.325   6.480 -0.1958  1.1441 -0.5538
  718MOL0     C99000   3.161   3.276   6.499  0.1342  0.3000  0.3676
  718MOL0     C99001   2.731   3.167   6.306 -0.0822  0.6014 -0.3911
  718MOL0     C99002   2.643   3.185   6.195 -0.1565 -1.0933  0.2084
  718MOL0     C99003   2.523   3.116   6.183 -0.1806  0.2165  0.2772
  718MOL0     C99004   2.488   3.008   6.275  0.6131  0.8276  0.8730
  718MOL0     O99005   2.384   2.917   6.261  0.7225 -0.3854 -0.4927
  718MOL0     C99006   2.305   2.919   6.141  0.6007  0.4009  0.3409
  718MOL0     C99007   2.230   2.791   6.115 -0.2069 -0.0582 -0.6764
  718MOL0     C99008   2.119   2.768   6.220 -0.4177  0.3590 -0.2829
  718MOL0     C99009   1.986   2.837   6.192 -0.2662  0.6903  0.2602
  718MOL0     C99010   1.883   2.781   6.274 -0.3265 -0.0347  0.9775
  718MOL0     C99011   1.793   2.743   6.352  0.2077 -0.8907  0.0898
  718MOL0     C99012   2.575   2.983   6.377 -0.7641 -0.4783 -0.1487
  718MOL0     C99013   2.691   3.067   6.399 -1.0040  0.0178 -0.1535
  718MOL0     C99014   2.762   3.047   6.533  0.8566 -0.5507 -0.0834
  718MOL0     H99015   3.094   3.235   6.161 -0.2330  1.4639  0.1134
  718MOL0     H99016   3.294   3.344   6.140  1.6324  1.0130  0.1235
  718MOL0     H99017   3.506   3.535   6.227 -0.4880  0.4939  3.8311
  718MOL0     H99018   3.519   3.387   6.145 -0.1784  5.1322 -2.5142
  718MOL0     H99019   3.726   3.485   6.337  0.0855  0.7616 -0.5716
  718MOL0     H99020   3.730   3.329   6.239  0.0453 -0.5208 -2.2708
  718MOL0     H99021   3.744   3.464   6.039  3.2631 -3.5174  0.4235
  718MOL0     H99022   3.731   3.611   6.140  0.3801 -0.2629  3.8597
  718MOL0     H99023   3.943   3.566   6.243 -0.8799 -1.3825  0.7812
  718MOL0     H99024   3.950   3.402   6.183 -2.2402 -0.3811 -0.7058
  718MOL0     H99025   4.101   3.545   6.074 -0.1343  1.1899  1.5676
  718MOL0     H99026   3.982   3.668   6.025  1.1934 -0.5771  1.0146
  718MOL0     H99027   4.000   3.378   5.941  2.0352  0.2995  1.0199
  718MOL0     H99028   3.907   3.504   5.857  0.3389  0.7520 -0.8138
  718MOL0     H99029   4.107   3.596   5.769 -0.2367 -0.8589  0.1501
  718MOL0     H99030   4.095   3.424   5.742  4.2441 -2.2988 -0.1625
  718MOL0     H99031   4.292   3.586   5.922  1.4991 -1.6736  0.9179
  718MOL0     H99032   4.247   3.420   5.966  0.5017  0.0411  1.3801
  718MOL0     H99033   4.533   3.552   5.797 -0.7114  0.4788 -1.0404
  718MOL0     H99034   4.735   3.344   5.727  2.4505  0.7183 -1.3710
  718MOL0     H99035   4.690   3.480   5.615  1.7826  0.0212 -1.6936
  718MOL0     H99036   4.688   3.173   5.556 -2.9199 -0.5094 -0.8074
  718MOL0     H99037   4.632   3.290   5.436 -0.7721 -2.3924 -0.3978
  718MOL0     H99038   4.872   3.388   5.420  1.3092 -0.5899 -0.3482
  718MOL0     H99039   4.921   3.279   5.547  0.6136  0.4679  0.2377
  718MOL0     H99040   4.886   3.091   5.393 -2.1430 -0.2401  0.4220
  718MOL0     H99041   4.795   3.186   5.275 -0.5938  0.4111  0.5587
  718MOL0     H99042   5.239   3.269   5.164 -1.6308 -0.9797  3.5866
  718MOL0     H99043   5.347   3.211   4.868 -1.4043  0.8776  0.6506
  718MOL0     H99044   5.440   3.078   4.949 -1.2951 -1.6347  0.5466
  718MOL0     H99045   5.423   3.235   5.027 -0.5425 -1.0874  1.3548
  718MOL0     H99046   5.392   2.704   4.813 -4.2464 -1.2254 -3.0357
  718MOL0     H99047   5.548   2.575   4.651 -0.2762 -0.8676 -2.4323
  718MOL0     H99048   5.569   2.732   4.217  1.9786  4.1899  0.0400
  718MOL0     H99049   5.719   2.761   4.297  1.3239 -1.0021  0.8909
  718MOL0     H99050   5.626   2.480   4.225  0.6452 -0.1237 -0.7218
  718MOL0     H99051   5.717   2.596   4.126 -2.5078  0.9268  0.9112
  718MOL0     H99052   5.810   2.468   4.384 -1.1616  2.2887  1.5493
  718MOL0     H99053   5.883   2.615   4.322 -0.5610 -0.0284 -0.3938
  718MOL0     H99054   5.896   2.482   4.090 -0.2384  1.6343  0.0345
  718MOL0     H99055   5.850   2.337   4.176  1.7697 -1.2343 -1.2462
  718MOL0     H99056   6.098   2.504   4.194 -0.6365  0.3510  2.1034
  718MOL0     H99057   6.065   2.394   4.328  0.5317  0.3558  0.1257
  718MOL0     H99058   6.062   2.324   4.037 -1.2529 -0.6150  0.3027
  718MOL0     H99059   6.051   2.207   4.163 -0.5084  0.7985  3.6561
  718MOL0     H99060   6.303   2.363   4.097 -0.1683  0.7824  1.2997
  718MOL0     H99061   6.271   2.194   4.068  1.1792 -0.3032 -0.4027
  718MOL0     H99062   6.286   2.314   4.342 -1.7253 -0.0268  0.2444
  718MOL0     H99063   6.401   2.208   4.266  0.8159 -0.1675  6.4281
  718MOL0     H99064   5.541   2.899   4.376  0.2992 -0.9037 -0.3452
  718MOL0     H99065   5.421   3.030   4.533  1.5153 -0.5352 -1.4964
  718MOL0     H99066   4.978   2.907   4.966 -0.5961 -2.1871  2.8521
  718MOL0     H99067   4.885   3.021   5.123  0.6208  0.0928 -0.5163
  718MOL0     H99068   3.343   3.341   6.575  0.3410 -0.4081 -0.5329
  718MOL0     H99069   3.113   3.265   6.596 -0.3321 -1.8555 -0.0607
  718MOL0     H99070   2.663   3.254   6.114  1.8316 -2.3749 -0.4884
  718MOL0     H99071   2.456   3.121   6.098 -2.0330  0.3470  1.6890
  718MOL0     H99072   2.235   3.001   6.156 -0.8858 -1.1365  2.3500
  718MOL0     H99073   2.364   2.941   6.051 -0.8637 -0.6832 -0.9564
  718MOL0     H99074   2.299   2.706   6.119  1.8333  1.5249  1.4726
  718MOL0     H99075   2.181   2.796   6.018 -1.9155 -1.7840  0.0547
  718MOL0     H99076   2.099   2.660   6.223 -0.6191  0.4058  1.9649
  718MOL0     H99077   2.151   2.791   6.322  0.6351 -0.8067 -0.3281
  718MOL0     H99078   1.952   2.817   6.090  0.2233 -0.1230  0.2487
  718MOL0     H99079   2.000   2.945   6.205  1.5450  0.8042 -1.8696
  718MOL0     H99080   1.716   2.706   6.417  0.0925  0.8709  1.0135
  718MOL0     H99081   2.568   2.908   6.455 -0.7082  1.2297  1.5752
  718MOL0     H99082   2.793   3.146   6.569 -0.9029  0.8010 -2.0636
  718MOL0     H99083   2.689   3.016   6.609 -0.1154  2.5547  0.4163
  718MOL0     H99084   2.844   2.976   6.531 -1.1718 -3.0113 -1.2867
  719MOL0     O99085   6.361   3.224   5.352 -0.0429  0.0433 -0.1309
  719MOL0     C99086   6.332   3.270   5.242 -0.5096  0.6833 -1.1028
  719MOL0     O99087   6.418   3.338   5.165  0.2522 -0.7233 -0.0632
  719MOL0     C99088   6.556   3.335   5.189  0.4309 -0.4874 -0.3648
  719MOL0     C99089   6.626   3.234   5.258  0.3571 -0.5764 -0.1194
  719MOL0     C99090   6.768   3.224   5.247 -0.9191  0.5911  0.0717
  719MOL0     C99091   6.849   3.326   5.199  0.0304  0.5026 -0.4541
  719MOL0     O99092   6.988   3.309   5.189 -0.3413  0.0317  0.4870
  719MOL0     C99093   7.061   3.417   5.125 -0.0206  0.5431  0.2195
  719MOL0     C99094   7.209   3.380   5.140 -0.5802  0.5961 -0.5281
  719MOL0     C99095   7.304   3.451   5.042 -0.4946 -0.4318 -0.0880
  719MOL0     C99096   7.448   3.446   5.099 -0.3670 -0.3170 -0.0728
  719MOL0     C99097   7.557   3.488   5.001 -0.0895  0.5003  0.4251
  719MOL0     C99098   7.542   3.634   4.961  0.2833 -0.5921 -0.2178
  719MOL0     C99099   7.641   3.663   4.847 -0.5654  0.6442 -0.1966
  719MOL0     C99100   7.789   3.654   4.888 -0.1605  0.3621  0.2494
  719MOL0     N99101   7.865   3.719   4.786 -0.1403 -0.2168  0.5659
  719MOL0     C99102   7.923   3.653   4.678 -0.2087 -0.6336 -0.3699
  719MOL0     C99103   7.981   3.755   4.603  1.2981 -0.2909  0.2697
  719MOL0     C99104   8.066   3.734   4.491 -0.0367 -1.1948  0.1663
  719MOL0     C99105   8.215   3.687   4.529  1.0137 -1.0174 -0.1246
  719MOL0     C99106   8.306   3.696   4.409  1.1130  0.5877 -0.2268
  719MOL0     C99107   8.456   3.672   4.439  0.3965 -0.2850  0.2006
  719MOL0     O99108   8.521   3.801   4.467 -0.2835  0.0642  0.4215
  719MOL0     C99109   8.647   3.799   4.520  0.0201  0.2343 -0.7228
  719MOL0     C99110   8.761   3.735   4.471  0.2247 -0.6812  0.4492
  719MOL0     C99111   8.887   3.772   4.508  0.3054  0.4993 -0.0932
  719MOL0     C99112   9.001   3.696   4.440 -0.4050 -0.0090 -0.5870
  719MOL0     C99113   8.911   3.873   4.606  0.0370  0.3410 -0.4463
  719MOL0     C99114   9.042   3.921   4.651  0.4363  1.0454 -0.8421
  719MOL0     O99115   9.150   3.908   4.577  0.7426 -0.5054  0.1846
  719MOL0     C99116   9.269   3.974   4.598 -0.1186  0.0905  0.3094
  719MOL0     C99117   9.387   3.898   4.598 -0.1049  0.2726 -0.8292
  719MOL0     C99118   9.507   3.961   4.610 -0.0266  0.5129  0.1186
  719MOL0     C99119   9.512   4.099   4.621  0.1221  0.7298 -0.8487
  719MOL0     O99120   9.634   4.149   4.618 -0.1729 -0.0160  0.3758
  719MOL0     C99121   9.668   4.240   4.722 -0.1225 -0.5107  0.7108
  719MOL0     C99122   9.809   4.273   4.729 -0.3200 -0.5635  0.4253
  719MOL0     C99123   9.902   4.156   4.773  0.5269 -0.4894 -0.2205
  719MOL0     C99124   9.903   4.124   4.923  0.5563  0.3764  0.1956
  719MOL0     C99125  10.012   4.027   4.960 -0.2059 -0.4065 -0.7505
  719MOL0     C99126  10.035   4.015   5.117 -0.2117 -0.0337  0.2033
  719MOL0     C99127  10.142   3.908   5.134  0.2953 -0.3410  0.2325
  719MOL0     C99128  10.176   3.897   5.287 -0.0730  0.1241  0.7688
  719MOL0    Cl99129  10.226   3.722   5.333 -0.3415 -0.1535 -0.2263
  719MOL0     C99130   9.403   4.175   4.629 -0.2505 -0.9573  0.1895
  719MOL0     C99131   9.286   4.115   4.627  0.2460  0.8552 -0.5965
  719MOL0     O99132   9.044   3.982   4.757  0.5410 -0.2241 -0.4497
  719MOL0     C99133   8.793   3.939   4.661 -0.0200 -0.5145  0.4367
  719MOL0     C99134   8.663   3.899   4.621  0.0203 -0.0831 -0.2525
  719MOL0     N99135   7.970   3.871   4.679  0.5672 -0.4982  0.0318
  719MOL0     N99136   7.909   3.847   4.787 -0.4461  1.0210 -0.7101
  719MOL0     C99137   6.773   3.431   5.141 -0.0542  0.1104 -0.8450
  719MOL0     C99138   6.632   3.434   5.130  0.3187 -0.2653 -0.2336
  719MOL0     C99139   6.195   3.262   5.203 -0.4237 -0.4996 -0.1014
  719MOL0     C99140   6.160   3.333   5.085  0.0568  0.2291  0.2862
  719MOL0     C99141   6.037   3.335   5.032 -0.0218  0.2144  0.0266
  719MOL0     C99142   5.932   3.277   5.105  0.3525 -0.5663  0.7789
  719MOL0     O99143   5.799   3.299   5.069 -0.0359  0.2023  0.0012
  719MOL0     C99144   5.753   3.362   4.954  0.0653  0.3628  1.1293
  719MOL0     C99145   5.769   3.278   4.827  0.3484 -0.2433  0.0728
  719MOL0     C99146   5.677   3.323   4.719  0.1341 -0.2570  0.5129
  719MOL0     C99147   5.665   3.243   4.587  0.4990 -0.6223 -0.2927
  719MOL0     C99148   5.569   3.301   4.494  0.0203 -0.2231 -0.2945
  719MOL0     C99149   5.503   3.358   4.416  0.5664 -0.6273 -0.0217
  719MOL0     C99150   5.964   3.204   5.219 -0.8045 -0.2215 -0.6405
  719MOL0     C99151   6.093   3.184   5.268  0.1147 -0.4684  0.5353
  719MOL0     C99152   6.127   3.083   5.374 -0.3756 -0.5886 -0.0659
  719MOL0     H99153   6.579   3.146   5.302  0.6799 -2.5489 -3.3944
  719MOL0     H99154   6.816   3.138   5.291  0.8805  1.4560 -0.1142
  719MOL0     H99155   7.051   3.509   5.184  0.0313 -0.7644  2.3470
  719MOL0     H99156   7.029   3.423   5.020 -1.5942  3.0224  0.7502
  719MOL0     H99157   7.240   3.400   5.243  0.5844  0.5703 -0.8513
  719MOL0     H99158   7.221   3.273   5.120 -0.0535  0.3820  0.8236
  719MOL0     H99159   7.311   3.403   4.944  0.7798  0.1688 -0.3050
  719MOL0     H99160   7.264   3.551   5.022  1.6327  0.3973 -0.3842
  719MOL0     H99161   7.457   3.513   5.185  0.7840 -0.0854 -0.3536
  719MOL0     H99162   7.475   3.349   5.142 -0.1450 -0.0485  0.4138
  719MOL0     H99163   7.553   3.429   4.908  0.7734  1.6147 -0.3503
  719MOL0     H99164   7.652   3.470   5.051 -0.1955 -0.8990  0.1640
  719MOL0     H99165   7.441   3.655   4.924  0.5631 -1.0449 -1.2576
  719MOL0     H99166   7.557   3.703   5.045  0.3416  1.0399 -1.5167
  719MOL0     H99167   7.623   3.769   4.827 -1.6675  1.3607  3.6411
  719MOL0     H99168   7.624   3.599   4.761 -0.8390 -0.4606  0.6533
  719MOL0     H99169   7.814   3.697   4.985  0.1865  1.9821 -0.5262
  719MOL0     H99170   7.806   3.546   4.899 -1.4407  0.3499  2.7276
  719MOL0     H99171   7.931   3.549   4.650  1.0652  0.0333 -2.7993
  719MOL0     H99172   8.070   3.826   4.431  1.8308 -0.3346  1.5566
  719MOL0     H99173   8.013   3.655   4.437  0.0357  0.0937 -1.9228
  719MOL0     H99174   8.248   3.754   4.609 -2.0105 -1.3471  1.5309
  719MOL0     H99175   8.217   3.585   4.568 -0.6799 -0.6171  1.1273
  719MOL0     H99176   8.277   3.613   4.343  0.9724 -0.7308  1.4274
  719MOL0     H99177   8.288   3.790   4.355  1.4071  1.1586  0.6566
  719MOL0     H99178   8.474   3.607   4.525 -0.4620  1.7286  2.0068
  719MOL0     H99179   8.503   3.618   4.356  3.8027 -2.3306  3.1528
  719MOL0     H99180   8.751   3.660   4.393  0.6830 -0.1081 -0.1741
  719MOL0     H99181   8.966   3.624   4.366 -1.2518 -0.8808  0.6234
  719MOL0     H99182   9.046   3.634   4.519 -3.4136 -1.4704  0.1295
  719MOL0     H99183   9.075   3.764   4.397 -2.4320  0.9152 -2.8698
  719MOL0     H99184   9.372   3.791   4.587  3.7742 -0.4611 -0.3631
  719MOL0     H99185   9.597   3.900   4.607 -0.9635 -0.9337  0.6755
  719MOL0     H99186   9.614   4.334   4.708  5.3068  3.1947  1.6575
  719MOL0     H99187   9.631   4.189   4.812 -0.2605 -1.6558  0.0344
  719MOL0     H99188   9.834   4.302   4.626  0.0446 -0.1830  0.6198
  719MOL0     H99189   9.825   4.354   4.801 -1.6844  0.2638 -0.1588
  719MOL0     H99190  10.001   4.191   4.744 -0.0010  0.5434 -0.8362
  719MOL0     H99191   9.874   4.065   4.721  1.3452 -1.2008  0.5525
  719MOL0     H99192   9.804   4.090   4.954  0.2693  1.8801  1.0053
  719MOL0     H99193   9.933   4.213   4.980  1.9570 -0.6285  1.0831
  719MOL0     H99194   9.998   3.932   4.906 -0.3259 -0.2112 -1.0647
  719MOL0     H99195  10.104   4.069   4.917  0.7879 -1.4629  0.2752
  719MOL0     H99196   9.940   3.979   5.156 -2.4070  4.3886 -0.4342
  719MOL0     H99197  10.061   4.109   5.166  1.1350 -0.6213  0.6636
  719MOL0     H99198  10.232   3.925   5.075 -1.6086  1.3513 -2.4141
  719MOL0     H99199  10.101   3.811   5.102  2.5480 -0.3225 -3.2228
  719MOL0     H99200  10.099   3.925   5.359 -0.2063 -2.3472  1.7088
  719MOL0     H99201  10.265   3.958   5.310 -1.2648  2.3433 -0.2634
  719MOL0     H99202   9.397   4.282   4.644 -1.8756 -0.9811 -0.1558
  719MOL0     H99203   9.194   4.170   4.644 -0.0800  0.0208  0.4599
  719MOL0     H99204   8.809   4.020   4.732  1.0291  0.8519 -1.2610
  719MOL0     H99205   8.581   3.945   4.675  0.2573 -1.5734  1.4937
  719MOL0     H99206   6.821   3.511   5.085  1.3687  0.7985  1.2509
  719MOL0     H99207   6.588   3.517   5.076  0.1269  0.3772  0.8766
  719MOL0     H99208   6.241   3.369   5.022  1.1575  0.0523  1.5329
  719MOL0     H99209   6.014   3.386   4.939 -3.1219  0.0711  0.6078
  719MOL0     H99210   5.647   3.381   4.977 -0.2568 -0.2858  0.1968
  719MOL0     H99211   5.797   3.460   4.932  0.3080  0.4964  2.1434
  719MOL0     H99212   5.760   3.176   4.865 -1.1628  0.6795  2.4506
  719MOL0     H99213   5.872   3.290   4.791  0.0104 -0.4491 -0.9988
  719MOL0     H99214   5.577   3.327   4.762 -0.3557 -2.7471 -0.2610
  719MOL0     H99215   5.694   3.429   4.696  2.5392 -0.3694  1.4695
  719MOL0     H99216   5.635   3.139   4.604  2.0569 -1.4082 -2.0301
  719MOL0     H99217   5.762   3.236   4.537  0.6190 -3.7581  0.1594
  719MOL0     H99218   5.456   3.432   4.353  2.9206  0.9284 -0.0745
  719MOL0     H99219   5.892   3.164   5.290  1.7540 -0.5263  1.9697
  719MOL0     H99220   6.139   3.139   5.467  0.4020  0.1060 -0.5655
  719MOL0     H99221   6.044   3.013   5.388 -2.1607  1.0239 -1.7255
  719MOL0     H99222   6.208   3.011   5.359  0.0327 -0.5779  1.9025
  720MOL0     O99223   6.708   7.771   3.197  0.6006  0.3925  0.2556
  720MOL0     C99224   6.611   7.803   3.263  0.0087 -0.0158  0.1343
  720MOL0     O99225   6.525   7.905   3.238 -0.2645  0.0878 -0.2604
  720MOL0     C99226   6.533   7.973   3.118 -0.2694  0.4209 -0.4497
  720MOL0     C99227   6.461   8.092   3.127 -0.0007 -1.0380  0.3106
  720MOL0     C99228   6.449   8.184   3.030  0.0083  0.4308  0.8466
  720MOL0     C99229   6.509   8.154   2.906 -0.8486 -0.5052 -0.1652
  720MOL0     O99230   6.500   8.241   2.800 -0.7721 -0.2702  0.1753
  720MOL0     C99231   6.491   8.383   2.823  0.1470 -0.5985  0.0196
  720MOL0     C99232   6.548   8.464   2.702  0.2712 -0.5898 -0.4434
  720MOL0     C99233   6.697   8.439   2.686 -0.2690  0.4677 -0.4498
  720MOL0     C99234   6.762   8.541   2.604  0.3415 -0.2866 -0.5390
  720MOL0     C99235   6.914   8.516   2.582  0.0748  0.1518 -0.6425
  720MOL0     C99236   6.992   8.545   2.710  0.3897  0.6579 -0.0662
  720MOL0     C99237   7.148   8.550   2.668 -0.3246  0.9643  0.1877
  720MOL0     C99238   7.225   8.609   2.783  0.2241 -0.1289 -0.0641
  720MOL0     N99239   7.261   8.497   2.869 -1.1058 -0.3215  0.3038
  720MOL0     C99240   7.371   8.413   2.840  0.0743  0.0381  0.0103
  720MOL0     C99241   7.404   8.360   2.959  0.1174  1.1480 -0.5395
  720MOL0     C99242   7.528   8.278   3.000 -0.9412 -0.1539 -0.8871
  720MOL0     C99243   7.664   8.341   2.985 -0.4376  0.5676 -0.5548
  720MOL0     C99244   7.690   8.373   2.839 -0.4475 -0.0400  0.4670
  720MOL0     C99245   7.834   8.416   2.814  0.3855  0.4930  1.0359
  720MOL0     O99246   7.920   8.301   2.838  0.1394 -0.4872  0.3783
  720MOL0     C99247   8.054   8.319   2.840  1.0179 -0.3232 -0.0299
  720MOL0     C99248   8.111   8.200   2.875  0.0407 -0.3821  0.0320
  720MOL0     C99249   8.248   8.188   2.870  0.1327  0.0045 -0.2535
  720MOL0     C99250   8.308   8.048   2.889  0.0839  0.3888  0.2264
  720MOL0     C99251   8.338   8.297   2.853 -0.3690  0.3880  0.0543
  720MOL0     C99252   8.486   8.289   2.857 -0.4240  0.5207 -1.0195
  720MOL0     O99253   8.550   8.168   2.868 -0.4314 -0.0255 -0.8834
  720MOL0     C99254   8.674   8.158   2.930 -0.5852 -0.2589  0.4446
  720MOL0     C99255   8.725   8.238   3.034 -0.1568 -0.1810 -0.5766
  720MOL0     C99256   8.851   8.208   3.090  0.4627 -0.5649 -0.5826
  720MOL0     C99257   8.928   8.099   3.045  0.3399  0.1717  0.7733
  720MOL0     O99258   9.040   8.063   3.116  0.2085 -0.0896  0.0202
  720MOL0     C99259   9.155   8.016   3.049 -0.2889  0.0356 -0.0145
  720MOL0     C99260   9.276   8.038   3.142  0.0993 -0.4476  1.3416
  720MOL0     C99261   9.389   7.960   3.076 -0.7876  0.1714 -0.2169
  720MOL0     C99262   9.506   7.959   3.174  0.4488 -0.1372 -0.0503
  720MOL0     C99263   9.641   7.922   3.113 -0.9790  0.6032  0.0614
  720MOL0     C99264   9.732   7.904   3.229 -0.2228 -0.5393  0.8641
  720MOL0     C99265   9.880   7.911   3.177 -0.3703 -0.3257  0.8440
  720MOL0     C99266   9.981   7.925   3.293 -0.8615  0.5378  0.4168
  720MOL0    Cl99267  10.131   7.973   3.219 -0.4842  0.2473 -0.3040
  720MOL0     C99268   8.876   8.028   2.935 -0.0632 -0.4626  0.3655
  720MOL0     C99269   8.752   8.050   2.886  1.1174 -0.4771 -0.4320
  720MOL0     O99270   8.539   8.398   2.862 -0.0887 -0.1152  0.0212
  720MOL0     C99271   8.271   8.415   2.825  0.0952 -0.4690 -0.5180
  720MOL0     C99272   8.127   8.429   2.807 -0.1173  0.0922  0.2260
  720MOL0     N99273   7.305   8.400   3.050  0.0120  0.5235  0.0756
  720MOL0     N99274   7.215   8.475   2.993 -0.0167 -0.4153 -0.5050
  720MOL0     C99275   6.593   8.044   2.888  0.1416  0.5227  0.4864
  720MOL0     C99276   6.602   7.948   2.996  0.4517 -0.4645  0.1486
  720MOL0     C99277   6.574   7.707   3.368 -0.2897  0.3243 -0.3948
  720MOL0     C99278   6.448   7.648   3.374  0.0208 -0.5184 -0.4248
  720MOL0     C99279   6.407   7.570   3.481 -0.5561 -0.4035 -0.3933
  720MOL0     C99280   6.493   7.549   3.596 -0.6628 -0.0696  1.2780
  720MOL0     O99281   6.458   7.480   3.716  0.2488  0.4264  0.3329
  720MOL0     C99282   6.346   7.393   3.701  0.7477  0.1154 -1.1122
  720MOL0     C99283   6.301   7.328   3.840 -0.3425  0.0008  0.3639
  720MOL0     C99284   6.190   7.223   3.823 -0.3793  0.0566  0.3909
  720MOL0     C99285   6.048   7.276   3.837 -0.2200  0.6863  0.9270
  720MOL0     C99286   5.950   7.171   3.808 -0.5957  0.1794 -0.3684
  720MOL0     C99287   5.883   7.080   3.790  0.8066  0.7489 -0.2490
  720MOL0     C99288   6.622   7.603   3.586 -0.7871 -0.3905  0.4047
  720MOL0     C99289   6.671   7.682   3.476 -0.6243  0.1895 -0.4050
  720MOL0     C99290   6.809   7.755   3.484  0.3404  0.3262 -1.1354
  720MOL0     H99291   6.426   8.129   3.222  3.6657  1.1898  0.9589
  720MOL0     H99292   6.409   8.283   3.045 -0.7899  0.4773 -1.3198
  720MOL0     H99293   6.545   8.419   2.911 -1.7052 -0.0098  0.9676
  720MOL0     H99294   6.388   8.417   2.837  0.8841  3.8117 -2.9187
  720MOL0     H99295   6.500   8.439   2.607  1.4004  1.7687 -1.7393
  720MOL0     H99296   6.529   8.569   2.728 -0.1677 -0.8717  0.4044
  720MOL0     H99297   6.740   8.451   2.785 -0.9885 -0.5085 -0.0049
  720MOL0     H99298   6.716   8.340   2.644  2.1603 -0.3143  2.2350
  720MOL0     H99299   6.719   8.538   2.504  0.1611  0.8250 -0.5130
  720MOL0     H99300   6.738   8.643   2.636 -1.0756  0.1231 -2.7532
  720MOL0     H99301   6.962   8.566   2.498 -0.5933 -0.2325 -1.2643
  720MOL0     H99302   6.922   8.413   2.547 -1.6203  0.2498 -1.4235
  720MOL0     H99303   6.951   8.638   2.748 -2.2214  0.4310 -2.0096
  720MOL0     H99304   6.971   8.459   2.774 -1.0526 -0.0504 -1.4285
  720MOL0     H99305   7.166   8.606   2.576  0.7777 -1.7069 -1.3252
  720MOL0     H99306   7.185   8.451   2.641 -0.3764  0.9327  0.2316
  720MOL0     H99307   7.304   8.656   2.724  0.1803 -2.2955 -1.9891
  720MOL0     H99308   7.163   8.681   2.836 -0.5226 -2.8274  3.0060
  720MOL0     H99309   7.440   8.413   2.756  0.8391 -0.4920  0.6229
  720MOL0     H99310   7.530   8.183   2.945  2.6971 -2.5080  2.7669
  720MOL0     H99311   7.518   8.257   3.107 -0.6219  2.1992 -0.3476
  720MOL0     H99312   7.666   8.432   3.045 -3.8518  0.6980 -0.5023
  720MOL0     H99313   7.737   8.269   3.024 -1.2953  1.3945  2.8215
  720MOL0     H99314   7.674   8.285   2.776 -0.1487  1.4365 -1.7825
  720MOL0     H99315   7.620   8.455   2.824 -1.4161 -1.1365 -1.4329
  720MOL0     H99316   7.848   8.466   2.718  1.3894 -1.6811 -0.0067
  720MOL0     H99317   7.862   8.486   2.893  2.0385 -0.1884  1.1041
  720MOL0     H99318   8.039   8.119   2.889  0.7524 -0.8055  1.4730
  720MOL0     H99319   8.361   8.032   2.795  0.5133  3.6136 -0.1859
  720MOL0     H99320   8.234   7.968   2.902 -0.5927  1.1239  1.0995
  720MOL0     H99321   8.373   8.044   2.977  0.1999  0.0354  0.1269
  720MOL0     H99322   8.658   8.312   3.075  0.3646 -0.5195  0.9335
  720MOL0     H99323   8.881   8.275   3.170 -4.0656  1.8185 -0.5204
  720MOL0     H99324   9.141   7.907   3.045 -1.7190  0.1545  1.0280
  720MOL0     H99325   9.161   8.072   2.956 -0.5248  0.1694  0.0490
  720MOL0     H99326   9.287   8.146   3.157 -2.9881  0.4747 -1.7762
  720MOL0     H99327   9.255   8.003   3.244  1.0382 -0.7252  1.4505
  720MOL0     H99328   9.414   8.009   2.981 -1.4707  1.7290  0.3723
  720MOL0     H99329   9.362   7.856   3.055  0.2562  0.0811 -1.2434
  720MOL0     H99330   9.490   7.876   3.243 -0.5644 -1.1761 -1.4799
  720MOL0     H99331   9.503   8.046   3.240 -2.2473 -1.2436  1.4345
  720MOL0     H99332   9.631   7.831   3.052 -1.2996  0.5431  0.2010
  720MOL0     H99333   9.663   8.012   3.055  0.5011  2.1518  2.8376
  720MOL0     H99334   9.714   7.806   3.274  1.6226 -1.1273  0.4425
  720MOL0     H99335   9.711   7.985   3.298 -1.0557  0.5827 -0.6560
  720MOL0     H99336   9.892   7.998   3.112  2.6764 -1.3887 -0.1739
  720MOL0     H99337   9.909   7.822   3.122 -2.0243 -0.1813 -0.3429
  720MOL0     H99338  10.008   7.827   3.334 -1.9471 -0.3856 -0.9606
  720MOL0     H99339   9.942   7.980   3.379 -1.1862 -2.5966  2.4489
  720MOL0     H99340   8.920   7.937   2.895  0.2823  0.1165 -0.6166
  720MOL0     H99341   8.710   7.993   2.804 -3.6510 -0.6380  1.7525
  720MOL0     H99342   8.331   8.504   2.810 -2.0775  1.1670  0.1079
  720MOL0     H99343   8.095   8.527   2.774 -0.6694 -0.9606 -2.6147
  720MOL0     H99344   6.655   8.028   2.801  1.1220  2.2666  0.8194
  720MOL0     H99345   6.676   7.877   2.960  2.6997  1.3603  0.8689
  720MOL0     H99346   6.387   7.671   3.287  0.9072  3.0438 -0.2300
  720MOL0     H99347   6.310   7.522   3.473 -0.1919 -1.4328  1.1046
  720MOL0     H99348   6.259   7.451   3.668  0.7405 -0.2309 -1.6991
  720MOL0     H99349   6.371   7.312   3.633  2.7309  1.3111 -1.8947
  720MOL0     H99350   6.273   7.408   3.910 -2.3659  0.0149 -0.3951
  720MOL0     H99351   6.383   7.272   3.885 -1.2113 -0.1670  1.8106
  720MOL0     H99352   6.213   7.173   3.728  0.4548 -1.8547  1.5198
  720MOL0     H99353   6.209   7.140   3.891 -0.2020  0.0582  0.3453
  720MOL0     H99354   6.033   7.366   3.777  1.0172  0.7030  0.6165
  720MOL0     H99355   6.029   7.295   3.943  1.3148 -4.4769  2.4157
  720MOL0     H99356   5.813   7.002   3.766  1.1136  0.6516 -0.8765
  720MOL0     H99357   6.682   7.593   3.676 -0.0168  2.0460  0.2247
  720MOL0     H99358   6.873   7.711   3.561 -0.3858  0.1035 -0.6523
  720MOL0     H99359   6.867   7.739   3.392 -0.0916 -1.9909 -1.0751
  720MOL0     H99360   6.787   7.860   3.504 -2.9307 -0.4291 -0.1777
  721MOL0     O99361  11.303   4.060  11.252  0.3103  0.3688  0.3491
  721MOL0     C99362  11.231   4.157  11.249 -0.5530 -0.3166 -0.2737
  721MOL0     O99363  11.276   4.289  11.243  0.1781 -0.5450 -0.2665
  721MOL0     C99364  11.406   4.320  11.270 -0.4717  0.7740  0.1358
  721MOL0     C99365  11.435   4.365  11.396 -0.2304 -1.0692  0.0935
  721MOL0     C99366  11.573   4.406  11.422 -0.4942  0.5186 -0.0926
  721MOL0     C99367  11.669   4.391  11.316 -0.0169 -0.6351 -0.3915
  721MOL0     O99368  11.794   4.439  11.337 -0.4091 -0.6260  0.3692
  721MOL0     C99369  11.890   4.458  11.233  0.5475  0.2176  0.6546
  721MOL0     C99370  12.008   4.530  11.298 -0.2241  0.2177  0.6625
  721MOL0     C99371  12.107   4.597  11.191  0.3585 -0.1126  0.1481
  721MOL0     C99372  12.194   4.692  11.266 -0.4949 -0.0324 -0.1278
  721MOL0     C99373  12.309   4.753  11.169  0.6155  1.2271 -0.1729
  721MOL0     C99374  12.417   4.659  11.124  0.0237 -0.8016  0.3572
  721MOL0     C99375  12.548   4.735  11.083 -0.3396  0.3128  0.3405
  721MOL0     C99376  12.549   4.812  10.949  0.6533 -0.9950  0.2393
  721MOL0     N99377  12.683   4.843  10.911  0.3818 -0.3249  0.3777
  721MOL0     C99378  12.777   4.889  10.995 -0.3435 -0.3158  0.4822
  721MOL0     C99379  12.877   4.912  10.914  0.3396  0.4727 -0.9481
  721MOL0     C99380  13.003   4.952  10.971  0.0014  0.9225 -0.1037
  721MOL0     C99381  13.114   4.968  10.869  0.0007 -1.1057  1.1630
  721MOL0     C99382  13.098   5.104  10.793 -0.7548 -1.0812 -0.3716
  721MOL0     C99383  13.235   5.148  10.736 -0.1507  0.0990  0.2868
  721MOL0     O99384  13.275   5.055  10.636  0.2334  0.5142  0.5441
  721MOL0     C99385  13.404   5.017  10.624 -0.0277  0.2556  0.6744
  721MOL0     C99386  13.517   5.096  10.662 -0.2370  0.3997 -0.4718
  721MOL0     C99387  13.652   5.064  10.616 -0.3213  0.3735 -0.1781
  721MOL0     C99388  13.762   5.150  10.660  0.1025 -0.9409 -0.4467
  721MOL0     C99389  13.672   4.948  10.536 -0.5086  0.1969 -0.2863
  721MOL0     C99390  13.808   4.920  10.490  0.1472 -0.0825 -0.1031
  721MOL0     O99391  13.821   4.875  10.362 -0.2750 -0.4154  0.0472
  721MOL0     C99392  13.939   4.815  10.316  0.8311 -0.5797 -0.9365
  721MOL0     C99393  13.981   4.689  10.353  0.1029  0.4085 -0.9015
  721MOL0     C99394  14.105   4.636  10.315  0.2524 -0.6177 -0.5973
  721MOL0     C99395  14.184   4.703  10.217 -0.1605  0.5474 -0.4686
  721MOL0     O99396  14.295   4.635  10.171  0.6169  0.5753 -0.4012
  721MOL0     C99397  14.372   4.700  10.068 -0.7807  0.3417 -0.2909
  721MOL0     C99398  14.458   4.806  10.119 -0.9877  0.2094  1.0776
  721MOL0     C99399  14.562   4.751  10.218 -0.1316 -0.0533 -0.0387
  721MOL0     C99400  14.671   4.855  10.250  0.1775 -0.9059 -0.3170
  721MOL0     C99401  14.779   4.861  10.141  0.1891  1.2106  0.2819
  721MOL0     C99402  14.902   4.938  10.193  0.5472 -0.5708  0.1510
  721MOL0     C99403  15.031   4.918  10.115  0.2052  0.0783  0.3936
  721MOL0     C99404  15.074   4.775  10.077  0.2397  0.3891 -0.9755
  721MOL0    Cl99405  15.037   4.653  10.209  0.3319 -0.1242 -0.4353
  721MOL0     C99406  14.141   4.831  10.177 -0.1788 -0.2106  0.6485
  721MOL0     C99407  14.021   4.882  10.223 -0.1172 -0.5268 -0.1609
  721MOL0     O99408  13.888   4.906  10.576 -0.3870  0.1930  0.4740
  721MOL0     C99409  13.556   4.879  10.493 -0.0009 -0.0643  0.0053
  721MOL0     C99410  13.427   4.912  10.536 -0.2819  0.3617 -0.8956
  721MOL0     N99411  12.861   4.873  10.788 -0.0378  0.3006 -0.0757
  721MOL0     N99412  12.743   4.822  10.784 -0.0085 -0.6163 -1.3734
  721MOL0     C99413  11.634   4.338  11.190 -0.7209  0.4795 -0.5268
  721MOL0     C99414  11.504   4.299  11.173  0.3893 -0.2362 -0.4559
  721MOL0     C99415  11.079   4.137  11.264  0.3360  0.3249 -0.2812
  721MOL0     C99416  11.000   4.255  11.245  0.3265 -0.3646  0.2128
  721MOL0     C99417  10.859   4.259  11.262 -0.1846  0.3282  0.7902
  721MOL0     C99418  10.794   4.137  11.292 -0.1121  0.2413  0.4638
  721MOL0     O99419  10.657   4.126  11.311  0.3355  1.0038  0.4331
  721MOL0     C99420  10.579   4.244  11.295  0.1123 -0.8190  0.1142
  721MOL0     C99421  10.438   4.214  11.322 -0.5642  0.5245  0.0525
  721MOL0     C99422  10.360   4.338  11.335  0.2055 -0.4577 -0.0929
  721MOL0     C99423  10.197   4.325  11.342 -0.5468  0.0147  0.7944
  721MOL0     C99424  10.119   4.410  11.251 -0.0266 -0.4435  0.5428
  721MOL0     C99425  10.025   4.465  11.191 -0.2610 -0.0910 -0.0389
  721MOL0     C99426  10.866   4.020  11.298 -0.8680 -0.0098  0.0435
  721MOL0     C99427  11.007   4.012  11.287 -0.4433  0.2675  0.1840
  721MOL0     C99428  11.078   3.873  11.275 -0.0241 -0.0564 -0.6541
  721MOL0     H99429  11.355   4.388  11.465  0.7328  3.3228  0.0224
  721MOL0     H99430  11.603   4.452  11.516  1.6497  1.1884 -1.0556
  721MOL0     H99431  11.851   4.505  11.143 -6.1308 -5.2981 -0.1323
  721MOL0     H99432  11.925   4.363  11.191  0.5122  0.3259  0.3785
  721MOL0     H99433  11.974   4.614  11.360  1.9067 -0.1839  2.5225
  721MOL0     H99434  12.063   4.463  11.365 -1.4231 -2.9486 -1.2999
  721MOL0     H99435  12.166   4.523  11.136  1.7978 -0.6565  2.2834
  721MOL0     H99436  12.044   4.651  11.120  2.9545 -0.7365 -2.8457
  721MOL0     H99437  12.132   4.779  11.292  3.1512  2.7762 -0.0624
  721MOL0     H99438  12.240   4.655  11.358 -0.8787  2.2185  1.0486
  721MOL0     H99439  12.353   4.847  11.204  1.9594  2.0001 -3.5667
  721MOL0     H99440  12.257   4.771  11.075 -0.0402 -0.8281 -0.2529
  721MOL0     H99441  12.441   4.596  11.211 -0.5502 -1.6279 -0.0652
  721MOL0     H99442  12.382   4.602  11.037  2.3613  2.1279 -2.7424
  721MOL0     H99443  12.626   4.658  11.084  0.1495  0.7816 -0.4986
  721MOL0     H99444  12.567   4.799  11.170  0.7178 -0.1641  0.4839
  721MOL0     H99445  12.507   4.753  10.868  0.6811  1.7395 -1.9022
  721MOL0     H99446  12.488   4.901  10.965  0.1117 -1.7079  2.5686
  721MOL0     H99447  12.772   4.915  11.100 -0.6638 -1.6982  0.8292
  721MOL0     H99448  13.034   4.879  11.046 -0.4296  1.4699  0.6379
  721MOL0     H99449  12.994   5.050  11.020  0.1750  1.2897 -0.8017
  721MOL0     H99450  13.211   4.959  10.917  0.2523  0.1813  0.9480
  721MOL0     H99451  13.113   4.889  10.794  1.0324 -3.0782  3.1302
  721MOL0     H99452  13.023   5.089  10.715 -1.3358  1.7552 -0.4833
  721MOL0     H99453  13.063   5.192  10.847  1.0411 -0.4147 -0.2108
  721MOL0     H99454  13.241   5.245  10.685  2.3957 -0.5030 -0.7129
  721MOL0     H99455  13.305   5.155  10.819  1.5712 -0.3490 -1.0757
  721MOL0     H99456  13.496   5.185  10.720  0.3607 -0.2076  0.7077
  721MOL0     H99457  13.836   5.158  10.580 -0.2516 -1.2333 -0.8075
  721MOL0     H99458  13.804   5.106  10.750  1.3171  0.8626 -0.0822
  721MOL0     H99459  13.734   5.254  10.682  2.1516 -0.2563 -0.8602
  721MOL0     H99460  13.919   4.624  10.415  0.1322 -0.1959 -1.5049
  721MOL0     H99461  14.143   4.540  10.348  3.4281  0.3009 -1.2397
  721MOL0     H99462  14.435   4.627  10.015 -2.1318  0.2283 -1.8378
  721MOL0     H99463  14.313   4.730   9.981 -1.4628 -1.3854 -0.4620
  721MOL0     H99464  14.519   4.860  10.046  1.0174 -1.8410  1.1344
  721MOL0     H99465  14.397   4.878  10.175 -2.2053  1.3726 -1.5908
  721MOL0     H99466  14.602   4.665  10.163  0.5954  0.0023  0.3947
  721MOL0     H99467  14.518   4.723  10.314  0.4358  0.7351  0.4548
  721MOL0     H99468  14.728   4.834  10.340  0.8571  1.0884 -0.2179
  721MOL0     H99469  14.627   4.955  10.261  1.3400 -0.4023 -0.1216
  721MOL0     H99470  14.803   4.755  10.128 -0.6174  1.0291  0.1943
  721MOL0     H99471  14.752   4.908  10.047  2.0711  2.0954  0.1517
  721MOL0     H99472  14.921   4.914  10.298 -1.6337  1.4979  1.1210
  721MOL0     H99473  14.877   5.044  10.188  0.2822 -0.5373  1.7844
  721MOL0     H99474  15.115   4.955  10.175 -0.0289  2.3427 -0.5972
  721MOL0     H99475  15.024   4.981  10.027 -0.4381  0.3093  0.6057
  721MOL0     H99476  15.178   4.763  10.046  0.2965 -0.9000 -0.3648
  721MOL0     H99477  15.017   4.745   9.989  0.6038  1.0523 -1.4443
  721MOL0     H99478  14.189   4.894  10.103  1.2991 -1.9103  0.0782
  721MOL0     H99479  13.995   4.980  10.185  4.0478  0.6987 -0.3537
  721MOL0     H99480  13.564   4.789  10.433 -0.4761 -2.1960  2.8737
  721MOL0     H99481  13.335   4.864  10.504 -0.2444 -0.6513  0.4191
  721MOL0     H99482  11.706   4.335  11.109 -1.1414  1.3168 -0.9487
  721MOL0     H99483  11.463   4.251  11.084  1.6800 -1.5683 -0.3709
  721MOL0     H99484  11.047   4.353  11.250 -0.8727  0.3919 -1.9529
  721MOL0     H99485  10.804   4.352  11.260  0.0211  0.4424  0.0427
  721MOL0     H99486  10.612   4.320  11.367 -1.8089 -0.8387  1.0884
  721MOL0     H99487  10.590   4.293  11.198  1.3216  0.3899  0.8272
  721MOL0     H99488  10.418   4.148  11.407 -0.7443 -0.0549 -0.4304
  721MOL0     H99489  10.390   4.164  11.238 -0.5718  1.5827 -0.5816
  721MOL0     H99490  10.402   4.398  11.416  1.3644  0.1054 -1.0663
  721MOL0     H99491  10.382   4.404  11.249  0.6299 -0.3729  0.0751
  721MOL0     H99492  10.177   4.336  11.449  1.0210 -5.3964  1.9562
  721MOL0     H99493  10.181   4.218  11.323  3.0562 -1.3498  4.0818
  721MOL0     H99494   9.937   4.514  11.153 -0.5362  0.3230  1.0752
  721MOL0     H99495  10.805   3.930  11.291 -0.9239 -0.0827  1.2847
  721MOL0     H99496  11.004   3.793  11.293 -0.4895  0.5486  0.1971
  721MOL0     H99497  11.125   3.866  11.177  0.6443 -1.2197 -0.2801
  721MOL0     H99498  11.155   3.851  11.350 -1.2197 -1.3933  0.2618
  722MOL0     O99499   8.954   9.534   1.035 -0.6284 -0.2220  0.7745
  722MOL0     C99500   9.031   9.604   0.966  0.3551  0.9074 -1.0269
  722MOL0     O99501   9.131   9.552   0.887  0.3667 -0.0060 -0.2937
  722MOL0     C99502   9.189   9.433   0.903  0.5538  0.3156  0.5261
  722MOL0     C99503   9.200   9.363   1.026 -0.5891  0.2793 -0.7117
  722MOL0     C99504   9.274   9.252   1.033 -0.0322 -0.4609 -0.4379
  722MOL0     C99505   9.329   9.194   0.924  0.1525  0.2167  1.3773
  722MOL0     O99506   9.404   9.082   0.939  0.0496 -0.1827 -0.2034
  722MOL0     C99507   9.338   8.967   0.894  0.7614  0.8750 -0.3140
  722MOL0     C99508   9.432   8.850   0.848 -0.2073 -0.1730 -0.0303
  722MOL0     C99509   9.504   8.792   0.964  0.4810  0.0705 -0.2285
  722MOL0     C99510   9.431   8.678   1.038 -0.2761  0.6174  0.2812
  722MOL0     C99511   9.516   8.621   1.160 -0.7275 -1.1819 -0.4568
  722MOL0     C99512   9.439   8.514   1.243 -1.1098 -0.0109 -0.0212
  722MOL0     C99513   9.527   8.455   1.352 -0.4088 -1.2013  0.0582
  722MOL0     C99514   9.477   8.317   1.404  0.7338  0.6398 -0.3150
  722MOL0     N99515   9.551   8.283   1.525  0.6118  0.5150  0.1092
  722MOL0     C99516   9.683   8.259   1.524 -0.7654  0.3023  0.0259
  722MOL0     C99517   9.706   8.185   1.631  0.9918 -0.1387 -1.4202
  722MOL0     C99518   9.830   8.139   1.701  0.2133 -0.6306  0.4150
  722MOL0     C99519   9.869   7.997   1.660 -0.1330  0.1243  0.2859
  722MOL0     C99520   9.921   7.982   1.516 -0.0121  0.2493  0.0965
  722MOL0     C99521  10.036   8.078   1.481  1.1290 -0.7337  0.5314
  722MOL0     O99522   9.996   8.213   1.482  0.3414 -0.6020  0.2888
  722MOL0     C99523  10.082   8.307   1.422  0.6000 -0.1828  1.0729
  722MOL0     C99524  10.044   8.404   1.337 -0.2946 -0.0323  0.3004
  722MOL0     C99525  10.129   8.496   1.262 -0.4465  0.2777 -1.0202
  722MOL0     C99526  10.062   8.605   1.182  0.1654  0.1404  0.4760
  722MOL0     C99527  10.267   8.474   1.275  0.4883 -0.0912 -0.1620
  722MOL0     C99528  10.372   8.547   1.192 -1.1553 -0.0139 -1.0650
  722MOL0     O99529  10.507   8.533   1.231  0.4501  0.1885  0.5120
  722MOL0     C99530  10.601   8.602   1.157 -0.1270  0.5574 -0.5311
  722MOL0     C99531  10.614   8.596   1.023  0.0921 -0.1234  0.3348
  722MOL0     C99532  10.710   8.671   0.951  0.5417  0.5307  0.0284
  722MOL0     C99533  10.812   8.743   1.028  0.4481  0.2706 -0.1013
  722MOL0     O99534  10.912   8.809   0.967  0.5336 -0.1172 -0.6408
  722MOL0     C99535  10.916   8.814   0.828 -0.1559 -0.8739  0.9613
  722MOL0     C99536  11.040   8.890   0.776 -0.2450 -0.0802  0.4043
  722MOL0     C99537  11.174   8.807   0.774 -0.1747 -0.6174 -0.0931
  722MOL0     C99538  11.287   8.883   0.697 -0.6333  0.3053  0.3827
  722MOL0     C99539  11.423   8.799   0.682  0.3703 -0.8198 -0.1765
  722MOL0     C99540  11.535   8.884   0.633  0.3849  0.1524 -0.4454
  722MOL0     C99541  11.592   8.965   0.750  0.4669 -0.2610 -0.1882
  722MOL0     C99542  11.741   8.978   0.742 -0.4394  0.2002 -0.0797
  722MOL0    Cl99543  11.800   9.095   0.861 -0.0832  0.1716  0.0400
  722MOL0     C99544  10.807   8.735   1.163  0.0690  0.1565 -0.4670
  722MOL0     C99545  10.703   8.670   1.229  0.5052  0.0249 -0.4452
  722MOL0     O99546  10.338   8.600   1.088  1.2428  0.3561  0.0145
  722MOL0     C99547  10.312   8.378   1.366 -0.0217 -0.1992  0.4978
  722MOL0     C99548  10.225   8.296   1.436 -0.0389  0.3719  0.1972
  722MOL0     N99549   9.584   8.169   1.695 -0.1679 -0.8438  0.2284
  722MOL0     N99550   9.486   8.220   1.630 -0.3487 -0.5403  0.5064
  722MOL0     C99551   9.312   9.253   0.798 -0.0698 -0.1896 -0.3702
  722MOL0     C99552   9.249   9.375   0.785 -0.2819  0.4208 -0.5042
  722MOL0     C99553   9.025   9.751   0.979 -0.9867 -0.5448 -0.0346
  722MOL0     C99554   9.146   9.825   0.959  1.0907  0.4270  0.2518
  722MOL0     C99555   9.154   9.962   0.979  0.9594 -0.4293 -0.5665
  722MOL0     C99556   9.044  10.033   1.031 -0.5000 -0.2584  0.8256
  722MOL0     O99557   9.062  10.170   1.050  0.8265 -0.6222  0.1582
  722MOL0     C99558   8.980  10.242   1.150  1.5808  0.3241 -0.4132
  722MOL0     C99559   9.080  10.300   1.248  0.2747  0.6161  0.4549
  722MOL0     C99560   9.160  10.203   1.333 -0.5959 -0.2757 -0.9320
  722MOL0     C99561   9.081  10.124   1.435  0.1008  0.3260  0.4063
  722MOL0     C99562   9.158  10.123   1.556  0.8207  0.0156 -0.6588
  722MOL0     C99563   9.225  10.125   1.657  0.2049  0.8044 -0.4072
  722MOL0     C99564   8.924   9.966   1.051 -0.8139  0.1335  0.2171
  722MOL0     C99565   8.916   9.829   1.032 -0.3433  0.0120 -0.3836
  722MOL0     C99566   8.778   9.772   1.056  0.1902  0.5278  0.0012
  722MOL0     H99567   9.152   9.394   1.118  0.0589 -4.4368  1.5066
  722MOL0     H99568   9.286   9.209   1.132 -0.6878  0.8634  0.2380
  722MOL0     H99569   9.269   8.990   0.813  0.0461 -2.8750 -0.9378
  722MOL0     H99570   9.268   8.928   0.970  1.2919 -3.2288 -1.6917
  722MOL0     H99571   9.371   8.769   0.807  2.3925 -1.7160 -1.0399
  722MOL0     H99572   9.511   8.894   0.787  2.0904 -0.5832  2.4708
  722MOL0     H99573   9.603   8.758   0.933  0.7489  0.0725  0.6082
  722MOL0     H99574   9.523   8.865   1.043  0.3737  0.5447 -0.6292
  722MOL0     H99575   9.332   8.717   1.062 -1.3223 -0.8686 -1.3205
  722MOL0     H99576   9.407   8.591   0.976  0.0428  0.6825  0.0661
  722MOL0     H99577   9.540   8.709   1.220 -1.0094 -0.7509 -0.9653
  722MOL0     H99578   9.610   8.586   1.117 -0.7666 -2.7785  0.7095
  722MOL0     H99579   9.343   8.557   1.271 -3.0072 -2.3595 -2.3545
  722MOL0     H99580   9.406   8.435   1.175 -2.0188  0.5100 -0.2009
  722MOL0     H99581   9.531   8.526   1.435 -1.3997 -1.2883  0.1874
  722MOL0     H99582   9.630   8.434   1.321  0.3351  1.5579  0.3923
  722MOL0     H99583   9.370   8.319   1.424  0.8226  1.1143  0.1602
  722MOL0     H99584   9.496   8.242   1.327  2.8586  0.1741  0.5674
  722MOL0     H99585   9.760   8.290   1.455  1.7202  1.0041  2.8981
  722MOL0     H99586   9.809   8.137   1.809 -2.3544  0.6510  0.0150
  722MOL0     H99587   9.919   8.201   1.685  0.9142 -2.1838 -2.2162
  722MOL0     H99588   9.946   7.966   1.731  0.2081  3.5124  1.5426
  722MOL0     H99589   9.782   7.932   1.674 -0.2860  0.6042  1.7271
  722MOL0     H99590   9.954   7.878   1.503 -2.0749 -0.4633  0.2642
  722MOL0     H99591   9.835   7.992   1.449 -2.4866 -0.0754  3.0061
  722MOL0     H99592  10.117   8.067   1.553  2.7515  2.0990 -0.7385
  722MOL0     H99593  10.080   8.060   1.383 -0.9920  0.6742 -0.7627
  722MOL0     H99594   9.941   8.425   1.309  0.0191  0.3081 -0.6237
  722MOL0     H99595  10.067   8.573   1.077  1.2835  0.7397  0.3308
  722MOL0     H99596  10.115   8.700   1.179 -1.6264  1.1786 -1.4296
  722MOL0     H99597   9.959   8.627   1.212  0.4202  1.7748  0.2398
  722MOL0     H99598  10.551   8.539   0.955  2.3473 -0.5043 -1.5510
  722MOL0     H99599  10.712   8.665   0.843 -0.2520  0.9635 -0.0171
  722MOL0     H99600  10.929   8.712   0.790 -0.3176 -1.0096  1.2628
  722MOL0     H99601  10.828   8.860   0.781  1.2395  0.6280 -0.2762
  722MOL0     H99602  11.018   8.913   0.672 -0.0519  2.8116  0.9226
  722MOL0     H99603  11.060   8.984   0.828  0.7976 -2.0570  3.8750
  722MOL0     H99604  11.154   8.716   0.717  1.0655  0.2537 -2.0210
  722MOL0     H99605  11.217   8.785   0.872  1.5150 -1.7575 -1.0488
  722MOL0     H99606  11.307   8.973   0.756  0.2742  0.9132 -0.8182
  722MOL0     H99607  11.252   8.904   0.595  0.0956  3.2596  0.6576
  722MOL0     H99608  11.447   8.769   0.784  0.6657 -0.6701 -0.1997
  722MOL0     H99609  11.409   8.704   0.631 -0.7620  0.3379 -2.1623
  722MOL0     H99610  11.501   8.948   0.551  1.2814 -0.6003 -1.4359
  722MOL0     H99611  11.616   8.824   0.590  0.2134  0.0878 -0.6847
  722MOL0     H99612  11.562   8.907   0.837 -1.2192  0.2654 -0.3883
  722MOL0     H99613  11.549   9.065   0.753  2.8236  0.8858 -1.1677
  722MOL0     H99614  11.763   9.019   0.643 -0.4555 -0.3890 -0.3283
  722MOL0     H99615  11.791   8.881   0.741  0.9312  0.8737 -0.4904
  722MOL0     H99616  10.891   8.771   1.222  0.3307 -1.9087  0.4907
  722MOL0     H99617  10.706   8.676   1.337 -0.2445 -0.5642 -0.3875
  722MOL0     H99618  10.417   8.353   1.359 -0.3773 -1.3208 -2.0886
  722MOL0     H99619  10.278   8.222   1.495  0.5775  1.8541  1.5728
  722MOL0     H99620   9.366   9.220   0.709  1.7748  1.0278  0.2393
  722MOL0     H99621   9.242   9.412   0.684  0.0086  2.4185  0.1464
  722MOL0     H99622   9.234   9.771   0.925  0.1353  0.5327 -2.6527
  722MOL0     H99623   9.251  10.008   0.963 -0.0607  1.9195 -0.4411
  722MOL0     H99624   8.928  10.322   1.097 -1.7273 -2.7138 -2.2044
  722MOL0     H99625   8.907  10.188   1.210 -0.1566  2.8435 -0.1019
  722MOL0     H99626   9.024  10.366   1.315 -2.2630 -1.2926  0.3608
  722MOL0     H99627   9.145  10.367   1.191 -1.0675  0.9505 -0.7576
  722MOL0     H99628   9.222  10.136   1.272 -0.0597  0.8771 -1.6977
  722MOL0     H99629   9.227  10.274   1.383  0.8229 -2.8268  1.0325
  722MOL0     H99630   9.054  10.026   1.394 -0.6498  0.3769  0.7521
  722MOL0     H99631   8.981  10.167   1.449 -0.5654 -0.9217 -0.2684
  722MOL0     H99632   9.280  10.122   1.749 -1.1868  0.9528  0.4442
  722MOL0     H99633   8.838  10.019   1.091  0.0308  1.1917  0.6989
  722MOL0     H99634   8.794   9.681   1.116  1.9995 -0.1773 -1.4552
  722MOL0     H99635   8.710   9.835   1.113 -1.3087 -1.3945  0.4707
  722MOL0     H99636   8.736   9.747   0.959  0.3727  2.0456 -0.4903
  723MOL0     O99637  10.902   2.070   9.158  0.0008 -0.3893 -0.4500
  723MOL0     C99638  10.799   2.141   9.182 -0.0330  0.7976 -0.3178
  723MOL0     O99639  10.784   2.221   9.291  0.7184  0.0700  0.5011
  723MOL0     C99640  10.883   2.224   9.381 -0.1730  0.2600 -0.6811
  723MOL0     C99641  10.895   2.128   9.484 -0.6276 -0.6744 -0.3366
  723MOL0     C99642  10.986   2.142   9.586 -0.6328  0.1708 -0.9696
  723MOL0     C99643  11.078   2.239   9.593 -0.7822 -0.1390 -0.5418
  723MOL0     O99644  11.167   2.235   9.694  0.0548 -0.1100 -0.2032
  723MOL0     C99645  11.306   2.292   9.667 -0.5754 -0.6688 -0.9257
  723MOL0     C99646  11.425   2.221   9.734 -0.3771  0.0248  0.6503
  723MOL0     C99647  11.403   2.229   9.880  0.1796  0.7704 -0.1169
  723MOL0     C99648  11.520   2.193   9.968  0.5243  0.3148  0.0071
  723MOL0     C99649  11.476   2.219  10.112 -0.6968  0.4919  0.5008
  723MOL0     C99650  11.592   2.216  10.206 -0.1148 -0.1803 -0.1772
  723MOL0     C99651  11.676   2.086  10.200 -0.8187 -0.5531  0.0550
  723MOL0     C99652  11.727   2.049  10.334 -0.4628 -0.6167 -0.2359
  723MOL0     N99653  11.854   2.123  10.363 -0.7882  0.4039 -1.1414
  723MOL0     C99654  11.977   2.084  10.321 -0.0332  0.0331  0.7589
  723MOL0     C99655  12.045   2.201  10.329 -0.4184  0.5174  0.0824
  723MOL0     C99656  12.191   2.208  10.299 -0.3685  0.0004 -0.3710
  723MOL0     C99657  12.272   2.287  10.400  0.2335  0.3963 -0.3119
  723MOL0     C99658  12.411   2.262  10.371  0.3615 -0.3724 -0.7852
  723MOL0     C99659  12.513   2.319  10.474  0.7112  0.2668  0.6952
  723MOL0     O99660  12.520   2.466  10.452 -0.5014 -0.0243 -0.5686
  723MOL0     C99661  12.635   2.528  10.494  0.0827 -0.0261  0.5747
  723MOL0     C99662  12.681   2.640  10.427 -0.2225  0.0500  0.2730
  723MOL0     C99663  12.807   2.699  10.452 -0.2331  0.1312  0.2761
  723MOL0     C99664  12.843   2.836  10.384 -0.2108  0.1389  0.7958
  723MOL0     C99665  12.885   2.643  10.553  0.9251  0.2751  0.1696
  723MOL0     C99666  13.015   2.690  10.579 -0.8102 -0.6591  0.0400
  723MOL0     O99667  13.112   2.640  10.505 -0.3430  0.2376 -0.2306
  723MOL0     C99668  13.224   2.724  10.492 -0.3626  0.6191  0.0630
  723MOL0     C99669  13.340   2.693  10.569 -0.3747  0.2570 -0.1489
  723MOL0     C99670  13.454   2.769  10.547  0.0023  0.6228  0.9805
  723MOL0     C99671  13.460   2.859  10.442  0.5889 -0.3431 -0.5921
  723MOL0     O99672  13.577   2.936  10.417  0.4526 -0.1722 -0.6735
  723MOL0     C99673  13.698   2.907  10.478  0.2345  0.5015 -0.4205
  723MOL0     C99674  13.794   3.020  10.448  0.0402  0.0102  0.1489
  723MOL0     C99675  13.933   3.007  10.497  0.4099 -0.0546 -0.6873
  723MOL0     C99676  14.030   2.943  10.394 -0.3050  0.6774 -0.1060
  723MOL0     C99677  14.186   2.954  10.440 -0.6919  0.4853  0.4476
  723MOL0     C99678  14.239   2.851  10.539  0.0744  0.0165  0.4334
  723MOL0     C99679  14.233   2.701  10.494  0.4539  0.0285 -1.0214
  723MOL0     C99680  14.299   2.619  10.606 -0.9040 -0.1711 -0.4021
  723MOL0    Cl99681  14.333   2.469  10.536  0.2586 -0.0677  0.0027
  723MOL0     C99682  13.346   2.882  10.359 -0.0009  0.1589 -0.6199
  723MOL0     C99683  13.232   2.808  10.383 -0.1717 -0.5055 -0.5198
  723MOL0     O99684  13.034   2.762  10.674 -0.7440 -0.3819  0.1504
  723MOL0     C99685  12.834   2.535  10.636  0.8708 -0.6994 -1.5712
  723MOL0     C99686  12.706   2.488  10.609  0.4809 -0.8057 -0.2701
  723MOL0     N99687  11.974   2.303  10.378  0.2022  0.0198 -0.4490
  723MOL0     N99688  11.856   2.252  10.397  0.5027  0.4578  1.1137
  723MOL0     C99689  11.069   2.343   9.504 -0.4724 -0.3261  0.0803
  723MOL0     C99690  10.973   2.338   9.395 -0.1672  0.1949  0.7900
  723MOL0     C99691  10.686   2.143   9.074 -0.2927 -0.2034  0.3907
  723MOL0     C99692  10.591   2.241   9.097 -0.4828  0.5662 -0.1167
  723MOL0     C99693  10.479   2.258   9.019  0.3701  0.8538 -0.3263
  723MOL0     C99694  10.451   2.172   8.915  0.0999  0.4296 -0.7273
  723MOL0     O99695  10.337   2.195   8.840 -0.0409  0.0411  0.1287
  723MOL0     C99696  10.300   2.122   8.723 -0.0337 -0.5788  0.8969
  723MOL0     C99697  10.163   2.160   8.662 -0.1514  0.3482 -0.0268
  723MOL0     C99698  10.045   2.147   8.763  0.2146  1.2376  0.4975
  723MOL0     C99699   9.997   1.999   8.782  0.6868  0.8522  0.3177
  723MOL0     C99700   9.887   2.001   8.874  0.0114  0.4636  0.1488
  723MOL0     C99701   9.788   2.005   8.938  0.4418 -0.0077 -0.7520
  723MOL0     C99702  10.554   2.080   8.877 -0.3453  0.2250  0.7777
  723MOL0     C99703  10.671   2.067   8.953  0.0091  0.0491 -0.5707
  723MOL0     C99704  10.767   1.952   8.917  0.8498 -0.1076 -0.1775
  723MOL0     H99705  10.830   2.042   9.472 -1.9252  0.3871 -1.2474
  723MOL0     H99706  10.999   2.055   9.650 -0.6471 -1.3968 -3.0007
  723MOL0     H99707  11.312   2.390   9.716  2.7404 -1.0280 -0.3446
  723MOL0     H99708  11.326   2.290   9.559  0.3260  0.5038 -0.8002
  723MOL0     H99709  11.426   2.117   9.701 -0.9812 -0.2658  1.5176
  723MOL0     H99710  11.523   2.263   9.712  0.5354 -2.3122  0.0539
  723MOL0     H99711  11.376   2.332   9.907  0.8232  1.4113 -1.7918
  723MOL0     H99712  11.323   2.159   9.905  0.8266 -1.0136 -2.6774
  723MOL0     H99713  11.542   2.086   9.964 -0.4708 -0.0054  1.8584
  723MOL0     H99714  11.604   2.256   9.937 -0.4699  0.4827 -2.5993
  723MOL0     H99715  11.413   2.136  10.144 -1.8582 -0.0361 -2.8242
  723MOL0     H99716  11.418   2.311  10.121 -3.8261 -1.2049 -0.9411
  723MOL0     H99717  11.653   2.306  10.192 -1.8594  0.6505 -3.0883
  723MOL0     H99718  11.552   2.232  10.307 -0.7305  0.0520 -0.4564
  723MOL0     H99719  11.747   2.081  10.117 -0.6851 -1.3163  0.2098
  723MOL0     H99720  11.606   2.004  10.182 -0.4215 -1.4086  2.1795
  723MOL0     H99721  11.646   2.052  10.408 -0.4963 -1.1598 -0.2502
  723MOL0     H99722  11.752   1.944  10.320 -1.6256 -0.9543  0.1189
  723MOL0     H99723  12.010   1.992  10.273  1.2384  0.9674 -0.2235
  723MOL0     H99724  12.195   2.254  10.200  0.1972 -0.4096 -0.5423
  723MOL0     H99725  12.228   2.105  10.298  1.3162  0.5203  1.6735
  723MOL0     H99726  12.261   2.396  10.390  0.3772  0.3087 -1.5907
  723MOL0     H99727  12.247   2.251  10.500 -1.2565 -2.7321 -1.7041
  723MOL0     H99728  12.435   2.155  10.374  0.3955 -0.3496  0.6172
  723MOL0     H99729  12.434   2.299  10.271 -0.7692 -1.7642 -1.6011
  723MOL0     H99730  12.484   2.286  10.574  0.3357  2.0113  1.2037
  723MOL0     H99731  12.609   2.272  10.450  0.9480 -1.7423  4.8260
  723MOL0     H99732  12.627   2.684  10.344  0.0514  0.9015  0.5358
  723MOL0     H99733  12.800   2.920  10.439  1.0433  0.3271  1.5355
  723MOL0     H99734  12.796   2.832  10.286 -2.0357  1.7182  1.5459
  723MOL0     H99735  12.952   2.846  10.381 -0.2559  0.6010  0.6568
  723MOL0     H99736  13.333   2.626  10.654 -1.7692  0.3790 -0.1395
  723MOL0     H99737  13.541   2.749  10.610 -0.3274  3.9649  2.7123
  723MOL0     H99738  13.702   2.899  10.587  0.0099  0.8590 -0.3840
  723MOL0     H99739  13.728   2.809  10.440 -0.3116 -1.0396  2.7190
  723MOL0     H99740  13.798   3.041  10.341 -1.9069 -1.7372 -0.3443
  723MOL0     H99741  13.747   3.110  10.488 -0.7220 -1.1497  2.0094
  723MOL0     H99742  13.941   2.961  10.596 -0.3727 -4.2056 -2.3396
  723MOL0     H99743  13.958   3.112  10.509 -0.6330  0.2118 -0.7502
  723MOL0     H99744  14.017   2.990  10.296 -0.8821  1.4145  0.3164
  723MOL0     H99745  14.006   2.842  10.359  3.3660  0.1489 -1.5766
  723MOL0     H99746  14.246   2.949  10.349 -0.4910 -0.9915  0.6244
  723MOL0     H99747  14.200   3.048  10.494  0.1756 -0.1534  1.3817
  723MOL0     H99748  14.187   2.866  10.634  1.0027  1.3577  0.7560
  723MOL0     H99749  14.341   2.885  10.559  0.4561 -0.7565 -0.1234
  723MOL0     H99750  14.283   2.685  10.399  0.2849 -2.2082 -0.7913
  723MOL0     H99751  14.133   2.658  10.492  1.2663 -2.1628  0.9339
  723MOL0     H99752  14.225   2.623  10.686  1.1764 -0.1258  1.6092
  723MOL0     H99753  14.391   2.667  10.642 -0.8964  0.2935 -1.0216
  723MOL0     H99754  13.346   2.974  10.302 -0.7182  0.6835  0.1985
  723MOL0     H99755  13.149   2.827  10.316  0.6645 -1.8723 -2.0132
  723MOL0     H99756  12.893   2.512  10.724 -1.8615  2.3867  1.3746
  723MOL0     H99757  12.673   2.403  10.667  1.7206 -0.5537  0.8357
  723MOL0     H99758  11.135   2.426   9.526 -1.4565  0.8330 -1.2632
  723MOL0     H99759  10.975   2.418   9.322  0.1483  0.4338  1.0576
  723MOL0     H99760  10.612   2.314   9.174 -0.4063  2.0741 -1.5078
  723MOL0     H99761  10.412   2.340   9.043 -0.4271  0.0168  0.3758
  723MOL0     H99762  10.384   2.128   8.653 -0.8938  0.9857 -0.0721
  723MOL0     H99763  10.290   2.018   8.754  0.3562 -0.5939  0.9803
  723MOL0     H99764  10.146   2.106   8.569  0.9520 -2.6960  1.3912
  723MOL0     H99765  10.161   2.268   8.645 -0.8220  0.1232 -1.5387
  723MOL0     H99766  10.090   2.198   8.849 -0.7998  0.1394  1.7192
  723MOL0     H99767   9.956   2.198   8.726 -1.6602 -1.1516  1.4713
  723MOL0     H99768  10.079   1.935   8.817  1.3217  1.2759 -0.3676
  723MOL0     H99769   9.969   1.969   8.681 -1.4662 -2.9331  1.8301
  723MOL0     H99770   9.703   2.022   9.002 -0.0180 -3.4125 -0.2582
  723MOL0     H99771  10.544   2.028   8.783 -1.0737  1.4294  0.1616
  723MOL0     H99772  10.812   1.905   9.005 -0.9910  3.5070  3.0090
  723MOL0     H99773  10.708   1.870   8.875  2.5191 -0.9575 -0.9463
  723MOL0     H99774  10.842   1.979   8.843 -0.6402 -1.6769 -2.3963
  724MOL0     O99775   1.335   7.157   9.913 -0.2021  0.4345 -0.0921
  724MOL0     C99776   1.265   7.066   9.945 -0.6781  0.0588  0.2008
  724MOL0     O99777   1.264   7.010  10.065 -0.1746  0.2935 -0.7831
  724MOL0     C99778   1.331   7.060  10.170  0.2729  0.0565  0.4762
  724MOL0     C99779   1.266   7.053  10.298  0.1692 -0.2323  0.0590
  724MOL0     C99780   1.338   7.076  10.415  1.5087 -0.1536 -0.0291
  724MOL0     C99781   1.467   7.118  10.421  0.1816 -0.0387  0.0233
  724MOL0     O99782   1.516   7.148  10.549  0.1525  0.2424  0.5569
  724MOL0     C99783   1.640   7.224  10.556  0.2276  0.4376  0.2081
  724MOL0     C99784   1.764   7.133  10.565  0.7422 -0.3141  0.0144
  724MOL0     C99785   1.893   7.225  10.544 -0.0456  0.9530 -0.4717
  724MOL0     C99786   1.919   7.311  10.677 -0.4676  0.2203 -0.5858
  724MOL0     C99787   2.057   7.378  10.675  0.2395  0.2387  0.1829
  724MOL0     C99788   2.041   7.530  10.704 -0.4812  0.2549  0.4880
  724MOL0     C99789   2.179   7.608  10.705 -0.5059  0.3548 -0.5737
  724MOL0     C99790   2.245   7.585  10.836  0.3382 -1.2158 -0.7229
  724MOL0     N99791   2.382   7.627  10.837  0.1118 -0.2885 -0.2399
  724MOL0     C99792   2.425   7.754  10.855  0.9229 -0.1437 -0.4376
  724MOL0     C99793   2.560   7.755  10.848  0.1141 -0.5717 -0.5286
  724MOL0     C99794   2.647   7.873  10.891 -0.3397 -0.3987 -0.3190
  724MOL0     C99795   2.801   7.852  10.894  0.1216 -0.4046 -0.7846
  724MOL0     C99796   2.875   7.975  10.854 -0.0185 -0.4173  0.1127
  724MOL0     C99797   2.848   8.098  10.946  0.5465  0.3324 -0.4166
  724MOL0     O99798   2.742   8.178  10.890 -0.2050 -0.0572  0.3677
  724MOL0     C99799   2.649   8.223  10.978  0.5849 -0.5644 -0.8859
  724MOL0     C99800   2.668   8.236  11.121 -0.2268 -0.9421 -0.4952
  724MOL0     C99801   2.564   8.282  11.204 -0.1584  0.6829 -0.1471
  724MOL0     C99802   2.596   8.264  11.353 -0.3314 -0.4644  0.3146
  724MOL0     C99803   2.441   8.326  11.150 -0.4487  0.3310  0.5614
  724MOL0     C99804   2.319   8.375  11.223 -0.2747 -0.0127 -0.3108
  724MOL0     O99805   2.199   8.392  11.157 -0.9755  0.4048 -0.4435
  724MOL0     C99806   2.093   8.441  11.232 -0.1988 -0.3674  1.2153
  724MOL0     C99807   2.085   8.585  11.239  0.3485  0.9794  0.2099
  724MOL0     C99808   1.959   8.635  11.283  0.0356 -0.6228 -0.3631
  724MOL0     C99809   1.862   8.552  11.337 -0.2394 -0.6927  1.1403
  724MOL0     O99810   1.749   8.614  11.383  0.3191  0.1373  1.1349
  724MOL0     C99811   1.640   8.534  11.433  0.2128  0.1601  0.7555
  724MOL0     C99812   1.526   8.629  11.476  0.9934  0.0962 -0.2326
  724MOL0     C99813   1.567   8.727  11.587 -0.7553  1.2113  0.9202
  724MOL0     C99814   1.448   8.810  11.628 -0.0899 -0.3287 -0.1867
  724MOL0     C99815   1.462   8.875  11.762 -0.5141 -0.5398 -0.2278
  724MOL0     C99816   1.347   8.976  11.804  0.0538 -0.0412 -0.4395
  724MOL0     C99817   1.228   8.904  11.870 -0.4441 -0.9669  0.5806
  724MOL0     C99818   1.129   9.000  11.909  0.2250  0.1223  0.0724
  724MOL0    Cl99819   1.188   9.134  12.017  0.1196 -0.0733  0.8484
  724MOL0     C99820   1.880   8.416  11.330  0.6308  0.5343 -0.4113
  724MOL0     C99821   1.997   8.371  11.282 -0.6610  0.8030 -0.4116
  724MOL0     O99822   2.341   8.395  11.340  0.3339 -0.0325 -0.0412
  724MOL0     C99823   2.427   8.316  11.009 -0.3184  0.5977 -0.3462
  724MOL0     C99824   2.527   8.266  10.929 -0.3770  0.1238 -0.1018
  724MOL0     N99825   2.600   7.625  10.822 -0.5538 -0.2817  0.3593
  724MOL0     N99826   2.495   7.546  10.818 -0.4009  0.1708 -1.1845
  724MOL0     C99827   1.535   7.124  10.299  0.1032 -0.0076  0.8308
  724MOL0     C99828   1.471   7.095  10.178 -1.1383  0.0500  0.3008
  724MOL0     C99829   1.168   7.017   9.844  0.4212 -0.0974  0.3159
  724MOL0     C99830   1.190   7.020   9.707  0.7375 -0.3103 -0.4753
  724MOL0     C99831   1.106   6.966   9.608  0.4644  0.0526  0.2693
  724MOL0     C99832   0.990   6.904   9.650 -0.4449 -0.0878 -0.0627
  724MOL0     O99833   0.899   6.859   9.565 -0.3503 -0.0365  0.2390
  724MOL0     C99834   0.836   6.937   9.464  0.3699 -0.1885  0.5337
  724MOL0     C99835   0.702   6.869   9.430 -0.1853  0.0915 -0.0762
  724MOL0     C99836   0.732   6.730   9.385 -0.1848  0.4303  0.0891
  724MOL0     C99837   0.619   6.671   9.293 -0.3075  0.4256  0.3847
  724MOL0     C99838   0.497   6.665   9.375  0.1813 -0.6539  0.8703
  724MOL0     C99839   0.405   6.669   9.449  0.1700  0.1789  0.3519
  724MOL0     C99840   0.959   6.896   9.783  0.4044  0.6835  0.0253
  724MOL0     C99841   1.039   6.949   9.889 -0.3797  0.3216  0.4617
  724MOL0     C99842   0.988   6.961  10.031 -0.3316  0.6745 -0.0137
  724MOL0     H99843   1.160   7.029  10.305 -0.7857  3.4172 -0.1076
  724MOL0     H99844   1.287   7.065  10.510  1.5713  0.9013  0.1393
  724MOL0     H99845   1.623   7.275  10.652 -2.0602 -0.7671  0.5063
  724MOL0     H99846   1.649   7.298  10.476 -2.5030  0.4052 -0.2200
  724MOL0     H99847   1.776   7.081  10.660  2.6133  1.0747  0.6057
  724MOL0     H99848   1.759   7.054  10.490  0.8162 -0.5027  0.2057
  724MOL0     H99849   1.986   7.170  10.526 -0.6377 -0.9167  1.6241
  724MOL0     H99850   1.873   7.299  10.466 -2.6610 -0.8168 -1.6249
  724MOL0     H99851   1.834   7.380  10.676 -0.4388  0.4129  2.2819
  724MOL0     H99852   1.897   7.242  10.759  2.0383 -0.4770 -0.4133
  724MOL0     H99853   2.098   7.371  10.574 -1.1598  2.7643 -0.6556
  724MOL0     H99854   2.119   7.327  10.749 -0.7086 -0.8370  0.2744
  724MOL0     H99855   1.974   7.563  10.624 -0.0739 -1.9264 -0.8363
  724MOL0     H99856   1.993   7.540  10.802  2.4429 -2.9224  2.4600
  724MOL0     H99857   2.162   7.716  10.699 -2.5344  0.0504 -0.9200
  724MOL0     H99858   2.243   7.585  10.620 -0.6140 -1.9619 -0.0725
  724MOL0     H99859   2.185   7.637  10.911 -1.0148  1.1879 -3.2497
  724MOL0     H99860   2.256   7.478  10.855  4.5835 -0.5019  2.1433
  724MOL0     H99861   2.369   7.841  10.888 -1.6029 -2.0040  0.4757
  724MOL0     H99862   2.601   7.910  10.982  1.4948  0.1113  0.4561
  724MOL0     H99863   2.629   7.959  10.827 -0.4927  0.0571  0.3282
  724MOL0     H99864   2.831   7.822  10.995  2.4103 -0.9984 -1.5783
  724MOL0     H99865   2.834   7.775  10.824  1.1434 -0.8232  0.1384
  724MOL0     H99866   2.983   7.957  10.853  0.7370  3.2710 -1.0644
  724MOL0     H99867   2.849   8.005  10.752 -0.6194 -1.6835 -0.1189
  724MOL0     H99868   2.839   8.061  11.048 -0.5541  0.9644 -0.2791
  724MOL0     H99869   2.936   8.163  10.947 -0.0259  1.1184 -0.7868
  724MOL0     H99870   2.764   8.205  11.162 -0.9716 -0.1452  2.0309
  724MOL0     H99871   2.627   8.363  11.388 -1.9021  0.5046 -0.8728
  724MOL0     H99872   2.667   8.182  11.365 -0.4260 -0.4222  1.2376
  724MOL0     H99873   2.507   8.232  11.408  0.6025 -2.9398  0.4830
  724MOL0     H99874   2.158   8.649  11.190 -1.2032  0.9084 -2.3327
  724MOL0     H99875   1.941   8.741  11.274 -1.4170 -0.8482 -0.3457
  724MOL0     H99876   1.593   8.466  11.361 -0.9648 -1.2844  2.7831
  724MOL0     H99877   1.660   8.477  11.524  1.7116 -0.5653 -0.0068
  724MOL0     H99878   1.480   8.678  11.390 -2.4294 -0.7076  1.0110
  724MOL0     H99879   1.453   8.564  11.525  0.0731  2.6803  2.0404
  724MOL0     H99880   1.639   8.790  11.533 -0.7245 -1.0983 -1.9978
  724MOL0     H99881   1.617   8.675  11.669  1.4278  2.1127  0.2242
  724MOL0     H99882   1.361   8.745  11.637  0.9351 -1.7161  0.0734
  724MOL0     H99883   1.418   8.882  11.551 -2.5763 -0.2228  0.7789
  724MOL0     H99884   1.474   8.808  11.847  0.2763 -0.2671 -0.1197
  724MOL0     H99885   1.558   8.928  11.757  1.5800 -3.5894  3.1970
  724MOL0     H99886   1.306   9.033  11.720  0.5611  0.1637 -0.5534
  724MOL0     H99887   1.396   9.054  11.863 -0.9262 -0.3340  0.8079
  724MOL0     H99888   1.262   8.855  11.962  1.8448 -0.4710  0.0599
  724MOL0     H99889   1.183   8.839  11.795  0.2714  0.3530 -1.0507
  724MOL0     H99890   1.046   8.960  11.969 -1.1134  0.6903 -1.3244
  724MOL0     H99891   1.072   9.043  11.826 -0.0414  0.6249  0.5099
  724MOL0     H99892   1.802   8.343  11.348  2.9054 -1.9489 -0.0037
  724MOL0     H99893   2.015   8.264  11.276 -1.3203  0.7382 -1.5800
  724MOL0     H99894   2.340   8.360  10.963  1.3901  3.2667 -1.2367
  724MOL0     H99895   2.506   8.252  10.824 -3.4380 -0.9768  0.5636
  724MOL0     H99896   1.639   7.154  10.288 -0.4210  1.2937 -1.4890
  724MOL0     H99897   1.525   7.085  10.085  1.4535 -3.7514  1.9914
  724MOL0     H99898   1.265   7.088   9.667 -0.6203  0.6740 -1.4449
  724MOL0     H99899   1.126   6.974   9.502 -1.2084 -0.0988 -0.0979
  724MOL0     H99900   0.827   7.034   9.513  0.8898 -0.9449  2.1914
  724MOL0     H99901   0.888   6.947   9.368 -1.4093  1.3541 -0.3223
  724MOL0     H99902   0.646   6.921   9.352 -1.6766 -0.2737  0.7077
  724MOL0     H99903   0.641   6.858   9.521 -0.1455 -0.9944 -0.1712
  724MOL0     H99904   0.833   6.720   9.344 -0.3581  1.6221 -0.6675
  724MOL0     H99905   0.731   6.667   9.474 -0.0269 -0.2603 -0.3881
  724MOL0     H99906   0.645   6.569   9.265  0.6143  0.9410 -0.7055
  724MOL0     H99907   0.605   6.732   9.204  0.5822  1.5643  0.9924
  724MOL0     H99908   0.320   6.656   9.514  0.1899  1.5834  0.6786
  724MOL0     H99909   0.865   6.856   9.820  0.3466  1.6648  1.0127
  724MOL0     H99910   1.005   7.061  10.072 -3.4251  2.7416 -3.2215
  724MOL0     H99911   0.882   6.937  10.046 -0.0424  0.5360  2.1858
  724MOL0     H99912   1.048   6.893  10.093 -0.6868  1.1600  0.8797
  725MOL0     O99913   1.033   7.060   8.962 -0.1683  0.2116  0.7729
  725MOL0     C99914   1.020   7.119   8.851 -0.6352 -0.7203 -0.3873
  725MOL0     O99915   1.113   7.190   8.781  0.3484  0.3767 -0.2446
  725MOL0     C99916   1.243   7.189   8.819 -0.8383  0.8180 -0.6378
  725MOL0     C99917   1.339   7.187   8.721  0.5214  0.5768  0.7845
  725MOL0     C99918   1.471   7.210   8.740 -0.2151 -0.1572 -0.0523
  725MOL0     C99919   1.525   7.239   8.869  1.2630  0.2184 -0.0454
  725MOL0     O99920   1.662   7.257   8.884  0.5050  0.0073  0.5318
  725MOL0     C99921   1.726   7.285   9.014 -0.8946  0.1016 -0.2014
  725MOL0     C99922   1.878   7.295   8.987 -0.7637  0.0802 -0.0304
  725MOL0     C99923   1.948   7.306   9.124  1.4119 -0.3030  0.6567
  725MOL0     C99924   2.101   7.322   9.129 -0.0805  0.0465  0.6056
  725MOL0     C99925   2.158   7.279   9.260  0.5948 -0.1762 -1.1430
  725MOL0     C99926   2.307   7.297   9.272 -0.2501  0.3125  0.9106
  725MOL0     C99927   2.360   7.252   9.408  0.3870  0.1463 -0.6336
  725MOL0     C99928   2.512   7.282   9.426  0.3014  0.8095 -0.2220
  725MOL0     N99929   2.574   7.186   9.517 -0.3430 -0.1971  0.1778
  725MOL0     C99930   2.655   7.077   9.480  0.3951  0.5113  0.5938
  725MOL0     C99931   2.687   7.021   9.602 -0.5533  0.8919  0.2329
  725MOL0     C99932   2.756   6.883   9.612 -0.2315 -0.3742 -0.3682
  725MOL0     C99933   2.898   6.867   9.655 -0.4055 -0.3196  0.8355
  725MOL0     C99934   2.935   6.721   9.668  0.4047 -0.3383  0.2255
  725MOL0     C99935   3.082   6.690   9.721 -0.5201 -0.0528  0.2697
  725MOL0     O99936   3.101   6.677   9.865  0.2472  0.7547 -0.3642
  725MOL0     C99937   3.217   6.635   9.918  0.3362 -1.2335  0.0652
  725MOL0     C99938   3.220   6.594  10.053 -0.3509  0.1497  0.3562
  725MOL0     C99939   3.333   6.544  10.114  0.2716 -0.0444  0.0123
  725MOL0     C99940   3.311   6.484  10.252 -0.0487 -0.3992  0.0611
  725MOL0     C99941   3.456   6.544  10.043  0.0179 -0.1551 -0.6751
  725MOL0     C99942   3.581   6.470  10.083 -0.1018  0.6951 -0.6629
  725MOL0     O99943   3.698   6.480  10.018 -0.0971 -0.0772 -0.3389
  725MOL0     C99944   3.807   6.436  10.093 -0.1589 -0.0962  0.0140
  725MOL0     C99945   3.832   6.460  10.225 -0.4821  0.2439  0.1703
  725MOL0     C99946   3.940   6.410  10.293  0.5039  0.3460 -1.0845
  725MOL0     C99947   4.038   6.330  10.232 -0.1521 -0.3352 -0.6790
  725MOL0     O99948   4.140   6.289  10.312 -0.6936  0.9081 -0.4305
  725MOL0     C99949   4.258   6.241  10.247 -0.0265 -0.7079 -0.2600
  725MOL0     C99950   4.381   6.249  10.337  0.1970 -0.0787  0.0733
  725MOL0     C99951   4.490   6.182  10.246 -0.2283  0.9497 -0.3467
  725MOL0     C99952   4.627   6.190  10.316 -0.1164 -0.5679  0.0502
  725MOL0     C99953   4.730   6.116  10.242 -0.8412 -0.3807  0.7084
  725MOL0     C99954   4.867   6.110  10.306  0.0470 -0.2926 -0.2600
  725MOL0     C99955   4.984   6.022  10.250 -0.0898 -0.3413  0.0628
  725MOL0     C99956   4.965   5.876  10.298 -0.3547 -0.6496  1.1516
  725MOL0    Cl99957   5.069   5.786  10.186 -0.3047 -0.3035 -0.2582
  725MOL0     C99958   4.018   6.298  10.097  0.0629 -0.1931 -0.0725
  725MOL0     C99959   3.909   6.363  10.026  0.6857 -0.0308  0.3562
  725MOL0     O99960   3.561   6.390  10.177  0.4262  0.2327 -0.0649
  725MOL0     C99961   3.460   6.612   9.917  0.5426  0.2136  0.5868
  725MOL0     C99962   3.342   6.646   9.858  0.3808  0.5039 -0.1769
  725MOL0     N99963   2.630   7.089   9.700 -0.3557 -0.6529 -0.0191
  725MOL0     N99964   2.564   7.190   9.653 -0.1623  0.5131  0.3125
  725MOL0     C99965   1.430   7.248   8.970  0.0695 -0.1736 -0.4668
  725MOL0     C99966   1.293   7.216   8.948 -0.3331 -0.0321 -0.6851
  725MOL0     C99967   0.890   7.111   8.789 -0.2216  0.5510 -0.7279
  725MOL0     C99968   0.775   7.154   8.853 -0.3962 -0.1749  0.0989
  725MOL0     C99969   0.647   7.155   8.784  0.4465  0.5084 -0.5303
  725MOL0     C99970   0.649   7.121   8.647  0.0642  0.0210  1.5582
  725MOL0     O99971   0.536   7.144   8.573 -0.4372  0.3099 -0.4002
  725MOL0     C99972   0.444   7.039   8.596 -0.1005  1.1356 -0.0971
  725MOL0     C99973   0.324   7.053   8.490  0.2867 -0.3291  0.7485
  725MOL0     C99974   0.247   7.186   8.528  0.3377  0.3532 -0.4310
  725MOL0     C99975   0.154   7.237   8.412  0.3878 -0.0844 -0.1704
  725MOL0     C99976   0.219   7.233   8.283  0.3676  0.6096  0.1441
  725MOL0     C99977   0.273   7.236   8.172 -0.0577 -0.0183 -0.3544
  725MOL0     C99978   0.762   7.074   8.577 -0.6615 -1.0464  0.6923
  725MOL0     C99979   0.881   7.071   8.654 -0.2341 -1.0265 -0.1439
  725MOL0     C99980   0.997   7.027   8.584 -0.8483  0.5160  0.7849
  725MOL0     H99981   1.318   7.185   8.615  3.6836 -1.1999  0.0582
  725MOL0     H99982   1.544   7.206   8.659 -0.2615 -0.3667 -0.0854
  725MOL0     H99983   1.704   7.207   9.087  0.1449  1.4002  1.5947
  725MOL0     H99984   1.697   7.382   9.057 -0.2464 -0.3138  1.2533
  725MOL0     H99985   1.914   7.207   8.932 -1.1429  0.8926 -1.6435
  725MOL0     H99986   1.904   7.380   8.924  1.1058  1.2037  2.0782
  725MOL0     H99987   1.899   7.397   9.160  1.6598  0.9082 -1.8507
  725MOL0     H99988   1.909   7.220   9.180  2.3923 -1.7073 -0.7585
  725MOL0     H99989   2.137   7.248   9.057  0.1411  0.8390 -0.1172
  725MOL0     H99990   2.138   7.419   9.097  0.1185 -0.3830 -0.4944
  725MOL0     H99991   2.128   7.175   9.273 -0.6790  0.5161  2.6998
  725MOL0     H99992   2.104   7.327   9.342  0.2470  0.2103 -1.5906
  725MOL0     H99993   2.346   7.240   9.188 -1.0108  2.7784 -1.2728
  725MOL0     H99994   2.333   7.403   9.264 -2.1665  0.6920 -1.3318
  725MOL0     H99995   2.351   7.143   9.413 -1.9845  0.3477  0.5226
  725MOL0     H99996   2.302   7.293   9.491 -0.2256 -2.0196  0.0726
  725MOL0     H99997   2.568   7.270   9.333 -2.0768 -1.5460 -1.5038
  725MOL0     H99998   2.523   7.380   9.473  2.2220  0.0355  1.0614
  725MOL0     H99999   2.684   7.050   9.379  0.2579  1.7398  0.2059
  725MOL0     H    0   2.743   6.834   9.515 -0.4236  2.1168 -1.6956
  725MOL0     H    1   2.690   6.834   9.684 -0.2089 -1.1889 -0.8889
  725MOL0     H    2   2.959   6.928   9.588 -1.5730 -0.9005 -0.8262
  725MOL0     H    3   2.908   6.919   9.750 -1.8084  0.6575  0.4832
  725MOL0     H    4   2.855   6.677   9.728 -0.1400  1.9404  1.2898
  725MOL0     H    5   2.923   6.666   9.574  0.2862  0.5612 -0.2954
  725MOL0     H    6   3.104   6.601   9.662 -0.3613  1.5156 -2.1494
  725MOL0     H    7   3.152   6.761   9.677  0.1651 -1.1435 -0.4384
  725MOL0     H    8   3.123   6.589  10.103 -0.8125 -1.1497 -0.5940
  725MOL0     H    9   3.226   6.526  10.307  1.1031  0.5894  1.1406
  725MOL0     H   10   3.395   6.488  10.321 -0.4222  0.0964  0.4973
  725MOL0     H   11   3.301   6.375  10.258 -0.3095 -0.2970  2.0298
  725MOL0     H   12   3.756   6.516  10.279  0.4405  1.6679  0.0116
  725MOL0     H   13   3.954   6.428  10.399  0.5348  0.5684 -1.1262
  725MOL0     H   14   4.252   6.138  10.212  2.4866 -0.3782 -1.8913
  725MOL0     H   15   4.293   6.304  10.164  0.1947 -0.8459 -0.2738
  725MOL0     H   16   4.406   6.353  10.363 -2.1995  0.4770  0.3412
  725MOL0     H   17   4.369   6.207  10.437  2.4148  1.1338  0.9287
  725MOL0     H   18   4.499   6.234  10.151 -1.3600 -2.3732 -2.4551
  725MOL0     H   19   4.479   6.074  10.228  0.4806  0.8642 -0.3137
  725MOL0     H   20   4.602   6.144  10.412 -1.0308 -0.5166 -0.1588
  725MOL0     H   21   4.664   6.291  10.339 -0.0694 -0.2808 -1.2100
  725MOL0     H   22   4.699   6.012  10.234  3.0083 -1.7565  1.3937
  725MOL0     H   23   4.745   6.151  10.140  1.7524 -3.1762 -0.0070
  725MOL0     H   24   4.850   6.089  10.412 -3.0006 -0.0137 -0.6080
  725MOL0     H   25   4.915   6.208  10.289  1.1423 -0.1781  2.8057
  725MOL0     H   26   5.079   6.062  10.287 -0.9273  0.7975  1.0668
  725MOL0     H   27   4.979   6.030  10.141  0.9807  0.1920  0.0408
  725MOL0     H   28   4.862   5.843  10.277  0.6318 -1.9821 -2.4813
  725MOL0     H   29   5.002   5.868  10.400  1.4488 -2.5296  0.4152
  725MOL0     H   30   4.089   6.236  10.043  0.9331  0.8960 -0.2103
  725MOL0     H   31   3.902   6.324   9.925  1.1479 -0.1365  0.3643
  725MOL0     H   32   3.555   6.629   9.865 -0.2525  1.8078 -0.4344
  725MOL0     H   33   3.347   6.682   9.756  1.9057  1.2312  0.1147
  725MOL0     H   34   1.463   7.274   9.071 -3.0905 -0.5905  0.7727
  725MOL0     H   35   1.230   7.230   9.035  1.2049  0.4837  0.4033
  725MOL0     H   36   0.783   7.192   8.955  0.4986  2.3939 -0.8470
  725MOL0     H   37   0.551   7.183   8.825 -0.2141 -1.1128 -0.8778
  725MOL0     H   38   0.502   6.948   8.578 -0.6740  0.2898  2.0043
  725MOL0     H   39   0.410   7.032   8.700  2.6388 -1.9813  0.7533
  725MOL0     H   40   0.258   6.966   8.487  0.1149 -0.2344  1.4362
  725MOL0     H   41   0.386   7.063   8.401 -2.9511  2.9024 -1.3881
  725MOL0     H   42   0.199   7.175   8.626 -0.4521  0.1673 -0.8321
  725MOL0     H   43   0.319   7.264   8.555  0.0202  0.2896  0.6987
  725MOL0     H   44   0.123   7.341   8.426  0.7882 -0.0018  0.1030
  725MOL0     H   45   0.062   7.178   8.407 -1.3048  2.4664 -1.1469
  725MOL0     H   46   0.322   7.229   8.077 -0.1200  0.3527 -0.4172
  725MOL0     H   47   0.757   7.046   8.473 -2.1783 -2.0600  1.0029
  725MOL0     H   48   1.039   6.945   8.642 -0.9329  0.5496  0.8948
  725MOL0     H   49   0.975   6.981   8.488 -1.8021  2.0405  0.2283
  725MOL0     H   50   1.074   7.101   8.560  0.3006 -1.2110 -1.1753
  726MOL0     O   51  10.626  11.135   7.565 -0.6634 -0.3079 -0.2878
  726MOL0     C   52  10.549  11.078   7.636 -0.6877  0.2500 -0.0066
  726MOL0     O   53  10.577  10.957   7.707  0.5236  0.3409  0.9354
  726MOL0     C   54  10.702  10.904   7.728  0.4422  0.3991 -0.4059
  726MOL0     C   55  10.731  10.789   7.664  0.4362  0.2961 -0.0763
  726MOL0     C   56  10.868  10.730   7.669  0.4129 -0.3203 -0.7506
  726MOL0     C   57  10.961  10.790   7.755 -0.1203  0.0275  0.4981
  726MOL0     O   58  11.097  10.766   7.764 -0.7825 -0.1090  0.2204
  726MOL0     C   59  11.151  10.631   7.728  0.7686 -0.6074  0.0991
  726MOL0     C   60  11.297  10.615   7.766  0.2647  0.6377 -0.1980
  726MOL0     C   61  11.320  10.650   7.909 -0.5747 -0.2017  0.0816
  726MOL0     C   62  11.461  10.673   7.942 -0.1889 -0.1235 -0.0831
  726MOL0     C   63  11.483  10.713   8.086 -0.8255 -0.3937  0.4615
  726MOL0     C   64  11.632  10.726   8.125  0.9898 -0.3155 -0.0192
  726MOL0     C   65  11.667  10.780   8.262 -0.0085 -0.0297 -0.6895
  726MOL0     C   66  11.817  10.760   8.286 -0.7529  0.0225 -0.5006
  726MOL0     N   67  11.845  10.620   8.325 -0.3994  0.1792 -0.7199
  726MOL0     C   68  11.867  10.524   8.238  0.0866  0.4959 -0.4238
  726MOL0     C   69  11.886  10.412   8.319  0.6070  0.2271  0.3959
  726MOL0     C   70  11.919  10.282   8.253  0.1106 -0.0524  1.0339
  726MOL0     C   71  12.059  10.283   8.190  0.3114  0.6053  0.3758
  726MOL0     C   72  12.174  10.304   8.303  0.2767  0.6582 -0.6846
  726MOL0     C   73  12.186  10.169   8.380 -0.2315  0.2194 -0.4141
  726MOL0     O   74  12.229  10.061   8.298  0.0025  0.1553 -0.5065
  726MOL0     C   75  12.340  10.091   8.225 -0.6785  0.0790  0.1806
  726MOL0     C   76  12.454  10.157   8.271  0.4044 -0.8766 -0.2723
  726MOL0     C   77  12.564  10.189   8.188  0.2863 -0.4489  1.0131
  726MOL0     C   78  12.687  10.249   8.251 -0.3065  0.9806 -0.1302
  726MOL0     C   79  12.557  10.168   8.046 -0.3758 -0.0790 -0.0872
  726MOL0     C   80  12.656  10.212   7.945 -0.0986 -0.1248 -0.3379
  726MOL0     O   81  12.615  10.198   7.817  0.1733 -0.2455  0.5452
  726MOL0     C   82  12.698  10.254   7.723  0.2861 -0.1538 -0.5025
  726MOL0     C   83  12.643  10.366   7.663 -0.4560 -0.1620  0.3666
  726MOL0     C   84  12.711  10.436   7.567 -1.1536  0.5295  0.0376
  726MOL0     C   85  12.845  10.412   7.535  0.3592  0.2409 -0.5335
  726MOL0     O   86  12.929  10.474   7.449 -0.6685 -0.1533  0.7190
  726MOL0     C   87  12.862  10.560   7.351  0.1770 -0.4804 -0.3066
  726MOL0     C   88  12.966  10.620   7.259 -0.3077 -0.6317 -0.0642
  726MOL0     C   89  13.063  10.509   7.196 -0.0666  0.0420 -0.1143
  726MOL0     C   90  13.192  10.577   7.145  0.5764  0.3670  0.4729
  726MOL0     C   91  13.296  10.490   7.075 -0.6342 -0.5366 -0.6227
  726MOL0     C   92  13.381  10.431   7.185  0.1871  0.8099  0.5736
  726MOL0     C   93  13.472  10.328   7.127  0.1218  0.1169 -0.0014
  726MOL0     C   94  13.556  10.271   7.240 -0.1462  0.2476  0.4403
  726MOL0    Cl   95  13.596  10.100   7.172 -0.2756  0.2578  0.1941
  726MOL0     C   96  12.910  10.314   7.610 -0.2407 -0.1666  0.0445
  726MOL0     C   97  12.832  10.234   7.700  0.2781 -0.3195  0.4658
  726MOL0     O   98  12.764  10.258   7.978 -0.0272 -0.0347  0.2537
  726MOL0     C   99  12.440  10.102   7.998 -0.3666  0.6539 -1.0903
  726MOL0     C  100  12.340  10.064   8.090 -0.3407 -0.4722  0.2318
  726MOL0     N  101  11.876  10.449   8.449  0.3348 -0.4323 -0.0731
  726MOL0     N  102  11.848  10.579   8.454 -0.2821 -0.2254  0.4372
  726MOL0     C  103  10.921  10.896   7.835  0.3060  0.4760  0.1783
  726MOL0     C  104  10.788  10.947   7.830  0.1232 -0.0323  0.4846
  726MOL0     C  105  10.414  11.128   7.659  0.2569 -0.1763 -0.5580
  726MOL0     C  106  10.325  11.037   7.722  0.1743 -0.0656  0.6360
  726MOL0     C  107  10.199  11.075   7.763 -0.3925 -0.9532 -0.9489
  726MOL0     C  108  10.152  11.205   7.730 -0.0721  0.2168 -0.3766
  726MOL0     O  109  10.026  11.242   7.781 -0.4931  0.0439  1.0023
  726MOL0     C  110   9.916  11.188   7.709 -0.1649 -0.0014  0.4772
  726MOL0     C  111   9.816  11.298   7.696  0.1244  0.1903  0.0620
  726MOL0     C  112   9.868  11.417   7.606  0.1338  0.4758 -0.3802
  726MOL0     C  113   9.786  11.546   7.609 -0.1962 -0.2202  0.2170
  726MOL0     C  114   9.648  11.525   7.575  0.3582 -0.7995 -0.4350
  726MOL0     C  115   9.532  11.504   7.537 -0.2319  0.2268  0.2401
  726MOL0     C  116  10.237  11.293   7.661  0.2500  0.3694 -0.4540
  726MOL0     C  117  10.365  11.256   7.625  0.0317  1.1219  0.1094
  726MOL0     C  118  10.461  11.359   7.570 -0.0986 -0.2235  0.0689
  726MOL0     H  119  10.665  10.740   7.593 -0.6417 -0.6416  1.5022
  726MOL0     H  120  10.874  10.645   7.602 -1.0426 -0.3932 -0.8277
  726MOL0     H  121  11.146  10.616   7.620 -0.7814 -2.0970  0.3420
  726MOL0     H  122  11.089  10.552   7.771 -1.7431  2.3432  2.3755
  726MOL0     H  123  11.320  10.510   7.748  2.8784  0.9479  0.9141
  726MOL0     H  124  11.362  10.680   7.706  3.1918 -0.5426  1.5087
  726MOL0     H  125  11.261  10.739   7.929  0.0590  0.1035  0.6332
  726MOL0     H  126  11.276  10.575   7.975 -2.5202  1.4023  0.7065
  726MOL0     H  127  11.518  10.582   7.922 -2.6131 -1.7935  0.1801
  726MOL0     H  128  11.488  10.757   7.877  0.5846  0.1107  0.5203
  726MOL0     H  129  11.434  10.638   8.150 -1.8367  0.6885  0.9993
  726MOL0     H  130  11.434  10.808   8.108  3.3982  1.6036  2.3906
  726MOL0     H  131  11.661  10.620   8.122  1.1955 -0.3609  1.9713
  726MOL0     H  132  11.678  10.778   8.041 -0.9700 -1.1254 -1.6742
  726MOL0     H  133  11.612  10.721   8.336 -2.1957 -0.5825 -2.6254
  726MOL0     H  134  11.631  10.883   8.271 -3.2987 -1.1960  0.9816
  726MOL0     H  135  11.861  10.782   8.189 -0.3101 -3.7265 -1.2965
  726MOL0     H  136  11.858  10.819   8.368 -1.2779 -0.7389  0.3254
  726MOL0     H  137  11.862  10.536   8.130 -2.7430  0.2669 -0.3781
  726MOL0     H  138  11.846  10.264   8.173  1.5166 -0.7031 -0.1349
  726MOL0     H  139  11.914  10.195   8.319 -0.2856 -1.7763 -1.1265
  726MOL0     H  140  12.077  10.188   8.140  1.0660  1.7443 -1.6339
  726MOL0     H  141  12.056  10.352   8.105 -2.2700  1.8440  1.3861
  726MOL0     H  142  12.271  10.341   8.270  1.5009  0.5801  2.5426
  726MOL0     H  143  12.136  10.378   8.374 -1.9467  0.0878 -1.1779
  726MOL0     H  144  12.247  10.182   8.469 -0.7256 -1.2261  0.1739
  726MOL0     H  145  12.091  10.148   8.430 -0.8607  1.8222 -0.8730
  726MOL0     H  146  12.466  10.191   8.373  1.8878  1.1491 -1.0379
  726MOL0     H  147  12.719  10.345   8.210 -0.1003  0.8182 -0.3539
  726MOL0     H  148  12.775  10.186   8.234 -0.5606  0.7457 -0.5924
  726MOL0     H  149  12.683  10.255   8.360 -0.2027 -1.2763  0.0537
  726MOL0     H  150  12.537  10.379   7.686 -1.0666 -3.1537 -0.4097
  726MOL0     H  151  12.661  10.523   7.525 -1.9725  2.2045  4.0064
  726MOL0     H  152  12.785  10.503   7.297  1.4353 -1.4636 -1.1207
  726MOL0     H  153  12.813  10.644   7.399  0.8507  0.0224 -0.4865
  726MOL0     H  154  12.918  10.670   7.174  0.5389 -2.3825 -1.6454
  726MOL0     H  155  13.027  10.697   7.306  0.0399 -0.5242 -0.6761
  726MOL0     H  156  13.016  10.450   7.116  0.6154 -0.1715 -0.3695
  726MOL0     H  157  13.098  10.430   7.263  0.6361  1.1580  0.8656
  726MOL0     H  158  13.236  10.633   7.228  0.1826  2.5913 -0.7490
  726MOL0     H  159  13.160  10.649   7.070 -0.1722 -0.4487 -0.0073
  726MOL0     H  160  13.245  10.423   7.005  0.2342 -1.3418 -0.4930
  726MOL0     H  161  13.357  10.554   7.011  0.0964 -0.5731  0.0303
  726MOL0     H  162  13.313  10.390   7.261 -0.3899  1.5682  0.4781
  726MOL0     H  163  13.444  10.506   7.235  2.7238 -0.9659  0.1774
  726MOL0     H  164  13.538  10.360   7.046  0.1716  1.2002  0.4545
  726MOL0     H  165  13.414  10.241   7.095  0.7893 -1.1122  1.9322
  726MOL0     H  166  13.491  10.261   7.327 -0.8263  7.0183  1.2658
  726MOL0     H  167  13.647  10.325   7.266  1.1160  0.1638 -3.2489
  726MOL0     H  168  13.017  10.311   7.591 -0.5909  0.1681 -2.3223
  726MOL0     H  169  12.884  10.151   7.747  0.6855 -2.0142 -2.7356
  726MOL0     H  170  12.417  10.063   7.899 -1.2117 -0.0326 -0.6397
  726MOL0     H  171  12.258  10.001   8.057 -2.5780  2.0728  0.5999
  726MOL0     H  172  10.999  10.942   7.895  1.0432  0.3928 -0.6903
  726MOL0     H  173  10.764  11.035   7.890 -1.2194 -0.4071  0.5311
  726MOL0     H  174  10.355  10.938   7.757  1.9051  0.3941  0.5479
  726MOL0     H  175  10.143  11.006   7.824  2.4249 -0.9565  1.9338
  726MOL0     H  176   9.946  11.156   7.609 -0.2513  1.7992 -0.1613
  726MOL0     H  177   9.870  11.104   7.762  0.9844 -1.4489 -0.7556
  726MOL0     H  178   9.792  11.335   7.796 -0.6855 -0.7573  0.2381
  726MOL0     H  179   9.719  11.259   7.661  0.7972 -1.4318 -0.1141
  726MOL0     H  180   9.969  11.440   7.640 -0.0085 -1.4944  1.6607
  726MOL0     H  181   9.877  11.392   7.500  0.2863  2.8811 -0.9909
  726MOL0     H  182   9.833  11.625   7.549 -0.1668 -1.0486 -0.8867
  726MOL0     H  183   9.789  11.579   7.713  2.5331 -2.5431  0.9758
  726MOL0     H  184   9.437  11.469   7.501  0.3226 -1.0193 -0.0729
  726MOL0     H  185  10.189  11.389   7.643 -3.7920 -1.3100  0.2080
  726MOL0     H  186  10.490  11.342   7.466  2.4030  0.9398  0.5000
  726MOL0     H  187  10.407  11.454   7.562 -1.3157 -0.9372 -0.5901
  726MOL0     H  188  10.542  11.373   7.642  1.4835 -3.0855 -1.0012
  727MOL0     O  189   4.819  11.021  10.452  0.0086  0.3835 -0.5442
  727MOL0     C  190   4.780  10.944  10.541  0.2292  0.0333  0.0236
  727MOL0     O  191   4.849  10.837  10.587  0.0811  0.4749 -0.3070
  727MOL0     C  192   4.980  10.815  10.550  0.4040  0.1542 -0.0609
  727MOL0     C  193   5.010  10.698  10.482  0.3712 -0.0551  0.3848
  727MOL0     C  194   5.139  10.659  10.440  0.3668 -0.1085  0.7583
  727MOL0     C  195   5.244  10.736  10.469 -1.4907 -0.2320  0.2431
  727MOL0     O  196   5.367  10.683  10.435 -0.2447 -0.3695  0.1343
  727MOL0     C  197   5.490  10.741  10.475 -1.5729  0.5940 -0.2092
  727MOL0     C  198   5.609  10.692  10.394 -0.0911 -0.1046  0.6831
  727MOL0     C  199   5.742  10.730  10.452 -0.0528  0.3410  0.1044
  727MOL0     C  200   5.857  10.688  10.352  0.6520 -0.0231  0.3964
  727MOL0     C  201   5.989  10.723  10.400  0.6966 -0.1599  0.5235
  727MOL0     C  202   6.104  10.691  10.309  0.3243  0.6141 -0.4482
  727MOL0     C  203   6.237  10.684  10.381 -0.3785 -0.1112 -0.0090
  727MOL0     C  204   6.361  10.670  10.288 -0.1721 -0.0185  0.0780
  727MOL0     N  205   6.372  10.521  10.261 -0.2542 -0.2574 -0.2518
  727MOL0     C  206   6.473  10.451  10.322 -0.5335  0.1357 -0.1551
  727MOL0     C  207   6.478  10.345  10.246  0.1422 -0.1761  0.1599
  727MOL0     C  208   6.574  10.232  10.266 -0.1220 -0.5700 -0.8821
  727MOL0     C  209   6.729  10.274  10.268 -0.0401 -0.1520 -0.3824
  727MOL0     C  210   6.824  10.163  10.303 -0.5215 -0.0167  0.0333
  727MOL0     C  211   6.959  10.182  10.236 -0.8251 -0.5635 -0.2140
  727MOL0     O  212   7.043  10.247  10.337 -0.4023 -0.1483 -0.4564
  727MOL0     C  213   7.173  10.199  10.338 -0.7094 -0.0058 -0.2354
  727MOL0     C  214   7.201  10.104  10.440  0.0391 -0.5653  0.5695
  727MOL0     C  215   7.318  10.038  10.457  0.7002 -0.3039 -0.0080
  727MOL0     C  216   7.318   9.940  10.573 -0.6123 -0.9720  0.5563
  727MOL0     C  217   7.421  10.046  10.357  0.8593  0.3561  0.1224
  727MOL0     C  218   7.554   9.972  10.362 -0.2873  0.4292 -0.1903
  727MOL0     O  219   7.650  10.025  10.278  0.0980  0.1188  0.0973
  727MOL0     C  220   7.780   9.981  10.269 -0.2005  0.4356 -0.9020
  727MOL0     C  221   7.852   9.916  10.370  0.7707 -0.2575  0.2847
  727MOL0     C  222   7.982   9.879  10.354  0.4597  0.3316  0.0480
  727MOL0     C  223   8.053   9.923  10.240  0.9840 -0.2305  0.2513
  727MOL0     O  224   8.188   9.902  10.221  0.4156  0.7591  0.5315
  727MOL0     C  225   8.266   9.844  10.330  1.1982  0.7094 -0.1262
  727MOL0     C  226   8.294   9.940  10.447 -0.8295  0.5375 -0.6091
  727MOL0     C  227   8.370  10.073  10.402  0.0947 -0.3291  0.2927
  727MOL0     C  228   8.518  10.048  10.372 -0.4450 -0.2795  0.0551
  727MOL0     C  229   8.598  10.184  10.349 -0.1435  0.0211 -0.0538
  727MOL0     C  230   8.755  10.170  10.341  0.6625  0.1724  0.7607
  727MOL0     C  231   8.814  10.103  10.455  0.3898 -0.5926  1.1099
  727MOL0     C  232   8.961  10.102  10.466 -0.6757 -0.0178  0.1456
  727MOL0    Cl  233   9.028  10.018  10.323  0.0777  0.0722 -0.5021
  727MOL0     C  234   7.978   9.992  10.145  0.1058 -0.3464  0.5850
  727MOL0     C  235   7.842  10.014  10.153  0.1836  0.0444  0.6517
  727MOL0     O  236   7.556   9.865  10.420  0.8820 -0.0182  0.2872
  727MOL0     C  237   7.397  10.142  10.258 -0.2627  1.1596  0.6099
  727MOL0     C  238   7.275  10.215  10.244  0.1965 -0.5102 -0.7842
  727MOL0     N  239   6.391  10.353  10.139  0.2549 -0.3866 -0.0815
  727MOL0     N  240   6.322  10.454  10.159 -0.0956 -0.0684  0.9368
  727MOL0     C  241   5.226  10.863  10.531  0.3640 -0.5001  0.0649
  727MOL0     C  242   5.094  10.902  10.570  0.1527  0.6183 -0.0369
  727MOL0     C  243   4.649  10.968  10.609 -0.7665  0.6760 -0.6539
  727MOL0     C  244   4.645  10.935  10.742 -0.4958  0.2448  0.1762
  727MOL0     C  245   4.536  10.938  10.822 -0.1631  0.6639  0.3721
  727MOL0     C  246   4.413  10.981  10.772  0.8648  0.3780  0.1674
  727MOL0     O  247   4.308  10.979  10.864  0.5885 -0.0122 -0.5484
  727MOL0     C  248   4.172  11.018  10.833 -0.3571  0.5786 -0.2680
  727MOL0     C  249   4.106  11.030  10.971  0.2854 -0.5351  0.2043
  727MOL0     C  250   3.959  11.065  10.955  0.3017 -0.1222  0.1783
  727MOL0     C  251   3.894  11.116  11.089 -0.1816  0.3147 -0.2210
  727MOL0     C  252   3.750  11.139  11.069 -0.3765 -0.0505  0.2084
  727MOL0     C  253   3.634  11.155  11.039 -0.3231  0.4322 -0.4126
  727MOL0     C  254   4.415  11.028  10.634 -0.2291  0.4867 -0.1729
  727MOL0     C  255   4.534  11.012  10.547 -0.7066 -0.1899 -0.2789
  727MOL0     C  256   4.523  11.052  10.402 -0.9114 -0.3249  0.4862
  727MOL0     H  257   4.930  10.626  10.470  0.1254  0.1802  0.6050
  727MOL0     H  258   5.155  10.557  10.410  0.4604 -0.4051  1.7717
  727MOL0     H  259   5.507  10.726  10.582 -0.8489 -0.5022 -0.4587
  727MOL0     H  260   5.489  10.850  10.461 -1.3163  0.3746 -2.1496
  727MOL0     H  261   5.600  10.583  10.384  0.7386 -0.0886 -0.4237
  727MOL0     H  262   5.607  10.730  10.292 -0.9927  1.0343  1.0979
  727MOL0     H  263   5.753  10.838  10.466  0.1848  0.1796  1.2948
  727MOL0     H  264   5.751  10.669  10.543  0.4178  1.5974  0.9237
  727MOL0     H  265   5.853  10.585  10.316  1.9621  0.9300 -2.9169
  727MOL0     H  266   5.838  10.747  10.261  0.1233  0.0293  0.5372
  727MOL0     H  267   6.002  10.667  10.493  3.0683 -0.4182  0.1108
  727MOL0     H  268   5.990  10.830  10.421  1.9469 -0.2799  1.1801
  727MOL0     H  269   6.092  10.592  10.265 -2.3279  0.4725  0.4063
  727MOL0     H  270   6.096  10.763  10.227  0.8867  3.0365  1.4991
  727MOL0     H  271   6.233  10.604  10.455  0.9015 -1.3617 -1.2502
  727MOL0     H  272   6.256  10.773  10.443  3.2004 -1.8940  1.7625
  727MOL0     H  273   6.336  10.732  10.201  1.9551 -0.2640 -0.7725
  727MOL0     H  274   6.458  10.704  10.324 -0.1337 -0.5282  0.4698
  727MOL0     H  275   6.540  10.471  10.405 -2.2132  0.1528  1.2493
  727MOL0     H  276   6.556  10.152  10.195 -1.5053 -0.9630 -0.1299
  727MOL0     H  277   6.548  10.190  10.364 -0.3236  0.6530 -0.3917
  727MOL0     H  278   6.742  10.332  10.176  2.1603  2.8419  1.6125
  727MOL0     H  279   6.743  10.351  10.344  0.0419  1.5919 -2.0860
  727MOL0     H  280   6.829  10.157  10.412 -3.0462 -0.9744  0.1550
  727MOL0     H  281   6.777  10.070  10.269 -0.8430  0.7889 -1.8570
  727MOL0     H  282   6.986  10.076  10.231 -0.4478 -0.4465 -0.6144
  727MOL0     H  283   6.959  10.220  10.134 -1.6447 -1.9822 -0.7761
  727MOL0     H  284   7.124  10.098  10.517  0.6244  0.5339  1.2743
  727MOL0     H  285   7.261   9.851  10.544 -3.6339  1.1889 -0.6104
  727MOL0     H  286   7.280   9.983  10.667 -0.4618 -4.3301  2.3132
  727MOL0     H  287   7.419   9.902  10.594 -0.4043 -0.3819  0.6442
  727MOL0     H  288   7.803   9.873  10.456 -3.2535 -1.4427 -2.3046
  727MOL0     H  289   8.039   9.821  10.427  1.3962 -0.0887 -0.9973
  727MOL0     H  290   8.207   9.763  10.375 -3.3960  3.5173 -0.4003
  727MOL0     H  291   8.362   9.803  10.298 -0.0884 -2.9710  0.2180
  727MOL0     H  292   8.200   9.978  10.490 -0.2045  0.5988  0.7449
  727MOL0     H  293   8.349   9.887  10.525 -0.2747 -0.0564 -1.3888
  727MOL0     H  294   8.351  10.141  10.486  0.6755  0.9254 -0.5666
  727MOL0     H  295   8.314  10.108  10.315  2.1446 -1.8104 -1.7401
  727MOL0     H  296   8.527   9.983  10.284 -1.2521 -2.2593  1.3728
  727MOL0     H  297   8.556   9.983  10.451 -2.4820  0.3479  1.6274
  727MOL0     H  298   8.561  10.239  10.262  1.2027 -0.1930 -0.7904
  727MOL0     H  299   8.588  10.256  10.431  2.9344  2.2059 -1.4084
  727MOL0     H  300   8.799  10.269  10.327 -0.2657  0.6992  1.4359
  727MOL0     H  301   8.767  10.110  10.250 -1.2976  0.2443  0.4041
  727MOL0     H  302   8.784   9.998  10.452  0.0843 -0.4881 -1.0858
  727MOL0     H  303   8.781  10.156  10.545  0.1924  1.2088  0.0230
  727MOL0     H  304   8.985  10.042  10.554  0.2323 -0.5028 -0.4193
  727MOL0     H  305   9.002  10.201  10.491  2.1137 -1.3137  1.1190
  727MOL0     H  306   8.037  10.024  10.060  0.3148  0.5436  1.0553
  727MOL0     H  307   7.783  10.074  10.084  1.9356  4.6350  2.6921
  727MOL0     H  308   7.471  10.167  10.183 -0.6931  1.1203  0.1650
  727MOL0     H  309   7.246  10.284  10.166 -0.1243  1.6623  1.1339
  727MOL0     H  310   5.304  10.937  10.544 -0.2783  0.4270 -1.0989
  727MOL0     H  311   5.075  10.995  10.623  0.2713  0.9950 -0.6418
  727MOL0     H  312   4.736  10.901  10.792  1.1458  1.3239 -1.8953
  727MOL0     H  313   4.549  10.904  10.925  1.2204 -0.7787 -0.2216
  727MOL0     H  314   4.178  11.116  10.786 -1.1408  1.1651  0.8016
  727MOL0     H  315   4.119  10.950  10.766 -1.2352  2.1976 -1.2741
  727MOL0     H  316   4.162  11.092  11.043  1.2006 -2.4411  1.2061
  727MOL0     H  317   4.106  10.927  11.006 -3.2774 -1.9693 -3.2613
  727MOL0     H  318   3.945  11.135  10.873 -3.3590  1.3464  1.8156
  727MOL0     H  319   3.899  10.978  10.927 -2.6730  2.2511 -1.4202
  727MOL0     H  320   3.941  11.209  11.124 -0.2708 -0.6253  2.6601
  727MOL0     H  321   3.909  11.041  11.167 -1.5371 -1.4639 -1.5929
  727MOL0     H  322   3.529  11.158  11.018 -0.4110 -2.9606 -1.0288
  727MOL0     H  323   4.329  11.081  10.596  0.4011  3.0881  1.7911
  727MOL0     H  324   4.553  11.156  10.384  1.7475 -0.9026  1.1449
  727MOL0     H  325   4.587  10.988  10.341 -0.1170  0.3638  0.5867
  727MOL0     H  326   4.422  11.041  10.360 -0.5483 -2.2899  0.0154
  728MOL0     O  327   5.074   2.936   6.723  0.7538 -1.2345  0.5802
  728MOL0     C  328   5.087   2.975   6.837 -0.3652  0.1750  0.2561
  728MOL0     O  329   5.206   2.965   6.908 -1.0887 -0.5154  0.0572
  728MOL0     C  330   5.311   2.903   6.844 -0.3548 -0.0772 -0.4774
  728MOL0     C  331   5.411   2.973   6.785 -0.7987 -0.6872  0.1722
  728MOL0     C  332   5.531   2.910   6.744  0.1014 -0.3388 -0.0709
  728MOL0     C  333   5.559   2.780   6.787  0.0028  0.4605  0.8964
  728MOL0     O  334   5.681   2.719   6.766  0.3343 -0.5061  0.1222
  728MOL0     C  335   5.768   2.773   6.670  0.4407  0.1800  0.4848
  728MOL0     C  336   5.871   2.668   6.618 -0.3638  0.2141  0.6790
  728MOL0     C  337   5.963   2.625   6.738 -0.9422 -0.3779  0.5876
  728MOL0     C  338   6.104   2.702   6.724 -0.6216  0.0410 -0.3448
  728MOL0     C  339   6.207   2.639   6.828  0.3158  0.0737  0.6370
  728MOL0     C  340   6.354   2.666   6.786 -0.3677  0.2304  0.2455
  728MOL0     C  341   6.396   2.577   6.675 -0.2221 -0.2494  0.5843
  728MOL0     C  342   6.533   2.601   6.622 -0.1930 -0.4377 -0.6858
  728MOL0     N  343   6.570   2.516   6.509  0.3847 -0.2595 -0.0115
  728MOL0     C  344   6.568   2.378   6.497 -0.2600 -0.1191 -0.0990
  728MOL0     C  345   6.601   2.353   6.369 -0.7129 -0.8481  0.5608
  728MOL0     C  346   6.629   2.227   6.306  0.6758  0.5598  0.5088
  728MOL0     C  347   6.780   2.200   6.315  0.4082 -0.7826  0.0321
  728MOL0     C  348   6.808   2.075   6.231  0.6531  0.0886 -0.1986
  728MOL0     C  349   6.952   2.070   6.170 -0.1801 -0.4307  0.1285
  728MOL0     O  350   7.052   2.141   6.254  0.3786  0.4692  0.3337
  728MOL0     C  351   7.170   2.167   6.190  0.3215  0.3206  0.7557
  728MOL0     C  352   7.202   2.127   6.057  0.0831 -0.2259 -0.2904
  728MOL0     C  353   7.320   2.179   5.996  0.2767 -0.5767  0.3996
  728MOL0     C  354   7.344   2.146   5.847  1.2257 -0.3796 -1.1719
  728MOL0     C  355   7.414   2.267   6.075 -0.0914 -0.1045  0.6735
  728MOL0     C  356   7.547   2.313   6.032  0.5710 -0.7636  0.0663
  728MOL0     O  357   7.607   2.411   6.106 -0.1389  0.7308 -0.1516
  728MOL0     C  358   7.737   2.438   6.077 -0.3207 -0.0141 -0.7086
  728MOL0     C  359   7.837   2.357   6.143 -0.6590 -0.2414 -0.6709
  728MOL0     C  360   7.965   2.393   6.127  0.0877 -1.2601 -0.1732
  728MOL0     C  361   8.010   2.506   6.054  1.2605  0.3049 -0.6552
  728MOL0     O  362   8.144   2.548   6.050 -0.5736  0.1391 -0.2259
  728MOL0     C  363   8.249   2.450   6.018  0.6098  0.5478  0.0734
  728MOL0     C  364   8.382   2.514   6.009 -0.1963  0.2260  0.1318
  728MOL0     C  365   8.429   2.576   6.144 -0.3312 -0.2933 -0.1625
  728MOL0     C  366   8.583   2.566   6.159 -0.2042  0.0254 -0.0876
  728MOL0     C  367   8.640   2.604   6.296 -0.6523 -0.7399  0.5343
  728MOL0     C  368   8.777   2.669   6.293  0.1662  0.4895 -0.0399
  728MOL0     C  369   8.883   2.592   6.218 -0.2918 -0.8967 -0.2696
  728MOL0     C  370   9.028   2.648   6.246  0.6727  0.4955  0.6214
  728MOL0    Cl  371   9.143   2.537   6.168  0.0884  0.3124 -0.1307
  728MOL0     C  372   7.910   2.589   6.001  0.0251 -0.0499 -0.0810
  728MOL0     C  373   7.774   2.556   6.017 -0.0764 -0.2270 -1.0432
  728MOL0     O  374   7.608   2.251   5.940 -0.2856 -0.4620 -0.2879
  728MOL0     C  375   7.376   2.299   6.201 -0.7349 -0.3845 -0.2002
  728MOL0     C  376   7.257   2.253   6.256  0.2694  0.1789 -0.7861
  728MOL0     N  377   6.618   2.476   6.305  0.2389  0.4288  0.6274
  728MOL0     N  378   6.595   2.571   6.383 -0.4165  0.7834 -0.8721
  728MOL0     C  379   5.461   2.702   6.847  0.9540  0.4777  0.7704
  728MOL0     C  380   5.334   2.766   6.873  0.8186 -0.0342  0.2362
  728MOL0     C  381   4.968   3.015   6.907  0.4022 -0.7332 -0.0617
  728MOL0     C  382   4.839   3.007   6.853  0.3970  0.3425  0.2604
  728MOL0     C  383   4.723   3.029   6.924 -0.0744  0.1328  0.0123
  728MOL0     C  384   4.732   3.071   7.054 -0.2655  0.2602 -0.1505
  728MOL0     O  385   4.622   3.102   7.133  0.0487 -0.1057 -0.0671
  728MOL0     C  386   4.488   3.115   7.076 -0.1555  0.9421 -0.5101
  728MOL0     C  387   4.397   3.171   7.177  0.0878  0.0596 -0.6541
  728MOL0     C  388   4.282   3.256   7.118 -0.4702 -0.2780  0.0649
  728MOL0     C  389   4.175   3.286   7.219 -0.7340 -0.2529  0.2231
  728MOL0     C  390   4.074   3.380   7.174  0.3674  0.1208 -0.0906
  728MOL0     C  391   3.973   3.437   7.135 -0.5271  0.7962 -0.5035
  728MOL0     C  392   4.856   3.098   7.113  0.3216  0.1545 -0.1174
  728MOL0     C  393   4.972   3.073   7.037  0.5483  0.8561  0.0814
  728MOL0     C  394   5.091   3.115   7.113 -0.6030 -0.3530  1.0113
  728MOL0     H  395   5.404   3.076   6.751  1.5001 -0.5001  0.1175
  728MOL0     H  396   5.603   2.968   6.685  2.6138 -0.1492  2.8998
  728MOL0     H  397   5.818   2.865   6.700 -1.6434  1.5481  0.0027
  728MOL0     H  398   5.702   2.806   6.589 -0.8305  2.9753  2.4929
  728MOL0     H  399   5.820   2.577   6.586  1.1766 -1.4703  2.7333
  728MOL0     H  400   5.930   2.692   6.530  1.2047 -7.2951 -1.0067
  728MOL0     H  401   5.927   2.646   6.839  1.8600  1.9361  1.2244
  728MOL0     H  402   5.980   2.517   6.728  0.2349 -0.1351 -0.2806
  728MOL0     H  403   6.147   2.703   6.624  0.4735  0.4132  0.1097
  728MOL0     H  404   6.083   2.804   6.758 -2.8912 -0.8441  1.1455
  728MOL0     H  405   6.182   2.533   6.833  0.9916 -0.1513 -0.5610
  728MOL0     H  406   6.181   2.692   6.921 -0.7174  2.1109 -0.7364
  728MOL0     H  407   6.362   2.770   6.753 -0.7630 -0.2257 -1.4037
  728MOL0     H  408   6.422   2.649   6.870 -0.9650  0.8762  0.8685
  728MOL0     H  409   6.325   2.586   6.592 -0.3375  1.1569  0.8279
  728MOL0     H  410   6.395   2.469   6.692  2.2579 -1.2588 -3.9117
  728MOL0     H  411   6.546   2.706   6.593  1.9266 -0.8726 -1.4990
  728MOL0     H  412   6.608   2.573   6.697  0.5937 -0.5049 -1.4762
  728MOL0     H  413   6.557   2.295   6.565  0.7144 -2.2558 -2.3794
  728MOL0     H  414   6.597   2.227   6.201  4.1897 -0.0272 -0.7207
  728MOL0     H  415   6.571   2.143   6.344 -1.4831  0.2454 -2.9652
  728MOL0     H  416   6.829   2.290   6.277  3.3253 -1.1855  2.5162
  728MOL0     H  417   6.814   2.176   6.416 -0.7698 -2.0134  0.1718
  728MOL0     H  418   6.789   1.991   6.298 -2.4941  0.1697 -0.8014
  728MOL0     H  419   6.735   2.061   6.151 -1.5168 -1.5716  1.9248
  728MOL0     H  420   6.988   1.969   6.148  0.1899 -1.1429  3.3574
  728MOL0     H  421   6.940   2.127   6.077 -0.2688 -0.5751  0.0514
  728MOL0     H  422   7.131   2.071   5.998 -0.7371  0.7689 -0.2692
  728MOL0     H  423   7.404   2.228   5.804 -0.2525  0.4853 -1.6507
  728MOL0     H  424   7.247   2.138   5.797 -0.4132 -0.0170  1.7078
  728MOL0     H  425   7.383   2.044   5.849 -0.5016 -1.0671 -1.3414
  728MOL0     H  426   7.802   2.273   6.203 -0.6860  1.9786  2.6681
  728MOL0     H  427   8.041   2.325   6.165  1.5584  0.4770  0.1815
  728MOL0     H  428   8.250   2.380   6.102 -0.8984 -1.0893 -1.1924
  728MOL0     H  429   8.233   2.392   5.927  1.4749 -0.9520  0.8461
  728MOL0     H  430   8.448   2.435   5.972  1.5869  1.8612 -0.3391
  728MOL0     H  431   8.375   2.591   5.931 -0.3605 -2.4209 -2.6577
  728MOL0     H  432   8.392   2.508   6.221  0.1285  0.4317  0.7112
  728MOL0     H  433   8.385   2.675   6.157 -2.9965 -1.5754  1.3067
  728MOL0     H  434   8.628   2.641   6.093 -0.2567  2.6226  2.6105
  728MOL0     H  435   8.616   2.465   6.133 -1.4202  0.0028 -1.7363
  728MOL0     H  436   8.569   2.669   6.348  1.0191  1.2461  0.5007
  728MOL0     H  437   8.637   2.519   6.365  1.9061 -0.7969  0.7045
  728MOL0     H  438   8.794   2.697   6.398 -2.4623 -1.8046  1.0991
  728MOL0     H  439   8.762   2.763   6.239  0.1234 -0.4624 -1.7555
  728MOL0     H  440   8.871   2.619   6.113 -0.2278 -0.5325 -0.1857
  728MOL0     H  441   8.865   2.486   6.239  0.2632 -1.0144 -0.3630
  728MOL0     H  442   9.052   2.645   6.353 -1.1199 -1.0322  1.0498
  728MOL0     H  443   9.031   2.749   6.205 -2.2847 -0.0994 -1.4398
  728MOL0     H  444   7.945   2.678   5.950  1.9114 -0.3729  0.5608
  728MOL0     H  445   7.693   2.616   5.975  1.0122  1.8072 -0.3547
  728MOL0     H  446   7.439   2.361   6.264 -0.9774  1.1829 -1.4319
  728MOL0     H  447   7.225   2.295   6.351 -0.3759 -1.3706 -0.2876
  728MOL0     H  448   5.482   2.601   6.879 -0.0814 -0.4172 -1.2383
  728MOL0     H  449   5.255   2.710   6.922  0.0279 -0.8510 -1.8513
  728MOL0     H  450   4.812   2.968   6.755 -0.3447  0.9213  0.2225
  728MOL0     H  451   4.631   3.025   6.867  0.4655  1.8848 -1.0512
  728MOL0     H  452   4.484   3.175   6.984 -2.5598 -0.3492 -1.3543
  728MOL0     H  453   4.451   3.021   7.034 -0.5982  2.1077 -2.9542
  728MOL0     H  454   4.459   3.243   7.231  1.3903  0.2225 -2.2812
  728MOL0     H  455   4.362   3.091   7.243 -0.0458 -1.0529 -2.0305
  728MOL0     H  456   4.326   3.353   7.092 -2.8082  0.8865  0.2070
  728MOL0     H  457   4.244   3.211   7.026  2.4367 -0.4551 -1.1691
  728MOL0     H  458   4.228   3.317   7.309  0.9048  0.0331 -0.7948
  728MOL0     H  459   4.133   3.187   7.237 -1.4425  0.0058  0.0228
  728MOL0     H  460   3.895   3.506   7.112  0.8770  2.2581 -1.0402
  728MOL0     H  461   4.858   3.149   7.209  1.2613  0.7300 -0.4300
  728MOL0     H  462   5.064   3.183   7.194 -1.8082  1.3709 -0.7177
  728MOL0     H  463   5.133   3.020   7.147 -1.3995 -0.1018  2.8200
  728MOL0     H  464   5.159   3.168   7.045 -1.8592  1.0744  0.8275
  729MOL0     O  465   5.889   4.172   4.010  0.0392  0.2036 -0.4645
  729MOL0     C  466   5.793   4.100   3.978  0.4047  0.5539 -0.2770
  729MOL0     O  467   5.805   3.968   3.939  0.2254  0.2722  0.3677
  729MOL0     C  468   5.922   3.916   3.978 -0.7984 -0.2254  0.0826
  729MOL0     C  469   6.022   3.933   3.874  0.2425 -0.0695  0.0150
  729MOL0     C  470   6.150   3.877   3.908 -0.0015  0.4673 -0.1970
  729MOL0     C  471   6.173   3.797   4.022 -0.5643  1.5054 -0.6261
  729MOL0     O  472   6.289   3.725   4.053  0.9439 -0.7726 -0.2057
  729MOL0     C  473   6.419   3.780   4.013  0.3334  0.7340  0.1437
  729MOL0     C  474   6.532   3.662   4.010 -0.6015 -0.5840 -0.0131
  729MOL0     C  475   6.676   3.718   3.988  0.4726  0.3505  0.6154
  729MOL0     C  476   6.759   3.589   3.964  0.3025  0.1876 -0.4285
  729MOL0     C  477   6.901   3.626   3.907 -0.5300 -0.8765 -1.1882
  729MOL0     C  478   6.972   3.512   3.848 -0.5988  0.4658  0.7489
  729MOL0     C  479   7.116   3.541   3.798  0.1822  0.2194  0.0457
  729MOL0     C  480   7.121   3.664   3.702  1.1204 -0.7187  0.0196
  729MOL0     N  481   7.026   3.660   3.589  0.6616 -0.7803  0.8733
  729MOL0     C  482   7.020   3.569   3.482 -0.5238 -0.5769  0.6034
  729MOL0     C  483   6.943   3.620   3.385 -0.5094 -0.3272 -0.1551
  729MOL0     C  484   6.914   3.574   3.252  1.0427  0.9460 -0.9692
  729MOL0     C  485   6.794   3.477   3.256  0.6046 -0.0132  0.3927
  729MOL0     C  486   6.663   3.556   3.284 -0.8313  0.0497  0.1692
  729MOL0     C  487   6.546   3.459   3.290  0.0100  1.0795 -0.0432
  729MOL0     O  488   6.484   3.417   3.161 -0.3884 -0.2332 -0.4507
  729MOL0     C  489   6.425   3.518   3.089 -0.2303 -0.1754  0.6269
  729MOL0     C  490   6.370   3.643   3.131 -0.9098  0.4476 -0.3559
  729MOL0     C  491   6.313   3.743   3.044 -0.8582  1.0432 -1.0110
  729MOL0     C  492   6.257   3.873   3.105 -0.2215  0.2867 -0.1261
  729MOL0     C  493   6.324   3.718   2.910 -0.4634 -0.5343  0.0231
  729MOL0     C  494   6.254   3.803   2.806  0.1518  0.2306 -0.2688
  729MOL0     O  495   6.295   3.787   2.671  0.0008 -0.4838  0.3100
  729MOL0     C  496   6.233   3.858   2.570  0.2497 -0.8107 -0.9942
  729MOL0     C  497   6.092   3.854   2.537  1.0756 -0.1266 -1.2149
  729MOL0     C  498   6.044   3.926   2.422 -0.0076  0.8184  0.3113
  729MOL0     C  499   6.134   4.001   2.342  0.2350  0.3629 -0.2081
  729MOL0     O  500   6.103   4.069   2.228 -0.5781 -0.0586 -0.8118
  729MOL0     C  501   5.970   4.066   2.184  0.0006  0.5820  0.1048
  729MOL0     C  502   5.974   4.134   2.042 -0.1340  0.1710 -0.1226
  729MOL0     C  503   5.838   4.111   1.973  0.0076 -0.6833 -0.1174
  729MOL0     C  504   5.770   4.242   1.941  0.3587  0.5948  0.0643
  729MOL0     C  505   5.653   4.238   1.842  0.1711  0.0362  0.1976
  729MOL0     C  506   5.578   4.102   1.859  0.0018 -0.3354 -0.0827
  729MOL0     C  507   5.443   4.112   1.791 -0.1597 -0.1122 -0.5485
  729MOL0     C  508   5.360   3.984   1.809 -0.2398 -0.1550  0.1047
  729MOL0    Cl  509   5.438   3.820   1.746 -0.1058  0.3171  0.4335
  729MOL0     C  510   6.265   4.016   2.386  0.9567 -0.4520  0.4278
  729MOL0     C  511   6.317   3.947   2.496  1.2097  0.0172 -0.0179
  729MOL0     O  512   6.174   3.890   2.835  1.2635  0.3600 -0.2724
  729MOL0     C  513   6.377   3.596   2.862 -0.6291 -0.5394 -0.2403
  729MOL0     C  514   6.422   3.502   2.953  0.0529 -0.3723  0.2655
  729MOL0     N  515   6.905   3.745   3.431  0.1293  0.2316 -0.0795
  729MOL0     N  516   6.956   3.771   3.550  0.9038 -0.0664 -1.0256
  729MOL0     C  517   6.081   3.812   4.123  0.0162 -0.5154 -0.7813
  729MOL0     C  518   5.955   3.854   4.098  0.1240 -0.7174  0.0373
  729MOL0     C  519   5.658   4.169   3.965 -0.3718 -0.1405  0.1579
  729MOL0     C  520   5.662   4.313   3.966  0.3777 -0.4042 -0.0670
  729MOL0     C  521   5.541   4.380   3.951  0.4503  0.1197 -0.8919
  729MOL0     C  522   5.422   4.316   3.928  0.5368  0.0760  0.6625
  729MOL0     O  523   5.308   4.389   3.902  0.4108 -0.0885  0.2145
  729MOL0     C  524   5.181   4.324   3.905 -0.2826 -0.0170 -0.1195
  729MOL0     C  525   5.080   4.427   3.942 -0.9015 -0.0109 -0.3109
  729MOL0     C  526   5.066   4.544   3.848 -0.2587 -0.2370 -0.0995
  729MOL0     C  527   5.183   4.639   3.839  0.1148  0.6220 -0.3352
  729MOL0     C  528   5.133   4.752   3.760 -0.0241  0.0499  0.2159
  729MOL0     C  529   5.069   4.830   3.695 -0.5088 -0.2881 -0.4015
  729MOL0     C  530   5.418   4.171   3.931 -0.3313  0.2331  0.0320
  729MOL0     C  531   5.531   4.100   3.954 -0.6460 -0.3352  0.3982
  729MOL0     C  532   5.519   3.951   3.958  0.8430  0.7963  0.2835
  729MOL0     H  533   6.001   3.967   3.773 -0.4056 -0.7242 -0.0854
  729MOL0     H  534   6.214   3.875   3.820 -1.1944  2.5374 -1.1812
  729MOL0     H  535   6.451   3.836   4.102  0.3713 -2.3241  2.2536
  729MOL0     H  536   6.422   3.841   3.923 -2.4131 -3.3453 -3.0788
  729MOL0     H  537   6.521   3.607   4.103  0.9303  0.4372  0.8287
  729MOL0     H  538   6.510   3.588   3.933  2.4676 -1.5849 -0.0896
  729MOL0     H  539   6.668   3.772   3.894  0.8584  0.3437  0.5761
  729MOL0     H  540   6.726   3.777   4.065  2.6740  0.0657 -0.5186
  729MOL0     H  541   6.781   3.544   4.062 -1.4735  1.1176  0.4455
  729MOL0     H  542   6.711   3.520   3.895 -0.7874  1.1407 -0.6538
  729MOL0     H  543   6.959   3.677   3.984 -1.9708  0.7458 -1.1088
  729MOL0     H  544   6.883   3.701   3.829  0.0953 -1.5925 -2.0474
  729MOL0     H  545   6.984   3.425   3.913 -0.3281  1.6050  2.2988
  729MOL0     H  546   6.916   3.475   3.762 -0.2451  0.7735  0.3781
  729MOL0     H  547   7.160   3.450   3.757  1.0626  0.4618  0.4245
  729MOL0     H  548   7.170   3.570   3.889 -2.1405  0.6314  1.3522
  729MOL0     H  549   7.104   3.754   3.761  0.6995  0.2618 -1.5408
  729MOL0     H  550   7.221   3.679   3.659  1.2434 -1.3921  0.0514
  729MOL0     H  551   7.085   3.482   3.474  0.0848  0.0471 -1.8282
  729MOL0     H  552   6.996   3.523   3.201  0.3449  0.1571 -1.3503
  729MOL0     H  553   6.896   3.661   3.188 -1.3822 -0.6555 -2.6687
  729MOL0     H  554   6.779   3.433   3.157 -0.2644 -1.4583  1.1245
  729MOL0     H  555   6.800   3.395   3.328 -0.8293  0.9639  1.7025
  729MOL0     H  556   6.686   3.603   3.380  0.8913  2.6657 -1.3768
  729MOL0     H  557   6.646   3.631   3.206  2.0830  1.3197  0.6243
  729MOL0     H  558   6.575   3.372   3.350  2.5928  1.5898 -0.4623
  729MOL0     H  559   6.470   3.513   3.347  1.4455  0.7777  2.2837
  729MOL0     H  560   6.390   3.656   3.237  2.4039 -3.2637 -0.3052
  729MOL0     H  561   6.308   3.952   3.049  1.4166 -0.6527 -0.0216
  729MOL0     H  562   6.271   3.885   3.213 -5.1894 -3.0022  1.2656
  729MOL0     H  563   6.149   3.880   3.085  0.1639 -0.6850 -2.8364
  729MOL0     H  564   6.026   3.798   2.602  0.8329  1.8670  0.3539
  729MOL0     H  565   5.941   3.910   2.394  0.4018 -3.5889  0.6004
  729MOL0     H  566   5.946   3.962   2.164  1.6381  0.2996 -0.5654
  729MOL0     H  567   5.897   4.107   2.255  1.6598  2.9540  0.5945
  729MOL0     H  568   6.012   4.236   2.055  3.2297 -0.8204 -1.2311
  729MOL0     H  569   6.052   4.083   1.986  0.1469 -1.3426  1.5531
  729MOL0     H  570   5.772   4.060   2.045 -1.5026  1.4016  0.0917
  729MOL0     H  571   5.848   4.045   1.887 -2.1997  1.4670 -2.2218
  729MOL0     H  572   5.842   4.310   1.896 -2.6927  2.1516 -2.9343
  729MOL0     H  573   5.737   4.267   2.043 -0.0251 -0.5061  0.2263
  729MOL0     H  574   5.589   4.322   1.868  0.3218  0.4439 -0.7444
  729MOL0     H  575   5.690   4.242   1.739 -0.3471 -2.8165 -0.1998
  729MOL0     H  576   5.557   4.091   1.966  0.0003 -0.1650 -0.0648
  729MOL0     H  577   5.633   4.016   1.819 -1.0641 -0.2242 -1.9122
  729MOL0     H  578   5.463   4.132   1.685  1.6737 -1.2173 -0.4674
  729MOL0     H  579   5.393   4.202   1.826  2.0985  0.7479  0.6927
  729MOL0     H  580   5.265   4.004   1.759  0.0485 -0.1081 -0.4270
  729MOL0     H  581   5.334   3.975   1.915  1.2558 -1.2651  0.4217
  729MOL0     H  582   6.336   4.072   2.327  0.0410  1.5975  1.1989
  729MOL0     H  583   6.418   3.952   2.535  1.0774  0.3258  0.2963
  729MOL0     H  584   6.384   3.578   2.755 -0.5185  2.1523 -0.7464
  729MOL0     H  585   6.457   3.406   2.915  1.2689 -0.0853  0.6189
  729MOL0     H  586   6.112   3.767   4.216  0.2973  2.1494  0.5024
  729MOL0     H  587   5.880   3.838   4.175 -0.1959 -0.3480 -0.1904
  729MOL0     H  588   5.754   4.369   3.977 -0.4780  0.9633  0.4441
  729MOL0     H  589   5.546   4.489   3.955  1.7174  0.1204  4.1171
  729MOL0     H  590   5.145   4.288   3.808  0.9954  0.7200 -0.8886
  729MOL0     H  591   5.177   4.248   3.984  0.1703 -0.0610 -0.1388
  729MOL0     H  592   5.103   4.457   4.044  0.9004  0.5279 -0.8391
  729MOL0     H  593   4.988   4.368   3.942 -1.0629  0.2298 -0.7834
  729MOL0     H  594   5.055   4.495   3.751 -0.1730 -3.9177  1.5609
  729MOL0     H  595   4.972   4.591   3.878 -1.2892 -2.7208  0.8212
  729MOL0     H  596   5.260   4.592   3.776  0.1397  0.1965  0.0069
  729MOL0     H  597   5.232   4.667   3.932  1.5897  0.6838 -1.0951
  729MOL0     H  598   5.023   4.914   3.647 -0.8071  0.4795  1.1544
  729MOL0     H  599   5.325   4.118   3.908 -1.0983  1.0054  1.2486
  729MOL0     H  600   5.587   3.906   4.032  1.5041  0.0937 -0.7230
  729MOL0     H  601   5.421   3.926   4.000  0.4222 -0.9244 -1.5621
  729MOL0     H  602   5.536   3.916   3.856  0.2961  1.9553 -0.2140
  730MOL0     O  603   6.956   6.119   5.522  0.3582 -0.6537  0.5390
  730MOL0     C  604   6.889   6.176   5.608  0.3634  0.2308  0.6134
  730MOL0     O  605   6.936   6.258   5.706 -0.1010 -0.2399 -0.1379
  730MOL0     C  606   7.072   6.290   5.702 -0.5550  0.0056 -0.0036
  730MOL0     C  607   7.116   6.414   5.645 -0.0554  0.3341  0.3575
  730MOL0     C  608   7.247   6.445   5.633  0.6292 -0.1929  0.0174
  730MOL0     C  609   7.340   6.347   5.643 -0.1942  0.5030  0.1859
  730MOL0     O  610   7.469   6.362   5.616 -0.5589  0.0362  0.1994
  730MOL0     C  611   7.542   6.465   5.687 -0.1722  0.3615 -0.3475
  730MOL0     C  612   7.683   6.473   5.649  0.4994 -0.0940  0.3652
  730MOL0     C  613   7.753   6.342   5.672 -0.5122 -0.5128 -0.3843
  730MOL0     C  614   7.907   6.345   5.634 -0.3891 -0.1484 -0.7749
  730MOL0     C  615   7.981   6.232   5.713  0.2506  0.5040  0.6746
  730MOL0     C  616   8.134   6.222   5.669 -0.4325  1.1840 -0.5528
  730MOL0     C  617   8.212   6.137   5.763  0.0238  0.2673  0.4150
  730MOL0     C  618   8.259   6.217   5.889 -0.2717  0.2613 -0.5117
  730MOL0     N  619   8.403   6.218   5.892 -0.0622  0.2055  0.0688
  730MOL0     C  620   8.485   6.124   5.961  1.0632 -0.1237  0.7289
  730MOL0     C  621   8.609   6.169   5.945 -0.1090  0.1019  0.3022
  730MOL0     C  622   8.744   6.123   6.023  0.6747  0.6350 -0.6601
  730MOL0     C  623   8.761   6.197   6.160  0.6436 -0.3138  0.6299
  730MOL0     C  624   8.811   6.335   6.139 -0.0583 -0.3086  0.1212
  730MOL0     C  625   8.949   6.345   6.080  0.8650 -0.3439 -0.4859
  730MOL0     O  626   9.044   6.276   6.161  0.9140 -0.4393 -0.3950
  730MOL0     C  627   9.169   6.296   6.125 -0.1511  0.2198 -0.5649
  730MOL0     C  628   9.228   6.191   6.049 -0.0504  0.5437 -0.7619
  730MOL0     C  629   9.362   6.202   6.017  0.0059  1.3018 -0.6463
  730MOL0     C  630   9.421   6.083   5.949 -0.3627  0.4183 -0.1993
  730MOL0     C  631   9.439   6.315   6.055  0.4995  0.4674  0.4473
  730MOL0     C  632   9.581   6.340   6.023  0.8661  0.3692 -0.0142
  730MOL0     O  633   9.634   6.458   6.063  0.2622  0.0945  0.0036
  730MOL0     C  634   9.765   6.482   6.088 -0.0088  0.4893  0.9830
  730MOL0     C  635   9.862   6.373   6.088 -0.5471  0.1219  0.0257
  730MOL0     C  636   9.993   6.415   6.119  0.2534  0.4340  0.3966
  730MOL0     C  637  10.028   6.547   6.155 -0.4575  0.1200 -0.9101
  730MOL0     O  638  10.159   6.566   6.177 -0.0112 -0.2631 -0.4887
  730MOL0     C  639  10.208   6.684   6.237 -0.8784  0.3080  0.4235
  730MOL0     C  640  10.359   6.672   6.270 -0.5260  0.4946 -0.3651
  730MOL0     C  641  10.379   6.575   6.390 -0.0525  0.0433 -0.0499
  730MOL0     C  642  10.530   6.567   6.427  0.7041  0.3124  0.3453
  730MOL0     C  643  10.554   6.469   6.546  0.4760 -0.3426 -0.2636
  730MOL0     C  644  10.686   6.515   6.623  0.4121 -0.0474 -0.9498
  730MOL0     C  645  10.807   6.503   6.534  0.3761  0.2441 -0.4506
  730MOL0     C  646  10.931   6.533   6.621 -0.9193  0.2827  0.6499
  730MOL0    Cl  647  11.085   6.553   6.522  0.1266 -0.5964  0.1841
  730MOL0     C  648   9.932   6.650   6.152  0.0356 -0.6639 -0.0359
  730MOL0     C  649   9.803   6.615   6.116 -0.0412 -0.5016  0.2282
  730MOL0     O  650   9.635   6.261   5.953 -0.4635 -0.7610  0.3148
  730MOL0     C  651   9.373   6.408   6.126  0.1893 -0.3751 -0.1930
  730MOL0     C  652   9.241   6.406   6.163  0.0061 -0.2835  0.6855
  730MOL0     N  653   8.601   6.279   5.860 -0.3604  0.0755 -0.7800
  730MOL0     N  654   8.480   6.308   5.842  0.5709 -0.4509 -0.2685
  730MOL0     C  655   7.302   6.221   5.698 -0.7996  0.1048 -0.5458
  730MOL0     C  656   7.171   6.195   5.736 -0.4363 -0.0565  0.1032
  730MOL0     C  657   6.738   6.157   5.606  0.5685  0.1577  0.4358
  730MOL0     C  658   6.660   6.209   5.709 -1.2058 -0.3329 -0.4371
  730MOL0     C  659   6.522   6.198   5.706  0.7285 -0.5527 -0.5081
  730MOL0     C  660   6.450   6.148   5.600 -0.1753  0.1574 -0.1594
  730MOL0     O  661   6.316   6.141   5.623  0.2479  0.2907  0.1351
  730MOL0     C  662   6.254   6.015   5.598  0.0968 -0.7087  0.1105
  730MOL0     C  663   6.134   5.990   5.694  0.3028  0.5018 -0.2386
  730MOL0     C  664   6.017   6.083   5.680  0.3017  0.3448  0.1803
  730MOL0     C  665   5.875   6.029   5.706  0.0419  0.9447 -0.2340
  730MOL0     C  666   5.778   6.128   5.734  0.7808  0.6908  0.1049
  730MOL0     C  667   5.701   6.220   5.764 -0.2419 -0.4684 -0.0928
  730MOL0     C  668   6.523   6.089   5.498 -0.1467  0.2637 -0.4468
  730MOL0     C  669   6.663   6.103   5.497  0.8807 -0.2227  1.1256
  730MOL0     C  670   6.738   6.058   5.365  0.0628  0.2612 -0.7068
  730MOL0     H  671   7.042   6.478   5.597  0.2406  0.0183 -0.5276
  730MOL0     H  672   7.275   6.543   5.596 -0.5930  1.5290  3.2969
  730MOL0     H  673   7.530   6.456   5.795  0.4317 -2.0737 -0.4167
  730MOL0     H  674   7.503   6.564   5.661 -0.1397  0.5181  0.1971
  730MOL0     H  675   7.687   6.507   5.545  0.3393 -2.2367 -0.3840
  730MOL0     H  676   7.723   6.550   5.716  1.5082 -0.6385  0.4023
  730MOL0     H  677   7.752   6.307   5.775  1.2102 -1.2696 -0.5900
  730MOL0     H  678   7.703   6.270   5.607  1.4473  1.7922 -4.8929
  730MOL0     H  679   7.928   6.337   5.527 -0.9510  2.9660 -1.2093
  730MOL0     H  680   7.949   6.442   5.664  1.7748 -0.4443 -2.5504
  730MOL0     H  681   7.932   6.135   5.714  0.0325  0.5790 -0.8703
  730MOL0     H  682   7.979   6.258   5.819 -2.1623 -0.6122  0.9726
  730MOL0     H  683   8.144   6.174   5.571  2.2203 -1.8744  1.0225
  730MOL0     H  684   8.178   6.322   5.658  2.4990  0.0451 -0.1564
  730MOL0     H  685   8.301   6.109   5.707  1.4115  1.1580  2.0708
  730MOL0     H  686   8.164   6.044   5.796  1.5425 -0.2075  1.3867
  730MOL0     H  687   8.223   6.318   5.868 -1.5628 -0.7027 -3.5051
  730MOL0     H  688   8.213   6.186   5.983 -1.5126 -0.0825 -1.2150
  730MOL0     H  689   8.446   6.041   6.019  0.7124 -0.2946  0.2578
  730MOL0     H  690   8.833   6.125   5.960 -0.1012 -5.1563 -2.4806
  730MOL0     H  691   8.727   6.017   6.046  0.0322  1.2599  2.1792
  730MOL0     H  692   8.657   6.203   6.194 -0.0536 -2.7435 -0.8526
  730MOL0     H  693   8.829   6.146   6.229  0.6557  0.1940  1.0034
  730MOL0     H  694   8.745   6.391   6.073  0.4276 -1.4862 -1.4241
  730MOL0     H  695   8.824   6.397   6.228 -1.6141  1.7953 -1.0266
  730MOL0     H  696   8.942   6.330   5.972  0.1644  2.3786 -0.8864
  730MOL0     H  697   8.972   6.451   6.083 -0.2118 -0.1129  1.1941
  730MOL0     H  698   9.178   6.103   6.010  3.0521 -1.0602 -1.4280
  730MOL0     H  699   9.349   6.001   5.947  0.0386 -0.0658  2.1571
  730MOL0     H  700   9.505   6.047   6.009  0.1212  0.8279 -0.6171
  730MOL0     H  701   9.449   6.106   5.846 -0.7275 -2.3661 -1.0080
  730MOL0     H  702   9.850   6.268   6.068  1.3000  0.1667 -1.6923
  730MOL0     H  703  10.073   6.342   6.117  1.6258  1.8917 -1.1607
  730MOL0     H  704  10.189   6.760   6.162 -3.3440 -1.3183 -0.7047
  730MOL0     H  705  10.156   6.707   6.331  0.3719  0.0326  1.2126
  730MOL0     H  706  10.409   6.623   6.186  2.4947 -1.2873  2.2421
  730MOL0     H  707  10.388   6.772   6.300 -3.4964  1.1244  0.7614
  730MOL0     H  708  10.361   6.476   6.346  0.2439  1.4642 -3.7406
  730MOL0     H  709  10.313   6.600   6.474 -0.6725 -1.6817  0.0236
  730MOL0     H  710  10.560   6.669   6.453 -1.2224  0.7971  0.8743
  730MOL0     H  711  10.579   6.530   6.336 -0.5293  0.9696 -0.6215
  730MOL0     H  712  10.473   6.468   6.619  1.1629 -1.8186  0.5289
  730MOL0     H  713  10.555   6.367   6.507 -2.7101 -0.3142 -0.6692
  730MOL0     H  714  10.692   6.452   6.712 -2.7314  1.6827  0.6791
  730MOL0     H  715  10.670   6.622   6.640  0.3445 -0.1165 -0.5715
  730MOL0     H  716  10.803   6.573   6.450  4.4538  0.8560 -0.3325
  730MOL0     H  717  10.816   6.403   6.490 -5.4030 -0.3077 -1.1186
  730MOL0     H  718  10.946   6.450   6.690  0.0306  0.8800  1.1719
  730MOL0     H  719  10.910   6.628   6.672 -0.3037  1.1333 -0.6170
  730MOL0     H  720   9.962   6.752   6.172 -2.6248 -0.2845  2.8492
  730MOL0     H  721   9.736   6.700   6.107  0.0606 -0.5628 -1.4724
  730MOL0     H  722   9.420   6.502   6.155  0.7823  0.0260 -2.2785
  730MOL0     H  723   9.192   6.486   6.219 -0.6959 -0.5550  0.4674
  730MOL0     H  724   7.391   6.160   5.712  1.4629  2.9639 -1.3210
  730MOL0     H  725   7.158   6.093   5.773  2.1845  0.1328  1.7617
  730MOL0     H  726   6.709   6.249   5.798  0.9733  1.3940 -2.2838
  730MOL0     H  727   6.464   6.239   5.788 -0.0137 -0.2564 -1.1692
  730MOL0     H  728   6.224   6.011   5.493 -1.5878 -0.1843  0.5382
  730MOL0     H  729   6.324   5.935   5.624  0.6802  0.6585  3.0572
  730MOL0     H  730   6.177   6.001   5.794 -0.8856  1.7767  0.1643
  730MOL0     H  731   6.097   5.890   5.667 -0.2570  1.2270 -2.3403
  730MOL0     H  732   6.053   6.169   5.737  2.6861 -0.5701  0.1832
  730MOL0     H  733   6.023   6.128   5.580 -1.4472  1.5175  0.5627
  730MOL0     H  734   5.868   5.950   5.781  0.1294  1.2406  0.0875
  730MOL0     H  735   5.847   5.971   5.617 -0.0158 -0.0205  0.3976
  730MOL0     H  736   5.631   6.294   5.798  0.8553  0.5772 -0.0154
  730MOL0     H  737   6.478   6.033   5.417 -0.6027  2.1180 -1.5255
  730MOL0     H  738   6.795   6.132   5.309  1.6903  0.3302  0.9829
  730MOL0     H  739   6.811   5.986   5.401 -2.9635 -2.1943  1.0250
  730MOL0     H  740   6.668   6.000   5.303  0.3069 -2.8420  1.6853
  731MOL0     O  741   1.531   5.115   8.577 -0.2218  1.0993 -0.0632
  731MOL0     C  742   1.511   5.200   8.661  0.1199 -0.1540  0.0415
  731MOL0     O  743   1.603   5.274   8.725 -0.8950  0.5289 -0.0765
  731MOL0     C  744   1.737   5.246   8.684  1.2094  0.3140 -0.2158
  731MOL0     C  745   1.803   5.127   8.723 -0.0481  0.0074  0.5891
  731MOL0     C  746   1.938   5.105   8.673 -0.0002 -0.4369 -0.7530
  731MOL0     C  747   2.005   5.204   8.602 -0.0371  0.1971 -0.4673
  731MOL0     O  748   2.137   5.195   8.562  0.0673  0.2599 -0.0856
  731MOL0     C  749   2.211   5.064   8.565 -0.0003  0.1706 -0.6249
  731MOL0     C  750   2.352   5.069   8.524 -0.0907  0.1431  0.0091
  731MOL0     C  751   2.365   5.064   8.364 -0.5556 -0.0001 -0.5465
  731MOL0     C  752   2.520   5.059   8.339  0.3257  0.2952 -0.1263
  731MOL0     C  753   2.551   5.048   8.191 -0.4448 -0.0162  0.0510
  731MOL0     C  754   2.705   5.017   8.164 -0.3504  0.5698 -0.4221
  731MOL0     C  755   2.805   5.128   8.176 -0.5565 -0.2351 -0.0001
  731MOL0     C  756   2.822   5.226   8.054 -0.6324  1.1811  0.4313
  731MOL0     N  757   2.889   5.167   7.940  0.0929  0.0803  0.0779
  731MOL0     C  758   2.826   5.107   7.832 -0.7579 -0.4226 -0.5106
  731MOL0     C  759   2.904   5.110   7.729 -0.5646 -0.1877  0.2462
  731MOL0     C  760   2.879   5.066   7.586  0.5106  0.1237 -0.3763
  731MOL0     C  761   2.827   5.178   7.495  1.1606  0.8857  0.3583
  731MOL0     C  762   2.930   5.295   7.469  0.3752  0.2426 -0.9519
  731MOL0     C  763   2.867   5.400   7.379 -0.2046  1.1167  0.0374
  731MOL0     O  764   2.957   5.512   7.365  0.8239  0.5000  0.4991
  731MOL0     C  765   3.034   5.516   7.251 -0.5984  0.5503 -0.2260
  731MOL0     C  766   3.115   5.627   7.237 -0.6273 -0.5909  0.1231
  731MOL0     C  767   3.207   5.645   7.130 -0.9036  0.8277  0.9368
  731MOL0     C  768   3.301   5.771   7.136 -0.5835 -0.6618 -0.0709
  731MOL0     C  769   3.216   5.544   7.029  0.8391  0.0082 -0.0036
  731MOL0     C  770   3.314   5.533   6.914 -0.2308 -0.4319 -0.6881
  731MOL0     O  771   3.290   5.438   6.828 -1.2375 -0.1986 -0.6026
  731MOL0     C  772   3.377   5.416   6.722 -0.0255 -0.1125  0.3442
  731MOL0     C  773   3.348   5.448   6.591 -0.6521 -0.2337  0.8407
  731MOL0     C  774   3.432   5.419   6.488  0.1696 -0.1326 -0.0248
  731MOL0     C  775   3.557   5.370   6.519  0.1695  0.2149  0.4413
  731MOL0     O  776   3.637   5.325   6.423 -0.2170  0.1332  0.3706
  731MOL0     C  777   3.664   5.418   6.316  0.2844  0.5925 -0.0720
  731MOL0     C  778   3.762   5.337   6.227  0.0066 -0.1081 -0.4252
  731MOL0     C  779   3.839   5.440   6.144  0.2251  0.7900  0.4888
  731MOL0     C  780   3.919   5.373   6.041 -0.1203 -0.2551  0.4780
  731MOL0     C  781   3.976   5.467   5.946 -0.6372 -0.0418 -0.3802
  731MOL0     C  782   4.064   5.578   6.008 -0.0767  0.3069 -0.2959
  731MOL0     C  783   4.170   5.627   5.908  0.0244 -0.1306  0.3041
  731MOL0     C  784   4.216   5.769   5.936 -0.5211 -0.3244 -0.1943
  731MOL0    Cl  785   4.336   5.822   5.821  0.1879 -0.2317  0.1118
  731MOL0     C  786   3.590   5.334   6.646  0.5379  0.0425 -0.0817
  731MOL0     C  787   3.500   5.355   6.754 -0.3760 -0.5528  0.2013
  731MOL0     O  788   3.409   5.610   6.910  0.3222 -0.4556  0.2797
  731MOL0     C  789   3.137   5.431   7.046 -0.2747 -0.8077 -0.7923
  731MOL0     C  790   3.052   5.415   7.156 -0.5421  0.5731 -0.1791
  731MOL0     N  791   3.028   5.176   7.773 -0.3182 -0.0394  0.1054
  731MOL0     N  792   3.011   5.201   7.898 -0.8077 -0.0698  0.2473
  731MOL0     C  793   1.937   5.320   8.575  0.1193  0.6920 -0.2037
  731MOL0     C  794   1.810   5.347   8.626 -0.3560 -0.4450  0.0800
  731MOL0     C  795   1.372   5.222   8.695 -1.3811  0.0576 -0.5280
  731MOL0     C  796   1.334   5.378   8.838  0.3989 -0.0622  0.0592
  731MOL0     C  797   1.134   5.435   8.885  0.6105  0.3508  0.2746
  731MOL0     C  798   0.977   5.327   8.789  0.6103 -0.0952  0.1527
  731MOL0     O  799   0.844   5.352   8.805 -0.0971 -0.0840  0.3047
  731MOL0     C  800   0.810   5.436   8.913 -0.1176  0.1960  0.1491
  731MOL0     C  801   0.663   5.476   8.896  0.3025 -0.5173  0.5483
  731MOL0     C  802   0.569   5.358   8.951 -0.5485  0.1150  0.3514
  731MOL0     C  803   0.514   5.384   9.099 -0.4239 -0.1551 -0.3946
  731MOL0     C  804   0.434   5.505   9.110  0.1385  0.1549 -0.1110
  731MOL0     C  805   0.356   5.598   9.118  0.6341  0.1275 -0.3810
  731MOL0     C  806   1.019   5.172   8.646  0.3681  0.3798  0.0097
  731MOL0     C  807   1.218   5.118   8.606 -0.1580 -0.0625 -0.0017
  731MOL0     C  808   1.241   5.007   8.513 -0.9999 -0.1394  0.1654
  731MOL0     H  809   1.768   5.044   8.783  2.6300 -1.0691  0.8024
  731MOL0     H  810   1.987   5.016   8.710  2.4096  0.9788 -0.3177
  731MOL0     H  811   2.161   4.989   8.503 -0.7442  0.8692 -0.8998
  731MOL0     H  812   2.206   5.023   8.666  0.7012  0.0915 -0.6176
  731MOL0     H  813   2.397   5.157   8.571 -0.8388 -0.3916  1.7751
  731MOL0     H  814   2.404   4.984   8.568  1.3045 -0.0765 -1.8885
  731MOL0     H  815   2.309   4.977   8.328  0.6014 -1.3245  0.6862
  731MOL0     H  816   2.321   5.154   8.321 -2.8255  0.2609  1.9736
  731MOL0     H  817   2.559   5.151   8.385  0.1245 -0.7346  2.2400
  731MOL0     H  818   2.558   4.970   8.390 -1.6133  0.7183  2.2760
  731MOL0     H  819   2.525   5.134   8.130  2.5523  0.4798 -0.7119
  731MOL0     H  820   2.511   4.954   8.152  3.2731 -1.4823 -0.7326
  731MOL0     H  821   2.742   4.944   8.236 -0.2811 -0.4248 -1.4297
  731MOL0     H  822   2.714   4.965   8.068 -1.3767  1.0810 -0.8126
  731MOL0     H  823   2.901   5.081   8.197 -1.2494 -0.8469  1.9682
  731MOL0     H  824   2.788   5.179   8.271  1.3572 -0.9198  0.7508
  731MOL0     H  825   2.723   5.259   8.021 -1.1926 -2.5718 -2.3811
  731MOL0     H  826   2.892   5.300   8.093  1.3976 -0.2099 -0.3673
  731MOL0     H  827   2.721   5.076   7.834 -0.4948 -1.5392 -2.0206
  731MOL0     H  828   2.798   4.992   7.579  1.7378 -1.3384  0.1852
  731MOL0     H  829   2.962   5.020   7.532 -0.8217 -0.4080 -2.0997
  731MOL0     H  830   2.803   5.137   7.396 -0.2072  2.0790  0.1751
  731MOL0     H  831   2.731   5.210   7.535  0.6392 -1.0606  0.7470
  731MOL0     H  832   2.960   5.352   7.557  0.9289  2.3877 -2.4458
  731MOL0     H  833   3.022   5.269   7.416  1.0095  2.8138 -1.2525
  731MOL0     H  834   2.849   5.348   7.284  2.1746 -1.9156  1.0541
  731MOL0     H  835   2.779   5.447   7.422 -1.0859 -0.5264  0.1194
  731MOL0     H  836   3.116   5.697   7.319  1.9395  0.7722 -0.9530
  731MOL0     H  837   3.279   5.849   7.210  3.7911  0.7626  0.0066
  731MOL0     H  838   3.308   5.818   7.038 -1.1610 -0.9316 -0.2452
  731MOL0     H  839   3.400   5.732   7.160 -0.1294 -2.9087 -4.5918
  731MOL0     H  840   3.264   5.513   6.567 -0.3474 -0.0816  0.1655
  731MOL0     H  841   3.403   5.463   6.393  0.0365  2.9669  1.3457
  731MOL0     H  842   3.574   5.440   6.257 -1.3871 -0.3524  1.9876
  731MOL0     H  843   3.702   5.511   6.360 -0.5318  3.0494 -4.0524
  731MOL0     H  844   3.835   5.283   6.287 -1.6775  1.1866  3.0986
  731MOL0     H  845   3.710   5.265   6.163  1.4762 -0.9349 -0.7374
  731MOL0     H  846   3.905   5.497   6.210  1.2948  0.2729 -0.1097
  731MOL0     H  847   3.771   5.511   6.097 -0.2370  1.5719  2.2257
  731MOL0     H  848   3.863   5.297   5.985 -0.0159  1.2742 -1.8326
  731MOL0     H  849   3.998   5.314   6.088  1.6496  1.8202  0.2548
  731MOL0     H  850   4.028   5.408   5.871 -0.2145 -2.3903  1.6403
  731MOL0     H  851   3.892   5.522   5.901  0.8813  2.3896 -0.4344
  731MOL0     H  852   4.108   5.542   6.101 -1.2835 -0.2419  0.0881
  731MOL0     H  853   3.999   5.660   6.042  0.6716  0.8545 -0.1558
  731MOL0     H  854   4.126   5.627   5.807 -0.1295  1.1397  0.3558
  731MOL0     H  855   4.256   5.560   5.908  1.9737  2.2436 -0.4034
  731MOL0     H  856   4.276   5.775   6.027  1.3042  0.3277 -1.3802
  731MOL0     H  857   4.139   5.846   5.936  0.7685  1.0168 -0.2575
  731MOL0     H  858   3.682   5.284   6.674  0.6407  0.7341  0.8559
  731MOL0     H  859   3.523   5.328   6.857 -1.3968 -4.7612 -0.5087
  731MOL0     H  860   3.133   5.344   6.981  0.6801 -1.5223  0.0800
  731MOL0     H  861   3.003   5.318   7.159  2.7690 -1.2445  3.0700
  731MOL0     H  862   1.998   5.392   8.521 -0.5103  0.6396 -1.0081
  731MOL0     H  863   1.760   5.440   8.604 -0.2317  0.0469  1.7030
  731MOL0     H  864   1.422   5.430   8.876  0.4360  0.5170 -0.8062
  731MOL0     H  865   1.098   5.511   8.953 -0.6556  0.1123 -0.1027
  731MOL0     H  866   0.840   5.390   9.008 -2.0203 -0.3468  0.5344
  731MOL0     H  867   0.868   5.528   8.898 -2.0186  1.0693 -2.5102
  731MOL0     H  868   0.648   5.513   8.794  0.0759 -0.8690  0.4533
  731MOL0     H  869   0.640   5.561   8.961  0.7386 -0.3466  0.4837
  731MOL0     H  870   0.474   5.346   8.898 -0.5074 -1.7227  0.6457
  731MOL0     H  871   0.615   5.259   8.942 -1.4866 -0.1573 -2.2042
  731MOL0     H  872   0.598   5.404   9.166  1.4802 -0.4469 -2.5568
  731MOL0     H  873   0.464   5.294   9.134 -0.1866 -1.0961 -2.3496
  731MOL0     H  874   0.299   5.685   9.146  1.8263 -0.0764  3.2460
  731MOL0     H  875   0.943   5.126   8.585 -0.4816 -1.2257  2.1600
  731MOL0     H  876   1.305   4.932   8.559  1.1888  1.6740  0.2398
  731MOL0     H  877   1.142   4.967   8.490 -0.9137 -0.3240  0.1161
  731MOL0     H  878   1.288   5.041   8.420 -1.2400 -1.7646 -0.5953
  732MOL0     O  879   2.859   2.068   6.786  0.3261 -0.4227  0.1330
  732MOL0     C  880   2.939   2.055   6.692 -0.0621  0.3009 -0.1197
  732MOL0     O  881   2.918   1.990   6.572 -0.1678  0.1381  0.0528
  732MOL0     C  882   2.790   1.995   6.524 -0.1953 -0.0843 -0.7592
  732MOL0     C  883   2.717   1.873   6.512 -0.5100 -0.3204 -0.4894
  732MOL0     C  884   2.578   1.874   6.469 -0.5036  0.4424 -0.6293
  732MOL0     C  885   2.520   1.997   6.432 -0.1191  0.2849  0.2880
  732MOL0     O  886   2.387   2.004   6.404 -0.1729 -0.0048  0.1386
  732MOL0     C  887   2.348   2.065   6.277 -0.1671 -0.0855  0.4837
  732MOL0     C  888   2.266   1.964   6.205  0.2771  0.1789  0.4342
  732MOL0     C  889   2.118   1.955   6.249 -0.5980 -0.8582 -0.2241
  732MOL0     C  890   2.020   2.048   6.165 -0.7605 -0.0946  0.4653
  732MOL0     C  891   1.871   2.019   6.216 -0.0270 -0.3847  0.3734
  732MOL0     C  892   1.752   2.104   6.152 -0.2591  0.4845 -0.0852
  732MOL0     C  893   1.787   2.249   6.121  0.8616 -0.1701 -0.1565
  732MOL0     C  894   1.806   2.323   6.246 -0.0389 -0.0834 -0.4346
  732MOL0     N  895   1.691   2.350   6.334  0.6160 -1.1038 -0.3086
  732MOL0     C  896   1.662   2.299   6.463  0.7172 -0.6163  0.2088
  732MOL0     C  897   1.548   2.378   6.502 -0.9598 -0.4476  0.0017
  732MOL0     C  898   1.479   2.349   6.633 -0.4363 -0.2248  0.2516
  732MOL0     C  899   1.563   2.407   6.757 -0.2568 -0.3483  0.7495
  732MOL0     C  900   1.591   2.559   6.736  0.4528 -0.3228  0.4537
  732MOL0     C  901   1.645   2.631   6.862 -0.1161 -0.5511  0.2775
  732MOL0     O  902   1.763   2.564   6.912  0.5304  0.7597  0.3466
  732MOL0     C  903   1.893   2.608   6.891  0.6785 -0.1192  0.2483
  732MOL0     C  904   1.941   2.687   6.788  0.7733 -0.3546  0.4891
  732MOL0     C  905   2.079   2.715   6.774  0.9059 -0.1894  0.1385
  732MOL0     C  906   2.114   2.777   6.646 -0.1445 -1.0586  0.1840
  732MOL0     C  907   2.163   2.669   6.872 -0.2169 -0.1888 -0.1177
  732MOL0     C  908   2.310   2.685   6.853  0.4057  0.1999 -0.9899
  732MOL0     O  909   2.390   2.582   6.903  0.4404  0.6924  0.2154
  732MOL0     C  910   2.528   2.592   6.870  0.3402 -0.1218 -0.4889
  732MOL0     C  911   2.611   2.670   6.953  0.0953 -1.1033 -1.0467
  732MOL0     C  912   2.743   2.640   6.942  0.3500  0.6353  0.5487
  732MOL0     C  913   2.797   2.539   6.861  0.4973  0.4934  1.2097
  732MOL0     O  914   2.939   2.532   6.857  0.2790 -0.6023 -0.2058
  732MOL0     C  915   2.997   2.409   6.833 -0.0597 -0.1108  0.5864
  732MOL0     C  916   3.118   2.416   6.920 -0.5373  0.3412 -0.5032
  732MOL0     C  917   3.224   2.512   6.860  0.1238 -0.3732  0.3208
  732MOL0     C  918   3.354   2.504   6.935  0.1241 -0.1896  0.2887
  732MOL0     C  919   3.464   2.587   6.873 -0.3412 -0.3444  0.5057
  732MOL0     C  920   3.583   2.575   6.978  0.4490 -0.0724  1.3360
  732MOL0     C  921   3.700   2.636   6.897  0.4875 -0.8735 -0.9779
  732MOL0     C  922   3.833   2.612   6.972 -0.6241 -0.0331  0.6221
  732MOL0    Cl  923   3.973   2.611   6.851  0.0815  0.1851  0.1937
  732MOL0     C  924   2.712   2.456   6.781  0.0695  0.3931 -0.1564
  732MOL0     C  925   2.575   2.477   6.796  0.4927  0.0695 -0.3551
  732MOL0     O  926   2.355   2.784   6.798 -0.7941 -0.3580  0.5873
  732MOL0     C  927   2.112   2.593   6.978  0.6738  0.1001  0.1393
  732MOL0     C  928   1.981   2.557   6.986 -0.1842  0.5713  0.5865
  732MOL0     N  929   1.521   2.479   6.412 -0.3264 -0.6182  0.6576
  732MOL0     N  930   1.605   2.458   6.314 -0.7377  0.5304 -0.3903
  732MOL0     C  931   2.593   2.108   6.434 -0.4830 -0.7654 -0.3258
  732MOL0     C  932   2.731   2.113   6.491  0.6759  0.5658  0.6060
  732MOL0     C  933   3.082   2.070   6.721  0.1919  0.6734  0.8870
  732MOL0     C  934   3.132   2.002   6.832  0.5636 -0.6095  0.7337
  732MOL0     C  935   3.266   2.005   6.861 -0.6005  0.0389  0.4982
  732MOL0     C  936   3.345   2.090   6.776  0.1140 -0.0194 -0.1076
  732MOL0     O  937   3.480   2.107   6.790 -0.7247  0.3187  0.2147
  732MOL0     C  938   3.522   2.122   6.924 -0.0206 -0.0072  0.4775
  732MOL0     C  939   3.611   2.001   6.961 -0.4676 -0.3898  0.6020
  732MOL0     C  940   3.736   1.995   6.889 -0.9717 -0.5272  0.0367
  732MOL0     C  941   3.839   2.105   6.927  0.3107 -0.0336  0.8486
  732MOL0     C  942   3.978   2.068   6.896  0.6196 -0.0843  0.7519
  732MOL0     C  943   4.087   2.031   6.859  0.5613 -0.1744 -0.2893
  732MOL0     C  944   3.288   2.174   6.684 -0.0822  0.3181  1.0161
  732MOL0     C  945   3.159   2.162   6.648  0.8938  1.6658  0.2546
  732MOL0     C  946   3.110   2.223   6.526  0.1131 -0.8762 -0.7965
  732MOL0     H  947   2.769   1.781   6.537 -2.0989 -0.4244  2.9700
  732MOL0     H  948   2.517   1.785   6.457  1.7097 -1.9145  3.4561
  732MOL0     H  949   2.440   2.088   6.222 -1.4772  1.5907 -1.0912
  732MOL0     H  950   2.301   2.163   6.286  0.4893  0.3835 -0.9511
  732MOL0     H  951   2.276   1.984   6.097 -0.8491  0.3472  0.3485
  732MOL0     H  952   2.313   1.870   6.232  1.0433  0.6230  0.6723
  732MOL0     H  953   2.082   1.854   6.230  0.8080 -1.3678 -0.2641
  732MOL0     H  954   2.109   1.986   6.354 -1.5345  2.2998 -1.0994
  732MOL0     H  955   2.055   2.151   6.181  0.2860 -0.6898  2.3205
  732MOL0     H  956   2.029   2.033   6.057 -2.1262  0.7782  0.2006
  732MOL0     H  957   1.857   2.045   6.322 -1.4236 -0.2222  0.1646
  732MOL0     H  958   1.852   1.913   6.196 -0.5218 -0.0990 -0.7016
  732MOL0     H  959   1.731   2.050   6.060 -1.1397 -2.3761  1.6792
  732MOL0     H  960   1.660   2.101   6.212 -0.2185  0.6320 -0.0155
  732MOL0     H  961   1.701   2.298   6.075  0.9855  2.4387  2.0986
  732MOL0     H  962   1.872   2.261   6.053 -0.7246  0.6612 -2.0858
  732MOL0     H  963   1.883   2.286   6.314  0.1588 -0.9998 -1.1288
  732MOL0     H  964   1.847   2.418   6.209 -0.2041  1.4597  2.9453
  732MOL0     H  965   1.709   2.219   6.521  0.9171  0.0187  0.9361
  732MOL0     H  966   1.481   2.241   6.653  3.9270  0.0216  2.4652
  732MOL0     H  967   1.380   2.392   6.646 -0.7138 -0.5239 -0.8247
  732MOL0     H  968   1.513   2.394   6.853  0.2093 -0.3782  0.9920
  732MOL0     H  969   1.659   2.355   6.762  1.4775  2.6575  5.3970
  732MOL0     H  970   1.664   2.578   6.657  0.9904 -0.1358  0.9919
  732MOL0     H  971   1.496   2.608   6.712  0.8465  0.1196 -0.2376
  732MOL0     H  972   1.675   2.731   6.829  1.2103 -1.1670 -0.4705
  732MOL0     H  973   1.566   2.642   6.937  0.1111  0.3361  0.4029
  732MOL0     H  974   1.874   2.719   6.709  0.2264  0.2433  1.1785
  732MOL0     H  975   2.196   2.720   6.599 -1.6281 -1.6229 -1.8777
  732MOL0     H  976   2.142   2.880   6.670  2.3082 -1.6301  0.0437
  732MOL0     H  977   2.038   2.779   6.568  0.8418 -2.0836 -0.8539
  732MOL0     H  978   2.568   2.745   7.018  0.8427  0.6106 -2.4738
  732MOL0     H  979   2.808   2.705   6.999  1.6198  0.4749 -0.6657
  732MOL0     H  980   2.928   2.327   6.858  1.5115 -2.0619 -1.1517
  732MOL0     H  981   3.033   2.402   6.730 -1.1733  1.7263  0.0174
  732MOL0     H  982   3.092   2.439   7.024  1.1422  2.2761 -0.4340
  732MOL0     H  983   3.158   2.315   6.916 -1.7058 -0.1692  0.1841
  732MOL0     H  984   3.195   2.618   6.865  0.0671 -0.0481 -3.5616
  732MOL0     H  985   3.248   2.486   6.756 -0.0381 -0.5752  0.3332
  732MOL0     H  986   3.385   2.399   6.937 -1.5201 -0.7907 -1.6861
  732MOL0     H  987   3.340   2.545   7.035  1.4549  0.4205  0.2412
  732MOL0     H  988   3.488   2.542   6.776 -0.6704 -0.1425  0.3275
  732MOL0     H  989   3.440   2.693   6.858  0.8148  0.5121  3.9184
  732MOL0     H  990   3.599   2.472   7.009  1.4974  0.6023  3.1660
  732MOL0     H  991   3.582   2.631   7.072  2.3131 -1.4567  2.2457
  732MOL0     H  992   3.694   2.741   6.868  1.2143 -0.6268 -0.2882
  732MOL0     H  993   3.701   2.579   6.804  0.0620  0.4445 -1.8205
  732MOL0     H  994   3.838   2.516   7.024 -1.7176  0.5821  1.9172
  732MOL0     H  995   3.857   2.684   7.050 -1.7394  1.2220 -0.1471
  732MOL0     H  996   2.748   2.381   6.711 -2.0735 -0.1374 -0.7889
  732MOL0     H  997   2.507   2.413   6.741  2.8728 -3.5988  0.5913
  732MOL0     H  998   2.165   2.552   7.063 -1.2209 -2.2431  0.2890
  732MOL0     H  999   1.948   2.488   7.063 -0.7074 -0.1959 -0.3002
  732MOL0     H 1000   2.550   2.203   6.403  3.0108  0.6380 -1.3514
  732MOL0     H 1001   2.782   2.208   6.502  0.8265  0.8601 -1.8902
  732MOL0     H 1002   3.075   1.950   6.908 -0.7234  1.8248  1.5393
  732MOL0     H 1003   3.313   1.953   6.944 -0.3621 -0.8915 -0.2023
  732MOL0     H 1004   3.584   2.212   6.936 -0.7507  0.5923 -0.1712
  732MOL0     H 1005   3.442   2.142   6.996  0.5079  0.5910  0.9081
  732MOL0     H 1006   3.566   1.903   6.941  0.3906 -0.6654 -0.0796
  732MOL0     H 1007   3.644   2.010   7.064  0.7024 -1.9127  0.4095
  732MOL0     H 1008   3.775   1.893   6.895  0.1499 -0.1669 -0.6973
  732MOL0     H 1009   3.712   2.003   6.782 -0.4207  1.0733  0.0107
  732MOL0     H 1010   3.834   2.125   7.034  1.0874 -0.5899  0.9963
  732MOL0     H 1011   3.815   2.197   6.874 -0.1766 -1.7323 -2.1132
  732MOL0     H 1012   4.182   2.000   6.821 -0.1054 -0.6712 -1.6176
  732MOL0     H 1013   3.361   2.225   6.623 -0.1349 -1.3990 -0.5575
  732MOL0     H 1014   3.133   2.149   6.448  1.3676 -1.5687  0.2090
  732MOL0     H 1015   3.002   2.243   6.533  0.4651  0.7429  0.4981
  732MOL0     H 1016   3.157   2.316   6.493 -0.1545  0.2756  1.8831
  733MOL0     O 1017   9.987   5.572   8.874 -0.4659  0.5853  0.2027
  733MOL0     C 1018   9.891   5.631   8.922  0.5251 -0.7359 -0.1042
  733MOL0     O 1019   9.899   5.740   8.989 -0.3826  0.8458 -0.0101
  733MOL0     C 1020  10.017   5.811   8.976  0.5048 -0.3245  0.0369
  733MOL0     C 1021  10.106   5.813   9.075 -0.3418  0.4160  1.1289
  733MOL0     C 1022  10.219   5.891   9.061 -0.3161  0.7982  0.3887
  733MOL0     C 1023  10.250   5.965   8.943  0.2775 -0.3049 -0.4581
  733MOL0     O 1024  10.373   6.017   8.936  0.0690  0.0841 -0.2553
  733MOL0     C 1025  10.403   6.100   8.824 -0.3483  0.3176  0.0193
  733MOL0     C 1026  10.545   6.148   8.826 -0.4415  0.5386 -0.5207
  733MOL0     C 1027  10.564   6.231   8.705 -0.4740  0.5898  0.0408
  733MOL0     C 1028  10.602   6.160   8.570 -0.0898 -0.1349 -0.2355
  733MOL0     C 1029  10.754   6.132   8.552 -0.4040 -0.3639 -0.0048
  733MOL0     C 1030  10.822   6.268   8.513  0.1420  0.0306 -0.6863
  733MOL0     C 1031  10.982   6.270   8.500  0.5291 -0.4251  0.1510
  733MOL0     C 1032  11.025   6.413   8.480 -0.2379  0.2929  0.4890
  733MOL0     N 1033  11.017   6.468   8.344  0.1945  0.1484  0.7195
  733MOL0     C 1034  11.123   6.491   8.257  0.0689 -0.5150  0.4725
  733MOL0     C 1035  11.065   6.541   8.147 -0.1648 -0.0944 -0.7804
  733MOL0     C 1036  11.122   6.550   8.011 -0.5120 -0.2719  0.2347
  733MOL0     C 1037  11.108   6.688   7.945 -0.8245  0.7146 -0.1357
  733MOL0     C 1038  10.972   6.698   7.866 -0.9199 -0.2328 -0.7126
  733MOL0     C 1039  10.923   6.843   7.857 -0.7608  0.5254 -0.5508
  733MOL0     O 1040  10.813   6.850   7.766 -0.3302 -0.8461  0.2582
  733MOL0     C 1041  10.686   6.860   7.824 -0.3139 -1.0376  0.4700
  733MOL0     C 1042  10.619   6.979   7.844 -0.4722 -0.1165 -0.4255
  733MOL0     C 1043  10.487   6.974   7.894  0.8954 -0.3536  0.2773
  733MOL0     C 1044  10.410   7.105   7.903 -0.0302  0.0028  0.2828
  733MOL0     C 1045  10.424   6.846   7.925  1.1656 -0.4860  0.2369
  733MOL0     C 1046  10.283   6.829   7.963  0.4110  0.0857  0.1861
  733MOL0     O 1047  10.235   6.699   7.948 -0.2834 -0.2965  0.2217
  733MOL0     C 1048  10.108   6.682   7.990  0.0564  0.1711  1.2495
  733MOL0     C 1049  10.005   6.674   7.897  0.1499  0.1879 -0.1890
  733MOL0     C 1050   9.876   6.656   7.935  0.0143  0.8231  0.3783
  733MOL0     C 1051   9.843   6.636   8.076 -0.2742 -0.9158 -0.3722
  733MOL0     O 1052   9.716   6.626   8.125 -0.5875  0.4453  0.5603
  733MOL0     C 1053   9.601   6.657   8.044 -0.0929  0.3102 -0.1796
  733MOL0     C 1054   9.476   6.611   8.123  0.2538 -0.0406  0.1110
  733MOL0     C 1055   9.351   6.684   8.075 -0.3095  0.7892 -0.5821
  733MOL0     C 1056   9.212   6.624   8.122  0.5585 -0.5864 -0.2108
  733MOL0     C 1057   9.088   6.693   8.061  0.0807 -0.5476  0.1322
  733MOL0     C 1058   9.051   6.654   7.916 -0.3765  1.1901  0.6343
  733MOL0     C 1059   8.936   6.736   7.870  0.8164  0.3357 -0.5887
  733MOL0     C 1060   8.894   6.691   7.730 -0.5747 -0.0737  0.4221
  733MOL0    Cl 1061   8.793   6.540   7.742 -0.5946 -0.4538  0.0571
  733MOL0     C 1062   9.948   6.647   8.174  0.1640 -0.5163  0.2396
  733MOL0     C 1063  10.078   6.666   8.126 -0.2834  0.0490 -0.3253
  733MOL0     O 1064  10.228   6.914   8.031 -0.2993 -0.0478  0.6074
  733MOL0     C 1065  10.505   6.735   7.911  0.3796  0.7389  0.3062
  733MOL0     C 1066  10.621   6.736   7.845  0.7257 -0.0851  0.3117
  733MOL0     N 1067  10.929   6.573   8.174 -0.3383 -0.0987  1.4618
  733MOL0     N 1068  10.906   6.512   8.284 -0.0205 -0.4967 -0.8007
  733MOL0     C 1069  10.151   5.974   8.847 -0.8164  0.4639 -0.0964
  733MOL0     C 1070  10.037   5.896   8.862 -0.1006  0.3128 -0.3384
  733MOL0     C 1071   9.760   5.563   8.936  0.4437  0.3518 -0.0804
  733MOL0     C 1072   9.667   5.610   9.025 -0.2676  0.7324 -1.2453
  733MOL0     C 1073   9.541   5.553   9.027 -0.2064  0.3689 -0.3832
  733MOL0     C 1074   9.504   5.442   8.947  0.2544  0.3981  0.1095
  733MOL0     O 1075   9.392   5.361   8.949 -0.2192 -0.2443 -0.5032
  733MOL0     C 1076   9.279   5.412   9.030  0.2915 -0.8969  0.1121
  733MOL0     C 1077   9.157   5.345   8.989  0.1879 -0.7707  0.4402
  733MOL0     C 1078   9.056   5.333   9.105  0.0864 -0.4585  0.3049
  733MOL0     C 1079   8.992   5.463   9.142  0.2396 -0.8017  0.1686
  733MOL0     C 1080   8.900   5.442   9.259 -0.5567  0.6353 -0.0008
  733MOL0     C 1081   8.828   5.418   9.349  0.8918  0.4418  0.5023
  733MOL0     C 1082   9.596   5.406   8.852 -0.1376  0.0671 -0.0287
  733MOL0     C 1083   9.727   5.456   8.845  0.8215  0.2600 -0.4965
  733MOL0     C 1084   9.808   5.399   8.736  0.3509  0.1780 -0.2265
  733MOL0     H 1085  10.090   5.750   9.162  1.8114  0.3446  1.5254
  733MOL0     H 1086  10.301   5.889   9.131  0.4315  1.6435 -0.4370
  733MOL0     H 1087  10.333   6.184   8.821  0.1711  0.8076 -4.3955
  733MOL0     H 1088  10.390   6.038   8.735 -1.8148 -0.9217  1.0636
  733MOL0     H 1089  10.568   6.227   8.899  2.2005  1.3793 -2.0941
  733MOL0     H 1090  10.618   6.067   8.833  0.1755  1.1894  1.6607
  733MOL0     H 1091  10.485   6.305   8.690 -0.2621  0.6445 -0.8199
  733MOL0     H 1092  10.646   6.294   8.739 -0.0433 -0.7136  1.5970
  733MOL0     H 1093  10.551   6.064   8.556  0.8219 -0.1680 -4.7022
  733MOL0     H 1094  10.566   6.228   8.493 -1.0271  1.0575  1.1925
  733MOL0     H 1095  10.761   6.063   8.468 -1.9144 -2.1616  1.2766
  733MOL0     H 1096  10.797   6.085   8.641 -0.0871  0.2667  0.1822
  733MOL0     H 1097  10.768   6.298   8.423 -0.8055 -0.2452 -0.2157
  733MOL0     H 1098  10.799   6.338   8.593 -0.7385  2.3902 -2.8778
  733MOL0     H 1099  11.014   6.206   8.417  1.1870 -0.6361  0.5564
  733MOL0     H 1100  11.031   6.230   8.589 -2.4283 -0.4768  1.8937
  733MOL0     H 1101  10.954   6.474   8.538 -0.2714  1.4078 -0.7049
  733MOL0     H 1102  11.124   6.438   8.518  0.3603  1.0446 -1.4668
  733MOL0     H 1103  11.224   6.454   8.251  1.4679  3.1045 -1.2848
  733MOL0     H 1104  11.073   6.483   7.940  3.6831 -1.3393 -1.9791
  733MOL0     H 1105  11.222   6.507   8.007 -0.4667 -0.0941 -2.2844
  733MOL0     H 1106  11.119   6.767   8.020  0.5807 -1.2961  1.9087
  733MOL0     H 1107  11.188   6.693   7.870  0.0782 -1.1792  0.6296
  733MOL0     H 1108  10.990   6.659   7.766 -0.4814  0.0551 -0.7472
  733MOL0     H 1109  10.891   6.645   7.918  0.0364  1.7845  3.2286
  733MOL0     H 1110  10.894   6.875   7.957  1.8056 -2.8176  1.4641
  733MOL0     H 1111  11.008   6.899   7.816 -0.6715  2.5069  2.1106
  733MOL0     H 1112  10.669   7.074   7.828 -0.9579  0.1768 -0.2373
  733MOL0     H 1113  10.390   7.128   8.008  0.4818 -1.0590  0.6253
  733MOL0     H 1114  10.310   7.096   7.860  1.0406 -1.4148 -2.0875
  733MOL0     H 1115  10.464   7.188   7.855 -1.4868 -0.4420 -2.2869
  733MOL0     H 1116  10.046   6.700   7.800 -0.5919  0.2107 -0.5034
  733MOL0     H 1117   9.790   6.667   7.870 -0.7265 -3.6088  0.2809
  733MOL0     H 1118   9.604   6.763   8.014 -1.0767 -0.4592 -3.4199
  733MOL0     H 1119   9.596   6.607   7.947 -2.7077  1.2818 -0.6275
  733MOL0     H 1120   9.459   6.503   8.116  1.4624 -0.1718 -1.1769
  733MOL0     H 1121   9.493   6.631   8.229 -0.1569 -1.1734  0.4010
  733MOL0     H 1122   9.344   6.679   7.966 -0.2027 -0.0568 -0.5538
  733MOL0     H 1123   9.356   6.788   8.108 -1.1904  0.8622 -0.6627
  733MOL0     H 1124   9.215   6.645   8.229  0.6098  0.7396 -0.4547
  733MOL0     H 1125   9.206   6.515   8.116  0.5899 -0.5089 -2.3451
  733MOL0     H 1126   9.004   6.674   8.129  0.4457  1.1096  1.0955
  733MOL0     H 1127   9.108   6.800   8.063 -0.9369 -0.3190 -0.7510
  733MOL0     H 1128   9.030   6.547   7.910  3.4974  0.2640  0.6926
  733MOL0     H 1129   9.139   6.666   7.852 -0.5399 -3.1244 -0.7448
  733MOL0     H 1130   8.985   6.834   7.864  0.1382  0.5918 -2.2680
  733MOL0     H 1131   8.848   6.738   7.935  1.8540  2.4343  0.8633
  733MOL0     H 1132   8.980   6.685   7.663 -0.3102 -1.3426  0.8486
  733MOL0     H 1133   8.831   6.772   7.692 -0.8270  0.2344  1.4886
  733MOL0     H 1134   9.925   6.631   8.279  0.1255  0.1355  0.3391
  733MOL0     H 1135  10.148   6.671   8.208 -0.7691  0.6138  0.0652
  733MOL0     H 1136  10.461   6.636   7.921 -2.5021  1.9303  0.3420
  733MOL0     H 1137  10.677   6.644   7.834  1.3394 -0.5543  5.2946
  733MOL0     H 1138  10.167   6.029   8.755  1.2742  1.5877  0.8676
  733MOL0     H 1139   9.956   5.908   8.791  0.3566  1.3324 -0.7066
  733MOL0     H 1140   9.684   5.682   9.104 -0.8043 -1.2321  0.7603
  733MOL0     H 1141   9.464   5.599   9.088  0.7013  3.0298 -1.1234
  733MOL0     H 1142   9.307   5.402   9.135  2.5619 -1.1905 -0.4635
  733MOL0     H 1143   9.263   5.518   9.012 -2.0407 -1.1954  0.1004
  733MOL0     H 1144   9.177   5.243   8.954 -0.3598 -0.1032 -2.0595
  733MOL0     H 1145   9.114   5.409   8.911 -0.1321  1.3212  2.2440
  733MOL0     H 1146   8.975   5.262   9.083  0.8588 -1.6474  1.2070
  733MOL0     H 1147   9.108   5.293   9.192 -3.3536  0.3475  2.9200
  733MOL0     H 1148   8.943   5.512   9.057  1.1253  0.5756  0.4122
  733MOL0     H 1149   9.066   5.537   9.174 -0.8972  0.5275 -0.2169
  733MOL0     H 1150   8.758   5.379   9.420 -0.4225  0.3140 -0.8118
  733MOL0     H 1151   9.566   5.330   8.780 -1.4291  0.6388 -0.1372
  733MOL0     H 1152   9.856   5.473   8.671  0.7015  0.9097  0.8326
  733MOL0     H 1153   9.888   5.340   8.782  0.7598 -0.6331 -1.8883
  733MOL0     H 1154   9.754   5.335   8.666  1.3407 -0.1401 -0.7223
  734MOL0     O 1155   2.844   6.393   9.452 -0.0260  0.1335  0.0109
  734MOL0     C 1156   2.778   6.317   9.378  0.1248 -0.6546  0.4370
  734MOL0     O 1157   2.817   6.280   9.254 -0.5465  0.2141 -1.2111
  734MOL0     C 1158   2.945   6.335   9.223 -0.3311  0.2032  0.2019
  734MOL0     C 1159   2.970   6.449   9.144  0.3546 -0.1311 -0.1323
  734MOL0     C 1160   3.100   6.480   9.108 -0.1617 -0.2771  0.2874
  734MOL0     C 1161   3.215   6.412   9.152  0.4847 -0.0634 -0.6594
  734MOL0     O 1162   3.338   6.448   9.112  0.7297  0.1219  0.4696
  734MOL0     C 1163   3.417   6.347   9.062  0.1649 -0.6078 -0.3516
  734MOL0     C 1164   3.530   6.405   8.975  0.1910  0.5147  0.6531
  734MOL0     C 1165   3.639   6.303   8.964  0.1841 -0.6796  0.2936
  734MOL0     C 1166   3.740   6.302   9.074 -0.2625  0.2518  0.1012
  734MOL0     C 1167   3.855   6.198   9.057  0.0520  0.9629 -0.2573
  734MOL0     C 1168   3.959   6.198   8.947 -0.2075 -0.6440  0.0680
  734MOL0     C 1169   4.031   6.331   8.938 -1.2166 -0.1852  0.0544
  734MOL0     C 1170   4.147   6.334   8.833 -0.0876  0.2252  1.1340
  734MOL0     N 1171   4.261   6.235   8.861  0.2510  0.1955  0.4325
  734MOL0     C 1172   4.317   6.207   8.979 -0.6911 -0.0407  0.1498
  734MOL0     C 1173   4.446   6.153   8.946  0.7148  0.1604  0.0150
  734MOL0     C 1174   4.552   6.111   9.052  0.0665  0.5670 -0.1123
  734MOL0     C 1175   4.650   6.019   8.985 -0.6445 -0.3633 -0.8470
  734MOL0     C 1176   4.747   5.964   9.091 -1.0058  0.1998 -1.3560
  734MOL0     C 1177   4.856   5.872   9.035 -0.0858 -0.3431  0.3427
  734MOL0     O 1178   4.970   5.879   9.122 -0.1386 -0.7669 -0.2413
  734MOL0     C 1179   5.095   5.833   9.082 -0.1430 -0.0773  0.7279
  734MOL0     C 1180   5.203   5.852   9.160  0.1179 -0.1448 -1.0787
  734MOL0     C 1181   5.328   5.798   9.129  0.3156 -0.0475 -0.0250
  734MOL0     C 1182   5.432   5.821   9.227 -0.9208 -0.0075 -0.2031
  734MOL0     C 1183   5.354   5.737   9.000 -0.1574 -0.2399  0.5566
  734MOL0     C 1184   5.484   5.688   8.943  0.1522  0.5371 -0.2171
  734MOL0     O 1185   5.591   5.708   9.019 -0.1726  0.2008  0.2573
  734MOL0     C 1186   5.716   5.649   9.001  0.8316 -0.5778  0.1975
  734MOL0     C 1187   5.828   5.729   8.974 -0.3964 -0.0145  0.6042
  734MOL0     C 1188   5.950   5.675   8.956 -0.1243  0.3510 -0.7337
  734MOL0     C 1189   5.963   5.533   8.986 -0.8211 -0.3255 -0.1335
  734MOL0     O 1190   6.081   5.475   8.947  0.0281 -0.1421 -0.5043
  734MOL0     C 1191   6.144   5.354   9.002 -0.7080  0.1818 -0.4732
  734MOL0     C 1192   6.285   5.397   9.064  0.7772 -0.2066  0.4440
  734MOL0     C 1193   6.338   5.314   9.180  0.5521 -0.4531  0.8042
  734MOL0     C 1194   6.474   5.366   9.235  0.8241  0.4193 -0.6646
  734MOL0     C 1195   6.556   5.281   9.329 -0.4102 -0.6748 -0.6564
  734MOL0     C 1196   6.622   5.161   9.248  1.4626 -0.4698  0.0397
  734MOL0     C 1197   6.706   5.094   9.361  0.4164  0.3779 -0.6396
  734MOL0     C 1198   6.824   5.005   9.312 -0.1164  0.6168 -0.6243
  734MOL0    Cl 1199   6.936   4.933   9.445 -0.1153 -0.6139  0.4337
  734MOL0     C 1200   5.851   5.453   9.014  0.3245 -0.2853 -0.1060
  734MOL0     C 1201   5.727   5.509   9.025 -0.4859  0.6241 -0.6767
  734MOL0     O 1202   5.480   5.612   8.848  0.3911  0.0546 -0.3190
  734MOL0     C 1203   5.239   5.735   8.913 -0.7137 -0.6286 -0.3157
  734MOL0     C 1204   5.117   5.780   8.955 -0.0336  0.0566 -0.5640
  734MOL0     N 1205   4.449   6.138   8.812  0.0296  0.1926 -0.5633
  734MOL0     N 1206   4.345   6.179   8.766  0.7500 -0.7967  0.0424
  734MOL0     C 1207   3.183   6.290   9.224  0.0901 -0.6038  0.5018
  734MOL0     C 1208   3.056   6.254   9.260  0.2252  0.1114 -0.2894
  734MOL0     C 1209   2.651   6.269   9.426  0.1236  0.0442  0.1317
  734MOL0     C 1210   2.591   6.162   9.356 -0.4610 -0.6179 -0.2076
  734MOL0     C 1211   2.459   6.121   9.384 -0.6634 -0.6221  0.7910
  734MOL0     C 1212   2.386   6.183   9.485  0.1818 -0.4675 -0.1595
  734MOL0     O 1213   2.256   6.142   9.510  0.0406  0.2105  0.4043
  734MOL0     C 1214   2.172   6.213   9.590  0.0098 -0.6058 -0.0089
  734MOL0     C 1215   2.048   6.124   9.616 -0.2551 -0.5262 -1.1491
  734MOL0     C 1216   1.962   6.086   9.486 -0.3644 -0.1567  0.5089
  734MOL0     C 1217   2.015   5.958   9.423  0.8919 -0.4243  0.6826
  734MOL0     C 1218   1.971   5.844   9.507  0.0478  0.0392 -0.6519
  734MOL0     C 1219   1.951   5.750   9.579 -0.5640  0.6016 -0.0996
  734MOL0     C 1220   2.443   6.289   9.549 -0.4582 -0.1814  0.2827
  734MOL0     C 1221   2.578   6.337   9.527  0.8688 -0.0797  0.1806
  734MOL0     C 1222   2.624   6.453   9.617 -0.3562  0.0942  0.0578
  734MOL0     H 1223   2.878   6.500   9.116 -1.8189 -1.8156  3.2070
  734MOL0     H 1224   3.103   6.565   9.041 -0.7930 -0.2666  0.2642
  734MOL0     H 1225   3.359   6.271   9.007 -1.7872 -1.0808  2.1879
  734MOL0     H 1226   3.464   6.294   9.145  2.5448  1.6227 -0.1639
  734MOL0     H 1227   3.484   6.455   8.890  0.6086  1.3589  0.9132
  734MOL0     H 1228   3.584   6.485   9.026 -0.5017  2.4321 -1.4743
  734MOL0     H 1229   3.582   6.210   8.952  0.0477 -0.4353 -1.2219
  734MOL0     H 1230   3.691   6.307   8.867 -2.1082 -0.0781 -0.9898
  734MOL0     H 1231   3.790   6.398   9.087  2.0472 -0.7719 -0.6207
  734MOL0     H 1232   3.686   6.276   9.165  2.6763  0.3925  2.0270
  734MOL0     H 1233   3.808   6.099   9.053  0.4009  0.7617  0.4624
  734MOL0     H 1234   3.901   6.208   9.156 -2.4152 -0.0373  1.0976
  734MOL0     H 1235   4.034   6.123   8.974 -0.3743 -0.5807  0.7192
  734MOL0     H 1236   3.905   6.166   8.858  1.9873 -0.4292 -1.4289
  734MOL0     H 1237   4.081   6.361   9.031  0.4034  0.4069 -0.9778
  734MOL0     H 1238   3.960   6.410   8.912  3.0401  3.6427 -1.2914
  734MOL0     H 1239   4.106   6.318   8.732 -0.0997  0.3972  1.1114
  734MOL0     H 1240   4.188   6.436   8.836  1.1080 -0.1058 -1.4228
  734MOL0     H 1241   4.288   6.242   9.078 -1.5512 -1.3263  0.3701
  734MOL0     H 1242   4.499   6.056   9.131  1.0005  0.2127  0.2860
  734MOL0     H 1243   4.610   6.194   9.092 -0.1880 -0.8279  3.5711
  734MOL0     H 1244   4.595   5.938   8.937 -0.8682  0.2425 -1.6433
  734MOL0     H 1245   4.706   6.064   8.902  0.1040  2.0538  0.8539
  734MOL0     H 1246   4.783   6.050   9.148 -0.0685 -2.2545  2.1118
  734MOL0     H 1247   4.695   5.903   9.166 -0.0728 -2.2517 -2.6043
  734MOL0     H 1248   4.815   5.772   9.019 -1.6359  0.4398 -0.7675
  734MOL0     H 1249   4.872   5.911   8.934  1.1194 -0.0554  0.6295
  734MOL0     H 1250   5.192   5.903   9.255  2.6016  0.0009 -0.8057
  734MOL0     H 1251   5.473   5.727   9.265  0.6245  0.7283  0.0303
  734MOL0     H 1252   5.402   5.874   9.317  2.1822 -1.8883  2.1839
  734MOL0     H 1253   5.517   5.873   9.182  3.0090 -4.1255  1.5876
  734MOL0     H 1254   5.822   5.837   8.973 -0.3872 -0.0016  1.1754
  734MOL0     H 1255   6.050   5.712   8.936 -0.1094  1.1299  0.6716
  734MOL0     H 1256   6.087   5.316   9.087  0.4791 -1.5325 -0.3845
  734MOL0     H 1257   6.153   5.271   8.932 -1.4436 -0.7110  0.4631
  734MOL0     H 1258   6.360   5.376   8.987 -0.7665  2.1805 -1.8915
  734MOL0     H 1259   6.288   5.504   9.086 -0.7084 -0.1354  0.3843
  734MOL0     H 1260   6.354   5.214   9.139 -0.3263  0.3195 -1.5803
  734MOL0     H 1261   6.254   5.314   9.250 -0.7636 -2.2373 -0.6833
  734MOL0     H 1262   6.452   5.456   9.292  3.1533  0.9985 -0.6120
  734MOL0     H 1263   6.542   5.386   9.152  4.3367 -1.3372  1.5411
  734MOL0     H 1264   6.638   5.343   9.365 -0.5897 -0.4498 -0.6307
  734MOL0     H 1265   6.502   5.251   9.419  0.9318 -0.8238  0.1311
  734MOL0     H 1266   6.689   5.194   9.169 -0.3512  2.5139 -0.4297
  734MOL0     H 1267   6.541   5.099   9.208 -0.5193  1.5258  0.7418
  734MOL0     H 1268   6.641   5.020   9.409  1.7039 -1.2051 -1.2250
  734MOL0     H 1269   6.738   5.168   9.435 -0.5291 -0.1164  0.2894
  734MOL0     H 1270   6.901   5.075   9.278  0.2919  1.7048  2.1920
  734MOL0     H 1271   6.796   4.942   9.228  0.0801 -0.8626  0.3761
  734MOL0     H 1272   5.857   5.345   9.028  1.2381 -0.0917  1.1124
  734MOL0     H 1273   5.643   5.448   9.056 -0.8201  1.7454  0.7365
  734MOL0     H 1274   5.251   5.705   8.809 -0.2314  1.1211 -0.8073
  734MOL0     H 1275   5.038   5.775   8.881  2.3474  2.5515 -3.5313
  734MOL0     H 1276   3.271   6.234   9.256  1.6374  1.6998  0.5530
  734MOL0     H 1277   3.042   6.155   9.303  0.3507  0.2266  0.0213
  734MOL0     H 1278   2.639   6.122   9.267  1.5853  4.2872 -1.6889
  734MOL0     H 1279   2.408   6.037   9.337  0.2834 -2.0006  2.1124
  734MOL0     H 1280   2.211   6.236   9.689 -1.5182  0.5144  0.3792
  734MOL0     H 1281   2.140   6.306   9.542  1.2468 -0.0153  0.2656
  734MOL0     H 1282   1.973   6.180   9.673  0.8954  0.4130 -0.5153
  734MOL0     H 1283   2.092   6.038   9.667  1.2823 -1.2920 -3.5953
  734MOL0     H 1284   1.858   6.070   9.514 -0.2955  2.8612  2.9970
  734MOL0     H 1285   1.970   6.175   9.424 -1.4307  0.7916  1.6869
  734MOL0     H 1286   2.124   5.972   9.419  0.5457  4.3382  1.5289
  734MOL0     H 1287   1.971   5.934   9.326 -0.0129 -1.8365  1.4108
  734MOL0     H 1288   1.940   5.661   9.638  1.1612  0.3378 -0.1056
  734MOL0     H 1289   2.383   6.335   9.627 -2.7556 -2.2065 -0.1786
  734MOL0     H 1290   2.645   6.544   9.560  0.2283 -0.5017 -0.7052
  734MOL0     H 1291   2.551   6.452   9.698 -1.0996 -0.9836 -0.5998
  734MOL0     H 1292   2.717   6.414   9.661 -2.6945 -3.5408  2.3068
  735MOL0     O 1293   7.634   6.905   8.648  0.1448  0.3703 -0.4857
  735MOL0     C 1294   7.560   6.919   8.551  0.0965  0.3199  0.0840
  735MOL0     O 1295   7.457   7.007   8.551  0.3831 -0.1472  0.1052
  735MOL0     C 1296   7.414   7.043   8.677 -0.0576  0.2791  0.6547
  735MOL0     C 1297   7.302   6.976   8.735  0.2370 -0.3139  0.3580
  735MOL0     C 1298   7.255   7.018   8.861 -0.0661 -0.6060  0.1038
  735MOL0     C 1299   7.317   7.119   8.934 -0.0635  0.5151  0.4293
  735MOL0     O 1300   7.272   7.150   9.059  0.0594 -0.6770  0.4526
  735MOL0     C 1301   7.147   7.212   9.063  0.2175  0.8962 -0.3270
  735MOL0     C 1302   7.057   7.128   9.162 -1.1205  0.5358  0.5969
  735MOL0     C 1303   6.918   7.186   9.171  0.3097  0.2011  0.3540
  735MOL0     C 1304   6.815   7.109   9.251 -0.0160 -0.2392  0.2011
  735MOL0     C 1305   6.755   7.002   9.166 -0.3115 -0.7602  0.2739
  735MOL0     C 1306   6.647   6.929   9.223  0.8623  0.0115 -0.6909
  735MOL0     C 1307   6.600   6.810   9.138 -0.0413 -0.4742  0.2629
  735MOL0     C 1308   6.481   6.727   9.199 -0.3811 -1.0604 -0.9789
  735MOL0     N 1309   6.481   6.597   9.138 -0.2673  0.6149  0.7037
  735MOL0     C 1310   6.562   6.487   9.153  0.0200 -0.3830  0.3165
  735MOL0     C 1311   6.501   6.378   9.096 -0.2885  0.2143  1.5002
  735MOL0     C 1312   6.541   6.236   9.079 -0.1937 -0.1254 -0.2408
  735MOL0     C 1313   6.633   6.174   9.189 -0.2490  0.6613  0.2253
  735MOL0     C 1314   6.701   6.049   9.136 -0.3483  0.5063 -0.2333
  735MOL0     C 1315   6.782   5.968   9.229 -0.9120  0.1870 -0.3849
  735MOL0     O 1316   6.897   6.044   9.276  0.1812 -0.3273  0.4711
  735MOL0     C 1317   6.972   5.982   9.375 -0.0589 -0.6531 -0.4095
  735MOL0     C 1318   7.056   6.057   9.462  0.0984 -0.2430  0.5076
  735MOL0     C 1319   7.123   6.005   9.571  0.1798  0.7790 -0.0470
  735MOL0     C 1320   7.205   6.094   9.658  0.5118 -0.4033 -1.0592
  735MOL0     C 1321   7.128   5.860   9.582 -0.0510  0.2717 -0.4821
  735MOL0     C 1322   7.195   5.782   9.691  0.4829  0.0117  0.1793
  735MOL0     O 1323   7.153   5.654   9.699  0.2470  0.1230  0.1631
  735MOL0     C 1324   7.172   5.590   9.815 -0.4699  0.1419 -0.1927
  735MOL0     C 1325   7.064   5.582   9.903  0.1562  0.2723 -0.8076
  735MOL0     C 1326   7.077   5.511  10.021 -0.1923 -0.2812  0.1935
  735MOL0     C 1327   7.199   5.458  10.066 -0.2297 -0.1313  0.6852
  735MOL0     O 1328   7.220   5.381  10.179 -0.1685  0.3474 -0.0595
  735MOL0     C 1329   7.125   5.396  10.289 -0.0883  0.3963  0.1068
  735MOL0     C 1330   7.169   5.319  10.411 -0.2898  0.0195 -0.0947
  735MOL0     C 1331   7.147   5.166  10.405 -0.1367 -0.4194 -0.0665
  735MOL0     C 1332   7.132   5.103  10.551  0.0392  0.1457 -0.2742
  735MOL0     C 1333   7.129   4.949  10.539  0.3237 -0.6100 -0.1359
  735MOL0     C 1334   7.138   4.887  10.677  0.0234  0.0499 -0.0584
  735MOL0     C 1335   7.111   4.726  10.667 -0.1413 -0.1569  0.0889
  735MOL0     C 1336   7.224   4.651  10.600 -0.7615  0.2553  0.2074
  735MOL0    Cl 1337   7.379   4.664  10.696 -0.0675 -0.1544 -0.2253
  735MOL0     C 1338   7.302   5.457   9.973  0.3159  0.1710  0.1069
  735MOL0     C 1339   7.292   5.523   9.847  1.1038  0.1789  0.6997
  735MOL0     O 1340   7.280   5.829   9.764  0.2295 -0.4416  0.4439
  735MOL0     C 1341   7.054   5.786   9.489  0.7991  0.7648  0.3781
  735MOL0     C 1342   6.973   5.845   9.397 -0.4486  0.2661 -0.3734
  735MOL0     N 1343   6.389   6.439   9.037 -0.6829 -0.0496  0.0918
  735MOL0     N 1344   6.378   6.565   9.059 -0.3076 -0.3867  0.2192
  735MOL0     C 1345   7.431   7.178   8.871  0.5721 -0.1328  0.6971
  735MOL0     C 1346   7.475   7.143   8.742 -0.0905 -0.1782 -0.6715
  735MOL0     C 1347   7.570   6.826   8.442 -0.0202 -0.1848  0.4394
  735MOL0     C 1348   7.465   6.817   8.348  1.0592 -0.4884 -0.6968
  735MOL0     C 1349   7.459   6.723   8.250  0.5619  0.2219  0.3731
  735MOL0     C 1350   7.571   6.642   8.232 -0.2224 -0.1320  0.3437
  735MOL0     O 1351   7.578   6.552   8.131 -0.1680  0.1162  0.3743
  735MOL0     C 1352   7.463   6.503   8.061  0.6124  0.0959  0.5102
  735MOL0     C 1353   7.435   6.575   7.933 -0.2722  0.1214  0.9490
  735MOL0     C 1354   7.567   6.577   7.846 -0.0190 -0.5497 -0.6962
  735MOL0     C 1355   7.567   6.692   7.749  0.5098  0.3028  0.1917
  735MOL0     C 1356   7.624   6.659   7.616  0.5342  0.2630  0.2219
  735MOL0     C 1357   7.680   6.614   7.518 -0.3336  0.0722  0.6746
  735MOL0     C 1358   7.685   6.655   8.308  0.3650  0.4792 -0.0872
  735MOL0     C 1359   7.684   6.750   8.417 -0.2790 -0.3079 -0.9333
  735MOL0     C 1360   7.820   6.772   8.486 -0.6062  0.8676 -0.8057
  735MOL0     H 1361   7.252   6.889   8.693  0.1090  0.2866 -0.7713
  735MOL0     H 1362   7.174   6.972   8.917 -0.8322  1.3692  0.7018
  735MOL0     H 1363   7.103   7.220   8.963 -0.5289  0.6200 -0.0305
  735MOL0     H 1364   7.159   7.317   9.089 -3.7560  1.9393 -1.9477
  735MOL0     H 1365   7.038   7.031   9.117 -2.7950  0.9690  0.3312
  735MOL0     H 1366   7.095   7.121   9.264  1.7722 -2.1341 -0.4825
  735MOL0     H 1367   6.911   7.284   9.217  1.7268 -0.3441  1.8184
  735MOL0     H 1368   6.888   7.198   9.066 -1.0791  0.6520  0.7926
  735MOL0     H 1369   6.855   7.077   9.348 -0.7416  1.0611  0.9537
  735MOL0     H 1370   6.739   7.181   9.281 -0.1852 -1.0591  1.8763
  735MOL0     H 1371   6.835   6.928   9.153  1.1459  0.8748 -0.4660
  735MOL0     H 1372   6.724   7.034   9.066  0.6736 -1.1370 -0.1673
  735MOL0     H 1373   6.677   6.903   9.325  1.1856 -2.6716 -1.3766
  735MOL0     H 1374   6.558   6.992   9.231  0.6909  0.0109 -2.2523
  735MOL0     H 1375   6.687   6.749   9.112  2.0706  3.1488 -2.1187
  735MOL0     H 1376   6.573   6.837   9.035  0.9761 -0.3351  0.0130
  735MOL0     H 1377   6.492   6.711   9.307  1.7002  1.4584 -0.7270
  735MOL0     H 1378   6.395   6.788   9.172  0.7409  3.1038  3.4223
  735MOL0     H 1379   6.655   6.492   9.209  1.9814 -2.8957 -2.4340
  735MOL0     H 1380   6.595   6.230   8.983  0.0056 -1.9077 -0.0431
  735MOL0     H 1381   6.455   6.170   9.073  0.9581 -1.6248 -1.0396
  735MOL0     H 1382   6.716   6.239   9.218 -1.2982  1.3349  1.9230
  735MOL0     H 1383   6.573   6.151   9.278  1.0935  1.7415  1.4535
  735MOL0     H 1384   6.631   5.977   9.091 -0.9041  0.7193  0.2713
  735MOL0     H 1385   6.763   6.078   9.050  2.2316  0.9789  1.6900
  735MOL0     H 1386   6.719   5.944   9.316 -0.0898 -0.1948  0.1103
  735MOL0     H 1387   6.812   5.875   9.180 -0.3458  0.4237 -0.4963
  735MOL0     H 1388   7.038   6.161   9.437  0.1816 -0.5906 -1.0946
  735MOL0     H 1389   7.186   6.201   9.647  0.3623 -0.4612 -1.3647
  735MOL0     H 1390   7.314   6.087   9.648  0.5805  0.9227 -1.5215
  735MOL0     H 1391   7.169   6.070   9.758  0.7505 -2.8272 -1.4996
  735MOL0     H 1392   6.968   5.624   9.875 -0.0778  0.0527 -0.3373
  735MOL0     H 1393   6.988   5.488  10.079  0.1784  0.3722  1.0404
  735MOL0     H 1394   7.107   5.499  10.323 -0.4736 -0.0527  1.3348
  735MOL0     H 1395   7.029   5.352  10.259 -0.8630  2.8781 -1.3577
  735MOL0     H 1396   7.270   5.344  10.445  0.3561 -2.6910  0.2087
  735MOL0     H 1397   7.106   5.348  10.495 -0.4229  1.2911 -0.6075
  735MOL0     H 1398   7.224   5.115  10.346  0.1548 -1.8494  1.4753
  735MOL0     H 1399   7.057   5.155  10.345 -0.0062 -0.1762 -0.3085
  735MOL0     H 1400   7.044   5.139  10.604  1.9414  3.4210  0.9808
  735MOL0     H 1401   7.225   5.136  10.598 -0.5017  0.4519  0.5996
  735MOL0     H 1402   7.031   4.933  10.494  0.1535 -0.6276  0.2419
  735MOL0     H 1403   7.211   4.915  10.475  0.1544 -0.3590 -0.4911
  735MOL0     H 1404   7.060   4.922  10.745 -0.9473 -1.6489 -0.2445
  735MOL0     H 1405   7.229   4.919  10.728 -0.6543  0.2574  1.0456
  735MOL0     H 1406   7.023   4.693  10.612  2.0996  0.8508 -4.5670
  735MOL0     H 1407   7.101   4.687  10.769 -2.3139  1.0868  0.4091
  735MOL0     H 1408   7.240   4.685  10.498 -1.2818 -0.1092 -0.0051
  735MOL0     H 1409   7.193   4.548  10.576  2.3540 -0.4041 -1.5815
  735MOL0     H 1410   7.398   5.419  10.005  1.6786  2.1237 -1.3796
  735MOL0     H 1411   7.373   5.538   9.776  1.4044 -1.2845  0.6905
  735MOL0     H 1412   7.069   5.680   9.473  3.0532  1.4223 -2.8492
  735MOL0     H 1413   6.916   5.781   9.331 -0.1480 -0.7520  0.3176
  735MOL0     H 1414   7.495   7.253   8.916  0.7137 -0.6151  1.3258
  735MOL0     H 1415   7.559   7.201   8.703 -0.5326  0.1414 -1.1638
  735MOL0     H 1416   7.381   6.880   8.378  1.5516  0.6570 -1.6195
  735MOL0     H 1417   7.376   6.711   8.181 -0.4217 -0.4868  1.6573
  735MOL0     H 1418   7.483   6.399   8.035  0.3855 -0.2875  1.8398
  735MOL0     H 1419   7.378   6.509   8.130  1.0051 -1.2525  1.1246
  735MOL0     H 1420   7.398   6.676   7.956 -1.4098 -0.7751  3.4432
  735MOL0     H 1421   7.360   6.528   7.869 -0.4668  0.6207  0.8048
  735MOL0     H 1422   7.654   6.593   7.910  0.2822  2.3174 -1.6708
  735MOL0     H 1423   7.576   6.482   7.793 -0.2958 -0.1029 -1.5656
  735MOL0     H 1424   7.620   6.778   7.791  0.3904  0.3340  0.2772
  735MOL0     H 1425   7.463   6.716   7.726  0.6224  1.8272  1.1545
  735MOL0     H 1426   7.718   6.560   7.433  0.0340  0.1263  0.8023
  735MOL0     H 1427   7.773   6.594   8.291 -0.3601 -0.3326 -1.0860
  735MOL0     H 1428   7.845   6.879   8.488 -1.2440  1.0157  0.5702
  735MOL0     H 1429   7.824   6.743   8.591  3.5212  4.1946  0.2787
  735MOL0     H 1430   7.903   6.731   8.427 -0.0008 -0.1252  0.6870
  736MOL0     O 1431   8.060  10.951   5.579  0.1507 -0.3498  0.4523
  736MOL0     C 1432   8.106  10.921   5.465 -0.1182  0.7395  0.1448
  736MOL0     O 1433   8.226  10.853   5.451  0.2667  0.0180  0.0898
  736MOL0     C 1434   8.315  10.842   5.551  0.1596 -0.2447 -0.0176
  736MOL0     C 1435   8.348  10.716   5.590  0.6000  0.3070  0.1040
  736MOL0     C 1436   8.448  10.697   5.688  1.2399 -0.1404 -0.4983
  736MOL0     C 1437   8.512  10.811   5.750  0.9067 -0.0278  0.5583
  736MOL0     O 1438   8.606  10.805   5.841 -0.1188 -0.3831 -0.2624
  736MOL0     C 1439   8.635  10.686   5.913 -0.0257  0.8312 -0.6000
  736MOL0     C 1440   8.759  10.623   5.860 -0.1371 -0.0173  0.3188
  736MOL0     C 1441   8.894  10.671   5.925  0.2587 -0.1831  0.6120
  736MOL0     C 1442   8.937  10.819   5.903 -0.8758  0.4330 -0.2194
  736MOL0     C 1443   9.084  10.831   5.950 -0.4538 -0.3694 -0.1078
  736MOL0     C 1444   9.136  10.976   5.942  0.4549  0.3829 -0.0885
  736MOL0     C 1445   9.036  11.091   5.911  0.3887 -0.0164 -0.6884
  736MOL0     C 1446   9.097  11.224   5.925  0.0409  0.6591  0.5649
  736MOL0     N 1447   9.214  11.233   5.834 -0.4041 -0.3926 -0.4006
  736MOL0     C 1448   9.215  11.234   5.695 -0.4456 -0.3238 -1.1254
  736MOL0     C 1449   9.342  11.234   5.657  0.0794 -0.5118 -0.5792
  736MOL0     C 1450   9.392  11.202   5.514  0.6514 -0.7105 -0.5530
  736MOL0     C 1451   9.516  11.266   5.492 -0.0320  0.3392 -0.6053
  736MOL0     C 1452   9.562  11.261   5.341  0.1626  0.2724  0.2818
  736MOL0     C 1453   9.696  11.335   5.324  0.4879  1.2215 -0.3119
  736MOL0     O 1454   9.808  11.246   5.356 -0.5337 -0.1697 -0.0130
  736MOL0     C 1455   9.927  11.316   5.344 -0.1047  0.6357 -0.3377
  736MOL0     C 1456   9.981  11.358   5.473  0.1573  0.2832  0.2642
  736MOL0     C 1457  10.110  11.420   5.477  0.4601  0.1156 -0.9153
  736MOL0     C 1458  10.159  11.467   5.614 -0.0829 -0.1492  0.2838
  736MOL0     C 1459  10.186  11.426   5.356 -0.2736  0.2454 -0.8274
  736MOL0     C 1460  10.320  11.494   5.348  0.6666  0.1683  0.6968
  736MOL0     O 1461  10.409  11.469   5.447  0.5120  0.0813 -0.1245
  736MOL0     C 1462  10.517  11.555   5.461  0.0483 -0.1218 -1.4965
  736MOL0     C 1463  10.502  11.686   5.508 -0.9777  0.1572 -0.2382
  736MOL0     C 1464  10.614  11.778   5.502  0.2480 -0.0120 -0.4509
  736MOL0     C 1465  10.741  11.725   5.470  0.5110  0.2786  0.6083
  736MOL0     O 1466  10.850  11.807   5.461 -0.0579 -0.4213  0.0097
  736MOL0     C 1467  10.874  11.909   5.559  0.9480  0.0455  0.5219
  736MOL0     C 1468  11.008  11.929   5.615 -0.0950 -0.0644  0.3727
  736MOL0     C 1469  11.106  11.977   5.507 -0.2451  0.1987 -0.6427
  736MOL0     C 1470  11.236  12.027   5.569  0.5129  0.0138  0.9950
  736MOL0     C 1471  11.323  12.065   5.452 -0.8112  0.3620 -0.1611
  736MOL0     C 1472  11.401  11.945   5.394 -0.1315  0.9735  0.1456
  736MOL0     C 1473  11.483  11.978   5.266 -0.5484  0.4737  0.7299
  736MOL0     C 1474  11.587  11.872   5.225  0.5605 -0.3791  0.9389
  736MOL0    Cl 1475  11.742  11.904   5.303 -0.4414 -0.3769 -0.0374
  736MOL0     C 1476  10.759  11.594   5.437  0.3854  1.4354  0.3222
  736MOL0     C 1477  10.646  11.507   5.432  0.1073 -0.0745 -0.4589
  736MOL0     O 1478  10.347  11.562   5.248  0.2328  0.0038 -0.4816
  736MOL0     C 1479  10.127  11.384   5.240 -0.1826  0.3046  0.9339
  736MOL0     C 1480  10.003  11.327   5.228  0.3902  0.1077 -0.1851
  736MOL0     N 1481   9.423  11.239   5.769  1.0029 -0.1144 -0.2508
  736MOL0     N 1482   9.344  11.220   5.871 -0.2038 -0.1029  0.5206
  736MOL0     C 1483   8.458  10.938   5.722 -0.7037 -0.3496 -0.3909
  736MOL0     C 1484   8.360  10.956   5.621  0.4028  0.1752  0.5204
  736MOL0     C 1485   8.033  10.962   5.348  1.0796 -0.4906 -0.4499
  736MOL0     C 1486   8.042  10.881   5.237 -0.1715  0.0505 -0.1636
  736MOL0     C 1487   7.958  10.889   5.126  0.4897 -0.7898 -0.2526
  736MOL0     C 1488   7.853  10.980   5.129  0.0500 -0.2113 -0.0437
  736MOL0     O 1489   7.755  10.975   5.036 -0.5170  0.0268  0.0313
  736MOL0     C 1490   7.790  11.014   4.902 -0.5014  0.1681 -0.8728
  736MOL0     C 1491   7.759  10.896   4.800 -0.0648  0.7171 -0.3689
  736MOL0     C 1492   7.797  10.929   4.656 -0.3878  0.3198  0.4270
  736MOL0     C 1493   7.785  10.799   4.568  0.6391  0.5204 -0.3452
  736MOL0     C 1494   7.649  10.744   4.564 -0.7626  0.2312  0.2177
  736MOL0     C 1495   7.532  10.724   4.548  0.5780 -0.6252 -0.9049
  736MOL0     C 1496   7.849  11.074   5.234  0.3151 -0.0097 -0.1077
  736MOL0     C 1497   7.939  11.065   5.337 -0.2597  0.2448 -1.1449
  736MOL0     C 1498   7.916  11.163   5.449 -0.0193  0.5001 -0.6571
  736MOL0     H 1499   8.302  10.629   5.544  0.8259  0.5222 -0.5336
  736MOL0     H 1500   8.476  10.598   5.720  0.7472  0.0233  0.4950
  736MOL0     H 1501   8.545  10.623   5.911 -0.2450  1.1154 -3.3271
  736MOL0     H 1502   8.643  10.708   6.020 -0.3121  3.7857 -1.1071
  736MOL0     H 1503   8.759  10.515   5.878 -1.5142 -0.1752 -0.4318
  736MOL0     H 1504   8.760  10.635   5.751 -2.0726  0.0184  0.2675
  736MOL0     H 1505   8.879  10.669   6.033  0.1604  1.6107  0.6643
  736MOL0     H 1506   8.978  10.607   5.896 -0.6025 -0.9027 -0.3683
  736MOL0     H 1507   8.933  10.840   5.796 -1.3268 -1.6346 -0.6456
  736MOL0     H 1508   8.872  10.878   5.968 -0.5463  2.2647 -1.4713
  736MOL0     H 1509   9.152  10.787   5.877  1.2468  2.9361 -0.7358
  736MOL0     H 1510   9.106  10.796   6.051 -0.0311 -0.1623 -0.1253
  736MOL0     H 1511   9.182  11.008   6.036  2.7320  0.7442 -1.2580
  736MOL0     H 1512   9.225  10.979   5.879 -1.8581 -0.9077 -3.7332
  736MOL0     H 1513   8.949  11.084   5.976 -0.4279  1.0732 -1.6375
  736MOL0     H 1514   9.009  11.083   5.805  2.1515 -0.2819 -1.1546
  736MOL0     H 1515   9.033  11.308   5.901 -1.8594 -0.5041  1.3497
  736MOL0     H 1516   9.127  11.230   6.030  1.5982 -1.9586  0.3615
  736MOL0     H 1517   9.134  11.249   5.624 -0.3076  2.5692 -0.8042
  736MOL0     H 1518   9.323  11.247   5.441  4.5728  0.8381 -3.6562
  736MOL0     H 1519   9.391  11.097   5.483 -0.2219 -1.0929  0.6740
  736MOL0     H 1520   9.505  11.372   5.519 -5.1203  1.2208 -4.5967
  736MOL0     H 1521   9.590  11.219   5.557  2.7065 -1.4355 -4.6315
  736MOL0     H 1522   9.570  11.157   5.308 -0.2759  0.5639 -0.7838
  736MOL0     H 1523   9.493  11.314   5.275  0.0206 -1.2044 -0.8053
  736MOL0     H 1524   9.691  11.350   5.216 -3.0434 -0.4977 -0.5333
  736MOL0     H 1525   9.708  11.423   5.387 -1.0576  1.2572 -0.0108
  736MOL0     H 1526   9.927  11.327   5.562  0.6763  0.3212  0.5959
  736MOL0     H 1527  10.206  11.565   5.601  2.5736 -1.5185 -1.3932
  736MOL0     H 1528  10.230  11.405   5.670  0.3980  1.4538  1.5033
  736MOL0     H 1529  10.073  11.476   5.681 -0.0526  0.4829  0.2437
  736MOL0     H 1530  10.401  11.710   5.540 -0.4998  0.3306  1.2337
  736MOL0     H 1531  10.603  11.885   5.518  0.1501 -0.1742  0.6021
  736MOL0     H 1532  10.827  12.001   5.522 -0.5735 -0.3233  1.4588
  736MOL0     H 1533  10.808  11.870   5.636 -1.8597  1.4500 -1.0230
  736MOL0     H 1534  11.016  11.996   5.701  1.7801  1.1473 -0.6694
  736MOL0     H 1535  11.052  11.835   5.649  2.5934  1.3808  1.1982
  736MOL0     H 1536  11.064  12.060   5.450 -2.8427 -0.0325  0.7961
  736MOL0     H 1537  11.114  11.898   5.431 -0.5998  0.0105 -0.4907
  736MOL0     H 1538  11.285  11.951   5.631  2.8147  0.1771 -0.4940
  736MOL0     H 1539  11.206  12.112   5.632 -0.6632 -0.7558  1.5054
  736MOL0     H 1540  11.266  12.115   5.374 -1.1472 -0.9140 -0.7684
  736MOL0     H 1541  11.391  12.139   5.495 -0.3564 -0.6424  0.9139
  736MOL0     H 1542  11.328  11.868   5.367  2.0237 -0.4348 -2.0726
  736MOL0     H 1543  11.464  11.897   5.469 -1.1426  0.4818  0.6954
  736MOL0     H 1544  11.541  12.065   5.296  0.6650  0.4353 -1.3397
  736MOL0     H 1545  11.414  12.006   5.186  0.1531 -1.4494 -0.6380
  736MOL0     H 1546  11.609  11.877   5.118 -1.8981 -0.6547  0.3739
  736MOL0     H 1547  11.543  11.773   5.242 -1.3215 -0.2330 -2.3934
  736MOL0     H 1548  10.853  11.547   5.410 -0.8758 -0.1126 -1.7813
  736MOL0     H 1549  10.645  11.402   5.404 -3.9735 -0.3943  0.3198
  736MOL0     H 1550  10.174  11.399   5.143 -1.6982 -0.2219  0.0766
  736MOL0     H 1551   9.963  11.302   5.130 -0.4542  0.0106  0.1680
  736MOL0     H 1552   8.494  11.018   5.786 -0.3528  0.0651 -1.0910
  736MOL0     H 1553   8.311  11.049   5.596 -2.8113 -1.1328  1.3850
  736MOL0     H 1554   8.124  10.809   5.240  2.6563  3.0186  2.6120
  736MOL0     H 1555   7.974  10.827   5.039  0.8231  0.4573 -1.1102
  736MOL0     H 1556   7.742  11.110   4.879  2.6503  2.1895  0.2870
  736MOL0     H 1557   7.899  11.028   4.896 -0.0370 -0.2431  3.6340
  736MOL0     H 1558   7.650  10.883   4.801  0.1799 -2.8143  3.3813
  736MOL0     H 1559   7.801  10.802   4.834 -1.8537  0.7708  2.2454
  736MOL0     H 1560   7.740  11.010   4.608  2.2698  0.5278 -2.8025
  736MOL0     H 1561   7.902  10.961   4.656 -0.4885  0.6618  1.0234
  736MOL0     H 1562   7.840  10.721   4.622 -1.3502  0.8339  2.3909
  736MOL0     H 1563   7.820  10.814   4.466  0.7967  0.2043 -0.3387
  736MOL0     H 1564   7.430  10.705   4.521 -0.4853 -0.0343  2.2062
  736MOL0     H 1565   7.769  11.147   5.240 -0.5375 -0.7521 -1.6876
  736MOL0     H 1566   8.014  11.187   5.491  0.2056 -2.1335  0.5103
  736MOL0     H 1567   7.855  11.248   5.417 -0.3812 -0.1473 -1.7390
  736MOL0     H 1568   7.856  11.112   5.525 -0.7647  0.2321 -1.4141
  737MOL0     O 1569   6.821   8.452   0.366  0.0093 -0.0415 -0.0144
  737MOL0     C 1570   6.835   8.575   0.370  0.7657 -0.0008  0.1155
  737MOL0     O 1571   6.902   8.641   0.466  0.4867  0.4923 -0.0168
  737MOL0     C 1572   6.895   8.589   0.593 -0.0554 -0.0910 -0.5774
  737MOL0     C 1573   6.928   8.463   0.637 -0.0410  0.0470 -0.0198
  737MOL0     C 1574   6.914   8.432   0.770 -0.0131 -0.0540  0.2755
  737MOL0     C 1575   6.874   8.521   0.870 -0.4140  0.2846  0.3962
  737MOL0     O 1576   6.872   8.471   0.998 -0.1725  0.1068  0.1518
  737MOL0     C 1577   6.846   8.569   1.094  0.1612 -0.0977  0.1542
  737MOL0     C 1578   6.846   8.503   1.237 -0.0498 -0.0705 -0.4173
  737MOL0     C 1579   6.770   8.586   1.337  0.4779  0.7084 -0.5779
  737MOL0     C 1580   6.739   8.505   1.464 -0.1761  0.2547  0.7917
  737MOL0     C 1581   6.646   8.569   1.558 -0.5916  0.1478  0.3035
  737MOL0     C 1582   6.678   8.713   1.602 -0.7218  0.0935  0.3212
  737MOL0     C 1583   6.821   8.723   1.662 -0.0947  0.1436 -1.0612
  737MOL0     C 1584   6.838   8.874   1.694  0.1073 -0.1397 -0.3979
  737MOL0     N 1585   6.929   8.902   1.808 -0.5324 -0.0444  0.6191
  737MOL0     C 1586   7.061   8.898   1.813 -0.5363 -1.2610  1.0380
  737MOL0     C 1587   7.102   8.941   1.933 -0.1370 -0.6205  0.0986
  737MOL0     C 1588   7.247   8.938   1.989 -0.3416 -0.0730 -0.4441
  737MOL0     C 1589   7.337   9.010   1.887  0.3032  0.3893  0.5384
  737MOL0     C 1590   7.295   9.162   1.875 -0.5635 -0.2544 -0.7342
  737MOL0     C 1591   7.410   9.257   1.838  0.6466 -0.0847  0.2339
  737MOL0     O 1592   7.457   9.220   1.705 -0.3456 -0.2292  0.4400
  737MOL0     C 1593   7.559   9.284   1.644 -0.4938 -0.4248 -0.0563
  737MOL0     C 1594   7.644   9.383   1.699  0.9640  0.2337 -0.0781
  737MOL0     C 1595   7.750   9.434   1.636 -0.4257  0.0297 -0.3359
  737MOL0     C 1596   7.835   9.530   1.711 -0.3360 -0.6710  0.1855
  737MOL0     C 1597   7.784   9.388   1.510 -0.1049 -0.0172  0.4115
  737MOL0     C 1598   7.906   9.420   1.434 -0.0862  0.4205  0.0352
  737MOL0     O 1599   8.017   9.418   1.512 -0.1096  0.2932  0.6655
  737MOL0     C 1600   8.132   9.432   1.447 -0.3602 -0.0705 -0.2977
  737MOL0     C 1601   8.181   9.321   1.380 -0.0149  0.4829  0.0348
  737MOL0     C 1602   8.314   9.320   1.351  0.6049  0.5685 -0.1842
  737MOL0     C 1603   8.394   9.438   1.361  0.1302 -0.6032 -0.3056
  737MOL0     O 1604   8.521   9.449   1.313  0.0907  0.1824  0.6637
  737MOL0     C 1605   8.579   9.328   1.256  0.4732 -0.6599 -0.0912
  737MOL0     C 1606   8.721   9.350   1.194 -1.3941  0.0455 -0.1103
  737MOL0     C 1607   8.762   9.214   1.148  0.5424  0.8584 -0.0862
  737MOL0     C 1608   8.894   9.214   1.065  0.0372 -0.3154  0.3472
  737MOL0     C 1609   8.927   9.072   1.008 -0.0176  0.8903 -0.3840
  737MOL0     C 1610   8.948   8.957   1.100 -0.4058  0.4692 -1.2798
  737MOL0     C 1611   9.068   8.974   1.191  0.1834  0.1623 -0.3371
  737MOL0     C 1612   9.116   8.852   1.268 -0.0520  0.0636 -0.1795
  737MOL0    Cl 1613   8.987   8.750   1.352  0.2988 -0.2350  0.4061
  737MOL0     C 1614   8.333   9.552   1.410 -0.2603  1.1013  0.2894
  737MOL0     C 1615   8.206   9.545   1.462  0.4744  0.5480 -0.1872
  737MOL0     O 1616   7.900   9.426   1.316 -0.0742 -0.4609 -0.0556
  737MOL0     C 1617   7.697   9.295   1.452 -0.0664 -0.1449 -0.0653
  737MOL0     C 1618   7.589   9.239   1.515  0.6535 -0.2453 -0.6021
  737MOL0     N 1619   6.989   8.964   2.006 -0.2146 -0.4355 -0.0641
  737MOL0     N 1620   6.888   8.947   1.927  0.1672  0.6454 -0.8279
  737MOL0     C 1621   6.841   8.657   0.829 -0.1882 -0.2758 -0.3747
  737MOL0     C 1622   6.858   8.686   0.690  0.2681 -0.0557  0.5642
  737MOL0     C 1623   6.780   8.645   0.250  0.6434 -0.3291 -0.0315
  737MOL0     C 1624   6.705   8.562   0.154  1.0903 -0.0558 -0.3529
  737MOL0     C 1625   6.646   8.618   0.043 -0.9049  0.5115 -0.4460
  737MOL0     C 1626   6.667   8.758   0.015  0.2863  0.5754 -0.4029
  737MOL0     O 1627   6.608   8.824  -0.091 -0.4252  0.2186  0.2429
  737MOL0     C 1628   6.526   8.749  -0.179  0.0236  0.1130 -0.4901
  737MOL0     C 1629   6.509   8.839  -0.301 -0.8339 -0.1800 -0.5762
  737MOL0     C 1630   6.427   8.767  -0.410 -0.3387  0.1333  0.0695
  737MOL0     C 1631   6.301   8.847  -0.458 -0.0619  0.4231 -0.4260
  737MOL0     C 1632   6.202   8.860  -0.343  0.6452 -0.2922 -0.0520
  737MOL0     C 1633   6.120   8.876  -0.262  0.6249 -0.6975  0.2718
  737MOL0     C 1634   6.741   8.839   0.103 -0.1315 -0.6843 -0.2333
  737MOL0     C 1635   6.798   8.785   0.221 -0.3874 -0.7108  1.0291
  737MOL0     C 1636   6.882   8.890   0.298  0.1101  0.0260 -0.3226
  737MOL0     H 1637   6.958   8.395   0.557  1.8561  1.6196 -0.7271
  737MOL0     H 1638   6.948   8.334   0.804  0.6689 -0.5385 -1.6628
  737MOL0     H 1639   6.746   8.611   1.081 -0.2541 -0.7557  1.1858
  737MOL0     H 1640   6.917   8.652   1.089  0.3555 -0.0607  2.4287
  737MOL0     H 1641   6.807   8.401   1.238 -0.2035 -0.0459  1.8322
  737MOL0     H 1642   6.947   8.481   1.274 -0.7541 -1.5617  0.7330
  737MOL0     H 1643   6.830   8.674   1.364  2.5307 -0.6255 -0.5087
  737MOL0     H 1644   6.676   8.613   1.290  0.5760 -0.4995 -1.5166
  737MOL0     H 1645   6.703   8.404   1.446 -0.8000  0.6961 -0.5362
  737MOL0     H 1646   6.836   8.490   1.513  0.0354 -0.2044  0.2460
  737MOL0     H 1647   6.645   8.494   1.637  1.6790  0.7529  0.9948
  737MOL0     H 1648   6.549   8.575   1.509 -0.9821 -1.4966  0.8200
  737MOL0     H 1649   6.685   8.778   1.514  0.4669 -2.0920 -1.3211
  737MOL0     H 1650   6.594   8.739   1.666  0.2358 -0.3462  1.8049
  737MOL0     H 1651   6.905   8.690   1.600 -0.9184  0.4078 -2.3450
  737MOL0     H 1652   6.831   8.659   1.750  1.1234 -0.2207 -1.4449
  737MOL0     H 1653   6.878   8.906   1.598 -1.9285  1.7659 -0.6732
  737MOL0     H 1654   6.741   8.921   1.713 -1.2583 -2.1537 -1.9801
  737MOL0     H 1655   7.118   8.846   1.736  0.3496 -0.1976  0.9593
  737MOL0     H 1656   7.283   8.835   2.001  2.1483  0.8476  0.4694
  737MOL0     H 1657   7.257   8.968   2.094  0.6389 -0.8445 -0.2970
  737MOL0     H 1658   7.440   8.994   1.922  0.2447  1.2820  1.1437
  737MOL0     H 1659   7.329   8.972   1.784 -0.2940 -1.0056  1.0732
  737MOL0     H 1660   7.223   9.169   1.794  1.1602  0.4121 -2.2712
  737MOL0     H 1661   7.250   9.188   1.971  0.3864  0.1392 -0.3870
  737MOL0     H 1662   7.368   9.357   1.849 -0.1895 -0.5382  1.4141
  737MOL0     H 1663   7.498   9.239   1.900  1.0825 -2.0447 -0.8718
  737MOL0     H 1664   7.627   9.401   1.804 -2.0014 -3.4671  0.3186
  737MOL0     H 1665   7.877   9.611   1.651  0.9202 -1.0771  0.4978
  737MOL0     H 1666   7.929   9.484   1.742 -0.3937  0.4886  2.2617
  737MOL0     H 1667   7.787   9.563   1.804 -1.8842 -0.4726 -0.6357
  737MOL0     H 1668   8.131   9.226   1.365  0.2328  0.1436  1.2117
  737MOL0     H 1669   8.347   9.226   1.308  0.2862 -0.6201  2.0399
  737MOL0     H 1670   8.585   9.248   1.331  1.1645 -1.4742 -0.9963
  737MOL0     H 1671   8.515   9.295   1.174 -1.0566  0.6052  0.5486
  737MOL0     H 1672   8.719   9.428   1.117 -2.1485 -0.4083 -0.5629
  737MOL0     H 1673   8.792   9.389   1.267  3.1378 -1.8011 -2.9820
  737MOL0     H 1674   8.676   9.176   1.091 -0.1385  0.9417  0.8721
  737MOL0     H 1675   8.777   9.150   1.236 -0.8377 -1.2497 -1.2841
  737MOL0     H 1676   8.975   9.248   1.130 -0.5224 -2.4638  2.3178
  737MOL0     H 1677   8.877   9.279   0.979 -2.2983  0.0125  0.9831
  737MOL0     H 1678   8.854   9.046   0.932  2.0258 -0.1941 -2.0880
  737MOL0     H 1679   9.025   9.074   0.958  0.8782 -1.6876  1.0555
  737MOL0     H 1680   8.966   8.866   1.043 -1.1396 -0.2386 -0.4086
  737MOL0     H 1681   8.855   8.944   1.157  1.3437 -1.9755  1.2991
  737MOL0     H 1682   9.041   9.047   1.268  0.7471  0.6248 -0.5760
  737MOL0     H 1683   9.147   9.014   1.128 -0.3835 -1.1582 -1.9631
  737MOL0     H 1684   9.182   8.891   1.347 -0.3873 -3.0474  1.8050
  737MOL0     H 1685   9.181   8.792   1.204  0.3659  2.4567 -2.1277
  737MOL0     H 1686   8.397   9.639   1.417 -0.4113  1.2697 -0.3162
  737MOL0     H 1687   8.154   9.624   1.516  0.9147 -0.0308  1.1453
  737MOL0     H 1688   7.725   9.260   1.353 -0.4528  0.0280 -0.2379
  737MOL0     H 1689   7.521   9.159   1.488 -3.0170  2.6158 -0.7694
  737MOL0     H 1690   6.811   8.741   0.891  3.7263  1.0381  0.0217
  737MOL0     H 1691   6.851   8.789   0.657  1.7777  0.2063  0.9790
  737MOL0     H 1692   6.691   8.456   0.172  0.5087 -0.2289 -1.7090
  737MOL0     H 1693   6.585   8.547  -0.013 -0.7410 -1.4244  1.6981
  737MOL0     H 1694   6.559   8.647  -0.200 -0.2925 -0.3337  1.0963
  737MOL0     H 1695   6.426   8.743  -0.135  1.0233 -3.4955  1.6637
  737MOL0     H 1696   6.606   8.865  -0.344 -0.0347 -2.0980 -0.0706
  737MOL0     H 1697   6.448   8.927  -0.279  0.2120 -0.1548  2.7316
  737MOL0     H 1698   6.485   8.754  -0.502 -2.9658 -0.4951 -1.5909
  737MOL0     H 1699   6.409   8.661  -0.390  1.2256 -0.2707 -0.4742
  737MOL0     H 1700   6.247   8.791  -0.534  1.2812  0.3968 -1.3955
  737MOL0     H 1701   6.322   8.946  -0.500  0.7036  1.0965  1.4302
  737MOL0     H 1702   6.048   8.894  -0.185  1.1678 -3.1731  1.4637
  737MOL0     H 1703   6.739   8.941   0.065 -2.7762 -0.5007  0.2500
  737MOL0     H 1704   6.919   8.964   0.228  0.7037  0.0396  0.0046
  737MOL0     H 1705   6.808   8.929   0.369 -3.8685 -4.7083 -1.2646
  737MOL0     H 1706   6.976   8.852   0.338  0.7753  0.4129 -1.5041
  738MOL0     O 1707   9.070   1.218   8.002  0.7596  0.2232  0.4555
  738MOL0     C 1708   9.072   1.169   7.887  1.0009  0.0972 -1.0555
  738MOL0     O 1709   9.171   1.088   7.846  0.6992  0.4485  0.1741
  738MOL0     C 1710   9.276   1.070   7.931 -0.7906  0.4807 -0.0093
  738MOL0     C 1711   9.284   0.978   8.033 -0.0655 -0.5127 -0.1137
  738MOL0     C 1712   9.408   0.953   8.105  0.4909  0.0057 -0.2920
  738MOL0     C 1713   9.520   1.028   8.077  0.0653 -0.1888  0.2531
  738MOL0     O 1714   9.630   0.998   8.149  0.0230  0.4212 -0.3403
  738MOL0     C 1715   9.745   1.079   8.130  0.9759 -0.3731  0.6730
  738MOL0     C 1716   9.852   1.027   8.231  0.5175 -0.3186 -0.0810
  738MOL0     C 1717   9.977   1.107   8.210 -0.2108 -0.1673  1.0711
  738MOL0     C 1718  10.059   1.051   8.095 -0.1043  0.3616  0.3820
  738MOL0     C 1719  10.199   1.112   8.090 -0.1705 -0.2829 -0.1246
  738MOL0     C 1720  10.297   1.044   7.992  0.3305 -0.9941 -0.4194
  738MOL0     C 1721  10.414   1.132   7.964  0.3773 -0.8751  0.7791
  738MOL0     C 1722  10.489   1.067   7.846 -0.0750 -0.2237  0.3304
  738MOL0     N 1723  10.608   1.147   7.812 -0.3938 -1.0240 -0.6301
  738MOL0     C 1724  10.614   1.264   7.734 -0.7090 -0.1707 -0.7555
  738MOL0     C 1725  10.744   1.298   7.744 -0.4322  0.0247  0.5778
  738MOL0     C 1726  10.804   1.413   7.657  0.0759  0.2637  0.0248
  738MOL0     C 1727  10.956   1.400   7.662 -0.0575 -0.3974  0.5006
  738MOL0     C 1728  11.027   1.511   7.590  0.5187 -0.9059  0.0320
  738MOL0     C 1729  11.009   1.644   7.655 -0.3901 -0.0721  0.4020
  738MOL0     O 1730  11.092   1.642   7.768 -0.4342  0.7294 -0.4084
  738MOL0     C 1731  11.221   1.690   7.758 -0.5759  0.2614  0.2436
  738MOL0     C 1732  11.251   1.811   7.684  0.3303 -0.4943 -0.2575
  738MOL0     C 1733  11.381   1.873   7.692 -0.3692  0.5468 -0.0098
  738MOL0     C 1734  11.395   2.003   7.629 -0.3480 -0.1749  0.5760
  738MOL0     C 1735  11.484   1.811   7.769  0.5060  0.5905  0.5906
  738MOL0     C 1736  11.624   1.863   7.779  0.7218  0.4449 -0.0758
  738MOL0     O 1737  11.683   1.859   7.896  0.2656 -0.1951  0.1289
  738MOL0     C 1738  11.816   1.870   7.902 -0.6262  0.2883  0.5542
  738MOL0     C 1739  11.897   1.755   7.878 -0.0509  0.0636 -0.6571
  738MOL0     C 1740  12.040   1.760   7.885 -0.5983 -0.2451 -0.2419
  738MOL0     C 1741  12.101   1.886   7.905 -0.2283 -0.5906 -0.6752
  738MOL0     O 1742  12.243   1.880   7.915  0.3790 -0.1815  0.9427
  738MOL0     C 1743  12.312   1.995   7.963  0.4058 -0.1855 -0.5535
  738MOL0     C 1744  12.443   1.939   8.008  0.0083 -0.2818  0.0039
  738MOL0     C 1745  12.438   1.856   8.136 -0.4203  0.0114 -0.7597
  738MOL0     C 1746  12.586   1.805   8.174  0.3146  0.7709 -0.0550
  738MOL0     C 1747  12.602   1.705   8.292  0.6147  0.1573  0.6934
  738MOL0     C 1748  12.756   1.696   8.329 -0.0837 -0.0520 -0.2839
  738MOL0     C 1749  12.800   1.561   8.389  0.2019 -0.8752  0.2530
  738MOL0     C 1750  12.951   1.564   8.419 -0.0692  1.1063 -0.4792
  738MOL0    Cl 1751  13.041   1.595   8.263  0.3701  0.0094 -0.3980
  738MOL0     C 1752  12.017   2.003   7.923  0.2036  0.3292  0.1248
  738MOL0     C 1753  11.875   1.988   7.924  0.2277 -0.7011  0.5305
  738MOL0     O 1754  11.671   1.905   7.678  0.3847  0.5257  0.6647
  738MOL0     C 1755  11.450   1.690   7.833  0.1189  0.7734  0.0069
  738MOL0     C 1756  11.321   1.629   7.827 -0.6852  0.4418  0.2769
  738MOL0     N 1757  10.811   1.204   7.818  0.4355  0.6895 -0.1349
  738MOL0     N 1758  10.733   1.112   7.859  0.1553  0.8877 -0.8417
  738MOL0     C 1759   9.512   1.121   7.976 -0.3875 -0.7682  0.0957
  738MOL0     C 1760   9.393   1.146   7.904 -0.7495  0.0396  0.0486
  738MOL0     C 1761   8.962   1.199   7.789  0.5800 -0.9102 -0.2350
  738MOL0     C 1762   8.992   1.215   7.653 -0.0864  0.8067 -0.3832
  738MOL0     C 1763   8.895   1.255   7.556  0.0395 -0.0704  1.0831
  738MOL0     C 1764   8.765   1.285   7.593 -0.9558 -0.4850  0.2172
  738MOL0     O 1765   8.684   1.327   7.492  0.3874 -0.4402 -0.0271
  738MOL0     C 1766   8.554   1.366   7.533 -0.6861 -0.6439 -0.2212
  738MOL0     C 1767   8.457   1.391   7.416 -0.5790  0.5317 -0.7248
  738MOL0     C 1768   8.523   1.490   7.312  0.5084 -0.1166 -0.4478
  738MOL0     C 1769   8.502   1.635   7.363 -0.4158 -0.0347  0.1236
  738MOL0     C 1770   8.362   1.672   7.359  0.5305 -0.4243 -0.3650
  738MOL0     C 1771   8.244   1.712   7.351 -0.2297  0.3078 -0.3743
  738MOL0     C 1772   8.739   1.265   7.734  0.7957  0.2632  0.3448
  738MOL0     C 1773   8.830   1.210   7.827 -0.0942  0.9712  0.1625
  738MOL0     C 1774   8.779   1.191   7.964  0.2735 -0.8083 -0.2729
  738MOL0     H 1775   9.201   0.912   8.053  0.7539 -1.8869 -1.0220
  738MOL0     H 1776   9.412   0.876   8.180  2.3073  1.7440  1.5241
  738MOL0     H 1777   9.714   1.183   8.142 -0.5502 -0.5091 -1.5299
  738MOL0     H 1778   9.790   1.063   8.032  1.3348  1.1206  0.5650
  738MOL0     H 1779   9.807   1.039   8.330  0.9877 -2.5053  0.4498
  738MOL0     H 1780   9.865   0.920   8.214  0.9085 -0.7546  2.5508
  738MOL0     H 1781   9.952   1.211   8.189 -0.7269 -0.5276 -0.2477
  738MOL0     H 1782  10.041   1.095   8.298 -0.4134 -0.8905  1.1268
  738MOL0     H 1783  10.076   0.943   8.093 -0.9900  0.2245 -0.2814
  738MOL0     H 1784  10.007   1.081   8.004 -0.8383  0.5571  0.8548
  738MOL0     H 1785  10.250   1.117   8.187  1.0564  2.3596 -0.8053
  738MOL0     H 1786  10.183   1.220   8.083 -0.2128 -0.0540  2.3418
  738MOL0     H 1787  10.319   0.948   8.040 -2.3478 -1.8563 -0.7484
  738MOL0     H 1788  10.243   1.019   7.901  0.6569 -3.6827  0.0464
  738MOL0     H 1789  10.475   1.145   8.054 -1.5174  1.0469  1.8767
  738MOL0     H 1790  10.388   1.232   7.928  0.3358 -2.2950 -3.7878
  738MOL0     H 1791  10.519   0.973   7.892  0.1761  1.1016  3.0964
  738MOL0     H 1792  10.426   1.051   7.758 -3.1351 -0.9650  2.5166
  738MOL0     H 1793  10.534   1.310   7.677 -0.2549  1.0281 -0.4612
  738MOL0     H 1794  10.764   1.506   7.699  0.3520  0.6721 -0.5962
  738MOL0     H 1795  10.777   1.393   7.553  2.6700 -0.0745 -0.6453
  738MOL0     H 1796  10.983   1.394   7.768 -1.9778 -0.7116  0.9999
  738MOL0     H 1797  10.994   1.307   7.620  0.5189 -0.9780  2.2104
  738MOL0     H 1798  11.131   1.481   7.571  0.9030  0.4622 -0.1406
  738MOL0     H 1799  10.987   1.525   7.489  1.7546  2.3019 -0.1412
  738MOL0     H 1800  11.017   1.740   7.603  1.5481 -0.1797  0.4300
  738MOL0     H 1801  10.906   1.654   7.689 -0.6507  0.1628 -0.4248
  738MOL0     H 1802  11.176   1.862   7.625  1.5961  0.0440 -1.4705
  738MOL0     H 1803  11.471   2.060   7.683  1.7740 -3.3923  1.2813
  738MOL0     H 1804  11.297   2.051   7.629  0.0536  0.6695 -0.4228
  738MOL0     H 1805  11.429   2.007   7.525  2.0735  1.5308  1.3435
  738MOL0     H 1806  11.860   1.654   7.863  0.5996 -0.4496  0.9672
  738MOL0     H 1807  12.110   1.678   7.878  1.1161  1.1870 -0.6658
  738MOL0     H 1808  12.328   2.077   7.892  2.4596 -1.5989 -1.8251
  738MOL0     H 1809  12.256   2.039   8.046  1.7105 -0.2449  0.3795
  738MOL0     H 1810  12.491   1.889   7.923 -1.6793 -1.0757 -0.5215
  738MOL0     H 1811  12.513   2.022   8.019 -0.0371 -0.3136  0.5448
  738MOL0     H 1812  12.367   1.774   8.126 -0.9344 -0.0336  2.1850
  738MOL0     H 1813  12.398   1.920   8.216 -0.3563  0.1664 -0.8505
  738MOL0     H 1814  12.653   1.890   8.189  0.9127  0.3581 -0.3497
  738MOL0     H 1815  12.628   1.757   8.086  2.0772  0.2659  1.0148
  738MOL0     H 1816  12.538   1.737   8.375 -1.7709 -1.6889 -0.3195
  738MOL0     H 1817  12.552   1.613   8.260 -2.4289  1.9398 -0.1024
  738MOL0     H 1818  12.782   1.776   8.399 -0.4401  0.4187 -0.6847
  738MOL0     H 1819  12.807   1.706   8.233 -0.0204 -1.8129 -0.4728
  738MOL0     H 1820  12.761   1.486   8.320 -1.6070 -1.1919  1.5413
  738MOL0     H 1821  12.752   1.548   8.486  2.2579  0.4096  1.5141
  738MOL0     H 1822  12.985   1.467   8.457 -0.9703  0.5692 -1.0051
  738MOL0     H 1823  12.981   1.627   8.502  1.4226 -0.9737  0.6683
  738MOL0     H 1824  12.067   2.099   7.936  3.0506 -0.6805 -2.1395
  738MOL0     H 1825  11.809   2.070   7.949 -0.5828 -0.2447 -2.6468
  738MOL0     H 1826  11.522   1.646   7.902 -0.4566  0.7450  0.6041
  738MOL0     H 1827  11.298   1.532   7.871 -0.7658 -0.5610 -1.8316
  738MOL0     H 1828   9.605   1.168   7.946 -0.5431 -0.4201  0.1659
  738MOL0     H 1829   9.381   1.224   7.830 -1.2041  0.1396  0.2229
  738MOL0     H 1830   9.093   1.191   7.621  0.0799  0.8525  0.0977
  738MOL0     H 1831   8.921   1.259   7.451 -1.2116  1.3983  0.7889
  738MOL0     H 1832   8.514   1.279   7.587 -0.0202 -1.2070 -0.6150
  738MOL0     H 1833   8.558   1.460   7.589 -2.0890 -0.8824  0.3341
  738MOL0     H 1834   8.361   1.430   7.448 -0.7749  0.6268 -1.4058
  738MOL0     H 1835   8.445   1.294   7.368 -0.4815 -1.1261  2.3476
  738MOL0     H 1836   8.632   1.476   7.308  0.3776 -1.6813  0.7184
  738MOL0     H 1837   8.483   1.479   7.211  1.2831 -0.6786 -0.7050
  738MOL0     H 1838   8.548   1.707   7.294 -1.4915  0.5181 -0.0405
  738MOL0     H 1839   8.549   1.645   7.461  2.4459  0.5868 -1.2128
  738MOL0     H 1840   8.143   1.744   7.365  0.4563  1.5920  2.4591
  738MOL0     H 1841   8.637   1.277   7.771 -0.4168 -0.6186 -2.4385
  738MOL0     H 1842   8.680   1.146   7.975 -0.6400  0.3180 -3.1812
  738MOL0     H 1843   8.849   1.120   8.011  3.8221  2.8716  0.5119
  738MOL0     H 1844   8.796   1.280   8.025  1.5094 -0.1995 -1.4630
  739MOL0     O 1845   2.139   2.825   3.722 -1.0271 -0.9768 -0.0201
  739MOL0     C 1846   2.111   2.920   3.656  0.0426  0.6461  0.7432
  739MOL0     O 1847   2.167   2.948   3.535  0.2538 -0.2306 -0.3125
  739MOL0     C 1848   2.289   2.898   3.499 -0.0383 -0.3859 -0.0412
  739MOL0     C 1849   2.299   2.773   3.435  0.2212 -0.7442  0.0611
  739MOL0     C 1850   2.429   2.725   3.402 -0.1679 -0.4851  0.3610
  739MOL0     C 1851   2.545   2.803   3.430  0.4282 -0.4475  0.5985
  739MOL0     O 1852   2.673   2.762   3.399  0.3878  0.3410 -0.6588
  739MOL0     C 1853   2.696   2.629   3.344 -0.5515 -0.2961 -0.2663
  739MOL0     C 1854   2.838   2.592   3.298  0.5157  0.1537 -0.3969
  739MOL0     C 1855   2.900   2.692   3.206  0.2648 -0.2282  0.4173
  739MOL0     C 1856   3.044   2.662   3.155 -0.1494  0.2515  0.3689
  739MOL0     C 1857   3.101   2.761   3.059 -0.9941  0.3316 -0.1845
  739MOL0     C 1858   3.257   2.761   3.052 -0.3161 -0.2221  0.1060
  739MOL0     C 1859   3.307   2.626   2.983 -0.3572 -0.7420 -0.2373
  739MOL0     C 1860   3.455   2.628   2.971  0.0732 -0.0982 -0.2104
  739MOL0     N 1861   3.512   2.718   2.867  0.2480  0.1062  1.0436
  739MOL0     C 1862   3.528   2.675   2.737  0.2655 -1.1996 -0.1994
  739MOL0     C 1863   3.575   2.786   2.676  0.6197 -0.5426 -0.0271
  739MOL0     C 1864   3.629   2.799   2.533  1.1215  0.0556 -0.4835
  739MOL0     C 1865   3.775   2.785   2.532 -0.9666  0.4209 -0.2850
  739MOL0     C 1866   3.824   2.738   2.391 -0.4125  0.8352 -0.1159
  739MOL0     C 1867   3.946   2.825   2.364  0.3051  0.6112 -0.2538
  739MOL0     O 1868   3.976   2.820   2.223 -0.2080  0.3783  0.5624
  739MOL0     C 1869   4.103   2.765   2.182  0.7349  0.4899 -0.7723
  739MOL0     C 1870   4.116   2.757   2.043 -0.0006 -0.2616  0.3405
  739MOL0     C 1871   4.240   2.726   1.981 -0.2356 -0.1389  0.5881
  739MOL0     C 1872   4.252   2.703   1.832 -0.0057  0.5127  0.0514
  739MOL0     C 1873   4.360   2.712   2.065  0.8161  0.7139  0.5091
  739MOL0     C 1874   4.497   2.693   2.013  0.3664 -0.8806 -0.7449
  739MOL0     O 1875   4.542   2.793   1.926 -0.0302  0.2725  0.1624
  739MOL0     C 1876   4.671   2.771   1.866  0.6828  0.2122 -0.3132
  739MOL0     C 1877   4.676   2.796   1.729 -0.4188 -0.1102  0.2714
  739MOL0     C 1878   4.793   2.758   1.655 -0.3347  0.0123 -0.4026
  739MOL0     C 1879   4.910   2.714   1.714 -0.3539  0.0047 -0.3498
  739MOL0     O 1880   5.020   2.669   1.655  0.0383 -0.3539  0.4309
  739MOL0     C 1881   5.116   2.772   1.633 -0.3428 -0.4220  0.8407
  739MOL0     C 1882   5.091   2.827   1.489 -0.2904  0.2057  0.2441
  739MOL0     C 1883   5.137   2.732   1.379 -0.3722 -0.3588  0.1233
  739MOL0     C 1884   5.134   2.802   1.244  0.2418  0.5143 -0.4523
  739MOL0     C 1885   5.149   2.706   1.131  0.2114 -0.8264  0.6206
  739MOL0     C 1886   5.286   2.643   1.123 -0.7532 -0.1264  0.2388
  739MOL0     C 1887   5.327   2.556   1.014 -0.3858  0.1785  0.7210
  739MOL0     C 1888   5.479   2.521   1.010  0.0429 -1.3077  0.0222
  739MOL0    Cl 1889   5.502   2.380   0.901 -0.1702  0.1897  0.7709
  739MOL0     C 1890   4.898   2.703   1.852 -0.4077  1.0653  0.1482
  739MOL0     C 1891   4.788   2.730   1.924  0.2867  0.3658 -0.5367
  739MOL0     O 1892   4.559   2.586   2.045  0.8482 -1.0273  0.4716
  739MOL0     C 1893   4.334   2.694   2.203 -0.9361  0.2834  0.4231
  739MOL0     C 1894   4.213   2.726   2.263  0.8982  0.7464 -0.0235
  739MOL0     N 1895   3.561   2.897   2.761 -0.7334 -0.8356  0.0592
  739MOL0     N 1896   3.543   2.852   2.876  0.0161 -0.5595 -0.0736
  739MOL0     C 1897   2.524   2.930   3.482 -0.0946 -0.2501 -0.0076
  739MOL0     C 1898   2.396   2.981   3.525 -0.4550 -0.2871 -0.5843
  739MOL0     C 1899   2.008   3.011   3.716  0.0194 -0.3755 -0.8724
  739MOL0     C 1900   1.979   3.126   3.644  0.2912 -0.1120 -0.0368
  739MOL0     C 1901   1.896   3.226   3.693  0.0316 -0.0731  0.3177
  739MOL0     C 1902   1.833   3.212   3.816 -0.4800  0.8413 -0.0953
  739MOL0     O 1903   1.760   3.320   3.860 -0.2158  0.4299 -0.4067
  739MOL0     C 1904   1.710   3.323   3.996 -0.4201 -0.5260  0.8425
  739MOL0     C 1905   1.579   3.247   4.010 -0.3092  0.1307 -0.2650
  739MOL0     C 1906   1.464   3.267   3.899 -0.3064  0.6638 -0.0526
  739MOL0     C 1907   1.422   3.412   3.851  0.8209  0.9673  0.0839
  739MOL0     C 1908   1.388   3.501   3.964 -0.8663  0.9291 -0.4550
  739MOL0     C 1909   1.354   3.568   4.060  0.4225  0.1761 -0.2174
  739MOL0     C 1910   1.857   3.095   3.895 -0.4759  0.2539  1.0241
  739MOL0     C 1911   1.945   2.999   3.845 -0.9703  0.4680  0.0057
  739MOL0     C 1912   1.975   2.884   3.937  0.8305  0.5004 -0.2408
  739MOL0     H 1913   2.210   2.712   3.423  0.3618 -0.9927  0.2498
  739MOL0     H 1914   2.424   2.628   3.353 -2.5420  0.0425 -0.5532
  739MOL0     H 1915   2.642   2.630   3.249  2.1907 -0.0798 -1.9580
  739MOL0     H 1916   2.670   2.554   3.419  0.4749  3.1902  4.0110
  739MOL0     H 1917   2.906   2.589   3.384  0.9412  1.8519 -0.6379
  739MOL0     H 1918   2.849   2.490   3.258  0.4869 -0.9392  2.2010
  739MOL0     H 1919   2.832   2.692   3.121 -1.2711 -2.3380  1.5522
  739MOL0     H 1920   2.899   2.794   3.246 -0.5319  0.0579 -0.3095
  739MOL0     H 1921   3.103   2.649   3.246  0.7471 -2.1830 -0.4797
  739MOL0     H 1922   3.045   2.564   3.107  0.0032 -1.0119  2.7869
  739MOL0     H 1923   3.080   2.860   3.102  3.6340  2.3908 -1.9580
  739MOL0     H 1924   3.051   2.749   2.963  0.0826 -0.5574 -0.6480
  739MOL0     H 1925   3.296   2.846   2.997  0.6970 -0.1939  0.8557
  739MOL0     H 1926   3.295   2.776   3.153 -2.2291 -0.7156  0.9532
  739MOL0     H 1927   3.256   2.622   2.886 -0.0050  1.8468 -0.6000
  739MOL0     H 1928   3.276   2.539   3.040  1.7975 -0.6424  1.2198
  739MOL0     H 1929   3.496   2.650   3.070 -1.5232  0.2868  0.3863
  739MOL0     H 1930   3.485   2.529   2.935 -1.3883 -0.1756 -1.2730
  739MOL0     H 1931   3.493   2.579   2.698 -0.6257 -1.5725  1.4229
  739MOL0     H 1932   3.598   2.894   2.490 -2.2998 -2.0809 -3.1869
  739MOL0     H 1933   3.582   2.728   2.466  1.0675  0.2753 -0.6786
  739MOL0     H 1934   3.821   2.875   2.575 -0.9454  0.3958 -0.2551
  739MOL0     H 1935   3.793   2.701   2.599  0.0710 -0.8260 -2.0647
  739MOL0     H 1936   3.849   2.632   2.398 -1.3864  0.4357 -1.9206
  739MOL0     H 1937   3.740   2.742   2.320 -1.9135 -2.5735  1.2499
  739MOL0     H 1938   3.954   2.930   2.391  3.1812  0.8491 -1.5865
  739MOL0     H 1939   4.019   2.782   2.434 -1.1768  0.6592  1.3628
  739MOL0     H 1940   4.027   2.783   1.986  1.1798  1.6043 -0.7766
  739MOL0     H 1941   4.280   2.801   1.792 -3.8978  0.9706 -2.0140
  739MOL0     H 1942   4.152   2.678   1.796 -0.6028  0.4421  1.6816
  739MOL0     H 1943   4.332   2.636   1.799  1.0511  0.6262  2.2313
  739MOL0     H 1944   4.583   2.830   1.685 -0.3735 -1.8714 -1.3496
  739MOL0     H 1945   4.791   2.763   1.546  1.1777 -1.7810 -0.5677
  739MOL0     H 1946   5.109   2.859   1.699  0.0447  0.8109 -0.6859
  739MOL0     H 1947   5.216   2.728   1.634 -2.1812 -5.0792  1.2634
  739MOL0     H 1948   4.984   2.838   1.469 -0.2871 -0.3898 -0.1221
  739MOL0     H 1949   5.135   2.926   1.473 -0.9715  0.5696  0.5913
  739MOL0     H 1950   5.083   2.637   1.378  1.8440 -1.6808 -1.0118
  739MOL0     H 1951   5.242   2.718   1.404 -0.4110  0.3023  0.6904
  739MOL0     H 1952   5.217   2.873   1.245 -1.1402  2.2072  0.9072
  739MOL0     H 1953   5.047   2.869   1.236  2.2765  3.1267 -2.6377
  739MOL0     H 1954   5.074   2.626   1.139  0.1080 -0.8922 -0.7128
  739MOL0     H 1955   5.141   2.772   1.044 -0.7669  0.1907  1.4496
  739MOL0     H 1956   5.301   2.589   1.217  2.4027  3.3745  2.0354
  739MOL0     H 1957   5.356   2.728   1.117 -0.2517 -0.5672 -0.1911
  739MOL0     H 1958   5.295   2.588   0.915  0.6419 -0.2137  0.2558
  739MOL0     H 1959   5.283   2.456   1.028  0.4358 -0.6109 -1.9103
  739MOL0     H 1960   5.522   2.491   1.106  0.2213 -3.1422 -0.5794
  739MOL0     H 1961   5.544   2.603   0.979 -2.8545  0.5555 -1.5523
  739MOL0     H 1962   4.985   2.677   1.911 -0.0745 -0.8929 -1.1138
  739MOL0     H 1963   4.788   2.715   2.032  1.3837 -1.9410 -0.7935
  739MOL0     H 1964   4.431   2.671   2.246 -1.1290 -1.4348  0.0065
  739MOL0     H 1965   4.210   2.719   2.371 -2.5996  0.5213 -0.0339
  739MOL0     H 1966   2.615   2.986   3.497 -0.6752  0.1892  2.1221
  739MOL0     H 1967   2.370   3.079   3.563 -3.9980 -1.0110 -0.7924
  739MOL0     H 1968   2.030   3.146   3.549  0.2156  1.6412  0.2568
  739MOL0     H 1969   1.877   3.319   3.641  0.9668  0.1288  0.3061
  739MOL0     H 1970   1.775   3.278   4.071 -3.1237 -3.1299  1.8114
  739MOL0     H 1971   1.692   3.430   4.014  0.0836 -0.6134  1.9295
  739MOL0     H 1972   1.535   3.266   4.109  0.3666  0.3869 -0.0118
  739MOL0     H 1973   1.602   3.140   4.008 -1.7323 -0.1921 -1.8801
  739MOL0     H 1974   1.495   3.212   3.810 -0.0386 -3.9363  2.5701
  739MOL0     H 1975   1.378   3.209   3.933 -1.3711  3.5699  2.6787
  739MOL0     H 1976   1.329   3.402   3.795  1.2552  0.3365 -0.5394
  739MOL0     H 1977   1.501   3.455   3.788  0.1386  1.5049 -0.4165
  739MOL0     H 1978   1.313   3.610   4.150 -2.0636  2.1842 -2.1352
  739MOL0     H 1979   1.806   3.077   3.989 -0.6776 -0.7754  0.7310
  739MOL0     H 1980   2.082   2.903   3.949  0.8481  0.5015 -0.4027
  739MOL0     H 1981   1.925   2.886   4.034  1.4283 -1.8698  0.1778
  739MOL0     H 1982   1.961   2.785   3.893  0.8019  1.2794 -2.0666
  740MOL0     O 1983   0.458   6.998   6.408 -0.3116  0.3161  0.1494
  740MOL0     C 1984   0.537   6.940   6.332  0.6718 -0.3929  0.7296
  740MOL0     O 1985   0.664   6.902   6.356 -0.1825 -0.0552  0.0072
  740MOL0     C 1986   0.722   6.962   6.460 -0.4232  0.0360  0.2630
  740MOL0     C 1987   0.683   6.937   6.589 -0.6086  0.2632  0.1405
  740MOL0     C 1988   0.727   7.012   6.694  1.0541  0.7796  0.2501
  740MOL0     C 1989   0.827   7.106   6.673  0.0872 -0.2079 -0.2797
  740MOL0     O 1990   0.884   7.189   6.772 -0.5179  0.3269  0.2095
  740MOL0     C 1991   0.815   7.192   6.896 -0.4918  0.8300 -0.3351
  740MOL0     C 1992   0.859   7.302   6.992  0.6142  0.0807 -0.0570
  740MOL0     C 1993   0.996   7.273   7.048 -0.4055 -0.8826 -0.2505
  740MOL0     C 1994   1.114   7.288   6.950  0.2591  0.3808 -0.1547
  740MOL0     C 1995   1.235   7.292   7.044  0.0126  0.2699 -0.1659
  740MOL0     C 1996   1.370   7.284   6.965  0.2503  0.0793  0.6331
  740MOL0     C 1997   1.471   7.244   7.071  0.4124  0.6623 -0.4748
  740MOL0     C 1998   1.610   7.222   7.012  0.2600  0.8971  0.9057
  740MOL0     N 1999   1.705   7.194   7.113 -0.4696  0.3606  0.0171
  740MOL0     C 2000   1.771   7.296   7.175 -0.4943 -0.0725  0.0113
  740MOL0     C 2001   1.829   7.223   7.276 -0.0143  0.0942  0.0927
  740MOL0     C 2002   1.900   7.289   7.398  0.0149  0.3373  1.0417
  740MOL0     C 2003   1.803   7.398   7.447 -0.6602  0.2036  0.6010
  740MOL0     C 2004   1.841   7.456   7.583  0.2749  0.2272 -0.1955
  740MOL0     C 2005   1.767   7.589   7.597 -0.4213 -0.4842  0.1516
  740MOL0     O 2006   1.816   7.697   7.520  0.2278 -0.4992 -0.1559
  740MOL0     C 2007   1.956   7.728   7.532  0.3084 -0.0110  0.0814
  740MOL0     C 2008   2.008   7.832   7.612  0.1948 -0.2855  0.6823
  740MOL0     C 2009   2.145   7.860   7.606 -1.0698  0.0100  0.4323
  740MOL0     C 2010   2.177   7.976   7.688  0.3821  0.6243  0.4033
  740MOL0     C 2011   2.238   7.779   7.536  0.7256  0.1482  0.3641
  740MOL0     C 2012   2.385   7.803   7.536  0.0443 -0.2081  0.1902
  740MOL0     O 2013   2.445   7.696   7.493  0.0213  0.4997  0.5002
  740MOL0     C 2014   2.582   7.689   7.511  0.3151 -1.1086 -0.4701
  740MOL0     C 2015   2.628   7.582   7.585  0.0469 -0.2093  0.3550
  740MOL0     C 2016   2.766   7.561   7.596  0.6814 -0.6215  0.3972
  740MOL0     C 2017   2.861   7.649   7.539  0.2859  0.1263 -0.0228
  740MOL0     O 2018   2.991   7.644   7.566 -0.0498  0.3372  0.3680
  740MOL0     C 2019   3.048   7.544   7.652 -0.1060  0.3813  0.7893
  740MOL0     C 2020   3.210   7.565   7.645 -0.0354 -0.3075  0.7518
  740MOL0     C 2021   3.258   7.531   7.500 -0.9937  0.1730 -0.3913
  740MOL0     C 2022   3.411   7.541   7.490 -0.1867 -0.3414 -0.1965
  740MOL0     C 2023   3.452   7.510   7.338  0.5071 -0.4901  0.8319
  740MOL0     C 2024   3.438   7.363   7.299 -0.6462  0.2440  0.5915
  740MOL0     C 2025   3.453   7.349   7.152 -0.4844  0.1639  0.2127
  740MOL0     C 2026   3.376   7.226   7.093 -0.2163  0.4332 -0.0763
  740MOL0    Cl 2027   3.465   7.084   7.172 -0.1184 -0.2875 -1.0572
  740MOL0     C 2028   2.810   7.764   7.478  0.5799  0.3088 -0.3941
  740MOL0     C 2029   2.678   7.772   7.449 -0.9212 -0.3913 -0.1225
  740MOL0     O 2030   2.440   7.910   7.576  0.5085  0.0979  0.9528
  740MOL0     C 2031   2.179   7.680   7.456  0.2101 -0.0292 -0.1856
  740MOL0     C 2032   2.044   7.662   7.450  0.2941 -0.7998  0.5776
  740MOL0     N 2033   1.797   7.094   7.266  0.4803  0.2820 -0.4687
  740MOL0     N 2034   1.719   7.072   7.169 -0.3900 -0.4435  0.0117
  740MOL0     C 2035   0.869   7.137   6.545  0.3442 -0.6526 -0.2372
  740MOL0     C 2036   0.822   7.055   6.436  0.6851 -0.2412 -0.1530
  740MOL0     C 2037   0.485   6.895   6.205  1.3397 -0.6924 -0.9565
  740MOL0     C 2038   0.395   6.979   6.136 -0.3814  0.2044 -0.1656
  740MOL0     C 2039   0.332   6.940   6.026 -0.5962 -0.1314  0.2692
  740MOL0     C 2040   0.357   6.819   5.965  0.0148 -0.3255  0.2187
  740MOL0     O 2041   0.296   6.799   5.845  0.4235  0.3538 -0.5928
  740MOL0     C 2042   0.310   6.665   5.785 -0.8479 -0.2368  0.1076
  740MOL0     C 2043   0.237   6.655   5.652 -0.3382 -0.2573 -0.3606
  740MOL0     C 2044   0.097   6.722   5.644  0.4240 -0.2171 -0.0660
  740MOL0     C 2045   0.002   6.683   5.755 -0.7566 -1.0504  0.6201
  740MOL0     C 2046  -0.126   6.751   5.745  0.5787 -0.1391  0.4181
  740MOL0     C 2047  -0.231   6.818   5.723 -0.4416  0.5087 -0.0589
  740MOL0     C 2048   0.446   6.729   6.027  0.5761  0.1863  0.1272
  740MOL0     C 2049   0.512   6.768   6.141  0.1295 -0.5058  0.4015
  740MOL0     C 2050   0.629   6.678   6.181  0.2697 -0.4373 -0.4830
  740MOL0     H 2051   0.616   6.856   6.614  2.0819 -1.0870  3.9120
  740MOL0     H 2052   0.676   6.986   6.787 -2.2607 -2.9776 -2.2947
  740MOL0     H 2053   0.826   7.093   6.943 -1.1142 -0.7396 -3.2180
  740MOL0     H 2054   0.708   7.201   6.875 -1.2721 -1.2944  2.1545
  740MOL0     H 2055   0.861   7.396   6.936 -2.0608  0.6693  0.6752
  740MOL0     H 2056   0.799   7.309   7.083  0.5866 -0.9228  0.0201
  740MOL0     H 2057   1.008   7.352   7.123 -0.9762 -0.3808 -0.6741
  740MOL0     H 2058   0.998   7.180   7.105 -1.2016 -0.3967  0.6021
  740MOL0     H 2059   1.112   7.200   6.885 -0.3883 -1.2596  1.9713
  740MOL0     H 2060   1.107   7.376   6.885 -2.3607 -0.4422 -1.0966
  740MOL0     H 2061   1.222   7.215   7.121  0.7997  0.8064  0.5132
  740MOL0     H 2062   1.230   7.384   7.103 -0.9125  0.8376 -1.1021
  740MOL0     H 2063   1.385   7.207   6.889  1.0945  1.9899 -1.2718
  740MOL0     H 2064   1.397   7.375   6.910  0.1192  0.1345  0.6584
  740MOL0     H 2065   1.439   7.155   7.125 -0.2107 -0.1215 -2.0660
  740MOL0     H 2066   1.474   7.318   7.152  1.4785  0.8221 -0.6419
  740MOL0     H 2067   1.601   7.131   6.952  0.2109 -0.1844  2.4877
  740MOL0     H 2068   1.632   7.306   6.947  2.0710  0.0947  0.4174
  740MOL0     H 2069   1.781   7.403   7.163  3.3385  0.1280  3.0379
  740MOL0     H 2070   1.998   7.327   7.368  0.5522 -2.4015 -1.1562
  740MOL0     H 2071   1.906   7.214   7.478  0.8024  0.2672  0.9288
  740MOL0     H 2072   1.789   7.471   7.368  0.2258  0.9359  1.1128
  740MOL0     H 2073   1.708   7.343   7.454 -0.9298  0.7955  1.9277
  740MOL0     H 2074   1.794   7.403   7.666 -1.2454  0.9578 -0.5655
  740MOL0     H 2075   1.949   7.456   7.603  0.0798 -0.0484  0.9556
  740MOL0     H 2076   1.661   7.584   7.570 -0.8339  2.5163  0.7512
  740MOL0     H 2077   1.769   7.613   7.704  0.5832  0.9883 -0.1582
  740MOL0     H 2078   1.936   7.899   7.658 -1.3385 -0.2838 -1.5595
  740MOL0     H 2079   2.094   8.011   7.751  1.5421 -0.7372  2.8214
  740MOL0     H 2080   2.192   8.061   7.621  0.2801  1.0463  0.9160
  740MOL0     H 2081   2.259   7.952   7.756  1.0424 -0.8621 -0.8438
  740MOL0     H 2082   2.568   7.506   7.635 -0.2590 -0.6416 -0.6272
  740MOL0     H 2083   2.792   7.480   7.663 -1.1083 -0.7243  1.0395
  740MOL0     H 2084   3.013   7.562   7.755 -3.0387  0.0111 -0.0440
  740MOL0     H 2085   3.027   7.441   7.622  1.2331  0.1491  0.5929
  740MOL0     H 2086   3.232   7.670   7.663 -1.5089  0.3964 -1.2927
  740MOL0     H 2087   3.268   7.500   7.712  0.8457 -1.5910 -1.1574
  740MOL0     H 2088   3.209   7.600   7.432  0.2374  0.0068 -1.4860
  740MOL0     H 2089   3.228   7.427   7.487 -1.1497 -0.2304  2.5271
  740MOL0     H 2090   3.470   7.486   7.564 -1.6728 -0.4572  0.9577
  740MOL0     H 2091   3.443   7.644   7.510  1.6249 -1.0010  0.4638
  740MOL0     H 2092   3.377   7.566   7.281 -0.3480  1.9072  4.0438
  740MOL0     H 2093   3.553   7.542   7.315 -1.0332  3.1356 -1.7384
  740MOL0     H 2094   3.341   7.332   7.341 -0.1649 -1.2603  0.6658
  740MOL0     H 2095   3.508   7.302   7.357 -2.4965 -1.3106  1.3028
  740MOL0     H 2096   3.559   7.348   7.124  0.2964  3.0268  2.5227
  740MOL0     H 2097   3.411   7.433   7.095 -1.0984 -1.8989 -2.5901
  740MOL0     H 2098   3.383   7.233   6.984  3.5696  2.6676  0.1282
  740MOL0     H 2099   3.276   7.219   7.136 -0.0966  0.0248  0.1374
  740MOL0     H 2100   2.878   7.834   7.431 -0.3660  0.6286 -1.3319
  740MOL0     H 2101   2.654   7.842   7.369 -2.5564  0.9450  1.4407
  740MOL0     H 2102   2.251   7.637   7.388 -0.6192 -0.4180 -0.8402
  740MOL0     H 2103   2.007   7.601   7.369  1.8838  1.8002 -2.3363
  740MOL0     H 2104   0.950   7.207   6.527 -1.2983  0.4806 -4.5791
  740MOL0     H 2105   0.861   7.068   6.336 -1.3769 -1.1072 -1.1179
  740MOL0     H 2106   0.373   7.077   6.176 -1.9322 -0.4775  0.7492
  740MOL0     H 2107   0.266   7.019   5.991  0.1594  0.9293  1.1831
  740MOL0     H 2108   0.416   6.642   5.778 -0.5316 -0.4278  3.8608
  740MOL0     H 2109   0.267   6.594   5.856 -0.0005  0.8960  1.8104
  740MOL0     H 2110   0.235   6.550   5.622 -1.0943  0.0545 -1.4709
  740MOL0     H 2111   0.303   6.707   5.583 -0.1618 -2.6635 -2.1281
  740MOL0     H 2112   0.118   6.829   5.647 -0.7007  0.0031  0.6656
  740MOL0     H 2113   0.049   6.689   5.552  0.3601  0.0910 -0.1457
  740MOL0     H 2114   0.050   6.714   5.849 -0.1936  0.8730 -0.2571
  740MOL0     H 2115  -0.008   6.574   5.749 -0.8417 -0.9479 -2.7222
  740MOL0     H 2116  -0.325   6.869   5.718  0.1675  1.6087 -0.4826
  740MOL0     H 2117   0.492   6.644   5.978 -0.4476  0.3060 -1.0711
  740MOL0     H 2118   0.718   6.737   6.159  0.2962 -1.0003 -1.9925
  740MOL0     H 2119   0.629   6.648   6.286 -0.1672  1.5008  0.1166
  740MOL0     H 2120   0.631   6.587   6.121 -0.6841 -0.9060  0.1689
  741MOL0     O 2121  10.125   7.904   7.530  0.8403 -0.4531  0.0122
  741MOL0     C 2122  10.068   7.998   7.585 -0.3859 -0.9510  0.9461
  741MOL0     O 2123  10.133   8.118   7.617 -0.3105 -0.2276  0.3942
  741MOL0     C 2124  10.259   8.139   7.581 -0.7716  0.2367  0.5264
  741MOL0     C 2125  10.298   8.128   7.441 -0.2898  0.2535 -0.1429
  741MOL0     C 2126  10.435   8.159   7.406 -0.1985 -0.2449 -0.3991
  741MOL0     C 2127  10.543   8.203   7.496  0.4853 -0.1157 -0.8148
  741MOL0     O 2128  10.674   8.220   7.476 -0.2140 -0.2721 -0.1477
  741MOL0     C 2129  10.706   8.248   7.336 -1.4551  0.0292  0.6940
  741MOL0     C 2130  10.858   8.270   7.303 -0.3461 -0.0817  0.6582
  741MOL0     C 2131  10.927   8.386   7.392  0.4331 -0.0173  0.0946
  741MOL0     C 2132  11.078   8.378   7.373 -1.0328  0.0432 -0.1162
  741MOL0     C 2133  11.155   8.482   7.454  0.3523  0.5668  0.7558
  741MOL0     C 2134  11.298   8.433   7.459  0.0860  0.4822 -0.7154
  741MOL0     C 2135  11.391   8.531   7.529 -0.8728  0.0720 -0.1784
  741MOL0     C 2136  11.346   8.559   7.678 -0.0772  0.7575 -0.0449
  741MOL0     N 2137  11.421   8.481   7.783  0.1857 -0.3820 -0.7614
  741MOL0     C 2138  11.461   8.343   7.785 -0.1595 -0.3243 -0.4771
  741MOL0     C 2139  11.516   8.331   7.906 -0.2805 -0.1427 -0.0275
  741MOL0     C 2140  11.568   8.204   7.971  0.0554  0.1033 -0.1246
  741MOL0     C 2141  11.715   8.172   7.932  0.3974 -0.3089  0.0971
  741MOL0     C 2142  11.727   8.150   7.783  0.0676  0.1275  0.3161
  741MOL0     C 2143  11.863   8.080   7.738 -0.0030 -1.0481 -0.3164
  741MOL0     O 2144  11.981   8.145   7.777  0.1957 -0.2464  0.1701
  741MOL0     C 2145  12.101   8.093   7.752 -1.1393 -0.4948  0.4766
  741MOL0     C 2146  12.126   7.969   7.684  1.2499 -0.1963  0.8093
  741MOL0     C 2147  12.259   7.929   7.660 -0.4914  0.0234 -0.1551
  741MOL0     C 2148  12.269   7.802   7.574 -0.1526  0.1006 -0.2387
  741MOL0     C 2149  12.375   8.002   7.708  0.1835 -0.4556  0.3534
  741MOL0     C 2150  12.516   7.960   7.679 -0.3135  0.4205  0.8720
  741MOL0     O 2151  12.617   8.049   7.714 -0.0754 -0.3710  0.3033
  741MOL0     C 2152  12.719   7.983   7.772 -1.1740  0.2258  0.3018
  741MOL0     C 2153  12.836   7.950   7.695 -0.1373 -0.5489  0.2978
  741MOL0     C 2154  12.926   7.849   7.740 -0.3295  0.7374 -0.6835
  741MOL0     C 2155  12.905   7.772   7.856  0.4573 -0.4281  0.5494
  741MOL0     O 2156  12.996   7.677   7.891 -0.5223  0.3029 -0.0382
  741MOL0     C 2157  13.094   7.722   7.985 -0.7900  0.2152  0.5328
  741MOL0     C 2158  13.202   7.615   7.995  0.7006 -0.3503  0.0569
  741MOL0     C 2159  13.328   7.654   7.917 -0.5361  0.3202  0.1546
  741MOL0     C 2160  13.407   7.526   7.903  0.2073  0.3591  0.1935
  741MOL0     C 2161  13.531   7.540   7.811  0.2094  0.7943 -0.0432
  741MOL0     C 2162  13.628   7.649   7.855  0.0243  0.3601 -0.4687
  741MOL0     C 2163  13.691   7.636   7.992 -1.2776  0.8012 -0.8591
  741MOL0     C 2164  13.762   7.502   8.018  0.5767 -0.0534  1.2012
  741MOL0    Cl 2165  13.898   7.459   7.912  0.6268  0.1107 -0.0430
  741MOL0     C 2166  12.799   7.811   7.933 -0.2598 -0.1563  0.4702
  741MOL0     C 2167  12.712   7.918   7.897  0.3594  0.4457  0.3068
  741MOL0     O 2168  12.539   7.847   7.635  0.4828  0.0370  0.2686
  741MOL0     C 2169  12.345   8.115   7.782 -0.2834  0.0336 -0.4811
  741MOL0     C 2170  12.215   8.156   7.802  0.6562 -0.1091  0.2179
  741MOL0     N 2171  11.523   8.449   7.976  0.6900 -0.0541  0.2863
  741MOL0     N 2172  11.471   8.541   7.901  0.1908 -0.2299 -0.3147
  741MOL0     C 2173  10.485   8.219   7.631  0.4917  0.7107 -0.8525
  741MOL0     C 2174  10.352   8.197   7.668 -0.0170 -1.1471  0.2862
  741MOL0     C 2175   9.923   7.991   7.616  0.5028  0.2194  0.1963
  741MOL0     C 2176   9.863   8.066   7.720  0.2346 -0.6277  0.3848
  741MOL0     C 2177   9.726   8.076   7.733 -0.2755  0.6055  0.2690
  741MOL0     C 2178   9.643   7.994   7.657 -0.4906 -0.5776  0.7341
  741MOL0     O 2179   9.508   7.979   7.664  0.5065 -0.9356 -0.1915
  741MOL0     C 2180   9.452   8.030   7.779  0.8323 -0.4713 -0.7809
  741MOL0     C 2181   9.313   7.952   7.800 -0.5457 -0.3949  0.3092
  741MOL0     C 2182   9.201   8.014   7.719 -0.3661 -0.4628  0.2813
  741MOL0     C 2183   9.068   7.942   7.717 -0.7771 -0.3568 -0.0644
  741MOL0     C 2184   9.052   7.824   7.633 -0.1165 -0.3190 -0.3441
  741MOL0     C 2185   9.034   7.737   7.550  0.2090 -0.9127  0.8081
  741MOL0     C 2186   9.704   7.908   7.558 -0.1372 -0.9918  0.4750
  741MOL0     C 2187   9.836   7.914   7.543  0.5974  0.2145  0.0464
  741MOL0     C 2188   9.887   7.810   7.442  0.3805 -0.4555 -0.4182
  741MOL0     H 2189  10.229   8.094   7.365 -0.6719  1.2180 -0.2511
  741MOL0     H 2190  10.472   8.142   7.305  2.1532  2.0092 -0.0132
  741MOL0     H 2191  10.669   8.345   7.303  2.1550  0.9614 -1.1920
  741MOL0     H 2192  10.668   8.169   7.269 -2.3384  0.6747  0.4188
  741MOL0     H 2193  10.893   8.166   7.310 -0.4419 -0.1444  0.2563
  741MOL0     H 2194  10.874   8.305   7.201  1.1790  1.0760  1.2527
  741MOL0     H 2195  10.890   8.480   7.353  0.1210 -0.3074 -0.3185
  741MOL0     H 2196  10.902   8.374   7.498 -1.0363  1.8314  0.0049
  741MOL0     H 2197  11.107   8.277   7.403  0.2973  0.1563 -0.9684
  741MOL0     H 2198  11.117   8.383   7.271 -2.9144 -0.5086 -0.9130
  741MOL0     H 2199  11.107   8.488   7.552  1.1970  0.5666  1.1823
  741MOL0     H 2200  11.148   8.577   7.400 -2.7852 -0.0767 -0.1624
  741MOL0     H 2201  11.299   8.338   7.513  3.3038  1.7816  1.8469
  741MOL0     H 2202  11.337   8.421   7.358  1.0408 -0.8722 -0.2153
  741MOL0     H 2203  11.398   8.626   7.475  0.5845  1.2289  1.8715
  741MOL0     H 2204  11.494   8.496   7.517 -1.2019 -1.1168  0.2906
  741MOL0     H 2205  11.358   8.667   7.689 -0.2242  0.8640 -0.8544
  741MOL0     H 2206  11.242   8.533   7.696 -0.1466  1.8382  1.2603
  741MOL0     H 2207  11.440   8.268   7.710 -0.9847  2.2814 -3.0344
  741MOL0     H 2208  11.495   8.125   7.947  0.5621 -1.2084  2.3229
  741MOL0     H 2209  11.555   8.210   8.079  2.1512 -0.8746  0.2348
  741MOL0     H 2210  11.766   8.264   7.960  0.3569 -0.2041 -0.1668
  741MOL0     H 2211  11.750   8.089   7.994  4.5471  0.1329 -1.3036
  741MOL0     H 2212  11.640   8.090   7.755 -1.5834  2.8376 -0.7295
  741MOL0     H 2213  11.730   8.243   7.727 -0.5466 -0.2843 -0.4276
  741MOL0     H 2214  11.856   7.973   7.760 -2.3582 -1.0427 -0.7974
  741MOL0     H 2215  11.859   8.086   7.629 -0.6129 -0.6943 -0.2781
  741MOL0     H 2216  12.045   7.904   7.652  0.7870 -0.3421  2.2092
  741MOL0     H 2217  12.330   7.729   7.629  1.4864  1.7490  0.2396
  741MOL0     H 2218  12.318   7.828   7.480 -0.1481  1.6349  0.1500
  741MOL0     H 2219  12.177   7.755   7.541  1.5529 -4.1915  0.4786
  741MOL0     H 2220  12.850   7.997   7.598 -1.6050 -2.3325 -0.8546
  741MOL0     H 2221  13.015   7.827   7.681 -0.5766 -1.1624 -0.4091
  741MOL0     H 2222  13.146   7.807   7.940  0.4031 -0.6862  0.1654
  741MOL0     H 2223  13.052   7.737   8.085 -0.6332  3.4130  0.2218
  741MOL0     H 2224  13.227   7.602   8.101  0.4248  0.1127  0.1796
  741MOL0     H 2225  13.159   7.522   7.956 -0.2821 -0.5919  1.6252
  741MOL0     H 2226  13.396   7.719   7.973 -0.2948 -0.4095  0.7315
  741MOL0     H 2227  13.301   7.694   7.819 -3.1842 -0.3739  0.5244
  741MOL0     H 2228  13.340   7.448   7.866  0.0320  0.2215  0.7851
  741MOL0     H 2229  13.437   7.498   8.005  1.3038 -2.0651 -0.7166
  741MOL0     H 2230  13.581   7.442   7.812 -0.9824  0.1650 -0.0198
  741MOL0     H 2231  13.492   7.557   7.710 -3.2603 -0.8059  0.8758
  741MOL0     H 2232  13.571   7.741   7.847 -2.1227 -0.9121 -0.4310
  741MOL0     H 2233  13.718   7.648   7.792  1.3911  0.5579  1.3753
  741MOL0     H 2234  13.614   7.650   8.069 -1.9375  1.4017 -1.6146
  741MOL0     H 2235  13.767   7.713   8.007  1.7493 -2.3238  1.5152
  741MOL0     H 2236  13.682   7.428   8.015 -0.9541  1.5274  1.1333
  741MOL0     H 2237  13.806   7.494   8.118  0.2003 -3.9360  1.1819
  741MOL0     H 2238  12.777   7.752   8.022 -0.0040 -3.7160 -1.6426
  741MOL0     H 2239  12.622   7.930   7.957 -0.3495 -0.4718 -0.5563
  741MOL0     H 2240  12.428   8.171   7.825  1.3708 -2.6670  0.1098
  741MOL0     H 2241  12.212   8.249   7.857 -0.6245 -0.0390  0.0387
  741MOL0     H 2242  10.555   8.249   7.708  0.8581 -0.9439 -0.5077
  741MOL0     H 2243  10.310   8.226   7.764 -1.9617  0.6291 -1.0031
  741MOL0     H 2244   9.931   8.133   7.772  0.1923  1.4668 -2.0973
  741MOL0     H 2245   9.684   8.137   7.812  0.9636 -1.1965  2.4542
  741MOL0     H 2246   9.517   8.010   7.865  1.7164  0.0683 -1.2985
  741MOL0     H 2247   9.428   8.136   7.762 -0.9722 -1.3536 -4.9548
  741MOL0     H 2248   9.283   7.960   7.905 -1.8534  0.4775 -0.1104
  741MOL0     H 2249   9.325   7.847   7.772 -0.0803 -0.5246  0.9574
  741MOL0     H 2250   9.186   8.118   7.748 -0.4741  0.1554 -1.8169
  741MOL0     H 2251   9.239   8.011   7.616 -0.9038 -1.6574  0.0981
  741MOL0     H 2252   8.985   8.011   7.697 -0.3538  0.6972  1.6152
  741MOL0     H 2253   9.045   7.908   7.818  1.0337 -2.2169 -0.2262
  741MOL0     H 2254   9.021   7.665   7.472  0.3615 -3.1848  2.7590
  741MOL0     H 2255   9.626   7.856   7.505  1.1762 -0.6674 -1.8950
  741MOL0     H 2256   9.918   7.862   7.350 -1.9065  0.8042 -0.5701
  741MOL0     H 2257   9.968   7.744   7.471  1.5487  1.0306 -0.1539
  741MOL0     H 2258   9.800   7.747   7.419 -0.3018  0.5991 -0.8171
  742MOL0     O 2259   5.265   0.082   6.620 -0.3292 -0.1931 -0.1274
  742MOL0     C 2260   5.179   0.113   6.700  0.2105 -0.0154  0.4238
  742MOL0     O 2261   5.191   0.215   6.788  0.3274  0.1411 -0.2108
  742MOL0     C 2262   5.303   0.293   6.774  0.5908  0.4507 -0.3075
  742MOL0     C 2263   5.430   0.260   6.809 -0.3370 -0.1761 -0.3905
  742MOL0     C 2264   5.535   0.348   6.795 -0.1706 -0.5594 -0.2560
  742MOL0     C 2265   5.508   0.478   6.746 -0.2805 -0.4860 -0.4154
  742MOL0     O 2266   5.602   0.576   6.725 -0.3607 -0.1640  0.0395
  742MOL0     C 2267   5.721   0.528   6.643  0.1318  0.3174 -0.2646
  742MOL0     C 2268   5.835   0.624   6.681 -0.0658  0.2924  0.6138
  742MOL0     C 2269   5.973   0.566   6.682 -0.5033  0.7397 -0.1535
  742MOL0     C 2270   6.083   0.647   6.765 -0.3737  0.1282  0.0589
  742MOL0     C 2271   6.213   0.563   6.783  0.4848 -0.9331  0.0132
  742MOL0     C 2272   6.316   0.641   6.868  0.0604  0.1096  0.1120
  742MOL0     C 2273   6.424   0.537   6.909 -0.6838 -0.1918  0.0414
  742MOL0     C 2274   6.521   0.615   6.993 -0.3144 -0.4092 -0.7170
  742MOL0     N 2275   6.620   0.534   7.067 -0.9060 -0.3353 -0.0931
  742MOL0     C 2276   6.656   0.415   7.038 -0.2745  0.5888  0.3560
  742MOL0     C 2277   6.733   0.369   7.138 -0.4510 -0.4839 -1.2829
  742MOL0     C 2278   6.782   0.227   7.148  0.3149 -0.0200  0.0256
  742MOL0     C 2279   6.910   0.196   7.072 -0.1837  0.6952  0.7651
  742MOL0     C 2280   6.932   0.046   7.051  0.0719 -0.4260  0.2622
  742MOL0     C 2281   7.050   0.025   6.958 -0.4679 -0.0158  0.2572
  742MOL0     O 2282   7.092  -0.117   6.975 -0.1347  0.9804  0.2764
  742MOL0     C 2283   7.213  -0.164   6.939  1.0096  1.1620  0.0031
  742MOL0     C 2284   7.308  -0.106   6.856  0.9153 -0.7682  0.2854
  742MOL0     C 2285   7.427  -0.176   6.830 -0.2007 -1.0814  0.2381
  742MOL0     C 2286   7.514  -0.108   6.722  0.0404 -1.0962 -0.4275
  742MOL0     C 2287   7.450  -0.309   6.882 -0.2358 -0.4852  0.1318
  742MOL0     C 2288   7.584  -0.369   6.865 -0.5788 -0.3459 -0.4661
  742MOL0     O 2289   7.628  -0.453   6.974 -0.1791  0.2396  0.1826
  742MOL0     C 2290   7.758  -0.505   6.951  0.3346  0.6466  0.0790
  742MOL0     C 2291   7.871  -0.433   6.975 -0.5243  0.5363 -0.0050
  742MOL0     C 2292   7.988  -0.502   6.951  0.8336  0.1008 -0.6731
  742MOL0     C 2293   8.007  -0.626   6.886 -0.3246  0.0181  0.1206
  742MOL0     O 2294   8.126  -0.681   6.853  0.1552 -0.2994 -0.1288
  742MOL0     C 2295   8.242  -0.604   6.823  0.5330  0.2029  0.4971
  742MOL0     C 2296   8.211  -0.507   6.711  0.3142 -0.0311  0.5657
  742MOL0     C 2297   8.345  -0.462   6.645  0.4192  0.5914  0.1096
  742MOL0     C 2298   8.323  -0.331   6.570  0.0306  0.8348  0.4497
  742MOL0     C 2299   8.453  -0.281   6.512  0.8801 -0.4872  0.1269
  742MOL0     C 2300   8.510  -0.381   6.403  0.8083 -0.5927 -0.6572
  742MOL0     C 2301   8.648  -0.336   6.380 -0.0912  0.0842  0.7097
  742MOL0     C 2302   8.721  -0.402   6.259 -0.8385  0.1034  0.0230
  742MOL0    Cl 2303   8.884  -0.351   6.244 -0.4087  0.2924  0.0503
  742MOL0     C 2304   7.888  -0.698   6.868  0.3881  0.3523 -0.8090
  742MOL0     C 2305   7.767  -0.636   6.908  0.6950 -0.1226 -0.4375
  742MOL0     O 2306   7.645  -0.351   6.758  0.4772 -0.0259 -0.4756
  742MOL0     C 2307   7.349  -0.374   6.959  0.0710  0.1412 -0.2102
  742MOL0     C 2308   7.237  -0.295   6.986 -0.0755  0.0209  0.2776
  742MOL0     N 2309   6.751   0.468   7.231 -0.1665  0.1193 -0.6146
  742MOL0     N 2310   6.679   0.573   7.184 -0.6383 -0.2155  0.4351
  742MOL0     C 2311   5.374   0.501   6.705 -0.9365  0.4513  0.2508
  742MOL0     C 2312   5.272   0.408   6.716 -0.0769  0.6690  0.3066
  742MOL0     C 2313   5.046   0.041   6.683 -0.1993 -0.1572  0.2367
  742MOL0     C 2314   4.948   0.065   6.779  0.0089 -0.2549 -0.5794
  742MOL0     C 2315   4.822   0.008   6.770  0.3890  0.3012 -0.6823
  742MOL0     C 2316   4.787  -0.080   6.666 -0.7546  0.4176  0.4348
  742MOL0     O 2317   4.663  -0.139   6.646 -0.8074  0.2525  0.1018
  742MOL0     C 2318   4.543  -0.070   6.680 -0.1965 -0.6306 -0.2642
  742MOL0     C 2319   4.515   0.037   6.572 -0.0504 -0.6937  0.6222
  742MOL0     C 2320   4.512  -0.029   6.420 -1.0107 -0.6584 -0.5651
  742MOL0     C 2321   4.397  -0.125   6.391  0.8912 -1.3198 -0.1499
  742MOL0     C 2322   4.269  -0.058   6.400  0.4966  0.0547  0.3165
  742MOL0     C 2323   4.159  -0.013   6.410  0.0823  0.4519 -0.4937
  742MOL0     C 2324   4.883  -0.107   6.568  0.0564  0.3887  0.5713
  742MOL0     C 2325   5.014  -0.051   6.575  0.2474 -0.4406 -0.8511
  742MOL0     C 2326   5.108  -0.092   6.461 -0.7341 -0.8398 -0.8076
  742MOL0     H 2327   5.437   0.159   6.849 -0.4426 -1.3333 -3.0800
  742MOL0     H 2328   5.631   0.313   6.831  1.3849  4.0758  0.8874
  742MOL0     H 2329   5.714   0.528   6.533  2.2819 -1.5257 -0.4663
  742MOL0     H 2330   5.734   0.421   6.663 -0.2847  0.2036 -0.5572
  742MOL0     H 2331   5.829   0.706   6.609 -3.5854 -1.2905 -1.1739
  742MOL0     H 2332   5.820   0.656   6.785 -0.4672 -0.8529  0.9247
  742MOL0     H 2333   5.974   0.464   6.722  2.4013  1.7766  2.8619
  742MOL0     H 2334   6.008   0.541   6.582 -0.9059  0.2659 -0.1787
  742MOL0     H 2335   6.100   0.741   6.712 -1.5904 -0.8663 -2.2399
  742MOL0     H 2336   6.049   0.662   6.868  1.8445  1.6774  0.6431
  742MOL0     H 2337   6.251   0.524   6.688 -0.0244 -2.5979  0.4567
  742MOL0     H 2338   6.181   0.482   6.849  0.1044 -0.5422  0.3179
  742MOL0     H 2339   6.349   0.713   6.793 -2.7715  0.5886 -0.8011
  742MOL0     H 2340   6.266   0.693   6.950  0.6558 -0.4136  0.8278
  742MOL0     H 2341   6.467   0.497   6.816 -1.0984  0.0352 -0.2517
  742MOL0     H 2342   6.383   0.455   6.969 -0.4536  0.2398  0.7988
  742MOL0     H 2343   6.565   0.692   6.929 -1.4452  0.1045 -0.9088
  742MOL0     H 2344   6.460   0.663   7.071  0.2252 -1.6871  0.5457
  742MOL0     H 2345   6.632   0.360   6.947  0.8759 -0.2612  0.5317
  742MOL0     H 2346   6.705   0.157   7.114  0.5860 -0.7583  0.8940
  742MOL0     H 2347   6.803   0.203   7.253 -1.8771  0.7201  0.6919
  742MOL0     H 2348   6.898   0.242   6.974  1.4261 -2.4272 -1.0415
  742MOL0     H 2349   7.000   0.245   7.112 -0.5933  1.9059  0.2494
  742MOL0     H 2350   6.958   0.000   7.146 -1.4213 -1.2176  0.3251
  742MOL0     H 2351   6.834   0.004   7.024 -3.2172  4.6638  2.7402
  742MOL0     H 2352   7.030   0.052   6.855  0.5894  2.6722  0.6896
  742MOL0     H 2353   7.132   0.092   6.984 -0.1124 -0.2832 -0.1576
  742MOL0     H 2354   7.287  -0.010   6.810 -0.4780 -0.6425  1.1197
  742MOL0     H 2355   7.619  -0.117   6.753 -0.0228  1.3515  0.6478
  742MOL0     H 2356   7.495  -0.001   6.711  0.8502 -0.8052  0.7457
  742MOL0     H 2357   7.491  -0.156   6.627 -1.3408 -0.9504 -0.1859
  742MOL0     H 2358   7.858  -0.332   7.011  1.2421  1.4996 -1.8651
  742MOL0     H 2359   8.084  -0.458   6.975  0.3077  0.0868  1.7049
  742MOL0     H 2360   8.282  -0.566   6.917  2.2760 -0.2439 -0.0210
  742MOL0     H 2361   8.313  -0.678   6.786 -2.7996 -2.0397 -2.0752
  742MOL0     H 2362   8.160  -0.558   6.629  1.7712 -0.4069 -0.1527
  742MOL0     H 2363   8.148  -0.422   6.740 -2.0028 -1.3442 -0.3858
  742MOL0     H 2364   8.374  -0.545   6.581 -3.0303 -2.0638  1.6307
  742MOL0     H 2365   8.422  -0.439   6.719 -1.6583  3.1622  1.6548
  742MOL0     H 2366   8.285  -0.256   6.640 -1.6770 -1.0284  1.6376
  742MOL0     H 2367   8.247  -0.355   6.495  0.2060 -1.0014  0.8268
  742MOL0     H 2368   8.432  -0.183   6.466 -0.5664  1.0176  3.6343
  742MOL0     H 2369   8.523  -0.254   6.592  0.0298  0.8906  0.4506
  742MOL0     H 2370   8.442  -0.375   6.318 -0.4093 -0.7489  0.2749
  742MOL0     H 2371   8.504  -0.482   6.444 -0.7626  0.6645  2.6185
  742MOL0     H 2372   8.698  -0.358   6.475 -0.8550 -2.1821  0.6520
  742MOL0     H 2373   8.649  -0.228   6.361  0.0656  0.0327  0.4223
  742MOL0     H 2374   8.660  -0.377   6.172 -0.1431 -0.6199 -0.6943
  742MOL0     H 2375   8.707  -0.508   6.282 -2.3257  0.4622  0.8880
  742MOL0     H 2376   7.884  -0.800   6.830  0.4135  0.1951 -0.4006
  742MOL0     H 2377   7.675  -0.691   6.891  0.3487 -0.5474  2.3470
  742MOL0     H 2378   7.366  -0.472   7.003  0.8884  0.7541  0.8994
  742MOL0     H 2379   7.158  -0.341   7.045  0.3882 -1.2152 -0.0426
  742MOL0     H 2380   5.354   0.601   6.669  0.9097  1.0604  0.8179
  742MOL0     H 2381   5.171   0.434   6.687  0.3837  2.0424 -0.1397
  742MOL0     H 2382   4.957   0.141   6.856  1.5144  1.3041 -2.1986
  742MOL0     H 2383   4.750   0.035   6.847  1.3587  1.0642 -0.0250
  742MOL0     H 2384   4.463  -0.143   6.689 -0.7243 -0.2602 -1.7626
  742MOL0     H 2385   4.552  -0.014   6.774 -1.9404  0.7691 -0.8753
  742MOL0     H 2386   4.594   0.111   6.586 -0.9837  0.6854 -1.0593
  742MOL0     H 2387   4.425   0.094   6.596 -0.4030 -0.7003 -0.6218
  742MOL0     H 2388   4.517   0.053   6.347 -0.4837  1.1350  1.3667
  742MOL0     H 2389   4.603  -0.086   6.401  0.0651  0.5651  0.6694
  742MOL0     H 2390   4.413  -0.208   6.460  3.7483 -0.2492  0.6234
  742MOL0     H 2391   4.410  -0.172   6.292 -0.0014  0.0090 -0.9317
  742MOL0     H 2392   4.060   0.026   6.418 -1.3143 -2.8985  0.4430
  742MOL0     H 2393   4.872  -0.168   6.479  2.9174  0.6359 -0.0491
  742MOL0     H 2394   5.061  -0.148   6.380 -0.4056  0.5993 -2.0445
  742MOL0     H 2395   5.143  -0.002   6.409  0.9228 -1.5988 -1.0579
  742MOL0     H 2396   5.203  -0.134   6.495 -2.0927 -0.5885  4.0070
  743MOL0     O 2397   9.131   3.201   4.432  0.2182 -0.0065  1.0682
  743MOL0     C 2398   9.131   3.240   4.318  0.2287 -0.2736 -0.3832
  743MOL0     O 2399   9.198   3.343   4.272 -0.7531 -0.4338  0.3622
  743MOL0     C 2400   9.290   3.403   4.356  0.3675  0.5759 -0.6775
  743MOL0     C 2401   9.381   3.340   4.452  0.6097  0.4661 -0.2308
  743MOL0     C 2402   9.483   3.410   4.515 -0.7337 -0.2387 -0.2205
  743MOL0     C 2403   9.512   3.549   4.474 -0.1825  0.8242 -0.5669
  743MOL0     O 2404   9.608   3.621   4.532  0.4454  0.4290 -0.4261
  743MOL0     C 2405   9.708   3.551   4.609 -0.1752  0.7318 -0.1361
  743MOL0     C 2406   9.822   3.646   4.625  0.7951  0.0664 -0.5887
  743MOL0     C 2407   9.924   3.597   4.729  0.2486  0.4304  0.8007
  743MOL0     C 2408  10.047   3.680   4.734 -0.1954 -0.1407  1.4423
  743MOL0     C 2409  10.138   3.621   4.845  0.2772 -0.4258 -0.4579
  743MOL0     C 2410  10.278   3.688   4.856  0.5285 -0.4154 -0.4533
  743MOL0     C 2411  10.362   3.605   4.951 -0.4937  0.4734  0.1156
  743MOL0     C 2412  10.498   3.672   4.956 -0.4523 -0.3660  0.0730
  743MOL0     N 2413  10.509   3.772   5.063  0.1108  0.1639  0.3482
  743MOL0     C 2414  10.503   3.735   5.193 -0.6736 -0.2895 -0.0443
  743MOL0     C 2415  10.527   3.851   5.262 -0.8523  0.0405  0.4832
  743MOL0     C 2416  10.540   3.874   5.406  0.0439 -0.6186 -0.4435
  743MOL0     C 2417  10.663   3.804   5.461 -0.2713  0.4316 -0.1424
  743MOL0     C 2418  10.791   3.886   5.449 -0.6906  0.2678 -0.1868
  743MOL0     C 2419  10.909   3.795   5.446 -0.6738  1.1700  0.6091
  743MOL0     O 2420  11.014   3.879   5.397  0.6976  0.4566  0.7316
  743MOL0     C 2421  11.145   3.842   5.425 -0.2758  0.8086 -0.2122
  743MOL0     C 2422  11.186   3.707   5.446  1.1036 -0.0163  0.2550
  743MOL0     C 2423  11.321   3.675   5.455  0.3169  0.0511  0.5045
  743MOL0     C 2424  11.350   3.523   5.466 -0.3391  0.3673  0.3982
  743MOL0     C 2425  11.422   3.777   5.444  0.8633 -0.2191 -1.0071
  743MOL0     C 2426  11.571   3.758   5.443 -0.4359  0.1457 -1.0605
  743MOL0     O 2427  11.653   3.864   5.444  0.2262 -1.0331  0.1692
  743MOL0     C 2428  11.790   3.852   5.468 -0.1973 -0.6672 -0.3322
  743MOL0     C 2429  11.864   3.762   5.540  1.2067  0.2656 -0.1699
  743MOL0     C 2430  12.000   3.766   5.543 -0.2136  0.2518  0.1235
  743MOL0     C 2431  12.069   3.870   5.480  0.0307 -0.6572  0.5158
  743MOL0     O 2432  12.210   3.870   5.498  0.6068  0.3842 -0.3055
  743MOL0     C 2433  12.283   3.987   5.504 -0.7568  0.2018  1.0738
  743MOL0     C 2434  12.440   3.947   5.512  0.4534  0.3702  0.1853
  743MOL0     C 2435  12.534   4.076   5.512  0.5167 -0.1829  0.6476
  743MOL0     C 2436  12.665   4.041   5.434  1.0163  0.3750 -0.5088
  743MOL0     C 2437  12.746   4.171   5.418 -0.2593 -0.1712 -0.3861
  743MOL0     C 2438  12.835   4.163   5.301 -1.0116  0.1826  0.8550
  743MOL0     C 2439  12.908   4.295   5.293  0.0967 -0.0373  0.2028
  743MOL0     C 2440  13.045   4.277   5.230  0.2465 -0.5028  0.8962
  743MOL0    Cl 2441  13.179   4.359   5.331  0.1935 -0.0709 -0.0114
  743MOL0     C 2442  11.997   3.959   5.403  0.6404 -0.1195  0.1141
  743MOL0     C 2443  11.858   3.956   5.403  0.2134 -0.7767  0.5174
  743MOL0     O 2444  11.612   3.643   5.445  0.9052  0.3432  0.6480
  743MOL0     C 2445  11.373   3.907   5.431 -0.4730 -0.0085 -0.5863
  743MOL0     C 2446  11.237   3.938   5.426  0.9437 -0.2153 -0.2889
  743MOL0     N 2447  10.558   3.955   5.171 -0.2022  0.5852 -0.4511
  743MOL0     N 2448  10.541   3.900   5.056  0.2207  0.0500  0.3483
  743MOL0     C 2449   9.429   3.610   4.383  0.2058 -0.5121 -1.0679
  743MOL0     C 2450   9.326   3.534   4.324  0.0498 -0.0878 -0.4340
  743MOL0     C 2451   9.055   3.148   4.228 -0.2679  0.2057  0.6410
  743MOL0     C 2452   8.923   3.100   4.264 -0.3832  0.1768 -0.3067
  743MOL0     C 2453   8.853   3.017   4.183 -0.1973  0.3911  0.2694
  743MOL0     C 2454   8.913   2.970   4.061  0.1941  0.2457 -0.2602
  743MOL0     O 2455   8.854   2.898   3.956  0.4510  0.7529  0.0988
  743MOL0     C 2456   8.714   2.892   3.945 -0.2074 -0.0568 -1.2277
  743MOL0     C 2457   8.671   2.801   3.831 -0.4932 -0.4297  0.5223
  743MOL0     C 2458   8.514   2.782   3.837  0.4660  0.1241 -0.7863
  743MOL0     C 2459   8.456   2.681   3.734 -0.7177  0.1513 -0.2799
  743MOL0     C 2460   8.317   2.650   3.755  0.6335  0.4257  0.0610
  743MOL0     C 2461   8.199   2.613   3.768 -0.3517  0.1325 -0.5300
  743MOL0     C 2462   9.040   3.013   4.032  0.7980 -0.2152 -0.0363
  743MOL0     C 2463   9.118   3.085   4.118  0.8618  0.6763  0.3071
  743MOL0     C 2464   9.262   3.106   4.083  0.1579 -0.4941 -0.5494
  743MOL0     H 2465   9.364   3.238   4.485 -3.0409  1.1864  0.5639
  743MOL0     H 2466   9.531   3.353   4.594 -0.0790 -0.8867 -1.0714
  743MOL0     H 2467   9.741   3.458   4.562  0.7835 -0.4480  2.6467
  743MOL0     H 2468   9.662   3.528   4.706 -1.8708 -2.1791 -1.4977
  743MOL0     H 2469   9.866   3.650   4.525  2.2932 -1.2449 -0.0213
  743MOL0     H 2470   9.786   3.746   4.650  3.0885  0.5385  1.1972
  743MOL0     H 2471   9.884   3.591   4.831 -1.5688 -3.8962  0.0986
  743MOL0     H 2472   9.959   3.496   4.706 -0.3792 -0.5278  3.6638
  743MOL0     H 2473  10.098   3.672   4.638 -0.0907  0.8909  1.3973
  743MOL0     H 2474  10.030   3.788   4.737  2.4954  0.4586 -0.6627
  743MOL0     H 2475  10.152   3.515   4.820  0.4126 -0.1857 -1.4416
  743MOL0     H 2476  10.087   3.604   4.940 -1.0572 -4.5201 -1.6915
  743MOL0     H 2477  10.307   3.687   4.750  1.7031  2.4004 -0.2367
  743MOL0     H 2478  10.268   3.790   4.894  0.6134  0.1447 -1.8494
  743MOL0     H 2479  10.386   3.504   4.915 -1.4067  0.3213 -0.0934
  743MOL0     H 2480  10.302   3.589   5.041 -0.5011  1.2153  0.2406
  743MOL0     H 2481  10.582   3.603   4.971 -0.4328  0.0325  2.2044
  743MOL0     H 2482  10.510   3.720   4.859 -4.4985 -1.5071 -1.2079
  743MOL0     H 2483  10.475   3.638   5.233  1.2962 -0.5404  0.8724
  743MOL0     H 2484  10.450   3.832   5.452 -0.3071 -0.8656 -1.3545
  743MOL0     H 2485  10.538   3.979   5.437 -2.0926 -0.5093 -0.7955
  743MOL0     H 2486  10.648   3.772   5.564 -1.5933 -1.9237 -0.9724
  743MOL0     H 2487  10.670   3.706   5.412 -1.3616 -0.0917  0.7050
  743MOL0     H 2488  10.786   3.928   5.348 -0.1241 -1.6798 -1.0605
  743MOL0     H 2489  10.803   3.962   5.527  1.5864  1.1388 -1.3020
  743MOL0     H 2490  10.943   3.744   5.537  2.3939  0.7817 -0.6134
  743MOL0     H 2491  10.882   3.709   5.384  0.8725  0.6171  0.6540
  743MOL0     H 2492  11.113   3.628   5.460 -0.5557  1.3729 -0.2309
  743MOL0     H 2493  11.380   3.494   5.568  0.0408 -0.8484 -0.0350
  743MOL0     H 2494  11.423   3.493   5.391 -3.4035 -0.2287 -2.5508
  743MOL0     H 2495  11.265   3.459   5.439  1.3902 -0.5398 -3.5518
  743MOL0     H 2496  11.815   3.681   5.594  0.0632  0.4142 -0.9492
  743MOL0     H 2497  12.066   3.703   5.601  0.0433 -1.4508 -1.9090
  743MOL0     H 2498  12.273   4.056   5.420 -2.6033 -1.4239 -0.1139
  743MOL0     H 2499  12.262   4.052   5.589 -1.7149 -0.3811  1.2938
  743MOL0     H 2500  12.464   3.898   5.607 -1.8611 -0.4649  0.4061
  743MOL0     H 2501  12.472   3.883   5.430  2.0608  1.1268  0.1922
  743MOL0     H 2502  12.556   4.101   5.616  0.2947 -0.4097  0.7503
  743MOL0     H 2503  12.477   4.160   5.470  0.3061 -0.4391  0.4143
  743MOL0     H 2504  12.635   4.001   5.337 -0.8676  0.7995 -0.1273
  743MOL0     H 2505  12.726   3.957   5.469  0.8718 -0.9191 -3.1008
  743MOL0     H 2506  12.679   4.258   5.425 -1.9932 -1.4851  0.0866
  743MOL0     H 2507  12.820   4.175   5.498  1.7064  3.9242 -2.1128
  743MOL0     H 2508  12.768   4.152   5.215 -0.3990  1.8135  0.1403
  743MOL0     H 2509  12.893   4.073   5.325 -1.9862 -0.4096  1.0529
  743MOL0     H 2510  12.913   4.347   5.389 -1.0081 -0.1549  0.3357
  743MOL0     H 2511  12.842   4.361   5.236 -1.1766 -1.1075  0.3567
  743MOL0     H 2512  13.048   4.319   5.129  1.2691 -0.9754  0.7120
  743MOL0     H 2513  13.072   4.171   5.230 -0.0028 -0.6552 -2.3623
  743MOL0     H 2514  12.039   4.047   5.356 -0.6533 -0.4280 -1.7258
  743MOL0     H 2515  11.812   4.037   5.348  0.9400  0.0912  1.1577
  743MOL0     H 2516  11.443   3.987   5.452 -1.7159  0.3082  3.1077
  743MOL0     H 2517  11.198   4.038   5.412  3.8327  0.7494 -2.7297
  743MOL0     H 2518   9.448   3.708   4.341 -0.0202 -0.7162 -1.6554
  743MOL0     H 2519   9.280   3.587   4.241 -1.8021  1.2757  1.3418
  743MOL0     H 2520   8.880   3.126   4.360  0.7594  2.9331 -0.4557
  743MOL0     H 2521   8.757   2.974   4.211  0.4377 -1.9753 -0.8653
  743MOL0     H 2522   8.674   2.863   4.042 -0.1334  1.8821 -0.5667
  743MOL0     H 2523   8.672   2.991   3.927 -0.2831  0.2080  0.3120
  743MOL0     H 2524   8.723   2.705   3.829  1.9889  0.7676 -3.1746
  743MOL0     H 2525   8.689   2.849   3.734 -1.1188 -3.0061 -0.9544
  743MOL0     H 2526   8.491   2.741   3.936  0.2918  0.2873 -0.7586
  743MOL0     H 2527   8.456   2.874   3.826 -3.1361 -1.4911  2.3707
  743MOL0     H 2528   8.503   2.586   3.761  1.7790  1.6721  1.0911
  743MOL0     H 2529   8.477   2.711   3.631 -0.0616  2.6814  0.5024
  743MOL0     H 2530   8.106   2.569   3.795  0.1554  0.1984  1.4687
  743MOL0     H 2531   9.085   2.994   3.935  1.5295  0.1537  0.2211
  743MOL0     H 2532   9.271   3.213   4.063 -0.8710 -0.8056 -2.9912
  743MOL0     H 2533   9.326   3.076   4.167 -0.4896 -2.1861 -0.6145
  743MOL0     H 2534   9.299   3.059   3.991 -0.4675  2.1889 -2.2767
  744MOL0     O 2535   6.760   6.945  10.202  0.3670 -0.5423  0.1328
  744MOL0     C 2536   6.735   7.012  10.301 -0.3953 -0.2580  0.0611
  744MOL0     O 2537   6.812   7.021  10.415 -0.1733  0.0658 -0.3650
  744MOL0     C 2538   6.939   6.975  10.439 -0.3512 -0.1227 -0.6432
  744MOL0     C 2539   6.984   6.996  10.566 -0.6401  0.7969  0.5505
  744MOL0     C 2540   7.110   6.962  10.612 -0.4154 -0.3274 -0.2103
  744MOL0     C 2541   7.203   6.907  10.520 -0.0676 -1.3995  0.1107
  744MOL0     O 2542   7.339   6.891  10.559 -0.3760  0.1725  0.0834
  744MOL0     C 2543   7.420   6.786  10.503 -0.0267 -0.2049  0.4332
  744MOL0     C 2544   7.357   6.657  10.567 -0.2444  0.6198  0.0468
  744MOL0     C 2545   7.356   6.642  10.724 -0.8470  0.2754 -0.4297
  744MOL0     C 2546   7.489   6.675  10.797  0.2056  0.3249 -0.1359
  744MOL0     C 2547   7.466   6.655  10.954  0.3721  0.5455  0.5449
  744MOL0     C 2548   7.438   6.511  10.992  0.5021  0.5161  0.1448
  744MOL0     C 2549   7.537   6.397  10.957  0.3322 -0.1552 -0.0239
  744MOL0     C 2550   7.679   6.419  11.004 -0.8096  0.4738  0.6157
  744MOL0     N 2551   7.771   6.302  10.999 -0.2916 -0.1936  0.6391
  744MOL0     C 2552   7.767   6.206  10.894  0.4819 -0.4651 -0.3846
  744MOL0     C 2553   7.871   6.123  10.912  1.0518  1.2587 -0.3044
  744MOL0     C 2554   7.914   6.010  10.829 -0.0461  0.3572  0.2733
  744MOL0     C 2555   7.983   6.066  10.712 -0.3110 -0.6485 -0.2512
  744MOL0     C 2556   7.906   6.155  10.610  0.8514 -0.4671 -0.5805
  744MOL0     C 2557   7.971   6.175  10.482 -0.1468 -0.8188 -0.2066
  744MOL0     O 2558   8.081   6.261  10.508 -0.0230 -0.3201 -0.0299
  744MOL0     C 2559   8.178   6.272  10.415 -0.2335  0.5482  0.1551
  744MOL0     C 2560   8.147   6.260  10.276  0.2343  0.5401 -0.3097
  744MOL0     C 2561   8.247   6.283  10.182  0.6936 -0.1819 -0.4021
  744MOL0     C 2562   8.210   6.281  10.031 -0.5886 -0.3098 -0.7017
  744MOL0     C 2563   8.382   6.298  10.219  0.5252  0.8703 -0.6521
  744MOL0     C 2564   8.493   6.309  10.122 -0.0855 -0.8515 -0.1242
  744MOL0     O 2565   8.611   6.360  10.183  0.3190 -0.1675 -0.0338
  744MOL0     C 2566   8.731   6.368  10.121 -0.8782  0.8225 -0.2028
  744MOL0     C 2567   8.850   6.319  10.173  0.3410 -0.9991 -0.1983
  744MOL0     C 2568   8.973   6.339  10.107 -0.3687 -0.8114 -0.0185
  744MOL0     C 2569   8.970   6.399   9.988 -0.6026  0.2127  0.3140
  744MOL0     O 2570   9.096   6.403   9.937 -0.1208 -0.1335  0.6506
  744MOL0     C 2571   9.107   6.490   9.826  0.9497  0.0982 -0.5799
  744MOL0     C 2572   9.251   6.524   9.814  0.4055  0.0818  0.0993
  744MOL0     C 2573   9.338   6.399   9.774  0.2507 -0.1001  0.0686
  744MOL0     C 2574   9.488   6.437   9.748 -0.1979 -0.4135  0.2119
  744MOL0     C 2575   9.578   6.315   9.737 -0.2086 -0.9876  0.7121
  744MOL0     C 2576   9.722   6.349   9.705 -0.1658  0.2094  0.9808
  744MOL0     C 2577   9.751   6.331   9.555 -0.3662 -0.6412  0.3749
  744MOL0     C 2578   9.770   6.461   9.478  0.3306 -0.7219 -0.8313
  744MOL0    Cl 2579   9.902   6.567   9.538  0.4242 -0.2147 -0.1675
  744MOL0     C 2580   8.853   6.447   9.929 -0.2701  0.1694  0.2132
  744MOL0     C 2581   8.730   6.435   9.997  0.5388 -0.2103  0.0992
  744MOL0     O 2582   8.484   6.275  10.003 -0.0048  0.0374  0.2229
  744MOL0     C 2583   8.409   6.303  10.356  0.3209  0.4805  0.2298
  744MOL0     C 2584   8.307   6.297  10.447 -0.4671 -0.2605 -0.1443
  744MOL0     N 2585   7.939   6.177  11.027  0.6916 -0.0473  0.0175
  744MOL0     N 2586   7.865   6.267  11.093 -0.2316  0.0503  0.6774
  744MOL0     C 2587   7.156   6.891  10.383  0.4678 -0.6064 -0.3080
  744MOL0     C 2588   7.026   6.932  10.341 -0.2956  0.5900  0.1913
  744MOL0     C 2589   6.603   7.076  10.309  0.2674  1.3930 -0.1797
  744MOL0     C 2590   6.549   7.104  10.438 -0.2561  0.0973 -0.3543
  744MOL0     C 2591   6.418   7.142  10.461  0.2119 -0.5337 -0.7841
  744MOL0     C 2592   6.336   7.153  10.351  0.9496  0.3550 -0.1893
  744MOL0     O 2593   6.207   7.205  10.358  0.2510  0.7712 -0.5043
  744MOL0     C 2594   6.100   7.108  10.386 -0.3987 -0.0657  0.4162
  744MOL0     C 2595   5.979   7.171  10.443 -0.1086  0.8346  0.0375
  744MOL0     C 2596   5.904   7.256  10.346  0.5278  0.1028 -0.0400
  744MOL0     C 2597   5.760   7.292  10.393  0.2802  0.6348  0.3504
  744MOL0     C 2598   5.768   7.393  10.506  1.2928 -0.1704  0.0148
  744MOL0     C 2599   5.770   7.463  10.599  0.4854  0.6076  0.6727
  744MOL0     C 2600   6.381   7.139  10.221  0.1315  0.9448  0.1306
  744MOL0     C 2601   6.514   7.106  10.196 -0.8176 -0.7029  0.5576
  744MOL0     C 2602   6.568   7.098  10.051 -0.4794 -0.6168  0.7124
  744MOL0     H 2603   6.911   7.049  10.627 -2.2535  0.0506 -0.6863
  744MOL0     H 2604   7.130   6.987  10.715  0.4606  0.7994 -0.6337
  744MOL0     H 2605   7.524   6.795  10.537 -1.0088  0.1651  3.6473
  744MOL0     H 2606   7.414   6.785  10.393  0.5115 -0.0420  0.4001
  744MOL0     H 2607   7.257   6.634  10.529 -0.5252  2.7403 -0.6320
  744MOL0     H 2608   7.420   6.577  10.528 -2.0138 -1.7512  1.7687
  744MOL0     H 2609   7.284   6.707  10.773  1.4865  0.6536  2.8441
  744MOL0     H 2610   7.328   6.538  10.744 -2.1400  0.8424  0.7872
  744MOL0     H 2611   7.565   6.602  10.769 -1.4710 -1.8260  0.5937
  744MOL0     H 2612   7.524   6.777  10.779  1.7506  0.2228  2.0228
  744MOL0     H 2613   7.382   6.717  10.986  0.6088  0.5245  1.2190
  744MOL0     H 2614   7.552   6.695  11.007  0.1880 -0.0566  1.3216
  744MOL0     H 2615   7.430   6.511  11.101  1.2093  2.1395  0.2309
  744MOL0     H 2616   7.344   6.474  10.951  1.5848 -2.2022 -0.0521
  744MOL0     H 2617   7.549   6.383  10.849  0.2064  2.2481 -0.4083
  744MOL0     H 2618   7.484   6.306  10.987 -1.7696  0.9940 -0.0452
  744MOL0     H 2619   7.710   6.504  10.943 -2.8537  0.7297 -0.1515
  744MOL0     H 2620   7.673   6.446  11.110  1.8293  0.7640  0.7522
  744MOL0     H 2621   7.695   6.205  10.812 -0.0078  2.0073 -0.0684
  744MOL0     H 2622   7.831   5.946  10.798 -0.1737  0.1546  0.9989
  744MOL0     H 2623   7.989   5.955  10.886 -0.8623 -0.4692  0.5831
  744MOL0     H 2624   8.071   6.126  10.736 -0.9594  0.7474 -1.2292
  744MOL0     H 2625   8.017   5.974  10.664  1.0408 -0.0898 -0.4327
  744MOL0     H 2626   7.811   6.105  10.588 -0.3682  0.2064  2.5133
  744MOL0     H 2627   7.878   6.251  10.656 -0.1459  0.5236 -3.0838
  744MOL0     H 2628   8.003   6.078  10.443  1.4921  0.1797 -1.4768
  744MOL0     H 2629   7.893   6.215  10.417 -0.8842  1.1567  1.7604
  744MOL0     H 2630   8.047   6.253  10.234  1.5934  0.8409 -4.0395
  744MOL0     H 2631   8.250   6.185   9.996  0.9256 -0.8645  2.2089
  744MOL0     H 2632   8.258   6.371   9.993  1.8843 -0.2849  2.1086
  744MOL0     H 2633   8.102   6.281  10.014 -1.1636  0.4080  2.3244
  744MOL0     H 2634   8.853   6.272  10.271  1.3581 -0.7970 -0.1137
  744MOL0     H 2635   9.065   6.303  10.150  0.3325  2.2836  1.3573
  744MOL0     H 2636   9.052   6.452   9.740 -2.1199  0.5319  1.0489
  744MOL0     H 2637   9.055   6.583   9.854 -0.0645 -0.1889 -1.4364
  744MOL0     H 2638   9.263   6.605   9.741 -1.8387  0.3674 -0.0162
  744MOL0     H 2639   9.285   6.560   9.912  0.5968  2.2310 -0.6930
  744MOL0     H 2640   9.296   6.364   9.679  0.1846 -0.2591  0.1557
  744MOL0     H 2641   9.328   6.322   9.851 -0.9506  2.4270  2.6180
  744MOL0     H 2642   9.519   6.495   9.836 -0.7218 -1.4267  1.0812
  744MOL0     H 2643   9.505   6.502   9.662  1.8046 -0.7509  0.2935
  744MOL0     H 2644   9.584   6.275   9.838  0.7460 -1.0811  0.6234
  744MOL0     H 2645   9.528   6.244   9.670 -0.8393 -1.6845  1.8823
  744MOL0     H 2646   9.794   6.287   9.760  1.5002  1.5991  0.4378
  744MOL0     H 2647   9.754   6.448   9.736  2.9038 -1.6320  4.5226
  744MOL0     H 2648   9.666   6.278   9.513 -2.0222  2.8550 -1.0349
  744MOL0     H 2649   9.847   6.277   9.551 -0.9762 -1.8606  1.6009
  744MOL0     H 2650   9.671   6.508   9.485  1.1220  0.9747 -0.2796
  744MOL0     H 2651   9.784   6.456   9.370 -1.0508 -0.5530 -1.0324
  744MOL0     H 2652   8.854   6.510   9.841 -0.4950  2.2855  1.6273
  744MOL0     H 2653   8.638   6.465   9.949 -0.2644 -1.0862  1.0575
  744MOL0     H 2654   8.514   6.304  10.383  0.6961 -1.0768 -1.0012
  744MOL0     H 2655   8.338   6.290  10.551  1.2708 -0.7603 -0.6623
  744MOL0     H 2656   7.229   6.838  10.322  0.0232 -2.2233  0.5123
  744MOL0     H 2657   7.001   6.923  10.236  0.4839  0.4122  0.0174
  744MOL0     H 2658   6.614   7.106  10.525  0.6596  2.6335 -1.0314
  744MOL0     H 2659   6.391   7.177  10.560  2.1494  0.1572 -0.4432
  744MOL0     H 2660   6.073   7.059  10.292  1.3346  0.3688 -0.3417
  744MOL0     H 2661   6.134   7.027  10.451 -1.8590 -1.3166 -0.3066
  744MOL0     H 2662   5.994   7.229  10.535  1.3076  0.8173 -0.1641
  744MOL0     H 2663   5.930   7.077  10.470  1.6318 -0.2987 -0.5520
  744MOL0     H 2664   5.968   7.343  10.329  3.1330 -1.6805  0.1047
  744MOL0     H 2665   5.887   7.196  10.256 -0.3643 -1.6944  1.2466
  744MOL0     H 2666   5.716   7.202  10.436 -0.2022  0.5922 -0.2315
  744MOL0     H 2667   5.689   7.331  10.319  0.0117 -0.4473  0.0293
  744MOL0     H 2668   5.766   7.516  10.692 -0.4324  3.9586 -1.1222
  744MOL0     H 2669   6.310   7.146  10.139  0.3755 -2.8389 -0.5848
  744MOL0     H 2670   6.538   7.001  10.011 -1.2654 -0.1394  0.0920
  744MOL0     H 2671   6.515   7.170   9.988 -0.3916 -1.8302 -0.7960
  744MOL0     H 2672   6.677   7.096  10.043 -0.3947 -1.0702  1.7853
  745MOL0     O 2673   8.659   2.971   1.938  0.0363 -0.3974  0.5725
  745MOL0     C 2674   8.608   2.960   2.049  0.3268  0.8353  0.1812
  745MOL0     O 2675   8.681   2.943   2.163  0.1310 -0.0486 -0.5377
  745MOL0     C 2676   8.819   2.958   2.140  0.2798 -0.0343  0.1004
  745MOL0     C 2677   8.896   2.866   2.071 -0.0111  0.3499 -0.1304
  745MOL0     C 2678   9.032   2.875   2.058  0.2082  0.1898 -0.0115
  745MOL0     C 2679   9.108   2.978   2.115 -0.2016  0.6620 -0.6533
  745MOL0     O 2680   9.246   2.981   2.128  0.1351  0.1172  0.4154
  745MOL0     C 2681   9.305   3.002   1.995  0.5575  0.7228  0.3303
  745MOL0     C 2682   9.458   2.992   1.991 -0.1867  0.3819 -0.7944
  745MOL0     C 2683   9.535   3.109   2.051 -0.2485 -0.1753  0.7410
  745MOL0     C 2684   9.567   3.222   1.948  0.5396 -0.3317  0.0758
  745MOL0     C 2685   9.658   3.320   2.023 -0.5290 -0.7201 -0.8914
  745MOL0     C 2686   9.612   3.384   2.160  0.2102 -0.2247 -0.4852
  745MOL0     C 2687   9.729   3.479   2.191 -0.4248  0.7733  0.7569
  745MOL0     C 2688   9.730   3.519   2.339 -0.0292  1.0240  0.2843
  745MOL0     N 2689   9.835   3.621   2.354 -0.3938 -0.6805  0.7291
  745MOL0     C 2690   9.972   3.598   2.351 -0.6768 -0.9773  0.9863
  745MOL0     C 2691  10.031   3.718   2.396 -0.0582 -1.1436  0.1105
  745MOL0     C 2692  10.174   3.740   2.432  0.0751  0.0557  0.3637
  745MOL0     C 2693  10.194   3.750   2.585  0.4809 -0.1501 -0.6179
  745MOL0     C 2694  10.341   3.771   2.638  0.3901  0.1564 -0.0423
  745MOL0     C 2695  10.411   3.908   2.593  0.7867  0.6501  0.0666
  745MOL0     O 2696  10.526   3.880   2.514 -0.3206 -0.0887 -0.5728
  745MOL0     C 2697  10.630   3.976   2.520 -0.5141  0.2522  0.6053
  745MOL0     C 2698  10.623   4.115   2.559 -0.1994 -0.1084  0.4272
  745MOL0     C 2699  10.728   4.198   2.555 -0.1744 -0.8973  0.0518
  745MOL0     C 2700  10.707   4.338   2.588 -0.2075  0.3756  0.3867
  745MOL0     C 2701  10.854   4.148   2.513  1.3453  0.0712  0.5361
  745MOL0     C 2702  10.972   4.229   2.525 -0.7980  1.5749 -0.4090
  745MOL0     O 2703  11.080   4.153   2.561 -0.6674  0.0974 -1.0403
  745MOL0     C 2704  11.202   4.214   2.569  0.2361 -0.2059 -0.2677
  745MOL0     C 2705  11.227   4.341   2.623  0.1737  0.7173  0.7436
  745MOL0     C 2706  11.356   4.394   2.611  0.0972 -0.1894  0.0017
  745MOL0     C 2707  11.457   4.314   2.558 -0.6648  0.2292 -0.7407
  745MOL0     O 2708  11.584   4.365   2.526  0.5223  0.5072 -0.5243
  745MOL0     C 2709  11.607   4.499   2.466  0.2148 -0.4416 -0.4457
  745MOL0     C 2710  11.753   4.548   2.477 -0.2338  0.1501 -0.6699
  745MOL0     C 2711  11.770   4.686   2.415  0.3207  0.9889 -0.6611
  745MOL0     C 2712  11.741   4.813   2.501 -1.2277 -0.2547 -0.5024
  745MOL0     C 2713  11.778   4.941   2.423 -0.6353  0.5802 -0.5206
  745MOL0     C 2714  11.699   5.058   2.472 -0.1024  0.6715  0.3020
  745MOL0     C 2715  11.685   5.075   2.623  0.5715 -0.4050 -0.1305
  745MOL0     C 2716  11.821   5.107   2.692 -0.1130 -0.3199 -0.7722
  745MOL0    Cl 2717  11.865   5.277   2.662 -0.0621 -0.4993 -0.1921
  745MOL0     C 2718  11.432   4.189   2.510  0.2155  0.8842  0.4871
  745MOL0     C 2719  11.299   4.136   2.513 -0.8522  0.4411  0.6280
  745MOL0     O 2720  10.973   4.346   2.484  0.3610  0.0416 -0.6470
  745MOL0     C 2721  10.865   4.010   2.476 -0.3315  0.0936 -0.1184
  745MOL0     C 2722  10.752   3.928   2.483 -0.1333  0.4753  0.0181
  745MOL0     N 2723   9.931   3.813   2.403  0.3266 -0.8738 -0.6362
  745MOL0     N 2724   9.816   3.755   2.385  0.4871 -0.0253  0.2691
  745MOL0     C 2725   9.032   3.072   2.187 -0.1380 -0.2268  0.0569
  745MOL0     C 2726   8.894   3.065   2.200 -0.5932 -0.1388 -0.2462
  745MOL0     C 2727   8.461   2.995   2.064  0.3301 -0.5524  0.0891
  745MOL0     C 2728   8.418   3.048   2.185  0.2930 -0.6324 -0.2183
  745MOL0     C 2729   8.286   3.096   2.197 -0.5416 -0.2175 -0.8604
  745MOL0     C 2730   8.192   3.065   2.097  0.2325 -0.6716 -0.6988
  745MOL0     O 2731   8.062   3.092   2.144 -1.2256 -0.0585  0.1607
  745MOL0     C 2732   7.953   3.103   2.053 -0.7187  0.5099 -0.9487
  745MOL0     C 2733   7.859   3.215   2.078  0.1619 -0.3436 -0.4044
  745MOL0     C 2734   7.777   3.197   2.201 -0.1273  0.7772 -0.0787
  745MOL0     C 2735   7.686   3.324   2.227 -0.6638  0.4370  0.4904
  745MOL0     C 2736   7.766   3.433   2.277  0.0476 -1.1670  0.2476
  745MOL0     C 2737   7.829   3.527   2.323 -0.0934  0.7524  0.1645
  745MOL0     C 2738   8.232   3.004   1.980 -0.2158  0.3233  0.0054
  745MOL0     C 2739   8.365   2.973   1.957  0.3589  0.4939 -0.6729
  745MOL0     C 2740   8.393   2.907   1.824 -0.6016  1.0736 -0.3714
  745MOL0     H 2741   8.843   2.788   2.017  2.2241 -1.8550  0.6638
  745MOL0     H 2742   9.084   2.799   1.999  0.5293 -0.7007  1.3620
  745MOL0     H 2743   9.264   3.096   1.956 -1.1267  0.2096  0.7735
  745MOL0     H 2744   9.270   2.930   1.920  0.2645  0.2272  0.9392
  745MOL0     H 2745   9.491   2.900   2.041  0.2938  0.8150 -0.3025
  745MOL0     H 2746   9.499   2.985   1.890  2.4349 -0.1059  0.2278
  745MOL0     H 2747   9.485   3.157   2.136 -0.3419 -0.9278  1.1168
  745MOL0     H 2748   9.630   3.064   2.081 -2.6083 -2.9198  5.0092
  745MOL0     H 2749   9.619   3.176   1.863 -1.9853 -0.6684 -1.3714
  745MOL0     H 2750   9.473   3.271   1.923  0.5308  0.3571  1.4045
  745MOL0     H 2751   9.674   3.408   1.960 -0.2337 -1.3787 -1.7524
  745MOL0     H 2752   9.755   3.274   2.044  0.7012  2.4488  1.2045
  745MOL0     H 2753   9.514   3.431   2.149 -0.1898 -0.8216  0.4109
  745MOL0     H 2754   9.600   3.317   2.246 -1.1906 -0.7917 -1.0919
  745MOL0     H 2755   9.723   3.563   2.121  2.2741 -0.2704 -0.8848
  745MOL0     H 2756   9.826   3.434   2.167 -0.9195  0.2417 -0.3106
  745MOL0     H 2757   9.639   3.558   2.384 -1.6479 -1.4375 -0.6053
  745MOL0     H 2758   9.756   3.426   2.391 -0.0130  0.0914 -1.3157
  745MOL0     H 2759  10.022   3.503   2.334  0.0419 -0.4461  0.0590
  745MOL0     H 2760  10.201   3.835   2.385  1.1643 -0.4778 -0.1083
  745MOL0     H 2761  10.245   3.667   2.393  1.8089  1.9385 -0.1536
  745MOL0     H 2762  10.131   3.825   2.634 -2.1141 -1.6192 -1.5214
  745MOL0     H 2763  10.161   3.658   2.634  2.3427 -0.4623  0.1511
  745MOL0     H 2764  10.342   3.765   2.747  0.1869 -1.0576 -0.0929
  745MOL0     H 2765  10.409   3.693   2.603  2.4855  1.0361  1.8390
  745MOL0     H 2766  10.341   3.969   2.535 -0.0327 -0.3641 -0.0471
  745MOL0     H 2767  10.438   3.957   2.687 -2.6872  0.8209  1.1106
  745MOL0     H 2768  10.525   4.160   2.573  0.1975  0.8775  0.1244
  745MOL0     H 2769  10.718   4.394   2.495  0.0496  1.6181  1.1482
  745MOL0     H 2770  10.785   4.372   2.657  1.4792 -0.5740 -0.9917
  745MOL0     H 2771  10.609   4.346   2.636 -0.9570 -0.0956 -1.0206
  745MOL0     H 2772  11.147   4.395   2.673 -0.3034 -0.1591  0.9435
  745MOL0     H 2773  11.374   4.497   2.643  0.2707 -0.4092  0.6161
  745MOL0     H 2774  11.565   4.503   2.365  0.7500  0.3362 -0.6491
  745MOL0     H 2775  11.554   4.580   2.517  1.2472 -0.3690  0.5525
  745MOL0     H 2776  11.783   4.551   2.582  0.2647  2.9893 -0.7964
  745MOL0     H 2777  11.817   4.471   2.434 -1.9290 -2.4692  1.2408
  745MOL0     H 2778  11.709   4.680   2.325 -0.9391  0.1707  0.2183
  745MOL0     H 2779  11.873   4.705   2.384 -0.2113  1.0145 -2.5290
  745MOL0     H 2780  11.811   4.816   2.585 -0.7717  2.7825 -0.8855
  745MOL0     H 2781  11.638   4.806   2.538 -0.8307  2.1520  1.3413
  745MOL0     H 2782  11.885   4.965   2.425 -0.9072  2.4725 -3.0476
  745MOL0     H 2783  11.753   4.939   2.316  0.9856  2.4220 -0.9990
  745MOL0     H 2784  11.595   5.050   2.437 -0.1918  0.5458  0.5990
  745MOL0     H 2785  11.748   5.146   2.431  0.2029 -0.0650 -1.0067
  745MOL0     H 2786  11.623   4.998   2.669 -0.2921  0.7765  0.7535
  745MOL0     H 2787  11.625   5.163   2.650 -0.2065 -1.3593  1.4054
  745MOL0     H 2788  11.903   5.043   2.657  1.7061  1.7389 -0.5087
  745MOL0     H 2789  11.818   5.087   2.800 -0.2675  2.5040 -0.1745
  745MOL0     H 2790  11.498   4.124   2.454 -0.5916  0.2726  0.2272
  745MOL0     H 2791  11.276   4.033   2.488  3.2530 -0.9707  1.7792
  745MOL0     H 2792  10.960   3.963   2.457  0.8113  1.8266  0.9941
  745MOL0     H 2793  10.754   3.819   2.481  2.9604  0.4338 -2.0240
  745MOL0     H 2794   9.101   3.131   2.246  2.3305 -1.4768 -1.4067
  745MOL0     H 2795   8.843   3.134   2.267 -1.5345  0.9927 -2.0453
  745MOL0     H 2796   8.486   3.058   2.270 -1.0925 -1.8816  1.1061
  745MOL0     H 2797   8.246   3.147   2.284 -0.4894  0.4439 -1.2162
  745MOL0     H 2798   7.993   3.108   1.951 -2.1199  0.3234 -1.5378
  745MOL0     H 2799   7.898   3.008   2.055 -0.6362  0.3425 -3.2738
  745MOL0     H 2800   7.793   3.225   1.991 -0.6648 -0.2723  0.2202
  745MOL0     H 2801   7.911   3.311   2.092 -1.0082  0.3929 -0.9318
  745MOL0     H 2802   7.713   3.109   2.202  3.4975 -2.1347 -0.1955
  745MOL0     H 2803   7.850   3.198   2.282  0.1184  1.2759 -0.2989
  745MOL0     H 2804   7.613   3.289   2.301 -1.3044  0.8135  0.0463
  745MOL0     H 2805   7.629   3.354   2.138 -4.0127 -1.6386  1.7634
  745MOL0     H 2806   7.886   3.610   2.357 -0.8622  0.8557  1.2524
  745MOL0     H 2807   8.156   2.972   1.910 -1.4230  0.6022  1.1424
  745MOL0     H 2808   8.442   2.815   1.857  0.4948  1.5604 -0.5878
  745MOL0     H 2809   8.309   2.885   1.759 -0.6091  3.4777 -1.2562
  745MOL0     H 2810   8.470   2.967   1.775  0.2395 -0.0992 -0.5418
  746MOL0     O 2811  11.188  10.675   9.713  0.6438 -0.3476  0.7115
  746MOL0     C 2812  11.066  10.642   9.720 -0.7575 -0.2799  0.4720
  746MOL0     O 2813  10.963  10.721   9.718  0.1356 -0.4299  0.3180
  746MOL0     C 2814  10.979  10.850   9.774 -0.4057 -0.1585  0.1602
  746MOL0     C 2815  10.884  10.945   9.742  0.2635 -0.3586 -0.3053
  746MOL0     C 2816  10.885  11.079   9.794  0.0978 -0.8952 -0.7737
  746MOL0     C 2817  10.998  11.125   9.869 -0.2928 -0.0500 -0.2794
  746MOL0     O 2818  11.018  11.248   9.919  0.1226  0.2715 -0.3062
  746MOL0     C 2819  11.006  11.352   9.824 -0.3737 -0.8740 -0.2151
  746MOL0     C 2820  11.104  11.349   9.702  0.8430 -0.5326  0.0420
  746MOL0     C 2821  11.248  11.346   9.746 -0.7878  0.1127 -0.1735
  746MOL0     C 2822  11.275  11.457   9.855 -0.0478  0.2436  0.6147
  746MOL0     C 2823  11.427  11.503   9.847  0.5478 -0.5071  0.4412
  746MOL0     C 2824  11.517  11.385   9.885  0.1529 -0.3882 -0.5141
  746MOL0     C 2825  11.662  11.425   9.869  0.8737 -0.2373  0.8200
  746MOL0     C 2826  11.758  11.315   9.923  0.6757  0.7426  0.1647
  746MOL0     N 2827  11.901  11.336   9.895  0.1175 -0.0861  0.2981
  746MOL0     C 2828  11.980  11.434   9.940 -0.2120 -0.4151 -0.1031
  746MOL0     C 2829  12.106  11.391   9.899 -0.0535 -0.3971  0.2946
  746MOL0     C 2830  12.239  11.468   9.916 -0.5718  0.0182 -0.2395
  746MOL0     C 2831  12.251  11.590   9.823  0.1542  0.2420 -1.0128
  746MOL0     C 2832  12.289  11.540   9.681  0.0138 -0.9574  0.7827
  746MOL0     C 2833  12.289  11.661   9.573 -0.2867 -0.2553 -0.4821
  746MOL0     O 2834  12.376  11.774   9.608 -0.0653 -0.2025 -0.6392
  746MOL0     C 2835  12.510  11.734   9.617  0.3348  0.0587 -0.2795
  746MOL0     C 2836  12.590  11.764   9.730 -1.0375 -0.8002  0.3350
  746MOL0     C 2837  12.724  11.731   9.739  0.0669  0.7384  0.6820
  746MOL0     C 2838  12.799  11.763   9.869 -0.4663  0.3037 -0.1287
  746MOL0     C 2839  12.785  11.672   9.628 -0.5003 -0.2913  0.8307
  746MOL0     C 2840  12.921  11.615   9.629  1.0305 -0.4870 -0.0034
  746MOL0     O 2841  12.974  11.579   9.508  0.2894 -0.3614  0.0465
  746MOL0     C 2842  13.090  11.502   9.495 -0.6176  0.0000 -0.1747
  746MOL0     C 2843  13.095  11.417   9.377 -0.0075 -1.0641 -0.2300
  746MOL0     C 2844  13.198  11.326   9.362  0.0184  0.0100 -0.9919
  746MOL0     C 2845  13.302  11.320   9.458  0.0192  0.7314  0.3816
  746MOL0     O 2846  13.409  11.232   9.423  0.2432  0.3765 -0.9781
  746MOL0     C 2847  13.537  11.233   9.486 -0.2757  0.3334  0.1321
  746MOL0     C 2848  13.643  11.316   9.415 -1.1243  0.1766 -0.4692
  746MOL0     C 2849  13.684  11.232   9.292  1.0263 -0.0292  0.1425
  746MOL0     C 2850  13.801  11.296   9.213  0.4890 -0.4872 -0.1993
  746MOL0     C 2851  13.874  11.196   9.128 -0.3883 -0.8068 -0.0013
  746MOL0     C 2852  14.012  11.249   9.074 -0.4730  0.5880  0.3448
  746MOL0     C 2853  14.084  11.150   8.982 -0.3245 -0.4869 -0.4534
  746MOL0     C 2854  14.207  11.230   8.941  0.3551  0.6259  0.0380
  746MOL0    Cl 2855  14.276  11.135   8.802 -0.5993 -0.3718  0.1366
  746MOL0     C 2856  13.288  11.384   9.580 -0.0666 -0.0867 -0.7465
  746MOL0     C 2857  13.190  11.481   9.587  0.6419 -0.1245 -0.1441
  746MOL0     O 2858  12.975  11.595   9.740  0.7764  0.1220  0.2435
  746MOL0     C 2859  12.710  11.653   9.508  0.0755  0.2507  0.4464
  746MOL0     C 2860  12.575  11.685   9.500 -0.1988 -0.2341 -0.5814
  746MOL0     N 2861  12.097  11.274   9.846 -0.1537 -0.6798 -0.2914
  746MOL0     N 2862  11.974  11.241   9.836 -0.2807  0.2657  0.8360
  746MOL0     C 2863  11.094  11.034   9.892 -0.4820  0.2154 -0.0421
  746MOL0     C 2864  11.079  10.896   9.856 -0.3936 -0.0192 -0.7014
  746MOL0     C 2865  11.036  10.492   9.737 -0.6687 -0.6346 -0.6027
  746MOL0     C 2866  10.904  10.454   9.772 -0.1174 -0.8844  0.2683
  746MOL0     C 2867  10.867  10.329   9.808 -1.9101  0.4826  0.7128
  746MOL0     C 2868  10.965  10.234   9.811  0.0448 -0.3630  0.8659
  746MOL0     O 2869  10.934  10.103   9.842 -0.0861 -0.5383  0.2953
  746MOL0     C 2870  10.917  10.073   9.986 -0.3938 -0.3046  0.1076
  746MOL0     C 2871  10.822   9.948   9.993  0.2521  0.6456  1.0020
  746MOL0     C 2872  10.867   9.830   9.910  0.2057  0.8136 -0.2237
  746MOL0     C 2873  10.807   9.700   9.969 -0.6337  0.6583 -0.8006
  746MOL0     C 2874  10.882   9.655  10.087 -0.1740 -0.2162 -0.7484
  746MOL0     C 2875  10.943   9.610  10.177 -0.7838 -0.6041  0.2645
  746MOL0     C 2876  11.093  10.265   9.764 -0.1034  0.3121 -0.5704
  746MOL0     C 2877  11.133  10.395   9.734  0.0789  1.5493  0.2482
  746MOL0     C 2878  11.270  10.407   9.659  0.5211  0.2915 -0.4933
  746MOL0     H 2879  10.803  10.912   9.678  0.0872  3.5773 -2.4733
  746MOL0     H 2880  10.804  11.146   9.766  0.4047 -0.9499 -1.8574
  746MOL0     H 2881  11.027  11.449   9.871  2.8362 -1.4216 -0.3239
  746MOL0     H 2882  10.902  11.355   9.789 -0.4369 -0.4636  0.0048
  746MOL0     H 2883  11.075  11.259   9.647 -0.0229 -1.1907  1.4829
  746MOL0     H 2884  11.095  11.436   9.638 -4.4128  0.5777  1.7343
  746MOL0     H 2885  11.285  11.251   9.785  0.5404  0.3894 -0.6942
  746MOL0     H 2886  11.307  11.375   9.658 -0.5351  0.7275  0.1915
  746MOL0     H 2887  11.215  11.545   9.834  1.0548  1.0403  0.7051
  746MOL0     H 2888  11.255  11.425   9.958 -0.7298 -0.3193  0.3161
  746MOL0     H 2889  11.432  11.583   9.922  0.1804  0.2225 -0.2864
  746MOL0     H 2890  11.447  11.547   9.749  1.6661 -0.4342  0.6907
  746MOL0     H 2891  11.495  11.357   9.989 -0.1930 -1.1215 -0.7782
  746MOL0     H 2892  11.488  11.299   9.824 -0.1903  1.6199 -3.3516
  746MOL0     H 2893  11.675  11.521   9.920 -2.7346  1.5556 -1.2445
  746MOL0     H 2894  11.676  11.457   9.765  0.8864  0.2947  0.9854
  746MOL0     H 2895  11.747  11.294  10.030 -0.5005  2.3419  0.4049
  746MOL0     H 2896  11.724  11.221   9.879  0.8994 -0.4281  2.3570
  746MOL0     H 2897  11.959  11.518  10.005 -1.3565  0.3645 -1.4246
  746MOL0     H 2898  12.324  11.400   9.903 -0.3692 -0.0111  1.0617
  746MOL0     H 2899  12.242  11.506  10.018  1.8872  0.8257 -0.5581
  746MOL0     H 2900  12.150  11.633   9.817 -0.8068 -1.7639 -0.0768
  746MOL0     H 2901  12.325  11.657   9.867  0.6016  0.1116 -1.5633
  746MOL0     H 2902  12.384  11.487   9.693 -1.3340 -3.9488 -0.6552
  746MOL0     H 2903  12.215  11.472   9.639 -2.0171  1.8436 -0.5066
  746MOL0     H 2904  12.301  11.618   9.472  1.1192  3.1444 -1.9185
  746MOL0     H 2905  12.187  11.696   9.555  0.4031 -0.1158 -5.6617
  746MOL0     H 2906  12.545  11.804   9.821 -1.6902 -0.5335 -0.0934
  746MOL0     H 2907  12.904  11.789   9.860 -0.4412  1.6744  2.9323
  746MOL0     H 2908  12.788  11.677   9.936  2.1261  0.2971  0.3623
  746MOL0     H 2909  12.748  11.848   9.916  0.5445  0.7994  0.0983
  746MOL0     H 2910  13.015  11.418   9.304 -1.6397  0.5066  1.4736
  746MOL0     H 2911  13.203  11.254   9.281 -0.8136  2.1383 -3.0366
  746MOL0     H 2912  13.529  11.264   9.590 -2.7337  0.7024 -0.1202
  746MOL0     H 2913  13.571  11.129   9.492  2.8885  1.2667  0.2865
  746MOL0     H 2914  13.607  11.417   9.394  0.1586  1.6659  3.4819
  746MOL0     H 2915  13.732  11.320   9.478 -1.9743 -1.2017  0.8935
  746MOL0     H 2916  13.593  11.222   9.232  1.4607 -3.7078 -0.0940
  746MOL0     H 2917  13.712  11.130   9.318  0.0802 -1.2251 -2.9986
  746MOL0     H 2918  13.864  11.340   9.292 -1.2684 -2.8948  2.7629
  746MOL0     H 2919  13.763  11.380   9.155 -1.7180  1.8017  4.0865
  746MOL0     H 2920  13.895  11.115   9.199  0.6456  1.1984  2.1348
  746MOL0     H 2921  13.815  11.164   9.042  1.7936  1.0695 -2.3555
  746MOL0     H 2922  14.084  11.260   9.156  0.7515 -0.0814 -0.5905
  746MOL0     H 2923  13.991  11.339   9.017 -1.9265  0.6778  0.9735
  746MOL0     H 2924  14.017  11.128   8.899  2.0909 -5.9494 -1.4104
  746MOL0     H 2925  14.121  11.052   9.016 -0.1750 -0.5464 -0.7810
  746MOL0     H 2926  14.277  11.234   9.025 -2.8318  1.1844  2.8320
  746MOL0     H 2927  14.196  11.334   8.911  1.9527  0.7313 -0.2899
  746MOL0     H 2928  13.359  11.364   9.659 -2.0303 -2.7893  0.4599
  746MOL0     H 2929  13.201  11.522   9.687 -0.0679 -2.4360  0.9608
  746MOL0     H 2930  12.759  11.602   9.426 -2.1895 -0.1864 -0.7196
  746MOL0     H 2931  12.538  11.659   9.402  0.3748 -4.1923  0.0854
  746MOL0     H 2932  11.178  11.058   9.956 -0.0179  0.3303 -0.6956
  746MOL0     H 2933  11.151  10.827   9.899 -0.2023 -0.5537 -1.8361
  746MOL0     H 2934  10.819  10.522   9.773 -1.9973 -3.1397  1.1664
  746MOL0     H 2935  10.763  10.311   9.835 -1.9650  0.0131  0.2012
  746MOL0     H 2936  11.013  10.059  10.036 -0.8203  0.3247  1.1474
  746MOL0     H 2937  10.878  10.164  10.033  1.1571  1.0200 -1.0313
  746MOL0     H 2938  10.724   9.986   9.961  0.9743  0.7208 -1.2503
  746MOL0     H 2939  10.808   9.911  10.095 -2.0812 -0.8924  0.2112
  746MOL0     H 2940  10.828   9.837   9.809  0.7728 -3.6398 -0.9666
  746MOL0     H 2941  10.976   9.828   9.909  0.2216  1.4505 -0.0951
  746MOL0     H 2942  10.816   9.619   9.896 -0.4662 -0.0577  0.0103
  746MOL0     H 2943  10.703   9.717   9.999 -0.0739  0.1030  1.6108
  746MOL0     H 2944  10.999   9.571  10.260 -0.0357 -0.3717 -0.1196
  746MOL0     H 2945  11.155  10.178   9.746  3.1786  2.0334  1.4761
  746MOL0     H 2946  11.309  10.307   9.641 -0.0864 -0.1433  0.5306
  746MOL0     H 2947  11.252  10.462   9.566 -1.7697 -0.4024 -0.5443
  746MOL0     H 2948  11.343  10.473   9.706  1.7826  1.0612 -3.3113
  747MOL0     O 2949   2.040  11.181   0.945  0.6175 -0.1847 -0.6466
  747MOL0     C 2950   1.936  11.140   0.896 -0.7975 -0.0918 -1.0598
  747MOL0     O 2951   1.911  11.009   0.855 -0.6229 -0.2448  0.3551
  747MOL0     C 2952   2.028  10.937   0.841  0.5439 -0.5298 -0.2098
  747MOL0     C 2953   2.095  10.897   0.955 -0.6544  0.1228 -1.2080
  747MOL0     C 2954   2.223  10.833   0.947 -0.2868 -0.1248 -0.1728
  747MOL0     C 2955   2.286  10.828   0.822 -0.3818 -0.0513 -0.0868
  747MOL0     O 2956   2.417  10.773   0.801  0.1294 -0.3946 -0.6164
  747MOL0     C 2957   2.488  10.715   0.912  0.1103 -0.7947  0.1396
  747MOL0     C 2958   2.632  10.662   0.888 -0.4701  0.2912  0.6975
  747MOL0     C 2959   2.740  10.766   0.857 -0.7544 -1.1709 -0.1234
  747MOL0     C 2960   2.866  10.701   0.808 -0.7066 -0.7967  0.0473
  747MOL0     C 2961   2.956  10.806   0.776 -0.5218  0.0654 -0.1251
  747MOL0     C 2962   3.104  10.758   0.754  1.0549  0.8709 -0.4490
  747MOL0     C 2963   3.203  10.875   0.743 -0.0075 -0.1694 -1.2740
  747MOL0     C 2964   3.205  10.979   0.866 -0.6170  0.4033  0.4180
  747MOL0     N 2965   3.208  10.916   0.999  0.1822 -0.8422 -0.2899
  747MOL0     C 2966   3.330  10.866   1.049  0.0537 -0.3767  0.7038
  747MOL0     C 2967   3.284  10.778   1.141  0.2422 -0.5891  0.7221
  747MOL0     C 2968   3.370  10.687   1.222  0.5691  0.1229  0.3583
  747MOL0     C 2969   3.420  10.755   1.352 -0.2985 -0.4109  0.6015
  747MOL0     C 2970   3.472  10.652   1.447 -0.3587 -0.6667 -0.0886
  747MOL0     C 2971   3.553  10.721   1.563  0.3851 -0.3287  0.7878
  747MOL0     O 2972   3.655  10.811   1.499  0.9845  0.2211 -0.6614
  747MOL0     C 2973   3.791  10.784   1.507  0.8131  0.0843  0.2874
  747MOL0     C 2974   3.842  10.663   1.445 -0.0676  1.0170  0.5102
  747MOL0     C 2975   3.983  10.634   1.438  0.0097  0.0641  0.1056
  747MOL0     C 2976   4.017  10.514   1.349 -0.2774 -0.0925  0.3303
  747MOL0     C 2977   4.075  10.715   1.507  0.1819  0.7241 -0.3683
  747MOL0     C 2978   4.231  10.691   1.504  1.6004 -0.2142  0.9780
  747MOL0     O 2979   4.300  10.776   1.576  0.4765 -0.0533 -0.3146
  747MOL0     C 2980   4.434  10.753   1.588 -0.0515  0.1782  0.0902
  747MOL0     C 2981   4.526  10.854   1.556 -0.6313 -0.0208 -1.1731
  747MOL0     C 2982   4.666  10.830   1.576 -0.5152 -1.0425 -0.6267
  747MOL0     C 2983   4.711  10.711   1.632  0.2718 -1.1262 -0.8321
  747MOL0     O 2984   4.850  10.699   1.636 -0.5559  0.5124 -0.4022
  747MOL0     C 2985   4.904  10.591   1.717  0.3434  0.3307 -0.7249
  747MOL0     C 2986   5.049  10.572   1.664  0.0792  0.3401 -0.4273
  747MOL0     C 2987   5.065  10.540   1.519  0.0293  0.0007 -0.5216
  747MOL0     C 2988   5.214  10.542   1.482 -0.1699 -0.8043  0.8906
  747MOL0     C 2989   5.254  10.437   1.380 -0.2213 -0.4913  0.4194
  747MOL0     C 2990   5.404  10.428   1.357 -0.1963 -0.3853 -0.5357
  747MOL0     C 2991   5.434  10.304   1.281  0.0479 -0.1048  0.3802
  747MOL0     C 2992   5.578  10.257   1.291  0.1359 -0.7485  0.8809
  747MOL0    Cl 2993   5.702  10.366   1.208  0.2673 -0.0995  0.0591
  747MOL0     C 2994   4.620  10.607   1.657 -0.2788  0.3270 -0.0369
  747MOL0     C 2995   4.485  10.630   1.638  0.5393 -0.2735  0.6361
  747MOL0     O 2996   4.274  10.603   1.438 -0.1844  0.1772 -0.4300
  747MOL0     C 2997   4.027  10.831   1.562  0.4285 -0.2452 -1.3762
  747MOL0     C 2998   3.887  10.869   1.565 -0.6258  0.4970  0.2885
  747MOL0     N 2999   3.145  10.782   1.146  0.2176 -0.1528 -0.3630
  747MOL0     N 3000   3.103  10.870   1.065 -0.3592  0.4534 -0.3306
  747MOL0     C 3001   2.220  10.866   0.703  0.4902  0.7557 -0.6396
  747MOL0     C 3002   2.089  10.912   0.715  0.5027  0.6946 -0.3438
  747MOL0     C 3003   1.814  11.231   0.904  0.3729 -0.1581  1.3057
  747MOL0     C 3004   1.713  11.213   0.803 -0.7500 -0.1072 -0.4941
  747MOL0     C 3005   1.591  11.290   0.808  0.0529 -0.2158 -0.0062
  747MOL0     C 3006   1.579  11.406   0.887 -0.3982  0.5341  0.0507
  747MOL0     O 3007   1.468  11.481   0.867 -0.0399  0.0488  0.8956
  747MOL0     C 3008   1.443  11.605   0.939  0.1232  0.1137 -0.8693
  747MOL0     C 3009   1.393  11.579   1.088  0.0358  0.3371  0.2632
  747MOL0     C 3010   1.280  11.476   1.097 -0.8427 -0.3001 -0.3407
  747MOL0     C 3011   1.137  11.542   1.082  0.2028  0.2111  0.5093
  747MOL0     C 3012   1.121  11.633   1.192 -1.4825  0.6605 -0.2211
  747MOL0     C 3013   1.114  11.713   1.286  0.7473 -0.6244 -0.0057
  747MOL0     C 3014   1.689  11.433   0.962  0.4833  0.0584 -0.3192
  747MOL0     C 3015   1.801  11.349   0.983 -0.3807 -0.1273  0.2957
  747MOL0     C 3016   1.899  11.391   1.086  0.7579  0.0044  0.4773
  747MOL0     H 3017   2.051  10.904   1.054  2.8598  2.0839  0.4328
  747MOL0     H 3018   2.258  10.795   1.043 -1.1004  1.1049  0.6340
  747MOL0     H 3019   2.431  10.636   0.961  1.2310 -0.4636  2.0999
  747MOL0     H 3020   2.510  10.800   0.977 -0.4766 -0.8775  0.4578
  747MOL0     H 3021   2.659  10.616   0.983 -0.9667  0.2659  0.8265
  747MOL0     H 3022   2.627  10.579   0.818  3.2824 -0.1172  0.7290
  747MOL0     H 3023   2.698  10.844   0.792 -1.0280  1.1365  2.6368
  747MOL0     H 3024   2.768  10.823   0.945 -0.0868  0.3752 -1.2955
  747MOL0     H 3025   2.904  10.626   0.878  0.7268 -0.9186 -0.8157
  747MOL0     H 3026   2.839  10.642   0.719 -1.3664 -1.7626  0.8599
  747MOL0     H 3027   2.958  10.893   0.842  1.7011  3.1652 -3.8646
  747MOL0     H 3028   2.922  10.854   0.684 -0.2403  1.6399  0.5515
  747MOL0     H 3029   3.139  10.696   0.837 -0.8294  1.1136  0.6064
  747MOL0     H 3030   3.095  10.692   0.668  2.0424 -0.2359  0.2729
  747MOL0     H 3031   3.188  10.943   0.658 -1.5621  0.8335 -0.2630
  747MOL0     H 3032   3.305  10.838   0.731 -0.4057 -1.4145 -1.0308
  747MOL0     H 3033   3.300  11.032   0.855 -0.2064  0.0413  1.8974
  747MOL0     H 3034   3.124  11.051   0.873 -1.2501 -0.1987 -0.5354
  747MOL0     H 3035   3.433  10.878   1.018  0.1342 -2.2373  0.0947
  747MOL0     H 3036   3.459  10.651   1.171 -0.7953 -0.7299 -1.5463
  747MOL0     H 3037   3.306  10.603   1.249  1.8946 -0.9622  0.2324
  747MOL0     H 3038   3.494  10.826   1.315 -1.1381  0.9174  1.3972
  747MOL0     H 3039   3.341  10.819   1.393  0.7009  1.2671 -0.0074
  747MOL0     H 3040   3.389  10.602   1.496 -0.9552  2.2318  2.1133
  747MOL0     H 3041   3.540  10.587   1.390  1.0074 -1.4707  2.3278
  747MOL0     H 3042   3.480  10.776   1.623 -1.0598 -0.6903 -0.5862
  747MOL0     H 3043   3.594  10.647   1.632  2.4383  0.7522  0.8286
  747MOL0     H 3044   3.770  10.594   1.403 -0.7975  0.2540  2.8338
  747MOL0     H 3045   4.038  10.432   1.419 -2.9926  0.2183  1.6758
  747MOL0     H 3046   4.090  10.555   1.280  0.2633  2.6757  2.3853
  747MOL0     H 3047   3.932  10.474   1.293  0.5847 -2.8165  0.8232
  747MOL0     H 3048   4.489  10.952   1.528  0.0393  1.0594  1.4408
  747MOL0     H 3049   4.740  10.907   1.556 -2.7151  2.6469  3.7000
  747MOL0     H 3050   4.892  10.616   1.823 -1.1223  1.9262 -1.2222
  747MOL0     H 3051   4.860  10.492   1.705 -0.1181  0.5718 -1.0573
  747MOL0     H 3052   5.110  10.661   1.681 -1.0841  0.6111  3.1265
  747MOL0     H 3053   5.095  10.492   1.723  0.7481  0.4513 -0.7889
  747MOL0     H 3054   5.015  10.609   1.450 -1.2609 -2.3427 -2.0550
  747MOL0     H 3055   5.021  10.442   1.502  1.5026 -1.1222  1.6026
  747MOL0     H 3056   5.278  10.534   1.571  0.6306  0.1632  0.4269
  747MOL0     H 3057   5.233  10.646   1.452 -1.2758 -0.6681  0.6415
  747MOL0     H 3058   5.221  10.340   1.419  2.1077 -1.4101  0.2971
  747MOL0     H 3059   5.200  10.451   1.286 -0.0248 -0.8060  0.2597
  747MOL0     H 3060   5.446  10.414   1.457  0.4476 -1.1793 -0.9072
  747MOL0     H 3061   5.432  10.526   1.319 -1.3747 -0.1454 -0.8259
  747MOL0     H 3062   5.405  10.315   1.177 -1.3785 -2.9818  0.3705
  747MOL0     H 3063   5.368  10.227   1.322 -1.5265  1.9555  1.9247
  747MOL0     H 3064   5.582  10.160   1.240 -0.3874 -1.2715  1.8140
  747MOL0     H 3065   5.593  10.238   1.397 -2.9107  0.1080  1.5702
  747MOL0     H 3066   4.653  10.509   1.687 -0.6186 -0.1152 -1.0573
  747MOL0     H 3067   4.408  10.557   1.660 -2.0034  2.2204  0.6875
  747MOL0     H 3068   4.091  10.901   1.615 -0.4808 -0.7141  0.4337
  747MOL0     H 3069   3.855  10.963   1.608  1.4579  1.3269  0.1081
  747MOL0     H 3070   2.267  10.845   0.607 -1.2045 -2.6790 -0.8837
  747MOL0     H 3071   2.044  10.954   0.626  0.9374  3.9514  0.8531
  747MOL0     H 3072   1.720  11.132   0.731 -4.5680 -1.4074  0.3774
  747MOL0     H 3073   1.509  11.278   0.738 -0.1690  0.7357  0.0740
  747MOL0     H 3074   1.526  11.676   0.938 -0.0052  0.3890 -4.2106
  747MOL0     H 3075   1.359  11.660   0.896  0.2370  0.2548 -0.9100
  747MOL0     H 3076   1.366  11.679   1.122  4.6703  2.5304 -1.5645
  747MOL0     H 3077   1.484  11.542   1.138  1.0296  0.5041 -1.3346
  747MOL0     H 3078   1.300  11.398   1.024  1.0900 -0.7755  0.6268
  747MOL0     H 3079   1.283  11.433   1.198 -0.6530  2.3900  0.9076
  747MOL0     H 3080   1.060  11.465   1.090  0.2703  0.0193 -0.5082
  747MOL0     H 3081   1.129  11.586   0.982 -1.9433  0.5459  0.7895
  747MOL0     H 3082   1.107  11.789   1.360 -0.0197  1.4731 -2.1315
  747MOL0     H 3083   1.698  11.522   1.024  0.0187  0.2713 -0.5582
  747MOL0     H 3084   1.959  11.312   1.132 -0.0423 -0.2267  1.1486
  747MOL0     H 3085   1.970  11.468   1.055 -2.8672  2.8270 -1.5509
  747MOL0     H 3086   1.837  11.436   1.164 -0.9895 -0.3263 -0.6669
  748MOL0     O 3087   6.504   5.155   8.081 -0.0895  0.7693  0.3854
  748MOL0     C 3088   6.441   5.118   8.179 -0.2501  0.1172 -0.7431
  748MOL0     O 3089   6.501   5.066   8.296 -0.4719 -0.6456  0.5630
  748MOL0     C 3090   6.633   5.061   8.312 -0.7871 -1.3935 -0.2385
  748MOL0     C 3091   6.676   5.109   8.434 -0.3847 -0.2619  0.4673
  748MOL0     C 3092   6.814   5.127   8.466  0.4952  0.1432 -0.4728
  748MOL0     C 3093   6.910   5.099   8.367 -0.0550  0.6921 -0.6208
  748MOL0     O 3094   7.039   5.123   8.400 -0.2662  0.2282  0.4451
  748MOL0     C 3095   7.137   5.121   8.299 -0.7856  0.3701  0.2961
  748MOL0     C 3096   7.276   5.163   8.359 -0.0166 -0.3806 -0.0344
  748MOL0     C 3097   7.393   5.117   8.272 -0.7134 -0.1374  0.5040
  748MOL0     C 3098   7.535   5.158   8.326  0.0684  0.2265  0.8781
  748MOL0     C 3099   7.637   5.181   8.208 -0.3737  0.0934 -0.5811
  748MOL0     C 3100   7.770   5.227   8.280  0.0219  0.9734  0.0232
  748MOL0     C 3101   7.881   5.250   8.185 -0.0268 -0.2550  0.9941
  748MOL0     C 3102   7.992   5.148   8.176 -0.5110  0.8469  0.0650
  748MOL0     N 3103   7.933   5.019   8.138 -0.2436  0.1219 -0.5680
  748MOL0     C 3104   7.902   4.994   8.013  1.0145 -0.0588 -0.6630
  748MOL0     C 3105   7.887   4.859   8.014 -0.4704 -0.6594  0.0077
  748MOL0     C 3106   7.863   4.777   7.893 -0.4605  0.0977 -0.0340
  748MOL0     C 3107   7.987   4.695   7.855 -1.6304  0.0581  1.4040
  748MOL0     C 3108   8.100   4.773   7.784 -0.4670 -0.6031 -0.4260
  748MOL0     C 3109   8.079   4.767   7.635  1.3112 -0.8677  0.5043
  748MOL0     O 3110   8.179   4.832   7.559  0.3473 -0.2316 -0.2193
  748MOL0     C 3111   8.297   4.769   7.537  0.9155  0.2167 -0.6107
  748MOL0     C 3112   8.307   4.638   7.514 -0.1056  0.3052 -0.3943
  748MOL0     C 3113   8.436   4.581   7.502  0.4727 -0.2547  0.0534
  748MOL0     C 3114   8.434   4.442   7.444  0.0276 -0.3537 -0.4573
  748MOL0     C 3115   8.549   4.647   7.519  0.4937 -0.2447  0.8142
  748MOL0     C 3116   8.684   4.588   7.530 -0.2027  0.5733  0.0457
  748MOL0     O 3117   8.789   4.668   7.518  0.2229 -0.1360  0.5100
  748MOL0     C 3118   8.911   4.628   7.565  0.4734  0.3987 -0.4030
  748MOL0     C 3119   8.923   4.542   7.680 -0.2799 -0.1268 -0.0027
  748MOL0     C 3120   9.048   4.499   7.720 -0.2443  0.2299 -0.8830
  748MOL0     C 3121   9.170   4.535   7.649 -0.0312  0.3545  0.2390
  748MOL0     O 3122   9.289   4.485   7.693  0.0514 -0.0685 -0.6457
  748MOL0     C 3123   9.413   4.533   7.644  0.1000 -0.0953  0.0837
  748MOL0     C 3124   9.446   4.676   7.683 -0.9840  0.2797  0.8109
  748MOL0     C 3125   9.565   4.744   7.609  0.4716 -0.4201 -0.0957
  748MOL0     C 3126   9.692   4.718   7.691 -0.6336 -0.0978 -0.0689
  748MOL0     C 3127   9.820   4.771   7.627 -0.5769 -0.4059 -0.4905
  748MOL0     C 3128   9.863   4.674   7.515  0.9110 -0.7018  1.0363
  748MOL0     C 3129   9.936   4.551   7.571  0.1573 -0.4079  0.0411
  748MOL0     C 3130  10.003   4.468   7.453 -0.4706 -0.5358  0.5568
  748MOL0    Cl 3131   9.880   4.409   7.339  0.0041 -0.6223  0.0587
  748MOL0     C 3132   9.153   4.601   7.524  0.3759 -0.2675 -0.1518
  748MOL0     C 3133   9.027   4.647   7.492 -0.6463 -0.4607  0.1242
  748MOL0     O 3134   8.690   4.466   7.535  0.8655  0.6010  0.8125
  748MOL0     C 3135   8.536   4.785   7.543  0.1541  0.0406 -0.6353
  748MOL0     C 3136   8.409   4.843   7.554 -0.5039  0.3180 -0.3793
  748MOL0     N 3137   7.883   4.815   8.142 -0.1112  0.2502 -0.2578
  748MOL0     N 3138   7.915   4.914   8.220 -0.1880 -0.2681 -0.5655
  748MOL0     C 3139   6.864   5.057   8.243  0.0719  0.2025 -0.3402
  748MOL0     C 3140   6.733   5.036   8.211  0.6523 -0.7167 -0.2782
  748MOL0     C 3141   6.293   5.133   8.173 -0.9430 -0.0380  0.3230
  748MOL0     C 3142   6.225   5.055   8.265 -0.0966 -0.4242 -0.2091
  748MOL0     C 3143   6.089   5.046   8.266  0.3803  0.5207 -0.8230
  748MOL0     C 3144   6.010   5.130   8.191  0.0338 -0.3814 -0.3995
  748MOL0     O 3145   5.871   5.142   8.204 -0.5114  0.6672 -0.1678
  748MOL0     C 3146   5.802   5.040   8.280  0.4207  0.2767  0.1543
  748MOL0     C 3147   5.653   5.072   8.287 -0.2308 -0.2252  0.3249
  748MOL0     C 3148   5.563   4.980   8.361 -0.5330  0.1118  0.4069
  748MOL0     C 3149   5.545   5.024   8.512 -0.3728 -0.0610  0.1649
  748MOL0     C 3150   5.448   4.934   8.589 -0.1864  0.1929  0.7899
  748MOL0     C 3151   5.371   4.843   8.633 -0.3610 -0.9410  0.2313
  748MOL0     C 3152   6.084   5.216   8.101 -0.3985  0.7487 -0.0307
  748MOL0     C 3153   6.220   5.201   8.081  0.0920 -1.2619  0.5636
  748MOL0     C 3154   6.282   5.271   7.963 -0.1515 -0.1751 -0.2548
  748MOL0     H 3155   6.602   5.132   8.510 -1.7032 -0.7415 -0.6249
  748MOL0     H 3156   6.849   5.175   8.557 -1.2499 -1.4509  1.1391
  748MOL0     H 3157   7.111   5.194   8.222  2.1961  1.4626  0.1961
  748MOL0     H 3158   7.142   5.020   8.258 -0.4377  0.1695  0.8233
  748MOL0     H 3159   7.285   5.271   8.369 -1.9112 -0.2938  1.1991
  748MOL0     H 3160   7.284   5.112   8.455  1.1467 -0.0546  0.0571
  748MOL0     H 3161   7.385   5.011   8.247 -2.0534 -0.1887  1.0753
  748MOL0     H 3162   7.387   5.177   8.181  4.1133 -1.6933 -1.1441
  748MOL0     H 3163   7.529   5.242   8.396  0.3918  0.8321  0.1887
  748MOL0     H 3164   7.555   5.068   8.386 -2.7957 -1.8343 -0.9895
  748MOL0     H 3165   7.605   5.263   8.143 -2.1014 -0.8301 -0.9636
  748MOL0     H 3166   7.658   5.087   8.156  1.1955  0.7505 -1.2031
  748MOL0     H 3167   7.756   5.314   8.344  2.2457  1.3140  0.1234
  748MOL0     H 3168   7.793   5.143   8.346  0.0801 -0.3061 -1.5549
  748MOL0     H 3169   7.925   5.347   8.209 -1.6608  1.3587 -1.9129
  748MOL0     H 3170   7.840   5.265   8.085  0.8636 -0.9752  0.5150
  748MOL0     H 3171   8.057   5.177   8.093 -1.3796  0.3294 -0.8141
  748MOL0     H 3172   8.055   5.130   8.264 -2.1609 -0.2359  1.0891
  748MOL0     H 3173   7.893   5.060   7.928 -0.5566  1.7372  0.7942
  748MOL0     H 3174   7.827   4.833   7.806 -0.0821  0.2029 -0.1261
  748MOL0     H 3175   7.789   4.702   7.925 -0.2777 -0.6020 -1.1943
  748MOL0     H 3176   8.020   4.654   7.950 -0.5219  0.5110  1.2299
  748MOL0     H 3177   7.949   4.615   7.791 -4.4625  1.8941  0.5830
  748MOL0     H 3178   8.119   4.874   7.821  1.8367 -1.0760 -0.1634
  748MOL0     H 3179   8.198   4.726   7.796 -0.9945 -1.5976  0.1316
  748MOL0     H 3180   8.069   4.663   7.604  2.2284 -1.2216  1.3340
  748MOL0     H 3181   7.984   4.815   7.612  0.4294 -3.1925 -0.9858
  748MOL0     H 3182   8.227   4.565   7.504 -3.2306  3.1697  1.2809
  748MOL0     H 3183   8.336   4.419   7.402 -0.4519  0.0546  0.4237
  748MOL0     H 3184   8.445   4.373   7.528  2.3248 -0.4839 -0.7853
  748MOL0     H 3185   8.518   4.426   7.376  0.6513  2.3134 -0.4243
  748MOL0     H 3186   8.840   4.517   7.746 -1.0421 -2.4413 -1.6632
  748MOL0     H 3187   9.049   4.433   7.807 -0.9014 -1.8128 -2.3372
  748MOL0     H 3188   9.499   4.482   7.688 -0.5387 -1.1893  0.0973
  748MOL0     H 3189   9.410   4.529   7.534 -0.4821  0.0802  0.0936
  748MOL0     H 3190   9.358   4.737   7.660 -0.5361  1.4924  2.1559
  748MOL0     H 3191   9.458   4.690   7.791  1.9504 -0.8471  0.7128
  748MOL0     H 3192   9.546   4.850   7.591 -0.6481 -0.9077 -2.1425
  748MOL0     H 3193   9.574   4.709   7.506 -2.0234 -0.9927 -0.1678
  748MOL0     H 3194   9.706   4.614   7.721  0.5747 -0.0989 -0.5792
  748MOL0     H 3195   9.671   4.768   7.786 -0.9740 -0.4308  0.0337
  748MOL0     H 3196   9.787   4.869   7.592 -1.1015 -0.3214  0.2069
  748MOL0     H 3197   9.904   4.792   7.695  0.2632 -1.0731 -1.2989
  748MOL0     H 3198   9.939   4.728   7.458 -1.2222  0.8753 -0.5115
  748MOL0     H 3199   9.774   4.649   7.457  1.6117  1.5261 -1.1726
  748MOL0     H 3200   9.874   4.488   7.636  0.0594 -0.7241 -0.3593
  748MOL0     H 3201  10.013   4.588   7.640  0.8310 -1.9700  0.1867
  748MOL0     H 3202  10.041   4.381   7.506 -0.1571  0.6538  2.3837
  748MOL0     H 3203  10.086   4.512   7.396  0.3175 -2.1823  0.4000
  748MOL0     H 3204   9.240   4.618   7.462  1.6860  0.1178  1.7007
  748MOL0     H 3205   9.030   4.689   7.392  1.9128  0.4412  0.5026
  748MOL0     H 3206   8.628   4.840   7.559  2.7206 -3.1829 -2.9028
  748MOL0     H 3207   8.406   4.950   7.569 -1.7074  0.3733 -0.9006
  748MOL0     H 3208   6.934   5.025   8.166 -1.0696 -2.1228 -0.4780
  748MOL0     H 3209   6.707   5.004   8.111  1.4810 -0.2262 -0.6587
  748MOL0     H 3210   6.270   4.973   8.319  1.8134  0.3763 -0.4948
  748MOL0     H 3211   6.044   4.974   8.334  0.5969  0.2120 -1.0015
  748MOL0     H 3212   5.815   4.943   8.232  2.1618  0.3076  0.4809
  748MOL0     H 3213   5.848   5.028   8.378 -0.1677 -1.6536  0.2295
  748MOL0     H 3214   5.616   5.077   8.184 -0.3697  3.6042  0.4165
  748MOL0     H 3215   5.639   5.169   8.336 -3.8720 -0.3815 -0.1381
  748MOL0     H 3216   5.465   4.969   8.313 -0.5167  1.1573  0.1259
  748MOL0     H 3217   5.609   4.881   8.358  2.1989  1.3010  0.4196
  748MOL0     H 3218   5.508   5.127   8.518 -0.5739 -0.0613 -0.8624
  748MOL0     H 3219   5.641   5.019   8.563 -1.9273 -1.2288  3.2294
  748MOL0     H 3220   5.308   4.765   8.670  0.9607 -0.5007  3.8130
  748MOL0     H 3221   6.028   5.285   8.038 -1.2422  0.9266  0.8998
  748MOL0     H 3222   6.224   5.294   7.873  0.8028  0.2405 -0.7846
  748MOL0     H 3223   6.311   5.372   7.995  0.8008 -0.9506  1.4705
  748MOL0     H 3224   6.356   5.213   7.908  0.1402  0.9381 -1.0716
  749MOL0     O 3225   0.820  10.967   4.653 -0.2688  0.1667  0.5946
  749MOL0     C 3226   0.775  10.999   4.540 -0.1270 -0.7508 -0.2845
  749MOL0     O 3227   0.848  11.033   4.427  0.2350  0.1207 -0.2742
  749MOL0     C 3228   0.981  11.023   4.427 -0.1737 -0.6482  0.3840
  749MOL0     C 3229   1.058  11.099   4.515 -0.1664  0.5393  0.5021
  749MOL0     C 3230   1.198  11.096   4.506  0.7823 -0.2275  0.1114
  749MOL0     C 3231   1.257  11.032   4.391  0.3383  0.3109 -0.1492
  749MOL0     O 3232   1.390  11.030   4.370  0.9565  0.5199 -0.0995
  749MOL0     C 3233   1.470  11.142   4.405  0.7695 -0.1105 -0.3689
  749MOL0     C 3234   1.548  11.144   4.540  0.0934  0.7132  0.0259
  749MOL0     C 3235   1.655  11.034   4.532 -0.0710  0.2116 -0.2350
  749MOL0     C 3236   1.732  11.026   4.674  0.6513 -0.5949  0.0170
  749MOL0     C 3237   1.842  11.136   4.693  0.3366 -0.6988 -0.1786
  749MOL0     C 3238   1.963  11.107   4.605  0.1575 -0.6583 -0.0705
  749MOL0     C 3239   2.060  11.220   4.593 -0.3426  0.1080  0.0118
  749MOL0     C 3240   2.198  11.183   4.542 -0.8003 -0.5054  0.6894
  749MOL0     N 3241   2.198  11.119   4.405 -0.2697 -0.0329 -0.0582
  749MOL0     C 3242   2.204  11.187   4.283  0.2204 -0.8850 -0.0189
  749MOL0     C 3243   2.211  11.094   4.188  0.0243  0.4335 -0.5269
  749MOL0     C 3244   2.220  11.125   4.040  0.3103 -0.4189 -0.2542
  749MOL0     C 3245   2.328  11.230   4.019 -0.1011 -0.2542  0.3918
  749MOL0     C 3246   2.340  11.269   3.869  0.1018 -0.9492  0.7382
  749MOL0     C 3247   2.458  11.364   3.837  1.0309  0.4355 -0.5708
  749MOL0     O 3248   2.582  11.295   3.849  0.2150  0.1170  0.0756
  749MOL0     C 3249   2.689  11.375   3.852 -0.1093  0.3311 -0.2090
  749MOL0     C 3250   2.698  11.502   3.802 -0.0755 -0.1930  0.2335
  749MOL0     C 3251   2.817  11.578   3.805 -0.0385  0.4785 -0.6716
  749MOL0     C 3252   2.799  11.719   3.734  0.4838  0.5907 -0.3311
  749MOL0     C 3253   2.935  11.522   3.862  0.3614 -0.0451 -0.9962
  749MOL0     C 3254   3.063  11.598   3.875 -0.0899  0.5625 -0.2056
  749MOL0     O 3255   3.063  11.733   3.860  0.6485  0.0710 -0.3240
  749MOL0     C 3256   3.183  11.805   3.883 -0.2504  0.0531 -0.3313
  749MOL0     C 3257   3.293  11.781   3.805 -1.0633  0.1843 -0.1274
  749MOL0     C 3258   3.410  11.850   3.840 -0.4430 -0.1753  0.4091
  749MOL0     C 3259   3.414  11.937   3.943  0.2048 -0.4821  0.7981
  749MOL0     O 3260   3.530  12.010   3.963  0.4474 -0.1074 -0.1349
  749MOL0     C 3261   3.564  12.056   4.096 -1.1247 -0.3180  0.5314
  749MOL0     C 3262   3.572  12.212   4.094 -0.9575  0.6975 -0.9236
  749MOL0     C 3263   3.633  12.287   4.214  0.4554  0.5780  1.0866
  749MOL0     C 3264   3.545  12.268   4.336  0.9670  0.6891 -0.1580
  749MOL0     C 3265   3.606  12.332   4.458  0.1071  0.5627  0.1835
  749MOL0     C 3266   3.545  12.289   4.594  0.0405 -0.3545 -0.0643
  749MOL0     C 3267   3.568  12.139   4.630 -0.0298 -0.2717  0.2815
  749MOL0     C 3268   3.531  12.112   4.774  0.1555  0.3224  1.0752
  749MOL0    Cl 3269   3.669  12.155   4.872  0.4294 -0.0487 -0.0939
  749MOL0     C 3270   3.304  11.960   4.020  0.2108  0.3034 -0.1532
  749MOL0     C 3271   3.186  11.893   3.993  0.4077  0.5917  0.1421
  749MOL0     O 3272   3.157  11.523   3.870  0.4233  0.1139  0.1309
  749MOL0     C 3273   2.923  11.391   3.917  0.0392  0.4681  0.2117
  749MOL0     C 3274   2.805  11.318   3.907 -0.0930 -0.4975 -0.3782
  749MOL0     N 3275   2.203  10.971   4.252 -0.0341 -0.2023 -0.1700
  749MOL0     N 3276   2.196  10.986   4.384  1.1797  0.3689 -0.7027
  749MOL0     C 3277   1.183  10.962   4.303 -0.6022  0.6070 -0.6078
  749MOL0     C 3278   1.045  10.947   4.326 -0.3341  0.1230  0.1408
  749MOL0     C 3279   0.630  11.009   4.525 -0.7776 -1.1605 -0.3196
  749MOL0     C 3280   0.558  10.933   4.611  0.7762 -0.8399  0.1093
  749MOL0     C 3281   0.419  10.930   4.601  0.3158  0.9819  0.7033
  749MOL0     C 3282   0.356  11.015   4.514  0.7895  0.0676 -0.6871
  749MOL0     O 3283   0.219  11.023   4.509 -0.0489  0.6701 -0.2057
  749MOL0     C 3284   0.137  10.965   4.611 -0.0393 -0.5858  0.5044
  749MOL0     C 3285   0.007  11.050   4.590 -0.2364 -0.3196  0.3998
  749MOL0     C 3286  -0.098  11.036   4.695 -0.2665  0.2678  0.5093
  749MOL0     C 3287  -0.160  10.898   4.710  0.1464 -0.4381  0.5609
  749MOL0     C 3288  -0.302  10.889   4.744 -0.5258  0.3562 -0.0384
  749MOL0     C 3289  -0.421  10.879   4.757 -1.0425 -0.5075 -0.0627
  749MOL0     C 3290   0.430  11.094   4.429  0.9053  0.2828  0.6664
  749MOL0     C 3291   0.564  11.099   4.440 -1.1660 -0.0755 -0.6388
  749MOL0     C 3292   0.625  11.204   4.348  0.1317 -0.1824  0.1812
  749MOL0     H 3293   1.016  11.165   4.590  0.1828 -1.5019  2.6070
  749MOL0     H 3294   1.262  11.145   4.579 -0.1452  1.9642 -0.4897
  749MOL0     H 3295   1.400  11.225   4.423  0.5447 -0.7222  1.7712
  749MOL0     H 3296   1.541  11.158   4.323 -0.7776 -0.7340 -1.8998
  749MOL0     H 3297   1.599  11.240   4.555 -0.1471  0.6158  1.6717
  749MOL0     H 3298   1.481  11.140   4.626 -0.4491  1.2029 -0.3676
  749MOL0     H 3299   1.613  10.936   4.507 -0.9389  0.5060  0.0231
  749MOL0     H 3300   1.723  11.060   4.450 -0.6545  0.3461 -0.6830
  749MOL0     H 3301   1.662  11.039   4.757 -0.9192 -1.0372 -1.2066
  749MOL0     H 3302   1.775  10.927   4.688  0.1243 -0.7309  0.6864
  749MOL0     H 3303   1.884  11.126   4.793  0.6576 -1.5535 -0.3907
  749MOL0     H 3304   1.802  11.234   4.667  0.3006 -1.3100 -2.7054
  749MOL0     H 3305   2.002  11.014   4.648 -1.3467 -1.1108  0.4065
  749MOL0     H 3306   1.925  11.080   4.506 -1.9925 -0.8897  0.7490
  749MOL0     H 3307   2.069  11.250   4.698  1.9331 -2.2036  0.5584
  749MOL0     H 3308   2.009  11.291   4.526  0.1338 -0.7447 -1.3058
  749MOL0     H 3309   2.271  11.265   4.544  1.1680 -2.1240 -0.6076
  749MOL0     H 3310   2.242  11.103   4.602  0.9833 -2.3636 -2.8063
  749MOL0     H 3311   2.219  11.292   4.257  1.9247 -0.7684  1.3195
  749MOL0     H 3312   2.122  11.146   3.995 -1.3392 -1.7816  2.4384
  749MOL0     H 3313   2.264  11.036   3.995  2.8752  0.4611  0.3589
  749MOL0     H 3314   2.308  11.322   4.074 -0.3161  1.4139 -2.3055
  749MOL0     H 3315   2.424  11.196   4.058 -0.0479  0.6605  1.1031
  749MOL0     H 3316   2.357  11.175   3.815 -1.1982  0.1635 -1.7999
  749MOL0     H 3317   2.248  11.297   3.818 -1.5020 -2.4283  2.6917
  749MOL0     H 3318   2.449  11.417   3.742  0.8627  1.0366 -0.2236
  749MOL0     H 3319   2.461  11.440   3.915  1.0159  1.6060 -1.6677
  749MOL0     H 3320   2.610  11.529   3.745 -0.0120 -1.3661 -0.4498
  749MOL0     H 3321   2.696  11.751   3.715 -0.4277 -0.6672  2.0743
  749MOL0     H 3322   2.851  11.715   3.637 -0.7181 -0.0160 -0.9744
  749MOL0     H 3323   2.843  11.794   3.800  0.2164 -0.7437  1.4271
  749MOL0     H 3324   3.287  11.715   3.718 -1.0105  0.3081 -0.2242
  749MOL0     H 3325   3.497  11.829   3.778 -1.1605 -1.3149 -0.2276
  749MOL0     H 3326   3.491  12.016   4.168 -3.8070  1.7401 -0.8815
  749MOL0     H 3327   3.667  12.030   4.120 -0.3013  1.4596 -0.8985
  749MOL0     H 3328   3.632  12.251   4.011 -0.5493 -0.2383 -1.0720
  749MOL0     H 3329   3.472  12.252   4.072 -1.2644 -0.7750 -2.3696
  749MOL0     H 3330   3.648  12.392   4.190  0.8893  0.2331 -0.2505
  749MOL0     H 3331   3.733  12.257   4.246  1.3081  1.0532 -1.0205
  749MOL0     H 3332   3.531  12.160   4.347  0.6349  0.8704  1.4340
  749MOL0     H 3333   3.444  12.309   4.337 -0.5763 -2.7089 -1.2711
  749MOL0     H 3334   3.710  12.298   4.463 -0.1318 -0.1101  0.6320
  749MOL0     H 3335   3.602  12.442   4.453 -0.1896  0.5455  0.0690
  749MOL0     H 3336   3.441  12.318   4.613  0.3528  1.2880 -0.6294
  749MOL0     H 3337   3.587  12.355   4.671 -1.3898  0.6518 -0.1019
  749MOL0     H 3338   3.672  12.110   4.609  0.7857  2.0126  0.9359
  749MOL0     H 3339   3.506  12.073   4.569 -0.3441 -0.5791  0.9210
  749MOL0     H 3340   3.494  12.009   4.780 -1.7301  0.9614  1.1079
  749MOL0     H 3341   3.444  12.172   4.801 -0.1646  0.3398  0.0753
  749MOL0     H 3342   3.301  12.031   4.102 -0.8663 -1.4003  1.3729
  749MOL0     H 3343   3.088  11.920   4.032  0.1249 -0.0412 -0.1108
  749MOL0     H 3344   3.008  11.342   3.964 -0.8272 -1.0067  0.3038
  749MOL0     H 3345   2.794  11.217   3.944  1.0288 -1.6597 -2.9738
  749MOL0     H 3346   1.220  10.907   4.217  0.5743  0.5611 -0.0818
  749MOL0     H 3347   0.978  10.888   4.264  0.5865 -0.0644 -0.7120
  749MOL0     H 3348   0.594  10.878   4.697  1.0774  0.8516  1.0996
  749MOL0     H 3349   0.368  10.857   4.664  1.2117 -0.5075 -0.2479
  749MOL0     H 3350   0.109  10.860   4.603  0.6155 -0.7227 -0.1292
  749MOL0     H 3351   0.179  10.983   4.711 -0.5403  1.2916  0.4289
  749MOL0     H 3352  -0.031  11.029   4.490  0.0646  1.9233 -0.2434
  749MOL0     H 3353   0.040  11.154   4.589 -2.6363  0.4999 -1.2325
  749MOL0     H 3354  -0.044  11.060   4.788  0.8072  1.3155 -0.3581
  749MOL0     H 3355  -0.176  11.110   4.675 -0.9490 -0.8598 -1.1769
  749MOL0     H 3356  -0.108  10.850   4.794  0.3217 -1.6574 -0.2227
  749MOL0     H 3357  -0.146  10.841   4.618  0.0964  1.1296 -0.4345
  749MOL0     H 3358  -0.525  10.857   4.766 -1.4609  1.7114  1.1400
  749MOL0     H 3359   0.383  11.158   4.355  0.4947 -0.4774  0.2499
  749MOL0     H 3360   0.657  11.177   4.247 -0.0099  1.4325 -0.3313
  749MOL0     H 3361   0.563  11.293   4.329 -0.5847 -0.2029  2.1805
  749MOL0     H 3362   0.710  11.235   4.409 -0.6399 -1.1984  1.8306
  750MOL0     O 3363  10.893   2.843   7.764  0.1013  0.0977  0.3463
  750MOL0     C 3364  10.933   2.952   7.724  0.7079  0.3112 -1.2026
  750MOL0     O 3365  11.058   3.007   7.760  0.2036 -0.2813 -0.1438
  750MOL0     C 3366  11.168   2.928   7.789  1.1040 -0.9583  0.2800
  750MOL0     C 3367  11.164   2.806   7.858  0.2046  0.8113 -0.2235
  750MOL0     C 3368  11.293   2.749   7.888 -0.7585 -0.2489  0.0547
  750MOL0     C 3369  11.418   2.811   7.854 -0.3525  0.5892  0.2398
  750MOL0     O 3370  11.542   2.762   7.897  0.0009  0.1383  0.4163
  750MOL0     C 3371  11.543   2.671   8.009  0.2008  0.7446  0.2200
  750MOL0     C 3372  11.680   2.698   8.083  0.0383  0.6654 -0.2679
  750MOL0     C 3373  11.697   2.839   8.137  0.0005 -0.0027  0.0954
  750MOL0     C 3374  11.839   2.872   8.192 -0.4084 -0.7999  0.6834
  750MOL0     C 3375  11.824   3.022   8.249  0.1641  0.2307 -0.0334
  750MOL0     C 3376  11.961   3.085   8.308 -0.0719 -0.0686 -0.2537
  750MOL0     C 3377  12.023   3.001   8.415 -0.1158  0.3385 -0.1409
  750MOL0     C 3378  12.156   3.061   8.475 -0.5340  0.0221  0.1913
  750MOL0     N 3379  12.232   2.953   8.530  0.2693  0.0191 -0.6295
  750MOL0     C 3380  12.208   2.906   8.657  0.0896  0.3646  0.2644
  750MOL0     C 3381  12.313   2.825   8.682  0.9056  0.0416 -0.8129
  750MOL0     C 3382  12.312   2.733   8.802  0.1793 -0.3566  0.3871
  750MOL0     C 3383  12.384   2.802   8.913  0.1439 -0.3062 -0.4431
  750MOL0     C 3384  12.395   2.711   9.033 -0.3453  0.3677  0.4028
  750MOL0     C 3385  12.507   2.749   9.122 -0.6961 -0.6621 -0.4594
  750MOL0     O 3386  12.499   2.889   9.159 -0.2673 -0.2370 -0.0934
  750MOL0     C 3387  12.600   2.935   9.236 -0.1452  0.5338  0.0569
  750MOL0     C 3388  12.583   3.060   9.287 -0.1174 -0.4882 -0.8823
  750MOL0     C 3389  12.697   3.119   9.351  0.0568  0.3340  0.0920
  750MOL0     C 3390  12.683   3.269   9.373 -0.2384  0.5770 -0.0878
  750MOL0     C 3391  12.815   3.046   9.387 -0.3417 -0.7613 -0.8746
  750MOL0     C 3392  12.920   3.098   9.472 -0.0171 -0.6263  0.7472
  750MOL0     O 3393  13.044   3.044   9.456 -0.2787  0.1663 -0.5097
  750MOL0     C 3394  13.151   3.068   9.537 -0.3991  0.0449 -0.1664
  750MOL0     C 3395  13.145   3.118   9.669  0.1429 -0.0552  0.6268
  750MOL0     C 3396  13.262   3.127   9.737 -0.3067  0.0375 -0.8134
  750MOL0     C 3397  13.390   3.101   9.680  0.5939 -0.5960 -0.8213
  750MOL0     O 3398  13.512   3.107   9.751 -0.3469 -0.1027  0.8599
  750MOL0     C 3399  13.518   3.129   9.890 -0.0054 -0.4930 -0.1556
  750MOL0     C 3400  13.658   3.178   9.921 -0.3541  0.1710  0.0892
  750MOL0     C 3401  13.676   3.250  10.048  0.4459 -0.9501  0.2858
  750MOL0     C 3402  13.818   3.302  10.056 -0.8261 -0.6212  0.5239
  750MOL0     C 3403  13.854   3.364  10.197 -0.3950 -0.2440 -0.2093
  750MOL0     C 3404  13.980   3.451  10.190  0.6120  0.3730  0.8790
  750MOL0     C 3405  14.112   3.367  10.193 -0.0754  0.3597 -0.2626
  750MOL0     C 3406  14.157   3.349  10.337 -0.4908 -0.0521 -0.2075
  750MOL0    Cl 3407  14.301   3.240  10.323  0.0214  0.0794 -0.5516
  750MOL0     C 3408  13.393   3.048   9.551  0.5626 -0.8047  0.1109
  750MOL0     C 3409  13.268   3.027   9.477 -0.5944 -0.4917 -0.0441
  750MOL0     O 3410  12.887   3.187   9.547  0.2919  0.2086 -0.4391
  750MOL0     C 3411  12.821   2.920   9.333 -0.3774  0.1596 -0.3597
  750MOL0     C 3412  12.721   2.862   9.254 -0.1255  0.0244 -1.0088
  750MOL0     N 3413  12.408   2.842   8.581 -0.0757 -0.1738  0.1148
  750MOL0     N 3414  12.353   2.914   8.490  0.1065  0.2223  0.4436
  750MOL0     C 3415  11.413   2.931   7.788 -0.1042  0.0996 -0.0728
  750MOL0     C 3416  11.293   2.989   7.761 -0.6857  0.0065 -0.1022
  750MOL0     C 3417  10.830   3.033   7.649 -0.7530  1.2719  0.2649
  750MOL0     C 3418  10.842   3.173   7.650 -0.0714 -0.2835 -0.3146
  750MOL0     C 3419  10.739   3.264   7.608 -0.4630  0.2982 -0.0864
  750MOL0     C 3420  10.620   3.202   7.556 -0.1354 -1.0409 -0.1877
  750MOL0     O 3421  10.511   3.262   7.495 -0.8081 -0.1183  0.0186
  750MOL0     C 3422  10.493   3.403   7.501  0.1336  0.4045 -0.1187
  750MOL0     C 3423  10.386   3.443   7.398  0.3346  0.0347 -0.0012
  750MOL0     C 3424  10.247   3.407   7.441  0.2108  0.9923  0.1912
  750MOL0     C 3425  10.158   3.393   7.320  0.5228  0.1950  0.3389
  750MOL0     C 3426  10.019   3.375   7.371  0.5874 -0.6820 -0.0047
  750MOL0     C 3427   9.906   3.395   7.421 -0.4422  0.3787 -0.2713
  750MOL0     C 3428  10.613   3.062   7.544 -0.2239 -0.1462 -0.1979
  750MOL0     C 3429  10.718   2.977   7.585 -0.0716  0.8266 -0.1622
  750MOL0     C 3430  10.706   2.831   7.540  0.7818  0.5052  0.2641
  750MOL0     H 3431  11.073   2.749   7.876  0.4885  0.2899 -0.4108
  750MOL0     H 3432  11.280   2.659   7.948  0.5223  0.1113  0.8985
  750MOL0     H 3433  11.540   2.571   7.964  1.5928  0.9702 -0.4455
  750MOL0     H 3434  11.456   2.694   8.072  0.5782  1.3584  0.5286
  750MOL0     H 3435  11.670   2.630   8.168 -0.6523  0.9050 -0.1473
  750MOL0     H 3436  11.766   2.668   8.023  0.2752  1.6336 -0.4286
  750MOL0     H 3437  11.673   2.914   8.061 -0.3972 -0.6208 -0.4009
  750MOL0     H 3438  11.624   2.842   8.218 -0.8173  2.3887 -0.6529
  750MOL0     H 3439  11.878   2.800   8.264  5.6259 -0.7181 -1.8367
  750MOL0     H 3440  11.915   2.864   8.113 -1.2552 -0.7936 -0.1600
  750MOL0     H 3441  11.747   3.030   8.326 -0.5099  0.6742 -0.7416
  750MOL0     H 3442  11.803   3.085   8.162  0.9471  0.6111  0.0394
  750MOL0     H 3443  12.036   3.096   8.229  1.8505  0.5871  1.5558
  750MOL0     H 3444  11.936   3.179   8.358 -1.8488 -1.9606  2.7607
  750MOL0     H 3445  12.047   2.905   8.366 -1.0507 -0.1785  0.3900
  750MOL0     H 3446  11.939   2.984   8.483  0.0830 -1.0142 -0.1944
  750MOL0     H 3447  12.222   3.112   8.405  2.2788  0.8023  3.1641
  750MOL0     H 3448  12.136   3.130   8.558  2.4176 -1.9959  2.8259
  750MOL0     H 3449  12.120   2.924   8.718 -0.1271  0.7984 -0.1689
  750MOL0     H 3450  12.363   2.643   8.767 -1.0661 -0.9687  0.0708
  750MOL0     H 3451  12.208   2.707   8.822 -0.4727  1.2943 -0.6273
  750MOL0     H 3452  12.487   2.821   8.882  1.2549 -0.9181  2.5442
  750MOL0     H 3453  12.340   2.900   8.934  1.6729 -0.1376  2.4770
  750MOL0     H 3454  12.298   2.718   9.083 -1.4779 -1.1010 -1.4323
  750MOL0     H 3455  12.411   2.607   9.005 -1.3362  0.9397 -2.6909
  750MOL0     H 3456  12.512   2.685   9.210 -3.8527  1.4113  1.4262
  750MOL0     H 3457  12.596   2.727   9.062 -1.3335  2.9891 -3.0963
  750MOL0     H 3458  12.491   3.112   9.262  0.1021 -0.5730 -1.9076
  750MOL0     H 3459  12.687   3.289   9.480  1.6944 -0.8882  0.1764
  750MOL0     H 3460  12.595   3.315   9.327  0.1050  1.4376  0.0920
  750MOL0     H 3461  12.771   3.317   9.327  0.3111  0.3276  0.6905
  750MOL0     H 3462  13.049   3.135   9.716 -0.6415  2.2120 -1.5916
  750MOL0     H 3463  13.262   3.150   9.843 -2.2154 -1.5804 -0.4207
  750MOL0     H 3464  13.448   3.210   9.913 -0.8244 -1.1768 -0.2289
  750MOL0     H 3465  13.501   3.039   9.950 -2.0408  0.2730  0.5035
  750MOL0     H 3466  13.724   3.091   9.923 -1.1686 -0.4655 -0.0953
  750MOL0     H 3467  13.690   3.247   9.843 -0.0680  0.7184  0.6821
  750MOL0     H 3468  13.652   3.183  10.132 -3.5888  1.6763  1.5088
  750MOL0     H 3469  13.603   3.330  10.053  1.3736 -0.0231 -0.5123
  750MOL0     H 3470  13.837   3.373   9.975  0.8079 -2.0675 -0.4247
  750MOL0     H 3471  13.884   3.216  10.042  0.6448  0.5271  0.2630
  750MOL0     H 3472  13.773   3.428  10.232  0.5026  1.4347 -1.0958
  750MOL0     H 3473  13.866   3.284  10.271  0.2251 -0.1146 -0.1655
  750MOL0     H 3474  13.968   3.515  10.279 -0.5066 -0.3065  1.2361
  750MOL0     H 3475  13.977   3.514  10.101  1.3740 -0.5520  0.1832
  750MOL0     H 3476  14.198   3.408  10.141  2.3559 -2.5949  1.1070
  750MOL0     H 3477  14.089   3.268  10.151  1.9633  0.0820 -0.8390
  750MOL0     H 3478  14.076   3.316  10.402  0.2034  0.0650  0.7371
  750MOL0     H 3479  14.192   3.447  10.370  1.4903 -1.2722  1.5490
  750MOL0     H 3480  13.489   3.024   9.506  0.4160 -0.1680 -0.5653
  750MOL0     H 3481  13.269   3.010   9.370 -0.0266  1.4624 -0.3850
  750MOL0     H 3482  12.909   2.860   9.356 -1.6132 -2.1125 -1.2092
  750MOL0     H 3483  12.730   2.768   9.201  0.4749  0.8332 -2.4073
  750MOL0     H 3484  11.510   2.975   7.765 -0.6362  0.5874 -1.5301
  750MOL0     H 3485  11.287   3.091   7.724 -1.9823  0.4354  1.2212
  750MOL0     H 3486  10.937   3.213   7.684 -2.4211  3.8788  2.0954
  750MOL0     H 3487  10.745   3.372   7.619 -0.1070  0.4425 -1.4969
  750MOL0     H 3488  10.461   3.430   7.602  1.4283  0.1203  0.3945
  750MOL0     H 3489  10.591   3.451   7.491  1.4858 -2.1920 -0.2406
  750MOL0     H 3490  10.420   3.392   7.307  1.4414  0.5838  0.0876
  750MOL0     H 3491  10.387   3.551   7.383 -1.7195  0.4237  2.0128
  750MOL0     H 3492  10.252   3.309   7.489 -3.2715  0.4097 -0.3893
  750MOL0     H 3493  10.205   3.480   7.510 -0.6539 -0.8780  1.7147
  750MOL0     H 3494  10.194   3.320   7.248  1.0231  1.3233 -0.5918
  750MOL0     H 3495  10.157   3.490   7.269 -1.6115  0.9569  1.6883
  750MOL0     H 3496   9.811   3.419   7.465 -0.7672  1.3270 -1.4325
  750MOL0     H 3497  10.538   3.019   7.478 -1.3086 -0.7358  1.3637
  750MOL0     H 3498  10.792   2.782   7.494 -1.7020 -4.0800  0.0221
  750MOL0     H 3499  10.683   2.763   7.622  3.0051  0.2489  0.7567
  750MOL0     H 3500  10.625   2.829   7.467  2.5458 -0.4578 -1.7687
  751MOL0     O 3501   7.357  10.267  10.866 -0.3915  0.0722  0.9330
  751MOL0     C 3502   7.292  10.348  10.801 -0.7484 -0.4420  0.2388
  751MOL0     O 3503   7.336  10.426  10.701 -0.1011 -0.4072 -0.5829
  751MOL0     C 3504   7.461  10.404  10.641  0.6622  0.7173 -0.3955
  751MOL0     C 3505   7.516  10.276  10.606 -0.4242  0.0192 -0.1580
  751MOL0     C 3506   7.633  10.265  10.532 -0.1651  1.0601 -0.4023
  751MOL0     C 3507   7.711  10.375  10.501  0.6498  0.4035 -0.0661
  751MOL0     O 3508   7.838  10.380  10.447 -0.0237  0.0976  0.0481
  751MOL0     C 3509   7.922  10.275  10.416 -0.5017  0.3357 -0.0966
  751MOL0     C 3510   8.004  10.250  10.537  0.0818  0.3506  0.4104
  751MOL0     C 3511   8.091  10.371  10.558 -0.2435 -0.1315  0.0499
  751MOL0     C 3512   8.177  10.339  10.682  0.2804  0.1851  0.2661
  751MOL0     C 3513   8.271  10.452  10.710  0.2351 -0.4396  0.0354
  751MOL0     C 3514   8.400  10.416  10.629 -0.4818  0.8202 -0.6847
  751MOL0     C 3515   8.509  10.525  10.637  0.2665 -0.8978 -0.2895
  751MOL0     C 3516   8.575  10.540  10.777  1.1772 -0.1466  0.8371
  751MOL0     N 3517   8.635  10.413  10.816 -0.4815  0.0221 -0.3908
  751MOL0     C 3518   8.744  10.366  10.760  0.0671 -0.1175 -0.4114
  751MOL0     C 3519   8.783  10.263  10.837 -0.1887  0.1299 -0.5391
  751MOL0     C 3520   8.905  10.172  10.817 -0.5731 -0.3704  0.4366
  751MOL0     C 3521   8.968  10.134  10.955 -0.2655 -1.3115  0.2751
  751MOL0     C 3522   9.091  10.037  10.940  0.5798  0.9773  0.1705
  751MOL0     C 3523   9.151  10.004  11.083  1.0003 -0.0022  0.6577
  751MOL0     O 3524   9.230  10.119  11.116 -0.5890 -0.4499  0.4192
  751MOL0     C 3525   9.364  10.119  11.082 -0.3600 -0.7764 -0.2992
  751MOL0     C 3526   9.435  10.022  11.002 -0.0154  0.7305 -0.0565
  751MOL0     C 3527   9.578  10.025  10.980 -0.0190  0.2585  0.0687
  751MOL0     C 3528   9.631   9.922  10.891 -0.1670  0.1312 -0.3946
  751MOL0     C 3529   9.655  10.120  11.049  0.5826 -0.2761  0.1804
  751MOL0     C 3530   9.804  10.135  11.028 -0.0011  0.2645 -0.9105
  751MOL0     O 3531   9.870  10.224  11.108  0.7583  0.1706  0.3111
  751MOL0     C 3532  10.005  10.242  11.114  0.2126 -0.5665  0.7863
  751MOL0     C 3533  10.053  10.360  11.172  0.5665  0.7940 -0.0230
  751MOL0     C 3534  10.184  10.383  11.189 -0.6182  0.3581 -1.0759
  751MOL0     C 3535  10.278  10.278  11.165 -0.5027  0.5951 -0.6674
  751MOL0     O 3536  10.411  10.269  11.205  0.4916  0.2437 -0.2747
  751MOL0     C 3537  10.475  10.371  11.284 -0.2404 -0.2877 -0.8244
  751MOL0     C 3538  10.421  10.387  11.423 -0.4713 -0.2136 -0.2891
  751MOL0     C 3539  10.499  10.472  11.517  0.1822  0.0561 -0.2092
  751MOL0     C 3540  10.444  10.470  11.662  0.4688 -0.4405 -0.1386
  751MOL0     C 3541  10.497  10.584  11.738  0.1794 -0.9844 -0.5951
  751MOL0     C 3542  10.648  10.568  11.776  0.0624  0.6427 -0.0996
  751MOL0     C 3543  10.712  10.704  11.793 -0.4052 -0.2470  0.2511
  751MOL0     C 3544  10.836  10.697  11.886 -0.3991  0.0186 -0.4772
  751MOL0    Cl 3545  10.950  10.585  11.820  0.1016  0.2651 -0.1087
  751MOL0     C 3546  10.240  10.160  11.102  0.6273  0.2948  0.2578
  751MOL0     C 3547  10.097  10.148  11.074 -0.1639 -0.9130  0.6035
  751MOL0     O 3548   9.854  10.093  10.924  0.2683 -0.3157  0.3188
  751MOL0     C 3549   9.582  10.222  11.115 -0.6534  0.0729 -0.3212
  751MOL0     C 3550   9.445  10.218  11.135  0.1261  0.9475  0.6248
  751MOL0     N 3551   8.687  10.243  10.932 -0.5842  0.4859 -0.9690
  751MOL0     N 3552   8.596  10.333  10.920  0.2803 -0.2754 -0.1890
  751MOL0     C 3553   7.668  10.496  10.554 -0.3230 -0.6096 -0.2598
  751MOL0     C 3554   7.542  10.515  10.612  0.0407 -0.3782  0.2410
  751MOL0     C 3555   7.137  10.341  10.806 -0.4597 -0.4869 -0.3114
  751MOL0     C 3556   7.066  10.356  10.689 -0.1522 -0.8907 -0.2125
  751MOL0     C 3557   6.932  10.352  10.680  0.0958  0.5406 -0.4731
  751MOL0     C 3558   6.854  10.313  10.797 -0.9384 -0.2433 -0.7970
  751MOL0     O 3559   6.717  10.305  10.806  0.4981 -0.0339 -0.0977
  751MOL0     C 3560   6.632  10.314  10.697 -0.9999 -0.1098 -0.1204
  751MOL0     C 3561   6.490  10.271  10.730 -0.0469  0.8288  0.0895
  751MOL0     C 3562   6.419  10.392  10.781  0.7173 -0.5470  0.2356
  751MOL0     C 3563   6.265  10.374  10.798 -0.3061  0.1928  0.2154
  751MOL0     C 3564   6.204  10.363  10.662  0.0254 -0.2699  0.1004
  751MOL0     C 3565   6.158  10.345  10.544 -0.2131 -0.2519 -0.0917
  751MOL0     C 3566   6.925  10.294  10.913 -0.5179 -0.7381 -0.3145
  751MOL0     C 3567   7.063  10.303  10.920 -0.2911  0.1727  0.1778
  751MOL0     C 3568   7.132  10.278  11.052 -0.1654  0.3932  0.4747
  751MOL0     H 3569   7.454  10.190  10.629  0.6038  0.0051  2.9474
  751MOL0     H 3570   7.684  10.172  10.506  1.5606  2.0148 -0.6047
  751MOL0     H 3571   7.992  10.304  10.338  0.3227 -0.5079  0.3045
  751MOL0     H 3572   7.859  10.188  10.393 -3.0558  1.9019  0.5817
  751MOL0     H 3573   7.945  10.223  10.625 -2.5414 -0.7708 -1.5597
  751MOL0     H 3574   8.068  10.170  10.499  0.2988  1.0687 -0.8121
  751MOL0     H 3575   8.151  10.413  10.477 -0.2290  1.2046  0.7138
  751MOL0     H 3576   8.039  10.454  10.608 -1.5771 -0.6258 -0.4890
  751MOL0     H 3577   8.103  10.322  10.761 -1.7126  2.1994 -1.0644
  751MOL0     H 3578   8.227  10.243  10.662  0.3476  0.3105 -0.1812
  751MOL0     H 3579   8.301  10.462  10.814 -1.4850  0.4640  0.4964
  751MOL0     H 3580   8.232  10.551  10.681 -0.3865 -0.5947  0.3105
  751MOL0     H 3581   8.440  10.319  10.661  1.3877  2.2694  1.7464
  751MOL0     H 3582   8.380  10.419  10.522  0.9440 -0.2408 -1.0054
  751MOL0     H 3583   8.461  10.620  10.611  0.9664 -0.5532 -0.3253
  751MOL0     H 3584   8.585  10.516  10.560 -0.9284 -0.4687 -1.5629
  751MOL0     H 3585   8.659  10.610  10.784 -1.0671  2.7205  0.9286
  751MOL0     H 3586   8.498  10.566  10.850 -0.6072 -2.8341  0.0742
  751MOL0     H 3587   8.792  10.387  10.665  0.3236 -0.8501 -0.4468
  751MOL0     H 3588   8.979  10.215  10.749 -0.5022 -0.4281  0.4771
  751MOL0     H 3589   8.859  10.082  10.774 -0.7546  0.3470 -0.9382
  751MOL0     H 3590   9.004  10.225  11.002  1.3228 -1.6346 -0.2366
  751MOL0     H 3591   8.891  10.096  11.022 -0.9099  1.1996  1.0714
  751MOL0     H 3592   9.054   9.941  10.902  1.8247  1.1016 -1.4310
  751MOL0     H 3593   9.169  10.079  10.876  0.9825  0.7014  0.4725
  751MOL0     H 3594   9.071   9.997  11.156  2.5919 -0.4573  2.4346
  751MOL0     H 3595   9.204   9.908  11.081 -3.1465 -2.5487 -1.7825
  751MOL0     H 3596   9.370   9.955  10.947 -1.2122  0.1428  1.9586
  751MOL0     H 3597   9.649   9.970  10.794  1.2370  1.1372  0.3312
  751MOL0     H 3598   9.559   9.842  10.871  1.8393 -1.6344 -0.8354
  751MOL0     H 3599   9.720   9.882  10.940  0.1027  0.2142 -0.8083
  751MOL0     H 3600   9.979  10.439  11.185  0.0386  0.3280 -0.1546
  751MOL0     H 3601  10.227  10.474  11.229 -1.0780 -0.7692  2.2354
  751MOL0     H 3602  10.581  10.343  11.285 -1.0495 -3.9118 -1.6890
  751MOL0     H 3603  10.458  10.464  11.228 -1.1864  0.0120 -0.0589
  751MOL0     H 3604  10.319  10.427  11.424 -0.4820 -0.1633 -1.6778
  751MOL0     H 3605  10.415  10.286  11.466  0.6202 -1.0928 -2.0811
  751MOL0     H 3606  10.487  10.571  11.471 -2.2617 -0.8991 -1.8372
  751MOL0     H 3607  10.603  10.438  11.512 -0.4158 -1.7921 -0.6077
  751MOL0     H 3608  10.456  10.371  11.708 -0.6669  0.1374  1.5079
  751MOL0     H 3609  10.336  10.482  11.651  0.3739  1.4153  2.1312
  751MOL0     H 3610  10.478  10.666  11.667  0.0061 -0.5273 -0.0264
  751MOL0     H 3611  10.446  10.594  11.834  0.7855  0.0706 -0.3660
  751MOL0     H 3612  10.704  10.512  11.700  0.6268  3.0431 -1.5552
  751MOL0     H 3613  10.641  10.512  11.870 -1.8958  1.7570  0.4624
  751MOL0     H 3614  10.634  10.768  11.837 -0.8960 -0.7054  0.0691
  751MOL0     H 3615  10.739  10.742  11.694  3.6066  2.3487  2.0893
  751MOL0     H 3616  10.802  10.677  11.988 -3.0221  2.0071 -0.8393
  751MOL0     H 3617  10.883  10.796  11.894 -0.5304  0.2036 -1.7172
  751MOL0     H 3618  10.302  10.074  11.082 -0.2113 -1.0597  2.9713
  751MOL0     H 3619  10.076  10.047  11.040  2.2986 -1.2349 -0.1067
  751MOL0     H 3620   9.625  10.312  11.156  0.7438 -0.3350 -0.8313
  751MOL0     H 3621   9.402  10.292  11.202 -0.7243  1.2890 -0.2704
  751MOL0     H 3622   7.735  10.579  10.531 -0.1829 -1.2299 -2.2176
  751MOL0     H 3623   7.504  10.612  10.643  1.1354 -0.7918  3.2343
  751MOL0     H 3624   7.112  10.385  10.595 -2.2638  0.6577 -0.8657
  751MOL0     H 3625   6.889  10.374  10.583 -2.3340  2.2062  0.9106
  751MOL0     H 3626   6.632  10.419  10.669 -2.0582 -0.0302  0.1176
  751MOL0     H 3627   6.682  10.253  10.621  2.5364 -0.5000  2.2927
  751MOL0     H 3628   6.500  10.192  10.805  1.5701  2.0779  1.2555
  751MOL0     H 3629   6.443  10.222  10.644 -0.9369  0.6130  0.6811
  751MOL0     H 3630   6.459  10.432  10.874  0.6600  3.7407 -1.3586
  751MOL0     H 3631   6.432  10.481  10.720 -3.7913  0.8785  0.9787
  751MOL0     H 3632   6.217  10.453  10.857  0.9728  2.4183 -1.5795
  751MOL0     H 3633   6.253  10.282  10.858 -2.6530 -1.2053 -2.1992
  751MOL0     H 3634   6.135  10.337  10.439  0.3422 -1.3011 -0.1447
  751MOL0     H 3635   6.873  10.274  11.006 -1.8904  2.1191 -0.3505
  751MOL0     H 3636   7.224  10.337  11.055 -2.2240  3.8727  0.6966
  751MOL0     H 3637   7.072  10.301  11.140  0.0837 -2.4234  1.4958
  751MOL0     H 3638   7.154  10.173  11.072 -0.8553  0.7490  3.7430
  752MOL0     O 3639   1.997   9.083   8.292 -0.6159 -0.2495 -0.0850
  752MOL0     C 3640   1.880   9.121   8.276 -1.1917 -0.1856  0.3238
  752MOL0     O 3641   1.829   9.174   8.159  0.8812  0.2296  0.0318
  752MOL0     C 3642   1.903   9.178   8.042 -0.4168  0.2966 -0.1909
  752MOL0     C 3643   1.897   9.289   7.961  0.9716 -0.2198  0.4507
  752MOL0     C 3644   1.969   9.288   7.839 -0.5566  0.5121  1.2083
  752MOL0     C 3645   2.051   9.172   7.801 -0.3095 -0.4672  0.1012
  752MOL0     O 3646   2.139   9.174   7.692  0.2735 -0.2783  0.1058
  752MOL0     C 3647   2.106   9.268   7.595 -0.7253 -0.9631  0.5786
  752MOL0     C 3648   2.187   9.395   7.633 -0.7496  0.1976  0.4648
  752MOL0     C 3649   2.339   9.377   7.614 -0.1415 -0.0469  0.3337
  752MOL0     C 3650   2.418   9.499   7.655  0.5111  0.2099  1.1286
  752MOL0     C 3651   2.569   9.487   7.679  0.2340  0.3638  0.1090
  752MOL0     C 3652   2.606   9.380   7.783  0.1606  0.2845  0.7612
  752MOL0     C 3653   2.756   9.381   7.801  0.1406  0.2204  0.2707
  752MOL0     C 3654   2.807   9.266   7.891 -0.6668 -0.4388 -0.2742
  752MOL0     N 3655   2.917   9.179   7.832  0.6738  0.1008  1.1724
  752MOL0     C 3656   2.887   9.076   7.751 -0.5528 -0.0219  0.6253
  752MOL0     C 3657   3.006   9.022   7.716  0.2839 -0.5630 -0.6232
  752MOL0     C 3658   3.036   8.909   7.618  0.2074 -0.4120 -0.5577
  752MOL0     C 3659   2.944   8.901   7.501 -0.2390  0.1521 -0.9540
  752MOL0     C 3660   2.977   8.786   7.400  0.9028  0.2513  0.1597
  752MOL0     C 3661   2.940   8.815   7.251  0.5080  0.3568 -0.0113
  752MOL0     O 3662   3.012   8.730   7.167 -0.0554 -0.2864  0.0476
  752MOL0     C 3663   2.949   8.718   7.041  0.8545  0.2457  0.3768
  752MOL0     C 3664   2.848   8.798   6.978  0.4924 -0.3584  0.3586
  752MOL0     C 3665   2.792   8.780   6.846 -0.0739 -0.9311 -1.2035
  752MOL0     C 3666   2.702   8.893   6.789 -0.7797 -0.6607  0.1574
  752MOL0     C 3667   2.827   8.664   6.772 -0.6003  0.1058  0.0556
  752MOL0     C 3668   2.758   8.619   6.648  0.7796  0.0649  0.4425
  752MOL0     O 3669   2.809   8.517   6.573 -0.5174  0.3708  0.1301
  752MOL0     C 3670   2.861   8.543   6.454  0.3924 -0.8574  0.5602
  752MOL0     C 3671   2.964   8.461   6.406  0.2474  0.2190  0.2800
  752MOL0     C 3672   3.030   8.499   6.287  0.0147  0.5674  0.2344
  752MOL0     C 3673   2.996   8.610   6.207 -0.1668 -0.3987 -0.7851
  752MOL0     O 3674   3.064   8.639   6.093  0.4799 -0.1125  0.7333
  752MOL0     C 3675   3.022   8.759   6.013 -0.6243  0.1023  0.0875
  752MOL0     C 3676   3.108   8.788   5.892  0.6384  0.4786 -0.3464
  752MOL0     C 3677   3.238   8.854   5.937  0.3626 -0.2520 -0.7333
  752MOL0     C 3678   3.336   8.852   5.825  0.7805 -0.3369  0.9393
  752MOL0     C 3679   3.478   8.898   5.861 -0.0127  0.4858 -0.2100
  752MOL0     C 3680   3.493   9.035   5.811 -0.7788 -0.0210 -0.0247
  752MOL0     C 3681   3.637   9.084   5.823  0.3580  0.5555 -0.0846
  752MOL0     C 3682   3.668   9.197   5.737  0.1042  1.0057 -0.1019
  752MOL0    Cl 3683   3.647   9.158   5.562  0.0038  0.0302  0.1838
  752MOL0     C 3684   2.885   8.687   6.261 -0.5144  0.2880  0.1705
  752MOL0     C 3685   2.822   8.656   6.376  0.1679 -0.4432  0.4401
  752MOL0     O 3686   2.652   8.682   6.614  0.8175 -0.2228 -0.0067
  752MOL0     C 3687   2.923   8.576   6.836 -0.4036 -0.2618  0.2977
  752MOL0     C 3688   2.983   8.606   6.963  0.7787 -0.2398  0.2122
  752MOL0     N 3689   3.099   9.098   7.790 -0.3285 -0.7770  0.0307
  752MOL0     N 3690   3.044   9.206   7.842 -0.2344 -0.6160 -0.4417
  752MOL0     C 3691   2.063   9.069   7.890  0.5927  0.7083 -0.1041
  752MOL0     C 3692   1.982   9.066   8.011 -0.2056 -0.4175  0.2312
  752MOL0     C 3693   1.788   9.115   8.390 -0.5654  0.7178  0.4116
  752MOL0     C 3694   1.671   9.189   8.387  0.0646 -0.2979  0.0438
  752MOL0     C 3695   1.570   9.183   8.482  0.3295  0.2654  0.3192
  752MOL0     C 3696   1.592   9.094   8.591  0.2330  0.0309 -0.0847
  752MOL0     O 3697   1.515   9.109   8.702  0.0128  0.4309  0.0211
  752MOL0     C 3698   1.391   9.052   8.670 -0.8090  0.5035 -0.6745
  752MOL0     C 3699   1.313   8.999   8.791  0.2671  0.4844  0.2778
  752MOL0     C 3700   1.177   8.937   8.754 -0.2107 -0.5069  0.1941
  752MOL0     C 3701   1.110   8.896   8.875  0.1360 -0.2374 -0.3717
  752MOL0     C 3702   0.989   8.825   8.832  0.1436  0.1716  0.5447
  752MOL0     C 3703   0.892   8.764   8.797  0.2182 -0.3387  0.4827
  752MOL0     C 3704   1.705   9.021   8.599  0.2678 -0.2035 -0.3588
  752MOL0     C 3705   1.808   9.035   8.501  0.5838  1.3583 -0.0530
  752MOL0     C 3706   1.932   8.948   8.530  0.3887 -0.1447 -0.2323
  752MOL0     H 3707   1.826   9.370   7.973  1.6714  0.2632  1.3956
  752MOL0     H 3708   1.962   9.373   7.772  2.7594 -0.8000 -1.0517
  752MOL0     H 3709   1.998   9.280   7.588 -0.5007  0.5295 -0.9181
  752MOL0     H 3710   2.144   9.228   7.500 -1.1528 -0.7899  0.3346
  752MOL0     H 3711   2.148   9.474   7.567  1.9148  1.1105 -0.1380
  752MOL0     H 3712   2.157   9.427   7.733  2.1385  1.0908  1.1429
  752MOL0     H 3713   2.373   9.291   7.673 -2.7840 -1.3301  0.1360
  752MOL0     H 3714   2.362   9.346   7.512  1.4383  2.1635 -0.0617
  752MOL0     H 3715   2.409   9.568   7.570  1.4180  1.8673  2.3209
  752MOL0     H 3716   2.369   9.547   7.740  0.0081 -0.0410  0.9864
  752MOL0     H 3717   2.610   9.585   7.706 -1.6701  1.2418  0.0103
  752MOL0     H 3718   2.634   9.463   7.594 -1.8878 -1.1620 -1.1838
  752MOL0     H 3719   2.545   9.406   7.870 -1.8464 -1.2024 -0.1080
  752MOL0     H 3720   2.578   9.282   7.743  0.6423  0.6884 -0.6101
  752MOL0     H 3721   2.795   9.468   7.855  0.8451 -0.7139  1.3243
  752MOL0     H 3722   2.805   9.383   7.703  0.5779 -0.7758  0.4499
  752MOL0     H 3723   2.848   9.306   7.984  0.1011 -1.2907 -0.2358
  752MOL0     H 3724   2.729   9.197   7.924  0.4754 -1.0183  1.3386
  752MOL0     H 3725   2.792   9.060   7.701  0.2790  1.0754 -1.3968
  752MOL0     H 3726   3.034   8.813   7.671 -2.0549 -0.2724 -0.2964
  752MOL0     H 3727   3.138   8.916   7.579  1.4965 -1.1340  2.3561
  752MOL0     H 3728   2.841   8.898   7.537  0.0523 -0.2723 -0.1423
  752MOL0     H 3729   2.961   8.997   7.449  2.6755  1.5716  2.1877
  752MOL0     H 3730   3.083   8.761   7.401  1.7120  3.0444 -1.7665
  752MOL0     H 3731   2.916   8.700   7.428  0.5137  0.5498  0.2428
  752MOL0     H 3732   2.834   8.791   7.236  0.6333  0.3362 -0.8813
  752MOL0     H 3733   2.959   8.916   7.215 -1.6728  0.2955 -1.5362
  752MOL0     H 3734   2.804   8.875   7.040 -0.0271 -1.0706  0.8941
  752MOL0     H 3735   2.607   8.847   6.819 -0.0039 -2.3149  0.1703
  752MOL0     H 3736   2.713   8.912   6.682  4.3775 -1.5512  0.2840
  752MOL0     H 3737   2.712   8.990   6.839 -1.0641 -1.7831  2.5328
  752MOL0     H 3738   2.982   8.372   6.465 -1.4378 -0.4908 -0.2110
  752MOL0     H 3739   3.119   8.445   6.255 -0.0276  1.8609 -2.3522
  752MOL0     H 3740   2.915   8.754   5.989 -0.8049  2.9039 -0.0208
  752MOL0     H 3741   3.035   8.843   6.081  2.1032 -0.9747  1.0389
  752MOL0     H 3742   3.115   8.696   5.833  0.8693 -0.4963  1.1523
  752MOL0     H 3743   3.054   8.858   5.827 -0.0839 -1.4540 -1.9342
  752MOL0     H 3744   3.268   8.800   6.027  0.1733 -0.3037 -0.7012
  752MOL0     H 3745   3.208   8.953   5.974 -1.6154 -0.6567 -1.1301
  752MOL0     H 3746   3.289   8.911   5.747  0.1757 -1.9311  0.0496
  752MOL0     H 3747   3.333   8.752   5.780  0.3276  1.5925 -3.8401
  752MOL0     H 3748   3.508   8.900   5.966  1.0696  0.3733 -0.5020
  752MOL0     H 3749   3.546   8.832   5.807 -0.6562 -2.5491  2.3937
  752MOL0     H 3750   3.418   9.101   5.856 -1.0248  1.3019 -2.2079
  752MOL0     H 3751   3.473   9.037   5.703 -1.7773  5.4822 -0.0309
  752MOL0     H 3752   3.695   8.992   5.815 -2.2793 -1.1315 -1.3044
  752MOL0     H 3753   3.657   9.119   5.925  0.9741 -0.8448  0.3049
  752MOL0     H 3754   3.771   9.235   5.742  1.0878 -0.9384 -3.2207
  752MOL0     H 3755   3.607   9.283   5.766  0.4676  1.4664 -0.6857
  752MOL0     H 3756   2.848   8.766   6.196 -0.8657  0.0210  0.0403
  752MOL0     H 3757   2.741   8.723   6.403  0.4939  0.9834 -1.8255
  752MOL0     H 3758   2.963   8.483   6.799  2.1057 -1.5446  5.3695
  752MOL0     H 3759   3.062   8.543   7.005  1.3943  0.0514 -0.4889
  752MOL0     H 3760   2.119   8.986   7.848 -1.7432 -0.8996 -0.2040
  752MOL0     H 3761   1.986   8.978   8.075  0.4872  0.0670  0.8632
  752MOL0     H 3762   1.668   9.262   8.306  0.6408  1.4692  1.5419
  752MOL0     H 3763   1.492   9.257   8.464  0.7085  0.5348 -0.2214
  752MOL0     H 3764   1.332   9.130   8.621 -0.6168  0.8047 -0.4344
  752MOL0     H 3765   1.401   8.964   8.606  0.4084 -0.0871  0.2904
  752MOL0     H 3766   1.293   9.084   8.857  0.3352 -0.1454  1.1294
  752MOL0     H 3767   1.374   8.926   8.844  1.6799  1.5316  0.1418
  752MOL0     H 3768   1.117   9.021   8.716 -1.6413  1.4495  5.7403
  752MOL0     H 3769   1.191   8.850   8.689  1.9222 -1.5289  1.8869
  752MOL0     H 3770   1.069   8.982   8.929  0.0135 -2.0724  2.6644
  752MOL0     H 3771   1.175   8.842   8.945  1.8355 -0.4423 -2.0376
  752MOL0     H 3772   0.820   8.692   8.765 -1.0019  1.1714 -0.2454
  752MOL0     H 3773   1.719   8.955   8.685  0.2961 -2.1393 -1.7924
  752MOL0     H 3774   2.021   9.011   8.531  1.5360 -1.6379 -1.9349
  752MOL0     H 3775   1.924   8.892   8.624 -0.4518  1.1065  0.4676
  752MOL0     H 3776   1.944   8.867   8.458 -0.0574 -0.3639 -0.0648
  753MOL0     O 3777   6.782  10.514   6.284 -1.0211 -0.0043 -0.0148
  753MOL0     C 3778   6.677  10.482   6.225 -1.0189  0.9043  0.0284
  753MOL0     O 3779   6.674  10.385   6.128  0.4934 -0.1299 -0.2660
  753MOL0     C 3780   6.779  10.313   6.106 -0.4548  0.1856 -1.1346
  753MOL0     C 3781   6.882  10.359   6.021  0.1235 -0.0223 -0.5031
  753MOL0     C 3782   7.011  10.301   6.020  0.2778 -0.7385 -0.4975
  753MOL0     C 3783   7.037  10.177   6.087  0.2424 -0.3974 -1.3321
  753MOL0     O 3784   7.147  10.105   6.080  0.4098  0.2749  0.2981
  753MOL0     C 3785   7.276  10.171   6.075  0.5856 -0.5912 -0.0649
  753MOL0     C 3786   7.382  10.069   6.097 -0.4654  0.2687  0.0089
  753MOL0     C 3787   7.401   9.977   5.973  0.9394 -0.3739  0.1295
  753MOL0     C 3788   7.301   9.859   5.999  0.9278  0.6499  0.2717
  753MOL0     C 3789   7.304   9.746   5.898  0.5514  1.5794  0.6884
  753MOL0     C 3790   7.202   9.636   5.933  0.1004  0.0473  0.3168
  753MOL0     C 3791   7.229   9.554   6.062  0.7356  0.5607 -0.2729
  753MOL0     C 3792   7.128   9.430   6.061  0.6527 -0.4430 -0.1604
  753MOL0     N 3793   7.190   9.328   5.973  0.2280  0.3739 -0.4817
  753MOL0     C 3794   7.276   9.238   6.024  0.4490  0.1621 -0.8190
  753MOL0     C 3795   7.305   9.161   5.921 -0.7980 -0.3813 -0.3665
  753MOL0     C 3796   7.396   9.047   5.928  0.1563  0.6279  0.6028
  753MOL0     C 3797   7.534   9.102   5.886 -0.5370 -0.3735  0.0475
  753MOL0     C 3798   7.628   8.992   5.834 -0.0572  0.0102 -0.2902
  753MOL0     C 3799   7.776   9.019   5.808 -0.1590  0.5596 -0.6501
  753MOL0     O 3800   7.796   9.115   5.702 -0.4961  0.4214 -0.2805
  753MOL0     C 3801   7.914   9.129   5.636 -0.2445  0.0204 -0.1077
  753MOL0     C 3802   7.924   9.212   5.518 -0.5628 -0.0853 -0.6381
  753MOL0     C 3803   8.040   9.226   5.442 -0.3427  0.5909 -0.0108
  753MOL0     C 3804   8.030   9.316   5.317  0.2086 -0.0237  0.2316
  753MOL0     C 3805   8.155   9.152   5.481 -0.6873 -0.3580  0.0762
  753MOL0     C 3806   8.289   9.145   5.408  0.4280 -0.1043 -0.2082
  753MOL0     O 3807   8.386   9.112   5.489 -0.1159  0.0614 -0.4530
  753MOL0     C 3808   8.524   9.100   5.451 -0.6090 -0.3605 -0.0318
  753MOL0     C 3809   8.627   9.163   5.530  0.4841  0.4518  0.3685
  753MOL0     C 3810   8.761   9.131   5.509  0.1061  0.3174  0.4289
  753MOL0     C 3811   8.803   9.043   5.413 -0.4130  0.6695  0.6893
  753MOL0     O 3812   8.934   9.009   5.387 -0.0820 -0.1575 -0.3904
  753MOL0     C 3813   8.991   9.056   5.265  0.1900  0.2883  0.2576
  753MOL0     C 3814   9.127   9.108   5.299  0.8714  0.7785  0.1547
  753MOL0     C 3815   9.119   9.200   5.417  0.2612  0.1332 -0.7402
  753MOL0     C 3816   9.263   9.252   5.441  0.6475 -0.3276  0.1473
  753MOL0     C 3817   9.274   9.338   5.565 -0.6361 -0.4332 -0.8218
  753MOL0     C 3818   9.417   9.399   5.594  0.4542  0.3801 -0.3258
  753MOL0     C 3819   9.443   9.413   5.746 -0.7650  0.3369 -0.2519
  753MOL0     C 3820   9.570   9.505   5.783  0.3140  0.4592  0.4085
  753MOL0    Cl 3821   9.723   9.472   5.687  0.0342 -0.5740 -0.2361
  753MOL0     C 3822   8.706   8.991   5.321  0.0001 -0.9722  0.0932
  753MOL0     C 3823   8.570   9.013   5.345  0.4522  0.4204  0.2206
  753MOL0     O 3824   8.303   9.172   5.293 -0.1647  0.0267 -0.6391
  753MOL0     C 3825   8.152   9.079   5.598  1.0142  0.2861 -0.3509
  753MOL0     C 3826   8.030   9.060   5.668  0.7362  0.9787 -0.9462
  753MOL0     N 3827   7.230   9.208   5.808 -0.1320 -0.1304 -0.3153
  753MOL0     N 3828   7.154   9.303   5.844 -0.5234  0.2910  0.9932
  753MOL0     C 3829   6.916  10.119   6.153 -1.3189 -0.4696 -0.2993
  753MOL0     C 3830   6.788  10.184   6.159  0.2725 -0.2574  0.0148
  753MOL0     C 3831   6.554  10.555   6.257 -0.4377  0.0401 -0.2434
  753MOL0     C 3832   6.435  10.526   6.185 -0.1979  0.3500  1.0178
  753MOL0     C 3833   6.316  10.587   6.215 -0.2010 -0.6269  0.2401
  753MOL0     C 3834   6.303  10.671   6.322  0.0018 -0.3083  0.9325
  753MOL0     O 3835   6.181  10.740   6.354  0.3283 -0.7235 -0.2850
  753MOL0     C 3836   6.061  10.729   6.268 -0.4929 -0.3990  0.1819
  753MOL0     C 3837   6.069  10.833   6.158 -0.1244  0.1562 -0.2543
  753MOL0     C 3838   5.949  10.810   6.059 -0.6023  0.3199  0.1819
  753MOL0     C 3839   5.922  10.930   5.974 -0.6295  0.0877 -0.3288
  753MOL0     C 3840   6.030  10.977   5.881 -0.1331 -0.0443  0.3904
  753MOL0     C 3841   6.113  11.006   5.797  0.0879 -0.0022 -0.7342
  753MOL0     C 3842   6.418  10.699   6.398  0.6104 -0.4504 -0.5224
  753MOL0     C 3843   6.539  10.647   6.370 -0.8185 -0.9000 -0.0697
  753MOL0     C 3844   6.649  10.687   6.460 -0.4819 -1.1057  0.0354
  753MOL0     H 3845   6.861  10.448   5.963 -2.6624 -1.3869 -1.7710
  753MOL0     H 3846   7.086  10.342   5.953  2.8128 -0.4514  2.2825
  753MOL0     H 3847   7.267  10.243   6.157  4.0734 -2.7725  2.5036
  753MOL0     H 3848   7.299  10.236   5.991 -0.2190  1.7473  1.4296
  753MOL0     H 3849   7.480  10.112   6.121 -0.3827  1.5145 -2.2662
  753MOL0     H 3850   7.352  10.001   6.177  1.7595 -1.6545 -0.6930
  753MOL0     H 3851   7.372  10.029   5.881 -2.3805 -3.3655 -0.7534
  753MOL0     H 3852   7.504   9.943   5.961 -0.0288 -2.9500 -1.7850
  753MOL0     H 3853   7.339   9.805   6.086  0.8066  0.3719  0.1544
  753MOL0     H 3854   7.195   9.881   6.013  0.3673 -1.4173 -0.2689
  753MOL0     H 3855   7.404   9.702   5.886 -0.0218  0.1638  0.9824
  753MOL0     H 3856   7.267   9.789   5.805 -1.6322  1.4156  1.4412
  753MOL0     H 3857   7.102   9.681   5.935  0.7623  1.5492  1.8090
  753MOL0     H 3858   7.190   9.568   5.848 -0.6829  2.3268 -1.5203
  753MOL0     H 3859   7.221   9.619   6.150 -0.6816 -0.3688  0.3218
  753MOL0     H 3860   7.333   9.520   6.050  0.1524 -1.4397  0.0324
  753MOL0     H 3861   7.124   9.394   6.164 -1.8571 -0.3480 -0.1740
  753MOL0     H 3862   7.027   9.461   6.033 -0.1096 -2.1832  0.5453
  753MOL0     H 3863   7.319   9.244   6.124 -0.9688  0.6977 -0.2036
  753MOL0     H 3864   7.354   8.970   5.862  0.6737  0.5037  0.4139
  753MOL0     H 3865   7.409   8.996   6.024 -2.8981 -1.5907 -0.0260
  753MOL0     H 3866   7.539   9.167   5.798  1.3742  0.4935  0.7426
  753MOL0     H 3867   7.579   9.152   5.972  0.2247  2.1446 -1.6793
  753MOL0     H 3868   7.620   8.913   5.910  0.5748 -0.1356 -0.3728
  753MOL0     H 3869   7.588   8.956   5.738 -3.1560  0.1629  0.8280
  753MOL0     H 3870   7.822   9.048   5.903  0.6739  1.8528 -1.4162
  753MOL0     H 3871   7.820   8.924   5.777  0.5197  0.4049  0.7069
  753MOL0     H 3872   7.836   9.263   5.478 -2.5521 -3.4179 -0.9671
  753MOL0     H 3873   7.944   9.384   5.331 -1.9935 -2.5735 -0.0970
  753MOL0     H 3874   8.022   9.263   5.222  2.0963 -0.9027  0.5244
  753MOL0     H 3875   8.124   9.372   5.318  1.5417 -2.1348 -0.9377
  753MOL0     H 3876   8.597   9.227   5.612 -1.0504  0.0354  0.1769
  753MOL0     H 3877   8.837   9.165   5.579  1.7473  1.3816 -1.7779
  753MOL0     H 3878   9.008   8.970   5.200  1.1374  0.9840 -0.4337
  753MOL0     H 3879   8.924   9.122   5.209 -1.0368 -1.4657 -0.4029
  753MOL0     H 3880   9.191   9.026   5.333  0.9277  1.0849  0.8029
  753MOL0     H 3881   9.173   9.155   5.212 -0.2534 -0.1732 -1.0020
  753MOL0     H 3882   9.082   9.157   5.510 -2.7158  0.3209 -1.7398
  753MOL0     H 3883   9.057   9.285   5.390  1.8390  2.0793  1.3555
  753MOL0     H 3884   9.286   9.312   5.353  0.2500  0.1174  0.3377
  753MOL0     H 3885   9.341   9.176   5.445  0.5181 -0.5893 -1.6492
  753MOL0     H 3886   9.205   9.422   5.569  1.5795  1.4555 -0.1037
  753MOL0     H 3887   9.255   9.281   5.657  1.9133 -1.5745 -0.9116
  753MOL0     H 3888   9.420   9.503   5.559 -0.0342 -0.0538 -1.7360
  753MOL0     H 3889   9.487   9.334   5.541 -2.0644 -0.2216 -3.2615
  753MOL0     H 3890   9.476   9.315   5.782  0.8764  0.8291 -0.3221
  753MOL0     H 3891   9.355   9.447   5.801 -1.0704  1.6343 -1.4803
  753MOL0     H 3892   9.596   9.488   5.888 -0.5002  4.1228  1.3662
  753MOL0     H 3893   9.545   9.611   5.774 -0.0286  0.3104 -0.5574
  753MOL0     H 3894   8.735   8.937   5.231 -1.7879  2.2724 -2.6599
  753MOL0     H 3895   8.495   8.957   5.290  0.0295  0.1765  1.0273
  753MOL0     H 3896   8.238   9.028   5.642 -0.5457 -1.9862  0.2826
  753MOL0     H 3897   8.021   8.995   5.754 -2.6057 -0.0187 -1.8868
  753MOL0     H 3898   6.934  10.019   6.193 -1.1644 -0.7805 -1.1316
  753MOL0     H 3899   6.706  10.135   6.211 -1.2584  1.2018 -0.9321
  753MOL0     H 3900   6.449  10.458   6.101  2.6315 -0.2704  1.8783
  753MOL0     H 3901   6.229  10.564   6.155  0.5474 -1.4251 -0.5559
  753MOL0     H 3902   6.041  10.638   6.211  1.2970 -0.3159 -0.6334
  753MOL0     H 3903   5.984  10.756   6.342 -0.8502  0.3355 -0.4436
  753MOL0     H 3904   6.159  10.803   6.102  1.2457  1.2499  1.2698
  753MOL0     H 3905   6.079  10.935   6.198 -1.3844  1.1827 -2.3832
  753MOL0     H 3906   5.972  10.727   5.992 -0.8871 -0.1244  0.6241
  753MOL0     H 3907   5.856  10.783   6.111  0.7527  1.4177  3.4563
  753MOL0     H 3908   5.908  11.019   6.036 -0.0506  0.3547 -0.5747
  753MOL0     H 3909   5.834  10.912   5.912 -2.4817  0.5313  2.0193
  753MOL0     H 3910   6.174  11.040   5.716 -2.4016  3.4192 -1.4394
  753MOL0     H 3911   6.404  10.757   6.489  2.4805  2.0068 -1.7054
  753MOL0     H 3912   6.698  10.604   6.512  1.5298  0.4015  0.7014
  753MOL0     H 3913   6.724  10.727   6.391 -2.4284  0.1326 -1.4365
  753MOL0     H 3914   6.615  10.770   6.523  3.8261  4.0738 -3.6046
  754MOL0     O 3915   9.778   6.759   9.102  0.2969  0.3792 -0.4186
  754MOL0     C 3916   9.753   6.640   9.082  0.3903  0.6445 -0.8871
  754MOL0     O 3917   9.789   6.567   8.977  0.5689  0.7084  0.1457
  754MOL0     C 3918   9.868   6.620   8.889  1.1637  0.5275 -0.5244
  754MOL0     C 3919   9.999   6.569   8.896 -0.1039  0.0582  0.1127
  754MOL0     C 3920  10.098   6.605   8.801  0.1496 -0.2144 -0.5060
  754MOL0     C 3921  10.055   6.690   8.694  0.3633  0.0604 -0.7074
  754MOL0     O 3922  10.140   6.728   8.598 -0.4456 -0.1407  0.3539
  754MOL0     C 3923  10.125   6.835   8.508  0.7591 -0.2659  0.4297
  754MOL0     C 3924  10.250   6.863   8.420  0.4479  0.1842  0.4542
  754MOL0     C 3925  10.346   6.969   8.480 -0.9632  0.0974  0.0354
  754MOL0     C 3926  10.417   6.904   8.604  0.2030 -0.7836  0.4311
  754MOL0     C 3927  10.539   6.985   8.650 -0.7556 -0.2789 -0.3525
  754MOL0     C 3928  10.617   6.922   8.766 -0.2948 -0.0929  0.3174
  754MOL0     C 3929  10.544   6.889   8.894  0.1178 -0.3890  0.2988
  754MOL0     C 3930  10.510   7.021   8.971 -0.4659  1.6958 -0.0650
  754MOL0     N 3931  10.444   7.004   9.106 -0.2522  0.3906 -0.2819
  754MOL0     C 3932  10.318   6.961   9.132  0.8536 -0.1974  0.0879
  754MOL0     C 3933  10.287   6.972   9.259 -0.5784 -0.9034  0.0254
  754MOL0     C 3934  10.155   6.930   9.322 -0.5639  0.1428  0.6375
  754MOL0     C 3935  10.157   6.769   9.342  0.7095  0.1312 -1.0888
  754MOL0     C 3936  10.280   6.729   9.422 -0.0030 -0.6065  0.4399
  754MOL0     C 3937  10.294   6.802   9.550  0.0805  0.3700 -0.5427
  754MOL0     O 3938  10.373   6.737   9.648  0.6358 -0.2868  0.1123
  754MOL0     C 3939  10.502   6.782   9.676  1.1269 -0.0354 -0.4887
  754MOL0     C 3940  10.542   6.794   9.809  0.2501  0.3904  0.1819
  754MOL0     C 3941  10.673   6.843   9.839  0.8796 -0.6038 -0.2955
  754MOL0     C 3942  10.723   6.825   9.984 -0.0066 -0.3468  0.2968
  754MOL0     C 3943  10.754   6.905   9.735  0.9559  0.6913 -0.1774
  754MOL0     C 3944  10.885   6.980   9.760 -0.3329  0.7140 -0.5434
  754MOL0     O 3945  10.975   6.997   9.652 -0.0252  0.1935  0.2682
  754MOL0     C 3946  11.093   7.062   9.662 -0.3374  0.4334 -0.6457
  754MOL0     C 3947  11.193   7.009   9.741  0.2434  0.1614  0.8326
  754MOL0     C 3948  11.315   7.068   9.758  0.9089  0.0872  1.2758
  754MOL0     C 3949  11.347   7.186   9.694 -0.0309 -0.3975 -0.3676
  754MOL0     O 3950  11.479   7.234   9.712 -0.4733 -0.5139 -0.0616
  754MOL0     C 3951  11.541   7.270   9.586  0.4411 -1.0682  0.3704
  754MOL0     C 3952  11.687   7.310   9.610  0.1879 -0.6594  0.3942
  754MOL0     C 3953  11.761   7.197   9.669 -0.8774  0.2694  0.0699
  754MOL0     C 3954  11.916   7.224   9.666 -0.5055 -0.1072  0.7281
  754MOL0     C 3955  11.953   7.343   9.762 -0.1822 -0.8710  0.4996
  754MOL0     C 3956  12.096   7.329   9.822 -0.1884  0.6172 -0.1912
  754MOL0     C 3957  12.213   7.323   9.716  0.1843 -0.0987 -0.2916
  754MOL0     C 3958  12.342   7.298   9.789  1.0256  0.1483 -0.4076
  754MOL0    Cl 3959  12.395   7.457   9.866  0.3217 -0.0781 -0.1669
  754MOL0     C 3960  11.241   7.256   9.623  0.3426 -0.1391  0.2072
  754MOL0     C 3961  11.122   7.182   9.603  1.3228 -0.8789 -0.1945
  754MOL0     O 3962  10.906   7.010   9.880 -0.8199  0.4781  0.0317
  754MOL0     C 3963  10.714   6.878   9.599 -0.6789  1.1505  0.2538
  754MOL0     C 3964  10.587   6.825   9.574 -0.0179  0.2656 -0.8785
  754MOL0     N 3965  10.393   7.039   9.313  0.1444 -0.2375 -0.0694
  754MOL0     N 3966  10.484   7.062   9.225  1.2444  0.4617  0.1358
  754MOL0     C 3967   9.922   6.740   8.698  0.6847  0.1250 -0.2309
  754MOL0     C 3968   9.832   6.711   8.796 -0.3469  0.3122  0.1746
  754MOL0     C 3969   9.654   6.569   9.160 -0.3324 -0.2819  0.1783
  754MOL0     C 3970   9.638   6.427   9.132  0.0599 -0.3444  0.0902
  754MOL0     C 3971   9.543   6.345   9.201 -0.9843 -0.2764  0.3581
  754MOL0     C 3972   9.454   6.408   9.285  0.0236 -0.3968  0.1806
  754MOL0     O 3973   9.337   6.355   9.326  0.1654  0.3061 -0.5357
  754MOL0     C 3974   9.316   6.209   9.315 -0.1152 -0.3524 -0.0464
  754MOL0     C 3975   9.247   6.158   9.449  0.4724  0.0940  0.8441
  754MOL0     C 3976   9.119   6.231   9.478  0.8078 -0.1868 -0.5119
  754MOL0     C 3977   9.042   6.202   9.611  0.1301  0.8577  0.0920
  754MOL0     C 3978   8.899   6.259   9.608 -0.6418  0.1637 -0.0697
  754MOL0     C 3979   8.779   6.287   9.598  0.0596 -0.3176  0.4481
  754MOL0     C 3980   9.470   6.543   9.320 -0.8485 -0.1421  0.4069
  754MOL0     C 3981   9.578   6.626   9.255  0.0642  0.0345 -0.0459
  754MOL0     C 3982   9.579   6.760   9.312  0.3024  0.4796  0.0128
  754MOL0     H 3983  10.027   6.499   8.974  1.2420  1.1699  0.6597
  754MOL0     H 3984  10.199   6.567   8.811  0.0143 -0.0078  3.2687
  754MOL0     H 3985  10.103   6.926   8.564  0.4804 -0.2704  0.3332
  754MOL0     H 3986  10.040   6.812   8.442  0.1759 -2.7932  1.9031
  754MOL0     H 3987  10.307   6.769   8.415 -0.2274 -0.2969  1.4262
  754MOL0     H 3988  10.221   6.895   8.320 -2.9049 -0.7723  0.9853
  754MOL0     H 3989  10.430   6.998   8.416 -2.1805 -0.6076 -1.9763
  754MOL0     H 3990  10.298   7.063   8.509  0.3004  0.6214  0.5600
  754MOL0     H 3991  10.338   6.888   8.678 -1.6188 -0.4928 -1.3659
  754MOL0     H 3992  10.459   6.805   8.586  1.5588 -0.1876  0.2159
  754MOL0     H 3993  10.506   7.086   8.675  0.5449 -0.0485  0.5369
  754MOL0     H 3994  10.611   7.010   8.571  0.2282  5.0597  1.7638
  754MOL0     H 3995  10.654   6.825   8.732 -0.3195  0.0218 -0.0470
  754MOL0     H 3996  10.709   6.978   8.787  0.0319 -0.4100 -0.2345
  754MOL0     H 3997  10.600   6.827   8.964  0.5410  0.8570  1.1012
  754MOL0     H 3998  10.463   6.819   8.872  1.4194 -2.9890  3.1240
  754MOL0     H 3999  10.598   7.086   8.985  0.2998  0.4439  1.2309
  754MOL0     H 4000  10.442   7.074   8.904 -0.7975  0.4342 -0.7387
  754MOL0     H 4001  10.240   6.943   9.059 -1.0674  0.7976  1.7819
  754MOL0     H 4002  10.078   6.959   9.251 -0.4617 -0.2113  0.3786
  754MOL0     H 4003  10.136   6.976   9.420  0.2964  1.3503  0.2693
  754MOL0     H 4004  10.067   6.740   9.398  0.4807  2.1369 -0.3605
  754MOL0     H 4005  10.150   6.724   9.243  1.1597  0.1378 -1.1267
  754MOL0     H 4006  10.257   6.626   9.449 -0.3367 -1.0291 -1.3594
  754MOL0     H 4007  10.373   6.729   9.365  0.0038  1.0086  0.4063
  754MOL0     H 4008  10.322   6.905   9.529  2.8899 -0.4195 -1.1114
  754MOL0     H 4009  10.199   6.803   9.604  1.9970 -0.7387  3.2650
  754MOL0     H 4010  10.480   6.755   9.890 -3.2092  1.0318 -1.9204
  754MOL0     H 4011  10.661   6.747  10.030 -0.1481 -1.4758 -1.7303
  754MOL0     H 4012  10.713   6.917  10.043  0.1601  0.4782 -0.9421
  754MOL0     H 4013  10.824   6.783   9.987  0.6984  1.2836  0.0012
  754MOL0     H 4014  11.183   6.918   9.799  2.1041  0.2031  1.2627
  754MOL0     H 4015  11.385   7.017   9.824 -0.5401 -0.7549  2.2188
  754MOL0     H 4016  11.542   7.184   9.518  4.3525 -2.2994  1.7301
  754MOL0     H 4017  11.489   7.356   9.543 -0.1267 -0.3327  2.3762
  754MOL0     H 4018  11.722   7.339   9.511 -2.6798 -0.8977 -0.7797
  754MOL0     H 4019  11.679   7.393   9.681 -3.0083 -1.0275  0.6033
  754MOL0     H 4020  11.736   7.104   9.618 -3.4166  0.8326  0.1573
  754MOL0     H 4021  11.718   7.173   9.767 -1.4593  0.8385 -0.0414
  754MOL0     H 4022  11.943   7.228   9.561  0.7255  4.5016  1.0337
  754MOL0     H 4023  11.964   7.134   9.707  0.9993  1.3014  2.2171
  754MOL0     H 4024  11.942   7.441   9.714 -1.2742 -1.6736 -0.9791
  754MOL0     H 4025  11.876   7.349   9.839 -1.1015  1.0637 -0.4882
  754MOL0     H 4026  12.094   7.232   9.873  0.4794  0.9364  0.4637
  754MOL0     H 4027  12.117   7.401   9.902 -3.3835  0.4140  0.9714
  754MOL0     H 4028  12.217   7.414   9.656  0.0994  0.2418  0.2085
  754MOL0     H 4029  12.193   7.241   9.647  0.5811 -0.8965  0.5235
  754MOL0     H 4030  12.413   7.266   9.712 -0.1435 -0.0185 -1.4426
  754MOL0     H 4031  12.330   7.226   9.870  3.8336  0.6965  0.6048
  754MOL0     H 4032  11.252   7.356   9.584 -1.1404  0.3836  1.0319
  754MOL0     H 4033  11.039   7.222   9.545 -0.3469 -3.1201  0.5026
  754MOL0     H 4034  10.788   6.907   9.525  1.2774 -0.9459  1.2475
  754MOL0     H 4035  10.557   6.812   9.470  0.6451  1.5028 -1.2487
  754MOL0     H 4036   9.889   6.812   8.624 -0.0470  1.5583  1.4037
  754MOL0     H 4037   9.731   6.749   8.784 -0.3567  0.5544  1.0120
  754MOL0     H 4038   9.700   6.371   9.064  0.5140  1.4041 -1.0094
  754MOL0     H 4039   9.540   6.240   9.173  1.5419 -0.0171 -1.2948
  754MOL0     H 4040   9.261   6.191   9.223  0.6733  0.3857 -0.6736
  754MOL0     H 4041   9.413   6.160   9.305 -1.0089 -2.0888 -0.5953
  754MOL0     H 4042   9.310   6.170   9.537  3.1636 -1.6552 -0.6800
  754MOL0     H 4043   9.216   6.053   9.445 -1.9938  0.7610  0.8271
  754MOL0     H 4044   9.143   6.337   9.494  2.2443 -0.3192 -1.5913
  754MOL0     H 4045   9.055   6.218   9.390  1.4777 -0.0343 -1.0258
  754MOL0     H 4046   9.094   6.226   9.704  0.5089 -1.9805  0.6757
  754MOL0     H 4047   9.027   6.094   9.614  1.7320  0.5942 -0.5655
  754MOL0     H 4048   8.681   6.320   9.571 -0.4756 -2.1325  0.0788
  754MOL0     H 4049   9.388   6.585   9.376 -3.2157 -0.3872 -2.6086
  754MOL0     H 4050   9.686   6.781   9.315  1.1427 -2.7268 -2.3590
  754MOL0     H 4051   9.534   6.838   9.250  1.5875 -0.4412 -2.1765
  754MOL0     H 4052   9.532   6.766   9.411  2.1968  1.5709  0.9147
  755MOL0     O 4053   8.546   9.195   9.480 -0.0086 -0.2295  0.4226
  755MOL0     C 4054   8.422   9.192   9.504  0.4225 -0.1533 -0.4253
  755MOL0     O 4055   8.329   9.180   9.403 -0.5376  0.2456  0.5079
  755MOL0     C 4056   8.348   9.127   9.272  0.1447 -0.6276  0.0285
  755MOL0     C 4057   8.469   9.110   9.207 -0.5097 -0.3024  0.4374
  755MOL0     C 4058   8.481   9.066   9.075 -0.7185 -0.2217 -0.0081
  755MOL0     C 4059   8.378   9.066   8.994  0.0788 -0.0411 -0.0342
  755MOL0     O 4060   8.384   9.043   8.859 -0.4482 -0.4112  0.4189
  755MOL0     C 4061   8.509   9.047   8.784 -0.8227 -0.8850 -0.3216
  755MOL0     C 4062   8.577   8.912   8.759 -0.2549 -0.3409  0.4433
  755MOL0     C 4063   8.716   8.926   8.681  0.6772 -0.1641 -0.5203
  755MOL0     C 4064   8.767   8.789   8.670  0.2362 -0.2151  0.0812
  755MOL0     C 4065   8.900   8.795   8.596 -0.1922  0.5820 -0.4480
  755MOL0     C 4066   9.009   8.836   8.700 -0.3532  0.4883 -0.0342
  755MOL0     C 4067   9.157   8.841   8.641 -0.8586  0.0280 -0.3907
  755MOL0     C 4068   9.249   8.944   8.712  0.8584 -0.8294  0.6367
  755MOL0     N 4069   9.288   8.894   8.842  0.0509 -0.3747 -0.1036
  755MOL0     C 4070   9.276   8.958   8.962  0.5026  0.3895 -0.7622
  755MOL0     C 4071   9.355   8.896   9.046 -0.3751  1.9955 -0.0168
  755MOL0     C 4072   9.373   8.933   9.186 -0.4724 -0.3003 -0.4055
  755MOL0     C 4073   9.524   8.899   9.229  0.2612 -0.1632 -0.4077
  755MOL0     C 4074   9.538   8.925   9.379  0.7380  0.4579  0.6125
  755MOL0     C 4075   9.582   9.071   9.388  0.4214 -0.4965 -1.0473
  755MOL0     O 4076   9.596   9.112   9.528  0.1403  0.0199  0.4998
  755MOL0     C 4077   9.717   9.094   9.583 -0.1914  0.6485  0.0429
  755MOL0     C 4078   9.739   9.157   9.705 -0.0971 -0.0327 -0.6685
  755MOL0     C 4079   9.869   9.149   9.775 -0.2454 -0.6180  0.9970
  755MOL0     C 4080   9.875   9.240   9.900 -0.4801  0.0379 -0.0467
  755MOL0     C 4081   9.980   9.074   9.716  0.2332  0.3732  0.4843
  755MOL0     C 4082  10.116   9.067   9.773 -0.3337 -0.2413  0.0813
  755MOL0     O 4083  10.216   9.032   9.687 -0.3663  0.0179  0.0357
  755MOL0     C 4084  10.351   9.025   9.726 -0.1833  0.0429 -1.0190
  755MOL0     C 4085  10.410   9.086   9.840  0.4335  0.2832  0.3146
  755MOL0     C 4086  10.542   9.075   9.873  0.0867 -0.4437  0.5816
  755MOL0     C 4087  10.621   8.993   9.790 -0.1594  0.7587 -0.2332
  755MOL0     O 4088  10.751   8.970   9.821 -0.6890 -0.3411  0.1545
  755MOL0     C 4089  10.855   8.995   9.728  0.5694 -0.2772  0.2099
  755MOL0     C 4090  10.975   9.045   9.795  0.1875 -0.8707 -0.2178
  755MOL0     C 4091  11.087   9.074   9.696 -0.6614 -0.8017 -0.3367
  755MOL0     C 4092  11.226   9.132   9.756 -0.1692  1.4516 -0.1118
  755MOL0     C 4093  11.337   9.145   9.650  0.0733 -0.4178  0.6285
  755MOL0     C 4094  11.475   9.178   9.691 -0.1086  0.1852 -0.5708
  755MOL0     C 4095  11.533   9.053   9.768 -0.4195 -1.0546 -0.4609
  755MOL0     C 4096  11.681   9.064   9.794 -0.2756 -0.7241 -0.1767
  755MOL0    Cl 4097  11.761   9.071   9.631  0.4198  0.1876 -0.1140
  755MOL0     C 4098  10.572   8.919   9.681 -0.8862  0.4778 -0.9490
  755MOL0     C 4099  10.444   8.952   9.649 -0.6412 -0.2269 -0.0038
  755MOL0     O 4100  10.125   9.089   9.891  0.1311  0.0379 -0.3059
  755MOL0     C 4101   9.954   9.021   9.591  0.3252  0.3245  0.4365
  755MOL0     C 4102   9.831   9.028   9.527  0.6070 -0.3610  0.1894
  755MOL0     N 4103   9.433   8.800   8.974  0.2780 -0.0140  0.5835
  755MOL0     N 4104   9.386   8.795   8.854  0.3830 -0.0902 -0.3174
  755MOL0     C 4105   8.249   9.095   9.052 -0.8154 -0.6070  0.1525
  755MOL0     C 4106   8.239   9.123   9.187  0.6760 -0.1446 -0.5566
  755MOL0     C 4107   8.374   9.181   9.646  0.1759  0.0086 -0.5634
  755MOL0     C 4108   8.233   9.194   9.671  0.1531  0.3233  0.1379
  755MOL0     C 4109   8.183   9.183   9.804  0.5680  0.0027  0.9273
  755MOL0     C 4110   8.268   9.152   9.909  0.6269  0.5504  0.0465
  755MOL0     O 4111   8.237   9.142  10.039 -0.2125  0.0433  0.3967
  755MOL0     C 4112   8.102   9.143  10.085 -0.1168 -0.3746  0.2114
  755MOL0     C 4113   8.091   9.231  10.217  0.6372  0.5153  0.0099
  755MOL0     C 4114   8.131   9.382  10.189  1.0004  0.2673 -0.4922
  755MOL0     C 4115   8.031   9.465  10.106  0.0003 -0.1811 -0.0935
  755MOL0     C 4116   7.921   9.520  10.190  1.0640 -0.0800 -0.0510
  755MOL0     C 4117   7.825   9.569  10.248  0.6796 -0.0388 -0.1398
  755MOL0     C 4118   8.406   9.137   9.881 -1.1105  0.7452  0.4078
  755MOL0     C 4119   8.462   9.146   9.752  0.3867  0.2546  0.2617
  755MOL0     C 4120   8.615   9.135   9.743 -0.5200 -0.1329  0.5624
  755MOL0     H 4121   8.565   9.110   9.257  1.2187  1.7855 -2.5354
  755MOL0     H 4122   8.576   9.025   9.043 -2.3042 -2.2212 -2.5788
  755MOL0     H 4123   8.582   9.115   8.830  1.1053 -1.2551 -2.6167
  755MOL0     H 4124   8.486   9.095   8.689  1.2317  4.0079  1.3295
  755MOL0     H 4125   8.590   8.863   8.856 -2.6616 -2.0175  0.0176
  755MOL0     H 4126   8.507   8.849   8.704  0.0178  0.8379 -1.3434
  755MOL0     H 4127   8.692   8.978   8.588  0.6784  0.8703  0.0516
  755MOL0     H 4128   8.780   8.985   8.746 -0.1395  0.7026 -0.4774
  755MOL0     H 4129   8.775   8.742   8.769 -3.1754 -2.4161 -0.5400
  755MOL0     H 4130   8.704   8.722   8.611 -1.5926  0.0656  1.5857
  755MOL0     H 4131   8.891   8.852   8.503 -2.4856  0.2194 -0.5206
  755MOL0     H 4132   8.929   8.695   8.563  1.0525  0.2755  1.3948
  755MOL0     H 4133   8.989   8.941   8.726  0.2235  1.2103 -2.2805
  755MOL0     H 4134   9.022   8.765   8.782 -0.9759  0.8469  0.3809
  755MOL0     H 4135   9.149   8.871   8.536  0.5067 -0.8239 -0.7643
  755MOL0     H 4136   9.203   8.742   8.652  0.2496  0.4576 -0.9990
  755MOL0     H 4137   9.340   8.969   8.657  1.2368  1.6924  2.2685
  755MOL0     H 4138   9.195   9.039   8.708 -1.6561 -2.1764  0.6639
  755MOL0     H 4139   9.209   9.039   8.991 -1.7169 -1.2502 -1.0243
  755MOL0     H 4140   9.299   8.881   9.247  1.0733 -0.3265  1.5370
  755MOL0     H 4141   9.353   9.038   9.213  2.2230  0.5266 -1.3068
  755MOL0     H 4142   9.545   8.796   9.198  1.3554 -0.5811  1.5508
  755MOL0     H 4143   9.600   8.954   9.173 -2.3367  1.3884 -2.6433
  755MOL0     H 4144   9.441   8.913   9.428 -0.0972  0.5450 -0.9590
  755MOL0     H 4145   9.605   8.855   9.430  0.2852 -0.0839  0.4718
  755MOL0     H 4146   9.671   9.087   9.326  2.4194  1.8676  2.1191
  755MOL0     H 4147   9.508   9.136   9.340  0.6221 -1.0012 -2.0639
  755MOL0     H 4148   9.656   9.218   9.739 -1.4289 -1.8301 -0.5535
  755MOL0     H 4149   9.941   9.204   9.979 -1.4872 -3.5705 -0.6690
  755MOL0     H 4150   9.775   9.253   9.941 -0.7675  2.6038 -1.2984
  755MOL0     H 4151   9.916   9.335   9.863 -5.8477  2.9527  0.5509
  755MOL0     H 4152  10.353   9.155   9.901 -2.6963  1.3356 -3.4270
  755MOL0     H 4153  10.588   9.131   9.953  2.1851  1.8820 -2.0574
  755MOL0     H 4154  10.874   8.900   9.678 -2.7878 -0.4703 -0.9498
  755MOL0     H 4155  10.830   9.065   9.647  0.8152 -1.8896 -1.3090
  755MOL0     H 4156  10.947   9.129   9.859 -0.2432  0.1401 -1.6813
  755MOL0     H 4157  11.012   8.961   9.855  1.2607 -2.1887 -2.6055
  755MOL0     H 4158  11.062   9.158   9.630  0.8174  0.7167  0.9343
  755MOL0     H 4159  11.110   8.983   9.641 -0.7176 -0.4119 -1.0160
  755MOL0     H 4160  11.244   9.076   9.848 -0.0833  1.2072 -0.2738
  755MOL0     H 4161  11.203   9.231   9.794 -1.4877  0.8475  0.7537
  755MOL0     H 4162  11.330   9.054   9.589  3.7026  0.5435 -1.5207
  755MOL0     H 4163  11.304   9.228   9.587 -1.8981 -2.1092 -0.7127
  755MOL0     H 4164  11.481   9.262   9.761 -0.8514 -1.7275  1.9454
  755MOL0     H 4165  11.539   9.197   9.605 -1.2858 -0.6142 -1.6606
  755MOL0     H 4166  11.514   8.968   9.701 -2.9964  2.2621 -4.4574
  755MOL0     H 4167  11.479   9.032   9.861 -0.6931 -2.0009 -0.8166
  755MOL0     H 4168  11.712   8.967   9.835  2.8483 -0.6639 -2.0541
  755MOL0     H 4169  11.708   9.141   9.866 -0.2441  0.0065 -0.9528
  755MOL0     H 4170  10.624   8.842   9.625  4.0524  1.2572  1.9821
  755MOL0     H 4171  10.415   8.910   9.553  0.4066 -0.8205 -0.0677
  755MOL0     H 4172  10.032   8.969   9.537  0.6960  0.3248  0.9685
  755MOL0     H 4173   9.838   8.978   9.431  1.8184 -1.0929  0.6336
  755MOL0     H 4174   8.157   9.094   8.994 -1.5540  0.0084  1.2847
  755MOL0     H 4175   8.141   9.144   9.230  0.3189  0.5896 -1.6921
  755MOL0     H 4176   8.165   9.207   9.587 -0.8869 -5.1698 -0.2370
  755MOL0     H 4177   8.082   9.219   9.819  0.3825 -1.0893  2.5925
  755MOL0     H 4178   8.035   9.185  10.009  0.6081  0.8741  0.2344
  755MOL0     H 4179   8.082   9.039  10.113  2.9780 -1.5820 -1.5483
  755MOL0     H 4180   8.162   9.190  10.289 -0.8417 -1.1440  0.6080
  755MOL0     H 4181   7.991   9.216  10.260  0.2088 -1.0979 -1.4075
  755MOL0     H 4182   8.158   9.439  10.278  1.4675 -0.7813  0.0515
  755MOL0     H 4183   8.222   9.379  10.128  3.2480  0.3743  2.6532
  755MOL0     H 4184   7.989   9.398  10.030  1.9199  0.1234 -1.4905
  755MOL0     H 4185   8.078   9.545  10.049  0.0235  1.4219  2.0511
  755MOL0     H 4186   7.739   9.617  10.291 -0.7205 -1.2085 -1.4973
  755MOL0     H 4187   8.477   9.124   9.961 -0.0415 -0.1249 -0.6371
  755MOL0     H 4188   8.664   9.136   9.841  2.6099  0.9578 -0.8743
  755MOL0     H 4189   8.646   9.043   9.693  1.5597  1.2423 -0.8160
  755MOL0     H 4190   8.657   9.219   9.687 -2.2902  0.1023 -0.4816
  756MOL0     O 4191   6.205   7.621   3.117 -0.4896  0.4481  0.3592
  756MOL0     C 4192   6.195   7.679   3.011 -0.4380  0.1316  0.1504
  756MOL0     O 4193   6.263   7.641   2.893  1.0191 -0.7234 -0.3146
  756MOL0     C 4194   6.350   7.539   2.894  0.6769  0.0363 -0.4960
  756MOL0     C 4195   6.313   7.416   2.840 -0.1522 -0.5250  0.0681
  756MOL0     C 4196   6.402   7.312   2.854 -0.5435 -0.3773  0.1612
  756MOL0     C 4197   6.528   7.325   2.917 -0.5183  0.5303 -0.9387
  756MOL0     O 4198   6.612   7.215   2.910  0.3475 -0.0012 -0.0118
  756MOL0     C 4199   6.750   7.242   2.887 -0.0422 -0.3341 -0.0184
  756MOL0     C 4200   6.814   7.111   2.844  0.6512 -0.0346 -0.0379
  756MOL0     C 4201   6.958   7.126   2.799 -0.4989  0.2009 -0.6216
  756MOL0     C 4202   7.052   7.136   2.925 -0.4821 -0.8501 -0.5853
  756MOL0     C 4203   7.198   7.153   2.877 -0.3687  1.1132 -0.0095
  756MOL0     C 4204   7.310   7.131   2.990 -0.3341 -0.6504 -0.4213
  756MOL0     C 4205   7.454   7.125   2.935  0.0045  0.0768  0.3796
  756MOL0     C 4206   7.558   7.124   3.050 -0.3226  0.4804  0.0070
  756MOL0     N 4207   7.690   7.089   2.993 -0.0941  0.2386  0.2803
  756MOL0     C 4208   7.765   7.192   2.925 -0.1084 -0.0862 -0.0097
  756MOL0     C 4209   7.854   7.122   2.853 -0.5082 -0.1486  1.1940
  756MOL0     C 4210   7.974   7.148   2.763 -0.0838  0.2466 -0.4481
  756MOL0     C 4211   8.098   7.058   2.778 -0.4058 -0.2370  0.2931
  756MOL0     C 4212   8.193   7.093   2.897 -0.4749  0.1588  0.2692
  756MOL0     C 4213   8.333   7.040   2.883  0.0089  1.4468  0.7703
  756MOL0     O 4214   8.420   7.094   2.782  0.0834  0.3006  0.3771
  756MOL0     C 4215   8.545   7.050   2.767 -0.6424 -0.5407  0.8513
  756MOL0     C 4216   8.625   7.127   2.681  0.6247  0.4159 -0.1438
  756MOL0     C 4217   8.755   7.104   2.672 -0.3955  1.0793 -0.5897
  756MOL0     C 4218   8.829   7.189   2.575  0.5062 -0.3960 -0.3092
  756MOL0     C 4219   8.820   7.007   2.751  0.2633  0.6269  0.4607
  756MOL0     C 4220   8.962   6.981   2.756  0.0607  0.4992  0.2366
  756MOL0     O 4221   8.998   6.854   2.743  0.3324  0.6889 -0.3387
  756MOL0     C 4222   9.136   6.828   2.739 -0.3581  0.7677 -0.7375
  756MOL0     C 4223   9.209   6.851   2.620  0.4875 -0.5389  0.2822
  756MOL0     C 4224   9.348   6.826   2.638  0.3230  0.4487  0.9203
  756MOL0     C 4225   9.412   6.778   2.756  0.8242 -0.1306 -0.1162
  756MOL0     O 4226   9.541   6.753   2.751 -0.5631 -0.6404  0.0390
  756MOL0     C 4227   9.602   6.716   2.877 -0.7322 -0.1870 -0.4136
  756MOL0     C 4228   9.758   6.737   2.839  0.2094 -0.5548 -0.5788
  756MOL0     C 4229   9.841   6.722   2.973  0.5010  0.1595 -0.1008
  756MOL0     C 4230   9.981   6.783   2.951 -0.0716  0.0827  0.1673
  756MOL0     C 4231  10.062   6.790   3.082  0.6365  0.5774  0.0041
  756MOL0     C 4232  10.044   6.924   3.165 -0.1632  0.5397  0.0562
  756MOL0     C 4233  10.142   6.921   3.286  0.4186 -0.7453  0.1277
  756MOL0     C 4234  10.122   6.791   3.374 -0.5811 -0.8489  0.2820
  756MOL0    Cl 4235   9.962   6.774   3.440  0.0035  0.6457 -0.3362
  756MOL0     C 4236   9.331   6.752   2.860 -0.8888 -0.4304 -0.0289
  756MOL0     C 4237   9.189   6.773   2.856  0.5032 -0.3885  0.8525
  756MOL0     O 4238   9.041   7.072   2.755  0.4414  0.8127  0.5311
  756MOL0     C 4239   8.731   6.918   2.824 -0.0549 -0.2105 -0.1835
  756MOL0     C 4240   8.598   6.941   2.837 -0.8485 -0.5403  0.7478
  756MOL0     N 4241   7.840   6.992   2.896  0.2837  0.4389  0.1151
  756MOL0     N 4242   7.743   6.965   2.973  0.2016  0.0957  1.3080
  756MOL0     C 4243   6.565   7.455   2.968  0.7936  0.7426 -0.3880
  756MOL0     C 4244   6.469   7.560   2.960 -1.0537  0.3844  0.5869
  756MOL0     C 4245   6.118   7.801   3.004 -0.8669 -0.1616 -0.1327
  756MOL0     C 4246   6.047   7.820   2.887  0.1190 -0.0444  0.1344
  756MOL0     C 4247   5.968   7.934   2.868  0.3172  0.1808 -0.1828
  756MOL0     C 4248   5.951   8.036   2.970 -0.1290  0.8851 -0.5935
  756MOL0     O 4249   5.871   8.143   2.944 -0.1014  0.1821  0.8525
  756MOL0     C 4250   5.847   8.258   3.035  0.1572  0.1346  0.1880
  756MOL0     C 4251   5.982   8.327   3.055 -1.0558 -0.1280 -0.5915
  756MOL0     C 4252   6.063   8.358   2.933  0.0588  0.0072 -0.8099
  756MOL0     C 4253   6.118   8.505   2.936 -0.2792  0.2892 -0.1193
  756MOL0     C 4254   6.224   8.512   3.036 -0.2833 -0.2104  1.1995
  756MOL0     C 4255   6.305   8.503   3.130  0.9589 -0.0198 -0.3644
  756MOL0     C 4256   6.008   8.005   3.090 -0.1841 -0.2590 -0.3519
  756MOL0     C 4257   6.094   7.895   3.105 -0.3697  0.8629 -0.5121
  756MOL0     C 4258   6.160   7.890   3.238 -0.0952  0.0029 -0.6039
  756MOL0     H 4259   6.224   7.388   2.785  0.0394 -0.8256 -0.0898
  756MOL0     H 4260   6.375   7.211   2.825 -1.8358  0.3547 -1.3574
  756MOL0     H 4261   6.791   7.281   2.981 -0.9999 -1.0066  0.7040
  756MOL0     H 4262   6.767   7.316   2.808  2.8058 -0.3979  0.4224
  756MOL0     H 4263   6.812   7.043   2.930  0.6750  0.2183  0.1653
  756MOL0     H 4264   6.766   7.061   2.759 -0.2312  2.1016 -0.8656
  756MOL0     H 4265   6.985   7.040   2.738 -3.6937 -0.1610 -1.6907
  756MOL0     H 4266   6.969   7.216   2.737 -0.0149  0.0637 -0.7363
  756MOL0     H 4267   7.023   7.226   2.980  2.9335 -1.0456  1.7729
  756MOL0     H 4268   7.043   7.046   2.986 -3.0793 -0.7838 -0.7350
  756MOL0     H 4269   7.208   7.257   2.845  0.2727  1.3481  0.9109
  756MOL0     H 4270   7.215   7.088   2.790 -1.7389  0.1445  0.4268
  756MOL0     H 4271   7.321   7.207   3.068  0.6137  1.1378 -2.2062
  756MOL0     H 4272   7.292   7.036   3.041  0.7341 -1.7241 -1.9879
  756MOL0     H 4273   7.469   7.205   2.862  0.8144 -0.4200 -0.0145
  756MOL0     H 4274   7.461   7.031   2.881 -1.4803 -0.4367  1.0179
  756MOL0     H 4275   7.571   7.220   3.101 -0.3558  0.1123  0.7209
  756MOL0     H 4276   7.533   7.056   3.132  1.7062  0.1242  0.3953
  756MOL0     H 4277   7.760   7.300   2.929  0.7706 -0.0552  0.5350
  756MOL0     H 4278   8.006   7.252   2.774  4.3443 -0.8467 -1.0773
  756MOL0     H 4279   7.944   7.140   2.658  0.8983  1.0256 -0.8063
  756MOL0     H 4280   8.067   6.954   2.783  1.1621 -0.6806  1.9385
  756MOL0     H 4281   8.164   7.060   2.691  0.1377 -1.2581  0.6665
  756MOL0     H 4282   8.219   7.199   2.886  0.2203 -0.1870 -2.1630
  756MOL0     H 4283   8.157   7.045   2.988  2.4912  0.3007  1.6287
  756MOL0     H 4284   8.381   7.060   2.979  1.9913 -1.0172  0.3956
  756MOL0     H 4285   8.325   6.931   2.873  1.1152  1.1615  2.5740
  756MOL0     H 4286   8.580   7.211   2.628 -0.3194 -1.6585 -2.9041
  756MOL0     H 4287   8.898   7.135   2.509 -1.6436 -2.1976 -1.2094
  756MOL0     H 4288   8.883   7.273   2.619 -0.8510  1.3647 -1.8525
  756MOL0     H 4289   8.761   7.230   2.499  3.4964  1.4344 -2.2317
  756MOL0     H 4290   9.164   6.896   2.532  1.7651  1.1653  0.4630
  756MOL0     H 4291   9.410   6.850   2.553 -0.8114 -2.6147 -0.9363
  756MOL0     H 4292   9.577   6.784   2.959 -0.0129  0.0264 -0.3703
  756MOL0     H 4293   9.574   6.613   2.901 -1.2154  0.4055  1.7892
  756MOL0     H 4294   9.801   6.657   2.779  0.1692 -2.3654  1.6670
  756MOL0     H 4295   9.776   6.826   2.779 -3.7277 -0.1901 -1.4948
  756MOL0     H 4296   9.850   6.616   2.998 -3.1889 -0.0364  1.0020
  756MOL0     H 4297   9.787   6.779   3.049 -2.1879 -3.1077  0.6596
  756MOL0     H 4298   9.967   6.880   2.902  1.1219  0.9092  1.3713
  756MOL0     H 4299  10.040   6.718   2.886  2.2199  0.8874  1.3237
  756MOL0     H 4300  10.036   6.706   3.147 -1.5045 -0.3169 -1.8419
  756MOL0     H 4301  10.166   6.772   3.052  0.0300 -2.1076 -0.8609
  756MOL0     H 4302   9.941   6.940   3.199  0.1596 -0.7016  1.7496
  756MOL0     H 4303  10.079   7.010   3.106  1.5531 -0.7732 -0.9341
  756MOL0     H 4304  10.125   7.005   3.354 -2.4654 -1.2527  0.1755
  756MOL0     H 4305  10.243   6.930   3.245 -0.9453  0.6884 -3.3053
  756MOL0     H 4306  10.187   6.819   3.458 -1.8245  0.0777  0.9772
  756MOL0     H 4307  10.165   6.699   3.333  1.6453 -0.2247  1.0320
  756MOL0     H 4308   9.368   6.708   2.953  1.2457  4.4547  1.8124
  756MOL0     H 4309   9.127   6.747   2.941  0.5220  1.2641  1.3897
  756MOL0     H 4310   8.762   6.829   2.878  0.1988 -0.6580 -1.0597
  756MOL0     H 4311   8.531   6.883   2.900 -2.7449  1.2773  0.5134
  756MOL0     H 4312   6.658   7.477   3.018  0.3097  1.0382  0.4075
  756MOL0     H 4313   6.503   7.657   2.996  0.0939  0.9655 -1.8734
  756MOL0     H 4314   6.056   7.742   2.812 -0.5591  0.1351 -0.1409
  756MOL0     H 4315   5.909   7.953   2.779 -0.5394 -2.2267 -0.1985
  756MOL0     H 4316   5.769   8.326   2.999  1.2366  0.6652 -1.2549
  756MOL0     H 4317   5.810   8.221   3.131  2.0275  0.0408  0.9237
  756MOL0     H 4318   6.038   8.270   3.129 -0.1933  1.8992  0.3823
  756MOL0     H 4319   5.962   8.422   3.107  0.4139 -1.4705  2.6873
  756MOL0     H 4320   6.156   8.300   2.935  0.2851  0.3599 -1.0294
  756MOL0     H 4321   6.012   8.344   2.837  0.2709  1.4768 -1.1613
  756MOL0     H 4322   6.030   8.566   2.959 -0.3759 -0.0740  0.4961
  756MOL0     H 4323   6.159   8.531   2.838 -0.0908  2.7542  0.5274
  756MOL0     H 4324   6.370   8.506   3.215 -1.0183  0.7772  1.1908
  756MOL0     H 4325   5.981   8.065   3.177 -2.7198 -0.6105 -0.8056
  756MOL0     H 4326   6.151   7.790   3.282  0.3412  0.8260  1.4659
  756MOL0     H 4327   6.266   7.904   3.216  0.2985  0.9182  1.6128
  756MOL0     H 4328   6.130   7.965   3.311  1.1447 -0.2786  0.2125
  757MOL0     O 4329   4.028  10.436   3.467  0.0085  0.5684 -0.1094
  757MOL0     C 4330   4.093  10.403   3.566  0.4015  0.0406  0.1602
  757MOL0     O 4331   4.201  10.324   3.564  0.0137  0.5521  0.2400
  757MOL0     C 4332   4.241  10.274   3.445  0.3621  0.4583  0.0612
  757MOL0     C 4333   4.165  10.179   3.352 -0.4669 -0.6873 -0.4242
  757MOL0     C 4334   4.219  10.147   3.232  0.5509  0.9836 -0.2257
  757MOL0     C 4335   4.339  10.199   3.196 -1.0550 -0.2093  0.1151
  757MOL0     O 4336   4.410  10.167   3.081 -0.3894 -0.1416 -0.3680
  757MOL0     C 4337   4.365  10.054   3.003  0.2791 -0.9742 -0.1247
  757MOL0     C 4338   4.431  10.038   2.872  0.2270  0.3092 -1.0079
  757MOL0     C 4339   4.581  10.012   2.891 -0.6098  0.0503 -0.2784
  757MOL0     C 4340   4.648   9.999   2.753 -0.2618  0.5537 -0.5124
  757MOL0     C 4341   4.799   9.958   2.748 -0.4450  0.7213 -0.3712
  757MOL0     C 4342   4.825   9.808   2.769 -0.5732 -0.1973  0.1267
  757MOL0     C 4343   4.978   9.781   2.750  0.5708 -0.0116  0.1151
  757MOL0     C 4344   5.000   9.772   2.593 -0.5960  0.2416 -0.1154
  757MOL0     N 4345   5.140   9.789   2.563 -0.2526 -0.6724  0.6868
  757MOL0     C 4346   5.241   9.722   2.624 -0.8024 -0.1694  0.2894
  757MOL0     C 4347   5.360   9.781   2.584 -0.7904 -0.0771 -0.3044
  757MOL0     C 4348   5.498   9.738   2.620 -0.2624  0.2098  0.1046
  757MOL0     C 4349   5.586   9.737   2.490  0.5559  0.2158  0.0154
  757MOL0     C 4350   5.731   9.682   2.522 -0.7841  0.3618  0.2574
  757MOL0     C 4351   5.823   9.687   2.401  0.1667  0.1871  0.3363
  757MOL0     O 4352   5.868   9.827   2.385  0.6949 -0.2022 -0.3223
  757MOL0     C 4353   5.997   9.864   2.390 -0.1471  0.0901  0.2688
  757MOL0     C 4354   6.023  10.000   2.397  0.2924 -1.1454  0.1835
  757MOL0     C 4355   6.146  10.055   2.421 -0.8134 -0.2252 -0.6678
  757MOL0     C 4356   6.157  10.207   2.412 -0.5425 -0.4128  0.0261
  757MOL0     C 4357   6.254   9.967   2.434  0.0706 -0.0703  0.2693
  757MOL0     C 4358   6.401  10.011   2.448 -0.2049  0.0595  0.9952
  757MOL0     O 4359   6.485   9.938   2.529 -0.6779  0.2425  0.0780
  757MOL0     C 4360   6.620   9.962   2.517  0.3498  0.2721 -0.9617
  757MOL0     C 4361   6.692   9.844   2.503  0.1457  0.2354  0.5858
  757MOL0     C 4362   6.829   9.851   2.478 -0.5794  0.3353  0.2687
  757MOL0     C 4363   6.901   9.971   2.474 -0.2352 -0.3103  0.2300
  757MOL0     O 4364   7.035   9.986   2.451 -0.3153 -0.0194  0.2804
  757MOL0     C 4365   7.122   9.874   2.422  0.6015  0.0394  0.3346
  757MOL0     C 4366   7.259   9.928   2.401 -0.2109  1.2244 -0.3062
  757MOL0     C 4367   7.292   9.985   2.258 -0.0320  0.8191 -0.4183
  757MOL0     C 4368   7.442   9.986   2.235 -0.1864  0.0258 -1.0377
  757MOL0     C 4369   7.481  10.014   2.096  0.5664  0.0107 -0.1865
  757MOL0     C 4370   7.630  10.011   2.073 -0.2312 -0.0803 -0.1013
  757MOL0     C 4371   7.668  10.044   1.920  1.0195  0.2078 -0.7675
  757MOL0     C 4372   7.815  10.051   1.888  0.5883  0.0717 -0.7025
  757MOL0    Cl 4373   7.887   9.892   1.861  0.2313 -0.5166 -0.2566
  757MOL0     C 4374   6.832  10.089   2.501  0.6978 -0.5168 -0.2070
  757MOL0     C 4375   6.695  10.087   2.531  0.6229  0.1923 -0.0677
  757MOL0     O 4376   6.426  10.114   2.394 -0.8949  0.2942  0.6596
  757MOL0     C 4377   6.233   9.833   2.425 -0.3979 -0.0987 -0.4597
  757MOL0     C 4378   6.114   9.786   2.395  0.3253 -0.8083  0.5303
  757MOL0     N 4379   5.326   9.886   2.501 -0.1388 -0.8301 -0.6900
  757MOL0     N 4380   5.197   9.891   2.492 -0.1588  0.2164 -0.2658
  757MOL0     C 4381   4.401  10.293   3.275 -0.1674 -0.6125  0.0825
  757MOL0     C 4382   4.358  10.327   3.403  0.3139  0.2341 -0.1639
  757MOL0     C 4383   4.041  10.438   3.706 -0.5406  0.6343 -0.0479
  757MOL0     C 4384   4.121  10.429   3.819  0.5844  0.2676 -0.3607
  757MOL0     C 4385   4.084  10.485   3.938  0.0733  0.9640 -0.7153
  757MOL0     C 4386   3.963  10.552   3.964  0.0561 -0.1191 -0.0035
  757MOL0     O 4387   3.916  10.619   4.080 -0.7497 -0.3575 -0.1855
  757MOL0     C 4388   4.013  10.612   4.192  0.0755 -0.7008  0.1346
  757MOL0     C 4389   3.952  10.653   4.331  0.7782  0.0330 -0.7405
  757MOL0     C 4390   3.862  10.772   4.343  0.3055 -0.7067  0.0799
  757MOL0     C 4391   3.830  10.774   4.499  0.5242  0.3835  0.0990
  757MOL0     C 4392   3.803  10.920   4.521 -0.1907 -0.0344 -0.1826
  757MOL0     C 4393   3.791  11.043   4.524  0.5953 -0.3299  0.8319
  757MOL0     C 4394   3.877  10.554   3.857  0.1481 -0.0546  0.0310
  757MOL0     C 4395   3.907  10.485   3.735  0.2240  0.4728 -0.3880
  757MOL0     C 4396   3.799  10.475   3.632 -0.1784  0.2285  0.0389
  757MOL0     H 4397   4.062  10.157   3.379 -0.2098  0.3336  1.5956
  757MOL0     H 4398   4.163  10.074   3.175 -0.1086  1.0236  0.3511
  757MOL0     H 4399   4.259  10.072   2.986  0.2814 -0.9210 -0.0829
  757MOL0     H 4400   4.375   9.957   3.054 -3.8305 -2.8058 -2.3718
  757MOL0     H 4401   4.386   9.943   2.838  0.8446 -0.5726  0.5341
  757MOL0     H 4402   4.413  10.127   2.811  1.7202  2.7819  1.9196
  757MOL0     H 4403   4.618  10.104   2.937 -2.7823  0.4395  0.8422
  757MOL0     H 4404   4.593   9.929   2.961 -2.7768 -0.6234 -0.6472
  757MOL0     H 4405   4.589   9.930   2.691 -1.2876  1.5706 -0.7058
  757MOL0     H 4406   4.635  10.097   2.706 -2.2443  0.0341 -1.1457
  757MOL0     H 4407   4.854  10.017   2.822 -2.3141  0.6217  1.1716
  757MOL0     H 4408   4.836   9.983   2.648 -1.4934 -0.3807 -1.0549
  757MOL0     H 4409   4.800   9.773   2.869 -2.4220  1.2751  0.2474
  757MOL0     H 4410   4.776   9.732   2.707 -0.9565  1.0421 -1.1842
  757MOL0     H 4411   5.014   9.686   2.791  2.4016  0.6545  0.1277
  757MOL0     H 4412   5.046   9.855   2.792  1.1733 -0.0589 -0.7480
  757MOL0     H 4413   4.971   9.672   2.558 -1.6585  1.4432 -3.0023
  757MOL0     H 4414   4.960   9.848   2.525  1.7805  0.6978 -1.0985
  757MOL0     H 4415   5.250   9.632   2.684  2.2705  1.0359  1.9133
  757MOL0     H 4416   5.500   9.638   2.664  2.2169  0.2454  0.1897
  757MOL0     H 4417   5.535   9.806   2.697  0.5829  0.6273 -0.6624
  757MOL0     H 4418   5.536   9.668   2.420 -0.0025  2.8716 -2.4134
  757MOL0     H 4419   5.590   9.836   2.443 -0.1383  0.5676  0.6686
  757MOL0     H 4420   5.782   9.717   2.612  2.0993 -1.4078 -0.5534
  757MOL0     H 4421   5.717   9.575   2.538 -2.6406  0.2160 -1.8445
  757MOL0     H 4422   5.905   9.614   2.401 -0.5908 -0.6745  0.5168
  757MOL0     H 4423   5.761   9.673   2.313  1.6121  0.6498 -0.7914
  757MOL0     H 4424   5.941  10.067   2.375  0.8134 -1.2734 -2.5745
  757MOL0     H 4425   6.211  10.241   2.323 -0.0676  0.8224  0.7629
  757MOL0     H 4426   6.221  10.237   2.495  0.1459 -3.4575  0.7187
  757MOL0     H 4427   6.057  10.251   2.419 -1.9387 -3.4879  1.2214
  757MOL0     H 4428   6.643   9.748   2.515 -1.3225  0.8468 -0.1612
  757MOL0     H 4429   6.894   9.765   2.460  1.8489  2.0226  0.4085
  757MOL0     H 4430   7.115   9.801   2.503 -0.0465  0.1542  0.3887
  757MOL0     H 4431   7.081   9.825   2.333 -2.1160  1.0340  0.9475
  757MOL0     H 4432   7.296   9.998   2.477 -0.0097 -0.9142  1.6686
  757MOL0     H 4433   7.318   9.836   2.407 -1.1770  0.3493 -2.9963
  757MOL0     H 4434   7.248  10.085   2.247  0.9434  1.1412 -1.6862
  757MOL0     H 4435   7.241   9.914   2.191  1.6196  0.0501 -0.9130
  757MOL0     H 4436   7.486   9.890   2.263  0.4124  0.4835 -0.3637
  757MOL0     H 4437   7.488  10.066   2.294 -0.4733  0.0433 -0.8341
  757MOL0     H 4438   7.432   9.937   2.036  1.0171 -0.3375 -0.1150
  757MOL0     H 4439   7.449  10.113   2.062 -1.3299 -0.7969 -0.8922
  757MOL0     H 4440   7.657   9.909   2.103  1.1044 -0.0445 -1.0841
  757MOL0     H 4441   7.677  10.092   2.129 -1.8059 -0.4842  1.9017
  757MOL0     H 4442   7.618  10.137   1.889  1.1092  0.3834 -0.3940
  757MOL0     H 4443   7.626   9.961   1.863 -0.9564  2.0071 -2.1092
  757MOL0     H 4444   7.868  10.097   1.973 -1.6498  0.6143  0.4901
  757MOL0     H 4445   7.833  10.108   1.796  5.0555  0.3717  0.1526
  757MOL0     H 4446   6.884  10.184   2.514 -0.4358 -0.1789  2.6369
  757MOL0     H 4447   6.651  10.178   2.569  0.0801  0.1011 -0.4612
  757MOL0     H 4448   6.320   9.768   2.421  0.2539  0.7621 -0.7337
  757MOL0     H 4449   6.120   9.678   2.390  1.4099 -0.7300 -0.2831
  757MOL0     H 4450   4.491  10.339   3.237 -1.6613  1.6722 -0.9347
  757MOL0     H 4451   4.423  10.395   3.456  0.6056  1.7153 -2.2995
  757MOL0     H 4452   4.215  10.375   3.810  0.2695 -0.5546  0.9796
  757MOL0     H 4453   4.145  10.487   4.027 -2.0175  0.1231  0.8192
  757MOL0     H 4454   4.049  10.509   4.199  0.8023 -0.4996 -0.5016
  757MOL0     H 4455   4.102  10.668   4.161  0.1477 -1.1837 -0.5628
  757MOL0     H 4456   4.041  10.672   4.392  2.8417 -0.0957 -3.5084
  757MOL0     H 4457   3.903  10.566   4.375  1.3446  1.2923  2.6357
  757MOL0     H 4458   3.918  10.860   4.307  0.1260 -1.7289 -3.0158
  757MOL0     H 4459   3.777  10.764   4.275  0.3284 -3.4430  0.2893
  757MOL0     H 4460   3.909  10.724   4.555  2.0340  1.0965 -1.2919
  757MOL0     H 4461   3.737  10.719   4.512 -0.8226  2.2982 -1.0370
  757MOL0     H 4462   3.802  11.149   4.535  1.6829 -0.5409  2.0596
  757MOL0     H 4463   3.775  10.582   3.883  0.3899 -1.9822  3.7106
  757MOL0     H 4464   3.805  10.374   3.589  0.5505  0.5266 -0.5834
  757MOL0     H 4465   3.701  10.485   3.679  0.8201  2.2748  1.8638
  757MOL0     H 4466   3.795  10.553   3.555  0.8114 -0.1068 -0.3677
  758MOL0     O 4467   9.979   9.851   3.730  0.4283  0.5574 -0.1732
  758MOL0     C 4468  10.022   9.943   3.667  0.5253  0.3724 -0.3529
  758MOL0     O 4469  10.155   9.962   3.630 -0.5542 -0.9383  0.1150
  758MOL0     C 4470  10.252   9.866   3.637  0.3561 -0.2486 -0.1853
  758MOL0     C 4471  10.372   9.907   3.575  1.2825 -0.5471  0.4802
  758MOL0     C 4472  10.475   9.819   3.551 -1.3118  0.5783 -0.5063
  758MOL0     C 4473  10.460   9.685   3.583  0.1482 -0.5275  0.5372
  758MOL0     O 4474  10.578   9.611   3.559 -0.3628 -0.2154  0.3674
  758MOL0     C 4475  10.578   9.472   3.590  0.8023  0.1469 -0.3525
  758MOL0     C 4476  10.725   9.416   3.565  0.1682 -0.0464  0.1776
  758MOL0     C 4477  10.777   9.460   3.421 -0.3488 -0.4875 -0.2414
  758MOL0     C 4478  10.906   9.391   3.383  0.1185  0.9125 -0.1743
  758MOL0     C 4479  11.023   9.429   3.480  0.1546  0.5938  0.6055
  758MOL0     C 4480  11.152   9.369   3.421 -0.2750 -0.1977  0.1645
  758MOL0     C 4481  11.271   9.426   3.502 -0.0194  0.8961  0.2283
  758MOL0     C 4482  11.391   9.354   3.450 -0.0669 -0.1303  0.0179
  758MOL0     N 4483  11.520   9.408   3.497 -0.2886 -0.1485 -0.2998
  758MOL0     C 4484  11.636   9.342   3.492 -0.3410  0.3002  0.4780
  758MOL0     C 4485  11.728   9.436   3.526  0.9469 -0.2352  0.6250
  758MOL0     C 4486  11.876   9.401   3.540 -0.4543 -0.2205  0.4794
  758MOL0     C 4487  11.915   9.336   3.673  0.0528  0.1658 -0.2295
  758MOL0     C 4488  11.941   9.441   3.780  0.0616  0.6212  0.0322
  758MOL0     C 4489  11.916   9.375   3.918 -0.6972  0.0864 -0.2442
  758MOL0     O 4490  11.965   9.466   4.028 -0.7724  0.3683 -0.5929
  758MOL0     C 4491  12.097   9.452   4.071  0.0561  0.9664 -0.4445
  758MOL0     C 4492  12.185   9.561   4.048  0.1986 -0.5964  0.5107
  758MOL0     C 4493  12.319   9.564   4.091 -0.2281 -0.4758  0.3324
  758MOL0     C 4494  12.402   9.693   4.055  0.5514 -0.0274 -0.1735
  758MOL0     C 4495  12.369   9.451   4.168  0.5497 -0.3342  0.2567
  758MOL0     C 4496  12.506   9.440   4.216  0.0454  0.9110 -1.0175
  758MOL0     O 4497  12.535   9.350   4.320  0.0592 -0.4318 -0.5674
  758MOL0     C 4498  12.671   9.336   4.366  0.4358  0.2622  0.3294
  758MOL0     C 4499  12.729   9.209   4.368  0.0368 -0.3343 -0.7365
  758MOL0     C 4500  12.864   9.195   4.412  0.0520  0.5272  0.1681
  758MOL0     C 4501  12.945   9.301   4.434 -0.0951 -0.3109  0.0983
  758MOL0     O 4502  13.067   9.294   4.482  0.2224  0.7977  0.0362
  758MOL0     C 4503  13.161   9.245   4.384  0.3621  0.1217 -0.2661
  758MOL0     C 4504  13.310   9.263   4.429  0.1216 -0.0874  0.4782
  758MOL0     C 4505  13.363   9.407   4.399 -0.2046 -0.2829  0.0956
  758MOL0     C 4506  13.274   9.511   4.444  0.0011 -0.2933 -0.4871
  758MOL0     C 4507  13.341   9.652   4.428  0.6896 -0.3155 -0.1048
  758MOL0     C 4508  13.231   9.766   4.442 -0.1312 -0.6866 -0.1834
  758MOL0     C 4509  13.288   9.895   4.396 -0.0159 -0.8768 -0.8599
  758MOL0     C 4510  13.408   9.950   4.482  0.5065 -0.3754  0.3836
  758MOL0    Cl 4511  13.419  10.128   4.474 -0.5164  0.3976  0.1739
  758MOL0     C 4512  12.887   9.424   4.405 -0.5475 -0.2820  0.3325
  758MOL0     C 4513  12.753   9.440   4.384 -1.0471 -0.4663  0.0779
  758MOL0     O 4514  12.593   9.506   4.162 -0.4035 -0.2210  0.9228
  758MOL0     C 4515  12.274   9.351   4.196 -0.7787 -0.6017  0.2442
  758MOL0     C 4516  12.145   9.352   4.148  1.2215 -0.4288 -0.2020
  758MOL0     N 4517  11.664   9.557   3.551 -0.5621 -0.4051 -0.5684
  758MOL0     N 4518  11.540   9.533   3.542 -0.1829 -0.3850 -0.1500
  758MOL0     C 4519  10.351   9.648   3.659 -0.2308  0.8118  0.3119
  758MOL0     C 4520  10.240   9.732   3.682 -0.1468 -0.7131  0.6078
  758MOL0     C 4521   9.928  10.046   3.622  0.3563  0.5049  0.6973
  758MOL0     C 4522   9.796  10.042   3.679 -1.0079 -0.8683 -0.3214
  758MOL0     C 4523   9.695  10.123   3.626 -0.3909  0.0976 -0.3562
  758MOL0     C 4524   9.715  10.211   3.524 -0.3978 -0.9117  0.3021
  758MOL0     O 4525   9.614  10.288   3.482 -0.5146 -0.6215  0.0647
  758MOL0     C 4526   9.599  10.325   3.347 -0.5477 -0.1220 -0.2948
  758MOL0     C 4527   9.466  10.385   3.337  0.0943 -0.0857 -0.0996
  758MOL0     C 4528   9.475  10.518   3.419  0.6514 -1.1564 -0.0813
  758MOL0     C 4529   9.374  10.631   3.377  0.3745  0.5106 -0.2960
  758MOL0     C 4530   9.241  10.594   3.424  0.2041  0.0320  0.2124
  758MOL0     C 4531   9.126  10.572   3.445  0.6562 -0.2380 -0.4325
  758MOL0     C 4532   9.841  10.216   3.469  0.9218 -0.0540  0.1306
  758MOL0     C 4533   9.952  10.147   3.524 -0.4287 -0.6033 -0.8832
  758MOL0     C 4534  10.086  10.208   3.481 -0.3188 -0.3781  0.1775
  758MOL0     H 4535  10.363  10.011   3.546  0.5985 -0.5802  0.5572
  758MOL0     H 4536  10.561   9.851   3.493 -1.3696  2.3259  0.2954
  758MOL0     H 4537  10.502   9.419   3.532  0.9978 -1.2964  0.6476
  758MOL0     H 4538  10.556   9.451   3.696  0.4350 -2.7357 -0.9203
  758MOL0     H 4539  10.794   9.444   3.645 -1.2793  0.0777  1.4393
  758MOL0     H 4540  10.718   9.307   3.572 -1.4170 -0.0363 -0.7958
  758MOL0     H 4541  10.701   9.437   3.346  1.0258 -2.2022 -1.1769
  758MOL0     H 4542  10.794   9.568   3.420 -1.2595 -0.3324  0.0022
  758MOL0     H 4543  10.895   9.282   3.381  0.6463  0.8259  0.9303
  758MOL0     H 4544  10.928   9.431   3.284  0.8839 -0.1092 -0.4403
  758MOL0     H 4545  11.006   9.389   3.581 -0.4331  0.5372  0.4876
  758MOL0     H 4546  11.023   9.538   3.488 -0.7151  0.5229  1.8078
  758MOL0     H 4547  11.149   9.262   3.443  0.7688  0.4471  4.3510
  758MOL0     H 4548  11.167   9.389   3.315  1.4461 -1.0766  0.2064
  758MOL0     H 4549  11.263   9.413   3.610 -1.3953  0.4743  0.0882
  758MOL0     H 4550  11.269   9.533   3.482 -2.3077  1.0367  0.9786
  758MOL0     H 4551  11.380   9.250   3.483 -2.5941 -0.3216 -1.1738
  758MOL0     H 4552  11.387   9.346   3.341  1.0773  0.1853 -0.0589
  758MOL0     H 4553  11.662   9.240   3.464  2.4421  0.8447  0.7891
  758MOL0     H 4554  11.938   9.487   3.514 -0.3497 -1.1378 -2.7651
  758MOL0     H 4555  11.898   9.329   3.460  1.7020  1.9066 -0.9825
  758MOL0     H 4556  11.823   9.285   3.703  0.8724 -0.9335  0.4765
  758MOL0     H 4557  11.995   9.265   3.650 -0.4277  0.4128 -3.0924
  758MOL0     H 4558  12.047   9.469   3.781  1.5642 -4.1057  1.7946
  758MOL0     H 4559  11.861   9.515   3.772 -0.7467 -0.3542 -1.8120
  758MOL0     H 4560  11.809   9.358   3.933 -0.8912  1.1198 -0.3717
  758MOL0     H 4561  11.960   9.275   3.930 -0.8730  0.0476  0.0981
  758MOL0     H 4562  12.145   9.642   3.989  1.0704 -0.3109  0.2938
  758MOL0     H 4563  12.354   9.748   3.974  0.0981 -0.0008  0.1125
  758MOL0     H 4564  12.502   9.680   4.010 -1.0243  0.3802 -4.2227
  758MOL0     H 4565  12.406   9.765   4.137  0.7464  0.4002 -0.5520
  758MOL0     H 4566  12.664   9.125   4.349 -3.0569  1.7208  0.0872
  758MOL0     H 4567  12.904   9.100   4.449  0.7219  1.4221  1.8697
  758MOL0     H 4568  13.145   9.143   4.350  1.1950  0.4911 -1.8593
  758MOL0     H 4569  13.146   9.305   4.294 -1.9661 -0.6814 -0.4735
  758MOL0     H 4570  13.325   9.236   4.534  2.6927  1.1338  0.5174
  758MOL0     H 4571  13.374   9.198   4.368 -0.3872  0.1185 -0.2834
  758MOL0     H 4572  13.379   9.420   4.292 -0.2017 -2.4845 -0.2266
  758MOL0     H 4573  13.460   9.426   4.444 -0.4633  2.7247 -0.4020
  758MOL0     H 4574  13.237   9.506   4.547  0.4128 -0.0041 -0.3239
  758MOL0     H 4575  13.185   9.509   4.381 -1.5971  1.4319  1.5417
  758MOL0     H 4576  13.416   9.666   4.505  2.5941  0.0328 -1.9215
  758MOL0     H 4577  13.381   9.660   4.326 -2.4552  1.9188 -1.3452
  758MOL0     H 4578  13.215   9.772   4.550  1.7451 -0.6658  0.1345
  758MOL0     H 4579  13.146   9.742   4.378 -1.4423  2.6171  0.1417
  758MOL0     H 4580  13.221   9.981   4.406  2.1303  0.6403  1.8749
  758MOL0     H 4581  13.308   9.878   4.290  3.4372  0.6253 -0.5609
  758MOL0     H 4582  13.504   9.906   4.453  0.1488 -1.1120  0.2915
  758MOL0     H 4583  13.392   9.930   4.588 -1.3517  2.6495  0.7718
  758MOL0     H 4584  12.944   9.516   4.404 -1.5462  0.3574  0.7201
  758MOL0     H 4585  12.719   9.541   4.362 -1.7286 -0.3463  1.5293
  758MOL0     H 4586  12.307   9.258   4.242  0.3796 -1.1881 -1.6618
  758MOL0     H 4587  12.071   9.276   4.171  1.1297 -1.0232 -2.2187
  758MOL0     H 4588  10.357   9.554   3.712  4.9873  1.7811  2.0991
  758MOL0     H 4589  10.148   9.691   3.723 -0.9585 -0.6908 -1.1038
  758MOL0     H 4590   9.766   9.974   3.758  0.6618 -2.5078 -1.0257
  758MOL0     H 4591   9.601  10.108   3.677  0.4821  3.0578  2.4974
  758MOL0     H 4592   9.674  10.397   3.312  0.2134  0.1623  1.7655
  758MOL0     H 4593   9.603  10.229   3.296  1.8409 -1.3188  1.9108
  758MOL0     H 4594   9.395  10.318   3.385 -0.8297  1.5994  0.9847
  758MOL0     H 4595   9.433  10.404   3.235  1.4017 -1.1455 -0.7474
  758MOL0     H 4596   9.450  10.501   3.524 -2.5173 -1.7470 -0.8346
  758MOL0     H 4597   9.576  10.560   3.420  0.8074 -1.5147  1.1427
  758MOL0     H 4598   9.366  10.650   3.269 -0.1038  0.7110 -0.2308
  758MOL0     H 4599   9.412  10.728   3.411  2.1644 -0.2926  0.1028
  758MOL0     H 4600   9.021  10.565   3.467  0.3448 -0.1163 -1.7409
  758MOL0     H 4601   9.847  10.299   3.399 -2.9003 -1.4059 -2.1069
  758MOL0     H 4602  10.158  10.198   3.562  0.5624 -1.5236 -0.7174
  758MOL0     H 4603  10.131  10.156   3.396  0.4691 -1.9389  1.5025
  758MOL0     H 4604  10.083  10.317   3.467  0.1032 -0.4722 -0.7140
  759MOL0     O 4605   8.563   5.198   4.177 -0.6135 -0.5140 -0.1185
  759MOL0     C 4606   8.544   5.180   4.063 -0.2798 -0.2140 -0.1890
  759MOL0     O 4607   8.634   5.168   3.972 -0.5827 -0.3918 -0.4887
  759MOL0     C 4608   8.766   5.140   4.009 -0.4532  0.2043 -0.4926
  759MOL0     C 4609   8.853   5.249   4.000 -0.5336  0.2566  0.1381
  759MOL0     C 4610   8.993   5.232   4.023 -0.2438  0.1052  0.6072
  759MOL0     C 4611   9.045   5.106   4.051  0.7697  0.7263 -0.3409
  759MOL0     O 4612   9.181   5.101   4.077 -0.1072 -0.0733  0.0174
  759MOL0     C 4613   9.252   4.992   4.128 -0.3413  0.3482  0.2953
  759MOL0     C 4614   9.395   5.043   4.166  0.1309 -0.9638  0.7463
  759MOL0     C 4615   9.485   5.046   4.042  0.4982 -0.8185 -0.3152
  759MOL0     C 4616   9.636   5.068   4.075 -0.5520  0.5451  0.6493
  759MOL0     C 4617   9.649   5.194   4.157 -1.0766 -0.2804  1.2865
  759MOL0     C 4618   9.795   5.247   4.157 -0.5471 -0.1695  0.4173
  759MOL0     C 4619   9.804   5.377   4.238  0.1789  0.3927 -0.2522
  759MOL0     C 4620   9.935   5.462   4.216  0.8425  0.2137 -0.8291
  759MOL0     N 4621  10.052   5.390   4.247 -0.1145  0.4727 -0.4403
  759MOL0     C 4622  10.128   5.429   4.359  0.3223  0.1810 -0.5181
  759MOL0     C 4623  10.248   5.359   4.341  0.2295  0.7272 -0.6596
  759MOL0     C 4624  10.365   5.345   4.436 -0.5937  0.0400  0.4242
  759MOL0     C 4625  10.475   5.433   4.378  0.2299  0.3349 -0.4280
  759MOL0     C 4626  10.585   5.438   4.483  0.2011  0.4864 -0.1713
  759MOL0     C 4627  10.718   5.490   4.425  0.7055 -0.1387  0.0736
  759MOL0     O 4628  10.820   5.468   4.521  0.2275  0.7076  0.5406
  759MOL0     C 4629  10.941   5.528   4.516 -0.2067 -0.1153  0.0833
  759MOL0     C 4630  10.973   5.632   4.431 -0.3030 -0.8230 -0.3780
  759MOL0     C 4631  11.098   5.699   4.434  0.1129  0.0697 -0.3147
  759MOL0     C 4632  11.119   5.803   4.332 -0.4273  0.1852  0.6411
  759MOL0     C 4633  11.191   5.666   4.538 -0.0284  0.0102 -0.1775
  759MOL0     C 4634  11.319   5.737   4.554  0.1565  0.1875 -1.1054
  759MOL0     O 4635  11.418   5.657   4.603 -0.2085  0.3828 -0.1439
  759MOL0     C 4636  11.537   5.722   4.635 -0.2616  0.5965  0.1010
  759MOL0     C 4637  11.649   5.657   4.574 -0.5570  0.2919 -0.6771
  759MOL0     C 4638  11.773   5.711   4.597  0.1020 -0.1572 -0.2263
  759MOL0     C 4639  11.796   5.819   4.679  0.2056 -0.1398  0.0812
  759MOL0     O 4640  11.921   5.870   4.682  0.9153 -0.4932 -0.2601
  759MOL0     C 4641  11.935   6.016   4.694 -0.5479 -0.3049 -0.1322
  759MOL0     C 4642  12.077   6.039   4.632  0.0822  0.1712 -0.2280
  759MOL0     C 4643  12.128   6.182   4.643 -0.4967  0.2304  0.4407
  759MOL0     C 4644  12.275   6.188   4.631 -0.3467  0.6067 -0.1025
  759MOL0     C 4645  12.363   6.175   4.756  1.0569  0.2162  0.4313
  759MOL0     C 4646  12.506   6.203   4.715  0.1653 -0.3842 -0.9447
  759MOL0     C 4647  12.602   6.206   4.832  0.5312  0.5671 -0.4422
  759MOL0     C 4648  12.737   6.231   4.774  0.3155 -0.2982  0.1152
  759MOL0    Cl 4649  12.863   6.298   4.897  0.0773 -0.3142 -0.0187
  759MOL0     C 4650  11.679   5.877   4.735 -0.0008 -0.3648  0.0489
  759MOL0     C 4651  11.548   5.829   4.719 -0.0164  0.0834 -0.3460
  759MOL0     O 4652  11.324   5.860   4.537  0.3560 -0.2915  0.3238
  759MOL0     C 4653  11.155   5.564   4.627 -0.0470  0.2549 -0.5329
  759MOL0     C 4654  11.031   5.492   4.615 -0.0799 -0.2620 -0.5379
  759MOL0     N 4655  10.241   5.281   4.230 -0.1489 -0.5592 -0.0414
  759MOL0     N 4656  10.125   5.290   4.186  0.8832 -0.3262 -0.3376
  759MOL0     C 4657   8.946   4.992   4.065  0.9539 -0.3094 -0.3849
  759MOL0     C 4658   8.812   5.013   4.043 -0.4612  0.0542 -0.1302
  759MOL0     C 4659   8.402   5.201   4.016  0.2188 -0.4579  0.0272
  759MOL0     C 4660   8.379   5.197   3.879 -0.1999 -0.7785  0.4738
  759MOL0     C 4661   8.262   5.218   3.814  0.3454 -0.6768  0.4969
  759MOL0     C 4662   8.151   5.245   3.896 -0.2280 -0.3964  0.0491
  759MOL0     O 4663   8.042   5.288   3.832  0.3205  0.2305 -0.0466
  759MOL0     C 4664   7.922   5.318   3.902  0.1851  0.5388 -0.3687
  759MOL0     C 4665   7.826   5.196   3.907  0.6130  0.8085 -1.0346
  759MOL0     C 4666   7.819   5.118   3.777 -0.7468  0.3366  0.8987
  759MOL0     C 4667   7.769   5.197   3.656  0.6438 -0.3338  0.2005
  759MOL0     C 4668   7.620   5.201   3.674 -0.9765 -0.7802  0.3379
  759MOL0     C 4669   7.502   5.186   3.686  0.3629 -0.2301 -0.3401
  759MOL0     C 4670   8.166   5.238   4.038 -0.1713  0.4320 -0.8323
  759MOL0     C 4671   8.285   5.222   4.098 -0.0259  0.7826  0.6959
  759MOL0     C 4672   8.276   5.211   4.250 -0.6304  0.4692 -0.4519
  759MOL0     H 4673   8.812   5.346   3.973 -3.4230 -1.1536 -0.8918
  759MOL0     H 4674   9.057   5.320   4.018 -1.9672  1.3378 -1.0504
  759MOL0     H 4675   9.260   4.915   4.050 -0.6721  2.2259 -1.6985
  759MOL0     H 4676   9.196   4.950   4.211  1.5783  1.0638  2.0323
  759MOL0     H 4677   9.390   5.147   4.201 -0.6277 -0.7121 -0.0591
  759MOL0     H 4678   9.436   4.991   4.253 -1.9805  0.2316  2.5804
  759MOL0     H 4679   9.466   4.958   3.980  0.0698 -1.7379  1.0707
  759MOL0     H 4680   9.451   5.130   3.981  1.7864 -1.6002 -2.2272
  759MOL0     H 4681   9.664   4.976   4.127 -0.2914 -1.6297 -3.0200
  759MOL0     H 4682   9.703   5.075   3.989 -3.4563  1.4804 -1.7231
  759MOL0     H 4683   9.627   5.167   4.261  0.3008 -0.8310  1.4588
  759MOL0     H 4684   9.582   5.268   4.112  1.8530  2.0801  0.5202
  759MOL0     H 4685   9.865   5.168   4.186  1.9931  1.9131  0.3588
  759MOL0     H 4686   9.830   5.278   4.057 -0.4803  0.2027  0.5529
  759MOL0     H 4687   9.797   5.351   4.344  1.5460 -0.6701 -0.3898
  759MOL0     H 4688   9.719   5.444   4.222  1.3450  1.8932 -0.4633
  759MOL0     H 4689   9.933   5.486   4.110 -1.6321  0.9489 -0.6904
  759MOL0     H 4690   9.929   5.555   4.273  1.5782 -0.4126  0.3113
  759MOL0     H 4691  10.109   5.485   4.450  0.1519 -2.4610  1.1886
  759MOL0     H 4692  10.399   5.241   4.439 -0.7907 -0.0524  4.0817
  759MOL0     H 4693  10.338   5.366   4.540  1.5041 -2.4653  1.5896
  759MOL0     H 4694  10.516   5.393   4.285  1.1385  1.7112 -0.6442
  759MOL0     H 4695  10.431   5.530   4.355 -0.1870 -0.1365 -1.7061
  759MOL0     H 4696  10.563   5.492   4.575  1.7827  0.1176  0.4487
  759MOL0     H 4697  10.610   5.336   4.513 -1.8537 -0.1142 -0.3514
  759MOL0     H 4698  10.743   5.439   4.332  1.2931 -2.5267  1.4663
  759MOL0     H 4699  10.706   5.596   4.400  0.2221 -0.4667 -1.1623
  759MOL0     H 4700  10.893   5.653   4.361 -0.6192 -1.7669 -0.3211
  759MOL0     H 4701  11.041   5.792   4.256  0.1741 -1.7434  0.2456
  759MOL0     H 4702  11.218   5.800   4.285 -0.3007 -2.8643  0.8918
  759MOL0     H 4703  11.115   5.905   4.371 -2.7358  1.2420 -2.0487
  759MOL0     H 4704  11.631   5.569   4.514  0.0490 -0.1620 -0.2117
  759MOL0     H 4705  11.858   5.659   4.553  1.7533  3.7095 -1.9992
  759MOL0     H 4706  11.855   6.072   4.644 -1.7078 -0.9655  0.9343
  759MOL0     H 4707  11.945   6.044   4.799  0.3828 -0.3410 -0.1979
  759MOL0     H 4708  12.136   5.960   4.678  0.8579  0.2757 -1.0132
  759MOL0     H 4709  12.070   6.005   4.528  2.5527 -1.8351  0.1689
  759MOL0     H 4710  12.087   6.228   4.734 -2.5136  0.1835 -0.3924
  759MOL0     H 4711  12.081   6.234   4.559 -1.2940 -2.6577 -1.0429
  759MOL0     H 4712  12.294   6.287   4.589 -0.0005 -0.2716 -2.1678
  759MOL0     H 4713  12.316   6.111   4.565 -0.7948 -1.4344  1.8715
  759MOL0     H 4714  12.322   6.242   4.832 -0.7631  1.2572 -1.3511
  759MOL0     H 4715  12.365   6.075   4.800 -0.4725 -0.0113  0.0529
  759MOL0     H 4716  12.520   6.302   4.669  0.1655  0.9737  1.7891
  759MOL0     H 4717  12.531   6.130   4.637  3.0497  0.1004 -0.5884
  759MOL0     H 4718  12.605   6.107   4.881 -0.7917  1.5358  1.7671
  759MOL0     H 4719  12.574   6.288   4.899  2.1217 -0.0237  1.0266
  759MOL0     H 4720  12.741   6.295   4.686 -0.9121  0.8747  0.8795
  759MOL0     H 4721  12.776   6.137   4.734 -0.5554 -0.0305 -1.4745
  759MOL0     H 4722  11.700   5.960   4.801 -0.2431  0.0792 -0.4271
  759MOL0     H 4723  11.462   5.862   4.775  0.6523 -2.7332  2.6299
  759MOL0     H 4724  11.224   5.536   4.706  0.9812 -0.3197 -1.6199
  759MOL0     H 4725  11.015   5.410   4.684 -0.0787  0.6445  0.5780
  759MOL0     H 4726   8.975   4.892   4.095 -0.3460 -1.8948 -3.8558
  759MOL0     H 4727   8.744   4.929   4.045 -0.0672 -0.2629  0.2926
  759MOL0     H 4728   8.462   5.206   3.810 -2.1636  0.5814 -1.8741
  759MOL0     H 4729   8.249   5.237   3.708  0.8732 -1.1867  0.3338
  759MOL0     H 4730   7.940   5.352   4.004 -1.0841  1.0442 -0.3060
  759MOL0     H 4731   7.870   5.398   3.849  0.6466  1.7978  0.9976
  759MOL0     H 4732   7.726   5.229   3.937  0.6431  1.8402 -2.0008
  759MOL0     H 4733   7.862   5.120   3.978 -3.1104 -0.1290  0.0451
  759MOL0     H 4734   7.922   5.084   3.762 -1.1526  0.4538 -3.2028
  759MOL0     H 4735   7.763   5.025   3.787  0.3061 -0.5869 -1.0510
  759MOL0     H 4736   7.796   5.154   3.559  1.3532 -0.7314  0.5601
  759MOL0     H 4737   7.825   5.290   3.644  0.5353 -0.2628  0.2438
  759MOL0     H 4738   7.397   5.163   3.689  0.3504 -0.2188 -0.7102
  759MOL0     H 4739   8.078   5.260   4.098 -0.6055 -2.1962 -0.3817
  759MOL0     H 4740   8.181   5.163   4.277 -1.1604  1.7593  0.0289
  759MOL0     H 4741   8.358   5.146   4.283  1.5878  2.7418 -1.1907
  759MOL0     H 4742   8.291   5.310   4.293 -0.5222  1.1208 -1.9359
  760MOL0     O 4743   1.184   4.315   1.751  0.5450 -0.4613 -0.8120
  760MOL0     C 4744   1.103   4.225   1.759 -0.5523  0.5797  1.0393
  760MOL0     O 4745   1.139   4.091   1.789  0.4675 -0.2339  0.8402
  760MOL0     C 4746   1.272   4.067   1.794  0.1331  0.2127  0.8358
  760MOL0     C 4747   1.339   4.061   1.676 -0.4083 -0.6073 -0.7648
  760MOL0     C 4748   1.474   4.034   1.670  0.4003 -0.3953  0.8288
  760MOL0     C 4749   1.546   4.002   1.782  0.7145 -0.1288 -0.2175
  760MOL0     O 4750   1.684   3.986   1.766  0.0208  0.0734  0.3440
  760MOL0     C 4751   1.745   3.874   1.817 -0.2944  0.5321 -0.3999
  760MOL0     C 4752   1.870   3.845   1.742  0.3266 -0.3434  0.4017
  760MOL0     C 4753   1.838   3.819   1.594 -0.0582  0.1786  0.2767
  760MOL0     C 4754   1.975   3.794   1.524 -0.1049 -0.5313 -1.3932
  760MOL0     C 4755   1.974   3.806   1.375  0.1120  0.1864  0.0456
  760MOL0     C 4756   1.962   3.946   1.324 -0.2186 -0.6088  0.3198
  760MOL0     C 4757   2.103   4.022   1.325 -0.3966 -1.0310 -0.6218
  760MOL0     C 4758   2.188   3.981   1.208 -0.4590 -0.3986  0.0579
  760MOL0     N 4759   2.165   4.056   1.081 -0.2986 -0.3660 -0.0355
  760MOL0     C 4760   2.195   4.191   1.053 -0.1397  0.4284 -0.5507
  760MOL0     C 4761   2.153   4.207   0.924  0.3583 -0.1822  0.5376
  760MOL0     C 4762   2.189   4.321   0.838 -0.0891 -0.1139  0.2027
  760MOL0     C 4763   2.332   4.303   0.779  0.2032 -0.7817 -0.9466
  760MOL0     C 4764   2.350   4.171   0.696  0.1286 -0.3582 -0.1598
  760MOL0     C 4765   2.470   4.171   0.602 -0.1062  0.3093 -0.2522
  760MOL0     O 4766   2.592   4.165   0.674 -0.4692  0.8449  0.7067
  760MOL0     C 4767   2.705   4.149   0.594 -0.5933 -0.4915 -0.2028
  760MOL0     C 4768   2.719   4.119   0.456 -0.2624 -0.3370  0.7891
  760MOL0     C 4769   2.850   4.115   0.390 -0.3892 -0.3876  0.4752
  760MOL0     C 4770   2.853   4.077   0.244 -0.5655 -0.0544  0.5946
  760MOL0     C 4771   2.965   4.143   0.467  0.6112 -0.3732 -0.3708
  760MOL0     C 4772   3.093   4.158   0.410  1.2433  0.2266  0.2754
  760MOL0     O 4773   3.107   4.213   0.285 -0.6732 -0.5302  0.1992
  760MOL0     C 4774   3.232   4.243   0.234  0.3416  0.3026  0.0271
  760MOL0     C 4775   3.327   4.149   0.216  0.4492 -1.0968 -0.0395
  760MOL0     C 4776   3.456   4.187   0.176  0.5936  0.3805 -0.5560
  760MOL0     C 4777   3.480   4.325   0.161  0.2238  0.0286  0.1063
  760MOL0     O 4778   3.614   4.356   0.143 -0.3105  0.1301  0.5327
  760MOL0     C 4779   3.680   4.372   0.272  0.2892 -0.4128  0.3185
  760MOL0     C 4780   3.827   4.323   0.249  0.6547 -1.2435 -0.3941
  760MOL0     C 4781   3.895   4.329   0.391  0.5762  0.0173 -0.4350
  760MOL0     C 4782   4.039   4.284   0.358  0.4147  0.1138 -0.1553
  760MOL0     C 4783   4.064   4.140   0.338  1.0329  0.1847 -0.3487
  760MOL0     C 4784   4.216   4.110   0.339  0.5669 -0.0946  0.8282
  760MOL0     C 4785   4.242   3.960   0.324  0.6512 -0.6036  0.1967
  760MOL0     C 4786   4.360   3.930   0.228 -0.6619  0.7656  0.1652
  760MOL0    Cl 4787   4.315   3.927   0.051  0.1824 -0.0064  0.0829
  760MOL0     C 4788   3.382   4.421   0.167 -0.4140  0.2808  0.5843
  760MOL0     C 4789   3.259   4.379   0.206  0.3991 -0.7981 -0.5981
  760MOL0     O 4790   3.182   4.143   0.484  0.1583 -0.8672 -0.4841
  760MOL0     C 4791   2.942   4.172   0.606 -0.3434  0.9469  0.5629
  760MOL0     C 4792   2.823   4.175   0.666 -0.5242  0.4663  0.7527
  760MOL0     N 4793   2.084   4.094   0.880  0.7515  0.0700 -0.6701
  760MOL0     N 4794   2.096   4.004   0.976  0.3367 -0.2783  0.5066
  760MOL0     C 4795   1.475   3.996   1.908 -0.5977  0.4692  0.7182
  760MOL0     C 4796   1.338   4.025   1.906 -0.9474 -0.3268  0.3822
  760MOL0     C 4797   0.963   4.251   1.729  0.5156 -0.6291 -0.2697
  760MOL0     C 4798   0.877   4.144   1.737 -0.0801 -0.8628  0.7226
  760MOL0     C 4799   0.739   4.148   1.720 -0.5767  0.1058 -0.2816
  760MOL0     C 4800   0.680   4.270   1.661 -0.2389  0.8655 -0.5213
  760MOL0     O 4801   0.550   4.289   1.624 -0.4336  0.9228  0.3903
  760MOL0     C 4802   0.450   4.193   1.673  0.1248 -1.3347  0.7099
  760MOL0     C 4803   0.339   4.280   1.735 -0.5555  0.7532 -1.1116
  760MOL0     C 4804   0.298   4.392   1.639 -0.2592  0.0726 -0.0857
  760MOL0     C 4805   0.197   4.476   1.698  1.3658 -0.7996  0.2579
  760MOL0     C 4806   0.077   4.404   1.730 -0.0811  0.6869 -0.2988
  760MOL0     C 4807  -0.025   4.349   1.769 -0.0041  0.0195 -0.1171
  760MOL0     C 4808   0.769   4.377   1.647 -0.3362  0.3941  0.3540
  760MOL0     C 4809   0.905   4.371   1.688 -0.6584 -0.1717 -0.4740
  760MOL0     C 4810   0.984   4.501   1.687 -0.0778 -0.2528 -0.2802
  760MOL0     H 4811   1.292   4.076   1.579 -1.1396 -0.2151 -0.3563
  760MOL0     H 4812   1.523   4.025   1.573 -0.7484  1.8196 -0.0361
  760MOL0     H 4813   1.672   3.793   1.812  0.4276 -0.2220  0.7075
  760MOL0     H 4814   1.783   3.884   1.920 -3.1010 -2.9975  1.1949
  760MOL0     H 4815   1.923   3.940   1.731 -0.6628  0.2531  0.6351
  760MOL0     H 4816   1.913   3.756   1.786  1.7624 -0.5589 -1.3027
  760MOL0     H 4817   1.784   3.724   1.583  4.4680 -2.7058 -0.0026
  760MOL0     H 4818   1.771   3.890   1.544 -0.2310 -0.9089 -1.1132
  760MOL0     H 4819   2.047   3.869   1.558 -0.2053 -1.3805  0.8930
  760MOL0     H 4820   2.012   3.695   1.553  1.9314 -0.0642 -2.2162
  760MOL0     H 4821   1.888   3.749   1.336 -0.7110  0.1802  1.7907
  760MOL0     H 4822   2.060   3.753   1.334 -1.3544 -2.5641  0.2374
  760MOL0     H 4823   1.913   3.959   1.227 -1.4833 -1.2026  0.8513
  760MOL0     H 4824   1.900   4.000   1.396 -2.4932 -0.1935 -1.8062
  760MOL0     H 4825   2.149   4.008   1.423 -1.6976 -0.4711  0.1019
  760MOL0     H 4826   2.093   4.130   1.315 -4.5140 -0.9221  2.0697
  760MOL0     H 4827   2.291   4.002   1.240 -0.4686 -1.0153  0.5068
  760MOL0     H 4828   2.185   3.873   1.191 -0.4495 -0.7672  2.0874
  760MOL0     H 4829   2.265   4.256   1.104 -0.8167  0.1323  0.7970
  760MOL0     H 4830   2.173   4.413   0.896  0.7297 -0.6218  1.2501
  760MOL0     H 4831   2.112   4.322   0.760 -1.7357  1.5018  1.7182
  760MOL0     H 4832   2.344   4.388   0.712  1.2327 -0.4475 -0.3531
  760MOL0     H 4833   2.415   4.298   0.850  1.1233  2.5730 -1.6428
  760MOL0     H 4834   2.378   4.098   0.772  3.1118 -0.9474 -1.6749
  760MOL0     H 4835   2.259   4.147   0.639 -0.4692 -0.7020  0.9133
  760MOL0     H 4836   2.464   4.084   0.536 -1.3279  0.5141 -0.4477
  760MOL0     H 4837   2.470   4.250   0.527 -1.9858 -2.6831 -3.7113
  760MOL0     H 4838   2.628   4.110   0.397  0.9311 -0.2869 -1.1436
  760MOL0     H 4839   2.856   4.163   0.177  1.9549  1.5894  2.6518
  760MOL0     H 4840   2.766   4.012   0.229 -0.8564 -0.0756  2.1699
  760MOL0     H 4841   2.946   4.026   0.219 -0.0820  1.7497 -1.5734
  760MOL0     H 4842   3.308   4.049   0.253 -1.5161 -0.6101  0.3530
  760MOL0     H 4843   3.532   4.111   0.166  0.1591 -0.0419 -0.6531
  760MOL0     H 4844   3.689   4.480   0.283  4.4922 -0.6272  0.5576
  760MOL0     H 4845   3.630   4.321   0.355  0.4053  0.2260  0.7848
  760MOL0     H 4846   3.826   4.225   0.200 -1.9963 -0.3998 -2.2376
  760MOL0     H 4847   3.879   4.391   0.181 -1.2390  1.5203  0.7352
  760MOL0     H 4848   3.849   4.259   0.461  0.1786  1.9937  1.3772
  760MOL0     H 4849   3.889   4.428   0.437 -0.2454 -0.4361  0.4728
  760MOL0     H 4850   4.104   4.321   0.437  0.2715  1.9422 -0.8474
  760MOL0     H 4851   4.062   4.335   0.264 -3.5195  2.0865 -0.2752
  760MOL0     H 4852   4.024   4.078   0.419  2.8408  1.1217  1.3522
  760MOL0     H 4853   4.025   4.108   0.241  1.2132 -3.0356  0.5046
  760MOL0     H 4854   4.270   4.146   0.428  2.6698 -0.6388 -0.1623
  760MOL0     H 4855   4.267   4.158   0.255 -0.0067  0.7386  0.9421
  760MOL0     H 4856   4.158   3.896   0.297 -0.1915  0.6101 -0.1725
  760MOL0     H 4857   4.275   3.923   0.422  2.9290  0.8099  0.0324
  760MOL0     H 4858   4.398   3.831   0.257 -3.2183 -1.0433 -2.1779
  760MOL0     H 4859   4.450   3.991   0.237  2.2331 -2.9649 -0.7874
  760MOL0     H 4860   3.397   4.527   0.147  1.5027  0.0387  0.5181
  760MOL0     H 4861   3.170   4.438   0.223  0.8596 -0.4267  0.5985
  760MOL0     H 4862   3.023   4.205   0.670  0.4593 -0.7382  0.4969
  760MOL0     H 4863   2.818   4.227   0.762  0.5088  1.0217  0.5149
  760MOL0     H 4864   1.528   3.953   1.993  1.3195 -0.1992 -0.7619
  760MOL0     H 4865   1.300   4.013   2.007  1.2041  0.5026  1.3595
  760MOL0     H 4866   0.897   4.044   1.775 -0.3945 -1.3342 -0.3229
  760MOL0     H 4867   0.690   4.054   1.739 -0.3737  0.3958  1.9177
  760MOL0     H 4868   0.405   4.130   1.596 -0.1490 -1.0434  0.6302
  760MOL0     H 4869   0.493   4.124   1.747  0.4924 -1.0376  0.7795
  760MOL0     H 4870   0.372   4.317   1.832 -2.2958  2.0509 -0.9651
  760MOL0     H 4871   0.262   4.204   1.754  2.3719 -1.7571  1.9030
  760MOL0     H 4872   0.380   4.461   1.615 -0.4270 -0.3581 -2.0619
  760MOL0     H 4873   0.265   4.356   1.541 -2.0588  1.1861  0.0630
  760MOL0     H 4874   0.173   4.561   1.633  4.7926 -0.8531 -1.3009
  760MOL0     H 4875   0.235   4.530   1.785 -1.5080  0.8023  0.6583
  760MOL0     H 4876  -0.106   4.303   1.822 -0.6981  0.1198 -1.0625
  760MOL0     H 4877   0.725   4.466   1.602  0.4160  0.1188 -0.9765
  760MOL0     H 4878   0.921   4.589   1.674  1.3249  0.9948  0.9980
  760MOL0     H 4879   1.045   4.520   1.776 -0.1605  2.0568 -0.6645
  760MOL0     H 4880   1.059   4.499   1.607 -0.6904  0.8647 -0.9080
  761MOL0     O 4881   3.972   6.469   4.878 -0.5335 -0.4628  0.1474
  761MOL0     C 4882   3.962   6.378   4.792  0.3072 -1.1724  0.5778
  761MOL0     O 4883   3.855   6.376   4.704 -0.5210  0.5645  0.5797
  761MOL0     C 4884   3.759   6.472   4.708  0.3920  0.4453 -0.0096
  761MOL0     C 4885   3.737   6.560   4.604 -0.0248  0.6338  0.2381
  761MOL0     C 4886   3.637   6.659   4.617  0.5890 -0.0039  1.0224
  761MOL0     C 4887   3.566   6.679   4.729  0.2100  0.0520  0.2473
  761MOL0     O 4888   3.475   6.786   4.712  0.7215 -0.1586 -0.1063
  761MOL0     C 4889   3.389   6.813   4.825  0.2221  0.3523 -0.1209
  761MOL0     C 4890   3.294   6.921   4.790  0.5343  0.9693  0.0872
  761MOL0     C 4891   3.173   6.872   4.708 -0.0366 -0.0533  0.9071
  761MOL0     C 4892   3.044   6.865   4.801 -0.4044 -0.2963  0.3690
  761MOL0     C 4893   2.919   6.838   4.711 -0.0489 -0.6094 -0.7401
  761MOL0     C 4894   2.883   6.967   4.635 -0.0137  0.0269 -0.1625
  761MOL0     C 4895   2.747   6.948   4.576 -0.5141  1.0753 -0.1851
  761MOL0     C 4896   2.640   6.957   4.678 -0.9289  0.1311 -0.2663
  761MOL0     N 4897   2.508   6.951   4.616 -0.3552 -0.3366  0.0121
  761MOL0     C 4898   2.436   6.838   4.573 -0.4748 -0.1677 -0.2032
  761MOL0     C 4899   2.333   6.893   4.509 -0.0366 -0.1078  0.1920
  761MOL0     C 4900   2.230   6.797   4.439  0.1195 -0.5762  0.8388
  761MOL0     C 4901   2.209   6.824   4.295  0.0530  0.3159 -0.3212
  761MOL0     C 4902   2.272   6.717   4.201 -0.5988 -0.5291 -0.2305
  761MOL0     C 4903   2.422   6.683   4.230 -0.1133 -0.2134 -0.6812
  761MOL0     O 4904   2.482   6.812   4.222 -0.7024 -0.2184  0.3713
  761MOL0     C 4905   2.623   6.810   4.231 -0.8894  0.2574  0.3739
  761MOL0     C 4906   2.689   6.926   4.192  0.8297  1.2216  0.0224
  761MOL0     C 4907   2.823   6.947   4.212 -0.7680 -0.7820 -0.0669
  761MOL0     C 4908   2.879   7.075   4.170 -0.4041  0.1031 -0.2739
  761MOL0     C 4909   2.905   6.845   4.263 -0.0114  0.3934 -0.2075
  761MOL0     C 4910   3.057   6.855   4.281 -0.9762 -0.8133  0.1517
  761MOL0     O 4911   3.105   6.762   4.355  0.0876  0.5446  0.6337
  761MOL0     C 4912   3.202   6.675   4.313  1.2809 -1.4370  0.1322
  761MOL0     C 4913   3.159   6.569   4.233  0.0405  0.2206 -0.4854
  761MOL0     C 4914   3.260   6.472   4.198 -0.0069  0.3239  0.4933
  761MOL0     C 4915   3.390   6.474   4.243 -0.5083 -0.8580 -0.4464
  761MOL0     O 4916   3.475   6.378   4.199 -0.3075 -0.5616 -0.3004
  761MOL0     C 4917   3.574   6.331   4.293  1.0496  0.1179  0.4077
  761MOL0     C 4918   3.510   6.266   4.421  0.0308 -0.3610 -0.0045
  761MOL0     C 4919   3.617   6.187   4.505  1.4610  0.6429 -0.1172
  761MOL0     C 4920   3.569   6.125   4.643  0.2115 -0.1988 -0.1635
  761MOL0     C 4921   3.676   6.049   4.718 -0.1075  0.3479  0.1531
  761MOL0     C 4922   3.700   5.904   4.675  0.0852 -0.4511  0.5818
  761MOL0     C 4923   3.821   5.846   4.750  0.1795  0.1295 -0.9466
  761MOL0     C 4924   3.863   5.720   4.684  0.1301  1.0024 -0.3909
  761MOL0    Cl 4925   3.980   5.731   4.559 -0.2697  0.1816  0.3370
  761MOL0     C 4926   3.424   6.586   4.326  0.5346  0.2935 -0.3282
  761MOL0     C 4927   3.330   6.688   4.356 -0.2558  0.3754 -0.7335
  761MOL0     O 4928   3.122   6.923   4.199 -0.0321  0.3892 -0.1653
  761MOL0     C 4929   2.844   6.721   4.294  0.2010 -0.0646  0.3189
  761MOL0     C 4930   2.709   6.698   4.284  0.3144 -0.5895  0.2166
  761MOL0     N 4931   2.343   7.032   4.508 -0.2659 -0.0076  0.0383
  761MOL0     N 4932   2.451   7.061   4.573 -0.5036  0.6000 -0.1493
  761MOL0     C 4933   3.577   6.581   4.827 -0.7945 -0.4119 -0.0879
  761MOL0     C 4934   3.671   6.477   4.816 -0.0852 -0.0664  1.1262
  761MOL0     C 4935   4.064   6.273   4.780 -0.1759 -0.4064 -0.1903
  761MOL0     C 4936   4.038   6.166   4.689 -0.0676 -0.0069 -0.2338
  761MOL0     C 4937   4.133   6.073   4.660  0.0759 -0.4496 -0.3774
  761MOL0     C 4938   4.251   6.063   4.727  0.0806 -0.0459  0.1936
  761MOL0     O 4939   4.352   5.963   4.709  0.0577  0.4390 -0.7328
  761MOL0     C 4940   4.343   5.868   4.599  1.0670 -0.2126  0.2690
  761MOL0     C 4941   4.368   5.936   4.466  0.4026  0.2386  0.2382
  761MOL0     C 4942   4.309   5.840   4.354  0.0780 -0.1840 -0.2314
  761MOL0     C 4943   4.364   5.901   4.225  0.3970  0.2587 -0.1451
  761MOL0     C 4944   4.310   5.829   4.109  0.6849 -0.3865 -0.0467
  761MOL0     C 4945   4.261   5.776   4.009 -0.0674  0.8977 -1.5454
  761MOL0     C 4946   4.276   6.166   4.816  0.4580 -0.1167 -0.2970
  761MOL0     C 4947   4.188   6.267   4.847  0.8151 -0.1536  0.1482
  761MOL0     C 4948   4.227   6.360   4.959  0.2932 -0.2255 -0.0625
  761MOL0     H 4949   3.805   6.545   4.521 -0.6370 -3.5986  0.2951
  761MOL0     H 4950   3.619   6.724   4.531  2.6950 -0.4788  0.1436
  761MOL0     H 4951   3.452   6.841   4.911 -1.7283  0.1571  1.4349
  761MOL0     H 4952   3.339   6.717   4.839 -0.1972  0.6802  0.6892
  761MOL0     H 4953   3.263   6.958   4.888 -1.1294  0.4812 -0.2320
  761MOL0     H 4954   3.346   7.009   4.750  0.8644  0.8920  0.3365
  761MOL0     H 4955   3.158   6.938   4.622 -0.2284 -1.0307  0.1762
  761MOL0     H 4956   3.180   6.775   4.658 -0.6359  0.3498  0.0117
  761MOL0     H 4957   3.058   6.790   4.881 -0.8763  0.2033  0.9276
  761MOL0     H 4958   3.026   6.961   4.850  0.3424 -0.0267  0.1286
  761MOL0     H 4959   2.848   6.794   4.782  0.1735 -0.8930 -0.6914
  761MOL0     H 4960   2.939   6.771   4.627 -1.8624 -1.5604 -0.4557
  761MOL0     H 4961   2.885   7.055   4.699 -1.4545 -0.3734  0.4767
  761MOL0     H 4962   2.971   6.984   4.571  1.5100 -1.7566  1.3493
  761MOL0     H 4963   2.741   6.858   4.514  3.2982  0.2816  0.3930
  761MOL0     H 4964   2.735   7.037   4.513 -2.2402  2.4188  1.8668
  761MOL0     H 4965   2.638   6.874   4.750 -1.1299 -0.4322 -0.9126
  761MOL0     H 4966   2.632   7.050   4.735 -2.0614  0.8592 -1.5470
  761MOL0     H 4967   2.460   6.734   4.593 -1.3798 -0.4324 -0.4644
  761MOL0     H 4968   2.134   6.793   4.491  0.7747  2.8219  2.6187
  761MOL0     H 4969   2.270   6.696   4.442 -0.7893 -1.0517 -1.4502
  761MOL0     H 4970   2.103   6.834   4.269  0.2118  1.0394 -0.7389
  761MOL0     H 4971   2.247   6.924   4.271  2.0045  0.6247  3.3300
  761MOL0     H 4972   2.224   6.620   4.220 -3.1376  1.0058  1.8262
  761MOL0     H 4973   2.270   6.735   4.093  1.3658 -0.7177 -0.3484
  761MOL0     H 4974   2.438   6.630   4.325 -2.6539 -0.1601 -0.1599
  761MOL0     H 4975   2.455   6.624   4.145  0.7610 -0.5960 -0.0927
  761MOL0     H 4976   2.624   6.995   4.139  0.2296  0.4142 -0.3166
  761MOL0     H 4977   2.794   7.143   4.156 -1.1936 -0.3303  1.9415
  761MOL0     H 4978   2.933   7.067   4.076 -2.4610  1.4164 -1.6537
  761MOL0     H 4979   2.936   7.115   4.255 -1.0237 -0.2797  0.3362
  761MOL0     H 4980   3.060   6.549   4.194  0.1193  3.1012 -2.4854
  761MOL0     H 4981   3.237   6.403   4.118 -1.0032 -1.5374  2.2882
  761MOL0     H 4982   3.618   6.247   4.239 -1.4564  1.2692 -3.9194
  761MOL0     H 4983   3.647   6.407   4.323  0.2790  0.7285  0.7661
  761MOL0     H 4984   3.478   6.342   4.493  0.8792  0.0857 -0.0841
  761MOL0     H 4985   3.434   6.190   4.402  1.0373 -1.5558  0.6189
  761MOL0     H 4986   3.701   6.256   4.519  1.8008  0.5974 -1.7104
  761MOL0     H 4987   3.653   6.110   4.437  2.9793 -0.1970  1.5442
  761MOL0     H 4988   3.480   6.063   4.629 -1.0369  1.3029  0.7980
  761MOL0     H 4989   3.530   6.207   4.704 -0.3791  0.4519 -1.3993
  761MOL0     H 4990   3.765   6.112   4.723 -0.6427  1.1396 -0.0456
  761MOL0     H 4991   3.645   6.059   4.823  1.1718  2.1036  0.4157
  761MOL0     H 4992   3.713   5.905   4.567  0.8228 -0.4435  0.6641
  761MOL0     H 4993   3.611   5.842   4.692  1.4084 -2.2469  1.2200
  761MOL0     H 4994   3.788   5.814   4.849  1.3031 -1.4618 -1.0538
  761MOL0     H 4995   3.912   5.905   4.754 -0.7253  1.5264  0.4529
  761MOL0     H 4996   3.779   5.666   4.639  0.9019  0.3669 -1.0904
  761MOL0     H 4997   3.909   5.660   4.763 -0.4794  1.0521  0.0075
  761MOL0     H 4998   3.523   6.600   4.368 -0.3453  1.1777  1.5535
  761MOL0     H 4999   3.359   6.764   4.428 -0.3442 -1.2479  1.1164
  761MOL0     H 5000   2.901   6.637   4.329  2.3757  1.9497  1.8968
  761MOL0     H 5001   2.657   6.617   4.335 -0.3294  1.7664  3.6552
  761MOL0     H 5002   3.506   6.579   4.909 -0.7786 -3.6417 -0.0377
  761MOL0     H 5003   3.671   6.404   4.897  0.9184  0.1747  1.3565
  761MOL0     H 5004   3.942   6.153   4.639  0.8318 -3.1189 -1.3748
  761MOL0     H 5005   4.100   5.994   4.593  1.7428 -1.9056  0.4389
  761MOL0     H 5006   4.412   5.783   4.607  0.4674 -0.7482 -0.1743
  761MOL0     H 5007   4.242   5.825   4.599  0.1857  1.7898  0.3538
  761MOL0     H 5008   4.476   5.952   4.452  0.1660  0.3741 -1.7629
  761MOL0     H 5009   4.307   6.025   4.452 -1.6020 -1.2016 -0.6787
  761MOL0     H 5010   4.336   5.734   4.357 -0.3383 -0.2747  1.3823
  761MOL0     H 5011   4.200   5.843   4.360  0.1391  1.5195  1.1772
  761MOL0     H 5012   4.473   5.895   4.223  0.5009  0.0876  2.5671
  761MOL0     H 5013   4.333   6.005   4.215  1.1305  0.3637 -1.5738
  761MOL0     H 5014   4.215   5.738   3.920 -0.7415 -0.9950 -0.4404
  761MOL0     H 5015   4.373   6.165   4.864 -0.8898  4.3156  3.1825
  761MOL0     H 5016   4.260   6.456   4.916  0.6598 -0.2723  0.1132
  761MOL0     H 5017   4.150   6.381   5.033  1.9745 -1.5382  2.1837
  761MOL0     H 5018   4.313   6.319   5.013  1.5979 -0.5455 -2.2452
  762MOL0     O 5019   3.558   4.124   7.501 -0.1966 -0.7632 -0.1629
  762MOL0     C 5020   3.528   4.196   7.593 -0.0275  0.2339  0.6874
  762MOL0     O 5021   3.608   4.272   7.662  0.4137  0.3198  0.0857
  762MOL0     C 5022   3.742   4.276   7.640  0.2981 -0.1992  0.2254
  762MOL0     C 5023   3.817   4.178   7.710  0.4557  0.5585 -0.5069
  762MOL0     C 5024   3.956   4.192   7.699  0.1479 -0.3599  0.6436
  762MOL0     C 5025   4.016   4.285   7.616 -0.5807 -0.7885 -0.8477
  762MOL0     O 5026   4.147   4.263   7.591 -0.1995 -0.8057 -0.2079
  762MOL0     C 5027   4.227   4.380   7.577  0.0207  0.3821  0.6290
  762MOL0     C 5028   4.378   4.336   7.579  0.0154 -0.5012  0.2411
  762MOL0     C 5029   4.470   4.444   7.525  0.3949 -0.6393 -0.3897
  762MOL0     C 5030   4.611   4.416   7.569 -0.3796  0.7901 -0.0389
  762MOL0     C 5031   4.715   4.522   7.522 -0.0871  0.0520 -0.5102
  762MOL0     C 5032   4.846   4.488   7.579 -0.3704 -0.2693 -0.5985
  762MOL0     C 5033   4.956   4.592   7.536  0.7895  0.1259 -0.4174
  762MOL0     C 5034   4.932   4.742   7.581  0.0820 -0.4546  0.7465
  762MOL0     N 5035   5.052   4.829   7.574 -0.1168 -0.3809  0.7033
  762MOL0     C 5036   5.161   4.807   7.493 -0.0790  0.6079  0.2164
  762MOL0     C 5037   5.251   4.904   7.523 -0.9283  0.4210  0.4311
  762MOL0     C 5038   5.372   4.944   7.442  0.3159 -0.1160 -0.0149
  762MOL0     C 5039   5.484   4.847   7.483 -0.7047  0.8176  0.2856
  762MOL0     C 5040   5.596   4.861   7.389  0.1121  0.0953  0.5045
  762MOL0     C 5041   5.731   4.808   7.435 -0.3655 -1.4805 -0.1914
  762MOL0     O 5042   5.823   4.811   7.312  0.3681 -0.5402 -1.1338
  762MOL0     C 5043   5.941   4.765   7.330 -0.6452 -0.6106 -0.6247
  762MOL0     C 5044   6.004   4.762   7.211  0.0270 -0.8683 -0.1101
  762MOL0     C 5045   6.131   4.703   7.207 -0.8266  0.3840 -0.6712
  762MOL0     C 5046   6.209   4.708   7.076 -0.4417 -0.0752 -0.0295
  762MOL0     C 5047   6.190   4.651   7.320  0.0883  0.5826 -0.4603
  762MOL0     C 5048   6.324   4.588   7.326 -0.2116 -0.6760  0.0097
  762MOL0     O 5049   6.404   4.606   7.435 -0.5759  0.1223  0.1450
  762MOL0     C 5050   6.524   4.533   7.459  0.1774  0.0070  0.6110
  762MOL0     C 5051   6.610   4.520   7.354 -0.9462 -0.0589  0.1083
  762MOL0     C 5052   6.729   4.451   7.366  0.5375 -0.1456 -1.0170
  762MOL0     C 5053   6.764   4.397   7.496  0.5722  0.1800  0.0106
  762MOL0     O 5054   6.877   4.326   7.530  0.3133 -0.1834  0.0093
  762MOL0     C 5055   6.981   4.321   7.436 -1.3106 -0.1423 -0.5843
  762MOL0     C 5056   7.100   4.229   7.491  0.7342  0.3966 -0.1351
  762MOL0     C 5057   7.076   4.078   7.502  0.7104 -0.3767 -0.2164
  762MOL0     C 5058   7.198   4.014   7.567 -0.9975 -0.0435 -0.4491
  762MOL0     C 5059   7.292   3.930   7.477  0.2328  0.4449 -0.1008
  762MOL0     C 5060   7.230   3.789   7.468 -0.0446  0.3492 -0.2955
  762MOL0     C 5061   7.318   3.679   7.407 -0.6153  0.3331 -0.4950
  762MOL0     C 5062   7.268   3.653   7.265  0.0215  0.6328  0.7910
  762MOL0    Cl 5063   7.332   3.794   7.176 -0.1716 -0.3306 -0.3204
  762MOL0     C 5064   6.670   4.414   7.603  0.2127  0.2141  0.4505
  762MOL0     C 5065   6.548   4.480   7.582 -0.4658  0.6336  0.2035
  762MOL0     O 5066   6.345   4.510   7.226  0.7754  0.4676 -0.5128
  762MOL0     C 5067   6.130   4.666   7.443 -0.7974  0.4669 -0.4293
  762MOL0     C 5068   6.002   4.723   7.453  0.6858 -0.0125  0.9402
  762MOL0     N 5069   5.187   4.975   7.622 -0.1433 -0.0377 -0.3547
  762MOL0     N 5070   5.075   4.927   7.657  0.1379  0.3870 -1.0787
  762MOL0     C 5071   3.938   4.377   7.545  0.2023 -0.3715 -0.8548
  762MOL0     C 5072   3.799   4.368   7.553  0.5123 -0.2843 -0.4981
  762MOL0     C 5073   3.377   4.192   7.624 -0.8380 -0.2163 -0.1909
  762MOL0     C 5074   3.293   4.164   7.518  0.2146  0.6392 -0.4411
  762MOL0     C 5075   3.162   4.161   7.531  0.3895 -0.1081 -0.2827
  762MOL0     C 5076   3.097   4.184   7.656  0.1904  0.1110 -1.0528
  762MOL0     O 5077   2.965   4.174   7.685  0.2849 -0.6856  0.4839
  762MOL0     C 5078   2.884   4.216   7.577 -0.6017 -0.2216 -0.2912
  762MOL0     C 5079   2.734   4.189   7.594  0.3082 -0.0842  0.2508
  762MOL0     C 5080   2.652   4.259   7.484  0.7901  0.7099  0.3974
  762MOL0     C 5081   2.504   4.239   7.520  0.7763 -0.3521  0.7073
  762MOL0     C 5082   2.430   4.360   7.529 -0.4187 -0.7380 -1.0453
  762MOL0     C 5083   2.375   4.472   7.520  0.3107  0.4243 -0.6258
  762MOL0     C 5084   3.181   4.221   7.761  0.4353  0.0199  0.0384
  762MOL0     C 5085   3.325   4.234   7.753  0.7237 -0.5576  0.2748
  762MOL0     C 5086   3.406   4.242   7.881  0.1907  0.0466  0.4460
  762MOL0     H 5087   3.760   4.111   7.774  1.2043  0.9191  0.5718
  762MOL0     H 5088   4.014   4.114   7.748  1.6212  0.6920  0.6321
  762MOL0     H 5089   4.199   4.454   7.652 -0.1362  0.5460  0.4102
  762MOL0     H 5090   4.199   4.424   7.481  0.6325  1.2180  0.8207
  762MOL0     H 5091   4.405   4.295   7.678  1.7623  0.1935  0.0858
  762MOL0     H 5092   4.378   4.248   7.514 -3.2191 -0.0355 -0.5423
  762MOL0     H 5093   4.481   4.447   7.416 -1.5445 -2.1599 -0.6859
  762MOL0     H 5094   4.443   4.543   7.563  2.1326  1.4574 -4.1130
  762MOL0     H 5095   4.616   4.395   7.676  2.8716 -0.7114 -0.3804
  762MOL0     H 5096   4.645   4.324   7.521 -0.1647  0.7620  0.1685
  762MOL0     H 5097   4.684   4.625   7.544 -1.7712 -0.3856 -0.7110
  762MOL0     H 5098   4.721   4.509   7.413 -1.4347 -2.5221 -0.3393
  762MOL0     H 5099   4.849   4.478   7.688  1.6249 -1.2534 -0.6816
  762MOL0     H 5100   4.884   4.396   7.532 -1.1809 -0.9599  0.0798
  762MOL0     H 5101   4.968   4.590   7.427  0.2325 -0.4639 -0.4746
  762MOL0     H 5102   5.053   4.558   7.575  0.8260  0.5175 -0.1642
  762MOL0     H 5103   4.855   4.784   7.516  0.9441  0.1235  0.0748
  762MOL0     H 5104   4.888   4.749   7.681 -0.7991 -3.6085  0.6915
  762MOL0     H 5105   5.178   4.736   7.414 -1.7472 -0.8071  1.0673
  762MOL0     H 5106   5.407   5.047   7.452 -2.0529  0.8040 -0.5090
  762MOL0     H 5107   5.344   4.940   7.337  1.0241 -2.7277 -0.1573
  762MOL0     H 5108   5.517   4.862   7.587 -1.9334  1.0790  0.6531
  762MOL0     H 5109   5.444   4.745   7.473 -0.9415  1.0008 -0.6672
  762MOL0     H 5110   5.566   4.819   7.292 -2.1358 -1.0911  1.6638
  762MOL0     H 5111   5.609   4.969   7.374 -1.5553  0.3851  1.0233
  762MOL0     H 5112   5.764   4.877   7.512 -0.8519 -0.9291 -0.4705
  762MOL0     H 5113   5.723   4.706   7.474 -0.1553 -0.8312  1.6377
  762MOL0     H 5114   5.941   4.793   7.128 -0.0684 -1.3752 -0.2272
  762MOL0     H 5115   6.142   4.753   7.002  0.4217 -1.3233 -1.6066
  762MOL0     H 5116   6.232   4.612   7.030  2.1616  0.2349  0.4881
  762MOL0     H 5117   6.295   4.775   7.082 -1.3167  1.2170 -1.2476
  762MOL0     H 5118   6.583   4.552   7.254 -1.0399  0.0845  0.1789
  762MOL0     H 5119   6.795   4.437   7.281  1.2834 -1.6345 -0.2340
  762MOL0     H 5120   6.949   4.280   7.340 -0.3806  0.4306 -1.1468
  762MOL0     H 5121   7.021   4.421   7.417 -0.3286 -0.1781  1.1181
  762MOL0     H 5122   7.192   4.243   7.432  0.1233 -0.3993 -1.3127
  762MOL0     H 5123   7.118   4.260   7.595 -2.6013 -0.8675  0.9235
  762MOL0     H 5124   7.053   4.033   7.405 -1.3227  0.1199 -0.0019
  762MOL0     H 5125   6.994   4.053   7.570  0.2037 -0.4309 -0.8322
  762MOL0     H 5126   7.162   3.969   7.660 -0.3201  2.0522  0.8907
  762MOL0     H 5127   7.269   4.089   7.604 -1.3486 -0.1641  0.4862
  762MOL0     H 5128   7.313   3.984   7.385  2.8248  1.6071  1.0753
  762MOL0     H 5129   7.388   3.922   7.529  1.7012 -1.0356 -2.8436
  762MOL0     H 5130   7.130   3.789   7.423 -0.5996  0.0698  0.8812
  762MOL0     H 5131   7.206   3.754   7.569 -1.6304  1.4774 -0.2245
  762MOL0     H 5132   7.311   3.590   7.470  1.0850  0.3449 -0.2361
  762MOL0     H 5133   7.425   3.697   7.420 -0.8220  1.9200 -0.8263
  762MOL0     H 5134   7.162   3.629   7.258 -0.1358  1.4515  0.1821
  762MOL0     H 5135   7.324   3.566   7.227 -0.9364 -0.7496  2.4475
  762MOL0     H 5136   6.700   4.372   7.698  0.3336 -2.2492 -0.6046
  762MOL0     H 5137   6.477   4.503   7.661  1.1235  0.8035  1.6689
  762MOL0     H 5138   6.166   4.626   7.538 -5.3888  0.1836  1.4293
  762MOL0     H 5139   5.943   4.725   7.544 -3.1825  0.0685 -1.3213
  762MOL0     H 5140   3.979   4.446   7.472 -1.0895 -0.0945 -1.3564
  762MOL0     H 5141   3.731   4.424   7.490 -1.3346 -1.1012  0.6574
  762MOL0     H 5142   3.334   4.120   7.428 -1.4263 -0.7361 -0.5597
  762MOL0     H 5143   3.097   4.119   7.455  1.8988 -3.0686 -0.0697
  762MOL0     H 5144   2.890   4.324   7.564  1.1532 -0.2303  0.2769
  762MOL0     H 5145   2.917   4.162   7.487  1.0979 -0.9179  0.7083
  762MOL0     H 5146   2.704   4.234   7.689 -2.0184  0.6135 -0.7310
  762MOL0     H 5147   2.719   4.081   7.605  1.6795 -0.1370  2.0735
  762MOL0     H 5148   2.685   4.364   7.491 -0.9428  1.3339 -0.3653
  762MOL0     H 5149   2.676   4.220   7.384 -0.3496 -2.7625  1.3436
  762MOL0     H 5150   2.485   4.185   7.612  0.0756  1.4217  1.6607
  762MOL0     H 5151   2.460   4.179   7.441 -0.4420 -0.9228  1.7913
  762MOL0     H 5152   2.333   4.570   7.520 -0.9863 -0.0563  1.3941
  762MOL0     H 5153   3.123   4.236   7.852  0.6560  1.5679 -0.0461
  762MOL0     H 5154   3.455   4.145   7.890 -1.6660 -0.9814  0.0812
  762MOL0     H 5155   3.484   4.319   7.880 -0.4252  0.7565  2.1477
  762MOL0     H 5156   3.349   4.261   7.973  0.1696  0.7672  0.2923
  763MOL0     O 5157   9.904   6.360   4.396  0.1128  0.4522 -0.4521
  763MOL0     C 5158   9.859   6.367   4.279  0.7419 -0.6475 -0.6744
  763MOL0     O 5159   9.929   6.353   4.165  0.2039 -0.3865  0.0651
  763MOL0     C 5160  10.059   6.308   4.171  0.0419  0.4963 -0.7612
  763MOL0     C 5161  10.093   6.171   4.209 -0.2395 -0.6605 -0.5559
  763MOL0     C 5162  10.219   6.123   4.200  0.0995 -0.3582 -0.1310
  763MOL0     C 5163  10.318   6.206   4.160  0.0899 -0.0807  0.1772
  763MOL0     O 5164  10.443   6.145   4.151  0.1788 -0.5481  0.9454
  763MOL0     C 5165  10.537   6.219   4.233 -0.6410  0.2556 -0.5462
  763MOL0     C 5166  10.645   6.112   4.267 -0.0188 -0.8932  1.1586
  763MOL0     C 5167  10.728   6.077   4.149  0.3348 -0.5790  0.4584
  763MOL0     C 5168  10.833   5.970   4.185  0.7902 -0.4438  0.2400
  763MOL0     C 5169  10.926   5.946   4.065 -0.0771 -0.6546  0.4685
  763MOL0     C 5170  11.043   6.045   4.075  0.5835 -0.1225  0.0591
  763MOL0     C 5171  11.155   6.027   3.971 -0.4614 -0.0410  0.2211
  763MOL0     C 5172  11.099   6.058   3.826 -0.7933  0.4369  0.0679
  763MOL0     N 5173  11.204   6.061   3.727 -0.0974  0.4993  0.3548
  763MOL0     C 5174  11.311   6.148   3.720 -0.2603 -0.4949  0.7563
  763MOL0     C 5175  11.390   6.100   3.623 -0.2108  0.2184  0.2080
  763MOL0     C 5176  11.521   6.160   3.569 -0.5059 -0.3395 -0.8773
  763MOL0     C 5177  11.520   6.200   3.425  1.2443 -0.0924 -0.3473
  763MOL0     C 5178  11.662   6.242   3.367  0.1043 -0.5123 -0.3906
  763MOL0     C 5179  11.668   6.177   3.216  0.0381 -0.0436 -0.2709
  763MOL0     O 5180  11.797   6.218   3.163  0.2211 -0.2636 -0.1726
  763MOL0     C 5181  11.831   6.181   3.038  0.3116  0.9169 -0.4925
  763MOL0     C 5182  11.962   6.192   3.008 -1.1497  0.5731 -0.0909
  763MOL0     C 5183  12.019   6.149   2.895 -0.0123 -0.2300  0.8344
  763MOL0     C 5184  12.162   6.176   2.873  0.6062 -0.2283  0.3934
  763MOL0     C 5185  11.938   6.077   2.799 -0.7021  0.3976 -0.5341
  763MOL0     C 5186  11.985   6.019   2.666  0.2306 -0.1442  0.1656
  763MOL0     O 5187  11.885   5.956   2.593  0.3208  0.0781 -0.0739
  763MOL0     C 5188  11.909   5.898   2.470  0.6659 -0.1463  0.1469
  763MOL0     C 5189  11.974   5.962   2.367  0.4071  0.5168  0.8037
  763MOL0     C 5190  11.984   5.912   2.236 -0.2470 -0.1017 -0.4410
  763MOL0     C 5191  11.936   5.783   2.213  0.6336  0.1001  0.1329
  763MOL0     O 5192  11.953   5.729   2.087  0.7446 -0.3597 -0.0405
  763MOL0     C 5193  11.892   5.601   2.053  0.1522  0.3471 -0.1370
  763MOL0     C 5194  11.916   5.566   1.906 -0.5349  0.9227 -0.1583
  763MOL0     C 5195  11.848   5.650   1.804 -1.2486 -0.2535 -0.0381
  763MOL0     C 5196  11.857   5.593   1.664 -0.1339  0.0107  0.3975
  763MOL0     C 5197  11.768   5.677   1.567  0.7022  0.7305  0.1168
  763MOL0     C 5198  11.748   5.595   1.433  0.8192  0.2138 -0.1989
  763MOL0     C 5199  11.656   5.655   1.317 -0.6941  0.4142 -0.4918
  763MOL0     C 5200  11.511   5.621   1.339  0.6022  1.2844  0.1162
  763MOL0    Cl 5201  11.403   5.689   1.216 -0.0271 -0.2160  0.1535
  763MOL0     C 5202  11.877   5.709   2.322 -0.1973 -0.1561 -0.0015
  763MOL0     C 5203  11.861   5.771   2.443  0.9296 -0.0424 -0.6060
  763MOL0     O 5204  12.099   6.039   2.622  0.0273 -0.3571 -0.2160
  763MOL0     C 5205  11.806   6.052   2.839 -0.2983 -0.2748  0.4847
  763MOL0     C 5206  11.746   6.111   2.947  0.3606 -0.4496 -0.8121
  763MOL0     N 5207  11.327   5.984   3.573  0.1482 -0.0168  0.5210
  763MOL0     N 5208  11.218   5.960   3.635  0.5955  0.0231  0.1192
  763MOL0     C 5209  10.295   6.346   4.136  0.9102 -0.3834  0.7543
  763MOL0     C 5210  10.166   6.399   4.151  0.7177  0.5559 -0.4586
  763MOL0     C 5211   9.714   6.412   4.259 -0.0256  0.3407 -0.5209
  763MOL0     C 5212   9.663   6.415   4.127  0.8269  0.2227 -0.4434
  763MOL0     C 5213   9.531   6.454   4.096 -0.0517  0.6236  0.0580
  763MOL0     C 5214   9.451   6.498   4.194 -0.5950 -0.7256  0.2071
  763MOL0     O 5215   9.320   6.537   4.177  0.6765  0.2663  0.3022
  763MOL0     C 5216   9.275   6.586   4.041 -0.5232  0.4550 -0.5474
  763MOL0     C 5217   9.144   6.665   4.040  0.5586 -0.3711  0.9510
  763MOL0     C 5218   9.035   6.560   4.056 -0.9682  0.1714 -0.0550
  763MOL0     C 5219   8.901   6.615   4.100  0.4987  1.1421  0.6223
  763MOL0     C 5220   8.855   6.721   4.007 -0.9572  0.6132 -0.1227
  763MOL0     C 5221   8.839   6.794   3.918  0.5323  0.0473  0.0455
  763MOL0     C 5222   9.497   6.480   4.330  0.4421  0.9284  0.5159
  763MOL0     C 5223   9.625   6.444   4.366 -0.4720  0.2053  0.2468
  763MOL0     C 5224   9.655   6.437   4.503  0.1025 -0.1551 -0.0363
  763MOL0     H 5225  10.018   6.105   4.252 -1.5541  1.3146  0.3072
  763MOL0     H 5226  10.244   6.019   4.219  0.0491 -0.4939 -0.7869
  763MOL0     H 5227  10.488   6.252   4.324  0.5468  1.7704 -0.4057
  763MOL0     H 5228  10.571   6.298   4.165  2.0139 -1.8979 -1.9408
  763MOL0     H 5229  10.702   6.148   4.354  0.2120  1.1925  0.2096
  763MOL0     H 5230  10.580   6.031   4.302 -1.4224  0.7820  2.6256
  763MOL0     H 5231  10.670   6.025   4.072  3.3528 -0.8035 -1.8201
  763MOL0     H 5232  10.774   6.168   4.109 -0.4078 -0.0726  0.7305
  763MOL0     H 5233  10.885   6.002   4.276  1.7704 -0.3113 -0.3523
  763MOL0     H 5234  10.780   5.877   4.210  0.9172 -1.0311 -1.5664
  763MOL0     H 5235  10.874   5.963   3.970  0.7489 -0.4049  0.0556
  763MOL0     H 5236  10.948   5.840   4.053 -0.2708 -0.5596 -0.8084
  763MOL0     H 5237  11.014   6.150   4.079  3.1623  0.7025 -0.7805
  763MOL0     H 5238  11.080   6.034   4.177 -0.9800 -1.4240  0.5317
  763MOL0     H 5239  11.201   5.928   3.973  0.9425  0.4188 -2.9379
  763MOL0     H 5240  11.243   6.092   3.978  0.1998 -1.0645  1.8055
  763MOL0     H 5241  11.019   5.986   3.805  0.4805 -1.3100  0.9140
  763MOL0     H 5242  11.064   6.161   3.833  0.4699  0.7695  2.6110
  763MOL0     H 5243  11.341   6.233   3.780  0.1378  0.7432 -1.1354
  763MOL0     H 5244  11.597   6.083   3.579  0.6779  1.0187  1.7106
  763MOL0     H 5245  11.542   6.248   3.630 -2.4613  0.5394 -1.3896
  763MOL0     H 5246  11.475   6.118   3.368  2.2586 -1.8799  1.3137
  763MOL0     H 5247  11.455   6.287   3.418 -0.4690 -1.3930 -1.6557
  763MOL0     H 5248  11.669   6.350   3.350  0.9262 -0.8627 -2.7013
  763MOL0     H 5249  11.741   6.210   3.436  1.0358  1.9574 -0.2248
  763MOL0     H 5250  11.676   6.068   3.222  2.5157 -0.1549 -3.0914
  763MOL0     H 5251  11.595   6.226   3.150  0.8637  1.3545 -0.1934
  763MOL0     H 5252  12.027   6.225   3.089 -2.3220  1.8421  0.3701
  763MOL0     H 5253  12.193   6.261   2.935  0.3006 -0.0606  0.3152
  763MOL0     H 5254  12.196   6.193   2.770 -0.8709 -1.6720 -0.3752
  763MOL0     H 5255  12.214   6.085   2.904 -1.2192 -1.9570 -1.3012
  763MOL0     H 5256  12.031   6.053   2.383  1.7520 -0.2911  0.7543
  763MOL0     H 5257  12.050   5.956   2.162 -1.7654 -0.9360 -2.3831
  763MOL0     H 5258  11.933   5.527   2.122 -0.7176 -2.1236 -2.1328
  763MOL0     H 5259  11.784   5.607   2.071  0.2674  0.6210  0.4876
  763MOL0     H 5260  12.021   5.549   1.885 -0.3193 -1.3525  2.1632
  763MOL0     H 5261  11.854   5.476   1.901 -0.6472  0.8028  2.1921
  763MOL0     H 5262  11.900   5.746   1.807 -1.1796 -0.2694  3.0213
  763MOL0     H 5263  11.741   5.664   1.819 -1.8442  1.9018 -4.5803
  763MOL0     H 5264  11.823   5.489   1.663 -0.5357  0.1151 -1.3611
  763MOL0     H 5265  11.960   5.597   1.627 -0.2363  1.8744  0.2056
  763MOL0     H 5266  11.669   5.691   1.612 -1.0836 -0.5120 -3.1289
  763MOL0     H 5267  11.820   5.769   1.541  0.2374  0.3356 -2.3880
  763MOL0     H 5268  11.717   5.492   1.454 -1.4579  0.8501 -0.1550
  763MOL0     H 5269  11.845   5.598   1.383  0.0084 -0.0488 -1.8568
  763MOL0     H 5270  11.688   5.615   1.221  1.8138  0.6444  0.1933
  763MOL0     H 5271  11.666   5.764   1.309  1.2229  0.6780  3.1547
  763MOL0     H 5272  11.483   5.662   1.437 -1.5227  1.6639 -0.5814
  763MOL0     H 5273  11.494   5.515   1.357 -1.9372  1.7141  0.6984
  763MOL0     H 5274  11.838   5.610   2.301 -2.3471  0.9207 -1.4525
  763MOL0     H 5275  11.810   5.717   2.522  1.8765 -1.4860 -0.9256
  763MOL0     H 5276  11.734   5.993   2.784 -0.8823  1.1794 -0.3633
  763MOL0     H 5277  11.643   6.083   2.970 -0.0655  0.3961 -1.6180
  763MOL0     H 5278  10.372   6.418   4.109  0.8591 -0.1565  1.2018
  763MOL0     H 5279  10.132   6.500   4.129 -0.9635  0.2998  0.7602
  763MOL0     H 5280   9.723   6.382   4.043  2.6078  2.1313  0.0158
  763MOL0     H 5281   9.505   6.435   3.993  1.1035  0.3008 -0.1899
  763MOL0     H 5282   9.353   6.648   3.996 -1.3525  1.5020 -0.5619
  763MOL0     H 5283   9.275   6.495   3.981 -2.8356  0.0495  0.0007
  763MOL0     H 5284   9.124   6.714   3.945 -1.0489  0.2158  1.5660
  763MOL0     H 5285   9.137   6.741   4.118  0.2462  1.0543 -0.4337
  763MOL0     H 5286   9.026   6.498   3.967  0.2541 -0.5532  0.3064
  763MOL0     H 5287   9.074   6.497   4.137 -0.4733 -1.1410 -1.2627
  763MOL0     H 5288   8.899   6.646   4.204 -2.7625 -1.6921  1.6017
  763MOL0     H 5289   8.832   6.530   4.097  0.3091  1.2538  1.6578
  763MOL0     H 5290   8.830   6.868   3.840  0.0089  1.3824  1.3224
  763MOL0     H 5291   9.417   6.510   4.397  0.1403  4.1888 -1.0673
  763MOL0     H 5292   9.697   6.342   4.537 -0.8576  0.2734  2.6265
  763MOL0     H 5293   9.735   6.508   4.524 -0.2451  0.0756  0.5304
  763MOL0     H 5294   9.572   6.471   4.566 -1.0980 -1.6347 -0.7523
  764MOL0     O 5295   9.644   6.229   0.655 -0.4907 -0.4488 -0.2523
  764MOL0     C 5296   9.580   6.183   0.753  0.7801 -0.0224 -0.0684
  764MOL0     O 5297   9.558   6.047   0.778  0.7461  0.0120  0.3188
  764MOL0     C 5298   9.643   5.950   0.732 -0.0480 -0.0339  0.3951
  764MOL0     C 5299   9.783   5.956   0.736 -0.2990  0.8369  0.1639
  764MOL0     C 5300   9.857   5.857   0.677  0.3790  0.2677  0.4383
  764MOL0     C 5301   9.801   5.743   0.616 -0.1038  0.1767 -0.4079
  764MOL0     O 5302   9.881   5.647   0.566  0.1483  0.0643  0.1940
  764MOL0     C 5303   9.832   5.514   0.546  0.3227  0.4502 -0.5199
  764MOL0     C 5304   9.950   5.423   0.489 -0.4502 -0.9054 -0.3358
  764MOL0     C 5305   9.902   5.295   0.435 -0.1450  0.8660  0.0583
  764MOL0     C 5306   9.999   5.233   0.333  0.7193 -0.4290  0.0477
  764MOL0     C 5307  10.132   5.189   0.391 -0.5870 -0.1987 -0.4809
  764MOL0     C 5308  10.222   5.142   0.282 -0.1205  0.9538 -0.4395
  764MOL0     C 5309  10.375   5.130   0.335 -0.4382 -0.5978  0.2183
  764MOL0     C 5310  10.395   5.040   0.457 -0.7263 -0.4663  0.5475
  764MOL0     N 5311  10.539   5.008   0.486  0.5025  0.1266 -0.0975
  764MOL0     C 5312  10.646   5.097   0.488 -0.2018  0.6099 -0.1446
  764MOL0     C 5313  10.746   5.024   0.539 -0.0733  0.1896 -0.5341
  764MOL0     C 5314  10.889   5.082   0.571 -0.1851 -0.3664 -0.1392
  764MOL0     C 5315  10.986   4.971   0.611  0.4100  0.3006  0.0829
  764MOL0     C 5316  11.124   5.023   0.566 -0.4668 -0.0789 -0.2488
  764MOL0     C 5317  11.232   4.914   0.595 -0.4477 -0.6053  1.0383
  764MOL0     O 5318  11.358   4.963   0.552  0.0258  0.2454  0.4628
  764MOL0     C 5319  11.441   5.001   0.652  0.7589  0.2466  0.8727
  764MOL0     C 5320  11.413   5.056   0.773  0.2634 -0.1769  0.0469
  764MOL0     C 5321  11.522   5.098   0.863  0.9898 -0.1800  0.2703
  764MOL0     C 5322  11.469   5.141   0.999  0.4437 -0.3833  0.3528
  764MOL0     C 5323  11.654   5.092   0.813  0.9281  0.3007 -0.0713
  764MOL0     C 5324  11.773   5.145   0.884 -0.3393 -0.4520  0.5881
  764MOL0     O 5325  11.770   5.132   1.018  0.1980 -0.7702 -0.0602
  764MOL0     C 5326  11.870   5.191   1.093  0.0826 -0.2585  0.9717
  764MOL0     C 5327  12.004   5.199   1.055  0.7216  0.4039  0.1738
  764MOL0     C 5328  12.095   5.267   1.135 -0.5245 -0.2909  0.1016
  764MOL0     C 5329  12.052   5.329   1.254  0.2376 -0.7523 -0.3869
  764MOL0     O 5330  12.133   5.413   1.337  0.3526  0.4174  0.3487
  764MOL0     C 5331  12.254   5.454   1.279  0.2058  0.4340 -0.4570
  764MOL0     C 5332  12.305   5.550   1.382  1.0246 -0.0515  0.4851
  764MOL0     C 5333  12.244   5.692   1.380 -0.2992 -0.3899 -0.4971
  764MOL0     C 5334  12.308   5.788   1.482 -0.3089  1.1608 -0.7130
  764MOL0     C 5335  12.209   5.886   1.542  0.4825  0.2554  1.2279
  764MOL0     C 5336  12.255   5.989   1.646  0.3517  0.3928  0.1128
  764MOL0     C 5337  12.290   5.917   1.780  0.0475 -0.7293  0.1826
  764MOL0     C 5338  12.164   5.912   1.869 -1.1887 -0.6959  0.5345
  764MOL0    Cl 5339  12.101   6.082   1.917 -0.0891  0.4198 -0.1293
  764MOL0     C 5340  11.926   5.316   1.297  0.7505 -0.2608 -0.5158
  764MOL0     C 5341  11.838   5.243   1.215 -0.0784  0.5963 -0.5063
  764MOL0     O 5342  11.864   5.188   0.813 -0.1344 -0.4584  0.5265
  764MOL0     C 5343  11.675   5.060   0.677  0.5564  0.0124 -0.7022
  764MOL0     C 5344  11.571   5.013   0.600  0.0756 -0.4390  0.0706
  764MOL0     N 5345  10.704   4.890   0.567  0.1356 -0.0787 -0.7018
  764MOL0     N 5346  10.581   4.885   0.527  0.1251 -0.8506 -0.0006
  764MOL0     C 5347   9.664   5.734   0.633 -0.1781  0.0304 -0.0605
  764MOL0     C 5348   9.585   5.835   0.693 -0.4505  0.8148 -0.2231
  764MOL0     C 5349   9.521   6.291   0.843 -0.3068 -0.4819  0.2158
  764MOL0     C 5350   9.418   6.250   0.921  0.0030  0.2372  0.0022
  764MOL0     C 5351   9.349   6.334   1.004  1.0483 -0.5619 -0.1863
  764MOL0     C 5352   9.387   6.470   1.019 -0.9998 -0.0964  0.6055
  764MOL0     O 5353   9.333   6.567   1.097  0.5485  0.2991  0.5975
  764MOL0     C 5354   9.261   6.514   1.215 -0.5293  0.0266  0.1864
  764MOL0     C 5355   9.115   6.489   1.191  0.1648 -0.0971  0.2705
  764MOL0     C 5356   9.041   6.409   1.297  0.3535 -0.5555 -0.7486
  764MOL0     C 5357   8.902   6.377   1.244 -0.1308  0.5027 -0.2051
  764MOL0     C 5358   8.824   6.277   1.319 -0.4359  0.3986  0.3398
  764MOL0     C 5359   8.766   6.182   1.365 -0.1753  0.3151 -0.1911
  764MOL0     C 5360   9.496   6.508   0.940  1.1077 -0.4392 -0.4539
  764MOL0     C 5361   9.559   6.427   0.847 -0.4106  0.2160 -0.2630
  764MOL0     C 5362   9.678   6.487   0.762 -0.4645 -0.0464  0.3030
  764MOL0     H 5363   9.833   6.042   0.779 -1.5437  1.1937  0.9392
  764MOL0     H 5364   9.965   5.870   0.679  0.7642 -2.3566  2.1761
  764MOL0     H 5365   9.752   5.514   0.472 -1.1492  0.0931  1.0059
  764MOL0     H 5366   9.802   5.463   0.638  2.6664  0.2597  0.2081
  764MOL0     H 5367  10.006   5.488   0.422 -1.5429  0.5896  0.1546
  764MOL0     H 5368  10.017   5.394   0.570 -0.4332 -1.3242 -0.4962
  764MOL0     H 5369   9.891   5.232   0.523 -0.9590 -0.2671 -0.8244
  764MOL0     H 5370   9.809   5.304   0.378  0.9680 -0.8853 -2.2042
  764MOL0     H 5371   9.953   5.149   0.280  0.8777 -0.7385  0.3913
  764MOL0     H 5372  10.003   5.304   0.249 -0.4168 -2.5878 -1.9468
  764MOL0     H 5373  10.122   5.115   0.470  2.3288  0.3004  0.5030
  764MOL0     H 5374  10.185   5.275   0.433  2.5210 -1.6193 -1.2071
  764MOL0     H 5375  10.187   5.044   0.247  2.3453  0.5533 -2.0632
  764MOL0     H 5376  10.221   5.213   0.199  0.3162  2.9284  1.1711
  764MOL0     H 5377  10.418   5.226   0.362  1.0270 -0.2937 -2.8445
  764MOL0     H 5378  10.444   5.099   0.256  1.0627  2.4720  0.1970
  764MOL0     H 5379  10.351   5.096   0.540  0.5389 -0.5537  1.3123
  764MOL0     H 5380  10.344   4.945   0.440 -0.4036 -0.4630 -0.4924
  764MOL0     H 5381  10.647   5.205   0.475 -1.8198  0.9045  1.7259
  764MOL0     H 5382  10.873   5.148   0.657 -0.2209 -1.2540  0.5622
  764MOL0     H 5383  10.927   5.132   0.482  1.6567 -1.1832  0.1305
  764MOL0     H 5384  10.964   4.946   0.715 -2.3195 -0.1031 -0.4875
  764MOL0     H 5385  10.970   4.875   0.560  0.4436  0.1651  0.3247
  764MOL0     H 5386  11.124   5.048   0.460 -1.2012  1.0577 -0.0031
  764MOL0     H 5387  11.152   5.112   0.624  1.7328  1.3314 -3.2201
  764MOL0     H 5388  11.234   4.895   0.703 -0.8421  0.7319  1.2977
  764MOL0     H 5389  11.218   4.826   0.532 -1.7718  0.4838 -0.2743
  764MOL0     H 5390  11.312   5.070   0.809  1.0754 -0.0379  2.4622
  764MOL0     H 5391  11.359   5.140   1.007  0.3713  1.1576 -0.0029
  764MOL0     H 5392  11.508   5.237   1.036 -0.3979 -0.9450  2.9174
  764MOL0     H 5393  11.507   5.077   1.079  2.8269 -0.7871 -1.0125
  764MOL0     H 5394  12.040   5.165   0.958 -0.4246  0.8479 -0.4262
  764MOL0     H 5395  12.196   5.256   1.097 -0.9601 -0.9275 -0.9482
  764MOL0     H 5396  12.313   5.364   1.261 -1.7934 -0.7137 -1.7738
  764MOL0     H 5397  12.241   5.500   1.180  2.1900 -1.2734 -1.5997
  764MOL0     H 5398  12.288   5.505   1.480 -5.5956  1.2942  0.4248
  764MOL0     H 5399  12.410   5.560   1.354  1.1994 -0.3681  1.0134
  764MOL0     H 5400  12.137   5.671   1.393 -0.2035 -1.0849 -0.7837
  764MOL0     H 5401  12.257   5.736   1.281 -0.6657  0.2856 -0.2517
  764MOL0     H 5402  12.401   5.837   1.452  0.2741  1.0791  0.8541
  764MOL0     H 5403  12.336   5.724   1.566 -0.2923  1.6152 -0.3676
  764MOL0     H 5404  12.178   5.947   1.456 -2.7042  1.2126  2.8899
  764MOL0     H 5405  12.126   5.822   1.572  1.1948 -1.5746 -0.4938
  764MOL0     H 5406  12.174   6.062   1.654 -1.9574 -1.9594 -0.0955
  764MOL0     H 5407  12.349   6.036   1.616  1.1916  0.8950  3.1489
  764MOL0     H 5408  12.365   5.973   1.838 -0.2572 -2.0220  1.8925
  764MOL0     H 5409  12.320   5.813   1.766  0.9493 -0.2912 -1.3867
  764MOL0     H 5410  12.196   5.855   1.957 -0.2657  0.6472  1.0887
  764MOL0     H 5411  12.082   5.865   1.813 -3.2548  5.2632 -2.2845
  764MOL0     H 5412  11.905   5.358   1.394  1.4920 -2.8474  0.8444
  764MOL0     H 5413  11.734   5.235   1.245 -0.7833  2.0359 -2.3420
  764MOL0     H 5414  11.773   5.071   0.632  1.0126 -2.4541 -0.4330
  764MOL0     H 5415  11.598   4.999   0.496  1.2849 -1.8398  0.5339
  764MOL0     H 5416   9.608   5.650   0.594  0.1861 -0.1515 -0.1949
  764MOL0     H 5417   9.478   5.826   0.705 -0.5662 -0.0243 -1.6472
  764MOL0     H 5418   9.388   6.145   0.922  2.7206 -0.6171 -0.0308
  764MOL0     H 5419   9.258   6.302   1.054 -0.1816  2.8216  0.0175
  764MOL0     H 5420   9.309   6.423   1.254 -0.2452  0.8013  1.7063
  764MOL0     H 5421   9.277   6.581   1.300  1.2171 -1.7837  1.3804
  764MOL0     H 5422   9.116   6.452   1.088  1.6761 -1.2260  0.6532
  764MOL0     H 5423   9.070   6.588   1.188  0.5681  0.0697 -0.6163
  764MOL0     H 5424   9.102   6.320   1.312 -0.6156 -0.9821  0.8305
  764MOL0     H 5425   9.038   6.461   1.393  2.9852 -1.9023  0.1598
  764MOL0     H 5426   8.906   6.353   1.137  0.2132  3.3340 -0.9131
  764MOL0     H 5427   8.843   6.469   1.247  3.5707  3.0861  0.3704
  764MOL0     H 5428   8.710   6.108   1.420 -1.6867 -0.5476 -2.6843
  764MOL0     H 5429   9.523   6.612   0.951  0.0190 -0.1132 -0.7560
  764MOL0     H 5430   9.717   6.580   0.806  1.2932 -1.7090  2.4946
  764MOL0     H 5431   9.765   6.420   0.769 -1.1157 -1.2507 -2.0794
  764MOL0     H 5432   9.660   6.499   0.655 -1.1675 -0.1123  0.4098
  765MOL0     O 5433   4.570   5.335   3.248  0.0634  0.3803  0.3805
  765MOL0     C 5434   4.459   5.328   3.306 -1.2725 -0.2351  0.0399
  765MOL0     O 5435   4.447   5.324   3.444  0.4084 -0.0962  1.2777
  765MOL0     C 5436   4.553   5.323   3.521 -0.2882  0.0402  0.1325
  765MOL0     C 5437   4.586   5.428   3.600  0.1196  0.1839 -0.1806
  765MOL0     C 5438   4.697   5.436   3.672  0.4914 -0.2652  0.4244
  765MOL0     C 5439   4.789   5.331   3.669  0.2160 -0.1674 -0.9399
  765MOL0     O 5440   4.911   5.320   3.737  0.8658  0.1721 -0.4615
  765MOL0     C 5441   4.969   5.439   3.790  0.4035 -0.3307 -0.5587
  765MOL0     C 5442   5.102   5.396   3.862 -0.8156  0.2587  0.7252
  765MOL0     C 5443   5.210   5.344   3.762 -0.2431  1.3292  0.1741
  765MOL0     C 5444   5.339   5.342   3.838 -0.2735  0.0916  0.3416
  765MOL0     C 5445   5.367   5.200   3.886 -0.1619  0.0775  0.0460
  765MOL0     C 5446   5.498   5.183   3.965 -0.6894 -0.0898  0.2357
  765MOL0     C 5447   5.628   5.253   3.897 -0.4090  0.0292  0.1176
  765MOL0     C 5448   5.644   5.210   3.750  0.2254 -0.0541 -0.2818
  765MOL0     N 5449   5.776   5.244   3.697 -0.4605  0.2091  0.2685
  765MOL0     C 5450   5.816   5.372   3.669  1.1106  0.8535  0.4964
  765MOL0     C 5451   5.943   5.355   3.626 -1.1959 -0.2420 -0.4945
  765MOL0     C 5452   6.023   5.467   3.566  0.2490 -0.0263 -0.0108
  765MOL0     C 5453   6.124   5.445   3.456 -0.0861  0.1821  0.2296
  765MOL0     C 5454   6.141   5.559   3.368 -0.1221 -0.2623 -0.2466
  765MOL0     C 5455   6.276   5.559   3.284  0.1216 -0.0566 -0.7970
  765MOL0     O 5456   6.393   5.541   3.365 -0.2139 -0.0684 -0.1754
  765MOL0     C 5457   6.519   5.551   3.306  0.0023 -0.2980  0.1597
  765MOL0     C 5458   6.548   5.543   3.171 -0.6470 -0.3084 -0.8837
  765MOL0     C 5459   6.676   5.557   3.125 -0.0638  0.4994  0.0817
  765MOL0     C 5460   6.697   5.529   2.981 -0.2407  0.4836  0.4603
  765MOL0     C 5461   6.782   5.583   3.223  0.6219 -0.8669 -0.3441
  765MOL0     C 5462   6.917   5.603   3.188  0.2153  0.4325  0.4386
  765MOL0     O 5463   6.945   5.688   3.080 -0.5408 -0.2732 -0.5965
  765MOL0     C 5464   7.074   5.705   3.046  0.2551 -0.5803  0.0466
  765MOL0     C 5465   7.123   5.623   2.948 -0.3537 -0.4385 -0.0603
  765MOL0     C 5466   7.257   5.631   2.906  1.0167 -0.7500  0.7361
  765MOL0     C 5467   7.340   5.728   2.965 -0.7707  0.5871 -0.8855
  765MOL0     O 5468   7.481   5.721   2.941  0.4653 -0.3700  0.5772
  765MOL0     C 5469   7.558   5.840   2.959  0.5183  0.6564  0.0287
  765MOL0     C 5470   7.701   5.824   2.905  0.0626 -0.1698  0.0854
  765MOL0     C 5471   7.708   5.749   2.763  0.6598 -0.5599 -0.5629
  765MOL0     C 5472   7.829   5.791   2.686  0.0769  0.8813  0.2525
  765MOL0     C 5473   7.840   5.718   2.550  0.3049  0.8509  0.0774
  765MOL0     C 5474   7.954   5.785   2.472 -0.1990  0.1516 -0.5724
  765MOL0     C 5475   7.982   5.716   2.336 -0.2904 -0.1772 -0.3279
  765MOL0     C 5476   8.126   5.756   2.295  0.1765 -0.3022  0.0160
  765MOL0    Cl 5477   8.164   5.708   2.124  0.1846  0.2218 -0.1249
  765MOL0     C 5478   7.288   5.816   3.060  0.0880 -0.4467 -0.1586
  765MOL0     C 5479   7.153   5.801   3.103 -0.4635  0.1423 -0.3869
  765MOL0     O 5480   7.002   5.531   3.240 -0.6848  0.3983  0.2925
  765MOL0     C 5481   6.749   5.599   3.357  0.0154 -0.1087 -0.3360
  765MOL0     C 5482   6.614   5.579   3.402 -0.1599 -0.1647 -0.6880
  765MOL0     N 5483   5.971   5.222   3.620  0.3607  0.4950  0.0428
  765MOL0     N 5484   5.871   5.156   3.673  0.0720  0.1494 -0.4894
  765MOL0     C 5485   4.761   5.223   3.590 -0.5938  0.7417  0.6784
  765MOL0     C 5486   4.645   5.220   3.510 -0.6763 -0.7142  0.4846
  765MOL0     C 5487   4.337   5.316   3.221  1.0951 -0.0993  0.3899
  765MOL0     C 5488   4.358   5.362   3.089 -1.0148 -0.9133  0.9282
  765MOL0     C 5489   4.253   5.368   2.995 -0.0274  0.4296  0.2108
  765MOL0     C 5490   4.127   5.337   3.037  1.8534  0.3331 -0.2768
  765MOL0     O 5491   4.026   5.362   2.955 -0.1285  0.8075  0.7815
  765MOL0     C 5492   3.892   5.375   3.008  0.1521 -0.2153 -0.3515
  765MOL0     C 5493   3.796   5.467   2.922  0.7479  0.3538  0.1394
  765MOL0     C 5494   3.836   5.617   2.914 -0.2730  0.2888  0.2254
  765MOL0     C 5495   3.782   5.700   3.023  0.8219 -0.0917 -0.7470
  765MOL0     C 5496   3.824   5.841   3.011 -0.4025 -0.8130  0.2458
  765MOL0     C 5497   3.843   5.956   2.983 -0.3271  0.2410 -0.3640
  765MOL0     C 5498   4.103   5.295   3.168 -0.0234  1.0897 -0.2237
  765MOL0     C 5499   4.204   5.289   3.263 -0.0726 -0.1585 -0.2099
  765MOL0     C 5500   4.172   5.241   3.403 -0.0370  0.1768 -0.4968
  765MOL0     H 5501   4.506   5.500   3.616 -0.7196 -0.1124 -2.5988
  765MOL0     H 5502   4.719   5.529   3.722 -2.6305  0.1588  1.1546
  765MOL0     H 5503   4.911   5.491   3.867  0.6668  0.6069 -0.9849
  765MOL0     H 5504   4.997   5.504   3.707  1.8168 -0.0542  0.0980
  765MOL0     H 5505   5.142   5.487   3.908 -3.5284  2.9824 -1.8198
  765MOL0     H 5506   5.077   5.316   3.933  0.3891 -0.8826 -0.0908
  765MOL0     H 5507   5.182   5.246   3.721  3.5751  1.7092 -4.2042
  765MOL0     H 5508   5.221   5.411   3.675 -1.1099  0.1341 -0.9041
  765MOL0     H 5509   5.419   5.383   3.776 -1.1674 -1.8711 -2.3277
  765MOL0     H 5510   5.330   5.401   3.929 -2.1757 -0.7394  0.7355
  765MOL0     H 5511   5.374   5.136   3.798 -0.3686  0.5919 -0.3476
  765MOL0     H 5512   5.288   5.167   3.954 -0.7025  2.3698  0.6142
  765MOL0     H 5513   5.486   5.222   4.066  1.0583  0.7096  0.1843
  765MOL0     H 5514   5.527   5.081   3.989 -3.7159 -1.1477 -0.1827
  765MOL0     H 5515   5.716   5.222   3.953  0.0480 -0.5216 -0.8853
  765MOL0     H 5516   5.610   5.359   3.914 -1.3867  0.0539 -0.9437
  765MOL0     H 5517   5.633   5.101   3.741 -2.8851  0.2738 -1.8851
  765MOL0     H 5518   5.570   5.257   3.684  1.4173  0.3773 -1.3494
  765MOL0     H 5519   5.756   5.461   3.680  0.3331  0.7031 -1.9269
  765MOL0     H 5520   6.075   5.515   3.650 -0.3732  2.3168 -0.8892
  765MOL0     H 5521   5.940   5.529   3.529 -1.8513 -1.5955  1.8035
  765MOL0     H 5522   6.223   5.421   3.497  0.7779 -0.1271 -1.9338
  765MOL0     H 5523   6.092   5.363   3.392 -0.0945  2.3865 -2.7822
  765MOL0     H 5524   6.053   5.586   3.308  0.9127  1.0206 -1.2729
  765MOL0     H 5525   6.133   5.648   3.431  0.9013  0.3271 -0.9194
  765MOL0     H 5526   6.268   5.484   3.205 -3.4176 -1.1672  0.4067
  765MOL0     H 5527   6.272   5.657   3.236 -0.1839  0.0666 -0.5328
  765MOL0     H 5528   6.477   5.515   3.094  0.7028 -0.0992 -2.2479
  765MOL0     H 5529   6.673   5.424   2.965 -0.6221  0.3312  1.8623
  765MOL0     H 5530   6.802   5.530   2.951 -1.2624 -3.7844 -4.7611
  765MOL0     H 5531   6.633   5.589   2.915 -0.3752 -0.1957 -0.0327
  765MOL0     H 5532   7.068   5.542   2.899  0.0849 -0.7180 -0.0901
  765MOL0     H 5533   7.296   5.569   2.826 -1.3263 -0.2383 -0.9160
  765MOL0     H 5534   7.508   5.913   2.895  0.7995 -1.4450 -2.7601
  765MOL0     H 5535   7.567   5.862   3.066  0.5249 -0.1064  0.1938
  765MOL0     H 5536   7.735   5.927   2.916  0.1617 -0.3343  1.5935
  765MOL0     H 5537   7.759   5.767   2.978  3.3106 -0.0051 -2.1657
  765MOL0     H 5538   7.619   5.776   2.705  0.2331 -3.0158 -1.1583
  765MOL0     H 5539   7.696   5.642   2.783 -1.0115 -0.4861 -0.9890
  765MOL0     H 5540   7.915   5.767   2.749 -1.3622  2.4612  3.0327
  765MOL0     H 5541   7.823   5.900   2.674  0.4130  0.6820 -2.1466
  765MOL0     H 5542   7.875   5.617   2.573 -0.6951  1.1124  3.1685
  765MOL0     H 5543   7.750   5.718   2.488  0.4174 -1.2368 -0.1660
  765MOL0     H 5544   8.049   5.796   2.525 -0.6033  1.2059 -0.0420
  765MOL0     H 5545   7.924   5.887   2.450 -0.4896  0.2694  0.3076
  765MOL0     H 5546   7.908   5.746   2.262  0.3548 -0.0955 -0.9493
  765MOL0     H 5547   7.978   5.608   2.353 -0.8772 -0.6794 -3.1532
  765MOL0     H 5548   8.200   5.709   2.361  1.8325 -0.6242 -1.9636
  765MOL0     H 5549   8.155   5.861   2.305  0.9507 -0.3238 -1.6401
  765MOL0     H 5550   7.353   5.890   3.105 -0.4097  0.1638 -0.4168
  765MOL0     H 5551   7.121   5.867   3.183  2.8809 -0.1607  1.3810
  765MOL0     H 5552   6.822   5.616   3.436 -0.7828 -2.0817  0.9243
  765MOL0     H 5553   6.587   5.580   3.507 -0.0042 -0.2008 -0.6479
  765MOL0     H 5554   4.832   5.141   3.579  1.4306  2.4530  0.2842
  765MOL0     H 5555   4.626   5.138   3.441  0.3716  0.3545 -1.1365
  765MOL0     H 5556   4.454   5.390   3.046 -1.6518 -2.2343 -1.5657
  765MOL0     H 5557   4.265   5.404   2.893 -1.3888 -2.0217 -0.9304
  765MOL0     H 5558   3.842   5.278   3.014 -1.0771  0.3960 -0.2502
  765MOL0     H 5559   3.895   5.413   3.110  3.9274 -3.9012  1.1636
  765MOL0     H 5560   3.694   5.458   2.960  1.6714 -0.3329  2.6261
  765MOL0     H 5561   3.807   5.433   2.819  3.3433 -1.0288  0.7833
  765MOL0     H 5562   3.944   5.637   2.914 -0.7665  3.6461  0.5712
  765MOL0     H 5563   3.796   5.646   2.817 -1.2850 -0.5040  0.3858
  765MOL0     H 5564   3.819   5.658   3.117  2.0757 -1.1286 -1.6639
  765MOL0     H 5565   3.673   5.690   3.021  0.7500  0.1660  0.6233
  765MOL0     H 5566   3.867   6.057   2.955 -0.2896  1.2793  2.9032
  765MOL0     H 5567   4.013   5.248   3.205  3.0299 -4.0822  1.7926
  765MOL0     H 5568   4.194   5.322   3.473  4.2211 -2.3357  1.4773
  765MOL0     H 5569   4.065   5.216   3.410  0.4747 -1.7847  1.7680
  765MOL0     H 5570   4.231   5.150   3.419 -0.3989 -0.1509 -0.9918
  766MOL0     O 5571   9.209   4.104   9.994  0.0170  0.7248  0.0783
  766MOL0     C 5572   9.140   4.191   9.935  0.1827  0.4107  0.1920
  766MOL0     O 5573   9.182   4.311   9.901  0.4423  0.5496  0.5527
  766MOL0     C 5574   9.307   4.353   9.945 -0.4747 -0.2320 -0.5459
  766MOL0     C 5575   9.407   4.384   9.858 -0.6952  0.6550 -0.8170
  766MOL0     C 5576   9.530   4.430   9.903 -0.3655  0.2699 -0.6730
  766MOL0     C 5577   9.551   4.452  10.041 -0.4212  0.2731 -0.5959
  766MOL0     O 5578   9.671   4.512  10.086  0.5039 -0.5539 -0.0790
  766MOL0     C 5579   9.796   4.449  10.055 -0.2232 -0.1477 -0.2936
  766MOL0     C 5580   9.880   4.519   9.963  0.3852  0.1336  0.0067
  766MOL0     C 5581  10.014   4.451   9.961 -0.8008  0.2765  0.4042
  766MOL0     C 5582  10.106   4.491  10.081 -0.1979 -0.4374  0.1909
  766MOL0     C 5583  10.247   4.437  10.060 -0.0866 -0.6191  0.5191
  766MOL0     C 5584  10.350   4.498  10.158 -1.2657  0.2903 -0.5093
  766MOL0     C 5585  10.478   4.412  10.151 -1.0696 -1.0194 -0.3645
  766MOL0     C 5586  10.592   4.482  10.216 -0.2588  0.0323  0.3442
  766MOL0     N 5587  10.725   4.413  10.188  0.3792 -0.1820  0.4783
  766MOL0     C 5588  10.741   4.275  10.174  0.4527 -0.7355  0.0833
  766MOL0     C 5589  10.877   4.265  10.167  0.0051  1.0109 -0.4899
  766MOL0     C 5590  10.954   4.135  10.131 -0.6759 -0.8755  0.4216
  766MOL0     C 5591  11.105   4.174  10.103 -0.0372 -1.4830 -0.2215
  766MOL0     C 5592  11.180   4.060  10.039  0.1596 -0.2331  0.7669
  766MOL0     C 5593  11.325   4.096  10.045  0.8926 -0.2894 -0.1278
  766MOL0     O 5594  11.395   3.997   9.965  0.5126 -0.1745 -0.2582
  766MOL0     C 5595  11.528   4.022   9.940 -0.4090 -0.5952 -0.8317
  766MOL0     C 5596  11.594   3.918   9.865  1.5519 -0.2341 -0.2027
  766MOL0     C 5597  11.731   3.919   9.838 -0.2973 -0.5703  0.5749
  766MOL0     C 5598  11.784   3.799   9.765 -0.0070  0.7801  0.0285
  766MOL0     C 5599  11.807   4.027   9.884 -0.5057  0.8551  0.0153
  766MOL0     C 5600  11.948   4.038   9.864 -0.0117 -0.4546  0.4188
  766MOL0     O 5601  11.997   4.164   9.859  0.3347  0.4253 -1.0361
  766MOL0     C 5602  12.132   4.178   9.863  0.2002  0.1558 -0.5451
  766MOL0     C 5603  12.209   4.132   9.755  0.4113  0.2534  0.5015
  766MOL0     C 5604  12.342   4.159   9.755 -0.0853 -0.9842  0.4254
  766MOL0     C 5605  12.400   4.229   9.862 -1.0947 -0.9362 -0.3672
  766MOL0     O 5606  12.531   4.268   9.869 -0.4902 -0.3973 -0.1914
  766MOL0     C 5607  12.631   4.196   9.793  0.5418 -0.5764  0.4801
  766MOL0     C 5608  12.774   4.227   9.834 -0.3139  1.5155  0.8634
  766MOL0     C 5609  12.872   4.166   9.737 -0.1029  0.9756 -0.1655
  766MOL0     C 5610  13.017   4.166   9.787  0.0865  0.6086  0.0701
  766MOL0     C 5611  13.078   4.297   9.754 -0.2308  0.4913  0.1978
  766MOL0     C 5612  13.217   4.322   9.803 -0.3584  0.7239 -0.1271
  766MOL0     C 5613  13.317   4.234   9.729  0.2756  0.4416  0.0966
  766MOL0     C 5614  13.452   4.290   9.777 -0.4563 -0.7366 -0.9054
  766MOL0    Cl 5615  13.497   4.452   9.725  0.4135  0.2876 -0.4590
  766MOL0     C 5616  12.326   4.269   9.973  0.0315  0.5482 -0.0022
  766MOL0     C 5617  12.191   4.249   9.968  0.0996 -0.6404 -0.7631
  766MOL0     O 5618  12.014   3.935   9.862 -0.1224 -0.3177  0.0515
  766MOL0     C 5619  11.740   4.127   9.962  0.1318 -0.1951 -0.0349
  766MOL0     C 5620  11.606   4.123   9.991  0.5787 -0.9691 -0.1915
  766MOL0     N 5621  10.934   4.390  10.163 -0.4324 -0.3551 -0.4794
  766MOL0     N 5622  10.844   4.481  10.171 -0.4246  0.7203  0.5398
  766MOL0     C 5623   9.446   4.426  10.132  0.9132  0.4171 -0.2313
  766MOL0     C 5624   9.329   4.372  10.081  0.3909 -0.6568 -0.2488
  766MOL0     C 5625   9.009   4.139   9.883  0.7101 -0.2943 -0.4554
  766MOL0     C 5626   8.915   4.080   9.966 -0.2282 -0.0112  0.6729
  766MOL0     C 5627   8.803   4.008   9.914  0.3989  0.4270  0.4800
  766MOL0     C 5628   8.772   4.024   9.776 -0.2705 -0.4461 -0.0719
  766MOL0     O 5629   8.651   3.973   9.733 -0.2081  0.2746 -0.4313
  766MOL0     C 5630   8.604   4.009   9.601 -0.8360 -0.4139 -0.3581
  766MOL0     C 5631   8.469   3.935   9.589  0.6938 -0.1092 -0.5668
  766MOL0     C 5632   8.475   3.781   9.617 -0.0281 -0.6469 -0.4941
  766MOL0     C 5633   8.342   3.733   9.665  0.3153 -0.2608  0.5395
  766MOL0     C 5634   8.236   3.754   9.564  0.6891  0.1078 -0.7147
  766MOL0     C 5635   8.148   3.746   9.483 -0.0842  0.3924  0.5101
  766MOL0     C 5636   8.854   4.105   9.702 -0.7966  0.3097  0.2147
  766MOL0     C 5637   8.976   4.157   9.748 -0.1086  0.2596 -0.7819
  766MOL0     C 5638   9.060   4.228   9.648  0.1263  0.2042 -0.7789
  766MOL0     H 5639   9.382   4.371   9.753 -1.6864 -2.6158 -0.2750
  766MOL0     H 5640   9.614   4.454   9.838 -0.2279  3.1537  0.4157
  766MOL0     H 5641   9.781   4.354  10.003 -0.9070  1.0965 -2.5054
  766MOL0     H 5642   9.842   4.440  10.153 -0.5392  1.8707  0.0743
  766MOL0     H 5643   9.827   4.520   9.867 -1.2971  2.2203  0.8619
  766MOL0     H 5644   9.887   4.623   9.997 -2.4002  0.4862 -0.3058
  766MOL0     H 5645  10.005   4.342   9.963  0.8813  0.1117  1.7410
  766MOL0     H 5646  10.063   4.483   9.868 -0.4136 -0.8760  0.2028
  766MOL0     H 5647  10.101   4.600  10.090  0.4012 -0.5334  2.5608
  766MOL0     H 5648  10.064   4.447  10.172 -0.6001 -0.3349  0.0572
  766MOL0     H 5649  10.282   4.458   9.959 -0.6367 -0.8353  0.2845
  766MOL0     H 5650  10.253   4.329  10.072  2.1184 -0.5617  0.3858
  766MOL0     H 5651  10.379   4.597  10.123 -0.5044 -0.4621 -2.1627
  766MOL0     H 5652  10.317   4.493  10.262  2.3215  0.4932  0.7769
  766MOL0     H 5653  10.507   4.406  10.046  1.9926  0.9504  0.2193
  766MOL0     H 5654  10.465   4.322  10.211 -0.9467 -0.7775  0.0362
  766MOL0     H 5655  10.607   4.576  10.161  0.7954 -1.6631 -2.5033
  766MOL0     H 5656  10.578   4.500  10.323  0.7113  3.0951  0.0396
  766MOL0     H 5657  10.670   4.193  10.183 -0.1919 -0.2701 -0.6378
  766MOL0     H 5658  10.911   4.085  10.044 -1.4024  1.2624 -0.5020
  766MOL0     H 5659  10.952   4.066  10.216 -0.7923 -0.1432  1.0219
  766MOL0     H 5660  11.134   4.268  10.056  0.6454 -1.8931 -0.6297
  766MOL0     H 5661  11.148   4.185  10.203 -1.5903 -2.0567  0.5343
  766MOL0     H 5662  11.170   3.967  10.095 -0.2205  0.4369  1.8506
  766MOL0     H 5663  11.138   4.044   9.939 -0.3704  1.5911  0.6576
  766MOL0     H 5664  11.343   4.200  10.015 -1.3109  0.7735  1.8886
  766MOL0     H 5665  11.352   4.095  10.151  1.0374 -1.4539 -0.1705
  766MOL0     H 5666  11.531   3.835   9.834 -1.7929  1.0886  2.3504
  766MOL0     H 5667  11.699   3.733   9.748  0.0256  0.4799  0.9733
  766MOL0     H 5668  11.842   3.744   9.839 -0.6782 -0.8233 -0.5961
  766MOL0     H 5669  11.852   3.805   9.679  2.2757 -2.2492  1.4348
  766MOL0     H 5670  12.175   4.069   9.673  3.3195 -1.8986  0.7850
  766MOL0     H 5671  12.403   4.119   9.675 -1.3500 -0.0373 -1.0659
  766MOL0     H 5672  12.608   4.090   9.804 -4.4325  0.0272 -1.4398
  766MOL0     H 5673  12.617   4.215   9.686 -1.8388  2.6869  1.1964
  766MOL0     H 5674  12.791   4.335   9.840  3.3750  1.1665 -0.5396
  766MOL0     H 5675  12.784   4.185   9.935 -0.9026 -0.4698  0.1495
  766MOL0     H 5676  12.864   4.207   9.636 -1.0180  2.0392  0.3142
  766MOL0     H 5677  12.850   4.061   9.714 -0.2814  1.3151 -1.6455
  766MOL0     H 5678  13.071   4.083   9.741 -0.2860 -0.0915  0.8711
  766MOL0     H 5679  13.012   4.146   9.894  0.7062 -1.2494 -0.2082
  766MOL0     H 5680  13.080   4.309   9.645  2.7230  2.8137  0.3809
  766MOL0     H 5681  13.021   4.378   9.802 -0.4197  1.1500 -1.0749
  766MOL0     H 5682  13.233   4.313   9.911  2.2973  4.1163 -0.0388
  766MOL0     H 5683  13.246   4.425   9.780 -0.5452  0.8912  0.3650
  766MOL0     H 5684  13.312   4.245   9.621  2.6211  1.6382  0.0436
  766MOL0     H 5685  13.313   4.130   9.764 -0.8755 -0.3618 -2.2125
  766MOL0     H 5686  13.535   4.220   9.762  1.8765  1.0869  2.2593
  766MOL0     H 5687  13.444   4.294   9.886  1.3579  3.1829 -0.7285
  766MOL0     H 5688  12.360   4.323  10.061  0.5379 -0.8079  0.6678
  766MOL0     H 5689  12.126   4.282  10.049 -1.7425  1.5105 -2.9396
  766MOL0     H 5690  11.791   4.213  10.004  0.8391 -0.3638 -0.5432
  766MOL0     H 5691  11.562   4.201  10.053  0.9762  0.2212 -1.3626
  766MOL0     H 5692   9.461   4.431  10.240  2.9878 -3.0340 -0.2328
  766MOL0     H 5693   9.258   4.341  10.158 -1.5624  0.0616 -1.6625
  766MOL0     H 5694   8.941   4.077  10.071  0.5056  1.1463  0.5339
  766MOL0     H 5695   8.730   3.961   9.979 -0.9782 -1.1789 -2.0815
  766MOL0     H 5696   8.601   4.117   9.581 -0.7181 -0.4813 -0.7563
  766MOL0     H 5697   8.676   3.962   9.533  0.8421 -0.4568  1.3532
  766MOL0     H 5698   8.429   3.962   9.490 -0.1209  2.5756  0.3843
  766MOL0     H 5699   8.403   3.990   9.658  0.2423  0.5635 -1.5132
  766MOL0     H 5700   8.489   3.722   9.526 -2.3266  0.0765 -1.4008
  766MOL0     H 5701   8.561   3.761   9.681  0.3160  3.5712  0.6724
  766MOL0     H 5702   8.316   3.777   9.762 -0.5623 -3.5503  1.9630
  766MOL0     H 5703   8.351   3.630   9.702 -1.0934 -0.7371 -0.3706
  766MOL0     H 5704   8.072   3.726   9.409  0.4030 -1.9306  0.5764
  766MOL0     H 5705   8.838   4.123   9.596  2.0755 -0.9770 -0.5246
  766MOL0     H 5706   9.015   4.224   9.548 -0.2529 -0.6243 -0.5777
  766MOL0     H 5707   9.042   4.330   9.683 -3.4477 -0.2239 -1.0132
  766MOL0     H 5708   9.164   4.196   9.640  0.4461  1.0484 -0.1588
  767MOL0     O 5709   1.661   1.104  10.127 -0.1010 -0.0185 -0.2318
  767MOL0     C 5710   1.659   1.028  10.031  0.0897 -0.6978 -0.0207
  767MOL0     O 5711   1.764   0.992   9.958  0.0240 -0.0821 -0.4822
  767MOL0     C 5712   1.889   1.045   9.971  0.2272  0.5911  0.2565
  767MOL0     C 5713   2.001   0.968   9.963 -0.7714  0.6983  0.1622
  767MOL0     C 5714   2.127   1.038   9.953 -0.0143 -0.4553  1.4307
  767MOL0     C 5715   2.134   1.173   9.936 -0.3333 -0.4989  0.2513
  767MOL0     O 5716   2.263   1.219   9.944 -0.2959  0.0085 -0.2035
  767MOL0     C 5717   2.292   1.353   9.970 -0.6754 -0.1768  0.4984
  767MOL0     C 5718   2.315   1.411   9.830  0.4718 -0.2571  0.5427
  767MOL0     C 5719   2.416   1.345   9.728  1.0480 -0.0440  0.7285
  767MOL0     C 5720   2.412   1.420   9.592 -0.2617  0.4943  0.1149
  767MOL0     C 5721   2.520   1.372   9.500 -0.4045  0.5546 -0.4324
  767MOL0     C 5722   2.656   1.443   9.542  0.2022  0.1701  0.1407
  767MOL0     C 5723   2.657   1.589   9.488 -0.2680  0.1680 -0.9664
  767MOL0     C 5724   2.722   1.614   9.345 -0.2060  0.0543 -0.6626
  767MOL0     N 5725   2.874   1.604   9.363 -0.2742  0.3295  0.1450
  767MOL0     C 5726   2.968   1.701   9.322  0.3555  0.0447 -1.0199
  767MOL0     C 5727   3.092   1.654   9.335 -0.5848  0.2191  0.4613
  767MOL0     C 5728   3.221   1.723   9.308  0.1682 -0.9069  0.7289
  767MOL0     C 5729   3.320   1.752   9.423  0.2753  0.2118  0.4686
  767MOL0     C 5730   3.272   1.879   9.512 -0.4877  0.4509 -0.1352
  767MOL0     C 5731   3.270   2.012   9.436 -0.2867 -0.1739  0.2162
  767MOL0     O 5732   3.388   2.020   9.351 -0.1319  0.0728 -0.2168
  767MOL0     C 5733   3.508   2.059   9.396 -0.1915  0.3216 -0.7014
  767MOL0     C 5734   3.521   2.177   9.474  0.7425 -0.3814 -0.7952
  767MOL0     C 5735   3.643   2.238   9.492  0.5406  1.0632  0.0714
  767MOL0     C 5736   3.648   2.384   9.547  0.4873 -0.3123 -0.0072
  767MOL0     C 5737   3.754   2.171   9.446 -0.3456  0.0706 -0.0169
  767MOL0     C 5738   3.886   2.230   9.448 -0.6312  0.5044  0.4280
  767MOL0     O 5739   3.970   2.200   9.343 -0.3212  0.1810 -0.8331
  767MOL0     C 5740   4.109   2.201   9.352  0.7271  0.5517 -0.3222
  767MOL0     C 5741   4.165   2.090   9.300  0.6331 -0.0147 -0.4504
  767MOL0     C 5742   4.305   2.082   9.292  0.4445 -0.1856 -0.0736
  767MOL0     C 5743   4.390   2.183   9.342  0.7650  0.4399 -0.3589
  767MOL0     O 5744   4.525   2.179   9.348  0.3071  0.0766 -0.6394
  767MOL0     C 5745   4.595   2.078   9.269  0.5540 -0.1897 -0.0870
  767MOL0     C 5746   4.750   2.092   9.289 -0.3509 -0.1077  0.0062
  767MOL0     C 5747   4.789   2.094   9.436 -0.7538  0.1031  1.2165
  767MOL0     C 5748   4.779   1.964   9.513 -0.4207 -0.2896  0.1300
  767MOL0     C 5749   4.824   1.988   9.644 -0.6138 -0.7019 -0.6383
  767MOL0     C 5750   4.777   1.889   9.744  0.4321  0.3875 -0.5417
  767MOL0     C 5751   4.792   1.943   9.882  0.1318  0.1300 -0.0409
  767MOL0     C 5752   4.827   1.844   9.994  0.0765  0.0521 -0.3191
  767MOL0    Cl 5753   4.684   1.748  10.040  0.0082  0.5512 -0.1254
  767MOL0     C 5754   4.329   2.303   9.395  0.3793  0.6916  0.6001
  767MOL0     C 5755   4.189   2.309   9.397  0.5562  0.7688 -0.5593
  767MOL0     O 5756   3.924   2.273   9.554  0.2320  0.0516  0.0966
  767MOL0     C 5757   3.745   2.042   9.389  0.1467 -0.4929 -0.5219
  767MOL0     C 5758   3.616   1.984   9.368  0.7683 -0.6845  0.2579
  767MOL0     N 5759   3.078   1.520   9.368 -0.0398 -0.1137  0.5004
  767MOL0     N 5760   2.950   1.487   9.385 -0.3604 -0.0775  0.9191
  767MOL0     C 5761   2.025   1.250   9.947  1.0101 -0.2469 -0.2861
  767MOL0     C 5762   1.903   1.187   9.967 -0.3596 -0.6370  0.5115
  767MOL0     C 5763   1.531   0.954  10.005 -0.3515 -0.4481 -0.5519
  767MOL0     C 5764   1.519   0.847   9.911  0.0115 -0.9892  0.2623
  767MOL0     C 5765   1.396   0.776   9.887 -0.3201 -1.0312  0.0865
  767MOL0     C 5766   1.286   0.805   9.955  0.1529  0.5805 -0.7238
  767MOL0     O 5767   1.178   0.719   9.945  0.0154 -0.0039 -1.1707
  767MOL0     C 5768   1.058   0.796   9.913  0.3351 -0.0446 -0.7292
  767MOL0     C 5769   1.051   0.869   9.776 -0.2425 -0.5154 -0.0081
  767MOL0     C 5770   1.040   0.777   9.653  0.4193 -0.1010 -0.2102
  767MOL0     C 5771   0.898   0.709   9.631 -0.2247 -0.3852 -0.1809
  767MOL0     C 5772   0.792   0.800   9.583  0.2775  0.7062  0.4638
  767MOL0     C 5773   0.710   0.858   9.516 -0.0759  0.2149  0.8778
  767MOL0     C 5774   1.295   0.905  10.051  0.3818  0.3060 -0.4270
  767MOL0     C 5775   1.403   0.995  10.068  0.3512 -0.2554  0.3255
  767MOL0     C 5776   1.380   1.110  10.166 -0.1735  0.6388 -0.7875
  767MOL0     H 5777   2.006   0.859   9.962  1.6347  0.7453  0.5962
  767MOL0     H 5778   2.223   0.987   9.955 -0.1988 -1.1558 -1.9296
  767MOL0     H 5779   2.387   1.365  10.023 -0.6710 -0.5580  0.5848
  767MOL0     H 5780   2.223   1.405  10.037 -0.5638  0.4113  0.1614
  767MOL0     H 5781   2.217   1.404   9.782 -1.0782 -3.9338  3.7501
  767MOL0     H 5782   2.344   1.515   9.849  1.3111  0.3779 -3.3380
  767MOL0     H 5783   2.513   1.359   9.777  1.9759 -0.8486 -0.8135
  767MOL0     H 5784   2.398   1.238   9.714  0.3421  0.2945 -1.3973
  767MOL0     H 5785   2.311   1.404   9.553 -0.0281 -0.4576 -0.1199
  767MOL0     H 5786   2.421   1.527   9.613  1.3928  0.7862 -1.7473
  767MOL0     H 5787   2.505   1.400   9.395  1.6885 -0.6225 -1.0994
  767MOL0     H 5788   2.527   1.263   9.504 -1.5096  0.4209 -1.6789
  767MOL0     H 5789   2.665   1.455   9.650  2.4615  3.0702 -0.2413
  767MOL0     H 5790   2.743   1.395   9.497 -0.4057  2.3916 -3.9472
  767MOL0     H 5791   2.703   1.655   9.562 -1.6594  1.2309 -0.9989
  767MOL0     H 5792   2.559   1.634   9.472 -1.1361  0.1620  3.2221
  767MOL0     H 5793   2.689   1.532   9.281 -0.9958  0.3060 -0.5843
  767MOL0     H 5794   2.679   1.704   9.301 -1.0635 -0.1512 -0.2639
  767MOL0     H 5795   2.953   1.805   9.296  0.7084  1.0794  2.3245
  767MOL0     H 5796   3.208   1.810   9.244 -0.7800 -2.2071 -0.9370
  767MOL0     H 5797   3.252   1.642   9.241 -5.9202 -1.9833 -1.4884
  767MOL0     H 5798   3.327   1.666   9.491 -1.3651 -0.6131 -0.3365
  767MOL0     H 5799   3.424   1.759   9.390 -0.2702 -0.7638 -1.6123
  767MOL0     H 5800   3.170   1.858   9.546 -0.2708  1.1725  1.0399
  767MOL0     H 5801   3.345   1.890   9.593  0.7718 -0.9065 -1.0308
  767MOL0     H 5802   3.180   2.027   9.375  0.3355  1.0209 -0.4535
  767MOL0     H 5803   3.275   2.096   9.506  1.7693  0.4993 -0.6633
  767MOL0     H 5804   3.438   2.238   9.509  0.3913 -1.0735 -0.4050
  767MOL0     H 5805   3.550   2.432   9.560  1.1381  1.3208 -0.9269
  767MOL0     H 5806   3.702   2.450   9.480 -0.8878  2.6938  1.6617
  767MOL0     H 5807   3.703   2.379   9.642 -1.2716 -2.2469  1.0174
  767MOL0     H 5808   4.106   2.001   9.276  1.9104 -0.7580 -0.9146
  767MOL0     H 5809   4.334   1.986   9.251  0.4729  0.4053 -1.5134
  767MOL0     H 5810   4.561   1.979   9.300  1.3203 -0.1966  0.7482
  767MOL0     H 5811   4.575   2.093   9.162 -2.8489  0.8876  0.5694
  767MOL0     H 5812   4.794   2.005   9.239 -1.1248  1.4170 -3.6709
  767MOL0     H 5813   4.795   2.176   9.237  0.4991  0.1768  1.1723
  767MOL0     H 5814   4.739   2.178   9.485  2.5781  2.2202  1.2806
  767MOL0     H 5815   4.895   2.119   9.432 -0.4102 -1.2801 -2.9112
  767MOL0     H 5816   4.848   1.890   9.471  2.4432  1.7136  1.0113
  767MOL0     H 5817   4.676   1.926   9.509 -0.2727 -1.9598  5.0038
  767MOL0     H 5818   4.933   1.996   9.646 -0.2851 -3.6988 -1.7607
  767MOL0     H 5819   4.777   2.083   9.672  0.3904 -0.6638  1.0503
  767MOL0     H 5820   4.828   1.792   9.735  0.5913  0.3985  0.2033
  767MOL0     H 5821   4.672   1.861   9.733  0.8086 -1.2999 -0.2035
  767MOL0     H 5822   4.698   1.992   9.909 -0.2833 -0.7784  0.2332
  767MOL0     H 5823   4.860   2.028   9.877 -0.9025  0.9557 -0.5509
  767MOL0     H 5824   4.853   1.918  10.070 -1.2013  0.3079 -0.1094
  767MOL0     H 5825   4.909   1.775   9.973 -1.0766 -1.1067 -1.1752
  767MOL0     H 5826   4.372   2.386   9.450  2.0395  0.1458  0.1989
  767MOL0     H 5827   4.141   2.392   9.447  2.2873  1.4036  0.1489
  767MOL0     H 5828   3.834   1.994   9.351  1.2841 -1.9307  3.4726
  767MOL0     H 5829   3.608   1.891   9.313 -0.6261  0.2918 -1.2832
  767MOL0     H 5830   2.029   1.358   9.935  1.2824 -0.2573 -0.2919
  767MOL0     H 5831   1.820   1.256   9.957  0.7335  0.5414 -1.1996
  767MOL0     H 5832   1.612   0.814   9.866  0.9628  0.9027  0.7577
  767MOL0     H 5833   1.394   0.694   9.816 -0.1948 -2.0548  1.2509
  767MOL0     H 5834   0.979   0.721   9.917 -0.4038  0.4760 -3.3310
  767MOL0     H 5835   1.036   0.876   9.984  3.4748  0.2191  0.0960
  767MOL0     H 5836   1.151   0.909   9.759 -0.7761  0.5801 -0.6860
  767MOL0     H 5837   0.975   0.946   9.762 -0.3426 -0.7195 -0.6229
  767MOL0     H 5838   1.077   0.825   9.561 -2.2536  1.8351 -0.3970
  767MOL0     H 5839   1.105   0.693   9.678  0.6581  0.3536  0.7533
  767MOL0     H 5840   0.865   0.658   9.722 -0.6887 -1.3173 -0.8625
  767MOL0     H 5841   0.930   0.630   9.563 -0.7528 -1.2918  0.6001
  767MOL0     H 5842   0.654   0.901   9.436 -1.1920 -3.8302 -0.7764
  767MOL0     H 5843   1.197   0.918  10.097  0.4062 -2.7225  0.7328
  767MOL0     H 5844   1.282   1.130  10.209  0.8342  2.8883  0.6613
  767MOL0     H 5845   1.441   1.107  10.257 -0.1420  2.0897 -0.7401
  767MOL0     H 5846   1.424   1.199  10.119  0.2151  1.3173  0.7983
  768MOL0     O 5847   1.752   3.238   2.195  0.5719  0.3180 -0.4879
  768MOL0     C 5848   1.713   3.129   2.245 -0.2851  0.6898  0.4906
  768MOL0     O 5849   1.735   3.009   2.187  1.2417 -0.4943  0.3642
  768MOL0     C 5850   1.849   2.988   2.118 -0.1214  0.3216  0.0329
  768MOL0     C 5851   1.983   3.026   2.168  0.8719  0.7052  0.4686
  768MOL0     C 5852   2.101   2.997   2.093  0.2440 -0.6038  0.2324
  768MOL0     C 5853   2.090   2.928   1.969  0.0952 -0.4064 -0.8417
  768MOL0     O 5854   2.211   2.897   1.920 -0.5285 -0.0851 -0.1239
  768MOL0     C 5855   2.215   2.831   1.790 -0.6013  1.7112 -0.6011
  768MOL0     C 5856   2.193   2.924   1.671 -0.1744 -0.4921 -0.0699
  768MOL0     C 5857   2.284   3.047   1.680 -0.0391 -0.1678 -0.5169
  768MOL0     C 5858   2.429   3.025   1.686  0.1388  0.6002 -0.3314
  768MOL0     C 5859   2.500   3.167   1.696  0.0262  0.8539 -0.7576
  768MOL0     C 5860   2.650   3.134   1.702  0.3411 -0.1271 -0.9739
  768MOL0     C 5861   2.723   3.265   1.677  0.4128  0.5848 -0.2969
  768MOL0     C 5862   2.716   3.354   1.799  0.3401  0.2868  0.4055
  768MOL0     N 5863   2.803   3.465   1.767 -0.2065 -0.2724  0.4743
  768MOL0     C 5864   2.777   3.563   1.671 -0.4448  0.2495 -0.1518
  768MOL0     C 5865   2.892   3.638   1.662  0.1705  0.1600 -0.8524
  768MOL0     C 5866   2.922   3.747   1.561  0.0611  0.9673  0.0180
  768MOL0     C 5867   3.066   3.783   1.552 -0.0929  0.1052  0.2296
  768MOL0     C 5868   3.089   3.862   1.419  0.8330 -0.6676  0.0720
  768MOL0     C 5869   3.223   3.936   1.413 -0.7904  0.4260 -0.3110
  768MOL0     O 5870   3.332   3.851   1.417  0.0726  0.1757  0.2970
  768MOL0     C 5871   3.463   3.896   1.434 -0.5892 -0.6179 -0.6661
  768MOL0     C 5872   3.506   4.030   1.420  0.1165 -0.5973  0.5188
  768MOL0     C 5873   3.637   4.060   1.444 -0.0746  0.4028  0.0569
  768MOL0     C 5874   3.692   4.209   1.434  0.0538  0.1894 -0.4812
  768MOL0     C 5875   3.734   3.958   1.473  0.6827  0.7331  0.0442
  768MOL0     C 5876   3.869   3.977   1.523  0.2376  0.4496 -0.7270
  768MOL0     O 5877   3.901   4.085   1.594  0.3839 -0.2567 -0.0057
  768MOL0     C 5878   4.028   4.101   1.647  0.3080 -0.1711  0.0796
  768MOL0     C 5879   4.086   4.223   1.618 -0.0577  0.0780 -0.0150
  768MOL0     C 5880   4.212   4.251   1.670  0.0176 -0.1768 -0.2994
  768MOL0     C 5881   4.286   4.154   1.742  0.2202  0.2085 -0.1804
  768MOL0     O 5882   4.413   4.179   1.783  0.4464 -0.1337  0.0556
  768MOL0     C 5883   4.490   4.282   1.722  0.0669  0.0374 -0.2443
  768MOL0     C 5884   4.644   4.288   1.728  0.5825 -0.6570  0.2653
  768MOL0     C 5885   4.693   4.276   1.880 -0.0026  0.3203  0.1005
  768MOL0     C 5886   4.840   4.240   1.879 -0.0604  1.1940 -0.4778
  768MOL0     C 5887   4.896   4.254   2.017  0.1327  0.1864 -0.4376
  768MOL0     C 5888   5.028   4.168   2.042  0.2919 -0.2669  0.1308
  768MOL0     C 5889   5.068   4.161   2.190 -0.1284 -0.3707 -0.4819
  768MOL0     C 5890   5.199   4.084   2.212 -0.7074  0.6084  0.0797
  768MOL0    Cl 5891   5.326   4.196   2.162  0.2387  0.5378 -0.0170
  768MOL0     C 5892   4.224   4.031   1.776  0.4447 -0.4263  0.1228
  768MOL0     C 5893   4.092   4.008   1.730  0.2758 -0.3225 -0.3085
  768MOL0     O 5894   3.947   3.885   1.501  0.6047 -0.6817  0.1495
  768MOL0     C 5895   3.692   3.825   1.458  0.5408 -0.1521  0.4898
  768MOL0     C 5896   3.557   3.794   1.437  0.4593  0.3793  0.9990
  768MOL0     N 5897   2.984   3.581   1.748 -0.8286 -0.4108  0.0782
  768MOL0     N 5898   2.937   3.477   1.808 -0.0525 -0.7950 -0.3597
  768MOL0     C 5899   1.969   2.886   1.928 -0.4579 -0.7308  0.3204
  768MOL0     C 5900   1.849   2.913   1.996 -0.3396  0.4838  0.1240
  768MOL0     C 5901   1.629   3.151   2.365  0.1174 -0.0740 -0.5388
  768MOL0     C 5902   1.580   3.277   2.398  0.1713  0.0531 -0.0343
  768MOL0     C 5903   1.498   3.302   2.513  0.6367  0.6285 -0.1817
  768MOL0     C 5904   1.463   3.183   2.588  0.5031 -0.2493 -0.9171
  768MOL0     O 5905   1.366   3.198   2.692  0.1079  0.3801  0.0507
  768MOL0     C 5906   1.388   3.306   2.780 -0.2883  0.4704 -0.8050
  768MOL0     C 5907   1.333   3.284   2.926  0.7828  0.7352 -0.8002
  768MOL0     C 5908   1.181   3.250   2.935 -0.3731  0.5749  0.4550
  768MOL0     C 5909   1.146   3.208   3.082  0.0357 -0.3781 -0.1734
  768MOL0     C 5910   1.004   3.205   3.108 -0.4282 -0.2730  0.9122
  768MOL0     C 5911   0.885   3.221   3.122 -0.2834  0.2058 -0.3229
  768MOL0     C 5912   1.492   3.055   2.546 -0.0872 -0.7678 -0.3975
  768MOL0     C 5913   1.586   3.037   2.446  0.4572  0.0976  0.2783
  768MOL0     C 5914   1.620   2.899   2.417 -0.1165  0.4001 -0.7442
  768MOL0     H 5915   1.990   3.072   2.266 -1.8568 -0.4353  1.2821
  768MOL0     H 5916   2.203   3.021   2.122  0.0641 -0.1182  0.4548
  768MOL0     H 5917   2.149   2.744   1.788 -0.1586  1.3735 -0.6123
  768MOL0     H 5918   2.310   2.786   1.762 -1.3138 -0.4798  0.3112
  768MOL0     H 5919   2.205   2.869   1.577  1.5823 -1.5259  0.7050
  768MOL0     H 5920   2.092   2.964   1.683  0.7169  1.1276  3.2747
  768MOL0     H 5921   2.266   3.121   1.601  1.5582  1.6447  0.7272
  768MOL0     H 5922   2.266   3.103   1.772  2.5223  0.3178 -0.2476
  768MOL0     H 5923   2.446   2.970   1.779 -3.0691 -0.9562 -0.5490
  768MOL0     H 5924   2.465   2.966   1.602 -1.6341 -0.4197 -0.4084
  768MOL0     H 5925   2.468   3.230   1.779 -0.5009 -0.0737 -0.2445
  768MOL0     H 5926   2.475   3.211   1.598  1.3719 -3.5336 -3.3799
  768MOL0     H 5927   2.681   3.093   1.798  0.6475  1.1758 -0.5053
  768MOL0     H 5928   2.674   3.063   1.622  2.0155  0.3186 -0.9023
  768MOL0     H 5929   2.677   3.316   1.591 -2.2239 -2.0850 -0.6259
  768MOL0     H 5930   2.828   3.249   1.651  0.9114  2.5111  0.3426
  768MOL0     H 5931   2.611   3.383   1.808 -0.4905 -0.5197 -4.2336
  768MOL0     H 5932   2.755   3.296   1.883 -1.2894 -0.6563  0.5551
  768MOL0     H 5933   2.694   3.574   1.603 -0.0263  0.7433 -0.5970
  768MOL0     H 5934   2.866   3.840   1.579 -0.7171  0.2028  1.7280
  768MOL0     H 5935   2.890   3.705   1.465  2.0972  0.1926 -0.3635
  768MOL0     H 5936   3.088   3.843   1.641 -0.0000 -2.6753  2.2164
  768MOL0     H 5937   3.133   3.696   1.555 -1.4272 -0.9249  1.6830
  768MOL0     H 5938   3.080   3.791   1.336 -1.4877 -0.2702 -0.1006
  768MOL0     H 5939   3.013   3.941   1.411  2.8611  1.2802 -1.0592
  768MOL0     H 5940   3.233   3.999   1.325  3.0555  2.4858  1.3533
  768MOL0     H 5941   3.232   4.003   1.499  2.2004  1.4453 -1.3040
  768MOL0     H 5942   3.438   4.113   1.403 -1.4498 -1.3096  2.7878
  768MOL0     H 5943   3.682   4.257   1.531  0.9874 -1.6938  0.6154
  768MOL0     H 5944   3.637   4.271   1.362  2.2834  1.2671 -1.3595
  768MOL0     H 5945   3.798   4.201   1.405 -0.0690 -1.5045 -0.5612
  768MOL0     H 5946   4.032   4.302   1.566 -0.8937 -1.3468 -1.3847
  768MOL0     H 5947   4.267   4.345   1.667  2.7168 -1.6141  0.6387
  768MOL0     H 5948   4.476   4.263   1.615 -0.5697  2.5012 -0.6741
  768MOL0     H 5949   4.455   4.381   1.753 -3.6665 -1.4048  0.6575
  768MOL0     H 5950   4.682   4.205   1.667  0.4718 -0.7250  0.2895
  768MOL0     H 5951   4.670   4.387   1.690 -1.2787  0.2472  1.2185
  768MOL0     H 5952   4.627   4.207   1.933 -1.0047  1.4556  0.3871
  768MOL0     H 5953   4.672   4.375   1.922 -1.2299 -0.4236  1.3629
  768MOL0     H 5954   4.902   4.296   1.808 -0.1936  0.5053 -1.1627
  768MOL0     H 5955   4.850   4.135   1.848  2.4244  1.7729 -1.9272
  768MOL0     H 5956   4.922   4.360   2.030 -0.7404  0.6273 -2.0533
  768MOL0     H 5957   4.817   4.235   2.091 -0.1011 -3.4102 -1.4404
  768MOL0     H 5958   5.111   4.206   1.981 -0.9028  1.4077 -0.5294
  768MOL0     H 5959   5.015   4.065   2.007  2.8865 -1.1429  1.4977
  768MOL0     H 5960   4.977   4.137   2.245 -0.7705  2.0362 -0.3635
  768MOL0     H 5961   5.079   4.263   2.229 -0.3229 -0.1276 -1.0514
  768MOL0     H 5962   5.220   3.993   2.155 -2.5553  2.5051 -3.9933
  768MOL0     H 5963   5.201   4.071   2.321 -0.8470 -0.8686 -0.0782
  768MOL0     H 5964   4.280   3.948   1.817  2.8319  0.0213 -1.9781
  768MOL0     H 5965   4.040   3.913   1.744 -0.4107  0.1917  0.7395
  768MOL0     H 5966   3.765   3.744   1.465  1.0861  0.3858  1.2930
  768MOL0     H 5967   3.533   3.688   1.432 -0.8186  0.6881  0.2268
  768MOL0     H 5968   1.970   2.843   1.828 -0.5340 -0.0674  0.0266
  768MOL0     H 5969   1.764   2.876   1.940 -1.1433 -1.9490  2.6955
  768MOL0     H 5970   1.617   3.362   2.342  3.7982 -2.8205 -2.4808
  768MOL0     H 5971   1.457   3.396   2.547  0.4624  0.0639  1.2568
  768MOL0     H 5972   1.496   3.322   2.787 -0.0103 -1.4851 -0.1378
  768MOL0     H 5973   1.334   3.393   2.742 -1.6298  1.3887  2.8112
  768MOL0     H 5974   1.340   3.374   2.988  2.4701 -0.6587  1.1758
  768MOL0     H 5975   1.400   3.212   2.974 -0.6767  0.5698  1.1295
  768MOL0     H 5976   1.138   3.343   2.897  0.9683 -0.4113 -4.1227
  768MOL0     H 5977   1.160   3.169   2.864 -0.4411  1.4737 -0.5897
  768MOL0     H 5978   1.196   3.279   3.148 -0.9688 -1.1936  1.5408
  768MOL0     H 5979   1.177   3.106   3.109 -0.7024 -0.0591  2.0648
  768MOL0     H 5980   0.779   3.219   3.108 -0.2270 -0.6150 -0.6952
  768MOL0     H 5981   1.455   2.972   2.605  0.5110 -1.0714 -0.4359
  768MOL0     H 5982   1.587   2.858   2.321 -2.7898 -2.1307  1.0772
  768MOL0     H 5983   1.727   2.882   2.431  0.0684  2.0726  0.0512
  768MOL0     H 5984   1.575   2.826   2.486 -3.5703  1.3514 -1.7849
  769MOL0     O 5985   3.138   4.941   8.835  0.2062  0.0205  0.2240
  769MOL0     C 5986   3.132   4.838   8.898  0.0276  0.7970 -0.0709
  769MOL0     O 5987   3.220   4.738   8.891 -0.0462 -0.4220  0.7723
  769MOL0     C 5988   3.301   4.728   8.785  0.3260 -0.7177 -0.3214
  769MOL0     C 5989   3.436   4.750   8.819 -0.8395 -0.3754  0.6396
  769MOL0     C 5990   3.536   4.750   8.719  0.9181 -0.2066 -0.1356
  769MOL0     C 5991   3.496   4.727   8.581 -0.7603 -0.6126 -0.3192
  769MOL0     O 5992   3.595   4.729   8.478  0.1529 -0.3329 -0.0237
  769MOL0     C 5993   3.732   4.702   8.508 -0.3517 -0.2354 -0.4045
  769MOL0     C 5994   3.803   4.667   8.380 -1.5541  0.4590  0.0444
  769MOL0     C 5995   3.838   4.800   8.306  0.2501 -0.7242 -0.4469
  769MOL0     C 5996   3.920   4.769   8.176 -0.4499 -0.1800  0.5755
  769MOL0     C 5997   3.966   4.894   8.106 -0.1441  0.2524  0.7195
  769MOL0     C 5998   4.032   4.853   7.973 -0.5596 -0.9794 -0.5524
  769MOL0     C 5999   4.107   4.970   7.907 -0.5518  0.9365 -0.2177
  769MOL0     C 6000   4.011   5.086   7.880 -0.0548 -0.2851 -0.0814
  769MOL0     N 6001   4.094   5.199   7.845 -0.3526  0.8414 -0.1470
  769MOL0     C 6002   4.176   5.271   7.929 -0.3601 -0.9975 -0.6558
  769MOL0     C 6003   4.254   5.345   7.838  1.7434 -0.5642 -0.7790
  769MOL0     C 6004   4.358   5.447   7.876  0.0059 -0.7159  0.2201
  769MOL0     C 6005   4.474   5.440   7.773  0.5487  0.2351  0.1058
  769MOL0     C 6006   4.586   5.539   7.781  0.8937 -0.7525 -0.1769
  769MOL0     C 6007   4.667   5.529   7.895 -0.4592  0.0885 -0.3054
  769MOL0     O 6008   4.748   5.412   7.904  1.2573  0.1871  0.0584
  769MOL0     C 6009   4.883   5.408   7.880 -0.9786  0.8427 -0.6531
  769MOL0     C 6010   4.967   5.517   7.891 -0.4680  0.3191  0.5991
  769MOL0     C 6011   5.096   5.508   7.842 -0.1553  0.6966  0.8927
  769MOL0     C 6012   5.176   5.634   7.865 -1.0833  0.1160  1.0346
  769MOL0     C 6013   5.147   5.389   7.778 -0.5135  0.0035 -0.3663
  769MOL0     C 6014   5.276   5.373   7.715  0.1267  0.1149 -1.0862
  769MOL0     O 6015   5.314   5.464   7.628 -0.4898 -0.2878  1.0291
  769MOL0     C 6016   5.404   5.427   7.524 -1.6111 -0.0970 -0.7952
  769MOL0     C 6017   5.523   5.506   7.510 -0.0376  0.5750  0.4605
  769MOL0     C 6018   5.612   5.473   7.401 -0.5567 -0.5199 -0.5323
  769MOL0     C 6019   5.589   5.372   7.310  0.1125  0.7877 -0.6700
  769MOL0     O 6020   5.681   5.349   7.213  0.1288  0.2481  0.3023
  769MOL0     C 6021   5.644   5.273   7.099  0.8772 -0.5826 -0.1532
  769MOL0     C 6022   5.687   5.126   7.101  0.2354 -0.5577 -0.8320
  769MOL0     C 6023   5.639   5.051   6.985  0.4454  0.1934 -0.0061
  769MOL0     C 6024   5.715   4.918   6.976  0.8663  0.0459  0.4146
  769MOL0     C 6025   5.654   4.821   6.877 -0.3892 -0.7149  0.2634
  769MOL0     C 6026   5.740   4.692   6.869  0.2937  0.1980 -0.3140
  769MOL0     C 6027   5.680   4.571   6.790  0.1736 -0.1300 -0.0800
  769MOL0     C 6028   5.755   4.440   6.822 -0.2320 -0.6740  0.5418
  769MOL0    Cl 6029   5.916   4.446   6.742  0.1820  0.1867  0.0788
  769MOL0     C 6030   5.473   5.302   7.325 -0.3958  0.3967  0.3391
  769MOL0     C 6031   5.374   5.330   7.423 -0.0262  0.1951  0.2756
  769MOL0     O 6032   5.336   5.271   7.744  0.2201  0.4686 -0.2617
  769MOL0     C 6033   5.058   5.277   7.777  0.2078 -0.5732 -0.0451
  769MOL0     C 6034   4.928   5.291   7.829 -0.3289  0.4457 -0.6224
  769MOL0     N 6035   4.215   5.316   7.713 -0.3565  0.2933 -0.4048
  769MOL0     N 6036   4.112   5.237   7.713 -0.0439 -0.4696 -0.1548
  769MOL0     C 6037   3.366   4.694   8.557 -0.0129  0.7636 -0.0209
  769MOL0     C 6038   3.267   4.690   8.656 -0.0728 -0.2330 -0.0784
  769MOL0     C 6039   3.027   4.812   8.994  0.9742  0.7304 -0.0203
  769MOL0     C 6040   2.989   4.671   9.023 -0.5323 -0.0730  0.2160
  769MOL0     C 6041   2.890   4.637   9.121  0.5243  0.0856 -0.3888
  769MOL0     C 6042   2.810   4.737   9.168  0.2228  0.1031 -0.1013
  769MOL0     O 6043   2.698   4.703   9.243 -0.0610  0.0964  0.1644
  769MOL0     C 6044   2.598   4.804   9.260  0.2066 -0.3902  0.3305
  769MOL0     C 6045   2.469   4.748   9.324  0.0523  1.3952  0.3625
  769MOL0     C 6046   2.475   4.610   9.417  0.3066  0.4760  0.6270
  769MOL0     C 6047   2.352   4.512   9.423 -0.6484  0.6423  0.0100
  769MOL0     C 6048   2.322   4.462   9.290  0.2594  0.2299 -0.2990
  769MOL0     C 6049   2.297   4.411   9.180 -0.4697 -0.3614 -0.0828
  769MOL0     C 6050   2.842   4.869   9.144  0.3683  0.6635 -0.1481
  769MOL0     C 6051   2.952   4.910   9.064  0.6435  0.3824 -0.3031
  769MOL0     C 6052   2.979   5.061   9.049  0.0032 -0.0523  0.6872
  769MOL0     H 6053   3.468   4.771   8.921 -1.8315 -0.7467  1.0470
  769MOL0     H 6054   3.637   4.777   8.749  0.6091  1.0832 -0.1662
  769MOL0     H 6055   3.735   4.621   8.581 -1.9409 -0.1233 -0.1845
  769MOL0     H 6056   3.766   4.800   8.544  2.4593  0.4613 -4.2917
  769MOL0     H 6057   3.902   4.626   8.401 -2.3723 -0.4254  2.5091
  769MOL0     H 6058   3.749   4.604   8.308  3.2407 -2.2963 -1.5871
  769MOL0     H 6059   3.741   4.842   8.278  1.6255  0.3162 -4.2812
  769MOL0     H 6060   3.900   4.873   8.359 -0.6922 -0.0456 -0.2459
  769MOL0     H 6061   4.006   4.710   8.209  0.1071  1.0526  1.4252
  769MOL0     H 6062   3.852   4.705   8.120 -0.5100  1.2428 -1.0622
  769MOL0     H 6063   4.033   4.949   8.173 -0.9619  0.3335  1.4861
  769MOL0     H 6064   3.882   4.960   8.086 -0.8757 -0.7637  0.3550
  769MOL0     H 6065   4.112   4.781   7.995 -1.2057 -1.9571 -1.3068
  769MOL0     H 6066   3.967   4.815   7.895 -0.1897  1.6997 -2.3074
  769MOL0     H 6067   4.135   4.932   7.809 -2.2351 -0.4814 -0.1946
  769MOL0     H 6068   4.193   4.991   7.971 -2.0348  0.1768  2.1790
  769MOL0     H 6069   3.931   5.061   7.810 -1.6498 -2.2397  2.2671
  769MOL0     H 6070   3.962   5.125   7.971 -1.0027 -2.9353  0.6338
  769MOL0     H 6071   4.183   5.258   8.037  0.4665 -0.0379 -0.5876
  769MOL0     H 6072   4.400   5.416   7.972  1.3120 -1.6960 -0.6376
  769MOL0     H 6073   4.317   5.546   7.898 -0.2969 -1.3775  3.0132
  769MOL0     H 6074   4.517   5.340   7.784 -1.0379 -0.6114 -1.0125
  769MOL0     H 6075   4.422   5.437   7.677  1.9765 -0.7770 -0.6689
  769MOL0     H 6076   4.652   5.518   7.696  1.4238 -0.7167  0.2246
  769MOL0     H 6077   4.539   5.638   7.781  0.0230 -1.1086  2.4301
  769MOL0     H 6078   4.717   5.625   7.911 -1.9173  0.5451  2.1546
  769MOL0     H 6079   4.604   5.524   7.985  0.1530 -2.5372  0.0510
  769MOL0     H 6080   4.928   5.609   7.932  0.3106 -0.4802  3.3267
  769MOL0     H 6081   5.264   5.617   7.927  0.1346  0.3523 -0.5686
  769MOL0     H 6082   5.121   5.722   7.901 -1.0318  0.4254  0.3691
  769MOL0     H 6083   5.209   5.676   7.770 -2.4164  0.7803  0.8338
  769MOL0     H 6084   5.551   5.587   7.576 -1.2881  0.9591  0.5335
  769MOL0     H 6085   5.707   5.523   7.384 -1.9471  1.7755 -2.1353
  769MOL0     H 6086   5.535   5.273   7.092  0.7403  1.5240  1.0934
  769MOL0     H 6087   5.667   5.322   7.004 -0.7131 -0.3807 -0.4667
  769MOL0     H 6088   5.796   5.122   7.107  0.2713  0.5878 -0.2385
  769MOL0     H 6089   5.645   5.080   7.191  3.2746  0.3014  1.1811
  769MOL0     H 6090   5.667   5.103   6.892 -4.1754 -1.0544 -2.4064
  769MOL0     H 6091   5.531   5.035   6.983  0.3565  0.5308  1.4730
  769MOL0     H 6092   5.694   4.880   7.076 -0.5720 -0.7635 -0.1576
  769MOL0     H 6093   5.817   4.931   6.938 -0.3381  1.4963 -2.6606
  769MOL0     H 6094   5.549   4.798   6.901 -1.4758  3.1355 -0.1343
  769MOL0     H 6095   5.656   4.861   6.776  1.2639  1.0056  0.9406
  769MOL0     H 6096   5.770   4.656   6.968  2.3267 -0.3190 -1.0687
  769MOL0     H 6097   5.843   4.715   6.842  0.5527  1.0569  1.2813
  769MOL0     H 6098   5.681   4.589   6.682  0.1850  1.0591  0.1099
  769MOL0     H 6099   5.577   4.556   6.822  0.0635  0.2357 -0.2628
  769MOL0     H 6100   5.704   4.357   6.771 -1.2909  0.0046  0.4553
  769MOL0     H 6101   5.767   4.419   6.928 -2.0532  1.2285  1.1924
  769MOL0     H 6102   5.438   5.232   7.251 -0.7710  2.0581 -1.1340
  769MOL0     H 6103   5.284   5.271   7.415 -0.0190 -0.0317  1.6676
  769MOL0     H 6104   5.092   5.184   7.733  1.2779  0.2072 -0.9155
  769MOL0     H 6105   4.849   5.217   7.824  0.2161 -0.1666 -0.3388
  769MOL0     H 6106   3.347   4.661   8.456  2.3673  0.0171 -0.2747
  769MOL0     H 6107   3.165   4.661   8.631 -0.6737  0.6064  1.2864
  769MOL0     H 6108   3.029   4.587   8.967 -2.8435 -2.3731  1.7707
  769MOL0     H 6109   2.864   4.535   9.149 -0.6827  0.4248 -0.2120
  769MOL0     H 6110   2.640   4.876   9.331  1.4550 -1.9788  1.2659
  769MOL0     H 6111   2.577   4.862   9.169  4.4972  0.4139 -0.3658
  769MOL0     H 6112   2.400   4.737   9.239  0.1327  0.5937  0.3889
  769MOL0     H 6113   2.432   4.828   9.388  1.2588  1.1841  1.3605
  769MOL0     H 6114   2.562   4.550   9.391 -1.1216 -0.3460 -2.7640
  769MOL0     H 6115   2.496   4.642   9.520  0.4297  0.4391  0.6129
  769MOL0     H 6116   2.260   4.563   9.451 -2.7812 -2.1142 -1.5047
  769MOL0     H 6117   2.359   4.425   9.489 -5.2193  0.1639  0.2031
  769MOL0     H 6118   2.285   4.365   9.084 -2.8272  0.9609 -0.5123
  769MOL0     H 6119   2.788   4.946   9.197  0.7515  0.6460  0.2697
  769MOL0     H 6120   2.934   5.091   8.953  1.2286 -2.2268 -0.6547
  769MOL0     H 6121   2.928   5.112   9.131  1.1698  2.2262  0.0796
  769MOL0     H 6122   3.087   5.079   9.057  0.0441  0.8210 -1.1961
  770MOL0     O 6123   6.622   9.682   5.461  0.2606  0.2798  0.3282
  770MOL0     C 6124   6.518   9.702   5.399  0.0359 -0.0395  0.0944
  770MOL0     O 6125   6.503   9.795   5.302 -0.1708  0.6807  0.1689
  770MOL0     C 6126   6.613   9.862   5.258 -0.2079 -0.1368  0.4797
  770MOL0     C 6127   6.693   9.815   5.147  0.6873 -0.1170 -0.2167
  770MOL0     C 6128   6.803   9.877   5.103 -0.2948 -0.3396  0.1857
  770MOL0     C 6129   6.848   9.994   5.169  0.1594  0.6565  0.8120
  770MOL0     O 6130   6.963  10.052   5.121  0.3603  0.4548  0.3056
  770MOL0     C 6131   7.018  10.165   5.184  0.8748 -0.3152 -0.2038
  770MOL0     C 6132   7.142  10.216   5.098 -0.3722 -0.4102  0.7988
  770MOL0     C 6133   7.272  10.131   5.116 -1.2522  0.4465 -0.1593
  770MOL0     C 6134   7.382  10.181   5.024 -0.8220 -0.1085 -0.6021
  770MOL0     C 6135   7.526  10.151   5.075 -0.6396  0.1715 -0.1338
  770MOL0     C 6136   7.632  10.177   4.963 -0.4408 -0.1169  0.7652
  770MOL0     C 6137   7.773  10.139   5.013 -0.1610  0.2766  0.1082
  770MOL0     C 6138   7.874  10.174   4.893  0.4788 -0.1064 -0.1634
  770MOL0     N 6139   8.009  10.143   4.935 -0.4940 -0.4856  0.2464
  770MOL0     C 6140   8.113  10.123   4.854  0.1616 -0.0105  0.5212
  770MOL0     C 6141   8.215  10.117   4.939  0.0111 -0.8208 -1.3385
  770MOL0     C 6142   8.350  10.108   4.882  0.5696 -0.2083 -1.5020
  770MOL0     C 6143   8.454  10.109   4.994 -0.6328  0.4790 -0.8462
  770MOL0     C 6144   8.597  10.128   4.927 -0.4843 -0.2667 -0.7356
  770MOL0     C 6145   8.718  10.136   5.022  0.3933 -0.7201  0.2283
  770MOL0     O 6146   8.837  10.112   4.940  0.5066  0.6359 -0.6082
  770MOL0     C 6147   8.959  10.118   5.008 -0.4621  0.3611  0.1899
  770MOL0     C 6148   8.987  10.208   5.112 -0.3696 -0.0407 -0.4123
  770MOL0     C 6149   9.118  10.236   5.163  0.6084  0.1844  1.2140
  770MOL0     C 6150   9.126  10.354   5.261 -0.8044  0.1097  0.4047
  770MOL0     C 6151   9.227  10.163   5.114  1.0327 -0.0377 -0.0827
  770MOL0     C 6152   9.371  10.194   5.126  0.5856 -0.2808 -0.4462
  770MOL0     O 6153   9.457  10.097   5.110  0.1507 -0.1259 -0.2872
  770MOL0     C 6154   9.588  10.115   5.150 -0.5022  0.6076 -0.3263
  770MOL0     C 6155   9.624  10.129   5.280 -0.0918 -0.1938 -1.1720
  770MOL0     C 6156   9.761  10.158   5.310  1.2094  0.3042 -0.4722
  770MOL0     C 6157   9.856  10.181   5.211 -0.6265  0.0012  0.3949
  770MOL0     O 6158   9.984  10.214   5.242 -0.8302  0.3375  0.3141
  770MOL0     C 6159  10.016  10.290   5.365  0.0662 -0.6402 -0.2014
  770MOL0     C 6160  10.160  10.335   5.373  0.3792  0.2577 -0.3094
  770MOL0     C 6161  10.169  10.458   5.284  0.6131  0.1190 -0.3751
  770MOL0     C 6162  10.314  10.500   5.259 -0.2530  0.3614  0.3722
  770MOL0     C 6163  10.327  10.639   5.203  0.6455  0.0079  0.1923
  770MOL0     C 6164  10.460  10.659   5.117  0.5094 -0.6599 -0.1149
  770MOL0     C 6165  10.578  10.678   5.214  0.4883  0.3593 -0.8679
  770MOL0     C 6166  10.699  10.725   5.145  0.1297  0.4575  0.4210
  770MOL0    Cl 6167  10.798  10.590   5.079  0.0770  0.1631 -0.0775
  770MOL0     C 6168   9.815  10.167   5.074  0.8421 -0.2436  0.2484
  770MOL0     C 6169   9.677  10.133   5.049 -1.1834  0.4210  0.5558
  770MOL0     O 6170   9.394  10.313   5.151 -0.6393  0.6994 -0.0515
  770MOL0     C 6171   9.199  10.059   5.026 -0.2114 -0.6043  0.7440
  770MOL0     C 6172   9.068  10.045   4.969 -0.6212 -0.3547 -0.2258
  770MOL0     N 6173   8.177  10.133   5.072  0.1751 -0.7416 -0.0137
  770MOL0     N 6174   8.048  10.144   5.063 -0.2039 -0.0974  0.3520
  770MOL0     C 6175   6.770  10.044   5.277 -0.9306 -0.2936 -0.1899
  770MOL0     C 6176   6.651   9.981   5.319 -0.6875 -0.1140  0.3889
  770MOL0     C 6177   6.393   9.636   5.436  0.5694 -0.1392  0.2488
  770MOL0     C 6178   6.269   9.707   5.414 -0.4440 -0.8471 -0.3005
  770MOL0     C 6179   6.150   9.649   5.450  0.4457 -0.4364 -0.2065
  770MOL0     C 6180   6.143   9.531   5.523  0.2751  0.1783  0.3398
  770MOL0     O 6181   6.023   9.476   5.549  0.0016  0.4218  0.6089
  770MOL0     C 6182   6.018   9.341   5.511 -0.1539 -0.1994 -0.7154
  770MOL0     C 6183   6.035   9.311   5.354  0.6791  0.4087 -0.2020
  770MOL0     C 6184   5.944   9.395   5.264 -0.7640 -0.0246  1.0107
  770MOL0     C 6185   5.989   9.354   5.120  0.2548  0.0370 -0.0281
  770MOL0     C 6186   5.890   9.408   5.026  0.6633 -0.3699 -0.2003
  770MOL0     C 6187   5.817   9.449   4.937  0.7426 -0.1165  1.2193
  770MOL0     C 6188   6.261   9.472   5.555  0.6836 -0.4237  0.0436
  770MOL0     C 6189   6.383   9.512   5.502 -0.3174 -0.2869  0.0081
  770MOL0     C 6190   6.512   9.433   5.531 -0.1918  0.0847  0.1430
  770MOL0     H 6191   6.664   9.722   5.098  0.7221 -0.6248  0.7022
  770MOL0     H 6192   6.859   9.829   5.024 -1.4065 -0.3605 -0.6098
  770MOL0     H 6193   7.055  10.143   5.284  2.1061 -0.3475 -0.6454
  770MOL0     H 6194   6.947  10.249   5.179  2.2504  0.8579 -3.1089
  770MOL0     H 6195   7.115  10.215   4.992  0.5360  0.4023  0.5489
  770MOL0     H 6196   7.174  10.317   5.125  0.6407  0.1592 -2.1473
  770MOL0     H 6197   7.298  10.141   5.222 -0.8390 -3.8271  0.3425
  770MOL0     H 6198   7.251  10.025   5.098 -2.5573  0.4403  1.1896
  770MOL0     H 6199   7.368  10.136   4.926  0.1809 -0.5675 -0.5402
  770MOL0     H 6200   7.369  10.290   5.024  0.4713  0.0616 -0.5773
  770MOL0     H 6201   7.537  10.043   5.094 -1.0475 -0.0417 -1.0408
  770MOL0     H 6202   7.561  10.204   5.164  2.7499  0.3070 -1.3760
  770MOL0     H 6203   7.603  10.116   4.878  0.4090 -1.3836  1.3564
  770MOL0     H 6204   7.633  10.282   4.933  1.2155 -0.2492  0.2965
  770MOL0     H 6205   7.780  10.035   5.044  0.3060  0.8490  2.0237
  770MOL0     H 6206   7.782  10.196   5.106 -0.4627 -0.9004  0.8821
  770MOL0     H 6207   7.852  10.124   4.798  1.4550  0.2820 -0.6134
  770MOL0     H 6208   7.877  10.282   4.877  3.7812 -0.4851 -3.3961
  770MOL0     H 6209   8.112  10.108   4.747  0.8195 -2.6448  0.8114
  770MOL0     H 6210   8.362  10.180   4.801  0.2372  0.6026 -0.8423
  770MOL0     H 6211   8.356  10.011   4.832 -0.7302 -0.0385 -2.0388
  770MOL0     H 6212   8.440  10.195   5.060  0.0299  0.4116 -0.6049
  770MOL0     H 6213   8.449  10.019   5.055 -4.4229 -0.5947 -2.4920
  770MOL0     H 6214   8.610  10.039   4.863  0.3002  0.5492 -1.7371
  770MOL0     H 6215   8.592  10.217   4.864 -0.7305  1.1314  1.2038
  770MOL0     H 6216   8.734  10.231   5.074 -0.1026 -0.9102  0.7419
  770MOL0     H 6217   8.708  10.061   5.101  1.1279 -1.3902 -0.2960
  770MOL0     H 6218   8.903  10.270   5.142 -0.6284  0.2084 -1.6255
  770MOL0     H 6219   9.147  10.445   5.203  0.9540 -0.5289 -0.0257
  770MOL0     H 6220   9.199  10.347   5.342 -0.9812 -0.3257  0.5286
  770MOL0     H 6221   9.026  10.367   5.303 -1.5320  1.6878 -1.6324
  770MOL0     H 6222   9.554  10.125   5.363 -0.3703  0.0774 -1.3858
  770MOL0     H 6223   9.788  10.174   5.414 -0.9543  1.4491 -0.0234
  770MOL0     H 6224   9.954  10.380   5.373 -0.2393 -0.9630  1.4388
  770MOL0     H 6225  10.007  10.225   5.453 -0.7387 -0.0978  0.1253
  770MOL0     H 6226  10.190  10.360   5.475 -1.9104 -0.5615  0.6364
  770MOL0     H 6227  10.220  10.254   5.329 -0.1549 -2.2990  3.1820
  770MOL0     H 6228  10.129  10.540   5.345  0.8527 -0.0351 -0.0037
  770MOL0     H 6229  10.120  10.446   5.187  4.7950  0.1347 -2.7178
  770MOL0     H 6230  10.353  10.427   5.188 -3.7578 -1.0178 -0.3578
  770MOL0     H 6231  10.378  10.501   5.348  1.7986  1.2140 -1.0437
  770MOL0     H 6232  10.241  10.670   5.143  2.2882  2.2065 -1.2034
  770MOL0     H 6233  10.320  10.711   5.286 -0.1838 -0.5508  0.6171
  770MOL0     H 6234  10.449  10.748   5.054  0.5615  0.2808  1.1675
  770MOL0     H 6235  10.477  10.565   5.065 -2.8907 -2.7558  2.1602
  770MOL0     H 6236  10.605  10.578   5.252 -0.8809  0.7291  1.2367
  770MOL0     H 6237  10.557  10.749   5.294  1.6469  1.5206 -1.5450
  770MOL0     H 6238  10.761  10.786   5.212  0.4178  0.0093  0.5682
  770MOL0     H 6239  10.669  10.787   5.060  1.1319 -2.3604 -2.1498
  770MOL0     H 6240   9.889  10.182   4.995 -1.8611  1.1656 -2.2146
  770MOL0     H 6241   9.635  10.122   4.949  0.7956 -0.3317 -0.2455
  770MOL0     H 6242   9.285  10.007   4.986  0.8037  0.2164  1.8101
  770MOL0     H 6243   9.055   9.971   4.890  2.1933 -1.1406 -0.0544
  770MOL0     H 6244   6.794  10.137   5.327 -1.5685 -0.2948  0.1351
  770MOL0     H 6245   6.587  10.010   5.401 -0.0342  1.2203  0.4574
  770MOL0     H 6246   6.259   9.803   5.366  0.7996 -1.2514 -1.4331
  770MOL0     H 6247   6.053   9.694   5.427 -1.3998 -4.3635 -0.8616
  770MOL0     H 6248   6.096   9.278   5.554  1.8623  0.6050 -2.9862
  770MOL0     H 6249   5.919   9.305   5.542  0.3859 -0.3589  0.8813
  770MOL0     H 6250   6.014   9.204   5.338  2.3538  0.2542 -1.8210
  770MOL0     H 6251   6.141   9.316   5.327  0.7740  0.8603  0.2531
  770MOL0     H 6252   5.838   9.374   5.280 -1.1144  1.0856  0.2523
  770MOL0     H 6253   5.974   9.499   5.280 -1.6527  0.3709  0.2034
  770MOL0     H 6254   6.004   9.246   5.115  1.9037  0.2099  0.6822
  770MOL0     H 6255   6.088   9.395   5.097  0.1656 -0.0147 -0.5163
  770MOL0     H 6256   5.748   9.500   4.873 -1.3370 -0.5131  3.0407
  770MOL0     H 6257   6.270   9.372   5.597 -1.3379 -0.1058  1.3729
  770MOL0     H 6258   6.484   9.328   5.544 -0.7148  0.2039  0.0055
  770MOL0     H 6259   6.593   9.447   5.459  0.8299  1.4150  1.4756
  770MOL0     H 6260   6.556   9.478   5.621 -2.1941  2.4807  0.0595
  771MOL0     O 6261   7.936   9.465   0.286  0.0351 -0.3511  0.2245
  771MOL0     C 6262   7.941   9.379   0.376 -0.3054  0.7865 -0.0674
  771MOL0     O 6263   8.039   9.286   0.392  0.2654  0.1623 -0.4273
  771MOL0     C 6264   8.165   9.324   0.353 -0.0495 -0.0711  0.6301
  771MOL0     C 6265   8.275   9.322   0.438 -0.2194  0.3900 -0.3847
  771MOL0     C 6266   8.404   9.310   0.388 -0.2938 -0.6769  0.4454
  771MOL0     C 6267   8.438   9.307   0.255  0.3342 -0.3877  0.3416
  771MOL0     O 6268   8.567   9.319   0.216  0.1981  0.5890  0.6702
  771MOL0     C 6269   8.589   9.405   0.098 -0.7940 -0.1960 -0.8361
  771MOL0     C 6270   8.740   9.389   0.059  0.4207  0.4689 -0.1160
  771MOL0     C 6271   8.773   9.257  -0.007  0.6333  0.6770  1.0380
  771MOL0     C 6272   8.919   9.222  -0.020 -0.8649 -0.8184 -0.5835
  771MOL0     C 6273   8.955   9.124  -0.129 -0.0342  0.0758  0.1706
  771MOL0     C 6274   9.107   9.090  -0.115 -0.2517  0.1247  0.3103
  771MOL0     C 6275   9.166   8.996  -0.216  0.0572  1.1052 -0.4032
  771MOL0     C 6276   9.143   9.043  -0.359  0.5453  0.7395 -0.4385
  771MOL0     N 6277   9.206   9.162  -0.394  0.2453 -0.3918 -0.6267
  771MOL0     C 6278   9.183   9.238  -0.502 -0.2402 -0.4300  0.1494
  771MOL0     C 6279   9.288   9.329  -0.505  0.8455  0.4710  0.1073
  771MOL0     C 6280   9.301   9.430  -0.617  0.4758 -1.0232  0.1871
  771MOL0     C 6281   9.336   9.374  -0.752 -0.8838 -0.1732 -0.0253
  771MOL0     C 6282   9.481   9.324  -0.761 -0.8166 -0.2038  0.2091
  771MOL0     C 6283   9.490   9.170  -0.746 -0.4381  0.3757  0.0727
  771MOL0     O 6284   9.630   9.133  -0.769 -0.1376 -0.7449  0.0588
  771MOL0     C 6285   9.726   9.160  -0.670  0.0967 -0.3889 -0.3529
  771MOL0     C 6286   9.693   9.180  -0.538 -0.0972  0.0343 -0.8618
  771MOL0     C 6287   9.797   9.216  -0.451  0.3570  0.1463  0.3156
  771MOL0     C 6288   9.770   9.215  -0.305 -0.5882  1.2372  0.0895
  771MOL0     C 6289   9.933   9.243  -0.502  0.3274 -0.7299 -0.2083
  771MOL0     C 6290  10.048   9.281  -0.423  0.6748  0.8135 -0.1138
  771MOL0     O 6291  10.159   9.212  -0.455  1.0999  0.6637 -0.8479
  771MOL0     C 6292  10.267   9.229  -0.376 -0.4620  0.7183  0.1516
  771MOL0     C 6293  10.271   9.199  -0.237 -0.2006  0.1715 -0.3787
  771MOL0     C 6294  10.398   9.215  -0.168  0.1855 -0.0628 -0.6835
  771MOL0     C 6295  10.515   9.252  -0.241  0.4799 -0.0898 -0.4116
  771MOL0     O 6296  10.634   9.259  -0.168 -0.9180  0.0130 -0.2691
  771MOL0     C 6297  10.700   9.382  -0.158 -0.0035 -0.1282 -0.1510
  771MOL0     C 6298  10.818   9.354  -0.060 -0.0228  0.5942 -0.1140
  771MOL0     C 6299  10.897   9.486  -0.016 -0.3705  1.1047  0.7789
  771MOL0     C 6300  11.025   9.463   0.070  0.5606 -0.4882  0.1500
  771MOL0     C 6301  11.080   9.607   0.095 -0.2024 -0.3679  0.3546
  771MOL0     C 6302  11.216   9.604   0.156 -0.7228  0.7563  0.2246
  771MOL0     C 6303  11.253   9.758   0.165  0.1295 -0.5345  0.5787
  771MOL0     C 6304  11.377   9.796   0.248 -0.7028 -0.2847  0.1019
  771MOL0    Cl 6305  11.512   9.676   0.201  0.4070  0.1995  0.2715
  771MOL0     C 6306  10.504   9.291  -0.374 -0.5731 -0.2016  0.0748
  771MOL0     C 6307  10.383   9.280  -0.441 -0.4506  0.5811 -0.3509
  771MOL0     O 6308  10.028   9.354  -0.328 -0.2546 -0.8975  0.3939
  771MOL0     C 6309   9.960   9.202  -0.637  0.1924 -0.3908 -0.1149
  771MOL0     C 6310   9.856   9.156  -0.718 -0.6158 -0.3108  0.0830
  771MOL0     N 6311   9.365   9.311  -0.391  0.4673  0.6850 -0.0276
  771MOL0     N 6312   9.320   9.207  -0.336 -0.0102 -0.6692  0.5393
  771MOL0     C 6313   8.324   9.309   0.163 -0.6557  0.0670 -0.2344
  771MOL0     C 6314   8.192   9.314   0.217 -0.7107 -0.0372  0.3383
  771MOL0     C 6315   7.806   9.350   0.450 -0.5791  0.7577 -0.1066
  771MOL0     C 6316   7.695   9.424   0.409  0.9359 -0.1212  0.2357
  771MOL0     C 6317   7.576   9.400   0.477  0.4207 -0.1493 -0.5510
  771MOL0     C 6318   7.553   9.301   0.570 -0.1030  0.4009  0.2450
  771MOL0     O 6319   7.427   9.284   0.614 -0.0176  0.0904  0.8630
  771MOL0     C 6320   7.400   9.160   0.685  1.1900  0.4815 -1.2877
  771MOL0     C 6321   7.252   9.167   0.686  0.3244  0.0265  0.0255
  771MOL0     C 6322   7.195   9.140   0.547  0.7535  0.0115 -0.3155
  771MOL0     C 6323   7.042   9.109   0.549 -0.2140 -0.1821  0.0136
  771MOL0     C 6324   6.970   9.219   0.614  0.2641 -0.3131  0.3801
  771MOL0     C 6325   6.881   9.300   0.647 -1.1217 -0.3628 -1.1085
  771MOL0     C 6326   7.664   9.233   0.615 -0.4047 -0.4623  0.0060
  771MOL0     C 6327   7.789   9.256   0.555  0.6073 -0.3398  0.1770
  771MOL0     C 6328   7.899   9.173   0.616 -0.5652  1.2587  0.5654
  771MOL0     H 6329   8.267   9.324   0.547  1.7246  1.8382 -0.2053
  771MOL0     H 6330   8.482   9.308   0.463 -1.7914 -2.2676  2.0668
  771MOL0     H 6331   8.581   9.510   0.128  3.7363  0.6027 -1.6428
  771MOL0     H 6332   8.525   9.379   0.013 -4.2877  2.5102  0.7436
  771MOL0     H 6333   8.754   9.469  -0.014  0.2708  0.1695 -0.4800
  771MOL0     H 6334   8.800   9.407   0.149 -1.9957  0.7057  1.5688
  771MOL0     H 6335   8.731   9.168   0.041  1.0230 -1.1038 -1.6790
  771MOL0     H 6336   8.748   9.268  -0.113  0.7739  0.1199  0.9430
  771MOL0     H 6337   8.974   9.316  -0.030 -1.4465 -0.3478  0.3899
  771MOL0     H 6338   8.953   9.172   0.072 -0.0836 -3.6545 -2.3023
  771MOL0     H 6339   8.932   9.164  -0.229  0.4280 -0.5811 -0.2083
  771MOL0     H 6340   8.894   9.034  -0.122 -0.4376  0.4859  2.6337
  771MOL0     H 6341   9.169   9.180  -0.112  2.3561 -1.5682  0.8474
  771MOL0     H 6342   9.123   9.044  -0.017  0.7344  0.0348  0.1181
  771MOL0     H 6343   9.121   8.897  -0.204  1.4959  0.5447  0.6516
  771MOL0     H 6344   9.273   8.977  -0.201  0.2438  1.3706 -1.3437
  771MOL0     H 6345   9.173   8.961  -0.425 -2.4759 -1.9624  1.2729
  771MOL0     H 6346   9.038   9.060  -0.382  0.0971  0.8355  1.5387
  771MOL0     H 6347   9.103   9.235  -0.576 -0.9894 -2.9212  0.9511
  771MOL0     H 6348   9.374   9.506  -0.588 -0.5196 -0.2183  0.6421
  771MOL0     H 6349   9.202   9.476  -0.625  1.1962  0.5662 -0.0298
  771MOL0     H 6350   9.265   9.293  -0.771 -1.1654 -0.2398  1.1990
  771MOL0     H 6351   9.322   9.451  -0.827  1.0004 -0.3872 -0.6535
  771MOL0     H 6352   9.516   9.355  -0.860 -1.7374  2.2363  0.5742
  771MOL0     H 6353   9.554   9.369  -0.692  1.4036 -1.7112 -1.0209
  771MOL0     H 6354   9.465   9.139  -0.644  0.2650 -2.6768 -0.5841
  771MOL0     H 6355   9.420   9.119  -0.812 -1.3724  2.5089 -0.6502
  771MOL0     H 6356   9.596   9.172  -0.490  0.3203  4.0513  1.0581
  771MOL0     H 6357   9.677   9.159  -0.292  0.0250  0.3868  0.9055
  771MOL0     H 6358   9.764   9.308  -0.246 -0.2338 -0.6605  3.3707
  771MOL0     H 6359   9.854   9.156  -0.267  0.0457  1.7436 -0.5017
  771MOL0     H 6360  10.183   9.153  -0.193 -1.0488 -1.6252 -3.6034
  771MOL0     H 6361  10.405   9.193  -0.061  1.0572  0.8242 -0.5351
  771MOL0     H 6362  10.720   9.418  -0.259 -1.7735  2.9522  0.4738
  771MOL0     H 6363  10.638   9.460  -0.113 -1.0169 -0.4880 -0.9135
  771MOL0     H 6364  10.777   9.300   0.025  1.7297 -2.3025 -0.9714
  771MOL0     H 6365  10.889   9.285  -0.107 -1.8326 -0.6403 -1.1540
  771MOL0     H 6366  10.820   9.545   0.035  0.3051  0.5142  2.5817
  771MOL0     H 6367  10.918   9.543  -0.107  2.6705 -1.1696 -0.1298
  771MOL0     H 6368  11.094   9.404   0.009  0.7549 -1.1596  1.0016
  771MOL0     H 6369  11.006   9.408   0.163 -1.1371 -2.5559 -1.3286
  771MOL0     H 6370  11.097   9.643  -0.007  1.1274 -1.5565  0.1189
  771MOL0     H 6371  11.005   9.662   0.152  2.8461  0.7955  3.5612
  771MOL0     H 6372  11.294   9.553   0.100 -0.3941 -0.5795  1.8112
  771MOL0     H 6373  11.201   9.551   0.251 -2.5855 -0.7434 -0.8227
  771MOL0     H 6374  11.183   9.813   0.229  2.6412  1.2787  1.9301
  771MOL0     H 6375  11.267   9.807   0.069 -0.1518 -1.9663 -0.2266
  771MOL0     H 6376  11.354   9.784   0.354  0.3744 -1.3860  0.2402
  771MOL0     H 6377  11.400   9.900   0.223  0.5642 -0.7582 -0.8515
  771MOL0     H 6378  10.586   9.323  -0.437  1.0405 -0.2647  2.0417
  771MOL0     H 6379  10.377   9.290  -0.549 -0.9649  2.2129 -0.1995
  771MOL0     H 6380  10.059   9.205  -0.681 -0.3212  2.3136 -1.2809
  771MOL0     H 6381   9.879   9.137  -0.823 -1.6153 -0.4431 -0.1211
  771MOL0     H 6382   8.337   9.300   0.055  0.3355 -0.2554 -0.1011
  771MOL0     H 6383   8.111   9.317   0.145 -0.3308  0.3801 -0.0857
  771MOL0     H 6384   7.698   9.514   0.349  1.5569 -0.1785  0.1780
  771MOL0     H 6385   7.491   9.464   0.460  0.2711 -1.0235 -3.7930
  771MOL0     H 6386   7.429   9.076   0.621 -1.4679 -0.5411 -1.2514
  771MOL0     H 6387   7.439   9.149   0.787  2.9089 -0.0937 -1.9722
  771MOL0     H 6388   7.210   9.258   0.728 -0.4506 -0.3700  0.1360
  771MOL0     H 6389   7.203   9.088   0.744 -1.4820  1.0489 -0.0493
  771MOL0     H 6390   7.206   9.223   0.477  0.6633  1.7935  1.6701
  771MOL0     H 6391   7.249   9.055   0.504 -2.5794 -1.4174 -2.0429
  771MOL0     H 6392   7.035   9.017   0.607  0.8519  0.1586  0.7102
  771MOL0     H 6393   6.999   9.097   0.449  0.3630 -2.2283 -0.0463
  771MOL0     H 6394   6.798   9.359   0.682  2.4061  2.2827  4.1947
  771MOL0     H 6395   7.648   9.158   0.692 -2.4534 -1.2786 -1.1270
  771MOL0     H 6396   7.915   9.084   0.555  0.0260 -2.8927  6.0856
  771MOL0     H 6397   7.986   9.233   0.645 -1.8499  1.9663  3.2451
  771MOL0     H 6398   7.872   9.130   0.712  2.8556 -0.5801  0.8799
  772MOL0     O 6399   9.308  10.344   2.251 -0.7314  0.1333 -0.3877
  772MOL0     C 6400   9.200  10.327   2.190  0.3560  0.0328  0.4098
  772MOL0     O 6401   9.181  10.240   2.086 -0.0323 -0.7399 -0.2025
  772MOL0     C 6402   9.309  10.187   2.053 -0.5928 -0.3437  0.1315
  772MOL0     C 6403   9.402  10.249   1.963 -0.0794 -0.0716  0.5170
  772MOL0     C 6404   9.522  10.186   1.927  0.1205  0.5412 -0.2903
  772MOL0     C 6405   9.559  10.062   1.974  0.5587 -0.4030 -0.3285
  772MOL0     O 6406   9.663   9.987   1.943  0.2585  0.4967 -0.5582
  772MOL0     C 6407   9.683   9.964   1.801  0.2236  0.4093 -0.3374
  772MOL0     C 6408   9.836   9.924   1.782 -0.1672  0.5252  0.2666
  772MOL0     C 6409   9.836   9.789   1.843  0.2056  1.7737  0.4274
  772MOL0     C 6410   9.977   9.739   1.845  0.9207 -0.7933  0.7063
  772MOL0     C 6411   9.994   9.592   1.812 -0.2712  0.7842 -0.2496
  772MOL0     C 6412  10.124   9.530   1.872  0.0811  0.2211 -0.0340
  772MOL0     C 6413  10.096   9.380   1.898  0.3083 -0.1410  0.1190
  772MOL0     C 6414  10.100   9.300   1.772  0.1918  0.4395  0.7583
  772MOL0     N 6415  10.065   9.156   1.788  0.1432 -0.6834  0.3971
  772MOL0     C 6416  10.060   9.101   1.914 -0.1654  0.6859  0.6011
  772MOL0     C 6417  10.043   8.970   1.881  0.9957  0.8335  0.3044
  772MOL0     C 6418  10.062   8.859   1.977 -0.3854  0.1124  0.2380
  772MOL0     C 6419  10.206   8.792   1.979 -0.7729 -0.0364  0.6359
  772MOL0     C 6420  10.325   8.881   2.022 -0.4617 -0.7794 -0.5383
  772MOL0     C 6421  10.462   8.810   2.036  0.2970  0.3689 -0.3746
  772MOL0     O 6422  10.463   8.715   2.150 -0.0975  0.7830 -0.2090
  772MOL0     C 6423  10.581   8.640   2.155  1.4847  0.1394  1.3884
  772MOL0     C 6424  10.573   8.534   2.246 -0.1788  0.5027  0.1050
  772MOL0     C 6425  10.674   8.436   2.258  0.5447 -0.4203  0.5826
  772MOL0     C 6426  10.648   8.332   2.359  0.0037  0.6121  0.3209
  772MOL0     C 6427  10.792   8.441   2.173  0.1695 -0.4535 -0.1102
  772MOL0     C 6428  10.911   8.353   2.176 -1.4668 -0.8138 -0.7823
  772MOL0     O 6429  10.987   8.335   2.062  0.7009 -0.2380 -0.1318
  772MOL0     C 6430  11.083   8.238   2.062  0.2952  0.6299  1.0028
  772MOL0     C 6431  11.217   8.263   2.076 -0.0336  0.3723 -0.0372
  772MOL0     C 6432  11.314   8.167   2.081  0.0636 -0.7782  0.1148
  772MOL0     C 6433  11.295   8.037   2.058  0.3442 -1.3109  0.3623
  772MOL0     O 6434  11.404   7.954   2.060 -0.1586  0.0223 -0.0968
  772MOL0     C 6435  11.376   7.815   2.046 -0.1711  0.4739 -0.2765
  772MOL0     C 6436  11.511   7.729   2.057  0.9977  0.1782 -0.4768
  772MOL0     C 6437  11.579   7.767   2.189  0.5215  1.3668  0.3081
  772MOL0     C 6438  11.732   7.722   2.188 -0.0170 -0.1527 -0.3404
  772MOL0     C 6439  11.817   7.816   2.284 -0.5955 -0.6317 -0.7253
  772MOL0     C 6440  11.971   7.806   2.248 -0.1892  0.6545 -0.5479
  772MOL0     C 6441  12.033   7.665   2.246  0.2978 -0.2210 -1.0005
  772MOL0     C 6442  12.044   7.615   2.389 -0.3658  0.4287  0.1619
  772MOL0    Cl 6443  12.162   7.712   2.483 -0.6629  0.1212 -0.3961
  772MOL0     C 6444  11.153   8.002   2.034 -0.2150  0.0722  0.6779
  772MOL0     C 6445  11.057   8.101   2.032  0.0914  0.1528 -0.4996
  772MOL0     O 6446  10.926   8.275   2.276 -0.4834  0.2510  0.3869
  772MOL0     C 6447  10.794   8.552   2.078 -0.1862 -0.4025 -0.2609
  772MOL0     C 6448  10.690   8.642   2.073 -0.3639  0.3514  0.0789
  772MOL0     N 6449  10.035   8.951   1.745 -0.5124  0.4291  0.6566
  772MOL0     N 6450  10.042   9.066   1.686 -0.1422 -0.3602  1.1496
  772MOL0     C 6451   9.471   9.991   2.059  0.3409 -0.0911 -0.5759
  772MOL0     C 6452   9.341  10.053   2.094  0.9724 -0.4678  0.1486
  772MOL0     C 6453   9.080  10.393   2.240 -0.0705  0.1892 -1.0906
  772MOL0     C 6454   8.960  10.380   2.164  0.4846  0.1271  0.0221
  772MOL0     C 6455   8.841  10.440   2.201  0.1575 -0.1868  0.2269
  772MOL0     C 6456   8.827  10.511   2.322  0.3567  0.3363  0.3947
  772MOL0     O 6457   8.706  10.537   2.381  0.1056  0.0454 -0.4695
  772MOL0     C 6458   8.595  10.527   2.299  0.2841  0.2683  0.5316
  772MOL0     C 6459   8.467  10.569   2.370  0.3072  0.0570 -0.1908
  772MOL0     C 6460   8.439  10.484   2.498  0.0803 -0.5727  0.2259
  772MOL0     C 6461   8.360  10.358   2.483  0.1623 -0.3728 -0.6989
  772MOL0     C 6462   8.218  10.395   2.454  0.0898  0.3886 -0.1651
  772MOL0     C 6463   8.112  10.428   2.401 -0.2154  0.8639 -0.1428
  772MOL0     C 6464   8.943  10.516   2.399  0.0768  0.0206  0.0766
  772MOL0     C 6465   9.066  10.468   2.362  0.1976 -0.3128  0.1077
  772MOL0     C 6466   9.178  10.492   2.470  0.2765  0.7851 -0.4208
  772MOL0     H 6467   9.379  10.348   1.925  1.6209  0.1756  0.0438
  772MOL0     H 6468   9.596  10.229   1.860  0.4471  0.0377 -0.2582
  772MOL0     H 6469   9.673  10.059   1.747 -3.2235 -0.3414 -1.2748
  772MOL0     H 6470   9.620   9.885   1.760  1.4917 -0.6318 -0.3620
  772MOL0     H 6471   9.859   9.918   1.676 -0.5697  2.4841  0.0360
  772MOL0     H 6472   9.901  10.000   1.826  0.6494  0.4641 -0.8186
  772MOL0     H 6473   9.796   9.782   1.945 -1.0592  1.2932 -0.0813
  772MOL0     H 6474   9.765   9.730   1.786  1.4726  1.3904 -0.8135
  772MOL0     H 6475  10.052   9.788   1.782  0.6242  0.2627  1.1576
  772MOL0     H 6476  10.007   9.745   1.950 -0.4504 -0.3046  1.0856
  772MOL0     H 6477   9.987   9.567   1.706  1.6202 -0.5027 -0.1277
  772MOL0     H 6478   9.905   9.548   1.858 -0.3229  0.7365 -0.3946
  772MOL0     H 6479  10.211   9.563   1.814  1.2576  3.5214  3.1505
  772MOL0     H 6480  10.142   9.581   1.968  0.0168  0.0301  0.0803
  772MOL0     H 6481  10.002   9.364   1.950  0.6273 -1.7177  0.2573
  772MOL0     H 6482  10.172   9.343   1.968 -1.1256 -0.9631  1.2754
  772MOL0     H 6483  10.033   9.346   1.699 -0.8622 -1.0143  0.7770
  772MOL0     H 6484  10.202   9.314   1.734  0.0147  0.4403  0.2785
  772MOL0     H 6485  10.090   9.140   2.011 -1.0778 -2.4991  2.2970
  772MOL0     H 6486   9.996   8.775   1.954  2.1611 -1.5898 -1.3329
  772MOL0     H 6487  10.033   8.901   2.074 -0.6070 -0.0073  0.2241
  772MOL0     H 6488  10.193   8.713   2.053  0.2645 -1.0307 -0.2033
  772MOL0     H 6489  10.232   8.753   1.880 -1.2276  3.0277 -0.8037
  772MOL0     H 6490  10.323   8.972   1.961 -0.0948  1.1718  2.1750
  772MOL0     H 6491  10.311   8.917   2.125 -0.5292 -3.3707  0.4205
  772MOL0     H 6492  10.466   8.751   1.943 -0.2607  1.3226 -1.0245
  772MOL0     H 6493  10.542   8.884   2.044  1.1386 -0.7363  2.1862
  772MOL0     H 6494  10.483   8.514   2.303  0.0595 -0.0479  0.2932
  772MOL0     H 6495  10.732   8.311   2.426  1.3733 -2.3412 -2.1039
  772MOL0     H 6496  10.634   8.235   2.311  3.0149 -2.2141  4.5457
  772MOL0     H 6497  10.564   8.354   2.425  0.6583 -1.5453  1.9864
  772MOL0     H 6498  11.258   8.363   2.078  0.8400  0.0450 -1.0104
  772MOL0     H 6499  11.416   8.199   2.103  0.6625 -2.1170 -0.5425
  772MOL0     H 6500  11.298   7.781   2.115 -0.5230 -0.7366 -1.2377
  772MOL0     H 6501  11.345   7.797   1.943 -1.6059  0.7832  0.0854
  772MOL0     H 6502  11.503   7.620   2.060 -0.1458  0.1924 -1.7178
  772MOL0     H 6503  11.568   7.756   1.968 -0.7201  0.9677 -1.4041
  772MOL0     H 6504  11.524   7.712   2.266 -0.7065 -0.8394 -1.9921
  772MOL0     H 6505  11.582   7.874   2.212  0.5744  1.3371  0.4430
  772MOL0     H 6506  11.766   7.727   2.084 -0.7818 -1.9441 -0.7207
  772MOL0     H 6507  11.745   7.617   2.217  0.4550  0.5189  2.0487
  772MOL0     H 6508  11.786   7.920   2.269 -0.6580 -1.0859 -5.1427
  772MOL0     H 6509  11.798   7.787   2.388 -1.5244  0.3104 -0.6194
  772MOL0     H 6510  12.019   7.873   2.321  0.1571  0.1782 -0.3334
  772MOL0     H 6511  11.986   7.837   2.144  0.0450 -0.2736 -0.8021
  772MOL0     H 6512  12.130   7.668   2.197  0.8943 -0.0067  0.1568
  772MOL0     H 6513  11.979   7.589   2.188  0.6950  0.5961 -2.4827
  772MOL0     H 6514  12.096   7.519   2.388  2.2900  1.7620  0.5539
  772MOL0     H 6515  11.945   7.593   2.431 -0.9046  0.2346 -1.1495
  772MOL0     H 6516  11.119   7.900   2.019 -0.8478  0.4335 -0.4508
  772MOL0     H 6517  10.958   8.069   2.002 -0.3169  1.1471 -0.2663
  772MOL0     H 6518  10.886   8.574   2.025 -0.9255  1.2338 -0.9252
  772MOL0     H 6519  10.706   8.727   2.007 -2.5380  1.2260  0.5979
  772MOL0     H 6520   9.480   9.892   2.103 -1.0841  0.1247  0.2825
  772MOL0     H 6521   9.257  10.004   2.143 -1.0877  1.6733 -1.0230
  772MOL0     H 6522   8.968  10.336   2.065 -1.1618 -1.4854  0.5412
  772MOL0     H 6523   8.756  10.429   2.135 -0.2307  0.3745  0.6176
  772MOL0     H 6524   8.600  10.597   2.215  1.8501  3.2265  2.9014
  772MOL0     H 6525   8.577  10.424   2.267  1.0288  0.3795 -0.2777
  772MOL0     H 6526   8.381  10.565   2.303  0.6669  2.6979 -0.9260
  772MOL0     H 6527   8.474  10.674   2.400 -2.0075  1.2123 -3.1462
  772MOL0     H 6528   8.537  10.452   2.535  0.6200  0.1449 -0.5197
  772MOL0     H 6529   8.389  10.549   2.570 -0.4992  1.9056 -2.2416
  772MOL0     H 6530   8.363  10.303   2.577 -0.8455 -3.2060 -2.2193
  772MOL0     H 6531   8.416  10.293   2.416  0.3410  0.8142 -1.7505
  772MOL0     H 6532   8.026  10.482   2.367 -0.1815  1.5107  0.7659
  772MOL0     H 6533   8.939  10.565   2.496  1.7966 -1.8616  1.1794
  772MOL0     H 6534   9.250  10.561   2.426  1.6273  1.3862  2.4971
  772MOL0     H 6535   9.144  10.549   2.557  0.3491  3.1660 -1.8741
  772MOL0     H 6536   9.236  10.400   2.483  0.4148  0.9633  0.2263
  773MOL0     O 6537   2.321  11.281   7.057  0.4284 -0.0831  1.1121
  773MOL0     C 6538   2.326  11.392   7.113 -0.1479  1.1286 -0.0710
  773MOL0     O 6539   2.431  11.438   7.182  0.7345  0.6652  0.8864
  773MOL0     C 6540   2.550  11.370   7.182  0.3249 -0.2624  0.0654
  773MOL0     C 6541   2.568  11.253   7.245  0.3414 -0.5630 -0.8445
  773MOL0     C 6542   2.697  11.184   7.249  0.0151  0.3286 -0.1062
  773MOL0     C 6543   2.799  11.241   7.176  0.4558 -0.2650  0.5835
  773MOL0     O 6544   2.920  11.174   7.162 -0.4845  0.1548 -0.1552
  773MOL0     C 6545   2.906  11.049   7.092  0.8636  0.7715 -0.7976
  773MOL0     C 6546   3.036  10.985   7.053  0.5630  0.2230  0.4084
  773MOL0     C 6547   3.102  11.060   6.932 -0.1057 -0.7045  0.6234
  773MOL0     C 6548   3.237  11.000   6.900  0.0625  0.3070 -0.2479
  773MOL0     C 6549   3.333  11.113   6.847  0.3762 -0.0796 -0.6748
  773MOL0     C 6550   3.484  11.080   6.834 -0.3082  0.3998 -0.2037
  773MOL0     C 6551   3.569  11.200   6.816  0.0885  0.0614 -0.2800
  773MOL0     C 6552   3.719  11.174   6.834 -0.5795 -0.6643  0.4828
  773MOL0     N 6553   3.750  11.124   6.975 -0.0146 -0.5907 -0.0477
  773MOL0     C 6554   3.680  11.151   7.090 -0.3286 -0.3972  0.3260
  773MOL0     C 6555   3.747  11.081   7.187 -0.4268 -0.1773  0.6348
  773MOL0     C 6556   3.702  11.085   7.333 -0.2598  0.0705  0.1291
  773MOL0     C 6557   3.567  11.025   7.343 -0.4038 -0.1986 -0.1358
  773MOL0     C 6558   3.517  11.013   7.488 -0.5142 -0.5504  0.5616
  773MOL0     C 6559   3.399  10.918   7.506 -0.4897 -0.4904  0.2656
  773MOL0     O 6560   3.335  10.916   7.632  0.1173 -0.1151 -0.1238
  773MOL0     C 6561   3.272  11.022   7.694  0.4494  0.2219  0.2620
  773MOL0     C 6562   3.217  11.136   7.629  0.7319  1.1045 -0.5683
  773MOL0     C 6563   3.149  11.238   7.704  0.8929  0.2008 -0.1647
  773MOL0     C 6564   3.116  11.358   7.625  0.3734  0.2824 -0.1561
  773MOL0     C 6565   3.137  11.224   7.848  0.2945  0.1502  0.7503
  773MOL0     C 6566   3.081  11.326   7.944  0.1762 -0.1344 -0.6272
  773MOL0     O 6567   3.099  11.301   8.079  0.0794 -0.2055 -0.1467
  773MOL0     C 6568   3.039  11.363   8.183 -0.2784 -0.3414 -0.3384
  773MOL0     C 6569   3.047  11.300   8.306  0.1268  0.0096  0.7007
  773MOL0     C 6570   2.981  11.354   8.413 -0.5070  0.1744 -0.3702
  773MOL0     C 6571   2.913  11.478   8.407  0.5669  0.3157 -0.2475
  773MOL0     O 6572   2.851  11.547   8.513  0.3933  1.0199  0.2902
  773MOL0     C 6573   2.809  11.463   8.623  0.2898  0.5154 -0.8236
  773MOL0     C 6574   2.689  11.537   8.676 -0.0126 -0.0279 -0.1634
  773MOL0     C 6575   2.727  11.676   8.740 -0.1434 -0.2427  0.1262
  773MOL0     C 6576   2.615  11.777   8.744  0.4470 -0.4656  0.9185
  773MOL0     C 6577   2.655  11.910   8.807 -0.6476 -1.0151 -0.0878
  773MOL0     C 6578   2.567  11.948   8.922 -0.2075  0.0486 -0.4786
  773MOL0     C 6579   2.589  12.093   8.978  0.5919  0.6408  0.0024
  773MOL0     C 6580   2.562  12.203   8.878 -1.0973 -0.4875  1.0880
  773MOL0    Cl 6581   2.402  12.187   8.802  0.2333 -0.0561 -0.2176
  773MOL0     C 6582   2.919  11.547   8.288 -0.3576 -0.0539 -1.0231
  773MOL0     C 6583   2.969  11.489   8.173 -0.7651  0.1901  0.0052
  773MOL0     O 6584   3.008  11.417   7.895 -0.0660 -0.5401 -0.3812
  773MOL0     C 6585   3.197  11.108   7.905 -0.0292 -0.8342 -0.1222
  773MOL0     C 6586   3.256  11.011   7.827  0.3613 -0.3814 -1.0337
  773MOL0     N 6587   3.859  11.023   7.130 -0.3772  0.3725 -0.1829
  773MOL0     N 6588   3.849  11.040   7.001 -0.5140  0.3758  1.0321
  773MOL0     C 6589   2.779  11.363   7.119  0.3366 -0.3735 -0.3601
  773MOL0     C 6590   2.663  11.432   7.126  0.0836  0.4247  0.1818
  773MOL0     C 6591   2.199  11.474   7.124  0.2589 -0.4532  0.3026
  773MOL0     C 6592   2.107  11.447   7.026 -0.1944 -0.0676  0.2543
  773MOL0     C 6593   1.984  11.510   7.016 -0.4162 -0.6040 -0.7204
  773MOL0     C 6594   1.947  11.596   7.121 -1.0365  0.1079 -0.2389
  773MOL0     O 6595   1.821  11.639   7.107  0.6496 -0.0454 -0.2209
  773MOL0     C 6596   1.754  11.725   7.204 -0.4820 -0.3785  0.6501
  773MOL0     C 6597   1.744  11.639   7.335  0.9250  0.5631  0.9458
  773MOL0     C 6598   1.624  11.681   7.411  0.2289  0.0415 -0.5218
  773MOL0     C 6599   1.620  11.608   7.544 -0.3018  0.3795 -0.2127
  773MOL0     C 6600   1.493  11.601   7.619  0.6700  0.9901 -0.0511
  773MOL0     C 6601   1.397  11.587   7.692  1.1319  0.2367  0.9436
  773MOL0     C 6602   2.043  11.625   7.217 -0.3245  0.0181  0.0084
  773MOL0     C 6603   2.167  11.565   7.225  0.4818 -0.4006 -0.5223
  773MOL0     C 6604   2.248  11.589   7.350 -1.0123  0.1650  0.7898
  773MOL0     H 6605   2.489  11.198   7.294  1.7703 -0.3721  1.8645
  773MOL0     H 6606   2.712  11.090   7.300  0.2583  0.6899  0.5032
  773MOL0     H 6607   2.846  11.075   7.004 -1.1199 -0.3596  0.1758
  773MOL0     H 6608   2.844  10.985   7.155  2.8939 -0.3729  0.1379
  773MOL0     H 6609   3.108  10.983   7.135 -1.1685 -2.8776  2.0519
  773MOL0     H 6610   3.026  10.882   7.018  0.1511 -0.1685  1.6113
  773MOL0     H 6611   3.036  11.059   6.844 -0.9475 -0.6404  1.2393
  773MOL0     H 6612   3.110  11.167   6.956 -0.1450 -1.0063  2.0698
  773MOL0     H 6613   3.289  10.954   6.985  2.4582  0.1910 -1.6669
  773MOL0     H 6614   3.224  10.919   6.827 -3.4465  1.2707 -0.8363
  773MOL0     H 6615   3.327  11.199   6.914  1.0866  0.8890 -1.7982
  773MOL0     H 6616   3.301  11.150   6.749 -1.6750  0.3460  0.1173
  773MOL0     H 6617   3.507  11.026   6.927 -2.3148 -0.9912 -0.4592
  773MOL0     H 6618   3.502  11.007   6.755  2.1582 -0.7167  1.2675
  773MOL0     H 6619   3.534  11.275   6.888 -1.7009 -1.0470  0.0643
  773MOL0     H 6620   3.550  11.234   6.714  1.0676  0.0433 -0.4730
  773MOL0     H 6621   3.751  11.098   6.762 -0.7286  0.0674 -0.3820
  773MOL0     H 6622   3.781  11.256   6.799  2.1507 -2.3410  1.1025
  773MOL0     H 6623   3.592  11.213   7.102  0.6485  1.0681  0.1924
  773MOL0     H 6624   3.702  11.190   7.363  0.8743  0.1524 -0.0734
  773MOL0     H 6625   3.771  11.029   7.396  0.2678  0.6679  0.1029
  773MOL0     H 6626   3.490  11.075   7.284 -0.0592  0.6923  0.1477
  773MOL0     H 6627   3.571  10.924   7.302 -0.8103  0.4196 -1.7469
  773MOL0     H 6628   3.604  11.003   7.553  0.7095  3.9960 -0.0380
  773MOL0     H 6629   3.486  11.116   7.507  2.8530  0.8747 -0.8518
  773MOL0     H 6630   3.319  10.934   7.433  0.1789 -1.9466 -0.8239
  773MOL0     H 6631   3.437  10.818   7.486  0.3122 -0.6199  2.1859
  773MOL0     H 6632   3.213  11.149   7.521 -0.2347 -0.2264 -0.7236
  773MOL0     H 6633   3.175  11.446   7.655  0.2454  1.3710 -2.7537
  773MOL0     H 6634   3.007  11.367   7.624  0.2350 -1.0325 -2.1674
  773MOL0     H 6635   3.148  11.340   7.522 -1.0040  0.2603 -0.6038
  773MOL0     H 6636   3.106  11.209   8.313  1.6786  0.9557  0.6019
  773MOL0     H 6637   2.974  11.296   8.504 -2.4262  0.4329 -0.3049
  773MOL0     H 6638   2.772  11.365   8.592 -3.6852  1.1074  1.4390
  773MOL0     H 6639   2.881  11.465   8.706 -0.2438  2.9740 -0.3609
  773MOL0     H 6640   2.612  11.543   8.599 -2.1836  0.2662  1.9322
  773MOL0     H 6641   2.649  11.485   8.763 -0.0375 -1.6297 -1.0995
  773MOL0     H 6642   2.813  11.723   8.691 -0.0129 -0.5926  0.0154
  773MOL0     H 6643   2.770  11.645   8.835 -0.0204 -0.1731  0.0936
  773MOL0     H 6644   2.537  11.728   8.804  0.1358 -1.7724 -0.4992
  773MOL0     H 6645   2.575  11.786   8.643 -0.5243 -1.1123  1.2319
  773MOL0     H 6646   2.751  11.886   8.853 -0.7214  1.2598  1.4125
  773MOL0     H 6647   2.668  11.991   8.734 -1.8677 -0.1255  0.6514
  773MOL0     H 6648   2.594  11.874   8.997  0.3767  1.5763  0.8866
  773MOL0     H 6649   2.462  11.938   8.895 -0.1926 -4.7269  0.4588
  773MOL0     H 6650   2.691  12.103   9.016 -0.0343 -0.8176  2.2766
  773MOL0     H 6651   2.512  12.103   9.056  0.0202  0.2707 -0.5068
  773MOL0     H 6652   2.631  12.197   8.793 -0.0406 -0.9199  1.9543
  773MOL0     H 6653   2.564  12.302   8.923 -2.7616  0.2600 -0.3371
  773MOL0     H 6654   2.870  11.643   8.294  0.7478  0.4406  2.2132
  773MOL0     H 6655   2.974  11.553   8.086 -2.0855  0.6852  0.2580
  773MOL0     H 6656   3.204  11.098   8.013  1.8456  1.8302  0.1137
  773MOL0     H 6657   3.291  10.915   7.863  0.7034 -0.3014 -1.1536
  773MOL0     H 6658   2.863  11.409   7.067  0.2872 -1.3281 -1.3316
  773MOL0     H 6659   2.654  11.535   7.093  0.3716 -0.7598 -4.2723
  773MOL0     H 6660   2.142  11.380   6.948  1.3062  3.3411 -2.2762
  773MOL0     H 6661   1.922  11.501   6.927  0.0920  2.0177 -1.4039
  773MOL0     H 6662   1.808  11.820   7.216  3.3547 -2.2271 -0.1834
  773MOL0     H 6663   1.653  11.732   7.162 -1.4202 -1.6353  2.5818
  773MOL0     H 6664   1.830  11.658   7.399  1.8068 -0.7647  0.2124
  773MOL0     H 6665   1.745  11.532   7.312  1.2036  0.9529 -1.0632
  773MOL0     H 6666   1.624  11.789   7.427  0.7741 -0.3245  2.5810
  773MOL0     H 6667   1.525  11.658   7.369 -0.5898 -0.6621  1.6291
  773MOL0     H 6668   1.694  11.658   7.608 -0.7784 -2.2359  2.6019
  773MOL0     H 6669   1.645  11.502   7.529 -0.8810  0.0757  0.9112
  773MOL0     H 6670   1.305  11.572   7.743  0.4673 -2.0958 -0.7507
  773MOL0     H 6671   2.018  11.693   7.298  0.5924  1.7842 -1.1403
  773MOL0     H 6672   2.272  11.489   7.387  1.0206 -0.2562 -1.3991
  773MOL0     H 6673   2.346  11.635   7.333 -0.3071 -1.7649 -0.6921
  773MOL0     H 6674   2.200  11.655   7.423 -0.1751 -0.2953  1.7991
  774MOL0     O 6675   0.214   3.897   1.655 -0.1285 -0.4816 -0.0754
  774MOL0     C 6676   0.163   3.820   1.572 -0.8522 -0.4176  0.5217
  774MOL0     O 6677   0.237   3.767   1.472  0.8618 -0.5344 -0.7651
  774MOL0     C 6678   0.365   3.802   1.450 -1.3629  0.0412 -0.5915
  774MOL0     C 6679   0.462   3.714   1.486 -0.0267 -0.3494 -0.0537
  774MOL0     C 6680   0.597   3.743   1.472 -0.5342 -0.0548  1.0880
  774MOL0     C 6681   0.641   3.865   1.423 -0.1612  0.1013  0.2521
  774MOL0     O 6682   0.774   3.878   1.388  0.0326 -0.1913  0.5319
  774MOL0     C 6683   0.823   4.012   1.360 -0.3009  0.3100  0.2728
  774MOL0     C 6684   0.970   3.990   1.332 -0.3049 -0.0594 -0.1754
  774MOL0     C 6685   1.038   4.125   1.322 -0.5069  0.3733  0.4851
  774MOL0     C 6686   1.193   4.109   1.305 -0.1268  0.6100  0.2264
  774MOL0     C 6687   1.256   4.248   1.301 -0.6666  0.0488 -0.7033
  774MOL0     C 6688   1.411   4.233   1.279  0.2349 -0.6774  1.1259
  774MOL0     C 6689   1.494   4.359   1.299 -0.8066  0.4241 -0.8475
  774MOL0     C 6690   1.649   4.330   1.305  0.7947  0.6534 -0.7151
  774MOL0     N 6691   1.719   4.450   1.263 -0.5051 -0.3026  0.2306
  774MOL0     C 6692   1.774   4.537   1.361 -0.2454  0.3977  0.9692
  774MOL0     C 6693   1.815   4.642   1.284  0.2238  0.1360 -0.1566
  774MOL0     C 6694   1.876   4.761   1.341  0.5274 -1.2108  0.5306
  774MOL0     C 6695   1.905   4.782   1.490  0.0252  0.1926  0.6018
  774MOL0     C 6696   2.001   4.683   1.548 -0.4894  0.3176 -0.3445
  774MOL0     C 6697   2.148   4.685   1.485  0.1392  0.4033  0.3535
  774MOL0     O 6698   2.211   4.567   1.536  0.7617 -0.9615  1.2580
  774MOL0     C 6699   2.286   4.509   1.442  1.2726 -0.0683  0.7192
  774MOL0     C 6700   2.382   4.577   1.369  0.9592 -0.6535  0.5156
  774MOL0     C 6701   2.483   4.505   1.297  0.0604  0.2219  0.6065
  774MOL0     C 6702   2.590   4.589   1.225  0.1329  0.0459  0.7273
  774MOL0     C 6703   2.487   4.360   1.296  0.9861  0.7829  0.5971
  774MOL0     C 6704   2.578   4.261   1.231 -0.3333  0.4720  0.0836
  774MOL0     O 6705   2.544   4.126   1.241  0.0400  0.4016 -0.8018
  774MOL0     C 6706   2.636   4.051   1.179 -0.6362  0.1672  1.0670
  774MOL0     C 6707   2.664   4.052   1.035  0.2831  0.0660 -0.0705
  774MOL0     C 6708   2.723   3.942   0.973 -0.2253  0.8528 -0.6187
  774MOL0     C 6709   2.781   3.841   1.050  0.0984 -0.2775 -0.5427
  774MOL0     O 6710   2.834   3.736   0.978 -0.2149 -0.2191  0.0592
  774MOL0     C 6711   2.926   3.636   1.035 -0.8500 -0.0612 -0.3574
  774MOL0     C 6712   2.870   3.493   1.002  0.3687 -0.3145 -0.0689
  774MOL0     C 6713   2.846   3.474   0.857  0.0797 -0.3502  0.7729
  774MOL0     C 6714   2.842   3.330   0.826  0.5357 -0.2484 -0.4451
  774MOL0     C 6715   2.698   3.276   0.826  0.4527 -0.2204 -0.0544
  774MOL0     C 6716   2.681   3.121   0.812  0.0617  0.1805  0.8572
  774MOL0     C 6717   2.535   3.068   0.796 -0.3166 -0.1255 -0.1648
  774MOL0     C 6718   2.519   2.915   0.795  0.2648 -0.0184  0.0494
  774MOL0    Cl 6719   2.601   2.861   0.654  0.0309  0.4430  0.0341
  774MOL0     C 6720   2.769   3.852   1.189  0.0194 -0.5788  0.6038
  774MOL0     C 6721   2.702   3.950   1.253 -0.2660  0.1110  0.1799
  774MOL0     O 6722   2.683   4.299   1.182 -0.4002 -0.1994  0.0202
  774MOL0     C 6723   2.381   4.298   1.372 -0.0372  0.9190 -0.5309
  774MOL0     C 6724   2.289   4.369   1.445 -0.5435  0.3313 -0.3319
  774MOL0     N 6725   1.786   4.617   1.153 -0.3127 -0.4937 -0.2327
  774MOL0     N 6726   1.731   4.503   1.141 -0.0215  0.3793 -0.3234
  774MOL0     C 6727   0.540   3.958   1.386 -0.3882 -0.2744  0.6461
  774MOL0     C 6728   0.406   3.928   1.407 -0.4103 -0.0716 -0.0823
  774MOL0     C 6729   0.014   3.776   1.583 -0.5323 -1.1219 -0.3095
  774MOL0     C 6730  -0.046   3.689   1.488 -0.0820  0.4945 -0.1398
  774MOL0     C 6731  -0.182   3.668   1.485  0.2700  0.2350  0.4124
  774MOL0     C 6732  -0.264   3.706   1.588  0.2761 -0.2949 -0.0968
  774MOL0     O 6733  -0.393   3.666   1.599  0.2889  0.4666 -0.0592
  774MOL0     C 6734  -0.441   3.558   1.516  0.1282 -0.4714 -0.6970
  774MOL0     C 6735  -0.580   3.504   1.547 -0.3902  0.3313  0.1165
  774MOL0     C 6736  -0.596   3.448   1.693  0.3896  0.4293  0.4668
  774MOL0     C 6737  -0.724   3.362   1.698  0.0833 -0.0859  0.6148
  774MOL0     C 6738  -0.848   3.423   1.646  0.4372 -0.0858  0.0750
  774MOL0     C 6739  -0.944   3.452   1.580 -0.1068  0.5418 -0.2640
  774MOL0     C 6740  -0.212   3.779   1.687 -0.4610 -0.0189 -0.5961
  774MOL0     C 6741  -0.080   3.821   1.684 -0.9604 -0.6886  0.0113
  774MOL0     C 6742  -0.037   3.912   1.797 -0.5405 -0.0588 -0.3107
  774MOL0     H 6743   0.439   3.621   1.537  3.6396 -1.2276  0.3001
  774MOL0     H 6744   0.673   3.674   1.509 -1.3435 -0.7006  1.5771
  774MOL0     H 6745   0.815   4.083   1.442  0.0840 -0.8560  1.3379
  774MOL0     H 6746   0.776   4.057   1.272  0.3597  1.6429  0.5613
  774MOL0     H 6747   1.017   3.941   1.418 -0.7248 -0.7747 -0.3510
  774MOL0     H 6748   0.981   3.930   1.242  0.4899  3.9738 -3.0422
  774MOL0     H 6749   0.997   4.169   1.231 -0.2910 -1.2163 -0.4169
  774MOL0     H 6750   1.023   4.188   1.410  1.7014 -0.4343  1.5165
  774MOL0     H 6751   1.230   4.052   1.390  1.1975  1.6655  0.3826
  774MOL0     H 6752   1.219   4.055   1.213  2.7962 -1.1064  1.9272
  774MOL0     H 6753   1.246   4.307   1.392  0.1841 -1.3784  0.3455
  774MOL0     H 6754   1.214   4.305   1.217 -0.7346 -0.4641 -1.0276
  774MOL0     H 6755   1.443   4.151   1.343  2.7797 -0.9502 -0.3852
  774MOL0     H 6756   1.432   4.200   1.177  0.1035  1.5604  0.3124
  774MOL0     H 6757   1.473   4.415   1.390  1.9167 -0.0101  0.1293
  774MOL0     H 6758   1.487   4.425   1.212 -2.8893  1.4387  0.0202
  774MOL0     H 6759   1.682   4.297   1.404  0.3149  4.3017  0.8177
  774MOL0     H 6760   1.663   4.247   1.234  1.3954  0.5149 -0.4415
  774MOL0     H 6761   1.781   4.526   1.469  0.2507  1.9624  1.1261
  774MOL0     H 6762   1.810   4.843   1.308 -0.2822 -1.0404  2.4543
  774MOL0     H 6763   1.975   4.760   1.294  1.0659 -2.8569  1.6161
  774MOL0     H 6764   1.946   4.880   1.516 -2.4214  0.8733  2.3695
  774MOL0     H 6765   1.808   4.775   1.540 -0.5133  0.8836 -0.3050
  774MOL0     H 6766   2.008   4.701   1.656  2.1113  1.2340 -0.5932
  774MOL0     H 6767   1.974   4.577   1.537  3.7138 -1.0265  0.4484
  774MOL0     H 6768   2.145   4.682   1.376  0.9190 -3.3496  0.3267
  774MOL0     H 6769   2.187   4.777   1.530 -0.2816  0.3632  0.8108
  774MOL0     H 6770   2.373   4.686   1.368  0.9385 -0.6517 -0.7642
  774MOL0     H 6771   2.691   4.552   1.241  1.0436  2.3532  0.7711
  774MOL0     H 6772   2.584   4.692   1.261 -1.3849 -0.0017  0.6931
  774MOL0     H 6773   2.571   4.577   1.118  0.6977 -3.0478  0.8881
  774MOL0     H 6774   2.623   4.135   0.978  3.4713  1.4384 -0.5680
  774MOL0     H 6775   2.744   3.941   0.867  2.4753 -1.0324 -0.1489
  774MOL0     H 6776   3.029   3.643   0.999 -0.2644 -1.9345  0.7922
  774MOL0     H 6777   2.919   3.653   1.143  1.4952  0.7305 -0.2878
  774MOL0     H 6778   2.944   3.424   1.044 -0.3766  0.5022  2.7771
  774MOL0     H 6779   2.776   3.480   1.057 -0.3911  1.8065 -0.7615
  774MOL0     H 6780   2.929   3.514   0.799  0.0333  0.4833  1.2685
  774MOL0     H 6781   2.757   3.524   0.819  0.4743  1.3228  1.9627
  774MOL0     H 6782   2.906   3.262   0.883  2.6342  0.9840 -1.2407
  774MOL0     H 6783   2.876   3.320   0.723  0.5312 -1.9942 -0.3048
  774MOL0     H 6784   2.639   3.311   0.911 -0.1208 -1.3246  0.0105
  774MOL0     H 6785   2.646   3.310   0.736 -0.7571 -0.9269  0.3556
  774MOL0     H 6786   2.732   3.066   0.892 -0.7671 -1.1016  0.5379
  774MOL0     H 6787   2.731   3.092   0.720 -1.2702  0.1111  0.1293
  774MOL0     H 6788   2.496   3.108   0.702 -1.1086 -1.1325 -0.2755
  774MOL0     H 6789   2.478   3.116   0.876  0.0952 -2.1917  1.4553
  774MOL0     H 6790   2.413   2.889   0.790 -0.0161  0.9416  0.8072
  774MOL0     H 6791   2.566   2.857   0.875  1.9370 -2.2935 -2.4183
  774MOL0     H 6792   2.802   3.769   1.251  3.6771  0.2444 -0.0399
  774MOL0     H 6793   2.685   3.953   1.360  2.5788  0.1009  0.6994
  774MOL0     H 6794   2.360   4.192   1.380 -0.2803  0.9902 -0.1991
  774MOL0     H 6795   2.212   4.312   1.496 -0.9933  2.0300  0.9877
  774MOL0     H 6796   0.566   4.054   1.344 -1.8814  0.8712  2.1996
  774MOL0     H 6797   0.322   3.996   1.396 -3.2284 -3.1830  0.6373
  774MOL0     H 6798   0.014   3.662   1.402 -1.1999 -0.8324 -0.5478
  774MOL0     H 6799  -0.214   3.605   1.402  0.3137 -1.4784  1.6382
  774MOL0     H 6800  -0.440   3.592   1.411  0.2925  2.2185  0.0947
  774MOL0     H 6801  -0.365   3.480   1.520 -0.9992 -1.6587 -1.6682
  774MOL0     H 6802  -0.603   3.429   1.471 -2.0811  0.9267 -0.0150
  774MOL0     H 6803  -0.644   3.592   1.535  0.4724  0.9559  0.0083
  774MOL0     H 6804  -0.504   3.399   1.728 -0.5071 -0.7758  1.1898
  774MOL0     H 6805  -0.606   3.529   1.766 -0.8575  1.2618 -0.5817
  774MOL0     H 6806  -0.730   3.331   1.803  0.6056  0.4937  0.8206
  774MOL0     H 6807  -0.702   3.272   1.639 -1.3233 -0.7672  1.0723
  774MOL0     H 6808  -1.031   3.476   1.522 -0.4857 -2.9264 -1.3750
  774MOL0     H 6809  -0.275   3.818   1.767  2.1904  0.8942  1.1937
  774MOL0     H 6810   0.031   3.861   1.866 -1.1477 -1.1301 -0.4771
  774MOL0     H 6811   0.009   3.998   1.749 -2.1272 -0.4243 -2.6200
  774MOL0     H 6812  -0.125   3.948   1.851 -0.2860 -1.6213  1.2340
  775MOL0     O 6813   6.082   9.558   8.730 -0.4511 -0.3609 -0.3794
  775MOL0     C 6814   6.063   9.527   8.840  1.0106 -0.6605 -0.8604
  775MOL0     O 6815   6.151   9.552   8.945 -0.6156  0.0842  0.4227
  775MOL0     C 6816   6.278   9.614   8.924 -0.2865  0.0070  0.3060
  775MOL0     C 6817   6.400   9.555   8.949 -0.1111  0.9336 -0.7831
  775MOL0     C 6818   6.521   9.619   8.912  0.0311 -0.2451 -0.0595
  775MOL0     C 6819   6.516   9.749   8.856 -0.6393  0.2144  0.1652
  775MOL0     O 6820   6.627   9.815   8.798  0.3630  0.6370  0.0435
  775MOL0     C 6821   6.743   9.732   8.772 -0.1206 -0.0111  0.2714
  775MOL0     C 6822   6.841   9.796   8.682  0.7288  0.1922  0.2531
  775MOL0     C 6823   6.890   9.929   8.734 -0.0036 -0.8165  0.0886
  775MOL0     C 6824   6.987   9.992   8.622  0.6162  0.9792  0.4492
  775MOL0     C 6825   7.043  10.121   8.669 -0.4435 -0.4002 -0.1684
  775MOL0     C 6826   7.116  10.195   8.554  0.4436 -0.1407  0.1788
  775MOL0     C 6827   7.258  10.122   8.533  0.0826  0.1255 -0.2234
  775MOL0     C 6828   7.357  10.168   8.646 -0.4151  0.8080 -0.4009
  775MOL0     N 6829   7.469  10.085   8.655  0.0486 -0.1519 -0.2861
  775MOL0     C 6830   7.591  10.111   8.592  0.2802 -0.2113 -0.7906
  775MOL0     C 6831   7.674  10.009   8.624  0.5215  0.6791 -0.4929
  775MOL0     C 6832   7.825  10.009   8.596 -0.1879  0.5768  0.1857
  775MOL0     C 6833   7.902   9.876   8.611 -0.5350  0.2246  0.2795
  775MOL0     C 6834   8.049   9.902   8.558 -0.0532 -0.6338 -1.0933
  775MOL0     C 6835   8.130   9.785   8.592 -0.5470 -0.4900  0.6399
  775MOL0     O 6836   8.262   9.786   8.547 -0.2703 -0.3889  0.3156
  775MOL0     C 6837   8.358   9.706   8.603  0.0065  0.7932 -0.1835
  775MOL0     C 6838   8.342   9.602   8.701  0.1490 -0.1407 -0.3070
  775MOL0     C 6839   8.446   9.520   8.743  0.3740 -0.5855 -0.0387
  775MOL0     C 6840   8.417   9.414   8.853  0.8858  0.3985  0.2125
  775MOL0     C 6841   8.570   9.538   8.687  0.3307 -0.3177 -0.5351
  775MOL0     C 6842   8.685   9.451   8.716 -0.5397  0.0588 -0.5981
  775MOL0     O 6843   8.813   9.508   8.730 -0.0736 -0.6036 -0.6545
  775MOL0     C 6844   8.927   9.434   8.734  0.1713  0.3230  0.0030
  775MOL0     C 6845   9.033   9.479   8.817 -0.5843 -0.5922 -0.5952
  775MOL0     C 6846   9.160   9.422   8.838  0.4865  1.3190 -0.1678
  775MOL0     C 6847   9.187   9.308   8.759 -0.0389  0.3434 -0.1050
  775MOL0     O 6848   9.304   9.242   8.767  0.2168  0.5840  0.0745
  775MOL0     C 6849   9.389   9.272   8.875 -1.2766  0.8176 -0.4469
  775MOL0     C 6850   9.516   9.183   8.861 -0.0074  0.6266  0.3607
  775MOL0     C 6851   9.630   9.231   8.957 -0.0832  0.1731 -0.8169
  775MOL0     C 6852   9.751   9.133   8.946  0.7158 -0.0599 -0.0008
  775MOL0     C 6853   9.867   9.204   9.030  0.7126  0.5504  0.0236
  775MOL0     C 6854   9.991   9.117   9.016 -0.4925  0.1146 -0.6530
  775MOL0     C 6855  10.116   9.176   9.094  0.6694 -0.2256 -0.1266
  775MOL0     C 6856  10.218   9.068   9.119 -0.3974  1.0685 -0.2809
  775MOL0    Cl 6857  10.344   9.115   9.235  0.0976 -0.1329  0.2844
  775MOL0     C 6858   9.095   9.269   8.667  0.0409 -0.5443  0.1507
  775MOL0     C 6859   8.967   9.323   8.658  0.5167 -0.1048 -0.4771
  775MOL0     O 6860   8.666   9.327   8.724  0.1484 -0.8861  0.8733
  775MOL0     C 6861   8.592   9.648   8.602 -0.1154 -0.5317 -0.6879
  775MOL0     C 6862   8.489   9.725   8.559 -0.8226  0.1640  1.0310
  775MOL0     N 6863   7.606   9.927   8.711 -0.0297  0.1223  0.2076
  775MOL0     N 6864   7.486   9.978   8.726  0.2623 -0.0940 -0.1324
  775MOL0     C 6865   6.396   9.805   8.835  0.5199 -0.4015  0.9705
  775MOL0     C 6866   6.276   9.747   8.869  0.1216  0.7934 -1.0381
  775MOL0     C 6867   5.931   9.456   8.870 -0.0454 -0.2311 -0.3231
  775MOL0     C 6868   5.924   9.379   8.993 -0.3196 -0.3463 -0.2290
  775MOL0     C 6869   5.808   9.299   9.029  0.0730  0.2522 -0.5234
  775MOL0     C 6870   5.698   9.301   8.950  0.4846 -0.8262 -0.6453
  775MOL0     O 6871   5.588   9.229   8.988  0.1157  0.4558 -0.1163
  775MOL0     C 6872   5.467   9.303   8.999 -0.3170 -0.8528  0.8513
  775MOL0     C 6873   5.357   9.210   9.062 -0.6260 -0.0148 -0.3808
  775MOL0     C 6874   5.386   9.190   9.205 -0.2864 -0.1273 -0.3722
  775MOL0     C 6875   5.284   9.099   9.285  0.3659 -0.2163  0.0259
  775MOL0     C 6876   5.151   9.164   9.296  1.0112  1.4432  0.6630
  775MOL0     C 6877   5.043   9.221   9.298  1.0135  0.0801 -0.4984
  775MOL0     C 6878   5.707   9.359   8.816  0.8453 -0.1754 -0.0636
  775MOL0     C 6879   5.823   9.427   8.770 -0.4679 -0.3714 -0.7462
  775MOL0     C 6880   5.822   9.463   8.623 -0.3815  0.6122 -0.5159
  775MOL0     H 6881   6.403   9.449   8.976  2.9630  0.6513 -1.8587
  775MOL0     H 6882   6.621   9.582   8.934  0.9285  2.3744  0.6453
  775MOL0     H 6883   6.713   9.639   8.723  0.5437 -0.3081  0.4101
  775MOL0     H 6884   6.792   9.707   8.866 -2.1171 -1.6101  0.9656
  775MOL0     H 6885   6.927   9.731   8.664  0.4023 -0.3627  0.6675
  775MOL0     H 6886   6.785   9.804   8.589  1.1227 -1.3687 -0.1482
  775MOL0     H 6887   6.802   9.990   8.759  1.5306  0.4126  3.0126
  775MOL0     H 6888   6.948   9.911   8.825  0.4837 -0.6624 -0.1890
  775MOL0     H 6889   7.073   9.926   8.606  1.8229  2.9827 -1.9919
  775MOL0     H 6890   6.938  10.006   8.526  0.1966 -0.4414  0.4251
  775MOL0     H 6891   7.109  10.110   8.756 -1.0096  1.2882  0.5045
  775MOL0     H 6892   6.963  10.189   8.699 -2.1701 -2.2589 -0.3677
  775MOL0     H 6893   7.061  10.185   8.460 -0.6789 -2.8063  1.0262
  775MOL0     H 6894   7.137  10.300   8.577  0.3698  0.0309 -0.5305
  775MOL0     H 6895   7.302  10.154   8.438  3.6906 -3.4279 -0.0453
  775MOL0     H 6896   7.240  10.015   8.519  1.1059  0.0575 -1.1863
  775MOL0     H 6897   7.401  10.266   8.626 -1.4873  1.1180 -1.3294
  775MOL0     H 6898   7.307  10.179   8.743  0.6177  0.7223  0.1510
  775MOL0     H 6899   7.623  10.209   8.558  1.1569  0.3671  1.5222
  775MOL0     H 6900   7.867  10.082   8.666 -0.0664  0.7798 -0.0987
  775MOL0     H 6901   7.838  10.039   8.492  2.4884 -0.7357  0.0681
  775MOL0     H 6902   7.903   9.839   8.714  1.3465 -1.6513 -0.3363
  775MOL0     H 6903   7.868   9.802   8.538  0.3471  0.0502  0.0327
  775MOL0     H 6904   8.052   9.922   8.451  2.5467  1.4432 -0.7609
  775MOL0     H 6905   8.079   9.991   8.616 -0.6720 -1.8545  1.2516
  775MOL0     H 6906   8.131   9.783   8.701 -0.1496  2.7016  0.7666
  775MOL0     H 6907   8.078   9.694   8.561  0.1656 -0.5515 -0.4524
  775MOL0     H 6908   8.250   9.580   8.754 -0.2132  1.2896 -0.3218
  775MOL0     H 6909   8.471   9.438   8.946 -0.3371  2.1799  0.5076
  775MOL0     H 6910   8.446   9.317   8.813 -2.8650 -0.1891 -1.4835
  775MOL0     H 6911   8.310   9.409   8.874  0.9296  0.7706  0.5376
  775MOL0     H 6912   9.015   9.575   8.863 -0.0589 -1.1117  0.7772
  775MOL0     H 6913   9.225   9.464   8.913  1.9686  3.2314 -2.4061
  775MOL0     H 6914   9.414   9.378   8.876 -2.4275  1.2141  3.2750
  775MOL0     H 6915   9.353   9.244   8.974 -1.3303 -0.8002 -0.8946
  775MOL0     H 6916   9.486   9.085   8.898 -1.5664  0.6677 -0.7384
  775MOL0     H 6917   9.545   9.169   8.757  2.3521 -1.9500  1.2331
  775MOL0     H 6918   9.585   9.229   9.057 -2.1106 -1.9914 -1.6750
  775MOL0     H 6919   9.664   9.335   8.947 -1.0484  0.6518  0.4177
  775MOL0     H 6920   9.781   9.138   8.840 -1.9162  1.1440 -0.7605
  775MOL0     H 6921   9.732   9.029   8.972 -0.4259 -0.2011 -1.2966
  775MOL0     H 6922   9.888   9.303   8.990  2.2169  0.5311  0.6978
  775MOL0     H 6923   9.825   9.205   9.131  0.1737  1.1651 -0.2003
  775MOL0     H 6924  10.033   9.094   8.918  0.8944  1.6050 -0.4463
  775MOL0     H 6925   9.961   9.023   9.064  0.2911 -0.0861 -0.5277
  775MOL0     H 6926  10.080   9.202   9.194 -1.3685 -2.1148 -0.2733
  775MOL0     H 6927  10.155   9.264   9.042 -2.7939  1.9843  0.6628
  775MOL0     H 6928  10.267   9.037   9.027  1.4733  0.6716  0.7909
  775MOL0     H 6929  10.174   8.980   9.169  0.8836  0.4465 -0.2091
  775MOL0     H 6930   9.114   9.184   8.602  0.6679  0.2792 -0.7705
  775MOL0     H 6931   8.887   9.277   8.601  0.7188  0.2899 -1.0878
  775MOL0     H 6932   8.692   9.666   8.564  1.0187 -2.8360  0.9611
  775MOL0     H 6933   8.511   9.805   8.489  2.6981  0.8630  2.7309
  775MOL0     H 6934   6.378   9.900   8.787 -2.1131 -1.0402  0.5390
  775MOL0     H 6935   6.174   9.782   8.858 -0.2052  0.3175  0.2801
  775MOL0     H 6936   6.003   9.391   9.066 -0.1962  0.2968 -0.4648
  775MOL0     H 6937   5.817   9.249   9.125  0.3603  0.3078 -0.5199
  775MOL0     H 6938   5.487   9.396   9.053  1.6922  0.3672 -1.7820
  775MOL0     H 6939   5.429   9.334   8.902  0.7569  0.8081  0.9190
  775MOL0     H 6940   5.371   9.115   9.009  2.1981  0.9810 -1.6202
  775MOL0     H 6941   5.254   9.243   9.045 -1.3341  0.4734  3.8310
  775MOL0     H 6942   5.490   9.156   9.210 -0.2728 -0.2414 -1.2647
  775MOL0     H 6943   5.378   9.289   9.250 -0.4551 -0.0186 -0.6372
  775MOL0     H 6944   5.327   9.064   9.379 -0.8804  0.6098  0.9328
  775MOL0     H 6945   5.262   9.014   9.220  3.4319 -1.0293 -0.0854
  775MOL0     H 6946   4.946   9.265   9.308  0.9703 -0.1176 -0.0034
  775MOL0     H 6947   5.627   9.343   8.745 -0.3057  1.0241  0.9108
  775MOL0     H 6948   5.916   9.446   8.569 -0.8174 -3.3254 -0.3701
  775MOL0     H 6949   5.758   9.387   8.577  1.0237  0.1903 -1.9037
  775MOL0     H 6950   5.784   9.563   8.602 -0.6818  0.4258 -0.8772
  776MOL0     O 6951   5.845   0.702   1.742 -0.7888 -0.2475  0.0128
  776MOL0     C 6952   5.760   0.765   1.811  0.8679 -0.4478  0.4930
  776MOL0     O 6953   5.767   0.772   1.943  0.1807  0.5891  0.0555
  776MOL0     C 6954   5.883   0.725   2.007  0.2915 -0.3415 -0.4455
  776MOL0     C 6955   6.007   0.777   1.999 -0.5435  0.5827 -0.0774
  776MOL0     C 6956   6.115   0.718   2.067 -0.0221  0.5179  0.4427
  776MOL0     C 6957   6.097   0.607   2.148 -1.0123 -0.8004  0.1348
  776MOL0     O 6958   6.205   0.561   2.219  0.5939  0.3620 -0.4671
  776MOL0     C 6959   6.199   0.430   2.283 -0.1260  0.3189  0.6258
  776MOL0     C 6960   6.236   0.330   2.169  0.7052  0.3835  0.1170
  776MOL0     C 6961   6.376   0.350   2.111  0.3059 -1.2273 -0.5312
  776MOL0     C 6962   6.480   0.254   2.159 -0.2455 -0.2286  0.5156
  776MOL0     C 6963   6.609   0.268   2.080 -0.0920 -0.1953  0.0168
  776MOL0     C 6964   6.730   0.177   2.129 -1.0098  0.0668 -0.7705
  776MOL0     C 6965   6.867   0.215   2.063 -0.6590  0.2680 -0.8278
  776MOL0     C 6966   6.971   0.100   2.077  0.3826  0.1296  0.3063
  776MOL0     N 6967   7.105   0.137   2.033  0.0932  0.0517 -0.1645
  776MOL0     C 6968   7.198   0.182   2.121  0.4117  0.2965  0.6558
  776MOL0     C 6969   7.303   0.219   2.055  0.3676 -0.1187  0.2675
  776MOL0     C 6970   7.440   0.267   2.108  0.5134  0.1773 -0.8767
  776MOL0     C 6971   7.557   0.200   2.032 -0.6845 -0.0415 -0.5875
  776MOL0     C 6972   7.681   0.193   2.119 -0.2132  0.0364 -0.2254
  776MOL0     C 6973   7.795   0.121   2.042 -0.7369  0.2531  0.1564
  776MOL0     O 6974   7.915   0.104   2.119  0.1511 -0.1971  0.2738
  776MOL0     C 6975   8.019   0.045   2.053 -0.1884 -0.2099 -0.3425
  776MOL0     C 6976   8.019  -0.062   1.958  0.1832  0.0223  0.1285
  776MOL0     C 6977   8.127  -0.118   1.895 -0.3092 -0.0031 -0.3432
  776MOL0     C 6978   8.089  -0.231   1.803 -0.3888 -0.1368  0.5596
  776MOL0     C 6979   8.244  -0.053   1.914  0.3945  0.8939 -0.0352
  776MOL0     C 6980   8.378  -0.098   1.844  0.4422 -0.7945 -0.7296
  776MOL0     O 6981   8.487  -0.042   1.895  0.1322 -0.4890 -0.0235
  776MOL0     C 6982   8.605  -0.076   1.835  0.3504 -0.3035 -0.3273
  776MOL0     C 6983   8.695  -0.172   1.895 -0.2799  0.6161 -0.4519
  776MOL0     C 6984   8.816  -0.204   1.817 -0.5587 -0.2838 -0.8818
  776MOL0     C 6985   8.837  -0.139   1.701 -0.6442  0.3336  0.1449
  776MOL0     O 6986   8.960  -0.176   1.639  0.1166  0.0422 -0.1147
  776MOL0     C 6987   9.033  -0.072   1.564 -0.6191 -0.0837  0.5337
  776MOL0     C 6988   9.178  -0.071   1.613 -1.2754 -0.5396 -0.3294
  776MOL0     C 6989   9.232   0.068   1.633  0.1601 -0.4319 -0.1648
  776MOL0     C 6990   9.382   0.075   1.648 -0.3515 -0.2004  0.8325
  776MOL0     C 6991   9.434   0.212   1.683  0.2713  0.3224 -0.6103
  776MOL0     C 6992   9.568   0.196   1.748 -0.6959  0.3045  0.5228
  776MOL0     C 6993   9.637   0.330   1.785 -0.2094 -0.3052  0.8886
  776MOL0     C 6994   9.590   0.385   1.920  0.2501 -0.0602 -0.1813
  776MOL0    Cl 6995   9.713   0.487   1.990  0.1915  0.1998 -0.0351
  776MOL0     C 6996   8.750  -0.052   1.644  0.2369  0.4133  0.3437
  776MOL0     C 6997   8.636  -0.017   1.707 -0.0194 -0.4655 -0.0290
  776MOL0     O 6998   8.376  -0.189   1.764 -0.2971 -0.0613 -0.0910
  776MOL0     C 6999   8.261   0.043   2.014 -0.5460  1.0893  0.3257
  776MOL0     C 7000   8.149   0.098   2.074 -0.1565  0.0298 -0.0560
  776MOL0     N 7001   7.270   0.206   1.923 -0.2277  0.2861 -0.0453
  776MOL0     N 7002   7.150   0.159   1.912  0.5322  0.2077  0.0271
  776MOL0     C 7003   5.972   0.554   2.153  0.3792 -0.0750 -0.2000
  776MOL0     C 7004   5.864   0.606   2.078 -0.6429 -0.0099  0.0556
  776MOL0     C 7005   5.651   0.839   1.746  0.5411 -0.7758 -0.1690
  776MOL0     C 7006   5.576   0.924   1.824 -0.1681 -0.2249  0.1026
  776MOL0     C 7007   5.469   0.992   1.770 -0.9312 -0.3909  0.7024
  776MOL0     C 7008   5.420   0.965   1.643  1.0420 -0.4909 -0.3166
  776MOL0     O 7009   5.305   1.035   1.611 -0.2054 -0.0222  0.0570
  776MOL0     C 7010   5.247   0.998   1.487  0.0889 -0.4758 -0.2579
  776MOL0     C 7011   5.100   1.036   1.471  0.3296 -0.1691  0.0950
  776MOL0     C 7012   5.085   1.179   1.514  0.0126  0.4768 -0.4338
  776MOL0     C 7013   4.937   1.220   1.487 -0.1347 -0.6747 -0.9637
  776MOL0     C 7014   4.936   1.367   1.492  0.0259  1.0445 -0.4365
  776MOL0     C 7015   4.940   1.487   1.499  0.5089  0.2268 -0.0477
  776MOL0     C 7016   5.490   0.876   1.561 -0.2604  0.3603 -0.2357
  776MOL0     C 7017   5.605   0.814   1.614 -0.2261  0.6474 -0.1557
  776MOL0     C 7018   5.670   0.721   1.512  0.7674  0.6425  0.3996
  776MOL0     H 7019   6.029   0.862   1.937 -2.7343  1.4151  0.1841
  776MOL0     H 7020   6.214   0.762   2.078  0.1090 -0.2329  3.0942
  776MOL0     H 7021   6.104   0.408   2.331 -0.0605  0.1204  0.6639
  776MOL0     H 7022   6.280   0.436   2.357  2.0320 -1.7182 -1.4038
  776MOL0     H 7023   6.229   0.227   2.206 -0.5907 -0.3603 -1.9979
  776MOL0     H 7024   6.154   0.337   2.097  0.0730 -1.5205  0.5976
  776MOL0     H 7025   6.383   0.352   2.002 -0.0354  1.7199 -0.5827
  776MOL0     H 7026   6.400   0.453   2.139 -1.5669 -1.1936  1.1992
  776MOL0     H 7027   6.500   0.279   2.264  5.0409 -1.1720  0.0404
  776MOL0     H 7028   6.442   0.152   2.148  1.6231 -0.9408  0.2381
  776MOL0     H 7029   6.644   0.371   2.091  1.3338 -0.4681 -1.5237
  776MOL0     H 7030   6.593   0.241   1.975  1.6613 -1.5263  0.0505
  776MOL0     H 7031   6.747   0.186   2.237  3.4824  0.7678 -1.3631
  776MOL0     H 7032   6.720   0.071   2.101  2.7809 -1.3339  2.2607
  776MOL0     H 7033   6.902   0.307   2.111 -0.9260 -1.5417  3.2633
  776MOL0     H 7034   6.852   0.225   1.955  2.0266 -3.1713 -1.6681
  776MOL0     H 7035   6.977   0.056   2.178 -0.4103  1.2082  0.8364
  776MOL0     H 7036   6.929   0.026   2.008  0.6705  0.4259 -0.1900
  776MOL0     H 7037   7.188   0.171   2.229 -0.0579  1.4854  0.7462
  776MOL0     H 7038   7.438   0.235   2.213 -0.4224  0.4183 -0.8133
  776MOL0     H 7039   7.460   0.375   2.109  0.2804  0.2300  0.3607
  776MOL0     H 7040   7.535   0.100   1.995 -0.3038 -0.5543  0.5283
  776MOL0     H 7041   7.578   0.264   1.946 -2.3106 -0.0423 -1.0137
  776MOL0     H 7042   7.718   0.294   2.141 -0.1972  0.7415 -3.1505
  776MOL0     H 7043   7.662   0.137   2.211 -0.1543 -0.4584 -0.5125
  776MOL0     H 7044   7.742   0.029   2.013 -0.9072 -0.4745  2.5507
  776MOL0     H 7045   7.810   0.178   1.950 -1.2516  0.7029  0.3452
  776MOL0     H 7046   7.921  -0.100   1.930  0.5451 -1.4989  0.7878
  776MOL0     H 7047   8.123  -0.324   1.848 -3.0093 -1.4964 -0.0596
  776MOL0     H 7048   8.138  -0.235   1.705  0.5166 -1.6549  1.0455
  776MOL0     H 7049   7.982  -0.237   1.778 -0.0853 -0.5048 -0.7130
  776MOL0     H 7050   8.665  -0.234   1.979  2.2099 -0.6222 -0.3871
  776MOL0     H 7051   8.891  -0.279   1.842  1.5340  1.8940 -0.2974
  776MOL0     H 7052   9.021  -0.093   1.457 -2.9786 -0.7161  0.8631
  776MOL0     H 7053   8.982   0.024   1.576 -1.0912 -0.1567 -0.7376
  776MOL0     H 7054   9.186  -0.118   1.712  3.8026 -1.1656 -0.7829
  776MOL0     H 7055   9.226  -0.126   1.532 -3.1252  0.5188 -2.2600
  776MOL0     H 7056   9.179   0.087   1.727  1.2040 -1.9429  0.7805
  776MOL0     H 7057   9.200   0.145   1.562  0.1184 -1.9373 -1.8490
  776MOL0     H 7058   9.430   0.059   1.551 -0.9752 -0.9507  0.6414
  776MOL0     H 7059   9.407  -0.006   1.716 -1.0937  0.3699  1.8182
  776MOL0     H 7060   9.442   0.274   1.593  3.2080  1.1676  0.1195
  776MOL0     H 7061   9.365   0.254   1.756 -1.1613 -1.6684 -0.7454
  776MOL0     H 7062   9.624   0.152   1.665 -2.1524 -2.9604  1.1106
  776MOL0     H 7063   9.575   0.125   1.831 -1.3919  0.2582  0.5501
  776MOL0     H 7064   9.627   0.402   1.704  0.0137 -1.8778 -0.6087
  776MOL0     H 7065   9.743   0.307   1.798  0.4482  2.1313  0.3839
  776MOL0     H 7066   9.570   0.306   1.993 -0.5252  0.2945 -0.0101
  776MOL0     H 7067   9.500   0.445   1.914  0.6273  0.4668 -0.7719
  776MOL0     H 7068   8.767  -0.021   1.541 -1.8838 -1.9791 -0.8626
  776MOL0     H 7069   8.565   0.050   1.662 -1.1267 -0.8114  1.1425
  776MOL0     H 7070   8.361   0.085   2.027  1.1146 -2.3733 -0.1585
  776MOL0     H 7071   8.165   0.181   2.143  0.0890  1.0825 -1.3306
  776MOL0     H 7072   5.945   0.472   2.219  0.9825  0.5408  0.8483
  776MOL0     H 7073   5.775   0.544   2.074 -1.3616  0.9133  1.1298
  776MOL0     H 7074   5.615   0.960   1.919 -1.4465  0.2697  0.4692
  776MOL0     H 7075   5.425   1.069   1.832  0.2755 -0.4374  1.6401
  776MOL0     H 7076   5.308   1.053   1.414 -1.1002 -1.9680 -2.5012
  776MOL0     H 7077   5.257   0.893   1.459  1.1438 -0.8630  1.4723
  776MOL0     H 7078   5.040   0.963   1.527  0.0083 -0.3880 -0.5223
  776MOL0     H 7079   5.075   1.023   1.366  1.1543  0.2472 -0.1593
  776MOL0     H 7080   5.111   1.205   1.617  2.6075  0.1915 -0.9395
  776MOL0     H 7081   5.156   1.239   1.455  0.9539 -0.2435 -0.0484
  776MOL0     H 7082   4.870   1.169   1.557  3.2716 -3.0339  0.8679
  776MOL0     H 7083   4.910   1.186   1.387  0.2399 -2.1970 -0.5652
  776MOL0     H 7084   4.939   1.590   1.529 -3.0568 -0.1058  1.6036
  776MOL0     H 7085   5.458   0.852   1.460  2.2447 -2.5068 -0.4831
  776MOL0     H 7086   5.602   0.702   1.428 -2.7488  0.8311  2.9749
  776MOL0     H 7087   5.754   0.776   1.468  0.0834 -1.2439 -3.7338
  776MOL0     H 7088   5.702   0.625   1.554 -2.0329 -0.1737  0.8870
  777MOL0     O 7089   2.073   7.230   2.035 -0.5139 -0.1247 -0.4077
  777MOL0     C 7090   2.031   7.276   2.140  0.5177  0.2229  0.9953
  777MOL0     O 7091   2.106   7.293   2.247  0.2892  0.2008  0.2789
  777MOL0     C 7092   2.232   7.242   2.245 -0.7541  0.5412  0.3273
  777MOL0     C 7093   2.252   7.102   2.261 -0.7808  0.3394  0.6917
  777MOL0     C 7094   2.383   7.064   2.265 -1.0094  0.8894  0.6456
  777MOL0     C 7095   2.497   7.144   2.244  0.5269 -0.3990 -1.2262
  777MOL0     O 7096   2.618   7.086   2.276  0.2920  0.3867  0.4400
  777MOL0     C 7097   2.682   7.165   2.377  0.0970 -0.0466  0.7727
  777MOL0     C 7098   2.834   7.145   2.373 -0.3145 -0.7495  1.5114
  777MOL0     C 7099   2.894   7.198   2.507  0.0798  0.1547 -0.4081
  777MOL0     C 7100   2.892   7.349   2.523  0.0190 -0.0898 -0.0371
  777MOL0     C 7101   2.986   7.404   2.632  0.2930  0.3947 -0.0001
  777MOL0     C 7102   2.981   7.326   2.770  0.2595  0.6136 -0.6470
  777MOL0     C 7103   3.107   7.371   2.849  0.3863  0.2544 -0.3217
  777MOL0     C 7104   3.095   7.322   3.001 -0.8527 -0.1236  0.8517
  777MOL0     N 7105   2.983   7.366   3.079  0.0944  0.6829  0.0671
  777MOL0     C 7106   2.928   7.298   3.181 -0.0385  0.4143 -0.7135
  777MOL0     C 7107   2.843   7.377   3.244  0.6218  0.0787 -0.6485
  777MOL0     C 7108   2.761   7.346   3.371  0.4719 -0.2638  0.0226
  777MOL0     C 7109   2.619   7.316   3.331 -0.2382 -0.3058  0.8519
  777MOL0     C 7110   2.547   7.419   3.254  0.2900 -1.0451  0.2499
  777MOL0     C 7111   2.395   7.390   3.261 -0.2211 -0.3536  0.4428
  777MOL0     O 7112   2.340   7.494   3.176  0.6503  0.0028 -0.1200
  777MOL0     C 7113   2.209   7.520   3.185  0.4513 -0.1495 -0.1951
  777MOL0     C 7114   2.155   7.625   3.103 -0.2104  0.2807 -0.9609
  777MOL0     C 7115   2.021   7.648   3.084 -0.0766 -0.1477 -0.3111
  777MOL0     C 7116   1.978   7.754   2.988  0.7045  0.3552 -0.2939
  777MOL0     C 7117   1.925   7.569   3.151 -0.1787  0.4249 -0.6521
  777MOL0     C 7118   1.783   7.582   3.135 -0.4153  0.0532 -0.0901
  777MOL0     O 7119   1.727   7.703   3.156 -0.4783  0.9235  0.1390
  777MOL0     C 7120   1.600   7.740   3.115 -0.0431  1.0281  0.1957
  777MOL0     C 7121   1.536   7.842   3.184  0.4013  0.2769  0.1640
  777MOL0     C 7122   1.400   7.863   3.153 -0.6277 -1.1490 -0.5829
  777MOL0     C 7123   1.327   7.797   3.063 -0.1358 -0.5622  0.2599
  777MOL0     O 7124   1.203   7.834   3.026 -0.5392  0.5086  0.1084
  777MOL0     C 7125   1.120   7.894   3.124 -0.4995  0.1259 -0.6096
  777MOL0     C 7126   0.986   7.808   3.113  0.1526  0.1764  0.5075
  777MOL0     C 7127   0.896   7.849   2.996  0.6275 -0.0254  0.1485
  777MOL0     C 7128   0.760   7.800   3.019 -0.5043 -0.1575 -0.3723
  777MOL0     C 7129   0.740   7.650   3.006 -0.2589  0.2719 -0.1844
  777MOL0     C 7130   0.586   7.616   3.006  0.4814  0.7231  0.0250
  777MOL0     C 7131   0.542   7.465   2.983 -0.5790  0.1007 -0.4129
  777MOL0     C 7132   0.403   7.433   2.924  0.5236 -0.5334  0.1629
  777MOL0    Cl 7133   0.388   7.507   2.766  0.1853  0.0209  0.3999
  777MOL0     C 7134   1.384   7.693   2.997  0.4755 -0.2857  0.6059
  777MOL0     C 7135   1.521   7.669   3.018 -0.1586  0.6233 -0.3530
  777MOL0     O 7136   1.717   7.488   3.093 -0.4187  0.5474  0.1899
  777MOL0     C 7137   1.973   7.484   3.255  0.6243  0.0493 -0.1930
  777MOL0     C 7138   2.112   7.457   3.271  0.3358 -1.1883  0.0851
  777MOL0     N 7139   2.853   7.496   3.180  0.2833 -0.0745  0.4258
  777MOL0     N 7140   2.935   7.485   3.085 -0.5224 -0.7944  0.1319
  777MOL0     C 7141   2.473   7.279   2.216  0.1180 -0.3751  0.4584
  777MOL0     C 7142   2.340   7.327   2.219 -0.6007 -0.4762  0.1811
  777MOL0     C 7143   1.887   7.331   2.156 -0.6410  0.4219 -0.4403
  777MOL0     C 7144   1.847   7.410   2.273 -0.6180 -0.5519  0.0388
  777MOL0     C 7145   1.725   7.473   2.279 -0.1318  0.6264 -0.9172
  777MOL0     C 7146   1.631   7.456   2.179 -0.0794 -0.5941  0.3076
  777MOL0     O 7147   1.506   7.503   2.176 -0.0287 -0.3973 -0.5825
  777MOL0     C 7148   1.448   7.531   2.303  0.2967  0.1227 -0.0869
  777MOL0     C 7149   1.397   7.400   2.364 -0.8375 -0.1702  0.8628
  777MOL0     C 7150   1.305   7.309   2.266 -0.6387  0.5783  0.0516
  777MOL0     C 7151   1.155   7.332   2.282  0.7473  0.2805 -0.2789
  777MOL0     C 7152   1.102   7.467   2.261 -0.4288  0.0379 -0.5227
  777MOL0     C 7153   1.049   7.569   2.250  0.8386 -1.0045  0.6027
  777MOL0     C 7154   1.665   7.384   2.066 -0.8369 -0.0150  0.7578
  777MOL0     C 7155   1.786   7.315   2.055  0.4612  0.6322 -0.5719
  777MOL0     C 7156   1.804   7.214   1.943 -0.0064  0.5915 -0.2843
  777MOL0     H 7157   2.171   7.030   2.267  0.7736 -1.6459 -0.6728
  777MOL0     H 7158   2.415   6.961   2.282  0.3890  1.3583  0.9792
  777MOL0     H 7159   2.635   7.155   2.476  1.9738 -0.6876  1.6471
  777MOL0     H 7160   2.666   7.273   2.366 -2.4259 -0.1625  2.3906
  777MOL0     H 7161   2.854   7.038   2.367  0.9491 -0.4615 -0.5828
  777MOL0     H 7162   2.883   7.193   2.287  0.0563 -0.5901  1.8087
  777MOL0     H 7163   2.836   7.152   2.588  1.2645 -0.1409  0.2846
  777MOL0     H 7164   3.001   7.177   2.506  0.4548  1.8691 -2.1704
  777MOL0     H 7165   2.920   7.395   2.428  1.5505  0.4560  0.6525
  777MOL0     H 7166   2.790   7.381   2.549  0.2711  2.0646 -1.4953
  777MOL0     H 7167   2.972   7.512   2.648  0.7110  0.6821 -1.4583
  777MOL0     H 7168   3.087   7.401   2.590  0.5426 -2.8983  0.5785
  777MOL0     H 7169   2.891   7.352   2.827 -1.4893 -2.5806 -1.7395
  777MOL0     H 7170   2.974   7.218   2.759  1.4595  0.3635  0.7499
  777MOL0     H 7171   3.112   7.480   2.849 -0.0444  0.2747 -0.2566
  777MOL0     H 7172   3.197   7.335   2.798  1.4726  3.0691 -0.5375
  777MOL0     H 7173   3.088   7.213   2.995 -2.2559  0.0260 -1.4689
  777MOL0     H 7174   3.190   7.347   3.048  1.3760 -1.1483 -2.6767
  777MOL0     H 7175   2.950   7.201   3.223 -1.6334  0.8562  1.3605
  777MOL0     H 7176   2.765   7.434   3.436  0.1961 -0.2999  0.0881
  777MOL0     H 7177   2.798   7.256   3.423 -0.6659 -1.9385 -1.9082
  777MOL0     H 7178   2.607   7.217   3.285 -0.7253  0.5431 -0.9287
  777MOL0     H 7179   2.567   7.312   3.428 -1.1992  1.4079  0.4428
  777MOL0     H 7180   2.563   7.517   3.299 -2.6462 -0.6756  0.7114
  777MOL0     H 7181   2.566   7.423   3.146 -0.2219 -3.6234  0.0050
  777MOL0     H 7182   2.381   7.287   3.225  0.8493 -1.3489  2.6658
  777MOL0     H 7183   2.364   7.394   3.366  1.6818  2.4368  0.9832
  777MOL0     H 7184   2.220   7.694   3.050  1.4310 -0.8519 -0.5062
  777MOL0     H 7185   2.041   7.759   2.899  1.8713  1.4001  0.5558
  777MOL0     H 7186   1.989   7.844   3.049 -2.7660  0.1109  0.9305
  777MOL0     H 7187   1.876   7.737   2.952 -0.0766  1.7837  1.1158
  777MOL0     H 7188   1.582   7.891   3.269 -1.9658  0.6314  1.3307
  777MOL0     H 7189   1.356   7.946   3.208 -0.1327 -0.8392 -0.6471
  777MOL0     H 7190   1.157   7.868   3.223 -0.6364 -0.7348 -0.7792
  777MOL0     H 7191   1.116   8.002   3.109 -0.6535  0.3097  0.6506
  777MOL0     H 7192   1.000   7.699   3.104 -0.0062  0.0457  1.6739
  777MOL0     H 7193   0.934   7.833   3.206 -0.9936 -0.8712  0.1773
  777MOL0     H 7194   0.926   7.813   2.897 -0.2433  0.7396 -0.4155
  777MOL0     H 7195   0.877   7.957   2.991 -2.9335 -0.4689  1.2331
  777MOL0     H 7196   0.696   7.854   2.948  1.0759 -1.3269 -2.8321
  777MOL0     H 7197   0.735   7.832   3.121  1.2559 -1.3448  0.4921
  777MOL0     H 7198   0.785   7.622   2.910 -1.1235  2.1041 -1.1961
  777MOL0     H 7199   0.800   7.606   3.085  1.7329 -0.0928 -1.8187
  777MOL0     H 7200   0.543   7.674   2.924  0.0197  2.2989  1.3317
  777MOL0     H 7201   0.546   7.661   3.097  1.2381  1.2442  0.1075
  777MOL0     H 7202   0.545   7.416   3.081 -0.4955  2.1382  0.6748
  777MOL0     H 7203   0.615   7.411   2.923 -0.8446 -1.3696  0.5442
  777MOL0     H 7204   0.321   7.458   2.992  0.0199  1.5653 -1.1132
  777MOL0     H 7205   0.393   7.324   2.920  2.3977 -0.7682  0.5990
  777MOL0     H 7206   1.338   7.651   2.908  1.1251  2.6792 -1.2804
  777MOL0     H 7207   1.566   7.591   2.957 -0.5027  0.1436  0.0062
  777MOL0     H 7208   1.897   7.429   3.308 -0.9398  2.7947  0.6277
  777MOL0     H 7209   2.149   7.374   3.331  2.0733  0.0857  0.8599
  777MOL0     H 7210   2.564   7.338   2.206 -0.0855 -0.3991 -2.1991
  777MOL0     H 7211   2.326   7.430   2.189 -1.1035  0.1054  2.2171
  777MOL0     H 7212   1.925   7.437   2.344 -1.8205 -0.8733  1.5224
  777MOL0     H 7213   1.707   7.524   2.373 -2.1588 -0.2071 -0.8093
  777MOL0     H 7214   1.503   7.605   2.362 -1.1223 -0.2437  1.8126
  777MOL0     H 7215   1.360   7.595   2.288  0.5520  0.5559  0.2418
  777MOL0     H 7216   1.342   7.430   2.453  3.6364  3.2737  2.8526
  777MOL0     H 7217   1.484   7.343   2.398 -1.2808 -1.4979 -0.1520
  777MOL0     H 7218   1.324   7.331   2.160 -0.7558 -0.5197 -0.2060
  777MOL0     H 7219   1.338   7.210   2.297 -2.3945  0.0172  0.2712
  777MOL0     H 7220   1.120   7.302   2.381  1.9969  0.5856  0.2728
  777MOL0     H 7221   1.103   7.264   2.214 -1.0618  1.2735  0.0357
  777MOL0     H 7222   0.993   7.660   2.242 -3.4663 -3.4488 -0.5355
  777MOL0     H 7223   1.597   7.368   1.983 -0.2559 -1.9717  0.5997
  777MOL0     H 7224   1.857   7.124   1.975  0.4733  1.6524  2.1529
  777MOL0     H 7225   1.706   7.179   1.909 -0.3683 -0.0931  1.3844
  777MOL0     H 7226   1.862   7.265   1.865 -0.5194  1.3532 -0.1820
  778MOL0     O 7227   4.233   6.523   9.161  0.0480  0.3700  0.5572
  778MOL0     C 7228   4.205   6.594   9.064 -0.6081 -0.6567  0.8228
  778MOL0     O 7229   4.295   6.634   8.968 -0.5499  0.4519 -0.6581
  778MOL0     C 7230   4.417   6.572   8.968  0.5485 -0.8717 -1.2918
  778MOL0     C 7231   4.459   6.516   8.851  0.3403  0.4389  0.3582
  778MOL0     C 7232   4.588   6.458   8.837 -0.2448  0.2806  0.0067
  778MOL0     C 7233   4.674   6.465   8.951  0.2689  0.6131  1.1578
  778MOL0     O 7234   4.798   6.407   8.951 -0.1620  0.8400  0.3605
  778MOL0     C 7235   4.853   6.335   8.842 -0.8188 -0.1884 -0.2266
  778MOL0     C 7236   4.963   6.236   8.895  0.2568  0.3189 -0.3879
  778MOL0     C 7237   5.085   6.303   8.954  0.3039 -1.1538 -0.1857
  778MOL0     C 7238   5.194   6.205   8.981  0.7226  0.2991  0.1043
  778MOL0     C 7239   5.313   6.275   9.054  0.0078  0.1521  0.9632
  778MOL0     C 7240   5.395   6.157   9.107  0.6813 -1.1201  0.3349
  778MOL0     C 7241   5.540   6.193   9.146  0.4606  0.2045 -0.3091
  778MOL0     C 7242   5.566   6.242   9.291  0.0027  0.1247  0.1036
  778MOL0     N 7243   5.569   6.130   9.391  0.1804 -0.7990  0.6455
  778MOL0     C 7244   5.663   6.031   9.377 -0.4129  0.1428 -0.0540
  778MOL0     C 7245   5.639   5.944   9.480  0.6405  0.7913 -0.3921
  778MOL0     C 7246   5.711   5.815   9.528  1.0146 -0.1645  0.4461
  778MOL0     C 7247   5.824   5.781   9.445  0.1510  0.0643  0.3570
  778MOL0     C 7248   5.868   5.640   9.478 -0.2257  0.3586 -0.5627
  778MOL0     C 7249   6.014   5.608   9.439  0.5063 -0.5560 -0.0708
  778MOL0     O 7250   6.047   5.469   9.448  0.6420  0.2280  0.4490
  778MOL0     C 7251   6.098   5.420   9.568 -0.7172 -0.2282  0.0305
  778MOL0     C 7252   6.143   5.281   9.557  0.5995 -0.1526 -0.0659
  778MOL0     C 7253   6.194   5.213   9.664  0.0713 -0.5492  0.4630
  778MOL0     C 7254   6.225   5.075   9.641 -0.0561  0.2388 -0.0929
  778MOL0     C 7255   6.200   5.281   9.782 -0.2766 -0.0739 -0.5963
  778MOL0     C 7256   6.268   5.212   9.900  0.2338 -0.5504 -0.3516
  778MOL0     O 7257   6.385   5.142   9.878  0.3419  0.2482 -0.0978
  778MOL0     C 7258   6.429   5.052   9.967 -0.2573  0.0664 -0.0614
  778MOL0     C 7259   6.469   4.920   9.918  0.2671 -0.0217 -0.1375
  778MOL0     C 7260   6.524   4.828  10.010  0.1778  0.4472  0.0948
  778MOL0     C 7261   6.543   4.858  10.147 -0.3352 -0.7758 -0.2503
  778MOL0     O 7262   6.582   4.767  10.234 -0.2355  0.4390 -0.0488
  778MOL0     C 7263   6.543   4.637  10.206  0.1408 -0.3140  0.2849
  778MOL0     C 7264   6.548   4.555  10.329  0.2302 -0.5169  0.0180
  778MOL0     C 7265   6.572   4.402  10.279 -0.1347  0.3320 -0.0555
  778MOL0     C 7266   6.431   4.341  10.266 -0.4397 -0.1758 -0.1311
  778MOL0     C 7267   6.441   4.188  10.244  0.1179 -0.6045  0.3334
  778MOL0     C 7268   6.459   4.107  10.373  0.5047 -0.0171 -0.7262
  778MOL0     C 7269   6.381   3.979  10.374 -0.0669 -0.2467  0.7747
  778MOL0     C 7270   6.395   3.885  10.257 -0.1261  0.1258  0.0613
  778MOL0    Cl 7271   6.279   3.907  10.127  0.2945  0.0687 -0.1053
  778MOL0     C 7272   6.502   4.982  10.194  1.4402  0.3598 -0.5751
  778MOL0     C 7273   6.452   5.083  10.102 -0.6114  0.4675 -0.3501
  778MOL0     O 7274   6.210   5.229  10.014  0.0718  0.7691 -0.5807
  778MOL0     C 7275   6.152   5.412   9.802  0.6796 -0.0790  0.2171
  778MOL0     C 7276   6.100   5.481   9.691  0.2419 -0.7349  0.0012
  778MOL0     N 7277   5.528   5.991   9.550 -0.3228 -0.1075  0.0622
  778MOL0     N 7278   5.481   6.100   9.492 -0.7283  0.0717  0.6412
  778MOL0     C 7279   4.630   6.526   9.062  0.1730 -0.4036 -0.8028
  778MOL0     C 7280   4.504   6.581   9.072 -0.1470  0.1294 -0.3570
  778MOL0     C 7281   4.065   6.655   9.059  0.1684 -0.8543  0.1263
  778MOL0     C 7282   4.047   6.756   8.961 -0.0805 -0.4590 -0.2559
  778MOL0     C 7283   3.920   6.826   8.952  0.7464  0.2294  0.0823
  778MOL0     C 7284   3.809   6.786   9.025  0.6014  0.3096 -0.6735
  778MOL0     O 7285   3.684   6.836   8.997 -0.6543  0.9976  0.0523
  778MOL0     C 7286   3.602   6.879   9.107 -0.7876 -0.5114 -0.2214
  778MOL0     C 7287   3.503   6.973   9.037 -0.0323  0.1705  0.1451
  778MOL0     C 7288   3.411   6.901   8.942  0.8641 -0.3020  0.4326
  778MOL0     C 7289   3.276   6.985   8.929  0.0347 -1.2783  0.6723
  778MOL0     C 7290   3.304   7.105   8.843  1.2498  0.5703 -0.5952
  778MOL0     C 7291   3.318   7.205   8.779  0.0107  1.1196 -1.2884
  778MOL0     C 7292   3.823   6.693   9.125 -1.0349 -0.3810 -0.1793
  778MOL0     C 7293   3.953   6.625   9.144  0.6897 -0.0468  1.1123
  778MOL0     C 7294   3.958   6.544   9.266  0.2607 -0.3407 -0.7901
  778MOL0     H 7295   4.390   6.499   8.768  1.3660 -2.3020 -0.0450
  778MOL0     H 7296   4.618   6.418   8.741 -2.0213  0.8324 -0.8240
  778MOL0     H 7297   4.899   6.410   8.777  0.3957  0.6243  1.4986
  778MOL0     H 7298   4.771   6.278   8.798  0.6080 -0.3472 -2.8605
  778MOL0     H 7299   4.907   6.179   8.970 -1.2803 -0.4090 -1.9910
  778MOL0     H 7300   5.007   6.172   8.818  1.4287 -1.8750  1.9560
  778MOL0     H 7301   5.124   6.384   8.891 -0.8120  1.2240  1.9871
  778MOL0     H 7302   5.048   6.351   9.046 -0.3551  0.5993 -1.3140
  778MOL0     H 7303   5.150   6.125   9.042 -0.3229 -0.5235 -1.6408
  778MOL0     H 7304   5.230   6.160   8.888 -0.5454  0.0601 -0.2996
  778MOL0     H 7305   5.280   6.344   9.133 -0.5909  0.2523  0.6308
  778MOL0     H 7306   5.368   6.339   8.984 -0.6847 -0.1000  0.1658
  778MOL0     H 7307   5.348   6.099   9.186  0.0147  0.1257  0.8771
  778MOL0     H 7308   5.404   6.086   9.024 -0.3716 -0.9402  0.0507
  778MOL0     H 7309   5.574   6.277   9.084  3.2996 -1.4567 -1.1532
  778MOL0     H 7310   5.613   6.114   9.128  0.4453 -0.3147  1.6786
  778MOL0     H 7311   5.667   6.283   9.282  0.3888 -0.9873 -0.8759
  778MOL0     H 7312   5.501   6.324   9.323 -0.1429 -0.4783  1.4036
  778MOL0     H 7313   5.753   6.034   9.317  0.8172 -1.1462  1.6232
  778MOL0     H 7314   5.632   5.740   9.533 -0.4076  1.1989 -0.4428
  778MOL0     H 7315   5.740   5.830   9.632 -2.9077  0.4229  1.6307
  778MOL0     H 7316   5.801   5.786   9.338  0.5515 -0.5175  0.2395
  778MOL0     H 7317   5.908   5.851   9.451 -0.5921  1.0398 -0.3889
  778MOL0     H 7318   5.856   5.626   9.586  1.5067 -1.7927 -0.5713
  778MOL0     H 7319   5.805   5.565   9.429  1.9868  0.3552 -3.7305
  778MOL0     H 7320   6.030   5.650   9.339  0.5829 -0.5572 -0.0589
  778MOL0     H 7321   6.081   5.670   9.498  0.9449  0.4136 -1.5309
  778MOL0     H 7322   6.141   5.222   9.466  1.5282 -2.0747  1.0890
  778MOL0     H 7323   6.212   5.017   9.733 -1.3437 -0.0406 -0.4301
  778MOL0     H 7324   6.332   5.071   9.620  0.0581 -0.6633  0.6154
  778MOL0     H 7325   6.154   5.037   9.568 -0.4357  0.5785  0.0973
  778MOL0     H 7326   6.437   4.883   9.821 -0.1784  1.6770 -0.6657
  778MOL0     H 7327   6.545   4.729   9.969 -0.3072 -0.0929  1.1311
  778MOL0     H 7328   6.438   4.631  10.176  0.2867 -2.0844 -0.0176
  778MOL0     H 7329   6.606   4.608  10.121  0.9536  1.2218  0.3353
  778MOL0     H 7330   6.635   4.590  10.384 -0.5948 -0.5751  1.3921
  778MOL0     H 7331   6.458   4.559  10.391 -0.1146 -4.2783  0.0335
  778MOL0     H 7332   6.632   4.350  10.354  0.0930  0.1965 -0.3297
  778MOL0     H 7333   6.611   4.388  10.178 -0.6967 -1.0495 -0.1047
  778MOL0     H 7334   6.387   4.381  10.174  0.1655  0.1881 -0.2672
  778MOL0     H 7335   6.363   4.373  10.345 -1.9261 -1.1252 -0.9666
  778MOL0     H 7336   6.345   4.155  10.205 -1.4751 -0.0498  3.4651
  778MOL0     H 7337   6.523   4.160  10.177  1.0441  0.2821  1.0677
  778MOL0     H 7338   6.423   4.154  10.465 -0.8713 -0.8148 -0.8408
  778MOL0     H 7339   6.563   4.081  10.397  0.0679 -0.0189  1.3534
  778MOL0     H 7340   6.274   4.001  10.381 -0.0930 -0.5983  1.5667
  778MOL0     H 7341   6.408   3.920  10.462 -0.5095 -1.5286  0.0731
  778MOL0     H 7342   6.390   3.781  10.290 -1.2969  0.3417  0.6040
  778MOL0     H 7343   6.493   3.898  10.210 -0.2742 -1.2926 -0.7007
  778MOL0     H 7344   6.493   5.009  10.299 -2.5494 -1.1790 -0.3491
  778MOL0     H 7345   6.427   5.183  10.138  1.0910  0.2570  1.6386
  778MOL0     H 7346   6.150   5.454   9.902 -0.0236  0.7103 -0.1066
  778MOL0     H 7347   6.079   5.587   9.693  3.4078 -0.0052  0.1886
  778MOL0     H 7348   4.687   6.525   9.155  3.1348  3.9433 -2.2677
  778MOL0     H 7349   4.462   6.603   9.170 -1.8822 -3.9408  0.0400
  778MOL0     H 7350   4.125   6.770   8.887 -0.9880 -1.7818 -1.5082
  778MOL0     H 7351   3.916   6.903   8.875  1.9405  0.3370  0.1191
  778MOL0     H 7352   3.555   6.802   9.169 -1.2542 -1.6629 -1.9280
  778MOL0     H 7353   3.666   6.940   9.171 -0.0049  0.9873 -2.3244
  778MOL0     H 7354   3.566   7.037   8.974  1.1204 -0.0931  0.9904
  778MOL0     H 7355   3.445   7.021   9.116 -0.4844  0.1287 -0.1624
  778MOL0     H 7356   3.453   6.890   8.842  2.0472  4.4595  0.1677
  778MOL0     H 7357   3.387   6.804   8.989 -3.6511  0.7468  0.7027
  778MOL0     H 7358   3.245   7.020   9.028 -1.9068 -1.7162  0.2712
  778MOL0     H 7359   3.188   6.936   8.886 -0.0953 -2.3410  2.0661
  778MOL0     H 7360   3.330   7.289   8.712 -3.4070  1.5999 -1.4835
  778MOL0     H 7361   3.746   6.674   9.199  0.9760  1.3611  2.5803
  778MOL0     H 7362   4.044   6.573   9.327 -0.3801  1.5401 -0.7287
  778MOL0     H 7363   3.864   6.556   9.320  1.7373 -0.9890  2.1386
  778MOL0     H 7364   3.964   6.441   9.228 -1.0891 -1.4894  1.8409
  779MOL0     O 7365   2.013   9.718   4.065 -0.5634 -0.2722 -0.4780
  779MOL0     C 7366   2.002   9.609   4.011 -0.7046 -0.0562  0.2730
  779MOL0     O 7367   2.098   9.548   3.940  0.4606 -0.1901 -0.1482
  779MOL0     C 7368   2.227   9.605   3.930  0.5416 -0.5981 -0.3162
  779MOL0     C 7369   2.332   9.554   4.012 -0.1185  0.5376 -0.2910
  779MOL0     C 7370   2.462   9.602   4.007 -0.2425  0.0437  0.4434
  779MOL0     C 7371   2.490   9.705   3.907  0.6321  0.5556 -0.0530
  779MOL0     O 7372   2.618   9.731   3.860  1.0167  0.5787 -0.6270
  779MOL0     C 7373   2.723   9.746   3.961 -0.9004  0.9557 -0.8467
  779MOL0     C 7374   2.700   9.880   4.032  0.2469  0.5372 -0.7176
  779MOL0     C 7375   2.817   9.894   4.136 -0.0821 -0.3008  0.6235
  779MOL0     C 7376   2.957   9.898   4.084 -0.6656  0.3068  1.2497
  779MOL0     C 7377   3.068   9.926   4.189  0.2083 -0.6878  0.3340
  779MOL0     C 7378   3.082  10.074   4.225 -0.1210 -0.1894 -0.5081
  779MOL0     C 7379   3.201  10.084   4.329 -0.5381 -0.1824 -0.2799
  779MOL0     C 7380   3.183  10.196   4.427  0.2337  0.2021 -0.2929
  779MOL0     N 7381   3.263  10.310   4.384  0.3369 -0.4016 -1.3038
  779MOL0     C 7382   3.401  10.325   4.399 -0.1799 -0.0364  0.7747
  779MOL0     C 7383   3.431  10.449   4.354  0.8300 -0.0312 -0.1423
  779MOL0     C 7384   3.560  10.522   4.338 -0.1820 -0.4687  0.7841
  779MOL0     C 7385   3.593  10.533   4.191 -0.1242  0.1741 -0.7508
  779MOL0     C 7386   3.621  10.407   4.120 -0.0912 -0.0033 -0.2291
  779MOL0     C 7387   3.509  10.351   4.024  0.4593  0.5081  0.3735
  779MOL0     O 7388   3.543  10.224   3.977  0.3233 -0.1334 -0.4026
  779MOL0     C 7389   3.453  10.168   3.887 -0.1450  0.3924  0.6330
  779MOL0     C 7390   3.474  10.208   3.751  0.0582 -0.0176 -0.0258
  779MOL0     C 7391   3.388  10.168   3.646  0.3343 -0.6664 -0.7063
  779MOL0     C 7392   3.402  10.220   3.508  0.4049 -0.4812 -0.0793
  779MOL0     C 7393   3.282  10.081   3.685 -0.4151  0.3882  0.3407
  779MOL0     C 7394   3.178   9.996   3.597 -0.1897 -0.0126 -0.8004
  779MOL0     O 7395   3.074   9.923   3.658  0.0998  0.7139 -0.5285
  779MOL0     C 7396   2.995   9.841   3.580  0.0771 -0.0705 -0.3281
  779MOL0     C 7397   2.977   9.702   3.611  0.4169  0.2878 -0.3019
  779MOL0     C 7398   2.871   9.626   3.569  0.4144 -0.6473 -0.0934
  779MOL0     C 7399   2.790   9.673   3.464  0.6035  0.1961  0.2668
  779MOL0     O 7400   2.695   9.586   3.419  1.0822 -0.0708 -0.2118
  779MOL0     C 7401   2.576   9.593   3.502  0.4604 -0.5516 -0.0314
  779MOL0     C 7402   2.477   9.484   3.466 -0.4834 -0.0114  0.2674
  779MOL0     C 7403   2.338   9.498   3.513  0.5838  0.3399 -0.0635
  779MOL0     C 7404   2.236   9.391   3.474 -1.1847 -0.2688  0.5140
  779MOL0     C 7405   2.092   9.432   3.518 -0.2548 -0.0416 -0.2172
  779MOL0     C 7406   1.991   9.342   3.457  0.6727 -0.6904 -0.3683
  779MOL0     C 7407   1.840   9.379   3.485  0.9481 -0.1384 -0.8927
  779MOL0     C 7408   1.742   9.289   3.422  0.0007  0.3189  0.6261
  779MOL0    Cl 7409   1.718   9.322   3.246 -0.2859 -0.2718 -0.3054
  779MOL0     C 7410   2.817   9.802   3.416 -0.0357 -0.3874 -0.3743
  779MOL0     C 7411   2.922   9.881   3.471  0.0398  0.3389 -0.3042
  779MOL0     O 7412   3.195  10.002   3.476 -0.4407  0.4674 -1.3102
  779MOL0     C 7413   3.263  10.044   3.820  0.0561  0.0104  0.0153
  779MOL0     C 7414   3.341  10.088   3.920  0.3380 -0.2562 -0.4278
  779MOL0     N 7415   3.306  10.510   4.329  0.3408 -0.2850  0.3083
  779MOL0     N 7416   3.206  10.430   4.362 -0.0749  0.1751  0.4039
  779MOL0     C 7417   2.391   9.749   3.822  0.1671 -0.4515 -0.0337
  779MOL0     C 7418   2.259   9.710   3.838  0.5802  0.6614 -1.0515
  779MOL0     C 7419   1.869   9.535   4.022 -0.7036  0.0919  0.7255
  779MOL0     C 7420   1.879   9.398   3.994 -0.1479  0.1416  0.2651
  779MOL0     C 7421   1.766   9.318   3.999  0.0373 -0.1152 -0.2078
  779MOL0     C 7422   1.638   9.372   4.033 -0.9014  0.2167 -0.0861
  779MOL0     O 7423   1.518   9.314   4.031  0.6528 -0.1972 -0.0745
  779MOL0     C 7424   1.505   9.186   3.962  0.0103 -0.2914 -0.3805
  779MOL0     C 7425   1.368   9.161   3.901 -0.4923 -0.2502 -0.3001
  779MOL0     C 7426   1.259   9.127   4.013  0.9114  0.1272  0.6459
  779MOL0     C 7427   1.138   9.074   3.940  0.3096  0.0903  0.1342
  779MOL0     C 7428   1.042   9.046   4.048 -0.1638 -1.1397 -0.1895
  779MOL0     C 7429   0.969   9.020   4.145  0.1069  0.1338 -0.4484
  779MOL0     C 7430   1.634   9.504   4.061  0.1074 -0.3715  0.5194
  779MOL0     C 7431   1.747   9.588   4.049  1.7779  0.0786 -0.0392
  779MOL0     C 7432   1.721   9.739   4.065 -0.2072  0.2760 -0.3144
  779MOL0     H 7433   2.305   9.475   4.081  0.1980  0.3307 -0.4008
  779MOL0     H 7434   2.537   9.560   4.073 -2.4504 -0.4354  2.7954
  779MOL0     H 7435   2.815   9.753   3.901 -0.7474  3.1307 -0.4254
  779MOL0     H 7436   2.721   9.666   4.036 -1.7997  1.2580 -0.5382
  779MOL0     H 7437   2.717   9.959   3.958 -0.4163 -0.0154 -1.4762
  779MOL0     H 7438   2.604   9.892   4.082  1.0788  2.5893  0.4942
  779MOL0     H 7439   2.790   9.986   4.187 -1.7399  0.2200 -1.0551
  779MOL0     H 7440   2.823   9.812   4.208  0.7755 -0.7910  0.0207
  779MOL0     H 7441   2.972   9.804   4.031 -1.5347 -0.0898  1.6874
  779MOL0     H 7442   2.972   9.966   3.999  0.8020  0.4127  1.5655
  779MOL0     H 7443   3.167   9.885   4.167  0.2362 -1.2544  1.4290
  779MOL0     H 7444   3.031   9.874   4.278 -1.1071  0.9374  0.8028
  779MOL0     H 7445   3.114  10.120   4.131 -2.3708  0.0495 -1.1992
  779MOL0     H 7446   2.995  10.129   4.261 -0.0898 -0.4883  0.0319
  779MOL0     H 7447   3.294  10.091   4.273  0.8525 -1.1103  1.7997
  779MOL0     H 7448   3.201  10.000   4.399 -3.5853  0.8994  1.2062
  779MOL0     H 7449   3.076  10.221   4.428 -0.0257 -0.7837  1.5644
  779MOL0     H 7450   3.215  10.163   4.526 -0.0401  1.6644  0.3158
  779MOL0     H 7451   3.475  10.252   4.427  0.4490 -1.1386 -3.1436
  779MOL0     H 7452   3.642  10.468   4.388  0.2185  0.1533  0.8228
  779MOL0     H 7453   3.561  10.627   4.370  0.0438  0.4355 -1.9522
  779MOL0     H 7454   3.510  10.585   4.141  0.1968 -0.0114 -1.4935
  779MOL0     H 7455   3.686  10.588   4.198 -1.2308  1.9486  0.8135
  779MOL0     H 7456   3.709  10.420   4.057  1.1448 -1.6710  1.0531
  779MOL0     H 7457   3.644  10.331   4.196  0.5090  0.0392 -0.3715
  779MOL0     H 7458   3.410  10.348   4.069 -0.1430 -1.1623 -0.9255
  779MOL0     H 7459   3.502  10.421   3.941  2.0519 -0.5850 -0.7575
  779MOL0     H 7460   3.546  10.285   3.727  1.0387 -0.6545  0.7664
  779MOL0     H 7461   3.419  10.140   3.435 -0.8012 -1.8971  1.1306
  779MOL0     H 7462   3.481  10.296   3.506  0.7418 -0.8243  0.0666
  779MOL0     H 7463   3.311  10.273   3.479 -1.1043 -0.9563  3.3717
  779MOL0     H 7464   3.036   9.668   3.695 -2.3660 -0.0827  1.6083
  779MOL0     H 7465   2.851   9.524   3.601  1.8297 -0.7129  0.6561
  779MOL0     H 7466   2.606   9.583   3.607  3.3715  0.6590 -0.6639
  779MOL0     H 7467   2.522   9.687   3.486  1.4359 -0.5270 -4.5731
  779MOL0     H 7468   2.465   9.487   3.357  0.1694 -0.5771  0.1769
  779MOL0     H 7469   2.524   9.388   3.485 -0.2223 -0.7643 -3.3603
  779MOL0     H 7470   2.301   9.595   3.478 -0.3278 -0.1537 -0.5097
  779MOL0     H 7471   2.338   9.500   3.623 -0.0287 -1.3005 -0.0012
  779MOL0     H 7472   2.262   9.291   3.511 -0.6975 -0.2832  0.1465
  779MOL0     H 7473   2.243   9.372   3.366 -1.8231 -2.1070  0.7596
  779MOL0     H 7474   2.080   9.418   3.626  1.1653 -2.6056 -0.3125
  779MOL0     H 7475   2.079   9.538   3.496  1.0036 -0.1149 -1.4630
  779MOL0     H 7476   2.010   9.242   3.497 -0.6529 -0.4443  0.9353
  779MOL0     H 7477   2.022   9.340   3.352  3.7989  0.8932  0.3859
  779MOL0     H 7478   1.819   9.483   3.457  0.9507  0.2778  0.5960
  779MOL0     H 7479   1.836   9.378   3.594  0.5231  3.0615 -0.7709
  779MOL0     H 7480   1.644   9.290   3.470 -0.7027 -0.3547 -0.7211
  779MOL0     H 7481   1.772   9.185   3.436 -1.9524 -0.0533  2.7159
  779MOL0     H 7482   2.761   9.841   3.332 -1.1678  1.0344  0.9683
  779MOL0     H 7483   2.928   9.987   3.447 -0.2657  0.4284 -0.0049
  779MOL0     H 7484   3.188   9.979   3.864  1.7851  0.0185  3.2512
  779MOL0     H 7485   3.327  10.070   4.026  4.8547 -1.0905  0.2114
  779MOL0     H 7486   2.397   9.829   3.749 -0.2307  0.7739  1.2397
  779MOL0     H 7487   2.170   9.740   3.785 -1.5591 -2.6516  0.2855
  779MOL0     H 7488   1.971   9.344   3.976 -0.4717  0.1950 -1.7946
  779MOL0     H 7489   1.788   9.212   3.991  1.5715  0.1975 -0.3969
  779MOL0     H 7490   1.573   9.188   3.876  1.2727  0.6510  0.6035
  779MOL0     H 7491   1.525   9.108   4.036  0.6585 -0.8670 -1.1386
  779MOL0     H 7492   1.375   9.078   3.831  1.3602 -0.9154  0.6115
  779MOL0     H 7493   1.352   9.245   3.832 -0.3236 -2.0661 -2.6693
  779MOL0     H 7494   1.298   9.046   4.076 -1.2970 -0.0261  1.9317
  779MOL0     H 7495   1.223   9.214   4.070 -0.6598 -0.4591  0.5926
  779MOL0     H 7496   1.167   8.984   3.884 -0.6176 -1.6522  2.2900
  779MOL0     H 7497   1.102   9.152   3.873  1.9687  1.3599  0.6650
  779MOL0     H 7498   0.921   9.025   4.240  0.9204 -0.7576  0.0276
  779MOL0     H 7499   1.536   9.547   4.080 -0.1668  0.6109 -2.5589
  779MOL0     H 7500   1.780   9.776   4.149  0.4115 -2.5302  0.5798
  779MOL0     H 7501   1.740   9.802   3.977  3.6763  1.7145  1.3416
  779MOL0     H 7502   1.618   9.759   4.097  0.1990  2.5209 -0.2632
  780MOL0     O 7503   4.281   4.031   8.401 -0.5532  0.0222 -0.4389
  780MOL0     C 7504   4.195   3.990   8.325 -1.0562 -1.2494  0.7052
  780MOL0     O 7505   4.217   3.976   8.183  0.0484 -0.0711 -0.1456
  780MOL0     C 7506   4.332   4.009   8.120  0.8463  0.2866  0.5924
  780MOL0     C 7507   4.462   4.018   8.170 -0.2307 -0.6192  0.0114
  780MOL0     C 7508   4.569   4.041   8.084 -0.4911 -0.0076  0.1360
  780MOL0     C 7509   4.552   4.066   7.944 -0.3598  0.1207 -0.4642
  780MOL0     O 7510   4.655   4.081   7.855 -0.6160 -0.4609  0.3742
  780MOL0     C 7511   4.773   4.150   7.907  0.3025 -0.1970 -0.4253
  780MOL0     C 7512   4.862   4.185   7.785 -0.0162 -1.2095 -0.2383
  780MOL0     C 7513   4.982   4.079   7.766  0.4988  0.3752  0.2895
  780MOL0     C 7514   5.062   4.117   7.647 -0.4917  0.3562  0.9673
  780MOL0     C 7515   5.185   4.034   7.625 -0.2952 -0.7002  0.7656
  780MOL0     C 7516   5.298   4.098   7.538 -0.7080  0.4000  0.1412
  780MOL0     C 7517   5.416   3.998   7.520 -0.1101  0.7648 -0.2542
  780MOL0     C 7518   5.537   4.047   7.449 -0.9439 -0.0348  0.1866
  780MOL0     N 7519   5.617   4.130   7.539  1.0344 -0.5269 -0.5173
  780MOL0     C 7520   5.586   4.267   7.573 -0.4894 -0.7568  0.2418
  780MOL0     C 7521   5.680   4.299   7.670 -0.2222 -0.3314  0.6428
  780MOL0     C 7522   5.702   4.434   7.733 -0.0984  1.4219 -0.7200
  780MOL0     C 7523   5.572   4.472   7.799  0.2900  0.4575 -0.7771
  780MOL0     C 7524   5.490   4.565   7.703  0.0792 -0.1540 -0.1658
  780MOL0     C 7525   5.341   4.573   7.750  0.2912 -0.8078 -0.2580
  780MOL0     O 7526   5.299   4.446   7.799  0.0537  0.0213 -0.1342
  780MOL0     C 7527   5.182   4.445   7.866  0.4260  0.0514 -0.1360
  780MOL0     C 7528   5.080   4.547   7.879 -0.5014  0.4190  0.6294
  780MOL0     C 7529   4.978   4.525   7.970 -0.2767 -0.1878  0.3092
  780MOL0     C 7530   4.859   4.618   7.962 -0.2033  0.2467  0.2874
  780MOL0     C 7531   4.984   4.421   8.064  1.4538  0.6925 -0.0551
  780MOL0     C 7532   4.890   4.403   8.177  0.0826 -0.3163  0.5591
  780MOL0     O 7533   4.939   4.325   8.280 -0.6738  0.5028  0.3055
  780MOL0     C 7534   4.857   4.274   8.377 -0.3340 -0.3760 -0.3887
  780MOL0     C 7535   4.923   4.242   8.500 -0.2628 -0.2738 -1.4080
  780MOL0     C 7536   4.843   4.179   8.601 -0.7426 -0.8295  0.6154
  780MOL0     C 7537   4.711   4.142   8.590 -0.2958  0.1454  0.1923
  780MOL0     O 7538   4.650   4.078   8.697 -0.2323 -0.4354  0.3839
  780MOL0     C 7539   4.524   4.142   8.725  0.6329 -0.3537  0.1103
  780MOL0     C 7540   4.503   4.107   8.876  0.9507  1.1224  0.4976
  780MOL0     C 7541   4.373   4.167   8.931 -0.5314  0.0165  0.9272
  780MOL0     C 7542   4.346   4.141   9.073  0.5109  0.3880  0.5065
  780MOL0     C 7543   4.435   4.214   9.164  0.1528 -0.1889 -0.2731
  780MOL0     C 7544   4.408   4.155   9.305 -0.2591 -0.9387 -1.0527
  780MOL0     C 7545   4.489   4.218   9.414  0.6154  0.5284  0.0240
  780MOL0     C 7546   4.426   4.177   9.554 -0.7086  0.1844  0.0267
  780MOL0    Cl 7547   4.415   3.996   9.567  0.2853 -0.2245 -0.1166
  780MOL0     C 7548   4.655   4.163   8.469 -0.6565 -1.1496  1.2792
  780MOL0     C 7549   4.728   4.230   8.369  0.7065 -0.3904 -0.3616
  780MOL0     O 7550   4.784   4.464   8.184  0.3244 -0.5572 -0.3517
  780MOL0     C 7551   5.085   4.323   8.050  0.4824  0.1932 -0.2126
  780MOL0     C 7552   5.176   4.334   7.951 -0.2583  0.4044 -0.5948
  780MOL0     N 7553   5.774   4.196   7.663  0.8618  0.4886 -0.5752
  780MOL0     N 7554   5.738   4.095   7.593  0.7110  0.8094 -0.1148
  780MOL0     C 7555   4.424   4.048   7.894  0.0406 -0.1729  0.2414
  780MOL0     C 7556   4.325   4.023   7.980  0.4818 -0.3730 -0.3991
  780MOL0     C 7557   4.061   3.952   8.380  1.1023  0.7195  0.0805
  780MOL0     C 7558   3.964   3.899   8.284 -0.1526  0.0837 -0.2390
  780MOL0     C 7559   3.828   3.870   8.314 -0.6490 -0.4225 -0.3535
  780MOL0     C 7560   3.781   3.903   8.443  0.1943 -0.8793  0.3402
  780MOL0     O 7561   3.658   3.873   8.491 -0.0659 -0.6079  0.0461
  780MOL0     C 7562   3.555   3.828   8.398  0.3160  0.2182 -0.8085
  780MOL0     C 7563   3.430   3.799   8.482  0.6475 -0.0014 -0.5340
  780MOL0     C 7564   3.362   3.907   8.574  0.1863  0.7905  0.0396
  780MOL0     C 7565   3.336   4.042   8.504  0.1035 -0.6663  0.3530
  780MOL0     C 7566   3.293   4.133   8.607  0.8672  1.4415 -0.6003
  780MOL0     C 7567   3.245   4.205   8.692  0.1128  0.9574  0.1071
  780MOL0     C 7568   3.872   3.946   8.541  0.1375 -0.0018  0.3464
  780MOL0     C 7569   4.010   3.972   8.505 -0.2107  0.3606 -0.3459
  780MOL0     C 7570   4.091   4.011   8.620 -0.5158  0.8750 -0.0826
  780MOL0     H 7571   4.492   3.998   8.272 -3.2470  1.1152  1.3705
  780MOL0     H 7572   4.665   4.021   8.130 -0.7636  0.4792  0.9564
  780MOL0     H 7573   4.832   4.106   7.988 -3.0616 -1.6213  1.4801
  780MOL0     H 7574   4.724   4.240   7.947 -1.4968 -2.2972  2.5098
  780MOL0     H 7575   4.810   4.193   7.690  1.3668 -1.0475 -1.0182
  780MOL0     H 7576   4.908   4.283   7.801 -0.8697 -1.1386  2.3069
  780MOL0     H 7577   5.045   4.074   7.855  3.1929 -2.6115 -1.5504
  780MOL0     H 7578   4.937   3.981   7.748  2.3679 -0.3564 -0.6682
  780MOL0     H 7579   4.989   4.114   7.565 -3.3001 -0.5808  3.3153
  780MOL0     H 7580   5.093   4.221   7.660 -1.0856  0.9430 -1.6695
  780MOL0     H 7581   5.162   3.933   7.589  0.4382 -0.2930 -0.9691
  780MOL0     H 7582   5.237   4.030   7.721  0.7160 -1.9516  0.1882
  780MOL0     H 7583   5.256   4.113   7.438  1.7641 -0.6415 -1.1575
  780MOL0     H 7584   5.324   4.192   7.587 -1.1403  0.3089  0.5455
  780MOL0     H 7585   5.374   3.906   7.477  0.6060  0.7484 -0.9397
  780MOL0     H 7586   5.453   3.970   7.618  1.7242 -0.1505 -1.1618
  780MOL0     H 7587   5.590   3.955   7.422  0.2928  1.0002 -1.0680
  780MOL0     H 7588   5.502   4.100   7.360 -0.6283  3.1390  1.8037
  780MOL0     H 7589   5.506   4.331   7.538 -1.1562  0.9189  4.2395
  780MOL0     H 7590   5.736   4.500   7.653  1.5619  0.8395 -0.5387
  780MOL0     H 7591   5.777   4.425   7.812  0.0397 -3.0169 -1.0648
  780MOL0     H 7592   5.522   4.382   7.836  2.1042  0.3258  1.6054
  780MOL0     H 7593   5.594   4.537   7.884  3.0185  2.0959 -2.5642
  780MOL0     H 7594   5.541   4.661   7.693 -0.0864  0.1083  1.2270
  780MOL0     H 7595   5.488   4.522   7.603 -0.5692 -0.5330  0.0016
  780MOL0     H 7596   5.345   4.638   7.838 -1.3419 -0.6567 -0.2608
  780MOL0     H 7597   5.276   4.635   7.687 -0.0692  2.2187  2.7894
  780MOL0     H 7598   5.092   4.629   7.809  0.5182 -0.8599 -0.7478
  780MOL0     H 7599   4.776   4.571   7.908 -0.5319 -0.8156  1.6640
  780MOL0     H 7600   4.899   4.708   7.915  2.7541  0.0944  2.2234
  780MOL0     H 7601   4.815   4.663   8.051 -1.4159 -0.8416  0.2762
  780MOL0     H 7602   5.030   4.256   8.514 -0.3159 -0.1926 -1.0770
  780MOL0     H 7603   4.885   4.144   8.695 -3.3019 -2.7969  1.1594
  780MOL0     H 7604   4.534   4.251   8.720  2.9560 -0.4371  1.4847
  780MOL0     H 7605   4.446   4.105   8.658 -0.8671  2.4256  0.1763
  780MOL0     H 7606   4.507   4.001   8.901 -0.1609 -0.2957 -4.3284
  780MOL0     H 7607   4.581   4.158   8.934  4.0930 -1.9187 -0.7073
  780MOL0     H 7608   4.293   4.128   8.868  1.8642 -1.9120 -1.1563
  780MOL0     H 7609   4.386   4.275   8.918  0.8983 -0.1380  0.8702
  780MOL0     H 7610   4.363   4.034   9.087 -2.9580 -0.3605 -0.0524
  780MOL0     H 7611   4.241   4.163   9.098 -0.3063 -1.0676 -1.4249
  780MOL0     H 7612   4.540   4.197   9.139  0.1185 -1.6725  0.4812
  780MOL0     H 7613   4.420   4.322   9.180  4.9881  0.4382  1.8128
  780MOL0     H 7614   4.429   4.048   9.293  1.1348 -0.8547  0.2528
  780MOL0     H 7615   4.305   4.173   9.334  0.5342 -0.8531  2.0951
  780MOL0     H 7616   4.485   4.327   9.412 -2.5104  0.5246  1.1139
  780MOL0     H 7617   4.592   4.185   9.393  0.5425  0.0519  0.3859
  780MOL0     H 7618   4.331   4.233   9.550 -1.3045 -0.8866 -1.7805
  780MOL0     H 7619   4.487   4.215   9.637 -2.7295  0.5309  1.4394
  780MOL0     H 7620   4.549   4.147   8.456 -1.2923  3.2932 -0.8939
  780MOL0     H 7621   4.683   4.240   8.271 -0.4625 -0.2657  0.1717
  780MOL0     H 7622   5.093   4.239   8.119  1.8531  1.1212  0.8086
  780MOL0     H 7623   5.249   4.254   7.942 -0.6014 -0.2275  1.6005
  780MOL0     H 7624   4.396   4.063   7.790 -0.8735 -2.0196  0.1862
  780MOL0     H 7625   4.228   4.011   7.932  0.4798 -2.3742  0.0212
  780MOL0     H 7626   3.997   3.868   8.185 -0.9738  0.7047 -0.7244
  780MOL0     H 7627   3.757   3.816   8.253 -2.1423 -0.3677  1.2498
  780MOL0     H 7628   3.531   3.905   8.325 -1.5605 -0.8692 -1.4024
  780MOL0     H 7629   3.565   3.737   8.338  1.4297  0.5480 -1.1568
  780MOL0     H 7630   3.463   3.719   8.550  0.4669 -0.2692 -0.7584
  780MOL0     H 7631   3.354   3.751   8.419 -0.4465  2.8097 -1.5242
  780MOL0     H 7632   3.267   3.872   8.614  0.5870  0.0408  0.3445
  780MOL0     H 7633   3.424   3.927   8.662  0.0035  0.3417  0.2715
  780MOL0     H 7634   3.268   4.035   8.419  0.7874 -0.6845 -0.2033
  780MOL0     H 7635   3.434   4.077   8.470 -0.1660 -0.4723 -0.2432
  780MOL0     H 7636   3.210   4.271   8.768  3.2489 -1.0598  3.6785
  780MOL0     H 7637   3.818   3.955   8.634 -1.7914 -0.5216 -0.6846
  780MOL0     H 7638   4.123   4.113   8.598 -1.9854  1.3697 -0.0541
  780MOL0     H 7639   4.048   3.993   8.719 -0.4808 -2.7915 -0.5907
  780MOL0     H 7640   4.176   3.942   8.618  0.1731  1.7145 -2.1595
  781MOL0     O 7641   5.125   3.109   9.290 -0.0097  0.1520  0.6608
  781MOL0     C 7642   5.173   3.165   9.389 -0.6196  0.3474  0.2367
  781MOL0     O 7643   5.115   3.250   9.476  0.4342  0.8057  0.4430
  781MOL0     C 7644   4.981   3.238   9.490 -0.2134  0.5936 -0.1587
  781MOL0     C 7645   4.897   3.293   9.393 -0.6395 -0.1506 -0.2588
  781MOL0     C 7646   4.761   3.272   9.398  0.8471 -0.1431 -0.5128
  781MOL0     C 7647   4.709   3.198   9.499  0.6739 -0.8263 -0.0252
  781MOL0     O 7648   4.572   3.177   9.514 -0.1539 -0.1125  0.2134
  781MOL0     C 7649   4.531   3.046   9.473 -1.0035  0.4184  0.0114
  781MOL0     C 7650   4.380   3.030   9.492  0.0710 -0.1725 -0.1809
  781MOL0     C 7651   4.347   3.050   9.640 -0.1435  1.0943  0.1261
  781MOL0     C 7652   4.205   3.019   9.680  0.2190  0.6632  0.0363
  781MOL0     C 7653   4.183   3.058   9.828 -0.2363  0.0027  0.9280
  781MOL0     C 7654   4.036   3.081   9.864 -0.8606 -0.3133 -0.5144
  781MOL0     C 7655   4.008   3.153   9.996 -0.3809  0.4842  0.1208
  781MOL0     C 7656   4.015   3.064  10.116  0.1442  0.3176 -0.8377
  781MOL0     N 7657   4.141   2.998  10.147 -0.1356  0.3904 -0.1085
  781MOL0     C 7658   4.254   3.062  10.189 -0.3013 -0.6569 -0.0838
  781MOL0     C 7659   4.348   2.967  10.206  0.6565  0.7170 -0.1256
  781MOL0     C 7660   4.493   2.964  10.252 -0.8842  0.3649  0.5312
  781MOL0     C 7661   4.571   3.090  10.212  0.0723  0.4289  0.1163
  781MOL0     C 7662   4.614   3.090  10.063  0.7873  0.2803 -0.1617
  781MOL0     C 7663   4.710   3.206  10.013 -1.4436 -0.4040  0.1028
  781MOL0     O 7664   4.840   3.193  10.092  0.3345 -0.0272  0.1617
  781MOL0     C 7665   4.932   3.107  10.046 -0.7922  0.1677 -0.0713
  781MOL0     C 7666   5.053   3.120  10.111  0.0923  0.3492 -0.8098
  781MOL0     C 7667   5.157   3.036  10.065  0.1923 -0.9711 -0.6741
  781MOL0     C 7668   5.289   3.060  10.143 -0.2628 -0.0862  0.3157
  781MOL0     C 7669   5.140   2.946   9.963  0.1619  0.0656 -0.3614
  781MOL0     C 7670   5.254   2.872   9.907  0.4055  0.6020  0.1482
  781MOL0     O 7671   5.214   2.768   9.827  0.4176  0.0458 -0.6441
  781MOL0     C 7672   5.311   2.680   9.802  0.1402  0.4756 -0.1434
  781MOL0     C 7673   5.377   2.683   9.686  1.1802  0.0683  0.3642
  781MOL0     C 7674   5.478   2.594   9.657 -0.7184 -0.2664  0.0894
  781MOL0     C 7675   5.534   2.505   9.755 -0.2105  0.9037  0.1764
  781MOL0     O 7676   5.644   2.423   9.733 -0.1018  0.2456 -0.2440
  781MOL0     C 7677   5.726   2.396   9.852 -0.0915  0.2546  0.3635
  781MOL0     C 7678   5.855   2.319   9.825  0.2673 -0.0811 -0.4656
  781MOL0     C 7679   5.971   2.363   9.910 -0.2083  0.4546 -0.2384
  781MOL0     C 7680   6.107   2.343   9.832  0.2076 -0.7989 -0.3868
  781MOL0     C 7681   6.223   2.382   9.917 -0.7768  0.1620 -0.0534
  781MOL0     C 7682   6.252   2.289  10.036  0.2443 -0.0791  0.0873
  781MOL0     C 7683   6.389   2.307  10.100 -0.3960  0.1939  0.1670
  781MOL0     C 7684   6.412   2.212  10.216 -0.6322 -0.6015 -0.2597
  781MOL0    Cl 7685   6.323   2.264  10.356 -0.2321  0.1990 -0.5910
  781MOL0     C 7686   5.467   2.508   9.874  0.2231 -0.0174  0.4755
  781MOL0     C 7687   5.353   2.584   9.901 -0.6853  0.1369  0.4311
  781MOL0     O 7688   5.370   2.921   9.901 -0.4052  0.0952  0.4267
  781MOL0     C 7689   5.011   2.927   9.910  0.0305  0.1458  0.7190
  781MOL0     C 7690   4.910   3.015   9.947 -0.1304 -0.0907  0.8162
  781MOL0     N 7691   4.292   2.843  10.162 -0.2367  0.0720 -0.8263
  781MOL0     N 7692   4.165   2.865  10.141  0.0190  0.1524  0.3069
  781MOL0     C 7693   4.784   3.144   9.604 -0.3904  0.6283  0.0459
  781MOL0     C 7694   4.923   3.161   9.598 -0.1900 -0.6790  0.0276
  781MOL0     C 7695   5.317   3.150   9.413 -0.4142  0.2409 -0.3076
  781MOL0     C 7696   5.361   3.133   9.543  0.0869 -0.8462 -0.4246
  781MOL0     C 7697   5.492   3.134   9.582  0.5203 -0.5772 -0.2583
  781MOL0     C 7698   5.589   3.145   9.492  0.6044 -0.1403 -0.1294
  781MOL0     O 7699   5.717   3.120   9.523 -0.9238 -0.7970 -0.0831
  781MOL0     C 7700   5.756   3.078   9.652  0.4744 -0.0636 -0.0559
  781MOL0     C 7701   5.737   2.923   9.684 -0.1919  0.5023  0.2436
  781MOL0     C 7702   5.864   2.845   9.647  0.5070 -0.2737 -0.3217
  781MOL0     C 7703   5.842   2.692   9.632 -0.0934  0.0078  0.3407
  781MOL0     C 7704   5.964   2.637   9.574  0.2615  1.1714 -0.1457
  781MOL0     C 7705   6.052   2.577   9.525  0.1157 -0.9598 -0.6089
  781MOL0     C 7706   5.561   3.159   9.362 -0.1888  0.0707  1.2572
  781MOL0     C 7707   5.422   3.166   9.318 -1.0309  0.0019  0.6450
  781MOL0     C 7708   5.394   3.192   9.173  0.5118  0.1401  0.6437
  781MOL0     H 7709   4.937   3.363   9.321  1.5527  0.3840  1.3495
  781MOL0     H 7710   4.697   3.325   9.329 -3.2108 -0.1568  2.8462
  781MOL0     H 7711   4.587   2.969   9.527 -1.2264 -2.7375 -3.7779
  781MOL0     H 7712   4.555   3.041   9.366  2.1182  2.3690  0.4997
  781MOL0     H 7713   4.319   3.105   9.441 -0.3344 -0.8063 -0.6424
  781MOL0     H 7714   4.353   2.926   9.471  1.2538 -0.5978  0.3288
  781MOL0     H 7715   4.421   2.987   9.690 -0.5148 -1.2971 -2.1331
  781MOL0     H 7716   4.361   3.158   9.654  0.9653  0.9500  0.2455
  781MOL0     H 7717   4.145   3.085   9.616  0.3669 -0.5392 -1.4024
  781MOL0     H 7718   4.174   2.918   9.654  0.3089  0.8820 -0.9683
  781MOL0     H 7719   4.236   3.151   9.851 -2.0110  0.6574  2.6626
  781MOL0     H 7720   4.224   2.983   9.895 -2.7547 -0.8188  1.6785
  781MOL0     H 7721   3.990   3.145   9.788 -1.2380  2.4296  1.8253
  781MOL0     H 7722   3.986   2.984   9.869 -0.3111 -0.7749  6.5401
  781MOL0     H 7723   3.905   3.191  10.001 -0.1130  1.0770  1.9538
  781MOL0     H 7724   4.077   3.238  10.005 -0.2422  0.3581  0.2435
  781MOL0     H 7725   3.998   3.130  10.201 -0.2786  0.9100 -1.3792
  781MOL0     H 7726   3.927   2.999  10.117 -0.0061  0.5248 -0.6487
  781MOL0     H 7727   4.267   3.165  10.220 -1.4872 -0.1239 -1.2616
  781MOL0     H 7728   4.543   2.872  10.218  0.9167  1.3124  0.4852
  781MOL0     H 7729   4.494   2.969  10.362 -0.3722  0.3038  0.5315
  781MOL0     H 7730   4.511   3.177  10.241 -0.7659 -0.6123  1.6125
  781MOL0     H 7731   4.666   3.095  10.266  0.7209 -1.1548 -0.8017
  781MOL0     H 7732   4.667   2.997  10.043  1.3153  0.5961 -0.2640
  781MOL0     H 7733   4.525   3.095   9.999 -0.8249 -1.2345  1.8318
  781MOL0     H 7734   4.731   3.199   9.906  1.0640 -0.4327  0.5502
  781MOL0     H 7735   4.661   3.303  10.028  1.1230  0.9237  0.4460
  781MOL0     H 7736   5.072   3.182  10.198 -1.1873  0.1891 -0.4009
  781MOL0     H 7737   5.363   3.104  10.076 -1.3072  0.2949 -0.6330
  781MOL0     H 7738   5.314   2.961  10.182 -2.9476 -1.3775 -0.9906
  781MOL0     H 7739   5.274   3.128  10.227  0.0285 -1.0747  1.1998
  781MOL0     H 7740   5.353   2.753   9.607  2.2953 -2.1222 -2.0788
  781MOL0     H 7741   5.526   2.609   9.561 -3.0518  1.7286 -0.8711
  781MOL0     H 7742   5.748   2.489   9.905 -0.3510 -0.8241  2.4821
  781MOL0     H 7743   5.676   2.333   9.926  0.8636  2.0045  2.5911
  781MOL0     H 7744   5.840   2.211   9.832 -0.0610 -0.0256 -0.3007
  781MOL0     H 7745   5.876   2.346   9.721 -0.9815  1.2148 -0.4014
  781MOL0     H 7746   5.961   2.304  10.002 -1.1971  1.1750  0.1397
  781MOL0     H 7747   5.963   2.468   9.939  0.0413  0.8090 -1.4075
  781MOL0     H 7748   6.109   2.416   9.751  0.3664  0.8021  1.0001
  781MOL0     H 7749   6.113   2.248   9.778  0.7263  0.0565 -1.8955
  781MOL0     H 7750   6.311   2.373   9.852  0.6946 -1.3733  2.0175
  781MOL0     H 7751   6.225   2.486   9.952  1.5789  0.4383 -0.8140
  781MOL0     H 7752   6.262   2.190   9.990 -0.2217 -0.9735  1.7730
  781MOL0     H 7753   6.173   2.299  10.111 -0.2436 -1.7700 -0.1453
  781MOL0     H 7754   6.406   2.405  10.144  0.0916  0.2695 -0.1853
  781MOL0     H 7755   6.465   2.280  10.026 -0.8631 -1.4632  0.2313
  781MOL0     H 7756   6.518   2.211  10.242 -0.1318  1.0801 -1.9741
  781MOL0     H 7757   6.385   2.110  10.188 -0.5543 -1.4666  2.4847
  781MOL0     H 7758   5.511   2.454   9.958 -0.9526 -0.7139  0.6676
  781MOL0     H 7759   5.302   2.583   9.997  2.3723  2.4386  2.2853
  781MOL0     H 7760   4.991   2.865   9.823 -1.9535  4.2778 -2.1244
  781MOL0     H 7761   4.817   2.998   9.892  0.3048  0.3463 -0.0805
  781MOL0     H 7762   4.740   3.081   9.680  1.7322 -1.3769 -0.2759
  781MOL0     H 7763   4.988   3.124   9.677 -0.3284  0.6408  0.7848
  781MOL0     H 7764   5.285   3.131   9.620 -1.0901  1.4341 -1.4447
  781MOL0     H 7765   5.500   3.116   9.689  0.6619 -1.3839 -0.4020
  781MOL0     H 7766   5.860   3.109   9.669 -0.1443  0.5756  3.2650
  781MOL0     H 7767   5.695   3.137   9.721  0.8950  1.3577 -0.8511
  781MOL0     H 7768   5.653   2.891   9.622 -0.1581  0.8399  0.0219
  781MOL0     H 7769   5.715   2.913   9.790 -2.4340  2.3612  0.0165
  781MOL0     H 7770   5.910   2.890   9.559 -1.1434 -1.6257 -1.9484
  781MOL0     H 7771   5.941   2.861   9.723 -1.0834  2.3159  0.8883
  781MOL0     H 7772   5.762   2.673   9.560  1.4916  0.5654 -1.6431
  781MOL0     H 7773   5.809   2.657   9.730 -2.8947  3.0669  0.7045
  781MOL0     H 7774   6.134   2.518   9.488  0.6351 -1.0997  0.6981
  781MOL0     H 7775   5.642   3.158   9.290  0.3465  1.9476  1.7962
  781MOL0     H 7776   5.340   3.286   9.159  0.2376 -0.1608 -0.3612
  781MOL0     H 7777   5.490   3.196   9.121  0.4813  0.9279  0.6446
  781MOL0     H 7778   5.326   3.111   9.145  0.3083  0.9886 -1.4924
  782MOL0     O 7779   4.396  11.363   8.893 -1.0159  1.5857  0.3198
  782MOL0     C 7780   4.304  11.285   8.863 -0.3452 -0.0396 -0.7775
  782MOL0     O 7781   4.326  11.162   8.807 -0.2165 -0.0418 -0.4546
  782MOL0     C 7782   4.454  11.141   8.759 -0.5067 -0.3727 -0.7156
  782MOL0     C 7783   4.485  11.163   8.623  0.2436 -0.5871 -0.4952
  782MOL0     C 7784   4.620  11.150   8.586 -0.8503 -0.2913  0.2388
  782MOL0     C 7785   4.719  11.101   8.670  0.7728 -0.0075 -0.1029
  782MOL0     O 7786   4.843  11.085   8.618  0.5307 -0.0256  0.0957
  782MOL0     C 7787   4.963  11.070   8.696  0.8744  0.2274 -0.1419
  782MOL0     C 7788   4.994  11.204   8.768  0.1926  0.1267 -0.1761
  782MOL0     C 7789   5.145  11.237   8.778 -0.2360 -1.2635 -0.1199
  782MOL0     C 7790   5.189  11.361   8.861 -0.0082  0.5976 -0.0845
  782MOL0     C 7791   5.340  11.404   8.835  0.1933  1.2889  0.8184
  782MOL0     C 7792   5.381  11.527   8.923  0.2920  0.6271  0.3464
  782MOL0     C 7793   5.533  11.553   8.907  0.6356  0.6771  0.5683
  782MOL0     C 7794   5.582  11.679   8.992 -0.0218  0.7773 -0.0997
  782MOL0     N 7795   5.720  11.668   9.035  0.2806  0.5120  0.0088
  782MOL0     C 7796   5.824  11.734   8.984 -0.8810 -0.2519  0.0220
  782MOL0     C 7797   5.926  11.711   9.065 -0.6470 -0.8588  0.5986
  782MOL0     C 7798   6.064  11.787   9.053  0.1452 -0.8164 -0.3704
  782MOL0     C 7799   6.163  11.742   9.157  0.4686  0.7653 -0.9457
  782MOL0     C 7800   6.247  11.610   9.120  0.4394 -0.3068 -0.4148
  782MOL0     C 7801   6.341  11.575   9.232  0.3701 -0.3155 -0.3099
  782MOL0     O 7802   6.428  11.684   9.261 -0.4505  0.4907  0.0125
  782MOL0     C 7803   6.569  11.656   9.284  0.4978 -0.7168  0.4665
  782MOL0     C 7804   6.617  11.538   9.338 -0.1392  1.4513 -0.1175
  782MOL0     C 7805   6.758  11.513   9.353 -0.0854  0.7975  0.2637
  782MOL0     C 7806   6.803  11.376   9.391  0.5463 -0.3169 -0.4993
  782MOL0     C 7807   6.849  11.618   9.333  0.0623  0.0329  0.4115
  782MOL0     C 7808   6.998  11.611   9.340  0.0288  0.5519 -0.0478
  782MOL0     O 7809   7.060  11.491   9.316 -0.6330  0.7020 -0.3315
  782MOL0     C 7810   7.187  11.485   9.377 -0.8412  0.6405 -0.1753
  782MOL0     C 7811   7.205  11.446   9.506 -0.5094 -0.0997 -0.0420
  782MOL0     C 7812   7.332  11.434   9.562  0.5007  0.4363  0.4226
  782MOL0     C 7813   7.446  11.455   9.477 -0.3038  0.6874 -0.9047
  782MOL0     O 7814   7.566  11.429   9.540 -0.3013 -0.3022 -0.0487
  782MOL0     C 7815   7.695  11.455   9.473  0.4670 -0.1564  0.0216
  782MOL0     C 7816   7.799  11.364   9.539  0.3203  0.0083 -0.0397
  782MOL0     C 7817   7.941  11.384   9.479 -0.0458 -0.3935  0.3136
  782MOL0     C 7818   7.987  11.525   9.455  0.8099 -0.3360 -0.2028
  782MOL0     C 7819   8.139  11.525   9.440 -1.2254  0.0401  0.0393
  782MOL0     C 7820   8.182  11.489   9.295  1.1431 -0.3362 -1.0936
  782MOL0     C 7821   8.326  11.524   9.270  0.5747  0.1780 -0.8201
  782MOL0     C 7822   8.369  11.664   9.227  0.6678  0.8024 -0.2534
  782MOL0    Cl 7823   8.542  11.690   9.280 -0.1117 -0.1067  0.4343
  782MOL0     C 7824   7.419  11.485   9.344  0.3830  0.2384  0.0549
  782MOL0     C 7825   7.291  11.498   9.290 -0.7920  0.2598 -0.1285
  782MOL0     O 7826   7.052  11.721   9.357 -0.9336  0.2352 -0.1164
  782MOL0     C 7827   6.794  11.739   9.294  0.3485 -0.3232 -0.2585
  782MOL0     C 7828   6.657  11.755   9.277  0.2626 -0.9149 -0.4157
  782MOL0     N 7829   5.877  11.632   9.171 -0.2846 -0.1162  0.2916
  782MOL0     N 7830   5.754  11.611   9.154  0.3628  0.3724 -0.5485
  782MOL0     C 7831   4.688  11.087   8.807 -0.1790 -0.2125 -0.3933
  782MOL0     C 7832   4.556  11.101   8.849  0.5054  0.8037  0.2079
  782MOL0     C 7833   4.163  11.322   8.895 -1.1053  0.2996  0.0023
  782MOL0     C 7834   4.068  11.221   8.919 -0.5867 -1.0037 -0.0612
  782MOL0     C 7835   3.939  11.251   8.955  0.3676  0.3353  0.1595
  782MOL0     C 7836   3.891  11.383   8.953  0.1521  0.0682  0.1370
  782MOL0     O 7837   3.756  11.403   8.988  0.0997  0.1691 -1.0246
  782MOL0     C 7838   3.712  11.527   9.044 -0.2277  0.5524 -0.2311
  782MOL0     C 7839   3.558  11.558   9.054  0.2255 -0.2590 -0.4868
  782MOL0     C 7840   3.476  11.535   8.920  0.4967 -0.0570 -0.2987
  782MOL0     C 7841   3.373  11.425   8.932 -0.5917 -0.2670  0.1246
  782MOL0     C 7842   3.303  11.403   8.806  0.1167 -0.4473 -0.2964
  782MOL0     C 7843   3.232  11.383   8.704  0.3313 -0.4323 -0.1959
  782MOL0     C 7844   3.980  11.484   8.920 -0.0305 -0.1496 -0.2214
  782MOL0     C 7845   4.117  11.455   8.890 -0.4181  0.5157 -0.8389
  782MOL0     C 7846   4.207  11.573   8.850 -0.5625 -0.3060 -0.3418
  782MOL0     H 7847   4.403  11.186   8.555  2.0021 -0.9918 -2.9229
  782MOL0     H 7848   4.660  11.160   8.485  0.5444  1.3403  0.8906
  782MOL0     H 7849   5.040  11.045   8.623  2.6851 -1.1919  2.1361
  782MOL0     H 7850   4.957  10.988   8.768 -0.0447 -1.8874 -2.4872
  782MOL0     H 7851   4.949  11.293   8.722  1.3032  1.7763  1.7660
  782MOL0     H 7852   4.950  11.190   8.867  2.4065 -2.8491  0.5115
  782MOL0     H 7853   5.201  11.147   8.805  2.5993 -0.9022 -3.9228
  782MOL0     H 7854   5.188  11.260   8.680 -0.5066 -1.1535 -0.2137
  782MOL0     H 7855   5.117  11.439   8.836 -1.4240  0.1120  2.1763
  782MOL0     H 7856   5.172  11.331   8.965 -3.0998  1.3817 -0.2654
  782MOL0     H 7857   5.353  11.432   8.730 -1.0690 -0.5486  0.1236
  782MOL0     H 7858   5.408  11.320   8.851 -1.2372 -0.5205 -1.8495
  782MOL0     H 7859   5.324  11.616   8.898 -1.1536 -0.7305 -1.4038
  782MOL0     H 7860   5.354  11.503   9.026  0.9897 -0.6559  0.2479
  782MOL0     H 7861   5.539  11.572   8.800 -1.5302  0.0316  0.2995
  782MOL0     H 7862   5.601  11.471   8.933  1.1252  0.5638 -1.0062
  782MOL0     H 7863   5.569  11.769   8.932  2.3511  0.6565 -0.8773
  782MOL0     H 7864   5.514  11.672   9.078 -0.4718 -1.1602 -0.5568
  782MOL0     H 7865   5.808  11.797   8.897 -0.0925  2.8495  1.9963
  782MOL0     H 7866   6.046  11.890   9.083 -0.7100 -1.0783  0.0518
  782MOL0     H 7867   6.118  11.786   8.958 -0.4702  2.3819 -0.8504
  782MOL0     H 7868   6.230  11.826   9.181  1.2923 -0.1373  0.0296
  782MOL0     H 7869   6.109  11.721   9.249  1.2752  2.1011 -0.1409
  782MOL0     H 7870   6.187  11.519   9.112 -1.3976  0.8851 -0.8808
  782MOL0     H 7871   6.301  11.623   9.026  1.1314  1.2272  0.1713
  782MOL0     H 7872   6.277  11.555   9.318 -1.6395 -1.0959 -1.9000
  782MOL0     H 7873   6.398  11.484   9.208 -1.1269 -1.5936  0.8250
  782MOL0     H 7874   6.542  11.464   9.364  2.0419 -0.5254  0.9336
  782MOL0     H 7875   6.718  11.308   9.376  1.2415 -0.9390 -1.6478
  782MOL0     H 7876   6.822  11.381   9.499 -2.6338  0.7975  0.1176
  782MOL0     H 7877   6.870  11.337   9.314  0.6773 -0.8944 -0.1000
  782MOL0     H 7878   7.120  11.418   9.568  0.6673 -1.9233  0.8522
  782MOL0     H 7879   7.343  11.412   9.668 -0.8676  3.9710  1.4541
  782MOL0     H 7880   7.684  11.416   9.371  1.3927  1.0870 -0.5811
  782MOL0     H 7881   7.725  11.560   9.467 -0.1715 -0.0561 -2.9310
  782MOL0     H 7882   7.797  11.369   9.649 -0.6154 -1.4416  0.0429
  782MOL0     H 7883   7.765  11.261   9.526 -0.2454  0.3070 -1.0639
  782MOL0     H 7884   7.954  11.337   9.381  0.0790  1.5198 -0.6333
  782MOL0     H 7885   8.007  11.338   9.554 -1.5429 -1.4256  1.0625
  782MOL0     H 7886   7.966  11.586   9.543  2.3922 -1.6551  1.1434
  782MOL0     H 7887   7.938  11.577   9.372  0.8537  2.3456  1.3677
  782MOL0     H 7888   8.172  11.627   9.464  1.7588 -0.6207 -0.8272
  782MOL0     H 7889   8.186  11.454   9.509  0.5966  0.0687 -1.1140
  782MOL0     H 7890   8.120  11.551   9.230 -1.1282 -0.7951  0.4714
  782MOL0     H 7891   8.156  11.385   9.271  1.0321 -0.1494 -1.8104
  782MOL0     H 7892   8.375  11.460   9.195  0.9673  1.1681 -1.4393
  782MOL0     H 7893   8.376  11.497   9.364 -2.4973 -2.0214  0.3446
  782MOL0     H 7894   8.296  11.733   9.269 -2.1624 -0.2438 -3.0571
  782MOL0     H 7895   8.362  11.678   9.119  2.5516 -3.9520 -1.2884
  782MOL0     H 7896   7.502  11.503   9.276  0.3600 -0.1136 -0.0693
  782MOL0     H 7897   7.281  11.519   9.184 -1.1142 -0.3897 -0.2250
  782MOL0     H 7898   6.854  11.828   9.278  2.0557 -1.1956  0.9412
  782MOL0     H 7899   6.629  11.853   9.238  0.2419 -0.2514  1.1833
  782MOL0     H 7900   4.769  11.053   8.871  3.0620  1.3256 -3.3601
  782MOL0     H 7901   4.527  11.091   8.953 -1.9104 -1.3382 -0.5730
  782MOL0     H 7902   4.108  11.121   8.928  1.3942 -0.1721  1.2977
  782MOL0     H 7903   3.863  11.179   8.982 -1.6607  2.2379 -0.1603
  782MOL0     H 7904   3.748  11.537   9.147 -1.1662  1.8168 -0.0044
  782MOL0     H 7905   3.743  11.608   8.978 -1.2175  0.5689 -0.6867
  782MOL0     H 7906   3.554  11.667   9.059  0.1730 -0.3337  2.2030
  782MOL0     H 7907   3.513  11.507   9.140  1.3057 -2.4571 -1.1369
  782MOL0     H 7908   3.415  11.625   8.903 -2.0838 -1.7685 -0.7121
  782MOL0     H 7909   3.538  11.527   8.831 -1.0117  0.1845 -1.4139
  782MOL0     H 7910   3.291  11.459   8.997  0.7643  3.4002  0.1696
  782MOL0     H 7911   3.399  11.322   8.956 -2.6322 -0.5072  1.6254
  782MOL0     H 7912   3.169  11.367   8.619 -0.4256 -0.2152  0.3125
  782MOL0     H 7913   3.944  11.586   8.931  0.3676  0.0643 -0.8758
  782MOL0     H 7914   4.141  11.660   8.853 -2.8827 -1.9919  1.8492
  782MOL0     H 7915   4.293  11.595   8.914 -0.0688 -2.6883 -0.0960
  782MOL0     H 7916   4.238  11.551   8.747 -0.9920 -0.3881 -0.4573
  783MOL0     O 7917   7.702   1.625   9.258  0.2191 -0.0508 -0.4352
  783MOL0     C 7918   7.666   1.673   9.150 -0.2290 -0.5400 -0.5054
  783MOL0     O 7919   7.712   1.796   9.102 -0.7047 -0.0144 -0.7175
  783MOL0     C 7920   7.804   1.864   9.170 -0.5663 -0.8198 -0.7618
  783MOL0     C 7921   7.935   1.873   9.127  0.5485  0.0973  0.7896
  783MOL0     C 7922   8.025   1.956   9.192 -0.2321  0.2797 -0.1647
  783MOL0     C 7923   7.999   2.033   9.297 -0.1722 -0.2057  0.1094
  783MOL0     O 7924   8.099   2.103   9.335  0.1360 -0.2519 -0.2773
  783MOL0     C 7925   8.106   2.168   9.462 -0.2854  0.0321  1.1767
  783MOL0     C 7926   8.248   2.220   9.505 -0.5405  0.0964 -0.3440
  783MOL0     C 7927   8.329   2.095   9.536  0.3467 -0.4266  0.0500
  783MOL0     C 7928   8.466   2.118   9.608 -0.3261  0.8383 -0.8980
  783MOL0     C 7929   8.511   1.998   9.694  0.5105  0.7991  0.8365
  783MOL0     C 7930   8.644   2.019   9.760 -0.5079  0.1095  0.6881
  783MOL0     C 7931   8.661   1.904   9.863 -0.3993 -0.0786  0.0084
  783MOL0     C 7932   8.798   1.897   9.933 -0.5130  0.1947  0.4821
  783MOL0     N 7933   8.918   1.926   9.850 -0.0209 -0.0023 -0.4500
  783MOL0     C 7934   8.948   2.041   9.784 -0.0853 -1.2206 -0.1762
  783MOL0     C 7935   9.076   2.024   9.739  0.7824  0.2554 -0.0458
  783MOL0     C 7936   9.169   2.117   9.671 -0.5311  0.0754 -0.4715
  783MOL0     C 7937   9.087   2.242   9.640  0.4053 -0.2657  0.3997
  783MOL0     C 7938   9.158   2.327   9.540 -0.3663 -0.5598  0.2065
  783MOL0     C 7939   9.283   2.408   9.587 -0.4863 -0.1159 -0.5040
  783MOL0     O 7940   9.400   2.320   9.603 -0.4255  0.3921  0.0876
  783MOL0     C 7941   9.516   2.369   9.665 -0.2143  0.3972  0.6234
  783MOL0     C 7942   9.567   2.502   9.661  0.4058  0.5310  1.0344
  783MOL0     C 7943   9.685   2.551   9.715 -0.7862 -0.1217  0.6395
  783MOL0     C 7944   9.716   2.694   9.692  0.4235  0.2258  0.6615
  783MOL0     C 7945   9.777   2.455   9.763 -0.4823 -0.0973  1.0947
  783MOL0     C 7946   9.913   2.490   9.817  0.5209  0.0811 -0.0475
  783MOL0     O 7947   9.929   2.620   9.854 -0.5049 -0.4060  0.0417
  783MOL0     C 7948  10.054   2.651   9.895 -0.5081  0.7270 -0.2982
  783MOL0     C 7949  10.134   2.733   9.811 -0.0075 -0.3990  0.9866
  783MOL0     C 7950  10.256   2.781   9.867 -0.3877  0.8783 -0.0175
  783MOL0     C 7951  10.292   2.744  10.002 -0.1197 -0.4118  0.2768
  783MOL0     O 7952  10.415   2.778  10.052  0.1952 -0.5934 -0.1680
  783MOL0     C 7953  10.495   2.676  10.111  0.3326 -0.0963  0.0242
  783MOL0     C 7954  10.645   2.714  10.129  0.6575  0.3049 -0.7450
  783MOL0     C 7955  10.676   2.859  10.177 -0.5916 -0.3374  0.2270
  783MOL0     C 7956  10.824   2.863  10.231 -0.1210 -0.8780 -0.0946
  783MOL0     C 7957  10.847   3.005  10.295  0.0563 -0.0058 -0.4147
  783MOL0     C 7958  10.851   3.112  10.193 -0.3693  0.2840 -0.2441
  783MOL0     C 7959  10.910   3.235  10.256 -0.6677 -0.4838 -0.1029
  783MOL0     C 7960  10.901   3.349  10.161 -0.1500  0.7588  0.8968
  783MOL0    Cl 7961  11.016   3.333  10.024 -0.2767  0.0967 -0.3373
  783MOL0     C 7962  10.213   2.665  10.076 -0.9362 -0.7751 -0.5391
  783MOL0     C 7963  10.093   2.613  10.029  0.3785 -0.5902  0.1576
  783MOL0     O 7964  10.008   2.409   9.804  0.2279 -0.7255  0.2615
  783MOL0     C 7965   9.732   2.317   9.770 -0.9573  0.2451 -0.7300
  783MOL0     C 7966   9.604   2.274   9.726 -1.1402 -0.4223 -0.9872
  783MOL0     N 7967   9.118   1.901   9.783  0.8729 -0.6181 -0.4699
  783MOL0     N 7968   9.024   1.847   9.855 -0.4509 -0.4573  0.8389
  783MOL0     C 7969   7.872   2.023   9.350  0.2062 -0.3314  0.0554
  783MOL0     C 7970   7.774   1.942   9.280 -0.1394 -0.0151 -0.0054
  783MOL0     C 7971   7.554   1.603   9.079  0.5940  0.2644 -0.5073
  783MOL0     C 7972   7.465   1.679   9.005 -0.8323  0.5514  0.5198
  783MOL0     C 7973   7.365   1.603   8.947  0.9722 -0.2645  0.5818
  783MOL0     C 7974   7.354   1.464   8.948  0.7016  0.2570 -0.4292
  783MOL0     O 7975   7.260   1.416   8.868  0.8094 -0.3165 -0.4336
  783MOL0     C 7976   7.216   1.275   8.872 -0.5070  0.0845 -0.2627
  783MOL0     C 7977   7.282   1.185   8.768 -1.4268 -0.0022 -0.2613
  783MOL0     C 7978   7.194   1.061   8.722 -0.0894  0.1173  0.4967
  783MOL0     C 7979   7.242   0.985   8.601 -0.1153 -0.7756  0.3884
  783MOL0     C 7980   7.268   1.053   8.472  0.1533  0.0877  0.8254
  783MOL0     C 7981   7.296   1.109   8.368 -0.5078  0.0990  0.2402
  783MOL0     C 7982   7.442   1.387   9.011 -0.3083 -0.6314 -0.2062
  783MOL0     C 7983   7.548   1.462   9.074  0.0783  0.4783  0.3659
  783MOL0     C 7984   7.637   1.372   9.155 -0.7385  0.4567 -0.0400
  783MOL0     H 7985   7.963   1.826   9.032  1.2933 -0.9625  1.5081
  783MOL0     H 7986   8.128   1.947   9.160  0.2046 -0.9776  1.4966
  783MOL0     H 7987   8.060   2.104   9.539 -4.4573  0.2031 -0.8801
  783MOL0     H 7988   8.041   2.256   9.465  0.3374  0.5340  0.2683
  783MOL0     H 7989   8.302   2.280   9.431  1.2576 -2.9287 -1.7051
  783MOL0     H 7990   8.243   2.275   9.599 -2.6565 -2.8720  1.4533
  783MOL0     H 7991   8.269   2.042   9.610  0.0114 -0.0134  0.0817
  783MOL0     H 7992   8.343   2.038   9.443 -0.3087  3.8503 -3.0045
  783MOL0     H 7993   8.543   2.144   9.535  1.4205  1.9264  1.2185
  783MOL0     H 7994   8.460   2.207   9.670 -2.0387 -1.2938  2.2369
  783MOL0     H 7995   8.524   1.911   9.628 -1.3858  1.1744 -0.1197
  783MOL0     H 7996   8.434   1.966   9.765 -1.5419 -0.0941 -1.6156
  783MOL0     H 7997   8.718   2.009   9.680 -0.6541  0.9471  0.4317
  783MOL0     H 7998   8.650   2.120   9.802 -1.0198  0.5429 -0.2554
  783MOL0     H 7999   8.650   1.814   9.802  0.3057  0.4066 -0.8635
  783MOL0     H 8000   8.581   1.906   9.938 -1.2292 -0.6894 -0.8338
  783MOL0     H 8001   8.802   1.980  10.004  2.3169  3.0206 -2.6434
  783MOL0     H 8002   8.813   1.802   9.987  1.3911 -0.1729 -0.5716
  783MOL0     H 8003   8.896   2.136   9.787 -1.2522 -1.8434  2.7472
  783MOL0     H 8004   9.199   2.080   9.572 -2.2248 -1.2249 -0.5472
  783MOL0     H 8005   9.258   2.137   9.730  1.1519 -0.4170 -2.6869
  783MOL0     H 8006   8.988   2.226   9.595 -1.0323  2.4471  2.2767
  783MOL0     H 8007   9.059   2.298   9.730  2.1030 -5.0444  4.3685
  783MOL0     H 8008   9.186   2.275   9.448 -0.7503  2.3964 -1.7247
  783MOL0     H 8009   9.090   2.409   9.517  0.9409  0.7315  0.7613
  783MOL0     H 8010   9.304   2.494   9.523 -0.5534  0.5173  0.3159
  783MOL0     H 8011   9.258   2.438   9.689  1.7765 -3.0544  1.0885
  783MOL0     H 8012   9.499   2.573   9.613 -0.2852 -0.2553  0.8187
  783MOL0     H 8013   9.720   2.740   9.791 -0.2067 -0.6725  1.1195
  783MOL0     H 8014   9.637   2.739   9.631  0.3096  0.8692  1.2817
  783MOL0     H 8015   9.810   2.703   9.635  0.4311 -1.2587  0.3767
  783MOL0     H 8016  10.107   2.759   9.710  2.7704 -1.9875 -0.2960
  783MOL0     H 8017  10.327   2.839   9.809  3.0608 -0.8384  2.0885
  783MOL0     H 8018  10.442   2.654  10.205 -1.8460 -0.1647 -1.1606
  783MOL0     H 8019  10.502   2.580  10.060  1.7533  1.3501 -2.6688
  783MOL0     H 8020  10.691   2.644  10.199  1.2299  1.9924  0.6620
  783MOL0     H 8021  10.706   2.698  10.040  2.9763 -2.4278  1.1464
  783MOL0     H 8022  10.602   2.878  10.255  0.8880 -0.5198  1.7400
  783MOL0     H 8023  10.652   2.938  10.105 -2.0693 -0.6565  0.3376
  783MOL0     H 8024  10.903   2.848  10.158 -0.2408 -2.7799  0.1323
  783MOL0     H 8025  10.845   2.792  10.311  4.6413  0.3129  0.0063
  783MOL0     H 8026  10.771   3.023  10.372  0.4403  0.2007 -0.0752
  783MOL0     H 8027  10.934   3.004  10.361  0.9363  0.5255 -1.5298
  783MOL0     H 8028  10.745   3.130  10.171 -1.2912 -0.8080  2.7097
  783MOL0     H 8029  10.906   3.071  10.108 -0.9164 -1.1644  0.0657
  783MOL0     H 8030  11.015   3.211  10.276 -0.4168  0.8497  0.3269
  783MOL0     H 8031  10.855   3.262  10.347 -1.0176 -0.3871 -0.3431
  783MOL0     H 8032  10.925   3.446  10.206  0.5465  0.1951  1.7650
  783MOL0     H 8033  10.798   3.350  10.124 -0.4955 -1.3514  1.6631
  783MOL0     H 8034  10.244   2.646  10.178  0.5813  2.0538 -0.3733
  783MOL0     H 8035  10.028   2.550  10.088  1.5585 -1.2911  0.7490
  783MOL0     H 8036   9.798   2.238   9.805 -1.7682  0.3452  1.1482
  783MOL0     H 8037   9.577   2.169   9.724  2.7974 -1.5955 -1.1520
  783MOL0     H 8038   7.848   2.077   9.441 -2.7381  0.9956 -1.3526
  783MOL0     H 8039   7.668   1.952   9.300 -0.6201 -0.6297 -2.0311
  783MOL0     H 8040   7.487   1.780   8.973  4.2373 -0.3597  0.3761
  783MOL0     H 8041   7.285   1.651   8.893  1.0494 -1.4424 -0.6425
  783MOL0     H 8042   7.212   1.235   8.973 -1.7534  0.3242 -0.1951
  783MOL0     H 8043   7.114   1.278   8.832 -0.5757  1.7612 -0.0326
  783MOL0     H 8044   7.380   1.156   8.806 -1.9083 -0.0369  1.0179
  783MOL0     H 8045   7.311   1.259   8.693  0.3967 -0.0425  0.3567
  783MOL0     H 8046   7.199   0.996   8.810  2.2255 -0.9737 -0.3626
  783MOL0     H 8047   7.088   1.081   8.703  0.5264  2.0371 -1.3282
  783MOL0     H 8048   7.172   0.902   8.585  0.0652 -0.3334 -3.8470
  783MOL0     H 8049   7.333   0.929   8.623  0.6923  0.6172  0.7064
  783MOL0     H 8050   7.326   1.154   8.276 -0.0829  3.7966  2.0201
  783MOL0     H 8051   7.428   1.280   9.021  0.2463 -0.6154  0.8788
  783MOL0     H 8052   7.639   1.268   9.123  0.1533 -0.4135  2.6242
  783MOL0     H 8053   7.742   1.400   9.148 -0.6987  0.4800  0.5988
  783MOL0     H 8054   7.613   1.371   9.261  2.5555 -3.2060  0.8970
  784MOL0     O 8055   9.955   5.421  10.874  0.4618  0.5124  0.1920
  784MOL0     C 8056   9.904   5.517  10.815 -0.1885  0.0248  0.0570
  784MOL0     O 8057   9.970   5.638  10.793  0.0591  0.3142 -0.1996
  784MOL0     C 8058  10.079   5.685  10.865 -0.0112 -0.6440 -0.1698
  784MOL0     C 8059  10.131   5.807  10.812 -0.1372  0.6563 -0.7064
  784MOL0     C 8060  10.252   5.860  10.867 -0.2271 -0.9965 -0.6449
  784MOL0     C 8061  10.326   5.785  10.961  0.6117  0.1490  0.1641
  784MOL0     O 8062  10.445   5.848  11.004 -0.1837 -0.0512 -0.2338
  784MOL0     C 8063  10.510   5.800  11.125  0.2741  0.4376 -0.1308
  784MOL0     C 8064  10.468   5.885  11.239 -0.2581 -0.7195 -0.1894
  784MOL0     C 8065  10.548   5.837  11.365  0.3195 -0.4473 -0.4037
  784MOL0     C 8066  10.701   5.857  11.362 -0.2352  0.5132  0.0126
  784MOL0     C 8067  10.780   5.737  11.441  0.1870 -0.1003  0.9561
  784MOL0     C 8068  10.919   5.714  11.380 -0.5288 -0.5696  0.4282
  784MOL0     C 8069  10.979   5.586  11.441 -0.1343 -0.3464  0.8604
  784MOL0     C 8070  11.092   5.509  11.366  0.2418 -0.3549 -0.3090
  784MOL0     N 8071  11.204   5.599  11.331 -0.5674  0.1181  0.4526
  784MOL0     C 8072  11.213   5.658  11.209 -0.6718 -0.4996 -0.1428
  784MOL0     C 8073  11.336   5.717  11.199 -0.9364 -0.0567  0.0884
  784MOL0     C 8074  11.386   5.797  11.081 -0.0462 -0.8281  0.1025
  784MOL0     C 8075  11.431   5.716  10.952  0.6673  0.8209 -0.2753
  784MOL0     C 8076  11.554   5.620  10.973 -0.5674 -0.1321 -0.9469
  784MOL0     C 8077  11.683   5.691  10.992 -0.1262 -0.0824  0.1383
  784MOL0     O 8078  11.700   5.788  10.887 -0.2336 -0.0930 -0.1600
  784MOL0     C 8079  11.807   5.866  10.886 -0.4630  0.0231 -0.0902
  784MOL0     C 8080  11.819   5.948  10.773 -0.9330  0.2418  0.3271
  784MOL0     C 8081  11.933   6.032  10.765  0.4550 -0.1438 -0.7684
  784MOL0     C 8082  11.937   6.136  10.656  0.4769  0.2353 -0.8084
  784MOL0     C 8083  12.034   6.027  10.865  1.0713  0.1452  0.8053
  784MOL0     C 8084  12.168   6.107  10.860  0.6650  0.5744 -0.8909
  784MOL0     O 8085  12.244   6.072  10.963 -0.9312 -0.1119 -0.2074
  784MOL0     C 8086  12.367   6.123  10.970 -0.2545  0.2773 -0.2176
  784MOL0     C 8087  12.413   6.181  11.093 -0.4917  0.9679 -0.7927
  784MOL0     C 8088  12.539   6.227  11.107  0.4473 -0.2329 -0.0313
  784MOL0     C 8089  12.626   6.208  11.001  0.7410  0.0262  0.0045
  784MOL0     O 8090  12.756   6.241  11.039 -0.4781  0.0372 -0.8379
  784MOL0     C 8091  12.842   6.278  10.944 -0.1244 -0.5763  1.1625
  784MOL0     C 8092  12.968   6.344  11.006  1.1428 -0.3551  0.6251
  784MOL0     C 8093  13.039   6.249  11.097 -0.3583  0.0148  0.1774
  784MOL0     C 8094  13.147   6.318  11.180 -0.1985 -0.1423 -0.4810
  784MOL0     C 8095  13.265   6.377  11.111  0.3158  0.3063  0.3948
  784MOL0     C 8096  13.369   6.433  11.201 -0.3179 -0.3470  0.5225
  784MOL0     C 8097  13.475   6.501  11.119 -0.2526  0.3534  0.4243
  784MOL0     C 8098  13.553   6.608  11.194 -0.4944 -0.5626 -0.1799
  784MOL0    Cl 8099  13.651   6.531  11.335 -0.3105 -0.3741  0.5791
  784MOL0     C 8100  12.590   6.159  10.875 -0.4684  0.1255  0.3689
  784MOL0     C 8101  12.458   6.124  10.863  0.9042  0.3972  0.0557
  784MOL0     O 8102  12.199   6.191  10.777  0.1030  0.3582  1.0181
  784MOL0     C 8103  12.018   5.935  10.975  0.6193  0.4066  0.2127
  784MOL0     C 8104  11.906   5.857  10.987 -0.5604  0.1061  0.7127
  784MOL0     N 8105  11.399   5.685  11.317  0.4400  0.4898 -0.9560
  784MOL0     N 8106  11.320   5.612  11.391 -0.6143 -0.1711  0.1671
  784MOL0     C 8107  10.274   5.670  11.012  0.6337 -0.1987  0.8793
  784MOL0     C 8108  10.149   5.619  10.970 -0.7380  0.0406  0.1874
  784MOL0     C 8109   9.766   5.506  10.762 -0.0112 -0.2495 -0.0641
  784MOL0     C 8110   9.742   5.587  10.646  0.1517  0.4045  0.3391
  784MOL0     C 8111   9.615   5.587  10.589 -0.9229 -0.3992  0.3911
  784MOL0     C 8112   9.509   5.511  10.639 -1.0210 -0.1347  0.1774
  784MOL0     O 8113   9.394   5.488  10.573  0.5375 -0.6128 -0.5658
  784MOL0     C 8114   9.353   5.577  10.464  0.6403  0.2983 -0.3209
  784MOL0     C 8115   9.226   5.534  10.400 -0.0749  0.2048 -0.4781
  784MOL0     C 8116   9.101   5.585  10.471 -0.5841  0.6793 -0.7146
  784MOL0     C 8117   9.062   5.511  10.603 -0.5138 -0.1218  0.4438
  784MOL0     C 8118   8.921   5.535  10.623  0.3953  0.4630  0.4220
  784MOL0     C 8119   8.802   5.557  10.625 -0.3769  0.4813 -0.6511
  784MOL0     C 8120   9.540   5.424  10.749 -0.7140 -0.1262 -1.3880
  784MOL0     C 8121   9.667   5.420  10.814  0.1031  0.0350 -0.2878
  784MOL0     C 8122   9.678   5.332  10.934 -0.1183 -0.3763 -0.1555
  784MOL0     H 8123  10.083   5.853  10.726 -0.3439  0.0074 -0.9474
  784MOL0     H 8124  10.283   5.954  10.823  0.4866 -1.1978 -0.5730
  784MOL0     H 8125  10.619   5.804  11.116  0.8676 -0.9806  4.0287
  784MOL0     H 8126  10.482   5.699  11.158  1.4005  0.4381  0.8882
  784MOL0     H 8127  10.500   5.987  11.217 -2.6919  0.5294  1.5753
  784MOL0     H 8128  10.361   5.897  11.258  0.3096  1.2543  2.4046
  784MOL0     H 8129  10.513   5.891  11.453  0.5520  2.4232 -1.9501
  784MOL0     H 8130  10.530   5.731  11.381  0.7167 -0.5236 -0.4424
  784MOL0     H 8131  10.749   5.872  11.265  1.8973  0.0341  0.9376
  784MOL0     H 8132  10.723   5.954  11.407 -0.1374  0.0334  1.0221
  784MOL0     H 8133  10.727   5.643  11.421  2.6568 -1.1465 -1.4009
  784MOL0     H 8134  10.790   5.765  11.546  2.5858  0.8300  0.5527
  784MOL0     H 8135  10.915   5.718  11.271 -3.2945  0.8863  0.5006
  784MOL0     H 8136  10.989   5.790  11.418  1.4698 -1.5521 -1.0860
  784MOL0     H 8137  10.896   5.515  11.442 -1.4819  1.1805  2.3511
  784MOL0     H 8138  11.017   5.599  11.543 -0.6928  1.1080  0.9023
  784MOL0     H 8139  11.119   5.428  11.434 -0.7483  1.0021  1.7653
  784MOL0     H 8140  11.066   5.468  11.267 -0.6103 -0.3683 -0.0874
  784MOL0     H 8141  11.139   5.672  11.131  0.1729  3.2257 -0.4967
  784MOL0     H 8142  11.469   5.863  11.109  2.9256 -4.5669  0.9504
  784MOL0     H 8143  11.301   5.861  11.055 -1.0564 -1.9494  0.5576
  784MOL0     H 8144  11.347   5.653  10.922  1.1578  0.1080 -0.2015
  784MOL0     H 8145  11.447   5.781  10.866 -0.5379  2.1088  0.4399
  784MOL0     H 8146  11.530   5.547  11.051 -0.9607  0.0099 -0.9323
  784MOL0     H 8147  11.567   5.554  10.887  1.1988 -0.5778 -0.3799
  784MOL0     H 8148  11.683   5.748  11.085 -0.2710  0.8972 -0.4397
  784MOL0     H 8149  11.770   5.626  11.002 -0.3462 -0.4919 -0.5162
  784MOL0     H 8150  11.743   5.952  10.696 -1.3996 -0.3970  0.7414
  784MOL0     H 8151  11.850   6.126  10.590  0.3224  2.6351 -1.0844
  784MOL0     H 8152  12.026   6.117  10.596  1.6017  0.6511  0.6715
  784MOL0     H 8153  11.940   6.236  10.701  1.0159 -0.5057  0.8548
  784MOL0     H 8154  12.338   6.191  11.171  1.2877 -1.2395  1.3518
  784MOL0     H 8155  12.575   6.278  11.196  0.1891  2.1510 -1.2134
  784MOL0     H 8156  12.881   6.198  10.881  0.3807  0.2109  0.4555
  784MOL0     H 8157  12.796   6.351  10.878  0.4235 -1.4822 -0.2694
  784MOL0     H 8158  13.036   6.351  10.921  0.4164 -1.3419 -0.0480
  784MOL0     H 8159  12.937   6.439  11.051 -1.2443 -0.9075  0.2301
  784MOL0     H 8160  13.084   6.163  11.046 -0.9259 -0.7948  0.9996
  784MOL0     H 8161  12.969   6.212  11.172 -2.4057  0.7612 -1.2819
  784MOL0     H 8162  13.185   6.237  11.243  2.3006 -0.7876 -2.6566
  784MOL0     H 8163  13.106   6.392  11.249  0.4050  0.0320 -0.3026
  784MOL0     H 8164  13.306   6.298  11.046  0.3350  2.0875 -1.8808
  784MOL0     H 8165  13.230   6.457  11.046 -1.5453 -0.2363  0.6649
  784MOL0     H 8166  13.410   6.351  11.259 -1.7452 -2.1155 -0.8460
  784MOL0     H 8167  13.321   6.519  11.250  0.0359  1.9911 -2.8664
  784MOL0     H 8168  13.439   6.542  11.025  0.6996  1.5796  0.5597
  784MOL0     H 8169  13.541   6.416  11.100 -0.9126  0.3094 -1.9986
  784MOL0     H 8170  13.481   6.687  11.216  0.5460  0.4525 -0.2859
  784MOL0     H 8171  13.632   6.647  11.129  0.1896 -0.5987  0.6108
  784MOL0     H 8172  12.657   6.138  10.793 -0.5871 -1.3011  0.6141
  784MOL0     H 8173  12.423   6.087  10.767  2.4292  1.1827 -0.8450
  784MOL0     H 8174  12.089   5.916  11.055 -0.0174 -1.6040  0.3386
  784MOL0     H 8175  11.902   5.806  11.083  0.1592 -2.1138 -0.3718
  784MOL0     H 8176  10.318   5.628  11.102  2.5881  2.3428  1.2196
  784MOL0     H 8177  10.110   5.538  11.031  2.1785 -2.2901 -0.7959
  784MOL0     H 8178   9.823   5.643  10.599  0.8875 -1.6559 -1.0455
  784MOL0     H 8179   9.606   5.649  10.500 -0.0745 -0.0871  0.5107
  784MOL0     H 8180   9.365   5.681  10.497  1.5427  0.2125 -0.3695
  784MOL0     H 8181   9.422   5.569  10.380 -0.2639  0.2216 -1.0709
  784MOL0     H 8182   9.214   5.427  10.382 -0.1903  0.4611 -2.1647
  784MOL0     H 8183   9.222   5.575  10.298 -0.1240  0.4926 -0.3617
  784MOL0     H 8184   9.111   5.689  10.502  0.1616  0.4936 -0.3118
  784MOL0     H 8185   9.016   5.579  10.402  0.2660  3.2956 -2.1133
  784MOL0     H 8186   9.120   5.540  10.691 -0.5759  2.6068 -0.3213
  784MOL0     H 8187   9.076   5.403  10.587 -0.7655 -0.1542  0.4377
  784MOL0     H 8188   8.695   5.567  10.619 -0.4698  0.9083  1.1195
  784MOL0     H 8189   9.455   5.366  10.784 -0.0956 -0.6484 -0.7075
  784MOL0     H 8190   9.732   5.238  10.920 -0.4343 -0.8952  1.8933
  784MOL0     H 8191   9.716   5.384  11.022 -0.0441 -0.8458  0.0903
  784MOL0     H 8192   9.577   5.295  10.955 -0.9258  2.1540  0.8253
  785MOL0     O 8193   3.810  11.317   6.357  0.5347 -0.7955  0.5670
  785MOL0     C 8194   3.705  11.365   6.314 -0.0151 -0.6569  0.0438
  785MOL0     O 8195   3.688  11.462   6.204  0.3854  0.5955  0.0524
  785MOL0     C 8196   3.801  11.513   6.147  0.0888  0.3726 -1.0552
  785MOL0     C 8197   3.817  11.514   6.009  0.0449  0.1796 -0.0704
  785MOL0     C 8198   3.935  11.565   5.947  1.0069 -0.2490  0.0433
  785MOL0     C 8199   4.027  11.633   6.032 -0.2436 -0.0096 -0.1147
  785MOL0     O 8200   4.138  11.691   5.959  0.6123 -0.5109  0.3874
  785MOL0     C 8201   4.245  11.715   6.033  0.9896  0.1915 -0.0015
  785MOL0     C 8202   4.370  11.745   5.955 -0.2546  0.5765 -0.0189
  785MOL0     C 8203   4.493  11.694   6.028 -0.9701 -0.2562  0.2559
  785MOL0     C 8204   4.509  11.771   6.164 -1.0024 -1.1724  0.1925
  785MOL0     C 8205   4.655  11.803   6.187  0.2505  0.7410  0.0978
  785MOL0     C 8206   4.727  11.894   6.083  0.9475  0.0420 -0.6102
  785MOL0     C 8207   4.843  11.986   6.150 -0.0916  0.2056  0.5136
  785MOL0     C 8208   4.847  12.116   6.068 -0.9313  0.4035  0.2084
  785MOL0     N 8209   4.982  12.168   6.101 -0.1629 -0.5379 -0.1731
  785MOL0     C 8210   5.034  12.195   6.230  0.1248  0.0791  0.0327
  785MOL0     C 8211   5.157  12.243   6.207  0.5362 -0.4997  0.2875
  785MOL0     C 8212   5.265  12.285   6.300 -0.0395  0.4217 -0.2326
  785MOL0     C 8213   5.387  12.200   6.265 -0.8583  0.1250  0.0200
  785MOL0     C 8214   5.518  12.271   6.302 -0.6829 -0.5530 -0.3689
  785MOL0     C 8215   5.641  12.178   6.286  0.2631 -0.2622 -0.2893
  785MOL0     O 8216   5.759  12.241   6.332  0.6705  0.3658 -0.2303
  785MOL0     C 8217   5.883  12.175   6.338  0.7953 -0.1374 -0.6045
  785MOL0     C 8218   5.908  12.053   6.277  0.5599  0.3366 -0.1779
  785MOL0     C 8219   6.039  11.993   6.281  0.1615  0.6677 -0.4531
  785MOL0     C 8220   6.054  11.873   6.196  0.5024  0.1893 -0.1412
  785MOL0     C 8221   6.137  12.058   6.361 -0.3241 -0.1535 -0.3097
  785MOL0     C 8222   6.269  12.008   6.385 -0.7056  0.2434 -0.2405
  785MOL0     O 8223   6.338  12.050   6.501  0.2429 -0.1483  0.1823
  785MOL0     C 8224   6.454  11.989   6.537  0.1119 -0.2794  0.0475
  785MOL0     C 8225   6.465  11.850   6.528 -0.7542  0.9300 -0.2086
  785MOL0     C 8226   6.590  11.787   6.578  1.3732  0.7825 -0.2806
  785MOL0     C 8227   6.693  11.863   6.627 -0.7543 -0.2812 -0.3821
  785MOL0     O 8228   6.806  11.793   6.668 -0.6555  0.1495 -1.0164
  785MOL0     C 8229   6.928  11.873   6.673  0.1600 -0.3632  0.1475
  785MOL0     C 8230   7.038  11.774   6.711 -0.5593 -0.7481 -0.0325
  785MOL0     C 8231   7.173  11.840   6.712 -0.1944 -0.0605  0.3427
  785MOL0     C 8232   7.275  11.751   6.782 -0.3313 -0.5135 -1.0601
  785MOL0     C 8233   7.401  11.828   6.825 -0.1113 -0.5093 -0.2166
  785MOL0     C 8234   7.468  11.898   6.703 -0.2827  0.6171 -0.7444
  785MOL0     C 8235   7.528  11.811   6.588  1.1946  0.1085 -0.6922
  785MOL0     C 8236   7.662  11.766   6.639 -0.7987 -0.6133  0.1825
  785MOL0    Cl 8237   7.734  11.666   6.520  0.3770 -0.1761  0.6457
  785MOL0     C 8238   6.678  11.995   6.641  0.6778 -0.1586 -0.1172
  785MOL0     C 8239   6.555  12.058   6.593  0.0301  0.3054 -0.2108
  785MOL0     O 8240   6.325  11.942   6.295  0.6633 -0.7106  0.0266
  785MOL0     C 8241   6.103  12.176   6.427  0.2240 -0.2239 -0.3329
  785MOL0     C 8242   5.989  12.236   6.412  0.6125 -0.7176  0.4968
  785MOL0     N 8243   5.175  12.246   6.073  0.1622  0.1342 -0.4780
  785MOL0     N 8244   5.066  12.210   6.005 -1.0226 -0.3084  0.1893
  785MOL0     C 8245   4.009  11.633   6.173 -0.0811 -0.6095 -0.3909
  785MOL0     C 8246   3.900  11.570   6.228 -0.3953  0.4794  0.3712
  785MOL0     C 8247   3.575  11.325   6.364 -0.1883 -0.2070  0.2786
  785MOL0     C 8248   3.479  11.431   6.377 -0.2245  0.1576 -0.2282
  785MOL0     C 8249   3.357  11.412   6.431  0.4263  0.9233  0.3239
  785MOL0     C 8250   3.310  11.284   6.471 -0.0472 -0.7506 -0.3472
  785MOL0     O 8251   3.197  11.243   6.540 -0.4286 -0.3137 -0.2510
  785MOL0     C 8252   3.091  11.333   6.559  0.7150  0.5662 -0.7932
  785MOL0     C 8253   2.990  11.273   6.655 -0.4778  0.0932  0.3513
  785MOL0     C 8254   2.856  11.339   6.648 -0.0344  0.5722 -0.4250
  785MOL0     C 8255   2.764  11.285   6.757  0.4873  0.2629 -0.3541
  785MOL0     C 8256   2.625  11.337   6.756 -0.1187 -1.1730 -0.1107
  785MOL0     C 8257   2.511  11.375   6.750 -0.6109 -0.2373 -0.0661
  785MOL0     C 8258   3.405  11.181   6.468  0.1703 -0.0885  0.1011
  785MOL0     C 8259   3.538  11.199   6.424 -0.0168  0.1583 -0.1208
  785MOL0     C 8260   3.632  11.086   6.434  0.1163 -0.2048 -0.6032
  785MOL0     H 8261   3.743  11.465   5.946  0.1302  0.5303 -0.4482
  785MOL0     H 8262   3.943  11.564   5.838 -2.2967 -2.0765 -0.3399
  785MOL0     H 8263   4.261  11.625   6.093 -0.1277  0.7005  1.1041
  785MOL0     H 8264   4.225  11.796   6.104 -1.7836 -0.5522  0.1802
  785MOL0     H 8265   4.362  11.693   5.859  4.7891  0.7761 -0.8452
  785MOL0     H 8266   4.380  11.851   5.929 -1.1616 -0.2109 -4.3199
  785MOL0     H 8267   4.484  11.586   6.045  0.7222 -1.2194 -3.5942
  785MOL0     H 8268   4.578  11.714   5.961  1.4054 -0.4123  3.0100
  785MOL0     H 8269   4.450  11.863   6.157 -0.6263 -0.9705 -0.3653
  785MOL0     H 8270   4.472  11.711   6.248 -0.7141 -3.7217 -1.3971
  785MOL0     H 8271   4.701  11.704   6.194 -0.4170  0.1441 -2.6026
  785MOL0     H 8272   4.663  11.844   6.288  2.3777 -0.6932  0.5948
  785MOL0     H 8273   4.763  11.838   5.996  1.5461 -1.0241  0.3076
  785MOL0     H 8274   4.653  11.964   6.043  1.1226  2.3219  2.6455
  785MOL0     H 8275   4.940  11.936   6.138 -0.7432 -0.5855 -2.4903
  785MOL0     H 8276   4.833  12.009   6.256 -1.1852  1.2665  0.2088
  785MOL0     H 8277   4.827  12.108   5.961 -1.1783  1.0424  0.2034
  785MOL0     H 8278   4.760  12.176   6.095 -3.5224 -2.1232 -1.9396
  785MOL0     H 8279   4.996  12.168   6.328  4.4464 -1.9646  1.4112
  785MOL0     H 8280   5.228  12.272   6.402 -0.8739 -0.4744 -0.6413
  785MOL0     H 8281   5.279  12.391   6.277  0.4625  0.3366 -0.3194
  785MOL0     H 8282   5.384  12.104   6.318  3.4596 -1.2907 -1.8495
  785MOL0     H 8283   5.390  12.181   6.158  1.3070  1.8334 -0.2920
  785MOL0     H 8284   5.527  12.362   6.241 -0.6376  0.1011  0.5936
  785MOL0     H 8285   5.531  12.287   6.409 -0.2773  2.2621 -0.7486
  785MOL0     H 8286   5.627  12.090   6.349  0.9730 -0.1196  0.0730
  785MOL0     H 8287   5.652  12.148   6.181  2.4734  2.0916 -0.8415
  785MOL0     H 8288   5.833  11.996   6.223 -0.2025  0.4272  0.7516
  785MOL0     H 8289   5.959  11.834   6.158  1.0418 -1.1611 -0.1907
  785MOL0     H 8290   6.095  11.803   6.270  2.7204 -0.2966 -1.7359
  785MOL0     H 8291   6.129  11.887   6.118  0.5989  0.6778  0.0385
  785MOL0     H 8292   6.391  11.787   6.480 -1.3269  2.5451 -1.5499
  785MOL0     H 8293   6.595  11.679   6.575  2.3950  0.8398 -1.4601
  785MOL0     H 8294   6.958  11.922   6.579 -0.5439  0.8682  0.5467
  785MOL0     H 8295   6.925  11.957   6.743 -0.9841  2.0433 -2.5886
  785MOL0     H 8296   7.006  11.746   6.812  0.6253  2.1692  1.2524
  785MOL0     H 8297   7.024  11.691   6.640  2.5321 -0.5655 -1.0125
  785MOL0     H 8298   7.176  11.945   6.742  2.3129 -0.2713  1.0382
  785MOL0     H 8299   7.196  11.837   6.605 -1.4906  0.8390  0.0075
  785MOL0     H 8300   7.292  11.660   6.723  1.3905 -1.0100  0.1217
  785MOL0     H 8301   7.232  11.715   6.876  1.3227 -0.8429 -0.4065
  785MOL0     H 8302   7.371  11.899   6.902  1.4117 -1.2451  1.1224
  785MOL0     H 8303   7.473  11.763   6.875 -0.1514 -0.5280 -0.1835
  785MOL0     H 8304   7.544  11.971   6.733  0.8530 -0.5142 -0.7763
  785MOL0     H 8305   7.393  11.959   6.653 -0.5199  1.4393  0.5672
  785MOL0     H 8306   7.526  11.881   6.505 -0.9022  1.4087  0.3538
  785MOL0     H 8307   7.460  11.727   6.574  0.8768  0.3185 -0.4337
  785MOL0     H 8308   7.661  11.707   6.731 -0.5434 -0.5526  0.2256
  785MOL0     H 8309   7.735  11.846   6.654  1.7252 -2.6168 -0.7372
  785MOL0     H 8310   6.752  12.064   6.679  0.4576 -1.4200  2.8671
  785MOL0     H 8311   6.529  12.162   6.606 -3.5865 -0.5998  0.9615
  785MOL0     H 8312   6.178  12.224   6.490 -0.6116 -1.7247  1.9174
  785MOL0     H 8313   5.973  12.316   6.484  0.9033  0.7208 -0.9822
  785MOL0     H 8314   4.080  11.677   6.242 -0.0327  1.1971 -1.5208
  785MOL0     H 8315   3.879  11.586   6.333 -0.4334  0.7451  0.3243
  785MOL0     H 8316   3.511  11.533   6.357 -0.6855 -0.0340 -2.1323
  785MOL0     H 8317   3.294  11.495   6.463  0.0751  0.9795 -0.4755
  785MOL0     H 8318   3.134  11.427   6.595  0.4249  0.8827 -1.2673
  785MOL0     H 8319   3.047  11.360   6.463 -1.3550  0.7415  0.1592
  785MOL0     H 8320   3.035  11.279   6.754 -0.5142  0.5301  0.3436
  785MOL0     H 8321   2.973  11.168   6.628 -3.5497  0.3632  0.9223
  785MOL0     H 8322   2.863  11.447   6.660  1.3041  0.7831 -2.4872
  785MOL0     H 8323   2.812  11.327   6.548  0.8452  1.6786 -0.9627
  785MOL0     H 8324   2.820  11.297   6.851 -1.1879  1.8361  0.5076
  785MOL0     H 8325   2.767  11.180   6.730 -1.9029  0.0268  0.1534
  785MOL0     H 8326   2.416  11.420   6.732  0.7985  1.8151 -3.3060
  785MOL0     H 8327   3.376  11.085   6.510  0.8322 -0.2230  0.2642
  785MOL0     H 8328   3.585  10.991   6.461 -1.7975  0.9903  0.4993
  785MOL0     H 8329   3.686  11.080   6.339  2.7863 -0.9005  0.8480
  785MOL0     H 8330   3.713  11.111   6.504 -1.4603  0.2114  1.1442
  786MOL0     O 8331   5.473   9.752   4.360 -0.3524 -0.2860  0.1234
  786MOL0     C 8332   5.422   9.824   4.273 -0.3317 -0.4082  0.2453
  786MOL0     O 8333   5.458   9.954   4.242 -0.4126  0.3123 -0.2372
  786MOL0     C 8334   5.576  10.004   4.294 -0.1128  0.4344  0.2255
  786MOL0     C 8335   5.673  10.046   4.203 -0.5650 -0.1052  0.1010
  786MOL0     C 8336   5.791  10.108   4.249  0.4594 -0.3169 -0.4521
  786MOL0     C 8337   5.815  10.116   4.384  0.8925  0.0747  0.5056
  786MOL0     O 8338   5.931  10.153   4.447 -0.1058 -0.2995  0.0607
  786MOL0     C 8339   6.024  10.225   4.374 -0.3323 -0.2423 -0.2427
  786MOL0     C 8340   6.138  10.136   4.316  1.2173 -0.1546 -0.2941
  786MOL0     C 8341   6.261  10.212   4.266  0.5200  0.9663 -0.1689
  786MOL0     C 8342   6.356  10.260   4.386 -0.5636 -0.3702  1.1495
  786MOL0     C 8343   6.499  10.292   4.329  0.5748  0.1614 -0.5260
  786MOL0     C 8344   6.584  10.339   4.449  0.3427  0.1409  1.3378
  786MOL0     C 8345   6.728  10.322   4.406  0.1714 -0.2215 -0.4560
  786MOL0     C 8346   6.842  10.367   4.493 -0.1223 -0.1594  0.1351
  786MOL0     N 8347   6.961  10.376   4.409 -0.0796 -0.8849  0.0963
  786MOL0     C 8348   7.047  10.283   4.364  0.4416 -0.4718 -0.1167
  786MOL0     C 8349   7.154  10.352   4.313  0.0356  0.1964  0.1137
  786MOL0     C 8350   7.267  10.311   4.220 -0.3148 -0.7169 -0.3844
  786MOL0     C 8351   7.318  10.172   4.247  0.6916 -0.5260 -0.3220
  786MOL0     C 8352   7.393  10.106   4.132  0.0720  0.3346  0.6896
  786MOL0     C 8353   7.511  10.182   4.075  0.1736  0.3512 -0.8461
  786MOL0     O 8354   7.620  10.186   4.179  0.2567 -0.0679 -0.3599
  786MOL0     C 8355   7.725  10.107   4.152 -1.1094 -0.1564  0.6603
  786MOL0     C 8356   7.850  10.161   4.106  0.7742 -0.2078 -0.3912
  786MOL0     C 8357   7.964  10.078   4.075  0.2006 -0.9225  0.3831
  786MOL0     C 8358   8.086  10.153   4.034  0.3082  0.5078 -0.0757
  786MOL0     C 8359   7.952   9.941   4.099  0.5089 -0.2096  0.6229
  786MOL0     C 8360   8.068   9.845   4.080  0.4024  0.1569  0.1460
  786MOL0     O 8361   8.170   9.894   4.018 -0.9259  0.2008  0.4593
  786MOL0     C 8362   8.290   9.831   4.031  1.0848  0.7298  0.1714
  786MOL0     C 8363   8.395   9.889   4.097  0.8260  0.3294  0.1402
  786MOL0     C 8364   8.518   9.832   4.117  0.3291 -0.1932  0.0711
  786MOL0     C 8365   8.539   9.701   4.067 -0.3741 -0.5725  0.4419
  786MOL0     O 8366   8.669   9.645   4.084 -0.1347 -0.2406  0.0851
  786MOL0     C 8367   8.669   9.498   4.104 -0.4380  0.3281 -0.8331
  786MOL0     C 8368   8.810   9.462   4.143 -0.0899 -0.4328 -0.0387
  786MOL0     C 8369   8.921   9.461   4.042 -0.0240 -0.1362  0.4153
  786MOL0     C 8370   9.032   9.364   4.078  1.2175  0.3761  0.2630
  786MOL0     C 8371   9.129   9.351   3.959 -0.7789  0.9173  0.7569
  786MOL0     C 8372   9.216   9.226   3.977  0.1386  0.2077  0.2511
  786MOL0     C 8373   9.325   9.202   3.876  0.1434  0.0815 -0.6582
  786MOL0     C 8374   9.449   9.283   3.901  0.8784  0.3174 -0.5538
  786MOL0    Cl 8375   9.570   9.239   3.786 -0.5071  0.1009 -0.1006
  786MOL0     C 8376   8.435   9.633   4.004  0.2276  0.4800  0.2264
  786MOL0     C 8377   8.313   9.693   3.981  0.1330 -0.2512 -0.9874
  786MOL0     O 8378   8.064   9.733   4.126  0.2546 -0.1951  0.2183
  786MOL0     C 8379   7.832   9.883   4.142  1.0326  0.4730  0.1009
  786MOL0     C 8380   7.723   9.971   4.175  0.0067 -0.4771  0.0585
  786MOL0     N 8381   7.129  10.483   4.340  0.6706 -0.6174  0.2430
  786MOL0     N 8382   7.010  10.501   4.383 -0.3694 -0.4273 -0.4092
  786MOL0     C 8383   5.715  10.079   4.475 -0.0447  0.1962 -0.2802
  786MOL0     C 8384   5.593  10.028   4.428  0.2827  0.1522  0.3777
  786MOL0     C 8385   5.306   9.771   4.194  0.3227 -0.6315  0.0216
  786MOL0     C 8386   5.227   9.868   4.120 -0.4215 -0.4262 -0.5512
  786MOL0     C 8387   5.115   9.839   4.036  0.2455 -0.0114 -0.3309
  786MOL0     C 8388   5.072   9.713   4.036 -0.5591 -0.8344  0.4428
  786MOL0     O 8389   4.980   9.685   3.939  0.2324 -0.5295 -0.1648
  786MOL0     C 8390   4.908   9.559   3.936 -0.6943  0.1142  0.5468
  786MOL0     C 8391   4.774   9.562   4.011  0.3097 -0.2564  0.5477
  786MOL0     C 8392   4.665   9.641   3.936  0.5566 -1.2110  0.2789
  786MOL0     C 8393   4.527   9.626   3.993  0.1364 -1.0438  0.0485
  786MOL0     C 8394   4.427   9.665   3.888 -0.6973 -0.3971 -0.4129
  786MOL0     C 8395   4.339   9.688   3.814  0.8162  0.6072  0.5119
  786MOL0     C 8396   5.132   9.618   4.112 -0.2808  0.1271 -0.8650
  786MOL0     C 8397   5.247   9.640   4.192 -0.9983  0.4985  0.5926
  786MOL0     C 8398   5.319   9.531   4.262  0.3739 -0.0964  0.1791
  786MOL0     H 8399   5.649  10.029   4.099  1.8801 -3.2643 -0.1062
  786MOL0     H 8400   5.867  10.139   4.178  0.6943 -1.4283 -0.7105
  786MOL0     H 8401   6.070  10.291   4.447 -1.0161  0.0291 -0.0493
  786MOL0     H 8402   5.978  10.287   4.296 -0.4930 -0.0972 -0.0350
  786MOL0     H 8403   6.170  10.057   4.385 -0.7488 -0.2901  0.5229
  786MOL0     H 8404   6.097  10.081   4.232  0.3116  0.3167 -0.1711
  786MOL0     H 8405   6.317  10.139   4.206 -3.1146 -1.5211 -0.8448
  786MOL0     H 8406   6.228  10.298   4.208 -0.1266  2.1773  1.8829
  786MOL0     H 8407   6.316  10.352   4.429  1.8952  1.2220  0.2026
  786MOL0     H 8408   6.352  10.183   4.464 -7.2440 -1.9283 -0.0501
  786MOL0     H 8409   6.488  10.375   4.258  2.7318  0.1292 -0.9538
  786MOL0     H 8410   6.554  10.212   4.278  1.1714 -0.0633  0.4535
  786MOL0     H 8411   6.557  10.438   4.486 -4.2476 -1.2178  2.2300
  786MOL0     H 8412   6.578  10.271   4.535  0.8062 -0.2182  1.0910
  786MOL0     H 8413   6.735  10.383   4.315 -1.5707  0.9553  0.1476
  786MOL0     H 8414   6.746  10.218   4.379 -1.4597 -0.9020  0.9075
  786MOL0     H 8415   6.820  10.467   4.532  1.9194  2.2594 -4.2183
  786MOL0     H 8416   6.856  10.297   4.576 -1.6346 -0.2999  0.3043
  786MOL0     H 8417   7.017  10.178   4.361  2.0748 -0.9525 -1.0564
  786MOL0     H 8418   7.353  10.378   4.219 -2.4371  2.2412 -2.5111
  786MOL0     H 8419   7.225  10.326   4.120 -0.5533  3.8609  0.1819
  786MOL0     H 8420   7.379  10.171   4.338  0.6313  0.0833 -0.2668
  786MOL0     H 8421   7.231  10.111   4.271 -0.2378  0.5851 -0.7726
  786MOL0     H 8422   7.430  10.007   4.161  1.3958  0.5109 -0.2979
  786MOL0     H 8423   7.326  10.105   4.046  0.4395  1.1724  0.3820
  786MOL0     H 8424   7.559  10.130   3.992  2.6895  1.2121 -0.0114
  786MOL0     H 8425   7.477  10.279   4.036  0.8007  0.3041 -1.5206
  786MOL0     H 8426   7.854  10.268   4.084  0.4306 -0.2732 -0.7886
  786MOL0     H 8427   8.164  10.133   4.108  1.5272  0.5167 -1.3365
  786MOL0     H 8428   8.068  10.261   4.026  2.8512  1.2145  2.1794
  786MOL0     H 8429   8.117  10.119   3.935  1.0657  1.1117 -0.0628
  786MOL0     H 8430   8.367   9.979   4.150 -0.6267 -0.8771  1.5278
  786MOL0     H 8431   8.605   9.880   4.161 -0.7361 -0.2285  2.3583
  786MOL0     H 8432   8.601   9.468   4.184  0.1449 -1.3269 -0.9280
  786MOL0     H 8433   8.635   9.442   4.017  0.9201  1.0695 -1.8663
  786MOL0     H 8434   8.838   9.535   4.219  1.3075 -0.2040 -0.7389
  786MOL0     H 8435   8.799   9.363   4.188  0.4599 -0.3090  0.3746
  786MOL0     H 8436   8.966   9.557   4.017 -1.4001  0.1593 -1.0998
  786MOL0     H 8437   8.872   9.432   3.948 -1.7561  1.6206  0.7127
  786MOL0     H 8438   8.988   9.266   4.100 -1.3635  0.8869 -2.1190
  786MOL0     H 8439   9.082   9.387   4.172 -0.2516  2.5859  0.5881
  786MOL0     H 8440   9.075   9.350   3.864 -1.5625 -0.7639  1.1774
  786MOL0     H 8441   9.200   9.434   3.964  0.3907 -0.1024  1.9360
  786MOL0     H 8442   9.144   9.143   3.971 -0.4881  0.8142 -1.3628
  786MOL0     H 8443   9.253   9.215   4.079 -1.0837 -0.8769  0.6097
  786MOL0     H 8444   9.283   9.230   3.778  0.0059  0.5245 -0.4779
  786MOL0     H 8445   9.357   9.098   3.868  0.9811  0.1758  1.0559
  786MOL0     H 8446   9.488   9.280   4.003 -0.8194  0.6025  0.1374
  786MOL0     H 8447   9.431   9.390   3.893  2.7307  0.5426 -2.4539
  786MOL0     H 8448   8.444   9.530   3.972  1.1025  0.2347  1.2168
  786MOL0     H 8449   8.231   9.636   3.939  1.3136 -0.4995 -3.0838
  786MOL0     H 8450   7.835   9.777   4.167 -2.1684  0.1155 -0.5628
  786MOL0     H 8451   7.640   9.934   4.235  1.9235 -0.6373  2.8201
  786MOL0     H 8452   5.733  10.094   4.580 -1.6788 -2.6347  0.5234
  786MOL0     H 8453   5.514  10.011   4.501  1.1308 -1.7014  0.9338
  786MOL0     H 8454   5.256   9.972   4.117  1.1708 -0.7249  1.7970
  786MOL0     H 8455   5.060   9.906   3.971 -0.2257 -2.1711 -2.2850
  786MOL0     H 8456   4.889   9.537   3.831  1.1948  0.9104 -0.0117
  786MOL0     H 8457   4.967   9.478   3.980  0.5932  0.2351 -0.8770
  786MOL0     H 8458   4.780   9.607   4.111  0.0597 -0.6574  0.7463
  786MOL0     H 8459   4.739   9.459   4.027 -0.2156 -0.3743 -1.1625
  786MOL0     H 8460   4.689   9.748   3.939  0.0305 -1.1192  1.6391
  786MOL0     H 8461   4.667   9.604   3.833  1.4309 -0.1407 -0.1121
  786MOL0     H 8462   4.522   9.692   4.080  0.7980 -0.8517 -0.0529
  786MOL0     H 8463   4.516   9.522   4.027 -2.3422 -1.2124 -1.0377
  786MOL0     H 8464   4.248   9.712   3.763  1.6006  4.2059  0.5600
  786MOL0     H 8465   5.105   9.513   4.115  1.8728 -0.4553  0.5754
  786MOL0     H 8466   5.419   9.534   4.218 -0.3373 -0.0947 -1.5052
  786MOL0     H 8467   5.319   9.550   4.369 -0.2571  0.5945  0.0624
  786MOL0     H 8468   5.281   9.431   4.241  0.4237  0.1866 -1.3824
  787MOL0     O 8469   7.846   3.585   2.753 -0.6220 -0.8913  0.1206
  787MOL0     C 8470   7.922   3.649   2.681 -0.6766 -0.0958 -0.5627
  787MOL0     O 8471   8.042   3.599   2.641  0.5053 -0.0621  0.7784
  787MOL0     C 8472   8.083   3.475   2.671 -0.8016 -1.0533 -0.2415
  787MOL0     C 8473   8.024   3.368   2.609 -0.2510 -0.3414  0.0022
  787MOL0     C 8474   8.069   3.238   2.631 -0.0188  0.2408 -0.7741
  787MOL0     C 8475   8.170   3.209   2.723 -1.0794 -0.7416 -1.0576
  787MOL0     O 8476   8.211   3.075   2.738  0.0551 -0.4867  0.1156
  787MOL0     C 8477   8.305   3.035   2.836 -0.7707 -0.5274  0.1673
  787MOL0     C 8478   8.274   2.887   2.848 -0.5032  0.2929 -0.0468
  787MOL0     C 8479   8.340   2.824   2.966 -0.2968 -0.3431 -0.3772
  787MOL0     C 8480   8.492   2.833   2.960  0.1935  0.0237 -0.5393
  787MOL0     C 8481   8.563   2.693   2.949  0.5663 -0.2956  0.9046
  787MOL0     C 8482   8.713   2.712   2.939 -0.3358 -0.7491 -0.0765
  787MOL0     C 8483   8.759   2.569   2.964 -0.5762  0.3017 -0.3727
  787MOL0     C 8484   8.899   2.545   2.901 -1.2680 -0.0400  0.5919
  787MOL0     N 8485   8.987   2.634   2.961  0.1213  0.0127 -0.4906
  787MOL0     C 8486   9.072   2.604   3.054 -1.2507 -0.7846 -0.1477
  787MOL0     C 8487   9.168   2.698   3.067  0.2880  0.4323  1.0230
  787MOL0     C 8488   9.293   2.687   3.152  0.2661 -0.1065  0.3270
  787MOL0     C 8489   9.269   2.595   3.277 -0.5322 -0.0149  0.7610
  787MOL0     C 8490   9.395   2.562   3.349 -0.0138  0.2752 -0.4285
  787MOL0     C 8491   9.488   2.678   3.396 -0.5096 -0.7108  0.3452
  787MOL0     O 8492   9.590   2.616   3.481  0.1485 -0.0781  0.2453
  787MOL0     C 8493   9.697   2.691   3.520 -0.1079  0.0261  0.2344
  787MOL0     C 8494   9.796   2.620   3.588 -0.1991  0.2355 -0.3934
  787MOL0     C 8495   9.903   2.684   3.656  0.1011  0.4536  0.2367
  787MOL0     C 8496   9.995   2.598   3.729 -0.6163 -0.0613  0.3516
  787MOL0     C 8497   9.913   2.827   3.643 -0.2782  0.8674  0.8513
  787MOL0     C 8498  10.018   2.897   3.720  0.1533  0.5036 -0.5876
  787MOL0     O 8499  10.062   2.853   3.845  0.2628  0.0089 -0.3773
  787MOL0     C 8500  10.163   2.917   3.906  0.1019  0.9931  0.0369
  787MOL0     C 8501  10.139   3.002   4.010 -0.7084  0.1560 -0.7015
  787MOL0     C 8502  10.238   3.059   4.081 -0.5237 -0.2314 -0.3246
  787MOL0     C 8503  10.371   3.028   4.060 -0.2278  0.5960 -0.9838
  787MOL0     O 8504  10.471   3.084   4.141  0.0462  0.4945 -0.1857
  787MOL0     C 8505  10.607   3.064   4.110  0.6514 -0.4399  0.5628
  787MOL0     C 8506  10.684   2.961   4.193  0.5739 -0.4038 -0.3685
  787MOL0     C 8507  10.628   2.819   4.184 -0.1572 -0.0563 -0.0356
  787MOL0     C 8508  10.740   2.715   4.209 -0.1341  0.0415  0.3657
  787MOL0     C 8509  10.698   2.571   4.201  0.6460 -0.8447  0.4760
  787MOL0     C 8510  10.589   2.534   4.305 -0.2693 -0.5698 -0.3880
  787MOL0     C 8511  10.573   2.387   4.317  0.2576  0.0307  0.0818
  787MOL0     C 8512  10.436   2.337   4.379 -0.5433  0.8745  0.1898
  787MOL0    Cl 8513  10.296   2.369   4.269 -0.5199 -0.0878  0.1208
  787MOL0     C 8514  10.399   2.935   3.959  0.3813  0.2719 -0.3809
  787MOL0     C 8515  10.297   2.887   3.873  0.4567 -0.7509 -0.1213
  787MOL0     O 8516  10.057   3.002   3.664 -0.1708  0.5799  0.6992
  787MOL0     C 8517   9.821   2.897   3.566 -0.5311 -0.5131  0.2411
  787MOL0     C 8518   9.718   2.830   3.503 -0.4319 -0.5939  1.0204
  787MOL0     N 8519   9.141   2.785   2.972  0.0331 -0.0210  0.0311
  787MOL0     N 8520   9.034   2.749   2.909  0.4836  0.4066  0.2089
  787MOL0     C 8521   8.226   3.313   2.789  0.1579 -0.1014  0.1996
  787MOL0     C 8522   8.190   3.447   2.761 -0.1980 -1.1328 -0.7413
  787MOL0     C 8523   7.903   3.797   2.662  0.0206  0.1669 -0.0841
  787MOL0     C 8524   8.011   3.885   2.669 -0.1843 -0.1156  0.5017
  787MOL0     C 8525   8.000   4.019   2.637 -0.5683  0.3008 -0.2931
  787MOL0     C 8526   7.875   4.074   2.606 -0.3188  0.5973  0.9930
  787MOL0     O 8527   7.845   4.204   2.568  0.1360 -0.6584 -0.0456
  787MOL0     C 8528   7.948   4.299   2.564  0.4011  0.8226 -0.8554
  787MOL0     C 8529   7.968   4.357   2.702  0.3841 -0.0345  0.0897
  787MOL0     C 8530   7.850   4.438   2.751 -0.8843 -0.7403  0.3918
  787MOL0     C 8531   7.855   4.469   2.895 -0.4463 -0.2887 -0.1005
  787MOL0     C 8532   7.745   4.555   2.940 -0.2765 -0.0662 -0.1483
  787MOL0     C 8533   7.656   4.632   2.964 -0.2362 -0.3280  0.3405
  787MOL0     C 8534   7.766   3.982   2.601  0.0976 -1.0833 -0.3179
  787MOL0     C 8535   7.774   3.847   2.628 -0.7306  0.5632 -1.4238
  787MOL0     C 8536   7.649   3.759   2.611  0.8354  0.1623 -0.1400
  787MOL0     H 8537   7.944   3.380   2.537 -1.5364 -1.2661  1.2201
  787MOL0     H 8538   8.027   3.145   2.594 -1.3218  0.1029  0.9018
  787MOL0     H 8539   8.283   3.081   2.933  1.9704 -0.4716  0.8450
  787MOL0     H 8540   8.406   3.044   2.797 -0.3651 -0.0566  1.2735
  787MOL0     H 8541   8.166   2.883   2.864 -0.8016  2.3499 -1.2502
  787MOL0     H 8542   8.298   2.840   2.752 -1.4410  0.4801 -0.3812
  787MOL0     H 8543   8.308   2.866   3.062  4.2113 -2.6679  2.4862
  787MOL0     H 8544   8.311   2.718   2.974  1.6650 -0.8199  1.5865
  787MOL0     H 8545   8.519   2.884   2.867 -0.1230  0.0121 -0.6416
  787MOL0     H 8546   8.530   2.881   3.050  0.0751 -2.1913  0.7917
  787MOL0     H 8547   8.512   2.641   2.868 -3.1250  1.2555  2.0185
  787MOL0     H 8548   8.536   2.635   3.038 -2.8933 -0.0948  0.1133
  787MOL0     H 8549   8.726   2.747   2.836  1.0210  1.6820  0.8350
  787MOL0     H 8550   8.751   2.795   2.999 -1.6444  0.3553 -0.7506
  787MOL0     H 8551   8.694   2.492   2.921 -0.5054  2.1395 -4.1342
  787MOL0     H 8552   8.755   2.554   3.072  1.1573  0.4195 -0.2564
  787MOL0     H 8553   8.917   2.438   2.913  1.0131  0.2345  0.0890
  787MOL0     H 8554   8.899   2.566   2.794 -0.2761 -0.8156  0.4216
  787MOL0     H 8555   9.081   2.513   3.112  1.5655 -0.2013  0.5010
  787MOL0     H 8556   9.329   2.784   3.188 -0.1684  1.4075 -2.9705
  787MOL0     H 8557   9.373   2.648   3.088 -0.5270 -0.1228 -0.6772
  787MOL0     H 8558   9.191   2.631   3.344  0.1223 -0.2046  1.6501
  787MOL0     H 8559   9.244   2.492   3.252 -3.4628  0.1134  2.6780
  787MOL0     H 8560   9.375   2.505   3.440  1.5941 -2.3180 -1.5736
  787MOL0     H 8561   9.448   2.488   3.288  1.5403  0.1608  0.9986
  787MOL0     H 8562   9.533   2.732   3.313  0.1268 -0.5464  0.7896
  787MOL0     H 8563   9.424   2.742   3.459 -2.2077 -0.2277 -1.7236
  787MOL0     H 8564   9.791   2.512   3.590 -1.2459  0.2753  0.4507
  787MOL0     H 8565  10.100   2.615   3.706 -0.5963 -2.8830 -2.4937
  787MOL0     H 8566   9.982   2.491   3.710  1.9910 -0.2645 -0.5665
  787MOL0     H 8567   9.982   2.618   3.836  2.3179 -3.7776  1.6465
  787MOL0     H 8568  10.036   3.034   4.021 -0.6395 -0.0412  0.7502
  787MOL0     H 8569  10.222   3.143   4.149  2.4802  0.1556  0.0503
  787MOL0     H 8570  10.624   3.060   4.002  2.6277  0.9244  0.7675
  787MOL0     H 8571  10.647   3.162   4.137  1.0673  0.4413 -2.8081
  787MOL0     H 8572  10.789   2.961   4.162  0.6513 -0.1180 -0.1052
  787MOL0     H 8573  10.671   3.001   4.294 -1.6267  0.3416 -0.8828
  787MOL0     H 8574  10.587   2.799   4.084  2.8046 -2.4178 -0.9555
  787MOL0     H 8575  10.544   2.812   4.253 -0.0134 -1.2458  0.0386
  787MOL0     H 8576  10.786   2.729   4.307  0.7227  1.4612 -0.2081
  787MOL0     H 8577  10.818   2.726   4.132 -0.4681 -0.0666  0.0073
  787MOL0     H 8578  10.659   2.557   4.099  1.9601  3.0748 -0.7107
  787MOL0     H 8579  10.788   2.510   4.213  0.1537 -1.3978  1.5278
  787MOL0     H 8580  10.498   2.579   4.264 -1.3914 -1.4221  1.0731
  787MOL0     H 8581  10.610   2.584   4.400 -1.9539 -0.2885 -0.1346
  787MOL0     H 8582  10.656   2.359   4.383  0.6432  0.3560 -0.2564
  787MOL0     H 8583  10.586   2.333   4.223 -2.7306 -1.5637  0.4820
  787MOL0     H 8584  10.420   2.394   4.471 -1.4885 -0.0643  0.6390
  787MOL0     H 8585  10.437   2.233   4.413  1.0317  1.3383  1.7288
  787MOL0     H 8586  10.498   2.907   3.924  1.4195  1.7900  1.1811
  787MOL0     H 8587  10.314   2.833   3.780  0.2593  0.2285 -0.7437
  787MOL0     H 8588   9.824   3.005   3.565  1.3592 -0.4497  2.8451
  787MOL0     H 8589   9.652   2.893   3.444  0.2635 -1.4309 -0.7247
  787MOL0     H 8590   8.303   3.285   2.860  1.4129  1.2872 -0.5465
  787MOL0     H 8591   8.250   3.527   2.802 -0.1174 -2.6953  2.5148
  787MOL0     H 8592   8.106   3.837   2.694 -1.2536 -2.8059 -0.2484
  787MOL0     H 8593   8.090   4.080   2.644  0.3449 -1.0052 -0.3905
  787MOL0     H 8594   8.033   4.240   2.529 -1.3886 -2.5640  0.0934
  787MOL0     H 8595   7.924   4.385   2.499  0.4157  0.7978 -0.8933
  787MOL0     H 8596   8.053   4.426   2.703  1.7881 -1.6626 -0.6340
  787MOL0     H 8597   7.993   4.280   2.775  0.7100  0.2026  0.2302
  787MOL0     H 8598   7.840   4.532   2.695  0.3283 -1.6938 -1.5382
  787MOL0     H 8599   7.757   4.381   2.739 -2.0097  1.0910 -0.1147
  787MOL0     H 8600   7.950   4.521   2.911 -0.8968  0.0337  1.8820
  787MOL0     H 8601   7.860   4.378   2.956  1.4987  0.0413  0.2873
  787MOL0     H 8602   7.577   4.704   2.976  0.7522  0.9112 -0.3052
  787MOL0     H 8603   7.668   4.025   2.584 -0.3653 -2.4962 -1.3006
  787MOL0     H 8604   7.609   3.724   2.707 -1.8216 -0.5365 -1.4005
  787MOL0     H 8605   7.563   3.811   2.567 -0.5321  0.4365  2.5787
  787MOL0     H 8606   7.666   3.667   2.554 -1.5262 -1.2487  1.2415
  788MOL0     O 8607   9.819   4.420   8.752  0.5083  0.5655  0.2050
  788MOL0     C 8608   9.738   4.480   8.813  1.1518 -0.4206 -0.1862
  788MOL0     O 8609   9.746   4.517   8.943 -0.5985  0.1258 -0.1397
  788MOL0     C 8610   9.863   4.569   8.992 -0.2956 -0.7252 -0.1902
  788MOL0     C 8611   9.905   4.542   9.121 -0.6408 -0.4287 -0.7954
  788MOL0     C 8612  10.026   4.589   9.176  0.6730  0.1172  0.3758
  788MOL0     C 8613  10.113   4.664   9.094  0.9129  0.1536 -0.2355
  788MOL0     O 8614  10.220   4.731   9.141 -0.1109 -0.1037  0.0249
  788MOL0     C 8615  10.343   4.663   9.113  0.6258  0.1229 -0.3675
  788MOL0     C 8616  10.366   4.537   9.196 -0.1961 -0.8583 -0.1542
  788MOL0     C 8617  10.510   4.476   9.177 -0.3113  0.9804  0.3702
  788MOL0     C 8618  10.605   4.529   9.271  0.5342 -0.0513 -0.0789
  788MOL0     C 8619  10.739   4.465   9.255  0.3912  0.2987 -0.5934
  788MOL0     C 8620  10.819   4.452   9.386 -0.6155 -0.8911  0.5022
  788MOL0     C 8621  10.963   4.392   9.362 -0.9197 -0.4353 -0.2701
  788MOL0     C 8622  11.056   4.467   9.269  0.5530 -0.6929 -0.0354
  788MOL0     N 8623  11.188   4.408   9.257  0.2912  0.1153 -0.1680
  788MOL0     C 8624  11.215   4.298   9.184 -0.9364 -0.6630  0.5576
  788MOL0     C 8625  11.349   4.282   9.186 -0.7674 -0.4308 -1.1054
  788MOL0     C 8626  11.420   4.174   9.111  0.5653 -0.0939  0.0231
  788MOL0     C 8627  11.537   4.213   9.020 -0.3584 -0.3703  0.3194
  788MOL0     C 8628  11.674   4.143   9.040  0.0700 -0.2840  0.0912
  788MOL0     C 8629  11.768   4.184   9.150  0.2198  0.5164 -0.2636
  788MOL0     O 8630  11.857   4.284   9.115 -0.2813  0.1388  0.2045
  788MOL0     C 8631  11.983   4.258   9.057  0.2010  0.3800 -0.3844
  788MOL0     C 8632  12.024   4.134   8.999 -0.5046 -0.6865  0.0808
  788MOL0     C 8633  12.152   4.112   8.948 -0.2736 -0.1604 -0.0133
  788MOL0     C 8634  12.198   3.969   8.931 -0.0365 -0.3701 -0.0432
  788MOL0     C 8635  12.241   4.217   8.935  1.2727 -0.6816 -0.8949
  788MOL0     C 8636  12.371   4.204   8.885  0.5408 -0.1350  0.6348
  788MOL0     O 8637  12.468   4.296   8.924 -0.2872  0.3204  0.1092
  788MOL0     C 8638  12.588   4.282   8.854  0.7599 -0.1133 -1.0618
  788MOL0     C 8639  12.641   4.381   8.780  0.4321  0.1434 -0.2656
  788MOL0     C 8640  12.756   4.382   8.706  0.2787  0.5895 -1.6169
  788MOL0     C 8641  12.830   4.259   8.718  0.0898 -0.7730  0.3386
  788MOL0     O 8642  12.954   4.251   8.649  0.2403  0.1538 -0.0887
  788MOL0     C 8643  12.959   4.308   8.517 -0.5983  0.3451  0.0271
  788MOL0     C 8644  12.907   4.203   8.418  0.6751 -0.8862  1.4130
  788MOL0     C 8645  12.935   4.256   8.271  0.5851  0.6148 -0.9244
  788MOL0     C 8646  12.879   4.161   8.165  0.1404 -0.6000  0.0435
  788MOL0     C 8647  12.920   4.201   8.024 -0.2688 -0.0923  0.0548
  788MOL0     C 8648  12.919   4.094   7.911  0.2246  0.8495  0.9278
  788MOL0     C 8649  12.783   4.018   7.918  0.1207  0.1430  0.2987
  788MOL0     C 8650  12.660   4.096   7.879  0.5138 -1.1473  0.7124
  788MOL0    Cl 8651  12.674   4.179   7.726 -0.1737 -0.4720 -0.0362
  788MOL0     C 8652  12.787   4.153   8.796  1.0734  0.2915  0.5850
  788MOL0     C 8653  12.664   4.167   8.869  0.4939  0.0550  0.1477
  788MOL0     O 8654  12.385   4.123   8.792  0.1104  0.3040  0.2219
  788MOL0     C 8655  12.205   4.341   9.000  0.8823 -0.4288  0.3200
  788MOL0     C 8656  12.073   4.356   9.046  0.1765 -0.6038  0.0367
  788MOL0     N 8657  11.398   4.373   9.277 -1.0763 -0.5159 -0.3008
  788MOL0     N 8658  11.306   4.450   9.311  0.6900 -0.6760 -0.3444
  788MOL0     C 8659  10.079   4.674   8.963 -0.3736  0.0650 -0.8460
  788MOL0     C 8660   9.957   4.627   8.911 -0.8458 -0.2233  0.1428
  788MOL0     C 8661   9.603   4.494   8.753 -0.7845 -0.5107  0.1966
  788MOL0     C 8662   9.519   4.383   8.740  0.7055 -0.9857 -0.7873
  788MOL0     C 8663   9.387   4.405   8.695  0.0810 -0.6043  0.1628
  788MOL0     C 8664   9.346   4.526   8.644  0.2466 -0.3476 -0.5872
  788MOL0     O 8665   9.232   4.553   8.569 -0.4438 -0.0674  0.4982
  788MOL0     C 8666   9.122   4.452   8.571 -0.1841 -0.6091 -0.2775
  788MOL0     C 8667   8.992   4.526   8.549 -0.2422  0.5350  0.3025
  788MOL0     C 8668   8.877   4.433   8.498  0.3033 -0.6694  0.1329
  788MOL0     C 8669   8.739   4.501   8.505  0.6352  0.6398 -0.7220
  788MOL0     C 8670   8.695   4.521   8.638  0.0830 -0.0610 -0.0149
  788MOL0     C 8671   8.660   4.528   8.752  0.1940  0.9039  0.5757
  788MOL0     C 8672   9.435   4.630   8.649 -0.5344 -0.2018 -0.1342
  788MOL0     C 8673   9.564   4.618   8.710  0.5621  0.7720 -0.7652
  788MOL0     C 8674   9.662   4.730   8.711 -1.2089 -0.2829 -0.3940
  788MOL0     H 8675   9.833   4.481   9.175  0.2251 -0.5086  0.3040
  788MOL0     H 8676  10.066   4.575   9.276  0.9762  2.0191  0.5633
  788MOL0     H 8677  10.422   4.733   9.143  1.1383 -0.8406  0.5938
  788MOL0     H 8678  10.348   4.632   9.008 -2.9854 -1.6489 -0.1601
  788MOL0     H 8679  10.348   4.561   9.301 -0.8036  1.2406 -0.7011
  788MOL0     H 8680  10.294   4.464   9.158 -0.6335 -1.9970  2.6230
  788MOL0     H 8681  10.500   4.368   9.191  0.1482  1.3385  5.4611
  788MOL0     H 8682  10.542   4.490   9.073  0.2432 -0.4891  0.3094
  788MOL0     H 8683  10.604   4.638   9.266  0.1368 -0.0130  0.6714
  788MOL0     H 8684  10.562   4.500   9.368 -1.6579  2.7976 -0.0673
  788MOL0     H 8685  10.787   4.529   9.180 -2.1013  1.7413 -1.0762
  788MOL0     H 8686  10.746   4.365   9.211  4.6213  1.1414 -2.2592
  788MOL0     H 8687  10.832   4.551   9.432 -0.3358  0.9507 -3.1343
  788MOL0     H 8688  10.752   4.396   9.451 -3.5796  2.2614  0.4602
  788MOL0     H 8689  10.943   4.296   9.314 -0.9383 -1.3062  1.3945
  788MOL0     H 8690  11.012   4.384   9.460 -1.5568  2.4133  0.3663
  788MOL0     H 8691  11.012   4.489   9.172  0.4504 -1.9450 -0.2798
  788MOL0     H 8692  11.072   4.564   9.319 -0.4918  0.3023 -1.5519
  788MOL0     H 8693  11.140   4.251   9.121 -1.0522  0.4773 -0.1713
  788MOL0     H 8694  11.342   4.132   9.046 -1.8710  1.2235  1.9334
  788MOL0     H 8695  11.438   4.097   9.186 -0.9717 -1.3630 -0.8390
  788MOL0     H 8696  11.508   4.188   8.918 -1.1567 -1.4706  0.7977
  788MOL0     H 8697  11.574   4.316   9.025  1.0070 -0.4007 -4.2594
  788MOL0     H 8698  11.653   4.036   9.044  1.5511 -0.8181 -2.9813
  788MOL0     H 8699  11.721   4.174   8.946  0.6607  2.0518  1.0777
  788MOL0     H 8700  11.712   4.220   9.237  0.1663  0.2589 -0.1908
  788MOL0     H 8701  11.822   4.093   9.179  1.0754  1.8546  2.8007
  788MOL0     H 8702  11.955   4.052   9.014 -4.0011  2.0510  0.2362
  788MOL0     H 8703  12.289   3.948   8.988 -0.9818 -0.9065  1.3133
  788MOL0     H 8704  12.217   3.962   8.823  0.6344 -2.1008  0.1504
  788MOL0     H 8705  12.126   3.896   8.970  0.5802  0.4432  2.8088
  788MOL0     H 8706  12.589   4.476   8.778  1.8687  0.9689 -3.3173
  788MOL0     H 8707  12.782   4.468   8.645  2.7005  0.5191 -0.7685
  788MOL0     H 8708  12.913   4.406   8.502  0.9356  0.9280 -1.1997
  788MOL0     H 8709  13.064   4.330   8.498 -1.3213  1.8843 -2.8226
  788MOL0     H 8710  12.962   4.110   8.437  0.1152 -2.0251 -1.7615
  788MOL0     H 8711  12.801   4.186   8.437 -0.4036  1.3273 -1.6580
  788MOL0     H 8712  13.040   4.258   8.241  1.0441  0.7078  0.6314
  788MOL0     H 8713  12.900   4.359   8.262  2.1759  1.2258 -0.2755
  788MOL0     H 8714  12.771   4.144   8.173  0.2797 -1.1396  0.8707
  788MOL0     H 8715  12.921   4.062   8.183  1.4285  0.1453  1.3347
  788MOL0     H 8716  12.854   4.283   7.994  0.3137  0.0308 -0.9251
  788MOL0     H 8717  13.023   4.238   8.034 -0.6824  2.2352 -2.8232
  788MOL0     H 8718  13.008   4.030   7.915 -0.0281  0.5691  2.8462
  788MOL0     H 8719  12.921   4.140   7.811  1.0850 -0.0082  0.5301
  788MOL0     H 8720  12.776   3.964   8.013 -2.8134 -2.8101 -1.3947
  788MOL0     H 8721  12.780   3.946   7.835  3.5731  0.4738 -0.2789
  788MOL0     H 8722  12.625   4.170   7.952 -0.1684 -0.9963  0.2514
  788MOL0     H 8723  12.583   4.018   7.869  0.2463 -1.1738  2.6502
  788MOL0     H 8724  12.851   4.066   8.803  0.7614  0.1722  2.7504
  788MOL0     H 8725  12.626   4.091   8.937  0.6595  0.9125  1.2328
  788MOL0     H 8726  12.274   4.425   9.003  1.0405 -0.5647  0.5184
  788MOL0     H 8727  12.046   4.455   9.082 -0.3350 -1.0346  0.8535
  788MOL0     H 8728  10.156   4.720   8.901 -1.5849 -1.6041 -3.8311
  788MOL0     H 8729   9.954   4.625   8.803  1.8239 -1.9328  0.0173
  788MOL0     H 8730   9.555   4.291   8.784  4.0666 -0.2672 -1.6830
  788MOL0     H 8731   9.323   4.318   8.697 -0.3492 -0.2864  0.4308
  788MOL0     H 8732   9.141   4.367   8.505 -3.5387 -3.4000  1.9848
  788MOL0     H 8733   9.113   4.407   8.671 -3.5825  1.0448  0.3156
  788MOL0     H 8734   9.004   4.608   8.477  0.2882  1.6860  1.6563
  788MOL0     H 8735   8.966   4.574   8.644 -0.9082 -1.3524  1.1263
  788MOL0     H 8736   8.900   4.406   8.395 -0.3706  0.6111 -0.3704
  788MOL0     H 8737   8.885   4.342   8.558 -1.3247 -0.1267  1.2407
  788MOL0     H 8738   8.663   4.443   8.451 -0.6801  1.5794  0.0865
  788MOL0     H 8739   8.739   4.591   8.443 -1.5354 -0.0138 -1.7901
  788MOL0     H 8740   8.608   4.542   8.845 -0.5033  2.0626  0.0311
  788MOL0     H 8741   9.419   4.723   8.595  2.2593  1.1381  1.1564
  788MOL0     H 8742   9.750   4.700   8.653 -0.1368  5.4909 -2.4737
  788MOL0     H 8743   9.626   4.824   8.668  2.1777 -0.3551 -4.0038
  788MOL0     H 8744   9.701   4.749   8.811 -1.1869  0.3516 -0.5182
  789MOL0     O 8745   3.331   1.294  11.153  0.5625  0.8863 -0.4308
  789MOL0     C 8746   3.245   1.378  11.122 -0.1836 -0.3744 -0.1467
  789MOL0     O 8747   3.267   1.482  11.040  0.8069  0.0381  0.1464
  789MOL0     C 8748   3.389   1.486  10.981 -0.7871  0.6987 -0.3254
  789MOL0     C 8749   3.419   1.407  10.862  0.0556 -0.9257 -0.7084
  789MOL0     C 8750   3.550   1.397  10.827 -0.3566 -0.1614 -0.0028
  789MOL0     C 8751   3.643   1.500  10.870  0.4703  0.5508 -0.0640
  789MOL0     O 8752   3.762   1.507  10.802 -0.3346  0.2723 -0.0006
  789MOL0     C 8753   3.871   1.587  10.848 -0.1101 -0.3010 -0.5484
  789MOL0     C 8754   3.996   1.571  10.775 -0.1071  0.9982 -0.8868
  789MOL0     C 8755   4.061   1.425  10.780 -0.8101 -0.1318 -0.3705
  789MOL0     C 8756   4.169   1.401  10.667 -0.2086 -0.2035 -0.6388
  789MOL0     C 8757   4.285   1.498  10.678  0.3809 -0.9731  0.5335
  789MOL0     C 8758   4.379   1.453  10.562  0.1713 -0.3679  0.3498
  789MOL0     C 8759   4.514   1.526  10.553 -0.0067  0.4075 -0.3832
  789MOL0     C 8760   4.600   1.478  10.436  0.2449  0.3426 -0.3224
  789MOL0     N 8761   4.734   1.534  10.434  0.0881  0.3000  0.5306
  789MOL0     C 8762   4.763   1.660  10.410  0.0508  0.4125 -0.2913
  789MOL0     C 8763   4.886   1.671  10.445 -0.4068  1.2738 -0.5640
  789MOL0     C 8764   4.968   1.792  10.445 -0.0402  0.6460 -0.0804
  789MOL0     C 8765   5.066   1.806  10.563  0.0077  0.2054 -0.0351
  789MOL0     C 8766   5.110   1.945  10.589  0.2476  0.9049 -0.1792
  789MOL0     C 8767   5.197   1.985  10.470 -1.5052 -0.4493  0.5650
  789MOL0     O 8768   5.315   1.920  10.482  0.0679  0.5572  0.3440
  789MOL0     C 8769   5.406   1.956  10.577  0.2768 -0.5830  1.0992
  789MOL0     C 8770   5.520   1.877  10.584 -0.3538  0.3989 -0.5859
  789MOL0     C 8771   5.623   1.913  10.665  0.0619 -0.1598  0.6327
  789MOL0     C 8772   5.740   1.822  10.674  0.1852 -0.2970  0.3649
  789MOL0     C 8773   5.609   2.033  10.740 -0.5437  0.8764 -0.4263
  789MOL0     C 8774   5.703   2.072  10.853 -0.1850 -0.0521  0.4453
  789MOL0     O 8775   5.704   2.206  10.878 -0.2020  0.1779  0.1223
  789MOL0     C 8776   5.776   2.244  10.983 -0.4389 -0.2577 -0.1944
  789MOL0     C 8777   5.720   2.239  11.116  0.6726 -0.0103 -0.4370
  789MOL0     C 8778   5.804   2.276  11.227 -0.1558 -0.2052  0.4851
  789MOL0     C 8779   5.934   2.308  11.201 -1.4511 -0.6207 -0.0025
  789MOL0     O 8780   6.019   2.338  11.302 -0.5956 -0.6435  1.3067
  789MOL0     C 8781   6.020   2.249  11.417 -0.0921 -0.3736 -0.1383
  789MOL0     C 8782   6.141   2.301  11.501 -0.3828 -1.1602 -0.0477
  789MOL0     C 8783   6.152   2.220  11.633  0.5062  0.5869 -0.8321
  789MOL0     C 8784   6.290   2.249  11.699  0.8549 -0.0549  0.6506
  789MOL0     C 8785   6.335   2.164  11.819 -0.4580  0.7166  0.3459
  789MOL0     C 8786   6.254   2.162  11.943 -0.0217  0.0335  0.4935
  789MOL0     C 8787   6.313   2.059  12.040  0.3243 -0.1517 -0.4916
  789MOL0     C 8788   6.230   2.061  12.174 -1.0873 -0.0525 -0.3701
  789MOL0    Cl 8789   6.254   2.215  12.277  0.4047  0.1480 -0.2926
  789MOL0     C 8790   5.990   2.307  11.072  0.3537  0.6802 -0.6606
  789MOL0     C 8791   5.911   2.274  10.963  0.0197  0.8627 -0.8569
  789MOL0     O 8792   5.762   1.980  10.914 -0.2467  0.2478  0.3786
  789MOL0     C 8793   5.503   2.117  10.724 -0.4120  0.6514 -0.5086
  789MOL0     C 8794   5.405   2.078  10.641  1.1192 -0.1285 -0.2136
  789MOL0     N 8795   4.934   1.551  10.497 -0.1813 -0.2568  0.0190
  789MOL0     N 8796   4.840   1.470  10.486 -1.3338  0.0212 -0.4183
  789MOL0     C 8797   3.612   1.591  10.965 -0.1418 -0.5694 -0.1578
  789MOL0     C 8798   3.489   1.575  11.031  0.5805  0.8488  0.5514
  789MOL0     C 8799   3.108   1.383  11.183 -0.5365  0.4116 -0.0825
  789MOL0     C 8800   3.059   1.508  11.232  0.8994 -0.6652  1.6356
  789MOL0     C 8801   2.954   1.503  11.322  1.1996  0.1260 -0.4727
  789MOL0     C 8802   2.884   1.389  11.366 -0.1393  0.4278  0.5064
  789MOL0     O 8803   2.761   1.384  11.433  0.6232 -0.9665  0.3744
  789MOL0     C 8804   2.699   1.508  11.477  0.7381 -0.1301 -0.6767
  789MOL0     C 8805   2.641   1.581  11.348 -0.2568  0.0419 -0.4560
  789MOL0     C 8806   2.532   1.493  11.273 -0.2536 -0.2704 -0.1455
  789MOL0     C 8807   2.418   1.444  11.361  0.0737  0.0110 -0.2205
  789MOL0     C 8808   2.350   1.559  11.410  0.7438  0.0713 -0.4540
  789MOL0     C 8809   2.282   1.656  11.439 -0.5595  0.3751 -0.0414
  789MOL0     C 8810   2.931   1.271  11.312 -0.1048 -0.1484 -0.4969
  789MOL0     C 8811   3.041   1.263  11.227 -0.0926 -0.1022  0.2685
  789MOL0     C 8812   3.078   1.129  11.167  0.1801  0.4378 -0.3956
  789MOL0     H 8813   3.352   1.329  10.830  0.9355 -2.3128  0.7049
  789MOL0     H 8814   3.570   1.321  10.753 -0.1437 -0.2920  0.1875
  789MOL0     H 8815   3.888   1.557  10.952  1.6348  1.4981 -0.2628
  789MOL0     H 8816   3.833   1.689  10.854  0.1549 -0.2611  3.6109
  789MOL0     H 8817   3.971   1.586  10.669  0.5878 -0.7738 -1.3272
  789MOL0     H 8818   4.065   1.650  10.807 -2.3469  1.5794  3.1590
  789MOL0     H 8819   4.114   1.411  10.874 -2.2142  1.0293  0.6369
  789MOL0     H 8820   3.984   1.347  10.780  0.4692 -1.4795  1.6537
  789MOL0     H 8821   4.204   1.298  10.677 -2.1283 -0.7830  0.6038
  789MOL0     H 8822   4.111   1.405  10.574 -1.1927  0.9760 -0.0055
  789MOL0     H 8823   4.344   1.490  10.770 -0.9055 -0.0363  1.4893
  789MOL0     H 8824   4.249   1.601  10.667 -1.4223 -1.6578 -0.4910
  789MOL0     H 8825   4.405   1.350  10.588  0.3379  0.0171  1.8211
  789MOL0     H 8826   4.328   1.456  10.465  0.2475  0.1120  0.3233
  789MOL0     H 8827   4.575   1.509  10.642  3.2012 -0.9485 -2.6125
  789MOL0     H 8828   4.490   1.631  10.532 -0.9186  0.2853  0.0088
  789MOL0     H 8829   4.614   1.371  10.452  2.3639  0.0771 -3.2047
  789MOL0     H 8830   4.546   1.486  10.341  1.1026  0.4455 -0.8108
  789MOL0     H 8831   4.689   1.736  10.388  0.4642  1.1060  0.6489
  789MOL0     H 8832   4.890   1.868  10.453  0.5402  1.4739 -1.9049
  789MOL0     H 8833   5.012   1.805  10.346  2.3546  0.5171  0.9171
  789MOL0     H 8834   5.029   1.764  10.657  0.7970  0.9987  0.6553
  789MOL0     H 8835   5.157   1.749  10.544 -1.1285 -1.2137 -1.3927
  789MOL0     H 8836   5.030   2.017  10.609  0.1123  1.0772 -1.3050
  789MOL0     H 8837   5.163   1.932  10.685  0.2658 -2.4144 -0.5127
  789MOL0     H 8838   5.166   1.946  10.372  0.4966  1.7716 -1.0662
  789MOL0     H 8839   5.211   2.092  10.453 -0.7134 -0.5817  0.3145
  789MOL0     H 8840   5.519   1.791  10.518  1.6569 -0.2103  0.0901
  789MOL0     H 8841   5.728   1.745  10.751  0.3263 -1.7547 -1.0294
  789MOL0     H 8842   5.833   1.877  10.692  1.0969 -2.2955  2.1760
  789MOL0     H 8843   5.759   1.767  10.582  1.9079 -0.9966  1.0895
  789MOL0     H 8844   5.619   2.205  11.133  1.1943 -1.5467 -0.1890
  789MOL0     H 8845   5.765   2.276  11.328  3.6282  1.4567  2.1742
  789MOL0     H 8846   5.928   2.258  11.474  0.7497 -1.0683  1.3900
  789MOL0     H 8847   6.041   2.148  11.380 -1.0968 -0.7407  0.2646
  789MOL0     H 8848   6.230   2.292  11.438 -0.3582  3.6913 -1.0276
  789MOL0     H 8849   6.138   2.408  11.519  0.9116 -1.1879  0.5023
  789MOL0     H 8850   6.149   2.111  11.623 -2.5260  0.5627 -0.5555
  789MOL0     H 8851   6.083   2.240  11.716 -1.9018  1.4249 -2.9052
  789MOL0     H 8852   6.292   2.352  11.736  1.1411  0.1666  0.0299
  789MOL0     H 8853   6.370   2.246  11.625  0.8118 -0.8252  0.6278
  789MOL0     H 8854   6.333   2.064  11.774 -0.8057  1.0942 -0.5123
  789MOL0     H 8855   6.438   2.188  11.845 -0.4019  0.0959  0.7212
  789MOL0     H 8856   6.150   2.135  11.924 -0.1634  0.2662  0.9424
  789MOL0     H 8857   6.252   2.260  11.991  2.1939  0.2104  0.3207
  789MOL0     H 8858   6.419   2.076  12.061 -0.3311  0.0695  3.3056
  789MOL0     H 8859   6.315   1.955  12.004 -2.7581 -0.4351 -0.1055
  789MOL0     H 8860   6.272   1.974  12.226  0.8193  0.8148 -0.3625
  789MOL0     H 8861   6.125   2.053  12.146 -1.0982 -2.2827  0.0914
  789MOL0     H 8862   6.091   2.335  11.047  0.5386 -0.2907 -1.0638
  789MOL0     H 8863   5.952   2.275  10.862 -2.2934 -0.4155 -1.8913
  789MOL0     H 8864   5.486   2.208  10.779 -1.6087 -1.9789  4.0010
  789MOL0     H 8865   5.323   2.147  10.625  2.1420  0.7462 -1.9366
  789MOL0     H 8866   3.680   1.672  10.992  1.1328 -1.9375  0.8909
  789MOL0     H 8867   3.461   1.641  11.113 -0.4255  0.7774  0.2817
  789MOL0     H 8868   3.102   1.598  11.191 -0.8346 -0.8801 -0.9067
  789MOL0     H 8869   2.920   1.604  11.346  0.9787  1.4112 -5.1302
  789MOL0     H 8870   2.620   1.496  11.552  0.6039 -1.6052 -1.0288
  789MOL0     H 8871   2.771   1.573  11.527  0.2957 -1.1362  1.3772
  789MOL0     H 8872   2.722   1.600  11.277 -0.5159 -0.5549 -0.9203
  789MOL0     H 8873   2.593   1.674  11.378 -2.1683 -0.9062 -0.3763
  789MOL0     H 8874   2.492   1.546  11.187  2.0152  0.0663 -1.0732
  789MOL0     H 8875   2.566   1.397  11.234 -2.4651 -1.3237  0.3520
  789MOL0     H 8876   2.446   1.363  11.428 -0.9578 -1.2069 -1.2036
  789MOL0     H 8877   2.344   1.398  11.294  0.7330  0.2714 -1.1604
  789MOL0     H 8878   2.222   1.738  11.473 -1.5838 -0.7881  1.0749
  789MOL0     H 8879   2.872   1.181  11.329  1.7595 -1.1441  1.1466
  789MOL0     H 8880   3.094   1.135  11.059  3.8923 -3.9912 -0.3519
  789MOL0     H 8881   3.168   1.090  11.215  1.0812  0.6091 -1.8809
  789MOL0     H 8882   2.993   1.065  11.192 -0.5423  1.5141  0.0079
  790MOL0     O 8883  10.244   6.226   0.448  0.4326  0.3872  0.6664
  790MOL0     C 8884  10.205   6.216   0.335  0.1486  0.8035 -0.2076
  790MOL0     O 8885  10.281   6.196   0.224  0.3471 -0.1812 -0.1209
  790MOL0     C 8886  10.422   6.225   0.219 -0.5461  0.6518 -0.6539
  790MOL0     C 8887  10.493   6.171   0.113  0.3066 -0.1546 -0.2573
  790MOL0     C 8888  10.621   6.209   0.086 -0.5961  0.3775  0.3490
  790MOL0     C 8889  10.689   6.304   0.170 -0.6200 -0.0680 -0.4763
  790MOL0     O 8890  10.816   6.341   0.131 -0.2845 -0.6135 -0.3586
  790MOL0     C 8891  10.873   6.443   0.210  0.5505  0.3983 -0.6196
  790MOL0     C 8892  11.011   6.455   0.147 -0.3002 -0.8502 -0.8399
  790MOL0     C 8893  11.082   6.548   0.240  0.0021 -1.0063 -0.2311
  790MOL0     C 8894  11.235   6.529   0.224 -0.2445 -0.6955  0.0454
  790MOL0     C 8895  11.328   6.605   0.319 -0.1676  0.0859  0.2897
  790MOL0     C 8896  11.312   6.560   0.464  0.5584 -0.1069 -0.0068
  790MOL0     C 8897  11.378   6.617   0.583 -0.4729  0.1638  0.2367
  790MOL0     C 8898  11.415   6.767   0.567  0.3225  0.0676 -0.0029
  790MOL0     N 8899  11.435   6.841   0.696  0.0073  0.6727  0.3213
  790MOL0     C 8900  11.446   6.785   0.823 -0.2740 -0.5736  0.0413
  790MOL0     C 8901  11.465   6.893   0.901 -0.0017 -0.5235 -0.3583
  790MOL0     C 8902  11.469   6.891   1.047  0.1387 -0.4938 -0.0259
  790MOL0     C 8903  11.603   6.839   1.092 -0.0387  0.7403 -0.2329
  790MOL0     C 8904  11.640   6.873   1.232 -0.1574  0.1820  0.5171
  790MOL0     C 8905  11.770   6.794   1.270 -0.4362  0.4789 -0.0016
  790MOL0     O 8906  11.833   6.868   1.374  0.3155 -0.4937 -0.4264
  790MOL0     C 8907  11.940   6.811   1.431 -0.2554 -0.5094 -0.2284
  790MOL0     C 8908  11.986   6.864   1.550 -0.0673  0.8659 -0.7575
  790MOL0     C 8909  12.087   6.805   1.630  0.3808 -0.2623 -0.6627
  790MOL0     C 8910  12.114   6.871   1.763 -0.6526  0.3658  0.8720
  790MOL0     C 8911  12.163   6.701   1.572 -0.8728 -0.0267  0.6017
  790MOL0     C 8912  12.282   6.639   1.632  0.7288 -0.4386  0.8382
  790MOL0     O 8913  12.348   6.557   1.545 -0.0681 -0.0730 -1.0027
  790MOL0     C 8914  12.430   6.457   1.593  0.3235 -0.3147 -0.2199
  790MOL0     C 8915  12.387   6.348   1.678 -0.0848  0.0851 -0.0560
  790MOL0     C 8916  12.473   6.257   1.741 -0.1396 -0.9103  0.1401
  790MOL0     C 8917  12.611   6.268   1.708 -0.4992 -0.6412 -0.9894
  790MOL0     O 8918  12.706   6.189   1.766  0.1330 -0.0331 -0.4396
  790MOL0     C 8919  12.684   6.120   1.895  0.0257  0.2415  0.3233
  790MOL0     C 8920  12.799   6.045   1.956 -0.7702  0.0676  0.3568
  790MOL0     C 8921  12.910   6.135   2.009  0.5268  0.2201 -0.0518
  790MOL0     C 8922  13.014   6.056   2.089  0.6864  0.5401 -0.9386
  790MOL0     C 8923  13.136   6.130   2.145 -0.9354 -0.7531  0.1027
  790MOL0     C 8924  13.232   6.041   2.212  0.5488  0.5744  0.2943
  790MOL0     C 8925  13.361   6.100   2.257 -0.1979  0.0766 -0.2353
  790MOL0     C 8926  13.442   6.028   2.369  0.4827 -0.0435 -0.0351
  790MOL0    Cl 8927  13.614   6.063   2.352 -0.1013  0.1852 -0.4248
  790MOL0     C 8928  12.652   6.359   1.615 -0.2546  0.2478  0.0878
  790MOL0     C 8929  12.564   6.448   1.552 -0.2821 -0.1123  0.7046
  790MOL0     O 8930  12.306   6.647   1.749 -0.4452 -0.1917 -0.0731
  790MOL0     C 8931  12.128   6.656   1.440  0.5202 -0.7843  0.7257
  790MOL0     C 8932  12.016   6.713   1.372 -0.4079 -0.4105  0.7762
  790MOL0     N 8933  11.466   7.006   0.825 -0.1438 -0.5606  0.0151
  790MOL0     N 8934  11.448   6.977   0.699  0.0919 -0.2000  0.2240
  790MOL0     C 8935  10.618   6.346   0.289 -0.2719  0.4310 -0.1860
  790MOL0     C 8936  10.486   6.313   0.306 -0.3473 -0.1384 -0.8116
  790MOL0     C 8937  10.058   6.211   0.317 -0.4073 -0.1159 -0.3189
  790MOL0     C 8938  10.013   6.150   0.195 -0.4556 -0.0878 -0.1283
  790MOL0     C 8939   9.876   6.136   0.173  0.4836 -0.7541  0.4294
  790MOL0     C 8940   9.778   6.171   0.270 -0.4410  0.4889 -0.4700
  790MOL0     O 8941   9.644   6.154   0.260 -0.0075 -0.8482 -0.4142
  790MOL0     C 8942   9.590   6.043   0.336  0.6756 -0.4650  0.0196
  790MOL0     C 8943   9.530   5.940   0.246  0.7346 -0.2955  0.4181
  790MOL0     C 8944   9.635   5.888   0.152 -0.1051  0.3509  0.7655
  790MOL0     C 8945   9.589   5.782   0.056  0.6381 -0.3306  0.5488
  790MOL0     C 8946   9.704   5.722  -0.017 -0.2892 -0.2512  0.2803
  790MOL0     C 8947   9.823   5.612  -0.135 -0.3132  0.0208 -0.4797
  790MOL0     C 8948   9.828   6.229   0.384  0.2905  0.8938  0.1769
  790MOL0     C 8949   9.963   6.259   0.413 -0.0041  0.2829 -0.9356
  790MOL0     C 8950   9.996   6.322   0.546 -0.1825 -0.7406 -0.2922
  790MOL0     H 8951  10.444   6.106   0.041  0.1565  0.0432 -0.3326
  790MOL0     H 8952  10.674   6.166   0.002 -2.1289 -0.2415 -0.3463
  790MOL0     H 8953  10.882   6.410   0.314 -2.3378  2.1350  0.2944
  790MOL0     H 8954  10.820   6.538   0.205 -1.0687 -0.5596 -3.8166
  790MOL0     H 8955  11.055   6.355   0.149 -1.8362 -1.5442  0.5245
  790MOL0     H 8956  11.005   6.490   0.043  0.8615 -0.5662 -0.8257
  790MOL0     H 8957  11.048   6.651   0.228 -0.2432 -0.7753  2.0516
  790MOL0     H 8958  11.061   6.527   0.345 -0.4951  0.2481 -0.0607
  790MOL0     H 8959  11.267   6.425   0.227  1.5852 -0.2263 -1.3169
  790MOL0     H 8960  11.249   6.560   0.120 -1.1220  1.9853  0.6364
  790MOL0     H 8961  11.303   6.711   0.312  1.6513  0.8086  2.9368
  790MOL0     H 8962  11.430   6.587   0.282 -0.6252 -1.6345 -0.2102
  790MOL0     H 8963  11.206   6.587   0.475  0.1570 -1.5728  0.0505
  790MOL0     H 8964  11.322   6.451   0.463  3.7781  0.0970 -0.8704
  790MOL0     H 8965  11.468   6.557   0.599 -2.3105 -2.3285  2.0892
  790MOL0     H 8966  11.319   6.604   0.675  1.8447 -0.5013  1.7182
  790MOL0     H 8967  11.511   6.773   0.513  0.1234  0.4222 -0.3229
  790MOL0     H 8968  11.341   6.814   0.502  1.1516  0.5963 -0.5888
  790MOL0     H 8969  11.425   6.682   0.848  1.2919 -0.8757  0.1777
  790MOL0     H 8970  11.387   6.830   1.084 -0.6788  0.4573 -0.2373
  790MOL0     H 8971  11.454   6.995   1.076 -0.2827 -0.4584 -0.3666
  790MOL0     H 8972  11.592   6.730   1.090 -0.1914  0.7590 -0.4194
  790MOL0     H 8973  11.685   6.865   1.024  2.4595  2.1558  3.0188
  790MOL0     H 8974  11.653   6.982   1.237 -1.3200  0.4720 -1.7065
  790MOL0     H 8975  11.557   6.852   1.300 -1.5452  1.2312 -0.7856
  790MOL0     H 8976  11.743   6.694   1.303 -1.1566 -0.6121 -3.4829
  790MOL0     H 8977  11.831   6.797   1.179  1.9069 -0.4869  1.4537
  790MOL0     H 8978  11.930   6.942   1.600 -0.1971 -0.5763  1.5318
  790MOL0     H 8979  12.220   6.864   1.787 -0.2413  2.3772 -0.1642
  790MOL0     H 8980  12.045   6.834   1.840 -0.1852  1.4150  1.8216
  790MOL0     H 8981  12.098   6.978   1.750 -1.6975  0.2176  0.8579
  790MOL0     H 8982  12.279   6.349   1.694 -0.1464  1.7373 -0.3723
  790MOL0     H 8983  12.437   6.190   1.819  0.4885 -1.7594 -0.2767
  790MOL0     H 8984  12.661   6.201   1.965 -2.8618  1.2426 -1.5854
  790MOL0     H 8985  12.599   6.051   1.903  0.7759 -0.5711  2.0187
  790MOL0     H 8986  12.765   5.975   2.032 -1.4218  0.2666  0.2573
  790MOL0     H 8987  12.841   5.983   1.876 -1.8785 -0.2940  0.0418
  790MOL0     H 8988  12.871   6.214   2.073 -0.6058  0.7701 -1.3663
  790MOL0     H 8989  12.950   6.185   1.920  0.9581  0.3628  0.2220
  790MOL0     H 8990  13.045   5.975   2.023  1.0375 -0.1713  0.0699
  790MOL0     H 8991  12.960   6.008   2.172  1.3714 -1.4178 -1.5647
  790MOL0     H 8992  13.189   6.188   2.069  0.1250  0.5318  1.7591
  790MOL0     H 8993  13.102   6.196   2.225 -0.0707  0.7375 -0.7226
  790MOL0     H 8994  13.265   5.965   2.140  3.2676 -0.1638  2.1678
  790MOL0     H 8995  13.184   5.999   2.301  0.0569 -1.9906 -1.0909
  790MOL0     H 8996  13.347   6.203   2.294  1.5874  0.9295 -1.7529
  790MOL0     H 8997  13.417   6.119   2.165 -1.2711  2.4423 -0.4916
  790MOL0     H 8998  13.424   5.920   2.372  0.1990 -0.0347 -0.9716
  790MOL0     H 8999  13.410   6.061   2.469 -0.5584  0.0571 -0.3879
  790MOL0     H 9000  12.756   6.351   1.584  1.1304 -1.1605  4.4517
  790MOL0     H 9001  12.599   6.527   1.485  1.3155 -1.3469  0.0148
  790MOL0     H 9002  12.173   6.574   1.386  2.5990  1.5279 -1.3291
  790MOL0     H 9003  12.002   6.683   1.268  1.3197  1.3347 -0.0252
  790MOL0     H 9004  10.660   6.420   0.356 -2.7500  0.4056  1.5260
  790MOL0     H 9005  10.423   6.374   0.371 -2.5743 -0.4970 -2.5101
  790MOL0     H 9006  10.069   6.110   0.112 -1.5956  2.4346 -2.2613
  790MOL0     H 9007   9.846   6.091   0.079  0.7264  0.6869 -0.3479
  790MOL0     H 9008   9.660   6.003   0.408  1.3356  1.9891  0.8491
  790MOL0     H 9009   9.513   6.076   0.406  1.2689  0.9945  0.0162
  790MOL0     H 9010   9.444   5.974   0.187  1.5589  0.0342 -0.6385
  790MOL0     H 9011   9.504   5.856   0.310  0.2972 -2.1743 -2.0697
  790MOL0     H 9012   9.662   5.968   0.082 -2.0713 -0.2384 -0.7786
  790MOL0     H 9013   9.721   5.865   0.216 -0.6228 -0.5687  1.1612
  790MOL0     H 9014   9.523   5.806  -0.028 -1.9297 -0.1668  2.5006
  790MOL0     H 9015   9.547   5.712   0.129  0.2118 -0.7382 -0.0767
  790MOL0     H 9016   9.866   5.542  -0.204 -0.7776  0.0081 -0.7587
  790MOL0     H 9017   9.760   6.263   0.462 -0.1254  1.5982 -0.4712
  790MOL0     H 9018   9.906   6.354   0.599 -0.0535 -0.8977  0.0227
  790MOL0     H 9019  10.061   6.248   0.594 -1.1965 -1.4139  0.0782
  790MOL0     H 9020  10.054   6.411   0.519 -1.6256 -0.5005 -2.9290
  791MOL0     O 9021   0.263   2.274   5.553  0.1503 -0.4158  0.4576
  791MOL0     C 9022   0.225   2.195   5.462 -0.7443 -0.7147 -0.9424
  791MOL0     O 9023   0.301   2.103   5.408 -0.7948  0.2315 -0.5181
  791MOL0     C 9024   0.428   2.117   5.439  0.5171 -0.4915  0.0275
  791MOL0     C 9025   0.514   2.183   5.346 -0.5601 -0.4885  0.1868
  791MOL0     C 9026   0.657   2.205   5.375 -0.1424 -0.4582  0.3250
  791MOL0     C 9027   0.708   2.142   5.498  1.0602 -0.1951  0.7019
  791MOL0     O 9028   0.836   2.166   5.534 -0.0733 -1.3277 -0.4048
  791MOL0     C 9029   0.904   2.065   5.611 -0.1341  0.2728 -0.7702
  791MOL0     C 9030   1.056   2.086   5.610  0.1223  0.4456 -0.3945
  791MOL0     C 9031   1.130   1.987   5.702 -0.2067 -0.8153  0.4819
  791MOL0     C 9032   1.112   1.837   5.652 -0.4327 -0.3638 -0.1349
  791MOL0     C 9033   1.193   1.739   5.741  0.1972 -1.3686 -0.4922
  791MOL0     C 9034   1.161   1.593   5.702  0.5148  0.3841 -0.1947
  791MOL0     C 9035   1.201   1.547   5.556 -0.0653 -0.6142 -0.1113
  791MOL0     C 9036   1.352   1.519   5.548 -0.8045  0.3570 -0.5840
  791MOL0     N 9037   1.410   1.421   5.646 -0.7457 -0.3670 -0.1230
  791MOL0     C 9038   1.404   1.286   5.657 -0.0268  0.8013 -0.6673
  791MOL0     C 9039   1.490   1.252   5.759 -0.7342  0.8745 -0.5137
  791MOL0     C 9040   1.510   1.105   5.792  0.3639  1.0247  0.7399
  791MOL0     C 9041   1.532   1.068   5.938 -0.7368 -0.0630 -0.7124
  791MOL0     C 9042   1.541   0.925   5.954  1.2360  0.0469  0.1183
  791MOL0     C 9043   1.494   0.877   6.091  0.9130 -0.4740 -0.4695
  791MOL0     O 9044   1.358   0.910   6.128  0.4471  0.2315 -0.7806
  791MOL0     C 9045   1.259   0.825   6.095  0.0394  0.6214 -0.4037
  791MOL0     C 9046   1.268   0.693   6.066 -0.0519 -0.4551  0.5314
  791MOL0     C 9047   1.159   0.611   6.051  0.9896  0.4725  0.0594
  791MOL0     C 9048   1.188   0.469   6.015  0.4886 -0.6002 -0.1198
  791MOL0     C 9049   1.025   0.661   6.069 -0.5287  0.2947  0.3463
  791MOL0     C 9050   0.893   0.584   6.055  0.8361 -0.3301  0.6550
  791MOL0     O 9051   0.895   0.447   6.060 -0.7288  0.3483  0.0066
  791MOL0     C 9052   0.771   0.392   6.068 -0.5801 -0.3148 -0.0894
  791MOL0     C 9053   0.710   0.331   5.962  0.8420 -0.0925  0.2119
  791MOL0     C 9054   0.578   0.290   5.975  0.1450 -0.1247  0.2958
  791MOL0     C 9055   0.505   0.306   6.095  0.1505  0.5183 -0.5172
  791MOL0     O 9056   0.371   0.267   6.102 -0.6416  0.2892  0.4293
  791MOL0     C 9057   0.304   0.276   6.222 -0.3080 -0.2355  0.0356
  791MOL0     C 9058   0.174   0.189   6.214 -1.4728 -0.3451 -0.2789
  791MOL0     C 9059   0.078   0.220   6.099  0.2033  0.2439 -0.1971
  791MOL0     C 9060  -0.055   0.146   6.109  0.0351 -0.1768  0.4911
  791MOL0     C 9061  -0.167   0.214   6.030  0.2058  0.6638 -0.7559
  791MOL0     C 9062  -0.261   0.127   5.951  0.4565 -0.4676 -0.2356
  791MOL0     C 9063  -0.355   0.039   6.039 -0.2517 -0.0577  0.1316
  791MOL0     C 9064  -0.456  -0.030   5.955  0.5503 -0.5888  0.4063
  791MOL0    Cl 9065  -0.614  -0.062   6.043 -0.0538 -0.4141  0.1003
  791MOL0     C 9066   0.571   0.361   6.203 -0.5464  0.3363  0.8272
  791MOL0     C 9067   0.702   0.397   6.191 -0.6624  0.3452  0.1294
  791MOL0     O 9068   0.801   0.650   6.008 -0.3810 -0.5817  0.1925
  791MOL0     C 9069   1.017   0.796   6.116 -1.0121 -0.1295 -1.0418
  791MOL0     C 9070   1.134   0.878   6.128  0.2015 -0.5348  0.3671
  791MOL0     N 9071   1.540   1.367   5.820 -0.3985  0.5096 -0.1274
  791MOL0     N 9072   1.498   1.463   5.745  0.3151  0.4411 -0.0665
  791MOL0     C 9073   0.615   2.083   5.587  0.4476 -0.3377 -0.0942
  791MOL0     C 9074   0.483   2.066   5.556  0.0339 -0.1335  0.7864
  791MOL0     C 9075   0.081   2.177   5.450  0.6741  0.4192 -0.5056
  791MOL0     C 9076   0.022   2.051   5.440 -0.2385  0.7744 -0.1448
  791MOL0     C 9077  -0.117   2.033   5.464  0.2675  0.2768  0.2093
  791MOL0     C 9078  -0.198   2.143   5.475  0.2704 -0.3177  0.2961
  791MOL0     O 9079  -0.327   2.106   5.500 -0.1977 -0.0473  0.0944
  791MOL0     C 9080  -0.429   2.211   5.477  0.4030  0.1980 -0.0440
  791MOL0     C 9081  -0.556   2.131   5.506  1.1182  0.2852 -0.6244
  791MOL0     C 9082  -0.675   2.232   5.492  0.4991 -0.0017  0.4404
  791MOL0     C 9083  -0.801   2.167   5.427 -0.2011 -0.7868  0.2204
  791MOL0     C 9084  -0.782   2.159   5.280 -0.0660  0.2825 -0.1527
  791MOL0     C 9085  -0.743   2.178   5.162  0.0770  0.1494 -0.0437
  791MOL0     C 9086  -0.143   2.274   5.462 -0.7663 -0.3623  0.2546
  791MOL0     C 9087  -0.002   2.288   5.449  0.2066 -0.7663  0.1657
  791MOL0     C 9088   0.047   2.430   5.437  0.5978 -0.2791  0.4787
  791MOL0     H 9089   0.477   2.213   5.248 -3.6367 -0.2853  1.3108
  791MOL0     H 9090   0.722   2.255   5.304  3.0126 -0.3458  3.0197
  791MOL0     H 9091   0.874   1.970   5.566 -0.3614 -1.1050  2.0415
  791MOL0     H 9092   0.863   2.075   5.712 -0.9541  2.8870 -1.2943
  791MOL0     H 9093   1.093   2.079   5.507  1.4005 -2.8217  0.1411
  791MOL0     H 9094   1.079   2.182   5.657  1.1828 -0.5413  1.2312
  791MOL0     H 9095   1.234   2.016   5.688 -0.2451 -1.6324 -2.0406
  791MOL0     H 9096   1.097   1.990   5.806  0.1167 -0.9718  0.5882
  791MOL0     H 9097   1.003   1.825   5.656 -0.6890  1.2708 -1.0810
  791MOL0     H 9098   1.152   1.823   5.551 -0.2086 -1.8128  0.1391
  791MOL0     H 9099   1.165   1.757   5.846 -1.6545  0.9702 -1.2783
  791MOL0     H 9100   1.298   1.767   5.734 -0.4712  2.3406  1.4051
  791MOL0     H 9101   1.213   1.530   5.774  0.7374  0.7226 -0.0601
  791MOL0     H 9102   1.053   1.579   5.718  0.1559  1.8946 -1.0716
  791MOL0     H 9103   1.176   1.617   5.475  0.8738 -1.2583 -0.9848
  791MOL0     H 9104   1.157   1.454   5.519 -2.5060  1.7011 -3.7958
  791MOL0     H 9105   1.369   1.483   5.446  2.4378  1.3691 -0.5162
  791MOL0     H 9106   1.393   1.620   5.554 -1.2498  0.4571  2.0957
  791MOL0     H 9107   1.348   1.223   5.589  2.0807 -0.7937 -1.0065
  791MOL0     H 9108   1.599   1.074   5.736  2.3849  1.4818  3.5221
  791MOL0     H 9109   1.422   1.051   5.757 -0.1532  0.4409  2.8307
  791MOL0     H 9110   1.630   1.109   5.964 -1.3428  1.0404 -0.0876
  791MOL0     H 9111   1.458   1.118   6.001  0.5092  0.4072  0.4235
  791MOL0     H 9112   1.484   0.870   5.878  1.9027  0.0574 -0.3959
  791MOL0     H 9113   1.646   0.896   5.942  1.7535  1.4670  1.0039
  791MOL0     H 9114   1.511   0.770   6.108  1.4511 -0.4308 -0.7127
  791MOL0     H 9115   1.560   0.920   6.167  0.0210 -0.5561  0.3700
  791MOL0     H 9116   1.356   0.630   6.055 -0.7392 -1.4623  0.6079
  791MOL0     H 9117   1.290   0.457   5.976  1.8369 -0.3937  3.0973
  791MOL0     H 9118   1.123   0.430   5.936  0.8850  0.2434 -0.8895
  791MOL0     H 9119   1.173   0.404   6.101  2.9026 -0.7063  0.3028
  791MOL0     H 9120   0.754   0.315   5.864 -0.1102 -0.1321 -0.2149
  791MOL0     H 9121   0.535   0.251   5.884 -1.4886 -1.5356  1.6201
  791MOL0     H 9122   0.367   0.232   6.299 -0.7322  0.3053  0.7009
  791MOL0     H 9123   0.288   0.381   6.249  0.7292  0.0864 -0.5380
  791MOL0     H 9124   0.213   0.088   6.200  0.1675  0.2979 -0.6280
  791MOL0     H 9125   0.115   0.201   6.305  0.0375  0.8475  0.5793
  791MOL0     H 9126   0.122   0.197   6.002  1.2199 -1.1532  0.5526
  791MOL0     H 9127   0.050   0.325   6.096 -0.9359 -0.0499 -0.6622
  791MOL0     H 9128  -0.090   0.126   6.211  1.0898 -1.3783  0.6394
  791MOL0     H 9129  -0.041   0.048   6.062 -0.0109 -0.9257  1.9736
  791MOL0     H 9130  -0.223   0.276   6.101  0.9161  1.7653 -1.1378
  791MOL0     H 9131  -0.126   0.285   5.959 -0.5695  1.7345 -0.1627
  791MOL0     H 9132  -0.196   0.073   5.881 -2.5455 -2.2439 -1.8568
  791MOL0     H 9133  -0.323   0.195   5.892  1.4414  1.1922  0.5596
  791MOL0     H 9134  -0.389   0.114   6.111  0.8266  0.0646  0.5198
  791MOL0     H 9135  -0.297  -0.035   6.092 -0.9800 -1.3890 -0.8630
  791MOL0     H 9136  -0.418  -0.122   5.910 -0.6366  0.1471 -2.2610
  791MOL0     H 9137  -0.477   0.036   5.871  1.2947  1.5438  1.8006
  791MOL0     H 9138   0.525   0.375   6.300  1.4311 -2.1429  2.2299
  791MOL0     H 9139   0.756   0.439   6.275 -0.5237  2.5543 -0.9937
  791MOL0     H 9140   0.923   0.836   6.153  0.8531  0.4755  3.7383
  791MOL0     H 9141   1.129   0.983   6.155  2.1111 -0.1596 -0.5522
  791MOL0     H 9142   0.649   2.037   5.679  0.7852  0.9699  0.4533
  791MOL0     H 9143   0.422   2.006   5.623  0.7721 -0.9024  0.7901
  791MOL0     H 9144   0.088   1.966   5.428 -0.2804  0.9239 -1.6127
  791MOL0     H 9145  -0.162   1.934   5.473 -1.7110  1.0798 -0.3745
  791MOL0     H 9146  -0.413   2.300   5.539  1.1481  1.1897 -1.5842
  791MOL0     H 9147  -0.414   2.250   5.376 -1.1265  3.4379  0.8332
  791MOL0     H 9148  -0.548   2.086   5.606 -1.6974  2.7223  0.8497
  791MOL0     H 9149  -0.563   2.053   5.430 -0.4403  0.8811 -1.1221
  791MOL0     H 9150  -0.716   2.276   5.584 -0.7304  0.7695 -0.4436
  791MOL0     H 9151  -0.638   2.317   5.434  0.6758 -2.0831 -2.6739
  791MOL0     H 9152  -0.887   2.234   5.437  0.9124  0.8683 -0.8331
  791MOL0     H 9153  -0.832   2.071   5.470  2.5668 -0.4806  3.2974
  791MOL0     H 9154  -0.704   2.175   5.062 -0.0833 -3.1133 -0.1146
  791MOL0     H 9155  -0.214   2.355   5.467 -0.7037 -0.0406 -2.5010
  791MOL0     H 9156   0.134   2.423   5.371 -0.8371 -0.1858 -1.5371
  791MOL0     H 9157  -0.031   2.496   5.397  2.7753  1.3637 -1.2960
  791MOL0     H 9158   0.079   2.471   5.533  2.0139  2.6065 -1.0934
  792MOL0     O 9159   6.422   8.191   0.881 -0.0481 -0.1950 -0.1817
  792MOL0     C 9160   6.499   8.274   0.835 -0.2195  0.0919  0.4877
  792MOL0     O 9161   6.612   8.322   0.897 -0.1183  0.1932 -0.5841
  792MOL0     C 9162   6.612   8.293   1.030 -0.6024 -0.3917 -1.1005
  792MOL0     C 9163   6.547   8.385   1.115 -0.4050  0.2722  0.5668
  792MOL0     C 9164   6.542   8.350   1.258  0.0319 -0.0095  0.8975
  792MOL0     C 9165   6.584   8.226   1.308 -0.4254 -0.0790  0.3714
  792MOL0     O 9166   6.549   8.196   1.435  1.2464 -0.4157  0.0343
  792MOL0     C 9167   6.605   8.087   1.506 -0.6588  0.5510 -0.4566
  792MOL0     C 9168   6.542   8.077   1.649 -0.0451 -0.0586 -0.7421
  792MOL0     C 9169   6.406   8.014   1.648  0.7648  0.6880 -0.2361
  792MOL0     C 9170   6.397   7.885   1.729 -0.1247 -0.3272  0.1578
  792MOL0     C 9171   6.249   7.846   1.746 -0.3087 -0.4827 -0.3940
  792MOL0     C 9172   6.219   7.696   1.785  1.0708 -0.1019 -0.5231
  792MOL0     C 9173   6.069   7.673   1.816 -0.6912 -0.2636  0.3882
  792MOL0     C 9174   6.056   7.534   1.878 -0.3691  1.3322  0.3986
  792MOL0     N 9175   6.088   7.425   1.784 -0.2733 -1.0192  0.6981
  792MOL0     C 9176   5.995   7.379   1.684  1.1950  0.3345  0.0188
  792MOL0     C 9177   6.063   7.279   1.616 -0.2111 -0.8722  0.9763
  792MOL0     C 9178   6.003   7.197   1.504  0.1036 -0.2241  0.1079
  792MOL0     C 9179   5.973   7.285   1.385  0.4178  0.1913 -0.0010
  792MOL0     C 9180   6.096   7.323   1.303  0.4967 -0.2019 -0.0295
  792MOL0     C 9181   6.218   7.387   1.385  0.6833  0.3477  0.1684
  792MOL0     O 9182   6.300   7.448   1.284 -0.2679 -0.4348 -0.6813
  792MOL0     C 9183   6.397   7.539   1.326 -0.4822 -0.3784 -0.9978
  792MOL0     C 9184   6.469   7.600   1.219 -0.6805 -0.6708 -0.3017
  792MOL0     C 9185   6.592   7.670   1.237 -0.3890  0.1451 -0.0966
  792MOL0     C 9186   6.655   7.714   1.104  0.0558  0.2611 -0.5024
  792MOL0     C 9187   6.633   7.697   1.367 -0.1358  0.0877  0.5564
  792MOL0     C 9188   6.760   7.771   1.395  0.7886 -0.8189  0.1570
  792MOL0     O 9189   6.780   7.810   1.532 -0.3212  0.1176  0.2844
  792MOL0     C 9190   6.899   7.862   1.585  0.2051 -0.5524  0.1395
  792MOL0     C 9191   6.998   7.928   1.510 -0.5267 -0.4733  0.2320
  792MOL0     C 9192   7.115   7.974   1.568  0.1318  0.2529  0.5056
  792MOL0     C 9193   7.139   7.951   1.702  0.4582  0.7343 -0.0855
  792MOL0     O 9194   7.263   7.974   1.743  0.3535 -0.6367  0.3760
  792MOL0     C 9195   7.312   8.110   1.728 -0.8415  0.2960  0.7240
  792MOL0     C 9196   7.461   8.098   1.691 -0.1772 -0.1766 -0.0953
  792MOL0     C 9197   7.526   8.240   1.684  0.1144  0.4696 -0.4448
  792MOL0     C 9198   7.659   8.238   1.611  0.4867 -0.0659  0.4551
  792MOL0     C 9199   7.716   8.380   1.606 -0.1403  0.0392 -0.7702
  792MOL0     C 9200   7.867   8.376   1.553 -0.0072  0.4291 -0.6210
  792MOL0     C 9201   7.919   8.519   1.532 -0.0211  0.0996 -0.6394
  792MOL0     C 9202   8.074   8.521   1.499 -0.1783  0.3564 -0.1949
  792MOL0    Cl 9203   8.085   8.459   1.319  0.2470 -0.2300 -0.1386
  792MOL0     C 9204   7.038   7.897   1.787 -0.4312 -0.5466 -0.5607
  792MOL0     C 9205   6.917   7.843   1.726 -0.7024 -1.2760 -0.0788
  792MOL0     O 9206   6.839   7.796   1.300  0.3211 -0.1207  0.8810
  792MOL0     C 9207   6.551   7.644   1.472 -0.4092 -0.6205  0.1484
  792MOL0     C 9208   6.442   7.563   1.452 -0.7480  0.1810  0.3989
  792MOL0     N 9209   6.192   7.259   1.682  0.1051  0.2942 -0.3562
  792MOL0     N 9210   6.197   7.339   1.784 -0.0245  0.2423 -0.4609
  792MOL0     C 9211   6.641   8.133   1.214 -1.0186 -0.8791  0.0676
  792MOL0     C 9212   6.657   8.165   1.076  1.1887 -0.4732 -0.3412
  792MOL0     C 9213   6.456   8.336   0.703 -0.0884 -1.1621  0.6210
  792MOL0     C 9214   6.521   8.461   0.662 -0.6633  0.8929 -0.5161
  792MOL0     C 9215   6.491   8.522   0.543  0.3061  0.0597  0.2327
  792MOL0     C 9216   6.405   8.477   0.445  0.3329  1.3515 -0.4695
  792MOL0     O 9217   6.379   8.558   0.342  0.5318  0.2184 -0.3387
  792MOL0     C 9218   6.273   8.520   0.243 -0.0055  0.0352 -0.7580
  792MOL0     C 9219   6.205   8.647   0.193 -0.9795  0.6841  0.1019
  792MOL0     C 9220   6.290   8.740   0.118  0.3224  0.8740  0.3978
  792MOL0     C 9221   6.211   8.867   0.094  0.6896  0.1806  0.2167
  792MOL0     C 9222   6.301   8.958   0.017  0.2141 -0.3950 -0.3979
  792MOL0     C 9223   6.375   9.038  -0.038 -0.7527  0.3113 -0.0203
  792MOL0     C 9224   6.328   8.364   0.486 -0.9667 -0.3094  0.5911
  792MOL0     C 9225   6.364   8.293   0.604 -0.4838 -0.5105  0.3352
  792MOL0     C 9226   6.296   8.165   0.621 -0.2530 -0.4247 -0.7004
  792MOL0     H 9227   6.520   8.481   1.072 -0.6352 -0.2756 -0.5274
  792MOL0     H 9228   6.499   8.417   1.332  0.0552  0.1742  0.7469
  792MOL0     H 9229   6.713   8.096   1.514 -0.5175  0.9061 -2.4232
  792MOL0     H 9230   6.575   7.998   1.450 -2.3824  1.4213 -1.0137
  792MOL0     H 9231   6.605   8.013   1.711  0.0529 -0.6366 -1.4273
  792MOL0     H 9232   6.552   8.172   1.704  0.5039  0.4429 -1.6805
  792MOL0     H 9233   6.328   8.086   1.673 -2.4716 -2.5144 -0.3150
  792MOL0     H 9234   6.394   7.982   1.544  1.2411 -0.4229  0.0316
  792MOL0     H 9235   6.465   7.820   1.674  0.3575 -1.2983  1.8462
  792MOL0     H 9236   6.443   7.900   1.827 -0.4271  0.3181  0.2064
  792MOL0     H 9237   6.206   7.865   1.647 -1.3151  1.4256  0.3528
  792MOL0     H 9238   6.195   7.916   1.811  3.0195  3.4707 -1.4764
  792MOL0     H 9239   6.260   7.628   1.710  2.6935 -1.4302  1.4722
  792MOL0     H 9240   6.280   7.684   1.875 -0.3959 -0.2074  0.4762
  792MOL0     H 9241   6.008   7.675   1.725  0.7426  1.6689 -0.5804
  792MOL0     H 9242   6.028   7.750   1.882 -0.4382  2.4558 -2.3799
  792MOL0     H 9243   6.123   7.525   1.963  0.6177 -1.6897 -0.5504
  792MOL0     H 9244   5.954   7.512   1.912 -0.0978  0.3843  0.6262
  792MOL0     H 9245   5.894   7.416   1.676  1.7230  2.4652  1.8716
  792MOL0     H 9246   5.922   7.142   1.554  0.4545 -2.3232 -1.5018
  792MOL0     H 9247   6.075   7.121   1.473  1.4277  0.1376  2.1120
  792MOL0     H 9248   5.901   7.233   1.321 -1.0701 -0.8616  2.3926
  792MOL0     H 9249   5.923   7.374   1.425 -0.2940 -0.2441  0.0874
  792MOL0     H 9250   6.129   7.236   1.245  3.1319  0.2997  0.5510
  792MOL0     H 9251   6.068   7.403   1.235  2.4373  0.6547  0.0905
  792MOL0     H 9252   6.190   7.468   1.453 -0.3356 -0.9248  1.3225
  792MOL0     H 9253   6.268   7.305   1.436 -0.4564 -0.7764 -0.4386
  792MOL0     H 9254   6.431   7.588   1.118  1.9498  0.8984 -1.6064
  792MOL0     H 9255   6.751   7.664   1.089  0.7330  1.2921  0.2538
  792MOL0     H 9256   6.677   7.821   1.112 -2.5913  0.8104  0.6588
  792MOL0     H 9257   6.592   7.697   1.016 -0.4446 -0.5835  0.0022
  792MOL0     H 9258   6.990   7.939   1.402 -2.4613  2.0045  0.5191
  792MOL0     H 9259   7.192   8.024   1.509 -0.1642 -0.3144 -0.3876
  792MOL0     H 9260   7.259   8.162   1.647 -1.8252 -0.8228  0.6237
  792MOL0     H 9261   7.310   8.169   1.820  2.5280 -1.1221  1.8632
  792MOL0     H 9262   7.511   8.036   1.766 -1.6771  1.3153  2.2715
  792MOL0     H 9263   7.468   8.060   1.588 -1.2087 -1.5382  0.3140
  792MOL0     H 9264   7.536   8.285   1.783  0.9246  1.7281 -1.0607
  792MOL0     H 9265   7.461   8.303   1.623 -0.4050  1.6771  1.2781
  792MOL0     H 9266   7.654   8.205   1.507  2.9124 -0.7420  0.5036
  792MOL0     H 9267   7.729   8.174   1.665  1.2251  0.2506 -0.1228
  792MOL0     H 9268   7.662   8.448   1.540 -0.6354 -0.6792 -1.1211
  792MOL0     H 9269   7.723   8.417   1.709  0.4534  2.9300 -1.7573
  792MOL0     H 9270   7.866   8.323   1.457 -0.3422 -2.1777  0.7341
  792MOL0     H 9271   7.930   8.319   1.622  1.2109 -1.2862 -3.0024
  792MOL0     H 9272   7.903   8.570   1.627  2.5236  0.2192 -0.1945
  792MOL0     H 9273   7.854   8.561   1.455  2.0000  1.5353 -1.6517
  792MOL0     H 9274   8.110   8.450   1.574  0.1809  0.6860 -0.0527
  792MOL0     H 9275   8.133   8.613   1.502  1.6121 -0.7329 -0.6313
  792MOL0     H 9276   7.060   7.895   1.893  0.9143 -0.4714 -0.8133
  792MOL0     H 9277   6.838   7.810   1.794  0.2370 -1.6502  0.8637
  792MOL0     H 9278   6.586   7.652   1.574  0.9457 -0.5303 -0.3030
  792MOL0     H 9279   6.384   7.514   1.529 -2.7988 -0.9457 -1.7148
  792MOL0     H 9280   6.687   8.041   1.249  1.4462 -0.6562 -2.2442
  792MOL0     H 9281   6.709   8.099   1.007  3.1828  0.2922  0.3405
  792MOL0     H 9282   6.594   8.505   0.729  0.6447 -2.0412  0.1808
  792MOL0     H 9283   6.533   8.619   0.518 -0.2667  0.0057 -1.0215
  792MOL0     H 9284   6.318   8.470   0.157 -0.0944  1.7450 -1.8649
  792MOL0     H 9285   6.200   8.455   0.292  0.3953 -0.7090 -1.1291
  792MOL0     H 9286   6.149   8.699   0.271  1.4942 -0.3935  2.7851
  792MOL0     H 9287   6.124   8.613   0.128 -0.1695  0.3815 -0.7762
  792MOL0     H 9288   6.379   8.754   0.179  0.7975  1.8687 -0.4875
  792MOL0     H 9289   6.327   8.695   0.026  1.0132 -1.6985  1.8409
  792MOL0     H 9290   6.186   8.919   0.187 -0.3223 -0.8601  0.5518
  792MOL0     H 9291   6.117   8.851   0.041  0.0562  2.2484  0.5971
  792MOL0     H 9292   6.453   9.094  -0.086  0.1290 -1.9262 -1.3639
  792MOL0     H 9293   6.255   8.314   0.422  0.8211 -2.1911 -0.0877
  792MOL0     H 9294   6.358   8.079   0.594 -1.2931 -0.9835 -1.3456
  792MOL0     H 9295   6.255   8.159   0.722  0.6411  1.8993 -0.1379
  792MOL0     H 9296   6.215   8.165   0.548  1.2591  1.6137 -2.5309
  793MOL0     O 9297   8.352  10.646  11.119  0.1235  0.1333  0.4677
  793MOL0     C 9298   8.313  10.605  11.228  0.2327 -0.0866  0.3666
  793MOL0     O 9299   8.399  10.568  11.326  0.6885 -0.0890  0.2970
  793MOL0     C 9300   8.537  10.563  11.301  0.4028 -0.4153 -0.0979
  793MOL0     C 9301   8.609  10.455  11.242  0.0915  0.7261 -0.3135
  793MOL0     C 9302   8.740  10.471  11.196  0.6332  0.4912 -0.1892
  793MOL0     C 9303   8.820  10.585  11.224  0.2777 -0.0407  0.0987
  793MOL0     O 9304   8.946  10.610  11.171  0.3629  0.3661 -0.7879
  793MOL0     C 9305   9.026  10.505  11.119  0.8848  0.0992 -0.2046
  793MOL0     C 9306   9.180  10.533  11.141 -0.5102  0.4426  0.6931
  793MOL0     C 9307   9.230  10.642  11.050  0.4516  0.0755 -0.4943
  793MOL0     C 9308   9.273  10.763  11.134  1.2334 -0.5451  0.6885
  793MOL0     C 9309   9.321  10.862  11.024  0.9377 -0.5584  0.1390
  793MOL0     C 9310   9.370  10.998  11.080 -0.2137  0.0555 -0.5782
  793MOL0     C 9311   9.378  11.089  10.957 -0.2758  0.2140 -0.5409
  793MOL0     C 9312   9.416  11.227  10.997 -0.4627 -0.5642  0.6014
  793MOL0     N 9313   9.564  11.242  11.007 -0.7264 -0.0177 -0.2304
  793MOL0     C 9314   9.655  11.241  10.906 -0.5713 -0.4426  0.1560
  793MOL0     C 9315   9.780  11.263  10.968  0.0664  0.7476 -0.0977
  793MOL0     C 9316   9.920  11.258  10.906 -0.7389  0.0255 -0.6105
  793MOL0     C 9317  10.009  11.366  10.964 -0.2979 -0.6732 -0.3667
  793MOL0     C 9318  10.131  11.372  10.869 -0.2814 -0.1776  0.0044
  793MOL0     C 9319  10.230  11.471  10.917 -0.4661  0.1860 -0.1331
  793MOL0     O 9320  10.354  11.474  10.845  0.1045 -0.2450  0.6247
  793MOL0     C 9321  10.471  11.487  10.920  0.7594  0.9784  0.6618
  793MOL0     C 9322  10.486  11.566  11.034  0.5496 -0.3828 -0.5578
  793MOL0     C 9323  10.610  11.562  11.107 -0.0923  0.0909  0.0511
  793MOL0     C 9324  10.627  11.642  11.233 -0.4943  0.0898  0.0538
  793MOL0     C 9325  10.714  11.485  11.055 -0.9818  0.6776  0.0843
  793MOL0     C 9326  10.853  11.472  11.122  0.0257 -0.5785  1.0874
  793MOL0     O 9327  10.866  11.456  11.252  0.1459 -0.3749 -0.6721
  793MOL0     C 9328  10.995  11.442  11.303 -0.2723  0.1317  1.1261
  793MOL0     C 9329  11.042  11.534  11.399 -0.6979 -0.3791 -0.2883
  793MOL0     C 9330  11.169  11.527  11.458  0.1930  0.9242  0.0382
  793MOL0     C 9331  11.244  11.416  11.446 -0.4879  0.7911  0.1156
  793MOL0     O 9332  11.370  11.389  11.490 -0.3108  0.5504  0.6231
  793MOL0     C 9333  11.446  11.497  11.535  0.3253 -0.7250 -0.4912
  793MOL0     C 9334  11.593  11.451  11.577  0.7123 -0.5554  0.8024
  793MOL0     C 9335  11.681  11.573  11.605 -0.0185  1.2970  0.5919
  793MOL0     C 9336  11.816  11.520  11.650 -0.1980 -0.4794  0.1211
  793MOL0     C 9337  11.933  11.620  11.651  0.4403 -0.0953  0.3705
  793MOL0     C 9338  12.072  11.556  11.688 -0.5082 -0.1914  0.5317
  793MOL0     C 9339  12.080  11.492  11.828  0.2163  0.3722  0.3592
  793MOL0     C 9340  12.022  11.581  11.935 -0.6085  0.1189  0.3644
  793MOL0    Cl 9341  12.091  11.746  11.947 -0.0290 -0.0365 -0.0088
  793MOL0     C 9342  11.199  11.322  11.354 -0.3980 -0.0365  0.3771
  793MOL0     C 9343  11.078  11.332  11.287  0.1867 -0.3659  0.0925
  793MOL0     O 9344  10.951  11.480  11.043  0.1458 -0.4508 -0.3505
  793MOL0     C 9345  10.699  11.405  10.938  0.5155 -0.9568 -0.0367
  793MOL0     C 9346  10.573  11.404  10.876  0.8317 -0.8217 -0.0952
  793MOL0     N 9347   9.750  11.260  11.103 -0.0813  0.4175  1.0558
  793MOL0     N 9348   9.627  11.249  11.122  0.5965 -0.6865 -0.9363
  793MOL0     C 9349   8.757  10.684  11.291 -0.0479 -0.5894 -1.2666
  793MOL0     C 9350   8.620  10.674  11.322  0.3793  0.4115  0.7848
  793MOL0     C 9351   8.175  10.634  11.269 -0.1547  0.1568 -0.5544
  793MOL0     C 9352   8.142  10.624  11.404  0.5262  0.0132 -0.7492
  793MOL0     C 9353   8.015  10.649  11.458  1.2053 -1.1248 -0.0868
  793MOL0     C 9354   7.914  10.697  11.382 -0.6143  0.0749 -0.1054
  793MOL0     O 9355   7.803  10.738  11.447  1.1002  0.1159  0.2457
  793MOL0     C 9356   7.690  10.794  11.371  0.7410 -1.1832 -0.5826
  793MOL0     C 9357   7.609  10.687  11.297 -0.4425  1.2108  0.3180
  793MOL0     C 9358   7.564  10.584  11.403 -0.2843  0.4818  0.7534
  793MOL0     C 9359   7.457  10.484  11.347  0.2419 -0.3700 -0.3624
  793MOL0     C 9360   7.501  10.405  11.233 -0.6073  0.2200 -0.0643
  793MOL0     C 9361   7.531  10.349  11.129 -0.0569 -0.0939 -0.3382
  793MOL0     C 9362   7.942  10.704  11.241 -0.1327  0.5138 -0.5721
  793MOL0     C 9363   8.068  10.669  11.186  0.0254 -0.4228 -0.4692
  793MOL0     C 9364   8.068  10.659  11.041 -0.2947 -0.0502  0.4219
  793MOL0     H 9365   8.555  10.365  11.213 -0.8100  0.5537  1.6908
  793MOL0     H 9366   8.789  10.392  11.140 -0.4781  0.4602 -1.1457
  793MOL0     H 9367   9.001  10.496  11.013 -1.2489  2.0531  0.0477
  793MOL0     H 9368   9.000  10.414  11.173 -2.5224  1.0773  0.0426
  793MOL0     H 9369   9.199  10.556  11.246 -2.1825 -1.4200  1.4843
  793MOL0     H 9370   9.238  10.444  11.113 -0.9315 -0.2777  2.0068
  793MOL0     H 9371   9.316  10.606  10.992 -0.5631  1.0405 -2.7066
  793MOL0     H 9372   9.156  10.672  10.976 -0.2756  1.7936  0.8480
  793MOL0     H 9373   9.187  10.796  11.192  1.4698 -2.1734  2.0481
  793MOL0     H 9374   9.356  10.744  11.203  1.3277  0.1991  0.7896
  793MOL0     H 9375   9.237  10.881  10.956  1.5684 -1.5159 -0.9274
  793MOL0     H 9376   9.405  10.824  10.966 -0.7459 -2.8269 -0.9552
  793MOL0     H 9377   9.289  11.028  11.147 -2.3483 -0.9392 -2.5534
  793MOL0     H 9378   9.457  10.989  11.145 -0.8281 -2.5940  0.0147
  793MOL0     H 9379   9.285  11.093  10.900 -1.4895  1.6048  1.3775
  793MOL0     H 9380   9.456  11.057  10.889  0.3741 -1.4248  0.9025
  793MOL0     H 9381   9.388  11.290  10.912 -2.7669 -2.0738  0.1233
  793MOL0     H 9382   9.363  11.268  11.084 -0.0240  0.3643  0.4342
  793MOL0     H 9383   9.626  11.223  10.803 -3.9452 -1.0901  1.1230
  793MOL0     H 9384   9.910  11.256  10.797 -3.9539  1.0327 -0.4318
  793MOL0     H 9385   9.964  11.167  10.948  0.8704  0.9812 -0.1103
  793MOL0     H 9386   9.948  11.456  10.953  0.3038 -0.2921 -0.5965
  793MOL0     H 9387  10.042  11.366  11.068  0.5321  1.5070 -0.5912
  793MOL0     H 9388  10.174  11.272  10.870  0.7489  0.2602  0.0763
  793MOL0     H 9389  10.103  11.399  10.767 -0.3581  4.1056  0.9584
  793MOL0     H 9390  10.192  11.574  10.914 -0.4484  0.1941 -0.0807
  793MOL0     H 9391  10.245  11.444  11.022  2.0857  2.2719  0.1331
  793MOL0     H 9392  10.400  11.623  11.068  0.6566  0.0918 -1.0709
  793MOL0     H 9393  10.657  11.578  11.317  2.6373 -1.6332 -2.1733
  793MOL0     H 9394  10.537  11.696  11.263 -0.6027  0.4364 -0.8673
  793MOL0     H 9395  10.703  11.720  11.222  1.0296 -1.1538  1.2265
  793MOL0     H 9396  10.978  11.621  11.411  1.8258  1.6264 -0.5875
  793MOL0     H 9397  11.196  11.597  11.536  3.6266  0.0361 -0.1963
  793MOL0     H 9398  11.455  11.578  11.462  2.2112  0.7410  1.2538
  793MOL0     H 9399  11.401  11.552  11.618  0.1052 -0.8451 -0.5304
  793MOL0     H 9400  11.599  11.388  11.666  0.0104 -1.3646  0.2914
  793MOL0     H 9401  11.640  11.387  11.502  0.6362  1.0816 -0.7001
  793MOL0     H 9402  11.646  11.625  11.695 -0.2958  2.1333  0.0263
  793MOL0     H 9403  11.679  11.640  11.518  0.3809  1.3446  0.6205
  793MOL0     H 9404  11.838  11.428  11.596  1.0519 -0.1248 -0.0065
  793MOL0     H 9405  11.800  11.502  11.757 -1.5913 -1.5018 -0.2326
  793MOL0     H 9406  11.958  11.659  11.552  1.6411  2.1331  1.4686
  793MOL0     H 9407  11.914  11.711  11.709  1.5938  0.5975 -0.2973
  793MOL0     H 9408  12.160  11.620  11.695 -0.6949 -0.0166  1.4988
  793MOL0     H 9409  12.095  11.477  11.617  0.3295  1.0226 -0.5859
  793MOL0     H 9410  12.180  11.457  11.853 -0.1967 -1.8691 -0.8852
  793MOL0     H 9411  12.020  11.402  11.814 -1.0246  1.2687 -0.3275
  793MOL0     H 9412  12.035  11.530  12.031 -1.1712 -1.5332 -0.3978
  793MOL0     H 9413  11.914  11.590  11.918 -0.4824 -0.3430 -0.7709
  793MOL0     H 9414  11.264  11.244  11.316 -1.1726 -0.4444 -0.1358
  793MOL0     H 9415  11.066  11.250  11.218  1.2514 -2.2418  2.0149
  793MOL0     H 9416  10.785  11.349  10.902  1.2397 -0.0712  0.2972
  793MOL0     H 9417  10.567  11.327  10.800  1.8008  1.4813 -2.6856
  793MOL0     H 9418   8.813  10.774  11.312 -1.6664  0.8492 -2.7564
  793MOL0     H 9419   8.586  10.753  11.388 -1.4034 -0.4169  0.9257
  793MOL0     H 9420   8.219  10.583  11.469 -0.0374 -1.5864 -1.0553
  793MOL0     H 9421   7.999  10.646  11.565 -0.8727 -1.6892 -0.3694
  793MOL0     H 9422   7.622  10.845  11.441 -0.8041 -1.2056 -2.0059
  793MOL0     H 9423   7.722  10.879  11.310  0.3764  0.4079  1.3489
  793MOL0     H 9424   7.668  10.643  11.216  2.2473  0.7764  2.3613
  793MOL0     H 9425   7.515  10.720  11.251 -0.8143 -3.5075 -3.0030
  793MOL0     H 9426   7.647  10.523  11.439  0.0873  0.3361 -0.3176
  793MOL0     H 9427   7.525  10.641  11.488  1.0618  1.1557  0.9454
  793MOL0     H 9428   7.369  10.541  11.314  0.3755 -0.4140 -0.7929
  793MOL0     H 9429   7.434  10.417  11.431 -0.6871  1.0286  0.5524
  793MOL0     H 9430   7.563  10.314  11.033 -1.7001 -0.8752 -0.6405
  793MOL0     H 9431   7.856  10.733  11.180 -0.2977 -0.0478 -0.6094
  793MOL0     H 9432   7.974  10.613  11.009  0.6200 -0.6321 -1.5908
  793MOL0     H 9433   8.087  10.757  10.995 -0.4939  0.5864  1.6593
  793MOL0     H 9434   8.147  10.591  11.009  1.2964  1.7270  0.4057
  794MOL0     O 9435   5.567   2.495   8.706 -0.5995 -0.1459  0.5886
  794MOL0     C 9436   5.509   2.473   8.597  0.4447  0.4677  0.3490
  794MOL0     O 9437   5.574   2.446   8.482 -0.3976 -0.2220  0.1707
  794MOL0     C 9438   5.710   2.430   8.483  0.4085 -0.0588 -0.1019
  794MOL0     C 9439   5.781   2.480   8.376  0.1891  0.0125  0.4079
  794MOL0     C 9440   5.912   2.443   8.354 -0.5194 -0.6194 -0.3354
  794MOL0     C 9441   5.967   2.344   8.433 -0.5124  0.5796  0.0159
  794MOL0     O 9442   6.100   2.300   8.416 -0.0449  0.8888 -0.4403
  794MOL0     C 9443   6.102   2.157   8.407 -0.3038  1.0014 -0.2537
  794MOL0     C 9444   6.220   2.116   8.328 -0.1931  0.1629  0.2426
  794MOL0     C 9445   6.351   2.100   8.407 -0.0964  0.5956 -0.1047
  794MOL0     C 9446   6.465   2.043   8.322 -0.4852 -0.8771  0.0554
  794MOL0     C 9447   6.591   2.029   8.407  0.4131  0.2134 -0.7389
  794MOL0     C 9448   6.699   1.951   8.328  0.0705 -0.0733  0.1249
  794MOL0     C 9449   6.833   1.970   8.400 -0.6800  0.4725  0.9187
  794MOL0     C 9450   6.947   1.911   8.309 -0.8106  0.7347 -0.5243
  794MOL0     N 9451   6.971   1.988   8.189 -0.4565  0.4009  0.5912
  794MOL0     C 9452   7.035   2.109   8.185  0.1122  0.8630 -0.1289
  794MOL0     C 9453   7.032   2.142   8.054 -0.1266 -0.4735  0.0132
  794MOL0     C 9454   7.093   2.276   8.000  0.2274  0.1261  1.1038
  794MOL0     C 9455   7.243   2.293   8.024  0.3013 -0.1409  0.7977
  794MOL0     C 9456   7.291   2.432   8.009  0.5387 -0.5281 -0.6314
  794MOL0     C 9457   7.447   2.434   8.028 -0.2523 -0.5707 -0.1627
  794MOL0     O 9458   7.500   2.569   8.011  0.3212  0.4969 -0.2948
  794MOL0     C 9459   7.619   2.571   7.945 -0.2034  0.4221 -0.6079
  794MOL0     C 9460   7.714   2.469   7.968 -0.1104 -0.4058  0.5528
  794MOL0     C 9461   7.845   2.472   7.906 -0.9709 -0.5761 -0.3340
  794MOL0     C 9462   7.938   2.367   7.948  0.0845 -0.7960 -1.1354
  794MOL0     C 9463   7.872   2.577   7.810 -0.7916 -0.4081 -0.2851
  794MOL0     C 9464   7.994   2.587   7.723 -0.1767 -0.0211 -0.8574
  794MOL0     O 9465   8.098   2.503   7.756 -0.0697  0.3089 -0.3292
  794MOL0     C 9466   8.212   2.473   7.678 -0.6784 -0.4809 -0.7724
  794MOL0     C 9467   8.220   2.480   7.540  0.1261  0.2572  0.5442
  794MOL0     C 9468   8.334   2.443   7.459 -0.1071  0.2178 -0.9129
  794MOL0     C 9469   8.442   2.386   7.530 -0.7034 -0.9243 -0.2508
  794MOL0     O 9470   8.560   2.337   7.478 -0.0802 -0.0105  0.4800
  794MOL0     C 9471   8.595   2.404   7.355 -0.0950  0.1127 -0.0734
  794MOL0     C 9472   8.734   2.362   7.314  0.1117 -0.8355  0.2906
  794MOL0     C 9473   8.771   2.211   7.313  0.6951 -0.4915 -0.3844
  794MOL0     C 9474   8.924   2.185   7.327  0.2341  0.0759 -0.3859
  794MOL0     C 9475   8.955   2.037   7.308  0.4003 -0.0356 -0.4534
  794MOL0     C 9476   9.092   2.000   7.335 -0.0807  0.0690 -0.1615
  794MOL0     C 9477   9.106   1.848   7.353  0.0590  0.6751 -0.4613
  794MOL0     C 9478   9.251   1.790   7.338  0.5677 -0.2978 -0.3769
  794MOL0    Cl 9479   9.275   1.773   7.165  0.2395  0.1917  0.0786
  794MOL0     C 9480   8.436   2.379   7.671  0.1948 -0.3874  0.4605
  794MOL0     C 9481   8.327   2.430   7.744 -0.1591  1.2840  0.4117
  794MOL0     O 9482   7.979   2.647   7.617  0.0448 -0.0304  0.1427
  794MOL0     C 9483   7.775   2.678   7.797  0.1122 -0.1761  0.8784
  794MOL0     C 9484   7.653   2.677   7.869 -0.3828  0.0939 -0.1986
  794MOL0     N 9485   6.958   2.045   7.985  0.2876 -0.3884  0.4065
  794MOL0     N 9486   6.923   1.954   8.066  0.2507 -1.1206 -0.4028
  794MOL0     C 9487   5.881   2.281   8.533 -0.3404  0.9560 -0.0081
  794MOL0     C 9488   5.759   2.329   8.564 -0.9109  0.3223  0.5543
  794MOL0     C 9489   5.359   2.472   8.594 -0.3902  0.1529  0.2085
  794MOL0     C 9490   5.293   2.468   8.464 -0.0505  0.5001 -0.1815
  794MOL0     C 9491   5.156   2.453   8.453 -0.0773 -0.9952 -0.6537
  794MOL0     C 9492   5.068   2.463   8.558  0.7365  0.3168 -1.0502
  794MOL0     O 9493   4.936   2.461   8.532  1.3787 -0.1214  0.6200
  794MOL0     C 9494   4.843   2.490   8.637 -0.9171  0.0429  0.4624
  794MOL0     C 9495   4.785   2.358   8.689 -0.0602 -0.4973 -0.3992
  794MOL0     C 9496   4.650   2.369   8.762  0.3548  0.3860 -0.2316
  794MOL0     C 9497   4.596   2.233   8.812  0.4399  0.8604 -0.1541
  794MOL0     C 9498   4.479   2.267   8.895  0.2690  0.6593  0.5780
  794MOL0     C 9499   4.393   2.299   8.974  0.7699  0.1072  0.0268
  794MOL0     C 9500   5.128   2.467   8.684 -0.1900  0.5545 -0.1537
  794MOL0     C 9501   5.269   2.473   8.705 -0.1013  0.6786 -0.0097
  794MOL0     C 9502   5.318   2.482   8.845  0.7666  0.0990  0.6137
  794MOL0     H 9503   5.725   2.558   8.326  2.5038  3.6596  2.9881
  794MOL0     H 9504   5.970   2.485   8.272 -0.1747 -0.3633  0.0413
  794MOL0     H 9505   6.018   2.103   8.362 -1.1473  0.7013  1.5724
  794MOL0     H 9506   6.123   2.124   8.509  0.7189 -1.7156 -1.2771
  794MOL0     H 9507   6.213   2.012   8.293  2.2089  0.8171 -2.5347
  794MOL0     H 9508   6.240   2.179   8.241 -1.8215  1.4196  0.7202
  794MOL0     H 9509   6.382   2.196   8.449 -0.2040  0.6096 -0.0586
  794MOL0     H 9510   6.331   2.035   8.493 -1.0196  0.4949 -0.3870
  794MOL0     H 9511   6.432   1.948   8.278 -3.3462 -0.5189  1.2120
  794MOL0     H 9512   6.486   2.123   8.251  2.0659  0.1211  1.8028
  794MOL0     H 9513   6.567   1.976   8.500  0.3184 -2.3065 -2.0917
  794MOL0     H 9514   6.622   2.131   8.428  1.2530 -0.5040  2.0185
  794MOL0     H 9515   6.683   1.844   8.314  1.5043 -0.5042  1.4416
  794MOL0     H 9516   6.714   2.013   8.239  2.0536  1.2378  1.2847
  794MOL0     H 9517   6.819   1.914   8.492 -0.6609 -0.4123  0.3901
  794MOL0     H 9518   6.857   2.073   8.430 -1.1609  1.1401 -0.8692
  794MOL0     H 9519   7.032   1.897   8.375 -1.5516 -0.6564  0.1719
  794MOL0     H 9520   6.915   1.811   8.277 -0.5919  0.6396 -0.4486
  794MOL0     H 9521   7.084   2.157   8.269  1.0804 -0.9782  0.4313
  794MOL0     H 9522   7.055   2.358   8.061  0.3775 -0.0151  1.3877
  794MOL0     H 9523   7.076   2.290   7.892 -0.3339 -2.5023  0.7716
  794MOL0     H 9524   7.262   2.263   8.127 -4.1030  0.2604  1.9221
  794MOL0     H 9525   7.289   2.219   7.959  1.6260 -0.0906  1.6428
  794MOL0     H 9526   7.271   2.474   7.910  0.2530  0.7135 -0.0700
  794MOL0     H 9527   7.238   2.496   8.080 -3.4861 -2.3653 -1.6858
  794MOL0     H 9528   7.467   2.404   8.132 -1.8757  1.6646  0.8750
  794MOL0     H 9529   7.493   2.359   7.963 -1.0618 -2.9748  1.8718
  794MOL0     H 9530   7.698   2.400   8.050  0.9219  2.5756  3.4946
  794MOL0     H 9531   7.989   2.324   7.861  1.2268  2.1585 -2.0458
  794MOL0     H 9532   7.888   2.287   8.003  1.3494  0.5460  2.1956
  794MOL0     H 9533   8.014   2.417   8.008 -1.3431  1.1841 -0.8516
  794MOL0     H 9534   8.130   2.504   7.486 -0.9170 -2.0807  1.1107
  794MOL0     H 9535   8.324   2.435   7.351 -0.1849 -0.3435 -0.8667
  794MOL0     H 9536   8.524   2.377   7.276  1.3873 -3.1897 -0.4399
  794MOL0     H 9537   8.598   2.512   7.368 -3.2902  0.2097  0.7880
  794MOL0     H 9538   8.751   2.406   7.215  0.8286  1.9130  1.5177
  794MOL0     H 9539   8.799   2.423   7.379 -1.8876  2.7499 -0.7729
  794MOL0     H 9540   8.742   2.173   7.214  0.9461  0.5267 -0.8594
  794MOL0     H 9541   8.707   2.158   7.384 -1.2913 -1.8038 -2.9590
  794MOL0     H 9542   8.958   2.223   7.423 -1.9724  0.4548  0.3049
  794MOL0     H 9543   8.982   2.243   7.254  0.2441  2.6855  1.5461
  794MOL0     H 9544   8.889   1.975   7.370  2.1595 -1.0388  0.4873
  794MOL0     H 9545   8.940   2.014   7.202  0.4075  0.1951 -0.5033
  794MOL0     H 9546   9.137   2.064   7.412 -2.6630  0.6812  0.9183
  794MOL0     H 9547   9.155   2.010   7.246  0.0297 -3.2151 -0.6005
  794MOL0     H 9548   9.037   1.790   7.292 -1.4611  3.4509 -1.5737
  794MOL0     H 9549   9.089   1.827   7.460  1.0288  0.3957 -0.3569
  794MOL0     H 9550   9.275   1.689   7.373 -0.3367 -0.2844  0.3181
  794MOL0     H 9551   9.324   1.854   7.389  0.6577  0.0920 -0.9925
  794MOL0     H 9552   8.518   2.335   7.727  0.4505 -0.6530 -0.1152
  794MOL0     H 9553   8.331   2.425   7.852  0.5369  0.4176  0.3556
  794MOL0     H 9554   7.792   2.758   7.726 -3.0401 -2.1828 -2.5666
  794MOL0     H 9555   7.587   2.762   7.858 -0.0819  0.3124 -0.3270
  794MOL0     H 9556   5.916   2.189   8.579 -3.2993 -0.0187  0.4978
  794MOL0     H 9557   5.695   2.289   8.642  1.4553  1.2602  3.1264
  794MOL0     H 9558   5.355   2.479   8.375 -2.6288 -0.6637 -2.2651
  794MOL0     H 9559   5.111   2.445   8.355  1.2706  0.1356 -1.4084
  794MOL0     H 9560   4.888   2.554   8.713  1.7168 -2.5237  1.2799
  794MOL0     H 9561   4.759   2.528   8.579 -0.9824 -1.0832 -0.2227
  794MOL0     H 9562   4.861   2.316   8.756 -0.2187 -0.1001  0.0375
  794MOL0     H 9563   4.776   2.284   8.609 -1.2822 -2.0254  1.0803
  794MOL0     H 9564   4.650   2.436   8.849 -0.1415 -0.0334  0.1011
  794MOL0     H 9565   4.577   2.415   8.695  1.9944  0.7601 -1.8320
  794MOL0     H 9566   4.659   2.164   8.869  2.1466  2.2645 -0.2565
  794MOL0     H 9567   4.574   2.180   8.719  0.7776 -1.1274  0.8563
  794MOL0     H 9568   4.320   2.328   9.047  1.9478  0.6299  1.0301
  794MOL0     H 9569   5.063   2.461   8.771 -1.6708  1.5819 -1.1260
  794MOL0     H 9570   5.371   2.391   8.872  1.2651 -0.5670 -2.2094
  794MOL0     H 9571   5.383   2.571   8.843 -0.1822  0.8041 -0.2600
  794MOL0     H 9572   5.242   2.509   8.919  0.2397 -1.7914  0.8175
  795MOL0     O 9573   2.891   2.240   0.362 -0.1831  0.0277  0.4648
  795MOL0     C 9574   2.822   2.197   0.451  0.4878  0.3843  0.2806
  795MOL0     O 9575   2.861   2.129   0.559 -0.4568 -0.0256  0.4660
  795MOL0     C 9576   2.999   2.091   0.566 -0.3080 -0.4960 -0.3620
  795MOL0     C 9577   3.046   1.977   0.510  0.5075  0.5119  0.6269
  795MOL0     C 9578   3.189   1.958   0.509 -0.7218 -1.0069 -0.2355
  795MOL0     C 9579   3.278   2.049   0.571  0.0735 -1.0151  0.6850
  795MOL0     O 9580   3.412   2.021   0.566 -0.5480  0.2776  0.3048
  795MOL0     C 9581   3.474   2.035   0.696 -0.7426  0.0649  0.1836
  795MOL0     C 9582   3.612   1.966   0.698  0.4748 -0.0885 -0.2233
  795MOL0     C 9583   3.703   2.028   0.596  0.4465  0.0741 -0.0584
  795MOL0     C 9584   3.852   1.978   0.595 -0.4254  0.0664  0.5257
  795MOL0     C 9585   3.870   1.836   0.528 -0.5231 -0.0757  0.0969
  795MOL0     C 9586   4.018   1.797   0.560  0.2633  0.8928  0.5690
  795MOL0     C 9587   4.066   1.658   0.517 -0.4933 -0.5152 -0.2485
  795MOL0     C 9588   4.106   1.666   0.366  0.2203  0.2097 -0.3801
  795MOL0     N 9589   4.226   1.750   0.328  0.0938 -0.2583 -0.0705
  795MOL0     C 9590   4.358   1.713   0.321  0.1034  0.3267 -0.9934
  795MOL0     C 9591   4.416   1.820   0.261 -0.4311  0.5984 -0.2558
  795MOL0     C 9592   4.559   1.840   0.219 -0.7846 -0.0949  0.5029
  795MOL0     C 9593   4.646   1.777   0.325  0.8274  0.2760 -0.0873
  795MOL0     C 9594   4.699   1.646   0.270  0.2094  0.2154  0.4326
  795MOL0     C 9595   4.826   1.588   0.334  0.0453 -0.1169  0.2174
  795MOL0     O 9596   4.916   1.692   0.362  0.3278 -0.2656  0.4843
  795MOL0     C 9597   5.049   1.662   0.378 -0.2976  0.3298  0.0087
  795MOL0     C 9598   5.128   1.771   0.410  0.5503  0.7818  0.0074
  795MOL0     C 9599   5.269   1.767   0.407 -0.3524  1.5731  0.1392
  795MOL0     C 9600   5.344   1.895   0.389  0.0269  0.0584 -1.1796
  795MOL0     C 9601   5.335   1.638   0.406  0.1820 -0.0283  0.3985
  795MOL0     C 9602   5.479   1.619   0.440 -0.6343  0.1379 -0.4206
  795MOL0     O 9603   5.538   1.721   0.502 -0.7041 -0.0567  0.1706
  795MOL0     C 9604   5.679   1.728   0.515  0.4609  0.0709 -0.1050
  795MOL0     C 9605   5.725   1.778   0.634 -0.0419 -0.0409 -0.2367
  795MOL0     C 9606   5.870   1.775   0.661  0.1825  0.6790 -0.1405
  795MOL0     C 9607   5.953   1.743   0.559 -1.0653  1.0815  0.0852
  795MOL0     O 9608   6.092   1.752   0.571  0.2044 -0.0361  0.1654
  795MOL0     C 9609   6.164   1.627   0.545 -0.2092  0.7673 -0.3998
  795MOL0     C 9610   6.299   1.663   0.607  0.0466 -0.2382 -0.5056
  795MOL0     C 9611   6.398   1.551   0.566  0.3614 -0.2149 -0.7656
  795MOL0     C 9612   6.502   1.527   0.669  0.1172 -0.0684 -0.8375
  795MOL0     C 9613   6.600   1.418   0.637 -0.5054  0.3505 -0.5866
  795MOL0     C 9614   6.686   1.363   0.754 -0.0118  0.1927  0.1487
  795MOL0     C 9615   6.751   1.225   0.737 -0.1366 -0.7695 -0.4868
  795MOL0     C 9616   6.862   1.238   0.625  0.0884 -0.2555 -0.1124
  795MOL0    Cl 9617   7.015   1.307   0.680 -0.1682  0.3300  0.3887
  795MOL0     C 9618   5.899   1.688   0.442  0.3075 -0.4679  0.3702
  795MOL0     C 9619   5.772   1.685   0.411  0.5130  0.3410  0.3809
  795MOL0     O 9620   5.532   1.514   0.407  0.6594  0.0423  0.7028
  795MOL0     C 9621   5.255   1.528   0.382 -0.4800 -0.0315  0.5394
  795MOL0     C 9622   5.114   1.537   0.370 -0.7149 -0.5568  0.2525
  795MOL0     N 9623   4.327   1.921   0.250 -0.5793  0.6384 -0.0516
  795MOL0     N 9624   4.208   1.876   0.276 -0.3196 -0.3249  0.2807
  795MOL0     C 9625   3.219   2.155   0.646 -0.5764 -0.1335  0.0641
  795MOL0     C 9626   3.075   2.164   0.657  0.7086  0.3129  0.9358
  795MOL0     C 9627   2.683   2.235   0.456  0.1867 -0.3650  0.4639
  795MOL0     C 9628   2.604   2.196   0.564  0.1555  0.5402 -0.5777
  795MOL0     C 9629   2.466   2.219   0.573  0.2717  0.6477  0.3521
  795MOL0     C 9630   2.402   2.295   0.474 -0.3999 -0.2460  0.2327
  795MOL0     O 9631   2.268   2.313   0.493 -0.4655 -0.4017 -0.2111
  795MOL0     C 9632   2.188   2.402   0.405 -0.4001  0.1047  0.4970
  795MOL0     C 9633   2.045   2.416   0.442 -0.4958 -0.1748  0.3420
  795MOL0     C 9634   1.970   2.280   0.442  0.7064  0.1972  0.1341
  795MOL0     C 9635   1.816   2.286   0.468  0.1445  1.2502 -0.6759
  795MOL0     C 9636   1.756   2.155   0.505  0.0685  0.1168  0.8696
  795MOL0     C 9637   1.719   2.048   0.534 -0.5568  0.2594  0.8536
  795MOL0     C 9638   2.472   2.341   0.363  0.4590  0.6575  0.5498
  795MOL0     C 9639   2.612   2.304   0.347 -1.0713 -1.0243  0.6290
  795MOL0     C 9640   2.687   2.357   0.222  0.4349 -0.0798 -0.1678
  795MOL0     H 9641   2.977   1.911   0.458 -1.6699  2.2010  1.2357
  795MOL0     H 9642   3.223   1.865   0.464 -1.7727  0.2147 -3.8955
  795MOL0     H 9643   3.407   1.992   0.771 -0.1936  0.4635  0.9260
  795MOL0     H 9644   3.498   2.137   0.730 -1.0599 -0.3103  1.6206
  795MOL0     H 9645   3.652   1.991   0.797 -0.9901  1.8336 -0.0497
  795MOL0     H 9646   3.602   1.857   0.708  0.1265 -0.0388 -0.0006
  795MOL0     H 9647   3.674   2.002   0.494  0.7695  3.7184 -1.2061
  795MOL0     H 9648   3.692   2.136   0.611 -0.5972 -0.2805  2.2481
  795MOL0     H 9649   3.896   2.062   0.540 -0.8641  0.0605  0.1569
  795MOL0     H 9650   3.881   1.968   0.700  0.6398  1.2414  0.3732
  795MOL0     H 9651   3.867   1.838   0.419 -0.2584  0.7338  0.1036
  795MOL0     H 9652   3.802   1.759   0.567 -1.0138  0.1927 -0.2121
  795MOL0     H 9653   4.095   1.867   0.527  0.2940 -0.3106 -2.2294
  795MOL0     H 9654   4.015   1.803   0.669 -4.6939  0.1617  0.7062
  795MOL0     H 9655   3.994   1.579   0.543 -0.2869 -0.4615  0.5022
  795MOL0     H 9656   4.161   1.637   0.567 -0.7154 -0.1592  0.3323
  795MOL0     H 9657   4.121   1.569   0.318 -0.3264  0.3538 -0.8467
  795MOL0     H 9658   4.014   1.709   0.326 -0.4578 -1.0462 -0.2270
  795MOL0     H 9659   4.402   1.622   0.360  0.0364  0.7037 -0.0277
  795MOL0     H 9660   4.576   1.947   0.230 -3.3571  0.3047  1.2420
  795MOL0     H 9661   4.586   1.818   0.115 -0.4771  0.2148  0.5144
  795MOL0     H 9662   4.726   1.851   0.339 -1.3705  2.8783 -0.4878
  795MOL0     H 9663   4.597   1.751   0.419  0.9089  1.8179  0.4005
  795MOL0     H 9664   4.621   1.573   0.248  0.0430  1.2220 -2.8583
  795MOL0     H 9665   4.734   1.668   0.168 -1.4680  1.4177  0.0828
  795MOL0     H 9666   4.776   1.550   0.424 -1.2990 -0.8500 -0.7932
  795MOL0     H 9667   4.875   1.504   0.284  0.0656 -1.0894  1.8082
  795MOL0     H 9668   5.067   1.861   0.406 -1.7960 -0.6965  0.9909
  795MOL0     H 9669   5.406   1.925   0.473  0.4413  1.7362 -2.0323
  795MOL0     H 9670   5.274   1.977   0.369  0.6135  1.2822  1.4183
  795MOL0     H 9671   5.416   1.883   0.307  1.9385 -0.0135  0.4530
  795MOL0     H 9672   5.664   1.808   0.719  2.0220  1.5505  0.7559
  795MOL0     H 9673   5.913   1.808   0.755  0.1491  2.0888 -0.6014
  795MOL0     H 9674   6.128   1.536   0.593  1.0101  1.0624  1.1422
  795MOL0     H 9675   6.174   1.613   0.437  0.9048 -2.6932  0.0474
  795MOL0     H 9676   6.337   1.757   0.565  2.9222 -0.9082  0.3948
  795MOL0     H 9677   6.297   1.677   0.716 -1.9916  1.4600 -0.6937
  795MOL0     H 9678   6.446   1.580   0.472  4.1040  1.0868  1.3427
  795MOL0     H 9679   6.343   1.457   0.558 -0.7394  0.4869 -1.8699
  795MOL0     H 9680   6.456   1.503   0.766  2.5147  3.6728  1.5031
  795MOL0     H 9681   6.556   1.622   0.680 -0.0284  0.1434 -1.8386
  795MOL0     H 9682   6.536   1.338   0.599  1.1257 -1.3514  0.1131
  795MOL0     H 9683   6.663   1.439   0.550 -0.3406 -3.2002 -1.4696
  795MOL0     H 9684   6.620   1.378   0.841  1.2829 -2.7584  1.7767
  795MOL0     H 9685   6.769   1.432   0.773  0.2464 -0.4015  1.2718
  795MOL0     H 9686   6.671   1.157   0.707 -0.5530 -0.3491 -0.3328
  795MOL0     H 9687   6.805   1.211   0.830  0.2076  3.5902  0.1896
  795MOL0     H 9688   6.825   1.287   0.535 -3.1309 -4.6390 -1.5946
  795MOL0     H 9689   6.874   1.131   0.604 -2.2351 -0.4501 -0.7620
  795MOL0     H 9690   5.967   1.651   0.366 -0.1413 -2.6071  0.9515
  795MOL0     H 9691   5.731   1.652   0.316 -2.8957  2.8233  0.7749
  795MOL0     H 9692   5.289   1.426   0.364  0.8789  0.0215  2.5346
  795MOL0     H 9693   5.052   1.450   0.352  0.0170 -0.7612 -1.4096
  795MOL0     H 9694   3.282   2.221   0.706 -0.5596 -0.9751  1.0057
  795MOL0     H 9695   3.016   2.241   0.704 -1.8061 -0.7732 -0.2646
  795MOL0     H 9696   2.635   2.122   0.637 -2.3498 -1.3519 -1.2620
  795MOL0     H 9697   2.407   2.183   0.657  3.8223  0.1948  2.8733
  795MOL0     H 9698   2.243   2.496   0.402  2.7129 -1.4682  2.8900
  795MOL0     H 9699   2.189   2.370   0.300 -3.0562  0.3438  0.3376
  795MOL0     H 9700   1.993   2.486   0.375 -0.4489  0.4664  0.9600
  795MOL0     H 9701   2.045   2.453   0.545 -0.2717  1.4532 -0.2081
  795MOL0     H 9702   1.992   2.236   0.344 -0.8246  0.0431 -0.1759
  795MOL0     H 9703   2.008   2.216   0.522 -0.3331  0.7097  1.0559
  795MOL0     H 9704   1.758   2.339   0.392 -0.3939  2.8930  0.8129
  795MOL0     H 9705   1.808   2.346   0.560  3.5076  0.9523 -0.0387
  795MOL0     H 9706   1.675   1.956   0.566 -1.6294  0.5843  0.3700
  795MOL0     H 9707   2.428   2.398   0.281  2.1013 -0.8268 -1.4735
  795MOL0     H 9708   2.696   2.271   0.155 -1.7578 -0.7535  0.3225
  795MOL0     H 9709   2.625   2.428   0.166  0.1150 -0.8724 -0.8262
  795MOL0     H 9710   2.777   2.414   0.246  0.5616 -0.8552  1.3157
  796MOL0     O 9711   0.603   1.554   7.213 -0.3557 -0.2239 -0.7815
  796MOL0     C 9712   0.534   1.647   7.262 -0.0587 -0.2889  0.4982
  796MOL0     O 9713   0.579   1.728   7.356  0.3264 -0.5785  0.0354
  796MOL0     C 9714   0.716   1.739   7.388 -0.4414  0.0188 -0.9353
  796MOL0     C 9715   0.749   1.766   7.518 -0.7045  0.2591 -0.3513
  796MOL0     C 9716   0.888   1.755   7.557  0.0243  0.1408 -0.0404
  796MOL0     C 9717   0.988   1.743   7.464  0.4628  0.0914 -0.5754
  796MOL0     O 9718   1.120   1.765   7.490  0.4474  0.1910  0.4399
  796MOL0     C 9719   1.167   1.753   7.623 -0.5191 -0.1509 -0.1239
  796MOL0     C 9720   1.321   1.758   7.615 -0.3458 -0.0708 -0.1307
  796MOL0     C 9721   1.385   1.694   7.740 -0.1959  0.3987  0.2397
  796MOL0     C 9722   1.537   1.722   7.744  0.1054 -0.1819  0.4741
  796MOL0     C 9723   1.575   1.759   7.886  0.7707 -0.2026  0.1480
  796MOL0     C 9724   1.725   1.801   7.895  0.7511 -0.0343  0.0374
  796MOL0     C 9725   1.748   1.863   8.037 -0.4311  0.4546 -0.1248
  796MOL0     C 9726   1.898   1.899   8.047 -0.7228 -0.2784  0.2115
  796MOL0     N 9727   1.985   1.777   8.032  0.8698  0.9217 -0.5373
  796MOL0     C 9728   2.004   1.696   8.132 -0.6992 -0.7709  0.1955
  796MOL0     C 9729   2.077   1.591   8.082  1.0530  0.2816  0.0852
  796MOL0     C 9730   2.125   1.473   8.154 -0.2873  1.1911  0.3151
  796MOL0     C 9731   2.277   1.473   8.190  0.4902 -0.3729  0.1309
  796MOL0     C 9732   2.371   1.491   8.062 -0.3055 -0.0263 -0.4957
  796MOL0     C 9733   2.519   1.477   8.105  0.2424 -0.6616  0.0530
  796MOL0     O 9734   2.587   1.439   7.988 -0.9998 -0.9135 -0.2606
  796MOL0     C 9735   2.715   1.394   7.989  0.2596  0.1562 -0.4664
  796MOL0     C 9736   2.791   1.362   8.102 -0.8484 -0.9351  0.3208
  796MOL0     C 9737   2.926   1.339   8.102 -0.3555  0.0305 -0.4784
  796MOL0     C 9738   2.989   1.322   8.241 -0.7093 -1.1493  0.0624
  796MOL0     C 9739   3.001   1.346   7.979 -0.2093  0.3686 -0.1889
  796MOL0     C 9740   3.144   1.330   7.970 -0.3562 -0.3996 -0.6496
  796MOL0     O 9741   3.187   1.321   7.836  0.1885  0.4891  0.0416
  796MOL0     C 9742   3.327   1.324   7.828  0.3451 -0.8804 -0.6156
  796MOL0     C 9743   3.411   1.440   7.855  1.0894  0.1746  0.5203
  796MOL0     C 9744   3.558   1.442   7.852 -0.2458  0.5704 -0.3889
  796MOL0     C 9745   3.618   1.316   7.821  0.1161  0.0399 -0.1459
  796MOL0     O 9746   3.759   1.301   7.836 -0.0047  1.1285  0.4868
  796MOL0     C 9747   3.823   1.176   7.806  0.0177  0.5462  1.0674
  796MOL0     C 9748   3.977   1.192   7.828 -0.1234  0.0760 -0.1095
  796MOL0     C 9749   4.060   1.244   7.703  0.7291  0.1104  0.2497
  796MOL0     C 9750   4.206   1.229   7.711 -0.0448 -0.1351  0.1900
  796MOL0     C 9751   4.272   1.338   7.809  0.0636  0.2681  0.2007
  796MOL0     C 9752   4.418   1.325   7.814  0.6825 -0.0810 -0.4106
  796MOL0     C 9753   4.480   1.379   7.685  0.4954 -0.1614 -0.3103
  796MOL0     C 9754   4.633   1.380   7.691  0.1039 -0.1126 -0.0241
  796MOL0    Cl 9755   4.697   1.507   7.797  0.3112 -0.2079 -0.1539
  796MOL0     C 9756   3.535   1.206   7.776 -0.3592 -0.2108 -0.0836
  796MOL0     C 9757   3.393   1.211   7.783 -0.4430 -0.8254 -0.2625
  796MOL0     O 9758   3.216   1.307   8.066 -0.7666 -0.4600 -0.1419
  796MOL0     C 9759   2.918   1.353   7.855 -0.6113  0.9654 -0.3596
  796MOL0     C 9760   2.777   1.384   7.869  0.7446  0.9795  1.0246
  796MOL0     N 9761   2.116   1.623   7.954  0.0326  0.8939 -0.2567
  796MOL0     N 9762   2.061   1.740   7.925 -0.7215  0.6960  0.3694
  796MOL0     C 9763   0.955   1.729   7.332 -0.3079  0.3140 -0.9405
  796MOL0     C 9764   0.819   1.726   7.292  0.2646  0.3347 -0.4997
  796MOL0     C 9765   0.398   1.659   7.203  0.2921 -0.4043  0.5069
  796MOL0     C 9766   0.358   1.586   7.082 -0.1522 -0.6344  0.4746
  796MOL0     C 9767   0.226   1.608   7.034 -1.0049  0.2937  0.1444
  796MOL0     C 9768   0.130   1.692   7.088 -0.8563  1.2975 -0.9183
  796MOL0     O 9769   0.003   1.722   7.049 -0.6612  0.0121  0.5028
  796MOL0     C 9770  -0.049   1.658   6.933 -0.0693 -0.8741  0.2005
  796MOL0     C 9771  -0.193   1.686   6.912  0.6500  0.6332 -0.3848
  796MOL0     C 9772  -0.254   1.654   6.777 -0.2623  0.2647  0.2972
  796MOL0     C 9773  -0.162   1.691   6.661  0.7672 -0.0080  0.6774
  796MOL0     C 9774  -0.056   1.594   6.627 -0.0415 -0.4101  0.0044
  796MOL0     C 9775   0.023   1.519   6.585 -0.7186  0.4678 -0.9265
  796MOL0     C 9776   0.176   1.757   7.199 -0.5486  0.0145 -0.2833
  796MOL0     C 9777   0.303   1.750   7.260 -0.4877 -0.1492  0.4239
  796MOL0     C 9778   0.322   1.846   7.373 -0.2071  0.4772  0.6552
  796MOL0     H 9779   0.674   1.779   7.595  0.4106  0.0280  0.8032
  796MOL0     H 9780   0.902   1.782   7.661  1.0537 -0.2038 -0.0805
  796MOL0     H 9781   1.152   1.652   7.662  1.1385 -0.1724  0.5118
  796MOL0     H 9782   1.120   1.828   7.686  0.1641  1.9131 -1.9667
  796MOL0     H 9783   1.367   1.706   7.530 -0.7812 -0.2519 -0.2603
  796MOL0     H 9784   1.350   1.863   7.616 -0.0504 -0.0526 -2.8970
  796MOL0     H 9785   1.342   1.744   7.828  0.4276  1.1282  0.1342
  796MOL0     H 9786   1.373   1.585   7.735  3.2608 -0.0157 -2.9258
  796MOL0     H 9787   1.592   1.628   7.730 -0.0906 -0.4820  1.6497
  796MOL0     H 9788   1.563   1.797   7.669  0.2206 -1.5986 -0.9528
  796MOL0     H 9789   1.571   1.666   7.945 -0.3890 -1.1104 -1.2787
  796MOL0     H 9790   1.502   1.827   7.931  0.7453  0.9079 -1.5014
  796MOL0     H 9791   1.785   1.714   7.869 -0.1039 -0.6719  0.1470
  796MOL0     H 9792   1.750   1.872   7.816  0.4170 -0.8563 -0.8318
  796MOL0     H 9793   1.713   1.791   8.112 -0.5296  0.8214  0.1819
  796MOL0     H 9794   1.679   1.946   8.054 -0.2779  0.2013  1.8934
  796MOL0     H 9795   1.929   1.973   7.973 -0.6944  2.1532  2.5116
  796MOL0     H 9796   1.916   1.947   8.144  0.2950  0.0492 -0.1194
  796MOL0     H 9797   1.957   1.708   8.229 -1.8568  0.1135 -0.4469
  796MOL0     H 9798   2.113   1.383   8.093 -0.4340  1.6546 -0.3500
  796MOL0     H 9799   2.069   1.460   8.247 -1.7144 -1.7153 -0.8269
  796MOL0     H 9800   2.300   1.555   8.259  0.3648  0.1319 -0.4146
  796MOL0     H 9801   2.308   1.383   8.244 -3.1275 -0.8765  1.6719
  796MOL0     H 9802   2.348   1.429   7.975 -0.2328 -1.1052  0.2430
  796MOL0     H 9803   2.364   1.598   8.038 -2.9353  0.3491  1.4732
  796MOL0     H 9804   2.550   1.571   8.151  0.3693  0.5903 -2.4208
  796MOL0     H 9805   2.536   1.389   8.169 -2.0948 -2.7079 -1.9058
  796MOL0     H 9806   2.736   1.363   8.196 -0.4378 -3.6427  0.6540
  796MOL0     H 9807   3.043   1.227   8.245  1.9231  0.2856  1.0490
  796MOL0     H 9808   2.919   1.342   8.322  1.4239  1.3032  1.4742
  796MOL0     H 9809   3.069   1.396   8.252 -1.1405 -0.2253 -2.3897
  796MOL0     H 9810   3.354   1.532   7.866  1.0936  0.2765 -0.2459
  796MOL0     H 9811   3.619   1.520   7.895 -0.4330 -0.4340  1.8462
  796MOL0     H 9812   3.784   1.097   7.871  0.0396 -2.0269 -1.8218
  796MOL0     H 9813   3.806   1.149   7.702  0.2142  1.5658  0.7674
  796MOL0     H 9814   4.000   1.258   7.911 -0.6694 -0.3885  0.4213
  796MOL0     H 9815   4.013   1.091   7.853 -3.5815 -1.1171  0.5451
  796MOL0     H 9816   4.048   1.351   7.685  0.2677 -0.1840 -1.3978
  796MOL0     H 9817   4.021   1.190   7.616  1.4158 -1.3116  0.8005
  796MOL0     H 9818   4.239   1.245   7.608  1.6989 -1.2842  0.5290
  796MOL0     H 9819   4.231   1.126   7.738  2.5831 -0.3644 -2.6045
  796MOL0     H 9820   4.240   1.438   7.778 -0.6351  0.1816  0.6031
  796MOL0     H 9821   4.230   1.324   7.909 -2.9223 -0.1841 -0.9974
  796MOL0     H 9822   4.444   1.219   7.830 -0.0610 -0.4534 -1.5577
  796MOL0     H 9823   4.452   1.379   7.902 -0.8829  0.0157  0.1556
  796MOL0     H 9824   4.445   1.481   7.671 -1.0438 -0.4121  1.2790
  796MOL0     H 9825   4.447   1.323   7.597  2.0737 -0.7336 -0.5708
  796MOL0     H 9826   4.670   1.384   7.588  0.3920  0.0123  0.0813
  796MOL0     H 9827   4.671   1.283   7.724  1.0366  0.6069  1.1191
  796MOL0     H 9828   3.573   1.107   7.753 -0.0968 -0.7134  2.2514
  796MOL0     H 9829   3.340   1.123   7.748 -0.6344 -0.5412 -0.7043
  796MOL0     H 9830   2.957   1.344   7.754 -0.5866  1.3051 -0.3826
  796MOL0     H 9831   2.728   1.409   7.776  2.2334 -1.5231 -0.5595
  796MOL0     H 9832   1.041   1.724   7.266  0.2755 -2.5153 -0.0942
  796MOL0     H 9833   0.792   1.704   7.189 -3.6889 -2.2358  0.8676
  796MOL0     H 9834   0.432   1.521   7.035 -0.6196 -1.2673  0.5929
  796MOL0     H 9835   0.203   1.551   6.944 -1.1420 -3.3454  2.2793
  796MOL0     H 9836   0.017   1.699   6.855  1.3678 -0.3130  1.6414
  796MOL0     H 9837  -0.042   1.550   6.947  0.5985 -0.9837 -0.8433
  796MOL0     H 9838  -0.208   1.792   6.934  2.3973  0.9983 -0.8573
  796MOL0     H 9839  -0.247   1.626   6.987  0.0168 -1.7627 -2.6252
  796MOL0     H 9840  -0.295   1.552   6.784  0.5314 -0.0315  0.7210
  796MOL0     H 9841  -0.341   1.716   6.754 -0.3835 -0.4914 -1.4565
  796MOL0     H 9842  -0.123   1.792   6.679 -1.5911  0.8118  1.5062
  796MOL0     H 9843  -0.225   1.702   6.572  0.9260 -2.5199  0.1740
  796MOL0     H 9844   0.090   1.442   6.550 -1.1270 -1.2665  1.8320
  796MOL0     H 9845   0.107   1.831   7.239  0.0174 -0.3839  1.5089
  796MOL0     H 9846   0.404   1.911   7.342  0.0615 -0.0519  0.2398
  796MOL0     H 9847   0.235   1.911   7.389  2.3176  4.9385 -1.7569
  796MOL0     H 9848   0.353   1.798   7.466  0.8670 -0.2039 -0.0363
  797MOL0     O 9849   1.677   5.124   0.386 -0.4880  0.0670 -0.3144
  797MOL0     C 9850   1.689   5.200   0.485  0.3754  0.0967  0.0383
  797MOL0     O 9851   1.799   5.251   0.535 -0.5580 -0.3795 -0.0704
  797MOL0     C 9852   1.927   5.202   0.507  0.3539 -0.4514  0.0572
  797MOL0     C 9853   1.978   5.174   0.372 -0.2545  0.6387 -0.4729
  797MOL0     C 9854   2.096   5.104   0.356 -1.2646 -0.1082  0.1124
  797MOL0     C 9855   2.174   5.072   0.472  0.7433 -0.4002 -0.0815
  797MOL0     O 9856   2.293   5.006   0.463  0.1748  0.1680  0.3920
  797MOL0     C 9857   2.318   4.915   0.359  0.2526  0.8796  0.7240
  797MOL0     C 9858   2.397   4.979   0.252 -0.2454 -1.1953  0.0286
  797MOL0     C 9859   2.538   5.010   0.307  0.5898  0.7138  0.2770
  797MOL0     C 9860   2.620   5.099   0.223  0.3058 -0.5287 -0.5317
  797MOL0     C 9861   2.763   5.104   0.273 -0.3219 -0.0235  0.7906
  797MOL0     C 9862   2.853   5.203   0.196  0.1272  0.3625  0.2196
  797MOL0     C 9863   2.840   5.346   0.202  0.1251 -0.3453 -0.3572
  797MOL0     C 9864   2.831   5.405   0.348 -0.7090 -0.1239  0.5188
  797MOL0     N 9865   2.806   5.549   0.345 -0.5925  0.5040 -0.0513
  797MOL0     C 9866   2.687   5.610   0.364 -0.0923 -0.7176  0.1842
  797MOL0     C 9867   2.702   5.743   0.361 -0.0146 -0.2196 -0.1991
  797MOL0     C 9868   2.589   5.850   0.373 -0.1755  0.6077  0.5078
  797MOL0     C 9869   2.554   5.891   0.509 -0.8395 -0.3634  0.5179
  797MOL0     C 9870   2.677   5.935   0.604  0.2272 -0.3215 -0.3893
  797MOL0     C 9871   2.752   6.061   0.553 -0.9926  0.4258 -0.5147
  797MOL0     O 9872   2.861   6.094   0.649 -0.0032  0.4920  0.4496
  797MOL0     C 9873   2.979   6.115   0.590 -0.6477  0.2763 -1.0163
  797MOL0     C 9874   3.050   6.016   0.523 -0.3214 -0.5721 -0.1050
  797MOL0     C 9875   3.177   6.047   0.466 -0.3259  0.0909  0.2340
  797MOL0     C 9876   3.244   5.942   0.379 -0.1345 -0.0090  0.9923
  797MOL0     C 9877   3.242   6.169   0.483 -0.5029 -0.5986 -0.3793
  797MOL0     C 9878   3.374   6.211   0.427 -0.4344 -1.1115  1.1102
  797MOL0     O 9879   3.390   6.346   0.402  0.0820 -0.1182 -0.2099
  797MOL0     C 9880   3.513   6.384   0.358 -0.3162 -0.6774  0.3539
  797MOL0     C 9881   3.535   6.426   0.220  0.0943  0.4152  0.2257
  797MOL0     C 9882   3.659   6.468   0.180 -0.2362  1.0227  0.0825
  797MOL0     C 9883   3.773   6.471   0.266 -0.1919  0.4319 -0.2505
  797MOL0     O 9884   3.883   6.516   0.199 -0.7579 -0.2239  0.0882
  797MOL0     C 9885   4.019   6.469   0.238  0.2561  0.9485  0.2837
  797MOL0     C 9886   4.121   6.585   0.230  0.7724  0.2623  0.2758
  797MOL0     C 9887   4.267   6.548   0.250 -0.0657  0.1149  0.9178
  797MOL0     C 9888   4.342   6.587   0.116  0.0136  0.0062 -0.8511
  797MOL0     C 9889   4.502   6.594   0.117  0.4618 -0.1047  0.1854
  797MOL0     C 9890   4.541   6.668  -0.011 -0.2799 -0.9324 -0.8874
  797MOL0     C 9891   4.688   6.687  -0.025 -0.2237  0.4656 -0.1079
  797MOL0     C 9892   4.715   6.731  -0.165 -0.5351 -0.3282  0.7840
  797MOL0    Cl 9893   4.712   6.590  -0.282  0.5345 -0.1209 -0.2333
  797MOL0     C 9894   3.760   6.413   0.389  0.9039 -0.4347  0.1588
  797MOL0     C 9895   3.634   6.383   0.437  0.5726 -1.0955  0.2013
  797MOL0     O 9896   3.464   6.125   0.421 -0.4099  0.1566 -0.0169
  797MOL0     C 9897   3.168   6.264   0.563 -0.6202  0.1358  0.3666
  797MOL0     C 9898   3.039   6.234   0.610  0.6359 -0.4528 -0.0842
  797MOL0     N 9899   2.843   5.760   0.368  0.1675 -0.1162 -0.3241
  797MOL0     N 9900   2.903   5.650   0.345 -0.1500  0.4495 -0.3591
  797MOL0     C 9901   2.130   5.110   0.603 -0.4939 -0.4878 -0.8212
  797MOL0     C 9902   2.006   5.172   0.616 -0.0981 -0.1236 -0.5806
  797MOL0     C 9903   1.563   5.239   0.564  0.2314 -0.7298 -0.2636
  797MOL0     C 9904   1.578   5.304   0.686  0.0338  0.4152 -0.0919
  797MOL0     C 9905   1.464   5.345   0.763 -0.6280 -0.1937  0.4239
  797MOL0     C 9906   1.341   5.327   0.712  0.3097  0.1634 -0.3571
  797MOL0     O 9907   1.238   5.387   0.771  0.9455  0.3203 -0.4462
  797MOL0     C 9908   1.163   5.307   0.863  0.9650  0.2472  0.1895
  797MOL0     C 9909   1.211   5.296   1.005 -0.0301 -0.7583  1.4957
  797MOL0     C 9910   1.242   5.425   1.092  1.5331 -0.2248 -0.3207
  797MOL0     C 9911   1.314   5.379   1.219  0.5344  0.0532 -0.3985
  797MOL0     C 9912   1.444   5.323   1.187 -0.6304 -0.7291  0.6796
  797MOL0     C 9913   1.549   5.302   1.141 -0.7818 -0.4434 -0.2445
  797MOL0     C 9914   1.329   5.259   0.591  0.2145 -0.6573 -0.3960
  797MOL0     C 9915   1.431   5.207   0.512  0.6877 -0.0303 -1.2160
  797MOL0     C 9916   1.399   5.126   0.395 -0.3386 -0.0869  0.7101
  797MOL0     H 9917   1.915   5.177   0.284 -0.1973  0.2197 -0.5274
  797MOL0     H 9918   2.127   5.066   0.259 -1.0304  0.9966 -0.2604
  797MOL0     H 9919   2.225   4.880   0.314  0.1825 -0.6507  1.9833
  797MOL0     H 9920   2.374   4.825   0.386  0.4988  0.5955 -0.6500
  797MOL0     H 9921   2.398   4.919   0.161  0.8594 -0.8841 -0.1732
  797MOL0     H 9922   2.354   5.076   0.228  0.0604 -0.1617  3.1456
  797MOL0     H 9923   2.527   5.054   0.406  0.1401  2.3747 -0.4707
  797MOL0     H 9924   2.593   4.917   0.324  0.4525  0.6901  0.6052
  797MOL0     H 9925   2.614   5.065   0.119 -3.1366 -0.1792 -0.5484
  797MOL0     H 9926   2.580   5.200   0.237  1.3427 -0.1969  0.1526
  797MOL0     H 9927   2.796   5.000   0.273 -0.6000 -0.1333 -0.3548
  797MOL0     H 9928   2.774   5.124   0.380 -2.9585 -0.0710  1.1424
  797MOL0     H 9929   2.958   5.183   0.220 -0.0564  0.1364  0.8436
  797MOL0     H 9930   2.842   5.173   0.091  1.6227 -3.6883  1.0444
  797MOL0     H 9931   2.757   5.376   0.138  0.7947  0.5169 -0.8560
  797MOL0     H 9932   2.933   5.380   0.154  1.8231 -2.2357  1.4197
  797MOL0     H 9933   2.761   5.349   0.411 -0.5210  1.0375  1.7930
  797MOL0     H 9934   2.932   5.392   0.390  1.2514  0.4801 -3.5016
  797MOL0     H 9935   2.592   5.558   0.362 -1.0071  0.7550 -3.3622
  797MOL0     H 9936   2.506   5.794   0.327  2.1089 -2.8168  0.1093
  797MOL0     H 9937   2.601   5.939   0.311  0.0682 -0.2244 -0.6787
  797MOL0     H 9938   2.475   5.966   0.515  0.3711  0.9960  0.0640
  797MOL0     H 9939   2.509   5.803   0.556 -3.6543  0.2540 -0.7978
  797MOL0     H 9940   2.635   5.967   0.700  0.3421 -1.7354  0.1619
  797MOL0     H 9941   2.743   5.848   0.614  0.9758 -0.2522 -3.6380
  797MOL0     H 9942   2.786   6.038   0.451  0.5365 -1.0087  0.2691
  797MOL0     H 9943   2.681   6.144   0.554  0.7705  2.0112  0.0828
  797MOL0     H 9944   2.999   5.921   0.521 -0.7680 -0.3846  1.4793
  797MOL0     H 9945   3.307   5.882   0.445  0.6402 -0.1204  0.1671
  797MOL0     H 9946   3.304   5.992   0.303  0.0782  0.3379  1.3839
  797MOL0     H 9947   3.163   5.889   0.327 -1.6146  3.0825 -0.1409
  797MOL0     H 9948   3.445   6.434   0.159  0.2799 -3.9878 -0.9290
  797MOL0     H 9949   3.668   6.493   0.075 -0.8902 -4.3333 -1.5241
  797MOL0     H 9950   4.017   6.432   0.341 -2.7669  1.0086  0.3365
  797MOL0     H 9951   4.040   6.384   0.173 -0.0822  0.7830  0.3884
  797MOL0     H 9952   4.096   6.626   0.132 -6.8126 -2.4264  0.4293
  797MOL0     H 9953   4.105   6.661   0.307  2.1918 -0.4086  1.2860
  797MOL0     H 9954   4.286   6.444   0.279  1.3551 -0.4734 -1.7182
  797MOL0     H 9955   4.292   6.604   0.340 -1.9298 -0.8293  2.0725
  797MOL0     H 9956   4.301   6.684   0.089 -0.4479  0.0321 -0.1009
  797MOL0     H 9957   4.319   6.520   0.033 -1.2894  0.9443 -1.2831
  797MOL0     H 9958   4.530   6.650   0.207 -3.3827  2.8787 -0.2427
  797MOL0     H 9959   4.549   6.495   0.125 -1.2441 -0.8491  1.9682
  797MOL0     H 9960   4.504   6.770   0.003  2.3793 -0.1754  1.5649
  797MOL0     H 9961   4.498   6.621  -0.100  0.7454 -1.2023 -1.2516
  797MOL0     H 9962   4.743   6.594  -0.006 -1.0870 -0.2658 -1.0409
  797MOL0     H 9963   4.725   6.765   0.042 -1.3912  0.1255  0.9697
  797MOL0     H 9964   4.810   6.786  -0.168  0.7712 -2.2169  3.5109
  797MOL0     H 9965   4.633   6.798  -0.191  0.0928  0.0802 -0.1937
  797MOL0     H 9966   3.840   6.403   0.462  0.8849 -2.8163 -0.0424
  797MOL0     H 9967   3.622   6.360   0.543 -0.2347  1.6711  0.7902
  797MOL0     H 9968   3.198   6.366   0.582  0.0967 -0.5176  3.1945
  797MOL0     H 9969   2.997   6.317   0.667  4.6989  1.7700  0.0905
  797MOL0     H 9970   2.196   5.082   0.685  0.4662  0.6912 -1.1676
  797MOL0     H 9971   1.970   5.177   0.719  0.6615 -1.5481 -0.2271
  797MOL0     H 9972   1.678   5.326   0.722 -0.1484 -3.0552  3.0842
  797MOL0     H 9973   1.467   5.395   0.860  1.1731 -1.6327  1.1595
  797MOL0     H 9974   1.059   5.336   0.880  0.5674 -1.9536  2.0540
  797MOL0     H 9975   1.144   5.207   0.823 -1.5737  0.7353  0.0091
  797MOL0     H 9976   1.304   5.241   0.988  0.7363  0.4839  1.5094
  797MOL0     H 9977   1.141   5.229   1.054  0.0747 -1.0983  1.1845
  797MOL0     H 9978   1.298   5.508   1.047  0.5537  0.0722 -1.0190
  797MOL0     H 9979   1.143   5.465   1.116  2.3339  1.8590 -0.3341
  797MOL0     H 9980   1.252   5.317   1.283  3.3638 -0.2804  2.2415
  797MOL0     H 9981   1.325   5.469   1.281  2.2944 -0.5760  0.2743
  797MOL0     H 9982   1.648   5.277   1.107 -0.3893 -1.3186  1.4330
  797MOL0     H 9983   1.225   5.248   0.561  0.2064  1.9576 -1.5983
  797MOL0     H 9984   1.442   5.165   0.302 -0.0384  0.0282  0.8952
  797MOL0     H 9985   1.422   5.020   0.410  0.5206  0.3495  2.9067
  797MOL0     H 9986   1.292   5.136   0.376  0.2953  2.0288 -2.8065
  798MOL0     O 9987   1.580   8.679   5.039 -0.2071 -0.4206  0.4447
  798MOL0     C 9988   1.498   8.671   4.946  0.1251 -0.2032  0.7565
  798MOL0     O 9989   1.528   8.622   4.820 -0.6312  0.5370  0.5097
  798MOL0     C 9990   1.654   8.556   4.809  0.6304  0.0693  0.6046
  798MOL0     C 9991   1.672   8.416   4.836 -0.2545 -0.7237 -0.5079
  798MOL0     C 9992   1.804   8.365   4.836  0.0469  0.0735  0.0364
  798MOL0     C 9993   1.917   8.441   4.806 -0.3229  0.0985  0.6559
  798MOL0     O 9994   2.038   8.376   4.807 -0.0212 -0.3676  0.1420
  798MOL0     C 9995   2.139   8.455   4.746  0.5028 -0.0698 -0.5638
  798MOL0     C 9996   2.253   8.371   4.688  0.6633 -0.2341  0.0042
  798MOL0     C 9997   2.361   8.468   4.646  0.2177 -0.6239 -0.1282
  798MOL0     C 9998   2.491   8.402   4.608 -0.5238 -1.2202 -0.0789
  798MOL0     C 9999   2.489   8.316   4.485  0.0911  0.5818  0.1638
  798MOL0     C10000   2.634   8.249   4.474  0.2894  0.7232  0.4099
  798MOL0     C10001   2.635   8.155   4.357 -0.5739  0.6688  0.3182
  798MOL0     C10002   2.710   8.022   4.383  0.0590  0.1082  0.0729
  798MOL0     N10003   2.852   8.031   4.404 -0.1916  0.4964  0.1302
  798MOL0     C10004   2.932   8.083   4.306  0.2210  0.0805 -0.3342
  798MOL0     C10005   3.050   8.102   4.360 -0.1362 -0.7240  0.3657
  798MOL0     C10006   3.172   8.148   4.280 -0.3548 -0.1843 -0.4741
  798MOL0     C10007   3.254   8.017   4.253 -0.2663 -0.1257 -0.1272
  798MOL0     C10008   3.227   7.948   4.121  0.5219  0.2284  1.0508
  798MOL0     C10009   3.296   7.818   4.111 -0.7696 -0.1291  0.4621
  798MOL0     O10010   3.267   7.750   3.990  0.2555 -0.4869  0.1145
  798MOL0     C10011   3.372   7.670   3.941  1.8698  0.1243 -0.1259
  798MOL0     C10012   3.383   7.676   3.810  0.6527  0.8769 -0.1856
  798MOL0     C10013   3.485   7.608   3.746  0.6536 -0.4290  0.0131
  798MOL0     C10014   3.500   7.631   3.597  0.3062  0.1061 -0.0771
  798MOL0     C10015   3.576   7.535   3.820  0.2366 -0.0295 -0.9392
  798MOL0     C10016   3.684   7.459   3.760 -0.0153 -0.5444 -1.0038
  798MOL0     O10017   3.796   7.439   3.842  0.4044 -0.3604  1.2537
  798MOL0     C10018   3.898   7.361   3.793 -0.6662 -0.2221 -0.3331
  798MOL0     C10019   3.913   7.228   3.820  0.2640 -0.2418  0.0130
  798MOL0     C10020   4.013   7.150   3.767 -0.1642 -0.1712 -0.0679
  798MOL0     C10021   4.112   7.218   3.687  0.5032  0.0808  0.6997
  798MOL0     O10022   4.212   7.146   3.628  0.5476  0.4175  0.8608
  798MOL0     C10023   4.222   7.005   3.659 -0.3896  0.5385  0.2839
  798MOL0     C10024   4.327   6.926   3.583 -0.5508 -0.3311 -0.1945
  798MOL0     C10025   4.469   6.991   3.590  0.0655  0.4161 -0.7692
  798MOL0     C10026   4.576   6.878   3.542 -0.4698 -0.4247  0.7154
  798MOL0     C10027   4.724   6.932   3.530 -0.4194 -0.6104  0.5253
  798MOL0     C10028   4.795   6.992   3.655  0.5034 -0.3570  0.7373
  798MOL0     C10029   4.807   6.877   3.753  0.4996 -0.0463 -0.6887
  798MOL0     C10030   4.895   6.917   3.866 -0.3604  0.0335 -0.4687
  798MOL0    Cl10031   5.072   6.940   3.825  0.3519 -0.3026  0.0432
  798MOL0     C10032   4.098   7.355   3.658  0.2367 -1.0018  0.5682
  798MOL0     C10033   3.990   7.421   3.708 -0.1714 -0.4572 -0.2928
  798MOL0     O10034   3.672   7.407   3.652 -0.0777 -0.8924  0.5034
  798MOL0     C10035   3.569   7.537   3.953 -0.4174 -0.1606 -1.0101
  798MOL0     C10036   3.461   7.587   4.020 -0.0400 -0.3232  0.7120
  798MOL0     N10037   3.036   8.053   4.490 -0.6608  0.1377  0.3666
  798MOL0     N10038   2.919   8.012   4.512 -0.1075 -0.5533  0.0445
  798MOL0     C10039   1.896   8.578   4.792  0.6937 -0.5486 -0.2582
  798MOL0     C10040   1.767   8.632   4.785  0.1652 -0.5474  0.2848
  798MOL0     C10041   1.360   8.717   4.989  0.6182  0.5174  0.2416
  798MOL0     C10042   1.347   8.828   5.069  0.7170 -0.9520 -0.4955
  798MOL0     C10043   1.220   8.887   5.089  0.3337  0.4074 -0.2825
  798MOL0     C10044   1.105   8.824   5.041  0.3161 -0.1551  0.1461
  798MOL0     O10045   0.986   8.881   5.080  0.0657  0.0661 -0.0245
  798MOL0     C10046   0.856   8.820   5.040 -0.8248  0.0187  0.1979
  798MOL0     C10047   0.742   8.912   5.085 -0.0031 -0.2621  0.3192
  798MOL0     C10048   0.607   8.890   5.008 -0.4292  0.2036 -0.6025
  798MOL0     C10049   0.487   8.961   5.061 -0.3926 -0.4588 -0.3370
  798MOL0     C10050   0.378   8.937   4.973 -0.3738  0.1691  0.8165
  798MOL0     C10051   0.284   8.917   4.900  0.4053 -0.3487 -0.0302
  798MOL0     C10052   1.114   8.704   4.983 -0.8336  0.9472  0.4838
  798MOL0     C10053   1.241   8.653   4.949 -0.6629  0.6794 -0.2844
  798MOL0     C10054   1.244   8.536   4.862 -0.2602  0.4456 -0.3436
  798MOL0     H10055   1.578   8.363   4.848 -1.9535  1.2783 -3.4417
  798MOL0     H10056   1.823   8.260   4.857  0.4388 -0.1454 -1.2995
  798MOL0     H10057   2.174   8.515   4.830 -2.7203 -1.5444  2.0153
  798MOL0     H10058   2.105   8.512   4.659  2.3746  0.9555 -0.6817
  798MOL0     H10059   2.283   8.305   4.771  0.7994 -0.4479 -0.2136
  798MOL0     H10060   2.216   8.314   4.603 -3.5408  2.4900 -0.2672
  798MOL0     H10061   2.344   8.536   4.562  4.4009  3.4947  1.8901
  798MOL0     H10062   2.389   8.532   4.729  2.4043  0.3984 -1.5660
  798MOL0     H10063   2.560   8.485   4.588 -0.5412 -0.8518  1.3114
  798MOL0     H10064   2.544   8.350   4.688  1.1296  0.3615 -0.0759
  798MOL0     H10065   2.468   8.383   4.401 -2.6826  0.2796  0.4963
  798MOL0     H10066   2.410   8.241   4.491  0.2194  0.3964 -0.4372
  798MOL0     H10067   2.706   8.324   4.439  2.1286 -1.7561 -1.5040
  798MOL0     H10068   2.659   8.188   4.561 -2.4449 -0.4437  0.4712
  798MOL0     H10069   2.681   8.210   4.274 -0.0540 -0.9268 -0.4929
  798MOL0     H10070   2.534   8.144   4.317 -0.3414 -3.4628  0.4567
  798MOL0     H10071   2.659   7.983   4.471 -0.2103 -0.4409 -0.3213
  798MOL0     H10072   2.687   7.951   4.303 -3.0186  0.2772  0.6831
  798MOL0     H10073   2.898   8.123   4.211 -0.4445  1.6073  0.4966
  798MOL0     H10074   3.223   8.227   4.336 -1.0844 -0.8036  1.1147
  798MOL0     H10075   3.138   8.194   4.186 -0.3822  1.2587  0.2016
  798MOL0     H10076   3.359   8.047   4.250 -0.0001 -0.8090  1.3322
  798MOL0     H10077   3.243   7.942   4.332 -0.4988  0.8731  0.8115
  798MOL0     H10078   3.123   7.920   4.100  0.8383  0.6761 -1.4388
  798MOL0     H10079   3.258   8.011   4.037 -0.4753 -0.1369  0.3921
  798MOL0     H10080   3.402   7.844   4.117 -0.1803 -2.5531  2.5372
  798MOL0     H10081   3.271   7.759   4.200 -0.5853  0.2385  0.7605
  798MOL0     H10082   3.309   7.726   3.749  1.8223  0.9980 -1.5658
  798MOL0     H10083   3.441   7.713   3.555 -0.8566 -0.3605  0.6014
  798MOL0     H10084   3.464   7.541   3.547 -0.9452 -0.2346  1.3764
  798MOL0     H10085   3.605   7.652   3.576  1.0727 -2.9590  0.1606
  798MOL0     H10086   3.850   7.173   3.890 -1.3500  1.1208 -0.3149
  798MOL0     H10087   4.027   7.051   3.808  2.1700  0.6309  1.3082
  798MOL0     H10088   4.241   6.998   3.766  0.5309  1.7561  0.2173
  798MOL0     H10089   4.127   6.960   3.628 -0.2962  0.7542 -0.3367
  798MOL0     H10090   4.328   6.821   3.612 -0.7591 -0.9577 -2.2814
  798MOL0     H10091   4.300   6.928   3.477 -0.9898 -2.5070 -0.1800
  798MOL0     H10092   4.487   7.030   3.690 -2.2101 -1.2529  0.3777
  798MOL0     H10093   4.470   7.079   3.526  0.2685  0.9875  0.0114
  798MOL0     H10094   4.546   6.834   3.447  1.0085 -2.0350  0.9555
  798MOL0     H10095   4.567   6.798   3.615 -2.0266  1.2285  2.4677
  798MOL0     H10096   4.788   6.849   3.497  1.4966  2.0066 -2.9275
  798MOL0     H10097   4.730   7.008   3.452  1.2970  0.1053  1.3034
  798MOL0     H10098   4.746   7.080   3.696  2.1238  0.8391  0.1969
  798MOL0     H10099   4.898   7.023   3.635  0.7222 -1.4990 -0.0622
  798MOL0     H10100   4.856   6.793   3.704  0.8885 -0.0443 -0.3110
  798MOL0     H10101   4.712   6.840   3.792  0.7506 -1.0110 -0.9583
  798MOL0     H10102   4.891   6.847   3.950  3.1934  0.1473 -0.0685
  798MOL0     H10103   4.861   7.010   3.912  0.4640  1.1188 -1.9613
  798MOL0     H10104   4.165   7.407   3.590  1.2838 -0.3377  2.0242
  798MOL0     H10105   3.979   7.525   3.680 -0.9633 -0.3971  0.2341
  798MOL0     H10106   3.640   7.477   4.010 -0.4411  0.6129 -0.1437
  798MOL0     H10107   3.461   7.588   4.128  0.6396 -0.2553  0.7174
  798MOL0     H10108   1.978   8.649   4.785 -1.2416  1.6586 -1.8002
  798MOL0     H10109   1.752   8.739   4.781 -0.8272 -0.6368  1.0450
  798MOL0     H10110   1.435   8.874   5.114 -0.3885  1.3172 -0.5313
  798MOL0     H10111   1.215   8.981   5.143 -0.7937 -0.0061  0.3592
  798MOL0     H10112   0.855   8.813   4.931  0.9000 -1.9624  0.2527
  798MOL0     H10113   0.837   8.723   5.087 -0.3744 -1.1650 -1.9417
  798MOL0     H10114   0.775   9.013   5.059 -0.3095 -0.6437 -1.6890
  798MOL0     H10115   0.723   8.893   5.191  0.3623 -0.9826  0.2605
  798MOL0     H10116   0.620   8.911   4.901 -1.7107  0.3709 -0.7351
  798MOL0     H10117   0.582   8.783   5.007  1.6065 -0.3137 -0.6299
  798MOL0     H10118   0.512   9.068   5.053 -1.9379  0.0553  1.1916
  798MOL0     H10119   0.464   8.933   5.164  1.4313  2.0413  0.8756
  798MOL0     H10120   0.196   8.895   4.844  2.3797 -1.6162 -2.8625
  798MOL0     H10121   1.024   8.645   4.974 -0.8385  1.1776 -1.5944
  798MOL0     H10122   1.271   8.575   4.763  0.7932  1.6305  0.3863
  798MOL0     H10123   1.329   8.471   4.889  0.1287  1.7979  1.9220
  798MOL0     H10124   1.149   8.482   4.871 -0.7169  1.5114  1.9005
  799MOL0     O10125   3.084  10.699   3.510  0.0865 -0.0848 -0.4060
  799MOL0     C10126   2.992  10.674   3.596 -0.0650 -0.8330  0.8194
  799MOL0     O10127   2.975  10.737   3.711 -0.4395  0.1989  0.0362
  799MOL0     C10128   3.056  10.847   3.748 -0.4032 -0.2367  0.0045
  799MOL0     C10129   3.007  10.944   3.839 -0.1246 -0.1009  0.6696
  799MOL0     C10130   3.082  11.057   3.881 -0.0357 -0.0424  0.0846
  799MOL0     C10131   3.208  11.080   3.825  0.2897 -0.3803 -0.0963
  799MOL0     O10132   3.278  11.191   3.868  0.0132 -0.1080  0.0342
  799MOL0     C10133   3.424  11.183   3.850 -0.5104  0.5568  0.3717
  799MOL0     C10134   3.493  11.298   3.905  0.3129  0.1560 -0.8351
  799MOL0     C10135   3.432  11.360   4.034  0.2358 -0.0980  0.4036
  799MOL0     C10136   3.506  11.499   4.052  0.1320 -0.5311  0.4131
  799MOL0     C10137   3.454  11.576   4.178  0.4842 -0.3190 -0.5867
  799MOL0     C10138   3.539  11.700   4.204  0.6882  0.2851  0.4427
  799MOL0     C10139   3.487  11.791   4.316 -0.5946  0.8738 -0.8250
  799MOL0     C10140   3.449  11.726   4.443  0.9885 -0.2690 -0.3463
  799MOL0     N10141   3.562  11.653   4.503  0.3194 -0.6059 -0.0614
  799MOL0     C10142   3.687  11.707   4.528  0.5673 -0.2646  0.2503
  799MOL0     C10143   3.761  11.609   4.570 -0.1849 -0.0915 -0.5810
  799MOL0     C10144   3.902  11.619   4.616  0.3427 -0.0414 -0.5965
  799MOL0     C10145   3.914  11.641   4.767  0.8214  0.3173 -0.4339
  799MOL0     C10146   4.044  11.729   4.800  0.3860  0.5653  0.2865
  799MOL0     C10147   4.167  11.648   4.757 -0.3481 -0.5299 -0.6390
  799MOL0     O10148   4.278  11.742   4.772 -0.6278  0.6036 -0.7647
  799MOL0     C10149   4.406  11.701   4.736  0.9016  0.3913  0.0023
  799MOL0     C10150   4.448  11.574   4.684  0.2121 -0.1158 -0.3310
  799MOL0     C10151   4.589  11.546   4.668  1.1531 -0.2779 -0.9419
  799MOL0     C10152   4.626  11.409   4.613  0.0197  0.3534 -0.0493
  799MOL0     C10153   4.680  11.644   4.709  0.9236 -0.4922 -1.0085
  799MOL0     C10154   4.825  11.614   4.715  0.2998  0.1873 -0.4521
  799MOL0     O10155   4.909  11.723   4.718  0.7805  1.0685 -0.7203
  799MOL0     C10156   5.043  11.719   4.696  1.6265 -0.4044 -0.0109
  799MOL0     C10157   5.119  11.600   4.686 -0.3223 -0.6067 -0.3442
  799MOL0     C10158   5.264  11.619   4.665 -0.0171 -0.0464 -1.1523
  799MOL0     C10159   5.325  11.744   4.641  0.5513  0.0261 -0.3198
  799MOL0     O10160   5.459  11.764   4.607  0.5684  0.1435 -0.8501
  799MOL0     C10161   5.524  11.645   4.549 -0.1915 -0.1741 -0.1222
  799MOL0     C10162   5.670  11.679   4.545  0.4756  0.1895 -0.0239
  799MOL0     C10163   5.749  11.564   4.482 -0.1592  0.3522  0.1266
  799MOL0     C10164   5.902  11.591   4.468 -0.4119 -0.1483  0.0936
  799MOL0     C10165   5.978  11.474   4.401  0.4316 -0.4959 -0.8021
  799MOL0     C10166   6.118  11.514   4.358  0.1838  0.2187  0.2186
  799MOL0     C10167   6.202  11.566   4.476  0.5192  0.0055  0.6132
  799MOL0     C10168   6.352  11.601   4.440 -0.4237 -0.7018 -0.7877
  799MOL0    Cl10169   6.391  11.519   4.290  0.0141  0.3721  0.4056
  799MOL0     C10170   5.242  11.855   4.636  0.4034  0.2642 -0.0509
  799MOL0     C10171   5.102  11.839   4.668 -1.1999 -0.4172 -0.4051
  799MOL0     O10172   4.857  11.504   4.748  0.5112  0.1770  0.5838
  799MOL0     C10173   4.636  11.774   4.760  0.7721  0.1014  1.2657
  799MOL0     C10174   4.498  11.797   4.761 -0.1562 -0.2488  0.0885
  799MOL0     N10175   3.693  11.492   4.564 -0.1538 -0.4358 -0.0507
  799MOL0     N10176   3.575  11.518   4.514  0.1865 -0.3224  0.5709
  799MOL0     C10177   3.264  10.983   3.738 -0.2307  0.4202 -0.2715
  799MOL0     C10178   3.192  10.871   3.707 -0.3303 -0.4351 -0.1998
  799MOL0     C10179   2.880  10.569   3.564 -0.6692 -0.4315  0.1390
  799MOL0     C10180   2.763  10.571   3.641  0.6836 -0.4939  0.4868
  799MOL0     C10181   2.659  10.485   3.616  0.1807 -0.8883  0.0562
  799MOL0     C10182   2.668  10.395   3.515 -0.2877  0.3976 -0.8759
  799MOL0     O10183   2.558  10.321   3.481 -0.0199  0.4801  0.0489
  799MOL0     C10184   2.476  10.249   3.576 -0.3593  0.1811  0.3246
  799MOL0     C10185   2.542  10.119   3.646  1.0835  0.1203 -0.1107
  799MOL0     C10186   2.614  10.023   3.552  0.3284 -0.2184  0.1039
  799MOL0     C10187   2.520   9.981   3.437  0.4003  0.3479 -0.3802
  799MOL0     C10188   2.389   9.916   3.471  0.1285  0.7802  0.1949
  799MOL0     C10189   2.278   9.879   3.501  0.7843  0.1776  0.3914
  799MOL0     C10190   2.794  10.379   3.449  0.0366 -0.5260  0.3410
  799MOL0     C10191   2.903  10.462   3.467 -1.0181  1.0340  0.3207
  799MOL0     C10192   3.040  10.432   3.406 -0.3454 -0.0792  0.4175
  799MOL0     H10193   2.914  10.918   3.888 -0.6236  1.9900  0.9127
  799MOL0     H10194   3.058  11.130   3.958  2.4232  0.1705  0.7351
  799MOL0     H10195   3.464  11.180   3.749 -0.3787 -0.2338  0.4460
  799MOL0     H10196   3.457  11.089   3.895 -1.2037 -1.0076 -2.1863
  799MOL0     H10197   3.598  11.271   3.919 -0.3974 -1.9058  0.9940
  799MOL0     H10198   3.494  11.371   3.824  3.0492  1.0784 -0.0701
  799MOL0     H10199   3.324  11.374   4.023 -0.0987 -1.0572  2.0038
  799MOL0     H10200   3.451  11.297   4.122  0.1696  0.4289  0.7987
  799MOL0     H10201   3.611  11.475   4.070  0.5410 -0.0798 -1.2049
  799MOL0     H10202   3.489  11.567   3.968  0.8137 -1.7552 -0.7516
  799MOL0     H10203   3.461  11.509   4.264 -3.6741 -1.7174 -1.0899
  799MOL0     H10204   3.346  11.585   4.167 -0.2624 -2.6209  3.1537
  799MOL0     H10205   3.637  11.663   4.234  1.7403  1.8280 -0.9034
  799MOL0     H10206   3.565  11.758   4.115  2.9100 -1.2418  0.0174
  799MOL0     H10207   3.399  11.840   4.275  0.0880  2.4928 -0.4334
  799MOL0     H10208   3.562  11.863   4.350 -0.8678  0.4148  0.8056
  799MOL0     H10209   3.433  11.812   4.509 -0.9483 -2.3796  2.1694
  799MOL0     H10210   3.357  11.666   4.446  0.5080  0.4352 -0.7054
  799MOL0     H10211   3.724  11.808   4.512  1.3715 -0.9821 -3.1997
  799MOL0     H10212   3.963  11.682   4.551  1.4913 -0.1044  0.3921
  799MOL0     H10213   3.937  11.518   4.593 -2.8155 -1.5124  0.4530
  799MOL0     H10214   3.822  11.693   4.794 -0.2533 -0.9025 -1.6476
  799MOL0     H10215   3.911  11.546   4.822  0.1065 -0.5839 -1.9567
  799MOL0     H10216   4.050  11.822   4.743 -2.1252  0.0499 -0.9630
  799MOL0     H10217   4.055  11.754   4.906 -0.5234  1.1396  0.2527
  799MOL0     H10218   4.192  11.568   4.828 -0.3938  0.3590  0.4095
  799MOL0     H10219   4.159  11.604   4.657  2.3196  0.3666 -1.3367
  799MOL0     H10220   4.385  11.486   4.673  1.1178 -0.8324  0.0947
  799MOL0     H10221   4.720  11.396   4.559 -1.2957  0.3490 -2.5209
  799MOL0     H10222   4.539  11.382   4.552 -0.6694 -2.5515  2.0002
  799MOL0     H10223   4.622  11.344   4.701 -2.2369  0.0999 -0.2739
  799MOL0     H10224   5.101  11.494   4.701 -1.1224 -0.5693 -1.0112
  799MOL0     H10225   5.334  11.537   4.646  3.0209  2.1756 -0.4247
  799MOL0     H10226   5.519  11.560   4.619 -2.7392  0.9161  1.1480
  799MOL0     H10227   5.480  11.619   4.452 -1.7731  1.5485  0.0848
  799MOL0     H10228   5.676  11.757   4.468 -2.7996  0.8104  0.2014
  799MOL0     H10229   5.716  11.717   4.637  1.2508  1.2145 -0.8069
  799MOL0     H10230   5.712  11.538   4.383  0.3572 -2.7531  0.6480
  799MOL0     H10231   5.744  11.479   4.551 -1.9451  0.2052 -0.1245
  799MOL0     H10232   5.945  11.611   4.566  2.1433 -0.5625 -0.8742
  799MOL0     H10233   5.930  11.682   4.412  1.2644 -0.5157  0.3031
  799MOL0     H10234   5.987  11.391   4.472 -1.9633 -0.0978  0.0570
  799MOL0     H10235   5.922  11.439   4.313 -1.8600  1.5284 -0.2522
  799MOL0     H10236   6.098  11.592   4.285 -4.0360 -0.0229  0.8515
  799MOL0     H10237   6.166  11.423   4.320 -2.1556 -0.2674 -1.8721
  799MOL0     H10238   6.194  11.485   4.550  1.9957 -0.6089  0.1397
  799MOL0     H10239   6.155  11.656   4.517  1.4838 -0.0955  2.0026
  799MOL0     H10240   6.428  11.576   4.515  0.9186  2.5364 -0.9041
  799MOL0     H10241   6.352  11.710   4.429 -0.6981 -0.6976 -0.7570
  799MOL0     H10242   5.296  11.947   4.618  1.0190 -0.2840 -1.0864
  799MOL0     H10243   5.042  11.928   4.685 -0.1912 -0.1315  2.0106
  799MOL0     H10244   4.711  11.848   4.784  0.4150  0.3559  1.6022
  799MOL0     H10245   4.462  11.894   4.794  0.9403  0.7569 -1.5311
  799MOL0     H10246   3.360  10.997   3.689 -0.7567  2.2556 -0.8438
  799MOL0     H10247   3.236  10.792   3.646 -1.7732  0.2971 -2.3021
  799MOL0     H10248   2.752  10.651   3.713  3.2744  0.3870 -0.0320
  799MOL0     H10249   2.564  10.493   3.670  0.9129  2.2182  1.1380
  799MOL0     H10250   2.452  10.313   3.662 -1.2307 -1.9721  1.7673
  799MOL0     H10251   2.382  10.217   3.531 -1.6118  0.6551  2.4205
  799MOL0     H10252   2.468  10.058   3.699 -0.2746  2.4529  0.8336
  799MOL0     H10253   2.621  10.144   3.717 -0.9498  2.0681  1.5898
  799MOL0     H10254   2.706  10.068   3.513 -0.9641  1.2854 -1.3508
  799MOL0     H10255   2.648   9.941   3.617 -4.2023 -0.3266  2.7341
  799MOL0     H10256   2.566   9.900   3.379 -2.4931 -0.2629 -1.9979
  799MOL0     H10257   2.508  10.060   3.363 -0.7395  0.1639 -0.3963
  799MOL0     H10258   2.179   9.849   3.527 -0.3808  3.2984 -0.0242
  799MOL0     H10259   2.802  10.300   3.374 -0.4330  0.7052 -1.0587
  799MOL0     H10260   3.052  10.468   3.304  2.1021 -0.0154  0.6672
  799MOL0     H10261   3.114  10.464   3.480 -3.0207 -0.4224  3.4963
  799MOL0     H10262   3.062  10.327   3.385  0.8503  0.1210  0.5818
  800MOL0     O10263   4.691   7.840   8.520  0.7020  0.2172  0.2997
  800MOL0     C10264   4.735   7.911   8.613 -0.0659 -0.3821  0.7126
  800MOL0     O10265   4.853   7.974   8.615  0.5729 -0.3918  0.1764
  800MOL0     C10266   4.939   7.934   8.513  0.4200  0.4472 -0.3803
  800MOL0     C10267   4.935   7.989   8.388  0.9143 -0.1785 -0.5893
  800MOL0     C10268   5.026   7.945   8.287  0.2276  0.2777  0.0183
  800MOL0     C10269   5.124   7.852   8.315 -0.2866  0.3451 -0.6612
  800MOL0     O10270   5.219   7.812   8.221  0.2344 -0.2684 -0.2471
  800MOL0     C10271   5.310   7.915   8.172 -0.6918  0.1704  0.1898
  800MOL0     C10272   5.456   7.860   8.150 -0.5032  0.7268 -0.5525
  800MOL0     C10273   5.542   7.978   8.098  0.5921 -0.0492 -0.3739
  800MOL0     C10274   5.695   7.934   8.086 -0.0234  0.9047 -0.4789
  800MOL0     C10275   5.779   8.049   8.048 -0.0930  0.3231  0.4840
  800MOL0     C10276   5.921   8.005   8.017  0.5029  0.0604 -0.0645
  800MOL0     C10277   6.004   8.118   7.966 -0.4618 -0.0680 -0.9833
  800MOL0     C10278   6.144   8.108   8.031  0.7267 -0.7136  0.2136
  800MOL0     N10279   6.213   7.978   8.003  0.2459 -0.4681 -0.1200
  800MOL0     C10280   6.305   7.919   8.083  0.2530  0.2029 -0.0329
  800MOL0     C10281   6.384   7.851   7.993 -0.0635 -0.7415 -0.3144
  800MOL0     C10282   6.501   7.772   8.035 -0.5065 -0.3228  0.5558
  800MOL0     C10283   6.626   7.839   7.990  0.5220  0.0972  0.0274
  800MOL0     C10284   6.739   7.729   7.981 -0.3794 -0.0333  0.5605
  800MOL0     C10285   6.853   7.791   7.895 -0.6378 -0.0078 -0.6969
  800MOL0     O10286   6.894   7.909   7.969  0.1066 -0.7819 -0.6447
  800MOL0     C10287   7.001   7.896   8.053 -0.2504  0.7231  0.2796
  800MOL0     C10288   7.079   7.779   8.085 -0.1590 -0.6148 -0.5678
  800MOL0     C10289   7.188   7.779   8.179  0.4427 -0.2409  0.0497
  800MOL0     C10290   7.259   7.646   8.183  1.2014  0.1280 -0.3216
  800MOL0     C10291   7.235   7.904   8.239  0.0297  0.5966 -0.1822
  800MOL0     C10292   7.365   7.911   8.316  0.5484 -0.2189  0.5053
  800MOL0     O10293   7.414   8.038   8.347  0.2524  0.4908 -0.9404
  800MOL0     C10294   7.509   8.043   8.452 -0.1363 -0.6160  0.9302
  800MOL0     C10295   7.636   8.102   8.427 -0.1824  1.0899  0.2319
  800MOL0     C10296   7.729   8.113   8.530  0.4060  0.3131  0.5834
  800MOL0     C10297   7.696   8.069   8.664  0.8054 -0.7808  0.6091
  800MOL0     O10298   7.802   8.083   8.749  0.3304  0.2493 -0.4620
  800MOL0     C10299   7.790   8.103   8.896 -0.2456 -0.1854  0.3903
  800MOL0     C10300   7.901   8.019   8.966 -0.3041 -0.0089  0.4637
  800MOL0     C10301   7.898   8.021   9.120 -1.0567  0.1979  1.3261
  800MOL0     C10302   8.040   8.012   9.178  0.0951 -0.4531 -0.2730
  800MOL0     C10303   8.048   8.061   9.324 -0.1499  0.0682  0.4453
  800MOL0     C10304   8.161   8.001   9.404 -0.3089  0.8206 -0.0258
  800MOL0     C10305   8.309   8.048   9.374 -0.2502  0.7631  0.0543
  800MOL0     C10306   8.331   8.196   9.321 -0.6936 -0.1493 -0.0290
  800MOL0    Cl10307   8.513   8.204   9.278 -0.4041 -0.3692 -0.2410
  800MOL0     C10308   7.577   8.011   8.685  0.4043 -0.2642 -0.3328
  800MOL0     C10309   7.483   8.003   8.579 -0.1484  0.5537 -0.0662
  800MOL0     O10310   7.415   7.805   8.349 -0.0451  0.6955  0.1209
  800MOL0     C10311   7.148   8.011   8.219  0.4079 -0.2828  0.2445
  800MOL0     C10312   7.029   8.005   8.136 -0.0369  0.2072  0.4946
  800MOL0     N10313   6.328   7.849   7.875 -0.8380  0.4196  0.4629
  800MOL0     N10314   6.231   7.925   7.877 -0.1164  1.2456 -0.0614
  800MOL0     C10315   5.131   7.797   8.444  0.5151 -0.1494  0.5301
  800MOL0     C10316   5.031   7.835   8.534  0.2974 -0.0394 -0.7568
  800MOL0     C10317   4.655   7.936   8.734  0.7366  0.0102 -1.0044
  800MOL0     C10318   4.521   7.969   8.706 -0.6487  1.0864  0.6145
  800MOL0     C10319   4.429   7.971   8.810  0.0913 -0.1256 -1.2544
  800MOL0     C10320   4.468   7.962   8.944  0.1137  0.3638  0.5714
  800MOL0     O10321   4.360   7.966   9.022  0.1829  0.8333 -0.0539
  800MOL0     C10322   4.376   8.011   9.158 -0.1019  0.0661 -0.3813
  800MOL0     C10323   4.245   8.076   9.210 -1.0012 -0.2894 -0.4587
  800MOL0     C10324   4.135   7.974   9.218  0.0353  0.1314 -0.3189
  800MOL0     C10325   4.025   8.049   9.309  0.2029 -0.5986  0.3412
  800MOL0     C10326   3.892   8.005   9.315 -1.2069 -0.1797 -0.2186
  800MOL0     C10327   3.779   7.962   9.314  0.5268  0.0416 -0.2601
  800MOL0     C10328   4.607   7.960   8.969  0.4514  0.4299 -0.3536
  800MOL0     C10329   4.702   7.934   8.870 -0.1784 -0.0589  0.4788
  800MOL0     C10330   4.842   7.915   8.918  0.4442 -0.5192 -0.1741
  800MOL0     H10331   4.859   8.066   8.378  2.1165  2.1755  4.9122
  800MOL0     H10332   5.023   7.972   8.182 -0.4892 -0.6052 -0.1966
  800MOL0     H10333   5.319   7.995   8.247  1.5182 -1.1323  1.4001
  800MOL0     H10334   5.287   7.949   8.071  1.7727  0.2609 -0.3888
  800MOL0     H10335   5.500   7.823   8.243  0.5920  1.6494 -0.6711
  800MOL0     H10336   5.449   7.784   8.072 -0.2966  0.8037 -0.6470
  800MOL0     H10337   5.502   8.024   8.007  0.3259 -0.0057 -0.2376
  800MOL0     H10338   5.545   8.054   8.176  2.5000 -0.8676  0.4209
  800MOL0     H10339   5.727   7.887   8.180 -1.6670 -2.1403 -1.3080
  800MOL0     H10340   5.707   7.852   8.015 -4.3762  1.5699 -2.3281
  800MOL0     H10341   5.785   8.117   8.133  1.3971  0.7067  0.1107
  800MOL0     H10342   5.727   8.092   7.961 -0.1639  0.4357  0.5820
  800MOL0     H10343   5.964   7.962   8.108  0.7199  2.2442  0.9197
  800MOL0     H10344   5.932   7.924   7.944 -1.7393  1.2682 -1.8686
  800MOL0     H10345   5.969   8.218   7.991 -0.8056 -0.2325 -0.7983
  800MOL0     H10346   6.017   8.105   7.859  1.7807 -0.0935 -0.7552
  800MOL0     H10347   6.204   8.189   7.989  0.0463 -0.8043 -0.9666
  800MOL0     H10348   6.143   8.127   8.139 -1.6041 -2.8810  0.6852
  800MOL0     H10349   6.312   7.935   8.190  0.8770  1.5729 -0.2477
  800MOL0     H10350   6.487   7.674   7.990  1.3196  0.1548 -1.2032
  800MOL0     H10351   6.493   7.759   8.143  1.2891 -1.0443  0.6318
  800MOL0     H10352   6.624   7.884   7.891  1.9072  0.6724  0.2301
  800MOL0     H10353   6.658   7.906   8.070 -0.3106 -0.2521  0.6674
  800MOL0     H10354   6.783   7.708   8.079  1.0761 -1.4815 -0.3621
  800MOL0     H10355   6.697   7.638   7.936  1.9876 -1.0337  0.2669
  800MOL0     H10356   6.929   7.712   7.895  0.8750  1.3560  1.1911
  800MOL0     H10357   6.827   7.818   7.792  2.0027  0.0009 -1.4187
  800MOL0     H10358   7.081   7.684   8.033  3.1957  0.2998 -2.3820
  800MOL0     H10359   7.243   7.601   8.282 -0.7282  0.4764 -0.4471
  800MOL0     H10360   7.364   7.665   8.157  1.2591 -0.0822 -0.2421
  800MOL0     H10361   7.220   7.569   8.116  1.7314 -0.9867  0.6076
  800MOL0     H10362   7.668   8.150   8.335 -2.6804  0.3666 -1.1061
  800MOL0     H10363   7.820   8.169   8.515 -0.8413  1.8826 -1.6587
  800MOL0     H10364   7.810   8.209   8.912  1.2271  0.0137 -2.1793
  800MOL0     H10365   7.686   8.082   8.922 -0.1770 -1.0034  0.0354
  800MOL0     H10366   7.895   7.919   8.922  0.4594  1.5331 -3.5251
  800MOL0     H10367   7.999   8.048   8.928 -0.5474 -3.4358 -3.4594
  800MOL0     H10368   7.842   7.931   9.148 -0.1271 -1.3128 -1.3541
  800MOL0     H10369   7.855   8.115   9.157  0.3137  1.5955 -0.4447
  800MOL0     H10370   8.104   8.077   9.118  0.8725 -0.2360  0.7725
  800MOL0     H10371   8.071   7.909   9.158  0.8761 -0.2798  0.0124
  800MOL0     H10372   8.047   8.171   9.329  0.1467  0.1190 -0.4351
  800MOL0     H10373   7.953   8.035   9.371 -0.7026 -0.5814 -0.9691
  800MOL0     H10374   8.158   7.892   9.391 -2.7538  0.8857 -0.5462
  800MOL0     H10375   8.149   8.017   9.511  2.9794 -0.4493  0.6629
  800MOL0     H10376   8.357   7.974   9.309  1.0440  0.1399  1.6504
  800MOL0     H10377   8.366   8.033   9.466 -1.6756 -2.2704  0.5567
  800MOL0     H10378   8.310   8.271   9.398  1.7868  1.8835 -1.1774
  800MOL0     H10379   8.276   8.204   9.227  1.7841  0.4456 -1.5327
  800MOL0     H10380   7.541   7.973   8.780 -0.7824 -0.9135 -1.0327
  800MOL0     H10381   7.395   7.940   8.592 -0.3404  0.5345 -1.2942
  800MOL0     H10382   7.174   8.104   8.269 -2.3202  1.3402 -1.1627
  800MOL0     H10383   6.972   8.096   8.121  1.3807  1.5595  2.6978
  800MOL0     H10384   5.201   7.718   8.469  1.2919  1.3072  3.4647
  800MOL0     H10385   5.023   7.787   8.631 -1.7658  1.5913 -0.0299
  800MOL0     H10386   4.476   7.971   8.607 -1.3207 -1.9365  0.7676
  800MOL0     H10387   4.324   7.985   8.786 -0.3457 -0.7016  0.2037
  800MOL0     H10388   4.406   7.917   9.205  3.0236  1.3040  0.3215
  800MOL0     H10389   4.460   8.074   9.188  2.2012 -2.3765 -1.3471
  800MOL0     H10390   4.220   8.143   9.127  0.4517 -0.0158 -0.6895
  800MOL0     H10391   4.255   8.129   9.305  3.3583  0.2651 -1.0410
  800MOL0     H10392   4.097   7.966   9.116  4.9299  2.7638 -2.6812
  800MOL0     H10393   4.162   7.873   9.252 -0.2614  0.1718  0.0389
  800MOL0     H10394   4.027   8.152   9.272  2.2952 -1.2299 -1.6055
  800MOL0     H10395   4.055   8.041   9.414 -2.8194 -2.6982  1.1531
  800MOL0     H10396   3.679   7.924   9.317 -0.2663  1.9930 -0.3654
  800MOL0     H10397   4.632   7.954   9.074 -1.5763  0.1737  0.1653
  800MOL0     H10398   4.856   7.807   8.920  2.0180 -0.3353 -0.1593
  800MOL0     H10399   4.915   7.950   8.843  1.4865 -0.8261  0.6778
  800MOL0     H10400   4.864   7.954   9.018 -0.1517  0.2962 -0.3472
  801MOL0     O10401   0.182  10.908  10.322 -0.3945 -0.2674  0.5552
  801MOL0     C10402   0.109  10.933  10.410  0.6746 -0.0712 -0.8363
  801MOL0     O10403   0.148  10.921  10.542 -0.6531  0.8066  0.2118
  801MOL0     C10404   0.272  10.872  10.577 -0.1541  0.4055  0.1496
  801MOL0     C10405   0.283  10.759  10.665 -0.2594 -0.5093  0.3600
  801MOL0     C10406   0.407  10.707  10.708 -0.0256 -0.3441  0.1522
  801MOL0     C10407   0.528  10.764  10.657 -0.7050 -0.1307  0.6643
  801MOL0     O10408   0.654  10.718  10.703 -0.1403  0.1974 -0.0479
  801MOL0     C10409   0.699  10.582  10.672  0.0666  0.1137 -0.0084
  801MOL0     C10410   0.750  10.481  10.778  0.5651 -0.6520  0.2438
  801MOL0     C10411   0.881  10.521  10.849 -0.6697  0.4227  0.4033
  801MOL0     C10412   1.007  10.478  10.769 -1.1393 -0.1793  0.0834
  801MOL0     C10413   1.139  10.553  10.815  0.5044  0.8824  0.1263
  801MOL0     C10414   1.153  10.520  10.968  0.6059 -0.2772  0.4021
  801MOL0     C10415   1.298  10.525  11.020  0.7922 -0.2162 -1.2056
  801MOL0     C10416   1.367  10.650  10.959  0.8855  0.0273 -0.6394
  801MOL0     N10417   1.511  10.654  10.992  0.1663 -0.1744  0.3208
  801MOL0     C10418   1.579  10.737  11.078  0.1837  0.0331 -0.8095
  801MOL0     C10419   1.708  10.711  11.057 -1.3484  0.1372  0.2402
  801MOL0     C10420   1.827  10.781  11.115  0.9685 -0.5712 -0.5833
  801MOL0     C10421   1.939  10.796  11.015 -0.5276  0.4492  0.1816
  801MOL0     C10422   2.050  10.885  11.064 -0.5039  0.0215  0.2043
  801MOL0     C10423   2.147  10.929  10.960  0.0691  0.3267  0.3876
  801MOL0     O10424   2.252  10.828  10.951 -0.4102 -0.1025  0.5681
  801MOL0     C10425   2.374  10.863  10.887 -0.0148 -0.6179  0.6966
  801MOL0     C10426   2.475  10.785  10.929 -0.1822  0.0099  0.0236
  801MOL0     C10427   2.600  10.805  10.885 -0.5319  0.3099 -0.2846
  801MOL0     C10428   2.705  10.708  10.930 -0.0267 -0.0764 -0.6564
  801MOL0     C10429   2.632  10.917  10.809  0.0343  0.1543  0.4599
  801MOL0     C10430   2.774  10.941  10.749  0.3095  0.5426  1.7387
  801MOL0     O10431   2.773  10.974  10.622  0.2392  0.1029 -0.2520
  801MOL0     C10432   2.878  11.046  10.562 -0.3852  0.4177 -0.2694
  801MOL0     C10433   2.876  11.037  10.426  0.2098 -0.3387  0.0262
  801MOL0     C10434   2.970  11.100  10.347 -0.1532  0.1562 -0.0372
  801MOL0     C10435   3.086  11.156  10.407  0.2152 -0.1432 -0.0728
  801MOL0     O10436   3.181  11.217  10.317 -0.3610  0.0382  0.4776
  801MOL0     C10437   3.315  11.260  10.361 -0.4655 -0.0985  0.9744
  801MOL0     C10438   3.379  11.361  10.257  1.0168  0.2111 -0.5436
  801MOL0     C10439   3.486  11.465  10.308 -0.9807 -0.2234  0.6711
  801MOL0     C10440   3.612  11.385  10.353 -0.0464  1.0205  0.1937
  801MOL0     C10441   3.715  11.478  10.414 -0.6736 -0.6726 -0.7296
  801MOL0     C10442   3.802  11.401  10.519  0.7354 -0.6921 -0.2479
  801MOL0     C10443   3.853  11.280  10.442 -0.0875 -0.5029 -0.0739
  801MOL0     C10444   3.988  11.250  10.508 -0.0540  0.0503  0.3168
  801MOL0    Cl10445   4.057  11.103  10.420  0.4159 -0.0079 -0.0827
  801MOL0     C10446   3.089  11.167  10.546  0.0588  0.0826  0.7332
  801MOL0     C10447   2.986  11.112  10.631  0.4422  0.5267  0.0130
  801MOL0     O10448   2.873  10.909  10.812 -0.0898  0.2147 -0.3247
  801MOL0     C10449   2.521  10.993  10.759 -0.4718 -0.0593  0.4262
  801MOL0     C10450   2.395  10.976  10.804  0.2865  0.3334 -0.1112
  801MOL0     N10451   1.720  10.602  10.971 -1.0811  0.0284  0.2737
  801MOL0     N10452   1.603  10.567  10.926 -0.5784 -0.6153  0.5519
  801MOL0     C10453   0.521  10.874  10.578  1.0903  0.2076  0.4932
  801MOL0     C10454   0.399  10.925  10.538  0.8183  0.1262 -0.5087
  801MOL0     C10455  -0.034  10.965  10.386 -0.0302  0.5360  0.0247
  801MOL0     C10456  -0.125  10.943  10.490  0.0241  0.9920 -0.0666
  801MOL0     C10457  -0.257  10.984  10.480 -0.1161 -0.3734 -1.0853
  801MOL0     C10458  -0.302  11.046  10.366 -0.2179 -0.2327  0.2470
  801MOL0     O10459  -0.430  11.051  10.332  0.1633  0.2070  0.0407
  801MOL0     C10460  -0.523  11.067  10.441  0.6984  0.0172 -0.5369
  801MOL0     C10461  -0.662  11.124  10.407 -0.2243  0.1586  0.4081
  801MOL0     C10462  -0.647  11.276  10.377 -0.2094 -0.5235 -0.2217
  801MOL0     C10463  -0.642  11.291  10.224 -0.1287  0.4095  1.1740
  801MOL0     C10464  -0.766  11.262  10.158  0.1278 -0.0215 -0.5461
  801MOL0     C10465  -0.859  11.223  10.102 -0.1078  0.1607 -0.6628
  801MOL0     C10466  -0.217  11.069  10.263  0.0253  0.1812  0.1706
  801MOL0     C10467  -0.084  11.030  10.269 -0.9371 -1.1404  0.9808
  801MOL0     C10468   0.008  11.064  10.151 -0.0564  1.1419  0.6302
  801MOL0     H10469   0.192  10.704  10.688  0.8353 -2.4999  0.1366
  801MOL0     H10470   0.393  10.621  10.773 -0.8931 -1.0831 -0.9575
  801MOL0     H10471   0.786  10.595  10.606  2.0760  1.4186  2.7126
  801MOL0     H10472   0.626  10.538  10.603  0.3271  1.6081 -1.3016
  801MOL0     H10473   0.677  10.460  10.857 -1.2435  1.6286 -0.7101
  801MOL0     H10474   0.768  10.391  10.720 -1.1130 -0.0280 -1.3407
  801MOL0     H10475   0.886  10.628  10.871  2.6787  0.4583 -0.0580
  801MOL0     H10476   0.882  10.475  10.948 -2.9620 -1.3955 -0.3200
  801MOL0     H10477   1.020  10.370  10.786 -0.3608 -0.4692 -1.9859
  801MOL0     H10478   0.996  10.495  10.661  0.1475 -2.5093 -0.5015
  801MOL0     H10479   1.146  10.659  10.792  0.7116  0.5510 -1.4512
  801MOL0     H10480   1.216  10.503  10.755 -0.0850 -1.4301  1.1515
  801MOL0     H10481   1.092  10.594  11.021  1.7143  0.9705  0.0095
  801MOL0     H10482   1.113  10.422  10.995  0.2765 -0.2292  0.0958
  801MOL0     H10483   1.341  10.429  10.989  2.7542  0.3875 -0.4950
  801MOL0     H10484   1.305  10.526  11.129 -1.0745 -4.0599 -0.8601
  801MOL0     H10485   1.351  10.654  10.851 -0.7041 -2.9505 -0.6291
  801MOL0     H10486   1.322  10.740  10.999  0.7777 -0.7983  1.2012
  801MOL0     H10487   1.537  10.818  11.137 -2.1422 -0.8237 -1.1980
  801MOL0     H10488   1.864  10.734  11.206  1.5964  3.2121  1.3095
  801MOL0     H10489   1.796  10.880  11.151  1.8707 -0.6534  0.4693
  801MOL0     H10490   1.972  10.697  10.983 -3.3630 -1.2293  2.0132
  801MOL0     H10491   1.901  10.843  10.924 -0.0534  0.5828  0.0528
  801MOL0     H10492   2.012  10.979  11.106  2.2094  1.3722 -0.1413
  801MOL0     H10493   2.106  10.833  11.142 -2.8475  0.0800  2.0332
  801MOL0     H10494   2.099  10.940  10.862 -0.4662 -3.6445  0.0112
  801MOL0     H10495   2.196  11.021  10.991  1.3336  0.3283 -1.4603
  801MOL0     H10496   2.448  10.708  11.000  2.9136 -0.8682  0.3970
  801MOL0     H10497   2.760  10.748  11.015  0.2576 -1.5448 -0.1167
  801MOL0     H10498   2.770  10.671  10.851 -0.0996 -0.7551 -0.4111
  801MOL0     H10499   2.651  10.621  10.970 -0.4123  0.2475 -0.4675
  801MOL0     H10500   2.794  10.986  10.377  0.6499 -0.1857 -0.8944
  801MOL0     H10501   2.958  11.097  10.239 -1.3733 -0.0118  0.0883
  801MOL0     H10502   3.306  11.330  10.444  0.0623  3.6392 -1.8304
  801MOL0     H10503   3.379  11.176  10.391 -2.2599 -1.8767  0.0682
  801MOL0     H10504   3.416  11.310  10.168 -2.2643 -0.6684 -1.5458
  801MOL0     H10505   3.298  11.421  10.216  1.4038 -0.1941 -1.9464
  801MOL0     H10506   3.446  11.529  10.387 -1.8637  0.9339 -0.6655
  801MOL0     H10507   3.506  11.528  10.221  1.2431 -0.0964  1.2097
  801MOL0     H10508   3.650  11.327  10.268 -0.5583  1.4932 -0.3545
  801MOL0     H10509   3.572  11.316  10.428  1.2038  0.5296  0.4437
  801MOL0     H10510   3.774  11.525  10.334  2.1287 -0.3949  1.3642
  801MOL0     H10511   3.668  11.563  10.465  1.3963  1.2260 -1.8031
  801MOL0     H10512   3.735  11.377  10.602  0.4195  2.7947  0.6737
  801MOL0     H10513   3.884  11.455  10.566  0.2611 -1.2553  1.2819
  801MOL0     H10514   3.870  11.296  10.335  2.5134 -0.6812  0.2351
  801MOL0     H10515   3.789  11.191  10.452  1.0765 -1.2268  1.3287
  801MOL0     H10516   3.970  11.245  10.616 -3.6825 -0.1723 -0.1721
  801MOL0     H10517   4.048  11.337  10.484 -0.6948 -0.2131 -2.5815
  801MOL0     H10518   3.162  11.227  10.599  2.4717 -0.3125 -1.8703
  801MOL0     H10519   2.992  11.121  10.739  1.0737 -2.2274  0.2825
  801MOL0     H10520   2.536  11.076  10.691 -2.2302  2.1038  2.4777
  801MOL0     H10521   2.313  11.042  10.780 -1.0091 -2.0486 -2.8405
  801MOL0     H10522   0.612  10.923  10.548  0.8804  0.4008  0.1720
  801MOL0     H10523   0.396  11.022  10.489  2.6688 -0.5312 -2.0239
  801MOL0     H10524  -0.094  10.900  10.585  0.1906  0.1936 -0.4786
  801MOL0     H10525  -0.312  10.966  10.572  1.2194  0.1366 -0.1630
  801MOL0     H10526  -0.547  10.971  10.487 -2.2897  0.8415 -0.1236
  801MOL0     H10527  -0.479  11.132  10.518  1.4241 -1.9443  0.7864
  801MOL0     H10528  -0.720  11.123  10.500  0.6035  1.4146  0.9636
  801MOL0     H10529  -0.726  11.076  10.332 -0.2728 -0.1726  0.6577
  801MOL0     H10530  -0.727  11.332  10.425  2.9188  3.1391  1.2629
  801MOL0     H10531  -0.551  11.309  10.418  1.0554 -1.8297 -1.9504
  801MOL0     H10532  -0.561  11.227  10.186 -1.7395 -0.7021 -0.5305
  801MOL0     H10533  -0.626  11.395  10.193 -2.3087 -0.0726 -1.9989
  801MOL0     H10534  -0.950  11.178  10.068 -1.4167  2.2870 -0.2154
  801MOL0     H10535  -0.253  11.109  10.169  3.4753  0.6195 -1.1117
  801MOL0     H10536  -0.035  11.139  10.084  0.4120  1.9137  1.1831
  801MOL0     H10537   0.100  11.116  10.180  0.3876  0.2420  0.8786
  801MOL0     H10538   0.032  10.975  10.092 -1.6298  1.2305 -0.2154
  802MOL0     O10539   3.202   4.165   3.564 -0.1673  0.1924  0.1811
  802MOL0     C10540   3.146   4.098   3.646  0.3304  0.4746 -0.1128
  802MOL0     O10541   3.208   4.028   3.744 -0.5281  0.4367  0.7655
  802MOL0     C10542   3.350   4.012   3.739 -0.0866  0.2182  0.6339
  802MOL0     C10543   3.437   4.018   3.627 -0.1968  1.1443 -0.5312
  802MOL0     C10544   3.575   4.009   3.641 -0.5554  0.3177  0.5794
  802MOL0     C10545   3.628   3.987   3.774 -0.0619  0.1796  0.5967
  802MOL0     O10546   3.763   3.968   3.775 -0.1329 -0.7555  0.1321
  802MOL0     C10547   3.824   3.995   3.902  0.4858  0.3162 -0.3816
  802MOL0     C10548   3.978   3.990   3.874 -0.2468 -0.4762 -0.2561
  802MOL0     C10549   4.058   3.994   4.005  0.6297 -0.3637  0.0710
  802MOL0     C10550   4.121   3.865   4.053 -0.6721  0.0792 -0.2292
  802MOL0     C10551   4.188   3.879   4.197 -0.1888  0.2381  1.1200
  802MOL0     C10552   4.329   3.941   4.187  0.1049  0.4087  0.3084
  802MOL0     C10553   4.392   3.955   4.330  0.1961  0.1065  0.1382
  802MOL0     C10554   4.529   4.020   4.331  0.1310  0.4020  0.3798
  802MOL0     N10555   4.559   4.051   4.473  0.1779 -0.1475  0.4890
  802MOL0     C10556   4.625   3.958   4.559  0.2734 -0.2686 -0.3047
  802MOL0     C10557   4.634   4.035   4.674 -0.3661  0.7742  1.5470
  802MOL0     C10558   4.706   3.974   4.796  0.7634  0.3441 -0.5997
  802MOL0     C10559   4.845   4.035   4.809 -0.4116 -0.9982  0.5415
  802MOL0     C10560   4.913   3.998   4.940 -0.6394  0.3685 -0.4814
  802MOL0     C10561   5.028   4.086   4.985 -0.7666  0.6121 -0.0289
  802MOL0     O10562   5.133   4.071   4.887  0.3272  0.8940  0.0325
  802MOL0     C10563   5.254   4.114   4.925  0.0573  0.1626  0.2322
  802MOL0     C10564   5.353   4.079   4.836  0.2875  0.4132 -0.1774
  802MOL0     C10565   5.490   4.101   4.852  0.2581  1.0080  0.7343
  802MOL0     C10566   5.585   4.037   4.747 -0.1354 -0.3215  0.1361
  802MOL0     C10567   5.527   4.177   4.965 -0.2299 -0.2760 -0.0651
  802MOL0     C10568   5.665   4.212   4.987 -0.2108 -0.5715 -0.4192
  802MOL0     O10569   5.761   4.118   4.975  0.0079  0.5830  0.0312
  802MOL0     C10570   5.892   4.156   4.983  0.6601 -0.4450 -0.3647
  802MOL0     C10571   5.943   4.260   4.898 -0.3598  0.0177 -0.6065
  802MOL0     C10572   6.078   4.298   4.899 -0.8593  0.1776 -1.1668
  802MOL0     C10573   6.167   4.248   5.002  0.3662 -0.3082  0.3718
  802MOL0     O10574   6.300   4.283   4.995  0.5734 -0.0415  0.4589
  802MOL0     C10575   6.392   4.247   5.095  0.1947  0.3592  0.4949
  802MOL0     C10576   6.537   4.278   5.046 -0.0478  0.2572  0.4170
  802MOL0     C10577   6.633   4.254   5.166 -1.2005  0.4081  0.1712
  802MOL0     C10578   6.775   4.326   5.141  0.0047 -0.0506 -0.2789
  802MOL0     C10579   6.858   4.247   5.040  0.5350  0.1646 -0.2490
  802MOL0     C10580   7.000   4.306   5.045  1.0986  0.3384 -0.7931
  802MOL0     C10581   7.061   4.338   4.902  0.4213  0.5724 -0.0694
  802MOL0     C10582   6.999   4.466   4.848  0.1533 -0.3873 -0.1082
  802MOL0    Cl10583   7.097   4.593   4.915 -0.0589  0.2966 -0.8189
  802MOL0     C10584   6.111   4.154   5.087  0.5203 -0.3759 -0.2354
  802MOL0     C10585   5.983   4.098   5.075  0.4434 -0.2662 -0.2399
  802MOL0     O10586   5.680   4.328   5.040  0.1074  0.3918  0.8661
  802MOL0     C10587   5.427   4.227   5.056 -0.5330  0.4398 -0.6757
  802MOL0     C10588   5.297   4.189   5.039 -0.0800  0.3480 -0.6262
  802MOL0     N10589   4.576   4.160   4.658  0.1666  0.7296  0.4578
  802MOL0     N10590   4.523   4.159   4.538 -0.0826 -0.0534 -0.1307
  802MOL0     C10591   3.547   3.988   3.886 -0.2750  0.3625  0.5777
  802MOL0     C10592   3.410   3.994   3.864 -0.1107 -0.3107  0.4063
  802MOL0     C10593   2.993   4.084   3.638 -0.1073  0.5304  1.5436
  802MOL0     C10594   2.930   4.015   3.736 -0.4032 -0.7198 -0.5186
  802MOL0     C10595   2.789   3.997   3.741  0.4333  0.2767 -0.3016
  802MOL0     C10596   2.711   4.062   3.648  0.0235 -0.3912 -0.0979
  802MOL0     O10597   2.576   4.069   3.644 -0.1147 -0.6442  0.3099
  802MOL0     C10598   2.507   4.072   3.769 -0.4689  0.2795 -0.5188
  802MOL0     C10599   2.388   4.168   3.758  0.4496  0.6376 -0.6205
  802MOL0     C10600   2.293   4.177   3.880 -0.5820  0.0245  0.6577
  802MOL0     C10601   2.207   4.063   3.907  0.1293  0.1546 -0.4079
  802MOL0     C10602   2.096   4.060   3.811 -0.2045  0.0690  0.1075
  802MOL0     C10603   2.001   4.070   3.732 -0.6654  0.5222 -0.5482
  802MOL0     C10604   2.778   4.112   3.539  0.3626 -0.1690  0.1326
  802MOL0     C10605   2.916   4.122   3.525 -0.8386 -0.3003 -0.8543
  802MOL0     C10606   2.969   4.197   3.408 -0.3320 -0.5635 -0.3273
  802MOL0     H10607   3.400   4.017   3.525 -1.0217  0.3694 -0.2447
  802MOL0     H10608   3.636   4.010   3.551  0.0885 -0.8603  0.9768
  802MOL0     H10609   3.801   3.906   3.960 -1.0557  1.3238  0.6142
  802MOL0     H10610   3.791   4.084   3.956  3.1295  0.2611  1.5443
  802MOL0     H10611   3.992   3.904   3.808  3.3832 -0.2021 -0.0244
  802MOL0     H10612   4.010   4.075   3.813  3.5452 -1.7962 -0.3707
  802MOL0     H10613   4.135   4.069   3.984 -0.9722  1.7065  1.2157
  802MOL0     H10614   4.004   4.042   4.088  0.9346  1.4146 -0.6988
  802MOL0     H10615   4.047   3.784   4.055 -0.4275 -0.1965  2.8584
  802MOL0     H10616   4.201   3.848   3.980 -0.8235 -0.2899 -0.3120
  802MOL0     H10617   4.185   3.779   4.240 -1.4330  0.1527  0.8600
  802MOL0     H10618   4.128   3.936   4.267  1.3512  0.1876  2.5362
  802MOL0     H10619   4.397   3.877   4.130  0.5929  2.3344 -1.3533
  802MOL0     H10620   4.321   4.044   4.151  3.8396  0.6067 -0.3591
  802MOL0     H10621   4.390   3.857   4.380 -0.0217  0.2758  0.4638
  802MOL0     H10622   4.324   4.027   4.376 -0.2778  0.2794 -0.8087
  802MOL0     H10623   4.607   3.955   4.290  0.5272  0.9544  0.2395
  802MOL0     H10624   4.530   4.106   4.263  0.5074 -0.8542 -1.2876
  802MOL0     H10625   4.662   3.859   4.535 -0.6488 -0.0177 -3.1946
  802MOL0     H10626   4.725   3.868   4.779  0.0366  0.4396 -2.0999
  802MOL0     H10627   4.646   3.990   4.886 -1.7945 -1.7674 -1.8065
  802MOL0     H10628   4.900   3.996   4.723 -0.9802  2.0137 -1.3578
  802MOL0     H10629   4.841   4.143   4.792 -1.0202 -1.2399 -1.0788
  802MOL0     H10630   4.849   3.995   5.029  0.3723 -0.4251  0.2385
  802MOL0     H10631   4.944   3.894   4.926  1.1974  0.4816  2.0874
  802MOL0     H10632   5.002   4.192   4.981  0.0735  0.8306  0.2049
  802MOL0     H10633   5.069   4.063   5.084  3.3784  1.9221 -1.2530
  802MOL0     H10634   5.318   4.021   4.751  0.4089  0.1351 -0.0422
  802MOL0     H10635   5.526   3.990   4.667 -0.3969 -1.5698  1.0278
  802MOL0     H10636   5.645   3.962   4.800 -3.3183 -2.9177  0.4459
  802MOL0     H10637   5.652   4.106   4.696 -1.2472  0.4635 -0.2959
  802MOL0     H10638   5.883   4.301   4.817 -0.4064 -1.3614 -1.3010
  802MOL0     H10639   6.103   4.388   4.843 -1.6520  1.3234  0.2212
  802MOL0     H10640   6.365   4.305   5.184 -1.7511 -2.2702  1.7414
  802MOL0     H10641   6.393   4.139   5.113 -0.0650  0.5897  2.0255
  802MOL0     H10642   6.556   4.215   4.959 -0.3392 -0.9937  1.2282
  802MOL0     H10643   6.545   4.384   5.020  3.9686  0.1996  0.7192
  802MOL0     H10644   6.639   4.147   5.185  0.9862  0.2451 -1.0509
  802MOL0     H10645   6.594   4.305   5.254 -1.7621  1.6325 -0.7478
  802MOL0     H10646   6.824   4.333   5.239  0.5766  0.5408 -0.5969
  802MOL0     H10647   6.773   4.428   5.102  3.3349  0.4766  0.6007
  802MOL0     H10648   6.860   4.141   5.064 -3.5075 -0.0935 -0.4103
  802MOL0     H10649   6.815   4.261   4.940  3.2434 -1.6600 -1.8272
  802MOL0     H10650   7.055   4.229   5.100 -1.4398  0.2406  1.8937
  802MOL0     H10651   6.991   4.398   5.104 -0.8488  0.7250 -1.6074
  802MOL0     H10652   7.041   4.257   4.832  0.3530 -0.0478  0.6618
  802MOL0     H10653   7.170   4.344   4.909  0.7392 -2.5547 -0.8733
  802MOL0     H10654   6.895   4.474   4.880  0.1941 -0.2251 -0.0118
  802MOL0     H10655   7.002   4.478   4.740 -1.9793 -0.4503 -0.2175
  802MOL0     H10656   6.173   4.111   5.165  1.7497  0.8218 -0.5276
  802MOL0     H10657   5.946   4.019   5.139  1.3559 -0.8618 -0.4313
  802MOL0     H10658   5.453   4.281   5.146 -2.9284 -0.8165  0.8553
  802MOL0     H10659   5.222   4.217   5.113  0.3496 -0.3434  0.0910
  802MOL0     H10660   3.581   3.970   3.988  1.3913  1.6887  0.2957
  802MOL0     H10661   3.332   4.003   3.939  0.6353  2.7367  0.9455
  802MOL0     H10662   2.982   3.967   3.818 -0.4631 -1.5612 -0.9619
  802MOL0     H10663   2.736   3.945   3.820 -0.4858  0.8441 -0.5284
  802MOL0     H10664   2.469   3.971   3.789  1.2187 -0.5649 -1.3604
  802MOL0     H10665   2.577   4.100   3.848 -1.1121  1.1990 -0.2586
  802MOL0     H10666   2.323   4.126   3.681 -0.6790 -1.6480  1.4561
  802MOL0     H10667   2.430   4.264   3.729  1.0048  0.5437 -0.1529
  802MOL0     H10668   2.367   4.186   3.960  0.9283  2.2152 -0.8733
  802MOL0     H10669   2.241   4.274   3.887 -1.3104 -0.4630  2.6062
  802MOL0     H10670   2.157   4.070   4.004 -0.4762  1.2239 -0.7793
  802MOL0     H10671   2.266   3.971   3.905 -1.6432 -1.1587  2.0297
  802MOL0     H10672   1.940   4.093   3.647  0.4130 -4.8687 -3.2331
  802MOL0     H10673   2.728   4.160   3.455  0.5261  0.9839  0.6709
  802MOL0     H10674   2.988   4.301   3.434  1.1816  0.3193 -4.2729
  802MOL0     H10675   3.059   4.156   3.362  0.5225 -0.4367  1.1831
  802MOL0     H10676   2.893   4.183   3.330 -1.1813  1.0699  0.1627
  803MOL0     O10677   9.308   7.443   6.801 -0.2600  0.2078  0.1853
  803MOL0     C10678   9.230   7.400   6.720  1.2924  0.1466 -0.2295
  803MOL0     O10679   9.265   7.355   6.597  0.9292  0.5721  0.1220
  803MOL0     C10680   9.394   7.369   6.562 -0.4518  0.7830  0.1845
  803MOL0     C10681   9.442   7.258   6.493  0.2391 -0.3910 -0.4354
  803MOL0     C10682   9.578   7.271   6.440 -1.2871  0.5786 -0.9186
  803MOL0     C10683   9.658   7.380   6.471 -0.0071  0.2935  0.7109
  803MOL0     O10684   9.791   7.376   6.426  0.0795  0.1953 -0.3794
  803MOL0     C10685   9.893   7.433   6.508 -0.2420 -0.4733  0.1885
  803MOL0     C10686   9.970   7.303   6.567  0.1817 -0.1375  0.1117
  803MOL0     C10687  10.105   7.328   6.629 -0.2499 -0.2659 -0.2135
  803MOL0     C10688  10.117   7.454   6.719  0.2426  0.5201  0.0134
  803MOL0     C10689  10.258   7.476   6.784  0.0403 -0.1584  0.0961
  803MOL0     C10690  10.360   7.538   6.689 -0.5581  0.4546 -0.2641
  803MOL0     C10691  10.502   7.535   6.740  0.0012 -1.0402 -0.1854
  803MOL0     C10692  10.587   7.406   6.728  0.3015  0.3300  0.1486
  803MOL0     N10693  10.702   7.410   6.825  0.0674  0.0371  0.4378
  803MOL0     C10694  10.832   7.460   6.798  0.1517 -0.2430  0.4076
  803MOL0     C10695  10.893   7.462   6.918  0.7441  0.9936 -0.3257
  803MOL0     C10696  11.024   7.506   6.963 -0.0009 -0.9791 -0.2789
  803MOL0     C10697  11.125   7.387   6.950 -0.3487  0.7575 -0.2842
  803MOL0     C10698  11.273   7.424   6.910  0.0008 -0.0646  0.3102
  803MOL0     C10699  11.285   7.490   6.763 -0.9164 -0.8414 -0.7353
  803MOL0     O10700  11.422   7.501   6.723 -0.2550 -0.6004 -0.4049
  803MOL0     C10701  11.491   7.613   6.748  0.4278 -0.2767  0.6122
  803MOL0     C10702  11.451   7.724   6.817 -0.2532  0.1185  0.9964
  803MOL0     C10703  11.528   7.837   6.823  1.0550  0.0337 -0.1599
  803MOL0     C10704  11.470   7.951   6.907 -0.3787 -0.1649  0.3734
  803MOL0     C10705  11.658   7.846   6.768  0.3558  0.0125 -0.2479
  803MOL0     C10706  11.760   7.961   6.780  1.1202 -0.0958 -0.5787
  803MOL0     O10707  11.888   7.927   6.741 -0.5169 -0.3205  0.4583
  803MOL0     C10708  11.981   8.028   6.763  0.1591 -0.4929 -1.1241
  803MOL0     C10709  12.098   7.997   6.838  0.5069 -1.5252  0.2682
  803MOL0     C10710  12.200   8.092   6.855  0.6388  0.1484  0.3164
  803MOL0     C10711  12.199   8.217   6.792  0.3750  0.6683 -0.4112
  803MOL0     O10712  12.309   8.291   6.812  0.4666  0.5946  0.2275
  803MOL0     C10713  12.310   8.424   6.764 -0.4479 -0.0920  0.1278
  803MOL0     C10714  12.441   8.498   6.807  0.5519 -0.0735 -0.2582
  803MOL0     C10715  12.430   8.548   6.948 -0.3699  0.0388 -0.3998
  803MOL0     C10716  12.552   8.604   7.015 -0.2019 -0.3637  0.0552
  803MOL0     C10717  12.501   8.673   7.149 -0.3005  0.0548 -0.4261
  803MOL0     C10718  12.608   8.698   7.257  0.1190  0.1669  0.2180
  803MOL0     C10719  12.550   8.747   7.392 -0.2003  0.1229  0.9841
  803MOL0     C10720  12.651   8.756   7.509 -0.1595  0.0101  0.7840
  803MOL0    Cl10721  12.749   8.905   7.509 -0.2755  0.2896 -0.1220
  803MOL0     C10722  12.083   8.246   6.714  0.3201 -0.2113 -0.2035
  803MOL0     C10723  11.983   8.151   6.697  0.2312  0.2496  0.3801
  803MOL0     O10724  11.724   8.075   6.822 -0.4229 -0.2336  0.0207
  803MOL0     C10725  11.702   7.728   6.706  0.5772  0.3903 -0.2647
  803MOL0     C10726  11.617   7.619   6.691 -0.2048  0.2585  0.1199
  803MOL0     N10727  10.801   7.411   7.013  0.1445  0.0333 -0.2590
  803MOL0     N10728  10.689   7.396   6.955  0.6846 -0.3669 -0.4293
  803MOL0     C10729   9.597   7.494   6.523  0.5703  0.1548  0.0241
  803MOL0     C10730   9.465   7.486   6.568 -0.0660 -0.0520  0.0980
  803MOL0     C10731   9.089   7.409   6.754  0.2023  0.4926 -1.0450
  803MOL0     C10732   9.000   7.383   6.650  0.8239  0.8487  0.3485
  803MOL0     C10733   8.864   7.402   6.667 -0.3277  0.6223  0.1494
  803MOL0     C10734   8.806   7.447   6.788 -0.3242  1.2983 -0.1592
  803MOL0     O10735   8.672   7.469   6.800  0.5935 -0.2837 -0.2034
  803MOL0     C10736   8.620   7.495   6.921 -1.0797  0.7596  0.2345
  803MOL0     C10737   8.470   7.489   6.893 -2.2190 -0.7014  0.9478
  803MOL0     C10738   8.402   7.497   7.023  1.0584  0.1089  0.0283
  803MOL0     C10739   8.251   7.487   7.004 -0.4712  0.5111  0.9809
  803MOL0     C10740   8.194   7.427   7.125 -0.2603 -0.2036 -0.4219
  803MOL0     C10741   8.155   7.384   7.233 -0.3548 -0.1360  0.6008
  803MOL0     C10742   8.896   7.459   6.897  0.8409  0.1276 -0.4507
  803MOL0     C10743   9.037   7.438   6.883  0.5132 -0.2455  0.0533
  803MOL0     C10744   9.115   7.440   7.021  0.4471 -0.1613  0.1391
  803MOL0     H10745   9.370   7.180   6.472 -0.9193  1.1657 -2.6291
  803MOL0     H10746   9.596   7.182   6.380 -2.9987  0.2588 -1.0009
  803MOL0     H10747   9.854   7.476   6.601  2.4452  2.6773  0.0223
  803MOL0     H10748   9.958   7.501   6.453 -0.0972 -0.7451  0.0173
  803MOL0     H10749   9.903   7.250   6.635 -0.3119 -0.2108 -0.4210
  803MOL0     H10750   9.987   7.229   6.488 -0.5893  1.3940 -1.5604
  803MOL0     H10751  10.134   7.241   6.689  1.8125  0.8380  0.4564
  803MOL0     H10752  10.182   7.342   6.553 -0.5436 -2.6000 -1.0432
  803MOL0     H10753  10.096   7.538   6.653 -0.7980 -0.5905 -1.1499
  803MOL0     H10754  10.035   7.447   6.791 -1.0912 -0.3161 -1.4838
  803MOL0     H10755  10.290   7.382   6.831 -1.7361  0.0266  1.7842
  803MOL0     H10756  10.243   7.551   6.862  5.3476 -0.6623  2.0288
  803MOL0     H10757  10.350   7.485   6.593 -0.6035 -1.0890  0.5679
  803MOL0     H10758  10.322   7.639   6.669  1.0561  1.8211  2.8760
  803MOL0     H10759  10.499   7.570   6.844 -2.5327  1.8012 -1.0777
  803MOL0     H10760  10.558   7.612   6.685  0.8470 -1.6391 -0.1829
  803MOL0     H10761  10.525   7.321   6.754 -0.4776  0.9101  0.2250
  803MOL0     H10762  10.616   7.401   6.623 -0.7009  1.4029 -0.1989
  803MOL0     H10763  10.864   7.489   6.698  0.4265  2.7055  1.2608
  803MOL0     H10764  11.019   7.543   7.066  0.1215 -1.6864 -0.0159
  803MOL0     H10765  11.043   7.602   6.913 -1.7025 -0.0944  0.6527
  803MOL0     H10766  11.114   7.338   7.047 -4.6431  1.2435 -0.3714
  803MOL0     H10767  11.087   7.316   6.877 -0.7201  0.8690 -0.1981
  803MOL0     H10768  11.319   7.492   6.983  1.8255  0.9754 -1.6867
  803MOL0     H10769  11.338   7.335   6.907  0.1443  0.0712 -1.4843
  803MOL0     H10770  11.234   7.420   6.696 -1.2690 -0.2787 -1.0588
  803MOL0     H10771  11.233   7.586   6.765  0.4923 -0.0185 -1.5538
  803MOL0     H10772  11.352   7.725   6.862 -1.6800  0.0402 -1.8600
  803MOL0     H10773  11.530   7.958   6.998  1.1928  1.5497 -0.7352
  803MOL0     H10774  11.368   7.952   6.948 -0.2949  0.1236  0.5811
  803MOL0     H10775  11.494   8.043   6.853  1.0876 -1.2911 -0.9667
  803MOL0     H10776  12.100   7.904   6.894  1.1398 -0.7260  1.6157
  803MOL0     H10777  12.281   8.066   6.924  0.1806  1.0742  1.2297
  803MOL0     H10778  12.295   8.425   6.655  2.7223 -1.4686 -0.4480
  803MOL0     H10779  12.222   8.470   6.808  0.2962  0.2003  1.3419
  803MOL0     H10780  12.532   8.440   6.794  2.1182  2.5619 -1.9686
  803MOL0     H10781  12.446   8.590   6.748 -0.5712  0.2871  0.1806
  803MOL0     H10782  12.383   8.468   7.007 -1.0325  0.8468  0.1918
  803MOL0     H10783  12.357   8.629   6.951  1.6951  1.9488  1.2966
  803MOL0     H10784  12.602   8.681   6.956 -3.0463  3.7507  2.5175
  803MOL0     H10785  12.628   8.530   7.042 -0.6597 -0.2436  1.7744
  803MOL0     H10786  12.459   8.771   7.124 -1.3380 -0.6415 -1.4942
  803MOL0     H10787  12.422   8.608   7.186  0.3675 -1.4637 -1.5800
  803MOL0     H10788  12.692   8.757   7.219  0.6687  0.9953  2.5538
  803MOL0     H10789  12.648   8.599   7.282 -1.2783  0.2220  3.0733
  803MOL0     H10790  12.464   8.681   7.404  0.2590 -0.9393 -1.1032
  803MOL0     H10791  12.523   8.852   7.375  1.6577  0.5726  0.5042
  803MOL0     H10792  12.706   8.662   7.520 -0.4507  0.0697  3.2784
  803MOL0     H10793  12.599   8.754   7.605 -1.5406 -0.2784  0.0531
  803MOL0     H10794  12.057   8.335   6.657  1.9740 -1.5718 -3.3495
  803MOL0     H10795  11.900   8.176   6.632 -0.2287 -0.1918  0.7925
  803MOL0     H10796  11.805   7.706   6.680 -0.2279 -1.4575 -2.1384
  803MOL0     H10797  11.658   7.546   6.623  0.3938  0.4179  0.3052
  803MOL0     H10798   9.632   7.596   6.523 -1.7468  1.0140 -0.0851
  803MOL0     H10799   9.428   7.569   6.627 -0.6360 -1.4017  1.7287
  803MOL0     H10800   9.036   7.352   6.552  0.2181  0.5569  0.2088
  803MOL0     H10801   8.797   7.392   6.583 -2.9698 -2.2343  2.3407
  803MOL0     H10802   8.660   7.417   6.987  1.4877 -1.0492 -3.1500
  803MOL0     H10803   8.644   7.590   6.969 -0.4109  1.4528 -1.4186
  803MOL0     H10804   8.436   7.401   6.838 -2.2461  0.5124 -1.0771
  803MOL0     H10805   8.449   7.569   6.821  1.3678 -0.3918  0.0237
  803MOL0     H10806   8.429   7.409   7.082  0.4376 -1.9552 -2.5722
  803MOL0     H10807   8.417   7.597   7.065 -1.1728  0.3172  0.4612
  803MOL0     H10808   8.233   7.418   6.921 -0.6076  1.9020 -0.1795
  803MOL0     H10809   8.217   7.587   6.975 -1.4151  0.0676  0.5031
  803MOL0     H10810   8.139   7.354   7.334  1.5016 -1.5276  0.5266
  803MOL0     H10811   8.861   7.476   6.998  0.3045 -1.0114 -0.4379
  803MOL0     H10812   9.197   7.368   7.029  0.4807 -0.7767 -3.8894
  803MOL0     H10813   9.162   7.538   7.020 -1.8820  1.0575 -1.9023
  803MOL0     H10814   9.040   7.430   7.101  1.5471  1.4643  1.4283
  804MOL0     O10815  10.699   9.192   3.059  0.1973  0.4199 -0.1885
  804MOL0     C10816  10.703   9.303   3.014 -0.6382 -0.9681 -0.4954
  804MOL0     O10817  10.796   9.345   2.921 -0.0919  0.7208  0.4044
  804MOL0     C10818  10.885   9.250   2.883 -0.7505  0.0601  0.2559
  804MOL0     C10819  11.016   9.264   2.929  0.2008  0.7911  0.6123
  804MOL0     C10820  11.122   9.180   2.881  0.8349  0.1131  0.1324
  804MOL0     C10821  11.099   9.087   2.780 -0.1606 -0.3245 -0.3479
  804MOL0     O10822  11.196   9.017   2.720  0.5979  0.1925 -0.1305
  804MOL0     C10823  11.325   9.016   2.780 -0.1674 -0.2172 -0.8861
  804MOL0     C10824  11.429   8.966   2.677  0.2435  0.5294 -0.2811
  804MOL0     C10825  11.558   8.934   2.745 -0.5430 -0.2094 -0.6792
  804MOL0     C10826  11.673   8.865   2.673  0.4509  0.1515 -0.4177
  804MOL0     C10827  11.720   8.953   2.556 -0.3155  0.1529 -0.4147
  804MOL0     C10828  11.850   8.895   2.490  0.3168  0.6754  0.0783
  804MOL0     C10829  11.902   8.990   2.386 -0.9077 -0.7496  0.4863
  804MOL0     C10830  12.034   8.948   2.325  0.1613 -0.4683 -0.9200
  804MOL0     N10831  12.081   9.028   2.214 -0.2095  0.5414  0.7198
  804MOL0     C10832  12.214   9.083   2.195  0.4194  0.0859 -0.0462
  804MOL0     C10833  12.199   9.174   2.101  0.0404 -0.0387  0.0599
  804MOL0     C10834  12.315   9.247   2.060 -0.3397 -0.2489 -0.3488
  804MOL0     C10835  12.294   9.396   2.030 -0.7767  0.2167  0.2875
  804MOL0     C10836  12.418   9.465   1.965  0.5262  0.1958 -0.5418
  804MOL0     C10837  12.541   9.485   2.048 -0.3616 -0.6506 -0.2743
  804MOL0     O10838  12.624   9.369   2.057 -0.1250  0.2616  0.3655
  804MOL0     C10839  12.716   9.340   1.959 -0.0882  0.5637 -0.1540
  804MOL0     C10840  12.796   9.232   1.986 -0.2315  0.1616  0.1844
  804MOL0     C10841  12.902   9.195   1.906  0.2434 -0.4454 -0.0553
  804MOL0     C10842  13.005   9.104   1.963  0.3817 -0.5768  0.0740
  804MOL0     C10843  12.907   9.243   1.775 -0.9704 -0.0563  0.0820
  804MOL0     C10844  13.004   9.196   1.671 -0.1595  0.0841 -0.2392
  804MOL0     O10845  12.976   9.234   1.546 -0.3269  0.3151 -0.2688
  804MOL0     C10846  13.047   9.164   1.447 -0.4975 -0.0165  0.1978
  804MOL0     C10847  13.172   9.208   1.411  0.4324  0.9268  0.7709
  804MOL0     C10848  13.237   9.155   1.294 -0.4100  0.0329  0.3158
  804MOL0     C10849  13.199   9.037   1.239 -0.2873  0.5098 -0.0902
  804MOL0     O10850  13.268   8.989   1.130  0.4965 -0.0208 -0.0805
  804MOL0     C10851  13.273   8.847   1.083 -0.2642  0.3358 -0.1790
  804MOL0     C10852  13.363   8.760   1.170  0.4601  0.0764 -0.8224
  804MOL0     C10853  13.503   8.824   1.186 -0.6680 -0.1933  0.3609
  804MOL0     C10854  13.572   8.851   1.052 -0.5201 -0.1793 -0.3526
  804MOL0     C10855  13.708   8.926   1.085  0.3045 -0.3141  0.6560
  804MOL0     C10856  13.777   8.936   0.949  0.1393 -0.1968  0.8609
  804MOL0     C10857  13.898   9.026   0.960 -0.3448 -0.2180  0.6702
  804MOL0     C10858  13.985   9.039   0.831  0.8019 -0.0937  0.2721
  804MOL0    Cl10859  14.041   8.870   0.793 -0.1342 -0.0399  0.1745
  804MOL0     C10860  13.079   8.985   1.288 -0.2792  0.9670 -0.2394
  804MOL0     C10861  12.998   9.050   1.385  0.3274 -0.0368 -0.0354
  804MOL0     O10862  13.087   9.112   1.706  0.3284  0.0311  0.8694
  804MOL0     C10863  12.824   9.355   1.740 -0.0284  0.0877  0.0824
  804MOL0     C10864  12.727   9.396   1.834 -0.1366  0.3392 -0.8687
  804MOL0     N10865  12.073   9.169   2.059 -0.2238 -0.0321  0.3819
  804MOL0     N10866  12.003   9.097   2.137 -0.1206 -0.4231 -0.0670
  804MOL0     C10867  10.967   9.071   2.730  0.0086  0.0243  0.3579
  804MOL0     C10868  10.863   9.159   2.774  0.4379  0.1328  0.0067
  804MOL0     C10869  10.597   9.389   3.058 -0.1550 -0.3164  0.3888
  804MOL0     C10870  10.587   9.521   2.991  0.2603  0.6233  0.4137
  804MOL0     C10871  10.486   9.609   3.022  0.0911  0.1482 -0.2073
  804MOL0     C10872  10.382   9.579   3.102 -0.3079 -0.4303  0.0246
  804MOL0     O10873  10.290   9.677   3.125 -0.4083  0.1610 -0.5135
  804MOL0     C10874  10.212   9.697   3.249  0.3914 -0.2842  0.6110
  804MOL0     C10875  10.116   9.809   3.247  0.1442 -0.0606  0.3545
  804MOL0     C10876  10.033   9.806   3.120 -0.1445 -0.0607 -0.3204
  804MOL0     C10877   9.907   9.894   3.120 -0.3459  0.4351  0.2025
  804MOL0     C10878   9.817   9.862   3.226  0.9695  0.7095 -0.4608
  804MOL0     C10879   9.750   9.839   3.323 -0.2267 -0.0193 -0.2506
  804MOL0     C10880  10.390   9.455   3.173 -0.2329 -0.0320  0.5536
  804MOL0     C10881  10.485   9.357   3.144 -0.1216  0.1835 -0.9440
  804MOL0     C10882  10.454   9.220   3.216  0.0505 -0.3720  0.6148
  804MOL0     H10883  11.050   9.334   3.005  0.4612 -0.0511  1.2945
  804MOL0     H10884  11.210   9.169   2.944 -1.0105  1.4890  3.1801
  804MOL0     H10885  11.337   8.950   2.867 -1.3339  1.5071  0.6661
  804MOL0     H10886  11.346   9.116   2.818 -1.7754 -1.1991  3.1051
  804MOL0     H10887  11.387   8.884   2.617  2.2231 -0.1463 -0.8265
  804MOL0     H10888  11.448   9.050   2.610  2.2833 -0.0744 -0.5236
  804MOL0     H10889  11.593   9.030   2.784 -0.5536 -0.6449  0.4499
  804MOL0     H10890  11.545   8.872   2.835 -1.3317 -1.5338 -1.6737
  804MOL0     H10891  11.752   8.856   2.748  0.2495  0.7707 -0.1293
  804MOL0     H10892  11.638   8.770   2.631 -0.5914  1.6381 -3.2368
  804MOL0     H10893  11.736   9.056   2.590  2.5047  0.2566 -1.8044
  804MOL0     H10894  11.647   8.954   2.474 -0.3728 -0.0178 -0.3655
  804MOL0     H10895  11.929   8.889   2.565  4.6633 -0.7209 -4.0819
  804MOL0     H10896  11.838   8.790   2.461 -0.8992 -0.1516  3.1941
  804MOL0     H10897  11.911   9.087   2.437 -1.3198 -2.3195  3.8069
  804MOL0     H10898  11.832   8.997   2.302 -0.3516  3.0314  0.1495
  804MOL0     H10899  12.104   8.955   2.409  0.0933 -2.5461 -0.6316
  804MOL0     H10900  12.033   8.844   2.290  0.1203 -1.8125  2.6722
  804MOL0     H10901  12.310   9.054   2.237  0.9647  1.5762 -0.2107
  804MOL0     H10902  12.365   9.197   1.977 -1.6797 -0.5850 -0.9937
  804MOL0     H10903  12.382   9.243   2.146 -1.8194  2.8855  1.1168
  804MOL0     H10904  12.215   9.409   1.956 -0.1580 -2.2391 -0.9277
  804MOL0     H10905  12.273   9.440   2.128  2.5784  1.8175  0.4586
  804MOL0     H10906  12.448   9.407   1.877  0.1235 -0.7001 -0.1023
  804MOL0     H10907  12.382   9.565   1.938  0.9550  0.7979  1.0091
  804MOL0     H10908  12.592   9.572   2.007  0.2298 -1.1840 -0.6870
  804MOL0     H10909  12.505   9.505   2.149 -2.7946 -3.5325 -0.4329
  804MOL0     H10910  12.777   9.173   2.076 -0.7696 -1.8293 -1.1631
  804MOL0     H10911  12.989   9.084   2.069  0.1260 -2.3184 -0.2653
  804MOL0     H10912  13.102   9.155   1.958  0.1237 -0.0601  0.2586
  804MOL0     H10913  13.005   9.010   1.906 -1.5517  0.7402 -2.2754
  804MOL0     H10914  13.208   9.299   1.459  0.0860  2.0037 -0.9408
  804MOL0     H10915  13.332   9.200   1.270  0.1333 -1.4043 -0.3812
  804MOL0     H10916  13.169   8.814   1.075  0.1107 -0.3739 -4.0719
  804MOL0     H10917  13.302   8.839   0.978 -0.0068  1.8284 -0.2376
  804MOL0     H10918  13.334   8.742   1.275 -0.1401 -1.2137 -1.1871
  804MOL0     H10919  13.371   8.660   1.127  0.6099 -0.3520  0.1547
  804MOL0     H10920  13.570   8.762   1.246  1.8316  0.8828 -1.1495
  804MOL0     H10921  13.493   8.921   1.236  0.9325  1.2172 -1.8880
  804MOL0     H10922  13.512   8.917   0.988 -0.5078 -0.6053 -0.8074
  804MOL0     H10923  13.593   8.759   0.997 -0.2625  0.6767 -1.7387
  804MOL0     H10924  13.692   9.028   1.122  2.8813  0.9250 -1.3349
  804MOL0     H10925  13.767   8.871   1.159 -0.6893 -0.7193  1.1612
  804MOL0     H10926  13.715   8.970   0.865  0.0353 -1.1755  0.5275
  804MOL0     H10927  13.805   8.834   0.923 -0.9174 -0.0958 -0.8862
  804MOL0     H10928  13.967   8.981   1.032  0.9660 -1.9298 -1.5507
  804MOL0     H10929  13.874   9.124   1.003 -2.0983 -0.3691  0.1215
  804MOL0     H10930  14.075   9.096   0.853 -0.1954  1.3047  0.8556
  804MOL0     H10931  13.922   9.078   0.750  1.3435  0.1835 -0.0236
  804MOL0     H10932  13.044   8.889   1.249 -1.0066  0.1835  2.1461
  804MOL0     H10933  12.901   9.013   1.415  1.0996  0.4167  3.5033
  804MOL0     H10934  12.813   9.402   1.642  0.9453 -2.2106 -1.1991
  804MOL0     H10935  12.655   9.473   1.806  0.5569  1.2384 -0.2318
  804MOL0     H10936  10.959   8.999   2.649 -0.1598  1.1567 -0.6540
  804MOL0     H10937  10.778   9.161   2.707  1.2988  0.8168 -1.0953
  804MOL0     H10938  10.665   9.550   2.921  1.7818 -1.1701  1.2659
  804MOL0     H10939  10.493   9.711   2.984 -0.7167 -0.2174 -1.3900
  804MOL0     H10940  10.154   9.604   3.260  2.3729 -2.0916 -2.6193
  804MOL0     H10941  10.282   9.710   3.332  2.6726 -0.2174 -1.2508
  804MOL0     H10942  10.165   9.906   3.251 -0.2972  0.1266  1.5517
  804MOL0     H10943  10.052   9.799   3.335 -0.1666 -0.8841  0.0469
  804MOL0     H10944  10.098   9.829   3.036  0.8063 -0.9345  0.1490
  804MOL0     H10945  10.004   9.701   3.109 -0.2296 -0.0610 -0.0901
  804MOL0     H10946   9.853   9.880   3.027 -1.1386 -1.2796  0.8843
  804MOL0     H10947   9.949   9.995   3.132  1.0784 -0.2997  2.0737
  804MOL0     H10948   9.679   9.820   3.401  0.4292 -0.4286  0.2557
  804MOL0     H10949  10.312   9.443   3.247 -2.2372 -0.5530 -1.5056
  804MOL0     H10950  10.370   9.225   3.286 -1.3526  1.9200 -1.0798
  804MOL0     H10951  10.426   9.150   3.137  1.3733 -0.2764  0.0350
  804MOL0     H10952  10.544   9.179   3.263  1.1824  0.6308 -0.5696
  805MOL0     O10953   9.477   3.809   9.180 -0.6617  0.7656  0.3194
  805MOL0     C10954   9.472   3.708   9.111  0.5298 -0.0106 -0.7666
  805MOL0     O10955   9.573   3.656   9.033  0.4269 -0.2366  0.0581
  805MOL0     C10956   9.698   3.678   9.074  0.0423  0.4156 -0.1692
  805MOL0     C10957   9.745   3.653   9.204  0.7356 -0.7176 -0.6918
  805MOL0     C10958   9.873   3.686   9.242 -0.4130 -0.1628 -0.6319
  805MOL0     C10959   9.966   3.745   9.147  0.4425  0.6851  0.1011
  805MOL0     O10960  10.093   3.765   9.196 -0.5166 -0.0205  0.4658
  805MOL0     C10961  10.199   3.783   9.102  0.6667  0.3937  0.2567
  805MOL0     C10962  10.344   3.781   9.156  0.5597 -0.3293 -0.5764
  805MOL0     C10963  10.449   3.816   9.047 -0.0264 -0.8536 -0.5197
  805MOL0     C10964  10.440   3.958   8.998  0.6550  0.2907 -0.7951
  805MOL0     C10965  10.550   3.978   8.895 -0.1291  0.0732 -0.0455
  805MOL0     C10966  10.687   4.012   8.965  0.3661  0.4008 -0.2852
  805MOL0     C10967  10.811   3.974   8.884 -0.5821 -0.7133  0.2804
  805MOL0     C10968  10.935   4.036   8.946 -0.7759  0.5090 -0.0110
  805MOL0     N10969  11.063   4.017   8.867  0.1323  0.1664 -1.5819
  805MOL0     C10970  11.102   3.897   8.809 -0.0174  0.5829 -1.2216
  805MOL0     C10971  11.222   3.928   8.749  0.1982 -0.0806  0.6673
  805MOL0     C10972  11.310   3.834   8.677 -0.0773  0.0077  0.6286
  805MOL0     C10973  11.417   3.762   8.756 -0.7041 -0.0675  0.0837
  805MOL0     C10974  11.542   3.846   8.761  0.2585 -0.6145  0.3219
  805MOL0     C10975  11.680   3.775   8.777 -0.4763 -0.1226 -0.5065
  805MOL0     O10976  11.779   3.876   8.771 -0.3497 -0.8756 -0.0808
  805MOL0     C10977  11.830   3.902   8.643  0.8330  0.2745  0.0760
  805MOL0     C10978  11.944   3.987   8.639 -0.6669 -0.0007 -0.2850
  805MOL0     C10979  12.004   4.015   8.516 -0.1245  0.4130  0.0333
  805MOL0     C10980  12.127   4.104   8.513  0.1029  0.2195 -0.1366
  805MOL0     C10981  11.938   3.968   8.400 -1.3230  0.6433 -0.4808
  805MOL0     C10982  11.983   4.011   8.267  0.1611  0.1958 -0.4413
  805MOL0     O10983  11.999   4.143   8.259 -0.2689  0.0791  0.4777
  805MOL0     C10984  12.071   4.188   8.155  0.1726  0.4903  0.6575
  805MOL0     C10985  12.204   4.192   8.165 -0.1741 -0.3664  0.7120
  805MOL0     C10986  12.283   4.238   8.057 -0.3840  0.0294  0.4561
  805MOL0     C10987  12.222   4.291   7.939  0.2326 -0.8370  0.2335
  805MOL0     O10988  12.297   4.340   7.834  1.0147  0.3225 -0.1181
  805MOL0     C10989  12.242   4.331   7.707 -0.0214 -0.0028  0.1260
  805MOL0     C10990  12.351   4.305   7.611  0.0567 -0.2228  0.7330
  805MOL0     C10991  12.303   4.272   7.470  0.1550 -0.2658  0.4415
  805MOL0     C10992  12.410   4.264   7.363 -0.1216  0.5827 -0.4862
  805MOL0     C10993  12.535   4.346   7.383  0.0585  0.0394  0.4395
  805MOL0     C10994  12.620   4.311   7.262  0.2328 -1.1504 -0.2769
  805MOL0     C10995  12.740   4.406   7.269 -0.5308  0.1415  0.1454
  805MOL0     C10996  12.856   4.325   7.198 -0.0538  0.0101  0.2838
  805MOL0    Cl10997  13.013   4.420   7.188 -0.0711 -0.2816  0.0817
  805MOL0     C10998  12.081   4.314   7.949  0.0627  0.5475  0.9365
  805MOL0     C10999  12.008   4.253   8.047 -0.3989  0.3416  0.4000
  805MOL0     O11000  12.028   3.922   8.192 -0.0671  0.3255 -0.4163
  805MOL0     C11001  11.831   3.876   8.400  0.4439 -0.3448 -0.4164
  805MOL0     C11002  11.773   3.848   8.525  0.2232 -0.2244  0.2291
  805MOL0     N11003  11.255   4.061   8.777  0.5617 -0.9048 -0.1088
  805MOL0     N11004  11.150   4.113   8.837  0.1604 -0.4146 -0.2094
  805MOL0     C11005   9.907   3.772   9.017 -0.1252  0.4077  0.0668
  805MOL0     C11006   9.779   3.737   8.978 -0.4268 -0.2855  0.1359
  805MOL0     C11007   9.340   3.641   9.119  0.5104 -0.2124  0.6570
  805MOL0     C11008   9.218   3.711   9.155 -0.0804  0.2859  0.4595
  805MOL0     C11009   9.096   3.651   9.140  0.3685  0.7691 -0.7739
  805MOL0     C11010   9.087   3.518   9.108 -0.0806  0.2160 -0.7061
  805MOL0     O11011   8.963   3.464   9.111 -0.2339  0.7714 -0.2055
  805MOL0     C11012   8.930   3.374   9.002 -0.6037 -0.4300  0.0803
  805MOL0     C11013   8.789   3.327   9.002  0.7836  0.1650 -0.5672
  805MOL0     C11014   8.688   3.451   8.978 -0.0520  0.7661  0.5816
  805MOL0     C11015   8.696   3.515   8.839  0.8192  0.0092  0.4995
  805MOL0     C11016   8.596   3.619   8.826 -0.0026  0.2017  0.0551
  805MOL0     C11017   8.509   3.706   8.808 -0.2576  0.2698 -0.2227
  805MOL0     C11018   9.204   3.437   9.102 -0.1773 -0.9059  0.6403
  805MOL0     C11019   9.328   3.498   9.100 -0.8482 -1.3660 -0.0616
  805MOL0     C11020   9.445   3.406   9.094 -0.2283  0.3305  1.1012
  805MOL0     H11021   9.679   3.603   9.275  1.1212 -0.1227  0.0956
  805MOL0     H11022   9.904   3.667   9.345  0.6597 -1.4541 -1.1552
  805MOL0     H11023  10.173   3.873   9.045 -1.5201 -2.1870 -3.3031
  805MOL0     H11024  10.188   3.699   9.032 -1.6635  1.0669 -0.2729
  805MOL0     H11025  10.350   3.857   9.234 -5.2431  0.2688 -0.2712
  805MOL0     H11026  10.357   3.680   9.195  3.5115  0.4241  0.6895
  805MOL0     H11027  10.549   3.797   9.086 -0.6455 -0.2945  1.4827
  805MOL0     H11028  10.436   3.763   8.953  2.3861 -0.6619 -1.0328
  805MOL0     H11029  10.349   3.960   8.938 -0.1942 -0.2522  0.4251
  805MOL0     H11030  10.446   4.036   9.075  0.1759  1.0261 -1.4841
  805MOL0     H11031  10.521   4.065   8.836  1.0432  0.5336  0.0226
  805MOL0     H11032  10.567   3.890   8.834  2.3851 -0.1712  0.8770
  805MOL0     H11033  10.685   4.120   8.985 -0.4998 -0.0565  2.5686
  805MOL0     H11034  10.699   3.968   9.065  0.5144  2.9286  0.9127
  805MOL0     H11035  10.793   4.002   8.780 -1.3987  0.0396  0.6177
  805MOL0     H11036  10.814   3.866   8.898 -2.0749 -0.7837  0.2267
  805MOL0     H11037  10.911   4.142   8.952  1.0138  0.9074  0.6689
  805MOL0     H11038  10.953   3.994   9.045 -2.4777  3.2539  1.6079
  805MOL0     H11039  11.051   3.802   8.812 -0.4400  0.8308 -0.4130
  805MOL0     H11040  11.348   3.896   8.595 -0.2906  0.0598  0.5690
  805MOL0     H11041  11.245   3.758   8.633 -1.6756  1.4204  0.4488
  805MOL0     H11042  11.381   3.740   8.857 -0.9748  1.0963  0.2463
  805MOL0     H11043  11.439   3.670   8.701  0.5886 -1.4400  2.7349
  805MOL0     H11044  11.553   3.909   8.672 -1.2474 -0.9421 -0.1281
  805MOL0     H11045  11.537   3.914   8.847 -1.2568 -2.7441  2.0298
  805MOL0     H11046  11.674   3.736   8.880  2.6802  2.7376  0.9365
  805MOL0     H11047  11.680   3.688   8.711  0.5326  0.5139 -1.3761
  805MOL0     H11048  11.987   4.022   8.732  0.0005 -1.4260 -0.0360
  805MOL0     H11049  12.196   4.073   8.435  0.2867 -1.5667  0.6996
  805MOL0     H11050  12.183   4.097   8.607  0.5930 -1.6110 -0.5357
  805MOL0     H11051  12.095   4.209   8.508 -1.5720 -0.1868  1.0464
  805MOL0     H11052  12.261   4.156   8.250 -2.0147 -3.8986  0.6379
  805MOL0     H11053  12.389   4.218   8.052 -0.3956 -0.0093  0.3581
  805MOL0     H11054  12.161   4.257   7.708  0.1278 -0.1746 -0.1662
  805MOL0     H11055  12.190   4.427   7.696 -0.7663 -0.1675  1.8830
  805MOL0     H11056  12.418   4.392   7.604  1.4254 -1.3733 -1.9606
  805MOL0     H11057  12.409   4.220   7.648  3.3859  0.9980 -1.2513
  805MOL0     H11058  12.232   4.348   7.437 -0.1705 -1.6715 -2.3922
  805MOL0     H11059  12.243   4.181   7.473 -2.6062  1.3550 -1.0514
  805MOL0     H11060  12.355   4.298   7.275 -0.8769  0.6381 -0.0026
  805MOL0     H11061  12.441   4.160   7.374 -2.0892  0.1222  1.6959
  805MOL0     H11062  12.508   4.452   7.377 -1.5842 -0.4505 -2.6664
  805MOL0     H11063  12.579   4.316   7.479 -0.0939 -0.9716  0.1960
  805MOL0     H11064  12.566   4.340   7.172  0.1948  0.0711  0.1327
  805MOL0     H11065  12.649   4.205   7.256  2.3487 -0.6574  0.5540
  805MOL0     H11066  12.765   4.436   7.371  1.2104 -4.5801  1.3869
  805MOL0     H11067  12.716   4.492   7.205 -2.7919 -1.1530 -0.8699
  805MOL0     H11068  12.832   4.306   7.093  3.4359  0.4082 -0.7314
  805MOL0     H11069  12.870   4.225   7.241 -1.9754  0.6001  2.4415
  805MOL0     H11070  12.030   4.355   7.862 -1.1799 -1.4707  0.6472
  805MOL0     H11071  11.901   4.272   8.038  0.1764  3.2448 -2.2204
  805MOL0     H11072  11.780   3.844   8.309  0.5993 -3.4516  0.4683
  805MOL0     H11073  11.680   3.793   8.520  0.2850 -0.3993  0.8786
  805MOL0     H11074   9.969   3.806   8.935  2.2275 -0.1299  1.5409
  805MOL0     H11075   9.752   3.755   8.875  2.2463  0.3059 -0.5409
  805MOL0     H11076   9.220   3.812   9.195 -0.7867 -0.1655  1.7030
  805MOL0     H11077   9.007   3.709   9.165  0.5363  1.0452 -0.8053
  805MOL0     H11078   8.946   3.429   8.909  0.2698 -1.6739 -0.5357
  805MOL0     H11079   8.998   3.289   9.011 -2.4151 -1.9520  0.1338
  805MOL0     H11080   8.765   3.285   9.101  0.0707 -1.2463 -1.3154
  805MOL0     H11081   8.774   3.241   8.937  1.6007 -1.3048  1.0926
  805MOL0     H11082   8.590   3.405   8.995  0.4677 -0.8145 -0.4278
  805MOL0     H11083   8.698   3.534   9.048 -2.1642  2.2937 -0.7962
  805MOL0     H11084   8.671   3.434   8.769  1.3792 -2.8918  3.4095
  805MOL0     H11085   8.797   3.551   8.818  0.7650  1.9132  3.0537
  805MOL0     H11086   8.432   3.770   8.770 -0.7156 -0.5306 -0.6685
  805MOL0     H11087   9.202   3.328   9.096 -1.8138 -0.9350  1.3439
  805MOL0     H11088   9.522   3.438   9.165  0.8240 -2.2196  1.1936
  805MOL0     H11089   9.412   3.304   9.115  0.0641 -0.5543 -2.2529
  805MOL0     H11090   9.482   3.403   8.991 -3.2707  5.7637 -0.5900
  806MOL0     O11091   5.103  10.200   6.268 -0.2530 -0.3057 -0.2263
  806MOL0     C11092   5.007  10.199   6.347  0.2711 -0.4609 -0.0615
  806MOL0     O11093   5.006  10.255   6.476  0.0631  0.3739  0.1073
  806MOL0     C11094   5.116  10.327   6.520 -0.3440 -0.8536  0.2407
  806MOL0     C11095   5.094  10.433   6.610  0.0445 -0.0408  0.0809
  806MOL0     C11096   5.202  10.502   6.668  0.4059 -0.0638  0.2689
  806MOL0     C11097   5.328  10.481   6.627  0.0305  0.0325  0.2565
  806MOL0     O11098   5.441  10.535   6.687 -0.4458 -0.0083  0.5530
  806MOL0     C11099   5.453  10.542   6.829 -0.3148  0.8919  0.5598
  806MOL0     C11100   5.579  10.617   6.862  0.0529 -1.6816  0.1827
  806MOL0     C11101   5.706  10.585   6.784  0.2266 -0.0744  0.2939
  806MOL0     C11102   5.828  10.673   6.827  0.1190 -0.8530 -0.4085
  806MOL0     C11103   5.973  10.626   6.783  0.1698 -0.4391  0.1355
  806MOL0     C11104   6.078  10.726   6.833  0.7948 -0.7498 -0.3078
  806MOL0     C11105   6.210  10.650   6.851  0.2290 -0.5891 -0.3006
  806MOL0     C11106   6.289  10.641   6.725  0.4866  0.2523  0.5358
  806MOL0     N11107   6.424  10.597   6.745 -0.4647 -0.2837  0.4598
  806MOL0     C11108   6.524  10.672   6.805  0.0953  0.3037 -0.4428
  806MOL0     C11109   6.622  10.582   6.831 -0.7282  0.5340 -0.7595
  806MOL0     C11110   6.729  10.619   6.929  0.6359  0.4694 -0.0023
  806MOL0     C11111   6.865  10.579   6.882  0.2424 -0.4399  0.5000
  806MOL0     C11112   6.981  10.656   6.955 -0.0768  0.3943  0.3265
  806MOL0     C11113   7.118  10.628   6.894  0.2392 -0.0579  0.8227
  806MOL0     O11114   7.152  10.495   6.915 -0.1441  0.5538 -0.0543
  806MOL0     C11115   7.276  10.453   6.878 -0.0966  0.7795  0.1248
  806MOL0     C11116   7.365  10.511   6.781 -0.1370  0.8040 -0.3427
  806MOL0     C11117   7.488  10.445   6.749 -0.1447 -0.3233 -0.3012
  806MOL0     C11118   7.563  10.517   6.640  0.7676  0.0508  0.8357
  806MOL0     C11119   7.537  10.328   6.818 -0.1934 -0.1674  0.1245
  806MOL0     C11120   7.673  10.269   6.792  0.7909 -0.5875 -0.2999
  806MOL0     O11121   7.691  10.146   6.841 -0.1899  0.3814 -0.2872
  806MOL0     C11122   7.802  10.077   6.801  0.0631  0.5025  0.2461
  806MOL0     C11123   7.794   9.951   6.740  0.3125  0.3286 -0.2629
  806MOL0     C11124   7.903   9.879   6.695 -0.4344  0.3107  0.9103
  806MOL0     C11125   8.031   9.928   6.721  0.4615  0.2671  0.1746
  806MOL0     O11126   8.147   9.873   6.687  0.0965 -0.3465  0.5328
  806MOL0     C11127   8.147   9.774   6.586 -0.6774  0.2548  0.5723
  806MOL0     C11128   8.287   9.738   6.549 -0.8500  0.2895  0.1818
  806MOL0     C11129   8.380   9.859   6.518 -0.2327 -0.0693 -0.4539
  806MOL0     C11130   8.532   9.818   6.514 -0.7535 -0.1497  0.4454
  806MOL0     C11131   8.634   9.917   6.460 -0.5990  1.0151  0.4857
  806MOL0     C11132   8.776   9.859   6.473 -0.4677  0.0504  0.7670
  806MOL0     C11133   8.837   9.911   6.603  0.1441  0.1505  0.1790
  806MOL0     C11134   8.984   9.869   6.616  0.5555  0.9630 -0.5875
  806MOL0    Cl11135   9.088   9.991   6.540 -0.5070  0.3631  0.0927
  806MOL0     C11136   8.037  10.053   6.790  0.1364  0.6212  0.1282
  806MOL0     C11137   7.926  10.128   6.830  0.0481  0.7161  0.1265
  806MOL0     O11138   7.756  10.323   6.723 -0.1850 -0.0458  0.3234
  806MOL0     C11139   7.449  10.279   6.915 -0.7985  0.3198  0.3844
  806MOL0     C11140   7.323  10.333   6.945 -0.4547 -0.0435  0.3929
  806MOL0     N11141   6.586  10.460   6.773 -0.4132  0.2337 -0.0038
  806MOL0     N11142   6.465  10.463   6.729  0.3103 -0.6157 -0.1146
  806MOL0     C11143   5.348  10.384   6.536 -0.8880  0.5107  0.5272
  806MOL0     C11144   5.249  10.308   6.485  0.1948  0.5557 -0.6212
  806MOL0     C11145   4.890  10.121   6.292  0.0519 -0.1197 -0.1793
  806MOL0     C11146   4.872  10.113   6.159 -0.7611 -0.3373  0.0665
  806MOL0     C11147   4.764  10.035   6.109 -0.4666 -0.3278  0.0511
  806MOL0     C11148   4.674   9.970   6.194 -0.5120  0.3239 -0.1654
  806MOL0     O11149   4.578   9.891   6.136 -0.0620 -0.2984 -0.0797
  806MOL0     C11150   4.456   9.966   6.123 -0.7532 -0.2777  0.6608
  806MOL0     C11151   4.348   9.857   6.086  0.6355  0.0863  0.8603
  806MOL0     C11152   4.317   9.767   6.210 -0.3374 -0.3621  0.6378
  806MOL0     C11153   4.192   9.684   6.179  0.5415  0.6994  0.5504
  806MOL0     C11154   4.069   9.765   6.176  0.1543 -0.2337  0.5823
  806MOL0     C11155   3.961   9.818   6.161  0.3008  0.3448  0.4639
  806MOL0     C11156   4.693   9.967   6.330 -0.6904  0.1669  0.8604
  806MOL0     C11157   4.806  10.034   6.372 -0.2154 -0.2513 -0.4384
  806MOL0     C11158   4.837  10.029   6.525  0.7421 -1.2678  0.1954
  806MOL0     H11159   4.996  10.468   6.639 -0.4423  0.3488 -1.9190
  806MOL0     H11160   5.170  10.587   6.728 -0.6599 -1.5650  1.9058
  806MOL0     H11161   5.467  10.440   6.867 -0.0029  1.7183  2.8412
  806MOL0     H11162   5.364  10.584   6.877 -0.4931 -1.2849  2.2850
  806MOL0     H11163   5.561  10.724   6.847  0.5255 -1.5665  0.4167
  806MOL0     H11164   5.604  10.598   6.967 -1.3577 -0.4693  0.7579
  806MOL0     H11165   5.737  10.480   6.793  1.2008  0.2373  0.6955
  806MOL0     H11166   5.685  10.605   6.678 -0.5467  0.2163  0.4962
  806MOL0     H11167   5.816  10.777   6.797 -0.2786 -1.1752 -1.4013
  806MOL0     H11168   5.828  10.671   6.937  2.5688 -2.3014 -0.3451
  806MOL0     H11169   5.975  10.620   6.674 -0.2954  1.8645 -0.0627
  806MOL0     H11170   5.995  10.525   6.819  1.5520 -0.2086 -0.0013
  806MOL0     H11171   6.097  10.811   6.767  1.3149 -0.3517  0.3432
  806MOL0     H11172   6.047  10.756   6.934 -2.9813  2.7706 -2.1740
  806MOL0     H11173   6.196  10.549   6.889 -1.2965 -0.9274 -1.6474
  806MOL0     H11174   6.268  10.707   6.924 -0.8034  0.8133 -0.5202
  806MOL0     H11175   6.237  10.580   6.651  0.6619  0.4375  0.2612
  806MOL0     H11176   6.304  10.740   6.681 -1.1389 -0.3161 -1.4398
  806MOL0     H11177   6.512  10.778   6.824  2.4392  1.3164 -3.7101
  806MOL0     H11178   6.710  10.587   7.032  0.0332 -0.7663 -0.4830
  806MOL0     H11179   6.733  10.729   6.933 -2.6040  0.6688  0.4315
  806MOL0     H11180   6.877  10.470   6.886  0.5284 -0.3761  1.7340
  806MOL0     H11181   6.865  10.610   6.777 -2.6363 -2.1658 -0.1164
  806MOL0     H11182   6.953  10.762   6.967 -1.8368  0.0591 -0.5939
  806MOL0     H11183   6.982  10.623   7.060 -0.2305 -0.1595  0.1526
  806MOL0     H11184   7.135  10.652   6.788 -0.8946  0.3329  0.7236
  806MOL0     H11185   7.188  10.695   6.945  0.1580  2.2663 -1.8225
  806MOL0     H11186   7.345  10.603   6.728  0.0532  0.6231 -0.7302
  806MOL0     H11187   7.664  10.535   6.679  0.2448 -1.7510  3.3480
  806MOL0     H11188   7.518  10.612   6.611 -0.4966 -1.0675 -1.0363
  806MOL0     H11189   7.581  10.457   6.551  1.3437  0.6195  0.5598
  806MOL0     H11190   7.690   9.926   6.723  0.2101 -0.3067  1.1517
  806MOL0     H11191   7.889   9.781   6.650 -1.7227  0.3942  1.0936
  806MOL0     H11192   8.109   9.682   6.631  2.1430 -1.6856 -0.7080
  806MOL0     H11193   8.090   9.807   6.499 -0.2063 -2.7807 -1.0131
  806MOL0     H11194   8.335   9.688   6.634 -2.6238  0.6347  1.4299
  806MOL0     H11195   8.294   9.667   6.466 -0.3596 -0.6870  1.0306
  806MOL0     H11196   8.380   9.940   6.591  1.2285 -0.7405  0.3305
  806MOL0     H11197   8.347   9.875   6.415 -0.8926 -1.6587 -0.5155
  806MOL0     H11198   8.544   9.730   6.450  2.3006  0.0006  0.6966
  806MOL0     H11199   8.556   9.781   6.614 -3.0601  0.0659  1.1377
  806MOL0     H11200   8.611   9.925   6.353  1.2550  0.2628 -0.0121
  806MOL0     H11201   8.625  10.011   6.515  0.7702 -0.8671  4.2556
  806MOL0     H11202   8.835   9.894   6.389 -2.7781  2.2351 -0.0665
  806MOL0     H11203   8.783   9.750   6.469 -2.6340 -0.0999 -0.0901
  806MOL0     H11204   8.785   9.877   6.693 -1.0119  1.2898 -0.0276
  806MOL0     H11205   8.826  10.020   6.602 -0.2022  0.1396  1.7225
  806MOL0     H11206   9.007   9.775   6.566 -0.8371  1.8502 -3.0388
  806MOL0     H11207   9.005   9.861   6.723 -0.7851 -2.4387 -0.4316
  806MOL0     H11208   8.136  10.095   6.793 -0.0768  1.2780 -1.1394
  806MOL0     H11209   7.942  10.216   6.892  0.0706 -0.7647  2.3497
  806MOL0     H11210   7.491  10.202   6.979  0.1745  2.0516  1.9345
  806MOL0     H11211   7.256  10.288   7.017 -0.8595 -0.7864 -0.4296
  806MOL0     H11212   5.444  10.351   6.496 -2.4643 -1.9866 -1.5546
  806MOL0     H11213   5.270  10.225   6.418  0.7987  0.9367 -0.9120
  806MOL0     H11214   4.932  10.173   6.091  0.9975 -2.1329 -0.0414
  806MOL0     H11215   4.752  10.036   6.002  0.8242  1.0993 -0.1066
  806MOL0     H11216   4.433  10.022   6.214  3.8087  1.0602  1.2383
  806MOL0     H11217   4.458  10.035   6.038  0.2084  0.8826  1.6025
  806MOL0     H11218   4.385   9.791   6.007  0.4518  0.5622  0.3677
  806MOL0     H11219   4.260   9.905   6.042  1.3542 -0.1879 -0.9559
  806MOL0     H11220   4.406   9.711   6.239  1.7602  2.6939  0.5728
  806MOL0     H11221   4.304   9.821   6.305 -1.3737  0.4252  0.0722
  806MOL0     H11222   4.177   9.602   6.251  1.3271  0.5360  0.5308
  806MOL0     H11223   4.207   9.637   6.082 -3.4672 -0.9514  0.5423
  806MOL0     H11224   3.861   9.856   6.148  0.0248 -0.8621 -1.2201
  806MOL0     H11225   4.623   9.911   6.391  1.1304 -0.1354  2.7933
  806MOL0     H11226   4.769   9.954   6.567 -0.7825 -0.3705 -0.5585
  806MOL0     H11227   4.937   9.990   6.543  1.7711  0.1990 -1.9547
  806MOL0     H11228   4.817  10.125   6.573 -0.1153 -1.1806 -0.3151
  807MOL0     O11229   6.722   2.560   2.099 -0.3458  0.5655 -0.1906
  807MOL0     C11230   6.728   2.653   2.030  0.9852 -0.3358 -0.1678
  807MOL0     O11231   6.828   2.681   1.935 -0.0081 -0.6728 -0.5119
  807MOL0     C11232   6.903   2.577   1.895 -0.5883  0.5442  0.2970
  807MOL0     C11233   6.913   2.538   1.757 -0.4759 -0.2604  0.2663
  807MOL0     C11234   6.981   2.421   1.720  0.1231  0.4474 -0.2525
  807MOL0     C11235   7.063   2.358   1.815 -0.5572  0.4133 -0.2160
  807MOL0     O11236   7.156   2.260   1.781  0.3438  0.5278  0.3585
  807MOL0     C11237   7.096   2.130   1.751  0.2645  0.1442 -0.3273
  807MOL0     C11238   7.190   2.042   1.668  0.6520  0.2355  1.0397
  807MOL0     C11239   7.307   1.977   1.746 -0.3726  0.1616  0.1826
  807MOL0     C11240   7.430   2.069   1.752 -0.5251 -0.1802  0.4799
  807MOL0     C11241   7.550   1.992   1.800 -0.0240 -0.7797 -0.1627
  807MOL0     C11242   7.560   1.957   1.951  0.3193 -0.4988  0.3372
  807MOL0     C11243   7.709   1.926   1.981 -0.0026 -0.0752 -0.0440
  807MOL0     C11244   7.722   1.888   2.133  1.1387  0.2634 -0.0782
  807MOL0     N11245   7.856   1.827   2.166  0.0057 -0.9252 -0.2188
  807MOL0     C11246   7.936   1.749   2.076  0.3472 -0.0304 -0.8187
  807MOL0     C11247   8.032   1.700   2.156  0.1205  0.8213 -0.6130
  807MOL0     C11248   8.136   1.611   2.105 -0.7052  0.3790 -0.4239
  807MOL0     C11249   8.270   1.690   2.100  0.8724  0.0485 -0.5271
  807MOL0     C11250   8.397   1.605   2.079  0.1413 -0.2232  0.0703
  807MOL0     C11251   8.523   1.665   2.133  0.5574 -0.4640  0.1638
  807MOL0     O11252   8.630   1.577   2.093 -0.1440  0.0905 -0.3175
  807MOL0     C11253   8.748   1.586   2.161  0.5560 -0.5089 -0.0932
  807MOL0     C11254   8.787   1.697   2.232 -0.2559 -0.7505  0.1734
  807MOL0     C11255   8.899   1.695   2.317 -1.0088  0.6482  0.5475
  807MOL0     C11256   8.909   1.812   2.404  0.1933  0.0748 -0.1421
  807MOL0     C11257   8.989   1.586   2.317  0.3023 -0.2413  0.3960
  807MOL0     C11258   9.108   1.582   2.395  0.3797  0.1246 -0.4800
  807MOL0     O11259   9.206   1.499   2.353  0.2770 -0.5439 -0.9823
  807MOL0     C11260   9.308   1.500   2.437 -0.6897  0.5484 -0.4686
  807MOL0     C11261   9.401   1.606   2.432 -0.7674 -0.3613  0.3124
  807MOL0     C11262   9.516   1.602   2.507 -0.1248 -0.0983 -0.0251
  807MOL0     C11263   9.551   1.483   2.586  0.5957 -0.0023 -0.1264
  807MOL0     O11264   9.667   1.461   2.660  0.1198 -0.6143  1.0181
  807MOL0     C11265   9.777   1.557   2.644  0.2042 -0.4239  0.3833
  807MOL0     C11266   9.842   1.529   2.509  0.2270  0.5662 -0.4012
  807MOL0     C11267   9.957   1.626   2.490  0.3408 -0.1950  0.4816
  807MOL0     C11268  10.088   1.587   2.563  0.3333 -0.4876 -0.1301
  807MOL0     C11269  10.220   1.646   2.503 -0.9344  0.3819 -0.1164
  807MOL0     C11270  10.346   1.630   2.589 -0.2729 -0.0632 -0.3525
  807MOL0     C11271  10.473   1.707   2.539 -0.2966  0.0884 -0.2196
  807MOL0     C11272  10.468   1.858   2.550  0.1001  0.2559  0.0125
  807MOL0    Cl11273  10.387   1.937   2.419 -0.0000 -0.1931  0.5290
  807MOL0     C11274   9.450   1.383   2.593  0.2587  0.0791  0.7530
  807MOL0     C11275   9.335   1.388   2.518  0.0866 -0.8618 -0.0042
  807MOL0     O11276   9.119   1.646   2.498 -0.5251 -0.1738 -0.0442
  807MOL0     C11277   8.953   1.475   2.233  0.1851 -0.1501 -0.2739
  807MOL0     C11278   8.833   1.474   2.160 -0.5135 -0.3435 -0.0434
  807MOL0     N11279   8.019   1.739   2.288 -0.0088 -0.4689 -0.3508
  807MOL0     N11280   7.908   1.809   2.291  0.0294  0.5127 -0.2663
  807MOL0     C11281   7.060   2.398   1.948 -0.6596  0.0158 -0.5370
  807MOL0     C11282   6.980   2.502   1.990  0.0774 -0.4735 -0.3334
  807MOL0     C11283   6.620   2.752   2.041 -0.1691  0.4350 -0.6084
  807MOL0     C11284   6.496   2.701   2.072 -0.7129  0.4096  0.2074
  807MOL0     C11285   6.389   2.781   2.088  0.8201  0.3937  0.5138
  807MOL0     C11286   6.395   2.919   2.066 -0.4233 -0.2759 -0.3632
  807MOL0     O11287   6.288   2.999   2.091  0.4072 -0.4002 -0.1009
  807MOL0     C11288   6.166   2.949   2.037 -0.0781 -0.8330 -0.0007
  807MOL0     C11289   6.061   3.051   2.061 -0.2030 -0.8574  0.2207
  807MOL0     C11290   6.059   3.159   1.951  0.0341  0.7868 -0.6637
  807MOL0     C11291   5.964   3.273   1.990 -0.6887 -0.0274 -0.1529
  807MOL0     C11292   5.820   3.234   1.991 -0.3695 -0.0703  0.4664
  807MOL0     C11293   5.700   3.205   2.008 -0.5106  1.5320 -0.4089
  807MOL0     C11294   6.514   2.976   2.035  0.0585  0.0717  0.7991
  807MOL0     C11295   6.629   2.891   2.015 -1.0328  0.5594 -0.2554
  807MOL0     C11296   6.762   2.957   1.992  0.4965  0.4147 -0.3418
  807MOL0     H11297   6.856   2.576   1.673 -1.1891 -0.9735  0.4207
  807MOL0     H11298   6.972   2.385   1.618 -4.0388  0.9591 -0.2548
  807MOL0     H11299   7.000   2.127   1.699 -0.7074 -1.9667  1.4534
  807MOL0     H11300   7.073   2.076   1.843  0.7698 -0.1278 -0.3578
  807MOL0     H11301   7.130   1.963   1.622 -1.1392  2.7425 -1.2818
  807MOL0     H11302   7.218   2.105   1.582  0.4310  2.3316  2.4140
  807MOL0     H11303   7.277   1.957   1.849 -0.3811 -2.9297 -0.3520
  807MOL0     H11304   7.328   1.877   1.707  1.3544 -0.8657  3.4280
  807MOL0     H11305   7.450   2.098   1.649 -0.4419 -1.9846 -0.0438
  807MOL0     H11306   7.406   2.151   1.821  0.7605 -0.6242  1.4953
  807MOL0     H11307   7.637   2.055   1.776 -0.9592  1.1702  1.2538
  807MOL0     H11308   7.562   1.903   1.738  0.7446  0.4012 -1.7612
  807MOL0     H11309   7.536   2.041   2.017 -0.8879  1.4209 -2.3599
  807MOL0     H11310   7.490   1.875   1.968  0.2090 -0.6530 -0.8393
  807MOL0     H11311   7.774   2.010   1.955  0.5514 -0.9325 -1.5227
  807MOL0     H11312   7.742   1.847   1.914  0.8528 -1.5698  2.0269
  807MOL0     H11313   7.700   1.974   2.198 -2.2195 -0.0328 -0.6544
  807MOL0     H11314   7.654   1.808   2.161  0.4803  0.6553 -0.5252
  807MOL0     H11315   7.919   1.726   1.972 -0.9216  2.1711 -1.1706
  807MOL0     H11316   8.101   1.582   2.005 -3.0783 -0.6844  0.6179
  807MOL0     H11317   8.141   1.520   2.165  0.0711  0.8167  0.1940
  807MOL0     H11318   8.265   1.759   2.016  0.1953 -0.0894 -0.6030
  807MOL0     H11319   8.284   1.763   2.180  0.2317  1.1003 -1.3455
  807MOL0     H11320   8.375   1.509   2.126 -0.7917 -0.5688 -1.0203
  807MOL0     H11321   8.410   1.576   1.974 -1.2509 -0.7521  0.0180
  807MOL0     H11322   8.532   1.765   2.091 -0.4559 -1.8719 -3.7978
  807MOL0     H11323   8.519   1.674   2.242 -2.5011 -0.0744  0.1023
  807MOL0     H11324   8.732   1.790   2.225  1.8961  0.8002  2.0672
  807MOL0     H11325   8.915   1.778   2.508  5.0893  0.1160 -0.1966
  807MOL0     H11326   8.819   1.874   2.400 -1.3538 -1.9028  1.6287
  807MOL0     H11327   9.001   1.861   2.373  1.6408  0.3318  3.8816
  807MOL0     H11328   9.378   1.690   2.367  1.0827  0.1522  0.2591
  807MOL0     H11329   9.575   1.693   2.506  0.2577 -0.3473 -0.2048
  807MOL0     H11330   9.737   1.658   2.646  0.4397 -0.3211  0.0761
  807MOL0     H11331   9.852   1.545   2.723  1.2844 -0.4294 -0.6014
  807MOL0     H11332   9.891   1.431   2.509  1.4520  1.1530  0.0807
  807MOL0     H11333   9.776   1.526   2.423  1.3220  0.4809 -1.2608
  807MOL0     H11334   9.929   1.729   2.517 -0.0291  0.2600 -1.4674
  807MOL0     H11335   9.976   1.630   2.383 -0.6293 -1.3901  0.2444
  807MOL0     H11336  10.100   1.480   2.546  1.7927 -0.1388 -1.5154
  807MOL0     H11337  10.084   1.623   2.666  0.6100  1.0595 -0.6365
  807MOL0     H11338  10.233   1.599   2.405 -3.0895 -1.3025  0.3217
  807MOL0     H11339  10.206   1.752   2.483  1.0671  0.7925  0.4826
  807MOL0     H11340  10.375   1.526   2.571  1.9179  0.8336 -2.5504
  807MOL0     H11341  10.326   1.651   2.695 -2.1015 -1.9597 -0.2534
  807MOL0     H11342  10.480   1.674   2.435  0.1516 -2.8824  0.6475
  807MOL0     H11343  10.569   1.673   2.580 -0.4091  2.0086  1.8350
  807MOL0     H11344  10.571   1.892   2.556  0.3591 -0.3625 -0.6773
  807MOL0     H11345  10.416   1.879   2.644 -0.7229 -0.2059 -0.3307
  807MOL0     H11346   9.452   1.291   2.651 -0.2081 -0.7963 -0.5713
  807MOL0     H11347   9.254   1.316   2.522  0.3288 -1.0954  1.0696
  807MOL0     H11348   9.015   1.386   2.220  1.3119  0.6919 -0.8340
  807MOL0     H11349   8.792   1.385   2.111 -2.8732  0.6116  0.0688
  807MOL0     H11350   7.123   2.346   2.019 -1.8058 -1.7573 -0.7544
  807MOL0     H11351   6.988   2.539   2.092  0.5921  0.4811 -0.7009
  807MOL0     H11352   6.475   2.597   2.098 -2.9157  0.5022 -0.9885
  807MOL0     H11353   6.293   2.743   2.121  0.2367  2.0223  0.8124
  807MOL0     H11354   6.176   2.936   1.928  2.6804  2.4853 -0.3071
  807MOL0     H11355   6.142   2.848   2.073 -0.3648 -0.5159  0.7047
  807MOL0     H11356   6.076   3.090   2.162  1.4873  0.8566 -0.6269
  807MOL0     H11357   5.966   2.997   2.060  1.0785 -3.3208  1.7403
  807MOL0     H11358   6.160   3.202   1.943 -0.6911  2.4989 -0.8830
  807MOL0     H11359   6.027   3.121   1.853 -0.0207 -1.4266  0.1609
  807MOL0     H11360   5.966   3.358   1.921 -1.3116 -0.8244 -1.1802
  807MOL0     H11361   5.992   3.315   2.087  2.0157 -1.0653 -0.3946
  807MOL0     H11362   5.600   3.167   2.006  0.3170 -0.8904  0.6326
  807MOL0     H11363   6.521   3.084   2.028 -0.4267  0.0706  0.2498
  807MOL0     H11364   6.748   3.065   1.998 -2.8262  0.0199  1.7964
  807MOL0     H11365   6.831   2.927   2.072 -0.3765 -1.0516 -0.0960
  807MOL0     H11366   6.801   2.931   1.893 -0.8784 -2.9661 -0.1546
  808MOL0     O11367   8.310   7.135   6.288  0.2401 -0.4111 -0.0087
  808MOL0     C11368   8.212   7.201   6.315  0.2851  0.1422  0.3050
  808MOL0     O11369   8.209   7.333   6.353 -0.7506 -0.2605  0.2662
  808MOL0     C11370   8.337   7.395   6.366 -0.2582  0.0688  0.9960
  808MOL0     C11371   8.410   7.429   6.244 -0.7015  0.7912 -1.5226
  808MOL0     C11372   8.521   7.519   6.239 -0.1905  0.1052  0.2691
  808MOL0     C11373   8.569   7.564   6.363 -0.4666 -0.2450 -0.4108
  808MOL0     O11374   8.681   7.642   6.371 -0.0626  0.1881 -0.7754
  808MOL0     C11375   8.792   7.636   6.277  1.3879  0.4027  0.4645
  808MOL0     C11376   8.912   7.693   6.353 -0.2428 -0.2250  0.7147
  808MOL0     C11377   9.043   7.683   6.261  0.3937  0.7010 -0.1681
  808MOL0     C11378   9.176   7.723   6.335  0.1837 -0.0617  1.8189
  808MOL0     C11379   9.303   7.685   6.260  0.5337 -0.1886 -0.6950
  808MOL0     C11380   9.394   7.812   6.266 -0.1969 -1.1269 -0.0286
  808MOL0     C11381   9.537   7.774   6.230 -0.3575  0.2218 -0.2492
  808MOL0     C11382   9.622   7.899   6.222  0.1683  0.6149 -0.4164
  808MOL0     N11383   9.765   7.873   6.186 -0.6503  0.5051  0.2918
  808MOL0     C11384   9.860   7.971   6.155 -0.0992  0.0112 -0.8531
  808MOL0     C11385   9.972   7.906   6.130 -0.0865  0.5744  0.2913
  808MOL0     C11386  10.100   7.961   6.077 -0.0118 -0.8739  0.7866
  808MOL0     C11387  10.205   8.012   6.177 -0.5293 -0.1675 -0.8969
  808MOL0     C11388  10.291   8.127   6.133 -0.1964 -0.1855 -0.3784
  808MOL0     C11389  10.397   8.083   6.028 -0.6776 -0.5317  0.0493
  808MOL0     O11390  10.525   8.040   6.072 -0.3245 -0.4002 -1.1221
  808MOL0     C11391  10.592   8.130   6.151  0.4159  0.4901 -0.4753
  808MOL0     C11392  10.585   8.134   6.292 -0.2367  0.6057  0.0165
  808MOL0     C11393  10.668   8.220   6.367  0.1925  0.2644 -0.4494
  808MOL0     C11394  10.634   8.210   6.515 -0.8089  0.5271 -0.4150
  808MOL0     C11395  10.768   8.305   6.303 -0.6537  0.4636 -0.3329
  808MOL0     C11396  10.863   8.397   6.378  0.1415 -0.0758  0.6723
  808MOL0     O11397  10.964   8.457   6.312  0.9477 -0.1160  0.5603
  808MOL0     C11398  11.058   8.522   6.382  0.6087 -0.1501  0.3384
  808MOL0     C11399  11.080   8.660   6.351 -0.2013  0.1630  0.2205
  808MOL0     C11400  11.168   8.737   6.434  0.1595 -0.4718 -0.1847
  808MOL0     C11401  11.253   8.673   6.525 -0.2328  0.9235 -0.0456
  808MOL0     O11402  11.360   8.736   6.591 -0.2470  0.7102  0.3690
  808MOL0     C11403  11.427   8.845   6.534  0.4854 -0.5695 -0.3923
  808MOL0     C11404  11.551   8.851   6.614 -0.2025  0.2109 -0.2276
  808MOL0     C11405  11.631   8.983   6.575  1.0007 -0.8224  0.2906
  808MOL0     C11406  11.576   9.096   6.656  0.7880 -0.0260 -0.9055
  808MOL0     C11407  11.678   9.211   6.670  0.1199 -0.8819  0.5049
  808MOL0     C11408  11.642   9.322   6.772 -0.0315  0.4503  0.5106
  808MOL0     C11409  11.770   9.403   6.805 -1.1490 -0.6167 -0.7047
  808MOL0     C11410  11.732   9.505   6.910 -0.2783 -0.0006 -0.2303
  808MOL0    Cl11411  11.709   9.429   7.072 -0.3634 -0.1084 -0.5252
  808MOL0     C11412  11.242   8.533   6.536  0.2971  0.2338  0.7283
  808MOL0     C11413  11.138   8.457   6.472  0.7251 -0.0929 -0.0797
  808MOL0     O11414  10.843   8.415   6.498 -0.1388  0.3524  0.1004
  808MOL0     C11415  10.771   8.307   6.164  0.5562  0.2188  0.7137
  808MOL0     C11416  10.699   8.211   6.090 -0.5679 -0.5110  0.0388
  808MOL0     N11417   9.952   7.768   6.148  0.1318 -0.4382  0.7248
  808MOL0     N11418   9.833   7.751   6.193 -0.3164 -0.3489 -0.0475
  808MOL0     C11419   8.502   7.527   6.486 -0.0950 -1.1728 -0.0152
  808MOL0     C11420   8.388   7.446   6.490  0.9796  0.4752  0.2076
  808MOL0     C11421   8.078   7.136   6.300  0.2375  0.0773 -0.4513
  808MOL0     C11422   7.960   7.211   6.326  0.7276 -0.0117  0.4976
  808MOL0     C11423   7.830   7.157   6.316 -0.6954 -0.4487  0.1075
  808MOL0     C11424   7.818   7.026   6.273 -0.2426  0.1401 -0.1048
  808MOL0     O11425   7.690   6.979   6.254  0.0659  0.5881 -0.1182
  808MOL0     C11426   7.641   6.898   6.362  0.2000 -0.4870  0.0182
  808MOL0     C11427   7.492   6.860   6.344 -0.7428  0.3903  0.7043
  808MOL0     C11428   7.406   6.977   6.318  1.8176 -0.2614  0.1780
  808MOL0     C11429   7.400   7.034   6.174  0.4344 -0.1201  0.3253
  808MOL0     C11430   7.275   7.094   6.139  1.0596  0.1593  0.8422
  808MOL0     C11431   7.174   7.155   6.104  0.5896  0.5386  0.9046
  808MOL0     C11432   7.932   6.954   6.244  0.8411  0.6659  0.3603
  808MOL0     C11433   8.059   6.999   6.256  0.4973  0.5937 -0.4880
  808MOL0     C11434   8.170   6.901   6.231  0.3860  0.6780 -0.0553
  808MOL0     H11435   8.377   7.389   6.149 -1.0740  0.7644 -1.3834
  808MOL0     H11436   8.574   7.530   6.145  0.8267 -3.0031  0.3558
  808MOL0     H11437   8.770   7.687   6.183 -1.8155  1.4472  1.6524
  808MOL0     H11438   8.805   7.530   6.250 -2.5765 -0.3005  0.6388
  808MOL0     H11439   8.889   7.794   6.390  0.7831  0.3432 -0.1254
  808MOL0     H11440   8.933   7.628   6.438 -1.1902 -2.3079 -0.5465
  808MOL0     H11441   9.060   7.579   6.229  1.6625  1.1784 -1.1158
  808MOL0     H11442   9.029   7.726   6.162  0.1431  1.3155  0.1337
  808MOL0     H11443   9.170   7.832   6.341 -2.1515 -0.1573  2.3572
  808MOL0     H11444   9.174   7.674   6.433  0.8198 -1.8844  0.9646
  808MOL0     H11445   9.294   7.666   6.152  1.9416  1.7805 -1.2208
  808MOL0     H11446   9.340   7.592   6.305 -1.1106 -0.9552 -0.8476
  808MOL0     H11447   9.364   7.896   6.203  2.4136  0.2161  0.3961
  808MOL0     H11448   9.390   7.853   6.368 -1.1952  0.6815 -0.7450
  808MOL0     H11449   9.539   7.723   6.133  1.1489 -0.8347  0.2954
  808MOL0     H11450   9.582   7.714   6.310  0.0494  2.7867  1.5767
  808MOL0     H11451   9.589   7.958   6.137  2.8008  0.6887 -1.5013
  808MOL0     H11452   9.627   7.951   6.318  5.1508  4.2826 -2.2468
  808MOL0     H11453   9.838   8.076   6.139 -2.1405 -0.2087  0.2796
  808MOL0     H11454  10.072   8.041   6.007 -1.5373 -1.7445  0.3529
  808MOL0     H11455  10.155   7.888   6.017 -1.9447  0.4037 -2.8221
  808MOL0     H11456  10.150   8.034   6.270 -1.6648  0.4565 -1.6870
  808MOL0     H11457  10.271   7.926   6.193  1.0327  0.8777 -1.5994
  808MOL0     H11458  10.227   8.200   6.083  0.4426  0.6438 -0.0321
  808MOL0     H11459  10.328   8.174   6.225  1.3424 -1.7790 -0.1369
  808MOL0     H11460  10.351   8.017   5.954 -0.7073  1.0036 -1.3333
  808MOL0     H11461  10.425   8.178   5.981  0.7990 -1.3928 -0.9145
  808MOL0     H11462  10.519   8.070   6.349 -0.3583  0.0584 -0.7214
  808MOL0     H11463  10.583   8.121   6.554 -2.6227  1.6866 -0.0441
  808MOL0     H11464  10.575   8.297   6.544  1.3757  2.7953 -2.3699
  808MOL0     H11465  10.723   8.222   6.577 -2.2112  4.6711  1.1466
  808MOL0     H11466  11.021   8.696   6.267  2.8374  3.4568 -0.7830
  808MOL0     H11467  11.168   8.844   6.414 -0.2723 -0.7984 -2.1069
  808MOL0     H11468  11.460   8.826   6.432  0.1433 -0.7061 -0.4758
  808MOL0     H11469  11.366   8.934   6.548  0.3505 -0.8204  0.7929
  808MOL0     H11470  11.538   8.843   6.722 -0.4511 -0.7624 -0.3172
  808MOL0     H11471  11.601   8.757   6.586 -0.1570 -0.2167  1.2269
  808MOL0     H11472  11.620   9.012   6.471  0.7289  1.2803  0.8507
  808MOL0     H11473  11.737   8.965   6.596  0.6321 -1.2905  1.9870
  808MOL0     H11474  11.545   9.064   6.755 -2.6713  0.9569 -1.5544
  808MOL0     H11475  11.486   9.139   6.610  0.1139  0.9007  1.1851
  808MOL0     H11476  11.772   9.168   6.705 -1.1193 -2.7224  1.8190
  808MOL0     H11477  11.684   9.273   6.580  1.7560  0.3456  1.4035
  808MOL0     H11478  11.598   9.271   6.858 -1.8812  1.7328  0.3733
  808MOL0     H11479  11.575   9.389   6.718  0.2894 -0.6538 -1.3275
  808MOL0     H11480  11.810   9.449   6.714  1.1811  0.4779  0.7530
  808MOL0     H11481  11.848   9.333   6.835 -2.6145 -2.4412 -1.0140
  808MOL0     H11482  11.650   9.567   6.874 -1.1567 -2.4234 -2.7893
  808MOL0     H11483  11.821   9.566   6.925  1.2584 -1.6837 -1.9304
  808MOL0     H11484  11.311   8.480   6.601  1.8330 -0.3852 -1.3191
  808MOL0     H11485  11.136   8.349   6.483  4.7874 -0.0942  2.5567
  808MOL0     H11486  10.843   8.364   6.106 -0.0487 -0.9271 -1.2789
  808MOL0     H11487  10.719   8.205   5.984 -0.9583  0.9864 -0.1358
  808MOL0     H11488   8.545   7.568   6.576  0.3599 -0.3888 -0.5764
  808MOL0     H11489   8.321   7.440   6.575  0.8433 -1.4178  0.0279
  808MOL0     H11490   7.978   7.309   6.369 -0.3774  0.5847 -0.3443
  808MOL0     H11491   7.748   7.228   6.326 -2.3684 -2.0240 -1.6313
  808MOL0     H11492   7.690   6.801   6.363  0.3395 -0.4193  1.4463
  808MOL0     H11493   7.658   6.947   6.458  3.6012  1.2996 -1.3302
  808MOL0     H11494   7.463   6.812   6.438  2.6658 -2.5194  0.4921
  808MOL0     H11495   7.482   6.779   6.270  1.7278 -2.0966  2.8559
  808MOL0     H11496   7.304   6.947   6.344  2.5367 -1.0651  2.2719
  808MOL0     H11497   7.428   7.062   6.383  0.2482  0.9927 -0.8747
  808MOL0     H11498   7.401   6.950   6.104  1.4585  0.8727 -0.8938
  808MOL0     H11499   7.484   7.098   6.147 -0.8378  1.6089  0.3247
  808MOL0     H11500   7.082   7.198   6.072 -0.0571 -1.1772  0.3194
  808MOL0     H11501   7.918   6.851   6.211 -0.8108  0.7421  0.7085
  808MOL0     H11502   8.231   6.911   6.141 -0.1298 -0.1567 -0.5034
  808MOL0     H11503   8.238   6.907   6.316 -0.5162  2.6433  0.5903
  808MOL0     H11504   8.134   6.798   6.225  1.6571  0.2744 -1.2895
  809MOL0     O11505   2.470   9.749   3.218  0.4625  0.1587  0.1737
  809MOL0     C11506   2.402   9.805   3.128  0.1105  0.4681 -0.4773
  809MOL0     O11507   2.441   9.921   3.064  1.1580 -0.1148  0.1217
  809MOL0     C11508   2.578   9.959   3.069  0.6879 -0.4787 -0.6863
  809MOL0     C11509   2.607  10.087   3.116  0.5066 -0.3010 -0.6647
  809MOL0     C11510   2.742  10.139   3.128  0.2546  0.2130 -0.3948
  809MOL0     C11511   2.846  10.061   3.084  0.1267 -0.0546 -0.3108
  809MOL0     O11512   2.974  10.102   3.110 -0.0785  0.5969 -0.3636
  809MOL0     C11513   3.073  10.004   3.093  0.2359  0.3212 -0.2080
  809MOL0     C11514   3.201  10.067   3.111 -0.5152 -0.2767  0.0501
  809MOL0     C11515   3.311   9.971   3.080 -0.8299 -0.2253 -0.2577
  809MOL0     C11516   3.455  10.030   3.062 -0.6202 -0.5163  0.2273
  809MOL0     C11517   3.547   9.917   3.033  0.2903  0.0765  0.6651
  809MOL0     C11518   3.688   9.975   3.005  0.0068 -0.8938 -0.0509
  809MOL0     C11519   3.789   9.863   2.997 -0.1751  0.0185  0.1197
  809MOL0     C11520   3.925   9.927   2.948  0.3092 -0.1851 -0.5153
  809MOL0     N11521   4.029   9.825   2.934 -0.1599 -0.1798 -0.6755
  809MOL0     C11522   4.030   9.737   2.832 -0.5600  0.7013 -0.5228
  809MOL0     C11523   4.142   9.668   2.839 -0.1694 -0.3597 -0.3622
  809MOL0     C11524   4.193   9.558   2.760 -0.3081  0.5858  0.4615
  809MOL0     C11525   4.342   9.557   2.717 -0.1023 -0.6542 -1.0305
  809MOL0     C11526   4.433   9.473   2.814  0.2877 -0.5095 -0.2443
  809MOL0     C11527   4.582   9.474   2.801 -1.0859  0.2127 -0.3649
  809MOL0     O11528   4.618   9.455   2.664 -0.6507 -0.2580 -0.1037
  809MOL0     C11529   4.754   9.446   2.626 -1.3308  0.9046 -0.2278
  809MOL0     C11530   4.866   9.427   2.716 -0.9238  0.3863  0.3910
  809MOL0     C11531   4.996   9.393   2.673 -0.5395 -0.0395  1.4372
  809MOL0     C11532   5.096   9.354   2.774 -0.2992  0.3172  0.1558
  809MOL0     C11533   5.030   9.401   2.534 -0.2276  0.5314 -0.5368
  809MOL0     C11534   5.169   9.390   2.483  0.3383 -0.1762  0.0520
  809MOL0     O11535   5.176   9.386   2.351 -0.8959 -0.2238 -0.1375
  809MOL0     C11536   5.296   9.368   2.292 -0.2442  0.5208 -0.4537
  809MOL0     C11537   5.380   9.476   2.272  0.3016 -0.5968  0.0096
  809MOL0     C11538   5.515   9.451   2.236  0.7644  0.5421  0.0945
  809MOL0     C11539   5.561   9.320   2.204 -0.2153  1.1974 -0.0291
  809MOL0     O11540   5.692   9.287   2.182  0.2341 -0.0660  0.0618
  809MOL0     C11541   5.790   9.371   2.244 -0.7731  1.0336  0.2275
  809MOL0     C11542   5.921   9.292   2.237 -0.6855 -0.0368 -0.0226
  809MOL0     C11543   5.917   9.156   2.299 -1.0758  0.4205 -0.1550
  809MOL0     C11544   6.053   9.112   2.334 -0.4083  0.0636  0.5361
  809MOL0     C11545   6.054   8.967   2.400  0.0772  0.8160  0.5201
  809MOL0     C11546   5.946   8.942   2.511  0.0168  0.2192  0.5177
  809MOL0     C11547   5.952   8.802   2.572 -0.5694 -0.5981  0.1156
  809MOL0     C11548   5.839   8.771   2.667  0.1628 -0.5957  0.0240
  809MOL0    Cl11549   5.852   8.613   2.737 -0.3114  0.1296 -0.6293
  809MOL0     C11550   5.467   9.218   2.215  0.1526  0.4685  0.5703
  809MOL0     C11551   5.335   9.240   2.253  0.8109  0.1819  0.0939
  809MOL0     O11552   5.264   9.395   2.566 -0.4339  0.5456  0.5448
  809MOL0     C11553   4.923   9.444   2.450 -0.1739  0.6136 -0.3693
  809MOL0     C11554   4.789   9.449   2.490 -0.0628  0.3528  0.6399
  809MOL0     N11555   4.215   9.727   2.947  0.4236  0.0405  0.3902
  809MOL0     N11556   4.151   9.824   2.999  0.6742 -1.0986 -0.1954
  809MOL0     C11557   2.814   9.937   3.022  0.0389  0.7853  0.5458
  809MOL0     C11558   2.679   9.886   3.020  0.0361 -0.0132  0.2561
  809MOL0     C11559   2.265   9.753   3.098  0.4113  0.0748  0.0891
  809MOL0     C11560   2.212   9.658   3.190  1.4433 -0.8741  0.5455
  809MOL0     C11561   2.098   9.582   3.159 -0.0417 -1.2793 -0.0145
  809MOL0     C11562   2.019   9.616   3.048  0.2499  0.6232  0.3894
  809MOL0     O11563   1.903   9.556   3.023 -0.0518 -0.2718 -0.3118
  809MOL0     C11564   1.789   9.624   3.086 -1.3655 -0.3201 -0.0746
  809MOL0     C11565   1.753   9.766   3.033 -0.7765 -1.0517  0.1544
  809MOL0     C11566   1.604   9.801   3.048  0.9740  0.1486  0.8654
  809MOL0     C11567   1.535   9.793   3.189  0.1957  0.6094 -0.2479
  809MOL0     C11568   1.503   9.652   3.224  0.5123 -0.1454  0.5681
  809MOL0     C11569   1.476   9.537   3.257  0.8328 -0.3676  0.2132
  809MOL0     C11570   2.073   9.707   2.957 -0.3133 -0.1893 -0.1259
  809MOL0     C11571   2.195   9.776   2.976  0.2033  0.7681  0.1029
  809MOL0     C11572   2.253   9.849   2.854  0.6044  0.4913 -0.1710
  809MOL0     H11573   2.522  10.140   3.158  1.3632 -1.1411  2.3387
  809MOL0     H11574   2.759  10.231   3.183 -1.4294 -0.6091  1.6159
  809MOL0     H11575   3.070   9.971   2.988  1.4182  1.6228 -0.6820
  809MOL0     H11576   3.073   9.917   3.160  2.7277  2.1297  2.3742
  809MOL0     H11577   3.205  10.151   3.041  1.7759 -1.0301 -0.8322
  809MOL0     H11578   3.217  10.113   3.209  0.6633 -0.8565  0.1550
  809MOL0     H11579   3.322   9.899   3.161 -1.2473 -1.8144 -1.5588
  809MOL0     H11580   3.293   9.920   2.985 -1.2642 -0.1293 -0.2300
  809MOL0     H11581   3.455  10.120   3.000  0.9922 -1.0611 -0.6209
  809MOL0     H11582   3.470  10.072   3.162  2.0048 -0.9532  0.0973
  809MOL0     H11583   3.513   9.860   2.946  1.4729  1.0645 -0.4745
  809MOL0     H11584   3.544   9.852   3.121  0.0168 -0.3268  0.3603
  809MOL0     H11585   3.673  10.019   2.905 -0.2010 -1.6641 -0.3644
  809MOL0     H11586   3.729  10.044   3.079  1.1998 -1.0931 -0.5064
  809MOL0     H11587   3.763   9.784   2.926  1.0568  0.4282 -0.8132
  809MOL0     H11588   3.795   9.806   3.090  1.3301 -0.7888 -0.4386
  809MOL0     H11589   3.915   9.998   2.865  0.6822 -1.9724 -2.1491
  809MOL0     H11590   3.948   9.978   3.043 -1.9727  1.0090 -0.5133
  809MOL0     H11591   3.937   9.726   2.778 -0.2866 -0.8329 -0.7119
  809MOL0     H11592   4.135   9.559   2.667  1.1467 -2.7285 -0.6130
  809MOL0     H11593   4.169   9.471   2.822  0.5539  0.3400  0.4661
  809MOL0     H11594   4.353   9.517   2.616 -0.6085  0.7769 -1.6857
  809MOL0     H11595   4.386   9.657   2.711  0.5438 -0.7835  1.0031
  809MOL0     H11596   4.402   9.504   2.914 -0.3233 -0.9588 -0.2903
  809MOL0     H11597   4.405   9.370   2.791 -3.5375  0.7273 -1.9604
  809MOL0     H11598   4.626   9.571   2.828  0.1385 -0.3363 -0.2908
  809MOL0     H11599   4.625   9.399   2.869 -0.0783 -0.9351 -2.1630
  809MOL0     H11600   4.851   9.419   2.823  2.2391 -2.4583  0.7833
  809MOL0     H11601   5.162   9.438   2.797 -0.4318 -0.0887  2.1669
  809MOL0     H11602   5.150   9.263   2.745 -0.4685  0.9843 -2.5450
  809MOL0     H11603   5.046   9.346   2.871  2.9151  0.9750  2.0292
  809MOL0     H11604   5.348   9.573   2.308 -0.0478 -1.2763  1.6668
  809MOL0     H11605   5.582   9.536   2.238  3.6459 -1.5079 -1.7599
  809MOL0     H11606   5.798   9.461   2.182  2.4510  0.8303  0.1675
  809MOL0     H11607   5.767   9.397   2.347 -2.9769  0.6651 -0.1178
  809MOL0     H11608   5.939   9.284   2.130  0.8988 -2.1361  0.3353
  809MOL0     H11609   5.996   9.347   2.295  0.9802 -2.3306  0.0856
  809MOL0     H11610   5.887   9.089   2.218  0.9388  1.9948 -2.3638
  809MOL0     H11611   5.844   9.159   2.381 -1.2109 -0.3658 -0.2414
  809MOL0     H11612   6.103   9.185   2.400  1.0140 -0.6567  0.3047
  809MOL0     H11613   6.110   9.111   2.241 -2.7455 -0.0082 -0.9668
  809MOL0     H11614   6.045   8.893   2.319  0.6774  0.7981  0.4610
  809MOL0     H11615   6.148   8.947   2.452  0.7733  1.9012 -0.2948
  809MOL0     H11616   5.841   8.943   2.480 -0.4327  1.1552  1.9390
  809MOL0     H11617   5.950   9.017   2.591 -0.9420  0.0357  0.7484
  809MOL0     H11618   6.045   8.772   2.623 -0.9698 -4.8530 -1.2306
  809MOL0     H11619   5.933   8.743   2.482  1.3829 -1.8661  0.4622
  809MOL0     H11620   5.745   8.779   2.613  0.0832  1.1071  0.3614
  809MOL0     H11621   5.828   8.844   2.748 -1.5795 -0.0865 -0.6270
  809MOL0     H11622   5.491   9.112   2.205 -2.8760 -0.5014  2.1093
  809MOL0     H11623   5.254   9.168   2.246  2.5214 -1.7014 -5.4939
  809MOL0     H11624   4.932   9.448   2.342  0.1445 -2.0479 -0.5194
  809MOL0     H11625   4.709   9.473   2.421  0.3885  0.9146  0.3073
  809MOL0     H11626   2.884   9.872   2.970  0.6151  1.1597  0.8510
  809MOL0     H11627   2.655   9.789   2.976 -2.3454  0.2483  0.8490
  809MOL0     H11628   2.261   9.649   3.286  0.1696 -0.0798  1.2986
  809MOL0     H11629   2.075   9.509   3.237 -2.7111 -1.1500 -0.5935
  809MOL0     H11630   1.711   9.548   3.078 -0.4520 -1.2297 -0.4876
  809MOL0     H11631   1.821   9.642   3.189  2.1355  0.9474 -1.2462
  809MOL0     H11632   1.770   9.770   2.925  0.1060  0.6054  0.3157
  809MOL0     H11633   1.819   9.839   3.082  1.0995 -2.8437  0.4146
  809MOL0     H11634   1.584   9.903   3.015 -1.9137 -0.8166 -0.6973
  809MOL0     H11635   1.544   9.739   2.980  0.4157  1.7744 -0.1881
  809MOL0     H11636   1.445   9.855   3.188  1.3629  2.4922  1.9592
  809MOL0     H11637   1.600   9.843   3.262  2.6778 -1.3327 -0.9698
  809MOL0     H11638   1.444   9.437   3.278 -0.1514  0.0573  0.7910
  809MOL0     H11639   2.016   9.733   2.868 -2.2087  2.6398  1.7514
  809MOL0     H11640   2.349   9.808   2.822  0.7040  0.7853 -0.2506
  809MOL0     H11641   2.187   9.840   2.766  3.9416  0.3434 -2.8795
  809MOL0     H11642   2.255   9.954   2.883 -0.3992  1.1978 -2.3998
  810MOL0     O11643   2.928   5.334   5.819 -0.4797  0.4186 -0.2434
  810MOL0     C11644   3.009   5.378   5.741 -0.8659  0.2426  0.8009
  810MOL0     O11645   3.017   5.510   5.698 -0.4106  0.9941  0.1166
  810MOL0     C11646   2.907   5.594   5.697 -0.0611 -0.1189 -0.1922
  810MOL0     C11647   2.916   5.683   5.593  0.2737 -0.1556 -0.4218
  810MOL0     C11648   2.816   5.783   5.577 -0.5778 -0.4365 -0.4465
  810MOL0     C11649   2.703   5.787   5.658  0.3688 -0.2051  0.3385
  810MOL0     O11650   2.607   5.878   5.621 -0.2306 -0.0265 -0.4256
  810MOL0     C11651   2.525   5.917   5.735 -0.8385 -0.4386  1.2214
  810MOL0     C11652   2.432   6.024   5.682  0.7552  0.0066 -0.6328
  810MOL0     C11653   2.391   6.115   5.801  0.0908  0.2327 -0.2418
  810MOL0     C11654   2.304   6.239   5.766  0.2768  0.3278  0.7302
  810MOL0     C11655   2.269   6.309   5.893 -0.2517 -0.3662  0.2969
  810MOL0     C11656   2.163   6.236   5.985 -0.3521  0.5131  0.1343
  810MOL0     C11657   2.121   6.329   6.095 -1.1126  0.1596 -0.4187
  810MOL0     C11658   2.024   6.256   6.185  0.0799 -0.1170 -1.0441
  810MOL0     N11659   1.890   6.277   6.139 -0.7670 -0.8235  0.3143
  810MOL0     C11660   1.815   6.391   6.141  0.7962  0.1107  0.5554
  810MOL0     C11661   1.700   6.359   6.069 -0.3940 -0.0123 -0.3938
  810MOL0     C11662   1.585   6.451   6.034 -0.4677  0.6820 -0.7645
  810MOL0     C11663   1.464   6.389   6.113  0.5797  0.9184 -0.2850
  810MOL0     C11664   1.344   6.475   6.096  0.6656 -0.6549  0.2578
  810MOL0     C11665   1.253   6.451   5.971  0.0626 -0.4148 -0.1111
  810MOL0     O11666   1.146   6.539   5.989 -0.0638 -0.3081  0.1608
  810MOL0     C11667   1.052   6.554   5.894  0.1605  0.2916 -0.1233
  810MOL0     C11668   1.079   6.524   5.759  1.0061 -0.1241 -0.2453
  810MOL0     C11669   0.981   6.531   5.672  0.9551 -0.3326 -0.2884
  810MOL0     C11670   1.025   6.489   5.528 -0.6585  0.4083 -0.0467
  810MOL0     C11671   0.854   6.585   5.708  0.4214  0.6840 -0.0160
  810MOL0     C11672   0.741   6.624   5.615  0.7863  0.4678  0.4731
  810MOL0     O11673   0.731   6.572   5.493  0.3693 -0.4286 -0.9703
  810MOL0     C11674   0.618   6.598   5.415  0.6367 -0.3079 -0.3300
  810MOL0     C11675   0.622   6.680   5.300 -0.1542 -0.4523 -0.1868
  810MOL0     C11676   0.507   6.687   5.216  0.5337  0.0971  0.0087
  810MOL0     C11677   0.393   6.631   5.249  0.4344 -0.6986  0.6377
  810MOL0     O11678   0.281   6.640   5.167 -0.1790 -0.6803 -0.2437
  810MOL0     C11679   0.232   6.775   5.149  0.2824  0.3628 -0.4719
  810MOL0     C11680   0.143   6.834   5.256 -0.4531  0.0352 -0.4246
  810MOL0     C11681   0.091   6.976   5.212 -0.3885  0.5271  0.4484
  810MOL0     C11682   0.005   7.046   5.330 -1.3322 -0.5525  0.0614
  810MOL0     C11683  -0.139   6.989   5.341 -0.0190  0.4629 -0.6571
  810MOL0     C11684  -0.208   7.039   5.463  0.5936  0.1051 -0.0571
  810MOL0     C11685  -0.358   6.998   5.478  0.6803  0.1300 -0.4471
  810MOL0     C11686  -0.455   7.062   5.382 -0.0459  0.7533 -0.0806
  810MOL0    Cl11687  -0.501   7.228   5.420  0.0074  0.0268 -0.5156
  810MOL0     C11688   0.392   6.548   5.363  0.8538  0.1661  0.1436
  810MOL0     C11689   0.502   6.524   5.447 -1.6019  0.4306 -0.0655
  810MOL0     O11690   0.651   6.691   5.671  0.0312  1.0256  0.4124
  810MOL0     C11691   0.826   6.609   5.849 -0.1472  0.6413 -0.5341
  810MOL0     C11692   0.931   6.592   5.943  1.5457  0.1897 -0.0744
  810MOL0     N11693   1.701   6.228   6.033 -0.2896 -0.5122 -0.9706
  810MOL0     N11694   1.811   6.180   6.079 -0.2072 -0.4313 -0.8234
  810MOL0     C11695   2.695   5.695   5.762  0.1453 -0.0073 -0.0757
  810MOL0     C11696   2.797   5.599   5.784  0.6409 -0.0409 -0.7940
  810MOL0     C11697   3.110   5.287   5.684 -0.5462  0.2337 -0.3836
  810MOL0     C11698   3.203   5.233   5.775  0.0439 -0.9567  0.5122
  810MOL0     C11699   3.295   5.134   5.736  0.4340 -0.0332  0.5674
  810MOL0     C11700   3.292   5.089   5.607 -0.3143 -0.8899 -0.5033
  810MOL0     O11701   3.375   4.993   5.549 -0.2340 -0.1432 -0.3234
  810MOL0     C11702   3.410   4.887   5.641  0.1411 -0.3939 -0.1508
  810MOL0     C11703   3.525   4.808   5.584  0.4429  0.1680 -0.3183
  810MOL0     C11704   3.650   4.896   5.593  0.2348  0.0548  0.1085
  810MOL0     C11705   3.774   4.807   5.593 -0.2381  0.2469 -0.1803
  810MOL0     C11706   3.783   4.690   5.506 -0.7734  0.2641  0.1676
  810MOL0     C11707   3.768   4.586   5.442  0.5902 -0.2930 -0.0130
  810MOL0     C11708   3.189   5.146   5.517 -0.5457  0.9467  0.0920
  810MOL0     C11709   3.104   5.241   5.556  0.1291  0.3839  0.1222
  810MOL0     C11710   2.995   5.292   5.460  0.4825  0.3130 -0.5894
  810MOL0     H11711   3.003   5.681   5.528  0.1996 -3.3227 -0.6022
  810MOL0     H11712   2.818   5.852   5.493  1.3708 -0.0354 -0.1038
  810MOL0     H11713   2.592   5.960   5.810 -0.4654 -1.7391  1.6438
  810MOL0     H11714   2.460   5.840   5.775 -2.0872  0.4130  0.8778
  810MOL0     H11715   2.490   6.087   5.614 -0.2567  2.0221  0.2850
  810MOL0     H11716   2.349   5.989   5.621  0.9287 -0.2332 -0.7329
  810MOL0     H11717   2.334   6.046   5.864 -3.3414  1.1472 -2.0813
  810MOL0     H11718   2.478   6.144   5.859  0.1548  0.2107 -0.3258
  810MOL0     H11719   2.366   6.311   5.713 -1.5196  1.2221 -0.2501
  810MOL0     H11720   2.212   6.207   5.717  0.1959  1.1987  0.2878
  810MOL0     H11721   2.242   6.411   5.863  0.6760 -0.4241 -0.8149
  810MOL0     H11722   2.359   6.344   5.945 -1.1427  2.2972  0.2246
  810MOL0     H11723   2.080   6.208   5.919  0.3409 -3.8647  0.8248
  810MOL0     H11724   2.204   6.143   6.026  1.8642  0.6612 -1.5598
  810MOL0     H11725   2.076   6.414   6.043 -0.0637 -0.3207 -2.2025
  810MOL0     H11726   2.209   6.342   6.159 -1.6133 -4.2195  1.5631
  810MOL0     H11727   2.048   6.150   6.196  1.6813  0.0951 -2.1234
  810MOL0     H11728   2.030   6.299   6.286 -1.3098 -0.0233 -0.9783
  810MOL0     H11729   1.838   6.484   6.191 -1.4382  0.4980  0.9592
  810MOL0     H11730   1.559   6.459   5.928 -2.2069 -2.2710 -0.6805
  810MOL0     H11731   1.613   6.555   6.052 -0.0973  0.5673 -0.6707
  810MOL0     H11732   1.444   6.289   6.074 -0.4399  0.1006  2.1530
  810MOL0     H11733   1.488   6.383   6.220  2.4480  1.3931 -0.6354
  810MOL0     H11734   1.286   6.451   6.185  0.3307  1.6010  0.7043
  810MOL0     H11735   1.376   6.580   6.100 -1.3761  0.0613 -0.7706
  810MOL0     H11736   1.304   6.479   5.879  0.2575  5.3222  1.4053
  810MOL0     H11737   1.217   6.347   5.964  0.5932 -0.5940 -0.2247
  810MOL0     H11738   1.180   6.510   5.722  1.7107  1.0682  1.1270
  810MOL0     H11739   1.002   6.384   5.507  0.9966  0.6591 -3.9744
  810MOL0     H11740   1.132   6.492   5.508 -0.7231 -1.5261 -0.8505
  810MOL0     H11741   0.969   6.545   5.452  1.0239 -0.1120 -1.7448
  810MOL0     H11742   0.717   6.728   5.280  0.2415 -1.4460 -0.8134
  810MOL0     H11743   0.497   6.756   5.132  2.0013 -0.4408 -0.6410
  810MOL0     H11744   0.314   6.848   5.154 -0.0446  0.6486  1.7536
  810MOL0     H11745   0.177   6.792   5.056 -3.0501 -0.2659  1.2496
  810MOL0     H11746   0.054   6.773   5.274 -1.6029  2.4229  3.0924
  810MOL0     H11747   0.195   6.848   5.351 -1.5397  0.7247  0.0957
  810MOL0     H11748   0.027   6.955   5.126 -1.5012 -1.4339  1.6842
  810MOL0     H11749   0.177   7.036   5.183  0.2051  1.2928  3.4246
  810MOL0     H11750  -0.004   7.155   5.332 -2.1613 -0.6041  1.9178
  810MOL0     H11751   0.065   7.023   5.419  4.4082  1.5471 -2.7929
  810MOL0     H11752  -0.205   7.022   5.260 -1.4346  0.6859  0.5475
  810MOL0     H11753  -0.122   6.881   5.337 -1.5288  0.0531  2.0017
  810MOL0     H11754  -0.203   7.148   5.470  3.6964 -0.0723  4.3724
  810MOL0     H11755  -0.156   7.000   5.551  0.1120 -1.1103 -0.2781
  810MOL0     H11756  -0.402   7.015   5.577  1.2788 -1.2530  0.0833
  810MOL0     H11757  -0.378   6.891   5.464 -0.5731  0.6523 -3.2878
  810MOL0     H11758  -0.543   7.000   5.364  0.0191  0.6309  0.0116
  810MOL0     H11759  -0.397   7.076   5.291  1.7124  0.2879  0.9167
  810MOL0     H11760   0.307   6.483   5.380  0.5287  0.4036 -0.5150
  810MOL0     H11761   0.505   6.460   5.535  0.2935  0.6206  0.0609
  810MOL0     H11762   0.730   6.644   5.886  0.2410  1.2883 -0.1247
  810MOL0     H11763   0.912   6.610   6.049 -1.3787  1.7542 -0.7684
  810MOL0     H11764   2.600   5.695   5.816 -1.1605  1.6185 -2.1944
  810MOL0     H11765   2.804   5.540   5.874  0.8105  2.0356  0.6138
  810MOL0     H11766   3.207   5.283   5.871  1.3034 -1.5170  0.7727
  810MOL0     H11767   3.368   5.101   5.810 -2.4612 -2.6867  2.4474
  810MOL0     H11768   3.430   4.926   5.741 -0.4865  2.4307 -1.0258
  810MOL0     H11769   3.317   4.830   5.655 -0.7495  0.8039 -1.0106
  810MOL0     H11770   3.505   4.762   5.487 -1.4751  4.2009 -2.0703
  810MOL0     H11771   3.540   4.729   5.658  0.7109  1.3120  0.8924
  810MOL0     H11772   3.654   4.959   5.503  1.0017 -0.3901 -0.1769
  810MOL0     H11773   3.658   4.953   5.686 -0.0108 -0.8131  0.6674
  810MOL0     H11774   3.781   4.768   5.695 -2.1084 -1.2898 -0.5647
  810MOL0     H11775   3.861   4.867   5.564  2.1694 -2.8996 -0.0668
  810MOL0     H11776   3.753   4.504   5.375  1.5635 -0.1482 -0.4302
  810MOL0     H11777   3.173   5.096   5.421 -2.6324 -0.2617  1.0094
  810MOL0     H11778   2.895   5.277   5.503  0.0922  2.6255 -0.5879
  810MOL0     H11779   3.009   5.398   5.437 -1.2681  0.8541  0.5672
  810MOL0     H11780   3.006   5.242   5.364 -0.2077 -3.1520  0.9549
  811MOL0     O11781   2.126   9.371   5.603 -0.9588  0.0019 -0.4782
  811MOL0     C11782   2.086   9.366   5.716 -0.0302  0.2363  0.6918
  811MOL0     O11783   2.153   9.347   5.836  0.7262 -0.3273  0.7153
  811MOL0     C11784   2.285   9.332   5.843  0.6030 -0.7070 -0.2664
  811MOL0     C11785   2.383   9.390   5.759  0.2559  0.1923  0.3533
  811MOL0     C11786   2.520   9.384   5.786  0.4913  0.8308  0.6345
  811MOL0     C11787   2.564   9.312   5.903  0.1551  0.2153 -0.8106
  811MOL0     O11788   2.698   9.295   5.944  0.4186 -0.0969 -0.6484
  811MOL0     C11789   2.801   9.348   5.866 -0.1363  0.9684  0.0582
  811MOL0     C11790   2.937   9.324   5.930  0.0011  0.2769  0.4526
  811MOL0     C11791   3.047   9.390   5.844 -0.1657  0.6184  0.0653
  811MOL0     C11792   3.051   9.339   5.699  0.1080  0.2348 -0.0475
  811MOL0     C11793   3.179   9.364   5.618 -0.4220  0.0888 -0.3692
  811MOL0     C11794   3.180   9.310   5.478 -0.2882 -0.6654 -0.1761
  811MOL0     C11795   3.319   9.300   5.403  0.7644  0.0958  0.5402
  811MOL0     C11796   3.384   9.432   5.380 -0.8457 -0.4731  0.0875
  811MOL0     N11797   3.494   9.420   5.276  0.2438  0.4355  0.2450
  811MOL0     C11798   3.625   9.400   5.301  0.4324  0.2198 -0.3471
  811MOL0     C11799   3.680   9.381   5.178  0.0722 -0.0780  0.1172
  811MOL0     C11800   3.825   9.356   5.159 -0.5739  0.3253  0.5809
  811MOL0     C11801   3.858   9.217   5.100 -0.2355  0.2096  0.8435
  811MOL0     C11802   3.868   9.115   5.212  0.3805  0.4345 -0.3407
  811MOL0     C11803   3.872   8.968   5.179  0.5798  0.6625 -0.3607
  811MOL0     O11804   4.004   8.943   5.112 -0.6087 -0.1986 -0.5327
  811MOL0     C11805   4.001   8.838   5.019  0.0891 -0.1582  0.1438
  811MOL0     C11806   3.919   8.718   5.019 -0.1882 -0.4041 -0.2320
  811MOL0     C11807   3.917   8.627   4.910 -0.2753 -0.1563 -0.2095
  811MOL0     C11808   3.807   8.525   4.906 -0.1002 -0.1648 -0.6123
  811MOL0     C11809   4.011   8.654   4.803 -0.0110  0.0122 -0.1975
  811MOL0     C11810   4.018   8.567   4.690  0.0059  0.9818  0.1267
  811MOL0     O11811   3.960   8.447   4.690  0.1973 -0.3406  0.7927
  811MOL0     C11812   3.973   8.366   4.578 -0.5578  0.7263  0.9363
  811MOL0     C11813   3.893   8.391   4.468 -0.0795 -0.3953 -0.5128
  811MOL0     C11814   3.925   8.329   4.350  0.5177  0.2590  0.1207
  811MOL0     C11815   4.033   8.234   4.337  0.9364  0.1030  0.1080
  811MOL0     O11816   4.048   8.172   4.216 -0.2875  0.0860  0.5088
  811MOL0     C11817   4.177   8.132   4.176  0.3002  0.6426 -0.2286
  811MOL0     C11818   4.203   8.163   4.028  0.0782 -0.5826  0.1434
  811MOL0     C11819   4.349   8.157   3.994 -0.2879 -0.1434 -0.2863
  811MOL0     C11820   4.396   8.015   3.957  0.2876 -0.7321  0.3208
  811MOL0     C11821   4.542   8.011   3.919 -0.0911 -0.1501  0.1410
  811MOL0     C11822   4.580   7.876   3.853 -0.3915  0.4286  0.6813
  811MOL0     C11823   4.732   7.864   3.845  0.2001 -0.9680  0.3249
  811MOL0     C11824   4.769   7.734   3.776  0.2144 -0.1603  0.5247
  811MOL0    Cl11825   4.721   7.589   3.877  0.0477 -0.0159  0.2593
  811MOL0     C11826   4.114   8.220   4.456 -0.1366  0.4711  0.3392
  811MOL0     C11827   4.088   8.281   4.572  0.3369 -0.4239 -0.4824
  811MOL0     O11828   4.093   8.607   4.600 -0.9334  0.2917 -0.2572
  811MOL0     C11829   4.103   8.758   4.814 -0.3337  0.7584  0.1718
  811MOL0     C11830   4.092   8.849   4.914  0.5401  0.1118 -0.0669
  811MOL0     N11831   3.582   9.391   5.076 -1.4961 -0.5695  0.0895
  811MOL0     N11832   3.471   9.405   5.140  0.8422 -0.4425 -0.0666
  811MOL0     C11833   2.461   9.259   5.988  0.3998  0.0892  0.8208
  811MOL0     C11834   2.323   9.274   5.957 -0.2899 -0.2855  0.7326
  811MOL0     C11835   1.942   9.368   5.732  1.0365  1.2586  0.0496
  811MOL0     C11836   1.877   9.460   5.810 -0.1748 -0.2791  0.4397
  811MOL0     C11837   1.740   9.471   5.828 -0.2532  0.2297  0.1342
  811MOL0     C11838   1.652   9.393   5.749 -0.0666  0.5620 -0.1996
  811MOL0     O11839   1.518   9.415   5.759 -0.1738  0.4154 -0.7046
  811MOL0     C11840   1.433   9.357   5.663 -0.3921  0.7912 -0.0843
  811MOL0     C11841   1.290   9.395   5.694 -0.1804  0.6102  0.1715
  811MOL0     C11842   1.227   9.351   5.829 -0.2487 -0.8176  0.8996
  811MOL0     C11843   1.078   9.404   5.830 -0.1906  0.2519 -0.2144
  811MOL0     C11844   1.060   9.552   5.849 -0.1925  0.4670 -0.6386
  811MOL0     C11845   1.039   9.673   5.863 -0.2664 -1.3396 -0.0387
  811MOL0     C11846   1.714   9.295   5.665 -0.1335  0.7552  0.2971
  811MOL0     C11847   1.849   9.280   5.663  0.3135  0.1261  0.0888
  811MOL0     C11848   1.897   9.155   5.584  0.1054 -0.3406  0.5788
  811MOL0     H11849   2.350   9.452   5.677 -1.8595 -2.5225 -1.0227
  811MOL0     H11850   2.587   9.437   5.719 -1.7747  0.5002 -2.1241
  811MOL0     H11851   2.786   9.455   5.850  2.4062  1.3412 -0.3462
  811MOL0     H11852   2.803   9.304   5.766 -0.8842 -1.5097  1.0668
  811MOL0     H11853   2.948   9.365   6.031  2.8531 -0.3715  0.5042
  811MOL0     H11854   2.962   9.218   5.942  2.0420  0.7286  0.5729
  811MOL0     H11855   3.036   9.498   5.835 -1.6723  0.3709 -1.8184
  811MOL0     H11856   3.140   9.384   5.902  0.8098  3.5592 -0.9703
  811MOL0     H11857   3.033   9.231   5.706  0.3598  0.2923  2.3116
  811MOL0     H11858   2.972   9.389   5.642 -0.5684  1.4294  1.8571
  811MOL0     H11859   3.254   9.311   5.678 -1.3915  0.8586  1.6238
  811MOL0     H11860   3.204   9.470   5.607 -0.7648 -0.0444 -3.0768
  811MOL0     H11861   3.137   9.209   5.474 -1.1206 -0.4209  1.5418
  811MOL0     H11862   3.118   9.375   5.415  0.8432  1.0978  0.4575
  811MOL0     H11863   3.296   9.253   5.307  0.1551  0.2346  0.6144
  811MOL0     H11864   3.377   9.229   5.463 -0.8113 -0.7027  1.1704
  811MOL0     H11865   3.306   9.501   5.345  1.5805  1.6002 -1.6135
  811MOL0     H11866   3.432   9.476   5.468 -0.8036  0.2514 -0.2903
  811MOL0     H11867   3.678   9.408   5.395  1.7396 -0.7185 -0.9784
  811MOL0     H11868   3.884   9.363   5.251 -0.4024  1.7794  0.3724
  811MOL0     H11869   3.857   9.440   5.097 -1.5396  0.8282  0.7439
  811MOL0     H11870   3.791   9.189   5.018 -0.8853  0.6510  1.2150
  811MOL0     H11871   3.957   9.218   5.052  0.8475 -1.2084  2.8956
  811MOL0     H11872   3.961   9.140   5.263  0.1297  0.1831  0.2474
  811MOL0     H11873   3.783   9.134   5.278  0.7749  0.5233  0.1474
  811MOL0     H11874   3.860   8.916   5.275 -2.7491 -0.5032 -1.2527
  811MOL0     H11875   3.788   8.939   5.115  0.8751  0.9646 -0.8948
  811MOL0     H11876   3.852   8.723   5.105  1.2904 -0.9973  0.9969
  811MOL0     H11877   3.773   8.508   4.803  3.2999 -0.8936 -1.7381
  811MOL0     H11878   3.715   8.550   4.961  0.1502  1.4919 -0.8928
  811MOL0     H11879   3.843   8.431   4.948 -0.2228  0.6803  1.5175
  811MOL0     H11880   3.806   8.455   4.470 -0.8085 -1.3777  0.4272
  811MOL0     H11881   3.862   8.343   4.263  1.4722 -4.0401 -1.4909
  811MOL0     H11882   4.252   8.186   4.234  0.6022 -2.0668  2.1213
  811MOL0     H11883   4.193   8.025   4.192  0.8234  0.9023  1.2065
  811MOL0     H11884   4.150   8.085   3.973 -0.4988  1.6557 -2.7745
  811MOL0     H11885   4.171   8.264   3.998  2.7335  0.5320  0.8209
  811MOL0     H11886   4.401   8.196   4.082 -0.9134  4.2514 -1.6397
  811MOL0     H11887   4.372   8.218   3.906 -3.3410  1.6420  0.0398
  811MOL0     H11888   4.351   7.984   3.862 -2.4153 -0.6063  1.4653
  811MOL0     H11889   4.378   7.944   4.038 -1.5262 -0.1838  0.4318
  811MOL0     H11890   4.569   8.092   3.851 -0.8132 -0.5666 -0.6581
  811MOL0     H11891   4.604   8.021   4.009  0.1315  2.0556 -0.2074
  811MOL0     H11892   4.539   7.873   3.752 -0.0487  1.2458  0.5066
  811MOL0     H11893   4.530   7.794   3.905 -3.3675  1.1562 -0.8216
  811MOL0     H11894   4.777   7.871   3.944  3.1190  0.4137 -0.9977
  811MOL0     H11895   4.776   7.944   3.785 -2.2296 -0.6759 -1.2494
  811MOL0     H11896   4.876   7.735   3.755  0.1035 -0.9472 -0.1713
  811MOL0     H11897   4.712   7.727   3.682  1.0098 -1.4485  0.1055
  811MOL0     H11898   4.185   8.139   4.461 -0.2694  0.4067  1.8659
  811MOL0     H11899   4.142   8.267   4.664  1.0070  3.0733 -0.2226
  811MOL0     H11900   4.174   8.787   4.737 -2.2314  1.5833 -1.3568
  811MOL0     H11901   4.152   8.939   4.921 -0.7156  1.0144 -0.6862
  811MOL0     H11902   2.482   9.213   6.084  1.7970  3.0994  2.0557
  811MOL0     H11903   2.248   9.236   6.025 -1.9129 -1.0740 -1.3994
  811MOL0     H11904   1.932   9.542   5.856 -1.3232  0.3858  0.6680
  811MOL0     H11905   1.692   9.532   5.904 -0.3462 -0.9784  1.0795
  811MOL0     H11906   1.469   9.392   5.566 -0.9899  0.8745 -0.2809
  811MOL0     H11907   1.441   9.248   5.653 -1.3797  0.8727 -2.2529
  811MOL0     H11908   1.224   9.370   5.610  0.0095  1.3489 -0.2054
  811MOL0     H11909   1.288   9.504   5.694 -0.5316  0.6042 -0.3621
  811MOL0     H11910   1.233   9.242   5.838 -1.5940 -1.1606 -1.4564
  811MOL0     H11911   1.281   9.397   5.912  0.5397  0.0743 -0.0822
  811MOL0     H11912   1.027   9.366   5.919 -1.7879  2.8444  0.0861
  811MOL0     H11913   1.022   9.379   5.739 -0.6754  1.4011 -0.2560
  811MOL0     H11914   1.024   9.779   5.874 -1.9132 -1.5834  0.3415
  811MOL0     H11915   1.662   9.214   5.614  3.1045 -1.3691  0.0375
  811MOL0     H11916   1.993   9.120   5.621 -0.5869 -1.1660  1.6450
  811MOL0     H11917   1.825   9.073   5.597  2.1301 -1.9889  1.9331
  811MOL0     H11918   1.900   9.178   5.477  2.0613 -2.7183  0.0635
  812MOL0     O11919   0.167   0.206   9.326  0.0881  0.7346 -0.2421
  812MOL0     C11920   0.100   0.251   9.235  0.5166  0.1782  0.3186
  812MOL0     O11921   0.141   0.359   9.159  0.1843  0.1440  0.3478
  812MOL0     C11922   0.267   0.395   9.168  0.4212 -0.5749  0.0297
  812MOL0     C11923   0.300   0.504   9.250 -0.0237  0.2472 -0.0790
  812MOL0     C11924   0.432   0.548   9.236 -0.0373  0.4932 -0.0156
  812MOL0     C11925   0.531   0.489   9.152 -0.0883 -0.5039  0.3785
  812MOL0     O11926   0.660   0.525   9.138  0.0301  0.2591  0.2342
  812MOL0     C11927   0.705   0.637   9.207 -0.2628  0.0461 -0.7242
  812MOL0     C11928   0.859   0.649   9.174  0.8150  0.7527 -1.5326
  812MOL0     C11929   0.935   0.531   9.239 -0.0409 -0.1231  0.7625
  812MOL0     C11930   1.080   0.525   9.189 -0.6499 -0.1442 -0.8411
  812MOL0     C11931   1.170   0.632   9.262  0.0638  1.1899  0.6438
  812MOL0     C11932   1.316   0.587   9.227 -0.3232  0.5447  0.0874
  812MOL0     C11933   1.410   0.668   9.312  0.3573 -0.0211  0.8336
  812MOL0     C11934   1.410   0.640   9.468 -0.4466 -0.1972  0.7150
  812MOL0     N11935   1.545   0.610   9.531  0.1664 -1.1545  0.4528
  812MOL0     C11936   1.647   0.545   9.472 -0.3462  0.2982  0.3466
  812MOL0     C11937   1.752   0.563   9.560  0.0516  0.4050 -1.0923
  812MOL0     C11938   1.887   0.512   9.535 -0.5934 -0.4516 -0.4926
  812MOL0     C11939   2.000   0.611   9.562  0.2934 -1.0339  0.6167
  812MOL0     C11940   1.981   0.723   9.452 -0.0938 -0.4499  0.2904
  812MOL0     C11941   2.082   0.826   9.467  0.1811  0.2595 -0.5581
  812MOL0     O11942   2.205   0.765   9.443 -0.1122  0.8579  0.5469
  812MOL0     C11943   2.312   0.843   9.407  0.0109 -0.5130  0.4211
  812MOL0     C11944   2.439   0.793   9.421 -0.4517  0.0247  0.5217
  812MOL0     C11945   2.554   0.865   9.376  0.6824  0.4785 -0.2161
  812MOL0     C11946   2.687   0.792   9.381  0.0233 -0.7887 -0.3474
  812MOL0     C11947   2.540   0.993   9.323  0.1388  0.1841  0.1212
  812MOL0     C11948   2.654   1.062   9.262  0.7271  0.0469 -0.0457
  812MOL0     O11949   2.749   0.995   9.191  1.1770  0.4541 -0.1678
  812MOL0     C11950   2.869   1.053   9.165 -0.3443 -0.0727  0.0764
  812MOL0     C11951   2.924   1.172   9.217 -0.9784 -0.5307 -0.4544
  812MOL0     C11952   3.048   1.225   9.174  0.1834  0.5375 -0.1821
  812MOL0     C11953   3.109   1.158   9.066  1.0716 -0.3936  0.5072
  812MOL0     O11954   3.231   1.185   9.004 -0.0566  0.1340 -0.2125
  812MOL0     C11955   3.310   1.282   9.075  0.3235  0.1139  0.1374
  812MOL0     C11956   3.442   1.301   9.006 -0.7528 -0.5544 -1.1959
  812MOL0     C11957   3.520   1.171   8.980  0.1307  0.0282  0.5878
  812MOL0     C11958   3.654   1.210   8.911 -0.0099 -0.6063 -1.5550
  812MOL0     C11959   3.708   1.097   8.825  0.2104  0.0922 -0.8187
  812MOL0     C11960   3.841   1.125   8.761  0.1754  0.0582  0.0741
  812MOL0     C11961   3.900   0.995   8.699 -0.7488 -0.1688  0.4269
  812MOL0     C11962   4.041   1.023   8.638 -0.9046  0.1513  0.6422
  812MOL0    Cl11963   4.144   1.107   8.761  0.1020 -0.3959 -0.0610
  812MOL0     C11964   3.053   1.045   9.007  0.3711 -0.5697  0.7409
  812MOL0     C11965   2.934   0.992   9.054 -0.2194  0.0253  0.3915
  812MOL0     O11966   2.649   1.187   9.280  0.1710  0.3982 -0.0304
  812MOL0     C11967   2.413   1.050   9.322  0.0894 -0.6314  0.4053
  812MOL0     C11968   2.303   0.975   9.356 -0.1257  0.1390 -0.8524
  812MOL0     N11969   1.708   0.623   9.676  0.6210 -0.7172 -0.7367
  812MOL0     N11970   1.586   0.659   9.652  0.0504  0.1295  0.9875
  812MOL0     C11971   0.499   0.370   9.088 -0.3958 -0.1883  0.0869
  812MOL0     C11972   0.362   0.336   9.091 -0.1256  0.2581 -0.5799
  812MOL0     C11973  -0.037   0.189   9.202  0.5995  0.7782  0.7372
  812MOL0     C11974  -0.077   0.070   9.268  0.1184  0.1628 -0.7432
  812MOL0     C11975  -0.195   0.001   9.251  0.3031 -0.5728 -0.2965
  812MOL0     C11976  -0.279   0.052   9.151 -1.2064  0.6055  0.6626
  812MOL0     O11977  -0.400  -0.006   9.126  0.0148 -0.0080  0.1566
  812MOL0     C11978  -0.425  -0.076   8.998 -0.1917  0.1588 -0.8777
  812MOL0     C11979  -0.552  -0.171   9.010 -0.4908 -0.5828 -0.0624
  812MOL0     C11980  -0.688  -0.100   9.023  0.0795  0.5279  0.4611
  812MOL0     C11981  -0.805  -0.198   9.014  0.2028  0.0954 -0.4508
  812MOL0     C11982  -0.812  -0.286   9.133  0.6847  0.1138 -0.0633
  812MOL0     C11983  -0.821  -0.353   9.232 -0.2329  0.3058 -0.5184
  812MOL0     C11984  -0.239   0.161   9.079  0.0200 -0.1185 -0.3021
  812MOL0     C11985  -0.124   0.228   9.093 -0.5068 -0.9625 -0.0739
  812MOL0     C11986  -0.105   0.337   8.992 -0.0582 -0.5849 -0.4032
  812MOL0     H11987   0.219   0.552   9.302 -0.7545 -2.4758  1.4727
  812MOL0     H11988   0.446   0.640   9.292  1.4396 -0.6112  1.5377
  812MOL0     H11989   0.687   0.636   9.314 -2.5401 -0.8877 -1.0634
  812MOL0     H11990   0.653   0.721   9.159  1.8377  1.4360 -0.7022
  812MOL0     H11991   0.866   0.648   9.065  2.4764 -0.8003 -1.4461
  812MOL0     H11992   0.893   0.743   9.219 -3.4373  1.7725  0.0164
  812MOL0     H11993   0.937   0.552   9.346 -0.1073  2.5240  0.3174
  812MOL0     H11994   0.877   0.441   9.219 -1.2643  1.5455 -4.7648
  812MOL0     H11995   1.117   0.427   9.222  2.6267  1.1345 -0.3224
  812MOL0     H11996   1.082   0.539   9.081 -2.9278 -1.2866 -1.0970
  812MOL0     H11997   1.151   0.647   9.369 -1.0177  2.2707  0.3284
  812MOL0     H11998   1.141   0.729   9.220 -0.1248  0.4428 -0.9943
  812MOL0     H11999   1.333   0.483   9.257  1.4239  0.9096  0.4531
  812MOL0     H12000   1.328   0.609   9.121 -0.9689  0.2626 -0.0438
  812MOL0     H12001   1.376   0.771   9.304  1.6099  0.2783 -1.1471
  812MOL0     H12002   1.509   0.658   9.267  0.0650 -0.9059  0.3565
  812MOL0     H12003   1.368   0.722   9.526  2.0167 -0.1593  2.5845
  812MOL0     H12004   1.334   0.565   9.492 -1.4032  1.4762  3.2744
  812MOL0     H12005   1.658   0.493   9.377  1.3988 -0.0045  0.6727
  812MOL0     H12006   1.897   0.453   9.443  1.5216 -1.7378  0.4787
  812MOL0     H12007   1.906   0.438   9.613  1.6964  1.4370  0.8687
  812MOL0     H12008   1.976   0.653   9.660 -3.4332  1.8208 -1.2716
  812MOL0     H12009   2.097   0.560   9.558 -0.6256 -2.7644 -0.8840
  812MOL0     H12010   1.997   0.686   9.350 -0.7432 -0.3961  0.1632
  812MOL0     H12011   1.879   0.762   9.458  0.7174  1.6363  1.2418
  812MOL0     H12012   2.055   0.910   9.403  1.4741  2.1575  1.2606
  812MOL0     H12013   2.086   0.874   9.565 -1.5038 -3.2982  1.4312
  812MOL0     H12014   2.458   0.695   9.463 -0.1221  0.1364  0.6347
  812MOL0     H12015   2.751   0.866   9.431  0.2581 -1.0637 -0.2404
  812MOL0     H12016   2.729   0.763   9.284 -1.8930  2.1948 -2.2260
  812MOL0     H12017   2.675   0.707   9.449 -2.6672  0.8778  1.4366
  812MOL0     H12018   2.882   1.208   9.310 -1.1863  1.9518 -1.4505
  812MOL0     H12019   3.097   1.309   9.223  0.7154  0.2854 -0.2717
  812MOL0     H12020   3.246   1.370   9.082 -0.1343 -0.3153  1.8929
  812MOL0     H12021   3.333   1.245   9.175 -0.3131 -0.4758  0.0685
  812MOL0     H12022   3.428   1.367   8.920  2.2530  1.5074 -0.2860
  812MOL0     H12023   3.505   1.359   9.075  0.7595 -0.6001 -2.4635
  812MOL0     H12024   3.454   1.111   8.918 -1.5935 -0.0313  2.4045
  812MOL0     H12025   3.530   1.112   9.071  3.2440 -2.8054 -1.3476
  812MOL0     H12026   3.730   1.229   8.988 -1.4546  1.7759 -0.6093
  812MOL0     H12027   3.638   1.292   8.841 -0.9598 -1.3011 -2.1696
  812MOL0     H12028   3.713   1.011   8.893 -3.2234  1.4009  1.3599
  812MOL0     H12029   3.639   1.073   8.744  1.6767  0.1254 -2.1261
  812MOL0     H12030   3.913   1.158   8.837 -0.5007 -1.4453  1.4208
  812MOL0     H12031   3.840   1.210   8.691  0.0083  1.0599  1.2491
  812MOL0     H12032   3.840   0.944   8.623  0.0431  0.8068 -0.8911
  812MOL0     H12033   3.923   0.917   8.772 -0.1540 -2.8501 -2.4114
  812MOL0     H12034   4.029   1.091   8.553  2.0607  1.6803  1.3222
  812MOL0     H12035   4.088   0.932   8.600 -1.3674 -0.7727  2.2065
  812MOL0     H12036   3.111   0.990   8.934 -1.9856 -1.8378 -0.2734
  812MOL0     H12037   2.894   0.905   9.003 -0.2074  1.1422 -1.6060
  812MOL0     H12038   2.405   1.150   9.281  1.8424 -0.0826  1.3240
  812MOL0     H12039   2.207   1.023   9.338 -0.3816 -0.1155 -0.1883
  812MOL0     H12040   0.570   0.312   9.030 -2.8609 -3.2932 -0.0941
  812MOL0     H12041   0.325   0.250   9.035 -2.2440  0.0662  0.9703
  812MOL0     H12042  -0.021   0.024   9.349  0.8494  0.5440 -1.0214
  812MOL0     H12043  -0.234  -0.077   9.316 -1.2672  0.5195  0.1463
  812MOL0     H12044  -0.425  -0.012   8.909 -0.4361 -0.4295 -1.3099
  812MOL0     H12045  -0.335  -0.137   8.984 -0.0904 -0.1612  0.9368
  812MOL0     H12046  -0.532  -0.219   9.107 -4.1579 -0.5640  0.8597
  812MOL0     H12047  -0.553  -0.257   8.942  0.3117 -1.4341  0.9571
  812MOL0     H12048  -0.695  -0.052   9.121  0.8078 -0.0823  0.8192
  812MOL0     H12049  -0.698  -0.021   8.948  0.9047  1.9714  1.8171
  812MOL0     H12050  -0.791  -0.251   8.919 -0.8261  1.4348 -1.3780
  812MOL0     H12051  -0.899  -0.147   8.992  0.0176 -1.0048 -2.4900
  812MOL0     H12052  -0.816  -0.415   9.320  2.7338 -0.7648 -1.3240
  812MOL0     H12053  -0.307   0.179   8.996 -2.8174 -0.6319  1.7518
  812MOL0     H12054  -0.172   0.329   8.906 -1.3415 -0.1442  0.5111
  812MOL0     H12055  -0.125   0.431   9.045 -0.6845 -1.1950  0.4756
  812MOL0     H12056  -0.001   0.353   8.964 -0.2617 -1.8029 -1.9132
  813MOL0     O12057  11.362   1.124   2.860 -0.4362 -0.6837 -0.5442
  813MOL0     C12058  11.291   1.215   2.901 -0.4044 -0.0863  0.0712
  813MOL0     O12059  11.156   1.210   2.922 -0.3514 -1.2679  0.3905
  813MOL0     C12060  11.079   1.114   2.858 -0.7642 -0.9559 -0.2636
  813MOL0     C12061  11.043   1.133   2.726  0.8112 -0.0748 -0.0414
  813MOL0     C12062  10.939   1.055   2.670 -0.2335  0.7437 -0.9164
  813MOL0     C12063  10.886   0.945   2.735  0.4267 -1.0701 -0.3997
  813MOL0     O12064  10.788   0.877   2.676  0.2220  0.5142 -0.0051
  813MOL0     C12065  10.851   0.758   2.620  0.3429  0.1674 -0.4594
  813MOL0     C12066  10.758   0.697   2.514  0.0848 -0.2614 -0.3628
  813MOL0     C12067  10.736   0.786   2.390 -0.0966 -0.4694  0.4237
  813MOL0     C12068  10.660   0.712   2.275  0.4627  0.0729 -0.1123
  813MOL0     C12069  10.604   0.806   2.170  0.3823  0.4576 -0.0943
  813MOL0     C12070  10.478   0.751   2.090 -0.5290 -0.3975 -0.5697
  813MOL0     C12071  10.344   0.721   2.162 -0.6038 -0.4731  0.2007
  813MOL0     C12072  10.276   0.616   2.079 -0.3184 -0.2502 -0.3091
  813MOL0     N12073  10.348   0.481   2.086 -0.6189 -0.4984 -0.2063
  813MOL0     C12074  10.419   0.430   2.189 -0.2256 -0.3558 -0.5995
  813MOL0     C12075  10.481   0.323   2.137 -0.2621  0.5962  0.1554
  813MOL0     C12076  10.561   0.216   2.219 -0.0240 -0.2300 -0.4390
  813MOL0     C12077  10.709   0.210   2.180 -0.1949 -0.8902  1.0321
  813MOL0     C12078  10.774   0.348   2.187  0.5229 -0.3950 -0.1593
  813MOL0     C12079  10.930   0.352   2.177 -1.0706 -0.4404  0.0054
  813MOL0     O12080  10.974   0.318   2.047 -0.6623 -0.4911  0.2542
  813MOL0     C12081  11.113   0.313   2.030  0.7744 -0.1898 -0.3304
  813MOL0     C12082  11.209   0.335   2.125  0.1315 -0.0603  0.6475
  813MOL0     C12083  11.353   0.326   2.102  0.2547 -0.6601 -0.2935
  813MOL0     C12084  11.438   0.369   2.216  0.2624  0.2486 -0.1959
  813MOL0     C12085  11.397   0.277   1.971  0.2438  0.1093 -0.3669
  813MOL0     C12086  11.532   0.254   1.927 -0.3674  0.1836  0.0359
  813MOL0     O12087  11.551   0.190   1.801 -0.4663 -0.1419  0.5069
  813MOL0     C12088  11.672   0.134   1.775 -0.3488  1.0009  0.2940
  813MOL0     C12089  11.736   0.056   1.870  0.3950  0.2134 -0.5349
  813MOL0     C12090  11.851  -0.012   1.825 -0.1677  0.7532  0.1632
  813MOL0     C12091  11.902   0.006   1.693  0.1115  0.0959 -0.1279
  813MOL0     O12092  12.023  -0.040   1.654  0.4949 -0.0807 -0.6444
  813MOL0     C12093  12.074  -0.159   1.718 -0.2677 -0.1645 -0.6955
  813MOL0     C12094  12.197  -0.211   1.646 -0.6267 -0.7591 -0.9108
  813MOL0     C12095  12.269  -0.322   1.715  0.5453 -0.3118 -0.5958
  813MOL0     C12096  12.385  -0.369   1.625  0.2033  0.5477  0.2362
  813MOL0     C12097  12.461  -0.495   1.669 -0.1215  0.5462 -0.1107
  813MOL0     C12098  12.367  -0.609   1.698  0.6616 -0.7778  0.5641
  813MOL0     C12099  12.450  -0.732   1.723  0.0659 -0.1187  0.2638
  813MOL0     C12100  12.399  -0.848   1.649 -0.5319  1.2676  0.1586
  813MOL0    Cl12101  12.274  -0.941   1.748  0.2355  0.3567  0.2954
  813MOL0     C12102  11.834   0.092   1.603 -0.1559 -0.3123  0.0689
  813MOL0     C12103  11.721   0.153   1.647  0.8875  0.3522 -1.2407
  813MOL0     O12104  11.625   0.296   1.998  0.4256 -0.4675 -0.1153
  813MOL0     C12105  11.290   0.235   1.880  0.5792  0.3312 -0.6901
  813MOL0     C12106  11.157   0.270   1.908  0.0538  1.3865  0.5320
  813MOL0     N12107  10.452   0.319   2.002 -0.4598 -0.0396  0.3429
  813MOL0     N12108  10.378   0.419   1.968 -0.1784  0.7276  0.3738
  813MOL0     C12109  10.925   0.935   2.866 -0.4010 -1.0448 -0.4595
  813MOL0     C12110  11.012   1.017   2.936 -0.5101 -0.3458  0.6107
  813MOL0     C12111  11.372   1.328   2.955  0.4523 -0.3595  0.0670
  813MOL0     C12112  11.305   1.415   3.049 -0.5292  0.3860 -0.5503
  813MOL0     C12113  11.352   1.535   3.100 -0.3957 -1.0619 -0.1957
  813MOL0     C12114  11.480   1.575   3.058  0.7964 -0.0047  0.1660
  813MOL0     O12115  11.527   1.693   3.110  0.3660  0.6998 -0.1292
  813MOL0     C12116  11.636   1.681   3.196  0.1670  0.4443  0.2194
  813MOL0     C12117  11.592   1.682   3.338 -0.3917  0.0719 -0.3014
  813MOL0     C12118  11.537   1.821   3.375 -0.1371  1.1574 -0.4052
  813MOL0     C12119  11.481   1.841   3.516  0.2749 -0.1650  0.1105
  813MOL0     C12120  11.380   1.741   3.555  0.0092  0.1789 -0.6905
  813MOL0     C12121  11.297   1.660   3.607  0.1023 -0.0161  0.2918
  813MOL0     C12122  11.551   1.493   2.968  0.3144  0.3791  0.5037
  813MOL0     C12123  11.502   1.376   2.916 -0.4012  0.8170  0.0490
  813MOL0     C12124  11.593   1.300   2.816  0.1589 -1.0016 -0.5611
  813MOL0     H12125  11.095   1.205   2.664 -0.7128  0.7514 -0.4093
  813MOL0     H12126  10.895   1.070   2.572 -3.5435 -1.2093  0.1330
  813MOL0     H12127  10.854   0.686   2.703  2.0633  1.0589  0.3014
  813MOL0     H12128  10.953   0.774   2.584  1.8554  0.9272  3.6849
  813MOL0     H12129  10.792   0.595   2.493  3.5663  0.1623  2.3390
  813MOL0     H12130  10.657   0.688   2.555 -0.0485  0.3017 -0.5641
  813MOL0     H12131  10.681   0.872   2.430  1.7973  0.5312  0.9797
  813MOL0     H12132  10.831   0.817   2.346 -1.3803  0.1013 -2.1077
  813MOL0     H12133  10.727   0.644   2.221  0.9891 -0.7785  1.5520
  813MOL0     H12134  10.584   0.648   2.320 -2.5126  2.2375 -1.7397
  813MOL0     H12135  10.674   0.831   2.090  0.1334  0.3756 -0.3406
  813MOL0     H12136  10.574   0.901   2.216  0.2583  0.4519 -0.1619
  813MOL0     H12137  10.454   0.817   2.006 -1.9690  2.9403  2.1859
  813MOL0     H12138  10.511   0.657   2.047  1.4415 -0.4380  0.9192
  813MOL0     H12139  10.278   0.804   2.188 -0.6397 -1.2363  2.7738
  813MOL0     H12140  10.375   0.674   2.256  0.5691 -1.8881 -0.8260
  813MOL0     H12141  10.171   0.605   2.109  0.4325  1.2279  3.4135
  813MOL0     H12142  10.284   0.646   1.974  1.2408 -0.8304 -0.3817
  813MOL0     H12143  10.423   0.467   2.291 -1.1028 -1.4182 -0.1533
  813MOL0     H12144  10.516   0.121   2.188 -0.4467 -0.7066  1.5212
  813MOL0     H12145  10.543   0.224   2.327 -3.5067 -0.6381 -0.8711
  813MOL0     H12146  10.769   0.137   2.235 -3.0831 -2.9738  1.6275
  813MOL0     H12147  10.694   0.186   2.074 -1.6922  1.3848  0.6595
  813MOL0     H12148  10.744   0.403   2.097 -0.8056 -3.3555 -1.6311
  813MOL0     H12149  10.735   0.400   2.275 -0.2769  0.8193 -1.1844
  813MOL0     H12150  10.961   0.455   2.197 -1.2661  0.3384 -3.1698
  813MOL0     H12151  10.972   0.280   2.248 -2.7682 -2.4491 -0.9045
  813MOL0     H12152  11.181   0.366   2.225 -1.1941  1.2343 -0.0918
  813MOL0     H12153  11.496   0.279   2.237  1.2561  0.6420 -1.0907
  813MOL0     H12154  11.381   0.411   2.299 -0.3605  0.6947 -0.8252
  813MOL0     H12155  11.505   0.454   2.197 -0.0826  0.6506  0.3726
  813MOL0     H12156  11.682   0.047   1.964  1.5975 -1.9795 -0.0003
  813MOL0     H12157  11.904  -0.074   1.897  1.2510  1.1503 -0.4977
  813MOL0     H12158  12.107  -0.125   1.816  0.4324 -1.5220 -0.4267
  813MOL0     H12159  12.003  -0.242   1.728  1.0328 -1.0255  3.1298
  813MOL0     H12160  12.170  -0.228   1.541 -0.0311  0.5779 -1.3110
  813MOL0     H12161  12.266  -0.126   1.650 -1.9874  0.3347  0.8283
  813MOL0     H12162  12.196  -0.398   1.741 -0.9617  1.7199  1.6319
  813MOL0     H12163  12.305  -0.290   1.814  0.9182  1.0457 -1.1419
  813MOL0     H12164  12.445  -0.280   1.604 -1.6661  1.7467 -0.3479
  813MOL0     H12165  12.345  -0.403   1.529 -0.7789  1.8778  0.1370
  813MOL0     H12166  12.510  -0.518   1.574 -3.1537  1.6619 -2.1087
  813MOL0     H12167  12.531  -0.487   1.751 -1.4795  0.0026  1.1500
  813MOL0     H12168  12.297  -0.622   1.615 -0.8594 -0.5225  1.7637
  813MOL0     H12169  12.313  -0.589   1.791  1.2277 -1.8855  1.1471
  813MOL0     H12170  12.453  -0.747   1.832 -0.8779  1.8639  0.5928
  813MOL0     H12171  12.551  -0.717   1.684  0.0761 -1.2242 -0.1808
  813MOL0     H12172  12.478  -0.922   1.634 -2.1232 -1.0631  2.3643
  813MOL0     H12173  12.363  -0.834   1.547  2.4970 -0.2221 -1.2461
  813MOL0     H12174  11.890   0.108   1.512 -0.5888 -0.6131 -0.2567
  813MOL0     H12175  11.667   0.209   1.571 -0.0271 -2.1482 -2.5630
  813MOL0     H12176  11.316   0.206   1.779 -0.8190  3.8827 -2.2643
  813MOL0     H12177  11.091   0.262   1.822  0.6904  1.7711 -0.0066
  813MOL0     H12178  10.885   0.854   2.926 -0.4618 -0.6454  0.0453
  813MOL0     H12179  11.029   1.016   3.044 -1.5792 -0.0883  0.7926
  813MOL0     H12180  11.202   1.399   3.078  0.1644 -4.0698  0.0248
  813MOL0     H12181  11.303   1.590   3.180 -0.8812 -1.3298 -0.3052
  813MOL0     H12182  11.679   1.581   3.184  0.8166  0.7884 -0.4358
  813MOL0     H12183  11.717   1.754   3.183  0.9869  0.0476  2.6026
  813MOL0     H12184  11.680   1.654   3.398 -0.3815  1.7367  0.5432
  813MOL0     H12185  11.512   1.608   3.347  1.9180 -2.8377 -1.9907
  813MOL0     H12186  11.623   1.889   3.364 -0.5797  2.1166  1.5279
  813MOL0     H12187  11.460   1.844   3.301  0.5905 -2.4144 -2.5051
  813MOL0     H12188  11.447   1.943   3.534  3.3843  1.1074 -0.5131
  813MOL0     H12189  11.564   1.831   3.587 -0.2375  0.1710  0.7681
  813MOL0     H12190  11.213   1.598   3.633 -1.1975  1.0130 -1.2040
  813MOL0     H12191  11.642   1.537   2.928 -0.1799  2.2883  1.3334
  813MOL0     H12192  11.525   1.259   2.740 -0.9077 -1.7408  0.7444
  813MOL0     H12193  11.665   1.367   2.768 -0.2216 -0.6135 -0.5948
  813MOL0     H12194  11.647   1.228   2.878 -0.1404 -0.7310  0.0115
  814MOL0     O12195   4.200   6.659   7.902 -0.5138 -0.1908  0.2913
  814MOL0     C12196   4.130   6.586   7.827  0.3136 -0.4055 -1.0260
  814MOL0     O12197   4.124   6.591   7.686  0.2238 -0.2832  0.0034
  814MOL0     C12198   4.228   6.630   7.613 -0.3974 -0.9224 -0.7456
  814MOL0     C12199   4.350   6.568   7.638  0.1073 -0.2206  0.3626
  814MOL0     C12200   4.464   6.608   7.567  0.0922  0.0204 -0.3420
  814MOL0     C12201   4.457   6.700   7.459 -0.0950 -0.4978  0.5807
  814MOL0     O12202   4.559   6.742   7.380  0.6627 -1.2938 -0.3593
  814MOL0     C12203   4.688   6.687   7.395 -0.0743 -0.2787 -0.5019
  814MOL0     C12204   4.690   6.566   7.302 -0.0287  0.3572 -0.4626
  814MOL0     C12205   4.845   6.537   7.268  0.9174 -0.3299  0.1067
  814MOL0     C12206   4.854   6.410   7.186  0.0335 -0.2055 -0.0732
  814MOL0     C12207   4.998   6.384   7.129  0.4801 -0.4217 -0.6330
  814MOL0     C12208   5.006   6.305   6.998  0.1104 -0.3792  0.1463
  814MOL0     C12209   5.142   6.245   6.975  0.9633 -0.0164 -0.0256
  814MOL0     C12210   5.134   6.137   6.866  0.3640  0.1591  0.1487
  814MOL0     N12211   5.263   6.080   6.839  0.0156 -0.0740  0.0783
  814MOL0     C12212   5.390   6.138   6.833  0.5580  0.5503  0.4966
  814MOL0     C12213   5.462   6.050   6.764 -0.7806 -0.5205 -0.1114
  814MOL0     C12214   5.601   6.091   6.724 -0.0730 -0.5563  0.7791
  814MOL0     C12215   5.582   6.169   6.592 -0.2296 -0.3189  0.0314
  814MOL0     C12216   5.710   6.225   6.517 -0.3069 -0.7861  0.2556
  814MOL0     C12217   5.835   6.127   6.526  0.5189 -0.1716 -0.2576
  814MOL0     O12218   5.932   6.171   6.431  0.0553  0.8744  0.1663
  814MOL0     C12219   6.060   6.114   6.432  0.6302 -0.1846 -0.7699
  814MOL0     C12220   6.092   5.987   6.497  0.6064 -0.7521 -0.7017
  814MOL0     C12221   6.217   5.932   6.495 -0.1952 -0.3712  0.3119
  814MOL0     C12222   6.232   5.790   6.541 -0.2115  0.1927 -0.0982
  814MOL0     C12223   6.322   6.013   6.435  0.4189 -0.0755 -0.5242
  814MOL0     C12224   6.460   5.960   6.412  0.8449  0.3547 -0.2414
  814MOL0     O12225   6.477   5.820   6.409  0.5152  0.0620  0.4719
  814MOL0     C12226   6.598   5.757   6.398 -0.1338 -0.0595 -0.6388
  814MOL0     C12227   6.655   5.716   6.522  0.0121 -0.2344 -0.0618
  814MOL0     C12228   6.782   5.662   6.521 -0.2619  0.1707 -0.8059
  814MOL0     C12229   6.857   5.640   6.408 -0.8679 -0.3971  0.4836
  814MOL0     O12230   6.980   5.585   6.424 -0.3463  0.2808 -0.1197
  814MOL0     C12231   7.064   5.551   6.304 -0.9122  0.2660  0.4101
  814MOL0     C12232   7.184   5.452   6.345 -0.2110 -0.3938 -0.1739
  814MOL0     C12233   7.284   5.511   6.445  0.0327  0.1892  0.4071
  814MOL0     C12234   7.376   5.406   6.507 -0.3540  0.0183 -0.6555
  814MOL0     C12235   7.476   5.481   6.596  0.4266 -0.5687 -1.3429
  814MOL0     C12236   7.560   5.373   6.668 -0.2517 -0.3552 -0.0806
  814MOL0     C12237   7.694   5.415   6.727 -0.0690 -0.5887  0.2771
  814MOL0     C12238   7.735   5.317   6.836  0.5153  0.0736 -0.3439
  814MOL0    Cl12239   7.900   5.356   6.873 -0.1208 -0.2429  0.0445
  814MOL0     C12240   6.806   5.696   6.288  0.3346  0.2627 -0.0547
  814MOL0     C12241   6.675   5.745   6.283 -0.0681  0.5066 -0.1861
  814MOL0     O12242   6.553   6.035   6.411  0.0059 -0.6548 -0.0533
  814MOL0     C12243   6.298   6.133   6.369  0.0135 -0.1109 -0.2070
  814MOL0     C12244   6.165   6.177   6.374 -0.0864  0.0802  0.3176
  814MOL0     N12245   5.391   5.933   6.736  0.3050 -0.3441 -0.2287
  814MOL0     N12246   5.273   5.959   6.785  0.1082  0.2147 -0.9946
  814MOL0     C12247   4.337   6.771   7.442 -0.3057 -0.3068  0.8088
  814MOL0     C12248   4.226   6.736   7.520  0.4309 -0.4237  0.4368
  814MOL0     C12249   4.028   6.504   7.898 -0.5073 -0.5209 -0.1119
  814MOL0     C12250   3.907   6.470   7.836  0.7674  0.0350  0.8794
  814MOL0     C12251   3.795   6.414   7.905 -0.0091  0.2074  0.1078
  814MOL0     C12252   3.807   6.382   8.043  0.0910  0.6941  0.0035
  814MOL0     O12253   3.697   6.321   8.108 -0.8075  0.2422  0.5842
  814MOL0     C12254   3.631   6.401   8.199  0.4465 -1.0735 -0.9276
  814MOL0     C12255   3.502   6.326   8.253  0.0210 -0.5774 -0.4960
  814MOL0     C12256   3.426   6.409   8.361 -0.4217  0.3570  0.0946
  814MOL0     C12257   3.352   6.326   8.466 -0.5995  0.1445  0.4511
  814MOL0     C12258   3.315   6.408   8.582  0.0320 -0.8456 -0.0019
  814MOL0     C12259   3.281   6.473   8.677 -0.5402 -0.2264 -0.4321
  814MOL0     C12260   3.927   6.416   8.101 -0.8293  0.2196  0.2960
  814MOL0     C12261   4.041   6.467   8.034 -0.5126 -0.5962  0.0083
  814MOL0     C12262   4.165   6.491   8.127  0.1975 -0.2103 -0.3004
  814MOL0     H12263   4.360   6.491   7.713 -1.4515 -0.2254  0.5838
  814MOL0     H12264   4.558   6.557   7.584 -0.5560 -1.1176 -0.0743
  814MOL0     H12265   4.712   6.656   7.497  1.4205 -2.6217 -1.5047
  814MOL0     H12266   4.764   6.759   7.363  0.2351  0.0206  0.8439
  814MOL0     H12267   4.633   6.492   7.359  0.4160 -1.9795 -2.8877
  814MOL0     H12268   4.644   6.578   7.204  0.6143 -1.2441 -0.9833
  814MOL0     H12269   4.894   6.623   7.221  0.2913  1.4435  2.5000
  814MOL0     H12270   4.904   6.515   7.357  2.5258 -1.6872 -1.2209
  814MOL0     H12271   4.829   6.328   7.254  0.5393  1.0425  1.6740
  814MOL0     H12272   4.781   6.412   7.104 -0.4535 -1.8060  0.2850
  814MOL0     H12273   5.050   6.331   7.209  0.4515 -0.4122 -0.6077
  814MOL0     H12274   5.051   6.479   7.114  0.4446 -0.3023 -0.0649
  814MOL0     H12275   4.939   6.218   6.995 -4.4458  2.7765 -1.1022
  814MOL0     H12276   4.983   6.365   6.909 -0.8325  0.8519  1.1728
  814MOL0     H12277   5.175   6.194   7.067  0.4566  1.6682  1.1449
  814MOL0     H12278   5.212   6.323   6.945 -0.3653  1.7918  1.3580
  814MOL0     H12279   5.064   6.060   6.898 -2.2827  2.0676 -0.6812
  814MOL0     H12280   5.087   6.164   6.771  1.2367  4.2739  0.7143
  814MOL0     H12281   5.436   6.231   6.864  2.8916  0.4487 -2.2518
  814MOL0     H12282   5.655   5.997   6.712 -2.1319 -1.9614  1.9486
  814MOL0     H12283   5.646   6.154   6.802 -1.1502  1.4275 -0.1165
  814MOL0     H12284   5.521   6.119   6.517 -0.5695  1.3177 -0.8119
  814MOL0     H12285   5.513   6.249   6.621 -0.5757 -1.6474  3.3926
  814MOL0     H12286   5.693   6.239   6.410  2.6122  2.9538  0.0781
  814MOL0     H12287   5.739   6.323   6.556 -0.5010 -0.6055 -0.0447
  814MOL0     H12288   5.870   6.142   6.628 -0.9817 -0.8113  0.3747
  814MOL0     H12289   5.816   6.020   6.513  0.5877 -0.2402  0.1906
  814MOL0     H12290   6.017   5.923   6.542 -0.5807 -1.0809 -2.9979
  814MOL0     H12291   6.252   5.726   6.455 -3.6206  0.0622 -0.9430
  814MOL0     H12292   6.137   5.752   6.581 -0.7578 -0.5588 -1.9874
  814MOL0     H12293   6.310   5.794   6.617 -1.0824 -0.0612  0.8260
  814MOL0     H12294   6.589   5.724   6.607  1.0928 -2.5921  1.0988
  814MOL0     H12295   6.826   5.634   6.616 -0.2126  1.2264 -0.5029
  814MOL0     H12296   7.005   5.512   6.221  0.2093 -0.6612  0.0176
  814MOL0     H12297   7.110   5.640   6.262 -1.1088 -0.4244 -1.3372
  814MOL0     H12298   7.130   5.366   6.386 -1.4187  0.5977  0.3985
  814MOL0     H12299   7.231   5.424   6.250  1.4738 -1.7883  1.0281
  814MOL0     H12300   7.227   5.558   6.526  0.9743  1.7522  0.1981
  814MOL0     H12301   7.340   5.591   6.396  0.4788 -0.4788 -0.1891
  814MOL0     H12302   7.435   5.360   6.427 -0.9535  1.0878 -1.7370
  814MOL0     H12303   7.321   5.336   6.571  1.0589  1.6012  2.4858
  814MOL0     H12304   7.547   5.536   6.534  1.6505 -0.6813 -0.0921
  814MOL0     H12305   7.420   5.542   6.668 -2.8435 -2.1864 -2.3117
  814MOL0     H12306   7.583   5.295   6.594  0.9521  0.0844 -0.1903
  814MOL0     H12307   7.497   5.323   6.743  0.0815 -1.0602 -0.2658
  814MOL0     H12308   7.681   5.511   6.778 -0.2869  0.0910 -1.0218
  814MOL0     H12309   7.770   5.417   6.649 -1.6496  0.3298 -1.3171
  814MOL0     H12310   7.724   5.214   6.799 -2.1801 -0.8760  2.6801
  814MOL0     H12311   7.674   5.325   6.926 -1.9140  1.5442 -1.9872
  814MOL0     H12312   6.857   5.698   6.192 -1.3753 -1.6376 -1.0866
  814MOL0     H12313   6.641   5.789   6.189 -0.1534 -1.1861 -0.9737
  814MOL0     H12314   6.377   6.195   6.329 -0.0695  1.0928  1.3931
  814MOL0     H12315   6.152   6.281   6.347  2.6706  0.5669  0.4935
  814MOL0     H12316   4.333   6.863   7.384  0.4033 -1.3259 -0.9205
  814MOL0     H12317   4.137   6.798   7.516 -1.3044 -2.8015 -0.0766
  814MOL0     H12318   3.896   6.473   7.728  0.8204  3.4798  0.8449
  814MOL0     H12319   3.706   6.375   7.858 -0.7234  0.0542  1.5308
  814MOL0     H12320   3.696   6.422   8.284 -2.8117  2.1369  1.0116
  814MOL0     H12321   3.604   6.494   8.148  1.7882  0.5192  1.0860
  814MOL0     H12322   3.534   6.232   8.300 -1.6830 -1.4325 -0.9565
  814MOL0     H12323   3.434   6.310   8.169 -0.6899 -1.5152  0.2333
  814MOL0     H12324   3.501   6.470   8.413  0.9747 -0.5552 -0.7913
  814MOL0     H12325   3.358   6.474   8.305  0.2148  1.3653  0.4526
  814MOL0     H12326   3.405   6.239   8.505 -0.8987  0.4673  1.6217
  814MOL0     H12327   3.259   6.294   8.418 -0.4370  0.2426  0.0690
  814MOL0     H12328   3.254   6.523   8.767  1.0744  1.1918 -0.6845
  814MOL0     H12329   3.942   6.406   8.208  3.7169  2.3921  0.1328
  814MOL0     H12330   4.259   6.461   8.079  0.1102 -2.4600  0.7669
  814MOL0     H12331   4.159   6.597   8.150 -1.9973 -0.2060 -0.7295
  814MOL0     H12332   4.158   6.442   8.224  1.8298  0.7680  0.3606
  815MOL0     O12333   3.034   0.249   9.772  0.0051 -0.7317  0.2207
  815MOL0     C12334   3.010   0.331   9.863  0.2692  0.1249 -0.5346
  815MOL0     O12335   2.967   0.463   9.849  0.4040  0.6552  0.2920
  815MOL0     C12336   3.020   0.536   9.743 -0.1767  1.1125 -0.1514
  815MOL0     C12337   2.941   0.633   9.668  0.5928 -0.6771 -0.0148
  815MOL0     C12338   3.006   0.710   9.570  0.1273 -0.0510 -0.3031
  815MOL0     C12339   3.141   0.683   9.541  0.4909 -0.1933  0.6328
  815MOL0     O12340   3.213   0.761   9.453 -0.7971 -0.0336 -0.1138
  815MOL0     C12341   3.158   0.837   9.353  0.2523 -0.1858  0.2557
  815MOL0     C12342   3.270   0.868   9.257  0.1635 -0.1483 -0.3982
  815MOL0     C12343   3.249   0.791   9.128 -0.5267  0.2208 -0.5765
  815MOL0     C12344   3.356   0.804   9.017  0.1633  0.3096  0.2513
  815MOL0     C12345   3.317   0.721   8.892  0.0531  0.1516 -0.1992
  815MOL0     C12346   3.402   0.754   8.773 -0.4892  0.5490 -0.1197
  815MOL0     C12347   3.562   0.745   8.789  0.2098  0.0898 -0.1913
  815MOL0     C12348   3.596   0.602   8.752  0.1460  0.6499 -0.0139
  815MOL0     N12349   3.734   0.568   8.786  0.9657  0.5690 -0.4933
  815MOL0     C12350   3.847   0.630   8.738 -0.0260 -0.6133 -0.3812
  815MOL0     C12351   3.953   0.578   8.804 -0.0469  0.4669  0.0783
  815MOL0     C12352   4.089   0.634   8.782 -0.1144  0.2980 -0.4088
  815MOL0     C12353   4.168   0.645   8.907 -0.7817 -0.0421  0.1949
  815MOL0     C12354   4.295   0.729   8.884 -0.2550  0.4904  1.0119
  815MOL0     C12355   4.400   0.679   8.783  0.2165 -0.3584  0.0962
  815MOL0     O12356   4.440   0.551   8.819 -0.7641 -0.4090  0.4650
  815MOL0     C12357   4.537   0.486   8.743 -0.1441 -0.5997 -0.9918
  815MOL0     C12358   4.551   0.359   8.750 -0.4319  1.0634 -0.0646
  815MOL0     C12359   4.644   0.283   8.687  0.7214 -0.4716  0.9944
  815MOL0     C12360   4.637   0.132   8.693 -1.2427  0.1805  0.5340
  815MOL0     C12361   4.738   0.356   8.601  0.0824  0.3702  1.0556
  815MOL0     C12362   4.851   0.289   8.532 -0.2525 -0.5037 -0.7233
  815MOL0     O12363   4.974   0.288   8.590 -0.4234  0.0141 -0.1342
  815MOL0     C12364   5.073   0.229   8.515  1.2475 -0.0341 -0.4604
  815MOL0     C12365   5.090   0.091   8.495 -1.1471  0.4126  1.0458
  815MOL0     C12366   5.200   0.037   8.436 -1.1144 -0.0451  0.6723
  815MOL0     C12367   5.297   0.126   8.393  1.1382  0.5973  0.8534
  815MOL0     O12368   5.407   0.065   8.332 -0.5537 -0.3815 -0.1343
  815MOL0     C12369   5.527   0.082   8.409  0.7879 -0.2323 -0.0772
  815MOL0     C12370   5.627  -0.007   8.337  0.3450  0.4407 -0.6603
  815MOL0     C12371   5.765   0.048   8.367  0.3973 -0.9820  0.3717
  815MOL0     C12372   5.860  -0.034   8.293 -0.6921 -0.1504 -0.3197
  815MOL0     C12373   6.011   0.005   8.326 -0.2970 -0.0246 -0.5588
  815MOL0     C12374   6.109  -0.065   8.243 -0.1318  0.2383 -0.4813
  815MOL0     C12375   6.247  -0.004   8.238  1.1709 -0.1449 -0.2904
  815MOL0     C12376   6.338  -0.099   8.172 -0.5887  0.8292 -0.1521
  815MOL0    Cl12377   6.435  -0.207   8.292 -0.1462  0.0150 -0.2646
  815MOL0     C12378   5.287   0.268   8.409  0.5772 -0.0086  0.8949
  815MOL0     C12379   5.170   0.323   8.469  0.0510 -0.0430  0.1202
  815MOL0     O12380   4.822   0.253   8.416  0.2424  0.0329  0.2448
  815MOL0     C12381   4.727   0.491   8.592  0.2203 -0.8050  0.7479
  815MOL0     C12382   4.627   0.555   8.660 -0.3378  0.4155 -0.4979
  815MOL0     N12383   3.897   0.488   8.892  0.7516  0.4105  0.0333
  815MOL0     N12384   3.769   0.479   8.877  0.3270  0.0553 -0.5591
  815MOL0     C12385   3.214   0.594   9.611 -0.1437  0.1244  0.8149
  815MOL0     C12386   3.156   0.514   9.707  0.2534 -0.4262  0.0266
  815MOL0     C12387   3.027   0.283  10.010 -0.3652  1.0040  0.6127
  815MOL0     C12388   3.048   0.382  10.104 -0.4551 -0.0316  0.5672
  815MOL0     C12389   3.071   0.353  10.235  1.0769 -0.5637 -1.1521
  815MOL0     C12390   3.053   0.213  10.284 -0.1282 -1.3358  0.2551
  815MOL0     O12391   3.050   0.179  10.414  0.1133  0.7992 -0.0113
  815MOL0     C12392   3.113   0.266  10.508  0.5287  0.5229 -0.3954
  815MOL0     C12393   3.119   0.179  10.635  0.3493  0.2050 -1.0846
  815MOL0     C12394   2.983   0.121  10.675  0.7879  0.3003 -0.9202
  815MOL0     C12395   2.970   0.034  10.801  0.3436 -0.5770 -0.1528
  815MOL0     C12396   2.843  -0.032  10.820  0.2803 -0.4782  0.5929
  815MOL0     C12397   2.739  -0.096  10.820 -0.2956  0.2300  0.2376
  815MOL0     C12398   3.039   0.113  10.186 -0.3688 -0.3157 -0.4073
  815MOL0     C12399   3.031   0.141  10.045  0.7676  1.3567 -0.3523
  815MOL0     C12400   3.018   0.033   9.953  0.0138  0.0401  0.1591
  815MOL0     H12401   2.846   0.647   9.718  0.9300 -3.2399  1.5376
  815MOL0     H12402   2.954   0.791   9.519  0.6075 -0.4392 -1.4406
  815MOL0     H12403   3.115   0.932   9.383 -0.1269  0.6016 -2.5186
  815MOL0     H12404   3.078   0.795   9.292 -1.0702 -0.2143  1.9486
  815MOL0     H12405   3.270   0.972   9.225 -0.0613 -1.1415 -4.1255
  815MOL0     H12406   3.364   0.841   9.307  0.1206 -1.1015 -0.8080
  815MOL0     H12407   3.238   0.683   9.144  0.7138 -0.2861 -2.8003
  815MOL0     H12408   3.158   0.827   9.080  0.4614  2.4396 -0.8996
  815MOL0     H12409   3.371   0.907   8.983 -0.8231  0.7897  1.2249
  815MOL0     H12410   3.451   0.772   9.060  0.9032 -0.0390 -1.5185
  815MOL0     H12411   3.214   0.739   8.859  0.5557  0.4547 -1.7018
  815MOL0     H12412   3.323   0.614   8.911 -0.5277  0.1655  0.0919
  815MOL0     H12413   3.366   0.695   8.688  2.1326  0.0062 -0.9298
  815MOL0     H12414   3.373   0.854   8.740 -2.6487 -0.3615 -1.1824
  815MOL0     H12415   3.599   0.769   8.890  1.3683  0.5571 -0.7163
  815MOL0     H12416   3.612   0.809   8.717  2.6392 -1.7015 -0.2083
  815MOL0     H12417   3.540   0.533   8.815  3.4556 -0.7251  1.6540
  815MOL0     H12418   3.574   0.582   8.647 -0.4720 -1.8360  0.5188
  815MOL0     H12419   3.844   0.716   8.671 -4.1543 -1.6532 -1.8009
  815MOL0     H12420   4.089   0.726   8.724 -0.3587  1.1261  0.8515
  815MOL0     H12421   4.145   0.566   8.718 -1.2543 -1.4140  0.3285
  815MOL0     H12422   4.108   0.687   8.988 -1.2337 -0.5203  0.1110
  815MOL0     H12423   4.198   0.542   8.928 -0.5865 -0.0227  0.0233
  815MOL0     H12424   4.261   0.825   8.843 -1.3443  0.3416  1.5401
  815MOL0     H12425   4.349   0.753   8.976  4.4687 -0.9027 -1.0914
  815MOL0     H12426   4.369   0.686   8.679 -0.7239 -0.9527  0.3221
  815MOL0     H12427   4.484   0.747   8.800 -0.2213 -0.2960  2.3007
  815MOL0     H12428   4.478   0.308   8.811 -1.2211  1.4475 -0.6768
  815MOL0     H12429   4.692   0.098   8.781  1.3681 -0.4038 -1.2044
  815MOL0     H12430   4.679   0.087   8.602 -1.2815  0.8835  0.1566
  815MOL0     H12431   4.537   0.091   8.706 -1.3279 -0.5396 -1.8546
  815MOL0     H12432   5.023   0.017   8.536 -0.8813 -1.7084 -1.9765
  815MOL0     H12433   5.211  -0.071   8.433  1.0056  0.0376  2.4129
  815MOL0     H12434   5.567   0.183   8.418  0.0626 -0.1264  3.4764
  815MOL0     H12435   5.515   0.058   8.515  0.2790  1.9163  0.4041
  815MOL0     H12436   5.612  -0.108   8.376 -1.3892  0.8433 -0.1928
  815MOL0     H12437   5.600  -0.020   8.232 -1.2918  0.5646 -0.2779
  815MOL0     H12438   5.784   0.042   8.474  1.0752  3.8878  0.7343
  815MOL0     H12439   5.765   0.153   8.335  0.1981 -0.3885  2.2445
  815MOL0     H12440   5.852  -0.014   8.186  1.9158  2.5483 -0.1476
  815MOL0     H12441   5.848  -0.140   8.320 -2.6486  0.3797  1.0581
  815MOL0     H12442   6.028   0.113   8.316  1.0458 -0.1613  0.0411
  815MOL0     H12443   6.033  -0.026   8.428  0.9353  0.4542 -0.6611
  815MOL0     H12444   6.079  -0.048   8.140 -1.7316  3.0593  0.3439
  815MOL0     H12445   6.109  -0.173   8.261 -1.9031  0.2335 -0.3756
  815MOL0     H12446   6.275   0.013   8.342  0.3331 -0.2608 -0.0429
  815MOL0     H12447   6.244   0.096   8.193  0.0759 -0.0662 -0.0722
  815MOL0     H12448   6.414  -0.032   8.132  1.4608 -0.2714  1.6879
  815MOL0     H12449   6.293  -0.151   8.086  0.5278 -2.1030  0.9092
  815MOL0     H12450   5.370   0.332   8.380  0.8742 -0.9765 -0.5193
  815MOL0     H12451   5.149   0.430   8.479 -0.8805 -0.2571  0.5902
  815MOL0     H12452   4.790   0.551   8.527 -0.0286 -1.2979  0.0336
  815MOL0     H12453   4.631   0.659   8.632 -0.5112  0.4975 -0.2203
  815MOL0     H12454   3.320   0.599   9.585 -0.1794 -1.6422  0.1645
  815MOL0     H12455   3.221   0.462   9.777  0.6769 -0.1846 -0.1861
  815MOL0     H12456   3.041   0.488  10.081 -1.8960  0.1701  1.7638
  815MOL0     H12457   3.069   0.436  10.305  1.4050 -0.5122 -1.2016
  815MOL0     H12458   3.209   0.302  10.469  0.7040  1.3469  0.7622
  815MOL0     H12459   3.045   0.350  10.526  0.1916  0.0901  0.3736
  815MOL0     H12460   3.142   0.244  10.720  0.5178 -0.1847 -0.8271
  815MOL0     H12461   3.181   0.090  10.623 -1.0637 -0.8679 -0.8044
  815MOL0     H12462   2.917   0.207  10.689  1.1318  0.5246 -0.6529
  815MOL0     H12463   2.963   0.049  10.595  3.6374 -3.6217  1.4646
  815MOL0     H12464   2.993   0.102  10.884  0.5058 -1.1007  0.2390
  815MOL0     H12465   3.044  -0.047  10.798  1.1919  0.0637  1.6365
  815MOL0     H12466   2.650  -0.154  10.830 -0.2138 -0.0603 -0.5773
  815MOL0     H12467   3.023   0.008  10.210  1.2828 -0.7429 -1.0386
  815MOL0     H12468   2.936   0.060   9.886  0.0684 -1.7595 -0.6847
  815MOL0     H12469   3.115   0.014   9.906  1.3114 -1.6548  3.2341
  815MOL0     H12470   2.989  -0.055  10.011 -0.8342  1.0479  1.3104
  816MOL0     O12471   9.908  10.288   3.096  0.3577  0.4084  0.2869
  816MOL0     C12472   9.954  10.402   3.088 -0.2430 -0.0041 -0.1809
  816MOL0     O12473  10.082  10.437   3.083  0.0550 -0.1545 -0.0503
  816MOL0     C12474  10.180  10.332   3.070  0.4679 -0.0718 -0.9037
  816MOL0     C12475  10.208  10.264   2.951 -0.1100 -0.2887  0.7255
  816MOL0     C12476  10.303  10.156   2.945  0.3510 -1.4416  0.7096
  816MOL0     C12477  10.371  10.117   3.058 -0.6204 -0.8363 -0.1495
  816MOL0     O12478  10.452  10.013   3.054  0.5637  0.2644  0.3045
  816MOL0     C12479  10.556   9.991   3.145  0.7010  0.8963  0.6013
  816MOL0     C12480  10.683  10.066   3.116 -0.3969  0.6060 -0.2919
  816MOL0     C12481  10.809   9.979   3.120 -1.4729  0.0947  0.2403
  816MOL0     C12482  10.840   9.925   3.260 -0.5576  0.4944  0.3755
  816MOL0     C12483  10.947   9.810   3.279  0.6623 -0.1177 -0.0955
  816MOL0     C12484  11.093   9.854   3.243  0.1713 -0.3556 -0.4165
  816MOL0     C12485  11.175   9.728   3.255 -0.2691 -0.3267  0.5389
  816MOL0     C12486  11.327   9.762   3.238  0.5061  0.1376  0.1393
  816MOL0     N12487  11.375   9.876   3.311  0.3262 -0.8668 -0.0153
  816MOL0     C12488  11.399   9.875   3.448 -0.2776  0.5252  0.1906
  816MOL0     C12489  11.449   9.997   3.465 -0.1262 -0.8133  1.0291
  816MOL0     C12490  11.495  10.066   3.591  0.6005 -0.2266 -0.2038
  816MOL0     C12491  11.638  10.034   3.637 -0.3999  1.0420  0.3236
  816MOL0     C12492  11.657   9.880   3.633 -0.5407  0.0050 -0.2763
  816MOL0     C12493  11.779   9.837   3.709  0.0928 -0.3225 -0.2382
  816MOL0     O12494  11.898   9.889   3.645  0.6343  0.0802  0.3614
  816MOL0     C12495  11.982   9.946   3.736 -0.2037  0.5859  0.5649
  816MOL0     C12496  12.001  10.079   3.731  0.4930 -0.0616  0.5909
  816MOL0     C12497  12.078  10.149   3.825  0.0891  0.1114 -0.5048
  816MOL0     C12498  12.076  10.305   3.810 -0.2435  0.0065 -0.5766
  816MOL0     C12499  12.137  10.074   3.927 -1.2380  0.4540 -0.9495
  816MOL0     C12500  12.242  10.131   4.015  0.3219  0.4082 -0.3858
  816MOL0     O12501  12.278  10.049   4.128 -0.4465 -0.5710 -0.0800
  816MOL0     C12502  12.392  10.089   4.200 -0.6212  0.2928  0.3325
  816MOL0     C12503  12.383  10.171   4.312 -0.6154  0.1548 -0.7708
  816MOL0     C12504  12.503  10.206   4.385  0.4479  0.1502 -0.5163
  816MOL0     C12505  12.631  10.162   4.347  0.0205 -0.0002 -0.7278
  816MOL0     O12506  12.753  10.193   4.396 -0.2413  0.1980  0.5692
  816MOL0     C12507  12.753  10.246   4.532  0.3544 -0.2136 -0.6249
  816MOL0     C12508  12.904  10.262   4.572 -0.7849  0.0105  0.3473
  816MOL0     C12509  12.962  10.388   4.495 -0.3643  0.1212  0.1007
  816MOL0     C12510  13.099  10.433   4.556  0.1871 -0.5617  0.0756
  816MOL0     C12511  13.162  10.528   4.447 -0.2372 -0.8570  0.1805
  816MOL0     C12512  13.316  10.558   4.481 -0.5121  0.7539  0.2212
  816MOL0     C12513  13.383  10.654   4.381  0.0512  0.3280  0.5856
  816MOL0     C12514  13.535  10.639   4.387 -0.1796  0.1190  1.0677
  816MOL0    Cl12515  13.603  10.470   4.358 -0.3220 -0.0508  0.1733
  816MOL0     C12516  12.637  10.083   4.239 -0.0368 -0.0308  0.2381
  816MOL0     C12517  12.520  10.046   4.164 -0.2364  0.2842  0.1652
  816MOL0     O12518  12.290  10.242   3.995  0.0471 -0.1874 -0.5584
  816MOL0     C12519  12.117   9.934   3.934  0.0711  0.2134  0.1141
  816MOL0     C12520  12.025   9.871   3.845 -0.0924  0.1675  0.7651
  816MOL0     N12521  11.458  10.060   3.344  0.0140 -0.4288  0.6850
  816MOL0     N12522  11.410   9.997   3.256  0.6220 -0.0258  0.7015
  816MOL0     C12523  10.347  10.188   3.181  0.0459  0.4240 -0.0173
  816MOL0     C12524  10.251  10.287   3.188  0.3075 -0.6224 -0.2392
  816MOL0     C12525   9.847  10.498   3.104  0.0879 -0.0521  0.8493
  816MOL0     C12526   9.716  10.474   3.057 -0.2311 -0.0474 -0.2927
  816MOL0     C12527   9.609  10.569   3.072 -0.1029  0.7686  0.9351
  816MOL0     C12528   9.628  10.694   3.127 -0.6289 -0.3503  0.5648
  816MOL0     O12529   9.524  10.778   3.138 -0.0480 -0.1007  1.1114
  816MOL0     C12530   9.532  10.913   3.161  0.0471 -0.1808 -0.3789
  816MOL0     C12531   9.389  10.956   3.197  0.1734  0.0403  0.2589
  816MOL0     C12532   9.372  11.101   3.245  0.0656 -1.0557 -0.0192
  816MOL0     C12533   9.439  11.138   3.376 -0.2589  0.5992 -0.0489
  816MOL0     C12534   9.406  11.056   3.488  0.3741 -0.2414 -0.2009
  816MOL0     C12535   9.380  10.986   3.583  0.1880 -0.0344 -0.0673
  816MOL0     C12536   9.756  10.721   3.171 -0.7323  0.6700 -0.0680
  816MOL0     C12537   9.860  10.624   3.166 -0.1915  0.1416 -0.0679
  816MOL0     C12538   9.983  10.660   3.252  0.4288 -0.1238 -0.0274
  816MOL0     H12539  10.152  10.279   2.860  1.0892  1.0213  0.1724
  816MOL0     H12540  10.314  10.102   2.851  1.4313 -0.2782  0.1184
  816MOL0     H12541  10.581   9.885   3.132 -3.0041 -0.2656  1.7478
  816MOL0     H12542  10.526  10.011   3.248 -4.1352 -0.1916 -0.3841
  816MOL0     H12543  10.673  10.122   3.023 -2.1473  1.5390  0.4106
  816MOL0     H12544  10.692  10.141   3.196  3.2279  0.2907 -0.2126
  816MOL0     H12545  10.807   9.900   3.044 -0.1704 -0.4759  0.7724
  816MOL0     H12546  10.895  10.041   3.094 -2.4360  1.0827 -0.7243
  816MOL0     H12547  10.863  10.016   3.316  2.6523  1.3738 -2.0606
  816MOL0     H12548  10.746   9.888   3.301  0.0635 -0.0048  1.3820
  816MOL0     H12549  10.920   9.714   3.234 -0.2825 -1.5272  3.1618
  816MOL0     H12550  10.948   9.785   3.385 -0.1922  3.7232  0.9725
  816MOL0     H12551  11.087   9.891   3.140 -1.1076  1.4254  0.2562
  816MOL0     H12552  11.134   9.926   3.314  1.1591 -0.1093 -1.2253
  816MOL0     H12553  11.147   9.660   3.174  1.7623  0.9584 -1.3791
  816MOL0     H12554  11.160   9.675   3.349  4.1021 -1.7326  0.6716
  816MOL0     H12555  11.386   9.673   3.262  3.6202  1.8700 -0.5971
  816MOL0     H12556  11.355   9.780   3.134 -2.1296  0.4714 -0.5828
  816MOL0     H12557  11.381   9.806   3.530  0.4664 -0.3863 -0.3908
  816MOL0     H12558  11.420  10.036   3.665 -0.9899 -0.6010 -1.9142
  816MOL0     H12559  11.492  10.174   3.572 -1.2432 -0.3355 -0.6561
  816MOL0     H12560  11.714  10.073   3.569  0.8886 -1.7210  0.0304
  816MOL0     H12561  11.642  10.075   3.738  1.7764 -0.9305  1.1151
  816MOL0     H12562  11.570   9.841   3.686  0.3698  0.0053  1.2642
  816MOL0     H12563  11.666   9.837   3.532  0.7679  3.3007 -1.6875
  816MOL0     H12564  11.762   9.871   3.812 -1.2337  0.0787 -0.5661
  816MOL0     H12565  11.786   9.728   3.708  0.3544 -0.3168  0.6964
  816MOL0     H12566  11.968  10.133   3.642  3.8617  0.5229 -0.4445
  816MOL0     H12567  11.984  10.341   3.763 -0.2689 -2.7164 -2.8417
  816MOL0     H12568  12.156  10.345   3.748  0.5130  1.0411  0.9917
  816MOL0     H12569  12.061  10.355   3.907 -1.9415  0.8197 -1.2074
  816MOL0     H12570  12.303  10.229   4.356 -1.1302 -0.0964 -1.3725
  816MOL0     H12571  12.502  10.262   4.478  1.6880  1.0166 -0.9914
  816MOL0     H12572  12.705  10.344   4.546  0.5580 -0.1329 -0.4951
  816MOL0     H12573  12.710  10.172   4.600  0.3793  0.4895  0.1773
  816MOL0     H12574  12.920  10.276   4.679  4.2646  0.9532 -0.3051
  816MOL0     H12575  12.961  10.176   4.536  2.2045  2.3271 -0.9370
  816MOL0     H12576  12.888  10.468   4.499  0.2197  0.7857 -1.7148
  816MOL0     H12577  12.976  10.362   4.390 -2.7732 -0.9661 -0.0277
  816MOL0     H12578  13.158  10.345   4.583  0.9891  0.3876  1.5230
  816MOL0     H12579  13.074  10.495   4.642  3.2733  0.8528  0.0907
  816MOL0     H12580  13.150  10.494   4.344  0.4226 -2.4207  0.5913
  816MOL0     H12581  13.112  10.625   4.440  3.2029  0.9041 -2.8578
  816MOL0     H12582  13.375  10.466   4.484 -1.8982 -0.2650 -1.5704
  816MOL0     H12583  13.322  10.606   4.579  2.1344  2.0821 -0.5082
  816MOL0     H12584  13.362  10.759   4.401 -0.5963  0.3139  0.0169
  816MOL0     H12585  13.350  10.643   4.278 -0.4975  0.6107  0.7278
  816MOL0     H12586  13.581  10.684   4.475  3.7027  0.4399 -0.9055
  816MOL0     H12587  13.582  10.704   4.313  1.0201  0.5625  2.1804
  816MOL0     H12588  12.738  10.049   4.217  0.5341  1.2548  0.7832
  816MOL0     H12589  12.532   9.979   4.079 -0.9288 -2.3794  2.0495
  816MOL0     H12590  12.167   9.872   4.008 -2.6961 -0.9586  1.1066
  816MOL0     H12591  12.016   9.763   3.857 -0.9339 -0.0455 -1.2522
  816MOL0     H12592  10.391  10.160   3.276 -0.5120  0.6066  0.3021
  816MOL0     H12593  10.236  10.343   3.280  0.1699 -0.5121 -0.3303
  816MOL0     H12594   9.693  10.379   3.011 -3.3410  0.2899  0.3526
  816MOL0     H12595   9.510  10.553   3.028  0.1567  1.3949  0.0992
  816MOL0     H12596   9.603  10.945   3.238  0.1365 -0.7099 -0.2390
  816MOL0     H12597   9.561  10.977   3.077 -1.0341 -0.7103 -1.1776
  816MOL0     H12598   9.360  10.883   3.274  1.2026  1.4750  2.0907
  816MOL0     H12599   9.334  10.928   3.107  2.6753  0.8833 -1.6089
  816MOL0     H12600   9.414  11.175   3.176  2.7404 -0.4871  1.9994
  816MOL0     H12601   9.269  11.116   3.276  1.2965  0.7664  3.8862
  816MOL0     H12602   9.397  11.233   3.410 -3.5233 -1.3742  1.8772
  816MOL0     H12603   9.548  11.145   3.363  0.1972 -0.6080  2.4891
  816MOL0     H12604   9.333  10.944   3.670 -1.0031  0.9694 -0.2001
  816MOL0     H12605   9.774  10.817   3.220  0.4131  0.3022  0.2668
  816MOL0     H12606  10.043  10.730   3.194 -2.8133  0.6983 -2.7534
  816MOL0     H12607   9.943  10.704   3.344  0.7953  0.7124 -0.2598
  816MOL0     H12608  10.035  10.570   3.286  0.6245  0.3774  1.0392
  817MOL0     O12609   8.150  11.354  11.070  0.0021  0.6066 -0.6666
  817MOL0     C12610   8.078  11.280  11.136  0.0954  0.3910  0.1367
  817MOL0     O12611   8.122  11.171  11.202  0.2056  0.0216  0.6637
  817MOL0     C12612   8.250  11.154  11.248 -0.0164  0.0050  1.1151
  817MOL0     C12613   8.356  11.249  11.253  0.0212 -0.1047 -0.1021
  817MOL0     C12614   8.481  11.208  11.288  0.3319 -0.1240  0.3854
  817MOL0     C12615   8.520  11.080  11.310  0.3731  0.9130  0.2236
  817MOL0     O12616   8.639  11.030  11.342 -0.5075  0.5027  0.7948
  817MOL0     C12617   8.734  11.124  11.398  0.3720 -0.0872 -0.3475
  817MOL0     C12618   8.859  11.049  11.439 -0.3980 -0.3693 -0.2677
  817MOL0     C12619   8.959  11.163  11.457  0.2016  0.2434  0.5266
  817MOL0     C12620   9.083  11.088  11.519 -0.1591 -0.4053  0.8104
  817MOL0     C12621   9.209  11.178  11.511 -0.1780  0.2040 -0.1994
  817MOL0     C12622   9.328  11.092  11.555 -0.1316 -0.1000  0.0885
  817MOL0     C12623   9.455  11.176  11.579 -0.1511  0.0929  0.8059
  817MOL0     C12624   9.525  11.234  11.460  1.1780 -0.4573  0.5692
  817MOL0     N12625   9.663  11.270  11.483 -0.0144 -0.0146 -0.4490
  817MOL0     C12626   9.775  11.198  11.441 -0.1320  0.8148 -0.6590
  817MOL0     C12627   9.879  11.259  11.499 -0.6541  0.4506  0.3157
  817MOL0     C12628  10.019  11.226  11.482 -0.8479  0.5521 -0.5243
  817MOL0     C12629  10.125  11.335  11.458 -0.8089  0.0016 -0.0132
  817MOL0     C12630  10.223  11.306  11.346  0.5515 -0.7648  0.9615
  817MOL0     C12631  10.361  11.257  11.408 -0.1932 -0.6957  0.7866
  817MOL0     O12632  10.409  11.353  11.503 -0.4033  0.1195 -0.7609
  817MOL0     C12633  10.524  11.327  11.571  0.1935  0.1040 -0.5359
  817MOL0     C12634  10.523  11.305  11.714 -0.1494 -0.1323  0.2505
  817MOL0     C12635  10.637  11.260  11.785 -0.6432  0.2397  0.8436
  817MOL0     C12636  10.612  11.233  11.931 -0.3588 -0.5401  0.8214
  817MOL0     C12637  10.757  11.246  11.714  0.2401  0.6176  0.3092
  817MOL0     C12638  10.882  11.191  11.787 -0.4069 -0.7170  0.1528
  817MOL0     O12639  11.003  11.236  11.735  0.0778  0.4538  0.8689
  817MOL0     C12640  11.116  11.174  11.785 -0.1749  0.0568 -0.4391
  817MOL0     C12641  11.231  11.241  11.751 -0.1317 -0.6472 -0.2198
  817MOL0     C12642  11.361  11.198  11.788 -0.1189  0.2998  0.5805
  817MOL0     C12643  11.372  11.070  11.850  0.4786  0.6388  0.3566
  817MOL0     O12644  11.491  11.011  11.876 -1.1290  0.4275  0.0060
  817MOL0     C12645  11.609  11.096  11.865  0.1390 -0.2521 -0.6963
  817MOL0     C12646  11.734  11.016  11.894  0.3686  0.3685  0.6546
  817MOL0     C12647  11.858  11.107  11.857  0.0615  0.9634  0.2116
  817MOL0     C12648  11.979  11.022  11.891 -0.0303  0.7603  0.6352
  817MOL0     C12649  12.113  11.082  11.852  0.0502  0.0340  0.0323
  817MOL0     C12650  12.230  10.997  11.906  0.1267 -0.2899  0.3623
  817MOL0     C12651  12.242  10.853  11.854 -0.1109 -0.1201  0.2707
  817MOL0     C12652  12.353  10.789  11.933 -0.7917  0.2281  0.3305
  817MOL0    Cl12653  12.509  10.875  11.918  0.2534  0.2344 -0.2122
  817MOL0     C12654  11.253  10.996  11.884 -0.2925 -0.3441  0.3027
  817MOL0     C12655  11.128  11.048  11.851 -0.6199 -0.1720 -0.5805
  817MOL0     O12656  10.865  11.131  11.892 -0.1096  0.1744  0.5836
  817MOL0     C12657  10.765  11.275  11.574  0.7512 -0.1014  0.1516
  817MOL0     C12658  10.648  11.324  11.508  0.3545  0.5444  0.3874
  817MOL0     N12659   9.837  11.371  11.571  0.4608  0.0173  0.6503
  817MOL0     N12660   9.706  11.370  11.563  0.8634 -0.4313  0.3092
  817MOL0     C12661   8.416  10.986  11.302  0.3210 -1.2540 -0.6900
  817MOL0     C12662   8.287  11.021  11.268 -0.0946 -0.2078  0.4355
  817MOL0     C12663   7.936  11.314  11.126  1.4046  0.2808  0.1364
  817MOL0     C12664   7.901  11.451  11.139  0.2984 -0.4056  0.3374
  817MOL0     C12665   7.768  11.493  11.139 -0.1806  0.2015  0.6624
  817MOL0     C12666   7.664  11.405  11.133 -0.0665  0.0556  0.3409
  817MOL0     O12667   7.542  11.459  11.137 -1.0522 -0.1217 -0.3953
  817MOL0     C12668   7.425  11.378  11.160  0.5127  0.0587  0.3251
  817MOL0     C12669   7.323  11.467  11.227  0.1478 -0.8718  0.3367
  817MOL0     C12670   7.374  11.512  11.368  0.4211  0.2819  0.0935
  817MOL0     C12671   7.265  11.589  11.441  0.1118 -0.2858 -0.4872
  817MOL0     C12672   7.132  11.525  11.455 -0.4190  0.2975  0.4261
  817MOL0     C12673   7.013  11.482  11.464  0.4144  0.2071 -0.9717
  817MOL0     C12674   7.695  11.261  11.135 -0.1274 -0.4355  1.1517
  817MOL0     C12675   7.830  11.220  11.129 -1.5078 -0.3080  0.7786
  817MOL0     C12676   7.861  11.067  11.104  0.0501 -0.7962 -0.1659
  817MOL0     H12677   8.344  11.356  11.239  1.6527  0.1580  0.3113
  817MOL0     H12678   8.559  11.284  11.290 -0.5845  1.0837  6.0373
  817MOL0     H12679   8.706  11.175  11.491 -0.3551 -0.6005 -0.2748
  817MOL0     H12680   8.756  11.191  11.314 -2.9466  1.6815  0.0100
  817MOL0     H12681   8.843  10.990  11.530 -0.2042  0.4388  0.3020
  817MOL0     H12682   8.906  10.981  11.367 -1.8235 -2.9549  1.0756
  817MOL0     H12683   8.993  11.222  11.371  2.8667  1.1473  2.0819
  817MOL0     H12684   8.921  11.231  11.535  1.7942  1.6543  0.1300
  817MOL0     H12685   9.080  11.060  11.625 -2.2341 -0.8733  0.6730
  817MOL0     H12686   9.110  11.004  11.455 -0.2554  0.7053 -0.7484
  817MOL0     H12687   9.186  11.271  11.563  2.9840  1.9279 -1.6190
  817MOL0     H12688   9.228  11.215  11.410 -2.1777 -1.6289 -1.3281
  817MOL0     H12689   9.306  11.057  11.656 -3.3519  1.4519  0.0459
  817MOL0     H12690   9.346  11.018  11.477 -0.1370  1.8527 -1.8936
  817MOL0     H12691   9.526  11.109  11.629  0.2651 -0.7360 -0.8098
  817MOL0     H12692   9.427  11.255  11.648  0.8757 -1.0284  2.6041
  817MOL0     H12693   9.510  11.171  11.372  0.8833  2.1661 -1.3855
  817MOL0     H12694   9.466  11.323  11.435  2.1099  0.5067  1.6715
  817MOL0     H12695   9.777  11.117  11.369 -1.8759  0.1760 -0.0289
  817MOL0     H12696  10.017  11.164  11.391 -1.9199  0.2486 -0.3085
  817MOL0     H12697  10.059  11.179  11.571 -1.2472 -0.4811 -0.8758
  817MOL0     H12698  10.075  11.429  11.433  0.6698  1.0029  0.6084
  817MOL0     H12699  10.169  11.353  11.557  2.0042  1.2686 -1.3861
  817MOL0     H12700  10.178  11.232  11.279  0.6896 -0.6094  0.6992
  817MOL0     H12701  10.232  11.407  11.305 -2.7004 -0.7215  0.0991
  817MOL0     H12702  10.351  11.162  11.461  0.3315 -0.8928  0.5289
  817MOL0     H12703  10.433  11.231  11.330 -1.1915 -0.4182 -0.2530
  817MOL0     H12704  10.424  11.311  11.758 -0.0463  0.9690  0.3733
  817MOL0     H12705  10.514  11.276  11.957  0.2866  0.6607  1.3554
  817MOL0     H12706  10.689  11.278  11.994 -0.4413  1.1331 -0.1941
  817MOL0     H12707  10.615  11.126  11.952  3.4261 -0.5878  0.7405
  817MOL0     H12708  11.238  11.335  11.697  1.8307  0.7288  2.2105
  817MOL0     H12709  11.447  11.264  11.778 -1.8797  2.3984 -2.2630
  817MOL0     H12710  11.624  11.146  11.769 -2.0988  1.4099 -0.2476
  817MOL0     H12711  11.597  11.178  11.936 -2.2924  0.2618 -1.5873
  817MOL0     H12712  11.738  10.996  12.002  1.7428 -0.5418  0.4592
  817MOL0     H12713  11.724  10.922  11.839 -1.1891  1.1712 -0.4940
  817MOL0     H12714  11.845  11.191  11.927 -1.1427 -0.1958  1.4490
  817MOL0     H12715  11.859  11.141  11.754  0.1094  0.9430  0.2056
  817MOL0     H12716  11.961  10.930  11.835 -0.3954  1.9824 -1.3597
  817MOL0     H12717  11.971  11.004  11.998 -0.9152 -0.3999  0.3990
  817MOL0     H12718  12.127  11.111  11.748  0.0578 -2.0246 -0.5930
  817MOL0     H12719  12.114  11.178  11.904 -0.9151  0.9717 -1.5973
  817MOL0     H12720  12.232  10.994  12.016 -1.2849  1.2804  0.4644
  817MOL0     H12721  12.322  11.042  11.868 -0.7120  0.6448 -0.5887
  817MOL0     H12722  12.281  10.875  11.754  0.1544  1.3834  0.6731
  817MOL0     H12723  12.147  10.799  11.859  0.4412 -1.0127  1.7643
  817MOL0     H12724  12.378  10.694  11.886 -0.3985 -0.0407  1.0721
  817MOL0     H12725  12.329  10.774  12.039 -0.0494 -1.6933  0.2622
  817MOL0     H12726  11.250  10.895  11.925 -1.4863 -0.1595  0.7278
  817MOL0     H12727  11.048  10.978  11.874  1.3729 -1.6444  2.6404
  817MOL0     H12728  10.858  11.266  11.519 -1.0537 -2.4061 -2.8335
  817MOL0     H12729  10.661  11.348  11.403  0.6053  0.7940  0.4742
  817MOL0     H12730   8.447  10.883  11.319 -1.3580 -1.9244 -1.3955
  817MOL0     H12731   8.206  10.953  11.245  0.0250 -0.8681  1.8302
  817MOL0     H12732   7.968  11.536  11.134  0.5983 -0.6855 -0.4988
  817MOL0     H12733   7.744  11.598  11.152  0.6849  0.3845  0.8469
  817MOL0     H12734   7.392  11.346  11.061 -0.7071  2.0062  0.0558
  817MOL0     H12735   7.456  11.293  11.222  0.2436  0.7620  1.4590
  817MOL0     H12736   7.240  11.400  11.251 -1.2286  0.3594 -0.8111
  817MOL0     H12737   7.280  11.538  11.156 -0.3970 -0.0716  1.4494
  817MOL0     H12738   7.395  11.429  11.436 -0.1567  0.2158  0.1939
  817MOL0     H12739   7.457  11.582  11.361 -2.7673  4.6051  1.1339
  817MOL0     H12740   7.257  11.688  11.395 -0.2844 -0.6438 -1.1851
  817MOL0     H12741   7.298  11.601  11.545 -2.6644  0.0323  0.4235
  817MOL0     H12742   6.912  11.446  11.465  1.0545 -1.6832 -0.9187
  817MOL0     H12743   7.621  11.182  11.127 -0.1153 -0.3205 -0.2141
  817MOL0     H12744   7.904  11.020  11.193 -2.0998  1.1618  2.0454
  817MOL0     H12745   7.775  11.007  11.075  0.1795  0.1594 -2.8296
  817MOL0     H12746   7.930  11.066  11.019 -0.6247 -0.3836 -0.7302
  818MOL0     O12747  10.166   2.806  10.393  0.1966  0.0294 -1.0995
  818MOL0     C12748  10.073   2.887  10.384 -1.0124 -0.1386  0.3327
  818MOL0     O12749  10.069   3.016  10.437  0.7897 -0.0415  0.5231
  818MOL0     C12750  10.193   3.061  10.478  0.1676 -0.3708 -0.0807
  818MOL0     C12751  10.288   3.096  10.384 -0.6298  0.1378  0.4218
  818MOL0     C12752  10.418   3.137  10.433 -0.3109 -0.0247 -0.1451
  818MOL0     C12753  10.442   3.154  10.570  0.0517  0.4391 -0.0849
  818MOL0     O12754  10.570   3.192  10.618 -0.0343 -0.2081  0.8780
  818MOL0     C12755  10.581   3.330  10.665 -0.5572 -0.0753  0.1817
  818MOL0     C12756  10.712   3.347  10.740  0.5071  0.3683 -0.7524
  818MOL0     C12757  10.835   3.299  10.671  1.4268  0.5760 -0.8265
  818MOL0     C12758  10.959   3.368  10.730 -0.6405 -0.6365  1.0315
  818MOL0     C12759  11.087   3.282  10.718 -0.2112  0.8839  0.3297
  818MOL0     C12760  11.112   3.248  10.568 -0.0222 -0.5939  0.9422
  818MOL0     C12761  11.265   3.226  10.542  0.2106 -0.9675 -0.5495
  818MOL0     C12762  11.286   3.215  10.388 -0.5354  0.9156  0.0231
  818MOL0     N12763  11.415   3.161  10.359 -0.1754  0.0801 -0.1330
  818MOL0     C12764  11.520   3.176  10.432 -0.2864  0.2960 -0.0220
  818MOL0     C12765  11.620   3.105  10.376  0.8496  0.4684  0.1521
  818MOL0     C12766  11.757   3.095  10.425 -0.4380 -0.5721 -0.3679
  818MOL0     C12767  11.863   3.201  10.373  0.2349 -0.4245 -0.2360
  818MOL0     C12768  11.834   3.340  10.432  0.6546 -0.8364 -0.4206
  818MOL0     C12769  11.970   3.408  10.441  0.8690 -1.0894 -0.3234
  818MOL0     O12770  11.949   3.532  10.521 -0.6939 -0.5111  0.1554
  818MOL0     C12771  12.065   3.590  10.566  0.8316 -0.1823 -0.1377
  818MOL0     C12772  12.052   3.644  10.687  0.0614 -0.3189 -0.4255
  818MOL0     C12773  12.149   3.722  10.747  0.1175  0.6414  0.1071
  818MOL0     C12774  12.118   3.778  10.881 -0.1131  0.3668 -0.5618
  818MOL0     C12775  12.269   3.752  10.673 -0.3450  0.5632 -0.5045
  818MOL0     C12776  12.382   3.828  10.717 -0.3185  0.4404  0.1873
  818MOL0     O12777  12.497   3.823  10.643 -0.1066  0.0164  0.0237
  818MOL0     C12778  12.602   3.900  10.695 -0.2484 -0.4780 -0.1987
  818MOL0     C12779  12.635   4.021  10.631  0.0374 -0.1589  0.1490
  818MOL0     C12780  12.747   4.096  10.674 -0.6617  0.8807  0.0337
  818MOL0     C12781  12.834   4.050  10.779  0.7758  0.4958  0.1048
  818MOL0     O12782  12.942   4.120  10.824 -0.2991 -0.2306  0.3602
  818MOL0     C12783  13.002   4.227  10.740 -0.3500  0.6561  0.9558
  818MOL0     C12784  13.130   4.273  10.809 -0.6479 -0.6724 -0.6651
  818MOL0     C12785  13.232   4.163  10.791  0.9487  0.4715  0.2284
  818MOL0     C12786  13.368   4.213  10.852  1.5408  0.1139 -0.0681
  818MOL0     C12787  13.484   4.106  10.837  0.1609  0.8796 -0.1713
  818MOL0     C12788  13.557   4.111  10.697  0.2828  0.3404 -0.3976
  818MOL0     C12789  13.616   4.246  10.669 -0.9909 -0.3320  0.2213
  818MOL0     C12790  13.725   4.244  10.554 -0.0386  0.3418  0.5902
  818MOL0    Cl12791  13.753   4.411  10.501 -0.0467  0.0894 -0.0062
  818MOL0     C12792  12.798   3.929  10.832 -0.3372  0.5306 -0.0246
  818MOL0     C12793  12.682   3.850  10.792 -0.3196 -1.0054 -0.4298
  818MOL0     O12794  12.365   3.897  10.815  0.1424  0.0619  0.1571
  818MOL0     C12795  12.278   3.695  10.548 -0.4584 -0.5302  0.5783
  818MOL0     C12796  12.178   3.611  10.490  0.1300 -0.0034 -0.4666
  818MOL0     N12797  11.569   3.045  10.265  0.4858 -0.0048  0.5775
  818MOL0     N12798  11.442   3.066  10.267 -0.3164 -0.9595  0.1274
  818MOL0     C12799  10.334   3.124  10.663  0.1935 -0.7895  0.3407
  818MOL0     C12800  10.215   3.074  10.613 -0.4749  0.9467 -0.9758
  818MOL0     C12801   9.964   2.845  10.299  0.3763 -0.4560  0.3565
  818MOL0     C12802   9.906   2.719  10.324 -0.8611  0.2938 -0.1860
  818MOL0     C12803   9.811   2.668  10.234 -0.3354 -1.1407  0.2019
  818MOL0     C12804   9.750   2.741  10.140  0.0721  0.3589  0.0714
  818MOL0     O12805   9.638   2.689  10.068  0.2847 -0.1709 -0.7670
  818MOL0     C12806   9.593   2.550  10.099 -0.3151  0.1051  0.5890
  818MOL0     C12807   9.463   2.535  10.021  0.1524  0.0983 -0.3985
  818MOL0     C12808   9.399   2.410  10.065 -0.0128 -0.2108 -0.8471
  818MOL0     C12809   9.287   2.365   9.979  0.2668 -0.2064  0.2043
  818MOL0     C12810   9.162   2.302  10.027  0.3051 -0.6101 -0.2677
  818MOL0     C12811   9.060   2.237  10.051  0.4638  0.2878  1.1172
  818MOL0     C12812   9.812   2.860  10.104  0.1490 -0.5705 -0.2127
  818MOL0     C12813   9.917   2.913  10.185 -0.1071 -0.3526  0.1576
  818MOL0     C12814  10.001   3.031  10.137  0.1902  0.9092  0.1003
  818MOL0     H12815  10.266   3.079  10.280 -0.3375 -0.6207  0.4746
  818MOL0     H12816  10.501   3.141  10.364  0.9597 -3.3496  0.9889
  818MOL0     H12817  10.498   3.359  10.729  0.0957  0.1742  0.9336
  818MOL0     H12818  10.575   3.398  10.580  1.2388  0.4068  0.3936
  818MOL0     H12819  10.720   3.452  10.770 -3.1074  0.8192 -0.9300
  818MOL0     H12820  10.709   3.289  10.833  0.4800  1.4851 -0.0439
  818MOL0     H12821  10.847   3.193  10.694  3.6869  1.3570  2.3647
  818MOL0     H12822  10.828   3.319  10.564 -1.9271  1.3928 -0.5721
  818MOL0     H12823  10.971   3.466  10.683 -0.0446  0.0830  2.5878
  818MOL0     H12824  10.947   3.397  10.835 -1.9852  5.9708 -0.5232
  818MOL0     H12825  11.074   3.189  10.775 -1.1170  1.2715  0.7661
  818MOL0     H12826  11.174   3.329  10.766 -0.7620  0.1132  2.1845
  818MOL0     H12827  11.044   3.167  10.538 -0.4854 -0.7480  2.3433
  818MOL0     H12828  11.085   3.339  10.514  2.2117 -0.1509  0.4902
  818MOL0     H12829  11.291   3.135  10.597  1.3265 -0.1501  0.3099
  818MOL0     H12830  11.330   3.310  10.566 -1.2109 -0.6810  2.8155
  818MOL0     H12831  11.208   3.149  10.348 -0.7385  0.2480  1.4362
  818MOL0     H12832  11.276   3.315  10.345 -0.4668  1.0808  0.3842
  818MOL0     H12833  11.544   3.236  10.519  0.2715 -0.0979  0.1008
  818MOL0     H12834  11.795   2.998  10.392  1.8390  1.5514 -4.9338
  818MOL0     H12835  11.753   3.109  10.534 -0.6156  3.2041 -0.6962
  818MOL0     H12836  11.964   3.177  10.404 -0.3808 -1.4634  1.0154
  818MOL0     H12837  11.869   3.204  10.263 -1.8273  2.1308 -0.4021
  818MOL0     H12838  11.763   3.390  10.366 -0.2993 -0.2075  1.0230
  818MOL0     H12839  11.790   3.336  10.532 -0.7796 -0.8550 -1.0278
  818MOL0     H12840  12.046   3.356  10.500 -0.3663 -1.1799  1.2393
  818MOL0     H12841  12.008   3.446  10.346  0.9089  0.1013  0.1494
  818MOL0     H12842  11.965   3.632  10.751  1.1055  2.0898  1.5766
  818MOL0     H12843  12.139   3.884  10.896  0.2549  0.1934  0.2350
  818MOL0     H12844  12.167   3.718  10.958  0.3014  2.5835  1.0211
  818MOL0     H12845  12.013   3.763  10.910  0.3629  1.1018  1.7797
  818MOL0     H12846  12.575   4.059  10.548 -0.2276  1.0073  0.8420
  818MOL0     H12847  12.766   4.192  10.628  1.2773  0.5735  0.1146
  818MOL0     H12848  13.017   4.193  10.637  2.1783  1.5148  0.9896
  818MOL0     H12849  12.937   4.315  10.736  1.5447  2.0800 -1.7993
  818MOL0     H12850  13.169   4.369  10.772 -0.1358 -0.3001  0.7434
  818MOL0     H12851  13.107   4.284  10.916 -1.4473  1.0244 -0.9668
  818MOL0     H12852  13.251   4.144  10.685 -1.3702 -2.5630  0.2179
  818MOL0     H12853  13.205   4.072  10.845  0.1995  0.1140 -0.7229
  818MOL0     H12854  13.359   4.239  10.958  2.7034  0.3625 -0.0240
  818MOL0     H12855  13.388   4.308  10.801  0.9421 -0.2950 -1.1014
  818MOL0     H12856  13.553   4.130  10.919 -0.2415  1.0572  0.1205
  818MOL0     H12857  13.439   4.009  10.863 -0.2533  1.4479  1.3992
  818MOL0     H12858  13.493   4.084  10.613  1.5063 -1.1682 -0.9049
  818MOL0     H12859  13.633   4.032  10.703  0.0107  0.0824 -0.2939
  818MOL0     H12860  13.662   4.268  10.765 -0.9872 -0.2249  0.1945
  818MOL0     H12861  13.537   4.314  10.639 -1.1717 -1.2530 -1.5586
  818MOL0     H12862  13.684   4.183  10.473  1.5309 -0.3218  0.2593
  818MOL0     H12863  13.823   4.199  10.574  0.3781  1.2411  0.6404
  818MOL0     H12864  12.869   3.883  10.900 -2.0037 -0.3993  1.1626
  818MOL0     H12865  12.665   3.754  10.839 -0.2690 -0.9100 -0.2178
  818MOL0     H12866  12.363   3.722  10.485  0.0819  1.1931  1.9757
  818MOL0     H12867  12.190   3.571  10.390  2.5269  0.5062 -0.4588
  818MOL0     H12868  10.357   3.138  10.768  2.6222  1.6335 -0.3890
  818MOL0     H12869  10.140   3.034  10.680  1.3834 -0.4891  0.3473
  818MOL0     H12870   9.939   2.646  10.397  1.8510  1.3452 -0.2623
  818MOL0     H12871   9.785   2.569  10.269 -1.1867 -0.6140  1.1122
  818MOL0     H12872   9.660   2.474  10.059 -0.3127 -0.1686  1.1083
  818MOL0     H12873   9.571   2.540  10.205  1.5281 -4.3220  0.7682
  818MOL0     H12874   9.472   2.525   9.913 -1.5048  1.8162 -0.7505
  818MOL0     H12875   9.389   2.614  10.037 -0.0136  0.2642 -1.9114
  818MOL0     H12876   9.468   2.326  10.079  0.2654 -0.0764 -1.3822
  818MOL0     H12877   9.356   2.425  10.165 -0.8814 -0.9353 -1.0972
  818MOL0     H12878   9.318   2.295   9.901 -2.2922 -1.0359 -0.1694
  818MOL0     H12879   9.251   2.448   9.917  1.0861 -1.6989 -2.4465
  818MOL0     H12880   8.966   2.188  10.070 -0.4096 -0.4974 -3.9471
  818MOL0     H12881   9.767   2.915  10.021  0.0342 -2.4258 -1.4417
  818MOL0     H12882   9.985   3.047  10.030  1.3869 -1.8289 -0.5608
  818MOL0     H12883   9.975   3.121  10.195 -2.5084 -1.1902  2.4368
  818MOL0     H12884  10.102   2.992  10.124 -0.5600 -0.5480 -1.8150
  819MOL0     O12885   9.214   0.242  10.042 -0.1649 -0.1987 -0.6568
  819MOL0     C12886   9.312   0.306  10.072 -0.3586  0.5032  0.3451
  819MOL0     O12887   9.325   0.387  10.189 -0.3954 -0.2437  0.7572
  819MOL0     C12888   9.245   0.366  10.299 -0.5634  0.1572  0.4796
  819MOL0     C12889   9.109   0.333  10.299  0.2538  0.4517  0.7813
  819MOL0     C12890   9.038   0.333  10.420 -0.4735 -0.7736  0.0120
  819MOL0     C12891   9.095   0.379  10.543 -1.1188  0.4600 -0.3840
  819MOL0     O12892   9.027   0.403  10.659  0.0521  0.1491  0.1681
  819MOL0     C12893   8.892   0.365  10.677 -0.9499  0.1162 -0.4278
  819MOL0     C12894   8.796   0.479  10.631 -0.1832 -0.2980  0.3024
  819MOL0     C12895   8.774   0.585  10.738  0.3873 -0.3042 -1.0792
  819MOL0     C12896   8.895   0.692  10.754  0.8127  0.0634  0.5799
  819MOL0     C12897   8.849   0.800  10.841  0.6372  0.5099 -0.4429
  819MOL0     C12898   8.964   0.885  10.872 -0.3780  0.7532  0.3098
  819MOL0     C12899   8.924   1.025  10.899 -0.2964  1.4136  0.3534
  819MOL0     C12900   8.846   1.043  11.026  0.9333  1.0029  0.7384
  819MOL0     N12901   8.809   1.182  11.038 -0.3304 -0.7128  0.1372
  819MOL0     C12902   8.883   1.293  10.997  0.3011  0.6837  0.1807
  819MOL0     C12903   8.800   1.391  11.025  0.7410 -0.5745  0.0747
  819MOL0     C12904   8.832   1.534  10.982  0.1014 -0.8365 -0.7364
  819MOL0     C12905   8.753   1.591  10.860  0.0877 -0.0559 -0.1844
  819MOL0     C12906   8.767   1.745  10.829  0.0266  0.2261 -1.0434
  819MOL0     C12907   8.911   1.805  10.853 -0.4708  0.2718  0.8385
  819MOL0     O12908   9.009   1.708  10.800  0.0004 -0.4209  0.0505
  819MOL0     C12909   9.134   1.764  10.797  0.1759 -0.0051  0.3638
  819MOL0     C12910   9.174   1.879  10.865  0.9595 -0.0063  0.0857
  819MOL0     C12911   9.298   1.936  10.839 -0.4431 -0.7639 -0.3274
  819MOL0     C12912   9.336   2.063  10.916  0.5847 -0.4913 -0.1417
  819MOL0     C12913   9.378   1.878  10.738  0.3410  0.6878 -0.2344
  819MOL0     C12914   9.514   1.923  10.704 -0.0440  0.5579  0.2888
  819MOL0     O12915   9.581   1.847  10.616 -0.2921  0.2096 -0.1041
  819MOL0     C12916   9.715   1.866  10.611 -0.0070 -0.1453  0.3088
  819MOL0     C12917   9.776   1.871  10.483 -0.6800 -0.3931 -0.3708
  819MOL0     C12918   9.916   1.895  10.459  1.0460  0.0693 -0.2961
  819MOL0     C12919   9.998   1.899  10.578 -0.0317  0.0416  0.1017
  819MOL0     O12920  10.134   1.915  10.585  0.1693  0.2962 -0.1276
  819MOL0     C12921  10.207   1.925  10.462  0.3571 -0.2415 -0.4292
  819MOL0     C12922  10.341   1.872  10.495 -0.4611  0.0865  0.2719
  819MOL0     C12923  10.427   1.968  10.575 -1.4445 -0.4423 -0.2775
  819MOL0     C12924  10.565   1.912  10.603 -0.6963  0.5485  0.0699
  819MOL0     C12925  10.645   2.013  10.682  0.1839 -0.4047 -0.5356
  819MOL0     C12926  10.790   1.973  10.690 -0.6136 -0.8313  0.9833
  819MOL0     C12927  10.863   2.043  10.804 -0.3303  0.2515  0.4515
  819MOL0     C12928  11.007   2.007  10.809  0.2714 -0.5798 -0.0864
  819MOL0    Cl12929  11.015   1.821  10.829 -0.0944 -0.5060  0.7096
  819MOL0     C12930   9.940   1.870  10.708 -0.6693 -0.0982  0.5215
  819MOL0     C12931   9.801   1.861  10.721  0.1508  1.0283  0.3602
  819MOL0     O12932   9.558   2.025  10.760 -0.2601  0.7892  0.0644
  819MOL0     C12933   9.337   1.757  10.675  0.2367 -0.3454 -0.2975
  819MOL0     C12934   9.214   1.702  10.702  0.0083 -0.3271 -1.0203
  819MOL0     N12935   8.694   1.344  11.104  0.1742 -0.7367 -0.4827
  819MOL0     N12936   8.696   1.220  11.103 -0.2385  0.2982 -0.7715
  819MOL0     C12937   9.233   0.401  10.533  0.3617 -0.7646 -1.0890
  819MOL0     C12938   9.303   0.398  10.415 -0.1753  0.0996  0.3539
  819MOL0     C12939   9.435   0.257   9.990  0.4290  0.0262 -0.0012
  819MOL0     C12940   9.424   0.158   9.889  0.0320  0.7380 -0.7157
  819MOL0     C12941   9.529   0.094   9.830 -0.2809 -0.2139  0.3456
  819MOL0     C12942   9.660   0.154   9.856 -0.2332 -0.5127  1.0652
  819MOL0     O12943   9.773   0.112   9.789  0.8032 -0.3603 -0.1056
  819MOL0     C12944   9.767   0.027   9.674 -0.2590  0.1672  0.2602
  819MOL0     C12945   9.754  -0.129   9.700 -0.6284  0.0153 -0.5583
  819MOL0     C12946   9.891  -0.186   9.741 -0.1704  0.1004  0.4838
  819MOL0     C12947   9.916  -0.166   9.882 -0.4103  0.5541  0.2260
  819MOL0     C12948  10.066  -0.179   9.897 -0.0973 -0.2004  0.3071
  819MOL0     C12949  10.185  -0.181   9.880 -0.5923 -0.5834 -0.5051
  819MOL0     C12950   9.676   0.267   9.933 -0.3142 -0.4626 -0.2026
  819MOL0     C12951   9.563   0.308  10.009  0.3290 -0.3221 -0.5323
  819MOL0     C12952   9.592   0.416  10.114 -0.5305  0.5057 -0.3315
  819MOL0     H12953   9.069   0.302  10.203 -1.2291 -1.4185  1.9332
  819MOL0     H12954   8.932   0.312  10.409 -0.2514 -1.3252 -1.2011
  819MOL0     H12955   8.868   0.337  10.780 -2.6353  1.0798 -0.5179
  819MOL0     H12956   8.865   0.281  10.612  0.2846  0.4054 -1.3415
  819MOL0     H12957   8.828   0.534  10.542  2.2654  3.9446  3.3841
  819MOL0     H12958   8.698   0.433  10.614 -0.3350  0.2634 -0.3855
  819MOL0     H12959   8.677   0.632  10.722  0.4133 -0.1772 -0.8663
  819MOL0     H12960   8.775   0.532  10.834  1.1794 -0.5067 -1.1866
  819MOL0     H12961   8.978   0.645  10.808  0.6870  1.9252  2.5156
  819MOL0     H12962   8.915   0.737  10.656 -3.7871  2.3994  0.4392
  819MOL0     H12963   8.797   0.754  10.925  1.7370  1.5675  0.8580
  819MOL0     H12964   8.775   0.866  10.795 -2.2939 -2.0788  0.2058
  819MOL0     H12965   9.030   0.848  10.952 -0.0869  1.8002  0.5770
  819MOL0     H12966   9.035   0.872  10.790 -0.6803 -6.0835  0.5540
  819MOL0     H12967   8.876   1.068  10.810  1.6187  2.2711 -0.3224
  819MOL0     H12968   9.011   1.091  10.891  0.3661  0.4867 -0.3254
  819MOL0     H12969   8.756   0.981  11.025  1.8472 -0.3742 -0.6484
  819MOL0     H12970   8.908   1.006  11.108  0.6507  0.8482  0.8824
  819MOL0     H12971   8.979   1.302  10.948  0.8487 -1.4363  0.7413
  819MOL0     H12972   8.939   1.546  10.968  0.2829  1.6446  1.7868
  819MOL0     H12973   8.810   1.596  11.069  1.1077 -0.1411 -0.9574
  819MOL0     H12974   8.776   1.538  10.767 -4.0869 -0.5336 -1.1712
  819MOL0     H12975   8.646   1.570  10.876  0.0042  0.0058 -0.6524
  819MOL0     H12976   8.727   1.764  10.729  0.3722 -2.5876 -1.7971
  819MOL0     H12977   8.707   1.791  10.909 -0.8406 -1.5976 -0.5873
  819MOL0     H12978   8.902   1.895  10.792 -0.3730 -0.7438 -0.7394
  819MOL0     H12979   8.932   1.841  10.954 -0.2373  1.5630  0.3439
  819MOL0     H12980   9.101   1.932  10.925 -2.8317 -2.1530 -2.2322
  819MOL0     H12981   9.258   2.070  10.992 -0.4818 -0.3982 -1.2054
  819MOL0     H12982   9.352   2.153  10.856 -1.0210 -1.8044 -2.7098
  819MOL0     H12983   9.421   2.039  10.980 -0.4668 -3.4796  0.3018
  819MOL0     H12984   9.708   1.860  10.399 -1.1555 -2.5305  0.2424
  819MOL0     H12985   9.952   1.907  10.357  0.9235  2.3324 -0.1106
  819MOL0     H12986  10.157   1.855  10.395 -1.4338 -0.4323  1.0549
  819MOL0     H12987  10.218   2.027  10.424  3.5538  1.4616  4.1676
  819MOL0     H12988  10.331   1.778  10.551 -2.4565  0.2802  0.2834
  819MOL0     H12989  10.385   1.852  10.397 -1.4677  1.6689 -0.5434
  819MOL0     H12990  10.380   2.001  10.669  0.1546  1.2488 -0.0097
  819MOL0     H12991  10.435   2.061  10.518 -1.6826 -0.1937  0.0869
  819MOL0     H12992  10.616   1.898  10.508 -0.9786 -0.3578  0.0415
  819MOL0     H12993  10.561   1.814  10.652  0.7167  1.1190  1.4008
  819MOL0     H12994  10.639   2.115  10.643  1.3462 -0.6327 -1.3576
  819MOL0     H12995  10.599   2.009  10.781  1.6416  1.5764  0.2748
  819MOL0     H12996  10.835   2.000  10.594 -0.8824 -0.4371  0.9649
  819MOL0     H12997  10.789   1.865  10.706  0.7620 -1.3506 -1.7964
  819MOL0     H12998  10.815   2.015  10.897 -1.3934 -2.0411 -0.7090
  819MOL0     H12999  10.845   2.151  10.798  0.0820  0.2414 -2.2027
  819MOL0     H13000  11.043   2.061  10.897 -2.1476  0.3730  0.3976
  819MOL0     H13001  11.065   2.032  10.720  1.0510 -1.1018  0.2656
  819MOL0     H13002  10.008   1.870  10.793 -0.5827  0.1466  0.4545
  819MOL0     H13003   9.759   1.856  10.821  2.2402  0.1341  1.2517
  819MOL0     H13004   9.389   1.712  10.591  2.0023  1.1764 -0.0875
  819MOL0     H13005   9.169   1.613  10.659 -1.3117  0.3225 -1.0431
  819MOL0     H13006   9.268   0.444  10.626 -2.2948  0.7973 -0.6849
  819MOL0     H13007   9.404   0.434  10.430  0.3534 -1.3560  0.4364
  819MOL0     H13008   9.330   0.107   9.871  0.1376  0.1621  0.3089
  819MOL0     H13009   9.519   0.012   9.760 -1.5333 -0.9398  1.3290
  819MOL0     H13010   9.683   0.063   9.613  0.6835  1.1323 -0.5099
  819MOL0     H13011   9.848   0.050   9.605 -1.7089  1.6383 -1.0479
  819MOL0     H13012   9.704  -0.192   9.626 -1.3712 -0.1138  0.0457
  819MOL0     H13013   9.690  -0.141   9.788 -0.6450 -2.3296 -0.8309
  819MOL0     H13014   9.906  -0.290   9.710  1.2077  1.4205 -4.1323
  819MOL0     H13015   9.961  -0.132   9.678 -1.2448 -0.2487 -1.0716
  819MOL0     H13016   9.867  -0.244   9.941  0.2667  0.7023  1.0213
  819MOL0     H13017   9.876  -0.073   9.923 -0.1540  0.6722  0.2137
  819MOL0     H13018  10.291  -0.176   9.868 -0.7475  1.5844 -1.2726
  819MOL0     H13019   9.767   0.325   9.947 -0.7375  0.2260 -0.2689
  819MOL0     H13020   9.680   0.475  10.087 -0.9278  1.0410 -0.4672
  819MOL0     H13021   9.515   0.491  10.131 -0.4915  0.5098 -0.1745
  819MOL0     H13022   9.599   0.372  10.214  1.4038 -1.0113 -1.0537
  820MOL0     O13023   2.824   1.798   4.397 -0.1178 -0.1193 -0.8352
  820MOL0     C13024   2.837   1.910   4.336  0.4960  0.0456 -0.8359
  820MOL0     O13025   2.949   1.954   4.274  0.0574  0.4814 -0.6373
  820MOL0     C13026   3.058   1.875   4.236  0.1284  0.3054 -0.2541
  820MOL0     C13027   3.153   1.944   4.153 -0.1558 -0.2088 -0.6762
  820MOL0     C13028   3.278   1.893   4.116 -0.1591  0.0911 -0.3384
  820MOL0     C13029   3.308   1.766   4.163  0.4112 -0.0490 -0.6744
  820MOL0     O13030   3.434   1.732   4.132 -0.0535  0.1368  0.0329
  820MOL0     C13031   3.481   1.599   4.141 -0.0171  0.9086 -0.2436
  820MOL0     C13032   3.634   1.588   4.133  0.3923 -0.6030 -0.7864
  820MOL0     C13033   3.709   1.663   4.013  0.0696  0.0878 -0.2113
  820MOL0     C13034   3.859   1.639   4.023 -0.0019 -0.0139 -0.3585
  820MOL0     C13035   3.924   1.678   3.888 -0.2068 -0.0167  0.6770
  820MOL0     C13036   4.076   1.725   3.915  0.4967 -0.0585 -0.0052
  820MOL0     C13037   4.151   1.781   3.801 -0.1143  0.3974 -0.2225
  820MOL0     C13038   4.110   1.704   3.670  0.7789 -0.0999  0.5144
  820MOL0     N13039   4.172   1.767   3.552  0.2570 -0.4268 -0.1454
  820MOL0     C13040   4.300   1.744   3.511  1.1724 -0.7972  0.8312
  820MOL0     C13041   4.299   1.789   3.382  0.6874  0.3375  0.2409
  820MOL0     C13042   4.413   1.786   3.281 -0.5071  0.2962  0.5241
  820MOL0     C13043   4.535   1.867   3.335 -0.2128 -0.2863 -0.2983
  820MOL0     C13044   4.661   1.811   3.267  0.2175 -0.6633 -0.4915
  820MOL0     C13045   4.788   1.862   3.340  0.5168  0.1665 -0.3682
  820MOL0     O13046   4.895   1.828   3.254  0.3776 -0.4792  0.3439
  820MOL0     C13047   5.023   1.874   3.293 -0.1416  0.3043  0.7905
  820MOL0     C13048   5.045   1.938   3.413  0.3270  0.2847 -0.3123
  820MOL0     C13049   5.167   1.998   3.453  0.3647  0.8616 -0.2853
  820MOL0     C13050   5.183   2.083   3.585 -0.3529 -0.7067 -0.0456
  820MOL0     C13051   5.276   1.975   3.374  0.8270 -0.5393  0.1870
  820MOL0     C13052   5.420   2.018   3.399  0.6466  0.2317  0.1524
  820MOL0     O13053   5.507   2.036   3.292 -0.0317  0.4501  0.6586
  820MOL0     C13054   5.644   2.039   3.322 -0.0168  1.1643 -0.3544
  820MOL0     C13055   5.698   2.152   3.398  0.5338 -0.3168  0.7363
  820MOL0     C13056   5.831   2.171   3.417 -0.4361 -0.1107  0.2127
  820MOL0     C13057   5.911   2.067   3.375  0.6073 -0.2109 -0.2144
  820MOL0     O13058   6.040   2.066   3.389  0.0477 -0.1418 -0.0051
  820MOL0     C13059   6.100   2.174   3.458 -0.4329  0.1984 -0.0202
  820MOL0     C13060   6.251   2.157   3.447  0.8373 -0.9058 -0.2055
  820MOL0     C13061   6.300   2.020   3.480 -0.1700  0.0450  0.4248
  820MOL0     C13062   6.445   1.997   3.431 -0.1160  0.4654 -0.0337
  820MOL0     C13063   6.501   1.895   3.540 -0.1606 -0.0942 -0.6144
  820MOL0     C13064   6.659   1.889   3.535 -0.1684  0.2224  0.7299
  820MOL0     C13065   6.698   1.780   3.632 -1.2024 -0.1052  0.3145
  820MOL0     C13066   6.844   1.744   3.621  0.9964 -1.2306 -0.5383
  820MOL0    Cl13067   6.946   1.876   3.674 -0.1389  0.1685 -0.1389
  820MOL0     C13068   5.862   1.946   3.325  1.1389  0.4268 -1.0306
  820MOL0     C13069   5.727   1.934   3.298 -0.0599 -0.6890 -0.1975
  820MOL0     O13070   5.454   2.034   3.515 -0.2071  0.3699  0.7607
  820MOL0     C13071   5.263   1.912   3.251 -0.5309  0.2942 -0.0529
  820MOL0     C13072   5.140   1.865   3.214  0.2739  0.7868 -0.1617
  820MOL0     N13073   4.182   1.859   3.360 -0.2631  0.0949 -0.3331
  820MOL0     N13074   4.108   1.843   3.467  0.0188 -0.0164 -0.3097
  820MOL0     C13075   3.212   1.689   4.220  1.5428 -0.8570  0.0301
  820MOL0     C13076   3.083   1.745   4.262  0.0959  0.1487 -0.4270
  820MOL0     C13077   2.721   2.008   4.356  0.4929 -0.2936 -0.6446
  820MOL0     C13078   2.755   2.152   4.356 -0.2356 -0.4103 -0.0376
  820MOL0     C13079   2.654   2.254   4.355  0.9914 -0.5794 -0.7942
  820MOL0     C13080   2.524   2.223   4.369  0.3898  0.2003 -0.8013
  820MOL0     O13081   2.412   2.303   4.361 -0.5611  0.2489 -0.2089
  820MOL0     C13082   2.424   2.447   4.364 -0.6498 -0.3551  0.4009
  820MOL0     C13083   2.408   2.505   4.225 -0.1624  0.0557  0.4222
  820MOL0     C13084   2.276   2.488   4.156 -0.4742  0.4268  0.2451
  820MOL0     C13085   2.164   2.536   4.240  0.0765  0.0704  0.4262
  820MOL0     C13086   2.059   2.590   4.160  0.1702  0.7177  0.8416
  820MOL0     C13087   1.951   2.614   4.107  0.0904 -0.1543  0.0274
  820MOL0     C13088   2.493   2.088   4.388 -0.3046  0.1597 -0.1864
  820MOL0     C13089   2.586   1.979   4.388 -0.4258  0.0261  0.1270
  820MOL0     C13090   2.540   1.842   4.415  0.0018  0.1965 -0.9541
  820MOL0     H13091   3.139   2.044   4.113 -0.8431  0.1403  0.4009
  820MOL0     H13092   3.352   1.947   4.059  1.8787 -0.7642  1.3851
  820MOL0     H13093   3.431   1.546   4.060  0.1263  0.2233  0.1132
  820MOL0     H13094   3.455   1.544   4.231  3.0444 -1.5153 -0.6706
  820MOL0     H13095   3.682   1.628   4.223  0.3782 -2.4671  0.0839
  820MOL0     H13096   3.660   1.482   4.129  1.1195 -0.5581  1.4340
  820MOL0     H13097   3.677   1.618   3.918  0.7006 -1.1629  0.1456
  820MOL0     H13098   3.676   1.767   4.007 -0.2182  0.0732  0.8730
  820MOL0     H13099   3.895   1.692   4.111 -0.2953  0.3267 -0.4386
  820MOL0     H13100   3.874   1.533   4.048 -1.9343 -0.0116  1.0389
  820MOL0     H13101   3.862   1.758   3.845 -3.3270 -2.3894  0.4153
  820MOL0     H13102   3.919   1.589   3.825  0.1442  1.0771 -0.9817
  820MOL0     H13103   4.084   1.794   4.000 -3.0857  1.6707 -0.8930
  820MOL0     H13104   4.128   1.634   3.950  0.9005  0.4031  0.6257
  820MOL0     H13105   4.260   1.776   3.815 -0.2122  2.5273  1.9268
  820MOL0     H13106   4.126   1.888   3.800 -1.2809  0.1306  0.0135
  820MOL0     H13107   4.145   1.601   3.682  0.5990 -0.6154 -2.4341
  820MOL0     H13108   4.003   1.715   3.653  1.3256  3.3839 -1.6262
  820MOL0     H13109   4.375   1.693   3.570  0.9563  0.1901  1.9996
  820MOL0     H13110   4.383   1.831   3.186 -2.1297  0.2162  0.9716
  820MOL0     H13111   4.442   1.683   3.260 -0.5821  0.8931 -3.1762
  820MOL0     H13112   4.523   1.974   3.313  1.8024 -0.1866 -1.0954
  820MOL0     H13113   4.543   1.854   3.443  1.2243 -0.7619 -0.4493
  820MOL0     H13114   4.653   1.703   3.278 -0.4806 -0.6635 -0.9635
  820MOL0     H13115   4.661   1.850   3.165 -0.4245 -0.2393 -0.3346
  820MOL0     H13116   4.799   1.970   3.354  2.3128  0.7807 -4.6824
  820MOL0     H13117   4.787   1.813   3.438 -2.7886 -0.0008 -0.3886
  820MOL0     H13118   4.962   1.943   3.483 -0.6326 -1.5013 -1.2456
  820MOL0     H13119   5.261   2.159   3.579  0.5410 -1.6131 -0.2442
  820MOL0     H13120   5.207   2.014   3.667 -2.1697  0.4716  1.5682
  820MOL0     H13121   5.088   2.136   3.597 -0.5788 -1.5960  2.6239
  820MOL0     H13122   5.628   2.226   3.435  2.7682  2.0733  0.5190
  820MOL0     H13123   5.861   2.256   3.477 -1.8859 -0.0526  0.9007
  820MOL0     H13124   6.079   2.275   3.420  2.2397  1.2482  1.0458
  820MOL0     H13125   6.074   2.181   3.565 -1.1107  1.8260 -0.2560
  820MOL0     H13126   6.264   2.180   3.340 -2.1005 -0.0217 -0.4744
  820MOL0     H13127   6.301   2.229   3.513 -1.6165  0.9697 -0.2340
  820MOL0     H13128   6.250   1.944   3.420 -0.1089  2.5791 -3.1281
  820MOL0     H13129   6.290   2.002   3.588  3.0883  1.2462  1.0409
  820MOL0     H13130   6.521   2.075   3.439  0.8226 -0.5055  0.8114
  820MOL0     H13131   6.444   1.954   3.330  1.8819 -0.1351  0.1537
  820MOL0     H13132   6.477   1.930   3.641 -2.1530 -0.0002 -1.0711
  820MOL0     H13133   6.453   1.798   3.522 -1.3359  0.4375 -0.4460
  820MOL0     H13134   6.696   1.986   3.571 -1.4862  0.2815  2.0296
  820MOL0     H13135   6.698   1.864   3.436 -0.0583 -0.4110  0.9327
  820MOL0     H13136   6.649   1.687   3.602  1.0805 -1.6880  1.2438
  820MOL0     H13137   6.671   1.797   3.737  0.7440  1.9377  0.5624
  820MOL0     H13138   6.861   1.723   3.515  0.9224 -0.1333 -0.7791
  820MOL0     H13139   6.870   1.652   3.676  3.7258  0.8340  1.9370
  820MOL0     H13140   5.933   1.869   3.295 -0.2032 -2.4095  2.3810
  820MOL0     H13141   5.688   1.851   3.240  1.4980 -1.2418 -0.4807
  820MOL0     H13142   5.350   1.897   3.189 -2.2879 -1.4716 -2.2919
  820MOL0     H13143   5.126   1.821   3.116 -2.0432 -2.7657  1.5607
  820MOL0     H13144   3.233   1.591   4.261 -1.6180 -0.7092  2.3869
  820MOL0     H13145   3.019   1.690   4.330 -0.5458  0.7079 -0.5652
  820MOL0     H13146   2.858   2.181   4.341 -1.1781  1.6208 -4.0298
  820MOL0     H13147   2.684   2.358   4.358  0.5569 -0.4649  1.7401
  820MOL0     H13148   2.350   2.492   4.432  0.3479  0.6477  0.8501
  820MOL0     H13149   2.524   2.474   4.397 -0.9018  1.1076  0.0723
  820MOL0     H13150   2.486   2.454   4.169 -0.6174 -2.5051  1.9241
  820MOL0     H13151   2.430   2.612   4.227  1.5709 -0.2266 -1.2217
  820MOL0     H13152   2.286   2.547   4.064 -1.2676 -0.5381 -0.4925
  820MOL0     H13153   2.263   2.381   4.135 -0.0341  0.1825  1.1838
  820MOL0     H13154   2.197   2.621   4.300  1.6901  0.5990 -1.1124
  820MOL0     H13155   2.133   2.453   4.304 -1.5939  2.5885  3.0852
  820MOL0     H13156   1.861   2.646   4.058  0.0586 -0.9627 -0.4597
  820MOL0     H13157   2.392   2.048   4.387 -0.2012 -0.5104 -4.4763
  820MOL0     H13158   2.434   1.840   4.443  0.5871 -0.7062  1.4825
  820MOL0     H13159   2.560   1.775   4.331  0.7290 -0.3413 -0.3704
  820MOL0     H13160   2.590   1.786   4.495 -0.8980  0.5219 -0.1410
  821MOL0     O13161  10.760   9.595   9.298 -0.0090 -0.8467  0.5083
  821MOL0     C13162  10.705   9.486   9.296 -0.4510 -0.2533  0.3904
  821MOL0     O13163  10.705   9.388   9.390  0.2003 -0.2752  0.1576
  821MOL0     C13164  10.795   9.409   9.501  0.1653  0.0571  0.6815
  821MOL0     C13165  10.917   9.473   9.491  0.1834  1.0512  0.1116
  821MOL0     C13166  11.005   9.481   9.606 -0.8290 -0.6415  0.7406
  821MOL0     C13167  10.974   9.430   9.725  0.8790 -0.7752 -0.9930
  821MOL0     O13168  11.046   9.454   9.840  0.6322 -0.0097 -0.0738
  821MOL0     C13169  11.178   9.498   9.829 -0.2742 -0.8144  0.5510
  821MOL0     C13170  11.178   9.649   9.814 -0.3113 -1.0293 -0.2833
  821MOL0     C13171  11.313   9.726   9.779 -0.6395 -0.5262  0.2946
  821MOL0     C13172  11.274   9.880   9.781 -0.2020  0.5873 -0.7750
  821MOL0     C13173  11.397   9.960   9.742 -0.0733 -0.1026  0.0664
  821MOL0     C13174  11.504   9.955   9.857  0.4860 -0.2356  0.0287
  821MOL0     C13175  11.619  10.042   9.819 -0.1348  0.4585  0.6882
  821MOL0     C13176  11.727  10.048   9.939  0.0756  0.3849  0.2186
  821MOL0     N13177  11.848  10.125   9.889  0.5584  0.2738  0.3076
  821MOL0     C13178  11.888  10.245   9.929  0.3019  0.7027 -0.9152
  821MOL0     C13179  11.993  10.277   9.848 -0.0927  0.4852 -0.4378
  821MOL0     C13180  12.084  10.398   9.866  0.0469  0.1483 -0.1367
  821MOL0     C13181  12.229  10.366   9.867  0.0039 -0.4132 -0.4209
  821MOL0     C13182  12.249  10.235   9.946 -0.5217  0.2144  0.4196
  821MOL0     C13183  12.393  10.198   9.963  0.3896  0.3796  0.1844
  821MOL0     O13184  12.444  10.292  10.053  0.3036 -0.6650  0.6084
  821MOL0     C13185  12.578  10.314  10.044 -0.7135 -0.2633  0.2964
  821MOL0     C13186  12.674  10.242  10.112 -0.5027 -0.1936  0.3801
  821MOL0     C13187  12.815  10.254  10.092  0.1466 -0.0842 -0.2051
  821MOL0     C13188  12.911  10.177  10.189 -0.9208 -0.1971  0.6282
  821MOL0     C13189  12.857  10.342   9.986  0.2137 -1.2644  0.5620
  821MOL0     C13190  12.997  10.357   9.934 -0.5096  0.4984 -0.7187
  821MOL0     O13191  13.015  10.426   9.815 -0.1697  0.3336  0.5600
  821MOL0     C13192  13.132  10.419   9.749  0.1669 -0.3880 -0.2986
  821MOL0     C13193  13.166  10.541   9.684 -0.8141  0.6446  0.0388
  821MOL0     C13194  13.288  10.552   9.617 -0.6356  0.6985  0.0165
  821MOL0     C13195  13.385  10.446   9.610 -0.0828  0.0478 -0.0433
  821MOL0     O13196  13.502  10.470   9.546 -0.9083 -0.5982  0.2594
  821MOL0     C13197  13.590  10.358   9.523  0.3253 -0.9411  0.1882
  821MOL0     C13198  13.720  10.419   9.462  0.3897  0.6481 -0.3987
  821MOL0     C13199  13.799  10.316   9.391 -0.5625  0.2406 -0.3759
  821MOL0     C13200  13.925  10.377   9.333  0.1511 -0.8514 -0.1280
  821MOL0     C13201  14.013  10.272   9.268  0.4274 -0.2379 -0.0808
  821MOL0     C13202  14.148  10.330   9.225 -0.6533 -0.0089  0.7660
  821MOL0     C13203  14.223  10.267   9.105  0.3289  0.0901 -0.1700
  821MOL0     C13204  14.332  10.363   9.048  0.2237  0.2879 -0.5586
  821MOL0    Cl13205  14.448  10.409   9.170  0.2619 -0.1047  0.1950
  821MOL0     C13206  13.351  10.332   9.680 -0.1424  0.2686 -0.0284
  821MOL0     C13207  13.219  10.307   9.740  0.1537 -0.4504 -0.2251
  821MOL0     O13208  13.088  10.311  10.007  0.0540 -1.3050 -0.3666
  821MOL0     C13209  12.754  10.424   9.920 -1.6667 -0.2705 -0.4803
  821MOL0     C13210  12.624  10.398   9.947 -0.5047 -0.0590  0.8449
  821MOL0     N13211  12.006  10.186   9.747 -0.3608 -0.1478  0.0821
  821MOL0     N13212  11.922  10.084   9.780 -0.7122 -1.2113  0.3261
  821MOL0     C13213  10.849   9.355   9.738  0.2111 -0.7494  0.5600
  821MOL0     C13214  10.766   9.344   9.626  0.5347  0.2415  0.0091
  821MOL0     C13215  10.634   9.464   9.172  1.3005 -0.1254 -0.2806
  821MOL0     C13216  10.701   9.481   9.044 -0.1073 -0.1938  0.0573
  821MOL0     C13217  10.638   9.461   8.926 -0.3301  0.0027  0.3334
  821MOL0     C13218  10.507   9.420   8.927  0.2287 -0.2808  0.7754
  821MOL0     O13219  10.419   9.407   8.820 -0.1898  0.6126  0.1211
  821MOL0     C13220  10.454   9.429   8.683 -0.0021 -0.4048 -0.4291
  821MOL0     C13221  10.524   9.311   8.624 -0.0957 -0.5783 -0.2597
  821MOL0     C13222  10.468   9.171   8.652  0.0237  0.2425 -0.0191
  821MOL0     C13223  10.349   9.126   8.568  0.2931 -0.1337  0.1613
  821MOL0     C13224  10.219   9.175   8.620  0.2133  0.1801  0.8774
  821MOL0     C13225  10.109   9.209   8.666 -0.5693  0.6588  0.4698
  821MOL0     C13226  10.439   9.396   9.047  0.4049 -0.3576  0.3018
  821MOL0     C13227  10.501   9.428   9.172 -0.0739 -0.3257  0.3722
  821MOL0     C13228  10.420   9.426   9.301 -0.2677 -1.1917  0.1510
  821MOL0     H13229  10.953   9.516   9.398  1.8978  1.8323  1.0760
  821MOL0     H13230  11.096   9.539   9.596 -0.5897 -1.1082  0.1290
  821MOL0     H13231  11.237   9.456   9.747 -1.9037  1.8843 -2.2327
  821MOL0     H13232  11.232   9.477   9.921  1.2824 -3.5611 -0.8725
  821MOL0     H13233  11.099   9.687   9.749  0.2212 -0.4415 -0.5992
  821MOL0     H13234  11.143   9.687   9.910 -0.9163 -1.3673 -0.3635
  821MOL0     H13235  11.384   9.705   9.859  0.4624  0.4761 -0.3883
  821MOL0     H13236  11.349   9.696   9.680  1.4132 -0.5023  0.9884
  821MOL0     H13237  11.200   9.896   9.702  0.4865  1.8751 -1.1766
  821MOL0     H13238  11.226   9.897   9.878 -0.2095  1.4537 -0.9241
  821MOL0     H13239  11.362  10.060   9.718 -0.4097 -0.9942 -3.8600
  821MOL0     H13240  11.436   9.936   9.643  0.5508  0.9781  0.0380
  821MOL0     H13241  11.462   9.978   9.955 -0.4003 -0.4736 -0.2893
  821MOL0     H13242  11.545   9.854   9.864 -2.0562 -1.2845  1.0415
  821MOL0     H13243  11.584  10.146   9.808 -2.8450 -0.6483 -3.2476
  821MOL0     H13244  11.664   9.998   9.730 -1.0965  2.5893 -0.9625
  821MOL0     H13245  11.680  10.078  10.033 -1.1918  4.1339 -1.4287
  821MOL0     H13246  11.763   9.945   9.950  0.1480  0.3427 -0.3630
  821MOL0     H13247  11.856  10.298  10.019  0.1385  0.0934 -0.6070
  821MOL0     H13248  12.048  10.440   9.960  2.1375  3.4664 -0.6778
  821MOL0     H13249  12.073  10.461   9.778  3.2605 -2.7210 -2.8459
  821MOL0     H13250  12.280  10.344   9.773  0.0037 -0.2999 -0.4478
  821MOL0     H13251  12.281  10.446   9.920  1.3601 -2.2283  1.1547
  821MOL0     H13252  12.203  10.246  10.045 -0.2613 -3.3665  1.0651
  821MOL0     H13253  12.201  10.153   9.892 -1.6575  1.0674  0.1086
  821MOL0     H13254  12.397  10.099  10.010  2.2070  0.0158 -0.6267
  821MOL0     H13255  12.449  10.190   9.869 -2.2878  1.4358 -1.6037
  821MOL0     H13256  12.641  10.182  10.196 -0.2149 -2.8793 -1.2980
  821MOL0     H13257  12.992  10.122  10.140  0.2327  3.7657 -2.4471
  821MOL0     H13258  12.872  10.104  10.261  1.2126 -1.7924  0.2988
  821MOL0     H13259  12.948  10.256  10.255 -1.3129  0.7320 -0.2355
  821MOL0     H13260  13.100  10.626   9.700  1.3258  1.9795  2.8177
  821MOL0     H13261  13.317  10.646   9.572 -0.6637  1.0480  0.7161
  821MOL0     H13262  13.613  10.301   9.614 -0.1905 -1.0655  0.2445
  821MOL0     H13263  13.544  10.295   9.446  1.5635  0.2395 -1.5978
  821MOL0     H13264  13.688  10.493   9.387 -0.3160 -1.8272 -2.7073
  821MOL0     H13265  13.773  10.471   9.543 -0.5358  0.0049  0.6404
  821MOL0     H13266  13.733  10.266   9.320  1.3340 -2.8626 -0.1527
  821MOL0     H13267  13.836  10.236   9.457 -0.6279  0.5131 -0.0032
  821MOL0     H13268  13.970  10.435   9.414 -0.6051  1.0411 -1.0015
  821MOL0     H13269  13.892  10.439   9.249  0.0597 -1.8469 -0.8386
  821MOL0     H13270  14.018  10.187   9.337  1.0758  0.7533  1.1206
  821MOL0     H13271  13.958  10.237   9.180  0.2643 -2.5456  0.8782
  821MOL0     H13272  14.204  10.327   9.319  0.8402 -1.2859 -0.1303
  821MOL0     H13273  14.139  10.436   9.198 -1.9666 -0.4496 -0.6578
  821MOL0     H13274  14.155  10.256   9.020 -1.9559  0.1727  1.5288
  821MOL0     H13275  14.256  10.169   9.142  0.0728  0.6430  1.6482
  821MOL0     H13276  14.298  10.450   8.992  1.1439  1.7222  1.0438
  821MOL0     H13277  14.377  10.302   8.969 -0.0214  0.9038 -1.1736
  821MOL0     H13278  13.404  10.238   9.666  0.0764  0.8981 -5.4303
  821MOL0     H13279  13.179  10.214   9.780 -0.0830  0.0471  0.7318
  821MOL0     H13280  12.778  10.502   9.849 -2.7277  1.5419  1.0578
  821MOL0     H13281  12.548  10.447   9.886  0.3745  2.6063  1.7627
  821MOL0     H13282  10.829   9.297   9.828 -1.1177  0.1306  0.8520
  821MOL0     H13283  10.672   9.290   9.628 -0.4612  1.8538  2.6117
  821MOL0     H13284  10.799   9.526   9.034  1.0336 -2.8870 -2.1354
  821MOL0     H13285  10.695   9.483   8.836 -1.3953  1.2982 -0.0740
  821MOL0     H13286  10.362   9.455   8.631  0.2592 -1.1729 -1.3009
  821MOL0     H13287  10.527   9.509   8.671 -1.0483  0.8725  1.2632
  821MOL0     H13288  10.630   9.303   8.651 -0.1077 -1.0137 -0.3327
  821MOL0     H13289  10.522   9.334   8.517  3.2199 -0.6312 -0.4514
  821MOL0     H13290  10.545   9.099   8.624  1.1076  1.6255 -0.6826
  821MOL0     H13291  10.438   9.164   8.758 -1.6676  0.8469 -0.4213
  821MOL0     H13292  10.335   9.017   8.576  0.4484 -0.1397  0.3579
  821MOL0     H13293  10.363   9.155   8.463  2.1282  0.8812  0.6402
  821MOL0     H13294  10.011   9.234   8.702 -2.0460 -0.2050 -2.5910
  821MOL0     H13295  10.331   9.385   9.048  0.1864  1.0624  3.1538
  821MOL0     H13296  10.316   9.440   9.272  0.3879  0.4195 -1.6844
  821MOL0     H13297  10.433   9.334   9.360 -1.9705 -2.8961 -1.9491
  821MOL0     H13298  10.464   9.508   9.358  0.4004 -1.3443 -0.1305
  822MOL0     O13299  10.589   8.789  10.350 -0.2544  0.0092  0.1597
  822MOL0     C13300  10.557   8.830  10.235 -0.0194 -0.1859  0.5755
  822MOL0     O13301  10.642   8.907  10.150  0.3441 -0.0445 -0.5230
  822MOL0     C13302  10.744   8.964  10.219 -0.2656 -1.3676 -0.0475
  822MOL0     C13303  10.726   9.021  10.351 -0.2232  0.3000  0.0476
  822MOL0     C13304  10.825   9.081  10.428 -0.0824  0.0976  0.5352
  822MOL0     C13305  10.952   9.071  10.379  0.0095  0.4932  0.6446
  822MOL0     O13306  11.053   9.133  10.456  0.4801 -0.6889  0.6004
  822MOL0     C13307  11.178   9.062  10.463  0.2073  0.9155 -0.4320
  822MOL0     C13308  11.186   8.938  10.550  0.9943  0.3567 -0.1317
  822MOL0     C13309  11.324   8.880  10.561 -0.1109  0.3553  0.0975
  822MOL0     C13310  11.337   8.741  10.611  0.1928  0.3682  0.4334
  822MOL0     C13311  11.478   8.691  10.650  0.4357 -0.1742 -0.3557
  822MOL0     C13312  11.576   8.687  10.531  0.0803  0.2068 -0.0725
  822MOL0     C13313  11.707   8.613  10.557 -0.0021 -0.1102 -0.0084
  822MOL0     C13314  11.679   8.458  10.551  0.4649 -0.1553 -0.6987
  822MOL0     N13315  11.802   8.392  10.583 -0.3031 -0.4631 -0.0280
  822MOL0     C13316  11.822   8.272  10.640  0.5335 -0.1312  0.2614
  822MOL0     C13317  11.959   8.248  10.634  0.9682  0.4647 -0.0190
  822MOL0     C13318  12.032   8.138  10.692 -0.2331  0.1546 -0.6261
  822MOL0     C13319  12.087   8.160  10.841  0.9785 -0.1388 -0.6838
  822MOL0     C13320  12.202   8.248  10.848 -0.1669 -0.2728  0.8125
  822MOL0     C13321  12.251   8.270  10.990 -0.3120 -0.0131 -0.1325
  822MOL0     O13322  12.279   8.155  11.071 -0.2061 -0.0802  0.2548
  822MOL0     C13323  12.359   8.175  11.181 -0.2466 -0.3150 -0.0084
  822MOL0     C13324  12.372   8.293  11.248  0.0597 -0.5161 -1.1030
  822MOL0     C13325  12.458   8.306  11.365  0.4415 -0.5530  0.1633
  822MOL0     C13326  12.464   8.441  11.437  0.1040 -0.0601  0.0476
  822MOL0     C13327  12.520   8.189  11.412  0.1335 -0.3314  0.7387
  822MOL0     C13328  12.604   8.184  11.529 -0.3168 -0.1135  0.2815
  822MOL0     O13329  12.606   8.062  11.596 -0.9292 -0.5424 -0.8353
  822MOL0     C13330  12.669   8.063  11.721  0.3202 -0.2144  0.2799
  822MOL0     C13331  12.603   8.061  11.840 -0.5624  0.6166 -1.1910
  822MOL0     C13332  12.678   8.055  11.962 -0.2819  0.4337  0.6375
  822MOL0     C13333  12.815   8.028  11.953 -0.1301 -0.2158  0.0058
  822MOL0     O13334  12.871   7.979  12.071  0.3044  0.0426  1.0148
  822MOL0     C13335  13.014   8.010  12.085  0.6844  0.0475  0.5017
  822MOL0     C13336  13.080   7.947  12.208  0.0686  0.1972  1.1258
  822MOL0     C13337  13.227   7.991  12.240  0.1041 -0.1201  0.3108
  822MOL0     C13338  13.330   7.966  12.127  0.8665  0.4427  0.6706
  822MOL0     C13339  13.442   8.070  12.131 -0.8170 -0.2948 -0.5127
  822MOL0     C13340  13.529   8.054  12.255  0.0478  0.2240  0.4001
  822MOL0     C13341  13.647   8.154  12.240  0.3466  0.4011 -0.3710
  822MOL0     C13342  13.776   8.095  12.295 -0.3410 -0.0894  0.7107
  822MOL0    Cl13343  13.889   8.224  12.277 -0.4342 -0.2079 -0.0521
  822MOL0     C13344  12.874   8.005  11.828 -0.4146  0.5089 -0.4254
  822MOL0     C13345  12.805   8.026  11.711  1.2302 -0.2808  0.1264
  822MOL0     O13346  12.681   8.272  11.542 -0.4290  0.4223  0.0394
  822MOL0     C13347  12.494   8.067  11.338 -0.3034 -0.2355 -0.4535
  822MOL0     C13348  12.413   8.061  11.229 -0.8682  0.1240 -0.3059
  822MOL0     N13349  12.016   8.359  10.567 -0.7045  0.0432 -0.3964
  822MOL0     N13350  11.919   8.440  10.540  0.3473 -0.2481 -0.2832
  822MOL0     C13351  10.974   9.029  10.245 -1.0595  0.1880  0.4079
  822MOL0     C13352  10.869   8.982  10.166 -0.1336 -0.0733 -0.5970
  822MOL0     C13353  10.424   8.808  10.175  0.3985 -0.1640 -0.3831
  822MOL0     C13354  10.417   8.807  10.032 -0.5139  0.0777  0.1213
  822MOL0     C13355  10.296   8.783   9.964  0.4793  0.5052  0.0833
  822MOL0     C13356  10.181   8.744  10.034 -0.8300 -0.0149  0.3855
  822MOL0     O13357  10.067   8.702   9.970  0.1692 -0.4472 -0.0570
  822MOL0     C13358  10.062   8.684   9.829  0.4715 -0.2977 -0.1788
  822MOL0     C13359   9.928   8.623   9.790  0.0553  0.2744 -0.7423
  822MOL0     C13360   9.907   8.598   9.644 -0.1594  0.5805  0.8550
  822MOL0     C13361   9.770   8.522   9.621  0.3685 -0.0565  0.3086
  822MOL0     C13362   9.651   8.606   9.629 -0.4719  0.1571  0.5029
  822MOL0     C13363   9.562   8.688   9.629  0.8350 -0.3509 -0.0696
  822MOL0     C13364  10.183   8.750  10.176 -0.3904  0.1751 -0.2934
  822MOL0     C13365  10.304   8.789  10.248  0.3757  1.1807 -0.0362
  822MOL0     C13366  10.302   8.782  10.403 -0.3421  0.5212 -0.0378
  822MOL0     H13367  10.624   9.015  10.388 -0.1849 -0.2079  0.0762
  822MOL0     H13368  10.804   9.138  10.518 -2.9895  0.5586 -0.3509
  822MOL0     H13369  11.250   9.128  10.510 -1.6677  1.3215  2.0707
  822MOL0     H13370  11.222   9.043  10.364  1.8978 -2.7799  0.8596
  822MOL0     H13371  11.167   8.965  10.654  2.0486 -3.6080  1.2876
  822MOL0     H13372  11.121   8.856  10.519  2.2392 -0.4700 -0.6433
  822MOL0     H13373  11.374   8.892  10.464  1.5672  1.7191  1.0606
  822MOL0     H13374  11.375   8.942  10.635 -0.6666 -1.6966  2.3134
  822MOL0     H13375  11.285   8.731  10.707 -0.6912  3.3770  0.3450
  822MOL0     H13376  11.295   8.684  10.528 -1.5261  3.9038 -1.3307
  822MOL0     H13377  11.475   8.592  10.697 -1.5849 -0.1681 -0.3773
  822MOL0     H13378  11.512   8.758  10.730  0.3754 -2.9632  2.2201
  822MOL0     H13379  11.528   8.645  10.443 -1.8373  1.7788  0.1715
  822MOL0     H13380  11.595   8.791  10.505  0.3155  0.3892  0.8024
  822MOL0     H13381  11.756   8.641  10.650  1.1047 -3.0305  0.3870
  822MOL0     H13382  11.780   8.639  10.480  1.4724 -0.3067  1.2915
  822MOL0     H13383  11.597   8.438  10.621  0.6362  2.7682  0.4847
  822MOL0     H13384  11.648   8.424  10.452 -0.4176  1.8208 -1.1404
  822MOL0     H13385  11.749   8.204  10.681 -1.7301 -0.0677 -3.2291
  822MOL0     H13386  12.119   8.121  10.628  0.7353  4.3602 -0.7272
  822MOL0     H13387  11.960   8.057  10.705  0.1785 -0.1960 -0.5205
  822MOL0     H13388  12.006   8.197  10.904  0.1825 -1.4043 -0.9312
  822MOL0     H13389  12.116   8.061  10.879 -0.0469 -0.4743 -0.7524
  822MOL0     H13390  12.280   8.208  10.783 -0.9391 -0.3366 -0.1003
  822MOL0     H13391  12.178   8.350  10.817 -1.1976 -0.4660  0.9462
  822MOL0     H13392  12.345   8.325  10.982 -1.1126  1.5440  0.7204
  822MOL0     H13393  12.179   8.336  11.039 -0.1620  1.5580 -1.9443
  822MOL0     H13394  12.298   8.367  11.222 -0.4213 -0.0187  1.4542
  822MOL0     H13395  12.407   8.517  11.382  1.2559  0.4736 -0.4496
  822MOL0     H13396  12.569   8.468  11.450  0.0147  0.5576 -0.4786
  822MOL0     H13397  12.414   8.424  11.532 -0.5967 -1.5772 -0.5478
  822MOL0     H13398  12.496   8.068  11.857  0.0395  0.3393  4.4763
  822MOL0     H13399  12.635   8.056  12.061 -0.2498  2.5331  0.6664
  822MOL0     H13400  13.068   7.972  11.998 -2.3512  0.2338 -1.6108
  822MOL0     H13401  13.025   8.118  12.102 -1.1216  0.5750 -1.3151
  822MOL0     H13402  13.025   7.975  12.298 -0.9793  1.4406  0.1395
  822MOL0     H13403  13.071   7.838  12.210  1.9260 -0.0147  0.2655
  822MOL0     H13404  13.257   7.943  12.334 -0.4922  2.5545  1.9813
  822MOL0     H13405  13.232   8.098  12.263 -0.6270  0.1917 -0.8954
  822MOL0     H13406  13.276   7.968  12.032  0.1115  1.1536  1.1041
  822MOL0     H13407  13.360   7.861  12.130  0.2533  0.2177 -0.5651
  822MOL0     H13408  13.499   8.076  12.037  0.8598 -0.8258  0.4150
  822MOL0     H13409  13.399   8.170  12.139  0.2260  0.0500  1.3016
  822MOL0     H13410  13.567   7.951  12.260  0.5736  0.4681  2.2491
  822MOL0     H13411  13.482   8.069  12.352  0.9011 -0.5207  0.9463
  822MOL0     H13412  13.617   8.235  12.307  1.7351 -0.9354  2.0143
  822MOL0     H13413  13.656   8.191  12.138 -2.9190  0.5764 -0.6729
  822MOL0     H13414  13.809   8.014  12.230 -0.2176  2.8987 -3.3463
  822MOL0     H13415  13.760   8.064  12.399 -3.3843 -2.0290 -0.2149
  822MOL0     H13416  12.971   7.956  11.831 -0.4359  0.4622 -0.5369
  822MOL0     H13417  12.871   8.002  11.629  0.1113  0.0284 -0.8812
  822MOL0     H13418  12.526   7.967  11.368 -2.4522 -0.7236  0.4246
  822MOL0     H13419  12.394   7.967  11.178  0.9870  0.4624 -1.7508
  822MOL0     H13420  11.068   9.048  10.194 -1.4022  0.1260 -0.2573
  822MOL0     H13421  10.877   8.950  10.063  0.5475 -4.5059  0.6167
  822MOL0     H13422  10.512   8.814   9.982 -0.0282  1.0536  1.1411
  822MOL0     H13423  10.299   8.773   9.856  0.3609 -0.3353  0.1491
  822MOL0     H13424  10.078   8.779   9.777 -2.1446  0.7757  0.7580
  822MOL0     H13425  10.142   8.614   9.804  0.5820 -1.5646  3.2519
  822MOL0     H13426   9.853   8.690   9.834  0.9871  2.7552 -2.7179
  822MOL0     H13427   9.922   8.523   9.834 -4.0639  0.5919 -0.1535
  822MOL0     H13428   9.908   8.694   9.591 -1.4230 -0.9171 -2.1752
  822MOL0     H13429   9.996   8.542   9.611 -1.7063 -0.4821 -1.8736
  822MOL0     H13430   9.759   8.436   9.688 -1.2295 -0.0578  0.0919
  822MOL0     H13431   9.768   8.487   9.517  1.8322  2.3042 -0.6092
  822MOL0     H13432   9.486   8.762   9.633  0.2286 -1.0228  1.3657
  822MOL0     H13433  10.093   8.715  10.224  0.0133  1.1466  1.2202
  822MOL0     H13434  10.196   8.775  10.431 -0.6083  3.8064  0.1271
  822MOL0     H13435  10.355   8.691  10.434  1.8031  2.0686  1.1438
  822MOL0     H13436  10.343   8.872  10.449  1.1064 -0.1925  0.1297
  823MOL0     O13437   1.150   3.040   7.194 -0.3838 -0.1193 -0.7017
  823MOL0     C13438   1.045   2.980   7.230  0.0787  0.0664  0.9251
  823MOL0     O13439   1.023   2.942   7.358  0.3835 -0.4238 -0.4778
  823MOL0     C13440   1.134   2.936   7.437 -0.1220 -0.5800 -0.2985
  823MOL0     C13441   1.182   3.040   7.517  0.6006 -0.0647  0.4500
  823MOL0     C13442   1.298   3.022   7.597 -0.4923 -0.3720 -0.6963
  823MOL0     C13443   1.361   2.892   7.600 -0.4400 -0.0108 -0.3686
  823MOL0     O13444   1.459   2.877   7.691  0.2609 -0.2972  0.0115
  823MOL0     C13445   1.480   2.749   7.756 -0.4078 -0.8013  0.0691
  823MOL0     C13446   1.552   2.757   7.887 -0.0382  0.3717 -0.2801
  823MOL0     C13447   1.705   2.807   7.870 -0.1107  0.0169 -0.4688
  823MOL0     C13448   1.790   2.688   7.824  0.0431 -0.0386  0.6148
  823MOL0     C13449   1.939   2.715   7.852 -0.0182 -0.4727 -0.0777
  823MOL0     C13450   2.005   2.826   7.761 -0.8961  0.8956 -0.9601
  823MOL0     C13451   2.149   2.832   7.804 -0.4284 -0.1258 -0.9096
  823MOL0     C13452   2.223   2.929   7.717 -0.1149  0.3891  0.1440
  823MOL0     N13453   2.363   2.960   7.752  0.4023 -0.0095 -0.2484
  823MOL0     C13454   2.416   3.034   7.851  0.4582  0.3341 -0.5194
  823MOL0     C13455   2.550   3.050   7.825 -0.2118  0.3446  0.2607
  823MOL0     C13456   2.642   3.147   7.893  0.2921 -0.0961  0.1944
  823MOL0     C13457   2.717   3.096   8.016 -0.8428 -0.2737  0.1236
  823MOL0     C13458   2.626   3.045   8.122  0.5501 -1.0293  0.0624
  823MOL0     C13459   2.711   2.969   8.227  0.7230  0.1005 -0.1774
  823MOL0     O13460   2.826   3.047   8.262  0.0704 -0.5725 -0.2234
  823MOL0     C13461   2.924   2.977   8.333 -0.4841  0.3590 -0.0491
  823MOL0     C13462   3.036   3.051   8.381 -0.2023 -0.2284  0.1467
  823MOL0     C13463   3.152   2.991   8.433  0.5161 -0.3351 -0.2937
  823MOL0     C13464   3.261   3.082   8.476 -0.1181  0.1881  0.3232
  823MOL0     C13465   3.153   2.851   8.448  0.5588 -0.3000 -0.5670
  823MOL0     C13466   3.261   2.773   8.523  0.6651 -0.2351  0.8972
  823MOL0     O13467   3.356   2.842   8.592 -0.2733 -0.0811 -0.9425
  823MOL0     C13468   3.477   2.776   8.620  1.3653  0.1321 -0.2220
  823MOL0     C13469   3.557   2.716   8.526 -0.3454 -0.2884  0.0405
  823MOL0     C13470   3.672   2.643   8.556 -1.0370 -0.3342 -0.0085
  823MOL0     C13471   3.718   2.625   8.693 -0.7573 -0.0139  0.5696
  823MOL0     O13472   3.822   2.535   8.727 -0.0162 -0.2466  0.4447
  823MOL0     C13473   3.864   2.502   8.859 -0.4669  0.5271 -0.2281
  823MOL0     C13474   3.968   2.391   8.875 -0.0778  0.4173 -0.6640
  823MOL0     C13475   4.083   2.399   8.781 -0.3461  0.0870  0.0255
  823MOL0     C13476   4.166   2.525   8.789 -0.6016 -0.0328 -0.6651
  823MOL0     C13477   4.276   2.522   8.680 -0.0548 -0.1409 -0.4945
  823MOL0     C13478   4.369   2.648   8.694  0.0208  0.3506 -0.0714
  823MOL0     C13479   4.443   2.676   8.573 -0.1757  0.7442 -0.2239
  823MOL0     C13480   4.556   2.776   8.589  0.1406  0.3295 -0.1057
  823MOL0    Cl13481   4.506   2.929   8.636  0.1159 -0.0391 -0.5232
  823MOL0     C13482   3.630   2.681   8.785 -1.0272 -0.3522  0.5332
  823MOL0     C13483   3.517   2.756   8.752  0.0089  0.0504  0.0559
  823MOL0     O13484   3.258   2.656   8.502  0.5076  0.3575 -0.4095
  823MOL0     C13485   3.036   2.778   8.406  0.5920 -0.1215  0.2132
  823MOL0     C13486   2.925   2.838   8.351  0.6098 -0.2401 -0.1815
  823MOL0     N13487   2.574   2.983   7.711 -0.3066 -0.9198  0.0868
  823MOL0     N13488   2.467   2.941   7.666 -0.6882 -0.7040  0.1652
  823MOL0     C13489   1.309   2.792   7.524  0.0184  0.0430  0.3500
  823MOL0     C13490   1.193   2.807   7.449  0.2890  0.4543 -0.1287
  823MOL0     C13491   0.935   2.952   7.133  0.2162  1.1686 -0.6316
  823MOL0     C13492   0.825   2.880   7.189 -0.3831 -0.0415  0.2635
  823MOL0     C13493   0.720   2.841   7.109  0.9775  0.0767 -0.1396
  823MOL0     C13494   0.716   2.860   6.977 -0.8017 -0.2975  0.4231
  823MOL0     O13495   0.600   2.814   6.911  0.7995  0.0808 -0.4515
  823MOL0     C13496   0.559   2.872   6.784  0.4160 -0.2885 -0.8001
  823MOL0     C13497   0.469   2.987   6.815  0.3384 -0.3607 -0.2102
  823MOL0     C13498   0.328   2.937   6.859 -0.5494 -0.1940 -0.5993
  823MOL0     C13499   0.243   3.044   6.927 -0.6890  0.3548  0.6645
  823MOL0     C13500   0.122   2.979   6.986  0.2746 -0.1581 -1.1382
  823MOL0     C13501   0.027   2.917   7.036  0.1122 -0.0853 -0.0134
  823MOL0     C13502   0.823   2.933   6.921  0.2723 -0.0364  0.1479
  823MOL0     C13503   0.930   2.988   6.998  1.3497 -0.0001  0.2477
  823MOL0     C13504   1.032   3.071   6.930 -0.7093  0.1005  0.2444
  823MOL0     H13505   1.125   3.132   7.520 -0.7171 -0.8237 -0.4135
  823MOL0     H13506   1.330   3.106   7.658  0.6675 -0.2617 -1.4365
  823MOL0     H13507   1.542   2.694   7.685 -1.4992 -0.9899 -0.7762
  823MOL0     H13508   1.386   2.694   7.766 -0.4033 -0.8155  0.0325
  823MOL0     H13509   1.502   2.827   7.954 -0.8527 -1.9579  1.6898
  823MOL0     H13510   1.538   2.657   7.929  0.9430  0.6673  0.7824
  823MOL0     H13511   1.713   2.874   7.784 -2.3318  1.0652  0.0592
  823MOL0     H13512   1.730   2.858   7.963 -0.1813 -0.1493 -0.3569
  823MOL0     H13513   1.766   2.596   7.879 -4.3582  0.7938  0.4544
  823MOL0     H13514   1.774   2.670   7.717 -0.4156 -3.6605  1.1634
  823MOL0     H13515   1.996   2.622   7.839  0.0491 -0.4599  0.1214
  823MOL0     H13516   1.935   2.744   7.958 -0.6614 -1.9053  0.3190
  823MOL0     H13517   2.010   2.795   7.656 -0.7676  0.2777 -0.7769
  823MOL0     H13518   1.954   2.922   7.768 -0.1605  1.5344 -3.5116
  823MOL0     H13519   2.192   2.733   7.783 -2.1157 -0.4993 -2.9662
  823MOL0     H13520   2.153   2.860   7.909  1.6650 -1.0255 -0.6993
  823MOL0     H13521   2.216   2.900   7.612  0.5655 -0.2013  0.2530
  823MOL0     H13522   2.161   3.017   7.734 -2.6160 -0.9497 -1.4154
  823MOL0     H13523   2.368   3.081   7.937 -2.3243  1.5665 -2.5655
  823MOL0     H13524   2.579   3.232   7.919 -0.2967 -0.3868 -0.2511
  823MOL0     H13525   2.718   3.181   7.822 -0.5797 -0.7801 -1.1109
  823MOL0     H13526   2.786   3.016   7.987 -0.4336  0.2106 -0.2797
  823MOL0     H13527   2.783   3.179   8.044 -4.3381  2.4214  1.0389
  823MOL0     H13528   2.584   3.134   8.170 -0.0038  0.4777 -2.9738
  823MOL0     H13529   2.545   2.983   8.085  0.5378 -1.1312  0.2583
  823MOL0     H13530   2.651   2.953   8.317  1.1715 -0.9790 -0.0468
  823MOL0     H13531   2.726   2.870   8.182 -0.1781  0.1152 -0.5450
  823MOL0     H13532   3.045   3.156   8.355  2.7425 -0.7177 -1.3176
  823MOL0     H13533   3.223   3.180   8.448 -0.9474 -0.2504 -0.1307
  823MOL0     H13534   3.363   3.058   8.444  0.5692  2.2021  0.8916
  823MOL0     H13535   3.260   3.076   8.586  0.5522  1.9102  0.4422
  823MOL0     H13536   3.522   2.717   8.424  1.4549  1.2913 -0.6259
  823MOL0     H13537   3.737   2.592   8.486  1.9015  0.9713  1.5727
  823MOL0     H13538   3.911   2.588   8.909 -3.3572  1.5170  0.9754
  823MOL0     H13539   3.775   2.479   8.917  1.1057 -1.9528  1.4023
  823MOL0     H13540   4.014   2.384   8.974  1.4459 -0.8590 -1.4068
  823MOL0     H13541   3.915   2.298   8.852  2.6330 -0.9374 -1.9429
  823MOL0     H13542   4.040   2.385   8.681  1.9370  1.0864 -1.1778
  823MOL0     H13543   4.149   2.316   8.806 -3.3263 -1.7193  2.5702
  823MOL0     H13544   4.207   2.530   8.890  0.2548  0.3180 -1.0222
  823MOL0     H13545   4.100   2.611   8.774  0.2967  0.8264  0.1403
  823MOL0     H13546   4.338   2.432   8.685 -1.3984 -1.0592  0.6197
  823MOL0     H13547   4.228   2.533   8.582  0.8127  3.7437 -0.6266
  823MOL0     H13548   4.438   2.637   8.778  1.1564 -1.0586 -1.1503
  823MOL0     H13549   4.304   2.732   8.721 -0.3517  0.8025 -2.2307
  823MOL0     H13550   4.383   2.715   8.491 -1.3352 -1.2700 -0.3885
  823MOL0     H13551   4.480   2.579   8.539  2.7027  1.8515 -0.5574
  823MOL0     H13552   4.600   2.782   8.489  0.4832 -2.0853 -0.1366
  823MOL0     H13553   4.634   2.747   8.659  0.4242  0.8654 -0.1925
  823MOL0     H13554   3.660   2.677   8.889  0.2615  0.0601  0.1930
  823MOL0     H13555   3.469   2.816   8.828  0.2901  3.0426 -1.9756
  823MOL0     H13556   3.016   2.673   8.425 -2.5513 -0.0091 -1.8916
  823MOL0     H13557   2.840   2.774   8.329  0.6788  0.0968 -1.5405
  823MOL0     H13558   1.359   2.695   7.528  0.1392  0.1360  1.4836
  823MOL0     H13559   1.150   2.732   7.383  1.3893 -0.4991  0.2189
  823MOL0     H13560   0.810   2.866   7.296  0.6227  1.7292  0.6655
  823MOL0     H13561   0.642   2.788   7.162 -0.6600 -1.6826 -3.9225
  823MOL0     H13562   0.645   2.904   6.724  1.4757 -0.0979  0.7426
  823MOL0     H13563   0.499   2.801   6.727  1.8412 -0.0113 -2.7565
  823MOL0     H13564   0.447   3.049   6.727 -2.9653  1.5931  1.8091
  823MOL0     H13565   0.507   3.055   6.892  1.9279 -0.2412 -1.0604
  823MOL0     H13566   0.280   2.925   6.762 -0.8077  0.7764 -0.6034
  823MOL0     H13567   0.320   2.836   6.899  0.2650 -0.1016 -0.1680
  823MOL0     H13568   0.220   3.126   6.859 -1.9664 -0.3969  0.1680
  823MOL0     H13569   0.297   3.091   7.010  0.0056  0.3099  0.2444
  823MOL0     H13570  -0.067   2.870   7.057 -1.5057  2.5255 -0.8506
  823MOL0     H13571   0.844   2.951   6.816 -1.0051  1.1928  0.0798
  823MOL0     H13572   1.035   3.174   6.964  1.4597 -0.3287  1.5493
  823MOL0     H13573   1.124   3.019   6.959 -0.1519  1.4866  1.0217
  823MOL0     H13574   1.025   3.080   6.821 -2.0740  1.9310  0.4374
  824MOL0     O13575   2.968   4.618   3.141  0.9744  0.0940  0.0620
  824MOL0     C13576   2.907   4.650   3.243  0.3140 -0.1710  0.4498
  824MOL0     O13577   2.961   4.618   3.366 -0.0798  0.3869  0.1525
  824MOL0     C13578   3.095   4.608   3.365 -0.1171 -0.3592 -0.4246
  824MOL0     C13579   3.174   4.496   3.333  0.1682 -0.1543  0.3391
  824MOL0     C13580   3.315   4.511   3.343  1.0607  0.6306  0.8045
  824MOL0     C13581   3.374   4.626   3.390 -0.5766 -0.1853 -0.2553
  824MOL0     O13582   3.508   4.615   3.397 -0.8881 -0.0731 -0.1827
  824MOL0     C13583   3.585   4.716   3.468  0.5138  0.0253  0.4757
  824MOL0     C13584   3.733   4.673   3.488  0.1983 -0.8489  0.1057
  824MOL0     C13585   3.804   4.780   3.575  0.0202  0.3124 -0.2583
  824MOL0     C13586   3.952   4.751   3.596 -0.7001  0.4510 -0.3122
  824MOL0     C13587   4.017   4.859   3.688  0.1090 -0.0681  0.2622
  824MOL0     C13588   4.165   4.847   3.712 -0.4392 -0.3493 -0.3287
  824MOL0     C13589   4.220   4.941   3.820  0.2562  0.0808 -0.0908
  824MOL0     C13590   4.249   5.082   3.777  0.0106 -0.9130 -0.1064
  824MOL0     N13591   4.320   5.159   3.886 -0.4357  0.3046 -0.4920
  824MOL0     C13592   4.450   5.198   3.896  0.0635  0.5344  1.3657
  824MOL0     C13593   4.468   5.249   4.014  0.0084  0.0559 -0.2529
  824MOL0     C13594   4.591   5.317   4.076  0.5782 -0.2712  0.3522
  824MOL0     C13595   4.579   5.467   4.079  1.3383 -0.3627  0.0651
  824MOL0     C13596   4.686   5.531   4.171  0.0961  0.3725 -0.2217
  824MOL0     C13597   4.678   5.685   4.166 -0.2973  0.1463 -0.3403
  824MOL0     O13598   4.719   5.727   4.034  0.3818  0.5257  0.6786
  824MOL0     C13599   4.854   5.740   4.000 -0.7326 -0.3853  0.3940
  824MOL0     C13600   4.878   5.792   3.874  0.1571  0.4987  0.3558
  824MOL0     C13601   5.004   5.813   3.813 -0.3565  0.4389 -1.3285
  824MOL0     C13602   5.014   5.869   3.680 -0.0951 -0.4540  0.1944
  824MOL0     C13603   5.116   5.781   3.895  0.5207  0.5900 -0.1055
  824MOL0     C13604   5.257   5.786   3.842 -0.3120  0.1743  0.3759
  824MOL0     O13605   5.282   5.759   3.708 -0.4007  0.1064 -0.1391
  824MOL0     C13606   5.395   5.803   3.647 -0.3037 -0.0830 -0.1341
  824MOL0     C13607   5.425   5.941   3.641 -0.0004 -0.8941 -1.0435
  824MOL0     C13608   5.547   5.983   3.583  0.3706  0.2682 -0.3301
  824MOL0     C13609   5.634   5.892   3.523 -0.7721  0.1186  1.3902
  824MOL0     O13610   5.749   5.940   3.456  0.0891 -0.8098 -0.1958
  824MOL0     C13611   5.866   5.888   3.507  0.3564  0.3381 -0.4276
  824MOL0     C13612   5.982   5.923   3.428 -0.8075 -0.4428  0.0608
  824MOL0     C13613   5.955   5.902   3.283 -0.1718 -0.4472  2.1588
  824MOL0     C13614   6.087   5.935   3.209  0.5455  0.4176  0.5445
  824MOL0     C13615   6.054   5.892   3.063  0.1499 -0.5420 -1.0109
  824MOL0     C13616   6.158   5.959   2.968  0.4440 -0.5248  0.1405
  824MOL0     C13617   6.301   5.896   2.995 -0.0886 -0.0175  0.1086
  824MOL0     C13618   6.414   5.969   2.921  0.2284  0.0387  0.0565
  824MOL0    Cl13619   6.564   5.897   2.963 -0.4240  0.0493 -0.2363
  824MOL0     C13620   5.615   5.753   3.537 -0.4069 -0.0866  0.0762
  824MOL0     C13621   5.491   5.711   3.589 -0.5250  0.0131  0.5239
  824MOL0     O13622   5.344   5.808   3.928  0.1466  0.1606  0.1973
  824MOL0     C13623   5.088   5.752   4.032  0.1503 -0.0854 -0.3976
  824MOL0     C13624   4.961   5.729   4.076  0.3374 -0.2319 -0.6325
  824MOL0     N13625   4.352   5.231   4.095 -0.0382  0.4283  0.4299
  824MOL0     N13626   4.263   5.185   4.010  0.4978 -0.1294 -0.1144
  824MOL0     C13627   3.296   4.734   3.442  0.5493  0.2037 -0.8361
  824MOL0     C13628   3.156   4.720   3.430  0.0390  0.3810 -0.6028
  824MOL0     C13629   2.787   4.738   3.226 -0.0591 -0.1687  0.2513
  824MOL0     C13630   2.741   4.809   3.341 -0.2704  0.2472  0.0602
  824MOL0     C13631   2.634   4.894   3.338  0.1939  0.1077 -0.3428
  824MOL0     C13632   2.582   4.940   3.213 -0.4771 -0.3610 -0.1356
  824MOL0     O13633   2.489   5.032   3.217  0.5406 -0.2877 -0.0493
  824MOL0     C13634   2.520   5.162   3.269 -0.0001  0.2729  0.9192
  824MOL0     C13635   2.401   5.252   3.283 -0.5819  0.1113  0.2702
  824MOL0     C13636   2.429   5.384   3.352 -0.2931  0.3202 -1.0784
  824MOL0     C13637   2.332   5.496   3.336 -0.8308  0.3332 -0.1252
  824MOL0     C13638   2.201   5.475   3.397 -0.2341 -0.2424  0.1269
  824MOL0     C13639   2.094   5.454   3.440 -0.3206 -0.5948 -0.2827
  824MOL0     C13640   2.618   4.864   3.104 -1.1217  0.5767 -0.1980
  824MOL0     C13641   2.727   4.774   3.107 -0.1181  0.0161 -0.4819
  824MOL0     C13642   2.773   4.727   2.970  0.1892  0.3799 -0.4795
  824MOL0     H13643   3.145   4.405   3.282  3.8954 -0.5662 -1.4445
  824MOL0     H13644   3.372   4.423   3.314 -1.1228 -0.1329 -1.5998
  824MOL0     H13645   3.551   4.712   3.572  1.5230  1.0922  0.8749
  824MOL0     H13646   3.571   4.820   3.435  1.5859  1.1485  3.2811
  824MOL0     H13647   3.732   4.573   3.531 -0.0720 -1.8042 -1.9819
  824MOL0     H13648   3.792   4.671   3.396  0.9813 -1.2795  0.6072
  824MOL0     H13649   3.797   4.877   3.525  0.6363  0.4053 -0.1833
  824MOL0     H13650   3.755   4.782   3.673 -1.9841 -0.5361 -1.1870
  824MOL0     H13651   3.963   4.648   3.632 -2.8291 -1.2787 -4.0578
  824MOL0     H13652   4.008   4.751   3.502 -0.0186  2.1913  0.0616
  824MOL0     H13653   3.960   4.852   3.781 -2.2493 -0.9335 -1.1834
  824MOL0     H13654   3.988   4.953   3.640  2.3807 -0.6142 -2.3837
  824MOL0     H13655   4.205   4.748   3.733  0.4266 -0.1427 -0.9138
  824MOL0     H13656   4.218   4.870   3.618 -1.1610  1.9353 -0.2508
  824MOL0     H13657   4.303   4.885   3.864  1.9276 -0.2202 -3.3222
  824MOL0     H13658   4.147   4.942   3.901  2.0474 -0.7322  1.5972
  824MOL0     H13659   4.312   5.084   3.687  0.7370  0.1507  0.3955
  824MOL0     H13660   4.162   5.137   3.741  1.9406  2.2070 -0.3743
  824MOL0     H13661   4.517   5.196   3.811 -0.9692 -3.6081  0.4140
  824MOL0     H13662   4.680   5.283   4.022  1.7081  1.4833  1.0147
  824MOL0     H13663   4.586   5.287   4.181  1.4451  2.2051  1.1686
  824MOL0     H13664   4.603   5.505   3.979 -0.9067  0.2906 -0.2745
  824MOL0     H13665   4.479   5.500   4.109  1.6022  1.4263 -0.8792
  824MOL0     H13666   4.671   5.491   4.272  1.0711  1.1372  0.2440
  824MOL0     H13667   4.792   5.514   4.153  1.1347  0.9207  4.1169
  824MOL0     H13668   4.575   5.720   4.170  0.0629  1.7021 -2.7317
  824MOL0     H13669   4.735   5.734   4.246 -0.6431  1.7904 -1.0666
  824MOL0     H13670   4.783   5.811   3.826 -1.0811 -0.3313  2.3540
  824MOL0     H13671   4.911   5.896   3.657 -0.9331 -0.3425  3.5586
  824MOL0     H13672   5.049   5.790   3.613 -0.0567  0.5525 -1.0205
  824MOL0     H13673   5.085   5.953   3.672 -0.4967 -0.0579  0.7013
  824MOL0     H13674   5.346   6.005   3.678 -0.2550 -1.7233 -0.1050
  824MOL0     H13675   5.577   6.087   3.580  3.5641 -0.5192  0.6949
  824MOL0     H13676   5.873   5.915   3.613 -3.2717  0.6750 -0.1428
  824MOL0     H13677   5.855   5.780   3.490 -1.1108  0.5226 -0.8031
  824MOL0     H13678   5.999   6.031   3.436 -0.3496 -0.2158 -2.7420
  824MOL0     H13679   6.070   5.865   3.457 -1.2991 -2.1532 -1.6442
  824MOL0     H13680   5.884   5.975   3.244 -0.1615 -2.4798 -2.1595
  824MOL0     H13681   5.913   5.804   3.261 -3.4784  1.2248  0.3654
  824MOL0     H13682   6.165   5.867   3.242  0.4604 -0.1041 -0.2883
  824MOL0     H13683   6.109   6.041   3.228  3.5226  0.5439 -2.5534
  824MOL0     H13684   6.056   5.783   3.054  2.0810 -0.6361  0.0027
  824MOL0     H13685   5.951   5.919   3.036  1.1431  0.5944 -4.0423
  824MOL0     H13686   6.158   6.065   2.995  1.6604 -0.8490  1.5207
  824MOL0     H13687   6.137   5.940   2.863  0.7884 -0.6268  0.0902
  824MOL0     H13688   6.301   5.791   2.962  1.1953 -0.0528  0.1729
  824MOL0     H13689   6.328   5.894   3.101 -0.4298  1.9183  0.2628
  824MOL0     H13690   6.402   6.068   2.965  1.1798 -0.6085  1.9120
  824MOL0     H13691   6.388   5.962   2.815 -1.9476  0.2406  0.5215
  824MOL0     H13692   5.674   5.668   3.506 -1.4545 -0.4255 -1.0569
  824MOL0     H13693   5.459   5.607   3.590  0.7716 -0.4216 -0.3911
  824MOL0     H13694   5.172   5.738   4.100 -0.4018  0.3599  0.3946
  824MOL0     H13695   4.946   5.704   4.181  1.7195 -2.7371 -0.9453
  824MOL0     H13696   3.343   4.824   3.478 -2.5812  1.0568  1.5342
  824MOL0     H13697   3.104   4.809   3.464  1.7610  1.4355 -0.6196
  824MOL0     H13698   2.796   4.792   3.433 -0.6742 -0.8237  0.1136
  824MOL0     H13699   2.590   4.942   3.425  0.0478 -0.4695 -0.0924
  824MOL0     H13700   2.560   5.139   3.369 -0.6676 -1.2393  0.8658
  824MOL0     H13701   2.596   5.214   3.211 -1.8791 -0.4195 -2.4127
  824MOL0     H13702   2.327   5.191   3.336 -0.1364 -0.7656 -0.0983
  824MOL0     H13703   2.356   5.267   3.185 -3.1141  0.5880  1.4335
  824MOL0     H13704   2.438   5.373   3.460 -1.0080 -2.5344 -1.2315
  824MOL0     H13705   2.529   5.416   3.321  0.5975  0.4101  1.6853
  824MOL0     H13706   2.321   5.527   3.231 -1.4528  1.6412  0.2945
  824MOL0     H13707   2.376   5.581   3.388  0.0330  0.0425 -0.3750
  824MOL0     H13708   1.993   5.437   3.473 -1.3537  1.2004 -2.2099
  824MOL0     H13709   2.571   4.872   3.007 -0.6169 -0.6784 -0.5749
  824MOL0     H13710   2.702   4.750   2.890 -1.9521 -5.5919 -0.8215
  824MOL0     H13711   2.873   4.767   2.952 -0.6269  2.2110 -1.1914
  824MOL0     H13712   2.775   4.618   2.970 -2.7668  0.1268  2.4431
  825MOL0     O13713   5.842   8.686   4.010 -0.3577  0.4827  1.3215
  825MOL0     C13714   5.739   8.755   4.016  0.0063 -0.2511  0.2044
  825MOL0     O13715   5.739   8.893   4.013 -0.1588  0.1893 -0.4213
  825MOL0     C13716   5.845   8.971   3.986  0.5084  0.4001 -1.0790
  825MOL0     C13717   5.843   9.050   3.869 -0.2596  0.6389  0.4242
  825MOL0     C13718   5.935   9.150   3.837 -0.2491 -0.1248  0.4730
  825MOL0     C13719   6.038   9.177   3.934 -0.3609 -0.5589  0.5442
  825MOL0     O13720   6.126   9.286   3.930 -0.7433 -0.2534 -0.4799
  825MOL0     C13721   6.144   9.366   3.816  0.1073 -0.2296 -0.3758
  825MOL0     C13722   6.264   9.458   3.853  0.7009 -0.0296 -1.0450
  825MOL0     C13723   6.400   9.381   3.823  0.3735  0.6069  0.1349
  825MOL0     C13724   6.441   9.262   3.912  0.1179 -0.3782  0.2210
  825MOL0     C13725   6.561   9.175   3.859 -0.4107 -0.3509  0.6073
  825MOL0     C13726   6.527   9.107   3.726  0.5196 -0.2562  0.3935
  825MOL0     C13727   6.419   8.993   3.732 -0.1802  0.2131  0.4855
  825MOL0     C13728   6.449   8.888   3.834  0.0504  0.3214 -0.7249
  825MOL0     N13729   6.392   8.755   3.800  0.3339 -0.0931  0.4117
  825MOL0     C13730   6.296   8.684   3.861  0.3817 -1.1960 -0.1273
  825MOL0     C13731   6.302   8.571   3.789 -0.4509  0.5995 -0.0867
  825MOL0     C13732   6.206   8.457   3.828 -0.5711  0.0969 -0.4172
  825MOL0     C13733   6.065   8.495   3.832  0.2876 -0.0659  0.0073
  825MOL0     C13734   6.008   8.505   3.695  0.0241 -0.4717  0.3875
  825MOL0     C13735   5.856   8.525   3.708  0.3925 -0.8862 -0.2694
  825MOL0     O13736   5.806   8.573   3.590  0.0318 -0.7216  0.4207
  825MOL0     C13737   5.677   8.628   3.594  0.0696  1.1237  1.1407
  825MOL0     C13738   5.660   8.766   3.603  1.3205 -0.5310  0.1555
  825MOL0     C13739   5.530   8.821   3.629 -0.1834  0.0993  0.7736
  825MOL0     C13740   5.522   8.968   3.630 -0.9249  0.2177 -0.1517
  825MOL0     C13741   5.421   8.739   3.643  1.2719  0.0787  0.2075
  825MOL0     C13742   5.282   8.793   3.674  0.6213  0.8356 -0.3406
  825MOL0     O13743   5.184   8.690   3.651 -0.0173 -0.4303  0.3941
  825MOL0     C13744   5.049   8.711   3.629  0.4972 -0.7239 -0.7926
  825MOL0     C13745   4.977   8.601   3.577 -0.0901 -0.7333 -0.2564
  825MOL0     C13746   4.839   8.609   3.551  0.3414  0.2350 -0.8341
  825MOL0     C13747   4.757   8.727   3.572  0.1563  0.2071 -0.0321
  825MOL0     O13748   4.625   8.723   3.546  0.2787 -0.4928 -0.4514
  825MOL0     C13749   4.553   8.835   3.607 -0.7138  0.3445  0.2850
  825MOL0     C13750   4.410   8.803   3.604 -0.4339 -1.0019  0.6392
  825MOL0     C13751   4.363   8.701   3.708  0.3243 -0.6296  0.4815
  825MOL0     C13752   4.219   8.666   3.683  0.4855  0.0195 -0.5112
  825MOL0     C13753   4.166   8.573   3.799 -0.1958  0.2439  0.0151
  825MOL0     C13754   4.011   8.567   3.786  0.0162  0.4739  0.0112
  825MOL0     C13755   3.968   8.488   3.912  0.3953  0.7667 -0.4749
  825MOL0     C13756   3.820   8.436   3.916  1.0734 -0.9047 -0.3606
  825MOL0    Cl13757   3.809   8.303   3.798 -0.0901 -0.2889 -0.4039
  825MOL0     C13758   4.833   8.841   3.617 -0.4456 -0.4593 -0.3279
  825MOL0     C13759   4.973   8.833   3.642 -0.7643  0.0118 -1.0164
  825MOL0     O13760   5.262   8.911   3.716  0.1038 -0.3502  0.6212
  825MOL0     C13761   5.439   8.600   3.617 -0.7304  0.5666  0.3330
  825MOL0     C13762   5.566   8.544   3.598 -0.5555  0.0523 -0.0222
  825MOL0     N13763   6.388   8.577   3.685  1.2208  0.1975 -0.8866
  825MOL0     N13764   6.451   8.687   3.702 -1.0331  0.2242 -0.1991
  825MOL0     C13765   6.046   9.091   4.042 -0.1574 -0.9134 -0.1898
  825MOL0     C13766   5.958   8.989   4.069  0.4084 -0.3960 -0.7432
  825MOL0     C13767   5.607   8.686   4.031  0.5978 -0.1325 -0.2176
  825MOL0     C13768   5.494   8.756   3.988  0.7750  0.5614  0.4159
  825MOL0     C13769   5.365   8.698   3.985  0.3493 -0.0323  0.3982
  825MOL0     C13770   5.352   8.558   4.006  0.0100  0.4543  1.1496
  825MOL0     O13771   5.243   8.484   3.983 -0.0923  0.0381  0.6400
  825MOL0     C13772   5.123   8.552   3.990  0.0057  1.0397  0.4338
  825MOL0     C13773   5.010   8.457   3.936 -0.0002  0.0643  0.5291
  825MOL0     C13774   4.876   8.530   3.944  0.1593 -0.5413  0.1330
  825MOL0     C13775   4.763   8.441   3.910  0.2792 -0.0277 -0.0395
  825MOL0     C13776   4.730   8.344   4.006 -0.2552  0.1313 -1.0568
  825MOL0     C13777   4.712   8.260   4.095 -0.3436 -0.2365 -0.1591
  825MOL0     C13778   5.461   8.488   4.038 -0.3508 -0.7479 -0.0720
  825MOL0     C13779   5.592   8.543   4.052 -1.0948  0.4971  1.0810
  825MOL0     C13780   5.705   8.459   4.104  0.3335 -0.3836  0.5307
  825MOL0     H13781   5.751   9.038   3.813 -0.3889 -0.7406  0.8887
  825MOL0     H13782   5.916   9.215   3.751  2.2402  1.5290  1.0634
  825MOL0     H13783   6.069   9.444   3.801  3.3376  3.4537  0.8570
  825MOL0     H13784   6.164   9.303   3.729  0.6671  1.0372 -1.2022
  825MOL0     H13785   6.256   9.550   3.796  0.7065  0.9378  0.4542
  825MOL0     H13786   6.255   9.489   3.958 -4.1623 -0.3030 -1.1496
  825MOL0     H13787   6.414   9.359   3.717 -0.0521 -0.1082  0.2241
  825MOL0     H13788   6.474   9.457   3.849  1.8129 -1.1467  1.3922
  825MOL0     H13789   6.471   9.301   4.010  1.7767  0.7678 -0.7039
  825MOL0     H13790   6.356   9.192   3.913  1.1202 -1.8406 -3.1421
  825MOL0     H13791   6.568   9.097   3.934 -3.5051 -0.7597  0.6107
  825MOL0     H13792   6.655   9.230   3.847 -0.4144 -0.4415  0.1476
  825MOL0     H13793   6.491   9.179   3.651 -1.0615  0.9722  2.2386
  825MOL0     H13794   6.611   9.052   3.681 -1.1450 -1.5959 -1.2451
  825MOL0     H13795   6.416   8.942   3.636  1.8566  2.3083 -0.8072
  825MOL0     H13796   6.321   9.040   3.747 -0.2230 -0.3858  2.3786
  825MOL0     H13797   6.555   8.862   3.850 -0.2011 -0.6682 -0.5985
  825MOL0     H13798   6.418   8.922   3.933  2.7985 -1.3302  0.8544
  825MOL0     H13799   6.231   8.717   3.941  2.6351  0.8342  0.9980
  825MOL0     H13800   6.229   8.423   3.930 -0.1466  0.2679 -0.4531
  825MOL0     H13801   6.220   8.371   3.762 -1.7335  0.6135 -1.3663
  825MOL0     H13802   6.006   8.416   3.880  1.3638 -0.4311  0.7802
  825MOL0     H13803   6.047   8.586   3.890 -1.3187 -0.0821 -0.4301
  825MOL0     H13804   6.050   8.600   3.663 -0.9844 -0.4468 -0.9067
  825MOL0     H13805   6.028   8.423   3.625 -0.7686  0.5155 -1.0225
  825MOL0     H13806   5.804   8.430   3.724 -0.7716 -0.1187  0.6623
  825MOL0     H13807   5.844   8.596   3.790  3.5651  2.3226 -2.2590
  825MOL0     H13808   5.748   8.828   3.612  1.6323 -1.1653  1.8791
  825MOL0     H13809   5.443   8.999   3.561 -2.1273 -0.1484  1.0110
  825MOL0     H13810   5.616   9.014   3.600  0.1623 -1.5562  0.3329
  825MOL0     H13811   5.501   9.002   3.732  0.4737  2.5614 -0.5847
  825MOL0     H13812   5.016   8.510   3.534 -0.0393 -0.5364 -0.6302
  825MOL0     H13813   4.781   8.527   3.509  0.2419 -0.2315  0.2001
  825MOL0     H13814   4.587   8.846   3.710 -1.4954 -2.5098  0.9229
  825MOL0     H13815   4.578   8.919   3.542 -2.9020 -0.3372 -1.5779
  825MOL0     H13816   4.358   8.899   3.612  2.3832  0.6182  0.8079
  825MOL0     H13817   4.383   8.761   3.507 -2.5917  1.3835  0.0885
  825MOL0     H13818   4.373   8.745   3.808  1.8099 -1.2182  0.6086
  825MOL0     H13819   4.423   8.610   3.704  1.0368 -0.1213 -0.8006
  825MOL0     H13820   4.209   8.610   3.590  0.8092  0.6296 -0.9213
  825MOL0     H13821   4.155   8.755   3.682 -2.3472 -1.8367  0.9692
  825MOL0     H13822   4.220   8.478   3.798  1.3363  1.0422  1.2565
  825MOL0     H13823   4.177   8.623   3.896 -1.8880 -0.3104  0.5180
  825MOL0     H13824   3.976   8.511   3.699 -0.0036 -0.8430  0.8463
  825MOL0     H13825   3.966   8.667   3.781 -2.2823 -0.4545  0.5744
  825MOL0     H13826   3.978   8.549   4.003 -2.0203  1.2658 -0.4863
  825MOL0     H13827   4.033   8.401   3.926  1.1567  1.4254  0.2037
  825MOL0     H13828   3.747   8.513   3.888  1.9105 -0.1071 -0.4113
  825MOL0     H13829   3.793   8.400   4.016  1.1211 -0.3927 -0.1587
  825MOL0     H13830   4.788   8.939   3.627 -0.4773 -0.5962  1.1132
  825MOL0     H13831   5.014   8.915   3.702 -0.4761 -1.3533  0.7382
  825MOL0     H13832   5.353   8.534   3.625  1.9312 -2.9442  2.9810
  825MOL0     H13833   5.582   8.437   3.586  1.6079 -0.0728  3.0046
  825MOL0     H13834   6.124   9.109   4.115  0.9825  1.3428 -1.8172
  825MOL0     H13835   5.968   8.929   4.159  2.3850  2.1641  0.9040
  825MOL0     H13836   5.487   8.860   3.960 -2.2796  0.8719  1.9032
  825MOL0     H13837   5.283   8.761   3.954  2.0177  1.1175 -1.9832
  825MOL0     H13838   5.109   8.575   4.096  1.7161  0.3934  0.8368
  825MOL0     H13839   5.114   8.638   3.924 -3.0350 -0.2360 -0.9687
  825MOL0     H13840   5.005   8.365   3.996  1.0662  0.1186  0.7231
  825MOL0     H13841   5.032   8.424   3.834 -2.7306 -0.3323  0.0014
  825MOL0     H13842   4.860   8.571   4.044  1.9670 -0.1345  0.2963
  825MOL0     H13843   4.883   8.607   3.866  0.2838  0.5507  1.1904
  825MOL0     H13844   4.795   8.387   3.820  0.9575 -0.7233  0.6124
  825MOL0     H13845   4.682   8.506   3.875 -0.8630 -1.7116 -0.6740
  825MOL0     H13846   4.725   8.172   4.154  0.7149 -0.5823 -0.8851
  825MOL0     H13847   5.451   8.381   4.058  0.7654 -0.5938  1.5723
  825MOL0     H13848   5.673   8.363   4.147  0.6596 -0.9745 -0.5029
  825MOL0     H13849   5.774   8.431   4.023  0.0440  0.5011 -0.0337
  825MOL0     H13850   5.756   8.512   4.185 -1.5046 -3.1209  3.7261
  826MOL0     O13851   7.323   0.031   6.017 -0.4531  0.3289  0.7225
  826MOL0     C13852   7.267   0.090   5.928 -0.1251 -0.9851 -0.4431
  826MOL0     O13853   7.324   0.116   5.805 -0.0795  0.7004 -0.6187
  826MOL0     C13854   7.456   0.094   5.789  0.7108  0.0467  0.3229
  826MOL0     C13855   7.517  -0.035   5.809 -0.7072  0.0378  0.7154
  826MOL0     C13856   7.653  -0.065   5.805 -0.5446 -0.3098 -0.7835
  826MOL0     C13857   7.737   0.042   5.763 -0.0637 -0.1924 -0.4937
  826MOL0     O13858   7.878   0.044   5.763  0.2110 -0.2021  0.8758
  826MOL0     C13859   7.937  -0.070   5.826  0.0225 -0.3583  0.2769
  826MOL0     C13860   8.096  -0.068   5.820  0.6085 -0.9470  0.7651
  826MOL0     C13861   8.160  -0.199   5.875  0.4002 -0.6769  0.2913
  826MOL0     C13862   8.169  -0.190   6.035  0.3381  0.3929  0.1392
  826MOL0     C13863   8.252  -0.317   6.075 -0.0240 -0.2084 -0.5591
  826MOL0     C13864   8.189  -0.449   6.038  0.3659 -0.4475  0.3659
  826MOL0     C13865   8.292  -0.551   6.070 -0.0518  0.7417 -0.2430
  826MOL0     C13866   8.283  -0.632   6.206  0.3059 -0.3181  0.4490
  826MOL0     N13867   8.390  -0.731   6.215  0.2376  0.3871 -0.1802
  826MOL0     C13868   8.374  -0.865   6.192 -0.3717 -0.6847 -0.1743
  826MOL0     C13869   8.504  -0.909   6.203  0.1092  0.7107  0.5185
  826MOL0     C13870   8.558  -1.047   6.184 -0.2070  0.2440 -0.5975
  826MOL0     C13871   8.600  -1.080   6.041  0.5877  0.5720  0.1373
  826MOL0     C13872   8.674  -1.209   6.041 -0.5739  0.8270 -0.1229
  826MOL0     C13873   8.688  -1.286   5.909  0.3166  0.7538  0.8869
  826MOL0     O13874   8.725  -1.199   5.800  0.0478 -0.2630 -0.3679
  826MOL0     C13875   8.852  -1.141   5.789 -0.6328  0.2790  0.0217
  826MOL0     C13876   8.869  -1.035   5.698 -0.5956 -0.1048  0.1827
  826MOL0     C13877   8.983  -0.953   5.684  0.1279 -0.1629 -0.7438
  826MOL0     C13878   8.962  -0.838   5.589  0.0841  0.1285  0.6984
  826MOL0     C13879   9.099  -0.995   5.763 -0.0246  0.2763 -1.0831
  826MOL0     C13880   9.237  -0.946   5.746  0.3389  0.5942  0.2917
  826MOL0     O13881   9.259  -0.862   5.637 -0.5973 -0.7815  0.6023
  826MOL0     C13882   9.386  -0.829   5.600 -1.0764  0.0112 -0.6665
  826MOL0     C13883   9.456  -0.739   5.684  0.0187  0.4975  0.0704
  826MOL0     C13884   9.580  -0.685   5.656 -0.3935  0.0127  0.5671
  826MOL0     C13885   9.644  -0.730   5.545 -0.4217  0.2087 -0.0438
  826MOL0     O13886   9.763  -0.672   5.506  0.2896  0.2552 -0.1767
  826MOL0     C13887   9.757  -0.529   5.500 -0.5495  0.0159  0.1137
  826MOL0     C13888   9.873  -0.481   5.402  0.0311  0.0555 -0.9405
  826MOL0     C13889   9.990  -0.447   5.492  0.7151  0.5493 -0.3348
  826MOL0     C13890  10.111  -0.417   5.413  0.4658 -0.0425  0.1388
  826MOL0     C13891  10.230  -0.406   5.514  0.0737 -0.9545  0.3092
  826MOL0     C13892  10.365  -0.377   5.452  0.1329  0.1414 -0.4018
  826MOL0     C13893  10.358  -0.242   5.361 -0.1402 -0.6067 -0.5082
  826MOL0     C13894  10.495  -0.192   5.312  0.2471  0.1343  0.1334
  826MOL0    Cl13895  10.582  -0.340   5.240  0.3877 -0.2469  0.2167
  826MOL0     C13896   9.580  -0.833   5.467 -0.0081  0.1075 -0.4101
  826MOL0     C13897   9.458  -0.894   5.503 -0.2804 -0.2834  0.1447
  826MOL0     O13898   9.320  -0.978   5.830  0.0364 -0.5074  0.7983
  826MOL0     C13899   9.085  -1.101   5.860  0.6815  0.3880  0.6215
  826MOL0     C13900   8.966  -1.179   5.865 -0.9289  0.1919  0.2748
  826MOL0     N13901   8.590  -0.799   6.232 -0.4267  0.2872 -0.5699
  826MOL0     N13902   8.518  -0.700   6.253 -0.4915  0.1054  0.7268
  826MOL0     C13903   7.676   0.165   5.734  0.4329  0.2170  0.4939
  826MOL0     C13904   7.543   0.187   5.749 -0.2786 -0.1132 -0.5593
  826MOL0     C13905   7.121   0.132   5.953  0.6779  0.4281 -0.5049
  826MOL0     C13906   7.053   0.076   6.062 -0.2216 -0.9689  0.1539
  826MOL0     C13907   6.918   0.090   6.071  0.1790 -0.9148 -0.1236
  826MOL0     C13908   6.851   0.185   5.997  0.5311  0.3425 -0.1143
  826MOL0     O13909   6.711   0.211   6.023  0.0219 -0.2349  0.0986
  826MOL0     C13910   6.637   0.312   5.953  1.1333 -0.6868  0.5878
  826MOL0     C13911   6.496   0.322   6.011  0.3248 -1.1684  1.0302
  826MOL0     C13912   6.406   0.206   5.970  0.3675 -0.1455 -0.0706
  826MOL0     C13913   6.274   0.201   6.049  0.0133  0.6385 -0.5308
  826MOL0     C13914   6.205   0.081   6.019 -0.2791 -0.0003 -0.2090
  826MOL0     C13915   6.131  -0.011   5.990 -0.3977  0.3006 -0.4413
  826MOL0     C13916   6.926   0.255   5.904  0.2851  0.4671 -0.5265
  826MOL0     C13917   7.063   0.229   5.876  0.4621  0.1409  0.5173
  826MOL0     C13918   7.128   0.317   5.767 -1.2605 -0.2066 -0.2420
  826MOL0     H13919   7.457  -0.122   5.832 -0.7672 -1.4149 -3.9419
  826MOL0     H13920   7.696  -0.158   5.839  1.2528  1.2015  1.3975
  826MOL0     H13921   7.905  -0.165   5.782  0.8906  0.0835 -1.4028
  826MOL0     H13922   7.916  -0.070   5.934  1.6840  0.8775  0.6469
  826MOL0     H13923   8.129  -0.059   5.716  2.2854 -0.0877  1.3405
  826MOL0     H13924   8.130   0.016   5.881  0.0028 -1.2183  1.4871
  826MOL0     H13925   8.100  -0.288   5.853  1.2819 -1.1361 -0.2927
  826MOL0     H13926   8.260  -0.212   5.832  0.6013 -1.7313  1.0470
  826MOL0     H13927   8.223  -0.099   6.062 -0.0012  1.3068 -2.0372
  826MOL0     H13928   8.071  -0.199   6.082  0.0585 -0.9113 -0.6549
  826MOL0     H13929   8.271  -0.317   6.183  1.0628 -0.8847 -0.7286
  826MOL0     H13930   8.345  -0.305   6.018 -1.1114  2.5641 -1.9081
  826MOL0     H13931   8.093  -0.469   6.087  0.2964  3.3046  2.1115
  826MOL0     H13932   8.175  -0.457   5.930  2.0400  1.0317 -0.0127
  826MOL0     H13933   8.394  -0.516   6.051 -0.2980  0.2653 -2.8518
  826MOL0     H13934   8.271  -0.634   6.001 -1.9469  1.5407 -0.6740
  826MOL0     H13935   8.290  -0.564   6.291  3.7897  0.5682 -0.3793
  826MOL0     H13936   8.191  -0.689   6.218 -0.2491  0.8349  2.0579
  826MOL0     H13937   8.277  -0.915   6.195 -2.0195  2.2540  2.9020
  826MOL0     H13938   8.477  -1.114   6.215  0.6604  0.0528  1.4758
  826MOL0     H13939   8.634  -1.065   6.261  0.3433  0.6581 -1.0398
  826MOL0     H13940   8.507  -1.099   5.987  0.4165 -0.3156  0.7340
  826MOL0     H13941   8.657  -0.998   5.994  2.0447 -0.5161 -0.0802
  826MOL0     H13942   8.777  -1.183   6.065  0.6725 -1.8695 -2.0339
  826MOL0     H13943   8.620  -1.268   6.116 -1.4158 -1.0625 -2.1099
  826MOL0     H13944   8.761  -1.367   5.911 -0.7774 -0.3009 -0.1423
  826MOL0     H13945   8.594  -1.337   5.885  0.9027 -0.1145  0.3901
  826MOL0     H13946   8.778  -1.018   5.642 -0.7325  0.9020  0.6920
  826MOL0     H13947   9.010  -0.877   5.498 -1.4918 -1.3871  0.4705
  826MOL0     H13948   9.001  -0.744   5.629  0.8537  0.5831 -1.0301
  826MOL0     H13949   8.856  -0.832   5.563  0.2781 -2.4149 -1.0930
  826MOL0     H13950   9.408  -0.689   5.767  1.7508  1.4860  0.5343
  826MOL0     H13951   9.621  -0.607   5.719 -2.7177  0.3058  1.7990
  826MOL0     H13952   9.662  -0.488   5.465 -0.8844  0.8675  1.8685
  826MOL0     H13953   9.771  -0.483   5.599 -2.9030 -0.6871  0.8477
  826MOL0     H13954   9.895  -0.554   5.323 -0.3508 -1.0865 -0.0264
  826MOL0     H13955   9.833  -0.391   5.353 -0.8233 -0.1868 -0.7107
  826MOL0     H13956  10.022  -0.532   5.552  0.4029 -0.0465 -0.9932
  826MOL0     H13957   9.962  -0.369   5.563  3.8546  1.1306  0.4047
  826MOL0     H13958  10.095  -0.325   5.357 -3.0514 -1.3895 -1.3697
  826MOL0     H13959  10.141  -0.502   5.351  0.9227 -1.3971  2.1100
  826MOL0     H13960  10.208  -0.322   5.581 -2.2216 -0.2526 -1.1794
  826MOL0     H13961  10.238  -0.492   5.580 -3.1082 -1.4159  0.2436
  826MOL0     H13962  10.393  -0.464   5.392  3.5489 -0.7238  2.1378
  826MOL0     H13963  10.443  -0.351   5.524  1.9849 -2.1096 -1.4578
  826MOL0     H13964  10.306  -0.162   5.414  0.6056 -0.9412  0.7611
  826MOL0     H13965  10.293  -0.264   5.275 -1.3711 -1.8593  0.6909
  826MOL0     H13966  10.549  -0.149   5.397 -1.1802  1.2803  0.5129
  826MOL0     H13967  10.485  -0.116   5.234  0.9630  0.7360  0.6076
  826MOL0     H13968   9.634  -0.874   5.382  0.4180 -2.3884  0.9910
  826MOL0     H13969   9.422  -0.976   5.442  0.0206 -4.6222  5.1094
  826MOL0     H13970   9.171  -1.129   5.920  0.9110 -1.0103 -0.3104
  826MOL0     H13971   8.973  -1.268   5.926  2.8255  0.4760  0.5088
  826MOL0     H13972   7.739   0.236   5.681  0.8783 -1.3283 -1.1659
  826MOL0     H13973   7.503   0.282   5.717  0.4072  0.4310  0.1755
  826MOL0     H13974   7.094   0.009   6.137 -0.8214 -0.6443  0.7796
  826MOL0     H13975   6.862   0.034   6.145  1.3182  1.2486  2.5500
  826MOL0     H13976   6.690   0.407   5.957  1.7245 -0.7447 -2.6546
  826MOL0     H13977   6.641   0.281   5.848 -0.9814 -0.9107  0.5311
  826MOL0     H13978   6.441   0.408   5.971  0.6203 -1.5437 -0.2271
  826MOL0     H13979   6.503   0.325   6.120 -2.7880 -3.1062  1.4038
  826MOL0     H13980   6.402   0.209   5.860 -0.6482 -1.7914 -0.1098
  826MOL0     H13981   6.457   0.113   5.999  0.9809  0.1663 -0.1245
  826MOL0     H13982   6.206   0.286   6.033 -0.1366  1.4032  3.2906
  826MOL0     H13983   6.292   0.212   6.156  1.1240  2.2997 -0.8335
  826MOL0     H13984   6.085  -0.104   5.963  0.4081 -0.7614  1.6283
  826MOL0     H13985   6.875   0.326   5.839  3.1270  1.5094 -1.8047
  826MOL0     H13986   7.056   0.390   5.730 -1.6597  1.0938  2.7724
  826MOL0     H13987   7.210   0.378   5.806 -3.2975  2.7871 -0.3532
  826MOL0     H13988   7.153   0.244   5.689 -1.6318 -2.5457  1.6834
  827MOL0     O13989   4.986   8.354   9.598  0.3041 -0.7462 -0.7227
  827MOL0     C13990   5.025   8.259   9.669  0.3753  0.4075  0.2329
  827MOL0     O13991   4.952   8.194   9.761 -0.2378  0.5565  0.3419
  827MOL0     C13992   4.817   8.218   9.785  0.4363 -0.7563  1.2107
  827MOL0     C13993   4.741   8.097   9.780  0.4545 -0.2193  0.0765
  827MOL0     C13994   4.600   8.111   9.796 -0.0902  1.0133 -0.4555
  827MOL0     C13995   4.547   8.240   9.816  0.4777 -0.5034 -1.2797
  827MOL0     O13996   4.414   8.242   9.855  0.3557 -0.0857 -0.1838
  827MOL0     C13997   4.332   8.332   9.785 -0.5219 -0.5529  1.0734
  827MOL0     C13998   4.211   8.248   9.744 -0.3555 -0.3900 -0.5128
  827MOL0     C13999   4.109   8.327   9.658  1.3360  0.3753 -0.4545
  827MOL0     C14000   3.978   8.247   9.625 -0.0171 -0.0912 -0.2138
  827MOL0     C14001   3.862   8.326   9.555  0.2187 -0.6762  1.0724
  827MOL0     C14002   3.905   8.411   9.429  0.4887 -0.1707  0.3469
  827MOL0     C14003   3.788   8.487   9.380  0.6570 -0.4708 -0.1767
  827MOL0     C14004   3.830   8.599   9.291 -0.7659 -0.3799  0.3720
  827MOL0     N14005   3.908   8.560   9.173 -0.1990 -0.6782 -0.2254
  827MOL0     C14006   3.868   8.589   9.042  0.0985 -0.4286  0.0335
  827MOL0     C14007   3.972   8.565   8.964 -0.0625  0.2034 -0.3452
  827MOL0     C14008   3.988   8.565   8.815 -0.0261  0.2370  1.8485
  827MOL0     C14009   3.935   8.694   8.754  0.6733 -0.1810 -0.1795
  827MOL0     C14010   3.932   8.689   8.600  0.4136 -0.1421  0.7968
  827MOL0     C14011   4.046   8.782   8.539 -0.8862  0.3849  0.7413
  827MOL0     O14012   4.177   8.752   8.600 -0.2796  0.4238  0.1055
  827MOL0     C14013   4.294   8.800   8.542  0.7105 -0.5678 -0.3109
  827MOL0     C14014   4.307   8.893   8.441  0.5795 -0.4882  0.0721
  827MOL0     C14015   4.432   8.950   8.393  0.0547  0.7319 -1.3977
  827MOL0     C14016   4.421   9.058   8.300 -0.4706  0.8233  0.0642
  827MOL0     C14017   4.556   8.880   8.437 -0.8092 -0.2029  0.4557
  827MOL0     C14018   4.696   8.914   8.389  0.0191 -0.2512 -0.5404
  827MOL0     O14019   4.796   8.861   8.453  0.2202  0.2542  0.0730
  827MOL0     C14020   4.923   8.856   8.402  0.0139 -0.1778  0.5341
  827MOL0     C14021   4.953   8.845   8.266  0.2655  0.1156  0.1907
  827MOL0     C14022   5.082   8.858   8.218  0.1500  0.1655 -0.1158
  827MOL0     C14023   5.187   8.860   8.314 -0.0214  0.9277 -0.4036
  827MOL0     O14024   5.311   8.864   8.258 -0.4894  0.1921  0.1425
  827MOL0     C14025   5.410   8.822   8.348 -1.2306  0.0238 -0.7122
  827MOL0     C14026   5.536   8.790   8.253  0.2148 -0.9097  0.4918
  827MOL0     C14027   5.657   8.780   8.350  0.2798  0.4152  0.3150
  827MOL0     C14028   5.797   8.792   8.284 -0.0097  0.5067 -0.0117
  827MOL0     C14029   5.914   8.778   8.382 -0.4049 -0.7712 -0.4292
  827MOL0     C14030   5.932   8.919   8.441 -0.1335 -0.1761 -0.7266
  827MOL0     C14031   6.067   8.944   8.521  0.9466 -0.1693  0.0876
  827MOL0     C14032   6.054   9.080   8.592 -0.7693  0.4236 -0.8652
  827MOL0    Cl14033   6.209   9.100   8.672  0.0083 -0.0925  0.3511
  827MOL0     C14034   5.159   8.860   8.448 -0.0266 -0.2549 -1.0977
  827MOL0     C14035   5.025   8.855   8.489 -0.1569  0.1320 -0.1621
  827MOL0     O14036   4.711   8.992   8.295 -0.4784 -0.0240 -0.4330
  827MOL0     C14037   4.543   8.782   8.540  0.5193 -0.5836 -0.2796
  827MOL0     C14038   4.412   8.762   8.597 -0.6371  0.1895 -0.0539
  827MOL0     N14039   4.069   8.508   9.044  0.5616 -0.3617  0.3467
  827MOL0     N14040   4.038   8.513   9.171  0.3822 -0.2588  0.3204
  827MOL0     C14041   4.626   8.352   9.819 -0.9144 -0.0466  0.7392
  827MOL0     C14042   4.764   8.343   9.801 -0.3213  0.3035  0.4671
  827MOL0     C14043   5.161   8.198   9.638  0.5257 -0.1401 -0.1099
  827MOL0     C14044   5.186   8.064   9.675 -0.0443  0.1404 -0.5623
  827MOL0     C14045   5.309   8.001   9.669  0.1409  0.1881  0.3496
  827MOL0     C14046   5.404   8.065   9.596  0.0531  0.0124 -0.6369
  827MOL0     O14047   5.525   8.015   9.574  0.5770 -0.0684  0.8459
  827MOL0     C14048   5.543   7.873   9.554  0.1719 -0.2094 -0.2431
  827MOL0     C14049   5.688   7.845   9.552 -0.6378 -0.1791 -0.3966
  827MOL0     C14050   5.757   7.873   9.695  0.4104  0.7282  0.4261
  827MOL0     C14051   5.901   7.892   9.671 -0.8840 -0.0002  0.2355
  827MOL0     C14052   5.958   7.996   9.759 -0.7976  0.5787  1.0495
  827MOL0     C14053   5.994   8.075   9.837  0.8452 -1.0403 -0.6898
  827MOL0     C14054   5.393   8.201   9.554  0.1619  0.3216 -0.5434
  827MOL0     C14055   5.270   8.265   9.573 -0.3707  0.4828 -0.1376
  827MOL0     C14056   5.248   8.407   9.522  0.3243  0.2688  0.0905
  827MOL0     H14057   4.793   8.004   9.758  0.0088 -0.1552 -1.3919
  827MOL0     H14058   4.540   8.021   9.795  1.6901 -0.3155 -3.6877
  827MOL0     H14059   4.387   8.393   9.713 -3.0497  1.3501  0.5987
  827MOL0     H14060   4.295   8.405   9.857  0.8030  0.4819  0.7456
  827MOL0     H14061   4.260   8.163   9.697  1.1585 -0.5696  1.2499
  827MOL0     H14062   4.161   8.208   9.832 -1.0242  0.7880 -0.3329
  827MOL0     H14063   4.072   8.422   9.698  1.1744  0.7937 -1.5763
  827MOL0     H14064   4.163   8.361   9.569  0.7519  1.8182 -0.2851
  827MOL0     H14065   4.009   8.170   9.554  0.1918 -1.3041  1.1357
  827MOL0     H14066   3.943   8.199   9.717  1.5924 -0.8994  0.0299
  827MOL0     H14067   3.817   8.391   9.630 -0.6656  0.1305 -0.1308
  827MOL0     H14068   3.774   8.267   9.527 -1.5362  2.2964 -0.1816
  827MOL0     H14069   3.977   8.489   9.454  2.1615 -0.5750 -2.7520
  827MOL0     H14070   3.947   8.348   9.350  0.4226  1.0807 -0.7230
  827MOL0     H14071   3.727   8.517   9.466  1.1440  0.2901 -0.0891
  827MOL0     H14072   3.732   8.412   9.323 -1.1587 -0.4002  1.4304
  827MOL0     H14073   3.740   8.652   9.257 -1.7956 -0.3010  3.0079
  827MOL0     H14074   3.891   8.673   9.344 -1.0232  0.2252 -0.1644
  827MOL0     H14075   3.778   8.633   8.998 -0.1696  0.5435  1.4766
  827MOL0     H14076   3.933   8.487   8.762  2.7446  0.8073 -2.3600
  827MOL0     H14077   4.089   8.532   8.792 -0.6803  0.5752 -2.3419
  827MOL0     H14078   3.831   8.700   8.785  0.4398  0.7966 -1.1000
  827MOL0     H14079   3.987   8.782   8.794 -0.0529 -0.4417  1.4372
  827MOL0     H14080   3.940   8.586   8.563 -3.6320 -0.0932 -0.6988
  827MOL0     H14081   3.836   8.725   8.562  1.1983  0.3708 -0.7943
  827MOL0     H14082   4.052   8.767   8.430  1.0118  0.9431  0.7348
  827MOL0     H14083   4.023   8.887   8.558  0.5393  0.9150 -0.2595
  827MOL0     H14084   4.214   8.926   8.394 -0.3114 -3.4061 -0.3846
  827MOL0     H14085   4.499   9.133   8.315 -0.4937  0.8875 -0.1337
  827MOL0     H14086   4.323   9.107   8.297 -0.7645  0.3869  1.8386
  827MOL0     H14087   4.426   9.002   8.205 -2.7704 -0.6516  0.7242
  827MOL0     H14088   4.872   8.825   8.197 -0.7392  1.8811  0.7940
  827MOL0     H14089   5.095   8.868   8.111  0.9800  1.2736  0.0658
  827MOL0     H14090   5.429   8.901   8.421  0.2677 -2.5248  1.8659
  827MOL0     H14091   5.378   8.732   8.400 -0.7375  1.3926  2.1584
  827MOL0     H14092   5.514   8.701   8.194  1.0332 -0.4711 -0.4880
  827MOL0     H14093   5.556   8.871   8.184 -1.5706  1.1661  2.2442
  827MOL0     H14094   5.652   8.683   8.400 -0.6701  0.5663  0.5294
  827MOL0     H14095   5.643   8.863   8.420  1.3777  3.0035 -2.3140
  827MOL0     H14096   5.788   8.890   8.236 -0.4225 -0.1393 -1.3158
  827MOL0     H14097   5.809   8.710   8.213 -1.1422 -1.0031  1.4797
  827MOL0     H14098   5.893   8.704   8.459 -0.9891  0.2091  0.3776
  827MOL0     H14099   6.007   8.751   8.331  0.8886  1.2107  0.7421
  827MOL0     H14100   5.858   8.915   8.521  1.3097  1.1823  0.7703
  827MOL0     H14101   5.922   8.994   8.362  4.3405 -0.8731 -2.2468
  827MOL0     H14102   6.154   8.933   8.456 -0.1367  1.4560 -1.7632
  827MOL0     H14103   6.071   8.863   8.594  3.2057 -2.3023 -2.2103
  827MOL0     H14104   5.973   9.076   8.665 -0.3479 -0.1168 -0.4171
  827MOL0     H14105   6.031   9.169   8.531  1.0348  1.0202 -0.7441
  827MOL0     H14106   5.228   8.843   8.529 -3.7311  1.0910  2.7103
  827MOL0     H14107   5.008   8.863   8.595 -3.0171 -5.5084  0.2038
  827MOL0     H14108   4.631   8.725   8.571  2.8659  2.8924 -0.0510
  827MOL0     H14109   4.401   8.688   8.676  2.1681 -1.1634 -0.8072
  827MOL0     H14110   4.582   8.447   9.847 -1.3714  0.6236 -2.0241
  827MOL0     H14111   4.827   8.431   9.801 -0.3342  0.3581 -1.5631
  827MOL0     H14112   5.105   8.006   9.720 -0.9563  1.6682 -0.1619
  827MOL0     H14113   5.316   7.897   9.701 -0.9668 -0.5730 -1.6955
  827MOL0     H14114   5.499   7.810   9.632  1.8843 -0.6291  0.4565
  827MOL0     H14115   5.497   7.840   9.461 -2.6992  1.9938  0.2620
  827MOL0     H14116   5.726   7.916   9.478  3.9187 -0.3322  1.4618
  827MOL0     H14117   5.704   7.752   9.496  2.5141  0.7038 -1.1432
  827MOL0     H14118   5.717   7.958   9.751 -0.4777 -0.0380  0.9920
  827MOL0     H14119   5.750   7.788   9.764 -1.2931  1.8311  1.6913
  827MOL0     H14120   5.926   7.915   9.567  2.2107 -0.3773  0.8150
  827MOL0     H14121   5.952   7.798   9.696  3.7380  2.6285  1.9129
  827MOL0     H14122   6.024   8.155   9.903  0.0241 -1.4136  0.1615
  827MOL0     H14123   5.478   8.248   9.505 -0.2679 -1.0241 -2.7009
  827MOL0     H14124   5.193   8.393   9.428 -0.6759 -0.2047  0.7214
  827MOL0     H14125   5.186   8.466   9.590 -0.7880 -0.3645 -0.3249
  827MOL0     H14126   5.342   8.459   9.506  0.2777  1.4747  3.2326
  828MOL0     O14127   1.898   6.829   9.638  0.0564 -0.4959 -0.6734
  828MOL0     C14128   1.774   6.815   9.641  0.7874  0.7431 -0.2211
  828MOL0     O14129   1.689   6.890   9.717  0.1587 -0.7215  0.2517
  828MOL0     C14130   1.740   7.000   9.789 -0.3190 -0.6246  0.2170
  828MOL0     C14131   1.654   7.113   9.795  0.3479 -0.1301  1.0512
  828MOL0     C14132   1.698   7.226   9.857  0.0942  0.1038  0.2366
  828MOL0     C14133   1.811   7.235   9.935  0.7034  0.1976  0.1229
  828MOL0     O14134   1.837   7.352  10.002  0.0026  0.2730  0.8831
  828MOL0     C14135   1.944   7.348  10.099  0.8438 -0.4735  0.2948
  828MOL0     C14136   1.947   7.487  10.172  0.1300  0.7417 -0.0141
  828MOL0     C14137   1.814   7.538  10.217  0.5940  0.6579  0.5923
  828MOL0     C14138   1.823   7.655  10.315  0.1687 -0.4196  0.2651
  828MOL0     C14139   1.685   7.720  10.343 -0.0120 -0.3881 -0.3757
  828MOL0     C14140   1.696   7.820  10.463 -0.9042 -0.7773  0.0511
  828MOL0     C14141   1.710   7.750  10.597  0.5114  1.0391  0.0062
  828MOL0     C14142   1.764   7.834  10.713 -0.6692  0.0423  0.2061
  828MOL0     N14143   1.742   7.785  10.849  0.4063  0.0396 -0.3358
  828MOL0     C14144   1.621   7.752  10.907  0.1280 -0.5697 -0.6040
  828MOL0     C14145   1.649   7.705  11.035  0.8603 -0.3203  0.5468
  828MOL0     C14146   1.532   7.676  11.125 -0.4261 -0.1209  1.3310
  828MOL0     C14147   1.564   7.691  11.271  0.5613 -0.3158  0.7491
  828MOL0     C14148   1.447   7.691  11.363  0.5796 -0.2342  0.1898
  828MOL0     C14149   1.476   7.634  11.502  0.0152 -0.0668  0.1062
  828MOL0     O14150   1.565   7.725  11.571  0.5085 -0.2254  0.1798
  828MOL0     C14151   1.624   7.680  11.681  0.3899 -0.4538  0.1338
  828MOL0     C14152   1.578   7.590  11.775  0.0487 -0.0209  0.6265
  828MOL0     C14153   1.652   7.543  11.882 -0.4297 -0.6698 -0.4175
  828MOL0     C14154   1.592   7.433  11.966  0.2099 -0.0704 -0.0690
  828MOL0     C14155   1.781   7.592  11.904 -0.6107 -0.1516 -0.7053
  828MOL0     C14156   1.871   7.550  12.015 -0.4683 -0.5899  0.1181
  828MOL0     O14157   2.000   7.588  12.011  0.5927 -0.0158 -0.0181
  828MOL0     C14158   2.090   7.550  12.106  0.2450 -0.0880  0.3927
  828MOL0     C14159   2.188   7.446  12.062  1.0173  0.4746 -0.1311
  828MOL0     C14160   2.279   7.404  12.158 -0.4430  0.5548 -0.1692
  828MOL0     C14161   2.287   7.466  12.286 -0.3950  0.2114 -0.1165
  828MOL0     O14162   2.392   7.437  12.370  0.0613  0.4767 -0.1644
  828MOL0     C14163   2.466   7.307  12.361 -0.4873 -0.5943  0.7611
  828MOL0     C14164   2.538   7.291  12.495 -0.7062  0.1627 -0.3131
  828MOL0     C14165   2.614   7.161  12.509 -0.9569  0.1170 -0.1229
  828MOL0     C14166   2.752   7.150  12.442 -0.6885  0.5245 -0.5867
  828MOL0     C14167   2.864   7.085  12.535  0.2054  0.4701 -0.2021
  828MOL0     C14168   2.846   6.933  12.529  0.3982  0.8098  0.1503
  828MOL0     C14169   2.917   6.869  12.651 -0.0461 -0.1458  0.8024
  828MOL0     C14170   2.922   6.719  12.635 -0.3926  0.3577 -0.1928
  828MOL0    Cl14171   2.765   6.645  12.676  0.6114 -0.3729  0.0202
  828MOL0     C14172   2.204   7.569  12.312 -0.0310  0.0018  0.8423
  828MOL0     C14173   2.098   7.614  12.229 -0.5078  0.1786  0.0509
  828MOL0     O14174   1.824   7.477  12.104 -0.1009 -0.2579 -0.3384
  828MOL0     C14175   1.826   7.692  11.818 -0.1923 -0.7905 -0.6509
  828MOL0     C14176   1.742   7.741  11.718 -0.1328 -0.2930 -0.4707
  828MOL0     N14177   1.786   7.720  11.052 -0.3066 -0.3330 -0.0725
  828MOL0     N14178   1.839   7.771  10.944 -0.0858 -0.1288  0.6513
  828MOL0     C14179   1.896   7.123   9.926 -0.1114  0.7980 -0.6951
  828MOL0     C14180   1.863   7.010   9.856  0.6694 -0.1819  0.4100
  828MOL0     C14181   1.698   6.714   9.555  0.4074  0.5254  0.1518
  828MOL0     C14182   1.559   6.690   9.580  1.0505  0.3496 -0.0734
  828MOL0     C14183   1.488   6.593   9.497 -0.4177 -1.2752 -0.4476
  828MOL0     C14184   1.556   6.525   9.401 -0.6393  0.0263  0.0072
  828MOL0     O14185   1.507   6.437   9.314  0.5026 -0.6025 -0.2978
  828MOL0     C14186   1.376   6.376   9.336  0.7001 -0.2115  0.2746
  828MOL0     C14187   1.364   6.287   9.458 -0.1273  0.9390  0.1710
  828MOL0     C14188   1.470   6.173   9.443 -0.1739  0.3396 -1.2676
  828MOL0     C14189   1.458   6.071   9.327 -0.7861 -0.1483 -0.3656
  828MOL0     C14190   1.575   5.984   9.322 -0.8718 -0.6688  0.4525
  828MOL0     C14191   1.666   5.909   9.300  0.9188  0.1582  0.2430
  828MOL0     C14192   1.684   6.557   9.374  0.2844 -0.1316 -0.3421
  828MOL0     C14193   1.754   6.651   9.444  0.0028  0.2576  0.2535
  828MOL0     C14194   1.892   6.684   9.391  0.4012 -0.2150  0.8504
  828MOL0     H14195   1.556   7.119   9.748 -0.8860 -3.4359  2.8634
  828MOL0     H14196   1.650   7.323   9.850  0.2995  0.1458 -0.9215
  828MOL0     H14197   2.035   7.318  10.047 -0.3515  2.5075 -4.0781
  828MOL0     H14198   1.915   7.273  10.173  0.7730  0.6213  1.3945
  828MOL0     H14199   2.019   7.484  10.254  0.7059 -1.0254 -0.5525
  828MOL0     H14200   1.984   7.563  10.102 -1.7746  1.9405  0.1949
  828MOL0     H14201   1.766   7.572  10.125 -0.1505 -2.6335 -0.3663
  828MOL0     H14202   1.747   7.459  10.251  0.2250  0.3452 -0.7869
  828MOL0     H14203   1.868   7.614  10.405  0.8747 -0.8954 -0.3003
  828MOL0     H14204   1.888   7.729  10.268 -0.1419  0.1376  0.6934
  828MOL0     H14205   1.618   7.637  10.365  2.6273 -2.7241 -0.6505
  828MOL0     H14206   1.649   7.778  10.257 -0.9735  1.6507  1.3120
  828MOL0     H14207   1.771   7.896  10.443  0.0447 -1.0559  2.2668
  828MOL0     H14208   1.597   7.865  10.477  0.7460  3.4514 -0.5282
  828MOL0     H14209   1.769   7.658  10.583  0.0286  0.6631  0.4144
  828MOL0     H14210   1.609   7.720  10.627 -0.0918  3.3882  0.5032
  828MOL0     H14211   1.870   7.849  10.689 -0.8592  1.1641  0.0367
  828MOL0     H14212   1.721   7.934  10.708 -1.6323 -0.2544  1.7954
  828MOL0     H14213   1.526   7.754  10.854 -0.0003 -0.1471 -0.3663
  828MOL0     H14214   1.481   7.582  11.102  0.6676 -0.5069  0.4088
  828MOL0     H14215   1.452   7.746  11.101  0.1834 -0.2772 -1.4220
  828MOL0     H14216   1.636   7.613  11.292  0.2667 -0.8691 -0.2678
  828MOL0     H14217   1.618   7.784  11.289  0.9750 -0.4370  0.1532
  828MOL0     H14218   1.402   7.790  11.373  0.6182 -0.3580  1.7696
  828MOL0     H14219   1.374   7.619  11.325  0.3315  0.4181 -0.6027
  828MOL0     H14220   1.378   7.615  11.548 -0.6513  0.2304 -1.1373
  828MOL0     H14221   1.523   7.536  11.497 -0.0889 -0.2953  2.5274
  828MOL0     H14222   1.483   7.541  11.756  0.8566 -0.8535 -1.5917
  828MOL0     H14223   1.500   7.399  11.918 -1.1257  2.4861  0.4923
  828MOL0     H14224   1.569   7.477  12.063  1.0077 -4.0618  2.1416
  828MOL0     H14225   1.659   7.347  11.974  2.9837  1.7684 -1.6087
  828MOL0     H14226   2.181   7.401  11.963 -1.4018 -3.8251  1.7370
  828MOL0     H14227   2.355   7.328  12.141  0.7980  1.8113 -0.5115
  828MOL0     H14228   2.393   7.227  12.342 -0.3326  0.0795 -3.4590
  828MOL0     H14229   2.538   7.308  12.279  1.7306  2.2835  2.5594
  828MOL0     H14230   2.614   7.370  12.500  0.7051 -0.9883 -2.2128
  828MOL0     H14231   2.459   7.306  12.569 -3.8630 -1.1020 -3.1960
  828MOL0     H14232   2.545   7.077  12.496  0.2595 -1.2627  1.8056
  828MOL0     H14233   2.636   7.154  12.616  2.9229 -4.6529 -0.8733
  828MOL0     H14234   2.786   7.251  12.417 -2.3793  1.5130  0.8552
  828MOL0     H14235   2.741   7.093  12.350  0.8414  0.6058 -0.8544
  828MOL0     H14236   2.965   7.101  12.496  1.4949 -2.5414  1.5309
  828MOL0     H14237   2.869   7.133  12.633 -0.4021  0.7140 -0.2853
  828MOL0     H14238   2.890   6.892  12.438 -0.6825  0.4279 -0.2199
  828MOL0     H14239   2.740   6.904  12.532  1.2224 -3.1756 -2.1685
  828MOL0     H14240   2.869   6.914  12.738  2.1791  2.8604  0.6395
  828MOL0     H14241   3.020   6.907  12.659 -0.3666  0.9853 -0.1794
  828MOL0     H14242   2.996   6.676  12.702 -0.4981  1.3203  0.5637
  828MOL0     H14243   2.959   6.691  12.536 -0.5917 -0.2189 -0.1115
  828MOL0     H14244   2.214   7.621  12.406 -2.5793  2.8559 -0.2913
  828MOL0     H14245   2.040   7.700  12.263 -1.3308 -0.7977  1.2137
  828MOL0     H14246   1.921   7.741  11.839  0.2834 -1.2133 -1.7218
  828MOL0     H14247   1.780   7.820  11.653  2.5895 -0.9602  0.1932
  828MOL0     H14248   1.989   7.127   9.982 -0.4425  0.7260 -0.1385
  828MOL0     H14249   1.933   6.928   9.857 -0.6535 -1.3514 -0.0950
  828MOL0     H14250   1.500   6.739   9.657 -3.1410 -3.7902 -0.1754
  828MOL0     H14251   1.383   6.575   9.519 -0.4721 -1.6997 -1.0363
  828MOL0     H14252   1.306   6.459   9.350  1.0129  0.3616 -1.4032
  828MOL0     H14253   1.357   6.315   9.247  1.5887 -2.7821  1.7479
  828MOL0     H14254   1.270   6.232   9.468  0.6605 -0.2659  1.3152
  828MOL0     H14255   1.390   6.336   9.552 -1.0743 -2.5435  2.4296
  828MOL0     H14256   1.569   6.221   9.439 -0.6875  1.8930  2.0178
  828MOL0     H14257   1.457   6.117   9.535 -0.3966  0.8527 -0.9825
  828MOL0     H14258   1.450   6.124   9.231 -0.1502  0.1750 -0.2474
  828MOL0     H14259   1.374   6.005   9.348 -0.7598 -0.1526 -0.2752
  828MOL0     H14260   1.760   5.859   9.285  0.2694 -0.7370 -1.0655
  828MOL0     H14261   1.731   6.502   9.293  1.2497 -1.1726  0.8734
  828MOL0     H14262   1.968   6.671   9.469  0.6789  2.0331  1.0306
  828MOL0     H14263   1.910   6.631   9.297 -0.1037  0.6953  0.2261
  828MOL0     H14264   1.890   6.792   9.375 -1.0583 -0.4804 -0.9835
  829MOL0     O14265   1.088   4.828   9.717 -0.4258 -1.0407 -0.2759
  829MOL0     C14266   1.157   4.725   9.743 -0.4220 -0.4240 -0.6993
  829MOL0     O14267   1.118   4.618   9.817  0.2597 -0.7557 -0.0431
  829MOL0     C14268   0.989   4.616   9.861 -0.9731 -0.2387 -0.2954
  829MOL0     C14269   0.957   4.628   9.993  0.2250 -0.4931  1.0028
  829MOL0     C14270   0.821   4.625  10.038 -0.4660  0.1973  0.3024
  829MOL0     C14271   0.716   4.604   9.947 -0.3086 -0.9065 -1.2815
  829MOL0     O14272   0.587   4.604   9.987  0.2268  0.1279 -0.1688
  829MOL0     C14273   0.538   4.704  10.078  0.6924  0.2801 -0.4444
  829MOL0     C14274   0.397   4.669  10.123 -0.2778 -0.3262  0.1489
  829MOL0     C14275   0.379   4.525  10.168  0.5951  0.7446 -0.5500
  829MOL0     C14276   0.438   4.480  10.302  0.0695 -0.6154  0.8040
  829MOL0     C14277   0.380   4.345  10.353  0.1905  0.5890 -0.0694
  829MOL0     C14278   0.347   4.356  10.502  0.1634 -0.0738 -0.3800
  829MOL0     C14279   0.302   4.223  10.566  0.1621  1.0058  0.2966
  829MOL0     C14280   0.266   4.226  10.712 -0.4366  0.6992 -0.5426
  829MOL0     N14281   0.382   4.281  10.784 -0.0337  0.4816  0.1088
  829MOL0     C14282   0.492   4.203  10.813  0.1224  1.2771  0.0529
  829MOL0     C14283   0.562   4.280  10.902  0.5564  0.1475  0.2822
  829MOL0     C14284   0.676   4.221  10.973 -0.8931 -0.0595 -0.5039
  829MOL0     C14285   0.799   4.215  10.891 -0.0193  0.2839  1.0225
  829MOL0     C14286   0.885   4.352  10.888  0.9338  0.4107 -0.0618
  829MOL0     C14287   0.994   4.340  10.778  0.4115 -0.0680  0.3999
  829MOL0     O14288   1.085   4.456  10.763 -0.0297 -0.0494 -0.2417
  829MOL0     C14289   1.189   4.446  10.672  0.2607 -0.2101 -0.5619
  829MOL0     C14290   1.183   4.382  10.545 -0.2207  0.5043 -0.4757
  829MOL0     C14291   1.291   4.381  10.459 -0.0159 -0.3826 -0.2357
  829MOL0     C14292   1.253   4.335  10.321 -0.2302  0.4733  1.7666
  829MOL0     C14293   1.421   4.434  10.508  0.2148  0.2116 -0.2612
  829MOL0     C14294   1.557   4.429  10.436  0.5309 -0.5544 -0.3703
  829MOL0     O14295   1.656   4.506  10.485 -0.3793 -0.5360  0.4751
  829MOL0     C14296   1.774   4.517  10.415 -0.4952 -0.5715  0.1474
  829MOL0     C14297   1.889   4.494  10.486  0.4704  0.4625 -1.0675
  829MOL0     C14298   2.019   4.497  10.424 -0.2813 -0.0248 -0.6023
  829MOL0     C14299   2.030   4.534  10.291  0.5911  0.0625 -0.5429
  829MOL0     O14300   2.152   4.542  10.241 -0.0446 -0.4232 -0.1371
  829MOL0     C14301   2.169   4.574  10.103 -0.1192 -0.0635  0.1919
  829MOL0     C14302   2.315   4.581  10.085 -0.6895  0.1983  0.7177
  829MOL0     C14303   2.364   4.600   9.941 -0.4439  0.1939  0.2878
  829MOL0     C14304   2.517   4.593   9.933  0.5151 -0.5698 -0.2252
  829MOL0     C14305   2.553   4.638   9.798 -0.2710 -0.8143 -0.3714
  829MOL0     C14306   2.701   4.647   9.798 -0.5431  0.4413  0.4505
  829MOL0     C14307   2.762   4.668   9.653 -0.1091  0.6491 -0.1995
  829MOL0     C14308   2.902   4.703   9.658  0.6381 -0.7304  0.1941
  829MOL0    Cl14309   3.012   4.575   9.733  0.0477  0.3544  0.2787
  829MOL0     C14310   1.910   4.565  10.218  0.1694 -0.8925 -0.5639
  829MOL0     C14311   1.778   4.563  10.281  0.2074  0.0190  0.6916
  829MOL0     O14312   1.567   4.347  10.347  0.4598 -0.2405 -0.5838
  829MOL0     C14313   1.423   4.502  10.627  1.0393  0.4157 -0.7043
  829MOL0     C14314   1.309   4.506  10.706  0.1530 -0.0473 -0.1849
  829MOL0     N14315   0.499   4.396  10.925  0.2736  0.8118  0.1726
  829MOL0     N14316   0.395   4.401  10.854  0.8751  0.2632  0.3161
  829MOL0     C14317   0.752   4.589   9.814  0.6458  0.1122 -0.2220
  829MOL0     C14318   0.883   4.598   9.773 -0.2824  0.2106 -0.7707
  829MOL0     C14319   1.296   4.717   9.702  0.3258 -0.7020 -0.0463
  829MOL0     C14320   1.331   4.593   9.653  0.5998 -0.6500 -0.0609
  829MOL0     C14321   1.464   4.575   9.613  0.2115  0.2794 -0.5195
  829MOL0     C14322   1.562   4.678   9.612  0.1467  0.6867  0.9305
  829MOL0     O14323   1.689   4.644   9.580  0.7380 -0.4113  0.2905
  829MOL0     C14324   1.796   4.732   9.629  0.4085  0.1043  0.8272
  829MOL0     C14325   1.849   4.809   9.504  0.8660 -0.3343  0.3628
  829MOL0     C14326   1.965   4.898   9.549  0.3750 -0.2100  0.1794
  829MOL0     C14327   2.026   5.001   9.441  0.8561  0.9292  0.3658
  829MOL0     C14328   2.094   4.936   9.328  0.1240 -0.3464  1.1157
  829MOL0     C14329   2.162   4.894   9.235  0.2685 -0.1585  0.9255
  829MOL0     C14330   1.516   4.807   9.647  1.2127  0.1197 -0.2783
  829MOL0     C14331   1.384   4.830   9.696  0.2381 -0.4698 -0.2503
  829MOL0     C14332   1.349   4.969   9.728  0.7096  0.5854  0.3457
  829MOL0     H14333   1.038   4.633  10.065  0.0631 -2.3549  1.3517
  829MOL0     H14334   0.809   4.636  10.146 -0.3314 -0.8081  0.4282
  829MOL0     H14335   0.542   4.798  10.022 -1.5612  0.4850 -0.3272
  829MOL0     H14336   0.607   4.717  10.162  1.7476 -0.5900 -1.1496
  829MOL0     H14337   0.379   4.724  10.215  0.0447  2.0438 -1.1253
  829MOL0     H14338   0.321   4.698  10.050  0.7953  1.5452 -0.2874
  829MOL0     H14339   0.272   4.503  10.173  0.8918 -0.3447  2.4917
  829MOL0     H14340   0.406   4.459  10.085 -1.1063  0.0575 -0.5961
  829MOL0     H14341   0.547   4.466  10.302 -0.1505 -2.5850 -0.5043
  829MOL0     H14342   0.420   4.555  10.380 -1.1071  0.1129 -0.1366
  829MOL0     H14343   0.450   4.262  10.336 -2.6769 -2.2706  1.0279
  829MOL0     H14344   0.284   4.316  10.309 -0.0492  0.3246  0.6065
  829MOL0     H14345   0.442   4.383  10.549  1.3464 -1.3343 -1.9325
  829MOL0     H14346   0.263   4.425  10.512 -0.4700 -0.8964  0.1400
  829MOL0     H14347   0.376   4.144  10.551 -0.5897  0.7146 -2.1372
  829MOL0     H14348   0.211   4.183  10.521  0.6616  0.9784 -0.7061
  829MOL0     H14349   0.173   4.279  10.736 -1.5414 -1.6362  0.6336
  829MOL0     H14350   0.239   4.124  10.740 -1.6073  1.2399  0.3752
  829MOL0     H14351   0.507   4.101  10.779  0.0794  1.2898 -0.0033
  829MOL0     H14352   0.645   4.127  11.019  1.4004 -0.5546  0.1481
  829MOL0     H14353   0.700   4.284  11.059  0.7115 -1.1574 -0.0959
  829MOL0     H14354   0.854   4.124  10.916 -2.0940 -1.0387  1.0212
  829MOL0     H14355   0.759   4.195  10.791 -4.0120 -0.3436  2.5572
  829MOL0     H14356   0.822   4.440  10.868 -2.4857 -2.2381 -2.0985
  829MOL0     H14357   0.933   4.361  10.986 -1.0858  0.4274  0.9862
  829MOL0     H14358   1.044   4.244  10.794 -0.4398 -0.2659  2.0567
  829MOL0     H14359   0.943   4.324  10.683  0.4532  1.9121 -0.0026
  829MOL0     H14360   1.083   4.347  10.521 -0.4498  0.9961 -0.2463
  829MOL0     H14361   1.173   4.261  10.312 -0.4903  0.7723  1.6026
  829MOL0     H14362   1.333   4.307  10.252 -1.8239  2.5524 -1.1564
  829MOL0     H14363   1.214   4.416  10.260  0.0623 -1.8879 -1.8464
  829MOL0     H14364   1.883   4.470  10.592  2.3122 -1.5658 -1.3457
  829MOL0     H14365   2.100   4.465  10.488 -2.0744 -0.1891  1.7027
  829MOL0     H14366   2.125   4.497  10.039 -1.7975  0.8876  0.1284
  829MOL0     H14367   2.118   4.667  10.079  2.9459  1.4493 -0.9060
  829MOL0     H14368   2.359   4.653  10.154 -0.1978 -1.3236  2.0392
  829MOL0     H14369   2.364   4.488  10.115 -1.0484 -0.7051 -1.3056
  829MOL0     H14370   2.334   4.701   9.910  1.0436  0.6367  0.1967
  829MOL0     H14371   2.320   4.522   9.879 -2.3788 -0.5447  2.4834
  829MOL0     H14372   2.550   4.490   9.948 -0.4129 -0.8114  0.2294
  829MOL0     H14373   2.559   4.664  10.006 -1.4960  0.1009  0.3336
  829MOL0     H14374   2.530   4.561   9.724  0.7652 -0.4032 -1.1533
  829MOL0     H14375   2.510   4.735   9.772 -0.2962 -1.1882 -1.7876
  829MOL0     H14376   2.740   4.553   9.837  0.1279  0.5171 -0.0300
  829MOL0     H14377   2.730   4.733   9.861  1.2514 -0.2529  0.6251
  829MOL0     H14378   2.699   4.742   9.604  1.3812  2.0431 -0.1070
  829MOL0     H14379   2.751   4.576   9.595  0.2277 -0.2324  1.0784
  829MOL0     H14380   2.894   4.798   9.712  0.5074 -0.2275 -0.6910
  829MOL0     H14381   2.932   4.726   9.556  0.4836  1.8894  0.6605
  829MOL0     H14382   1.910   4.594  10.114  1.1846 -2.0271 -0.9090
  829MOL0     H14383   1.688   4.590  10.228  0.5995  1.0202  0.5078
  829MOL0     H14384   1.507   4.557  10.666 -0.0761 -0.4986  3.4519
  829MOL0     H14385   1.307   4.558  10.801 -0.4826 -0.7002  0.1637
  829MOL0     H14386   0.681   4.583   9.732  1.1761 -0.8714 -0.6181
  829MOL0     H14387   0.901   4.589   9.667 -1.3377  1.5667 -1.0894
  829MOL0     H14388   1.258   4.514   9.646 -0.3269  0.2728 -1.5748
  829MOL0     H14389   1.486   4.471   9.592 -3.4478 -0.9572  1.0289
  829MOL0     H14390   1.767   4.806   9.704 -0.7893  1.3031 -0.7675
  829MOL0     H14391   1.873   4.670   9.675 -0.1505 -0.7780  0.6047
  829MOL0     H14392   1.762   4.861   9.463 -1.2195  0.0029  4.7395
  829MOL0     H14393   1.892   4.746   9.425  2.5427 -1.2030  1.9006
  829MOL0     H14394   1.941   4.948   9.643  2.6593  0.4242  0.4818
  829MOL0     H14395   2.049   4.832   9.570  0.9911  1.3976  3.4003
  829MOL0     H14396   2.101   5.056   9.498 -0.8921  1.5287  2.2382
  829MOL0     H14397   1.945   5.064   9.402  2.2417  2.8608  0.4638
  829MOL0     H14398   2.203   4.860   9.142 -1.9892  1.7192 -0.8923
  829MOL0     H14399   1.586   4.889   9.635 -1.3487  2.1547 -2.6779
  829MOL0     H14400   1.279   4.954   9.810 -0.7594 -4.8081 -1.4753
  829MOL0     H14401   1.439   5.022   9.762 -0.7698  3.1970  0.4645
  829MOL0     H14402   1.309   5.021   9.640 -0.0361 -0.4155  0.0738
  830MOL0     O14403   6.996   4.175   0.501 -0.4390  0.3576  0.5740
  830MOL0     C14404   6.935   4.256   0.566 -0.6084  0.6153 -0.2229
  830MOL0     O14405   6.985   4.306   0.687  0.1696 -0.3155  0.3451
  830MOL0     C14406   7.095   4.238   0.732  0.2211  0.1149  0.2573
  830MOL0     C14407   7.229   4.293   0.729  0.5867  0.1009  0.6221
  830MOL0     C14408   7.349   4.222   0.768  0.0532 -0.1153 -0.2131
  830MOL0     C14409   7.334   4.091   0.818 -0.0552 -0.1764 -0.5380
  830MOL0     O14410   7.444   4.008   0.837 -0.3006  0.1263  0.0155
  830MOL0     C14411   7.573   4.060   0.801  0.3383  0.3860 -0.1840
  830MOL0     C14412   7.674   3.983   0.876 -0.4480 -0.4055 -0.3732
  830MOL0     C14413   7.817   4.026   0.845 -0.1108 -0.1716 -0.0225
  830MOL0     C14414   7.910   3.901   0.849 -0.0350 -0.2190  0.2316
  830MOL0     C14415   8.060   3.933   0.882  0.3739  0.2130 -0.5957
  830MOL0     C14416   8.139   3.799   0.870  0.5652  0.0299 -1.1213
  830MOL0     C14417   8.281   3.809   0.926 -0.3475 -0.7507 -0.0671
  830MOL0     C14418   8.368   3.918   0.851 -0.2334  0.8435  0.0722
  830MOL0     N14419   8.360   3.896   0.706 -0.0266  0.0740  0.6729
  830MOL0     C14420   8.429   3.792   0.651  0.0932  0.3018  0.0490
  830MOL0     C14421   8.389   3.792   0.526  0.0823  0.2042  0.3111
  830MOL0     C14422   8.449   3.704   0.422  0.7364 -0.0575  0.9566
  830MOL0     C14423   8.596   3.751   0.392 -0.0795 -0.4620  0.7610
  830MOL0     C14424   8.701   3.752   0.507 -0.0914  0.2187 -0.8552
  830MOL0     C14425   8.845   3.708   0.459 -0.3821  0.0285  0.3569
  830MOL0     O14426   8.839   3.575   0.402 -0.5977  0.4886  0.0655
  830MOL0     C14427   8.936   3.483   0.429 -0.5885  0.0874 -0.2265
  830MOL0     C14428   8.920   3.365   0.360  0.0119 -0.1811  0.6136
  830MOL0     C14429   9.007   3.255   0.376 -0.0294  0.4447  0.1207
  830MOL0     C14430   8.977   3.135   0.301  0.3533 -0.1729 -0.5701
  830MOL0     C14431   9.124   3.268   0.449 -1.1344  0.2410  0.1884
  830MOL0     C14432   9.219   3.165   0.492 -0.1777 -0.5514 -0.1122
  830MOL0     O14433   9.348   3.217   0.512  0.8005  1.0675  0.0589
  830MOL0     C14434   9.455   3.142   0.559  0.4663 -0.8203  0.1316
  830MOL0     C14435   9.440   3.038   0.656 -0.3675  0.1720  0.6031
  830MOL0     C14436   9.546   2.958   0.691 -0.4389  0.1727 -0.8966
  830MOL0     C14437   9.676   2.969   0.638 -0.0700  0.7355  0.2297
  830MOL0     O14438   9.786   2.888   0.676  0.1941 -0.5040  0.0866
  830MOL0     C14439   9.795   2.848   0.813 -0.7910 -0.4765 -0.1181
  830MOL0     C14440   9.938   2.845   0.860 -0.2760 -0.1424 -0.2643
  830MOL0     C14441   9.967   2.777   0.998  0.5195 -0.0972  0.4738
  830MOL0     C14442  10.116   2.740   1.022 -0.2340  0.0999  0.1497
  830MOL0     C14443  10.219   2.856   1.022 -0.1514 -0.0572 -0.1336
  830MOL0     C14444  10.357   2.813   1.077  0.7593 -0.3704 -0.7398
  830MOL0     C14445  10.436   2.713   0.987 -0.7987  0.4704  0.7897
  830MOL0     C14446  10.586   2.718   1.021 -0.7459 -0.6480 -0.4630
  830MOL0    Cl14447  10.671   2.863   0.956 -0.1966 -0.2453  0.3156
  830MOL0     C14448   9.693   3.080   0.550 -0.0096 -0.8854  0.1108
  830MOL0     C14449   9.583   3.170   0.512 -0.0629 -0.2788 -0.3384
  830MOL0     O14450   9.185   3.053   0.509 -0.7360 -0.5997 -0.1262
  830MOL0     C14451   9.145   3.391   0.513  0.9643  1.0322 -0.3296
  830MOL0     C14452   9.057   3.497   0.504  0.4596 -0.7532 -0.1553
  830MOL0     N14453   8.309   3.897   0.498  0.0838 -0.2961 -0.3128
  830MOL0     N14454   8.294   3.967   0.606 -0.7412  0.1931  0.0365
  830MOL0     C14455   7.206   4.034   0.818  0.2893  0.0723 -0.0879
  830MOL0     C14456   7.088   4.109   0.781  0.1039  0.4770 -0.0810
  830MOL0     C14457   6.800   4.289   0.528  0.4354  0.0445  0.0403
  830MOL0     C14458   6.716   4.339   0.626 -0.5200  0.6152 -0.5629
  830MOL0     C14459   6.590   4.389   0.586  0.2750  0.9958  0.0528
  830MOL0     C14460   6.541   4.392   0.465  0.1347 -0.7562  0.8344
  830MOL0     O14461   6.411   4.431   0.460  0.1663  0.3770  0.1752
  830MOL0     C14462   6.351   4.428   0.322 -0.6473 -0.7642  0.0332
  830MOL0     C14463   6.213   4.488   0.305 -0.5311  0.3368 -0.0374
  830MOL0     C14464   6.107   4.417   0.375 -0.0464 -0.4770  0.5208
  830MOL0     C14465   5.970   4.458   0.324 -0.0152  0.8284  0.3833
  830MOL0     C14466   5.855   4.426   0.412 -0.1452 -0.8721  0.4579
  830MOL0     C14467   5.752   4.400   0.465  0.6204  0.4691 -0.0356
  830MOL0     C14468   6.623   4.346   0.365 -0.2706 -0.5585  0.5827
  830MOL0     C14469   6.751   4.288   0.393  0.3969 -0.1289  0.0893
  830MOL0     C14470   6.826   4.240   0.272 -0.1525  0.5670  0.1996
  830MOL0     H14471   7.242   4.397   0.701  0.5957  0.0027  0.2613
  830MOL0     H14472   7.445   4.272   0.758 -0.5062  0.8516 -0.9765
  830MOL0     H14473   7.587   4.164   0.832  2.0718  0.4161 -0.9594
  830MOL0     H14474   7.581   4.049   0.692  0.0927 -2.3663 -0.0130
  830MOL0     H14475   7.656   4.000   0.982  0.9516  0.9397 -0.3206
  830MOL0     H14476   7.655   3.877   0.855 -0.5910  0.0565 -2.8778
  830MOL0     H14477   7.831   4.074   0.748 -0.0881 -2.3467 -1.1775
  830MOL0     H14478   7.848   4.092   0.926  0.0423 -0.5952  0.2727
  830MOL0     H14479   7.867   3.828   0.918 -0.7711 -1.4288 -1.4345
  830MOL0     H14480   7.906   3.856   0.749 -0.5407 -0.4725  0.3623
  830MOL0     H14481   8.075   3.976   0.981 -3.3192 -1.0751  0.7358
  830MOL0     H14482   8.106   4.001   0.810  0.6456 -2.7364 -3.4545
  830MOL0     H14483   8.092   3.718   0.926 -3.9169  1.5153 -2.3613
  830MOL0     H14484   8.129   3.763   0.767 -2.9796 -1.7727 -0.3084
  830MOL0     H14485   8.324   3.709   0.915  1.0032 -0.5540  2.6641
  830MOL0     H14486   8.282   3.828   1.033  0.1975 -1.4235  0.0540
  830MOL0     H14487   8.348   4.023   0.878  1.2685  1.1120  0.2030
  830MOL0     H14488   8.467   3.892   0.889 -1.1709 -2.3908  0.5620
  830MOL0     H14489   8.490   3.719   0.702 -0.4307 -0.5965 -0.5604
  830MOL0     H14490   8.390   3.715   0.331  0.7096  2.8835  1.2387
  830MOL0     H14491   8.445   3.599   0.451 -2.1137 -1.3224 -3.1693
  830MOL0     H14492   8.637   3.675   0.325  0.3121 -1.8575  2.5073
  830MOL0     H14493   8.595   3.854   0.355 -1.6108 -1.5676 -2.8596
  830MOL0     H14494   8.701   3.848   0.558 -0.3098  0.0795 -0.5932
  830MOL0     H14495   8.679   3.668   0.574 -0.1445  0.5008 -0.5196
  830MOL0     H14496   8.884   3.780   0.387 -0.9683  0.1862  0.1913
  830MOL0     H14497   8.903   3.711   0.552  0.7285 -0.8584 -0.2795
  830MOL0     H14498   8.833   3.347   0.299 -1.4893 -0.3920  2.7033
  830MOL0     H14499   9.063   3.070   0.281  0.1401 -0.1037 -1.7799
  830MOL0     H14500   8.936   3.151   0.201  1.5570 -2.2398 -1.4650
  830MOL0     H14501   8.904   3.072   0.353  1.2480  0.1130  1.0840
  830MOL0     H14502   9.345   3.011   0.700 -0.4991 -1.5788 -0.6366
  830MOL0     H14503   9.521   2.878   0.759 -1.3716  1.4544  0.3139
  830MOL0     H14504   9.746   2.919   0.881  1.7247  0.1300  1.1786
  830MOL0     H14505   9.745   2.754   0.837 -0.5289 -1.0401 -1.6917
  830MOL0     H14506  10.003   2.806   0.781  1.5771  0.2703  0.9905
  830MOL0     H14507   9.968   2.949   0.873 -2.4063  0.6092 -0.8837
  830MOL0     H14508   9.897   2.696   1.020 -0.3523  1.5613  4.8099
  830MOL0     H14509   9.950   2.855   1.072  0.4838  1.1324 -0.7976
  830MOL0     H14510  10.148   2.653   0.964  1.7448  1.4887 -0.9743
  830MOL0     H14511  10.116   2.699   1.124 -0.0704 -1.4006 -0.4309
  830MOL0     H14512  10.237   2.890   0.920 -0.7197  3.1125  0.7152
  830MOL0     H14513  10.186   2.937   1.087  2.3827  0.4822  0.5793
  830MOL0     H14514  10.346   2.783   1.181  0.6947  0.4992 -0.4880
  830MOL0     H14515  10.416   2.905   1.077  1.5606 -0.6971  3.5786
  830MOL0     H14516  10.424   2.743   0.883 -0.4699  0.3523  0.7164
  830MOL0     H14517  10.401   2.610   0.999  0.4656 -0.3832 -1.9794
  830MOL0     H14518  10.625   2.628   0.972 -2.8246 -0.6208 -2.3021
  830MOL0     H14519  10.607   2.712   1.128  1.9664  1.7606 -0.7278
  830MOL0     H14520   9.785   3.095   0.493 -1.2314  1.4569 -1.4053
  830MOL0     H14521   9.606   3.256   0.450  3.6758 -1.1740 -0.4512
  830MOL0     H14522   9.218   3.400   0.594 -0.7207 -1.2623  1.5842
  830MOL0     H14523   9.076   3.585   0.565  0.9936 -0.0409 -1.3097
  830MOL0     H14524   7.192   3.932   0.852 -2.7291  0.2973 -0.4300
  830MOL0     H14525   6.994   4.055   0.778 -1.9508  3.8004 -3.0337
  830MOL0     H14526   6.748   4.353   0.729  0.4884  1.7928 -1.0128
  830MOL0     H14527   6.518   4.425   0.658 -2.4681  1.2047 -2.6205
  830MOL0     H14528   6.415   4.490   0.259 -2.8375 -0.2765 -1.8351
  830MOL0     H14529   6.350   4.322   0.295 -0.8904  0.0981 -3.8666
  830MOL0     H14530   6.183   4.502   0.201 -0.6567 -0.6255 -0.1410
  830MOL0     H14531   6.222   4.586   0.353 -2.2976  2.1297 -3.0694
  830MOL0     H14532   6.108   4.311   0.352  0.2823 -0.1007 -1.3150
  830MOL0     H14533   6.111   4.423   0.485  1.4823 -0.3449  0.4795
  830MOL0     H14534   5.948   4.409   0.229 -0.0285  0.8705  0.3646
  830MOL0     H14535   5.970   4.566   0.305  2.2393  0.5179 -1.8367
  830MOL0     H14536   5.665   4.377   0.523  0.8865  0.0323  0.1943
  830MOL0     H14537   6.590   4.362   0.263 -3.0356  0.4192  1.5176
  830MOL0     H14538   6.761   4.221   0.186  0.2631  0.1640 -0.0268
  830MOL0     H14539   6.902   4.309   0.234  1.3825 -0.0601  1.9661
  830MOL0     H14540   6.857   4.137   0.291 -1.0101  0.4280  0.9388
  831MOL0     O14541   2.510   5.779  11.347  0.3332 -0.4153 -0.2020
  831MOL0     C14542   2.507   5.659  11.368 -0.7898  0.1118  0.2526
  831MOL0     O14543   2.613   5.582  11.370 -0.2631 -0.1871  0.1830
  831MOL0     C14544   2.718   5.628  11.295  0.2723  0.3714 -0.1220
  831MOL0     C14545   2.753   5.564  11.180  0.3864  1.1570  0.3560
  831MOL0     C14546   2.869   5.592  11.110 -0.3689  0.7333  0.6086
  831MOL0     C14547   2.952   5.691  11.158  0.5101  0.6864 -0.5248
  831MOL0     O14548   3.073   5.718  11.098  0.1123  0.5040 -0.4203
  831MOL0     C14549   3.091   5.685  10.958 -0.2557 -0.7155  0.0821
  831MOL0     C14550   3.212   5.759  10.887  0.0002 -0.3131 -0.6894
  831MOL0     C14551   3.336   5.731  10.967 -0.0273  0.6673  0.3192
  831MOL0     C14552   3.452   5.811  10.919  0.0902 -0.3438 -0.0110
  831MOL0     C14553   3.571   5.797  11.016  0.4380 -0.3737  0.1409
  831MOL0     C14554   3.686   5.896  10.977  0.0450 -0.2265  0.2393
  831MOL0     C14555   3.817   5.856  11.050 -0.3246 -0.3494 -0.8732
  831MOL0     C14556   3.941   5.943  10.999 -0.4904 -1.0714 -0.9539
  831MOL0     N14557   4.058   5.916  11.083 -0.3387 -0.1316  0.0078
  831MOL0     C14558   4.158   5.832  11.050 -0.3432 -0.0003  0.3968
  831MOL0     C14559   4.224   5.814  11.161  0.2413  0.2954  0.5456
  831MOL0     C14560   4.346   5.727  11.173 -0.1929  0.0059 -0.2069
  831MOL0     C14561   4.482   5.793  11.165 -0.0227 -0.3308  0.6046
  831MOL0     C14562   4.592   5.689  11.163  0.5600 -0.1870  0.0017
  831MOL0     C14563   4.727   5.753  11.123 -0.2699 -0.0858  0.4935
  831MOL0     O14564   4.789   5.850  11.207  0.3463  0.0709 -0.3041
  831MOL0     C14565   4.917   5.882  11.178 -0.4354 -0.4513 -0.3775
  831MOL0     C14566   4.975   5.959  11.280  0.5643  0.4216  0.6738
  831MOL0     C14567   5.108   5.992  11.282  0.3977  0.0130  1.3250
  831MOL0     C14568   5.147   6.064  11.402 -0.4628 -0.9219 -0.0234
  831MOL0     C14569   5.195   5.941  11.177  0.7129 -0.0954 -0.0152
  831MOL0     C14570   5.346   5.941  11.168 -0.5198 -0.1524  0.3607
  831MOL0     O14571   5.408   5.997  11.273  0.3954  0.4930  0.0326
  831MOL0     C14572   5.535   6.040  11.270 -0.6010 -0.0847  0.4103
  831MOL0     C14573   5.627   5.987  11.361  0.7313 -0.0900 -0.1630
  831MOL0     C14574   5.757   6.046  11.362 -0.6464  0.1633 -0.0117
  831MOL0     C14575   5.798   6.141  11.262  0.0461 -0.2554 -0.1302
  831MOL0     O14576   5.922   6.198  11.250  0.5297 -0.4326  0.6146
  831MOL0     C14577   6.008   6.179  11.360 -0.5058 -0.0089  0.3338
  831MOL0     C14578   6.143   6.240  11.331  0.1116 -0.5298  0.3579
  831MOL0     C14579   6.248   6.207  11.431  0.8542  0.3013  0.4328
  831MOL0     C14580   6.385   6.261  11.390 -0.9246 -0.5034 -0.0417
  831MOL0     C14581   6.486   6.234  11.504 -0.3515 -0.4694  0.3399
  831MOL0     C14582   6.630   6.267  11.467  0.5308  0.2391 -0.7431
  831MOL0     C14583   6.724   6.225  11.580 -0.2666  0.1422 -0.2225
  831MOL0     C14584   6.861   6.205  11.530  0.2398  0.0913 -1.1506
  831MOL0    Cl14585   6.879   6.082  11.404 -0.1967  0.2980 -0.3882
  831MOL0     C14586   5.709   6.190  11.168 -0.0594  0.6303 -0.0492
  831MOL0     C14587   5.579   6.143  11.180  0.0078 -0.4310 -0.7591
  831MOL0     O14588   5.400   5.884  11.069 -0.3224  0.0277 -0.5566
  831MOL0     C14589   5.129   5.864  11.070 -0.4447 -0.2119 -0.8472
  831MOL0     C14590   4.995   5.839  11.072  0.4321 -0.5083  0.1226
  831MOL0     N14591   4.181   5.902  11.258  0.1389 -0.0920  0.2277
  831MOL0     N14592   4.074   5.959  11.208  0.3342 -0.6069  0.0486
  831MOL0     C14593   2.918   5.759  11.276 -0.1103  0.2965 -0.1099
  831MOL0     C14594   2.805   5.728  11.345 -0.1141  0.7565  0.0246
  831MOL0     C14595   2.367   5.603  11.398 -0.5566  1.2388 -0.9093
  831MOL0     C14596   2.266   5.691  11.446 -0.7781  0.5754 -0.6357
  831MOL0     C14597   2.132   5.647  11.476  0.3219 -0.2142  0.4965
  831MOL0     C14598   2.103   5.511  11.487 -0.9722 -0.0281  0.4553
  831MOL0     O14599   1.986   5.451  11.525 -1.1404 -0.5468 -0.0203
  831MOL0     C14600   1.870   5.531  11.505  0.3348 -0.4824 -0.0695
  831MOL0     C14601   1.745   5.435  11.503  0.8697 -0.8643  0.3361
  831MOL0     C14602   1.738   5.352  11.378  0.0582  0.2181 -0.1238
  831MOL0     C14603   1.622   5.250  11.364  0.2023 -0.5210  0.4933
  831MOL0     C14604   1.490   5.306  11.399  0.4178  0.6092  0.2378
  831MOL0     C14605   1.382   5.347  11.439  0.5719  0.2841 -0.3947
  831MOL0     C14606   2.209   5.419  11.450  0.2070 -0.8801  0.1080
  831MOL0     C14607   2.335   5.461  11.401  0.5159  0.1002 -0.1705
  831MOL0     C14608   2.419   5.347  11.358  0.6752 -0.2900  0.6231
  831MOL0     H14609   2.681   5.496  11.137  1.8955 -0.3323  0.0758
  831MOL0     H14610   2.897   5.540  11.019  2.0023  0.6369  1.3141
  831MOL0     H14611   2.995   5.722  10.918 -0.3304  0.1000  0.9716
  831MOL0     H14612   3.102   5.578  10.944 -0.6654 -0.7386 -0.0732
  831MOL0     H14613   3.224   5.740  10.780  1.4737  2.0183 -1.0059
  831MOL0     H14614   3.187   5.865  10.897 -0.4190 -0.6098  2.3222
  831MOL0     H14615   3.317   5.741  11.074  0.9448 -0.2766  0.6019
  831MOL0     H14616   3.359   5.625  10.954  0.4349  0.6033  1.5829
  831MOL0     H14617   3.498   5.782  10.824 -0.5936 -0.3104 -0.3570
  831MOL0     H14618   3.414   5.913  10.910  2.1119  0.2626 -2.9156
  831MOL0     H14619   3.604   5.696  10.990 -2.2452 -0.6868 -2.6418
  831MOL0     H14620   3.542   5.801  11.121 -0.1390 -0.8973  0.0076
  831MOL0     H14621   3.698   5.903  10.868  3.8399 -2.3795  0.3182
  831MOL0     H14622   3.648   5.986  11.025 -3.8289 -2.5931  2.1189
  831MOL0     H14623   3.854   5.756  11.026 -0.4942 -1.3283  2.3999
  831MOL0     H14624   3.797   5.869  11.157 -0.3462  2.7877 -1.1443
  831MOL0     H14625   3.959   5.933  10.892  2.0728  0.3370 -0.7388
  831MOL0     H14626   3.913   6.048  11.005 -0.2851 -1.0826  0.5641
  831MOL0     H14627   4.160   5.794  10.948 -0.9198 -0.6503  0.6177
  831MOL0     H14628   4.332   5.657  11.090  2.2247 -1.3477  0.4637
  831MOL0     H14629   4.352   5.664  11.261  3.1422  1.5527  0.8531
  831MOL0     H14630   4.487   5.852  11.073  0.1850 -1.1666  0.0683
  831MOL0     H14631   4.503   5.866  11.244 -0.9734 -0.3341  0.8774
  831MOL0     H14632   4.603   5.656  11.267 -3.6664 -0.3044  0.5899
  831MOL0     H14633   4.551   5.608  11.102 -0.8339  0.6708 -0.2480
  831MOL0     H14634   4.802   5.674  11.112 -1.3581 -1.0967  0.2180
  831MOL0     H14635   4.709   5.806  11.029 -0.4500  1.9608  1.6169
  831MOL0     H14636   4.912   5.985  11.364  0.4330 -0.5425  0.8842
  831MOL0     H14637   5.060   6.084  11.465 -0.2333  1.5033 -0.3832
  831MOL0     H14638   5.200   6.156  11.376 -0.0026 -1.6024 -1.6206
  831MOL0     H14639   5.214   5.994  11.453 -0.4870 -1.7803 -1.1117
  831MOL0     H14640   5.609   5.917  11.443  0.2323  0.9437  0.6365
  831MOL0     H14641   5.824   6.007  11.437  1.7371 -1.2705 -2.6778
  831MOL0     H14642   5.975   6.225  11.454 -0.0992  1.8459 -0.3982
  831MOL0     H14643   6.020   6.072  11.378 -1.9078  0.0807  2.1648
  831MOL0     H14644   6.173   6.208  11.230 -0.1637  0.5188 -0.0694
  831MOL0     H14645   6.131   6.349  11.329  2.1367 -0.1842  2.8671
  831MOL0     H14646   6.253   6.098  11.440 -3.2315 -0.0137  0.4933
  831MOL0     H14647   6.216   6.253  11.525 -1.1247 -1.5435  0.7348
  831MOL0     H14648   6.388   6.369  11.375 -1.5350 -0.3142  1.1557
  831MOL0     H14649   6.418   6.210  11.298  0.2870 -0.8204  0.5499
  831MOL0     H14650   6.464   6.294  11.594 -2.5984 -0.2089 -0.3191
  831MOL0     H14651   6.477   6.129  11.533  0.8978 -0.3434  1.2858
  831MOL0     H14652   6.641   6.371  11.434  1.8151 -0.3530 -2.3028
  831MOL0     H14653   6.647   6.199  11.383  0.9637 -3.1199  1.8532
  831MOL0     H14654   6.689   6.132  11.624  1.3751  0.2071  1.3096
  831MOL0     H14655   6.734   6.307  11.652  0.7486  0.8927 -1.1924
  831MOL0     H14656   6.926   6.170  11.612 -0.1761  0.0534 -0.8324
  831MOL0     H14657   6.904   6.296  11.488  2.4277 -0.9864 -1.4162
  831MOL0     H14658   5.739   6.257  11.088 -0.3755 -0.0233 -0.7195
  831MOL0     H14659   5.504   6.175  11.108  1.0706 -1.0628 -2.1970
  831MOL0     H14660   5.188   5.823  10.989  2.4860  1.1545  0.4212
  831MOL0     H14661   4.956   5.784  10.987  1.2178 -1.8986  0.6355
  831MOL0     H14662   2.989   5.836  11.304  0.3719 -0.1450 -0.0905
  831MOL0     H14663   2.774   5.769  11.440 -2.8448 -0.3894 -0.2758
  831MOL0     H14664   2.292   5.796  11.454  0.5828  0.2083  0.1545
  831MOL0     H14665   2.057   5.714  11.516 -0.2235  0.8608 -2.0966
  831MOL0     H14666   1.867   5.602  11.588  0.5886 -1.1798  0.5471
  831MOL0     H14667   1.883   5.590  11.414  5.5934  1.1461  1.4119
  831MOL0     H14668   1.663   5.505  11.514  1.6029  0.4233 -1.7204
  831MOL0     H14669   1.734   5.376  11.594 -1.3689 -0.6843  0.2370
  831MOL0     H14670   1.728   5.421  11.293 -5.0619  2.0019  1.5593
  831MOL0     H14671   1.826   5.288  11.378 -0.5798 -1.0281  4.7225
  831MOL0     H14672   1.640   5.162  11.426  1.3701 -1.1902 -0.7684
  831MOL0     H14673   1.610   5.222  11.259 -2.4799  2.3455 -0.1258
  831MOL0     H14674   1.292   5.391  11.478  1.1635  0.8633  0.3643
  831MOL0     H14675   2.190   5.313  11.462  2.5220 -1.2619  0.9973
  831MOL0     H14676   2.412   5.347  11.249  1.9215  0.6637  0.5199
  831MOL0     H14677   2.524   5.352  11.389  1.1931  3.1381 -1.2657
  831MOL0     H14678   2.378   5.249  11.385 -0.4802  0.0337  0.1062
  832MOL0     O14679   4.214  10.226   6.047 -0.0893  0.0560 -0.3038
  832MOL0     C14680   4.154  10.247   6.148 -0.0748  0.0843  0.0218
  832MOL0     O14681   4.204  10.304   6.270 -0.4860  0.4640  1.0971
  832MOL0     C14682   4.340  10.336   6.261  0.1290 -0.0845  0.4760
  832MOL0     C14683   4.400  10.441   6.181  0.5950  0.5782  0.0370
  832MOL0     C14684   4.533  10.471   6.187 -0.3877  0.2282  0.1401
  832MOL0     C14685   4.616  10.389   6.263 -0.4532  0.4545  0.1321
  832MOL0     O14686   4.753  10.412   6.263 -0.2437  0.6828 -0.2984
  832MOL0     C14687   4.809  10.540   6.241  0.6849 -0.2052  0.5438
  832MOL0     C14688   4.956  10.539   6.275 -0.3260 -0.3223 -0.0825
  832MOL0     C14689   5.014  10.676   6.250 -0.0678 -0.6436  0.4217
  832MOL0     C14690   5.163  10.683   6.283  0.4501  0.1646  0.1346
  832MOL0     C14691   5.237  10.793   6.205 -0.1488 -0.1181 -0.0199
  832MOL0     C14692   5.380  10.823   6.244 -0.1440 -0.0916  0.3451
  832MOL0     C14693   5.439  10.934   6.159 -0.4251 -0.2174 -0.5960
  832MOL0     C14694   5.596  10.912   6.164 -0.5446  0.1260 -0.4548
  832MOL0     N14695   5.672  10.910   6.294 -0.4467  0.2744 -0.2145
  832MOL0     C14696   5.759  11.006   6.334  0.4575  0.4469 -0.0025
  832MOL0     C14697   5.789  10.977   6.462 -0.0573 -0.0511  0.1109
  832MOL0     C14698   5.890  11.051   6.548  0.4298 -0.0829  0.9715
  832MOL0     C14699   6.029  11.014   6.515 -0.5688 -0.1135 -0.6881
  832MOL0     C14700   6.122  11.099   6.596  0.4462 -0.0524 -0.9039
  832MOL0     C14701   6.261  11.088   6.537 -0.5348  0.2198  0.7645
  832MOL0     O14702   6.271  11.127   6.397 -0.9230  0.0500  0.5403
  832MOL0     C14703   6.382  11.091   6.318  0.4111 -0.0089  0.3532
  832MOL0     C14704   6.372  11.111   6.179  0.4946 -0.2164  0.7482
  832MOL0     C14705   6.477  11.099   6.093  0.2807 -0.0332 -0.6865
  832MOL0     C14706   6.450  11.149   5.945  0.1145 -0.2500  0.6311
  832MOL0     C14707   6.599  11.062   6.144 -0.3982  0.3693 -0.3296
  832MOL0     C14708   6.726  11.046   6.058 -0.2195 -0.4030 -0.3946
  832MOL0     O14709   6.830  10.990   6.126 -0.1875  0.2425 -0.4741
  832MOL0     C14710   6.965  10.984   6.080 -0.3873 -0.5594  0.2995
  832MOL0     C14711   7.024  11.089   6.013 -0.1597 -0.7021 -0.3991
  832MOL0     C14712   7.159  11.084   5.981  0.0911  0.1990  0.1527
  832MOL0     C14713   7.231  10.970   6.010  0.8276  0.8345 -0.0672
  832MOL0     O14714   7.356  10.978   5.971 -0.1292  0.0810  0.3415
  832MOL0     C14715   7.445  10.880   6.015  0.4564  0.3796 -0.5462
  832MOL0     C14716   7.588  10.915   5.983 -0.3200 -0.4010 -0.6346
  832MOL0     C14717   7.701  10.805   5.988 -0.0339 -0.3513 -0.0361
  832MOL0     C14718   7.816  10.833   5.897  0.9385 -0.1962 -0.1677
  832MOL0     C14719   7.891  10.693   5.891  0.1294 -0.3904 -0.7260
  832MOL0     C14720   8.002  10.682   5.788 -0.8853 -1.4603  0.4373
  832MOL0     C14721   8.067  10.539   5.772  0.4623 -0.3021 -0.6968
  832MOL0     C14722   8.109  10.481   5.906  0.1434  0.1880 -0.0366
  832MOL0    Cl14723   8.191  10.328   5.867 -0.4496  0.0667 -0.0687
  832MOL0     C14724   7.166  10.860   6.074 -0.1265 -0.6033 -0.4842
  832MOL0     C14725   7.032  10.870   6.107 -0.1975  0.2553 -0.3634
  832MOL0     O14726   6.737  11.105   5.950 -0.4443 -0.3245  0.6831
  832MOL0     C14727   6.612  11.030   6.280  0.4568 -0.1891  0.4368
  832MOL0     C14728   6.500  11.047   6.369 -0.3764  0.2723 -0.0446
  832MOL0     N14729   5.738  10.851   6.477 -0.2466 -0.2658 -0.2837
  832MOL0     N14730   5.677  10.812   6.375  0.3298  0.2744  0.1184
  832MOL0     C14731   4.561  10.295   6.353  0.3885  0.2197  0.9989
  832MOL0     C14732   4.417  10.268   6.352 -0.9330  0.1329  0.1589
  832MOL0     C14733   4.004  10.215   6.145 -0.1557  0.6937  0.3378
  832MOL0     C14734   3.936  10.233   6.266  0.3257 -0.6792 -0.0441
  832MOL0     C14735   3.797  10.201   6.279 -0.4421  0.0754 -0.3453
  832MOL0     C14736   3.725  10.143   6.175 -0.6155  0.4143  0.8791
  832MOL0     O14737   3.596  10.085   6.184 -0.4568 -0.0226  0.2318
  832MOL0     C14738   3.500  10.139   6.275  0.4748 -0.0846 -0.2677
  832MOL0     C14739   3.470  10.289   6.243  0.0176 -0.2270  0.6513
  832MOL0     C14740   3.446  10.318   6.091  0.6864 -0.2234 -0.1723
  832MOL0     C14741   3.337  10.235   6.027  0.5025  0.6466 -0.9363
  832MOL0     C14742   3.205  10.267   6.084 -0.1996  0.2623 -0.1698
  832MOL0     C14743   3.096  10.305   6.129 -0.0191  0.4035  0.4760
  832MOL0     C14744   3.790  10.117   6.057 -0.5104  0.4917  0.4661
  832MOL0     C14745   3.932  10.149   6.042 -0.0507  0.5903  0.0400
  832MOL0     C14746   3.985  10.099   5.911 -0.2487  0.3122 -0.0267
  832MOL0     H14747   4.332  10.506   6.127  0.6284 -0.0451 -0.7639
  832MOL0     H14748   4.569  10.554   6.127 -2.2501  0.3948 -0.8179
  832MOL0     H14749   4.762  10.612   6.307  1.6917 -0.9375  2.1320
  832MOL0     H14750   4.787  10.575   6.140  1.7260  0.8141  0.6550
  832MOL0     H14751   4.963  10.505   6.379 -0.0207 -0.1297 -0.0367
  832MOL0     H14752   5.000  10.459   6.214 -0.6235 -0.4271 -0.1580
  832MOL0     H14753   4.999  10.715   6.149  1.7002 -1.5421 -0.2180
  832MOL0     H14754   4.963  10.744   6.320 -5.0845 -2.9814 -0.4863
  832MOL0     H14755   5.183  10.708   6.387  1.6892  2.3156 -0.5499
  832MOL0     H14756   5.211  10.587   6.261 -0.7457 -1.6184  4.3010
  832MOL0     H14757   5.183  10.888   6.212  0.5862  0.4486 -1.6077
  832MOL0     H14758   5.227  10.768   6.099 -0.7795  0.5345 -0.1202
  832MOL0     H14759   5.390  10.843   6.351 -1.0096  1.2080  0.2171
  832MOL0     H14760   5.431  10.731   6.217 -1.9092 -0.7069 -1.1927
  832MOL0     H14761   5.421  11.036   6.195 -0.9511 -1.8261  4.4799
  832MOL0     H14762   5.409  10.933   6.054  2.4642 -0.6078 -1.5132
  832MOL0     H14763   5.631  10.826   6.107 -1.3245 -1.1364  0.8865
  832MOL0     H14764   5.641  11.001   6.119  2.4972  0.9744  3.6135
  832MOL0     H14765   5.792  11.094   6.279 -0.5015  0.2884 -0.8657
  832MOL0     H14766   5.872  11.040   6.656  0.5597 -0.9548  0.9121
  832MOL0     H14767   5.882  11.156   6.520 -4.3101 -0.5095 -0.2497
  832MOL0     H14768   6.044  10.908   6.536 -0.4124  0.1565  0.6863
  832MOL0     H14769   6.034  11.029   6.407 -1.1551 -2.2683 -1.0573
  832MOL0     H14770   6.088  11.203   6.598 -0.0570 -0.2105 -1.0842
  832MOL0     H14771   6.133  11.051   6.694  0.5370 -1.7760 -1.7273
  832MOL0     H14772   6.329  11.159   6.585 -3.5302  2.6637  1.6439
  832MOL0     H14773   6.304  10.989   6.554  1.7524  1.3066  1.9050
  832MOL0     H14774   6.275  11.143   6.141  0.7184 -2.1294 -1.6390
  832MOL0     H14775   6.483  11.070   5.877  3.2330 -0.8154  2.5763
  832MOL0     H14776   6.510  11.237   5.921 -2.7089  2.0395  1.3928
  832MOL0     H14777   6.346  11.180   5.934 -0.4946 -0.0728  5.1494
  832MOL0     H14778   6.961  11.177   6.005 -0.3797 -0.7142  0.9432
  832MOL0     H14779   7.199  11.170   5.926 -0.9233  0.3316 -0.4158
  832MOL0     H14780   7.448  10.866   6.123 -1.6354  1.0712 -0.3489
  832MOL0     H14781   7.421  10.782   5.972  0.3547 -1.1397  2.6594
  832MOL0     H14782   7.595  10.975   5.892 -1.1043  0.3914 -0.1845
  832MOL0     H14783   7.620  10.989   6.056 -1.7642  0.1097 -0.4865
  832MOL0     H14784   7.661  10.703   5.978 -0.4052 -0.1405 -0.8042
  832MOL0     H14785   7.742  10.805   6.089 -0.5013 -1.0166  0.1633
  832MOL0     H14786   7.881  10.912   5.936  1.3220 -0.5619 -0.0618
  832MOL0     H14787   7.784  10.854   5.794  0.7231 -1.1295 -0.3006
  832MOL0     H14788   7.928  10.678   5.993  0.1346 -1.1207 -0.8287
  832MOL0     H14789   7.815  10.620   5.862 -0.4846  0.4621 -1.3150
  832MOL0     H14790   8.087  10.740   5.824 -0.0714 -2.4965  0.2163
  832MOL0     H14791   7.974  10.720   5.689  0.3863  0.4458  0.7557
  832MOL0     H14792   8.163  10.549   5.722  0.5169  3.4578 -0.1316
  832MOL0     H14793   7.996  10.471   5.725 -0.8893  1.6653 -1.6680
  832MOL0     H14794   8.025  10.465   5.975 -1.0270  1.6233 -1.0600
  832MOL0     H14795   8.172  10.546   5.968 -1.2534 -0.5200  2.2474
  832MOL0     H14796   7.225  10.769   6.083  0.1492 -0.8921 -4.0668
  832MOL0     H14797   6.985  10.780   6.146  5.1571 -2.2963  1.1758
  832MOL0     H14798   6.704  11.014   6.335 -0.7381  2.1452  3.3468
  832MOL0     H14799   6.509  11.035   6.476  2.3726 -0.0658 -0.2381
  832MOL0     H14800   4.629  10.233   6.411 -0.6714 -0.6164  1.3786
  832MOL0     H14801   4.371  10.199   6.422 -0.6960 -1.6560 -1.3805
  832MOL0     H14802   3.975  10.279   6.357 -0.3470 -0.2437  0.0322
  832MOL0     H14803   3.755  10.226   6.376 -1.5431  2.8506 -1.4516
  832MOL0     H14804   3.403  10.091   6.262 -0.1723  1.3266 -0.8674
  832MOL0     H14805   3.533  10.127   6.379  1.4937 -0.2751 -0.6030
  832MOL0     H14806   3.550  10.353   6.280  0.6777  0.0205 -1.1436
  832MOL0     H14807   3.379  10.310   6.301  1.3028 -0.5106  2.9210
  832MOL0     H14808   3.424  10.422   6.066 -1.9319 -1.0074 -1.5762
  832MOL0     H14809   3.539  10.299   6.037  0.2751 -3.0850 -0.0448
  832MOL0     H14810   3.357  10.128   6.042 -2.0403  0.1489 -0.6900
  832MOL0     H14811   3.337  10.245   5.918 -1.6558 -2.8077 -1.3889
  832MOL0     H14812   3.000  10.344   6.156 -0.7589 -1.5670  0.8229
  832MOL0     H14813   3.728  10.088   5.972  0.8540  1.1235 -0.8003
  832MOL0     H14814   3.903  10.046   5.860 -1.5331  1.1788  1.0632
  832MOL0     H14815   4.017  10.190   5.862  1.7101 -0.1181  0.3871
  832MOL0     H14816   4.068  10.028   5.911 -0.4093  0.1200 -0.5908
  833MOL0     O14817  10.662   2.283   6.654 -0.3481 -0.3873 -0.3158
  833MOL0     C14818  10.598   2.381   6.624 -0.2025  0.8014 -1.1732
  833MOL0     O14819  10.642   2.498   6.562 -0.2109 -0.6136  0.4046
  833MOL0     C14820  10.768   2.509   6.515  1.0025 -0.2435 -0.0804
  833MOL0     C14821  10.890   2.494   6.583  0.9214 -0.3833 -1.0711
  833MOL0     C14822  11.018   2.518   6.540 -1.2274  0.9156  0.6071
  833MOL0     C14823  11.033   2.558   6.407  0.2383  0.4835  0.0351
  833MOL0     O14824  11.152   2.561   6.344  0.6321  0.1435 -0.9148
  833MOL0     C14825  11.273   2.582   6.419 -0.2516  0.1183 -0.2679
  833MOL0     C14826  11.391   2.568   6.323 -0.5942 -0.8821  0.4375
  833MOL0     C14827  11.528   2.618   6.373 -0.4860 -0.3830  0.4277
  833MOL0     C14828  11.633   2.626   6.264 -0.6041  0.0461  0.1977
  833MOL0     C14829  11.745   2.729   6.292  0.1708 -0.8568 -0.5953
  833MOL0     C14830  11.838   2.679   6.395 -0.1115 -0.2948  0.4214
  833MOL0     C14831  11.974   2.751   6.400  0.1141 -0.1748  1.0277
  833MOL0     C14832  11.958   2.893   6.344  0.4370  0.1530  0.2180
  833MOL0     N14833  12.081   2.965   6.362  0.4105 -0.1823 -0.0272
  833MOL0     C14834  12.161   3.013   6.265  0.3521  0.0666  0.8422
  833MOL0     C14835  12.274   3.060   6.325 -0.2388  0.3790 -0.8777
  833MOL0     C14836  12.405   3.109   6.258 -0.5978  0.3779  0.3685
  833MOL0     C14837  12.393   3.142   6.109  0.8094 -0.6515 -0.0165
  833MOL0     C14838  12.514   3.225   6.056 -0.3794 -0.4145  0.0604
  833MOL0     C14839  12.521   3.212   5.901 -0.0368  0.2992 -0.6472
  833MOL0     O14840  12.629   3.288   5.847  0.5334  0.5699 -0.1151
  833MOL0     C14841  12.628   3.420   5.855 -0.8220  0.3237 -1.0566
  833MOL0     C14842  12.522   3.501   5.876  0.4927 -0.4051 -0.5979
  833MOL0     C14843  12.535   3.638   5.890 -0.5861 -0.4698  0.1700
  833MOL0     C14844  12.404   3.711   5.911 -0.7556  0.2086 -0.0111
  833MOL0     C14845  12.664   3.697   5.869 -0.0232  0.2254  0.8179
  833MOL0     C14846  12.702   3.840   5.875  0.5164  0.1423  0.3186
  833MOL0     O14847  12.837   3.863   5.870 -0.0119  0.1139  0.1824
  833MOL0     C14848  12.878   3.999   5.858 -0.1368 -0.0317  0.6105
  833MOL0     C14849  12.868   4.084   5.972  0.2743 -0.2333  0.3866
  833MOL0     C14850  12.920   4.216   5.966  0.9136  0.2521  0.3762
  833MOL0     C14851  12.987   4.268   5.848  0.4968  0.5593  0.6918
  833MOL0     O14852  13.039   4.391   5.859 -0.3017 -0.4460  0.4079
  833MOL0     C14853  13.121   4.450   5.752  0.3011 -0.1646  0.1352
  833MOL0     C14854  13.147   4.591   5.784 -1.1613  0.3512 -0.2053
  833MOL0     C14855  13.259   4.626   5.886 -0.0115  0.4428  0.6867
  833MOL0     C14856  13.250   4.775   5.911  0.2138  0.7132  0.1874
  833MOL0     C14857  13.349   4.815   6.020  0.1118 -0.6768 -0.2030
  833MOL0     C14858  13.495   4.773   5.993  0.2352 -0.0849  0.2736
  833MOL0     C14859  13.586   4.828   6.092 -0.0111 -0.3938 -0.6172
  833MOL0     C14860  13.737   4.796   6.055  1.0898 -0.4977 -0.6991
  833MOL0    Cl14861  13.848   4.859   6.179  0.0853  0.4214 -0.0241
  833MOL0     C14862  12.979   4.186   5.734  0.3911  0.5871  1.3201
  833MOL0     C14863  12.929   4.055   5.742 -0.3451 -0.2047  0.0878
  833MOL0     O14864  12.615   3.929   5.867  0.1519 -0.0404 -0.8217
  833MOL0     C14865  12.768   3.609   5.851 -0.1335  0.1395  0.2923
  833MOL0     C14866  12.753   3.476   5.843  0.5389 -0.0653  0.1237
  833MOL0     N14867  12.258   3.053   6.461 -0.2724 -0.6041 -0.2415
  833MOL0     N14868  12.144   3.004   6.482  0.8505  0.2215  0.2007
  833MOL0     C14869  10.914   2.571   6.332 -0.5286  0.2722  0.4510
  833MOL0     C14870  10.785   2.550   6.382  0.0290  0.2467 -0.7559
  833MOL0     C14871  10.460   2.392   6.667  0.6628  0.0886  0.5369
  833MOL0     C14872  10.351   2.446   6.581 -0.5313  0.1397 -0.7137
  833MOL0     C14873  10.219   2.425   6.617 -0.5898 -0.3550 -0.1058
  833MOL0     C14874  10.181   2.374   6.733 -0.2540 -0.6623  0.8304
  833MOL0     O14875  10.051   2.395   6.771 -0.4593 -0.5368 -0.7986
  833MOL0     C14876  10.022   2.442   6.909  0.0420  0.5035  0.2877
  833MOL0     C14877   9.876   2.469   6.941  0.4992 -0.2849  1.1065
  833MOL0     C14878   9.828   2.580   6.844  0.0091 -0.1757  1.0190
  833MOL0     C14879   9.709   2.671   6.884 -0.5955  0.7795 -0.0419
  833MOL0     C14880   9.599   2.593   6.934  0.2914  0.0622  0.2640
  833MOL0     C14881   9.515   2.526   6.989 -0.4730 -0.8601  0.2895
  833MOL0     C14882  10.282   2.334   6.819  0.9038 -0.1793  0.2123
  833MOL0     C14883  10.418   2.334   6.790 -0.0147  0.2115 -0.0111
  833MOL0     C14884  10.515   2.301   6.902  0.2304 -0.2030  0.4666
  833MOL0     H14885  10.888   2.473   6.689  0.4739 -1.7888 -1.3365
  833MOL0     H14886  11.101   2.502   6.608 -0.1251 -0.8145 -1.0290
  833MOL0     H14887  11.277   2.508   6.501 -0.8539  1.6166  1.1654
  833MOL0     H14888  11.280   2.684   6.456  2.1400  0.5329 -1.6475
  833MOL0     H14889  11.409   2.463   6.298 -1.0875 -0.9777  0.4741
  833MOL0     H14890  11.373   2.616   6.227  1.5498 -0.8140  0.0250
  833MOL0     H14891  11.510   2.724   6.397  1.0516  0.0743 -0.3550
  833MOL0     H14892  11.563   2.558   6.458 -3.3619 -1.9719  0.6266
  833MOL0     H14893  11.675   2.526   6.252 -1.3084 -0.7180  3.1725
  833MOL0     H14894  11.581   2.638   6.169  0.5342 -0.0544 -0.4586
  833MOL0     H14895  11.684   2.816   6.317  2.4707  1.3539 -2.2423
  833MOL0     H14896  11.791   2.746   6.195 -1.5702 -0.9416 -1.4780
  833MOL0     H14897  11.789   2.680   6.492 -0.9127  0.2051  0.0224
  833MOL0     H14898  11.853   2.575   6.364 -1.6950 -0.7764  1.2137
  833MOL0     H14899  12.053   2.698   6.346 -0.8918 -2.1915  1.4406
  833MOL0     H14900  12.009   2.741   6.503  0.2386 -3.9511  0.7419
  833MOL0     H14901  11.936   2.891   6.237 -1.8190  1.9395  0.5600
  833MOL0     H14902  11.881   2.951   6.395  1.6773  1.3911  0.7475
  833MOL0     H14903  12.146   3.004   6.158  2.0420  1.9766  0.3883
  833MOL0     H14904  12.478   3.028   6.260 -0.1264  0.7108 -1.5749
  833MOL0     H14905  12.436   3.197   6.314  4.8112 -1.1220  0.2481
  833MOL0     H14906  12.374   3.053   6.048 -1.9112 -0.6096  0.6221
  833MOL0     H14907  12.310   3.212   6.096 -0.7988 -2.4904 -0.1986
  833MOL0     H14908  12.508   3.326   6.097 -0.8601  0.5694 -2.2790
  833MOL0     H14909  12.610   3.191   6.097  0.4991  1.6195 -0.2234
  833MOL0     H14910  12.546   3.107   5.881  1.4258  0.2707  1.0920
  833MOL0     H14911  12.421   3.230   5.862 -0.9708  0.3610  1.6665
  833MOL0     H14912  12.424   3.457   5.886 -0.5889  1.7811 -0.9540
  833MOL0     H14913  12.398   3.751   6.013  0.7935 -1.1962  0.6749
  833MOL0     H14914  12.318   3.643   5.904 -1.1967  0.8283 -0.7158
  833MOL0     H14915  12.395   3.792   5.839 -2.6050 -0.2674 -0.3714
  833MOL0     H14916  12.817   4.044   6.059 -1.5774  2.3489  0.5964
  833MOL0     H14917  12.913   4.281   6.053  0.3280 -1.4394  1.6463
  833MOL0     H14918  13.218   4.401   5.741  0.4181 -0.5871  2.4412
  833MOL0     H14919  13.076   4.443   5.653  1.1440 -1.4113 -0.1868
  833MOL0     H14920  13.173   4.649   5.695 -1.5046  0.2418 -0.3754
  833MOL0     H14921  13.053   4.628   5.825 -1.2352  1.5511 -1.3892
  833MOL0     H14922  13.352   4.596   5.836 -2.1393 -2.6273 -1.7799
  833MOL0     H14923  13.244   4.557   5.970 -0.6849 -1.3066 -0.8108
  833MOL0     H14924  13.149   4.801   5.943 -0.9230 -0.6088 -2.0856
  833MOL0     H14925  13.283   4.826   5.820  0.1536  1.2333  0.4520
  833MOL0     H14926  13.351   4.925   6.018  0.0107 -0.5582  2.2240
  833MOL0     H14927  13.305   4.786   6.116 -1.0619  1.9533  0.1613
  833MOL0     H14928  13.525   4.819   5.898  1.1409  3.0377  1.9323
  833MOL0     H14929  13.513   4.665   5.985 -2.6193 -0.4904 -2.9347
  833MOL0     H14930  13.560   4.788   6.191 -2.0588 -3.5883 -2.2720
  833MOL0     H14931  13.580   4.937   6.095 -1.0905 -0.1327 -5.1756
  833MOL0     H14932  13.760   4.842   5.959  0.1643 -0.5445 -0.9538
  833MOL0     H14933  13.748   4.687   6.054 -0.6929 -0.7793  1.5117
  833MOL0     H14934  13.024   4.225   5.643  1.3906  1.1076  2.0243
  833MOL0     H14935  12.919   4.005   5.646  1.8739  0.2641 -0.4598
  833MOL0     H14936  12.873   3.637   5.854 -0.4191  1.2471  0.3663
  833MOL0     H14937  12.837   3.408   5.836 -0.4160 -1.5402  2.0237
  833MOL0     H14938  10.929   2.608   6.231 -1.7230  0.5557  0.3615
  833MOL0     H14939  10.695   2.586   6.333  0.1669  0.8908 -0.5529
  833MOL0     H14940  10.392   2.493   6.492  4.9540 -2.6665 -0.0716
  833MOL0     H14941  10.154   2.466   6.541 -2.2901  0.3614  1.6488
  833MOL0     H14942  10.066   2.369   6.977  2.0571 -0.6396 -2.0482
  833MOL0     H14943  10.079   2.532   6.932  0.5235  0.4606 -0.6396
  833MOL0     H14944   9.872   2.517   7.039  1.0085 -3.0405  2.5518
  833MOL0     H14945   9.817   2.377   6.936 -1.4280  0.8962  0.9051
  833MOL0     H14946   9.904   2.656   6.826 -1.8086  1.7767  1.1969
  833MOL0     H14947   9.810   2.529   6.748 -1.2575 -0.6979  1.5117
  833MOL0     H14948   9.684   2.732   6.796  2.0386 -0.9418 -2.1784
  833MOL0     H14949   9.747   2.742   6.958  1.1399  1.3551 -1.4040
  833MOL0     H14950   9.453   2.460   7.047  2.7285 -3.2580  1.3215
  833MOL0     H14951  10.239   2.304   6.914  0.0969 -0.0155 -0.0916
  833MOL0     H14952  10.455   2.236   6.966 -2.5162  1.6496 -0.0433
  833MOL0     H14953  10.607   2.248   6.877  0.8136  1.4408 -1.1590
  833MOL0     H14954  10.532   2.393   6.958 -2.4938  1.7461 -1.6401
  834MOL0     O14955   6.110  10.366   9.015 -0.2621  0.2633  0.2338
  834MOL0     C14956   6.055  10.267   8.969  0.3566  0.0428 -0.6455
  834MOL0     O14957   6.110  10.145   8.937  0.0885 -0.5719  0.0385
  834MOL0     C14958   6.250  10.147   8.919 -0.1221 -0.0165  0.4313
  834MOL0     C14959   6.329  10.133   9.044 -0.7463 -0.1079  0.0305
  834MOL0     C14960   6.464  10.140   9.032 -0.3705  0.0945 -0.1382
  834MOL0     C14961   6.526  10.166   8.910 -0.5048  0.1570 -1.1982
  834MOL0     O14962   6.663  10.174   8.899 -0.2812  0.6902 -0.4524
  834MOL0     C14963   6.720  10.268   8.993  1.3392 -0.6268 -0.8863
  834MOL0     C14964   6.859  10.321   8.941 -0.0600 -0.2649  0.5671
  834MOL0     C14965   6.904  10.461   9.007  0.1538  0.1677 -1.3824
  834MOL0     C14966   6.965  10.573   8.925  0.4425  0.0994 -0.1263
  834MOL0     C14967   7.098  10.526   8.862 -0.0388  0.2380  0.0139
  834MOL0     C14968   7.187  10.630   8.798  1.1136  0.3355 -0.4711
  834MOL0     C14969   7.311  10.567   8.727  0.1299  0.0726  0.0110
  834MOL0     C14970   7.409  10.679   8.676 -0.2139 -0.0971 -0.0240
  834MOL0     N14971   7.534  10.627   8.617 -0.5454 -0.0033  0.7543
  834MOL0     C14972   7.651  10.691   8.616 -0.1284  0.0934 -0.2806
  834MOL0     C14973   7.742  10.608   8.549  0.4126  0.7398  0.1667
  834MOL0     C14974   7.882  10.643   8.513 -0.2139 -0.2029 -0.3479
  834MOL0     C14975   7.895  10.775   8.436 -0.5592  0.0740 -0.2939
  834MOL0     C14976   8.035  10.802   8.405 -1.1871 -0.3335  0.6813
  834MOL0     C14977   8.076  10.701   8.303 -0.5365  0.1272  0.5842
  834MOL0     O14978   8.189  10.727   8.228 -0.3196  1.0775 -0.4689
  834MOL0     C14979   8.314  10.691   8.287  0.6329  0.0245 -0.6156
  834MOL0     C14980   8.338  10.648   8.419  0.9761 -0.1775  1.0130
  834MOL0     C14981   8.459  10.629   8.468  0.2346  0.4049  0.5034
  834MOL0     C14982   8.471  10.595   8.612  0.4832 -0.7470 -0.4039
  834MOL0     C14983   8.574  10.642   8.387  0.4946 -0.4413 -0.1600
  834MOL0     C14984   8.720  10.629   8.432 -1.1450  0.1907 -0.3064
  834MOL0     O14985   8.805  10.604   8.327  0.7836  0.1779  0.3388
  834MOL0     C14986   8.939  10.628   8.351 -0.0441  0.5992 -0.4898
  834MOL0     C14987   9.003  10.734   8.291 -0.8537  0.0098  0.4337
  834MOL0     C14988   9.135  10.760   8.322 -0.0643 -0.4896 -0.1661
  834MOL0     C14989   9.200  10.682   8.413 -0.2918  0.0916 -0.3099
  834MOL0     O14990   9.324  10.722   8.454  0.5260 -0.2796  0.6607
  834MOL0     C14991   9.410  10.628   8.527 -0.7379  0.9499  0.2038
  834MOL0     C14992   9.548  10.667   8.494 -0.6696 -1.2403  0.9584
  834MOL0     C14993   9.647  10.611   8.590 -0.5019  0.2662 -0.1075
  834MOL0     C14994   9.648  10.703   8.714 -0.3153 -0.5131 -0.9730
  834MOL0     C14995   9.753  10.638   8.813 -0.1389  0.2021  0.3260
  834MOL0     C14996   9.779  10.722   8.942  0.7309  0.2464  0.1705
  834MOL0     C14997   9.921  10.684   8.989 -0.0692  0.1676 -0.7201
  834MOL0     C14998   9.945  10.740   9.133  0.3451  0.7389  0.7040
  834MOL0    Cl14999  10.116  10.706   9.182  0.2776  0.0588 -0.0098
  834MOL0     C15000   9.147  10.562   8.455  0.8125  0.4344  0.3670
  834MOL0     C15001   9.013  10.533   8.430  0.0078  0.0686  0.2185
  834MOL0     O15002   8.754  10.634   8.551  0.6570  0.7581 -0.3597
  834MOL0     C15003   8.553  10.680   8.253  0.4459  0.3206 -0.7741
  834MOL0     C15004   8.428  10.708   8.203  0.4707 -0.1394 -0.7934
  834MOL0     N15005   7.677  10.491   8.518 -0.0565 -0.8601  0.4308
  834MOL0     N15006   7.553  10.500   8.560 -0.0517 -0.1280 -0.7089
  834MOL0     C15007   6.447  10.178   8.799 -0.1613  0.1253  0.5278
  834MOL0     C15008   6.313  10.171   8.798 -0.2971  0.1068 -0.0557
  834MOL0     C15009   5.909  10.266   8.969  0.7786  0.3279 -0.1525
  834MOL0     C15010   5.839  10.373   8.909  0.1425 -0.2777  0.7530
  834MOL0     C15011   5.701  10.375   8.904 -0.2815  0.4489 -0.1029
  834MOL0     C15012   5.622  10.271   8.955  0.0927  0.1655 -0.0407
  834MOL0     O15013   5.487  10.280   8.965 -0.5733  0.3226 -0.5632
  834MOL0     C15014   5.418  10.392   8.909 -0.4818 -0.1779 -0.2814
  834MOL0     C15015   5.270  10.385   8.916 -0.0592  0.6871 -0.4875
  834MOL0     C15016   5.202  10.326   8.793  0.8234  0.3470  0.4837
  834MOL0     C15017   5.193  10.171   8.794 -0.4906 -0.5377  0.4068
  834MOL0     C15018   5.090  10.126   8.891  0.0919  0.5453 -0.9792
  834MOL0     C15019   5.009  10.084   8.975 -0.0685 -0.2363  0.3043
  834MOL0     C15020   5.690  10.162   9.003  0.6101 -0.1115  0.7890
  834MOL0     C15021   5.827  10.158   9.020 -0.0984  0.1649  0.4213
  834MOL0     C15022   5.895  10.039   9.077 -0.3382  0.2803 -0.8024
  834MOL0     H15023   6.288  10.105   9.140  1.8797  0.1133  1.2878
  834MOL0     H15024   6.533  10.124   9.114 -0.0592 -0.9982 -0.5872
  834MOL0     H15025   6.722  10.238   9.098 -0.0252 -3.2030 -1.5031
  834MOL0     H15026   6.654  10.355   8.989 -0.7113 -2.0675 -0.0567
  834MOL0     H15027   6.933  10.241   8.939 -0.2167 -0.5723 -3.9195
  834MOL0     H15028   6.847  10.331   8.833 -0.4142  0.8791  0.6909
  834MOL0     H15029   6.816  10.487   9.066  1.2643 -0.3630  0.6429
  834MOL0     H15030   6.979  10.440   9.085 -0.9100  1.5597  0.0701
  834MOL0     H15031   6.891  10.602   8.849 -0.6722 -0.5283  0.6877
  834MOL0     H15032   6.989  10.661   8.986 -0.7579 -1.2838  2.4607
  834MOL0     H15033   7.076  10.453   8.783  0.7677 -2.2070  1.9118
  834MOL0     H15034   7.145  10.477   8.948  2.1668  0.9992 -0.6785
  834MOL0     H15035   7.132  10.675   8.715  0.7233  4.2337  1.6528
  834MOL0     H15036   7.215  10.701   8.877 -1.2661 -0.0554  0.7890
  834MOL0     H15037   7.288  10.509   8.637  0.6425 -0.6153  0.3061
  834MOL0     H15038   7.359  10.505   8.804 -1.2272 -0.1562  0.7063
  834MOL0     H15039   7.363  10.749   8.606  1.9256  0.5608 -0.8614
  834MOL0     H15040   7.427  10.730   8.771 -2.4888 -2.1990  1.6458
  834MOL0     H15041   7.672  10.794   8.644 -0.3332 -0.3651  1.6931
  834MOL0     H15042   7.912  10.552   8.460 -2.1556 -0.5952 -0.8544
  834MOL0     H15043   7.927  10.650   8.612  0.0181 -2.4017 -0.2526
  834MOL0     H15044   7.831  10.781   8.348  1.3879 -1.8539 -1.9436
  834MOL0     H15045   7.868  10.859   8.502 -0.3329  1.1365 -1.5050
  834MOL0     H15046   8.037  10.905   8.369 -0.1190 -0.8535 -0.8574
  834MOL0     H15047   8.094  10.786   8.495  1.9948  0.4680 -1.0932
  834MOL0     H15048   8.088  10.604   8.352 -0.0354  1.1963  2.6934
  834MOL0     H15049   7.994  10.702   8.230 -0.5086 -0.4971  0.5410
  834MOL0     H15050   8.256  10.646   8.490 -0.4088  0.8046 -0.4763
  834MOL0     H15051   8.539  10.510   8.616  0.4099 -0.7673  0.5083
  834MOL0     H15052   8.378  10.558   8.656  0.5000 -0.9521 -0.5428
  834MOL0     H15053   8.508  10.686   8.661 -0.9546 -0.3936  0.0769
  834MOL0     H15054   8.960  10.802   8.217  2.5981  1.8692 -0.0740
  834MOL0     H15055   9.189  10.852   8.298 -0.7074 -0.3844 -1.3062
  834MOL0     H15056   9.388  10.623   8.634  1.0251  0.6827  0.5777
  834MOL0     H15057   9.398  10.527   8.488  0.7573  1.2736 -1.1972
  834MOL0     H15058   9.564  10.640   8.389 -1.0761  3.1001 -0.4045
  834MOL0     H15059   9.552  10.776   8.496  0.3690 -1.2138 -0.7530
  834MOL0     H15060   9.748  10.607   8.549 -0.4226  1.2281 -0.0308
  834MOL0     H15061   9.621  10.507   8.611 -3.6562  0.8229 -0.6771
  834MOL0     H15062   9.552  10.723   8.762  1.3221  1.7330  1.7377
  834MOL0     H15063   9.693  10.798   8.683  0.6856 -0.9032 -0.7853
  834MOL0     H15064   9.719  10.539   8.845  0.7600  0.1745  1.2498
  834MOL0     H15065   9.844  10.619   8.755  0.9398 -0.6618  2.2060
  834MOL0     H15066   9.707  10.700   9.021  0.9211  0.3742  0.3795
  834MOL0     H15067   9.770  10.828   8.914 -1.5679 -0.1176 -0.6881
  834MOL0     H15068   9.998  10.719   8.918  0.2248  2.6924  0.7156
  834MOL0     H15069   9.929  10.575   8.992  1.5676  0.2724  0.9944
  834MOL0     H15070   9.878  10.681   9.196 -3.6328  2.3333 -1.6802
  834MOL0     H15071   9.912  10.844   9.136 -1.6529  0.1356  1.0391
  834MOL0     H15072   9.190  10.496   8.531 -0.9416 -2.7079 -1.1522
  834MOL0     H15073   8.966  10.445   8.473  0.8233 -0.3411  0.2928
  834MOL0     H15074   8.640  10.705   8.194  0.9759  1.1119  0.3058
  834MOL0     H15075   8.414  10.731   8.098  1.0984 -0.3667 -0.9316
  834MOL0     H15076   6.498  10.189   8.704 -0.4136  2.0945  0.5835
  834MOL0     H15077   6.261  10.165   8.703  0.5155 -2.4811 -0.4107
  834MOL0     H15078   5.890  10.451   8.853 -0.5723 -1.7124 -2.1141
  834MOL0     H15079   5.654  10.467   8.872 -2.2424 -0.1235  0.9531
  834MOL0     H15080   5.452  10.481   8.963  3.7280 -0.5126 -1.9996
  834MOL0     H15081   5.439  10.410   8.803 -0.7751 -1.3858 -0.5590
  834MOL0     H15082   5.227  10.486   8.925  0.1891  0.7085  0.7236
  834MOL0     H15083   5.241  10.329   9.005 -0.0734 -0.3488 -1.1317
  834MOL0     H15084   5.102  10.369   8.788  0.2529 -0.9980 -0.2121
  834MOL0     H15085   5.240  10.358   8.695 -2.7413  0.7914 -0.8899
  834MOL0     H15086   5.289  10.127   8.823 -0.6745  0.3867  2.6759
  834MOL0     H15087   5.160  10.134   8.697 -1.4814 -0.5771  0.7495
  834MOL0     H15088   4.943  10.048   9.051 -1.7405 -0.5090 -1.1935
  834MOL0     H15089   5.622  10.084   9.036 -3.1401  2.0252 -1.2845
  834MOL0     H15090   5.956   9.976   9.013 -1.1815 -0.0775 -1.2635
  834MOL0     H15091   5.963  10.081   9.152  0.5123  0.9475 -1.9235
  834MOL0     H15092   5.815   9.983   9.127 -0.1587  2.0105  1.6542
  835MOL0     O15093   2.640   1.221   5.557  0.6197  0.0811 -0.1504
  835MOL0     C15094   2.629   1.293   5.659 -0.1180  0.1507  0.6695
  835MOL0     O15095   2.723   1.394   5.689 -0.4390 -0.4698 -0.6770
  835MOL0     C15096   2.847   1.402   5.634 -0.3136  0.3371  0.2209
  835MOL0     C15097   2.895   1.527   5.586 -0.0436  0.3227 -0.0649
  835MOL0     C15098   3.032   1.546   5.554  0.2476  0.6388 -1.1499
  835MOL0     C15099   3.123   1.450   5.602 -0.3881 -0.1583 -0.7223
  835MOL0     O15100   3.253   1.478   5.587  0.0456 -0.1736  0.3980
  835MOL0     C15101   3.356   1.375   5.582 -0.3274 -0.9338  0.7980
  835MOL0     C15102   3.353   1.308   5.442 -0.3739  1.0246 -0.1975
  835MOL0     C15103   3.481   1.222   5.408  0.0285 -0.9001 -0.5648
  835MOL0     C15104   3.600   1.307   5.381 -0.8531  0.2194  0.1139
  835MOL0     C15105   3.719   1.210   5.370  1.0654  1.1726 -0.6156
  835MOL0     C15106   3.837   1.301   5.376  0.2106  0.5368  0.5215
  835MOL0     C15107   3.964   1.216   5.376 -0.2484  0.4353 -0.3956
  835MOL0     C15108   3.995   1.153   5.243  0.9715  0.6266 -0.3020
  835MOL0     N15109   4.106   1.061   5.250  0.1313  0.6037 -0.5164
  835MOL0     C15110   4.236   1.094   5.242  0.0935  0.3714  0.1500
  835MOL0     C15111   4.310   0.984   5.271 -0.0081  1.0890  0.7906
  835MOL0     C15112   4.458   0.983   5.307 -0.4345  0.2827 -0.6259
  835MOL0     C15113   4.505   0.845   5.380  0.1871  1.1778  0.4643
  835MOL0     C15114   4.654   0.804   5.357  0.1460  0.2855  0.1412
  835MOL0     C15115   4.739   0.890   5.443  0.2519  0.2434  0.1818
  835MOL0     O15116   4.745   1.022   5.404 -0.6384 -0.5145  0.0239
  835MOL0     C15117   4.836   1.110   5.462  0.4141 -0.0175 -0.4658
  835MOL0     C15118   4.919   1.081   5.572  0.6355  0.2613 -0.2695
  835MOL0     C15119   5.002   1.176   5.635  0.1794  0.2278  0.0006
  835MOL0     C15120   5.073   1.134   5.760 -0.4977  0.3597 -0.6771
  835MOL0     C15121   5.003   1.310   5.578 -0.5549  0.6708 -0.3155
  835MOL0     C15122   5.098   1.406   5.634 -0.4255  0.1646 -0.5844
  835MOL0     O15123   5.192   1.369   5.733  0.3415 -0.2907 -0.0063
  835MOL0     C15124   5.297   1.452   5.746  0.6731  0.2006 -0.0081
  835MOL0     C15125   5.407   1.453   5.659  0.0592 -0.4688  0.0046
  835MOL0     C15126   5.518   1.532   5.680 -0.3340  0.4574  0.2543
  835MOL0     C15127   5.527   1.606   5.800 -0.7469 -0.7235 -0.6107
  835MOL0     O15128   5.632   1.699   5.800 -0.1447  0.2301 -0.1609
  835MOL0     C15129   5.673   1.769   5.916  0.5819  0.0147  0.5306
  835MOL0     C15130   5.765   1.875   5.867  0.3159  0.5725 -0.2088
  835MOL0     C15131   5.831   1.931   5.991  0.3616 -0.9715  0.4457
  835MOL0     C15132   5.927   2.047   5.953 -0.4050  0.2534 -0.3396
  835MOL0     C15133   6.043   2.064   6.048 -0.5034 -1.0067 -0.5526
  835MOL0     C15134   6.131   2.190   6.017  0.8697  1.0361 -0.6308
  835MOL0     C15135   6.250   2.202   6.114  0.2188  0.5337  0.0272
  835MOL0     C15136   6.330   2.326   6.087 -0.4683  0.0385  0.3028
  835MOL0    Cl15137   6.440   2.318   5.949  0.2422 -0.2481  0.5954
  835MOL0     C15138   5.427   1.599   5.895 -0.1993  0.1523  0.4307
  835MOL0     C15139   5.312   1.525   5.865  0.1153  0.2679  0.3228
  835MOL0     O15140   5.095   1.519   5.577 -0.1919 -0.2653  0.3892
  835MOL0     C15141   4.921   1.338   5.471 -0.0123  0.6385  0.4682
  835MOL0     C15142   4.841   1.237   5.414  0.6875 -0.2537 -0.1532
  835MOL0     N15143   4.222   0.876   5.287  1.5434  0.1050 -0.7563
  835MOL0     N15144   4.095   0.926   5.278  0.5674 -0.2809 -0.4815
  835MOL0     C15145   3.073   1.326   5.644  0.3929 -0.7101 -0.3525
  835MOL0     C15146   2.938   1.299   5.650  0.0601  0.0007 -0.2481
  835MOL0     C15147   2.512   1.275   5.747 -0.1282 -0.0280 -0.1048
  835MOL0     C15148   2.529   1.269   5.886 -0.5700  1.0338 -0.6503
  835MOL0     C15149   2.427   1.243   5.963 -0.2155  0.3598 -0.5568
  835MOL0     C15150   2.297   1.242   5.913 -0.4406  0.7609 -0.3846
  835MOL0     O15151   2.199   1.195   5.998  0.0270  0.2027  0.0654
  835MOL0     C15152   2.080   1.271   6.018  0.1355  0.1693  1.0497
  835MOL0     C15153   2.010   1.205   6.141 -0.3107  0.1531  0.0541
  835MOL0     C15154   1.856   1.225   6.147 -0.1013 -0.1310 -0.2295
  835MOL0     C15155   1.801   1.144   6.260  0.2640  0.1394  0.5984
  835MOL0     C15156   1.663   1.176   6.268  0.6068 -1.4476 -0.9879
  835MOL0     C15157   1.546   1.197   6.277  0.6958 -1.2560  0.2273
  835MOL0     C15158   2.269   1.259   5.779  0.3201 -0.7644 -0.1529
  835MOL0     C15159   2.380   1.272   5.692  0.1495  0.1354 -0.6053
  835MOL0     C15160   2.354   1.261   5.550  0.4229 -0.7057  0.4599
  835MOL0     H15161   2.814   1.596   5.562  1.5285  1.3750 -2.8714
  835MOL0     H15162   3.068   1.636   5.505 -0.5345  0.5574 -1.8902
  835MOL0     H15163   3.355   1.307   5.667 -0.3420 -1.5658  0.2999
  835MOL0     H15164   3.450   1.431   5.591 -1.0739  0.1554  2.1461
  835MOL0     H15165   3.266   1.244   5.433 -0.1187  0.4188  1.4398
  835MOL0     H15166   3.334   1.377   5.359 -2.3744  0.0962 -0.5590
  835MOL0     H15167   3.507   1.172   5.501 -1.0856 -1.8016 -0.7259
  835MOL0     H15168   3.464   1.155   5.323 -3.2532 -0.6101 -0.2660
  835MOL0     H15169   3.587   1.355   5.284 -1.0734 -1.7896 -0.9082
  835MOL0     H15170   3.619   1.376   5.463  3.4143  0.3929 -0.8050
  835MOL0     H15171   3.706   1.163   5.272 -2.4612 -1.9876  1.0910
  835MOL0     H15172   3.728   1.137   5.452  0.7769  4.1239  2.2454
  835MOL0     H15173   3.840   1.359   5.283 -0.2479  1.3248  0.9835
  835MOL0     H15174   3.843   1.359   5.469  2.6274 -1.7456  1.9405
  835MOL0     H15175   3.974   1.147   5.461  0.7402  0.4831 -0.4547
  835MOL0     H15176   4.043   1.290   5.394 -0.6077  0.4595  1.2258
  835MOL0     H15177   3.923   1.084   5.198  2.1062 -0.1440 -0.9734
  835MOL0     H15178   4.013   1.227   5.164 -0.1804 -0.6769 -1.8540
  835MOL0     H15179   4.276   1.194   5.227  1.2452 -0.0845  0.1023
  835MOL0     H15180   4.491   1.061   5.377  4.0956 -2.2740  0.4984
  835MOL0     H15181   4.508   0.980   5.210  2.4372 -2.7253  0.7139
  835MOL0     H15182   4.494   0.851   5.489 -0.1184 -1.5078  0.6315
  835MOL0     H15183   4.436   0.769   5.343 -1.2755  0.0884  4.8254
  835MOL0     H15184   4.665   0.699   5.384 -5.7618 -1.0850 -1.2339
  835MOL0     H15185   4.683   0.820   5.253 -1.0264  3.3588  0.1593
  835MOL0     H15186   4.697   0.873   5.543  0.5740  1.3356  0.5127
  835MOL0     H15187   4.840   0.848   5.449  0.8792  1.6592 -0.1689
  835MOL0     H15188   4.917   0.979   5.610  1.3716 -0.1654 -1.3111
  835MOL0     H15189   5.055   1.218   5.828  2.4993  2.2668 -1.9975
  835MOL0     H15190   5.180   1.130   5.738 -0.2433  2.6161 -0.1038
  835MOL0     H15191   5.048   1.036   5.801 -4.0393  1.3160 -0.2752
  835MOL0     H15192   5.402   1.386   5.574  0.6976 -1.9489  1.0941
  835MOL0     H15193   5.594   1.546   5.605 -1.7125  2.7325 -0.8183
  835MOL0     H15194   5.585   1.817   5.961  1.3341  0.9921  1.0163
  835MOL0     H15195   5.728   1.696   5.976 -0.1589  0.0206  1.2362
  835MOL0     H15196   5.837   1.825   5.802 -0.4540  0.5251 -1.0401
  835MOL0     H15197   5.716   1.960   5.818  1.2440  0.9974 -0.4234
  835MOL0     H15198   5.885   1.850   6.041 -2.9918 -2.1836  2.4160
  835MOL0     H15199   5.758   1.964   6.066  0.5390 -0.1700  0.2716
  835MOL0     H15200   5.872   2.142   5.945  2.1081  1.7832 -0.5139
  835MOL0     H15201   5.973   2.019   5.858  1.5028 -0.7003  0.8105
  835MOL0     H15202   6.006   2.079   6.150  0.9310 -1.8953  0.1322
  835MOL0     H15203   6.109   1.978   6.037  2.3648  1.1258 -1.0032
  835MOL0     H15204   6.069   2.280   6.017 -0.1195  0.4917  2.7061
  835MOL0     H15205   6.168   2.184   5.914  0.8241 -0.1330 -0.5908
  835MOL0     H15206   6.319   2.117   6.111 -1.5055 -0.9206 -0.1352
  835MOL0     H15207   6.215   2.208   6.217  1.7242  1.3058  0.5229
  835MOL0     H15208   6.399   2.343   6.171 -1.7451  1.1586  1.1745
  835MOL0     H15209   6.268   2.414   6.070  0.4156  0.4388 -0.9593
  835MOL0     H15210   5.425   1.665   5.981  1.1637 -0.2806  0.8171
  835MOL0     H15211   5.238   1.524   5.944 -1.5419  0.6816 -1.1624
  835MOL0     H15212   4.912   1.430   5.414 -0.3556  0.2874 -0.0548
  835MOL0     H15213   4.780   1.255   5.327  0.9186 -0.8909 -0.4561
  835MOL0     H15214   3.155   1.257   5.662  0.0447 -0.7484  1.2942
  835MOL0     H15215   2.906   1.196   5.660 -3.5228  0.9957 -0.0312
  835MOL0     H15216   2.631   1.269   5.924 -0.2289  3.4250 -1.3742
  835MOL0     H15217   2.441   1.209   6.065  1.9824  0.9610 -0.6061
  835MOL0     H15218   2.114   1.373   6.038  2.5373 -0.0966 -1.1280
  835MOL0     H15219   2.021   1.265   5.927  2.8450  0.4658 -0.8637
  835MOL0     H15220   2.060   1.237   6.233 -0.3621 -0.7194  0.3976
  835MOL0     H15221   2.033   1.098   6.137 -0.7536  0.0437  0.4318
  835MOL0     H15222   1.836   1.332   6.160 -0.6357 -0.4173  1.5015
  835MOL0     H15223   1.816   1.199   6.048 -0.5784 -4.5663  0.9262
  835MOL0     H15224   1.853   1.178   6.351  0.0332 -1.3171  1.2999
  835MOL0     H15225   1.811   1.036   6.246  0.6257  0.1459  0.7841
  835MOL0     H15226   1.441   1.209   6.299  0.2286 -1.8574 -1.4705
  835MOL0     H15227   2.168   1.231   5.751  0.5648 -1.0823 -0.7397
  835MOL0     H15228   2.420   1.319   5.486  3.6022 -3.0673  1.3390
  835MOL0     H15229   2.372   1.161   5.510  0.2889  0.3943 -2.6162
  835MOL0     H15230   2.251   1.288   5.524  0.8160 -0.6262 -1.1357
  836MOL0     O15231   8.405   0.421   2.881 -0.1357  0.0663  0.0476
  836MOL0     C15232   8.435   0.342   2.791 -0.5802 -0.4745  0.1724
  836MOL0     O15233   8.567   0.314   2.741  0.7653  0.4196 -0.6620
  836MOL0     C15234   8.666   0.375   2.822  0.2857 -0.6154  0.3116
  836MOL0     C15235   8.713   0.326   2.942  0.0649 -0.3805 -0.7885
  836MOL0     C15236   8.820   0.388   3.004 -0.3439 -0.1503 -0.1985
  836MOL0     C15237   8.874   0.506   2.943 -0.3595 -0.0402  0.0999
  836MOL0     O15238   8.975   0.586   3.002  0.1187 -0.3324  0.0314
  836MOL0     C15239   9.056   0.537   3.103  1.2596  0.4789  0.3557
  836MOL0     C15240   9.180   0.621   3.136  0.2168  0.3086  0.3002
  836MOL0     C15241   9.275   0.609   3.019 -0.9110 -0.8563  0.3049
  836MOL0     C15242   9.399   0.692   3.045 -1.1556  0.0244  0.9501
  836MOL0     C15243   9.501   0.650   3.158  0.2717  0.0471 -0.3400
  836MOL0     C15244   9.602   0.540   3.106  0.3144  0.2508 -0.2118
  836MOL0     C15245   9.713   0.517   3.215 -0.1664  0.6128 -0.1330
  836MOL0     C15246   9.826   0.428   3.168 -0.3100  0.6828  0.0378
  836MOL0     N15247   9.938   0.419   3.262  0.3168 -0.2327 -0.0495
  836MOL0     C15248  10.022   0.523   3.297 -1.2151 -0.1627 -0.8913
  836MOL0     C15249  10.127   0.465   3.362  0.4321  1.2311 -0.2604
  836MOL0     C15250  10.241   0.534   3.428  0.4398  0.4268 -0.0870
  836MOL0     C15251  10.292   0.451   3.536 -0.8985 -0.4404  0.0246
  836MOL0     C15252  10.417   0.534   3.594 -0.4309 -1.1386 -0.0397
  836MOL0     C15253  10.552   0.520   3.506 -0.0553 -0.5505 -0.5817
  836MOL0     O15254  10.575   0.381   3.473 -0.2023 -0.2487 -0.2824
  836MOL0     C15255  10.605   0.284   3.566 -0.0929  0.0208  0.1346
  836MOL0     C15256  10.635   0.313   3.702  0.7265 -0.1918  0.0146
  836MOL0     C15257  10.655   0.217   3.803 -0.3451 -0.6003  0.2468
  836MOL0     C15258  10.686   0.265   3.942 -0.3942 -0.9119 -0.2634
  836MOL0     C15259  10.655   0.074   3.769 -1.2713 -0.2459 -0.0239
  836MOL0     C15260  10.693  -0.036   3.862 -1.3012  0.3683  0.9219
  836MOL0     O15261  10.684  -0.169   3.810  0.0138  0.6587  0.2910
  836MOL0     C15262  10.668  -0.269   3.900  1.0878 -0.6463 -1.3176
  836MOL0     C15263  10.782  -0.331   3.960 -0.3101 -0.0602 -0.2973
  836MOL0     C15264  10.770  -0.434   4.054  0.4071  0.2123  0.0250
  836MOL0     C15265  10.640  -0.476   4.094  0.2590  0.7279  1.0499
  836MOL0     O15266  10.629  -0.572   4.191 -0.3757  0.2444  0.0113
  836MOL0     C15267  10.514  -0.572   4.270 -0.1611 -0.1280  0.4633
  836MOL0     C15268  10.544  -0.683   4.374  0.6160  0.2710 -0.1429
  836MOL0     C15269  10.461  -0.665   4.502 -0.4884 -0.0833 -0.9924
  836MOL0     C15270  10.426  -0.798   4.576 -0.3314  1.0758  0.1272
  836MOL0     C15271  10.319  -0.763   4.689 -0.5594 -0.0859 -0.0999
  836MOL0     C15272  10.266  -0.893   4.744  0.0920 -0.3739  0.6864
  836MOL0     C15273  10.169  -0.956   4.638  0.4837  0.0858  0.2279
  836MOL0     C15274  10.170  -1.113   4.638 -1.4149 -0.4786 -0.1422
  836MOL0    Cl15275  10.333  -1.189   4.586  0.1687  0.1610 -0.0484
  836MOL0     C15276  10.528  -0.418   4.032  0.1471 -0.2696  0.3192
  836MOL0     C15277  10.541  -0.312   3.936  0.5218 -0.1049 -0.2306
  836MOL0     O15278  10.719  -0.009   3.979  0.3256 -0.0515  0.0650
  836MOL0     C15279  10.630   0.041   3.632 -0.6658 -0.4473  0.4524
  836MOL0     C15280  10.606   0.147   3.539 -0.1519  0.6121 -0.4576
  836MOL0     N15281  10.100   0.324   3.369  0.0216  0.2733  0.3793
  836MOL0     N15282   9.989   0.301   3.304  0.3004 -0.4946 -0.1210
  836MOL0     C15283   8.826   0.550   2.817  0.1489  0.0673  0.1392
  836MOL0     C15284   8.722   0.479   2.760  0.6532 -0.4808 -0.0661
  836MOL0     C15285   8.325   0.278   2.718  0.4073  0.0421 -0.0219
  836MOL0     C15286   8.225   0.219   2.793  0.0221 -0.0332 -0.5443
  836MOL0     C15287   8.118   0.150   2.742  0.5822  0.3449  0.0770
  836MOL0     C15288   8.104   0.133   2.607 -0.0496 -0.4312  0.2884
  836MOL0     O15289   7.991   0.062   2.567  0.8173  0.0139 -0.4343
  836MOL0     C15290   7.945   0.057   2.429 -0.8740  0.2544  0.0433
  836MOL0     C15291   7.815  -0.026   2.421  0.5449  0.3450  0.1031
  836MOL0     C15292   7.697   0.026   2.501  0.2617 -0.3368 -0.4762
  836MOL0     C15293   7.582  -0.079   2.492  0.0330  0.1752 -0.1258
  836MOL0     C15294   7.477  -0.045   2.592 -0.2870  0.9475 -0.1278
  836MOL0     C15295   7.380  -0.026   2.660  0.2208 -0.4552  0.0160
  836MOL0     C15296   8.204   0.192   2.525  0.1389  0.6214 -0.3682
  836MOL0     C15297   8.313   0.265   2.575  0.8673 -0.5642 -0.1795
  836MOL0     C15298   8.417   0.305   2.478 -0.6276  0.0831  0.3947
  836MOL0     H15299   8.679   0.238   2.995  0.8269  0.6749  1.5743
  836MOL0     H15300   8.850   0.348   3.101 -3.3516  0.3070  1.0464
  836MOL0     H15301   9.077   0.430   3.090 -0.7527  0.3482 -2.7439
  836MOL0     H15302   8.984   0.537   3.185 -0.7705  1.3688 -1.3290
  836MOL0     H15303   9.166   0.723   3.172 -0.7586 -0.3474  1.8721
  836MOL0     H15304   9.228   0.575   3.222  1.4341  1.0439  0.0396
  836MOL0     H15305   9.302   0.509   2.983 -0.8009 -0.8660  0.4141
  836MOL0     H15306   9.224   0.652   2.932 -1.7737 -0.7887  0.8324
  836MOL0     H15307   9.453   0.690   2.950  0.4566  1.9487  1.7506
  836MOL0     H15308   9.368   0.793   3.073  1.9195  0.6098  2.7617
  836MOL0     H15309   9.443   0.611   3.242 -0.1306 -2.4117 -1.6843
  836MOL0     H15310   9.556   0.738   3.194  4.0852 -2.6769  1.0916
  836MOL0     H15311   9.558   0.443   3.078  1.4474  0.0926 -1.5498
  836MOL0     H15312   9.642   0.580   3.013 -1.1216 -3.4661 -2.6801
  836MOL0     H15313   9.673   0.473   3.307  1.2937 -0.0613  0.2156
  836MOL0     H15314   9.766   0.610   3.238  1.3542 -0.2292 -0.1191
  836MOL0     H15315   9.783   0.331   3.144 -0.0217  0.6325 -0.2762
  836MOL0     H15316   9.874   0.467   3.078  0.4324  0.2990  0.2613
  836MOL0     H15317  10.021   0.627   3.263 -0.1111 -0.8101 -3.1366
  836MOL0     H15318  10.208   0.629   3.473  0.4993  1.3691 -1.9581
  836MOL0     H15319  10.314   0.566   3.354 -0.0381  3.0566  0.4717
  836MOL0     H15320  10.216   0.440   3.613 -1.5395  0.0107 -0.5291
  836MOL0     H15321  10.331   0.356   3.498  1.3561  0.4069  0.0305
  836MOL0     H15322  10.380   0.637   3.594 -1.1745 -1.3933 -0.7536
  836MOL0     H15323  10.438   0.500   3.696 -2.1138  2.9366  1.8866
  836MOL0     H15324  10.551   0.574   3.411  1.2926 -0.1293 -0.3824
  836MOL0     H15325  10.632   0.573   3.560 -0.1027  0.2793 -1.3129
  836MOL0     H15326  10.635   0.418   3.729 -2.3703 -0.0950 -0.0454
  836MOL0     H15327  10.611   0.225   4.011 -0.1336 -2.4289 -0.8095
  836MOL0     H15328  10.695   0.374   3.948 -3.8063 -0.5609  1.1930
  836MOL0     H15329  10.782   0.219   3.966  0.6872  1.8716  1.2437
  836MOL0     H15330  10.884  -0.307   3.931 -0.5257 -0.0563 -1.0734
  836MOL0     H15331  10.850  -0.481   4.111  0.9130  3.1202  1.9360
  836MOL0     H15332  10.506  -0.473   4.317  0.9303  1.4118 -2.3608
  836MOL0     H15333  10.424  -0.586   4.210 -0.4180  1.7608  0.3558
  836MOL0     H15334  10.511  -0.782   4.340 -0.2692  0.9294 -1.2765
  836MOL0     H15335  10.651  -0.675   4.395  0.3996  6.2375  0.3326
  836MOL0     H15336  10.372  -0.607   4.476 -0.3990 -0.5896 -2.5129
  836MOL0     H15337  10.519  -0.596   4.565  0.5716 -1.4944 -0.3713
  836MOL0     H15338  10.512  -0.843   4.626 -0.5051  1.1132  0.4610
  836MOL0     H15339  10.397  -0.875   4.503 -0.4112  1.2235  0.0017
  836MOL0     H15340  10.371  -0.698   4.759 -0.2620  0.0627 -0.4541
  836MOL0     H15341  10.245  -0.692   4.652  0.9373  2.3616  1.2844
  836MOL0     H15342  10.219  -0.884   4.842  2.8174  0.4621  2.0162
  836MOL0     H15343  10.359  -0.950   4.754  0.1205 -1.7536 -4.4785
  836MOL0     H15344  10.192  -0.916   4.538  0.6379  2.6820  1.2243
  836MOL0     H15345  10.064  -0.936   4.662  0.3724 -2.0147  1.7085
  836MOL0     H15346  10.083  -1.145   4.581 -2.6663 -0.4012  1.6499
  836MOL0     H15347  10.155  -1.148   4.741 -1.4375  0.6726  0.2553
  836MOL0     H15348  10.428  -0.447   4.062  0.4089  0.9364  2.5464
  836MOL0     H15349  10.451  -0.270   3.893 -0.4247 -0.8095  0.9816
  836MOL0     H15350  10.635  -0.061   3.594  1.9098  0.3572 -1.6538
  836MOL0     H15351  10.567   0.114   3.443 -1.6159 -1.7197  0.8450
  836MOL0     H15352   8.863   0.644   2.777  0.3117 -0.1887 -0.3170
  836MOL0     H15353   8.674   0.513   2.668 -0.4994  1.4104  1.1685
  836MOL0     H15354   8.234   0.216   2.901 -1.5339  1.3732 -0.3341
  836MOL0     H15355   8.039   0.116   2.808  2.0088  0.3533  1.8635
  836MOL0     H15356   7.904   0.154   2.400  0.3023  0.2177 -1.8722
  836MOL0     H15357   8.017   0.009   2.363 -0.1409  0.3298  0.7711
  836MOL0     H15358   7.844  -0.124   2.461 -2.5712 -0.9279 -0.4517
  836MOL0     H15359   7.784  -0.044   2.318  0.6382  0.8673 -0.0181
  836MOL0     H15360   7.740   0.039   2.601  0.0078  0.2185 -0.4343
  836MOL0     H15361   7.663   0.124   2.466 -0.8086 -0.3001  0.6335
  836MOL0     H15362   7.626  -0.178   2.505  0.3967  0.3590  0.0604
  836MOL0     H15363   7.532  -0.068   2.395  0.4591  0.8791 -0.2742
  836MOL0     H15364   7.297  -0.003   2.724 -0.4334  0.3710 -1.0825
  836MOL0     H15365   8.192   0.183   2.417 -2.2353  0.1631 -0.1333
  836MOL0     H15366   8.380   0.307   2.375  0.4047  1.2276  0.0218
  836MOL0     H15367   8.459   0.402   2.507  0.4874  0.8645 -3.2653
  836MOL0     H15368   8.485   0.221   2.487 -2.0074 -0.9266  1.9888
  837MOL0     O15369   3.873   1.614   6.946  0.7930  0.5113  0.7043
  837MOL0     C15370   3.790   1.616   6.855  0.4593  0.3582 -0.2065
  837MOL0     O15371   3.819   1.617   6.727  0.2816 -0.1899  0.4105
  837MOL0     C15372   3.948   1.639   6.695  0.1905 -0.1791  1.4527
  837MOL0     C15373   4.029   1.530   6.649 -0.7721 -0.8099 -0.3142
  837MOL0     C15374   4.148   1.557   6.580 -0.5297  0.1222  0.4911
  837MOL0     C15375   4.193   1.683   6.565  0.3318  0.5631  1.0165
  837MOL0     O15376   4.304   1.692   6.486  0.3575  0.4624  0.6342
  837MOL0     C15377   4.359   1.830   6.466 -0.3237  0.4230  0.1388
  837MOL0     C15378   4.500   1.829   6.418 -0.0734 -0.2116  0.4631
  837MOL0     C15379   4.594   1.797   6.538  0.1662  0.7671  0.2947
  837MOL0     C15380   4.737   1.767   6.474  0.6447  0.5219 -0.4601
  837MOL0     C15381   4.812   1.665   6.556 -0.9012  0.9298  0.4144
  837MOL0     C15382   4.907   1.596   6.461  0.1049 -0.1133  0.2991
  837MOL0     C15383   5.036   1.681   6.446 -0.9590 -0.9775 -1.1113
  837MOL0     C15384   5.128   1.613   6.353 -0.4797  0.1508 -0.4430
  837MOL0     N15385   5.247   1.689   6.329  0.0423 -0.4360  0.0301
  837MOL0     C15386   5.340   1.722   6.427  0.0060 -0.1484  0.5470
  837MOL0     C15387   5.441   1.787   6.364 -1.2693  0.7878 -0.6549
  837MOL0     C15388   5.565   1.847   6.428  1.1379  0.5553  0.1084
  837MOL0     C15389   5.683   1.772   6.368 -0.2050 -0.6127  0.1992
  837MOL0     C15390   5.817   1.842   6.394 -0.2130  0.4179  0.6035
  837MOL0     C15391   5.926   1.756   6.339  0.5236 -0.2698 -0.8238
  837MOL0     O15392   6.041   1.825   6.386  0.1977  0.0735  0.2783
  837MOL0     C15393   6.152   1.767   6.336  0.7425  0.0728  0.0996
  837MOL0     C15394   6.198   1.636   6.357  0.2763 -0.5342  0.6424
  837MOL0     C15395   6.321   1.603   6.306 -0.0354  0.6820 -0.5567
  837MOL0     C15396   6.372   1.467   6.355  0.6198 -0.2518  0.7549
  837MOL0     C15397   6.406   1.706   6.257  0.8935  0.1418 -0.5770
  837MOL0     C15398   6.541   1.685   6.195 -0.3111  0.0258 -0.5209
  837MOL0     O15399   6.613   1.790   6.164 -0.5068  0.5692 -0.0071
  837MOL0     C15400   6.725   1.767   6.091  0.2634  0.1226  0.0522
  837MOL0     C15401   6.841   1.715   6.145  0.2905 -0.2647  0.1604
  837MOL0     C15402   6.963   1.712   6.077  0.9719  0.4456 -0.3595
  837MOL0     C15403   6.974   1.754   5.946 -0.1267 -0.1164 -0.2379
  837MOL0     O15404   7.100   1.736   5.893  0.1085  0.9188 -0.5338
  837MOL0     C15405   7.126   1.806   5.774  0.0442 -0.0989  0.1643
  837MOL0     C15406   7.279   1.784   5.751  0.1552 -0.0583  0.0087
  837MOL0     C15407   7.324   1.863   5.626  0.3661 -0.0853 -0.1918
  837MOL0     C15408   7.451   1.817   5.563 -0.2293  0.1448 -0.6852
  837MOL0     C15409   7.574   1.885   5.627  0.0120  0.0147 -0.5922
  837MOL0     C15410   7.684   1.908   5.524  0.4937 -0.2352  0.1618
  837MOL0     C15411   7.810   1.975   5.588  0.0267  0.5834  0.3333
  837MOL0     C15412   7.911   2.014   5.480  0.5094 -0.1150 -0.0806
  837MOL0    Cl15413   8.032   2.119   5.547 -0.2365 -0.0844  0.2300
  837MOL0     C15414   6.854   1.795   5.880 -0.3504  0.8320  0.3650
  837MOL0     C15415   6.736   1.806   5.958  0.3658 -0.3232 -0.4665
  837MOL0     O15416   6.561   1.567   6.153 -0.1577 -0.6899  0.2322
  837MOL0     C15417   6.362   1.844   6.264 -0.9546  0.1620  0.4664
  837MOL0     C15418   6.233   1.873   6.294 -0.9197 -0.2552  0.5572
  837MOL0     N15419   5.410   1.801   6.226  0.3939  0.0183  0.1618
  837MOL0     N15420   5.296   1.743   6.213 -0.2333  0.4045  0.4921
  837MOL0     C15421   4.115   1.789   6.609 -0.2832 -0.7389 -0.0648
  837MOL0     C15422   3.999   1.766   6.673  0.0810 -0.2034  0.1990
  837MOL0     C15423   3.649   1.607   6.899 -0.4180 -0.8160 -0.8734
  837MOL0     C15424   3.624   1.634   7.038  0.7370 -0.2689 -1.2110
  837MOL0     C15425   3.489   1.674   7.080  0.2899 -0.1643 -0.4188
  837MOL0     C15426   3.379   1.667   6.993  0.8157 -0.6182  0.2143
  837MOL0     O15427   3.252   1.713   7.021 -0.8072 -0.2804  0.2999
  837MOL0     C15428   3.165   1.611   7.072  0.0210 -0.4529  0.1678
  837MOL0     C15429   3.010   1.643   7.048  0.0260  0.2045 -0.6953
  837MOL0     C15430   2.962   1.654   6.906  0.6415  0.0329 -0.0090
  837MOL0     C15431   2.826   1.725   6.883  0.1881 -0.2056  0.0757
  837MOL0     C15432   2.710   1.636   6.895  0.6068 -0.0301 -0.3283
  837MOL0     C15433   2.605   1.568   6.890  0.0161 -0.5804 -0.1588
  837MOL0     C15434   3.412   1.629   6.865  0.4591  0.0449  0.6615
  837MOL0     C15435   3.541   1.593   6.815 -0.1989 -0.7521  0.2613
  837MOL0     C15436   3.541   1.539   6.674  0.6235  0.7902  0.3259
  837MOL0     H15437   3.995   1.427   6.648  0.5217 -1.2493 -1.4763
  837MOL0     H15438   4.206   1.476   6.538 -1.5013 -0.1815 -0.2900
  837MOL0     H15439   4.360   1.882   6.562  0.9921  1.3507 -0.3504
  837MOL0     H15440   4.303   1.883   6.389 -2.2855 -0.8327  0.6147
  837MOL0     H15441   4.511   1.761   6.333 -0.5478  0.0344  0.2027
  837MOL0     H15442   4.528   1.924   6.373  2.3164 -0.9364  0.2867
  837MOL0     H15443   4.600   1.879   6.611  1.5818  0.5432  0.4590
  837MOL0     H15444   4.558   1.707   6.590  2.0837 -1.4020 -1.9286
  837MOL0     H15445   4.725   1.718   6.377 -2.5633  2.4633 -1.1908
  837MOL0     H15446   4.796   1.858   6.459 -1.5623  2.8012  3.1043
  837MOL0     H15447   4.744   1.585   6.585 -0.3006 -0.6064 -2.1751
  837MOL0     H15448   4.868   1.711   6.638  3.2251 -0.2197 -1.4847
  837MOL0     H15449   4.938   1.500   6.501  0.1157  0.1062  0.8162
  837MOL0     H15450   4.865   1.564   6.365  0.0755  0.6953  0.0332
  837MOL0     H15451   5.090   1.704   6.538  1.6549 -0.2006 -2.7144
  837MOL0     H15452   5.009   1.781   6.410 -1.3455 -0.1710  1.2536
  837MOL0     H15453   5.153   1.517   6.398  1.0234  1.4509  1.7119
  837MOL0     H15454   5.082   1.593   6.256  0.4719  0.9898 -1.0974
  837MOL0     H15455   5.349   1.717   6.535  1.6572 -0.4081  0.4278
  837MOL0     H15456   5.567   1.843   6.538  0.8765  4.1848  0.3789
  837MOL0     H15457   5.561   1.953   6.401  0.0540  0.7908  1.0872
  837MOL0     H15458   5.680   1.670   6.408  1.9071 -0.2253  1.5074
  837MOL0     H15459   5.670   1.765   6.260  0.4585 -2.2849  0.1886
  837MOL0     H15460   5.828   1.944   6.354  0.8964  0.0771  0.0229
  837MOL0     H15461   5.825   1.840   6.503 -3.3245 -0.1894  0.9322
  837MOL0     H15462   5.923   1.653   6.375  0.9205  0.3893  1.2219
  837MOL0     H15463   5.929   1.766   6.231  0.3191 -0.7102 -0.8719
  837MOL0     H15464   6.133   1.559   6.399 -1.6179  1.9159  2.5625
  837MOL0     H15465   6.310   1.434   6.439  0.8454  2.0489  1.9344
  837MOL0     H15466   6.477   1.480   6.382  0.6612 -1.0156  0.9860
  837MOL0     H15467   6.364   1.383   6.287  0.4197  0.6310 -0.3362
  837MOL0     H15468   6.846   1.693   6.251 -0.9369  1.2224  0.5601
  837MOL0     H15469   7.051   1.665   6.119 -0.8478  0.4923  4.0083
  837MOL0     H15470   7.074   1.756   5.691  0.8916  0.1275 -0.5154
  837MOL0     H15471   7.105   1.913   5.777  2.1359  0.3253  1.0563
  837MOL0     H15472   7.336   1.808   5.841 -0.3757  1.4171 -0.0325
  837MOL0     H15473   7.293   1.676   5.738  0.6400 -0.7043  4.3002
  837MOL0     H15474   7.332   1.971   5.646  1.5117  0.1538 -1.6997
  837MOL0     H15475   7.245   1.861   5.550 -0.3969 -0.0116  0.5849
  837MOL0     H15476   7.443   1.834   5.455 -0.7791 -0.4109 -0.7366
  837MOL0     H15477   7.457   1.710   5.584 -1.9734 -0.0866 -1.1926
  837MOL0     H15478   7.543   1.987   5.653 -0.8137 -0.5597  0.7553
  837MOL0     H15479   7.612   1.825   5.710 -0.6238  0.7620  0.2514
  837MOL0     H15480   7.651   1.971   5.441  0.8282 -2.1742 -1.5356
  837MOL0     H15481   7.704   1.813   5.475 -0.7013  0.1986 -1.2419
  837MOL0     H15482   7.858   1.906   5.658 -1.0927 -0.2804  0.2841
  837MOL0     H15483   7.789   2.068   5.643  0.6282 -0.0245  1.6386
  837MOL0     H15484   7.877   2.060   5.386  2.0798  0.7373 -0.2643
  837MOL0     H15485   7.955   1.919   5.450 -1.5523 -0.2160 -3.3491
  837MOL0     H15486   6.851   1.818   5.774 -0.4911 -0.1610  0.1438
  837MOL0     H15487   6.642   1.839   5.915  0.3276  1.3016  0.7817
  837MOL0     H15488   6.431   1.922   6.237  0.4916 -1.8205 -2.0483
  837MOL0     H15489   6.194   1.974   6.298  0.4282  0.3657 -0.9985
  837MOL0     H15490   4.143   1.892   6.593  1.1980 -0.7262  2.1481
  837MOL0     H15491   3.932   1.844   6.707  0.2264 -0.2058  0.4944
  837MOL0     H15492   3.694   1.661   7.116 -3.4928  0.5487  2.7223
  837MOL0     H15493   3.474   1.704   7.183 -0.2718  1.9555 -1.0641
  837MOL0     H15494   3.192   1.511   7.037  2.5092  0.5228 -0.9583
  837MOL0     H15495   3.174   1.603   7.181  1.6016  0.7682  0.1761
  837MOL0     H15496   2.988   1.728   7.113  0.5920 -0.0192 -0.1902
  837MOL0     H15497   2.959   1.558   7.095  0.2923 -0.5417 -1.7156
  837MOL0     H15498   3.039   1.707   6.850  1.7698 -1.0412  0.4936
  837MOL0     H15499   2.957   1.554   6.862  0.2310 -0.8077  1.8362
  837MOL0     H15500   2.820   1.758   6.778  2.6624 -0.3447 -0.1774
  837MOL0     H15501   2.827   1.816   6.944 -0.1101 -0.7659  0.9298
  837MOL0     H15502   2.513   1.513   6.891 -0.9045  0.8925  0.2863
  837MOL0     H15503   3.327   1.625   6.798  0.9572  2.4976 -0.2074
  837MOL0     H15504   3.615   1.460   6.657  0.2915  0.5246  0.0992
  837MOL0     H15505   3.448   1.489   6.644  0.3834  0.2301  1.9171
  837MOL0     H15506   3.561   1.608   6.591 -1.7655  0.0168 -1.0150
  838MOL0     O15507   0.404   2.019   6.444 -0.2456  0.2320 -0.0474
  838MOL0     C15508   0.370   2.108   6.517  0.5802 -1.0019 -0.1089
  838MOL0     O15509   0.455   2.214   6.540  0.1434 -1.0479  0.2030
  838MOL0     C15510   0.582   2.198   6.504  1.0327  0.5271  0.3013
  838MOL0     C15511   0.610   2.288   6.403 -0.7633 -0.8337 -0.0545
  838MOL0     C15512   0.734   2.269   6.341  0.0917 -0.1268  0.6692
  838MOL0     C15513   0.842   2.189   6.396 -0.6029 -0.2633  0.2000
  838MOL0     O15514   0.960   2.199   6.328 -0.5063  0.7709  0.0700
  838MOL0     C15515   1.083   2.177   6.403  0.0213 -0.0737 -0.4448
  838MOL0     C15516   1.211   2.242   6.341 -0.2368  0.7004  0.9209
  838MOL0     C15517   1.244   2.171   6.213 -0.3365 -0.0141  0.5588
  838MOL0     C15518   1.390   2.200   6.173  0.4246 -0.2189 -0.6385
  838MOL0     C15519   1.440   2.129   6.046  0.1998 -0.5451  0.6382
  838MOL0     C15520   1.340   2.113   5.938 -0.3411  0.3479 -0.7593
  838MOL0     C15521   1.287   2.251   5.884  0.4235  0.0109  0.5028
  838MOL0     C15522   1.369   2.303   5.765  0.7379 -0.1500 -0.1372
  838MOL0     N15523   1.505   2.344   5.809  0.3334  0.9630  0.7658
  838MOL0     C15524   1.538   2.454   5.879 -0.3510 -0.5598 -0.0540
  838MOL0     C15525   1.671   2.477   5.855  0.7279  0.3572  1.0018
  838MOL0     C15526   1.746   2.590   5.921 -0.1294  0.0762 -0.0866
  838MOL0     C15527   1.720   2.721   5.864  0.4919 -0.0525  0.2318
  838MOL0     C15528   1.825   2.771   5.768 -0.5228  1.3321  0.2324
  838MOL0     C15529   1.868   2.672   5.658 -0.0604 -0.8385 -0.1427
  838MOL0     O15530   1.958   2.743   5.576 -0.2523 -0.0756 -0.7199
  838MOL0     C15531   2.086   2.777   5.616 -0.4205  1.1078  0.4106
  838MOL0     C15532   2.158   2.871   5.544  0.6681  0.8744 -0.3984
  838MOL0     C15533   2.287   2.897   5.570  0.6173  0.0730 -0.1126
  838MOL0     C15534   2.352   2.995   5.472 -0.2915 -0.4736 -0.4643
  838MOL0     C15535   2.358   2.823   5.668  0.1973 -0.0132 -0.4409
  838MOL0     C15536   2.500   2.865   5.722  0.3774 -0.2145 -0.6413
  838MOL0     O15537   2.559   2.798   5.826  0.0958 -0.2486  0.3997
  838MOL0     C15538   2.695   2.800   5.842 -0.6826 -0.9486  0.1245
  838MOL0     C15539   2.736   2.804   5.971 -0.0104  0.1227  0.6084
  838MOL0     C15540   2.877   2.804   5.999  0.5125  0.3707 -0.2630
  838MOL0     C15541   2.979   2.804   5.901  0.0346 -0.1176 -0.4857
  838MOL0     O15542   3.111   2.814   5.923 -0.5387 -0.2271 -0.8290
  838MOL0     C15543   3.149   2.808   6.064  0.1603 -0.2723  0.0803
  838MOL0     C15544   3.298   2.787   6.075 -0.6353 -0.1287  0.2458
  838MOL0     C15545   3.386   2.902   6.022 -0.9861  0.5408 -0.7388
  838MOL0     C15546   3.537   2.884   6.062  0.0481 -0.1623  0.1931
  838MOL0     C15547   3.612   2.997   6.000  0.6063 -0.1166  0.2826
  838MOL0     C15548   3.754   3.001   6.050 -0.1890 -0.4078  0.1915
  838MOL0     C15549   3.849   3.117   5.995  0.6994 -0.1824 -0.0544
  838MOL0     C15550   3.908   3.057   5.863  0.0313  0.0809  1.2176
  838MOL0    Cl15551   3.983   3.189   5.765 -0.1351 -0.2035 -0.2356
  838MOL0     C15552   2.937   2.808   5.769  0.1553 -0.0072  0.1577
  838MOL0     C15553   2.799   2.802   5.737  0.0626 -1.1613  0.3481
  838MOL0     O15554   2.553   2.955   5.665 -0.2823 -0.7216 -0.1659
  838MOL0     C15555   2.299   2.717   5.741 -0.5630 -0.1782 -0.0047
  838MOL0     C15556   2.165   2.693   5.707 -0.0786 -0.3363  0.2738
  838MOL0     N15557   1.719   2.362   5.791  0.0091  0.3160  0.8431
  838MOL0     N15558   1.623   2.281   5.763 -0.7542 -0.2051  0.1927
  838MOL0     C15559   0.811   2.116   6.513 -0.2002  0.3771 -0.0618
  838MOL0     C15560   0.676   2.113   6.561  0.2047  0.2054  0.9438
  838MOL0     C15561   0.233   2.109   6.582 -0.6029  0.0364  0.8298
  838MOL0     C15562   0.145   2.217   6.569 -0.5101 -0.0964  0.4734
  838MOL0     C15563   0.013   2.213   6.611  0.1677  0.1771  1.1410
  838MOL0     C15564  -0.041   2.103   6.672  0.6266 -0.4734 -0.7630
  838MOL0     O15565  -0.161   2.084   6.727 -0.0723 -0.4933 -0.0481
  838MOL0     C15566  -0.277   2.162   6.681 -0.4457  0.1889  0.1930
  838MOL0     C15567  -0.406   2.088   6.708  0.2662  0.4682 -0.0425
  838MOL0     C15568  -0.436   2.072   6.853 -0.1493  0.2758 -0.5727
  838MOL0     C15569  -0.570   1.991   6.868 -0.0542 -0.2544  0.7116
  838MOL0     C15570  -0.629   2.006   6.997 -0.5450 -0.9425 -0.3116
  838MOL0     C15571  -0.679   2.030   7.106 -0.4157  0.6120  0.2018
  838MOL0     C15572   0.054   2.004   6.710  0.6159  0.4961  0.6881
  838MOL0     C15573   0.189   2.003   6.660  1.0869 -0.0091  0.3437
  838MOL0     C15574   0.273   1.883   6.699 -0.7473 -0.6043  1.0909
  838MOL0     H15575   0.530   2.351   6.365 -0.1816 -1.0375 -1.7256
  838MOL0     H15576   0.750   2.333   6.255 -0.7040  0.4806  0.9549
  838MOL0     H15577   1.100   2.071   6.423  0.8385  0.3223  1.1137
  838MOL0     H15578   1.064   2.218   6.503  0.0999 -1.5143  0.1766
  838MOL0     H15579   1.203   2.349   6.322  0.1733  0.1684 -3.1431
  838MOL0     H15580   1.300   2.235   6.404 -0.8031 -2.1414  1.5425
  838MOL0     H15581   1.237   2.064   6.235 -1.2728 -0.7262 -2.7095
  838MOL0     H15582   1.169   2.196   6.138 -0.2728 -1.5647 -0.0404
  838MOL0     H15583   1.400   2.307   6.152  0.1744 -0.1265 -0.2883
  838MOL0     H15584   1.452   2.183   6.262 -0.0292  1.4209  0.0532
  838MOL0     H15585   1.470   2.028   6.077 -0.0675 -2.0868 -3.4402
  838MOL0     H15586   1.532   2.175   6.010 -0.0957  1.0498  1.8598
  838MOL0     H15587   1.384   2.054   5.857 -0.6447  1.7479 -1.9740
  838MOL0     H15588   1.253   2.052   5.968 -0.8323  1.7876  0.8802
  838MOL0     H15589   1.273   2.328   5.961 -2.0489  0.3816 -0.2267
  838MOL0     H15590   1.186   2.245   5.842  0.2981  1.2054  0.5855
  838MOL0     H15591   1.377   2.217   5.698  0.6884 -0.2696  0.0115
  838MOL0     H15592   1.324   2.382   5.704 -1.4775  0.8121  2.5440
  838MOL0     H15593   1.470   2.511   5.942 -0.0828 -0.4580  0.1446
  838MOL0     H15594   1.850   2.556   5.931 -0.5851 -1.7746 -1.1689
  838MOL0     H15595   1.714   2.590   6.026  4.0240 -1.2241  1.3803
  838MOL0     H15596   1.620   2.727   5.821  0.5944  3.0414  0.2015
  838MOL0     H15597   1.726   2.800   5.939  0.2940  0.5102 -0.3388
  838MOL0     H15598   1.790   2.862   5.719 -1.3373 -1.4669 -5.1344
  838MOL0     H15599   1.918   2.797   5.821 -0.2844  1.1065 -0.0693
  838MOL0     H15600   1.913   2.580   5.696  1.3842 -0.3318 -0.5887
  838MOL0     H15601   1.783   2.644   5.595 -0.0061 -2.6188  0.5010
  838MOL0     H15602   2.102   2.910   5.459  1.5390  0.7286 -1.0494
  838MOL0     H15603   2.284   3.021   5.390 -0.7324  2.0224  0.5936
  838MOL0     H15604   2.434   2.954   5.412 -1.4896  0.9923 -3.2943
  838MOL0     H15605   2.397   3.079   5.526 -2.1796 -0.3045  0.9434
  838MOL0     H15606   2.666   2.800   6.054 -0.5611 -1.8507  0.1072
  838MOL0     H15607   2.905   2.802   6.104  4.0839 -0.2513 -1.0789
  838MOL0     H15608   3.126   2.901   6.117  2.2654  1.0303 -1.1701
  838MOL0     H15609   3.094   2.729   6.115 -2.4730  1.0586 -0.5203
  838MOL0     H15610   3.318   2.763   6.180 -1.2465  1.0932  0.6549
  838MOL0     H15611   3.336   2.705   6.013  0.9449  1.6218 -1.1897
  838MOL0     H15612   3.350   2.998   6.061 -1.8260  0.9483 -2.4118
  838MOL0     H15613   3.387   2.905   5.913  1.3898  0.4356 -0.7739
  838MOL0     H15614   3.578   2.796   6.011 -1.2802 -0.1544 -0.9356
  838MOL0     H15615   3.547   2.881   6.171  0.4639  0.0109  0.1606
  838MOL0     H15616   3.606   2.991   5.891  0.6497 -2.2511  0.3718
  838MOL0     H15617   3.568   3.094   6.026  0.2556  0.2527 -1.5242
  838MOL0     H15618   3.799   2.903   6.029  0.4383  0.0817 -0.8167
  838MOL0     H15619   3.760   3.013   6.158  3.0583  1.6449 -0.0745
  838MOL0     H15620   3.931   3.146   6.062  0.5897  3.4996 -1.2610
  838MOL0     H15621   3.796   3.211   5.976 -1.6423 -1.4750 -0.2566
  838MOL0     H15622   3.826   3.019   5.802  0.1200  0.8247  0.6197
  838MOL0     H15623   3.986   2.988   5.894  0.9792  0.7051  0.2783
  838MOL0     H15624   3.011   2.815   5.689  1.4187 -0.5785  1.2440
  838MOL0     H15625   2.770   2.803   5.632  2.4683 -1.1267 -0.3656
  838MOL0     H15626   2.353   2.656   5.812  0.3525  1.0320  0.3922
  838MOL0     H15627   2.138   2.599   5.753  2.8484 -1.3198  0.1734
  838MOL0     H15628   0.895   2.060   6.553 -0.2604  0.2274 -0.1437
  838MOL0     H15629   0.643   2.054   6.646 -1.0040  4.2818  3.6497
  838MOL0     H15630   0.183   2.304   6.517  1.3982  0.0157  1.9192
  838MOL0     H15631  -0.042   2.303   6.586  0.2144  0.2315  1.2337
  838MOL0     H15632  -0.288   2.254   6.739 -2.1456  0.3682 -0.3652
  838MOL0     H15633  -0.268   2.188   6.575 -3.2793 -0.8037 -0.3858
  838MOL0     H15634  -0.384   1.989   6.666  2.8716  1.8340 -2.2872
  838MOL0     H15635  -0.494   2.109   6.646  0.5799 -2.5265 -1.7375
  838MOL0     H15636  -0.357   2.006   6.889 -1.7380 -1.9562 -0.9367
  838MOL0     H15637  -0.442   2.173   6.895  1.2441  0.6847 -1.3134
  838MOL0     H15638  -0.535   1.889   6.850  3.4049  1.0983 -1.0403
  838MOL0     H15639  -0.632   2.038   6.791  2.5976  2.5368  0.0861
  838MOL0     H15640  -0.712   2.056   7.205  0.3380 -0.7964  0.8480
  838MOL0     H15641   0.019   1.927   6.778 -0.1145 -0.7997 -1.0766
  838MOL0     H15642   0.200   1.811   6.738 -2.8779 -0.1067 -1.6102
  838MOL0     H15643   0.317   1.849   6.605  2.0303  3.2235  0.8005
  838MOL0     H15644   0.354   1.904   6.769  0.7067 -1.8816 -0.1458
  839MOL0     O15645  10.203   1.497  10.223 -0.2519  0.5428  0.0605
  839MOL0     C15646  10.213   1.566  10.120  0.4836  0.6699 -0.1355
  839MOL0     O15647  10.319   1.651  10.100 -1.1310  0.4851  0.0593
  839MOL0     C15648  10.437   1.657  10.175  0.6505  0.0912 -0.5500
  839MOL0     C15649  10.513   1.776  10.172  0.0186  0.5528 -0.3087
  839MOL0     C15650  10.626   1.797  10.246 -0.6173 -0.4917  0.6130
  839MOL0     C15651  10.683   1.694  10.331  0.8749 -0.2289 -0.7864
  839MOL0     O15652  10.807   1.698  10.379 -0.8519 -0.2508  0.3382
  839MOL0     C15653  10.860   1.574  10.440 -0.0959  0.3267 -0.1360
  839MOL0     C15654  10.994   1.614  10.504 -0.3914 -0.8577  0.6397
  839MOL0     C15655  11.100   1.679  10.403  0.0309  0.7657 -0.4956
  839MOL0     C15656  11.248   1.661  10.455 -0.4361  0.1386  0.4881
  839MOL0     C15657  11.284   1.737  10.580  0.2864 -0.1348  0.2273
  839MOL0     C15658  11.435   1.760  10.599  0.9257  0.6876  0.3780
  839MOL0     C15659  11.501   1.634  10.666 -0.8002  0.1883 -0.2460
  839MOL0     C15660  11.561   1.523  10.574  0.6328 -0.1554 -0.2687
  839MOL0     N15661  11.691   1.564  10.530 -1.1805  0.3208 -0.7239
  839MOL0     C15662  11.719   1.600  10.400 -0.4889 -0.0249  0.2390
  839MOL0     C15663  11.853   1.609  10.392  0.7563  0.8434  0.0917
  839MOL0     C15664  11.934   1.641  10.266  0.2148  0.9257 -0.7453
  839MOL0     C15665  11.852   1.682  10.149  0.3425 -0.2040 -0.1370
  839MOL0     C15666  11.936   1.705  10.027 -0.1534 -0.0921 -0.7088
  839MOL0     C15667  12.038   1.816  10.036  0.1939 -0.1296  0.2512
  839MOL0     O15668  12.151   1.782  10.106 -0.5145  0.0472 -0.3610
  839MOL0     C15669  12.265   1.852  10.074  0.3196  0.3412 -0.7732
  839MOL0     C15670  12.266   1.989  10.040 -0.3048  0.2116  0.1520
  839MOL0     C15671  12.389   2.053  10.019  0.1049  0.4010 -0.3137
  839MOL0     C15672  12.383   2.204   9.984 -0.6978 -0.5753 -0.6147
  839MOL0     C15673  12.514   1.981  10.038 -0.1558 -0.5200 -0.3441
  839MOL0     C15674  12.644   2.044  10.026  0.1908 -0.3017 -0.1176
  839MOL0     O15675  12.653   2.176  10.066  0.1951 -0.1096 -0.3943
  839MOL0     C15676  12.771   2.253  10.045 -0.2644  0.7836 -0.3591
  839MOL0     C15677  12.841   2.246   9.927  0.5380  0.5169 -0.2544
  839MOL0     C15678  12.945   2.338   9.901 -0.2923 -0.9776  0.6090
  839MOL0     C15679  12.970   2.439   9.998  0.1613 -0.0238  0.1938
  839MOL0     O15680  13.068   2.531   9.967 -0.4305  0.2554  0.9551
  839MOL0     C15681  13.116   2.629  10.061  0.2179  1.0793 -0.2884
  839MOL0     C15682  13.246   2.693  10.005  0.0418 -0.3008  0.9298
  839MOL0     C15683  13.371   2.597  10.033 -0.3754  0.1024 -0.0469
  839MOL0     C15684  13.495   2.665   9.972 -0.6529 -0.3592 -0.2787
  839MOL0     C15685  13.619   2.580   9.998 -0.8564  0.3102  0.7795
  839MOL0     C15686  13.744   2.647   9.924 -0.3560  0.5161  0.3071
  839MOL0     C15687  13.873   2.594   9.981 -0.5151 -0.1778 -0.0119
  839MOL0     C15688  13.916   2.659  10.115  0.1158 -0.1569  0.5035
  839MOL0    Cl15689  14.060   2.573  10.154 -0.2753  0.1580  0.0860
  839MOL0     C15690  12.897   2.451  10.118  0.1305  0.0908  0.1071
  839MOL0     C15691  12.793   2.357  10.137 -0.6086  0.3750 -0.0937
  839MOL0     O15692  12.735   1.975   9.982 -0.3853  0.1750 -0.4056
  839MOL0     C15693  12.508   1.844  10.054 -0.2336 -0.1848 -0.8010
  839MOL0     C15694  12.385   1.784  10.080  0.4674  0.1242 -0.4689
  839MOL0     N15695  11.902   1.596  10.525  0.7053 -0.6171 -0.1845
  839MOL0     N15696  11.809   1.542  10.595 -0.5854  0.6927 -0.0416
  839MOL0     C15697  10.608   1.573  10.330  0.0096 -0.6265 -0.4505
  839MOL0     C15698  10.489   1.551  10.258 -0.2373 -0.3826 -0.1567
  839MOL0     C15699  10.121   1.539  10.001 -0.2972  0.1549  0.3791
  839MOL0     C15700  10.129   1.629   9.895 -0.4194 -0.1002  0.0018
  839MOL0     C15701  10.061   1.615   9.779  0.9457 -0.0752 -0.3243
  839MOL0     C15702   9.970   1.506   9.765  0.1947  0.2265 -0.9034
  839MOL0     O15703   9.902   1.473   9.653 -0.3383  0.3352 -0.0873
  839MOL0     C15704   9.938   1.537   9.526 -0.5032 -0.0575 -1.2100
  839MOL0     C15705   9.828   1.498   9.437  0.2117 -0.5550  0.9789
  839MOL0     C15706   9.788   1.348   9.423 -0.2875 -0.1070  0.3037
  839MOL0     C15707   9.669   1.332   9.323 -0.0537  0.8198 -0.6540
  839MOL0     C15708   9.708   1.311   9.185  0.3173 -0.9669 -0.1044
  839MOL0     C15709   9.730   1.288   9.066 -0.3347 -0.4025 -0.1377
  839MOL0     C15710   9.949   1.424   9.879 -0.0872 -0.5655 -0.3185
  839MOL0     C15711  10.020   1.443   9.995 -0.0744 -1.4056  0.5082
  839MOL0     C15712   9.980   1.352  10.111  0.2381  0.4363  0.7158
  839MOL0     H15713  10.473   1.843  10.096 -1.7127 -1.7290 -1.5668
  839MOL0     H15714  10.672   1.895  10.236  1.6621 -1.4777  0.9267
  839MOL0     H15715  10.876   1.499  10.363  1.0293  0.3689  0.0449
  839MOL0     H15716  10.798   1.534  10.521  2.3836 -1.9286  0.8043
  839MOL0     H15717  10.970   1.681  10.587  0.9549  1.4330 -0.7186
  839MOL0     H15718  11.041   1.531  10.557  0.2668  0.3721  2.0442
  839MOL0     H15719  11.092   1.634  10.304  1.5244  5.0489 -2.8038
  839MOL0     H15720  11.070   1.784  10.392 -1.7627  0.5552  1.6870
  839MOL0     H15721  11.260   1.553  10.468  0.9754  0.4141  1.7536
  839MOL0     H15722  11.313   1.687  10.371 -1.3997 -0.1924 -0.3768
  839MOL0     H15723  11.230   1.685  10.659 -0.0800 -0.3742 -0.1831
  839MOL0     H15724  11.234   1.834  10.577  1.7171  0.6141 -0.2592
  839MOL0     H15725  11.485   1.775  10.503 -0.2300  1.9241 -0.0632
  839MOL0     H15726  11.439   1.851  10.660  0.7610 -0.9203  2.9502
  839MOL0     H15727  11.425   1.587  10.729 -2.1624 -0.6607 -2.3734
  839MOL0     H15728  11.580   1.678  10.726 -1.1396  1.2615 -0.5565
  839MOL0     H15729  11.565   1.440  10.644  0.5388  0.2167  0.1850
  839MOL0     H15730  11.492   1.498  10.493  0.0179  1.4733 -0.2832
  839MOL0     H15731  11.656   1.608  10.312  2.2016  0.1067 -1.8213
  839MOL0     H15732  11.995   1.552  10.248  1.8284  1.5445  1.2786
  839MOL0     H15733  11.994   1.727  10.296 -0.7446  1.2661  0.2764
  839MOL0     H15734  11.767   1.613  10.137 -1.3585  1.9040 -0.8243
  839MOL0     H15735  11.801   1.775  10.177  0.5340 -0.9571  3.0698
  839MOL0     H15736  11.986   1.613   9.996  2.3668  1.0631 -0.3130
  839MOL0     H15737  11.871   1.732   9.943  0.7619  2.2102 -0.7715
  839MOL0     H15738  12.062   1.837   9.931 -0.2127 -0.4487  0.0914
  839MOL0     H15739  11.983   1.900  10.078  0.4158 -0.5995  1.5283
  839MOL0     H15740  12.173   2.039  10.016 -0.5719 -2.1408 -4.9568
  839MOL0     H15741  12.287   2.227   9.937  0.1450  1.0702 -1.6095
  839MOL0     H15742  12.454   2.231   9.906 -1.3410  1.1068 -0.6592
  839MOL0     H15743  12.401   2.268  10.070 -4.3046  1.7101 -1.3573
  839MOL0     H15744  12.825   2.162   9.860 -1.8496 -2.6546  3.8381
  839MOL0     H15745  12.999   2.328   9.808 -1.5351  2.3093 -0.6095
  839MOL0     H15746  13.044   2.709  10.083 -0.9938 -0.6339  2.5571
  839MOL0     H15747  13.142   2.573  10.151  0.1446 -1.5787 -1.8077
  839MOL0     H15748  13.222   2.720   9.902 -1.3658 -0.1974  1.2576
  839MOL0     H15749  13.269   2.776  10.073  3.7005 -0.3293 -0.0809
  839MOL0     H15750  13.351   2.497   9.992  0.6536 -0.0451 -0.1967
  839MOL0     H15751  13.390   2.584  10.140  1.8787 -2.5719 -0.6457
  839MOL0     H15752  13.502   2.761  10.024 -2.4884  0.4383 -1.3802
  839MOL0     H15753  13.479   2.685   9.865 -2.2664  0.3649  0.0625
  839MOL0     H15754  13.633   2.578  10.106 -1.3660  1.9256  0.9002
  839MOL0     H15755  13.600   2.478   9.964 -1.3775  0.9959 -1.0837
  839MOL0     H15756  13.732   2.756   9.928 -0.7672  0.4479  2.8369
  839MOL0     H15757  13.740   2.615   9.820 -1.4414 -2.3596  1.1431
  839MOL0     H15758  13.956   2.628   9.919 -1.7198  1.0128 -1.0278
  839MOL0     H15759  13.868   2.485   9.983  0.0937 -0.2384 -1.0435
  839MOL0     H15760  13.850   2.654  10.202  1.7683  2.1424  2.0008
  839MOL0     H15761  13.934   2.766  10.104 -0.8157  0.3420  3.0541
  839MOL0     H15762  12.901   2.544  10.174  1.8034  1.1688 -1.6860
  839MOL0     H15763  12.719   2.369  10.216 -1.2973  1.2176 -0.8360
  839MOL0     H15764  12.599   1.786  10.064 -0.5538 -0.6422 -0.4599
  839MOL0     H15765  12.386   1.676  10.090  0.5588 -0.0186 -1.8426
  839MOL0     H15766  10.651   1.483  10.372  1.4017  0.7279  1.2051
  839MOL0     H15767  10.444   1.453  10.268  1.3440 -1.0923  0.1901
  839MOL0     H15768  10.200   1.711   9.897  0.6445 -0.9214 -1.6115
  839MOL0     H15769  10.072   1.684   9.696  0.5852  1.2581  0.7054
  839MOL0     H15770   9.958   1.644   9.537  2.9805 -0.6506 -0.3801
  839MOL0     H15771  10.038   1.512   9.488 -1.1361 -0.8214 -2.4249
  839MOL0     H15772   9.865   1.518   9.336  2.5753  0.7400  2.0009
  839MOL0     H15773   9.733   1.549   9.459 -0.2658 -0.5168 -0.9673
  839MOL0     H15774   9.869   1.284   9.385  0.6866 -0.4285  2.7358
  839MOL0     H15775   9.757   1.306   9.519  0.1185 -1.5370 -0.1620
  839MOL0     H15776   9.600   1.415   9.341 -0.3919  0.3606  0.2252
  839MOL0     H15777   9.619   1.237   9.343  1.4190  0.0141 -0.6843
  839MOL0     H15778   9.750   1.250   8.968 -0.9786 -0.5053 -0.2301
  839MOL0     H15779   9.868   1.352   9.884 -1.5084  0.9034 -1.0652
  839MOL0     H15780  10.056   1.276  10.130 -1.6049 -1.0542  2.5964
  839MOL0     H15781   9.958   1.409  10.202  0.5895  2.3544 -0.3493
  839MOL0     H15782   9.883   1.308  10.090  1.3356 -0.2896 -3.8808
  840MOL0     O15783   5.935   3.455   4.599 -0.6600 -0.2973  0.2991
  840MOL0     C15784   5.957   3.513   4.490  0.3944 -0.0277  0.0051
  840MOL0     O15785   6.047   3.483   4.398 -0.4348  0.4793  0.1197
  840MOL0     C15786   6.174   3.438   4.437 -0.4640 -0.1363  0.1584
  840MOL0     C15787   6.279   3.526   4.398 -0.0824 -0.0473  0.2179
  840MOL0     C15788   6.413   3.481   4.403  0.1022 -0.2574 -0.9038
  840MOL0     C15789   6.441   3.348   4.449 -0.0213  0.8381  0.5439
  840MOL0     O15790   6.569   3.293   4.456  0.4284 -0.0293 -0.1930
  840MOL0     C15791   6.677   3.360   4.378 -0.3785 -0.2361 -0.4501
  840MOL0     C15792   6.802   3.279   4.343 -0.6971 -0.1615  0.7327
  840MOL0     C15793   6.909   3.347   4.267 -0.0676 -0.6206  0.9225
  840MOL0     C15794   7.039   3.267   4.291  0.5753  0.7469  0.1218
  840MOL0     C15795   7.149   3.330   4.200 -0.7195 -0.8601  0.4899
  840MOL0     C15796   7.284   3.257   4.206  0.6613  0.0691  0.0674
  840MOL0     C15797   7.398   3.342   4.158  0.6765 -0.0032 -0.6563
  840MOL0     C15798   7.538   3.273   4.169 -0.1139  0.2079  0.3440
  840MOL0     N15799   7.602   3.295   4.292 -0.4628  0.3688 -0.0753
  840MOL0     C15800   7.631   3.197   4.388 -0.3061  0.7197 -0.1550
  840MOL0     C15801   7.684   3.268   4.489 -0.7080  0.4007  0.8599
  840MOL0     C15802   7.729   3.209   4.618 -0.2539 -0.1108 -0.5832
  840MOL0     C15803   7.879   3.224   4.626 -1.1306 -0.2869 -0.3989
  840MOL0     C15804   7.929   3.150   4.750  0.0074  0.2494 -0.3443
  840MOL0     C15805   8.075   3.180   4.784  0.0327 -0.6373  0.5025
  840MOL0     O15806   8.065   3.321   4.841  0.0863  0.4295  0.2317
  840MOL0     C15807   8.182   3.385   4.854 -0.4287 -0.0325  0.5050
  840MOL0     C15808   8.168   3.523   4.896 -1.5015  0.5568 -0.2335
  840MOL0     C15809   8.278   3.615   4.912  0.0569  1.1902 -0.6737
  840MOL0     C15810   8.226   3.762   4.947 -0.0484 -0.5994 -0.8558
  840MOL0     C15811   8.401   3.558   4.903 -0.4089  0.3355  0.0766
  840MOL0     C15812   8.523   3.632   4.943 -0.3824  0.0581 -0.6323
  840MOL0     O15813   8.639   3.559   4.946  0.3943  1.1715  0.3177
  840MOL0     C15814   8.744   3.619   5.008 -0.2099  0.1502 -0.0830
  840MOL0     C15815   8.825   3.717   4.945  0.4445  0.7918  0.5353
  840MOL0     C15816   8.932   3.770   5.018  0.3179 -0.2295 -0.1300
  840MOL0     C15817   8.947   3.739   5.157 -0.6943  0.3221 -0.7874
  840MOL0     O15818   9.047   3.796   5.236 -0.0239  0.6329 -0.0896
  840MOL0     C15819   9.136   3.876   5.174  0.0915 -0.7183 -0.0294
  840MOL0     C15820   9.256   3.904   5.273  0.5831 -0.3650  0.2975
  840MOL0     C15821   9.344   4.019   5.216  0.5144  0.1635 -0.2660
  840MOL0     C15822   9.479   4.037   5.291  0.1461  0.5738 -0.4945
  840MOL0     C15823   9.563   4.143   5.233 -0.0632 -0.0977  0.4092
  840MOL0     C15824   9.690   4.167   5.321  0.0987  0.1000 -0.5680
  840MOL0     C15825   9.786   4.277   5.277 -0.6490  0.1391  0.0646
  840MOL0     C15826   9.899   4.297   5.377 -0.4387  0.5385  0.4321
  840MOL0    Cl15827  10.026   4.417   5.312  0.4184 -0.1526  0.1946
  840MOL0     C15828   8.867   3.644   5.214 -0.6395  0.1122  0.8280
  840MOL0     C15829   8.772   3.582   5.138  0.3910 -0.2748  0.5386
  840MOL0     O15830   8.512   3.748   4.979  0.7663 -0.0609 -0.3156
  840MOL0     C15831   8.411   3.420   4.874  0.0871  0.0232  0.5952
  840MOL0     C15832   8.308   3.330   4.844  0.5521  0.8295 -1.2845
  840MOL0     N15833   7.682   3.399   4.451 -0.4545 -0.8981  0.0538
  840MOL0     N15834   7.636   3.413   4.328  0.2979  0.0261 -0.2919
  840MOL0     C15835   6.329   3.265   4.483 -0.7814 -0.3943 -0.2031
  840MOL0     C15836   6.200   3.311   4.479 -0.2468 -0.0568  0.1763
  840MOL0     C15837   5.847   3.611   4.448  0.2023  0.6262 -0.1979
  840MOL0     C15838   5.811   3.610   4.311 -0.0850 -0.5671  0.0091
  840MOL0     C15839   5.703   3.688   4.267 -0.8065  0.3168  0.1280
  840MOL0     C15840   5.639   3.772   4.352  0.7342  0.3037 -0.4100
  840MOL0     O15841   5.536   3.844   4.291 -0.5378 -0.2611  0.1099
  840MOL0     C15842   5.456   3.930   4.378  0.2647 -0.9723 -0.3902
  840MOL0     C15843   5.340   3.986   4.296  0.9000 -0.6719  1.4001
  840MOL0     C15844   5.228   4.050   4.380  0.2024  0.8099  0.2675
  840MOL0     C15845   5.119   4.127   4.294 -0.1721  0.5525  0.1057
  840MOL0     C15846   4.992   4.139   4.358 -0.1374 -0.5048 -0.3792
  840MOL0     C15847   4.897   4.146   4.431  0.7122  0.0724 -0.1715
  840MOL0     C15848   5.664   3.772   4.488  0.6968  0.0734  0.2369
  840MOL0     C15849   5.773   3.693   4.534  0.3164 -0.5589  0.0652
  840MOL0     C15850   5.794   3.708   4.683 -0.3167 -0.0164  0.4491
  840MOL0     H15851   6.267   3.627   4.359  0.5130  0.1049  0.4048
  840MOL0     H15852   6.492   3.553   4.381  0.3114 -1.3656 -4.3764
  840MOL0     H15853   6.715   3.445   4.435 -1.2472  2.1814 -3.2882
  840MOL0     H15854   6.632   3.393   4.284  0.4520  2.0832 -0.0943
  840MOL0     H15855   6.846   3.247   4.437  2.0843 -1.1953 -0.7978
  840MOL0     H15856   6.769   3.194   4.283  0.4994 -0.5716  0.6416
  840MOL0     H15857   6.884   3.350   4.160 -0.9198 -1.1258  1.1005
  840MOL0     H15858   6.921   3.451   4.300 -0.8906 -0.5506  1.0368
  840MOL0     H15859   7.064   3.292   4.394  0.6879 -1.9878  0.8162
  840MOL0     H15860   7.016   3.161   4.281 -0.1615  1.0778 -2.3377
  840MOL0     H15861   7.154   3.431   4.242 -0.8980 -0.4005 -0.5650
  840MOL0     H15862   7.122   3.326   4.094 -6.0776 -1.5870  1.5651
  840MOL0     H15863   7.308   3.225   4.307  0.8920 -0.3529 -0.1165
  840MOL0     H15864   7.280   3.167   4.143  1.5422 -0.7427  1.1334
  840MOL0     H15865   7.388   3.437   4.210  1.1840 -0.2325 -0.1190
  840MOL0     H15866   7.387   3.363   4.051 -0.3241 -2.8086 -1.1831
  840MOL0     H15867   7.527   3.168   4.142  0.0058  0.5672 -1.2076
  840MOL0     H15868   7.599   3.319   4.091 -1.6384  0.3656 -0.8084
  840MOL0     H15869   7.629   3.089   4.390  1.3797  0.6091 -1.5857
  840MOL0     H15870   7.690   3.108   4.633  1.0372 -0.6148 -0.4846
  840MOL0     H15871   7.679   3.267   4.696 -1.7160 -0.4774 -1.2212
  840MOL0     H15872   7.926   3.173   4.541  0.4226  1.6150 -0.7416
  840MOL0     H15873   7.906   3.329   4.629 -1.4034 -0.2399  1.6501
  840MOL0     H15874   7.879   3.177   4.843  1.1519  0.2418  0.2994
  840MOL0     H15875   7.927   3.041   4.735  3.2558  0.0423 -0.0608
  840MOL0     H15876   8.113   3.113   4.861  1.7862 -0.6468 -0.3234
  840MOL0     H15877   8.143   3.179   4.698  0.2314  0.5229  0.6194
  840MOL0     H15878   8.066   3.553   4.916 -0.9482  1.4161  1.4564
  840MOL0     H15879   8.137   3.785   4.887  0.8533 -0.1690 -2.0761
  840MOL0     H15880   8.304   3.833   4.916  1.4514 -2.5006 -1.6597
  840MOL0     H15881   8.202   3.777   5.052  1.6148 -1.7911 -0.2536
  840MOL0     H15882   8.814   3.727   4.838 -1.1431  1.7604  0.7642
  840MOL0     H15883   8.985   3.857   4.980 -1.1614  0.3140 -1.0316
  840MOL0     H15884   9.190   3.835   5.088 -0.2129 -0.0803 -0.5370
  840MOL0     H15885   9.078   3.965   5.146 -0.2335 -0.2475  1.9943
  840MOL0     H15886   9.213   3.929   5.370  0.3416 -0.4711  0.2210
  840MOL0     H15887   9.322   3.818   5.288  1.5932  0.1473 -0.9760
  840MOL0     H15888   9.289   4.111   5.235  0.1089  0.4943 -2.7610
  840MOL0     H15889   9.370   3.998   5.112 -0.4034  0.4770 -0.5582
  840MOL0     H15890   9.527   3.938   5.294 -1.2144 -0.0939 -0.0579
  840MOL0     H15891   9.458   4.068   5.393 -0.7080  1.5050 -0.9446
  840MOL0     H15892   9.604   4.115   5.135  2.1457 -0.5038  1.3998
  840MOL0     H15893   9.503   4.235   5.229  1.8671  1.3289  2.2672
  840MOL0     H15894   9.743   4.071   5.323 -0.0077 -0.0525 -2.8110
  840MOL0     H15895   9.654   4.189   5.422  1.1569 -0.2961 -0.0876
  840MOL0     H15896   9.723   4.366   5.266 -1.2755 -0.4393 -1.1738
  840MOL0     H15897   9.819   4.256   5.175 -0.7971  2.5789 -0.5577
  840MOL0     H15898   9.936   4.195   5.391 -0.7574  0.6115  1.8936
  840MOL0     H15899   9.862   4.336   5.472  1.1785 -0.9146  1.7112
  840MOL0     H15900   8.890   3.601   5.311 -0.8850 -1.2141  0.3170
  840MOL0     H15901   8.706   3.517   5.194  2.5751 -1.3630  2.0123
  840MOL0     H15902   8.509   3.373   4.878 -0.0262 -0.2981 -0.1794
  840MOL0     H15903   8.328   3.228   4.814  0.8451  1.0341 -1.7955
  840MOL0     H15904   6.347   3.160   4.503  1.7040 -0.0181 -0.0799
  840MOL0     H15905   6.115   3.243   4.481 -1.2010  1.0883 -0.0689
  840MOL0     H15906   5.852   3.543   4.236 -1.6892 -0.3243 -1.1322
  840MOL0     H15907   5.663   3.697   4.166 -1.5787 -0.6671  0.3287
  840MOL0     H15908   5.415   3.863   4.454  1.3245 -1.6586 -0.4036
  840MOL0     H15909   5.506   4.012   4.430  0.6313  0.2322 -2.5341
  840MOL0     H15910   5.317   3.904   4.228  1.8143  1.7422 -2.1384
  840MOL0     H15911   5.363   4.061   4.219 -0.3314 -0.7585  0.9265
  840MOL0     H15912   5.176   3.971   4.436  1.3127  0.2274  0.4974
  840MOL0     H15913   5.270   4.118   4.455 -0.8604  1.4279  0.3259
  840MOL0     H15914   5.104   4.074   4.200 -1.4432 -1.7338  1.5134
  840MOL0     H15915   5.140   4.234   4.285 -4.3808  1.5359 -0.0145
  840MOL0     H15916   4.822   4.157   4.506  0.2731 -0.1873 -0.5623
  840MOL0     H15917   5.611   3.842   4.551 -0.0024  0.4384 -0.7218
  840MOL0     H15918   5.755   3.619   4.734 -0.6889 -0.7071 -0.9890
  840MOL0     H15919   5.893   3.731   4.723  1.2407  0.1742 -3.1299
  840MOL0     H15920   5.738   3.794   4.721  1.0396  1.2380 -0.3329
  841MOL0     O15921  11.232   1.812   1.413  0.0290 -0.4734  0.4747
  841MOL0     C15922  11.306   1.718   1.417  0.4788  1.3685  0.0494
  841MOL0     O15923  11.415   1.697   1.341 -0.0110  0.0406  0.6197
  841MOL0     C15924  11.457   1.790   1.240  0.1243  1.1625 -0.0867
  841MOL0     C15925  11.396   1.905   1.191  0.3042 -0.4036  1.0813
  841MOL0     C15926  11.459   1.998   1.105  0.3374 -0.0155 -0.2237
  841MOL0     C15927  11.582   1.965   1.054 -0.0461 -0.4497 -0.2156
  841MOL0     O15928  11.658   2.046   0.972  0.4206  0.2045  0.6877
  841MOL0     C15929  11.595   2.161   0.913  0.0291  0.0874 -0.0036
  841MOL0     C15930  11.695   2.252   0.832 -0.3104  0.5882 -1.0565
  841MOL0     C15931  11.789   2.173   0.741 -0.1134 -0.4290  0.1382
  841MOL0     C15932  11.910   2.262   0.688  0.3704  0.1323  0.2436
  841MOL0     C15933  11.989   2.172   0.591  0.6284  0.4765 -0.5159
  841MOL0     C15934  12.121   2.243   0.544 -0.6319  0.7657 -1.0194
  841MOL0     C15935  12.239   2.253   0.643  0.2011  0.5216 -0.7430
  841MOL0     C15936  12.364   2.314   0.570 -1.0361  0.0262 -0.0192
  841MOL0     N15937  12.486   2.327   0.662  0.6319  0.6416  0.8114
  841MOL0     C15938  12.608   2.266   0.634  0.4692 -0.1184  1.0150
  841MOL0     C15939  12.696   2.328   0.725  0.4765  1.2878  1.0474
  841MOL0     C15940  12.843   2.282   0.738 -0.8920 -0.2479  0.0731
  841MOL0     C15941  12.876   2.266   0.894  0.6434  0.0193  0.3097
  841MOL0     C15942  13.014   2.210   0.916  0.8317  0.2357 -0.0414
  841MOL0     C15943  13.131   2.299   0.899  0.1016 -0.3361 -0.0083
  841MOL0     O15944  13.239   2.227   0.941  0.0726  0.0225 -0.1496
  841MOL0     C15945  13.365   2.290   0.916 -0.6967  0.4693 -0.0483
  841MOL0     C15946  13.382   2.428   0.879  0.7659 -0.5183  0.0420
  841MOL0     C15947  13.510   2.486   0.860  0.4369 -0.0639 -0.2132
  841MOL0     C15948  13.507   2.616   0.792 -0.1094 -0.4014  0.6432
  841MOL0     C15949  13.629   2.417   0.874 -0.1839  0.7430  0.3117
  841MOL0     C15950  13.766   2.476   0.873  0.4115  0.0252  0.4479
  841MOL0     O15951  13.863   2.386   0.849  0.3517 -0.4147 -0.1777
  841MOL0     C15952  13.990   2.430   0.834  0.1996  0.6385  0.4762
  841MOL0     C15953  14.015   2.536   0.752  0.1016  0.2155  0.1739
  841MOL0     C15954  14.143   2.579   0.740  0.1335  1.1902 -0.1935
  841MOL0     C15955  14.251   2.502   0.793  0.3567 -0.8271  0.5705
  841MOL0     O15956  14.380   2.534   0.757  0.3769  0.3735 -0.1335
  841MOL0     C15957  14.416   2.590   0.627 -0.3924  0.2769 -0.4691
  841MOL0     C15958  14.376   2.511   0.501 -0.3537  0.2674  0.3179
  841MOL0     C15959  14.455   2.551   0.376 -0.0647 -0.3584 -0.6800
  841MOL0     C15960  14.389   2.670   0.309 -0.5664  0.0004  0.0471
  841MOL0     C15961  14.463   2.723   0.184 -0.1840 -1.0271  0.2220
  841MOL0     C15962  14.386   2.832   0.126  0.0913 -1.0838  0.0619
  841MOL0     C15963  14.451   2.874  -0.004  0.1426 -0.0508  0.2859
  841MOL0     C15964  14.373   2.953  -0.103  0.4033 -0.1057 -0.2271
  841MOL0    Cl15965  14.219   2.873  -0.141  0.1136  0.4472  0.1186
  841MOL0     C15966  14.230   2.403   0.880 -0.5217  0.2177  0.1954
  841MOL0     C15967  14.098   2.364   0.895  0.4660 -0.0615  0.0825
  841MOL0     O15968  13.779   2.597   0.906 -0.1803 -0.4334  0.5952
  841MOL0     C15969  13.613   2.281   0.916 -0.1520 -0.6555 -0.4489
  841MOL0     C15970  13.484   2.223   0.938  0.3507  0.2075  0.0721
  841MOL0     N15971  12.622   2.411   0.800 -0.7838  0.3337 -0.1910
  841MOL0     N15972  12.501   2.406   0.767  0.7303  0.4661  0.0530
  841MOL0     C15973  11.640   1.836   1.088  0.3394 -0.8813  0.4466
  841MOL0     C15974  11.583   1.753   1.183 -0.8750  0.7495  0.0236
  841MOL0     C15975  11.272   1.606   1.497  0.6579 -0.7049 -0.2190
  841MOL0     C15976  11.237   1.623   1.635 -0.3480 -0.7131  0.6560
  841MOL0     C15977  11.187   1.519   1.710  0.2210  0.3045 -0.5179
  841MOL0     C15978  11.172   1.392   1.649 -0.2261  0.1169  0.4375
  841MOL0     O15979  11.112   1.298   1.730  0.2583  0.4070  0.2650
  841MOL0     C15980  11.136   1.162   1.696  0.1484  0.5541  0.9961
  841MOL0     C15981  11.106   1.078   1.818  0.7803 -0.5824  0.4893
  841MOL0     C15982  11.176   1.126   1.950  0.2154 -0.6101  0.4605
  841MOL0     C15983  11.091   1.216   2.037 -0.2415 -1.1034  0.1882
  841MOL0     C15984  10.991   1.136   2.106 -0.1363  0.5546  0.0178
  841MOL0     C15985  10.917   1.065   2.177  0.4150 -0.4157 -0.2717
  841MOL0     C15986  11.194   1.387   1.512  0.5216 -0.1962  0.4984
  841MOL0     C15987  11.235   1.489   1.439  0.5717  0.2013  1.2737
  841MOL0     C15988  11.245   1.457   1.288  0.3872 -0.5585 -0.8300
  841MOL0     H15989  11.296   1.938   1.222  0.6961  1.5941  0.3671
  841MOL0     H15990  11.414   2.095   1.084  1.6470  0.9001  1.0047
  841MOL0     H15991  11.551   2.232   0.983  1.2854 -0.4036  1.3381
  841MOL0     H15992  11.516   2.117   0.850 -1.5861  0.9625  1.3281
  841MOL0     H15993  11.640   2.328   0.776 -1.2234 -0.1335 -1.1695
  841MOL0     H15994  11.752   2.301   0.911 -1.0530  0.9355 -0.7356
  841MOL0     H15995  11.840   2.093   0.795  0.7458 -0.6807 -0.9992
  841MOL0     H15996  11.733   2.137   0.654 -1.8145  0.7465  0.7094
  841MOL0     H15997  11.889   2.356   0.637 -1.6272 -1.5606 -2.3277
  841MOL0     H15998  11.984   2.278   0.767  0.4069  1.9602 -0.1207
  841MOL0     H15999  11.922   2.151   0.508  0.4947 -3.1740  0.3488
  841MOL0     H16000  12.017   2.079   0.640  0.3218  1.4042  1.5583
  841MOL0     H16001  12.164   2.187   0.460 -2.9430 -0.4161 -1.4809
  841MOL0     H16002  12.102   2.347   0.514  0.4243  0.8927 -1.3162
  841MOL0     H16003  12.258   2.149   0.673  0.0492  1.1475  1.7373
  841MOL0     H16004  12.217   2.307   0.736  0.8250 -2.4572  1.3038
  841MOL0     H16005  12.385   2.256   0.480 -2.3021  1.5541 -1.3796
  841MOL0     H16006  12.340   2.416   0.538  1.2697  0.7071  0.2363
  841MOL0     H16007  12.630   2.198   0.552 -0.8517  2.3072 -1.5049
  841MOL0     H16008  12.908   2.364   0.706 -2.7306  1.6616  0.9034
  841MOL0     H16009  12.858   2.198   0.671 -0.9587  1.6880 -2.5390
  841MOL0     H16010  12.871   2.370   0.927  1.0045  0.2319 -0.2773
  841MOL0     H16011  12.797   2.208   0.943 -0.3591  2.5132  1.8177
  841MOL0     H16012  12.998   2.182   1.020 -1.1269 -2.3275 -0.9423
  841MOL0     H16013  13.021   2.119   0.856 -1.1564 -1.5338  2.2281
  841MOL0     H16014  13.151   2.328   0.796 -0.0113 -2.4245 -0.6653
  841MOL0     H16015  13.115   2.390   0.958  2.1182 -0.0374  0.1444
  841MOL0     H16016  13.291   2.486   0.867  1.5724  0.6703 -0.4164
  841MOL0     H16017  13.415   2.640   0.738 -1.6599 -1.1369  2.7975
  841MOL0     H16018  13.596   2.623   0.729  0.4552  1.2081  1.5423
  841MOL0     H16019  13.519   2.700   0.862 -2.4313  0.3409  0.2617
  841MOL0     H16020  13.937   2.585   0.695  0.5918  0.6449 -0.1474
  841MOL0     H16021  14.162   2.661   0.671  0.8627  1.8848  0.8066
  841MOL0     H16022  14.387   2.695   0.613 -2.9235 -0.3152 -0.0944
  841MOL0     H16023  14.525   2.598   0.629 -0.3069 -0.9351  1.5420
  841MOL0     H16024  14.401   2.405   0.516 -2.2065 -0.6926 -2.4861
  841MOL0     H16025  14.272   2.532   0.476 -0.1573  1.7250  0.6298
  841MOL0     H16026  14.448   2.470   0.303 -0.3411  0.3888 -1.4991
  841MOL0     H16027  14.554   2.592   0.395 -0.3283  0.5257 -1.1447
  841MOL0     H16028  14.381   2.756   0.376 -0.2604 -0.7152  1.0218
  841MOL0     H16029  14.284   2.652   0.286  0.0050 -1.9627 -1.2165
  841MOL0     H16030  14.555   2.769   0.219 -1.8057  3.7155 -0.9664
  841MOL0     H16031  14.485   2.641   0.115 -1.2140 -0.3713 -0.9303
  841MOL0     H16032  14.394   2.924   0.184  1.5330 -0.0015 -1.7616
  841MOL0     H16033  14.280   2.814   0.103 -1.3803  3.2182  2.2580
  841MOL0     H16034  14.463   2.778  -0.055 -0.5295  0.0621 -0.0861
  841MOL0     H16035  14.547   2.912   0.032  1.1199 -2.1525  0.0569
  841MOL0     H16036  14.437   2.969  -0.190  1.9538  1.4019  1.1138
  841MOL0     H16037  14.351   3.051  -0.059  1.9742  0.5342 -0.8220
  841MOL0     H16038  14.309   2.347   0.930 -0.8097  0.5740  1.0680
  841MOL0     H16039  14.076   2.274   0.951  1.7355 -0.2614  0.3038
  841MOL0     H16040  13.701   2.218   0.930 -0.3419 -0.5158  1.7717
  841MOL0     H16041  13.482   2.119   0.969  2.4748 -0.3126 -1.2975
  841MOL0     H16042  11.739   1.817   1.049  0.8668  0.1654  1.2034
  841MOL0     H16043  11.632   1.664   1.219 -1.0020  0.7605  0.2249
  841MOL0     H16044  11.244   1.721   1.682  2.0677  1.0028 -2.7927
  841MOL0     H16045  11.160   1.543   1.812  0.2407  0.2238 -0.4933
  841MOL0     H16046  11.071   1.123   1.617  1.6862  1.2501 -0.6683
  841MOL0     H16047  11.239   1.150   1.663 -0.3623 -1.4683  0.0103
  841MOL0     H16048  11.147   0.978   1.796 -1.5614 -1.3552 -0.6095
  841MOL0     H16049  11.001   1.057   1.837  0.7971 -1.2744 -0.1369
  841MOL0     H16050  11.214   1.044   2.012  1.2911 -0.1370  0.4502
  841MOL0     H16051  11.268   1.175   1.917 -0.2749 -0.2222 -0.3586
  841MOL0     H16052  11.044   1.291   1.971 -1.9398 -0.7959  1.6562
  841MOL0     H16053  11.157   1.265   2.109 -0.9845 -0.5439  0.5100
  841MOL0     H16054  10.853   1.002   2.235 -0.4958  1.8447  1.2559
  841MOL0     H16055  11.172   1.294   1.461  0.5273  0.9767 -1.7775
  841MOL0     H16056  11.182   1.529   1.236 -2.1739 -0.7161  1.7745
  841MOL0     H16057  11.350   1.472   1.261  0.1416  1.0036 -1.0201
  841MOL0     H16058  11.196   1.361   1.266 -0.1065 -0.5893  0.3291
  842MOL0     O16059   7.139   3.306   7.466 -0.2139 -0.5828 -0.9066
  842MOL0     C16060   7.118   3.301   7.346  0.8570  0.6284 -0.8320
  842MOL0     O16061   7.200   3.236   7.261 -0.0870  0.0987  0.6616
  842MOL0     C16062   7.317   3.180   7.305 -0.2814 -0.2038  0.6924
  842MOL0     C16063   7.328   3.043   7.322 -0.2765 -0.0164 -0.4292
  842MOL0     C16064   7.442   2.985   7.381  0.2320 -0.0551 -0.5950
  842MOL0     C16065   7.563   3.060   7.396  0.4448  0.4000 -0.8101
  842MOL0     O16066   7.680   3.008   7.448 -0.6070  0.1698  0.3432
  842MOL0     C16067   7.794   3.008   7.355 -0.0674  0.5579 -0.1359
  842MOL0     C16068   7.902   2.919   7.423  0.8022 -0.8015  0.0605
  842MOL0     C16069   8.048   2.964   7.393  1.7467 -0.0294  0.1483
  842MOL0     C16070   8.146   2.881   7.470 -0.2990  0.2721 -0.3471
  842MOL0     C16071   8.290   2.939   7.467  0.1227 -0.0031  0.3737
  842MOL0     C16072   8.398   2.855   7.534  0.1387 -0.8026  0.8473
  842MOL0     C16073   8.366   2.832   7.681  0.2483 -0.2248 -0.2936
  842MOL0     C16074   8.472   2.757   7.766 -0.2176 -0.3996 -0.6671
  842MOL0     N16075   8.610   2.813   7.743 -0.1270  0.2640 -0.3897
  842MOL0     C16076   8.691   2.759   7.659 -0.9350  0.2637  0.1687
  842MOL0     C16077   8.807   2.824   7.661  0.7605  0.3821 -0.1619
  842MOL0     C16078   8.928   2.796   7.573  0.3846  0.1720 -0.4226
  842MOL0     C16079   9.051   2.880   7.613  0.2182  0.1331  0.3349
  842MOL0     C16080   9.140   2.825   7.726  0.8775  0.1573  0.0143
  842MOL0     C16081   9.221   2.939   7.793  0.6295 -0.0900 -0.7768
  842MOL0     O16082   9.300   2.899   7.911  1.0524 -0.4070 -0.0328
  842MOL0     C16083   9.427   2.857   7.898 -0.4117  0.6888  0.0952
  842MOL0     C16084   9.485   2.800   7.780 -0.0067 -0.2422  0.1185
  842MOL0     C16085   9.617   2.763   7.774  0.1139 -0.2344  0.7128
  842MOL0     C16086   9.658   2.696   7.645  0.0014 -0.1803 -0.2762
  842MOL0     C16087   9.706   2.795   7.874  0.6093 -0.0848 -0.5234
  842MOL0     C16088   9.850   2.772   7.880 -0.2462  0.4470 -0.0752
  842MOL0     O16089   9.904   2.704   7.982 -1.3885  0.7337  0.1902
  842MOL0     C16090  10.040   2.669   7.974 -0.2009 -0.2764 -0.1687
  842MOL0     C16091  10.105   2.604   7.868  0.6459  0.3949  0.2816
  842MOL0     C16092  10.244   2.584   7.871  0.2879  0.4280 -0.6471
  842MOL0     C16093  10.312   2.620   7.984 -0.2590 -0.0693 -0.8076
  842MOL0     O16094  10.448   2.598   7.992  0.3112 -0.1347 -0.0853
  842MOL0     C16095  10.520   2.534   7.889 -0.0568  0.1751  0.0476
  842MOL0     C16096  10.672   2.573   7.911  0.0882  0.0630  0.2989
  842MOL0     C16097  10.736   2.513   8.035 -0.4771 -0.0001 -0.1672
  842MOL0     C16098  10.887   2.566   8.048  0.2464  0.0137  0.0510
  842MOL0     C16099  10.993   2.475   8.116  0.0525  0.2961  0.6946
  842MOL0     C16100  10.977   2.454   8.266  0.4609  0.6975 -0.5731
  842MOL0     C16101  11.104   2.389   8.333  0.2209 -0.1474  0.4769
  842MOL0     C16102  11.217   2.492   8.359 -0.1870  0.3973 -0.0133
  842MOL0    Cl16103  11.170   2.608   8.490  0.2939 -0.2681 -0.2033
  842MOL0     C16104  10.253   2.686   8.093  0.9176  0.2294 -0.0896
  842MOL0     C16105  10.119   2.715   8.078  0.6533  0.2463  0.2670
  842MOL0     O16106   9.908   2.819   7.780  0.2785  0.7380  0.3692
  842MOL0     C16107   9.652   2.848   7.992  0.8536 -0.5889 -1.1208
  842MOL0     C16108   9.512   2.874   8.003 -0.2600  0.2081 -0.4422
  842MOL0     N16109   8.779   2.922   7.756  0.6223 -0.5489  0.3252
  842MOL0     N16110   8.660   2.919   7.801 -0.0202  0.0748 -0.3739
  842MOL0     C16111   7.555   3.194   7.350 -0.1913 -0.7444 -0.3567
  842MOL0     C16112   7.435   3.256   7.321 -0.2172  0.8297  0.3544
  842MOL0     C16113   6.990   3.347   7.291  0.6766 -0.4173  0.2267
  842MOL0     C16114   6.948   3.289   7.168  0.3535  0.7969 -1.0265
  842MOL0     C16115   6.831   3.334   7.100  0.6864 -0.0281  0.3948
  842MOL0     C16116   6.752   3.434   7.160 -0.3405 -0.6178 -0.1558
  842MOL0     O16117   6.639   3.494   7.104  0.9874  1.0833  0.1781
  842MOL0     C16118   6.623   3.467   6.960  0.5215  0.8383  0.1166
  842MOL0     C16119   6.501   3.543   6.911 -0.0573  0.0207 -0.8907
  842MOL0     C16120   6.367   3.514   6.984 -0.6734 -0.6749 -0.0883
  842MOL0     C16121   6.246   3.558   6.898 -0.0886 -0.1511  0.3308
  842MOL0     C16122   6.242   3.454   6.789 -0.0125 -1.1360 -0.6482
  842MOL0     C16123   6.241   3.356   6.715 -0.9133 -0.4151  0.2213
  842MOL0     C16124   6.796   3.497   7.273  0.5845 -0.1977 -0.6269
  842MOL0     C16125   6.914   3.458   7.336 -0.4405  0.0431  0.8000
  842MOL0     C16126   6.965   3.542   7.455  0.3174  0.0073 -0.0512
  842MOL0     H16127   7.245   2.977   7.297 -1.1283  0.8952 -0.0837
  842MOL0     H16128   7.443   2.879   7.401 -0.9553 -0.0118 -0.2590
  842MOL0     H16129   7.838   3.109   7.354  2.0733 -0.3263 -0.5546
  842MOL0     H16130   7.781   2.965   7.256  2.8099 -0.5303 -0.1465
  842MOL0     H16131   7.881   2.941   7.528  0.0038  1.4502 -0.5092
  842MOL0     H16132   7.893   2.813   7.397 -1.9023 -0.7198  0.2911
  842MOL0     H16133   8.068   2.965   7.285  0.8178  1.3841 -0.0375
  842MOL0     H16134   8.051   3.069   7.422 -2.4969  0.7548 -1.3762
  842MOL0     H16135   8.110   2.874   7.574  0.1976  2.0981 -0.0102
  842MOL0     H16136   8.144   2.778   7.434 -2.7388 -0.4716  1.5954
  842MOL0     H16137   8.289   3.037   7.518 -1.4042 -0.6842  1.7302
  842MOL0     H16138   8.326   2.962   7.366 -3.0149  2.7679 -0.2890
  842MOL0     H16139   8.417   2.760   7.483  0.5663  0.7008 -2.0353
  842MOL0     H16140   8.495   2.905   7.536 -0.4473  0.3551  1.1460
  842MOL0     H16141   8.275   2.772   7.688  0.2028 -0.2526 -1.0128
  842MOL0     H16142   8.338   2.922   7.737  0.0598  0.6511 -1.7319
  842MOL0     H16143   8.437   2.766   7.869  1.2637  3.2452 -0.3424
  842MOL0     H16144   8.480   2.652   7.736 -1.3632 -0.0601 -2.2840
  842MOL0     H16145   8.680   2.674   7.591 -1.2647  0.5582 -0.1495
  842MOL0     H16146   8.903   2.823   7.470  0.9338  0.6255 -0.4476
  842MOL0     H16147   8.953   2.690   7.575 -0.5682 -0.0425  0.5512
  842MOL0     H16148   9.110   2.887   7.522 -1.0568 -2.5919 -0.8208
  842MOL0     H16149   9.020   2.982   7.635 -2.8139 -0.0185 -2.5119
  842MOL0     H16150   9.071   2.772   7.792 -2.0054 -0.9141 -3.5342
  842MOL0     H16151   9.205   2.742   7.695  1.1475  0.2192  0.3902
  842MOL0     H16152   9.280   2.993   7.718  1.0959  1.4235  0.6088
  842MOL0     H16153   9.142   3.010   7.821  1.0659 -0.8334  2.7317
  842MOL0     H16154   9.427   2.789   7.689  0.2863  0.8489 -0.2248
  842MOL0     H16155   9.680   2.778   7.577 -0.9399 -1.0371 -1.6689
  842MOL0     H16156   9.576   2.644   7.595 -0.0228  0.0689 -0.4945
  842MOL0     H16157   9.736   2.623   7.665 -1.8352 -2.1980 -0.0461
  842MOL0     H16158  10.052   2.572   7.779  2.5173  1.2024 -1.1912
  842MOL0     H16159  10.293   2.549   7.781 -0.9412  1.1865 -1.6555
  842MOL0     H16160  10.488   2.430   7.894  0.4123 -0.1119 -2.0243
  842MOL0     H16161  10.497   2.569   7.788 -1.7277  0.2739  0.4375
  842MOL0     H16162  10.740   2.552   7.827 -0.7706  0.8494 -0.6099
  842MOL0     H16163  10.678   2.682   7.923  0.0648 -0.0913  2.0274
  842MOL0     H16164  10.739   2.405   8.017  1.0564  0.0641 -0.4636
  842MOL0     H16165  10.668   2.538   8.116 -0.0342 -2.0676  0.9347
  842MOL0     H16166  10.877   2.665   8.092 -1.4758  0.9779 -2.3113
  842MOL0     H16167  10.923   2.575   7.946 -0.8029  3.4619 -0.1359
  842MOL0     H16168  10.986   2.377   8.068  0.0199  0.4620  0.3525
  842MOL0     H16169  11.087   2.525   8.090  0.0415 -0.6982 -1.5042
  842MOL0     H16170  10.894   2.384   8.283 -1.1557  2.3304 -1.3141
  842MOL0     H16171  10.934   2.534   8.326 -0.4516 -0.0505 -0.2046
  842MOL0     H16172  11.145   2.301   8.282 -2.5956 -3.2100  2.9691
  842MOL0     H16173  11.073   2.351   8.431 -1.2143 -3.0026 -0.9512
  842MOL0     H16174  11.238   2.543   8.264 -0.9874 -1.3771 -1.1947
  842MOL0     H16175  11.307   2.441   8.395 -0.2493  0.2862 -0.0147
  842MOL0     H16176  10.308   2.715   8.182  0.6013 -2.3948  1.0522
  842MOL0     H16177  10.079   2.774   8.160  3.2920  2.1887  0.2935
  842MOL0     H16178   9.717   2.880   8.073 -0.0213  0.0448 -0.6631
  842MOL0     H16179   9.466   2.911   8.095  1.3046  2.5769 -0.5384
  842MOL0     H16180   7.646   3.251   7.363  0.2984 -1.3342 -1.0854
  842MOL0     H16181   7.426   3.358   7.287 -1.1947  0.7135  0.2425
  842MOL0     H16182   6.996   3.202   7.125  1.6658  1.6064 -1.2708
  842MOL0     H16183   6.801   3.284   7.008  2.2842  1.0180 -0.7456
  842MOL0     H16184   6.715   3.481   6.902  2.8161 -4.7822  1.6942
  842MOL0     H16185   6.602   3.361   6.941  1.3833  0.8878 -1.2207
  842MOL0     H16186   6.499   3.530   6.803  1.8399 -1.1651 -0.8159
  842MOL0     H16187   6.518   3.650   6.922 -0.6490  0.5703 -4.3428
  842MOL0     H16188   6.361   3.412   7.024 -3.1683 -0.2139  0.9146
  842MOL0     H16189   6.375   3.573   7.076  1.8142 -1.3217  0.1812
  842MOL0     H16190   6.254   3.662   6.865  2.0192  0.1123  1.4939
  842MOL0     H16191   6.156   3.553   6.960  1.2487 -0.8425  2.2977
  842MOL0     H16192   6.265   3.274   6.651  0.7243  2.9794 -4.0427
  842MOL0     H16193   6.740   3.587   7.298 -0.3911 -0.6514 -1.1258
  842MOL0     H16194   7.071   3.518   7.465  0.5461  1.0499  0.1394
  842MOL0     H16195   6.956   3.648   7.431 -1.8051 -0.1574 -0.1853
  842MOL0     H16196   6.907   3.510   7.542 -1.7684 -1.9590 -2.0012
  843MOL0     O16197   4.783   7.525   8.705 -0.6323  0.6814 -0.3330
  843MOL0     C16198   4.694   7.527   8.623  0.6643 -0.3211 -0.4230
  843MOL0     O16199   4.705   7.499   8.489  0.0229 -0.5649 -0.0491
  843MOL0     C16200   4.825   7.467   8.435  0.9753  0.5799 -0.2532
  843MOL0     C16201   4.888   7.343   8.465  0.4459 -0.2197 -0.0180
  843MOL0     C16202   4.998   7.306   8.390  0.1806 -0.7612 -0.5765
  843MOL0     C16203   5.042   7.380   8.286 -0.3120 -0.0375 -0.1730
  843MOL0     O16204   5.152   7.341   8.215 -0.2058  0.5815  0.4027
  843MOL0     C16205   5.269   7.405   8.259  0.1302 -1.0957 -0.8949
  843MOL0     C16206   5.382   7.389   8.158  0.8898 -0.4472 -0.4566
  843MOL0     C16207   5.514   7.443   8.210 -0.1814 -0.0540 -0.3971
  843MOL0     C16208   5.600   7.479   8.088  0.1268  0.9993  0.4761
  843MOL0     C16209   5.727   7.544   8.128 -0.0611  0.3222 -0.2294
  843MOL0     C16210   5.836   7.548   8.010 -0.3493  1.2770 -0.5190
  843MOL0     C16211   5.956   7.632   8.054 -0.8298 -0.3118 -0.5134
  843MOL0     C16212   6.050   7.582   8.167 -0.7663  0.9035  0.2655
  843MOL0     N16213   6.148   7.488   8.103  0.1206  0.6094 -0.2185
  843MOL0     C16214   6.239   7.516   8.005 -0.0059 -0.2113  0.4485
  843MOL0     C16215   6.297   7.397   7.983  0.2286  0.4693 -0.8558
  843MOL0     C16216   6.396   7.379   7.864  0.2806  0.0496  0.8296
  843MOL0     C16217   6.519   7.299   7.893  0.1761  0.9594  0.4230
  843MOL0     C16218   6.495   7.164   7.961 -0.4919  0.4595 -0.0836
  843MOL0     C16219   6.633   7.090   7.981  0.2514  0.4644 -0.0548
  843MOL0     O16220   6.626   6.944   8.001 -0.1461 -0.4904 -0.3638
  843MOL0     C16221   6.728   6.859   7.980 -0.6280 -0.0364  1.4211
  843MOL0     C16222   6.864   6.898   7.975 -0.8888  0.0321 -0.0080
  843MOL0     C16223   6.970   6.805   7.968 -0.2847  0.5462 -0.5028
  843MOL0     C16224   7.108   6.856   7.950  0.0448 -0.0767 -1.0589
  843MOL0     C16225   6.933   6.668   7.986 -0.4353  0.0218  0.5815
  843MOL0     C16226   7.031   6.560   8.006  0.6201  0.5304 -0.3465
  843MOL0     O16227   6.995   6.436   7.949 -0.1646 -0.3531 -0.6174
  843MOL0     C16228   7.085   6.330   7.964  0.2146  0.5742 -0.6834
  843MOL0     C16229   7.148   6.299   8.088 -0.4333 -0.7768 -0.5263
  843MOL0     C16230   7.234   6.193   8.101 -1.0950 -0.3716  0.2074
  843MOL0     C16231   7.263   6.118   7.984  0.0628 -0.2987 -0.5324
  843MOL0     O16232   7.353   6.021   7.971  0.6574 -0.5625 -0.0345
  843MOL0     C16233   7.447   5.984   8.073 -0.6592  0.3503 -1.1264
  843MOL0     C16234   7.590   5.977   8.020 -0.1545 -0.1181 -0.5423
  843MOL0     C16235   7.656   6.111   7.993  0.8176 -0.0637  0.0165
  843MOL0     C16236   7.795   6.083   7.956 -0.8398 -0.9579  0.1928
  843MOL0     C16237   7.876   6.215   7.945  0.1675  0.5124 -0.0955
  843MOL0     C16238   7.907   6.276   8.087  0.0995  0.5803  0.4111
  843MOL0     C16239   7.990   6.402   8.085 -0.5519 -0.2557 -0.0744
  843MOL0     C16240   7.917   6.521   8.011  0.0332  0.3902 -0.0536
  843MOL0    Cl16241   8.013   6.671   8.052 -0.1562  0.4751  0.2691
  843MOL0     C16242   7.210   6.155   7.864 -0.3655 -0.2924  0.8256
  843MOL0     C16243   7.114   6.251   7.849 -0.2860  0.0849 -0.2417
  843MOL0     O16244   7.143   6.589   8.050  0.6539  0.0238  0.1933
  843MOL0     C16245   6.798   6.633   7.976 -0.1430 -0.4010  1.8062
  843MOL0     C16246   6.698   6.725   7.967 -0.0214  1.1596  0.5550
  843MOL0     N16247   6.232   7.304   8.062  0.3112  0.4481 -0.0903
  843MOL0     N16248   6.146   7.361   8.136 -0.4329 -0.0761 -0.0033
  843MOL0     C16249   4.978   7.496   8.254  0.3646  0.1136  0.0690
  843MOL0     C16250   4.875   7.545   8.331  0.2068  0.3533 -0.9995
  843MOL0     C16251   4.565   7.575   8.676 -0.2188 -0.0999  0.2240
  843MOL0     C16252   4.474   7.628   8.579 -0.2712 -0.1748  0.6192
  843MOL0     C16253   4.345   7.666   8.610  0.1665  0.0682 -0.3012
  843MOL0     C16254   4.304   7.671   8.746 -0.5360  0.1646 -0.0479
  843MOL0     O16255   4.175   7.716   8.765 -0.0658 -0.1603  0.2429
  843MOL0     C16256   4.138   7.748   8.904 -0.0748  0.2045 -0.2572
  843MOL0     C16257   3.988   7.802   8.905  0.3889 -0.1067 -0.3311
  843MOL0     C16258   3.886   7.690   8.857  0.6494  0.1133 -0.2500
  843MOL0     C16259   3.849   7.588   8.975 -0.2200 -0.5172  0.5900
  843MOL0     C16260   3.750   7.486   8.933 -0.0874  0.0186  0.3757
  843MOL0     C16261   3.681   7.404   8.881  0.4017  0.2543  0.2951
  843MOL0     C16262   4.404   7.636   8.845  0.4361 -0.1192 -0.2619
  843MOL0     C16263   4.530   7.590   8.813 -0.5605  0.8502 -0.1082
  843MOL0     C16264   4.618   7.554   8.931 -0.5909 -0.3982  0.4451
  843MOL0     H16265   4.842   7.290   8.547 -1.5013  3.9701  1.8911
  843MOL0     H16266   5.047   7.211   8.407 -1.6092 -2.3661 -3.4694
  843MOL0     H16267   5.294   7.351   8.350  0.4415  0.0832 -0.2527
  843MOL0     H16268   5.262   7.510   8.290  0.0252 -1.1081 -0.8741
  843MOL0     H16269   5.384   7.281   8.140  3.5629 -0.3409 -1.1645
  843MOL0     H16270   5.356   7.441   8.065  1.3869  0.5294 -0.0568
  843MOL0     H16271   5.505   7.533   8.272  2.1314 -0.0687  0.0613
  843MOL0     H16272   5.554   7.363   8.273  2.8144  0.6817 -1.1780
  843MOL0     H16273   5.624   7.389   8.031  1.2880  0.9339  1.0326
  843MOL0     H16274   5.549   7.546   8.018  1.2906 -0.0133 -1.4347
  843MOL0     H16275   5.766   7.492   8.216  1.8228  2.2013  0.1204
  843MOL0     H16276   5.711   7.647   8.163  1.2415  0.2692  0.5928
  843MOL0     H16277   5.862   7.442   7.998 -2.2295  0.9021 -1.6355
  843MOL0     H16278   5.791   7.590   7.920 -1.0699 -0.6360 -1.1014
  843MOL0     H16279   5.917   7.725   8.095 -0.7063  0.0663 -1.2394
  843MOL0     H16280   6.008   7.656   7.960 -0.2315 -1.5036 -0.5121
  843MOL0     H16281   6.106   7.669   8.204 -0.0883  0.7616 -0.4160
  843MOL0     H16282   5.984   7.530   8.237 -2.9019  2.7206 -0.2497
  843MOL0     H16283   6.251   7.613   7.958 -1.5853  0.5831  1.5811
  843MOL0     H16284   6.432   7.472   7.819  1.7393 -1.1483 -0.6197
  843MOL0     H16285   6.336   7.317   7.796  1.4903 -1.9827  1.5227
  843MOL0     H16286   6.588   7.292   7.808 -1.0151 -0.1293 -0.4788
  843MOL0     H16287   6.568   7.354   7.974 -3.9077  1.6005  2.7194
  843MOL0     H16288   6.456   7.182   8.062 -0.5963  5.0625 -0.7390
  843MOL0     H16289   6.430   7.099   7.901 -0.9126  0.8479 -0.0512
  843MOL0     H16290   6.703   7.114   7.900  1.3654  0.7968  0.9940
  843MOL0     H16291   6.687   7.129   8.067  1.0550 -2.9376  1.1154
  843MOL0     H16292   6.879   7.006   7.975 -0.4665  0.0360  2.7620
  843MOL0     H16293   7.161   6.800   7.872  2.7434  1.0466 -0.1504
  843MOL0     H16294   7.171   6.835   8.036 -1.3879 -2.1310 -0.4293
  843MOL0     H16295   7.111   6.965   7.940  1.5046  0.5171  3.6254
  843MOL0     H16296   7.118   6.349   8.180  0.7377  0.0176 -0.5498
  843MOL0     H16297   7.279   6.172   8.197 -0.2684 -0.0156 -0.0895
  843MOL0     H16298   7.449   6.062   8.150  1.8027 -1.7673  1.1514
  843MOL0     H16299   7.414   5.886   8.110  4.0588 -0.1052  2.9318
  843MOL0     H16300   7.642   5.920   8.098 -2.0356  0.7383  1.4659
  843MOL0     H16301   7.585   5.916   7.929 -1.8448 -1.6150  0.4758
  843MOL0     H16302   7.670   6.176   8.080  1.9293 -0.8261  0.4324
  843MOL0     H16303   7.605   6.169   7.915  0.1550  1.7723  1.7158
  843MOL0     H16304   7.790   6.035   7.857  0.7889 -1.6949  0.4401
  843MOL0     H16305   7.850   6.028   8.032  1.7734 -0.3548 -1.1513
  843MOL0     H16306   7.973   6.185   7.903  0.5768  2.0723 -0.3036
  843MOL0     H16307   7.828   6.291   7.883 -0.5651  1.3377  1.4276
  843MOL0     H16308   7.957   6.196   8.142  1.4199  1.6308  0.7928
  843MOL0     H16309   7.819   6.303   8.145  0.1497  1.2980  0.1658
  843MOL0     H16310   8.089   6.388   8.040 -0.7954  1.4772 -1.2724
  843MOL0     H16311   8.005   6.431   8.189 -2.1021 -1.2303  0.4565
  843MOL0     H16312   7.814   6.531   8.046 -1.1657 -1.7857 -2.5785
  843MOL0     H16313   7.897   6.499   7.906 -2.0223  0.9513  0.1826
  843MOL0     H16314   7.235   6.100   7.773 -0.4412  1.5484 -0.3497
  843MOL0     H16315   7.071   6.264   7.750  1.2022 -1.2377 -1.0960
  843MOL0     H16316   6.763   6.530   7.972 -1.6351  0.1228  0.2591
  843MOL0     H16317   6.600   6.679   7.954  0.7621 -0.6086  0.6095
  843MOL0     H16318   5.017   7.549   8.168  0.4437  0.6089  0.4037
  843MOL0     H16319   4.836   7.642   8.300 -1.0030 -0.0327 -0.7560
  843MOL0     H16320   4.503   7.631   8.475  0.3035  3.2274  0.7643
  843MOL0     H16321   4.279   7.704   8.533 -1.1206 -2.3121 -0.4888
  843MOL0     H16322   4.141   7.663   8.972 -2.2738 -0.6777 -1.1649
  843MOL0     H16323   4.204   7.825   8.945  1.2503 -0.6161 -0.7718
  843MOL0     H16324   3.987   7.887   8.835  0.0417 -1.1487 -1.6430
  843MOL0     H16325   3.955   7.833   9.004  0.2994  0.9306 -0.6658
  843MOL0     H16326   3.794   7.738   8.822 -0.6851 -0.9320  1.6439
  843MOL0     H16327   3.924   7.635   8.770 -3.3001 -1.6459 -1.0967
  843MOL0     H16328   3.808   7.649   9.057  0.5082 -0.6985  1.0995
  843MOL0     H16329   3.947   7.549   9.001 -0.5816 -1.7766  0.1135
  843MOL0     H16330   3.620   7.325   8.844 -0.9580  0.4852  1.9099
  843MOL0     H16331   4.368   7.647   8.947 -0.5114 -1.2354 -0.4558
  843MOL0     H16332   4.659   7.454   8.917 -0.3533 -0.3217  0.5780
  843MOL0     H16333   4.684   7.641   8.934 -1.7501  0.5900 -0.9497
  843MOL0     H16334   4.565   7.566   9.026 -0.0687  1.8015  0.5301
  844MOL0     O16335   2.322   6.290   7.523 -0.7559  0.0683  0.6964
  844MOL0     C16336   2.246   6.356   7.591  0.4082 -0.5706  0.5923
  844MOL0     O16337   2.278   6.454   7.682  0.0209  0.2634 -0.4486
  844MOL0     C16338   2.410   6.481   7.701 -0.7338  0.0661 -0.6268
  844MOL0     C16339   2.479   6.392   7.782 -0.2752 -0.4196 -0.5009
  844MOL0     C16340   2.620   6.410   7.786 -0.0066  0.4838 -0.3298
  844MOL0     C16341   2.684   6.514   7.715  0.1401 -0.7472  0.1668
  844MOL0     O16342   2.823   6.519   7.728  0.0006  0.1643 -0.1352
  844MOL0     C16343   2.890   6.614   7.650 -0.1725 -0.0175 -0.4822
  844MOL0     C16344   3.047   6.580   7.661  1.0694  0.0348 -0.7862
  844MOL0     C16345   3.130   6.662   7.566 -0.1477  0.2469 -0.3565
  844MOL0     C16346   3.278   6.649   7.608 -0.0271  0.0458 -0.5894
  844MOL0     C16347   3.371   6.718   7.513 -0.6045  0.5562  0.2787
  844MOL0     C16348   3.498   6.783   7.570  0.3089  0.1298 -0.2226
  844MOL0     C16349   3.559   6.876   7.469  0.2413 -0.1254 -0.5198
  844MOL0     C16350   3.687   6.928   7.536 -0.6929  0.8290  0.3319
  844MOL0     N16351   3.771   7.016   7.456 -0.1157 -0.6660 -0.2114
  844MOL0     C16352   3.748   7.153   7.446 -0.1189 -0.0660 -0.0771
  844MOL0     C16353   3.853   7.213   7.394 -0.0093  0.3270  0.3901
  844MOL0     C16354   3.874   7.353   7.339  1.2676 -0.0918 -0.4409
  844MOL0     C16355   3.816   7.456   7.440  0.3818 -0.3504  0.1876
  844MOL0     C16356   3.828   7.594   7.368  0.1047  0.1420 -0.3263
  844MOL0     C16357   3.772   7.700   7.466  0.0906  0.3436 -1.1102
  844MOL0     O16358   3.858   7.728   7.578  0.1531  0.5680  0.0705
  844MOL0     C16359   3.978   7.799   7.563 -0.9138 -0.0381  0.0720
  844MOL0     C16360   4.069   7.803   7.673 -0.2512 -0.9004 -0.4614
  844MOL0     C16361   4.202   7.864   7.671  0.7818 -0.2939  0.3284
  844MOL0     C16362   4.293   7.865   7.795  1.0259 -0.1695  0.2137
  844MOL0     C16363   4.233   7.932   7.548  0.0942 -0.0622 -0.3793
  844MOL0     C16364   4.364   7.991   7.523  0.0747 -0.4001  0.2358
  844MOL0     O16365   4.369   8.065   7.408 -1.0362  0.3392 -0.0378
  844MOL0     C16366   4.489   8.120   7.362 -0.1885 -0.2109 -0.8524
  844MOL0     C16367   4.509   8.259   7.360 -0.4116  0.6920 -0.6293
  844MOL0     C16368   4.637   8.307   7.318  0.8384  0.2884 -0.3368
  844MOL0     C16369   4.735   8.219   7.277  0.0345  0.7292  0.0468
  844MOL0     O16370   4.864   8.263   7.257  0.3858 -0.2719  0.1290
  844MOL0     C16371   4.912   8.376   7.329  0.3164  0.0556  0.9822
  844MOL0     C16372   5.040   8.418   7.252  0.5955  0.1515 -0.6619
  844MOL0     C16373   5.149   8.327   7.296 -0.1351 -0.7358 -0.8167
  844MOL0     C16374   5.266   8.335   7.190  1.2791 -0.2596  0.0280
  844MOL0     C16375   5.387   8.257   7.226 -0.4714  1.2164  0.2616
  844MOL0     C16376   5.497   8.247   7.114  1.2126  0.5377 -0.5283
  844MOL0     C16377   5.605   8.141   7.152  0.2980 -0.4801  0.5369
  844MOL0     C16378   5.713   8.121   7.051 -0.1081 -0.1960 -1.0910
  844MOL0    Cl16379   5.807   8.273   7.047  0.4087  0.1957 -0.0218
  844MOL0     C16380   4.710   8.075   7.270  0.4137  0.7671  0.0582
  844MOL0     C16381   4.586   8.031   7.314 -0.3855  0.6978 -0.0854
  844MOL0     O16382   4.465   7.961   7.587  0.3517  0.4069 -0.1524
  844MOL0     C16383   4.139   7.934   7.439 -0.2642  0.0724  0.2242
  844MOL0     C16384   4.014   7.868   7.445  0.7951 -0.8276 -0.3857
  844MOL0     N16385   3.949   7.122   7.378 -1.2067  0.5966  0.0107
  844MOL0     N16386   3.899   7.003   7.412 -0.2812 -0.0358  0.4303
  844MOL0     C16387   2.610   6.601   7.644 -0.1797  0.5984  0.3235
  844MOL0     C16388   2.474   6.581   7.632 -0.3402  0.8145  0.4123
  844MOL0     C16389   2.098   6.320   7.574  0.8563 -0.1488 -0.2412
  844MOL0     C16390   2.008   6.393   7.648 -0.1547 -0.6596  0.4217
  844MOL0     C16391   1.869   6.371   7.660 -0.0122  1.1965  0.1537
  844MOL0     C16392   1.812   6.263   7.587 -0.6681  0.0994  0.5944
  844MOL0     O16393   1.680   6.225   7.593 -0.4479 -0.0568  0.8093
  844MOL0     C16394   1.589   6.330   7.612 -0.4344 -0.2565  0.3003
  844MOL0     C16395   1.450   6.289   7.547 -0.3682 -0.2837  0.0330
  844MOL0     C16396   1.479   6.285   7.396  0.1695 -0.3145  0.2188
  844MOL0     C16397   1.352   6.252   7.315 -0.8814 -0.0307  0.5634
  844MOL0     C16398   1.287   6.369   7.265 -0.1368 -0.4359 -0.3068
  844MOL0     C16399   1.238   6.472   7.238 -0.1710  0.0983  0.0479
  844MOL0     C16400   1.902   6.190   7.504  0.2998  0.7030 -0.6820
  844MOL0     C16401   2.039   6.216   7.497  0.0389 -0.3877 -0.3664
  844MOL0     C16402   2.124   6.125   7.407  0.0694 -0.0858 -0.0309
  844MOL0     H16403   2.432   6.302   7.820  0.2131 -0.8786 -0.9592
  844MOL0     H16404   2.674   6.342   7.852  0.3940  0.4674 -0.6751
  844MOL0     H16405   2.861   6.717   7.675 -3.0933 -0.4732 -1.5614
  844MOL0     H16406   2.854   6.590   7.549 -1.5844  1.7889 -0.4636
  844MOL0     H16407   3.077   6.608   7.763 -1.4246  1.6377 -0.3926
  844MOL0     H16408   3.059   6.476   7.630 -0.7953  0.6854 -4.2336
  844MOL0     H16409   3.108   6.626   7.465 -2.4639 -2.9609  1.1182
  844MOL0     H16410   3.095   6.766   7.572  1.0327  0.6793 -0.8071
  844MOL0     H16411   3.291   6.680   7.712 -1.3805  0.1062 -0.4314
  844MOL0     H16412   3.306   6.543   7.601  1.3565 -0.0814  3.8725
  844MOL0     H16413   3.309   6.802   7.481 -1.1058  0.7772  1.7574
  844MOL0     H16414   3.398   6.648   7.433  1.2135 -0.7752  1.9497
  844MOL0     H16415   3.471   6.825   7.667  0.1348 -0.2142 -0.1162
  844MOL0     H16416   3.576   6.706   7.577  0.4820  0.2945 -0.3317
  844MOL0     H16417   3.489   6.958   7.451  1.7176  1.6401  1.3265
  844MOL0     H16418   3.586   6.826   7.376 -1.1795 -2.1479  0.0712
  844MOL0     H16419   3.659   6.980   7.628 -1.1656 -2.3206  2.1210
  844MOL0     H16420   3.751   6.845   7.568  0.0261  0.9044 -0.8551
  844MOL0     H16421   3.661   7.205   7.485  1.8861  2.9636  0.7246
  844MOL0     H16422   3.812   7.360   7.249  0.6304 -1.5310 -0.1406
  844MOL0     H16423   3.978   7.361   7.308  0.3564 -0.8406 -4.1844
  844MOL0     H16424   3.708   7.444   7.455 -0.7636  3.3829 -3.1250
  844MOL0     H16425   3.872   7.465   7.533  3.0249  0.3054 -1.3538
  844MOL0     H16426   3.928   7.615   7.329  0.7854 -1.7244  0.3012
  844MOL0     H16427   3.763   7.599   7.280  1.8721  2.1445 -1.6173
  844MOL0     H16428   3.760   7.796   7.416 -1.9756  0.8465  0.2501
  844MOL0     H16429   3.673   7.674   7.505  0.9110  1.9033  2.4316
  844MOL0     H16430   4.046   7.762   7.771  0.1040 -1.6536 -0.6841
  844MOL0     H16431   4.373   7.793   7.776  3.2025  1.9967  0.7697
  844MOL0     H16432   4.251   7.854   7.895  1.8116  4.1409  1.2256
  844MOL0     H16433   4.346   7.960   7.790  1.2808 -0.3632 -1.3998
  844MOL0     H16434   4.434   8.330   7.393 -0.7729 -0.3990  1.0249
  844MOL0     H16435   4.639   8.416   7.317  1.1526  0.3402  1.7288
  844MOL0     H16436   4.840   8.459   7.336 -1.4938 -1.4418  1.0619
  844MOL0     H16437   4.945   8.353   7.431  1.6058  0.1731  0.5981
  844MOL0     H16438   5.020   8.415   7.145  2.8502  0.5723 -1.1357
  844MOL0     H16439   5.050   8.522   7.285 -2.2437  0.2383  0.2728
  844MOL0     H16440   5.118   8.222   7.306 -1.0260 -0.4268 -0.2260
  844MOL0     H16441   5.191   8.354   7.394 -0.6027 -0.1650 -0.7715
  844MOL0     H16442   5.284   8.439   7.162 -1.2866 -0.6089 -3.5464
  844MOL0     H16443   5.228   8.297   7.096 -2.0102  1.7651  0.3802
  844MOL0     H16444   5.438   8.303   7.312 -0.4817  0.3665  0.7329
  844MOL0     H16445   5.353   8.156   7.250  2.6282 -0.0923 -0.2734
  844MOL0     H16446   5.541   8.345   7.094  3.1178  0.0351  0.9303
  844MOL0     H16447   5.449   8.203   7.025  2.1416 -1.8197  0.0576
  844MOL0     H16448   5.542   8.052   7.153  2.0786 -1.8358 -0.5069
  844MOL0     H16449   5.647   8.165   7.250  3.6994 -1.0496 -0.6508
  844MOL0     H16450   5.678   8.102   6.949 -0.2869 -3.3104 -0.5342
  844MOL0     H16451   5.778   8.035   7.072  0.8316  0.9411  0.8947
  844MOL0     H16452   4.788   8.006   7.239 -2.4511 -1.1859 -3.5534
  844MOL0     H16453   4.578   7.923   7.324  3.8829  0.0319 -1.6461
  844MOL0     H16454   4.165   7.986   7.348  1.7630  1.0058  1.2511
  844MOL0     H16455   3.951   7.858   7.357 -0.0667  1.9121 -0.1863
  844MOL0     H16456   2.644   6.685   7.584  0.2819 -0.6498 -1.2133
  844MOL0     H16457   2.414   6.653   7.578 -0.1029  1.4589  0.9974
  844MOL0     H16458   2.047   6.467   7.716  0.8056  0.8084 -1.6316
  844MOL0     H16459   1.808   6.437   7.721  1.0211  1.9734  0.3691
  844MOL0     H16460   1.588   6.358   7.718  1.5135 -0.5044  0.4059
  844MOL0     H16461   1.621   6.425   7.568  0.8481 -1.1585 -0.7871
  844MOL0     H16462   1.378   6.369   7.569  1.2028  2.0039 -2.4521
  844MOL0     H16463   1.407   6.197   7.586 -0.3760 -0.7537 -1.0602
  844MOL0     H16464   1.539   6.369   7.360 -1.0888  0.0740 -1.0644
  844MOL0     H16465   1.552   6.207   7.375  2.2715  1.6855 -0.2805
  844MOL0     H16466   1.288   6.189   7.377 -1.2112 -2.1187 -1.7018
  844MOL0     H16467   1.384   6.191   7.230  2.0395  0.1634  1.4307
  844MOL0     H16468   1.193   6.568   7.226 -0.0006  0.0352 -1.1553
  844MOL0     H16469   1.852   6.129   7.429 -0.1955 -0.0414  0.2263
  844MOL0     H16470   2.068   6.070   7.331  2.3955 -0.0901 -1.8553
  844MOL0     H16471   2.190   6.187   7.347  0.5352 -2.6676 -2.3924
  844MOL0     H16472   2.165   6.042   7.465  0.2390 -0.8860 -1.2716
  845MOL0     O16473   2.246   7.185  10.134 -0.0435  0.1737  0.5270
  845MOL0     C16474   2.354   7.229  10.084 -1.1328  0.0449 -0.3818
  845MOL0     O16475   2.382   7.249   9.949  0.2836 -0.0969 -0.2575
  845MOL0     C16476   2.272   7.250   9.868  0.5791  0.2256  0.4111
  845MOL0     C16477   2.231   7.141   9.788  0.2213  0.2694  0.8472
  845MOL0     C16478   2.118   7.153   9.703  0.1407  0.1570 -0.4729
  845MOL0     C16479   2.058   7.282   9.685 -0.1947  0.3520  0.2253
  845MOL0     O16480   1.963   7.291   9.583 -0.1570 -0.1669  0.1038
  845MOL0     C16481   1.914   7.173   9.527  0.3287 -0.2125 -0.4154
  845MOL0     C16482   1.794   7.212   9.445  0.1439  0.6824  0.6971
  845MOL0     C16483   1.728   7.090   9.366  0.7813 -0.6725 -0.1401
  845MOL0     C16484   1.582   7.125   9.338  0.6840 -0.6566  0.1910
  845MOL0     C16485   1.499   7.046   9.245  1.3993  0.4056  0.4783
  845MOL0     C16486   1.344   7.066   9.271  0.2086  0.7720 -0.1586
  845MOL0     C16487   1.260   6.945   9.225  0.2044 -0.1199  0.8301
  845MOL0     C16488   1.286   6.818   9.311  0.5463  0.3508  0.0645
  845MOL0     N16489   1.182   6.708   9.290  0.1680  0.6117  0.1528
  845MOL0     C16490   1.154   6.667   9.162 -0.5534  0.1653  0.1688
  845MOL0     C16491   1.067   6.564   9.180 -1.2296 -0.0327  1.2990
  845MOL0     C16492   1.009   6.471   9.067 -0.4352  0.0751 -0.5812
  845MOL0     C16493   0.879   6.517   9.011  0.1472 -0.4409  0.1195
  845MOL0     C16494   0.882   6.668   8.965 -0.1559  0.1409 -0.0723
  845MOL0     C16495   0.750   6.702   8.894 -0.1694 -0.1933 -0.0820
  845MOL0     O16496   0.639   6.692   8.976  0.7021 -0.4899  0.5818
  845MOL0     C16497   0.509   6.698   8.926  0.7806  0.1602 -0.2833
  845MOL0     C16498   0.404   6.666   9.013  0.0922 -0.0997 -0.1817
  845MOL0     C16499   0.269   6.673   8.981  0.0202 -0.0802  1.1795
  845MOL0     C16500   0.172   6.626   9.086 -0.0189 -0.3720  0.7441
  845MOL0     C16501   0.241   6.716   8.849  0.2135  0.2228  0.2059
  845MOL0     C16502   0.108   6.742   8.794  0.2975 -0.2864  0.8366
  845MOL0     O16503   0.092   6.801   8.668 -0.6688 -0.0661 -0.1433
  845MOL0     C16504  -0.036   6.824   8.624  0.0114  0.2090 -0.2388
  845MOL0     C16505  -0.105   6.731   8.551  0.1253 -0.1394 -0.4745
  845MOL0     C16506  -0.230   6.763   8.496  0.3500  0.7730  0.4673
  845MOL0     C16507  -0.283   6.895   8.511 -0.4462  0.2458  0.1891
  845MOL0     O16508  -0.411   6.933   8.483 -0.1267 -0.1793  0.0013
  845MOL0     C16509  -0.470   6.848   8.374 -0.7907 -0.2644  0.6004
  845MOL0     C16510  -0.584   6.920   8.298  0.0057 -0.3087  1.3073
  845MOL0     C16511  -0.541   7.054   8.269  0.5630  0.0985 -0.0162
  845MOL0     C16512  -0.632   7.122   8.168 -0.0092 -0.2439  0.5852
  845MOL0     C16513  -0.597   7.268   8.160 -0.2638  0.3777 -0.0960
  845MOL0     C16514  -0.680   7.348   8.058 -0.2174  0.3095 -1.1286
  845MOL0     C16515  -0.622   7.481   8.039  0.1854 -0.4026  0.0806
  845MOL0     C16516  -0.693   7.549   7.922 -0.8978 -0.4423  0.7855
  845MOL0    Cl16517  -0.588   7.671   7.853  0.4485  0.0941 -0.0011
  845MOL0     C16518  -0.214   6.988   8.580 -0.2295 -0.2210  1.0825
  845MOL0     C16519  -0.090   6.954   8.637 -0.3463 -0.3963 -0.8899
  845MOL0     O16520   0.015   6.738   8.877  0.0419 -0.3385  0.2364
  845MOL0     C16521   0.345   6.729   8.751  0.4508  0.2594 -0.7465
  845MOL0     C16522   0.474   6.723   8.796  0.7108  0.1412 -0.1386
  845MOL0     N16523   1.045   6.547   9.312  0.1318 -0.2461  0.4391
  845MOL0     N16524   1.117   6.629   9.378 -0.6275  1.1598  0.1836
  845MOL0     C16525   2.105   7.386   9.755  0.2281 -0.4205 -0.1343
  845MOL0     C16526   2.209   7.373   9.841  0.2166 -1.5200  0.5933
  845MOL0     C16527   2.469   7.256  10.181 -0.0226  0.4840  0.5305
  845MOL0     C16528   2.600   7.266  10.127  0.2750  0.2856  0.7271
  845MOL0     C16529   2.711   7.287  10.213 -0.1439 -0.1980  0.0308
  845MOL0     C16530   2.692   7.296  10.353  0.4363  0.0807  0.2423
  845MOL0     O16531   2.810   7.294  10.432 -0.3273  0.2843  0.3776
  845MOL0     C16532   2.798   7.283  10.575 -0.6330  0.1609 -0.1594
  845MOL0     C16533   2.937   7.280  10.635  0.5897  0.3068 -0.1255
  845MOL0     C16534   2.994   7.140  10.630 -0.2551 -0.0235  0.2708
  845MOL0     C16535   3.138   7.145  10.687 -0.5775  0.3866 -0.7272
  845MOL0     C16536   3.139   7.182  10.820 -0.2674  0.3578 -0.1009
  845MOL0     C16537   3.158   7.217  10.934  0.5657  0.4584  0.2290
  845MOL0     C16538   2.557   7.299  10.407  0.2609  0.6443 -0.3250
  845MOL0     C16539   2.450   7.277  10.323 -0.3219  0.2281 -0.9261
  845MOL0     C16540   2.311   7.299  10.381  0.4693  0.1222  0.0841
  845MOL0     H16541   2.287   7.049   9.779  0.9602  0.7222  0.7959
  845MOL0     H16542   2.076   7.067   9.652 -4.7603  1.8584  0.1653
  845MOL0     H16543   1.883   7.104   9.606  2.0434 -0.5493 -0.0015
  845MOL0     H16544   1.990   7.127   9.463  0.4678  1.6119 -1.6262
  845MOL0     H16545   1.723   7.258   9.515 -0.1921 -0.4418  1.1195
  845MOL0     H16546   1.828   7.283   9.369  1.2485 -1.1494 -0.5986
  845MOL0     H16547   1.791   7.077   9.277  0.6076  0.4827 -0.4598
  845MOL0     H16548   1.739   7.006   9.434  3.3482  0.2493  0.6776
  845MOL0     H16549   1.535   7.134   9.436  1.3642 -2.0543  0.6694
  845MOL0     H16550   1.572   7.226   9.296 -0.6870 -0.5549  0.6955
  845MOL0     H16551   1.533   6.943   9.262 -0.2869  0.2976  3.9930
  845MOL0     H16552   1.524   7.061   9.139  2.3928 -0.3314  0.5952
  845MOL0     H16553   1.322   7.074   9.378 -0.6288 -3.1808  0.1079
  845MOL0     H16554   1.310   7.162   9.230 -0.4464  0.8279  0.4852
  845MOL0     H16555   1.268   6.933   9.117  4.5826  2.0356  0.6943
  845MOL0     H16556   1.154   6.964   9.242 -0.3137 -2.1734  0.2237
  845MOL0     H16557   1.389   6.790   9.285  0.2993  1.1410 -1.8709
  845MOL0     H16558   1.291   6.846   9.417 -2.1941  0.7966  0.1358
  845MOL0     H16559   1.195   6.709   9.071 -0.6609  2.2381  1.0209
  845MOL0     H16560   0.995   6.375   9.116 -0.1348  0.6188  0.6147
  845MOL0     H16561   1.081   6.461   8.985 -0.4250 -1.7101 -0.3911
  845MOL0     H16562   0.865   6.451   8.926  1.2354  1.1075 -1.3326
  845MOL0     H16563   0.804   6.504   9.089  2.5701 -0.3949  2.6266
  845MOL0     H16564   0.890   6.736   9.050 -3.7694  0.3863  0.2529
  845MOL0     H16565   0.973   6.687   8.907  0.8095 -1.1223  0.9705
  845MOL0     H16566   0.751   6.803   8.852 -2.1990 -0.3539 -0.6301
  845MOL0     H16567   0.745   6.638   8.805  1.5474  1.2040 -1.2477
  845MOL0     H16568   0.437   6.620   9.106  2.0375 -1.7340 -1.5903
  845MOL0     H16569   0.084   6.687   9.105  0.4823  1.0512 -1.2441
  845MOL0     H16570   0.224   6.633   9.182  0.0593  0.3209  0.6549
  845MOL0     H16571   0.143   6.521   9.071 -0.6751 -0.0394 -0.4653
  845MOL0     H16572  -0.085   6.624   8.549 -1.5008 -0.4624 -0.7195
  845MOL0     H16573  -0.286   6.685   8.445  1.4645 -0.1768  0.6627
  845MOL0     H16574  -0.403   6.811   8.297  1.9113  0.3988  2.5004
  845MOL0     H16575  -0.512   6.761   8.426 -4.4395  0.8379 -0.2093
  845MOL0     H16576  -0.590   6.861   8.206  2.3077  1.3684 -0.0050
  845MOL0     H16577  -0.679   6.934   8.351 -0.3519  0.2987  0.5323
  845MOL0     H16578  -0.444   7.060   8.219 -0.6625  1.8188 -2.3814
  845MOL0     H16579  -0.535   7.103   8.366  3.4014 -0.7661  0.3354
  845MOL0     H16580  -0.736   7.103   8.196 -0.8120 -2.8653 -3.3487
  845MOL0     H16581  -0.621   7.085   8.066  1.3304  1.5183  0.0364
  845MOL0     H16582  -0.606   7.313   8.259  1.5930  1.1020 -0.2136
  845MOL0     H16583  -0.491   7.277   8.135  0.1102  1.8387  1.8052
  845MOL0     H16584  -0.786   7.353   8.085 -0.3811 -0.9372 -1.4658
  845MOL0     H16585  -0.663   7.296   7.964  2.6274 -0.2595 -0.3715
  845MOL0     H16586  -0.515   7.470   8.016 -0.3066 -1.7088 -1.8504
  845MOL0     H16587  -0.629   7.534   8.134  0.9961 -1.4065  0.7199
  845MOL0     H16588  -0.780   7.602   7.961 -0.7327 -1.2450  2.3212
  845MOL0     H16589  -0.712   7.478   7.841  1.9009  1.8063 -2.1103
  845MOL0     H16590  -0.257   7.087   8.591 -1.7588 -0.6705 -0.4426
  845MOL0     H16591  -0.043   7.030   8.699 -0.7173  0.4066 -1.5587
  845MOL0     H16592   0.327   6.738   8.644 -0.2208 -0.1756 -0.6747
  845MOL0     H16593   0.550   6.729   8.719  0.4738 -1.9804 -0.5915
  845MOL0     H16594   2.060   7.483   9.738 -1.1800 -1.0139  0.0678
  845MOL0     H16595   2.243   7.469   9.880 -0.7548 -0.4172 -1.1460
  845MOL0     H16596   2.622   7.260  10.021 -0.3589 -0.2510  0.6184
  845MOL0     H16597   2.809   7.296  10.167 -1.0612  2.4613 -1.6815
  845MOL0     H16598   2.748   7.372  10.614  0.1431  0.8298 -0.6553
  845MOL0     H16599   2.745   7.194  10.611 -0.7790  1.5295  3.4525
  845MOL0     H16600   2.930   7.296  10.743  0.8331 -1.5251  0.1927
  845MOL0     H16601   3.001   7.348  10.577 -0.4671  0.9932 -0.5048
  845MOL0     H16602   2.948   7.062  10.691 -0.9493  0.9732  1.0617
  845MOL0     H16603   2.991   7.111  10.525 -3.3744  1.9133 -0.2883
  845MOL0     H16604   3.209   7.208  10.632  2.9925 -1.0952  1.7874
  845MOL0     H16605   3.193   7.051  10.676  1.8398  1.4598  1.3494
  845MOL0     H16606   3.163   7.258  11.033 -1.6224 -1.0589  1.0555
  845MOL0     H16607   2.541   7.303  10.515 -1.2112 -0.4235 -0.4709
  845MOL0     H16608   2.324   7.331  10.485  1.5108 -0.3493  0.1105
  845MOL0     H16609   2.257   7.387  10.345 -1.0399  1.7724  5.4690
  845MOL0     H16610   2.246   7.211  10.383 -0.2540  0.6544  0.4636
  846MOL0     O16611   1.279   9.274   5.014  0.5068 -0.1736 -0.2011
  846MOL0     C16612   1.249   9.312   4.901  0.2854 -0.7397 -0.5595
  846MOL0     O16613   1.313   9.409   4.833 -0.2856 -0.3935  0.3314
  846MOL0     C16614   1.430   9.468   4.871 -0.3579 -0.1823 -0.0196
  846MOL0     C16615   1.459   9.513   5.007 -0.0117  0.8175 -0.1347
  846MOL0     C16616   1.580   9.568   5.034  0.2502  0.4019  0.3082
  846MOL0     C16617   1.681   9.578   4.938 -0.0137 -0.0412  0.3888
  846MOL0     O16618   1.796   9.640   4.988  0.9901 -0.2022 -0.1122
  846MOL0     C16619   1.917   9.615   4.929 -0.2200 -0.3688 -0.1647
  846MOL0     C16620   2.026   9.684   5.012 -0.3270  0.1108 -0.7708
  846MOL0     C16621   2.055   9.604   5.144  0.4183  0.7322  0.5664
  846MOL0     C16622   2.115   9.473   5.113 -0.1292  0.3560 -1.0786
  846MOL0     C16623   2.154   9.414   5.249  0.7240  0.6790  0.0581
  846MOL0     C16624   2.285   9.332   5.243 -0.3179  0.2051 -0.2117
  846MOL0     C16625   2.308   9.256   5.372 -0.4586 -0.1460 -0.9532
  846MOL0     C16626   2.432   9.159   5.377 -0.4726 -0.0462  0.4643
  846MOL0     N16627   2.550   9.233   5.343  0.3039 -0.5719 -0.4214
  846MOL0     C16628   2.636   9.224   5.236  0.6175  0.6340  0.7816
  846MOL0     C16629   2.756   9.278   5.273 -0.5386 -0.2761  0.9249
  846MOL0     C16630   2.878   9.293   5.188  0.3462 -0.5150  0.3348
  846MOL0     C16631   2.900   9.443   5.147 -0.0694 -0.0197  0.6752
  846MOL0     C16632   2.991   9.451   5.024 -0.2516 -0.2520  0.5623
  846MOL0     C16633   2.999   9.599   4.989 -0.3802  0.1158  0.4483
  846MOL0     O16634   3.071   9.616   4.864 -0.3005 -0.1412 -0.1840
  846MOL0     C16635   3.124   9.742   4.844  0.1632  0.2306  0.0895
  846MOL0     C16636   3.052   9.867   4.877 -0.2306  0.4709 -0.1795
  846MOL0     C16637   3.131   9.984   4.846  0.1684 -0.1713 -1.4660
  846MOL0     C16638   3.050  10.110   4.869  0.1707  0.3839 -0.1292
  846MOL0     C16639   3.263   9.981   4.804 -0.1291 -0.1252  0.6035
  846MOL0     C16640   3.349  10.098   4.783 -0.9578 -0.7449 -0.7177
  846MOL0     O16641   3.335  10.208   4.865  0.4372  0.1023  0.2033
  846MOL0     C16642   3.450  10.290   4.871 -0.4941  0.0739  0.0202
  846MOL0     C16643   3.546  10.285   4.968  0.1645  0.1769 -0.4097
  846MOL0     C16644   3.662  10.364   4.973  0.1214 -0.4969 -0.7640
  846MOL0     C16645   3.693  10.449   4.861  0.1124  0.1115 -0.5107
  846MOL0     O16646   3.796  10.530   4.846  0.5676 -0.3867  0.6749
  846MOL0     C16647   3.924  10.481   4.889 -0.6084  0.1236 -0.9667
  846MOL0     C16648   3.982  10.581   4.985 -0.0313 -0.5953 -0.5200
  846MOL0     C16649   4.117  10.558   5.058 -1.0624  0.4730  0.4948
  846MOL0     C16650   4.240  10.607   4.970 -0.1353  0.4726  0.4521
  846MOL0     C16651   4.365  10.581   5.052  0.2014  0.1237  0.3459
  846MOL0     C16652   4.487  10.623   4.971 -0.2488  0.1736 -0.3416
  846MOL0     C16653   4.611  10.588   5.057  0.2238  0.5170 -0.2090
  846MOL0     C16654   4.734  10.651   4.990  0.1818 -1.2757  0.0144
  846MOL0    Cl16655   4.726  10.832   4.994 -0.0310  0.1801  0.3845
  846MOL0     C16656   3.592  10.456   4.762 -0.0072  0.4225  0.4028
  846MOL0     C16657   3.478  10.383   4.769 -0.2822  0.4259  0.1259
  846MOL0     O16658   3.441  10.093   4.702  0.0568  0.1855  0.7562
  846MOL0     C16659   3.326   9.852   4.777  0.4201 -0.1229 -0.8259
  846MOL0     C16660   3.254   9.736   4.810 -0.0977 -0.0358 -0.0411
  846MOL0     N16661   2.743   9.335   5.400  0.5192  0.0011  1.0773
  846MOL0     N16662   2.622   9.301   5.444 -0.0284 -0.1192  0.3797
  846MOL0     C16663   1.655   9.533   4.804 -0.3306  0.0934  0.0826
  846MOL0     C16664   1.530   9.471   4.773  0.2408 -0.4607 -0.1053
  846MOL0     C16665   1.120   9.259   4.849  0.1067 -0.0135 -0.2441
  846MOL0     C16666   1.102   9.249   4.709  0.3868 -0.5041 -0.3724
  846MOL0     C16667   0.973   9.225   4.657 -0.4257  0.5450 -0.1060
  846MOL0     C16668   0.861   9.215   4.741  0.2906  0.4098 -0.3830
  846MOL0     O16669   0.740   9.192   4.692  0.5550 -0.2265  0.8746
  846MOL0     C16670   0.727   9.093   4.594  0.4187 -0.0927  1.0864
  846MOL0     C16671   0.584   9.045   4.584  0.2823 -0.5551 -0.5644
  846MOL0     C16672   0.480   9.152   4.550 -0.3087 -0.2406 -0.4774
  846MOL0     C16673   0.485   9.250   4.431  0.8806 -0.4668 -1.5359
  846MOL0     C16674   0.489   9.177   4.304 -0.2484 -0.5501 -0.1347
  846MOL0     C16675   0.505   9.118   4.199  0.0168 -0.0566 -0.0178
  846MOL0     C16676   0.879   9.230   4.877 -0.3311  0.2934 -0.3357
  846MOL0     C16677   1.003   9.231   4.937 -0.0139 -0.2421  0.4281
  846MOL0     C16678   1.001   9.246   5.092  0.5654  0.5962  0.8179
  846MOL0     H16679   1.391   9.511   5.092 -2.4247  0.9701 -1.9600
  846MOL0     H16680   1.600   9.598   5.137 -0.7006  0.0240  0.6048
  846MOL0     H16681   1.935   9.652   4.827 -1.0623 -0.0937 -0.2163
  846MOL0     H16682   1.928   9.507   4.921 -0.6302 -0.5249  1.1591
  846MOL0     H16683   2.118   9.702   4.955  1.1323 -1.4621  0.9691
  846MOL0     H16684   1.998   9.787   5.039  0.8028  0.1519  0.3625
  846MOL0     H16685   2.130   9.656   5.204 -0.2908  0.8005  1.4161
  846MOL0     H16686   1.968   9.580   5.206  0.0648  1.5229  0.3926
  846MOL0     H16687   2.046   9.403   5.065  1.0093 -0.9123 -0.9118
  846MOL0     H16688   2.201   9.503   5.052 -1.5614  0.0741 -3.3508
  846MOL0     H16689   2.066   9.353   5.273  0.7520  0.1025 -1.2375
  846MOL0     H16690   2.170   9.489   5.327  3.1740 -2.2164  2.5740
  846MOL0     H16691   2.272   9.254   5.168 -3.2476  1.0947 -0.7678
  846MOL0     H16692   2.376   9.389   5.219 -0.2030  0.7872  1.4680
  846MOL0     H16693   2.226   9.185   5.388 -0.7999  0.5040  0.3592
  846MOL0     H16694   2.321   9.326   5.455  0.7152 -1.2289 -0.1808
  846MOL0     H16695   2.450   9.107   5.471 -2.8648 -0.5745  0.7021
  846MOL0     H16696   2.415   9.083   5.301  0.1074 -0.2651  0.5489
  846MOL0     H16697   2.616   9.181   5.138 -1.1306  0.5518  1.1420
  846MOL0     H16698   2.862   9.249   5.089 -3.3922  2.1566 -0.4759
  846MOL0     H16699   2.965   9.260   5.246  0.4332 -0.3292  0.3087
  846MOL0     H16700   2.801   9.483   5.122 -0.6393 -1.1811  1.0032
  846MOL0     H16701   2.945   9.505   5.226  2.1118  1.5116 -1.6141
  846MOL0     H16702   3.092   9.413   5.040  0.1734  1.1577  1.4119
  846MOL0     H16703   2.950   9.386   4.946 -1.9116 -0.2294  1.3766
  846MOL0     H16704   2.897   9.640   4.990  0.0507  1.2285  1.4407
  846MOL0     H16705   3.053   9.658   5.064  1.6705  1.5960 -2.0396
  846MOL0     H16706   2.950   9.871   4.916 -1.0519 -0.8086 -2.0303
  846MOL0     H16707   3.110  10.174   4.935 -0.1611  0.8804 -0.3067
  846MOL0     H16708   2.947  10.091   4.902  0.5875 -0.0148  1.0067
  846MOL0     H16709   3.055  10.161   4.773  3.1494  0.3846 -0.0668
  846MOL0     H16710   3.531  10.205   5.040 -0.8198  0.7707  0.0677
  846MOL0     H16711   3.723  10.348   5.061  0.3693  2.8455 -0.1670
  846MOL0     H16712   3.914  10.381   4.932  0.6050  0.0079 -0.9221
  846MOL0     H16713   3.997  10.476   4.807  3.2784  2.9635  1.9710
  846MOL0     H16714   3.981  10.678   4.935  0.7935 -0.5494 -0.4576
  846MOL0     H16715   3.910  10.593   5.066  1.3703 -0.3116  0.7328
  846MOL0     H16716   4.144  10.453   5.075  1.0711  0.9272  0.1611
  846MOL0     H16717   4.108  10.604   5.157 -1.3032 -1.2910  1.3404
  846MOL0     H16718   4.234  10.712   4.941  3.0189  0.5021 -0.4634
  846MOL0     H16719   4.247  10.551   4.876  0.1074  1.7680 -0.3307
  846MOL0     H16720   4.360  10.650   5.137 -0.3883  0.7516 -0.1916
  846MOL0     H16721   4.376  10.476   5.082 -3.0453 -1.1135 -2.1834
  846MOL0     H16722   4.477  10.729   4.946  2.4286  0.7495  0.6620
  846MOL0     H16723   4.490  10.579   4.871  0.5297  0.7716 -0.5998
  846MOL0     H16724   4.620  10.479   5.055  4.4906  0.7013 -0.1212
  846MOL0     H16725   4.606  10.628   5.159  0.7225 -0.2083  0.1139
  846MOL0     H16726   4.747  10.610   4.890 -3.2805 -0.9761 -0.6680
  846MOL0     H16727   4.819  10.626   5.054  0.5692  1.2198  0.6060
  846MOL0     H16728   3.615  10.513   4.672  0.3331 -0.7599 -0.2800
  846MOL0     H16729   3.416  10.392   4.680 -0.6821  3.3181  0.5858
  846MOL0     H16730   3.433   9.852   4.759  0.3155 -0.5796 -1.4983
  846MOL0     H16731   3.289   9.633   4.809  0.0938  0.0203 -1.5632
  846MOL0     H16732   1.733   9.542   4.729  1.8676  1.1933  2.3729
  846MOL0     H16733   1.502   9.425   4.678 -2.9483  0.8297  0.0904
  846MOL0     H16734   1.192   9.267   4.652  0.5492 -0.2760 -0.0496
  846MOL0     H16735   0.968   9.220   4.548 -1.1554  1.7100 -0.1397
  846MOL0     H16736   0.751   9.138   4.497  1.5177  1.3841  2.0021
  846MOL0     H16737   0.790   9.006   4.614 -0.7021 -0.8053  1.6464
  846MOL0     H16738   0.555   8.990   4.674  3.8590  1.0133  1.7618
  846MOL0     H16739   0.575   8.989   4.491 -1.8987 -0.9513 -0.1846
  846MOL0     H16740   0.394   9.089   4.524  1.3393 -2.8830  0.1588
  846MOL0     H16741   0.458   9.212   4.640  1.1405  2.3886 -1.7492
  846MOL0     H16742   0.577   9.308   4.442  0.4331 -0.0297  0.2187
  846MOL0     H16743   0.392   9.307   4.436  1.9289  1.2991 -1.4188
  846MOL0     H16744   0.528   9.065   4.109  0.0183  0.9653 -0.6351
  846MOL0     H16745   0.789   9.223   4.937 -0.7420 -0.9889 -1.0767
  846MOL0     H16746   1.028   9.159   5.154  0.6488  2.1023  2.9969
  846MOL0     H16747   1.049   9.338   5.127  2.2792 -0.0060  0.2072
  846MOL0     H16748   0.896   9.258   5.119  0.0972 -1.4063  0.1117
  847MOL0     O16749   3.825   9.917   2.579 -0.3821  0.6122  0.2235
  847MOL0     C16750   3.828  10.014   2.507  1.2447 -0.4430  0.1210
  847MOL0     O16751   3.942  10.071   2.456 -0.2911 -0.0805 -0.1226
  847MOL0     C16752   4.058   9.994   2.449 -0.1928  0.0908  0.0514
  847MOL0     C16753   4.132  10.010   2.328 -0.2915 -0.2427  0.5642
  847MOL0     C16754   4.255   9.955   2.310  0.6249 -0.0282  0.2510
  847MOL0     C16755   4.315   9.892   2.412  0.4976  0.7907 -0.0418
  847MOL0     O16756   4.440   9.835   2.408 -0.1871 -0.4016 -0.0415
  847MOL0     C16757   4.529   9.878   2.303  0.4150  0.3803 -0.7815
  847MOL0     C16758   4.660   9.805   2.338 -0.1817 -0.7004  0.4658
  847MOL0     C16759   4.778   9.858   2.249 -1.0985 -0.1187  0.8607
  847MOL0     C16760   4.890   9.751   2.252  0.2346 -0.1585  0.0078
  847MOL0     C16761   5.024   9.809   2.197  0.3372  1.0114  0.1240
  847MOL0     C16762   5.103   9.688   2.148 -0.5568 -0.2451  0.1649
  847MOL0     C16763   5.225   9.730   2.067  0.8416  0.1205  0.4706
  847MOL0     C16764   5.315   9.819   2.145 -0.1772  0.2515 -0.1782
  847MOL0     N16765   5.448   9.846   2.087 -0.5332  0.6128  0.0931
  847MOL0     C16766   5.515   9.953   2.130 -0.9901  0.2499 -0.1183
  847MOL0     C16767   5.632   9.941   2.065  0.0088  0.2128 -0.3083
  847MOL0     C16768   5.752  10.032   2.101 -0.5509  0.5739  0.7673
  847MOL0     C16769   5.726  10.166   2.050  0.1807 -0.0343  0.0280
  847MOL0     C16770   5.843  10.254   2.081 -0.0786 -0.1149  0.5295
  847MOL0     C16771   5.821  10.393   2.021 -0.1445  0.2320 -0.2565
  847MOL0     O16772   5.906  10.493   2.081 -0.1114 -0.3350  0.5426
  847MOL0     C16773   6.039  10.472   2.086  0.0151 -0.1449  0.5157
  847MOL0     C16774   6.104  10.543   2.185  0.7558  1.0116 -0.8656
  847MOL0     C16775   6.241  10.530   2.200 -0.3381 -0.0997  0.0541
  847MOL0     C16776   6.309  10.599   2.320  0.4604  0.4113  0.2791
  847MOL0     C16777   6.319  10.446   2.113  0.0148 -0.4975  0.7854
  847MOL0     C16778   6.466  10.420   2.121  0.1339  0.5849 -0.0467
  847MOL0     O16779   6.503  10.297   2.083 -0.3401 -1.1910  0.4671
  847MOL0     C16780   6.636  10.268   2.068  0.6635 -0.2964  0.5858
  847MOL0     C16781   6.670  10.252   1.930 -1.0325  0.3295 -0.1971
  847MOL0     C16782   6.793  10.202   1.895 -0.0612  1.0571 -0.4584
  847MOL0     C16783   6.885  10.150   1.989  0.5069 -0.0916 -0.6650
  847MOL0     O16784   6.990  10.060   1.969 -0.3047 -0.3047 -1.0640
  847MOL0     C16785   7.070  10.082   1.851 -0.3586 -0.3653  0.0960
  847MOL0     C16786   7.168   9.957   1.837  0.4526 -0.2672 -0.0041
  847MOL0     C16787   7.248   9.972   1.710  0.2836  1.0618  0.0901
  847MOL0     C16788   7.349   9.859   1.685 -0.4080  0.3690  0.2822
  847MOL0     C16789   7.422   9.899   1.545 -0.0981 -0.0672 -0.2788
  847MOL0     C16790   7.538   9.808   1.507  0.8413 -1.0035  0.2697
  847MOL0     C16791   7.574   9.816   1.359  0.3288  0.5061  0.0310
  847MOL0     C16792   7.688   9.722   1.332 -0.7678  0.8237 -0.1524
  847MOL0    Cl16793   7.836   9.780   1.427  0.1159 -0.0446  0.2425
  847MOL0     C16794   6.853  10.162   2.126 -0.3747  1.0078  0.5022
  847MOL0     C16795   6.730  10.225   2.162 -0.0505 -0.0807 -1.5196
  847MOL0     O16796   6.542  10.503   2.169  0.2115 -0.7598  0.1538
  847MOL0     C16797   6.256  10.388   1.999  0.1646 -0.1184 -0.7830
  847MOL0     C16798   6.117  10.400   1.997 -0.0547 -0.4511  0.3656
  847MOL0     N16799   5.636   9.825   1.997 -0.2245 -0.6760  0.2627
  847MOL0     N16800   5.525   9.760   2.022 -0.4631 -0.6871  0.0201
  847MOL0     C16801   4.247   9.872   2.537  0.4284  0.5123  0.0287
  847MOL0     C16802   4.116   9.916   2.551  0.2784  0.0136 -0.5864
  847MOL0     C16803   3.701  10.111   2.492 -0.3369 -0.4349 -0.0613
  847MOL0     C16804   3.721  10.247   2.460 -0.8357  0.0585  1.0971
  847MOL0     C16805   3.613  10.336   2.447  0.2462  0.2430  0.8963
  847MOL0     C16806   3.484  10.289   2.466 -0.0269 -0.5206  0.1103
  847MOL0     O16807   3.378  10.377   2.449  0.1070  0.4619 -0.1826
  847MOL0     C16808   3.242  10.318   2.437 -0.0577 -0.2988  0.0896
  847MOL0     C16809   3.130  10.419   2.392  0.1481 -0.1801  0.2210
  847MOL0     C16810   2.986  10.373   2.402 -0.5127 -0.2489  0.3125
  847MOL0     C16811   2.881  10.482   2.367  0.5527 -0.6199  0.3276
  847MOL0     C16812   2.866  10.585   2.472  0.2472 -0.8626  0.1482
  847MOL0     C16813   2.874  10.672   2.557 -0.4199 -0.3789  0.6129
  847MOL0     C16814   3.466  10.155   2.494  0.9151  0.1190 -0.2509
  847MOL0     C16815   3.570  10.065   2.508 -0.1160  0.5189  0.9912
  847MOL0     C16816   3.537   9.918   2.533 -0.7924  0.1992  1.4616
  847MOL0     H16817   4.101  10.089   2.261  1.1063  1.8339  2.2482
  847MOL0     H16818   4.311   9.974   2.218  0.8048 -0.6794  0.2170
  847MOL0     H16819   4.543   9.986   2.315 -2.0740  0.5130  2.0376
  847MOL0     H16820   4.488   9.860   2.203 -1.1693  2.3006 -0.5326
  847MOL0     H16821   4.682   9.805   2.445 -1.9377 -1.8439  0.8720
  847MOL0     H16822   4.639   9.700   2.316 -2.7218  0.0344 -1.0691
  847MOL0     H16823   4.756   9.895   2.149  2.0463 -2.6178 -0.9278
  847MOL0     H16824   4.815   9.941   2.310  1.2596 -1.0552  0.8137
  847MOL0     H16825   4.900   9.712   2.354 -2.6336  2.1332  1.3291
  847MOL0     H16826   4.859   9.672   2.183 -1.0484  1.1512 -0.9722
  847MOL0     H16827   5.083   9.874   2.263  1.2716 -0.1056  0.4360
  847MOL0     H16828   4.999   9.864   2.106  0.6576 -0.2208 -0.7385
  847MOL0     H16829   5.139   9.628   2.232 -2.5769  0.6478  1.7479
  847MOL0     H16830   5.050   9.622   2.079  1.7454 -2.3501  0.2775
  847MOL0     H16831   5.197   9.784   1.977 -0.8518  3.6230  2.9040
  847MOL0     H16832   5.276   9.639   2.033  0.4754  0.3045 -0.5830
  847MOL0     H16833   5.276   9.921   2.148  1.0418  0.7310 -0.2380
  847MOL0     H16834   5.329   9.782   2.247  0.8664 -0.8244 -0.6912
  847MOL0     H16835   5.492  10.023   2.210 -0.0732 -1.1588  1.4484
  847MOL0     H16836   5.839   9.983   2.058 -2.0584  0.1058 -1.9947
  847MOL0     H16837   5.763  10.033   2.210 -1.7582 -1.0238  0.9271
  847MOL0     H16838   5.716  10.156   1.941 -1.9284 -0.3296  0.2098
  847MOL0     H16839   5.641  10.209   2.104  0.8050 -1.1012  1.9594
  847MOL0     H16840   5.871  10.260   2.187 -2.0780 -2.1344  1.2485
  847MOL0     H16841   5.936  10.217   2.037  0.8179 -1.9438  3.6526
  847MOL0     H16842   5.831  10.393   1.912 -1.5922 -1.6409 -0.4355
  847MOL0     H16843   5.717  10.417   2.044 -0.3986 -1.7641  0.9591
  847MOL0     H16844   6.052  10.618   2.244  0.2157  1.7504 -2.2550
  847MOL0     H16845   6.384  10.671   2.287  0.7273  0.8341  1.7486
  847MOL0     H16846   6.362  10.529   2.386 -0.2194  0.3696  0.7948
  847MOL0     H16847   6.233  10.644   2.384  0.0113 -0.8988  0.7032
  847MOL0     H16848   6.593  10.277   1.857 -3.2273 -0.4436  1.7262
  847MOL0     H16849   6.817  10.182   1.791  1.8428 -3.4584  0.6060
  847MOL0     H16850   7.022  10.088   1.753  0.8269 -0.3129 -0.4984
  847MOL0     H16851   7.129  10.172   1.872 -0.0063 -0.2847 -1.1650
  847MOL0     H16852   7.243   9.950   1.916 -0.6000 -0.2137  1.0137
  847MOL0     H16853   7.113   9.863   1.843  0.5041 -0.4288 -1.5782
  847MOL0     H16854   7.291  10.072   1.705 -2.0585  2.1515  0.2837
  847MOL0     H16855   7.178   9.973   1.627 -2.2503 -1.6413  1.9587
  847MOL0     H16856   7.298   9.763   1.674  1.0477 -0.2449 -1.4621
  847MOL0     H16857   7.408   9.861   1.777 -0.2357  3.4483  0.2210
  847MOL0     H16858   7.339   9.884   1.475 -0.1704  0.7111 -0.3617
  847MOL0     H16859   7.454  10.003   1.556  0.8966 -0.4145  0.1563
  847MOL0     H16860   7.506   9.704   1.518 -2.7565 -0.1689 -0.9203
  847MOL0     H16861   7.616   9.824   1.583  0.9690  0.1383 -0.0808
  847MOL0     H16862   7.600   9.914   1.319 -2.2101 -0.2492 -3.9612
  847MOL0     H16863   7.492   9.784   1.294  3.1556  0.7050 -4.0150
  847MOL0     H16864   7.712   9.709   1.226 -2.1702  2.9116 -0.7699
  847MOL0     H16865   7.654   9.627   1.376 -1.3208  1.0279 -0.1304
  847MOL0     H16866   6.927  10.135   2.201 -2.1716 -1.2935  1.5534
  847MOL0     H16867   6.704  10.244   2.266 -3.4541 -1.2905 -2.0181
  847MOL0     H16868   6.315  10.333   1.927  2.1031  1.3343 -0.3702
  847MOL0     H16869   6.078  10.345   1.912  1.2894 -0.5369 -0.2194
  847MOL0     H16870   4.296   9.838   2.628 -2.5970 -0.2116  1.5340
  847MOL0     H16871   4.059   9.901   2.642  1.1289 -1.2406 -0.2296
  847MOL0     H16872   3.821  10.284   2.444 -0.2038 -1.6123  1.0141
  847MOL0     H16873   3.631  10.438   2.412  3.2220 -0.5143 -0.0783
  847MOL0     H16874   3.238  10.236   2.364  2.5582  0.1110 -0.6093
  847MOL0     H16875   3.219  10.273   2.534 -1.3971  0.9684  0.3927
  847MOL0     H16876   3.146  10.452   2.289 -2.0151 -2.2435 -0.8678
  847MOL0     H16877   3.134  10.512   2.450  0.7094 -0.1959  0.2063
  847MOL0     H16878   2.963  10.290   2.336  0.7881  2.0933 -3.3805
  847MOL0     H16879   2.958  10.343   2.504 -1.3036  2.6294  1.0415
  847MOL0     H16880   2.788  10.426   2.360  1.1198 -1.3936 -1.5186
  847MOL0     H16881   2.899  10.529   2.270 -0.2471 -2.7195 -0.8908
  847MOL0     H16882   2.884  10.751   2.629  0.4407  0.6593 -0.6057
  847MOL0     H16883   3.371  10.103   2.503  1.4676 -0.7815  0.5676
  847MOL0     H16884   3.546   9.890   2.639 -0.4053  1.5170  1.8048
  847MOL0     H16885   3.437   9.892   2.499 -0.6344  0.6151  0.6436
  847MOL0     H16886   3.610   9.856   2.480 -0.4841 -1.4319  3.6507
  848MOL0     O16887   4.091  10.764   8.969  0.2729  0.3054 -0.1641
  848MOL0     C16888   4.097  10.861   9.043  0.7773  0.6686 -0.6143
  848MOL0     O16889   3.987  10.926   9.096 -0.8448 -0.1346 -0.0913
  848MOL0     C16890   3.868  10.880   9.063  0.5347 -0.3416 -0.2650
  848MOL0     C16891   3.808  10.898   8.933  0.3521 -0.1505  0.4709
  848MOL0     C16892   3.680  10.841   8.907 -0.1797  0.0749 -0.1947
  848MOL0     C16893   3.618  10.762   9.008 -0.6923  0.3629  0.1833
  848MOL0     O16894   3.507  10.694   8.964 -0.2284  0.1728 -0.8583
  848MOL0     C16895   3.500  10.558   9.001 -0.3465  0.5589 -0.1028
  848MOL0     C16896   3.504  10.466   8.875  0.1825  0.0408  0.0523
  848MOL0     C16897   3.632  10.473   8.789  0.2036  0.6138  0.3303
  848MOL0     C16898   3.627  10.360   8.676 -0.3760 -0.7464 -0.3830
  848MOL0     C16899   3.763  10.349   8.614 -0.0954  0.6098 -0.6856
  848MOL0     C16900   3.756  10.224   8.521  0.1827 -0.4619  0.4077
  848MOL0     C16901   3.873  10.203   8.434  0.3387  0.3723 -0.5168
  848MOL0     C16902   3.999  10.144   8.499 -0.6860 -0.5100 -0.4409
  848MOL0     N16903   4.116  10.174   8.418  0.5513  0.2735 -0.2628
  848MOL0     C16904   4.169  10.297   8.385 -0.0800  0.5295  0.2837
  848MOL0     C16905   4.293  10.272   8.340  0.2478  0.3407  0.3501
  848MOL0     C16906   4.366  10.373   8.259 -0.4323 -0.6548  0.1073
  848MOL0     C16907   4.519  10.347   8.264  0.0420  0.6872  0.0085
  848MOL0     C16908   4.590  10.455   8.193  1.0355 -0.0824 -0.7204
  848MOL0     C16909   4.744  10.471   8.199 -0.2283  0.4000  0.7707
  848MOL0     O16910   4.824  10.451   8.080  0.4513 -0.7596  0.7228
  848MOL0     C16911   4.957  10.423   8.112  0.8429  0.3798 -0.2619
  848MOL0     C16912   5.053  10.516   8.097  0.3129  0.5251  0.0708
  848MOL0     C16913   5.186  10.484   8.130 -0.6331  0.0151 -0.3341
  848MOL0     C16914   5.289  10.597   8.115 -0.2646 -0.2696  0.7348
  848MOL0     C16915   5.223  10.355   8.166  0.3213 -0.3280 -0.0835
  848MOL0     C16916   5.362  10.299   8.181 -0.6600  0.0151  0.0792
  848MOL0     O16917   5.373  10.167   8.183  0.6742  0.9806 -0.0466
  848MOL0     C16918   5.486  10.093   8.217  0.3326 -0.6587 -0.4710
  848MOL0     C16919   5.480   9.958   8.185 -0.0858 -0.1957 -0.1899
  848MOL0     C16920   5.582   9.866   8.205  0.3602 -0.0885  0.1360
  848MOL0     C16921   5.697   9.914   8.280 -0.5645  0.6885  0.2981
  848MOL0     O16922   5.810   9.837   8.302 -0.2147  0.2229 -0.4784
  848MOL0     C16923   5.862   9.770   8.182  0.3491  0.2400 -0.6076
  848MOL0     C16924   6.002   9.718   8.196 -0.3014  0.1631  0.0746
  848MOL0     C16925   6.017   9.600   8.293 -1.1941 -0.7957 -0.2274
  848MOL0     C16926   6.150   9.521   8.270 -0.1148  0.1715 -0.5872
  848MOL0     C16927   6.156   9.407   8.374  0.1101 -0.4912 -0.5829
  848MOL0     C16928   6.303   9.355   8.411 -0.2036  0.5674 -0.5281
  848MOL0     C16929   6.395   9.465   8.476  1.3193 -0.3278 -0.7487
  848MOL0     C16930   6.521   9.406   8.528  0.4107 -0.0483  0.6272
  848MOL0    Cl16931   6.618   9.329   8.399  0.1856  0.1439 -0.5273
  848MOL0     C16932   5.697  10.045   8.317  0.4506  0.2416  0.6406
  848MOL0     C16933   5.595  10.141   8.286 -0.6476  0.5624 -0.4092
  848MOL0     O16934   5.460  10.372   8.175 -0.5445 -0.4166  0.3116
  848MOL0     C16935   5.123  10.257   8.174 -0.3563 -0.5175  0.6214
  848MOL0     C16936   4.993  10.294   8.143 -0.2004 -0.5750 -0.3387
  848MOL0     N16937   4.314  10.134   8.347  0.1654  0.1898 -0.7352
  848MOL0     N16938   4.209  10.077   8.388  0.2596 -0.2397  0.0919
  848MOL0     C16939   3.677  10.745   9.132  0.8013 -0.0396 -0.4601
  848MOL0     C16940   3.801  10.803   9.155  0.3404 -0.0798  0.6197
  848MOL0     C16941   4.230  10.899   9.105 -0.0707 -0.3012  0.1022
  848MOL0     C16942   4.227  11.009   9.194 -0.2783  0.6360  0.6589
  848MOL0     C16943   4.340  11.048   9.273 -0.3613  0.5257 -0.3375
  848MOL0     C16944   4.464  10.977   9.259 -0.7025  1.2687 -0.4733
  848MOL0     O16945   4.566  11.029   9.332 -0.3482 -0.8920  0.1127
  848MOL0     C16946   4.668  11.087   9.247  0.0338 -0.4417  0.5367
  848MOL0     C16947   4.782  11.122   9.342 -0.1158  0.1042  0.8486
  848MOL0     C16948   4.903  11.161   9.265 -0.2422 -0.1372 -0.2251
  848MOL0     C16949   5.003  11.247   9.337  0.7004  0.0700 -0.2900
  848MOL0     C16950   5.126  11.270   9.275  0.0882 -0.7264  0.7320
  848MOL0     C16951   5.235  11.306   9.243 -0.1802 -0.0856  0.0022
  848MOL0     C16952   4.470  10.874   9.157 -0.3789 -0.5060 -0.7874
  848MOL0     C16953   4.356  10.833   9.085  0.4397  1.1244  0.4285
  848MOL0     C16954   4.369  10.719   8.991 -0.2180  0.2360  0.0728
  848MOL0     H16955   3.854  10.955   8.853 -2.4781 -0.3625 -1.4575
  848MOL0     H16956   3.634  10.842   8.809 -1.5170 -0.9812  0.3823
  848MOL0     H16957   3.410  10.536   9.060  0.5056 -0.1997  0.9529
  848MOL0     H16958   3.583  10.522   9.062 -0.1896  2.9257  1.2354
  848MOL0     H16959   3.497  10.359   8.896 -2.4726 -0.0707 -1.0481
  848MOL0     H16960   3.413  10.486   8.818  0.2649  0.8299  0.1907
  848MOL0     H16961   3.645  10.570   8.740 -1.3387  1.0917  0.7908
  848MOL0     H16962   3.715  10.463   8.859 -0.4270  0.4238  1.0655
  848MOL0     H16963   3.591  10.265   8.715  2.2600 -1.9174 -0.6064
  848MOL0     H16964   3.554  10.397   8.604 -2.1043 -2.8322  0.1954
  848MOL0     H16965   3.837  10.328   8.692  0.3721  2.0772 -0.6923
  848MOL0     H16966   3.786  10.435   8.550 -1.4526 -0.2733 -2.4268
  848MOL0     H16967   3.736  10.132   8.577  1.2380 -0.7601  0.3182
  848MOL0     H16968   3.675  10.253   8.452  0.9922 -0.4951 -0.5831
  848MOL0     H16969   3.893  10.301   8.389  3.0298  0.1920  0.0969
  848MOL0     H16970   3.843  10.139   8.351  0.4714  0.4087 -0.5939
  848MOL0     H16971   4.004  10.191   8.598 -1.3886 -3.2783  1.0388
  848MOL0     H16972   3.978  10.038   8.517 -1.0722 -0.3174  0.3217
  848MOL0     H16973   4.122  10.395   8.388  1.0780  1.1082 -0.0380
  848MOL0     H16974   4.341  10.466   8.312  3.9935 -0.9811  3.3650
  848MOL0     H16975   4.333  10.380   8.154  1.8532 -1.6755 -0.7460
  848MOL0     H16976   4.543  10.345   8.371 -1.3962  1.7380  0.3936
  848MOL0     H16977   4.527  10.249   8.216 -1.2857  0.7424 -0.3616
  848MOL0     H16978   4.557  10.452   8.089 -0.9319 -0.4914 -0.1322
  848MOL0     H16979   4.560  10.552   8.236  0.9978 -0.5962  0.4685
  848MOL0     H16980   4.771  10.569   8.240  0.1082 -0.3345  2.3678
  848MOL0     H16981   4.775  10.398   8.274 -1.2276 -0.0032  0.8092
  848MOL0     H16982   5.013  10.612   8.066 -3.4649 -0.9267 -0.1444
  848MOL0     H16983   5.374  10.561   8.056  0.4521  1.3527  0.7267
  848MOL0     H16984   5.334  10.634   8.207  2.5323  2.1240 -1.3905
  848MOL0     H16985   5.230  10.674   8.064 -2.0206 -1.8322  0.2845
  848MOL0     H16986   5.386   9.935   8.138 -1.1069  0.5177  1.4023
  848MOL0     H16987   5.585   9.767   8.162 -0.5519  0.1223 -0.4631
  848MOL0     H16988   5.798   9.688   8.148  0.6420  0.2052 -1.0969
  848MOL0     H16989   5.878   9.844   8.103  4.9430  0.3604  0.1978
  848MOL0     H16990   6.033   9.687   8.095 -1.7606 -1.8112  0.1771
  848MOL0     H16991   6.068   9.802   8.221  0.1322 -0.0997 -0.1536
  848MOL0     H16992   5.935   9.528   8.295 -1.5935 -0.3997 -1.4257
  848MOL0     H16993   6.023   9.638   8.395 -0.8363  1.0149 -0.8806
  848MOL0     H16994   6.237   9.586   8.286  1.7246 -2.6375  1.7606
  848MOL0     H16995   6.169   9.479   8.171  1.7242 -0.4570 -0.0147
  848MOL0     H16996   6.121   9.437   8.473  0.4329  1.8858 -1.1225
  848MOL0     H16997   6.089   9.328   8.338 -2.1106  0.8530  0.4018
  848MOL0     H16998   6.354   9.318   8.321 -0.0007 -2.3932  0.6971
  848MOL0     H16999   6.290   9.270   8.477  0.5763  1.4685  0.8214
  848MOL0     H17000   6.347   9.520   8.557  0.6104 -0.0197 -1.3676
  848MOL0     H17001   6.407   9.539   8.396 -1.1338  0.0124 -0.8715
  848MOL0     H17002   6.502   9.333   8.607 -0.7351  2.2491  2.6155
  848MOL0     H17003   6.582   9.489   8.567 -1.0571  1.3360  0.1000
  848MOL0     H17004   5.790  10.072   8.366  0.0401  1.1551  0.9282
  848MOL0     H17005   5.612  10.244   8.313 -0.4849  0.7556 -1.2087
  848MOL0     H17006   5.138  10.155   8.211 -1.3033 -0.2164  1.9220
  848MOL0     H17007   4.918  10.216   8.157 -0.1259 -0.6759 -0.5007
  848MOL0     H17008   3.632  10.684   9.210 -0.5726  2.9081  1.1941
  848MOL0     H17009   3.843  10.802   9.255 -1.0585 -1.3588  1.2325
  848MOL0     H17010   4.145  11.080   9.198 -2.6695 -1.7346 -1.8677
  848MOL0     H17011   4.324  11.142   9.324  0.2697  0.6620 -0.3841
  848MOL0     H17012   4.704  11.015   9.173  3.9502  1.4039  0.4233
  848MOL0     H17013   4.613  11.172   9.206 -1.1836 -0.6863  1.5914
  848MOL0     H17014   4.815  11.041   9.407  1.4277  0.8472  1.0520
  848MOL0     H17015   4.754  11.203   9.410  2.1172 -0.6794  2.8250
  848MOL0     H17016   4.955  11.071   9.231  1.6224  0.8828 -0.2073
  848MOL0     H17017   4.874  11.219   9.177  0.1956  2.7583  1.4130
  848MOL0     H17018   5.034  11.206   9.433 -2.1084 -1.3367  0.1191
  848MOL0     H17019   4.959  11.345   9.361  3.5930  1.6370 -0.9455
  848MOL0     H17020   5.330  11.343   9.210 -0.9760  1.2453 -0.9332
  848MOL0     H17021   4.566  10.824   9.163 -0.6064 -0.9152 -0.5346
  848MOL0     H17022   4.351  10.758   8.891  0.2036  0.6117  0.1373
  848MOL0     H17023   4.467  10.671   8.986 -0.9573 -1.4277  0.7718
  848MOL0     H17024   4.305  10.637   9.025 -1.2881  1.2048  0.4405
  849MOL0     O17025   7.446   4.582   1.160 -0.3649 -0.5664 -0.6784
  849MOL0     C17026   7.372   4.485   1.172  0.3180  0.5176 -0.0239
  849MOL0     O17027   7.409   4.354   1.195  1.0148 -0.4440  0.1071
  849MOL0     C17028   7.539   4.337   1.222 -0.7938 -0.7619 -0.0237
  849MOL0     C17029   7.631   4.297   1.126  0.4978 -0.2054  0.3456
  849MOL0     C17030   7.762   4.270   1.173 -0.1955 -0.2667 -0.6562
  849MOL0     C17031   7.800   4.282   1.309  0.2693  0.0170 -0.2821
  849MOL0     O17032   7.922   4.253   1.364  0.4350 -0.3040 -0.0916
  849MOL0     C17033   8.040   4.317   1.321 -0.2416 -0.0815  0.4074
  849MOL0     C17034   8.156   4.256   1.400  0.3116 -0.7845 -0.1418
  849MOL0     C17035   8.193   4.119   1.343  0.0874  0.0140 -0.2839
  849MOL0     C17036   8.288   4.122   1.223 -0.2719 -0.2504  0.6101
  849MOL0     C17037   8.431   4.116   1.267 -1.0681  0.1966 -0.5443
  849MOL0     C17038   8.535   4.110   1.154 -0.1965  0.2250  0.0315
  849MOL0     C17039   8.680   4.116   1.207 -0.1702  0.3576  0.1630
  849MOL0     C17040   8.787   4.111   1.094  0.3509 -0.4059  0.1736
  849MOL0     N17041   8.905   4.046   1.140 -0.4459 -0.6148  0.3127
  849MOL0     C17042   8.928   3.912   1.131  0.3506  0.2987  0.9678
  849MOL0     C17043   9.051   3.901   1.182  0.0059  0.3936 -0.2554
  849MOL0     C17044   9.126   3.773   1.199  0.3636  0.5328  0.4392
  849MOL0     C17045   9.150   3.744   1.346 -0.1577 -0.8337 -0.1054
  849MOL0     C17046   9.191   3.598   1.363 -0.3944  0.5668 -0.0104
  849MOL0     C17047   9.218   3.571   1.517  0.2061  0.7925  0.6105
  849MOL0     O17048   9.320   3.470   1.524  0.2683  0.1114 -0.4946
  849MOL0     C17049   9.449   3.511   1.527 -0.3080  0.1886 -0.5821
  849MOL0     C17050   9.530   3.405   1.555  0.2422  0.8873 -0.0148
  849MOL0     C17051   9.667   3.419   1.568  0.2217 -0.3942  0.4952
  849MOL0     C17052   9.751   3.292   1.586  0.8092 -0.7155 -0.0676
  849MOL0     C17053   9.722   3.546   1.560 -0.4757 -0.8929  0.5754
  849MOL0     C17054   9.863   3.583   1.560 -0.9735  0.7046  0.0854
  849MOL0     O17055   9.891   3.709   1.505  0.3069  0.3496  0.1725
  849MOL0     C17056  10.021   3.760   1.517  0.7015 -0.1761 -0.1718
  849MOL0     C17057  10.134   3.701   1.461 -0.2688 -0.7899 -0.2251
  849MOL0     C17058  10.258   3.775   1.477  0.6629  0.4839  0.3505
  849MOL0     C17059  10.253   3.907   1.542 -0.0704 -0.3943 -0.1873
  849MOL0     O17060  10.374   3.969   1.563  0.2135  0.3568  0.6924
  849MOL0     C17061  10.396   4.108   1.599  0.1450  0.3872  0.8931
  849MOL0     C17062  10.349   4.215   1.492 -0.8948 -0.1926  0.4166
  849MOL0     C17063  10.423   4.201   1.352  0.2067 -0.2922  0.1259
  849MOL0     C17064  10.545   4.293   1.339  0.2655  0.3619 -0.6480
  849MOL0     C17065  10.616   4.289   1.206  0.1562  0.4740  0.3509
  849MOL0     C17066  10.722   4.176   1.209  0.1982 -0.3398 -0.6524
  849MOL0     C17067  10.821   4.184   1.093 -0.4455 -0.2977  0.0219
  849MOL0     C17068  10.772   4.156   0.953  0.4048  0.0374 -0.1545
  849MOL0    Cl17069  10.822   4.000   0.889 -0.4432  0.5128  0.3389
  849MOL0     C17070  10.138   3.957   1.595  0.1554  0.7373 -0.6230
  849MOL0     C17071  10.023   3.884   1.582  1.0689 -0.2646  0.0012
  849MOL0     O17072   9.953   3.505   1.605  0.2555  0.0756 -0.0548
  849MOL0     C17073   9.633   3.654   1.549 -1.3487  0.1120  0.4863
  849MOL0     C17074   9.504   3.640   1.517  0.5957 -1.1789  0.3924
  849MOL0     N17075   9.098   4.022   1.229 -1.2335 -0.6004 -0.1501
  849MOL0     N17076   9.021   4.106   1.189  0.1191 -0.1747  0.8704
  849MOL0     C17077   7.702   4.337   1.398 -0.8650 -0.0083  0.3200
  849MOL0     C17078   7.572   4.351   1.359 -1.4712  0.0637 -0.3617
  849MOL0     C17079   7.238   4.500   1.124  0.2689  0.5915 -0.3991
  849MOL0     C17080   7.165   4.383   1.084  0.4781 -0.6144  0.0243
  849MOL0     C17081   7.044   4.389   1.019 -0.4068  0.9084 -0.3781
  849MOL0     C17082   6.983   4.509   0.989  0.4419  0.0773  0.8924
  849MOL0     O17083   6.874   4.507   0.907 -0.0035 -0.4150 -0.2750
  849MOL0     C17084   6.849   4.618   0.821  0.6292  0.2650 -0.8498
  849MOL0     C17085   6.962   4.653   0.724  0.4576 -0.2883  0.2292
  849MOL0     C17086   6.901   4.740   0.601  0.4808  0.1096  0.7358
  849MOL0     C17087   6.812   4.862   0.642  0.1716 -0.2022 -0.1008
  849MOL0     C17088   6.888   4.955   0.733  0.1948 -0.3078  0.2120
  849MOL0     C17089   6.957   5.028   0.808  0.8429 -0.3904 -0.7839
  849MOL0     C17090   7.040   4.625   1.039  0.2102 -0.1105 -0.0796
  849MOL0     C17091   7.169   4.625   1.110  0.1725  0.2177  1.1021
  849MOL0     C17092   7.209   4.754   1.156 -0.5749 -0.2772  0.0795
  849MOL0     H17093   7.611   4.289   1.020  0.5416 -1.5756  0.4226
  849MOL0     H17094   7.843   4.245   1.105 -1.4118  1.5502 -2.9249
  849MOL0     H17095   8.036   4.425   1.339 -2.5887  0.1119 -0.8822
  849MOL0     H17096   8.040   4.299   1.213 -1.2998  1.1147  0.1780
  849MOL0     H17097   8.239   4.327   1.406 -1.6708  1.5380  1.5316
  849MOL0     H17098   8.129   4.244   1.505  0.2056 -1.2752 -0.2208
  849MOL0     H17099   8.240   4.063   1.424  0.2789 -0.9530 -1.0449
  849MOL0     H17100   8.100   4.068   1.319 -0.6288  0.6723  0.9933
  849MOL0     H17101   8.267   4.030   1.167 -0.4463 -1.1251  2.0726
  849MOL0     H17102   8.261   4.209   1.162  0.4862  0.0357  0.6758
  849MOL0     H17103   8.444   4.028   1.331 -1.3006  0.6466  0.1370
  849MOL0     H17104   8.455   4.201   1.331  0.0726  1.0334 -2.0287
  849MOL0     H17105   8.516   4.020   1.096 -2.8918  1.9943 -2.0448
  849MOL0     H17106   8.516   4.196   1.089 -1.1848  1.6872  2.1085
  849MOL0     H17107   8.692   4.024   1.264  0.0614 -0.8462 -1.7674
  849MOL0     H17108   8.690   4.197   1.281 -3.1153 -0.3759  1.5198
  849MOL0     H17109   8.748   4.068   1.002  0.6238  1.8890 -1.0884
  849MOL0     H17110   8.823   4.209   1.060  1.1574 -0.1072  1.8029
  849MOL0     H17111   8.866   3.830   1.097 -0.6606  1.7449 -0.8542
  849MOL0     H17112   9.222   3.774   1.148  0.4907 -0.7162  0.6221
  849MOL0     H17113   9.067   3.690   1.158 -1.3706  1.2075  1.4281
  849MOL0     H17114   9.228   3.813   1.380  4.0431 -3.7636 -2.7199
  849MOL0     H17115   9.059   3.769   1.400  0.0167  3.6646 -1.4652
  849MOL0     H17116   9.115   3.531   1.322  1.2172 -1.4959  0.1665
  849MOL0     H17117   9.281   3.582   1.303  0.1193  1.7238  0.4181
  849MOL0     H17118   9.245   3.661   1.574  0.1733  2.5884 -2.0262
  849MOL0     H17119   9.123   3.535   1.557 -0.9408  0.8798 -1.8374
  849MOL0     H17120   9.488   3.305   1.563  1.1329  0.4985 -0.0957
  849MOL0     H17121   9.832   3.299   1.660  0.0389 -2.4601  1.0161
  849MOL0     H17122   9.794   3.263   1.490  0.1185 -1.5911 -0.1289
  849MOL0     H17123   9.685   3.216   1.630 -1.6265  2.7633  2.8934
  849MOL0     H17124  10.138   3.600   1.423 -1.4049 -0.7427 -0.5050
  849MOL0     H17125  10.348   3.722   1.446  0.3088 -1.2842  2.1607
  849MOL0     H17126  10.335   4.125   1.688  1.7915  0.4739  2.0545
  849MOL0     H17127  10.499   4.115   1.635  0.6966 -5.8145  1.7366
  849MOL0     H17128  10.241   4.214   1.477 -1.1353 -0.0090  1.9861
  849MOL0     H17129  10.364   4.319   1.522 -5.2834  1.5599 -2.4409
  849MOL0     H17130  10.349   4.232   1.276 -0.8193  0.3341  1.3365
  849MOL0     H17131  10.459   4.099   1.342 -0.1864 -0.5703  1.3588
  849MOL0     H17132  10.613   4.269   1.421  2.5317  1.8230 -2.0010
  849MOL0     H17133  10.518   4.398   1.350 -0.3067  0.3035 -1.4192
  849MOL0     H17134  10.544   4.263   1.128  0.5682  3.6126 -1.2244
  849MOL0     H17135  10.675   4.378   1.184 -0.1876  1.0712  1.7259
  849MOL0     H17136  10.673   4.079   1.203 -1.4190  0.4234 -0.1278
  849MOL0     H17137  10.784   4.183   1.299  2.8027 -0.3231 -2.3235
  849MOL0     H17138  10.909   4.120   1.109  0.1501  0.8376  1.5581
  849MOL0     H17139  10.861   4.286   1.088 -1.2310  0.1776  2.3084
  849MOL0     H17140  10.810   4.235   0.889 -2.1043  2.6866  1.3675
  849MOL0     H17141  10.664   4.172   0.945  0.5943  0.4011 -2.7725
  849MOL0     H17142  10.129   4.054   1.644 -3.7504 -0.1270  0.7324
  849MOL0     H17143   9.929   3.929   1.612  1.0169 -1.7931  2.3741
  849MOL0     H17144   9.661   3.758   1.538  0.4274 -0.5709 -2.6993
  849MOL0     H17145   9.439   3.722   1.488  0.7680 -1.5522 -1.1677
  849MOL0     H17146   7.725   4.352   1.503  0.4555 -2.7691  0.5210
  849MOL0     H17147   7.494   4.386   1.425  0.7508 -0.9196  3.0709
  849MOL0     H17148   7.208   4.285   1.065 -0.6739 -0.4521 -4.5033
  849MOL0     H17149   6.995   4.298   0.985 -1.4378  2.0797 -2.2499
  849MOL0     H17150   6.756   4.590   0.771  1.7997 -0.2603 -2.8439
  849MOL0     H17151   6.815   4.701   0.883 -0.7954 -1.9273  1.5030
  849MOL0     H17152   6.992   4.557   0.681 -2.3117 -1.7877  1.3881
  849MOL0     H17153   7.048   4.709   0.762  3.1850 -2.8343 -1.7899
  849MOL0     H17154   6.976   4.783   0.534 -0.1073  0.8754  0.5591
  849MOL0     H17155   6.840   4.669   0.544  2.4252 -1.4133  0.4188
  849MOL0     H17156   6.729   4.823   0.701  1.0143 -1.8646  0.0733
  849MOL0     H17157   6.775   4.915   0.554 -0.0287  1.0371  0.7070
  849MOL0     H17158   7.024   5.090   0.864 -1.2515  1.3049 -0.0347
  849MOL0     H17159   6.988   4.719   1.022 -0.7050 -0.9011 -1.9389
  849MOL0     H17160   7.301   4.780   1.103 -0.8310  0.3111 -0.0813
  849MOL0     H17161   7.138   4.833   1.130  0.5286  0.5597 -0.4661
  849MOL0     H17162   7.236   4.751   1.263  0.8988 -0.8896 -0.2824
  850MOL0     O17163  10.706   1.946   2.765  0.3486 -0.5789 -0.1115
  850MOL0     C17164  10.703   2.063   2.720  0.4514 -0.1194 -0.1699
  850MOL0     O17165  10.810   2.139   2.685 -0.0912 -0.5172 -0.0735
  850MOL0     C17166  10.935   2.090   2.722  0.3149  0.4742  0.8589
  850MOL0     C17167  11.012   2.027   2.629 -0.2964  0.5055 -0.7414
  850MOL0     C17168  11.141   1.977   2.667  0.3610  0.8052  0.8354
  850MOL0     C17169  11.193   1.988   2.797  0.1540 -0.5196  0.7193
  850MOL0     O17170  11.332   1.965   2.812  0.0772 -0.1480 -0.5090
  850MOL0     C17171  11.385   1.957   2.947  0.3372  0.3514  0.1575
  850MOL0     C17172  11.433   2.088   3.001 -0.0395 -0.3148  0.3944
  850MOL0     C17173  11.557   2.128   2.911 -0.6043 -0.0640  0.1764
  850MOL0     C17174  11.629   2.242   2.974 -0.7776  0.0040  0.2390
  850MOL0     C17175  11.758   2.285   2.896  1.1528 -0.6958  0.0096
  850MOL0     C17176  11.780   2.432   2.910  0.0766  0.4800  0.6777
  850MOL0     C17177  11.889   2.482   2.814  0.1554 -0.2802  0.2943
  850MOL0     C17178  12.035   2.441   2.844  0.4352  0.7688  0.2850
  850MOL0     N17179  12.127   2.483   2.741  0.0337 -0.2046  0.2395
  850MOL0     C17180  12.100   2.520   2.608 -0.6824 -0.3650 -0.3775
  850MOL0     C17181  12.221   2.559   2.557  0.5304 -0.1429 -0.2042
  850MOL0     C17182  12.239   2.579   2.407  0.7456 -0.1495  0.6859
  850MOL0     C17183  12.216   2.458   2.320  0.9676  0.0724  0.3354
  850MOL0     C17184  12.332   2.361   2.325 -0.2992  0.4534 -0.2600
  850MOL0     C17185  12.464   2.405   2.258  0.0807  0.1946  0.3806
  850MOL0     O17186  12.466   2.373   2.113  0.3759 -0.0406 -0.5027
  850MOL0     C17187  12.585   2.386   2.054  0.6081  0.3275  0.3097
  850MOL0     C17188  12.686   2.480   2.086 -0.2458 -0.3742 -0.1584
  850MOL0     C17189  12.807   2.501   2.007  1.2581 -0.4343 -0.1201
  850MOL0     C17190  12.892   2.613   2.067  0.5955  0.0336 -0.2846
  850MOL0     C17191  12.826   2.420   1.885 -0.2910 -0.4345 -0.1470
  850MOL0     C17192  12.943   2.434   1.799  0.8502 -0.5251 -0.2231
  850MOL0     O17193  13.033   2.526   1.823  0.0186 -0.3698 -0.3048
  850MOL0     C17194  13.090   2.587   1.712  0.0707 -0.2958 -0.1344
  850MOL0     C17195  13.014   2.681   1.648  0.3722  0.7235  0.6118
  850MOL0     C17196  13.070   2.740   1.534  1.0983  0.0334 -0.9614
  850MOL0     C17197  13.203   2.717   1.489  0.8082  0.2846 -0.6656
  850MOL0     O17198  13.255   2.792   1.387  0.3324 -0.8882  0.0226
  850MOL0     C17199  13.387   2.779   1.335 -0.0644  0.4273  0.2466
  850MOL0     C17200  13.399   2.884   1.225 -0.1728 -0.3990  0.0472
  850MOL0     C17201  13.549   2.901   1.175  0.4338 -0.1624  1.1869
  850MOL0     C17202  13.632   2.966   1.293  0.5242 -0.0387 -0.0713
  850MOL0     C17203  13.760   3.017   1.235 -0.4188  0.1940  0.4964
  850MOL0     C17204  13.884   3.027   1.332  0.0267  0.3272  0.1877
  850MOL0     C17205  14.010   3.066   1.251  0.1080  0.4340  0.8614
  850MOL0     C17206  14.018   3.206   1.193 -0.2536 -0.5849 -0.1848
  850MOL0    Cl17207  14.010   3.324   1.328 -0.0784 -0.9857 -0.0463
  850MOL0     C17208  13.280   2.620   1.557 -0.1182  0.4586  0.8745
  850MOL0     C17209  13.227   2.559   1.669  0.9534 -0.5204  0.0244
  850MOL0     O17210  12.949   2.360   1.698  0.1894 -0.0075 -0.1888
  850MOL0     C17211  12.714   2.348   1.839  0.5511 -0.5969 -0.5474
  850MOL0     C17212  12.602   2.323   1.923 -0.0590 -0.0970 -0.5719
  850MOL0     N17213  12.318   2.545   2.658 -0.3421 -0.4634  0.3582
  850MOL0     N17214  12.260   2.501   2.768  0.6147  0.1268  0.8896
  850MOL0     C17215  11.104   2.046   2.890 -0.8392  0.7382  0.0785
  850MOL0     C17216  10.983   2.100   2.857  0.2171 -0.1343  0.2769
  850MOL0     C17217  10.575   2.144   2.703 -0.4077 -0.2796 -0.3778
  850MOL0     C17218  10.571   2.255   2.615 -0.2715 -0.5270 -0.4520
  850MOL0     C17219  10.447   2.330   2.592 -0.5461  0.2418  0.9060
  850MOL0     C17220  10.335   2.300   2.667  0.1006 -0.4381 -0.0759
  850MOL0     O17221  10.224   2.379   2.658 -0.1712 -0.3096 -0.1498
  850MOL0     C17222  10.185   2.447   2.775  0.0784 -0.5551 -0.1609
  850MOL0     C17223  10.079   2.537   2.725  0.3072 -0.7166 -0.7422
  850MOL0     C17224   9.965   2.546   2.829  0.2627 -0.7978  1.4340
  850MOL0     C17225  10.005   2.568   2.978  1.1731 -0.9023  0.5690
  850MOL0     C17226   9.890   2.615   3.063 -0.0501 -0.7685 -0.9612
  850MOL0     C17227   9.809   2.656   3.147 -0.3605  0.7164 -0.5789
  850MOL0     C17228  10.337   2.201   2.758 -0.3813 -0.4478  0.1870
  850MOL0     C17229  10.449   2.119   2.772 -0.0683 -0.3907 -0.4930
  850MOL0     C17230  10.424   2.024   2.884 -1.3073  0.1775  0.6011
  850MOL0     H17231  10.978   2.031   2.526  1.6929 -1.0321 -1.5149
  850MOL0     H17232  11.203   1.933   2.589 -0.8488  0.4933  0.0219
  850MOL0     H17233  11.473   1.891   2.944 -1.4286 -2.1127 -1.4224
  850MOL0     H17234  11.316   1.914   3.020  1.5408  0.8345  1.6390
  850MOL0     H17235  11.353   2.163   2.999  0.1696 -0.0161  2.0068
  850MOL0     H17236  11.473   2.088   3.103 -2.8352  4.4600  1.8560
  850MOL0     H17237  11.629   2.046   2.904  1.8888  2.0731 -0.9111
  850MOL0     H17238  11.531   2.160   2.809  0.9486  0.8815  0.0524
  850MOL0     H17239  11.567   2.331   2.981 -0.9050 -0.1206  0.7037
  850MOL0     H17240  11.649   2.210   3.077 -2.6755  2.8139  1.5908
  850MOL0     H17241  11.738   2.259   2.791 -1.3545 -2.2849  0.7783
  850MOL0     H17242  11.850   2.236   2.928  1.6380 -0.1001 -0.4476
  850MOL0     H17243  11.689   2.487   2.883 -0.6324 -1.3020 -0.7444
  850MOL0     H17244  11.808   2.457   3.012  2.5990  0.2001  0.1066
  850MOL0     H17245  11.879   2.591   2.818  0.2858 -0.1453 -1.8252
  850MOL0     H17246  11.867   2.441   2.715  2.7008 -0.0876 -0.4250
  850MOL0     H17247  12.063   2.488   2.938  1.9035 -0.2735  0.3994
  850MOL0     H17248  12.033   2.333   2.860  3.4015  0.7185  0.8975
  850MOL0     H17249  12.003   2.522   2.560 -1.0825 -0.4156  0.4053
  850MOL0     H17250  12.343   2.608   2.392  1.1338 -1.8840 -0.3116
  850MOL0     H17251  12.174   2.660   2.372  0.8571 -1.2260 -2.2859
  850MOL0     H17252  12.123   2.405   2.344  2.1212 -2.1492  0.1351
  850MOL0     H17253  12.214   2.492   2.216  2.0036 -1.6985 -0.3001
  850MOL0     H17254  12.351   2.344   2.431 -1.4177 -1.6190 -0.3383
  850MOL0     H17255  12.298   2.261   2.295 -2.3142  0.5965  1.3637
  850MOL0     H17256  12.484   2.511   2.277  1.6731 -0.4737  2.9359
  850MOL0     H17257  12.546   2.356   2.311 -0.9374  0.8498  2.7055
  850MOL0     H17258  12.672   2.534   2.180 -1.9726 -0.0737 -0.5608
  850MOL0     H17259  12.911   2.690   1.991  0.4811 -0.3097 -0.6683
  850MOL0     H17260  12.993   2.572   2.080  0.1837 -0.9196 -0.0021
  850MOL0     H17261  12.852   2.655   2.159  0.2994 -3.0441  1.1112
  850MOL0     H17262  12.909   2.686   1.675 -0.3442 -2.6181 -1.0086
  850MOL0     H17263  13.005   2.809   1.481 -0.4947  0.9537  1.9769
  850MOL0     H17264  13.464   2.788   1.412  0.5369 -0.9774 -0.1547
  850MOL0     H17265  13.399   2.677   1.298  4.3337  0.3570  1.3164
  850MOL0     H17266  13.331   2.842   1.149  0.4072 -1.2753  0.0037
  850MOL0     H17267  13.358   2.981   1.255  0.0767  0.3192 -1.7439
  850MOL0     H17268  13.549   2.970   1.090 -0.1293  0.8420  1.9736
  850MOL0     H17269  13.581   2.803   1.138 -2.0807 -0.6858  0.1730
  850MOL0     H17270  13.655   2.893   1.371  2.8833  1.5786  0.8543
  850MOL0     H17271  13.576   3.047   1.339 -0.4866 -2.1416  2.6938
  850MOL0     H17272  13.795   2.947   1.159  1.5585  2.9504 -1.3159
  850MOL0     H17273  13.749   3.111   1.181  3.4323  1.6307  1.8139
  850MOL0     H17274  13.899   2.927   1.374  0.2416 -0.3388 -1.4080
  850MOL0     H17275  13.865   3.097   1.413  1.9769 -0.5740  1.5031
  850MOL0     H17276  14.014   3.002   1.163  0.6880  1.4596  0.1241
  850MOL0     H17277  14.092   3.051   1.322 -0.6569  1.2055  1.9625
  850MOL0     H17278  13.931   3.208   1.126 -0.7933 -1.0192  0.4774
  850MOL0     H17279  14.105   3.227   1.130  0.1751  1.3349  0.9755
  850MOL0     H17280  13.379   2.597   1.519  0.5843 -0.4890  3.1014
  850MOL0     H17281  13.292   2.495   1.728  3.2850  1.4410 -0.2764
  850MOL0     H17282  12.701   2.304   1.741  1.2425 -0.1081 -0.8723
  850MOL0     H17283  12.519   2.261   1.892 -0.6967 -1.1719  2.7920
  850MOL0     H17284  11.153   2.062   2.985 -0.2517 -2.8478  0.5389
  850MOL0     H17285  10.922   2.147   2.933 -0.0877 -2.4238  1.5467
  850MOL0     H17286  10.667   2.297   2.588  0.3548 -0.2277  2.0006
  850MOL0     H17287  10.446   2.403   2.512 -2.3983  1.6944  2.1711
  850MOL0     H17288  10.152   2.376   2.852  0.2244 -0.5761 -0.1175
  850MOL0     H17289  10.263   2.506   2.824  0.2039 -0.2375 -0.7434
  850MOL0     H17290  10.041   2.505   2.627 -1.2806  1.9572 -1.0918
  850MOL0     H17291  10.123   2.636   2.717 -0.8464 -0.0022  1.1597
  850MOL0     H17292   9.911   2.631   2.785  4.4152  1.3230 -0.1068
  850MOL0     H17293   9.899   2.459   2.820 -0.2814 -0.2984  0.3468
  850MOL0     H17294  10.085   2.643   2.981 -0.0561  0.5060  0.0492
  850MOL0     H17295  10.053   2.482   3.025  1.2951 -2.2406 -1.8490
  850MOL0     H17296   9.729   2.698   3.204  2.0882  1.3963  2.6482
  850MOL0     H17297  10.244   2.185   2.811 -0.6125  1.0213  0.2818
  850MOL0     H17298  10.464   2.053   2.982  0.8819 -3.0728  0.8213
  850MOL0     H17299  10.317   2.003   2.894 -1.3138  0.5898  1.5392
  850MOL0     H17300  10.456   1.923   2.858 -3.2483 -0.4588  0.4964
  851MOL0     O17301   2.499   9.622  11.017  0.2644 -0.6358  0.3438
  851MOL0     C17302   2.470   9.652  10.903 -0.1846 -0.2757 -1.3618
  851MOL0     O17303   2.564   9.695  10.807  0.1019 -0.7085 -0.4830
  851MOL0     C17304   2.695   9.730  10.840 -0.8209 -0.6982 -0.3425
  851MOL0     C17305   2.740   9.773  10.963 -0.1619 -0.5509 -0.0607
  851MOL0     C17306   2.863   9.826  10.979 -0.8475 -0.3348 -0.4352
  851MOL0     C17307   2.959   9.837  10.879 -0.4721  0.4862 -0.1483
  851MOL0     O17308   3.083   9.882  10.894  0.4899  0.5561 -0.4638
  851MOL0     C17309   3.140   9.869  11.026 -0.5747  0.4183  0.7492
  851MOL0     C17310   3.298   9.879  11.014 -0.7728  0.0168 -0.2618
  851MOL0     C17311   3.345   9.985  10.919 -0.5222 -0.1063 -0.0182
  851MOL0     C17312   3.498   9.980  10.929 -0.1001 -0.3700 -0.0116
  851MOL0     C17313   3.556  10.112  10.865 -0.1375  0.1943  0.1384
  851MOL0     C17314   3.711  10.092  10.858  0.3982 -0.3829 -0.5847
  851MOL0     C17315   3.788  10.219  10.823 -0.4711 -0.3097 -0.5589
  851MOL0     C17316   3.937  10.188  10.834 -0.0902 -0.3175 -0.1141
  851MOL0     N17317   3.996  10.314  10.816 -0.6155 -0.3421  0.0033
  851MOL0     C17318   4.062  10.395  10.907 -0.0034  0.2892 -0.9404
  851MOL0     C17319   4.109  10.502  10.842 -0.4755  0.0852 -0.1063
  851MOL0     C17320   4.186  10.621  10.899  0.2963 -0.2904 -0.1573
  851MOL0     C17321   4.342  10.627  10.887  0.9059 -0.2944 -1.0632
  851MOL0     C17322   4.400  10.495  10.941  0.5760  0.0404  0.5182
  851MOL0     C17323   4.553  10.501  10.934  0.4883 -0.5445  0.4747
  851MOL0     O17324   4.587  10.500  10.793 -0.3553 -0.0226  0.2169
  851MOL0     C17325   4.703  10.431  10.755  0.0275 -0.0650  0.0695
  851MOL0     C17326   4.697  10.292  10.735 -0.2482 -0.5081  0.7018
  851MOL0     C17327   4.817  10.216  10.700 -0.5133  0.3892 -0.5280
  851MOL0     C17328   4.796  10.058  10.702  0.4488 -0.0243 -0.2296
  851MOL0     C17329   4.937  10.278  10.661 -0.0345 -1.4691 -0.0482
  851MOL0     C17330   5.047  10.208  10.605  0.2416  0.0527  1.2014
  851MOL0     O17331   5.153  10.284  10.575  0.1073 -0.1004 -0.0867
  851MOL0     C17332   5.286  10.246  10.567  0.1284  0.7937 -0.1744
  851MOL0     C17333   5.339  10.136  10.635  0.2981  0.1447 -0.1929
  851MOL0     C17334   5.471  10.102  10.619 -0.3204 -0.1164 -0.0917
  851MOL0     C17335   5.556  10.167  10.529  0.3863 -0.0012 -0.2757
  851MOL0     O17336   5.675  10.127  10.484 -0.2332 -0.0321 -0.8836
  851MOL0     C17337   5.704   9.983  10.497 -0.5699  0.3152  0.0648
  851MOL0     C17338   5.840   9.941  10.440  0.6785 -0.0168 -0.4167
  851MOL0     C17339   5.961  10.003  10.516  0.3582 -0.1960 -0.1690
  851MOL0     C17340   6.092   9.934  10.490 -0.2399  0.3370  0.4786
  851MOL0     C17341   6.128   9.973  10.343 -1.2892  0.5746 -0.2401
  851MOL0     C17342   6.259   9.908  10.295 -0.3465  0.4375  0.3503
  851MOL0     C17343   6.281   9.917  10.142  0.5966  0.6730 -0.0198
  851MOL0     C17344   6.406   9.831  10.096  0.2704 -0.8028 -0.7651
  851MOL0    Cl17345   6.557   9.901  10.155  0.3964 -0.0518 -0.1728
  851MOL0     C17346   5.496  10.277  10.464 -0.2124 -0.0283  0.3594
  851MOL0     C17347   5.372  10.317  10.479  0.7467  0.8147  0.2431
  851MOL0     O17348   5.040  10.098  10.572  0.5342  0.3777 -0.5792
  851MOL0     C17349   4.932  10.418  10.677 -0.4818  0.8991  0.2392
  851MOL0     C17350   4.820  10.494  10.718 -0.4495 -0.0372 -0.7851
  851MOL0     N17351   4.080  10.490  10.710 -0.2633 -0.2211  0.5145
  851MOL0     N17352   4.004  10.376  10.694  0.0007  0.0361 -0.3039
  851MOL0     C17353   2.915   9.792  10.759  0.1176  0.4112  0.8534
  851MOL0     C17354   2.785   9.744  10.737  0.2402  0.7359 -0.5320
  851MOL0     C17355   2.320   9.653  10.873 -0.4065 -0.4218 -0.3459
  851MOL0     C17356   2.224   9.696  10.962 -0.5699  0.1485 -0.4771
  851MOL0     C17357   2.092   9.682  10.938 -0.9209 -0.3292  0.0165
  851MOL0     C17358   2.045   9.636  10.820  0.9026 -0.3308  0.0778
  851MOL0     O17359   1.908   9.648  10.803  0.4004  0.3062 -0.0337
  851MOL0     C17360   1.848   9.630  10.674 -0.3567  0.4169  0.0106
  851MOL0     C17361   1.708   9.678  10.666 -0.2240 -0.2740  0.1909
  851MOL0     C17362   1.669   9.710  10.525  0.7667  0.0011  0.8596
  851MOL0     C17363   1.523   9.767  10.517  0.1612 -0.6145  0.0206
  851MOL0     C17364   1.419   9.664  10.523 -0.9643  0.5012 -0.0693
  851MOL0     C17365   1.345   9.568  10.520  0.3671  0.2264  0.3655
  851MOL0     C17366   2.138   9.596  10.724  0.0395 -0.4476  0.7101
  851MOL0     C17367   2.276   9.602  10.747 -0.7116 -0.1605  0.5820
  851MOL0     C17368   2.368   9.546  10.644  0.0215  0.1510 -0.0311
  851MOL0     H17369   2.670   9.778  11.046  0.2647  0.1634  0.2653
  851MOL0     H17370   2.893   9.865  11.076  1.4907 -2.2036 -0.3338
  851MOL0     H17371   3.110   9.775  11.073 -0.9064  0.9937  1.7176
  851MOL0     H17372   3.112   9.957  11.085  1.2277  2.0408 -0.6873
  851MOL0     H17373   3.333   9.899  11.115 -2.6365  1.8880  0.0824
  851MOL0     H17374   3.335   9.780  10.986 -0.0620 -0.4943  2.2583
  851MOL0     H17375   3.312   9.957  10.818  1.1149 -0.4741 -0.4760
  851MOL0     H17376   3.303  10.083  10.941  0.4034  0.1773  0.5116
  851MOL0     H17377   3.533   9.975  11.032 -1.5504  0.4212  0.5362
  851MOL0     H17378   3.527   9.891  10.872 -1.2968 -0.4404 -0.5425
  851MOL0     H17379   3.528  10.193  10.934 -0.7945  1.2507 -1.3054
  851MOL0     H17380   3.518  10.138  10.766 -1.1130  1.5148  0.8264
  851MOL0     H17381   3.738  10.047  10.954  0.7191  1.1859  0.1067
  851MOL0     H17382   3.726  10.012  10.785  2.1078 -1.4761  0.8811
  851MOL0     H17383   3.761  10.302  10.890 -0.7341  0.2276 -1.3159
  851MOL0     H17384   3.762  10.264  10.726 -2.0577  4.8353  1.8610
  851MOL0     H17385   3.971  10.141  10.926 -1.9075  0.2821  0.9179
  851MOL0     H17386   3.974  10.110  10.767 -2.4592 -1.9954  0.4164
  851MOL0     H17387   4.081  10.379  11.012  1.4580  0.4493 -1.1597
  851MOL0     H17388   4.151  10.631  11.002 -2.1535 -2.4181 -0.6884
  851MOL0     H17389   4.146  10.711  10.854  0.5667  1.0566  2.1458
  851MOL0     H17390   4.372  10.642  10.783  1.0681  0.3654 -0.9189
  851MOL0     H17391   4.385  10.712  10.941  1.1102 -1.3642  0.5337
  851MOL0     H17392   4.372  10.491  11.046  3.3214 -1.3406  1.2732
  851MOL0     H17393   4.348  10.418  10.882 -1.7306 -1.9303  4.7070
  851MOL0     H17394   4.587  10.598  10.970 -1.0950 -0.8540  3.0350
  851MOL0     H17395   4.592  10.415  10.989 -1.2371 -1.0882  0.9237
  851MOL0     H17396   4.600  10.246  10.745 -0.1504 -0.4779  1.8973
  851MOL0     H17397   4.873   9.996  10.749 -0.9553  0.2913  2.6836
  851MOL0     H17398   4.789  10.031  10.596 -3.0397  1.6330 -0.5658
  851MOL0     H17399   4.702  10.036  10.754  0.4033  1.5419  0.4026
  851MOL0     H17400   5.276  10.082  10.705  0.7973 -0.4607 -0.2006
  851MOL0     H17401   5.514  10.020  10.676  0.9100  0.6352  0.0962
  851MOL0     H17402   5.705   9.951  10.601  0.6816  2.4245  0.7578
  851MOL0     H17403   5.636   9.918  10.442 -1.3501  2.2208 -1.3472
  851MOL0     H17404   5.842   9.832  10.428  0.6459 -0.1625  0.7022
  851MOL0     H17405   5.833   9.981  10.339 -1.7150 -1.2684 -0.8234
  851MOL0     H17406   5.939   9.987  10.622 -0.8972 -1.2672 -0.5581
  851MOL0     H17407   5.960  10.108  10.485  0.5313 -0.2396 -0.3319
  851MOL0     H17408   6.075   9.829  10.515 -1.9380 -0.3843 -3.1513
  851MOL0     H17409   6.159   9.975  10.567 -0.4764  3.1466 -0.6780
  851MOL0     H17410   6.043   9.950  10.278 -0.9579 -3.9091  0.5506
  851MOL0     H17411   6.137  10.081  10.340  0.4499  0.6723  3.2241
  851MOL0     H17412   6.246   9.803  10.319 -0.8323  0.7794  1.6589
  851MOL0     H17413   6.347   9.941  10.351 -1.0840 -1.0904  2.5245
  851MOL0     H17414   6.294  10.023  10.116 -0.6040  0.9391  0.3799
  851MOL0     H17415   6.194   9.885  10.083  0.8317  2.3446 -1.3737
  851MOL0     H17416   6.405   9.818   9.987 -4.5437 -0.3755 -0.9829
  851MOL0     H17417   6.389   9.736  10.146  0.3190 -0.8611 -0.8600
  851MOL0     H17418   5.552  10.341  10.397 -1.1026  2.7919  2.1470
  851MOL0     H17419   5.332  10.401  10.424 -0.5890  1.8762  2.6654
  851MOL0     H17420   5.019  10.475  10.645 -0.6740  0.4865 -1.0828
  851MOL0     H17421   4.836  10.602  10.720 -0.9056  0.0558 -1.5696
  851MOL0     H17422   2.984   9.807  10.677 -0.1452  3.3706  1.0635
  851MOL0     H17423   2.751   9.707  10.641 -0.6333  0.4606 -0.1234
  851MOL0     H17424   2.247   9.745  11.057 -0.9085 -0.8271  0.1194
  851MOL0     H17425   2.022   9.720  11.012 -1.0064 -0.8740  0.2178
  851MOL0     H17426   1.911   9.675  10.596  0.6643 -0.2073  0.4591
  851MOL0     H17427   1.842   9.522  10.660 -2.1628  0.5098 -0.2393
  851MOL0     H17428   1.704   9.766  10.731  3.1880 -0.2033  0.5365
  851MOL0     H17429   1.647   9.603  10.717  0.9482 -0.6913  1.0222
  851MOL0     H17430   1.742   9.780  10.483 -2.4317  3.3658  0.4456
  851MOL0     H17431   1.671   9.617  10.467  0.0154 -0.9403  2.2917
  851MOL0     H17432   1.504   9.811  10.419 -0.9643  1.1903  1.0124
  851MOL0     H17433   1.506   9.837  10.598 -2.7092 -0.3013 -0.7397
  851MOL0     H17434   1.293   9.475  10.531  0.4871 -0.2134 -2.1993
  851MOL0     H17435   2.094   9.564  10.630  2.1076  3.0778 -1.6639
  851MOL0     H17436   2.464   9.516  10.686  0.1453  0.9781  0.2865
  851MOL0     H17437   2.323   9.458  10.597 -2.4596  1.1103  0.4385
  851MOL0     H17438   2.391   9.619  10.565  2.2660 -0.9892 -0.5063
  852MOL0     O17439   1.361   4.115   6.284  0.4318 -0.3100  0.1784
  852MOL0     C17440   1.354   4.065   6.395 -0.0529 -0.3105 -0.3995
  852MOL0     O17441   1.459   4.000   6.458 -0.1151  0.1775 -0.2466
  852MOL0     C17442   1.585   4.004   6.406  0.3073  0.4346 -0.0881
  852MOL0     C17443   1.646   3.885   6.386 -0.1080 -0.0645  0.2050
  852MOL0     C17444   1.779   3.871   6.350  0.5881  0.3904  0.4464
  852MOL0     C17445   1.852   3.995   6.337  0.0140 -0.1438  0.4019
  852MOL0     O17446   1.983   4.003   6.312 -0.3565  0.0966  0.7452
  852MOL0     C17447   2.036   3.895   6.229 -0.4252  0.7664 -0.1801
  852MOL0     C17448   2.185   3.937   6.200 -0.6743 -0.5886 -0.0379
  852MOL0     C17449   2.240   3.869   6.086  0.5439  0.6879  0.3337
  852MOL0     C17450   2.260   3.716   6.081 -1.2502  0.0431 -0.5489
  852MOL0     C17451   2.383   3.664   6.163 -0.0514 -0.1942 -0.3010
  852MOL0     C17452   2.520   3.718   6.125  0.5127 -0.3980  0.0813
  852MOL0     C17453   2.630   3.628   6.178 -1.0458 -0.2416 -0.0803
  852MOL0     C17454   2.761   3.661   6.115 -0.2277 -0.6911 -0.3243
  852MOL0     N17455   2.806   3.799   6.121  0.4166 -0.6216  0.0018
  852MOL0     C17456   2.777   3.903   6.036 -0.1490  0.2488  0.5121
  852MOL0     C17457   2.838   4.005   6.089  0.1048 -0.6768 -0.3015
  852MOL0     C17458   2.853   4.135   6.022 -0.3472 -0.3784  0.1231
  852MOL0     C17459   2.992   4.140   5.958 -0.5352 -0.4803 -0.7912
  852MOL0     C17460   3.114   4.198   6.039  0.0851  0.1174  0.0581
  852MOL0     C17461   3.246   4.220   5.963  0.0938  0.2652 -0.5966
  852MOL0     O17462   3.293   4.103   5.898 -0.0946  0.0363  0.0338
  852MOL0     C17463   3.424   4.062   5.891 -0.0987 -0.1029  1.1431
  852MOL0     C17464   3.442   3.928   5.855 -0.1980  0.1980 -0.2986
  852MOL0     C17465   3.564   3.867   5.844 -0.6909 -0.5592 -0.0125
  852MOL0     C17466   3.565   3.716   5.839 -0.7565  0.1167  0.0274
  852MOL0     C17467   3.671   3.956   5.827 -1.3035  0.1769 -0.5738
  852MOL0     C17468   3.808   3.903   5.796  0.0257 -0.3295  0.3471
  852MOL0     O17469   3.914   3.982   5.834 -0.1307  0.3783  0.6037
  852MOL0     C17470   4.039   3.950   5.800  0.1856  0.5068  0.5197
  852MOL0     C17471   4.088   3.946   5.664 -0.3270  0.0978 -0.1025
  852MOL0     C17472   4.225   3.912   5.641  0.1012 -0.1442  0.7117
  852MOL0     C17473   4.312   3.879   5.749  0.7879  0.4055  0.1299
  852MOL0     O17474   4.445   3.848   5.737  0.3431 -0.1122  0.4425
  852MOL0     C17475   4.504   3.861   5.606 -0.1180 -0.4949 -0.3456
  852MOL0     C17476   4.651   3.816   5.606  0.1151 -0.8692  0.3287
  852MOL0     C17477   4.687   3.826   5.454 -0.7137  1.1125  0.1907
  852MOL0     C17478   4.794   3.710   5.421  0.0665 -0.7464  0.1506
  852MOL0     C17479   4.860   3.745   5.286  0.2737 -0.0485 -0.0706
  852MOL0     C17480   4.937   3.624   5.239  0.1150 -0.3199  0.6053
  852MOL0     C17481   5.040   3.654   5.126 -0.1138  0.0105 -0.1523
  852MOL0     C17482   5.139   3.540   5.133 -0.3036  0.2562 -0.3228
  852MOL0    Cl17483   5.232   3.553   5.279  0.3329  0.1115 -0.0421
  852MOL0     C17484   4.260   3.871   5.882  0.5783 -0.3662  0.8496
  852MOL0     C17485   4.127   3.907   5.907 -0.2278  0.0193 -0.5512
  852MOL0     O17486   3.817   3.794   5.740  0.1735 -0.3335  0.3091
  852MOL0     C17487   3.655   4.096   5.854  0.0045 -0.4776 -0.4446
  852MOL0     C17488   3.531   4.150   5.885  0.1368  0.0008 -0.8175
  852MOL0     N17489   2.897   3.966   6.208  0.0375  1.0852 -0.0168
  852MOL0     N17490   2.877   3.842   6.227 -0.1933 -0.2493 -0.0317
  852MOL0     C17491   1.791   4.122   6.363  0.0169  0.0769 -0.7314
  852MOL0     C17492   1.655   4.128   6.397 -0.1842  0.2567 -0.3630
  852MOL0     C17493   1.223   4.066   6.471  0.5766  0.0918  0.5544
  852MOL0     C17494   1.206   3.978   6.582 -0.3608  0.2399  0.2961
  852MOL0     C17495   1.087   3.964   6.656  0.4263  0.7635 -0.2262
  852MOL0     C17496   0.970   4.032   6.610  0.5474 -1.0775 -0.2069
  852MOL0     O17497   0.839   4.011   6.646  0.0139 -0.0246 -0.6293
  852MOL0     C17498   0.816   3.912   6.746 -0.0042 -0.2418  0.0683
  852MOL0     C17499   0.702   3.964   6.827 -0.1933  0.2461  0.0458
  852MOL0     C17500   0.563   3.985   6.750 -0.5724  1.0048 -0.6584
  852MOL0     C17501   0.517   3.855   6.681 -0.4700 -0.5611 -0.4986
  852MOL0     C17502   0.377   3.864   6.633 -0.1050  0.2531  0.0947
  852MOL0     C17503   0.262   3.867   6.594 -0.2440  0.5218  0.1796
  852MOL0     C17504   0.982   4.122   6.500 -0.1722 -0.1854 -0.0663
  852MOL0     C17505   1.106   4.137   6.433  0.2081 -0.0891 -0.6966
  852MOL0     C17506   1.109   4.236   6.320 -0.3125 -0.6020  0.0482
  852MOL0     H17507   1.582   3.802   6.416 -1.7967  1.3153  0.6094
  852MOL0     H17508   1.823   3.777   6.322 -0.4701  0.4189 -1.4995
  852MOL0     H17509   1.977   3.891   6.137  2.2314 -0.7931 -1.9609
  852MOL0     H17510   2.044   3.797   6.277  0.5806  0.2368 -1.3533
  852MOL0     H17511   2.191   4.044   6.178  1.0827 -0.7976 -0.7380
  852MOL0     H17512   2.243   3.919   6.291  0.8309  0.1723 -0.8313
  852MOL0     H17513   2.167   3.883   6.006 -1.7248 -1.3136  1.8945
  852MOL0     H17514   2.334   3.916   6.055  0.7638 -0.3616 -0.6521
  852MOL0     H17515   2.168   3.665   6.114 -1.0508 -0.6282 -1.0114
  852MOL0     H17516   2.276   3.694   5.976 -1.1448  0.6660 -0.6671
  852MOL0     H17517   2.390   3.556   6.147 -0.0573 -0.5236  1.6835
  852MOL0     H17518   2.365   3.676   6.270 -1.8837 -1.3587 -0.4322
  852MOL0     H17519   2.538   3.725   6.017  2.3329  3.0694  0.4535
  852MOL0     H17520   2.520   3.821   6.162 -0.3590 -0.0849 -0.7605
  852MOL0     H17521   2.610   3.521   6.170 -5.0841  0.1395  2.2477
  852MOL0     H17522   2.631   3.648   6.286 -1.3379  1.3755 -0.3615
  852MOL0     H17523   2.838   3.601   6.166 -0.6292 -0.9491 -0.0188
  852MOL0     H17524   2.755   3.629   6.011 -2.7645 -0.9439 -0.1538
  852MOL0     H17525   2.731   3.897   5.938 -0.1025 -2.3547  0.5968
  852MOL0     H17526   2.834   4.219   6.089 -0.3219  1.2364 -1.7796
  852MOL0     H17527   2.773   4.141   5.948 -0.8080  1.7213  0.7362
  852MOL0     H17528   3.016   4.037   5.929  0.6823 -0.2280 -0.7586
  852MOL0     H17529   2.971   4.201   5.870 -1.7756  1.6522  0.8845
  852MOL0     H17530   3.078   4.291   6.085  0.0386 -1.3300  3.2461
  852MOL0     H17531   3.147   4.145   6.129 -0.2237  0.2183  0.2305
  852MOL0     H17532   3.228   4.298   5.889 -1.1526  0.4132 -0.1612
  852MOL0     H17533   3.327   4.252   6.029  0.9814 -2.3414 -0.3064
  852MOL0     H17534   3.351   3.868   5.859 -0.2029  0.2628  0.9798
  852MOL0     H17535   3.535   3.679   5.740 -0.7066  0.5849 -0.1675
  852MOL0     H17536   3.498   3.678   5.917 -0.7258 -0.7855 -0.3756
  852MOL0     H17537   3.660   3.667   5.862 -2.6190 -2.4117  2.9259
  852MOL0     H17538   4.023   3.958   5.579 -0.1017 -0.7057 -0.3994
  852MOL0     H17539   4.268   3.900   5.542  2.8573  0.7939  1.7079
  852MOL0     H17540   4.447   3.805   5.531 -1.8023  1.0318 -0.2629
  852MOL0     H17541   4.493   3.965   5.573 -1.0420 -0.5033 -0.0977
  852MOL0     H17542   4.719   3.885   5.657  1.6572 -0.4395 -2.1610
  852MOL0     H17543   4.661   3.717   5.652 -0.4852 -0.0086  2.4413
  852MOL0     H17544   4.709   3.928   5.419 -0.5252  1.3050  0.8416
  852MOL0     H17545   4.604   3.795   5.390 -0.6616 -1.9235  1.4366
  852MOL0     H17546   4.746   3.612   5.408 -0.5061 -0.2067 -2.3684
  852MOL0     H17547   4.867   3.715   5.502 -1.3690 -0.5261  1.4830
  852MOL0     H17548   4.782   3.763   5.211 -0.0247  0.3380  0.3274
  852MOL0     H17549   4.916   3.839   5.290 -0.7607  0.6770 -1.4467
  852MOL0     H17550   4.861   3.561   5.192 -0.9089  1.5372 -0.3872
  852MOL0     H17551   4.965   3.565   5.326  0.9107  0.2004  0.7071
  852MOL0     H17552   5.091   3.750   5.143  0.3506 -0.1345 -0.7023
  852MOL0     H17553   4.991   3.650   5.029  1.4893 -2.6169 -0.9360
  852MOL0     H17554   5.197   3.517   5.043  2.3987 -2.2107  1.8452
  852MOL0     H17555   5.086   3.445   5.142  0.0141  0.0836 -0.2730
  852MOL0     H17556   4.336   3.840   5.953  0.6667 -0.4751  0.7055
  852MOL0     H17557   4.085   3.900   6.006 -0.5520 -2.0313 -0.7924
  852MOL0     H17558   3.746   4.156   5.859  0.6270 -1.4810  1.3418
  852MOL0     H17559   3.515   4.254   5.911 -0.3168  0.1775 -1.7436
  852MOL0     H17560   1.847   4.215   6.357  0.7707 -0.4025 -1.2600
  852MOL0     H17561   1.616   4.228   6.414 -0.9008  0.2479 -1.8003
  852MOL0     H17562   1.287   3.910   6.608 -0.6320 -0.6451 -1.0751
  852MOL0     H17563   1.078   3.897   6.741 -0.1956  0.4463 -0.5335
  852MOL0     H17564   0.797   3.814   6.702  0.0496 -0.0638 -0.3589
  852MOL0     H17565   0.898   3.919   6.818  0.1503  0.2712 -0.1517
  852MOL0     H17566   0.728   4.066   6.855 -0.3612  0.3171 -0.0567
  852MOL0     H17567   0.695   3.911   6.923  2.9339 -0.7019 -0.1342
  852MOL0     H17568   0.499   4.026   6.829  0.9028  2.1624 -0.0103
  852MOL0     H17569   0.571   4.061   6.672  1.6561  0.4283 -1.0655
  852MOL0     H17570   0.530   3.768   6.746 -1.2081  0.8220  1.5724
  852MOL0     H17571   0.589   3.839   6.600 -0.8121  1.4967 -1.2767
  852MOL0     H17572   0.162   3.884   6.560  0.3436 -0.3862 -2.1908
  852MOL0     H17573   0.902   4.185   6.463 -1.8823 -0.4830  2.8276
  852MOL0     H17574   1.202   4.293   6.330 -2.1911  2.9019 -0.7081
  852MOL0     H17575   1.116   4.188   6.222 -0.3480  1.7535 -1.1769
  852MOL0     H17576   1.029   4.311   6.316  0.6386  0.8341  3.7814
  853MOL0     O17577   3.307   0.353   9.123 -0.8445  0.0722 -0.1395
  853MOL0     C17578   3.249   0.375   9.229 -0.2162  0.0297 -0.2044
  853MOL0     O17579   3.310   0.385   9.346  0.2172 -0.3551  0.1227
  853MOL0     C17580   3.440   0.423   9.351  0.0055 -0.3508  0.0578
  853MOL0     C17581   3.515   0.381   9.461  0.3572  0.4307 -0.1194
  853MOL0     C17582   3.647   0.423   9.477  0.8307  0.3544  0.1996
  853MOL0     C17583   3.716   0.508   9.385 -0.1581 -0.1768  0.1529
  853MOL0     O17584   3.846   0.549   9.390 -0.1216 -0.1876  0.1765
  853MOL0     C17585   3.925   0.520   9.510  0.5118  0.4869  0.1019
  853MOL0     C17586   4.047   0.595   9.531 -0.7278  0.2307 -0.4137
  853MOL0     C17587   4.156   0.568   9.430  0.4034 -0.5181 -0.1814
  853MOL0     C17588   4.258   0.679   9.443 -0.2618  0.5632  0.8803
  853MOL0     C17589   4.360   0.678   9.322  0.6335  0.1148 -0.2586
  853MOL0     C17590   4.451   0.554   9.305  1.0111  0.4121  0.6813
  853MOL0     C17591   4.566   0.566   9.209  0.3381 -0.3903  0.2407
  853MOL0     C17592   4.640   0.713   9.211 -0.3175 -1.0658  1.3435
  853MOL0     N17593   4.770   0.705   9.152  0.7005 -0.2280 -0.2355
  853MOL0     C17594   4.811   0.665   9.029 -0.2587  0.3264 -0.5712
  853MOL0     C17595   4.936   0.703   9.010 -0.2896 -0.7485 -0.0617
  853MOL0     C17596   5.010   0.675   8.881  0.3898 -0.5816  0.4334
  853MOL0     C17597   5.067   0.543   8.895 -0.3269  0.5560  0.3205
  853MOL0     C17598   5.165   0.503   8.782  0.3918  0.2766  0.1894
  853MOL0     C17599   5.300   0.573   8.791 -0.2905 -0.6356 -0.3414
  853MOL0     O17600   5.393   0.524   8.691  0.1784 -0.0653  0.1336
  853MOL0     C17601   5.523   0.551   8.701 -0.3363  0.1660  0.1009
  853MOL0     C17602   5.619   0.490   8.627  0.2552  0.7537  0.3040
  853MOL0     C17603   5.759   0.525   8.634  0.6258 -0.1147  0.0480
  853MOL0     C17604   5.858   0.457   8.538  0.4087 -0.0231  0.1696
  853MOL0     C17605   5.806   0.628   8.715 -0.4617 -0.0799  0.3240
  853MOL0     C17606   5.945   0.666   8.719 -0.0287 -0.1879  0.0388
  853MOL0     O17607   5.961   0.802   8.753  0.0151  0.1997  0.4198
  853MOL0     C17608   6.089   0.849   8.774  0.1172 -0.3511 -0.3031
  853MOL0     C17609   6.205   0.786   8.826  1.0385 -0.5330  0.3215
  853MOL0     C17610   6.321   0.856   8.837 -0.7526  0.8567 -0.1582
  853MOL0     C17611   6.337   0.988   8.800  0.0534  0.5850 -0.9851
  853MOL0     O17612   6.460   1.057   8.798  0.4068 -0.2304  0.2498
  853MOL0     C17613   6.573   1.004   8.859  1.2218  0.3960 -0.4807
  853MOL0     C17614   6.691   1.091   8.851  0.4194 -0.1893 -0.3151
  853MOL0     C17615   6.721   1.147   8.714 -0.5556  0.0244  0.3105
  853MOL0     C17616   6.795   1.040   8.640 -0.2093  0.1944  0.0572
  853MOL0     C17617   6.845   1.094   8.500  0.5775 -0.8607 -0.1212
  853MOL0     C17618   6.891   0.973   8.412  0.2632 -0.7438  0.0315
  853MOL0     C17619   6.960   1.010   8.286  0.0409  0.0480 -0.1084
  853MOL0     C17620   7.009   0.886   8.218  0.3858 -0.5142 -0.0740
  853MOL0    Cl17621   7.069   0.933   8.053  0.3539 -0.5245  0.0174
  853MOL0     C17622   6.223   1.054   8.755  0.6546  0.4724 -0.3602
  853MOL0     C17623   6.096   0.985   8.740 -0.2442  0.2347  0.3902
  853MOL0     O17624   6.040   0.580   8.712  0.5383  0.1958 -0.4106
  853MOL0     C17625   5.705   0.695   8.795  0.1104  0.5664 -0.9603
  853MOL0     C17626   5.573   0.655   8.787  0.7146  0.9478  0.9434
  853MOL0     N17627   4.976   0.763   9.126 -0.0263 -0.5977  0.3986
  853MOL0     N17628   4.871   0.764   9.214 -0.3046  0.5301  0.3889
  853MOL0     C17629   3.638   0.559   9.280 -0.1851  0.1580 -0.4987
  853MOL0     C17630   3.505   0.514   9.266 -0.2563 -0.4385 -0.0742
  853MOL0     C17631   3.100   0.373   9.241  0.5488  1.2791 -0.2130
  853MOL0     C17632   3.044   0.356   9.375  0.4379  0.3201  0.6239
  853MOL0     C17633   2.902   0.364   9.394  0.2369  0.5608  0.0213
  853MOL0     C17634   2.822   0.377   9.278  0.7538 -0.5326 -0.2073
  853MOL0     O17635   2.686   0.394   9.295 -0.1528 -0.5737  0.1428
  853MOL0     C17636   2.611   0.269   9.300  0.0516 -0.5824 -0.3795
  853MOL0     C17637   2.476   0.291   9.364 -0.8824  0.2328  0.5486
  853MOL0     C17638   2.398   0.392   9.286 -0.9920  0.0633 -0.5012
  853MOL0     C17639   2.274   0.446   9.363  0.3133 -0.0177  0.6495
  853MOL0     C17640   2.155   0.358   9.349  0.4648 -1.4331 -0.4771
  853MOL0     C17641   2.065   0.280   9.334  0.9089 -0.0846 -0.7673
  853MOL0     C17642   2.878   0.392   9.146 -0.5091  0.7993 -1.3204
  853MOL0     C17643   3.013   0.391   9.127 -0.6899  0.5722  0.1363
  853MOL0     C17644   3.067   0.411   8.985 -0.1324 -0.6627 -0.1284
  853MOL0     H17645   3.462   0.318   9.531 -2.1479  0.8886 -1.4874
  853MOL0     H17646   3.703   0.380   9.560 -1.9089 -3.0413  0.4802
  853MOL0     H17647   3.936   0.412   9.525  5.4869  0.1205 -3.9111
  853MOL0     H17648   3.852   0.550   9.586  0.4593 -1.5708  0.9406
  853MOL0     H17649   4.017   0.700   9.541  0.4950  0.5225  0.4086
  853MOL0     H17650   4.083   0.560   9.629  0.3179 -0.9874 -1.2063
  853MOL0     H17651   4.208   0.475   9.455 -0.0172 -0.2971  1.6469
  853MOL0     H17652   4.101   0.568   9.335 -2.0145 -0.9353  1.1305
  853MOL0     H17653   4.203   0.773   9.446 -1.9757 -0.4102  0.9042
  853MOL0     H17654   4.318   0.678   9.535  0.8213 -0.4245  0.1929
  853MOL0     H17655   4.426   0.764   9.332 -1.5242  2.4983 -4.1738
  853MOL0     H17656   4.307   0.702   9.229 -0.7160  2.5647  1.0641
  853MOL0     H17657   4.479   0.526   9.407  1.6998  1.2700  0.7362
  853MOL0     H17658   4.394   0.467   9.271  2.8991 -1.1883  1.3880
  853MOL0     H17659   4.525   0.565   9.108  3.6941 -1.1821 -1.2346
  853MOL0     H17660   4.638   0.484   9.222  0.3342 -0.6686 -1.3320
  853MOL0     H17661   4.588   0.793   9.158 -2.3922 -2.3806  1.2454
  853MOL0     H17662   4.650   0.754   9.312 -2.9661  1.5267  0.7029
  853MOL0     H17663   4.744   0.624   8.954 -1.1368  2.4249 -1.0278
  853MOL0     H17664   5.082   0.755   8.868  0.7305 -0.6073  1.9763
  853MOL0     H17665   4.940   0.689   8.798 -0.3754  4.7738  1.6503
  853MOL0     H17666   5.117   0.528   8.991  0.9638 -0.9263 -0.5330
  853MOL0     H17667   4.993   0.462   8.895 -1.6640  1.7537 -0.1548
  853MOL0     H17668   5.176   0.395   8.794 -3.0024 -0.2422 -0.3241
  853MOL0     H17669   5.123   0.509   8.681  1.2958 -2.4666 -0.4255
  853MOL0     H17670   5.297   0.682   8.779  4.2413  0.0186  2.1513
  853MOL0     H17671   5.336   0.549   8.892  2.2041  0.1477 -0.9775
  853MOL0     H17672   5.584   0.414   8.559 -0.4142 -0.2546  1.7311
  853MOL0     H17673   5.924   0.390   8.594 -0.6396 -2.7506 -1.6137
  853MOL0     H17674   5.921   0.528   8.484  0.2232 -0.8016 -1.1173
  853MOL0     H17675   5.807   0.405   8.456 -0.3862 -1.9242  1.7712
  853MOL0     H17676   6.194   0.683   8.859 -2.0633 -0.9149 -1.4560
  853MOL0     H17677   6.405   0.800   8.877 -0.7878  0.3218 -0.8282
  853MOL0     H17678   6.559   0.990   8.967 -2.9513  1.4904 -0.7015
  853MOL0     H17679   6.600   0.909   8.812  1.8627  0.3284  0.0074
  853MOL0     H17680   6.676   1.172   8.923  2.1124  0.2385 -0.4018
  853MOL0     H17681   6.780   1.049   8.899  0.8431  1.6937  0.6685
  853MOL0     H17682   6.757   1.247   8.742  0.2921 -0.4877  1.1160
  853MOL0     H17683   6.637   1.163   8.647 -0.3795 -2.6628 -0.6685
  853MOL0     H17684   6.724   0.959   8.621  0.9728 -0.8178 -0.2469
  853MOL0     H17685   6.879   0.991   8.691 -0.4954  0.3872  0.7137
  853MOL0     H17686   6.758   1.136   8.447 -2.5579 -3.6478  2.3366
  853MOL0     H17687   6.926   1.167   8.506  0.4992 -0.8814  1.3807
  853MOL0     H17688   6.807   0.910   8.382 -0.0059  0.2422 -1.3092
  853MOL0     H17689   6.966   0.911   8.462  2.3904 -1.2079 -3.4165
  853MOL0     H17690   7.039   1.081   8.312 -0.0063  0.5114 -1.1577
  853MOL0     H17691   6.881   1.060   8.228 -1.4845 -2.1325 -0.0239
  853MOL0     H17692   6.929   0.813   8.211  0.4369 -0.9675  2.8450
  853MOL0     H17693   7.085   0.842   8.284  0.9086  0.8548  0.2772
  853MOL0     H17694   6.218   1.160   8.734 -1.1971  0.3019 -0.9901
  853MOL0     H17695   6.000   1.026   8.711 -0.3402  1.1235  1.8499
  853MOL0     H17696   5.720   0.780   8.861 -2.7799  1.5057 -1.3751
  853MOL0     H17697   5.502   0.700   8.856 -2.3356 -2.9709  0.7621
  853MOL0     H17698   3.673   0.639   9.215  1.3473 -2.5475 -3.2620
  853MOL0     H17699   3.445   0.567   9.193  0.4745 -1.1681 -1.2299
  853MOL0     H17700   3.105   0.338   9.462 -1.5857 -0.9818  1.8763
  853MOL0     H17701   2.857   0.343   9.490 -1.3829 -2.6607 -1.3195
  853MOL0     H17702   2.592   0.221   9.204 -0.5575 -0.2089 -0.4479
  853MOL0     H17703   2.667   0.189   9.349 -1.4046 -2.4842 -1.6715
  853MOL0     H17704   2.504   0.326   9.464  2.6824 -2.2644  0.6074
  853MOL0     H17705   2.428   0.194   9.371  0.1492 -0.4141 -0.8234
  853MOL0     H17706   2.449   0.487   9.268 -3.5155  1.0672 -2.9232
  853MOL0     H17707   2.377   0.340   9.191 -1.2107  1.6517 -1.3505
  853MOL0     H17708   2.253   0.543   9.317 -0.9814 -1.4961 -2.1924
  853MOL0     H17709   2.304   0.472   9.465  1.0181  0.4823  0.3219
  853MOL0     H17710   1.992   0.203   9.322  1.3991 -0.8059  0.6378
  853MOL0     H17711   2.811   0.400   9.061 -0.8686  0.9024 -1.0287
  853MOL0     H17712   2.984   0.409   8.914 -0.2802 -1.0969  0.0570
  853MOL0     H17713   3.123   0.505   8.985 -0.7379 -0.0985  4.4327
  853MOL0     H17714   3.138   0.330   8.965  2.6599  1.6158 -0.1563
  854MOL0     O17715   0.227   1.082   0.324 -0.3506  0.7466 -0.5627
  854MOL0     C17716   0.182   1.192   0.341 -0.0609  0.8618  0.2483
  854MOL0     O17717   0.247   1.308   0.392 -0.2959 -0.2155 -0.3913
  854MOL0     C17718   0.372   1.288   0.455 -0.0804 -0.2417 -0.9961
  854MOL0     C17719   0.486   1.370   0.416  0.0240  0.4306  0.3225
  854MOL0     C17720   0.609   1.344   0.471  0.1195  0.0940  0.1315
  854MOL0     C17721   0.626   1.252   0.576  0.3642  0.1460 -0.3728
  854MOL0     O17722   0.746   1.251   0.636  0.1374 -0.1801 -0.2599
  854MOL0     C17723   0.761   1.217   0.775 -0.5380  0.1341  1.1907
  854MOL0     C17724   0.910   1.210   0.822  0.8996  0.2683 -0.5602
  854MOL0     C17725   0.990   1.306   0.730 -0.2111 -0.9412  0.0128
  854MOL0     C17726   1.133   1.308   0.784 -0.8155 -0.2954  0.7102
  854MOL0     C17727   1.220   1.408   0.706  0.6006 -0.3464 -0.2234
  854MOL0     C17728   1.370   1.374   0.725 -0.0767 -0.5067 -0.2711
  854MOL0     C17729   1.469   1.452   0.638  0.1455  0.6824  0.2806
  854MOL0     C17730   1.614   1.438   0.661  0.0462 -0.1988  0.3837
  854MOL0     N17731   1.700   1.465   0.538  0.5628  0.6818 -0.8635
  854MOL0     C17732   1.711   1.587   0.475  0.5810 -0.7184  0.1407
  854MOL0     C17733   1.822   1.592   0.394  0.0929  0.4381 -1.3975
  854MOL0     C17734   1.870   1.709   0.318  0.5003  0.3976 -0.4318
  854MOL0     C17735   2.018   1.748   0.344  0.0391 -0.6228  0.3153
  854MOL0     C17736   2.017   1.861   0.451 -0.4205  0.4110  0.2268
  854MOL0     C17737   2.148   1.920   0.496 -0.5201 -0.0459 -0.5395
  854MOL0     O17738   2.203   1.992   0.386 -0.0931  0.3151  0.4699
  854MOL0     C17739   2.333   1.964   0.348  0.3222 -0.1915  0.2111
  854MOL0     C17740   2.427   1.883   0.412  0.9364 -0.4651 -0.2985
  854MOL0     C17741   2.554   1.870   0.362  0.0436  0.2444  1.1979
  854MOL0     C17742   2.647   1.802   0.456 -0.3078  0.5869 -0.2284
  854MOL0     C17743   2.591   1.931   0.234  0.4195  0.8255  0.7919
  854MOL0     C17744   2.723   1.916   0.161  0.6208 -1.5282  0.3566
  854MOL0     O17745   2.737   1.995   0.055  0.6615 -0.0955 -0.0404
  854MOL0     C17746   2.862   1.981  -0.000  0.4423 -0.4254  0.1802
  854MOL0     C17747   2.877   1.899  -0.116  0.0137  0.2129  0.7794
  854MOL0     C17748   2.997   1.893  -0.187 -0.7573 -0.0297  0.3765
  854MOL0     C17749   3.112   1.958  -0.136  0.0094 -0.5278 -0.2986
  854MOL0     O17750   3.235   1.930  -0.180 -0.5920 -0.1051  0.6645
  854MOL0     C17751   3.249   1.951  -0.321  0.0587  0.4145  0.2604
  854MOL0     C17752   3.271   1.815  -0.383 -0.4203  0.1108  0.3447
  854MOL0     C17753   3.232   1.821  -0.532 -0.8992 -0.3301  0.5171
  854MOL0     C17754   3.323   1.913  -0.618  0.5997 -0.0646 -0.0843
  854MOL0     C17755   3.466   1.859  -0.629 -0.1530  0.5231  0.5976
  854MOL0     C17756   3.557   1.951  -0.714  0.5429  0.0067 -0.1713
  854MOL0     C17757   3.694   1.894  -0.758  0.0541 -0.1834  0.6265
  854MOL0     C17758   3.769   2.015  -0.836  0.3981  0.8590 -0.3677
  854MOL0    Cl17759   3.921   1.956  -0.904  0.4553 -0.1369 -0.6435
  854MOL0     C17760   3.096   2.043  -0.022 -0.5236 -0.2223 -0.3244
  854MOL0     C17761   2.971   2.061   0.036  0.6248  0.3224  0.7093
  854MOL0     O17762   2.807   1.842   0.208 -0.4754  0.0546  0.4302
  854MOL0     C17763   2.492   2.011   0.169 -0.9494  1.0646 -0.0077
  854MOL0     C17764   2.368   2.030   0.224 -0.0501  0.3097 -0.4640
  854MOL0     N17765   1.889   1.469   0.417  0.2081 -0.1510 -0.0533
  854MOL0     N17766   1.811   1.398   0.499 -0.5238  0.3096  1.1156
  854MOL0     C17767   0.512   1.183   0.623 -0.0835 -0.0110 -0.0545
  854MOL0     C17768   0.390   1.194   0.550  0.0833 -0.1228  0.4768
  854MOL0     C17769   0.040   1.207   0.302 -0.6175  0.1203  0.1613
  854MOL0     C17770  -0.002   1.344   0.275 -0.1574 -0.0132  0.6400
  854MOL0     C17771  -0.134   1.364   0.235 -1.2845 -0.0352  0.3158
  854MOL0     C17772  -0.223   1.265   0.226 -0.1336  0.0596 -0.8461
  854MOL0     O17773  -0.344   1.298   0.194 -0.1033 -0.1664 -0.3043
  854MOL0     C17774  -0.452   1.201   0.202 -0.3034  0.6374 -0.0172
  854MOL0     C17775  -0.589   1.272   0.188  0.4736  0.0136  0.9583
  854MOL0     C17776  -0.705   1.187   0.246  0.4773 -0.2682  0.6305
  854MOL0     C17777  -0.765   1.097   0.131  0.2933 -1.0601 -0.2714
  854MOL0     C17778  -0.838   1.183   0.031  0.8996  0.7359 -0.6097
  854MOL0     C17779  -0.899   1.270  -0.026 -0.2813  1.0845  0.3610
  854MOL0     C17780  -0.190   1.141   0.277 -0.4124  0.4310  0.7285
  854MOL0     C17781  -0.057   1.102   0.299  0.2102 -0.5783 -0.3629
  854MOL0     C17782  -0.028   0.955   0.329 -0.0662 -0.5675  0.2252
  854MOL0     H17783   0.477   1.451   0.343 -0.7874 -0.8479 -1.0581
  854MOL0     H17784   0.699   1.395   0.440  0.2759 -0.9617 -1.2403
  854MOL0     H17785   0.720   1.118   0.801  1.5376 -0.4496  2.5174
  854MOL0     H17786   0.706   1.286   0.840  1.7017 -0.4133  3.8692
  854MOL0     H17787   0.921   1.242   0.926 -0.2705 -0.1559 -0.2916
  854MOL0     H17788   0.956   1.111   0.817 -0.0797 -0.2983  0.9660
  854MOL0     H17789   1.003   1.269   0.628  2.4408 -1.2190  0.3665
  854MOL0     H17790   0.938   1.402   0.731 -0.4098 -1.0042  2.8800
  854MOL0     H17791   1.129   1.338   0.889 -1.6194 -1.3946  1.0210
  854MOL0     H17792   1.183   1.211   0.781  0.9021  0.5633  0.4320
  854MOL0     H17793   1.203   1.510   0.742  0.8548 -0.7477  1.0933
  854MOL0     H17794   1.196   1.404   0.599 -3.3519  1.2124  0.4342
  854MOL0     H17795   1.400   1.394   0.829 -0.0924  1.9479 -0.6851
  854MOL0     H17796   1.377   1.265   0.715 -1.9192 -0.6033 -0.9781
  854MOL0     H17797   1.447   1.559   0.650  3.4151  1.2880  2.0637
  854MOL0     H17798   1.447   1.418   0.536 -0.2812  1.9823 -0.0840
  854MOL0     H17799   1.646   1.499   0.746  1.1043  1.1659 -0.9347
  854MOL0     H17800   1.628   1.335   0.697 -0.0259 -0.4715 -0.3402
  854MOL0     H17801   1.636   1.665   0.488 -0.3085 -1.8818  2.7792
  854MOL0     H17802   1.812   1.802   0.318 -1.2299 -0.5773  1.6052
  854MOL0     H17803   1.868   1.673   0.214 -1.3619 -0.6403 -0.0907
  854MOL0     H17804   2.077   1.662   0.375  1.1241 -0.4316 -1.0991
  854MOL0     H17805   2.058   1.796   0.254 -1.3812 -1.1547 -0.6379
  854MOL0     H17806   1.968   1.947   0.406  0.5928 -0.0486 -1.8970
  854MOL0     H17807   1.956   1.826   0.535 -0.0245  2.3575  1.3652
  854MOL0     H17808   2.135   1.988   0.580  1.3364 -2.0337  1.4852
  854MOL0     H17809   2.213   1.838   0.526  0.1980  0.5908 -0.3168
  854MOL0     H17810   2.397   1.839   0.507 -1.8048 -1.8279 -1.6615
  854MOL0     H17811   2.746   1.849   0.456  1.0669 -2.1163 -0.5140
  854MOL0     H17812   2.650   1.696   0.428  1.6648 -0.6810  4.0637
  854MOL0     H17813   2.600   1.811   0.554 -1.9548  1.0832 -1.0375
  854MOL0     H17814   2.794   1.839  -0.150  0.6621 -0.9849  1.2439
  854MOL0     H17815   3.013   1.826  -0.270 -0.3676 -0.5465  0.8580
  854MOL0     H17816   3.170   2.011  -0.369 -1.0902 -0.4726  0.9738
  854MOL0     H17817   3.343   2.006  -0.330  1.6069 -1.7098  2.2730
  854MOL0     H17818   3.377   1.791  -0.378 -0.5308 -1.6702 -3.1118
  854MOL0     H17819   3.202   1.742  -0.339 -0.5888  0.3808  0.5341
  854MOL0     H17820   3.129   1.859  -0.535 -0.0669  2.2635  2.1233
  854MOL0     H17821   3.244   1.725  -0.583 -3.8337 -0.7939  0.4817
  854MOL0     H17822   3.324   2.015  -0.579  2.2391  0.5332 -1.5668
  854MOL0     H17823   3.276   1.922  -0.717 -1.8907 -0.9607  0.9257
  854MOL0     H17824   3.509   1.848  -0.529 -2.4397  0.8167  1.6556
  854MOL0     H17825   3.462   1.758  -0.671 -0.7161  0.8294 -0.1127
  854MOL0     H17826   3.569   2.042  -0.654  2.9046  0.9931 -1.9630
  854MOL0     H17827   3.495   1.970  -0.802  2.8223  1.1388 -1.6173
  854MOL0     H17828   3.676   1.814  -0.830  1.0595  0.6721 -0.6158
  854MOL0     H17829   3.752   1.849  -0.676 -0.2635 -0.7097  0.5708
  854MOL0     H17830   3.792   2.093  -0.763  1.0960 -0.4173  0.8225
  854MOL0     H17831   3.705   2.056  -0.914  0.9624  0.3886 -1.0905
  854MOL0     H17832   3.178   2.095   0.027  0.0928 -0.9661 -0.5223
  854MOL0     H17833   2.956   2.114   0.130  1.2371 -0.1990  1.1018
  854MOL0     H17834   2.515   2.064   0.078  0.5380  1.3591  0.5096
  854MOL0     H17835   2.304   2.104   0.177 -0.8577 -0.8450 -1.2387
  854MOL0     H17836   0.515   1.122   0.713 -0.5811  2.8596  2.0445
  854MOL0     H17837   0.311   1.126   0.579 -2.6996  2.7119  0.0560
  854MOL0     H17838   0.057   1.435   0.274 -0.0508  0.1022  4.1121
  854MOL0     H17839  -0.168   1.466   0.222  0.3662  0.7835  1.9152
  854MOL0     H17840  -0.439   1.113   0.137  0.3389  2.5819 -2.6842
  854MOL0     H17841  -0.444   1.158   0.302  1.0431  2.7258  0.8382
  854MOL0     H17842  -0.589   1.307   0.085  5.1611  1.4268  1.2090
  854MOL0     H17843  -0.591   1.363   0.249 -1.9793  0.8428 -0.2213
  854MOL0     H17844  -0.684   1.128   0.335 -0.9537 -0.2964  0.9679
  854MOL0     H17845  -0.779   1.264   0.269  2.3307  1.9081 -0.2149
  854MOL0     H17846  -0.837   1.038   0.188  0.4218 -0.0978  0.9265
  854MOL0     H17847  -0.698   1.019   0.092  2.7423 -0.3846  2.2504
  854MOL0     H17848  -0.942   1.349  -0.084 -0.8599 -0.2376 -1.0954
  854MOL0     H17849  -0.266   1.066   0.298  0.1064  0.6050  3.5996
  854MOL0     H17850  -0.122   0.899   0.329  0.0431 -0.8364 -1.8306
  854MOL0     H17851   0.035   0.904   0.255 -2.7877 -1.7688 -1.4244
  854MOL0     H17852   0.021   0.949   0.427  0.8610  1.7673 -0.0311
  855MOL0     O17853   1.617  10.136   5.384  0.2368 -0.4009 -0.5604
  855MOL0     C17854   1.649  10.022   5.416  0.2120 -0.5314  0.4074
  855MOL0     O17855   1.777   9.975   5.413  0.0778 -0.0637  0.7223
  855MOL0     C17856   1.882  10.047   5.382 -0.2777  0.2280  0.5093
  855MOL0     C17857   1.989   9.967   5.348 -0.3971  0.0683  0.0064
  855MOL0     C17858   2.106  10.017   5.298 -0.0080 -0.3769 -0.0920
  855MOL0     C17859   2.126  10.157   5.302 -0.2724  0.6560 -0.3144
  855MOL0     O17860   2.244  10.195   5.245  0.3301 -0.2666  0.0389
  855MOL0     C17861   2.255  10.332   5.198 -0.1232 -0.2388  0.1885
  855MOL0     C17862   2.319  10.413   5.301 -0.0528 -0.6985  0.2490
  855MOL0     C17863   2.471  10.401   5.287 -0.1829 -0.2853 -0.0327
  855MOL0     C17864   2.542  10.461   5.404  0.2398  0.4382 -0.3709
  855MOL0     C17865   2.693  10.504   5.373 -0.4461 -0.1938  0.1419
  855MOL0     C17866   2.690  10.639   5.286  1.0318  0.5920 -0.2356
  855MOL0     C17867   2.832  10.663   5.235 -0.1445 -0.3341 -0.6891
  855MOL0     C17868   2.827  10.776   5.132  0.1648 -0.9984 -0.0094
  855MOL0     N17869   2.771  10.900   5.194  1.0354 -0.5807 -0.5520
  855MOL0     C17870   2.835  10.970   5.286  0.2525 -0.1015 -0.4908
  855MOL0     C17871   2.753  11.078   5.312 -0.2407  0.3575 -0.5007
  855MOL0     C17872   2.775  11.194   5.407  0.3208 -0.5553 -0.1948
  855MOL0     C17873   2.810  11.327   5.336  0.2309  0.5887  0.1932
  855MOL0     C17874   2.791  11.437   5.432  0.4450  0.5974 -0.3227
  855MOL0     C17875   2.866  11.558   5.376  0.6053 -0.6486 -0.4119
  855MOL0     O17876   2.995  11.534   5.316  0.3829 -0.0119  0.3601
  855MOL0     C17877   3.108  11.535   5.393 -1.1419  0.5450 -0.2760
  855MOL0     C17878   3.114  11.494   5.527 -0.3873  0.1048  0.1609
  855MOL0     C17879   3.238  11.476   5.595  0.4063  0.0507  1.1583
  855MOL0     C17880   3.224  11.418   5.738 -0.4810 -0.5024 -0.2160
  855MOL0     C17881   3.358  11.495   5.524 -0.2947  0.5911  0.2491
  855MOL0     C17882   3.491  11.474   5.587  0.6314  1.0697  0.5845
  855MOL0     O17883   3.596  11.422   5.501  0.1379 -0.3921  0.1253
  855MOL0     C17884   3.723  11.392   5.547 -0.3212 -0.7253 -0.6944
  855MOL0     C17885   3.742  11.336   5.674  0.4838 -0.6793 -0.2668
  855MOL0     C17886   3.857  11.303   5.724 -0.8096 -0.1470 -0.2161
  855MOL0     C17887   3.971  11.341   5.657  0.5136  0.0316  0.4267
  855MOL0     O17888   4.085  11.330   5.739 -0.2217  0.1721  0.8633
  855MOL0     C17889   4.193  11.412   5.715 -0.4187 -0.7214 -1.4009
  855MOL0     C17890   4.292  11.399   5.830  0.6729 -0.4772 -0.1825
  855MOL0     C17891   4.343  11.252   5.858 -0.1077 -0.6542  0.2660
  855MOL0     C17892   4.468  11.249   5.955 -0.6017 -0.0622  0.3287
  855MOL0     C17893   4.596  11.311   5.905 -0.7955 -0.3578  0.0266
  855MOL0     C17894   4.710  11.305   6.014  0.2891  0.1941  0.4276
  855MOL0     C17895   4.825  11.374   5.944 -0.0838 -0.1050 -0.5224
  855MOL0     C17896   4.880  11.461   6.060  0.0172  0.7709  0.6814
  855MOL0    Cl17897   4.943  11.359   6.186  0.2338 -0.5826 -0.0597
  855MOL0     C17898   3.968  11.378   5.522 -0.2520  0.2026  0.5947
  855MOL0     C17899   3.842  11.404   5.472  1.3151 -0.6207  0.3482
  855MOL0     O17900   3.504  11.517   5.699 -0.2396 -0.2113 -0.4985
  855MOL0     C17901   3.350  11.527   5.386  0.6317  0.4526 -0.2368
  855MOL0     C17902   3.225  11.541   5.322  0.1338  0.4608  0.0619
  855MOL0     N17903   2.642  11.071   5.240  0.7536  0.0569 -0.1849
  855MOL0     N17904   2.648  10.965   5.164  0.5728 -0.0634  0.6130
  855MOL0     C17905   2.025  10.239   5.351 -0.0345  0.6180  0.9295
  855MOL0     C17906   1.905  10.186   5.389  0.3100  0.1093  0.1739
  855MOL0     C17907   1.534   9.929   5.439  0.4332  0.0601  0.3413
  855MOL0     C17908   1.403   9.986   5.423 -0.1570  0.4792 -0.3599
  855MOL0     C17909   1.286   9.902   5.430 -0.0524 -0.6614  0.7218
  855MOL0     C17910   1.293   9.762   5.454 -0.5565  0.0212 -0.1313
  855MOL0     O17911   1.187   9.683   5.459  0.1262 -0.4303  0.1153
  855MOL0     C17912   1.086   9.710   5.354  0.4579 -0.2795 -0.4067
  855MOL0     C17913   1.009   9.586   5.312 -0.0053 -0.1233  0.7275
  855MOL0     C17914   0.947   9.517   5.432 -0.1403  0.0090  0.6665
  855MOL0     C17915   0.841   9.605   5.511 -1.1352 -0.5661  0.3806
  855MOL0     C17916   0.723   9.648   5.428 -0.7702  0.6662  0.0870
  855MOL0     C17917   0.621   9.682   5.374 -0.8998  0.0059 -0.3189
  855MOL0     C17918   1.419   9.713   5.477  0.3330 -0.4234 -0.3666
  855MOL0     C17919   1.533   9.790   5.466  0.2365  0.2238 -0.2578
  855MOL0     C17920   1.659   9.713   5.467 -0.3176  0.1572 -0.1504
  855MOL0     H17921   1.979   9.859   5.340  0.3587  0.1319 -3.3562
  855MOL0     H17922   2.178   9.952   5.251  1.6567 -0.2817  2.1400
  855MOL0     H17923   2.161  10.374   5.160  0.7264 -1.0350 -3.1288
  855MOL0     H17924   2.313  10.332   5.105  0.5991  0.2245  0.6327
  855MOL0     H17925   2.299  10.518   5.280  1.1687 -0.1521  1.6761
  855MOL0     H17926   2.284  10.376   5.398 -1.9557  0.0723 -0.0981
  855MOL0     H17927   2.495  10.297   5.267 -2.4862 -0.6340 -1.4404
  855MOL0     H17928   2.502  10.455   5.197 -2.0076  0.2493 -0.3997
  855MOL0     H17929   2.494  10.557   5.427  2.6991  1.3703  1.3495
  855MOL0     H17930   2.548  10.387   5.485  1.2037 -0.2471 -1.0471
  855MOL0     H17931   2.748  10.422   5.327 -1.0398 -1.0787  0.9483
  855MOL0     H17932   2.751  10.520   5.465 -3.1307  1.0377  1.7448
  855MOL0     H17933   2.621  10.642   5.202  0.8287 -1.6462 -0.1968
  855MOL0     H17934   2.668  10.723   5.353 -0.9201 -0.1559  0.1268
  855MOL0     H17935   2.866  10.569   5.189 -1.3859 -1.3309  0.3417
  855MOL0     H17936   2.890  10.691   5.323 -3.3026  1.4259  0.9924
  855MOL0     H17937   2.923  10.808   5.091 -0.5199  0.5510 -0.4907
  855MOL0     H17938   2.761  10.751   5.048  1.6128 -0.6900 -1.2905
  855MOL0     H17939   2.935  10.964   5.327  0.9965 -0.4378 -2.2835
  855MOL0     H17940   2.857  11.161   5.471 -1.4213 -3.4290  0.7871
  855MOL0     H17941   2.684  11.207   5.466  0.5384 -0.6958  0.1763
  855MOL0     H17942   2.914  11.320   5.304  0.7101  1.3446  1.5091
  855MOL0     H17943   2.750  11.334   5.245 -0.6020 -0.0800  0.6652
  855MOL0     H17944   2.686  11.457   5.452 -0.2002 -1.7065 -1.1593
  855MOL0     H17945   2.827  11.407   5.531 -0.8170  1.4708  0.4231
  855MOL0     H17946   2.799  11.602   5.301 -0.5764 -1.8260 -0.0806
  855MOL0     H17947   2.870  11.630   5.458 -2.9415  0.7171 -1.2797
  855MOL0     H17948   3.022  11.468   5.578 -0.0866 -0.1986  0.5501
  855MOL0     H17949   3.278  11.480   5.810 -1.9756 -0.6274  1.0725
  855MOL0     H17950   3.265  11.317   5.746 -0.4635 -0.6303 -1.6654
  855MOL0     H17951   3.121  11.417   5.776  0.6210 -1.6953  3.0573
  855MOL0     H17952   3.661  11.305   5.739  2.6442 -2.8314  1.5798
  855MOL0     H17953   3.869  11.252   5.819 -2.2619  2.7673  1.6664
  855MOL0     H17954   4.236  11.398   5.615 -1.3668  2.3664 -2.3701
  855MOL0     H17955   4.166  11.518   5.719  0.6535 -0.4362  2.7707
  855MOL0     H17956   4.370  11.474   5.816  0.8186 -0.6468 -0.2870
  855MOL0     H17957   4.244  11.436   5.921  4.0301 -0.9275  1.9415
  855MOL0     H17958   4.385  11.209   5.767  1.8231  0.6288  0.4939
  855MOL0     H17959   4.271  11.181   5.899  2.0474 -0.8972  4.1566
  855MOL0     H17960   4.491  11.144   5.975  0.4323 -0.4536 -2.3902
  855MOL0     H17961   4.440  11.313   6.039  0.7490  1.1040 -0.0751
  855MOL0     H17962   4.638  11.260   5.818  0.2573  1.9014 -0.8532
  855MOL0     H17963   4.582  11.417   5.883  3.0115  0.7033  1.8663
  855MOL0     H17964   4.729  11.203   6.046  1.7254  0.7988  1.6255
  855MOL0     H17965   4.681  11.363   6.101  0.6634  1.7416 -0.4310
  855MOL0     H17966   4.806  11.444   5.862 -1.0262 -0.0679 -0.2790
  855MOL0     H17967   4.907  11.305   5.920  0.7269  0.4797  0.4601
  855MOL0     H17968   4.800  11.523   6.103 -2.0245 -3.5393  3.8266
  855MOL0     H17969   4.968  11.522   6.037  1.2874 -1.1861  0.1226
  855MOL0     H17970   4.051  11.371   5.451 -0.1062  0.0699  0.7777
  855MOL0     H17971   3.824  11.443   5.372 -0.6390 -2.5269 -0.1003
  855MOL0     H17972   3.442  11.550   5.334 -0.7420  0.2894 -2.9197
  855MOL0     H17973   3.223  11.571   5.217  1.6428  0.0842 -0.0981
  855MOL0     H17974   2.045  10.344   5.365  1.8251  0.4679 -0.2283
  855MOL0     H17975   1.822  10.251   5.418  1.9190  1.5171  1.8490
  855MOL0     H17976   1.400  10.094   5.419 -0.2107  0.5294  0.7420
  855MOL0     H17977   1.193   9.957   5.421  0.8471  0.8847  0.5118
  855MOL0     H17978   1.007   9.781   5.380  0.0339  0.1611 -2.7005
  855MOL0     H17979   1.133   9.742   5.261 -1.1907 -0.1822 -1.2386
  855MOL0     H17980   1.070   9.523   5.247 -0.1743 -1.6115  1.9526
  855MOL0     H17981   0.932   9.621   5.242 -0.5605 -0.4929  1.1477
  855MOL0     H17982   0.905   9.428   5.385  0.9389  1.2406 -2.9959
  855MOL0     H17983   1.020   9.478   5.503 -0.9296 -0.9311  0.9899
  855MOL0     H17984   0.881   9.702   5.541 -3.2931  1.2208 -2.1453
  855MOL0     H17985   0.798   9.548   5.594 -1.0526  0.3823  1.0996
  855MOL0     H17986   0.532   9.716   5.326 -0.5173  1.2826 -0.1645
  855MOL0     H17987   1.429   9.606   5.492 -0.9348 -0.3602  1.2248
  855MOL0     H17988   1.648   9.609   5.499  0.6073 -0.6875 -2.3561
  855MOL0     H17989   1.697   9.713   5.364 -1.1662 -0.6610 -0.4806
  855MOL0     H17990   1.735   9.763   5.528 -1.8709  2.9379 -0.3693
  856MOL0     O17991   6.653   4.368   2.470 -0.6744  0.9981 -0.2709
  856MOL0     C17992   6.547   4.313   2.494 -0.6335  0.1941  0.4386
  856MOL0     O17993   6.433   4.327   2.411  0.4044  0.1852 -0.5070
  856MOL0     C17994   6.435   4.444   2.342  0.3741 -0.2190 -0.3176
  856MOL0     C17995   6.357   4.549   2.389  0.3365  0.7219 -0.2882
  856MOL0     C17996   6.370   4.674   2.321  0.6121 -0.0099  0.3078
  856MOL0     C17997   6.461   4.685   2.210 -0.7410 -0.7078  0.2350
  856MOL0     O17998   6.474   4.800   2.134  0.1330 -0.0540 -0.1331
  856MOL0     C17999   6.466   4.917   2.215 -0.4560  0.5643 -0.0343
  856MOL0     C18000   6.566   5.022   2.162  0.0089  0.6226  0.2033
  856MOL0     C18001   6.704   4.988   2.215 -0.3749  0.2003  0.5170
  856MOL0     C18002   6.820   5.086   2.184 -0.5781 -0.6698  0.6491
  856MOL0     C18003   6.863   5.098   2.034 -0.7133 -0.1815  0.2578
  856MOL0     C18004   6.865   4.964   1.955  0.3062  0.3436 -0.2064
  856MOL0     C18005   6.859   4.979   1.807  1.3433  1.0470 -0.2736
  856MOL0     C18006   6.974   5.059   1.745  0.3155 -0.1669  0.0200
  856MOL0     N18007   6.960   5.074   1.600  0.2355 -0.7417  0.3186
  856MOL0     C18008   6.844   5.100   1.521  0.4200  0.6149  0.3499
  856MOL0     C18009   6.881   5.090   1.390  0.3727 -0.2132  0.0881
  856MOL0     C18010   6.786   5.127   1.276 -0.3411 -0.5322 -0.5155
  856MOL0     C18011   6.861   5.187   1.155  0.3212 -0.5206 -0.3357
  856MOL0     C18012   6.785   5.248   1.034  1.3679  0.3049 -1.0451
  856MOL0     C18013   6.668   5.155   0.984  0.4940 -0.4086 -0.8827
  856MOL0     O18014   6.635   5.173   0.842  0.3166  0.8120 -0.0228
  856MOL0     C18015   6.500   5.192   0.801 -0.7868 -0.4174 -0.7202
  856MOL0     C18016   6.393   5.226   0.877 -0.3462 -0.0725  0.4603
  856MOL0     C18017   6.262   5.234   0.817 -0.0878  0.0293 -0.0321
  856MOL0     C18018   6.150   5.276   0.918  0.1961 -0.7115 -1.0658
  856MOL0     C18019   6.238   5.200   0.680 -0.1141  0.7645 -0.2611
  856MOL0     C18020   6.116   5.223   0.605 -0.8612 -0.1103  0.1960
  856MOL0     O18021   6.119   5.191   0.473  0.2276 -0.0971 -0.1287
  856MOL0     C18022   6.009   5.225   0.386  0.6702  0.1123  0.3446
  856MOL0     C18023   6.035   5.175   0.258 -0.3569 -0.3448 -0.3397
  856MOL0     C18024   5.951   5.200   0.151  0.5980 -0.5992 -0.2712
  856MOL0     C18025   5.824   5.266   0.165  0.3438  0.4131  0.0208
  856MOL0     O18026   5.730   5.273   0.069  0.5257 -0.0406 -0.2860
  856MOL0     C18027   5.733   5.162  -0.029 -1.6625  0.6162  0.8358
  856MOL0     C18028   5.618   5.161  -0.122 -0.3390 -0.5481 -0.1421
  856MOL0     C18029   5.491   5.124  -0.070  0.6801  0.7180 -0.3924
  856MOL0     C18030   5.386   5.112  -0.179 -0.5504 -0.4516 -0.4860
  856MOL0     C18031   5.248   5.073  -0.125 -0.1120  0.6061 -1.2317
  856MOL0     C18032   5.147   5.061  -0.234  0.6749 -0.5033 -0.0322
  856MOL0     C18033   5.174   4.941  -0.329  0.2546  0.8628 -0.2672
  856MOL0     C18034   5.048   4.911  -0.420  0.2217  0.4206 -1.0312
  856MOL0    Cl18035   4.998   5.043  -0.521 -0.5164 -0.1671  0.5039
  856MOL0     C18036   5.798   5.324   0.294  0.0423  0.5838  0.3972
  856MOL0     C18037   5.890   5.299   0.405  1.3968 -0.0911  1.1713
  856MOL0     O18038   6.021   5.258   0.671 -0.3463  0.1749  0.0519
  856MOL0     C18039   6.350   5.175   0.607  0.4877  0.6718  0.3774
  856MOL0     C18040   6.477   5.170   0.666  0.2149 -0.0855  0.1934
  856MOL0     N18041   7.019   5.059   1.389  0.3476  0.6782  0.3554
  856MOL0     N18042   7.059   5.050   1.512 -0.1603 -0.1277 -0.0309
  856MOL0     C18043   6.545   4.581   2.173 -0.1272 -0.0565 -0.4031
  856MOL0     C18044   6.528   4.461   2.242  0.1004  0.0868  0.6744
  856MOL0     C18045   6.547   4.216   2.613 -0.0109 -1.1370 -0.1262
  856MOL0     C18046   6.670   4.151   2.635  0.5097 -0.3932  0.1166
  856MOL0     C18047   6.679   4.064   2.736 -0.1846  0.8159 -0.3059
  856MOL0     C18048   6.577   4.035   2.816  0.0026 -0.4266 -0.6504
  856MOL0     O18049   6.577   3.933   2.912  0.6493  0.5648  0.5077
  856MOL0     C18050   6.694   3.902   2.982  0.2169  0.0110  0.1218
  856MOL0     C18051   6.681   3.931   3.128 -0.0880  0.0623  0.4485
  856MOL0     C18052   6.667   4.084   3.157 -0.3577 -0.0863  1.5698
  856MOL0     C18053   6.651   4.127   3.300  0.4073  0.5883 -0.1903
  856MOL0     C18054   6.511   4.092   3.341 -0.2047  0.2934 -0.5648
  856MOL0     C18055   6.396   4.096   3.370  0.3153 -0.1002  0.4362
  856MOL0     C18056   6.450   4.093   2.800 -0.2755 -0.3031  0.2098
  856MOL0     C18057   6.435   4.190   2.694 -0.9315  0.1237 -1.3312
  856MOL0     C18058   6.307   4.276   2.696  0.2676 -0.1831  0.6166
  856MOL0     H18059   6.282   4.527   2.464 -0.8118  0.5787 -1.4349
  856MOL0     H18060   6.302   4.751   2.356 -0.9646 -1.2009 -0.0129
  856MOL0     H18061   6.491   4.900   2.321 -0.7500 -1.2749 -0.2274
  856MOL0     H18062   6.362   4.950   2.204 -1.2516 -1.8574 -0.3759
  856MOL0     H18063   6.567   5.018   2.053 -2.2110 -0.0780  0.1478
  856MOL0     H18064   6.529   5.114   2.208  0.2367  1.2171 -0.7751
  856MOL0     H18065   6.702   4.988   2.325  0.7286  0.8159  0.5569
  856MOL0     H18066   6.720   4.885   2.182  0.5728 -0.1892  2.0894
  856MOL0     H18067   6.776   5.183   2.207  1.0298  0.3516 -0.3905
  856MOL0     H18068   6.906   5.056   2.245 -0.6527 -0.6642  0.7567
  856MOL0     H18069   6.961   5.144   2.026 -0.8932  0.3182  0.8428
  856MOL0     H18070   6.799   5.168   1.979 -0.9920 -0.7944 -0.2095
  856MOL0     H18071   6.948   4.898   1.981 -2.0492 -2.4250  0.7680
  856MOL0     H18072   6.783   4.899   1.984 -0.7390  0.9343 -1.7123
  856MOL0     H18073   6.769   5.040   1.796 -0.0090 -0.8678 -0.2733
  856MOL0     H18074   6.843   4.886   1.752 -0.0302 -0.0759  1.8699
  856MOL0     H18075   6.981   5.157   1.793 -2.4356  0.5415 -0.8648
  856MOL0     H18076   7.072   5.013   1.762  0.6251 -0.1040 -1.4646
  856MOL0     H18077   6.748   5.125   1.564  0.2730 -0.1506  0.4789
  856MOL0     H18078   6.720   5.203   1.320 -1.0075 -1.1517 -0.4195
  856MOL0     H18079   6.720   5.041   1.258 -0.7055 -0.8374  1.9653
  856MOL0     H18080   6.929   5.267   1.188  0.2622 -0.4638 -0.3517
  856MOL0     H18081   6.927   5.111   1.113  3.0441  2.4885 -2.0168
  856MOL0     H18082   6.745   5.347   1.058 -1.3484 -0.5729 -1.6437
  856MOL0     H18083   6.854   5.267   0.950  1.1143 -0.1929 -1.3720
  856MOL0     H18084   6.685   5.049   1.002 -1.4572 -0.5873  0.1943
  856MOL0     H18085   6.587   5.188   1.051  0.7129  1.6210 -1.5438
  856MOL0     H18086   6.401   5.253   0.982 -1.6367 -1.0536  0.8427
  856MOL0     H18087   6.113   5.376   0.894  4.4130  1.6146  0.9326
  856MOL0     H18088   6.190   5.284   1.020  0.5906  0.7442 -1.3132
  856MOL0     H18089   6.081   5.192   0.915  0.6598 -1.0804 -1.3814
  856MOL0     H18090   6.122   5.110   0.255 -0.1759 -0.2435  1.4857
  856MOL0     H18091   5.986   5.147   0.062 -1.0247 -1.1701 -0.6070
  856MOL0     H18092   5.829   5.171  -0.082 -1.3584 -0.8627  1.0681
  856MOL0     H18093   5.733   5.069   0.029 -1.5078  1.5484  2.3625
  856MOL0     H18094   5.599   5.258  -0.168 -2.3307 -0.6433  0.3898
  856MOL0     H18095   5.636   5.085  -0.199 -1.6198 -1.3040  0.2634
  856MOL0     H18096   5.460   5.194   0.009  3.2703  0.3563  1.0614
  856MOL0     H18097   5.494   5.025  -0.023  1.1948  0.9979  0.1876
  856MOL0     H18098   5.416   5.034  -0.250 -1.8110 -1.0495 -0.3858
  856MOL0     H18099   5.382   5.206  -0.234  1.3122 -0.1974 -0.2454
  856MOL0     H18100   5.262   4.980  -0.070 -1.4836  0.2995 -1.3682
  856MOL0     H18101   5.203   5.150  -0.061  0.7166  2.0236 -2.3157
  856MOL0     H18102   5.154   5.152  -0.295 -0.6108 -1.3405 -1.5024
  856MOL0     H18103   5.045   5.060  -0.193  1.2952  0.0173  1.6325
  856MOL0     H18104   5.206   4.854  -0.271 -0.8433  1.0453  0.6301
  856MOL0     H18105   5.256   4.978  -0.392 -0.1658  1.7617 -0.2967
  856MOL0     H18106   4.961   4.879  -0.362 -0.7382 -1.2468 -3.2626
  856MOL0     H18107   5.066   4.825  -0.486 -2.9452 -0.0605 -1.4231
  856MOL0     H18108   5.702   5.373   0.307 -0.1463  1.3454 -2.8853
  856MOL0     H18109   5.866   5.341   0.502 -1.3840 -1.7768  1.3377
  856MOL0     H18110   6.342   5.173   0.499 -1.9825 -1.8873  0.4887
  856MOL0     H18111   6.560   5.153   0.598 -1.1183  0.8459 -1.7698
  856MOL0     H18112   6.622   4.582   2.097  2.0138  1.0746  1.6457
  856MOL0     H18113   6.597   4.382   2.217 -0.2492  0.1171 -0.4156
  856MOL0     H18114   6.759   4.170   2.576  0.5470  0.8349  0.5318
  856MOL0     H18115   6.776   4.018   2.755 -0.9940 -1.0574 -0.5225
  856MOL0     H18116   6.722   3.797   2.968 -1.9037 -0.9730  2.4320
  856MOL0     H18117   6.779   3.958   2.943  0.8700 -2.1649 -1.7883
  856MOL0     H18118   6.755   3.875   3.185 -0.7306 -1.4032 -0.1136
  856MOL0     H18119   6.583   3.897   3.163  1.2557 -1.2352  3.2089
  856MOL0     H18120   6.760   4.131   3.124 -0.2541 -2.5591 -2.2930
  856MOL0     H18121   6.593   4.121   3.085 -0.7987 -1.9069  1.0160
  856MOL0     H18122   6.673   4.232   3.320  3.5008  0.4261 -2.1371
  856MOL0     H18123   6.715   4.059   3.358  0.8524  0.9967 -0.1916
  856MOL0     H18124   6.292   4.098   3.394 -0.4936 -2.1710 -2.2805
  856MOL0     H18125   6.363   4.082   2.863 -1.6399  1.4691 -1.2562
  856MOL0     H18126   6.298   4.365   2.633  2.1418 -1.3904 -1.5144
  856MOL0     H18127   6.224   4.207   2.677  1.5917 -1.5926 -0.2800
  856MOL0     H18128   6.297   4.318   2.797 -1.3032  0.9098  0.0462
  857MOL0     O18129   9.857   5.680   8.331  0.0032 -0.1057 -0.2568
  857MOL0     C18130   9.802   5.746   8.420 -0.1687  0.1086 -0.8933
  857MOL0     O18131   9.854   5.842   8.495 -0.0507 -0.3578  0.2496
  857MOL0     C18132   9.981   5.877   8.455  0.2894  0.4611 -0.9508
  857MOL0     C18133  10.004   5.966   8.353 -0.1670  0.7320  0.1710
  857MOL0     C18134  10.138   5.993   8.312  0.1685 -0.0898 -0.8627
  857MOL0     C18135  10.244   5.937   8.386  0.6760  0.0375 -0.2111
  857MOL0     O18136  10.377   5.948   8.356  0.3133 -0.7987  0.3940
  857MOL0     C18137  10.423   6.041   8.257 -0.1480  0.1901  0.4205
  857MOL0     C18138  10.567   6.014   8.232 -0.6050 -0.0130 -0.0668
  857MOL0     C18139  10.648   6.109   8.142  0.7709 -0.2529  0.0319
  857MOL0     C18140  10.795   6.076   8.159 -0.7756  0.8374  0.1094
  857MOL0     C18141  10.876   6.113   8.032 -1.2516 -0.2586 -0.1856
  857MOL0     C18142  11.015   6.054   8.053 -0.3994  0.1526  0.2389
  857MOL0     C18143  11.079   6.075   8.196  0.4938 -0.2314  1.0519
  857MOL0     C18144  11.233   6.058   8.199 -0.0219  0.1288 -0.4667
  857MOL0     N18145  11.307   6.138   8.293  0.5238 -0.0387  0.2484
  857MOL0     C18146  11.299   6.128   8.429 -0.0904  0.4112  0.3297
  857MOL0     C18147  11.383   6.218   8.475  0.4484 -0.0257 -0.2943
  857MOL0     C18148  11.405   6.239   8.624  0.7568 -0.0077  0.4631
  857MOL0     C18149  11.549   6.235   8.675 -0.0244 -0.3262  0.3785
  857MOL0     C18150  11.620   6.368   8.670 -0.0961 -0.5452  0.5176
  857MOL0     C18151  11.770   6.337   8.690  0.1549 -0.1804  0.0159
  857MOL0     O18152  11.832   6.269   8.574  0.0754  0.0679  0.3369
  857MOL0     C18153  11.968   6.240   8.570 -0.4982 -0.3612 -0.1191
  857MOL0     C18154  12.056   6.237   8.678 -0.5295 -0.4330  0.3900
  857MOL0     C18155  12.190   6.194   8.663 -0.8233  0.1599  0.1875
  857MOL0     C18156  12.289   6.159   8.781  0.1073 -0.3630 -0.1265
  857MOL0     C18157  12.241   6.177   8.533  0.0262  0.0376  0.2543
  857MOL0     C18158  12.385   6.171   8.505  0.2457 -0.2572 -0.5835
  857MOL0     O18159  12.444   6.052   8.533 -0.2929  0.8451 -0.0759
  857MOL0     C18160  12.577   6.032   8.528 -0.6293 -0.1008 -0.6545
  857MOL0     C18161  12.670   6.118   8.593  0.7218  0.1946 -0.1531
  857MOL0     C18162  12.807   6.097   8.578 -0.1560 -0.0074 -1.0975
  857MOL0     C18163  12.855   5.975   8.521  0.5005  0.4508 -0.4586
  857MOL0     O18164  12.994   5.962   8.522 -0.3717  0.1635 -0.0026
  857MOL0     C18165  13.045   5.848   8.463 -1.1569 -0.5737  0.3755
  857MOL0     C18166  13.205   5.852   8.442  0.5922 -0.0440  0.2203
  857MOL0     C18167  13.250   5.948   8.324 -0.0030 -0.7873 -0.5407
  857MOL0     C18168  13.401   5.988   8.333  0.3503  0.6607  0.4002
  857MOL0     C18169  13.439   6.082   8.218  0.5653  0.4201  0.4168
  857MOL0     C18170  13.474   6.012   8.084 -0.3769 -0.1109  0.8075
  857MOL0     C18171  13.480   6.120   7.973 -0.6889  0.0393 -0.0643
  857MOL0     C18172  13.519   6.065   7.835  0.5114  0.1180 -0.3186
  857MOL0    Cl18173  13.688   6.034   7.808  0.0532  0.2936  0.2725
  857MOL0     C18174  12.762   5.887   8.469 -0.9557 -0.3548  0.0913
  857MOL0     C18175  12.627   5.919   8.472  0.6607  0.7642  0.1637
  857MOL0     O18176  12.435   6.266   8.440  0.0855  0.2556 -0.7116
  857MOL0     C18177  12.157   6.193   8.421  0.3660  0.5313  0.5617
  857MOL0     C18178  12.019   6.218   8.439 -0.9115 -0.4388  0.0893
  857MOL0     N18179  11.438   6.289   8.375 -0.9480 -0.8199  0.1610
  857MOL0     N18180  11.390   6.241   8.262  0.5348 -0.2302 -0.6994
  857MOL0     C18181  10.218   5.850   8.492 -0.0550  0.8259 -0.4027
  857MOL0     C18182  10.090   5.816   8.530  0.6724 -0.0979 -0.1110
  857MOL0     C18183   9.668   5.699   8.448 -0.2851 -0.2984  0.5185
  857MOL0     C18184   9.644   5.564   8.462 -0.5527  0.0285  0.0366
  857MOL0     C18185   9.518   5.521   8.473 -0.2407  0.4355  0.2642
  857MOL0     C18186   9.407   5.604   8.488  0.8149 -0.8686  0.0328
  857MOL0     O18187   9.275   5.555   8.516 -0.4762  0.1354 -0.1852
  857MOL0     C18188   9.264   5.436   8.598 -0.4853  0.0667 -0.2577
  857MOL0     C18189   9.120   5.396   8.634 -0.4868  0.2257 -0.9043
  857MOL0     C18190   9.046   5.374   8.506  0.1312 -0.1367 -0.6257
  857MOL0     C18191   8.914   5.308   8.539 -0.2944 -0.0024  0.3084
  857MOL0     C18192   8.847   5.295   8.407  0.4007 -0.2773  0.6701
  857MOL0     C18193   8.784   5.266   8.303 -0.0601 -0.0463  0.8231
  857MOL0     C18194   9.427   5.746   8.476  0.4924  0.5550 -0.5773
  857MOL0     C18195   9.556   5.788   8.456 -0.8940 -0.0426  0.3337
  857MOL0     C18196   9.575   5.939   8.436  0.8859 -0.1486  0.4488
  857MOL0     H18197   9.914   6.001   8.302  1.0155  0.6300 -2.1288
  857MOL0     H18198  10.154   6.045   8.218  1.1274 -2.7724 -2.2714
  857MOL0     H18199  10.420   6.132   8.318 -1.9245  0.2874  0.2562
  857MOL0     H18200  10.365   6.053   8.165  1.2919  1.8066 -0.3407
  857MOL0     H18201  10.607   6.012   8.334 -2.3069 -0.4890  0.6283
  857MOL0     H18202  10.589   5.909   8.210 -0.1294  0.2005 -0.6682
  857MOL0     H18203  10.622   6.096   8.036  2.5664 -1.2097 -0.3269
  857MOL0     H18204  10.631   6.208   8.186 -1.0157  0.0002 -1.1214
  857MOL0     H18205  10.836   6.122   8.249  0.6941  0.8736 -0.5593
  857MOL0     H18206  10.814   5.970   8.175  2.1333  1.5574  2.0666
  857MOL0     H18207  10.882   6.221   8.012  0.3604  0.0185  1.4861
  857MOL0     H18208  10.830   6.059   7.949 -1.6847 -0.0456 -0.0873
  857MOL0     H18209  11.019   5.949   8.024 -0.7830  0.1747  0.1027
  857MOL0     H18210  11.068   6.117   7.981  1.0615 -0.8453  0.3940
  857MOL0     H18211  11.035   6.002   8.265  1.4927 -2.3089 -0.3934
  857MOL0     H18212  11.061   6.180   8.220  0.7360  0.3164 -1.0029
  857MOL0     H18213  11.255   5.952   8.210 -2.0576 -0.3516 -0.4902
  857MOL0     H18214  11.262   6.081   8.096 -1.7625 -2.5038 -1.6861
  857MOL0     H18215  11.245   6.056   8.489  1.1162 -0.1633  0.7563
  857MOL0     H18216  11.364   6.155   8.681  0.6928  0.0274  0.4683
  857MOL0     H18217  11.352   6.331   8.648 -2.5675 -1.8197  0.7309
  857MOL0     H18218  11.546   6.191   8.775 -2.9729  0.9503  0.9462
  857MOL0     H18219  11.596   6.169   8.601 -0.5991 -1.9260  1.3867
  857MOL0     H18220  11.623   6.423   8.576 -0.3269 -1.2222  0.1108
  857MOL0     H18221  11.582   6.427   8.755 -1.3996  0.5669 -0.7869
  857MOL0     H18222  11.824   6.432   8.699 -2.1126  1.2262 -0.4306
  857MOL0     H18223  11.794   6.281   8.780  1.6423 -0.4716 -0.5266
  857MOL0     H18224  12.021   6.271   8.775 -0.8801 -1.8275  0.7753
  857MOL0     H18225  12.317   6.053   8.774 -0.8949 -0.8740  2.4464
  857MOL0     H18226  12.219   6.179   8.863  0.3661 -1.0582  0.2779
  857MOL0     H18227  12.375   6.226   8.782 -1.1548  1.3601 -1.5270
  857MOL0     H18228  12.629   6.199   8.653  0.1593  0.4191 -0.8260
  857MOL0     H18229  12.877   6.167   8.624 -0.2766 -0.2035 -0.6139
  857MOL0     H18230  13.013   5.763   8.525 -2.7919  0.5551  1.1570
  857MOL0     H18231  13.010   5.839   8.360 -0.4710  0.2631  0.0652
  857MOL0     H18232  13.240   5.880   8.541  0.2945 -0.0543  0.3286
  857MOL0     H18233  13.246   5.752   8.423  0.8480  0.2108 -0.6267
  857MOL0     H18234  13.196   6.043   8.326  0.3194 -0.5955 -0.8075
  857MOL0     H18235  13.217   5.903   8.229 -0.4509  3.5093 -2.6658
  857MOL0     H18236  13.459   5.895   8.330  0.8403  0.9861 -1.2863
  857MOL0     H18237  13.430   6.038   8.426  1.3888  1.6030 -0.4105
  857MOL0     H18238  13.361   6.157   8.207  0.4948  0.4473  1.0473
  857MOL0     H18239  13.528   6.137   8.251 -1.3557  3.0805  1.5334
  857MOL0     H18240  13.402   5.935   8.053 -0.0577 -0.4210  0.8270
  857MOL0     H18241  13.569   5.961   8.101 -1.8935 -3.0352  1.2725
  857MOL0     H18242  13.549   6.199   8.004  0.5803 -1.5680  1.3955
  857MOL0     H18243  13.378   6.158   7.960 -0.4356  1.7010  2.2440
  857MOL0     H18244  13.490   6.152   7.776  0.8490  1.2406  1.1236
  857MOL0     H18245  13.468   5.970   7.814  0.8008 -0.3138  0.8612
  857MOL0     H18246  12.783   5.791   8.422  2.7425 -1.0367  2.7102
  857MOL0     H18247  12.553   5.848   8.437  0.0643  0.5640  1.7468
  857MOL0     H18248  12.198   6.191   8.320  0.3327 -0.6404  0.5534
  857MOL0     H18249  11.958   6.207   8.350  0.9771 -3.0608 -1.0024
  857MOL0     H18250  10.295   5.818   8.561 -0.0790  1.6891  0.0465
  857MOL0     H18251  10.066   5.746   8.610  0.3159 -0.3731 -0.4556
  857MOL0     H18252   9.721   5.487   8.456  0.7563  1.1427  1.6410
  857MOL0     H18253   9.502   5.416   8.454  0.1790 -0.1462  2.8270
  857MOL0     H18254   9.296   5.354   8.534 -2.1494 -0.4049 -0.5280
  857MOL0     H18255   9.326   5.448   8.688 -1.6928  1.2060  0.4593
  857MOL0     H18256   9.076   5.475   8.694  1.3826  0.0101  0.8601
  857MOL0     H18257   9.124   5.301   8.689  2.7700  1.6003  1.5223
  857MOL0     H18258   9.036   5.473   8.459  1.1083  0.7026  0.8296
  857MOL0     H18259   9.104   5.313   8.436  2.3131 -0.5070  1.3731
  857MOL0     H18260   8.853   5.368   8.607 -0.5585 -2.0344  1.9746
  857MOL0     H18261   8.934   5.209   8.580  0.6029  0.0569  0.0191
  857MOL0     H18262   8.748   5.215   8.216 -1.1455  0.8549  0.7282
  857MOL0     H18263   9.340   5.812   8.479 -0.1094 -0.1640 -1.3816
  857MOL0     H18264   9.664   5.973   8.382 -0.8872 -0.6453 -3.1520
  857MOL0     H18265   9.489   5.983   8.384  1.9262  0.5191 -0.7767
  857MOL0     H18266   9.573   5.985   8.535 -0.2671  1.9751 -0.4915
  858MOL0     O18267   0.919   0.890   4.965  0.7861  0.4377 -0.8361
  858MOL0     C18268   0.881   0.993   5.029  0.3715  0.9180  0.4376
  858MOL0     O18269   0.958   1.101   5.054 -0.0213 -0.0498  0.1595
  858MOL0     C18270   1.085   1.107   5.007  0.3015 -0.5018  0.0240
  858MOL0     C18271   1.174   1.003   5.011  0.8628  0.3017  0.3483
  858MOL0     C18272   1.302   1.022   4.966 -0.1419  0.2627  0.7208
  858MOL0     C18273   1.343   1.146   4.905 -0.9369 -0.3755  0.4639
  858MOL0     O18274   1.478   1.172   4.872  0.6582 -0.5351  0.3747
  858MOL0     C18275   1.547   1.064   4.818 -0.4868 -0.0605  0.2856
  858MOL0     C18276   1.638   1.094   4.698 -0.3060  0.9699  0.3855
  858MOL0     C18277   1.757   1.175   4.738 -0.5058  0.0822 -0.0774
  858MOL0     C18278   1.891   1.137   4.664  0.1691  0.0117 -0.1025
  858MOL0     C18279   1.999   1.236   4.699  0.2066 -0.6680 -0.4201
  858MOL0     C18280   2.126   1.186   4.634  0.1065  0.4604  0.2648
  858MOL0     C18281   2.240   1.279   4.667 -0.4328  0.3497 -0.4365
  858MOL0     C18282   2.368   1.232   4.599 -0.3812  0.0898  0.2678
  858MOL0     N18283   2.373   1.283   4.456 -0.2610  0.2689 -0.2073
  858MOL0     C18284   2.435   1.395   4.408 -0.2858 -0.3782 -0.2832
  858MOL0     C18285   2.416   1.393   4.278 -0.0940  0.1301 -0.7484
  858MOL0     C18286   2.460   1.495   4.183 -0.0037  1.2667 -0.1313
  858MOL0     C18287   2.615   1.515   4.186  0.6368 -0.5482  0.2442
  858MOL0     C18288   2.693   1.407   4.102 -0.7000  0.1143  0.1253
  858MOL0     C18289   2.835   1.400   4.156 -0.1337  0.2228  0.2840
  858MOL0     O18290   2.927   1.496   4.090 -0.3387 -0.0726 -0.2915
  858MOL0     C18291   2.988   1.461   3.979  0.5487  0.2270 -1.0367
  858MOL0     C18292   2.957   1.352   3.899  0.4004 -0.7429 -0.2016
  858MOL0     C18293   3.015   1.338   3.773 -0.5877 -0.2106  0.3397
  858MOL0     C18294   2.977   1.206   3.701  0.2503 -0.0111  0.3466
  858MOL0     C18295   3.110   1.432   3.724 -0.0760 -0.3645 -0.1911
  858MOL0     C18296   3.183   1.424   3.592  0.9373  0.3753  0.0604
  858MOL0     O18297   3.293   1.503   3.586  0.2439  0.0688  0.1777
  858MOL0     C18298   3.347   1.509   3.457 -0.0570  0.0887 -0.3435
  858MOL0     C18299   3.480   1.474   3.431 -0.9510  0.4618  0.0340
  858MOL0     C18300   3.539   1.497   3.304  0.5567  0.3793  0.0722
  858MOL0     C18301   3.466   1.557   3.202 -0.6638  0.0753  0.2981
  858MOL0     O18302   3.540   1.586   3.084  0.2790  0.2115 -0.2314
  858MOL0     C18303   3.475   1.588   2.964  0.4042 -0.6848  0.1544
  858MOL0     C18304   3.413   1.732   2.937  0.1623  0.0419  0.6274
  858MOL0     C18305   3.457   1.799   2.801  0.2015 -0.4717 -0.3163
  858MOL0     C18306   3.598   1.864   2.815 -0.7096  0.6141  0.1614
  858MOL0     C18307   3.652   1.893   2.674 -0.0158 -0.8828 -0.2596
  858MOL0     C18308   3.791   1.964   2.665 -0.4320  0.3369 -0.0563
  858MOL0     C18309   3.833   1.993   2.522 -0.1277  1.4421 -0.1539
  858MOL0     C18310   3.967   2.057   2.521 -0.2827  0.9315  0.5834
  858MOL0    Cl18311   4.113   1.961   2.570  0.4697  0.0809  0.0601
  858MOL0     C18312   3.335   1.602   3.227 -0.7569  0.0478 -1.1142
  858MOL0     C18313   3.277   1.576   3.352  0.2117 -0.1738 -0.0048
  858MOL0     O18314   3.129   1.358   3.497 -0.4353 -0.3661  0.4365
  858MOL0     C18315   3.155   1.537   3.814  0.6291 -0.9933 -0.2553
  858MOL0     C18316   3.082   1.558   3.936  0.1961  0.1153 -0.2507
  858MOL0     N18317   2.354   1.280   4.244 -0.5864  0.2955 -0.9419
  858MOL0     N18318   2.329   1.213   4.346  0.1216 -0.3287  0.0733
  858MOL0     C18319   1.251   1.244   4.911  0.5433 -0.3165 -0.3345
  858MOL0     C18320   1.121   1.235   4.955 -0.2685  0.1222 -0.5550
  858MOL0     C18321   0.735   1.010   5.058 -0.2992 -0.4698 -0.6892
  858MOL0     C18322   0.699   1.138   5.105  0.9129 -0.3544 -0.1041
  858MOL0     C18323   0.565   1.160   5.156 -0.1742 -0.1514 -0.7534
  858MOL0     C18324   0.473   1.057   5.159 -0.2089 -0.3624  0.0517
  858MOL0     O18325   0.341   1.057   5.198 -0.1598  0.3579  0.4036
  858MOL0     C18326   0.286   1.188   5.215  0.8283  0.1628 -0.1322
  858MOL0     C18327   0.140   1.179   5.255 -1.2899  0.1157  0.1145
  858MOL0     C18328   0.118   1.123   5.398 -0.3525 -0.0579  0.2623
  858MOL0     C18329  -0.028   1.125   5.435  1.0489 -0.1696  0.4019
  858MOL0     C18330  -0.054   1.063   5.566 -0.5869 -0.4794 -0.2388
  858MOL0     C18331  -0.082   1.008   5.673  0.2338 -0.2880  0.1738
  858MOL0     C18332   0.510   0.930   5.111 -1.1783 -0.5683 -0.9286
  858MOL0     C18333   0.641   0.905   5.066 -0.0556 -0.3185 -0.9833
  858MOL0     C18334   0.667   0.761   5.015  0.3261 -0.1036  0.6772
  858MOL0     H18335   1.154   0.905   5.054  0.2702 -0.6847 -2.0139
  858MOL0     H18336   1.375   0.942   4.968 -0.3801  0.0367  0.4485
  858MOL0     H18337   1.485   0.976   4.795  0.8797 -1.1517  0.6716
  858MOL0     H18338   1.615   1.022   4.892 -0.9280 -0.2658  0.5804
  858MOL0     H18339   1.673   0.995   4.666 -1.9414 -0.2521  2.1241
  858MOL0     H18340   1.586   1.131   4.609  0.2621 -0.1207 -0.4396
  858MOL0     H18341   1.726   1.279   4.718  0.0373  0.8070  2.4850
  858MOL0     H18342   1.770   1.178   4.847 -0.8556  0.0928 -0.0326
  858MOL0     H18343   1.916   1.034   4.689  1.6892  0.0606 -1.3327
  858MOL0     H18344   1.873   1.132   4.556  1.9070  0.7211 -0.4522
  858MOL0     H18345   2.014   1.246   4.807 -3.7663  2.6041  0.0547
  858MOL0     H18346   1.968   1.337   4.670 -0.8547 -0.9019 -0.1483
  858MOL0     H18347   2.141   1.080   4.656  1.2481  0.5674  0.0453
  858MOL0     H18348   2.108   1.188   4.527 -1.4416  0.7580  0.5133
  858MOL0     H18349   2.261   1.275   4.774  1.5220 -2.1055 -0.8092
  858MOL0     H18350   2.231   1.383   4.635  1.7623  0.0604 -2.2871
  858MOL0     H18351   2.451   1.276   4.656  0.1605 -0.4393 -0.1003
  858MOL0     H18352   2.375   1.123   4.598  1.0301  0.1581 -0.7433
  858MOL0     H18353   2.464   1.481   4.467  0.0742 -2.0163  2.0780
  858MOL0     H18354   2.414   1.593   4.200  0.8598  1.5787  0.4934
  858MOL0     H18355   2.426   1.458   4.086  0.1618  2.3889 -0.6354
  858MOL0     H18356   2.632   1.616   4.147  1.5982 -1.2251 -1.1663
  858MOL0     H18357   2.645   1.509   4.291 -1.3277  0.5944  0.9229
  858MOL0     H18358   2.649   1.307   4.107 -0.0101 -0.1667  0.6195
  858MOL0     H18359   2.693   1.443   3.998 -1.5178  1.5664  0.5970
  858MOL0     H18360   2.842   1.431   4.260 -0.9572 -0.0210  0.4209
  858MOL0     H18361   2.866   1.296   4.145  0.1519  0.5418 -2.9867
  858MOL0     H18362   2.882   1.279   3.927  0.1592  0.1899  1.7640
  858MOL0     H18363   2.884   1.160   3.734 -0.2197  0.0224 -0.8922
  858MOL0     H18364   3.057   1.138   3.734 -0.4616 -0.9187  0.2349
  858MOL0     H18365   2.977   1.222   3.593  2.1954  4.6830  0.8224
  858MOL0     H18366   3.535   1.418   3.506 -2.2625  0.3294  0.9277
  858MOL0     H18367   3.641   1.463   3.289  0.4273 -1.3300  2.4409
  858MOL0     H18368   3.539   1.561   2.879  0.1286 -0.2641 -0.1934
  858MOL0     H18369   3.389   1.520   2.963  0.6601 -1.0328 -1.3415
  858MOL0     H18370   3.304   1.722   2.939 -0.1086  2.1398 -0.5794
  858MOL0     H18371   3.445   1.799   3.018  2.7435 -0.8675  0.4700
  858MOL0     H18372   3.387   1.877   2.770  2.4366  1.3409 -1.0444
  858MOL0     H18373   3.459   1.729   2.716 -3.4519  0.5902 -1.4525
  858MOL0     H18374   3.655   1.786   2.867  1.5488  0.6155 -2.1083
  858MOL0     H18375   3.586   1.960   2.866 -1.6435  1.4485 -1.5432
  858MOL0     H18376   3.657   1.790   2.639 -1.4661 -0.7880 -0.8065
  858MOL0     H18377   3.580   1.957   2.622  2.0869  0.7576 -1.3711
  858MOL0     H18378   3.867   1.910   2.723 -0.1204  2.5046  1.7161
  858MOL0     H18379   3.789   2.060   2.718 -0.7696  0.1117  0.3499
  858MOL0     H18380   3.767   2.066   2.473 -0.1495 -0.5346 -3.3426
  858MOL0     H18381   3.835   1.907   2.454  2.2306  3.1549 -2.4749
  858MOL0     H18382   3.964   2.137   2.595 -0.1915  2.0327 -0.5607
  858MOL0     H18383   3.977   2.101   2.421  0.5033 -0.9770 -0.2419
  858MOL0     H18384   3.259   1.642   3.161 -0.8713  0.0109 -1.0058
  858MOL0     H18385   3.176   1.611   3.365  0.2008  0.9116 -2.4602
  858MOL0     H18386   3.225   1.616   3.788 -0.0626 -0.8155 -1.7078
  858MOL0     H18387   3.084   1.648   3.997  0.0698 -0.4636  0.6184
  858MOL0     H18388   1.289   1.331   4.858  0.5794 -0.9595 -1.3806
  858MOL0     H18389   1.041   1.308   4.945 -0.2865  0.2279  0.2757
  858MOL0     H18390   0.757   1.230   5.105 -1.1168  1.0518  2.5216
  858MOL0     H18391   0.537   1.261   5.184 -0.9946 -1.1833  2.5973
  858MOL0     H18392   0.341   1.248   5.287  1.0780 -2.3374  1.8698
  858MOL0     H18393   0.284   1.238   5.117 -1.7784  1.4938  0.5101
  858MOL0     H18394   0.087   1.118   5.181  1.5528 -1.2301 -0.9283
  858MOL0     H18395   0.103   1.281   5.244 -1.5275  0.0019 -0.1531
  858MOL0     H18396   0.150   1.019   5.391 -1.3554 -0.2894 -4.3804
  858MOL0     H18397   0.158   1.178   5.484 -1.6188  0.3194  0.6408
  858MOL0     H18398  -0.085   1.080   5.353 -1.2617  2.1136  0.6424
  858MOL0     H18399  -0.056   1.230   5.436  1.7127  0.0189  2.2644
  858MOL0     H18400  -0.104   0.951   5.761 -4.1683 -0.5435 -0.8375
  858MOL0     H18401   0.437   0.851   5.100 -0.8203 -0.9272 -0.7805
  858MOL0     H18402   0.714   0.765   4.916 -3.2760 -1.9769 -1.3033
  858MOL0     H18403   0.737   0.715   5.086  1.0270  0.2335  0.2228
  858MOL0     H18404   0.575   0.702   5.016 -1.1296  1.9216 -1.4815
  859MOL0     O18405   9.289  11.251  10.313  0.1252  0.3823  0.1997
  859MOL0     C18406   9.263  11.174  10.224  1.1521 -0.1405 -0.4027
  859MOL0     O18407   9.355  11.129  10.143 -0.0797 -0.1443  0.3534
  859MOL0     C18408   9.486  11.159  10.169 -0.3704  0.3524 -0.2483
  859MOL0     C18409   9.580  11.060  10.219  0.6148 -0.2498 -0.3128
  859MOL0     C18410   9.707  11.097  10.241  0.0403 -0.7614 -0.4591
  859MOL0     C18411   9.761  11.229  10.212  0.6080  0.5593 -0.3077
  859MOL0     O18412   9.895  11.246  10.233  0.0714  0.5714  0.0789
  859MOL0     C18413   9.959  11.361  10.200 -0.5932  0.8758 -0.3522
  859MOL0     C18414  10.109  11.340  10.227 -0.6174  0.2500  0.6538
  859MOL0     C18415  10.126  11.361  10.380  0.1357 -0.6652 -0.2784
  859MOL0     C18416  10.264  11.385  10.420  0.0194  0.4274 -0.0291
  859MOL0     C18417  10.308  11.527  10.386  0.0746  0.3979  0.9731
  859MOL0     C18418  10.413  11.578  10.480  0.6249 -0.1120  0.3295
  859MOL0     C18419  10.404  11.727  10.443  0.1247 -0.2932 -0.2860
  859MOL0     C18420  10.482  11.812  10.557  0.1942  0.4828  0.2705
  859MOL0     N18421  10.626  11.781  10.560  0.1580  0.2169  0.6195
  859MOL0     C18422  10.685  11.698  10.646  0.0959 -0.1605  0.2270
  859MOL0     C18423  10.815  11.697  10.607 -0.1804 -0.3154  0.7819
  859MOL0     C18424  10.922  11.625  10.672 -0.0734  0.2891 -0.4943
  859MOL0     C18425  10.908  11.479  10.625  0.0433  0.6366 -0.0903
  859MOL0     C18426  10.987  11.379  10.702 -0.5387 -0.6723 -0.9879
  859MOL0     C18427  11.148  11.396  10.679  0.7020 -0.2047 -1.2176
  859MOL0     O18428  11.178  11.398  10.544 -0.0176 -0.0170 -0.5959
  859MOL0     C18429  11.307  11.385  10.508  0.5215 -0.2199  0.1978
  859MOL0     C18430  11.417  11.366  10.596  0.3882 -0.1713  0.4744
  859MOL0     C18431  11.547  11.348  10.546  0.6310  0.1566  0.0518
  859MOL0     C18432  11.658  11.339  10.644  0.0208  0.4075 -0.4495
  859MOL0     C18433  11.571  11.344  10.405  0.9726 -0.8786 -0.8617
  859MOL0     C18434  11.705  11.339  10.351  0.0237 -0.2134 -0.8619
  859MOL0     O18435  11.794  11.256  10.403 -0.5563 -0.1566 -0.2502
  859MOL0     C18436  11.924  11.242  10.369 -0.7190 -0.1807 -0.2910
  859MOL0     C18437  11.988  11.298  10.249  0.0948  0.7731  0.0899
  859MOL0     C18438  12.121  11.278  10.231  0.8714  0.1861 -0.3783
  859MOL0     C18439  12.200  11.206  10.325 -0.3792  0.2781  0.4806
  859MOL0     O18440  12.335  11.182  10.313 -1.0286  0.2388 -0.2118
  859MOL0     C18441  12.397  11.230  10.194  0.1562 -0.5387 -1.2422
  859MOL0     C18442  12.539  11.194  10.177 -0.1296  0.3995 -0.7225
  859MOL0     C18443  12.596  11.254  10.046 -0.2523 -0.0501 -0.2336
  859MOL0     C18444  12.752  11.237  10.055 -0.4327 -0.0618 -0.5568
  859MOL0     C18445  12.803  11.270   9.925 -0.1627  0.5871  0.2250
  859MOL0     C18446  12.954  11.251   9.938  0.1200  0.4241  0.3295
  859MOL0     C18447  13.024  11.266   9.803  1.2687 -0.3536  0.2973
  859MOL0     C18448  13.098  11.133   9.753  0.3995  0.1445  0.0033
  859MOL0    Cl18449  13.247  11.121   9.864  0.1656 -0.1327  0.2915
  859MOL0     C18450  12.137  11.166  10.447  0.0024 -0.2495  0.6827
  859MOL0     C18451  12.001  11.173  10.461 -0.7111 -0.5835 -0.4954
  859MOL0     O18452  11.720  11.407  10.252 -0.6509 -0.2645 -0.4936
  859MOL0     C18453  11.455  11.358  10.319  0.3707  0.0226  0.3004
  859MOL0     C18454  11.327  11.379  10.372  0.5541  0.5564  0.1942
  859MOL0     N18455  10.829  11.785  10.497  0.6997  0.4221  0.1766
  859MOL0     N18456  10.707  11.834  10.470  0.2174  0.0390 -0.9362
  859MOL0     C18457   9.672  11.313  10.153  0.5232  0.0665 -0.0803
  859MOL0     C18458   9.534  11.284  10.127  0.1221  0.2658  0.1088
  859MOL0     C18459   9.120  11.136  10.198 -0.4344  0.1921  1.2945
  859MOL0     C18460   9.093  11.023  10.121 -0.2941 -0.7724  0.1024
  859MOL0     C18461   8.974  11.001  10.066 -0.0533 -0.2177  0.0461
  859MOL0     C18462   8.862  11.077  10.088  0.3188  0.4346 -0.3766
  859MOL0     O18463   8.739  11.064  10.041  0.4468 -0.3782 -0.1855
  859MOL0     C18464   8.711  11.008   9.913  0.1075 -0.3286 -0.2543
  859MOL0     C18465   8.567  11.061   9.877  0.1607  0.1283  0.2128
  859MOL0     C18466   8.465  11.014   9.979  0.0870  0.2039 -0.0215
  859MOL0     C18467   8.342  10.943   9.914  0.5746 -0.3425 -0.3171
  859MOL0     C18468   8.269  11.048   9.839 -0.3914 -0.4047  0.7082
  859MOL0     C18469   8.209  11.118   9.766 -0.0090 -1.4061 -0.3176
  859MOL0     C18470   8.879  11.186  10.181  0.1550 -0.1317 -0.4969
  859MOL0     C18471   9.008  11.219  10.229  0.8105 -0.8682  0.2338
  859MOL0     C18472   9.021  11.354  10.302  0.1502 -0.0713 -0.0185
  859MOL0     H18473   9.555  10.956  10.242  1.0164 -0.3451 -0.3134
  859MOL0     H18474   9.780  11.023  10.272 -0.4322 -0.7909  0.6184
  859MOL0     H18475   9.907  11.445  10.247 -0.6723  1.2373 -1.0665
  859MOL0     H18476   9.944  11.375  10.093 -0.3869  2.0510 -0.2460
  859MOL0     H18477  10.145  11.245  10.186  4.9606  2.9785 -1.8978
  859MOL0     H18478  10.174  11.402  10.165  0.3580 -1.4940 -0.1495
  859MOL0     H18479  10.053  11.433  10.418  0.6248 -0.6253  0.5952
  859MOL0     H18480  10.097  11.265  10.423 -1.7109 -0.4878 -1.0136
  859MOL0     H18481  10.280  11.371  10.527 -0.4132 -0.9835 -0.1242
  859MOL0     H18482  10.328  11.308  10.375 -1.7611 -0.5601 -0.9839
  859MOL0     H18483  10.226  11.597  10.369 -0.6218 -0.3406  1.2508
  859MOL0     H18484  10.359  11.527  10.289  2.6088 -3.2355  2.0784
  859MOL0     H18485  10.388  11.554  10.583 -4.2107  0.3927 -0.4957
  859MOL0     H18486  10.511  11.531  10.471  0.5919 -0.2545  0.6875
  859MOL0     H18487  10.302  11.766  10.451  0.6408  1.3187 -1.1948
  859MOL0     H18488  10.447  11.733  10.343  1.0257 -3.0539 -0.1528
  859MOL0     H18489  10.460  11.919  10.544 -0.5206  0.2683 -0.3744
  859MOL0     H18490  10.438  11.792  10.655 -0.3585  0.7701  0.0850
  859MOL0     H18491  10.646  11.639  10.729 -0.7481  1.4236  1.0068
  859MOL0     H18492  10.914  11.640  10.780 -2.0477  0.8385 -0.6785
  859MOL0     H18493  11.022  11.662  10.648  0.7740 -2.9436 -2.6150
  859MOL0     H18494  10.804  11.445  10.631  0.8212 -1.8181  0.5475
  859MOL0     H18495  10.945  11.475  10.523  3.5092 -0.5134  1.0593
  859MOL0     H18496  10.974  11.404  10.808 -2.1792 -0.6434 -1.1755
  859MOL0     H18497  10.964  11.272  10.696  0.7289 -1.0366  0.1238
  859MOL0     H18498  11.173  11.490  10.729  3.0103 -2.0315  1.3017
  859MOL0     H18499  11.199  11.313  10.728  0.5931  1.0742  1.2098
  859MOL0     H18500  11.399  11.382  10.701 -0.5044  1.6589  0.0837
  859MOL0     H18501  11.656  11.230  10.652 -0.6100  0.2359 -2.3294
  859MOL0     H18502  11.627  11.382  10.740 -2.5367 -2.2083  0.0550
  859MOL0     H18503  11.754  11.380  10.611  1.4501 -1.4040  1.2106
  859MOL0     H18504  11.936  11.358  10.175  0.5200 -1.1255 -1.8341
  859MOL0     H18505  12.172  11.310  10.141  0.0775 -0.0073 -0.9117
  859MOL0     H18506  12.351  11.179  10.109  4.2852 -2.2749 -2.6902
  859MOL0     H18507  12.383  11.338  10.188  1.9443 -0.3437 -4.3644
  859MOL0     H18508  12.597  11.233  10.261  2.9910 -3.0436 -1.0274
  859MOL0     H18509  12.549  11.085  10.187 -1.8389  0.4219  3.2878
  859MOL0     H18510  12.576  11.360  10.024 -1.3434 -0.5600 -1.8978
  859MOL0     H18511  12.564  11.198   9.958  1.5732 -0.5756 -0.6028
  859MOL0     H18512  12.772  11.135  10.089  0.6376  0.7876  1.5411
  859MOL0     H18513  12.796  11.299  10.134 -0.1834  0.7079 -1.2895
  859MOL0     H18514  12.755  11.210   9.847 -1.8587 -0.0023  1.6757
  859MOL0     H18515  12.785  11.373   9.893  0.5122  0.6422 -0.0068
  859MOL0     H18516  12.981  11.154   9.981  4.1868  2.3238  2.6620
  859MOL0     H18517  12.988  11.333  10.001  1.7185  1.7897 -2.1292
  859MOL0     H18518  13.088  11.355   9.801  2.6094 -1.2644 -1.9004
  859MOL0     H18519  12.944  11.282   9.730 -0.8636 -0.1925  2.5514
  859MOL0     H18520  13.129  11.135   9.648 -1.5218  0.1699 -0.6110
  859MOL0     H18521  13.039  11.044   9.778 -2.0415  1.6913  0.0880
  859MOL0     H18522  12.201  11.134  10.529 -0.4402  0.0620  1.1567
  859MOL0     H18523  11.963  11.147  10.559 -0.2702 -1.7705 -0.6161
  859MOL0     H18524  11.487  11.361  10.215 -1.7370  1.7683 -0.3969
  859MOL0     H18525  11.245  11.381  10.302  2.7995  3.5371 -2.6553
  859MOL0     H18526   9.709  11.409  10.117  1.8168 -0.9193 -1.5695
  859MOL0     H18527   9.456  11.352  10.095  0.1528 -0.1968 -1.0078
  859MOL0     H18528   9.172  10.964  10.077  0.0746 -0.3370  0.1695
  859MOL0     H18529   8.965  10.915   9.999  0.4782  1.0659 -1.7360
  859MOL0     H18530   8.784  11.044   9.840 -1.1434  2.9845 -0.0868
  859MOL0     H18531   8.712  10.899   9.908 -0.5264 -0.2820 -2.4626
  859MOL0     H18532   8.537  11.028   9.777 -2.4222  2.3716  0.1532
  859MOL0     H18533   8.568  11.170   9.874 -2.4509  0.2604  1.4790
  859MOL0     H18534   8.511  10.942  10.047  1.6297 -1.4917 -2.6850
  859MOL0     H18535   8.441  11.106  10.033  4.0060  2.3507 -1.5435
  859MOL0     H18536   8.273  10.911   9.993  2.6363  2.3848  2.8683
  859MOL0     H18537   8.367  10.862   9.844  0.5501  0.0582 -0.7973
  859MOL0     H18538   8.159  11.192   9.707  2.0690  0.1507 -0.2217
  859MOL0     H18539   8.791  11.247  10.200 -1.4113 -2.3212 -0.2689
  859MOL0     H18540   9.072  11.347  10.398 -2.6616 -2.0132  1.5044
  859MOL0     H18541   9.088  11.422  10.249  1.0086  0.3922  1.5951
  859MOL0     H18542   8.925  11.399  10.329 -0.2450 -0.3908 -0.8230
  860MOL0     O18543   3.374   8.389   3.283  0.0701 -0.4317 -1.0439
  860MOL0     C18544   3.387   8.511   3.279  0.5848  0.2009  0.2861
  860MOL0     O18545   3.514   8.572   3.293  0.3851 -0.2357  0.3001
  860MOL0     C18546   3.626   8.494   3.283  0.0401  0.7066 -0.2576
  860MOL0     C18547   3.648   8.394   3.193 -0.8471 -0.6392  0.5000
  860MOL0     C18548   3.758   8.302   3.208  0.2179  0.0802  0.3245
  860MOL0     C18549   3.849   8.313   3.317  0.3025  0.4318 -0.3731
  860MOL0     O18550   3.951   8.214   3.319  0.1086 -0.0680 -0.6476
  860MOL0     C18551   4.035   8.197   3.443 -0.1623  0.0209  0.5491
  860MOL0     C18552   4.166   8.268   3.403 -0.4710 -0.2003  0.3687
  860MOL0     C18553   4.284   8.243   3.503  0.4030 -0.8098  0.5610
  860MOL0     C18554   4.391   8.349   3.476  0.0906 -0.0655 -0.2441
  860MOL0     C18555   4.509   8.344   3.570  0.1514 -0.0836  0.9431
  860MOL0     C18556   4.584   8.213   3.539 -0.0950  0.3209  0.6753
  860MOL0     C18557   4.609   8.173   3.392  0.6401 -0.7770 -0.1465
  860MOL0     C18558   4.702   8.059   3.385  0.4963 -0.1542 -0.2799
  860MOL0     N18559   4.846   8.090   3.415 -0.5008 -0.8978  0.1685
  860MOL0     C18560   4.913   8.096   3.539 -0.4069 -0.3384  0.4146
  860MOL0     C18561   5.029   8.144   3.511  0.6460  0.0426  0.2835
  860MOL0     C18562   5.122   8.192   3.608 -0.5735 -0.2455 -0.1753
  860MOL0     C18563   5.169   8.081   3.709  0.2690  0.3318 -0.0356
  860MOL0     C18564   5.288   8.122   3.792 -0.0223 -0.5611  0.2813
  860MOL0     C18565   5.405   8.162   3.701 -0.1539  0.0035 -1.1205
  860MOL0     O18566   5.518   8.182   3.798  0.0339 -0.1940 -0.4504
  860MOL0     C18567   5.641   8.165   3.744  0.9012  0.4953  0.0246
  860MOL0     C18568   5.691   8.175   3.614 -0.5591  0.2582 -0.1256
  860MOL0     C18569   5.829   8.169   3.589 -0.5249  0.2684  0.8834
  860MOL0     C18570   5.863   8.161   3.443  0.3317  0.2858 -0.3030
  860MOL0     C18571   5.921   8.152   3.697  0.5436  0.7363  0.3754
  860MOL0     C18572   6.069   8.142   3.675  0.4131  0.1822 -0.6649
  860MOL0     O18573   6.121   8.159   3.549  0.0259  0.6157 -0.3539
  860MOL0     C18574   6.259   8.135   3.541 -0.1188  0.3828 -0.0938
  860MOL0     C18575   6.316   8.019   3.553  0.1238  0.2362  0.0702
  860MOL0     C18576   6.460   8.003   3.553 -0.0815 -0.4509 -0.3124
  860MOL0     C18577   6.539   8.123   3.554  0.1250 -0.1260 -0.3825
  860MOL0     O18578   6.674   8.128   3.570  0.1863  0.7293 -0.1396
  860MOL0     C18579   6.758   8.174   3.456 -0.6049 -0.4385 -0.1043
  860MOL0     C18580   6.891   8.226   3.502 -0.4868  0.2956 -0.2646
  860MOL0     C18581   6.991   8.115   3.551  0.3594  0.5306  0.7834
  860MOL0     C18582   7.005   8.117   3.705 -0.7679 -0.0301 -0.1716
  860MOL0     C18583   7.127   8.036   3.756  0.5485 -0.5497  0.9146
  860MOL0     C18584   7.132   7.890   3.708  1.1759  0.3225  0.1823
  860MOL0     C18585   7.216   7.803   3.791 -0.8119  0.2543 -0.4430
  860MOL0     C18586   7.260   7.674   3.722  0.3873  0.4783  0.4196
  860MOL0    Cl18587   7.125   7.569   3.668 -0.0973  0.1983  0.3019
  860MOL0     C18588   6.474   8.247   3.536  0.4165 -0.1571  0.5745
  860MOL0     C18589   6.335   8.252   3.530 -0.6881 -0.0776  0.0996
  860MOL0     O18590   6.137   8.152   3.782  0.2817  0.9525  0.6792
  860MOL0     C18591   5.868   8.139   3.826 -0.1609 -0.0630 -0.2121
  860MOL0     C18592   5.731   8.154   3.852  0.3012 -0.9188 -0.4808
  860MOL0     N18593   5.037   8.147   3.374 -0.0646 -0.9136  0.1716
  860MOL0     N18594   4.928   8.114   3.314  0.1302 -0.1277  0.3761
  860MOL0     C18595   3.832   8.433   3.402  0.3742 -0.3633  0.1886
  860MOL0     C18596   3.715   8.510   3.384 -0.8608 -1.0027 -0.3911
  860MOL0     C18597   3.275   8.599   3.240 -0.1989 -0.5274 -0.8020
  860MOL0     C18598   3.299   8.735   3.266  0.1029  0.3313  0.9265
  860MOL0     C18599   3.206   8.834   3.234  0.0183 -0.3737 -0.4252
  860MOL0     C18600   3.082   8.795   3.181 -0.6920  0.2063  0.1346
  860MOL0     O18601   2.998   8.898   3.156 -0.3515 -0.7165  0.3015
  860MOL0     C18602   2.859   8.877   3.126 -0.9777 -0.0811  0.1290
  860MOL0     C18603   2.841   8.855   2.975  0.0559  0.0545  0.0003
  860MOL0     C18604   2.689   8.881   2.933  0.9832  0.1404  0.0041
  860MOL0     C18605   2.658   8.819   2.794 -0.3313  0.2862  0.0774
  860MOL0     C18606   2.526   8.860   2.745  0.1664  0.3617 -0.1229
  860MOL0     C18607   2.415   8.890   2.707  0.0023 -0.8982 -0.0123
  860MOL0     C18608   3.057   8.660   3.147 -0.6229 -0.4822  0.2892
  860MOL0     C18609   3.155   8.564   3.171  0.0453  0.3637 -0.5414
  860MOL0     C18610   3.149   8.423   3.108  0.7728  0.0021  0.8275
  860MOL0     H18611   3.584   8.390   3.106  0.0894  0.0416 -0.2427
  860MOL0     H18612   3.769   8.210   3.153  1.3966 -0.2949  1.1448
  860MOL0     H18613   4.047   8.089   3.459 -0.1160 -0.6768 -3.3270
  860MOL0     H18614   3.986   8.239   3.532  1.4995 -0.1318  1.5908
  860MOL0     H18615   4.208   8.238   3.306  1.0195  1.0073  0.6015
  860MOL0     H18616   4.147   8.375   3.401 -2.1524 -0.4340  1.6828
  860MOL0     H18617   4.247   8.252   3.605  1.3268  0.4436  0.7995
  860MOL0     H18618   4.322   8.141   3.487 -1.8634 -1.3056 -2.8292
  860MOL0     H18619   4.429   8.329   3.375  0.8678 -0.1443  0.0564
  860MOL0     H18620   4.352   8.450   3.483  1.8956  0.8627 -2.2384
  860MOL0     H18621   4.488   8.364   3.676  4.1735  1.9793  1.5482
  860MOL0     H18622   4.575   8.423   3.532 -3.0222  3.5094  2.2395
  860MOL0     H18623   4.681   8.210   3.589 -0.7370 -1.1626  1.9156
  860MOL0     H18624   4.530   8.129   3.582  0.6295  0.3127  1.5830
  860MOL0     H18625   4.647   8.260   3.337 -1.5214  0.1814 -0.2370
  860MOL0     H18626   4.515   8.141   3.346  0.6392 -0.9102 -0.0520
  860MOL0     H18627   4.663   7.983   3.454 -1.5848  0.2420 -0.9350
  860MOL0     H18628   4.699   8.012   3.286  0.0801 -2.0148  0.5608
  860MOL0     H18629   4.878   8.085   3.641 -0.9841  2.1175  0.5400
  860MOL0     H18630   5.075   8.279   3.653 -1.9894 -1.0918  0.0452
  860MOL0     H18631   5.205   8.232   3.548 -1.9497  0.1624 -1.9031
  860MOL0     H18632   5.089   8.069   3.783  1.8440 -0.0784  1.6631
  860MOL0     H18633   5.203   7.989   3.660  3.0398  0.9308  0.6367
  860MOL0     H18634   5.256   8.210   3.848 -1.0725  0.1787 -1.3989
  860MOL0     H18635   5.313   8.039   3.859 -3.7423  0.0000  2.6465
  860MOL0     H18636   5.426   8.080   3.632  0.3315 -1.1068  0.2856
  860MOL0     H18637   5.383   8.257   3.652 -0.1398 -0.6567 -2.4669
  860MOL0     H18638   5.614   8.197   3.540 -1.5179 -1.8798  0.1350
  860MOL0     H18639   5.929   8.245   3.419 -0.1803  1.2913  1.5572
  860MOL0     H18640   5.772   8.161   3.383  0.0783  2.5738 -0.0278
  860MOL0     H18641   5.917   8.067   3.430 -1.2585 -0.6067 -0.6981
  860MOL0     H18642   6.257   7.930   3.571 -0.6448  0.9575  1.2284
  860MOL0     H18643   6.493   7.900   3.555  0.6189 -0.2466 -0.8941
  860MOL0     H18644   6.784   8.090   3.391  3.5533 -0.1373  0.8889
  860MOL0     H18645   6.701   8.253   3.407  0.6334  0.6151  0.1087
  860MOL0     H18646   6.931   8.273   3.411 -4.4343  2.6709 -0.9886
  860MOL0     H18647   6.871   8.300   3.580 -1.3521  1.1625 -1.2734
  860MOL0     H18648   7.084   8.136   3.498 -1.0958  1.2093 -1.7204
  860MOL0     H18649   6.952   8.020   3.512  1.8920  0.3120 -0.3018
  860MOL0     H18650   6.912   8.086   3.753  0.0103  1.1421  2.2796
  860MOL0     H18651   7.027   8.219   3.737 -0.6238 -0.4867  1.2925
  860MOL0     H18652   7.221   8.085   3.729 -1.2532  1.9431 -1.3846
  860MOL0     H18653   7.135   8.036   3.865 -0.8056 -1.0246  1.0268
  860MOL0     H18654   7.186   7.888   3.612  0.8464 -2.0127 -0.0123
  860MOL0     H18655   7.031   7.849   3.698  0.7638  1.2189  0.5022
  860MOL0     H18656   7.173   7.778   3.888  0.6687 -0.3489  0.0801
  860MOL0     H18657   7.302   7.865   3.820  0.3586 -1.3387 -0.3521
  860MOL0     H18658   7.314   7.610   3.792 -1.3775  0.2412  1.6239
  860MOL0     H18659   7.327   7.689   3.636  0.4980 -1.0207  0.2125
  860MOL0     H18660   6.535   8.337   3.533 -1.3017  1.0703  0.2036
  860MOL0     H18661   6.282   8.346   3.516  0.1961  0.0308 -3.7236
  860MOL0     H18662   5.942   8.136   3.906 -0.4806 -0.3581  0.0734
  860MOL0     H18663   5.687   8.140   3.950 -1.5579  0.7453 -0.9966
  860MOL0     H18664   3.897   8.438   3.489  0.2204 -2.2907  0.4586
  860MOL0     H18665   3.684   8.570   3.469 -0.0724  0.9327 -1.4153
  860MOL0     H18666   3.393   8.758   3.315  2.5098 -5.1374 -0.3761
  860MOL0     H18667   3.221   8.939   3.257  2.8503  0.1637 -3.8614
  860MOL0     H18668   2.820   8.794   3.185  2.4033 -1.2464  0.9612
  860MOL0     H18669   2.814   8.970   3.162 -1.8350 -0.3478 -0.2150
  860MOL0     H18670   2.880   8.758   2.942 -1.3560 -0.5948  0.1931
  860MOL0     H18671   2.906   8.923   2.920  1.6206 -0.1392  1.5167
  860MOL0     H18672   2.616   8.837   3.002  1.8038  1.6198  1.8719
  860MOL0     H18673   2.672   8.989   2.934 -0.3376 -0.0418 -0.3180
  860MOL0     H18674   2.658   8.710   2.804  1.2698  0.3081  0.5657
  860MOL0     H18675   2.733   8.862   2.728  0.8081 -1.2547  0.3173
  860MOL0     H18676   2.319   8.923   2.674  0.8100  1.3064 -0.3506
  860MOL0     H18677   2.968   8.625   3.095 -0.5268 -0.7982  0.3295
  860MOL0     H18678   3.111   8.345   3.174 -2.3435 -2.3927 -3.2863
  860MOL0     H18679   3.094   8.422   3.014  0.7604 -1.9779  0.8159
  860MOL0     H18680   3.251   8.396   3.079  1.3565  0.8653  1.9929
  861MOL0     O18681   9.334   5.002   2.536  0.6868  0.2235  0.3253
  861MOL0     C18682   9.263   4.996   2.432  0.3748  0.7619 -0.3650
  861MOL0     O18683   9.296   4.937   2.311 -0.5155  0.1561 -0.3247
  861MOL0     C18684   9.428   4.911   2.299 -0.3479  0.0614 -0.6959
  861MOL0     C18685   9.517   4.997   2.235 -0.0533  0.3146 -0.1671
  861MOL0     C18686   9.662   4.970   2.226 -0.3167 -0.4881 -0.6997
  861MOL0     C18687   9.717   4.852   2.281  0.1762  0.3743  0.5664
  861MOL0     O18688   9.853   4.823   2.265 -0.1777  0.3005  0.2395
  861MOL0     C18689   9.910   4.712   2.318 -0.8289  1.0689  0.1344
  861MOL0     C18690   9.885   4.575   2.248  0.6430 -0.3478 -0.8222
  861MOL0     C18691   9.961   4.558   2.115 -0.0519 -0.1607 -0.3433
  861MOL0     C18692  10.097   4.490   2.129 -0.1255  0.3290 -0.0035
  861MOL0     C18693  10.165   4.477   1.990  0.3317  0.7911  0.2759
  861MOL0     C18694  10.274   4.377   2.008  0.2032  0.6627  0.3223
  861MOL0     C18695  10.367   4.347   1.882  0.6326 -0.7175 -0.7019
  861MOL0     C18696  10.492   4.437   1.889 -0.3635  0.5368 -0.3377
  861MOL0     N18697  10.575   4.414   1.777 -0.2913 -0.1671 -0.1172
  861MOL0     C18698  10.681   4.329   1.774 -0.1049  0.5268 -0.0385
  861MOL0     C18699  10.752   4.348   1.662  0.0375  0.0227  0.1480
  861MOL0     C18700  10.857   4.252   1.618  0.3124 -0.2190  0.0827
  861MOL0     C18701  11.004   4.304   1.646  1.0602  0.4766  0.4727
  861MOL0     C18702  11.048   4.429   1.570 -0.2411 -0.4367  0.3893
  861MOL0     C18703  11.080   4.389   1.422  0.1995  0.3463 -0.8675
  861MOL0     O18704  11.095   4.509   1.347  0.3139  0.2584  0.2250
  861MOL0     C18705  11.210   4.580   1.351 -0.4114  0.2912  0.6596
  861MOL0     C18706  11.208   4.723   1.335  0.5672 -0.2355  0.5530
  861MOL0     C18707  11.330   4.798   1.338 -0.1923 -0.6556  0.2338
  861MOL0     C18708  11.315   4.951   1.324  0.4088 -0.0923 -0.9693
  861MOL0     C18709  11.457   4.735   1.352 -0.6760  0.2183 -0.3713
  861MOL0     C18710  11.586   4.802   1.337 -0.6005  0.4091 -0.0211
  861MOL0     O18711  11.701   4.724   1.335  0.1207  0.4954  0.4005
  861MOL0     C18712  11.836   4.775   1.346  0.5330  0.0718  0.0433
  861MOL0     C18713  11.922   4.720   1.443 -0.2394 -0.1175 -1.0813
  861MOL0     C18714  12.048   4.767   1.471  0.1862 -0.4001 -0.4879
  861MOL0     C18715  12.092   4.874   1.389 -0.8651  1.2550  0.0131
  861MOL0     O18716  12.225   4.905   1.420 -0.0267  0.1618 -1.0827
  861MOL0     C18717  12.253   5.044   1.385 -0.4295  0.0197  0.8306
  861MOL0     C18718  12.377   5.108   1.439  0.6078 -0.2282 -1.1193
  861MOL0     C18719  12.500   5.019   1.435 -0.7832  0.2457  0.1743
  861MOL0     C18720  12.496   4.909   1.549  0.4013  0.9478  0.1009
  861MOL0     C18721  12.600   4.932   1.659 -0.1746  0.5099  0.7196
  861MOL0     C18722  12.616   4.814   1.755  0.9033 -0.6943  0.2168
  861MOL0     C18723  12.696   4.691   1.708  0.2926  0.6080  0.4848
  861MOL0     C18724  12.833   4.720   1.632  0.0221  0.3875  0.0072
  861MOL0    Cl18725  12.930   4.579   1.640  0.0073  0.1115 -0.0001
  861MOL0     C18726  12.015   4.924   1.281 -0.1783  0.0508  0.8758
  861MOL0     C18727  11.882   4.873   1.254 -0.3168  1.0497 -0.3700
  861MOL0     O18728  11.591   4.920   1.331 -0.5397 -0.1471 -1.0306
  861MOL0     C18729  11.449   4.599   1.362  0.5330  0.6728  0.1277
  861MOL0     C18730  11.330   4.521   1.369 -0.0209  0.6032  1.1254
  861MOL0     N18731  10.687   4.447   1.601 -0.4444  0.3023  0.3429
  861MOL0     N18732  10.589   4.495   1.669  0.6532 -0.4283 -0.4457
  861MOL0     C18733   9.617   4.762   2.340 -0.1251  0.3984 -0.3527
  861MOL0     C18734   9.483   4.796   2.352  0.3974  0.7933  0.4059
  861MOL0     C18735   9.121   5.050   2.456  0.0586  0.1646  0.3818
  861MOL0     C18736   9.020   5.016   2.359 -0.2625  0.7232  0.2582
  861MOL0     C18737   8.886   5.060   2.377 -0.5667  0.4420  1.1585
  861MOL0     C18738   8.846   5.131   2.487  0.1270 -0.3417 -0.3471
  861MOL0     O18739   8.716   5.184   2.510 -0.1991 -0.4647 -0.0330
  861MOL0     C18740   8.613   5.146   2.418 -0.1477 -0.8043  0.2547
  861MOL0     C18741   8.477   5.216   2.456  0.0543  0.4319  0.3018
  861MOL0     C18742   8.369   5.159   2.364  0.7691 -0.4408 -0.0986
  861MOL0     C18743   8.229   5.209   2.399  0.7673  0.2609 -0.1851
  861MOL0     C18744   8.196   5.156   2.530 -0.4888  0.2931 -0.3752
  861MOL0     C18745   8.150   5.114   2.637  0.1112 -0.6138  1.3797
  861MOL0     C18746   8.942   5.171   2.577 -0.5108 -0.1372  0.4186
  861MOL0     C18747   9.078   5.126   2.566 -0.2360  0.2808  0.0814
  861MOL0     C18748   9.160   5.177   2.686  0.2738  0.2973  0.0581
  861MOL0     H18749   9.480   5.085   2.184 -0.1486 -0.2148 -1.0388
  861MOL0     H18750   9.719   5.039   2.166 -1.9129  1.7103  0.1406
  861MOL0     H18751   9.869   4.698   2.418 -1.1806 -0.1089 -0.1610
  861MOL0     H18752  10.019   4.716   2.332 -0.2002 -0.4748 -3.2639
  861MOL0     H18753   9.912   4.495   2.319  2.0708 -0.3914 -1.3764
  861MOL0     H18754   9.779   4.568   2.222  0.6563 -1.2090 -0.6707
  861MOL0     H18755   9.891   4.502   2.052 -2.4205  0.0037  1.9627
  861MOL0     H18756   9.982   4.658   2.075 -1.3567  0.7345  1.0880
  861MOL0     H18757  10.166   4.543   2.196  0.9334 -1.5171  0.4523
  861MOL0     H18758  10.081   4.391   2.172 -0.1583 -0.0717 -0.9099
  861MOL0     H18759  10.191   4.573   1.946  0.4153 -0.3370 -2.2934
  861MOL0     H18760  10.095   4.429   1.920  2.1978 -0.6725 -0.6634
  861MOL0     H18761  10.339   4.409   2.090  0.2165  1.2673  0.0786
  861MOL0     H18762  10.235   4.279   2.037 -0.1722  0.3670 -1.1134
  861MOL0     H18763  10.314   4.362   1.787  0.9445  0.8961 -0.6412
  861MOL0     H18764  10.404   4.244   1.885  0.4631 -0.7505  1.5897
  861MOL0     H18765  10.455   4.539   1.908  1.4524  0.8400  1.9535
  861MOL0     H18766  10.542   4.410   1.983  0.4988 -2.0409 -1.4471
  861MOL0     H18767  10.702   4.247   1.842 -2.0038  0.9288  1.0771
  861MOL0     H18768  10.843   4.247   1.510  1.9553  0.6064 -0.2009
  861MOL0     H18769  10.837   4.153   1.660  2.0339  0.3798  2.5553
  861MOL0     H18770  11.007   4.324   1.753 -4.2302  1.7644  0.6721
  861MOL0     H18771  11.070   4.220   1.621  1.0803  0.0243  1.9693
  861MOL0     H18772  10.961   4.495   1.558 -0.3643 -0.9037 -1.6843
  861MOL0     H18773  11.134   4.485   1.606 -0.4220  0.4232 -0.4677
  861MOL0     H18774  11.165   4.320   1.421 -1.4021 -1.7119 -1.4607
  861MOL0     H18775  10.991   4.340   1.383  0.6016 -0.8647 -0.3266
  861MOL0     H18776  11.109   4.764   1.317  0.5646 -0.7450 -0.6893
  861MOL0     H18777  11.334   4.998   1.421 -3.2772 -1.7651  0.7400
  861MOL0     H18778  11.209   4.971   1.307  0.2422 -0.8865 -0.9353
  861MOL0     H18779  11.369   5.002   1.244  0.3904  0.6256 -0.5308
  861MOL0     H18780  11.886   4.642   1.510 -2.4037  2.3910  0.9058
  861MOL0     H18781  12.116   4.735   1.550 -0.4298 -1.2473 -0.2922
  861MOL0     H18782  12.267   5.048   1.277 -0.3317 -0.3180  0.8284
  861MOL0     H18783  12.162   5.101   1.404 -1.2288  0.6481 -3.8441
  861MOL0     H18784  12.411   5.198   1.387  0.6541  0.5671  0.2597
  861MOL0     H18785  12.368   5.130   1.545  2.7543 -1.1888 -0.6705
  861MOL0     H18786  12.595   5.073   1.435 -1.7071  2.0198 -1.6031
  861MOL0     H18787  12.505   4.965   1.340 -2.0759  0.2244  0.1042
  861MOL0     H18788  12.508   4.810   1.503 -0.2467  0.7595  0.3346
  861MOL0     H18789  12.397   4.903   1.593  0.8211 -0.4061  0.9098
  861MOL0     H18790  12.696   4.942   1.607 -1.3250 -1.3696 -1.9906
  861MOL0     H18791  12.589   5.028   1.711  2.3987  1.3163 -0.0465
  861MOL0     H18792  12.518   4.772   1.781  0.7863 -0.7500 -0.3087
  861MOL0     H18793  12.673   4.861   1.836  0.0066  1.8154 -0.5285
  861MOL0     H18794  12.644   4.629   1.635  2.2156 -1.1992  0.5456
  861MOL0     H18795  12.713   4.637   1.801  1.7683 -1.8437 -1.0792
  861MOL0     H18796  12.889   4.796   1.687  1.8377 -0.1329 -1.0653
  861MOL0     H18797  12.816   4.754   1.530 -2.9426  1.6998  0.8030
  861MOL0     H18798  12.062   5.004   1.225  0.3205 -0.9590 -0.1886
  861MOL0     H18799  11.812   4.906   1.178 -1.7411 -1.1802 -0.1180
  861MOL0     H18800  11.541   4.542   1.362 -1.1601 -2.3479 -2.1115
  861MOL0     H18801  11.352   4.416   1.382 -0.1944  0.7227  2.4791
  861MOL0     H18802   9.639   4.667   2.388  0.7614  0.5377 -0.4539
  861MOL0     H18803   9.416   4.735   2.412  0.0277 -1.4917 -2.1106
  861MOL0     H18804   9.043   4.957   2.271  0.0119  0.1664  0.6921
  861MOL0     H18805   8.823   5.021   2.297  3.0829  0.5034 -2.0129
  861MOL0     H18806   8.643   5.157   2.313 -0.6352  0.8570  0.2712
  861MOL0     H18807   8.583   5.042   2.435 -3.5827  0.3890  2.7785
  861MOL0     H18808   8.490   5.323   2.439  2.2535  0.2012  0.2568
  861MOL0     H18809   8.451   5.198   2.561  0.4379 -0.3841  0.2663
  861MOL0     H18810   8.394   5.182   2.260 -1.5060  1.6560 -0.2902
  861MOL0     H18811   8.374   5.050   2.368  1.2317 -0.4346 -0.5438
  861MOL0     H18812   8.152   5.172   2.331  2.5912  1.1209 -2.8665
  861MOL0     H18813   8.220   5.318   2.403 -1.7281  0.2596 -2.5950
  861MOL0     H18814   8.106   5.089   2.732 -1.8945 -1.5586  0.2580
  861MOL0     H18815   8.905   5.227   2.663 -0.5899 -0.1524  0.3936
  861MOL0     H18816   9.228   5.098   2.722 -0.0934  0.7222  1.7906
  861MOL0     H18817   9.213   5.267   2.654  0.4604  1.5289  3.3852
  861MOL0     H18818   9.095   5.199   2.772  2.1090 -1.1208  1.9269
  862MOL0     O18819   4.407   0.126   1.961 -0.3407 -0.0166  0.4104
  862MOL0     C18820   4.353   0.228   2.003 -0.3156  0.4030  1.1382
  862MOL0     O18821   4.417   0.331   2.068  0.4187 -0.0416 -0.2619
  862MOL0     C18822   4.552   0.337   2.086 -0.3631 -0.3531  1.0579
  862MOL0     C18823   4.652   0.280   2.008  0.3164  1.4028  0.0826
  862MOL0     C18824   4.782   0.292   2.044 -0.3435 -1.0971 -0.2233
  862MOL0     C18825   4.823   0.368   2.152 -0.1019  0.2155  0.7220
  862MOL0     O18826   4.956   0.371   2.169 -0.5189 -0.2677  0.1215
  862MOL0     C18827   5.004   0.435   2.288  0.5151 -0.1167 -0.0674
  862MOL0     C18828   5.154   0.420   2.273 -0.1030 -0.2579 -0.2166
  862MOL0     C18829   5.244   0.448   2.392 -0.1317  0.0551 -0.1024
  862MOL0     C18830   5.178   0.404   2.527 -0.3314 -0.5022  0.6064
  862MOL0     C18831   5.282   0.399   2.640 -0.2987  0.0355 -0.9106
  862MOL0     C18832   5.233   0.358   2.785 -0.2942 -0.1240  0.6434
  862MOL0     C18833   5.163   0.219   2.790  0.3626  0.6309  0.2784
  862MOL0     C18834   5.127   0.159   2.931  0.3540  0.5708 -0.3398
  862MOL0     N18835   5.252   0.120   3.000  0.4209 -0.2833 -0.0721
  862MOL0     C18836   5.292   0.181   3.115 -0.3748  0.4983 -0.8772
  862MOL0     C18837   5.415   0.129   3.141  0.2110 -0.2869  0.0879
  862MOL0     C18838   5.501   0.148   3.260  0.6447  0.6972  1.0710
  862MOL0     C18839   5.579   0.278   3.257  0.7991  0.1085  0.3500
  862MOL0     C18840   5.687   0.268   3.373 -0.0229  0.7210 -0.8196
  862MOL0     C18841   5.636   0.295   3.517 -0.2067  0.3643  0.2202
  862MOL0     O18842   5.656   0.431   3.549 -0.4354  0.0333 -0.1175
  862MOL0     C18843   5.782   0.472   3.578 -0.1109  0.0178 -0.3161
  862MOL0     C18844   5.809   0.605   3.625  0.0025 -0.3937  0.0144
  862MOL0     C18845   5.935   0.659   3.658 -0.4777  0.1524 -0.4812
  862MOL0     C18846   5.946   0.801   3.714  0.5914 -0.3620  0.5616
  862MOL0     C18847   6.048   0.573   3.635  0.9482 -0.2689 -0.1637
  862MOL0     C18848   6.183   0.615   3.671 -0.8116 -0.0102  1.0098
  862MOL0     O18849   6.225   0.744   3.658  0.1641  0.5909 -0.5931
  862MOL0     C18850   6.345   0.789   3.719 -0.0124 -0.4737 -0.1314
  862MOL0     C18851   6.466   0.720   3.709  0.4069 -0.2292 -0.1371
  862MOL0     C18852   6.582   0.783   3.761 -0.2605 -0.4664 -0.1256
  862MOL0     C18853   6.592   0.913   3.813 -0.2552 -0.1932  0.9911
  862MOL0     O18854   6.708   0.975   3.861 -0.0180 -0.5122  0.3561
  862MOL0     C18855   6.815   0.882   3.912  0.2511 -0.2170 -0.2396
  862MOL0     C18856   6.902   0.959   4.012 -0.7960  0.5357  0.0293
  862MOL0     C18857   6.990   0.860   4.091 -0.2186  0.0332 -0.0370
  862MOL0     C18858   7.108   0.835   3.991  0.6392 -0.0755  0.2124
  862MOL0     C18859   7.225   0.756   4.038 -0.4642  0.1595 -0.2262
  862MOL0     C18860   7.192   0.611   4.063 -0.1746  0.2155  0.4780
  862MOL0     C18861   7.317   0.515   4.077 -0.2351  0.1399  0.8900
  862MOL0     C18862   7.409   0.538   4.207 -0.0100  0.0463 -0.5478
  862MOL0    Cl18863   7.573   0.503   4.174 -0.4205  0.1441  0.3151
  862MOL0     C18864   6.479   0.987   3.820 -0.2782  0.1697  0.1443
  862MOL0     C18865   6.354   0.925   3.775 -0.5427 -0.4774  0.8461
  862MOL0     O18866   6.250   0.524   3.713 -0.2349 -0.1595  0.0352
  862MOL0     C18867   6.023   0.439   3.598  0.1974  0.0552 -0.1543
  862MOL0     C18868   5.893   0.385   3.567  0.5321 -0.6800 -0.1689
  862MOL0     N18869   5.444   0.049   3.036  0.4139  0.2619 -0.4261
  862MOL0     N18870   5.348   0.038   2.946 -0.1065  0.1230 -0.6777
  862MOL0     C18871   4.721   0.425   2.234 -0.0746 -0.4366  0.1387
  862MOL0     C18872   4.589   0.416   2.196  0.4429  0.6539 -0.2551
  862MOL0     C18873   4.209   0.239   1.988  0.0627 -0.5867  1.2728
  862MOL0     C18874   4.144   0.356   2.043 -1.3269 -0.1282  0.2129
  862MOL0     C18875   4.005   0.372   2.043 -0.2317 -0.8377 -0.0826
  862MOL0     C18876   3.924   0.273   1.984  0.1848 -0.0095  0.1768
  862MOL0     O18877   3.788   0.304   1.983  0.5227  0.1505 -0.4410
  862MOL0     C18878   3.696   0.202   1.956  0.1655 -0.1057 -0.2678
  862MOL0     C18879   3.562   0.242   2.013  0.7528  0.0386 -0.1160
  862MOL0     C18880   3.457   0.138   1.983  0.5587  0.0454  0.2234
  862MOL0     C18881   3.317   0.186   2.040 -0.1038  0.3941 -0.0681
  862MOL0     C18882   3.208   0.099   1.995 -0.2953  0.2129  0.7569
  862MOL0     C18883   3.116   0.029   1.963  0.6939 -0.0748  0.2399
  862MOL0     C18884   3.983   0.163   1.927  0.2475  0.8322 -0.6141
  862MOL0     C18885   4.121   0.139   1.925  0.1299 -0.2873 -0.5554
  862MOL0     C18886   4.175   0.007   1.859  0.0817 -0.7916 -0.8621
  862MOL0     H18887   4.628   0.233   1.913  0.7285  1.3222  0.0146
  862MOL0     H18888   4.860   0.238   1.992  0.4115 -0.5398  0.3158
  862MOL0     H18889   4.970   0.387   2.380 -1.0402  1.0370 -0.0136
  862MOL0     H18890   4.972   0.539   2.293 -1.5802 -0.7038 -0.0411
  862MOL0     H18891   5.178   0.316   2.248  2.1224  0.3101 -0.6180
  862MOL0     H18892   5.185   0.479   2.187 -1.3884  0.2005 -0.3857
  862MOL0     H18893   5.339   0.394   2.390  1.4178  2.6037 -2.0910
  862MOL0     H18894   5.277   0.553   2.397 -0.8783  0.5582 -3.4061
  862MOL0     H18895   5.101   0.479   2.548 -2.7565 -1.6220 -3.3355
  862MOL0     H18896   5.136   0.304   2.526 -0.5082 -0.4314  0.8027
  862MOL0     H18897   5.327   0.499   2.653  0.9307 -0.7067  1.1504
  862MOL0     H18898   5.371   0.336   2.629  0.6320  1.2449 -0.6991
  862MOL0     H18899   5.322   0.355   2.848 -0.6690 -1.1472  1.1415
  862MOL0     H18900   5.166   0.427   2.836  1.3383  0.7888  1.6522
  862MOL0     H18901   5.239   0.154   2.745  0.5721  0.2385  1.1754
  862MOL0     H18902   5.072   0.218   2.729  0.8903 -1.5366 -0.5501
  862MOL0     H18903   5.063   0.235   2.977  0.2423  1.2248 -1.5491
  862MOL0     H18904   5.071   0.065   2.928 -0.6958  1.0342  1.9399
  862MOL0     H18905   5.236   0.240   3.188  1.4029  0.2998  0.7285
  862MOL0     H18906   5.568   0.062   3.270  1.1459  1.0820  1.0513
  862MOL0     H18907   5.429   0.151   3.342 -1.6649 -1.9923 -0.6707
  862MOL0     H18908   5.640   0.286   3.166 -0.8511  0.7078 -0.7476
  862MOL0     H18909   5.505   0.359   3.259 -1.2315 -1.6822  0.5902
  862MOL0     H18910   5.743   0.174   3.382  3.1182  2.5927  0.8195
  862MOL0     H18911   5.758   0.342   3.336 -0.0645  1.1242 -0.1068
  862MOL0     H18912   5.531   0.266   3.521  0.1259 -0.7587  2.5147
  862MOL0     H18913   5.683   0.229   3.590 -0.6976  1.1426  1.2686
  862MOL0     H18914   5.716   0.657   3.649 -1.2592 -2.5984  0.2193
  862MOL0     H18915   6.004   0.803   3.806 -1.2472 -0.1657  1.7609
  862MOL0     H18916   5.852   0.854   3.734 -0.8924 -1.4867 -2.6714
  862MOL0     H18917   6.007   0.864   3.649 -0.1331 -1.2593 -1.0608
  862MOL0     H18918   6.464   0.621   3.664  0.1065 -1.2369  1.9612
  862MOL0     H18919   6.674   0.725   3.758  0.0339 -0.0474  0.5211
  862MOL0     H18920   6.762   0.799   3.959 -0.8693  0.0110 -1.0642
  862MOL0     H18921   6.882   0.838   3.838  0.1439 -0.7395 -0.0309
  862MOL0     H18922   6.961   1.038   3.965 -0.7163  0.7264  0.4533
  862MOL0     H18923   6.838   1.010   4.084 -0.3735 -1.2528  1.7666
  862MOL0     H18924   6.932   0.770   4.116 -0.7210  0.6868  1.3172
  862MOL0     H18925   7.028   0.906   4.183 -2.3633  1.6059  0.1386
  862MOL0     H18926   7.146   0.927   3.945 -1.5358 -0.1579 -1.9874
  862MOL0     H18927   7.069   0.773   3.910  1.5790 -0.1201 -0.2176
  862MOL0     H18928   7.293   0.770   3.953  0.7307 -0.1506  0.6428
  862MOL0     H18929   7.273   0.808   4.121  1.4893 -0.8040 -0.6706
  862MOL0     H18930   7.155   0.572   3.968 -0.1070  1.1404  0.0580
  862MOL0     H18931   7.120   0.596   4.143 -0.6445 -0.3924 -0.0486
  862MOL0     H18932   7.382   0.539   3.992 -2.1823  0.8098 -0.4758
  862MOL0     H18933   7.285   0.411   4.083  0.3891 -0.1566 -0.3980
  862MOL0     H18934   7.378   0.469   4.286  1.9348 -0.6567 -0.3645
  862MOL0     H18935   7.401   0.643   4.238  3.0833  0.0724  0.4716
  862MOL0     H18936   6.474   1.086   3.865 -1.8369 -0.2566  0.9823
  862MOL0     H18937   6.258   0.975   3.780 -1.5792 -2.1205 -1.0260
  862MOL0     H18938   6.108   0.372   3.587 -0.2228 -0.6424  0.7984
  862MOL0     H18939   5.911   0.283   3.535  3.6658 -0.3693  0.1923
  862MOL0     H18940   4.740   0.479   2.326  1.2097  0.8687 -0.8538
  862MOL0     H18941   4.513   0.463   2.257  0.5309  2.5141 -1.4869
  862MOL0     H18942   4.213   0.429   2.085 -0.3071 -0.6753 -0.4856
  862MOL0     H18943   3.956   0.462   2.079 -0.3341 -1.2334  0.7973
  862MOL0     H18944   3.689   0.159   1.855 -0.6244  0.1973 -0.3492
  862MOL0     H18945   3.736   0.122   2.019 -1.7415  0.9886  2.5083
  862MOL0     H18946   3.525   0.333   1.965 -0.0370 -0.1022  0.2109
  862MOL0     H18947   3.573   0.248   2.121 -0.1639 -1.0873  0.0636
  862MOL0     H18948   3.444   0.124   1.875 -1.5683 -0.4168  0.4858
  862MOL0     H18949   3.490   0.048   2.036  2.3888  0.3147 -0.4039
  862MOL0     H18950   3.299   0.286   1.999  1.2573  1.5320  1.8800
  862MOL0     H18951   3.307   0.191   2.149 -3.3473 -0.5135 -0.1919
  862MOL0     H18952   3.032  -0.032   1.935 -0.9415  2.5408 -0.9347
  862MOL0     H18953   3.918   0.095   1.872 -1.4486 -1.2613  3.4778
  862MOL0     H18954   4.103  -0.055   1.804 -2.0343 -0.2406  1.1476
  862MOL0     H18955   4.266   0.027   1.801  1.8903 -0.3110  1.9037
  862MOL0     H18956   4.204  -0.044   1.951 -1.1836  1.4137  0.8536
  863MOL0     O18957   4.626   3.736   1.196  0.7850 -0.1875 -0.2571
  863MOL0     C18958   4.527   3.772   1.266 -1.0971 -0.6694 -0.5905
  863MOL0     O18959   4.515   3.888   1.340 -0.1756  0.9529  0.2124
  863MOL0     C18960   4.625   3.964   1.339  0.0685 -0.9580  0.0159
  863MOL0     C18961   4.656   4.040   1.223  0.4346 -0.1492 -0.3813
  863MOL0     C18962   4.774   4.120   1.226  0.9067  0.3167  0.5393
  863MOL0     C18963   4.865   4.121   1.333 -1.2738 -0.3989  0.6134
  863MOL0     O18964   4.970   4.203   1.318  0.2926  0.2525 -0.2685
  863MOL0     C18965   5.089   4.190   1.403  0.3761  0.1291 -0.2553
  863MOL0     C18966   5.197   4.240   1.304  0.7128 -0.1644 -0.5371
  863MOL0     C18967   5.331   4.236   1.381 -1.1096 -0.3688  0.3686
  863MOL0     C18968   5.377   4.080   1.407  0.0662  0.0866 -0.3704
  863MOL0     C18969   5.532   4.062   1.395  0.3314 -0.1616 -0.3525
  863MOL0     C18970   5.565   3.910   1.421  0.0440 -1.0068  0.2625
  863MOL0     C18971   5.710   3.876   1.403 -0.8187  0.8124  0.2655
  863MOL0     C18972   5.733   3.717   1.428 -0.2399  0.8770 -0.7761
  863MOL0     N18973   5.869   3.674   1.394 -0.6964  0.2033  0.6952
  863MOL0     C18974   5.976   3.700   1.472 -0.0088  0.1253  0.9290
  863MOL0     C18975   6.081   3.641   1.416  0.3397  0.4101 -0.1327
  863MOL0     C18976   6.207   3.638   1.491 -0.5145 -0.7617 -0.0435
  863MOL0     C18977   6.209   3.533   1.601  0.4493  1.0080  0.2121
  863MOL0     C18978   6.332   3.556   1.699  0.5756 -0.0921 -0.2904
  863MOL0     C18979   6.465   3.539   1.631 -0.1513 -0.1081 -0.0596
  863MOL0     O18980   6.480   3.402   1.585 -0.1869 -0.1763  0.8083
  863MOL0     C18981   6.582   3.371   1.501  0.3367  0.3827 -0.1983
  863MOL0     C18982   6.705   3.435   1.497 -0.6489  1.6750 -0.1618
  863MOL0     C18983   6.811   3.395   1.408  0.0582 -0.0155  0.8011
  863MOL0     C18984   6.933   3.483   1.407  0.8034 -0.0456 -0.6202
  863MOL0     C18985   6.794   3.276   1.326 -0.1742 -0.0035 -0.4166
  863MOL0     C18986   6.897   3.222   1.234  0.4579 -0.0923  0.1572
  863MOL0     O18987   7.033   3.242   1.276 -0.7541  1.0959 -0.3229
  863MOL0     C18988   7.126   3.185   1.202 -0.0927  0.3627 -0.0871
  863MOL0     C18989   7.243   3.262   1.177  0.1885  0.1535  1.4314
  863MOL0     C18990   7.359   3.201   1.129 -0.5013  0.6353 -0.0190
  863MOL0     C18991   7.360   3.059   1.111 -0.8273 -1.1551  0.1524
  863MOL0     O18992   7.464   2.992   1.053  0.2763  0.0904  0.5721
  863MOL0     C18993   7.594   3.046   1.076 -0.3390  0.1680 -0.5358
  863MOL0     C18994   7.691   2.938   1.049  0.7649  0.1789  0.8564
  863MOL0     C18995   7.832   2.986   1.076  0.8933  0.5996  0.0341
  863MOL0     C18996   7.934   2.881   1.063  0.3019 -0.5360  0.0968
  863MOL0     C18997   7.950   2.841   0.910 -0.4068  0.2442  0.9181
  863MOL0     C18998   8.087   2.786   0.885  0.0927 -0.9476 -0.7744
  863MOL0     C18999   8.130   2.663   0.966 -0.1695  0.1361  0.1596
  863MOL0     C19000   8.218   2.575   0.876 -0.3158  0.1227 -0.0100
  863MOL0    Cl19001   8.337   2.676   0.775  0.4984  0.4317 -0.2983
  863MOL0     C19002   7.241   2.981   1.147 -0.9723 -0.0160  0.3540
  863MOL0     C19003   7.131   3.047   1.195 -0.0274 -0.2046 -0.2015
  863MOL0     O19004   6.854   3.195   1.120 -0.4964 -0.1493  0.8285
  863MOL0     C19005   6.659   3.219   1.332 -1.2011  0.4822 -0.3604
  863MOL0     C19006   6.564   3.265   1.413 -0.7556 -0.5803  0.7369
  863MOL0     N19007   6.030   3.584   1.301  0.0820  0.6292 -0.1274
  863MOL0     N19008   5.903   3.599   1.286  0.3223 -0.3142 -0.0431
  863MOL0     C19009   4.824   4.046   1.449 -0.1827  0.0459  0.3619
  863MOL0     C19010   4.715   3.960   1.447  0.2754 -0.0510 -0.0314
  863MOL0     C19011   4.410   3.678   1.271 -0.1844 -0.0827 -0.1312
  863MOL0     C19012   4.298   3.717   1.342  0.1884 -0.0629 -0.7789
  863MOL0     C19013   4.177   3.646   1.344  0.1154 -0.7309  0.7745
  863MOL0     C19014   4.172   3.525   1.281 -0.5633  0.3243  0.5948
  863MOL0     O19015   4.063   3.443   1.277 -0.6329  0.3695 -0.2049
  863MOL0     C19016   3.938   3.495   1.311 -0.6351 -0.5401 -0.0596
  863MOL0     C19017   3.837   3.385   1.255  0.0461  0.5554 -0.4256
  863MOL0     C19018   3.686   3.422   1.286  0.3464 -0.1785  0.4374
  863MOL0     C19019   3.652   3.402   1.431 -0.1646 -0.0252  0.4017
  863MOL0     C19020   3.509   3.416   1.450  0.7546  1.0543 -0.7104
  863MOL0     C19021   3.393   3.422   1.470  0.6280  0.1293 -0.4952
  863MOL0     C19022   4.280   3.481   1.211  0.5804  0.1890 -0.2286
  863MOL0     C19023   4.399   3.551   1.200 -0.0400 -0.5664  0.0696
  863MOL0     C19024   4.519   3.489   1.137  0.1388 -0.3580  0.4289
  863MOL0     H19025   4.591   4.033   1.137  0.6622 -0.0690 -0.5613
  863MOL0     H19026   4.801   4.176   1.137 -0.3766  0.3757  0.1685
  863MOL0     H19027   5.097   4.083   1.426  2.9534  0.5082  1.0407
  863MOL0     H19028   5.084   4.249   1.495 -1.2736 -2.1788  1.2668
  863MOL0     H19029   5.199   4.164   1.226  0.1791 -2.8313  1.8646
  863MOL0     H19030   5.182   4.345   1.277  1.2526  0.1688  0.4156
  863MOL0     H19031   5.407   4.273   1.311  0.4351  0.2931  2.3061
  863MOL0     H19032   5.337   4.289   1.476  1.0561 -1.6627  1.0381
  863MOL0     H19033   5.347   4.043   1.505  0.2948  1.4466  0.2317
  863MOL0     H19034   5.324   4.020   1.332 -2.6577  2.5437 -0.5590
  863MOL0     H19035   5.580   4.118   1.476 -0.8123 -0.5858  0.6390
  863MOL0     H19036   5.572   4.101   1.301  2.3430 -0.0509  0.4967
  863MOL0     H19037   5.544   3.893   1.526  1.1059  1.0312  0.8693
  863MOL0     H19038   5.505   3.847   1.355 -0.2034  1.1665 -1.7629
  863MOL0     H19039   5.777   3.932   1.468  0.5942 -0.0610 -0.3860
  863MOL0     H19040   5.745   3.907   1.304 -3.1459  1.8670 -0.2922
  863MOL0     H19041   5.709   3.684   1.529  0.7184  2.9646  0.2087
  863MOL0     H19042   5.669   3.664   1.357  1.4927  0.1980 -1.9239
  863MOL0     H19043   5.982   3.752   1.567  0.9149  1.0567  0.3831
  863MOL0     H19044   6.233   3.734   1.536  3.4673 -0.7919 -1.8930
  863MOL0     H19045   6.286   3.618   1.419 -0.7523  0.1844 -0.5775
  863MOL0     H19046   6.111   3.534   1.651  0.4237  2.5702  0.1706
  863MOL0     H19047   6.217   3.435   1.553 -3.4570  0.1996  0.8770
  863MOL0     H19048   6.332   3.660   1.734 -2.7558 -1.0651  3.2296
  863MOL0     H19049   6.324   3.490   1.786 -0.5267  1.3914  0.7865
  863MOL0     H19050   6.464   3.616   1.553 -1.6353  0.9742  0.9862
  863MOL0     H19051   6.548   3.568   1.696 -1.1720 -0.8771  1.6433
  863MOL0     H19052   6.724   3.515   1.569 -0.0135  3.0004 -1.7531
  863MOL0     H19053   6.971   3.490   1.304  3.0198  2.3319  0.2563
  863MOL0     H19054   6.996   3.429   1.478 -2.1770 -1.6228  1.0207
  863MOL0     H19055   6.920   3.587   1.437 -0.4875  0.1620 -1.7583
  863MOL0     H19056   7.251   3.370   1.186  0.9081 -0.0632  4.5071
  863MOL0     H19057   7.443   3.263   1.099  0.2766  0.3326  1.4243
  863MOL0     H19058   7.608   3.132   1.010 -0.6679  1.2469  0.7517
  863MOL0     H19059   7.609   3.067   1.183  0.1924 -1.3685 -0.2945
  863MOL0     H19060   7.660   2.858   1.117 -0.2320 -0.2232 -0.0409
  863MOL0     H19061   7.689   2.912   0.943 -0.8916 -0.6187  1.0556
  863MOL0     H19062   7.829   3.028   1.177 -0.8103 -0.7415  0.5940
  863MOL0     H19063   7.859   3.068   1.009 -0.1683 -0.4700 -1.7892
  863MOL0     H19064   7.893   2.797   1.120 -3.9007  1.2161  0.0051
  863MOL0     H19065   8.026   2.920   1.107  1.5524 -2.8617 -0.2659
  863MOL0     H19066   7.874   2.773   0.871 -1.1363  1.8959 -0.6469
  863MOL0     H19067   7.948   2.930   0.848 -2.4109 -1.1696 -1.2060
  863MOL0     H19068   8.162   2.864   0.903 -1.3803  0.3368  0.0563
  863MOL0     H19069   8.091   2.772   0.777 -1.3998  1.9349 -1.2907
  863MOL0     H19070   8.049   2.601   1.005  1.2598 -1.8371  0.1549
  863MOL0     H19071   8.184   2.690   1.058  0.1985  2.4139 -0.6644
  863MOL0     H19072   8.163   2.519   0.800 -1.3940  1.2255 -0.0767
  863MOL0     H19073   8.269   2.498   0.935  1.4431  1.0351 -0.2482
  863MOL0     H19074   7.254   2.874   1.150  1.2078  0.2205  0.8053
  863MOL0     H19075   7.042   2.991   1.223 -1.3692  1.5520 -0.7701
  863MOL0     H19076   6.639   3.138   1.263  1.5807 -1.3895  0.8516
  863MOL0     H19077   6.474   3.211   1.384 -0.9840  2.1249 -4.8350
  863MOL0     H19078   4.891   4.047   1.534 -0.9323 -1.6406  1.0320
  863MOL0     H19079   4.696   3.897   1.534  0.2369  1.6948  1.2653
  863MOL0     H19080   4.283   3.814   1.388 -0.1304 -0.3620 -0.2493
  863MOL0     H19081   4.104   3.698   1.405  1.0872  0.0331  1.3315
  863MOL0     H19082   3.937   3.514   1.418  0.0956 -2.1296  0.2525
  863MOL0     H19083   3.910   3.588   1.261 -2.7185 -0.9885  0.1783
  863MOL0     H19084   3.858   3.290   1.305  0.0408  1.6295  1.7308
  863MOL0     H19085   3.843   3.378   1.146 -0.5398 -0.0915 -0.4240
  863MOL0     H19086   3.661   3.526   1.263  0.5690 -0.5499 -1.6524
  863MOL0     H19087   3.619   3.353   1.235 -1.0791 -0.8454  3.0262
  863MOL0     H19088   3.702   3.463   1.507 -1.0118 -2.6079  3.2309
  863MOL0     H19089   3.681   3.299   1.454 -1.1039 -0.0059  1.7242
  863MOL0     H19090   3.292   3.420   1.505  1.5547 -0.5714  2.5308
  863MOL0     H19091   4.273   3.385   1.161  0.1990 -0.0288  0.2418
  863MOL0     H19092   4.607   3.470   1.201  0.3837 -0.3283  0.1045
  863MOL0     H19093   4.493   3.398   1.082  3.3063 -0.1888 -1.6457
  863MOL0     H19094   4.550   3.554   1.055 -0.7157 -1.0709 -0.4834
  864MOL0     O19095   8.292   8.663   3.602 -0.4261  0.1657  0.1447
  864MOL0     C19096   8.238   8.684   3.713 -0.1906 -0.5443 -0.1841
  864MOL0     O19097   8.285   8.658   3.838 -0.0673  0.1812  0.0658
  864MOL0     C19098   8.415   8.625   3.860 -0.6258 -0.1502  0.2493
  864MOL0     C19099   8.443   8.543   3.970 -0.0417  0.1167 -0.1115
  864MOL0     C19100   8.578   8.507   3.996 -0.1662  0.3749 -0.0659
  864MOL0     C19101   8.684   8.538   3.906 -0.0205 -0.2855 -0.2128
  864MOL0     O19102   8.809   8.484   3.899 -0.6857  0.4385  0.2110
  864MOL0     C19103   8.831   8.368   3.978 -0.5216  0.8734 -0.0678
  864MOL0     C19104   8.940   8.288   3.913  0.1108  0.7926  0.0756
  864MOL0     C19105   9.077   8.352   3.930  0.4448 -0.9923 -0.2352
  864MOL0     C19106   9.187   8.303   3.847 -0.0911 -0.7680 -0.2220
  864MOL0     C19107   9.301   8.247   3.925 -0.6366  0.8871 -0.1335
  864MOL0     C19108   9.267   8.130   4.021 -0.5325 -0.4965 -0.4287
  864MOL0     C19109   9.404   8.085   4.069  0.1999 -0.1685  1.1663
  864MOL0     C19110   9.477   8.005   3.965  0.3691  0.3300 -0.3400
  864MOL0     N19111   9.604   7.957   4.023 -0.7093  0.5989 -0.4902
  864MOL0     C19112   9.720   8.031   4.032 -0.3662  0.7538 -0.2883
  864MOL0     C19113   9.806   7.961   4.110 -0.2392  0.5879 -0.8455
  864MOL0     C19114   9.940   8.019   4.162 -0.1950  0.3668 -0.3951
  864MOL0     C19115  10.015   7.909   4.243  1.3356 -1.0536  0.5006
  864MOL0     C19116  10.131   7.981   4.306  0.8403  0.0501  0.8962
  864MOL0     C19117  10.223   7.892   4.398  0.4088  0.7862 -0.1540
  864MOL0     O19118  10.330   7.972   4.451  0.2993  0.1387 -0.5743
  864MOL0     C19119  10.443   7.916   4.509 -0.1918  0.6046 -0.5054
  864MOL0     C19120  10.551   8.002   4.533  0.1501 -0.0467  0.2404
  864MOL0     C19121  10.667   7.965   4.602  1.7058 -0.5354  0.0787
  864MOL0     C19122  10.773   8.067   4.610  0.5626 -0.2980 -0.4422
  864MOL0     C19123  10.681   7.825   4.637 -0.5651  0.0412  0.2693
  864MOL0     C19124  10.792   7.777   4.719 -0.4730  0.6953  0.4389
  864MOL0     O19125  10.860   7.869   4.787  0.6008  0.2816  0.8783
  864MOL0     C19126  10.979   7.862   4.854  0.1438  0.1098  0.1879
  864MOL0     C19127  11.004   7.979   4.928 -0.7892  0.4151  0.1209
  864MOL0     C19128  11.119   7.986   5.007 -0.2619  0.4499  0.5491
  864MOL0     C19129  11.209   7.885   4.993 -1.0495 -0.2276 -0.6637
  864MOL0     O19130  11.315   7.902   5.075 -0.6793  0.8935 -0.0851
  864MOL0     C19131  11.437   7.888   5.008 -0.4471 -0.1952  0.3141
  864MOL0     C19132  11.515   8.020   5.010 -0.6485  0.0664 -0.8773
  864MOL0     C19133  11.652   8.006   4.946 -0.7482 -0.4524 -0.4057
  864MOL0     C19134  11.743   8.125   4.990 -0.4788  0.5794  0.4120
  864MOL0     C19135  11.886   8.107   4.936 -0.4210 -0.6842  0.4301
  864MOL0     C19136  11.981   8.216   4.981 -1.2105  0.9447 -0.0165
  864MOL0     C19137  12.125   8.187   4.930 -0.5899 -0.1809 -0.5696
  864MOL0     C19138  12.229   8.272   5.017  0.8385  0.4098 -0.1361
  864MOL0    Cl19139  12.204   8.442   4.993  0.2622  0.2233  0.0363
  864MOL0     C19140  11.192   7.772   4.912  0.1461 -0.0913 -0.9077
  864MOL0     C19141  11.071   7.756   4.844 -0.2687  0.0978 -0.9089
  864MOL0     O19142  10.816   7.657   4.721 -0.4690  0.1811  0.0064
  864MOL0     C19143  10.575   7.733   4.605  0.6173 -0.2340  0.0894
  864MOL0     C19144  10.459   7.779   4.542  0.0998  0.5613 -0.2964
  864MOL0     N19145   9.755   7.831   4.134  0.3182 -0.7057  0.2775
  864MOL0     N19146   9.631   7.832   4.080  0.1194  0.1263  0.3519
  864MOL0     C19147   8.652   8.625   3.802  0.1250  0.3317 -0.0139
  864MOL0     C19148   8.518   8.667   3.785  0.0722  0.2980  0.3712
  864MOL0     C19149   8.097   8.726   3.703 -0.1855 -0.2225  0.0411
  864MOL0     C19150   8.010   8.657   3.790  0.1371  0.0699  0.3686
  864MOL0     C19151   7.872   8.670   3.785 -1.0615  0.7393  0.4905
  864MOL0     C19152   7.816   8.762   3.699 -0.1004 -0.9122 -0.2933
  864MOL0     O19153   7.687   8.804   3.700 -0.8441 -0.3648  0.1417
  864MOL0     C19154   7.591   8.722   3.770 -0.3167  0.3600 -0.9518
  864MOL0     C19155   7.460   8.778   3.748  1.0322 -1.0194 -0.6767
  864MOL0     C19156   7.422   8.763   3.608 -0.9640  0.2672  0.7645
  864MOL0     C19157   7.281   8.815   3.591 -0.0673  0.2366  0.9012
  864MOL0     C19158   7.290   8.954   3.552  0.0350 -0.5179  1.0739
  864MOL0     C19159   7.303   9.073   3.521 -0.5824 -0.8100  0.0894
  864MOL0     C19160   7.891   8.822   3.599 -1.2091 -0.1666  0.4724
  864MOL0     C19161   8.036   8.804   3.598 -0.0720 -0.5041  0.0529
  864MOL0     C19162   8.108   8.874   3.487 -0.0974  0.8430  0.4281
  864MOL0     H19163   8.362   8.522   4.039 -0.9801  0.1464 -1.1684
  864MOL0     H19164   8.583   8.449   4.088 -1.8132 -0.9277 -0.7589
  864MOL0     H19165   8.742   8.305   3.991  1.1283 -1.5603  0.0523
  864MOL0     H19166   8.859   8.397   4.079 -3.4913  2.3310  0.4532
  864MOL0     H19167   8.925   8.185   3.947 -4.0216  1.0453 -0.4460
  864MOL0     H19168   8.919   8.287   3.806  3.1564 -0.2711 -0.6256
  864MOL0     H19169   9.059   8.456   3.900 -0.8408 -1.2254 -0.3325
  864MOL0     H19170   9.103   8.347   4.036  0.9316  2.7349 -0.0294
  864MOL0     H19171   9.137   8.229   3.783 -2.7525  0.2198  0.5785
  864MOL0     H19172   9.217   8.383   3.779 -0.9275  0.1552  0.4805
  864MOL0     H19173   9.339   8.328   3.989 -0.5326  1.3922 -0.8164
  864MOL0     H19174   9.373   8.221   3.847 -0.0929 -0.8159  0.9006
  864MOL0     H19175   9.198   8.157   4.101  0.7861 -1.7961  1.2120
  864MOL0     H19176   9.208   8.050   3.977 -1.7657 -0.2003  0.6476
  864MOL0     H19177   9.381   8.022   4.156  3.1586 -0.1305  2.0824
  864MOL0     H19178   9.465   8.170   4.101 -0.5214  0.1868  1.6466
  864MOL0     H19179   9.416   7.918   3.941  1.4386 -0.8993  1.1647
  864MOL0     H19180   9.482   8.058   3.869 -1.7129  0.4478 -0.4296
  864MOL0     H19181   9.737   8.137   4.017 -0.3873  0.8931  0.5918
  864MOL0     H19182   9.915   8.099   4.233 -0.5074 -1.2730  1.4455
  864MOL0     H19183   9.994   8.064   4.079 -0.7460 -1.6409 -1.9187
  864MOL0     H19184   9.948   7.860   4.314  0.0397 -1.5200 -0.9721
  864MOL0     H19185  10.031   7.834   4.165  1.2017  0.0364 -0.6071
  864MOL0     H19186  10.192   8.028   4.227 -0.4921  1.2903  0.5564
  864MOL0     H19187  10.088   8.060   4.369 -0.3103  0.3603 -0.2169
  864MOL0     H19188  10.157   7.853   4.476 -3.1755  0.7462 -2.9425
  864MOL0     H19189  10.260   7.811   4.334 -2.0573 -1.6104  1.2506
  864MOL0     H19190  10.537   8.106   4.508  0.3497 -0.6470 -2.7291
  864MOL0     H19191  10.791   8.104   4.712  0.3226  0.8639 -0.8097
  864MOL0     H19192  10.745   8.156   4.553  1.3586  0.2105 -0.0577
  864MOL0     H19193  10.861   8.015   4.573  1.0129 -0.5655  0.9204
  864MOL0     H19194  10.940   8.066   4.925 -1.7526 -0.2038  1.5530
  864MOL0     H19195  11.131   8.075   5.067  0.3125  0.2736  0.7049
  864MOL0     H19196  11.501   7.806   5.042 -1.7187 -0.9605  0.9365
  864MOL0     H19197  11.416   7.882   4.901 -0.7278 -0.4232  0.3834
  864MOL0     H19198  11.452   8.085   4.948 -0.3984 -0.4478 -1.6745
  864MOL0     H19199  11.511   8.058   5.112 -0.6404  0.6972 -1.1084
  864MOL0     H19200  11.642   8.000   4.838  2.3386  0.5419 -0.8497
  864MOL0     H19201  11.704   7.911   4.962 -0.4695 -0.0870  1.0166
  864MOL0     H19202  11.746   8.138   5.099 -1.7537  0.4947  0.4777
  864MOL0     H19203  11.702   8.219   4.951 -1.3516 -0.1646 -0.5211
  864MOL0     H19204  11.939   8.013   4.955 -0.1217 -0.4143  0.9808
  864MOL0     H19205  11.890   8.119   4.828  0.2078 -1.7566  0.3201
  864MOL0     H19206  11.969   8.208   5.090 -1.8183  2.7672  0.0844
  864MOL0     H19207  11.951   8.317   4.950  0.2731  1.7785  1.0748
  864MOL0     H19208  12.130   8.210   4.823 -3.4203  0.4078 -0.6424
  864MOL0     H19209  12.154   8.082   4.929 -1.3824 -0.4276  0.5769
  864MOL0     H19210  12.330   8.245   4.985  0.8034 -0.4179  0.4171
  864MOL0     H19211  12.217   8.249   5.123 -1.0014  0.4317 -0.2980
  864MOL0     H19212  11.273   7.700   4.901 -1.6977 -2.6499  1.1893
  864MOL0     H19213  11.042   7.673   4.780 -0.1679 -0.4527 -0.2533
  864MOL0     H19214  10.577   7.631   4.642  0.6910 -0.6731 -1.0939
  864MOL0     H19215  10.380   7.707   4.522 -1.3977  2.1993 -0.4805
  864MOL0     H19216   8.725   8.660   3.730 -0.5992  1.2365 -0.3261
  864MOL0     H19217   8.495   8.738   3.706  1.6900  0.6361  0.1695
  864MOL0     H19218   8.059   8.594   3.864  0.8913 -0.4218 -0.5396
  864MOL0     H19219   7.817   8.619   3.863  0.2739  2.6268  2.7937
  864MOL0     H19220   7.590   8.619   3.736  1.8132 -0.1208  0.2139
  864MOL0     H19221   7.614   8.725   3.877 -2.1869 -2.0336 -0.4089
  864MOL0     H19222   7.460   8.884   3.775  0.6315 -0.4971 -2.6202
  864MOL0     H19223   7.388   8.721   3.808  0.8224 -1.9867 -1.8130
  864MOL0     H19224   7.494   8.817   3.547  0.4643 -2.0913  0.2404
  864MOL0     H19225   7.435   8.656   3.587  1.3731  0.6785 -0.1856
  864MOL0     H19226   7.220   8.800   3.681  0.2875 -1.4081  0.8838
  864MOL0     H19227   7.232   8.769   3.505  0.2246  1.9383 -0.2294
  864MOL0     H19228   7.324   9.172   3.486  0.5900  0.2607  3.3996
  864MOL0     H19229   7.826   8.871   3.527 -1.2391 -1.1004 -0.1526
  864MOL0     H19230   8.111   8.809   3.400  0.8354 -0.3545  1.3156
  864MOL0     H19231   8.070   8.972   3.456  0.1388  0.6372 -0.5432
  864MOL0     H19232   8.214   8.888   3.510  0.5289  0.3147 -1.8962
  865MOL0     O19233   4.116   4.357   9.273 -0.0525 -0.4860 -0.2793
  865MOL0     C19234   3.990   4.358   9.248 -1.3464 -0.1867  0.3185
  865MOL0     O19235   3.935   4.438   9.147  0.5249  0.2154 -0.1373
  865MOL0     C19236   4.011   4.533   9.086 -0.7316  0.2517  0.7378
  865MOL0     C19237   4.102   4.489   8.989  0.2285 -0.9727  0.2461
  865MOL0     C19238   4.197   4.583   8.930  0.0059  0.3643  0.1944
  865MOL0     C19239   4.193   4.717   8.961 -1.4241  0.1846  0.1392
  865MOL0     O19240   4.279   4.796   8.887  0.5263  0.6656  0.4611
  865MOL0     C19241   4.276   4.935   8.913  0.0430  1.3063 -0.7668
  865MOL0     C19242   4.343   5.015   8.791 -0.5318 -0.5683 -0.2634
  865MOL0     C19243   4.487   4.961   8.771 -0.3491  0.4075  0.0936
  865MOL0     C19244   4.567   5.048   8.673 -0.1728 -0.4792 -0.0335
  865MOL0     C19245   4.707   4.994   8.645 -0.4271  1.1637  0.2820
  865MOL0     C19246   4.808   5.092   8.593 -1.4347  0.8601 -0.2973
  865MOL0     C19247   4.948   5.030   8.566  0.2761  0.0591 -0.2312
  865MOL0     C19248   5.065   5.126   8.528  0.4639 -0.3173  0.4772
  865MOL0     N19249   5.098   5.229   8.630 -0.1811  0.1016  0.4225
  865MOL0     C19250   5.212   5.228   8.708  0.0185 -0.3729  0.3486
  865MOL0     C19251   5.183   5.316   8.809 -1.2293  0.1915  0.7713
  865MOL0     C19252   5.266   5.338   8.936  0.5731 -0.0735 -0.6755
  865MOL0     C19253   5.264   5.219   9.026  0.1449  0.2158 -0.5151
  865MOL0     C19254   5.372   5.208   9.137 -0.3028  0.2910 -0.0539
  865MOL0     C19255   5.480   5.108   9.081  0.4996 -0.7624 -0.1026
  865MOL0     O19256   5.532   5.158   8.955  0.3681 -0.3916  0.0220
  865MOL0     C19257   5.644   5.098   8.908  0.0141  0.9920  0.0123
  865MOL0     C19258   5.738   5.177   8.851 -0.8461  0.2742 -0.0753
  865MOL0     C19259   5.847   5.126   8.779 -0.8158 -0.0523  0.0680
  865MOL0     C19260   5.931   5.221   8.715 -0.5158 -0.2382 -0.0611
  865MOL0     C19261   5.852   4.987   8.762 -0.4784  0.0339  0.3094
  865MOL0     C19262   5.957   4.925   8.672 -0.5420  0.3432 -0.6695
  865MOL0     O19263   6.086   4.955   8.699  0.7043 -0.2462  0.1032
  865MOL0     C19264   6.189   4.874   8.657 -0.5375  0.8342  0.6330
  865MOL0     C19265   6.186   4.733   8.653 -0.8545  0.0125 -0.1365
  865MOL0     C19266   6.307   4.667   8.626  0.7572  0.0099  0.1345
  865MOL0     C19267   6.429   4.727   8.596  0.4869  0.1534  0.7125
  865MOL0     O19268   6.541   4.648   8.558 -0.1085  1.0232 -0.1413
  865MOL0     C19269   6.669   4.705   8.531  0.2735  0.5079  0.2568
  865MOL0     C19270   6.746   4.572   8.500  0.8081 -1.0618  0.2530
  865MOL0     C19271   6.895   4.588   8.482  0.0138  0.8073  0.4418
  865MOL0     C19272   6.914   4.651   8.341 -0.3156 -0.2679 -0.1421
  865MOL0     C19273   7.058   4.628   8.291 -0.8738  0.5907 -0.1378
  865MOL0     C19274   7.171   4.647   8.394 -0.1663 -0.3009  0.1491
  865MOL0     C19275   7.200   4.799   8.403  0.5383 -0.0314 -0.2275
  865MOL0     C19276   7.288   4.830   8.520  0.5308 -0.1710 -0.7382
  865MOL0    Cl19277   7.447   4.796   8.474  0.8068  0.8050  0.1942
  865MOL0     C19278   6.421   4.862   8.591  0.1655 -0.0616  0.0274
  865MOL0     C19279   6.308   4.939   8.628  0.1608  0.4666 -0.0402
  865MOL0     O19280   5.923   4.852   8.583  0.2927 -0.3990 -0.2128
  865MOL0     C19281   5.759   4.907   8.823  0.8867  0.7855  0.1696
  865MOL0     C19282   5.661   4.960   8.902  0.6985 -0.3716  0.7047
  865MOL0     N19283   5.064   5.379   8.771  0.2607 -0.4451 -0.0623
  865MOL0     N19284   5.018   5.332   8.662 -0.1651  0.1422  0.2687
  865MOL0     C19285   4.113   4.753   9.068  0.3136 -0.0222  0.3887
  865MOL0     C19286   4.023   4.663   9.133  0.0123 -0.5207 -0.0913
  865MOL0     C19287   3.881   4.283   9.316 -0.0004  1.1571  0.2215
  865MOL0     C19288   3.772   4.239   9.234  0.2087 -0.3247  0.3002
  865MOL0     C19289   3.684   4.152   9.295  0.0796  0.4424 -0.0915
  865MOL0     C19290   3.702   4.110   9.439  0.1916  0.3170  0.6552
  865MOL0     O19291   3.618   4.026   9.510 -0.0028  0.0908  0.4212
  865MOL0     C19292   3.482   4.004   9.459 -0.1966 -0.3362  0.3607
  865MOL0     C19293   3.384   4.124   9.470  0.0576  0.5943  0.4406
  865MOL0     C19294   3.414   4.189   9.601  0.0320  0.0480 -0.4500
  865MOL0     C19295   3.307   4.290   9.618  0.1748  0.3814  0.1524
  865MOL0     C19296   3.323   4.360   9.741  0.1239  0.1099  0.1176
  865MOL0     C19297   3.333   4.422   9.848 -0.4935  0.1819 -0.7698
  865MOL0     C19298   3.802   4.171   9.517 -0.5683  0.3885  0.3397
  865MOL0     C19299   3.896   4.247   9.454  0.3863 -0.3830 -0.2767
  865MOL0     C19300   4.007   4.306   9.535  1.0126  0.3873  0.0170
  865MOL0     H19301   4.099   4.384   8.962 -4.3855 -0.9104 -0.3938
  865MOL0     H19302   4.258   4.557   8.844  0.7127 -0.0136  0.8064
  865MOL0     H19303   4.321   4.956   9.010  0.6086 -0.3939 -0.6192
  865MOL0     H19304   4.169   4.955   8.927 -0.3299 -0.6097 -0.4588
  865MOL0     H19305   4.293   4.991   8.696  0.0394 -1.0194 -0.4580
  865MOL0     H19306   4.351   5.123   8.805  2.5620 -0.7553  0.0641
  865MOL0     H19307   4.537   4.948   8.867 -0.0793 -1.6439 -0.2680
  865MOL0     H19308   4.468   4.856   8.743 -0.0603  0.6500 -1.0899
  865MOL0     H19309   4.507   5.081   8.587 -0.0720  0.4020  0.2164
  865MOL0     H19310   4.582   5.143   8.726 -1.1640  1.4136 -2.8744
  865MOL0     H19311   4.704   4.914   8.570 -0.3799 -1.3857  2.8128
  865MOL0     H19312   4.748   4.948   8.736  0.0958 -0.3135 -0.6766
  865MOL0     H19313   4.769   5.139   8.503 -0.4894  0.7568 -0.7714
  865MOL0     H19314   4.819   5.161   8.677  0.6752  0.6325 -0.3333
  865MOL0     H19315   4.941   4.969   8.475 -0.7423  0.1254 -0.2069
  865MOL0     H19316   4.967   4.959   8.647 -1.1879 -0.3197 -0.1945
  865MOL0     H19317   5.153   5.064   8.509  0.0116 -0.1443 -2.8506
  865MOL0     H19318   5.028   5.181   8.441 -2.5316 -1.8060  0.7006
  865MOL0     H19319   5.301   5.167   8.701  0.2179 -0.6680  3.9243
  865MOL0     H19320   5.239   5.429   8.990  4.3249  1.4629 -1.0492
  865MOL0     H19321   5.372   5.341   8.909  0.3853  0.9560 -1.3404
  865MOL0     H19322   5.166   5.224   9.074 -0.7047 -1.1802 -1.9962
  865MOL0     H19323   5.266   5.126   8.968  0.3696 -0.0953 -0.0108
  865MOL0     H19324   5.399   5.312   9.158 -4.5869  1.4079  0.9156
  865MOL0     H19325   5.339   5.165   9.232  0.4422 -1.6031 -0.6116
  865MOL0     H19326   5.560   5.094   9.155  0.5053  1.6602  0.4284
  865MOL0     H19327   5.430   5.012   9.067  0.6581 -0.5253 -2.8956
  865MOL0     H19328   5.714   5.283   8.854 -0.3634  0.4973 -2.2677
  865MOL0     H19329   5.926   5.212   8.606  0.5813  0.1537 -0.1539
  865MOL0     H19330   6.037   5.208   8.740  0.1111  2.8361 -0.7983
  865MOL0     H19331   5.902   5.322   8.745  0.3524  0.1658 -0.5464
  865MOL0     H19332   6.098   4.689   8.698  0.3494 -0.6748  1.6343
  865MOL0     H19333   6.297   4.559   8.637 -2.9320 -0.2023 -3.1725
  865MOL0     H19334   6.672   4.761   8.437  0.8112 -1.7784 -1.1671
  865MOL0     H19335   6.710   4.772   8.607  1.3148 -1.0507  1.1013
  865MOL0     H19336   6.729   4.500   8.581 -0.4991 -2.5707 -1.2961
  865MOL0     H19337   6.711   4.519   8.411 -1.6398  0.5584  0.1547
  865MOL0     H19338   6.949   4.494   8.498 -0.5620  0.1541 -1.2186
  865MOL0     H19339   6.927   4.661   8.556 -0.4430 -0.0355  1.5118
  865MOL0     H19340   6.883   4.756   8.350  1.7915  0.2091  3.2588
  865MOL0     H19341   6.850   4.604   8.265 -0.5293  0.2700 -0.2999
  865MOL0     H19342   7.058   4.523   8.260  1.9230 -0.0671  1.6857
  865MOL0     H19343   7.079   4.682   8.199  2.2189  0.7480  0.5612
  865MOL0     H19344   7.264   4.595   8.373 -0.4404 -1.0350  0.7159
  865MOL0     H19345   7.151   4.607   8.494 -1.7536 -1.7060 -0.6839
  865MOL0     H19346   7.111   4.855   8.431  2.4634  2.9774  0.3398
  865MOL0     H19347   7.231   4.827   8.302  0.1058 -0.1623 -0.4005
  865MOL0     H19348   7.259   4.772   8.608 -0.3419 -0.9978 -1.5349
  865MOL0     H19349   7.280   4.935   8.549 -2.9964 -0.2318 -1.0628
  865MOL0     H19350   6.505   4.924   8.562  0.7896 -0.4582  0.9411
  865MOL0     H19351   6.322   5.047   8.633 -2.0381  0.7283  2.3146
  865MOL0     H19352   5.758   4.800   8.802 -0.6233  0.9953 -1.0117
  865MOL0     H19353   5.592   4.885   8.942  0.8513  0.3731  2.4736
  865MOL0     H19354   4.114   4.857   9.099 -0.1899  0.5403 -1.3577
  865MOL0     H19355   3.960   4.691   9.217  1.3662 -0.4390  0.9270
  865MOL0     H19356   3.763   4.250   9.126 -0.5730 -2.0352  0.1485
  865MOL0     H19357   3.598   4.110   9.244  2.0763 -0.9157 -2.5467
  865MOL0     H19358   3.488   3.962   9.358 -1.9886 -1.4555  0.6734
  865MOL0     H19359   3.439   3.925   9.521 -3.8893  2.0536  1.1598
  865MOL0     H19360   3.283   4.087   9.450  0.0898  1.8522 -2.5672
  865MOL0     H19361   3.409   4.195   9.391  1.3156  0.1814  0.4363
  865MOL0     H19362   3.406   4.114   9.679 -2.3402  0.0927 -0.5784
  865MOL0     H19363   3.512   4.237   9.594 -0.2406  0.4089 -2.5185
  865MOL0     H19364   3.213   4.236   9.604  2.4701 -3.8536 -0.4852
  865MOL0     H19365   3.322   4.362   9.536  1.1180 -0.8583 -0.8173
  865MOL0     H19366   3.377   4.479   9.927  0.2844 -1.7755  0.2747
  865MOL0     H19367   3.820   4.132   9.617  3.9327  0.9347 -0.0306
  865MOL0     H19368   3.988   4.294   9.642 -0.2208 -2.4660 -0.4322
  865MOL0     H19369   4.099   4.248   9.527  1.6806  0.9986  2.5400
  865MOL0     H19370   4.018   4.413   9.512  1.1618  0.2980 -0.3432
  866MOL0     O19371   2.242   4.473   2.515 -0.0111  0.1372  0.4459
  866MOL0     C19372   2.150   4.423   2.440 -0.2302 -0.4052 -0.8287
  866MOL0     O19373   2.173   4.344   2.334 -0.4707 -0.1615  0.1734
  866MOL0     C19374   2.298   4.315   2.279 -0.5523 -0.1075 -0.8789
  866MOL0     C19375   2.298   4.249   2.161  0.9360 -0.1271  0.1858
  866MOL0     C19376   2.417   4.205   2.094  0.0151  0.6924 -0.3513
  866MOL0     C19377   2.539   4.234   2.150 -0.5920 -0.3694 -0.2747
  866MOL0     O19378   2.651   4.203   2.086 -0.2184 -0.2748 -0.3448
  866MOL0     C19379   2.654   4.074   2.031 -0.0430 -0.5787  0.5844
  866MOL0     C19380   2.789   4.053   1.976  0.1705  0.1505 -0.1012
  866MOL0     C19381   2.824   4.111   1.839  0.5158  0.2042 -0.3258
  866MOL0     C19382   2.967   4.092   1.802  0.0037 -0.8826  0.2911
  866MOL0     C19383   3.055   4.187   1.881  0.3330  0.1732 -0.1278
  866MOL0     C19384   3.198   4.190   1.821  0.4993 -0.8839 -0.1009
  866MOL0     C19385   3.202   4.292   1.709 -0.4094 -0.8783 -0.2054
  866MOL0     C19386   3.346   4.318   1.657 -0.0535 -0.0884  0.0900
  866MOL0     N19387   3.339   4.425   1.551 -0.5532 -0.2933  0.3142
  866MOL0     C19388   3.299   4.556   1.572 -1.1889  0.5419  0.2027
  866MOL0     C19389   3.360   4.620   1.470 -0.0800 -0.3758  0.2985
  866MOL0     C19390   3.339   4.764   1.438  0.2139  0.7397 -0.0756
  866MOL0     C19391   3.468   4.841   1.471  0.4017 -0.1703 -0.0300
  866MOL0     C19392   3.460   4.852   1.634  0.6035  0.2428  0.0849
  866MOL0     C19393   3.587   4.922   1.663 -0.6594 -0.7577 -0.2207
  866MOL0     O19394   3.598   4.926   1.804 -0.5540  0.1703 -0.1661
  866MOL0     C19395   3.705   4.974   1.878 -0.2699 -0.2713 -0.0712
  866MOL0     C19396   3.695   4.967   2.015 -0.4400  0.5657 -0.1192
  866MOL0     C19397   3.798   4.992   2.104  0.4125 -0.0382  0.2815
  866MOL0     C19398   3.775   4.961   2.248  0.0249 -0.2314  0.6162
  866MOL0     C19399   3.915   5.048   2.049  0.1129 -0.0069 -0.1205
  866MOL0     C19400   4.035   5.084   2.133 -1.0318  0.6812 -0.7858
  866MOL0     O19401   4.162   5.074   2.072  0.6391  0.5618  0.2307
  866MOL0     C19402   4.261   5.133   2.135 -0.1167  0.2856 -0.7049
  866MOL0     C19403   4.311   5.073   2.257  0.5726  0.1095  0.6171
  866MOL0     C19404   4.409   5.132   2.332 -0.0401  0.2269 -1.4175
  866MOL0     C19405   4.469   5.256   2.282 -0.0746  0.2983  0.0537
  866MOL0     O19406   4.565   5.321   2.360 -0.6244 -0.1653  0.3654
  866MOL0     C19407   4.668   5.394   2.287 -0.7760  0.0481  0.0883
  866MOL0     C19408   4.791   5.387   2.375 -0.4239  0.2504 -0.5875
  866MOL0     C19409   4.910   5.448   2.302 -0.4770 -0.5440  0.1024
  866MOL0     C19410   5.043   5.407   2.369  0.6561 -0.0875 -0.6535
  866MOL0     C19411   5.076   5.504   2.483  1.0810  0.4023 -0.4075
  866MOL0     C19412   5.187   5.439   2.569 -0.2605 -0.9546 -0.2927
  866MOL0     C19413   5.267   5.548   2.638  0.7508  0.5174  0.5444
  866MOL0     C19414   5.356   5.500   2.757  0.1869 -0.9603 -0.5027
  866MOL0    Cl19415   5.427   5.652   2.837  0.5956 -0.6115 -0.5774
  866MOL0     C19416   4.431   5.307   2.155  0.7399 -0.2933  0.6290
  866MOL0     C19417   4.325   5.245   2.080  0.1767  0.1362 -0.0502
  866MOL0     O19418   4.017   5.113   2.252 -0.1889  0.4411 -0.0618
  866MOL0     C19419   3.934   5.060   1.908  0.1552 -0.2922 -0.2264
  866MOL0     C19420   3.819   5.030   1.831  0.4667  0.5234  0.9255
  866MOL0     N19421   3.433   4.537   1.388 -0.0065  0.2714 -0.2041
  866MOL0     N19422   3.424   4.417   1.443  0.0100 -0.8581 -0.3075
  866MOL0     C19423   2.545   4.306   2.273  0.3674  0.0512  0.5662
  866MOL0     C19424   2.421   4.345   2.338  0.3133  0.1347  0.2489
  866MOL0     C19425   2.007   4.447   2.478 -0.2933 -0.3517  0.7867
  866MOL0     C19426   1.911   4.421   2.386 -0.5948 -1.2261  0.2553
  866MOL0     C19427   1.778   4.452   2.413 -0.1569 -1.0071 -0.2611
  866MOL0     C19428   1.740   4.498   2.539  0.3206 -0.5947  0.6642
  866MOL0     O19429   1.611   4.523   2.580  0.0720  0.1924  0.3178
  866MOL0     C19430   1.507   4.475   2.494  0.0855 -0.1097  0.5389
  866MOL0     C19431   1.368   4.507   2.565 -0.9962  0.2638  0.4971
  866MOL0     C19432   1.244   4.450   2.496  1.0256 -0.4156  0.4018
  866MOL0     C19433   1.116   4.461   2.583 -0.0029 -0.1049  0.1394
  866MOL0     C19434   1.089   4.329   2.647 -0.4811 -0.3734  0.1172
  866MOL0     C19435   1.085   4.212   2.679  0.4576  0.0752 -0.3156
  866MOL0     C19436   1.833   4.523   2.636  0.1494  0.1362  0.4361
  866MOL0     C19437   1.970   4.495   2.606 -0.1529 -0.1961  0.5054
  866MOL0     C19438   2.059   4.523   2.724  0.4661 -0.2498 -0.5233
  866MOL0     H19439   2.204   4.235   2.108  0.6270  1.9076  0.1044
  866MOL0     H19440   2.395   4.153   2.001  0.4583 -1.6063  0.7471
  866MOL0     H19441   2.578   4.065   1.953  3.2673  0.2221 -3.0022
  866MOL0     H19442   2.619   3.998   2.102 -1.4719  0.1545  0.6846
  866MOL0     H19443   2.859   4.092   2.050 -0.2762  1.3130 -0.2606
  866MOL0     H19444   2.803   3.945   1.968 -0.3641  0.0589  0.0943
  866MOL0     H19445   2.752   4.082   1.762 -3.2301  1.8815  2.2046
  866MOL0     H19446   2.805   4.216   1.864  4.7645  0.6339  1.9805
  866MOL0     H19447   3.002   3.988   1.808  0.8414 -0.6355 -0.2678
  866MOL0     H19448   2.973   4.125   1.698 -1.0124 -1.0780  0.1544
  866MOL0     H19449   3.064   4.151   1.984  0.0943 -1.0142 -0.5132
  866MOL0     H19450   3.010   4.286   1.898  0.1825 -0.0661  0.8944
  866MOL0     H19451   3.263   4.213   1.905  2.0080 -0.6459 -1.2864
  866MOL0     H19452   3.233   4.095   1.778 -0.9824 -1.3632 -0.3182
  866MOL0     H19453   3.147   4.384   1.734 -0.6984 -1.6361  2.1342
  866MOL0     H19454   3.150   4.256   1.620  3.0167 -2.5576 -1.7160
  866MOL0     H19455   3.421   4.343   1.733 -0.2640 -1.1824  0.6898
  866MOL0     H19456   3.378   4.226   1.607 -2.0326  0.1998 -1.8514
  866MOL0     H19457   3.242   4.601   1.653  0.9377  1.0753  1.4644
  866MOL0     H19458   3.258   4.808   1.497 -1.0950 -0.1186 -1.1858
  866MOL0     H19459   3.315   4.766   1.332  0.4593 -0.9724 -0.1905
  866MOL0     H19460   3.555   4.790   1.430  1.6103  1.0980  0.8675
  866MOL0     H19461   3.460   4.936   1.416  1.1805 -1.1165 -1.8678
  866MOL0     H19462   3.367   4.897   1.668  2.0328  3.4237  0.0776
  866MOL0     H19463   3.466   4.751   1.676 -1.3978  0.7197  1.6194
  866MOL0     H19464   3.676   4.872   1.623  0.2202  0.1493  0.5184
  866MOL0     H19465   3.588   5.023   1.621  1.0506  1.2069  3.9284
  866MOL0     H19466   3.610   4.913   2.056  0.7328 -1.7188 -0.5219
  866MOL0     H19467   3.677   4.913   2.257  0.0126 -0.0447  1.5853
  866MOL0     H19468   3.756   5.050   2.309 -0.1975 -0.5557  1.0323
  866MOL0     H19469   3.863   4.907   2.283  1.6496  0.8238 -1.6596
  866MOL0     H19470   4.261   4.981   2.288 -2.4479  1.1446 -0.7594
  866MOL0     H19471   4.435   5.094   2.430  0.2967  1.0070 -1.2002
  866MOL0     H19472   4.679   5.363   2.183  0.7158  0.5099  0.0887
  866MOL0     H19473   4.639   5.498   2.273  0.9839  0.4856 -0.6101
  866MOL0     H19474   4.786   5.416   2.480 -1.6736  1.0741 -0.8636
  866MOL0     H19475   4.814   5.279   2.375 -0.3104  0.2704  0.4479
  866MOL0     H19476   4.898   5.556   2.304 -0.2930 -0.5259  1.7526
  866MOL0     H19477   4.896   5.416   2.198  0.6828 -0.5773 -0.0596
  866MOL0     H19478   5.129   5.422   2.303  0.0571  1.3222 -1.1519
  866MOL0     H19479   5.034   5.304   2.404 -1.8275 -0.2563 -1.5766
  866MOL0     H19480   5.103   5.602   2.443 -0.0810  0.7501 -0.3824
  866MOL0     H19481   4.989   5.517   2.548 -0.5269  3.9056 -2.9550
  866MOL0     H19482   5.254   5.393   2.497 -0.1360 -0.4901 -0.4802
  866MOL0     H19483   5.157   5.364   2.642 -0.7505 -0.8137 -0.3468
  866MOL0     H19484   5.197   5.621   2.680  1.3818  0.4429  1.7844
  866MOL0     H19485   5.323   5.599   2.560 -2.0086  0.7876 -1.4021
  866MOL0     H19486   5.438   5.430   2.735  0.8248  0.3056 -2.3606
  866MOL0     H19487   5.282   5.461   2.828 -2.5181  0.9916 -2.0742
  866MOL0     H19488   4.484   5.385   2.101 -1.1911 -1.0787 -2.7325
  866MOL0     H19489   4.298   5.287   1.984  1.1881 -0.8731 -0.7965
  866MOL0     H19490   4.025   5.086   1.854 -1.5539  3.7555 -1.5231
  866MOL0     H19491   3.839   5.027   1.725  0.6355  3.5293  0.7702
  866MOL0     H19492   2.646   4.318   2.310  1.3818 -5.8109  0.6565
  866MOL0     H19493   2.441   4.394   2.432 -0.3168 -2.0747  1.6160
  866MOL0     H19494   1.935   4.373   2.292  1.5213  3.1552 -1.7204
  866MOL0     H19495   1.706   4.407   2.345  0.2666 -2.6365  0.3088
  866MOL0     H19496   1.517   4.523   2.396  1.2411  0.3601  0.8685
  866MOL0     H19497   1.518   4.367   2.481  1.1970  0.2913 -3.3041
  866MOL0     H19498   1.360   4.616   2.570  1.0092  0.8009 -3.5993
  866MOL0     H19499   1.378   4.478   2.670  0.4046  1.7831  0.8331
  866MOL0     H19500   1.228   4.516   2.409 -1.0906 -3.1632 -1.4815
  866MOL0     H19501   1.253   4.352   2.448 -4.0022 -1.4365  0.9330
  866MOL0     H19502   1.034   4.496   2.519 -0.9370 -1.7298  0.4046
  866MOL0     H19503   1.132   4.533   2.663  2.5195  0.1626 -0.5340
  866MOL0     H19504   1.070   4.109   2.706 -1.5946  0.0775 -1.2208
  866MOL0     H19505   1.803   4.571   2.728  1.4702 -0.9593  1.4935
  866MOL0     H19506   2.137   4.448   2.735  0.7044 -0.2931 -2.2294
  866MOL0     H19507   2.112   4.618   2.715  0.8577 -0.4591 -0.4524
  866MOL0     H19508   2.010   4.536   2.821  0.5977 -2.3548 -0.1335
  867MOL0     O19509   8.504   9.116   5.841 -0.0878  0.3829 -0.2841
  867MOL0     C19510   8.512   9.228   5.891 -0.1847 -0.5522  0.4408
  867MOL0     O19511   8.632   9.290   5.915 -0.0319 -0.3783  0.2115
  867MOL0     C19512   8.744   9.220   5.922  1.0570 -0.2937  0.4544
  867MOL0     C19513   8.852   9.289   5.862  0.1028  0.1857 -0.3516
  867MOL0     C19514   8.972   9.231   5.841  0.3976  0.2440 -0.0939
  867MOL0     C19515   8.995   9.102   5.896  0.0307  0.3283  0.2278
  867MOL0     O19516   9.128   9.047   5.892  0.3131 -0.6804  0.7206
  867MOL0     C19517   9.169   8.943   5.988 -0.0797 -0.2102  0.2483
  867MOL0     C19518   9.325   8.946   6.008  0.0841  0.6987 -0.1458
  867MOL0     C19519   9.377   9.090   6.037  0.9319 -0.0055  0.6402
  867MOL0     C19520   9.523   9.093   6.077 -0.1699 -0.2744  0.3124
  867MOL0     C19521   9.569   9.235   6.096  0.3606 -0.5938 -0.1651
  867MOL0     C19522   9.700   9.251   6.179 -0.0634 -0.0783 -0.1592
  867MOL0     C19523   9.829   9.179   6.121  0.1545  0.6592 -0.4898
  867MOL0     C19524   9.898   9.228   6.000 -0.2732 -0.1004  0.5849
  867MOL0     N19525   9.954   9.360   6.011 -1.0388  0.2597 -0.8295
  867MOL0     C19526   9.981   9.446   5.911 -0.5592 -0.4360 -0.5692
  867MOL0     C19527  10.045   9.548   5.968 -0.2626  0.4672  0.4796
  867MOL0     C19528  10.075   9.692   5.915  0.4958  0.5001  0.4057
  867MOL0     C19529  10.227   9.703   5.888  0.0148  0.0715 -0.3937
  867MOL0     C19530  10.276   9.844   5.907  0.1936  0.3720 -0.0120
  867MOL0     C19531  10.431   9.857   5.882  0.1121  0.5612  0.0993
  867MOL0     O19532  10.473   9.994   5.903 -0.6764 -0.4049  0.2093
  867MOL0     C19533  10.607  10.019   5.909 -0.0347 -0.7265 -0.4042
  867MOL0     C19534  10.710   9.927   5.876  0.3978 -0.2747 -0.4918
  867MOL0     C19535  10.849   9.957   5.895 -0.3405 -0.0781  0.5876
  867MOL0     C19536  10.946   9.854   5.839 -0.2270  0.3835  0.1044
  867MOL0     C19537  10.884  10.089   5.923 -0.7573 -0.6589 -0.2866
  867MOL0     C19538  11.027  10.132   5.938 -0.1674  0.9544 -1.3410
  867MOL0     O19539  11.116  10.045   5.991  0.3917  0.1300 -0.5937
  867MOL0     C19540  11.239  10.104   6.033  0.2341  0.6275  0.5483
  867MOL0     C19541  11.252  10.184   6.149 -0.0177  1.0164  0.9478
  867MOL0     C19542  11.379  10.235   6.178  0.4696 -0.2701 -0.3232
  867MOL0     C19543  11.488  10.221   6.086 -0.2862  0.4002  0.2300
  867MOL0     O19544  11.608  10.270   6.119 -0.3816 -0.2015 -0.2538
  867MOL0     C19545  11.639  10.413   6.071 -0.3241  0.2599 -0.3182
  867MOL0     C19546  11.789  10.432   6.077  0.4425  0.0179  0.5325
  867MOL0     C19547  11.844  10.446   6.222  0.1811  0.0530  0.0314
  867MOL0     C19548  11.996  10.491   6.196  0.1684 -0.0022 -0.1043
  867MOL0     C19549  12.071  10.512   6.332 -0.3124 -0.2188  0.3664
  867MOL0     C19550  12.226  10.507   6.309 -0.6290  0.1511  0.0318
  867MOL0     C19551  12.310  10.536   6.431 -0.7089  0.1682 -0.3609
  867MOL0     C19552  12.455  10.563   6.386 -0.2403  0.3725  0.1843
  867MOL0    Cl19553  12.546  10.585   6.539  0.1249  0.1081 -0.1007
  867MOL0     C19554  11.464  10.149   5.968 -0.3758  0.9161  0.7119
  867MOL0     C19555  11.339  10.087   5.938 -0.1625 -0.2299  0.0838
  867MOL0     O19556  11.058  10.240   5.884  0.0844 -0.2918 -0.8235
  867MOL0     C19557  10.780  10.181   5.954  0.0121  0.1351 -0.5058
  867MOL0     C19558  10.651  10.147   5.949  0.0668 -0.0877  0.0705
  867MOL0     N19559  10.067   9.512   6.105 -0.4079  0.8507  0.4877
  867MOL0     N19560  10.023   9.392   6.121 -0.4283  0.1674  1.5069
  867MOL0     C19561   8.889   9.025   5.956 -0.1802 -0.3206  0.2100
  867MOL0     C19562   8.761   9.083   5.968  0.8812 -0.2993  0.7458
  867MOL0     C19563   8.384   9.285   5.941  0.5295  0.2962 -0.2006
  867MOL0     C19564   8.292   9.321   5.842  0.5877 -0.1760 -0.7264
  867MOL0     C19565   8.165   9.375   5.879  0.3042 -0.3375  0.2813
  867MOL0     C19566   8.138   9.398   6.012 -0.0858  0.2982  0.5415
  867MOL0     O19567   8.013   9.436   6.051 -0.4908 -0.4879  0.6069
  867MOL0     C19568   7.920   9.495   5.966 -0.6267  0.0142  0.1740
  867MOL0     C19569   7.807   9.533   6.053  0.2797  0.0753  0.2926
  867MOL0     C19570   7.707   9.425   6.088 -0.0734 -0.2590  0.7751
  867MOL0     C19571   7.587   9.490   6.164  0.3981 -0.2405 -0.2859
  867MOL0     C19572   7.614   9.539   6.301  0.1390 -0.4102 -0.7612
  867MOL0     C19573   7.620   9.596   6.407  0.1756  0.2620  0.0413
  867MOL0     C19574   8.227   9.355   6.109  0.3015  0.5895 -1.0908
  867MOL0     C19575   8.349   9.298   6.076 -1.1245  0.3785 -0.2903
  867MOL0     C19576   8.448   9.260   6.185 -0.3472  0.0543 -0.7080
  867MOL0     H19577   8.837   9.394   5.841 -0.1195  0.8160  2.6236
  867MOL0     H19578   9.054   9.269   5.783  0.4046 -0.3381 -0.4751
  867MOL0     H19579   9.129   8.848   5.954 -2.5960  0.4617  1.0690
  867MOL0     H19580   9.124   8.964   6.086  2.1982 -2.2113  1.8390
  867MOL0     H19581   9.360   8.880   6.088  0.1797 -0.3998 -1.0614
  867MOL0     H19582   9.373   8.898   5.922 -1.3751  0.6102 -0.9443
  867MOL0     H19583   9.355   9.155   5.952  3.5610  0.9009  0.5781
  867MOL0     H19584   9.321   9.135   6.120  0.4082 -0.7523  0.7039
  867MOL0     H19585   9.545   9.046   6.173 -0.1829  1.2654  1.0999
  867MOL0     H19586   9.576   9.044   5.995  0.0425 -1.5339  1.1699
  867MOL0     H19587   9.491   9.290   6.150  1.2362  0.8508 -0.3189
  867MOL0     H19588   9.588   9.284   6.000 -0.1194  1.0629  0.5397
  867MOL0     H19589   9.720   9.358   6.190 -0.0931  0.0308 -1.1483
  867MOL0     H19590   9.687   9.216   6.282  2.6008 -0.2442  0.1975
  867MOL0     H19591   9.788   9.079   6.100 -1.9641  0.8496  2.2217
  867MOL0     H19592   9.907   9.172   6.197  0.5194  1.6597 -0.7575
  867MOL0     H19593   9.976   9.157   5.971 -0.3465 -0.2009  0.6347
  867MOL0     H19594   9.822   9.229   5.920  0.4239  2.6515 -0.1166
  867MOL0     H19595   9.941   9.435   5.811 -0.9670 -0.0070 -0.4579
  867MOL0     H19596  10.049   9.761   5.996  2.9313  0.2741  1.4707
  867MOL0     H19597  10.021   9.719   5.824 -0.4305  1.8896  1.3163
  867MOL0     H19598  10.282   9.644   5.962 -0.8518 -0.0985  0.1268
  867MOL0     H19599  10.256   9.672   5.787  0.7707 -1.2190  0.1915
  867MOL0     H19600  10.218   9.920   5.853 -1.8021 -0.3689  1.0172
  867MOL0     H19601  10.255   9.869   6.011 -3.2904 -2.6812  0.2104
  867MOL0     H19602  10.491   9.776   5.926 -2.4617 -2.0510 -0.8666
  867MOL0     H19603  10.462   9.850   5.777  0.6074  1.9828  0.1345
  867MOL0     H19604  10.676   9.832   5.837  1.0034 -1.0725  0.8434
  867MOL0     H19605  11.008   9.895   5.759 -0.8435  1.6921  0.2676
  867MOL0     H19606  10.884   9.781   5.786  0.1288  1.3108 -1.6916
  867MOL0     H19607  11.007   9.810   5.918 -0.3176  1.6825  0.9293
  867MOL0     H19608  11.158  10.203   6.198 -0.9906 -1.9297  0.4161
  867MOL0     H19609  11.397  10.297   6.266  4.2469 -2.1199  0.4132
  867MOL0     H19610  11.607  10.424   5.967 -2.6170  0.2666  0.3293
  867MOL0     H19611  11.579  10.479   6.134  2.6393 -0.0600  3.1427
  867MOL0     H19612  11.825  10.337   6.038 -1.2966 -0.0489 -1.0196
  867MOL0     H19613  11.820  10.524   6.027  1.1069 -0.4116  0.1522
  867MOL0     H19614  11.844  10.345   6.266 -1.2037  0.0217 -0.0059
  867MOL0     H19615  11.791  10.525   6.274 -1.6437 -1.7038  0.9955
  867MOL0     H19616  12.004  10.584   6.138  0.1950  1.0365  1.5123
  867MOL0     H19617  12.038  10.406   6.141  0.3673  0.8027 -1.2406
  867MOL0     H19618  12.041  10.607   6.377  1.5144  0.5779 -0.0441
  867MOL0     H19619  12.038  10.430   6.397 -2.5010  0.0177 -0.3661
  867MOL0     H19620  12.247  10.583   6.233  2.4269  1.0754  1.6623
  867MOL0     H19621  12.252  10.404   6.281  0.3517  0.2416  0.5797
  867MOL0     H19622  12.304  10.449   6.497  0.1513  3.2209  4.1924
  867MOL0     H19623  12.266  10.620   6.485 -3.2042 -1.2941  0.0534
  867MOL0     H19624  12.444  10.653   6.325  0.2278  0.0855 -0.3287
  867MOL0     H19625  12.498  10.482   6.327 -0.9208  0.7132 -0.8072
  867MOL0     H19626  11.549  10.131   5.903  0.1487  2.2084  1.0061
  867MOL0     H19627  11.307  10.036   5.847 -1.8638  1.6034 -0.4152
  867MOL0     H19628  10.788  10.278   6.001  0.0110 -0.2488  0.3214
  867MOL0     H19629  10.575  10.217   5.981 -0.0007 -0.6590  1.2456
  867MOL0     H19630   8.902   8.928   6.004  0.5842 -0.7136 -0.7373
  867MOL0     H19631   8.677   9.021   5.996  0.5632 -1.1525 -1.8229
  867MOL0     H19632   8.316   9.295   5.740 -0.8694  2.7145 -1.9320
  867MOL0     H19633   8.089   9.398   5.805 -0.0245 -0.0686  0.6957
  867MOL0     H19634   7.958   9.570   5.896 -0.9042 -2.1775 -2.4946
  867MOL0     H19635   7.885   9.419   5.895 -0.4336 -1.5155  1.6541
  867MOL0     H19636   7.754   9.614   6.001  1.5556  0.6190 -0.1939
  867MOL0     H19637   7.840   9.582   6.145 -0.7252  0.9069  0.2448
  867MOL0     H19638   7.656   9.385   5.999 -2.0797 -0.0740  1.7808
  867MOL0     H19639   7.749   9.336   6.135  3.2897  1.1534  0.6625
  867MOL0     H19640   7.506   9.418   6.174  0.1926 -0.5112 -3.0666
  867MOL0     H19641   7.543   9.572   6.107 -0.3030  0.4337  1.1802
  867MOL0     H19642   7.612   9.622   6.510 -3.1473 -1.4597  0.3456
  867MOL0     H19643   8.206   9.368   6.215  0.3612 -0.6773 -0.9089
  867MOL0     H19644   8.469   9.152   6.180  4.6075  0.8352 -2.5401
  867MOL0     H19645   8.544   9.308   6.166 -0.3552 -0.4187 -1.9753
  867MOL0     H19646   8.413   9.282   6.287 -1.9627 -0.8925 -1.0280
  868MOL0     O19647   3.481   1.071  10.713  0.6307 -0.2273  0.5231
  868MOL0     C19648   3.416   1.025  10.618 -0.2910  0.1759 -0.2339
  868MOL0     O19649   3.463   1.002  10.491  0.0998 -0.1554 -0.2544
  868MOL0     C19650   3.602   1.009  10.463 -0.1685  0.5594 -0.9643
  868MOL0     C19651   3.662   0.904  10.391 -0.3712  1.4042 -0.7071
  868MOL0     C19652   3.797   0.900  10.360 -0.3010  0.1978  0.5926
  868MOL0     C19653   3.867   1.013  10.384  0.7953 -0.2966  0.1815
  868MOL0     O19654   4.000   0.990  10.353  0.7619 -1.4309  0.3790
  868MOL0     C19655   4.088   1.103  10.359 -0.2272  0.3893 -0.2116
  868MOL0     C19656   4.225   1.056  10.308 -0.0739 -0.6048 -0.2606
  868MOL0     C19657   4.325   1.175  10.294 -0.3659 -0.3415 -0.4093
  868MOL0     C19658   4.424   1.150  10.173 -0.0136  0.3125  0.1277
  868MOL0     C19659   4.511   1.272  10.148 -0.2902 -0.5190 -0.2055
  868MOL0     C19660   4.560   1.276  10.001  0.1242 -0.8990 -0.6896
  868MOL0     C19661   4.653   1.396   9.972  0.8248  0.8832  0.5939
  868MOL0     C19662   4.796   1.382  10.031  0.3340 -0.7433  0.5352
  868MOL0     N19663   4.901   1.425   9.937  0.0612 -0.2727  0.2950
  868MOL0     C19664   4.913   1.388   9.806  0.3535 -0.3266  0.8967
  868MOL0     C19665   5.025   1.451   9.773 -0.5794 -0.1354  0.5422
  868MOL0     C19666   5.103   1.444   9.638 -0.1224  0.1495  0.3486
  868MOL0     C19667   5.252   1.415   9.653  0.2186 -0.8884  0.1786
  868MOL0     C19668   5.314   1.416   9.515 -0.2429  0.3078 -0.5936
  868MOL0     C19669   5.456   1.363   9.505  0.0088  0.4104 -0.7908
  868MOL0     O19670   5.537   1.432   9.592 -0.0462  0.5160  0.4520
  868MOL0     C19671   5.668   1.392   9.602  0.2924 -0.7551 -0.1572
  868MOL0     C19672   5.736   1.286   9.535 -0.6793 -0.4789 -0.5244
  868MOL0     C19673   5.866   1.251   9.568 -1.0203 -0.2736 -0.9591
  868MOL0     C19674   5.927   1.139   9.495 -0.2989  0.0437  0.9031
  868MOL0     C19675   5.926   1.316   9.685  0.5584 -0.0910  0.0438
  868MOL0     C19676   6.063   1.282   9.733 -0.4292 -0.5672 -0.2565
  868MOL0     O19677   6.120   1.372   9.827  0.0757  0.4786  0.0203
  868MOL0     C19678   6.251   1.358   9.843 -0.5185 -0.7268  0.9315
  868MOL0     C19679   6.300   1.247   9.907 -0.2723 -0.6610 -0.2229
  868MOL0     C19680   6.439   1.233   9.932  0.1603  0.5713  0.4703
  868MOL0     C19681   6.525   1.345   9.908  0.6285  0.5780  0.0005
  868MOL0     O19682   6.654   1.356   9.951  0.0002  0.3773 -0.1373
  868MOL0     C19683   6.709   1.231  10.013  0.1126  0.1597  0.6526
  868MOL0     C19684   6.858   1.257  10.054  0.2960  0.7659  0.5241
  868MOL0     C19685   6.905   1.163  10.169 -0.1728  0.0323  0.5493
  868MOL0     C19686   7.038   1.199  10.226 -0.3708  0.3226 -0.2147
  868MOL0     C19687   7.036   1.109  10.347 -0.4804  0.0806  0.1338
  868MOL0     C19688   7.166   1.124  10.419  0.3419  0.6173  0.7508
  868MOL0     C19689   7.201   1.019  10.530  0.1697 -0.1614  1.3978
  868MOL0     C19690   7.096   1.017  10.639 -0.1678  0.4949  0.6388
  868MOL0    Cl19691   7.094   1.160  10.740  0.4846 -0.2478 -0.2577
  868MOL0     C19692   6.468   1.457   9.850  0.0110  0.2666  0.5815
  868MOL0     C19693   6.334   1.465   9.806  1.0490  0.3495 -0.6598
  868MOL0     O19694   6.116   1.181   9.695  0.5038 -0.3996  0.4907
  868MOL0     C19695   5.856   1.425   9.747 -1.6844  0.0964 -0.5381
  868MOL0     C19696   5.729   1.466   9.706 -0.2298 -0.2736  0.0844
  868MOL0     N19697   5.080   1.511   9.886  0.7735  0.2181 -0.1696
  868MOL0     N19698   5.005   1.499   9.983  0.5149  0.0917 -0.1433
  868MOL0     C19699   3.816   1.121  10.449 -0.2834  1.1973 -0.4156
  868MOL0     C19700   3.683   1.122  10.485  0.1545 -0.0095 -0.1704
  868MOL0     C19701   3.267   1.027  10.628 -0.4525 -0.1536 -0.4419
  868MOL0     C19702   3.183   1.073  10.520  0.3071  0.0636  0.2794
  868MOL0     C19703   3.053   1.084  10.546 -0.2399  0.3336  0.2451
  868MOL0     C19704   2.991   1.036  10.660 -0.1883 -0.1756  0.8859
  868MOL0     O19705   2.853   1.049  10.662 -0.6725 -0.2309 -0.7858
  868MOL0     C19706   2.780   0.995  10.774 -0.3749  0.2108 -1.1057
  868MOL0     C19707   2.772   1.107  10.883 -0.4051  0.4936 -0.7907
  868MOL0     C19708   2.654   1.068  10.974  0.2286  0.4242 -0.3694
  868MOL0     C19709   2.656   1.159  11.096 -0.2006 -0.4971  0.0680
  868MOL0     C19710   2.549   1.126  11.186  1.0724  0.7083  0.2703
  868MOL0     C19711   2.457   1.122  11.267  0.0518  0.0380  0.0328
  868MOL0     C19712   3.071   0.991  10.763  0.7699 -0.2102 -0.4337
  868MOL0     C19713   3.201   0.992  10.754  0.3598 -0.1823 -0.1416
  868MOL0     C19714   3.276   0.945  10.874 -1.3340 -0.9104 -0.6394
  868MOL0     H19715   3.599   0.826  10.348  0.2436  0.9999 -0.8939
  868MOL0     H19716   3.839   0.823  10.296 -1.8032  0.5305 -0.8347
  868MOL0     H19717   4.102   1.140  10.461 -0.3658  0.7268 -0.3160
  868MOL0     H19718   4.056   1.185  10.294  0.6603  0.0088 -1.1465
  868MOL0     H19719   4.262   0.974  10.371  0.5593  0.8322  1.2948
  868MOL0     H19720   4.203   1.020  10.207 -1.3762 -3.0825  0.7952
  868MOL0     H19721   4.275   1.271  10.281 -1.3756 -0.3437  2.7798
  868MOL0     H19722   4.382   1.178  10.387 -1.9837  1.1035  0.6020
  868MOL0     H19723   4.494   1.069  10.194  0.6286  0.9885  0.6704
  868MOL0     H19724   4.366   1.119  10.086  1.1456  1.2794 -1.0249
  868MOL0     H19725   4.601   1.266  10.211  0.2917 -3.3889 -1.1501
  868MOL0     H19726   4.456   1.362  10.175 -0.4569 -1.1963  1.8916
  868MOL0     H19727   4.609   1.181   9.982  0.2771 -1.0744  0.4713
  868MOL0     H19728   4.474   1.288   9.934  1.4604  2.3425 -2.0396
  868MOL0     H19729   4.618   1.494  10.006  0.1359  0.7033  0.4190
  868MOL0     H19730   4.647   1.386   9.863 -1.8207 -0.2190  0.7771
  868MOL0     H19731   4.813   1.440  10.122  0.8409  0.8269 -0.5352
  868MOL0     H19732   4.803   1.276  10.059 -0.2934 -1.4707 -1.8371
  868MOL0     H19733   4.842   1.340   9.738 -1.4289  1.1789  1.5929
  868MOL0     H19734   5.095   1.544   9.594  3.7516  0.3947 -0.1248
  868MOL0     H19735   5.055   1.379   9.564  0.0421  3.2150 -2.7050
  868MOL0     H19736   5.291   1.497   9.715 -0.2019 -0.1657 -0.4839
  868MOL0     H19737   5.264   1.317   9.700  1.7274 -0.1796  1.3565
  868MOL0     H19738   5.256   1.361   9.440 -1.1523  1.8434 -1.0646
  868MOL0     H19739   5.309   1.512   9.464 -0.3707 -0.7492 -2.6509
  868MOL0     H19740   5.460   1.259   9.535  1.1684  1.3027  2.5477
  868MOL0     H19741   5.496   1.369   9.403 -0.3732 -1.7756 -1.1068
  868MOL0     H19742   5.681   1.231   9.460 -1.5392 -0.8903  0.3912
  868MOL0     H19743   6.017   1.186   9.454 -1.2466 -0.3156 -1.7937
  868MOL0     H19744   5.865   1.102   9.413  2.2198  2.5207 -2.3892
  868MOL0     H19745   5.950   1.051   9.556 -2.4449 -1.3211 -0.1460
  868MOL0     H19746   6.238   1.163   9.937 -1.2361  1.1989  3.6841
  868MOL0     H19747   6.475   1.147   9.987 -1.3365 -0.0041  0.5948
  868MOL0     H19748   6.655   1.207  10.105 -0.3375 -1.4305  0.0120
  868MOL0     H19749   6.693   1.144   9.949 -0.5646  0.7419 -0.0045
  868MOL0     H19750   6.919   1.245   9.964  1.5110 -0.0426  1.4219
  868MOL0     H19751   6.874   1.359  10.090 -0.4849  0.5281  1.6193
  868MOL0     H19752   6.905   1.060  10.132 -2.0782 -0.2029  1.0845
  868MOL0     H19753   6.832   1.168  10.250 -1.1269 -1.8001 -0.1507
  868MOL0     H19754   7.038   1.306  10.246 -2.8778  0.7327 -1.9446
  868MOL0     H19755   7.124   1.195  10.159 -0.2692  2.8842 -0.3228
  868MOL0     H19756   6.956   1.145  10.412 -0.4579  3.0469 -1.3334
  868MOL0     H19757   7.026   1.003  10.320  1.7920 -0.0572 -0.3498
  868MOL0     H19758   7.191   1.225  10.451 -3.0404  1.5030  0.9586
  868MOL0     H19759   7.240   1.107  10.340  0.7089  1.6381  0.8682
  868MOL0     H19760   7.304   1.046  10.553  0.0230  0.0372  1.8136
  868MOL0     H19761   7.213   0.925  10.475  1.0991 -0.3599  1.9161
  868MOL0     H19762   7.108   0.924  10.695  0.3422 -0.5333 -1.1220
  868MOL0     H19763   6.998   1.012  10.590  1.2663  1.0748 -2.5390
  868MOL0     H19764   6.527   1.547   9.845  3.3618 -1.6912  1.6571
  868MOL0     H19765   6.294   1.558   9.768  1.0111 -0.1650 -1.9309
  868MOL0     H19766   5.896   1.472   9.837 -1.4120  3.4915 -2.2519
  868MOL0     H19767   5.678   1.549   9.753  1.7007  0.2680  1.3058
  868MOL0     H19768   3.874   1.211  10.466 -2.8306  2.7475  0.6833
  868MOL0     H19769   3.638   1.214  10.522  0.4773  0.9143 -1.9655
  868MOL0     H19770   3.217   1.102  10.422 -1.3535  2.0724  0.2216
  868MOL0     H19771   2.998   1.131  10.465 -0.9867 -0.4360  0.2877
  868MOL0     H19772   2.675   0.975  10.751 -0.3525 -0.5032 -0.6235
  868MOL0     H19773   2.835   0.913  10.821 -0.6647  0.6922  0.1080
  868MOL0     H19774   2.740   1.204  10.843 -1.7654 -0.1346 -1.3057
  868MOL0     H19775   2.868   1.120  10.933  0.5003 -1.4657 -1.8982
  868MOL0     H19776   2.562   1.073  10.916 -0.2198  0.0628  0.2944
  868MOL0     H19777   2.661   0.964  11.008  0.7822  0.5566 -0.0650
  868MOL0     H19778   2.657   1.264  11.069  3.4406  0.3918  2.8180
  868MOL0     H19779   2.745   1.145  11.159 -0.2638  0.5697  0.4052
  868MOL0     H19780   2.380   1.113  11.341  1.8625  0.2836  2.0193
  868MOL0     H19781   3.019   0.965  10.855  0.4575  0.6406 -0.3647
  868MOL0     H19782   3.296   1.034  10.935  1.4395 -3.5574  2.7060
  868MOL0     H19783   3.214   0.893  10.947 -1.1052  1.7144  1.5959
  868MOL0     H19784   3.374   0.902  10.851 -0.0124  2.2136 -1.5188
  869MOL0     O19785   1.455   9.498  10.969  0.0995  0.6196  0.0591
  869MOL0     C19786   1.415   9.430  11.063  0.3247  0.4508 -0.1190
  869MOL0     O19787   1.489   9.344  11.142 -0.0769  0.0313 -0.0645
  869MOL0     C19788   1.622   9.340  11.136 -0.6500  0.2978 -0.3687
  869MOL0     C19789   1.717   9.405  11.057  0.0070  0.2017  0.2767
  869MOL0     C19790   1.855   9.393  11.074 -0.6952 -0.3536 -0.4736
  869MOL0     C19791   1.904   9.301  11.177 -0.3265  0.1389  0.3334
  869MOL0     O19792   2.038   9.275  11.210 -0.7195  0.1571 -0.3372
  869MOL0     C19793   2.122   9.389  11.198 -0.3053 -1.3736 -0.3241
  869MOL0     C19794   2.268   9.354  11.232  0.5484  0.2999  0.1531
  869MOL0     C19795   2.326   9.240  11.149  0.5792 -0.6334 -0.2565
  869MOL0     C19796   2.458   9.286  11.081  0.4261  0.3595 -0.5979
  869MOL0     C19797   2.529   9.182  10.997 -1.0436 -0.3231  0.4577
  869MOL0     C19798   2.679   9.219  10.972 -0.3288  0.8121 -0.3434
  869MOL0     C19799   2.704   9.327  10.869  0.1244  0.5196 -0.0891
  869MOL0     C19800   2.687   9.291  10.727  0.8109  0.1196 -0.2396
  869MOL0     N19801   2.711   9.148  10.686  0.2586 -0.2703  0.6428
  869MOL0     C19802   2.818   9.107  10.612 -0.5952  0.0353  0.3181
  869MOL0     C19803   2.786   8.978  10.570 -0.1984  0.1738 -0.1743
  869MOL0     C19804   2.874   8.891  10.483 -0.1419 -0.1319 -0.1861
  869MOL0     C19805   2.952   8.796  10.587  0.1800 -0.0171  0.3904
  869MOL0     C19806   3.058   8.706  10.519 -0.2407 -0.3394 -0.6540
  869MOL0     C19807   3.190   8.785  10.499  0.0749  0.9438 -0.6692
  869MOL0     O19808   3.288   8.701  10.432 -0.0843  0.6904  0.3617
  869MOL0     C19809   3.392   8.767  10.380 -1.5304  0.0179  0.5220
  869MOL0     C19810   3.390   8.829  10.254  0.0000 -1.2703 -0.9072
  869MOL0     C19811   3.506   8.896  10.202 -0.2146  0.6370 -0.5838
  869MOL0     C19812   3.488   8.982  10.079 -0.0846 -0.2279 -0.9132
  869MOL0     C19813   3.629   8.880  10.276  0.4940  0.1757 -0.0873
  869MOL0     C19814   3.761   8.943  10.251  0.1827  0.8369  0.2644
  869MOL0     O19815   3.867   8.915  10.331  0.1582  1.1681  0.6465
  869MOL0     C19816   3.995   8.968  10.317  0.9542  0.6040 -0.1210
  869MOL0     C19817   4.034   9.067  10.401  0.2454  0.1191 -0.3212
  869MOL0     C19818   4.156   9.129  10.391 -0.1779  0.6132  0.3041
  869MOL0     C19819   4.240   9.091  10.286  0.4584 -0.3262  0.3719
  869MOL0     O19820   4.364   9.138  10.270 -0.6236 -0.6384  0.4615
  869MOL0     C19821   4.439   9.149  10.395  0.1861 -0.4321  0.0990
  869MOL0     C19822   4.581   9.105  10.368  0.9051  0.9606 -0.4660
  869MOL0     C19823   4.649   9.183  10.265  0.7871 -0.2586  0.6278
  869MOL0     C19824   4.795   9.152  10.248  0.1733 -0.1804  0.6713
  869MOL0     C19825   4.862   9.232  10.137 -0.6544 -0.8078 -0.2438
  869MOL0     C19826   4.984   9.321  10.185  0.0804  0.0325  0.2333
  869MOL0     C19827   5.028   9.431  10.085  0.3636 -0.0341  0.0371
  869MOL0     C19828   5.175   9.480  10.110 -0.6624  0.5072 -0.3744
  869MOL0    Cl19829   5.258   9.530   9.956  0.1949 -0.0349 -0.2213
  869MOL0     C19830   4.197   9.000  10.190  0.4555  0.3993 -0.6529
  869MOL0     C19831   4.077   8.943  10.208  0.5598  0.8986  1.0572
  869MOL0     O19832   3.768   9.008  10.142 -0.9123  0.0169 -0.2265
  869MOL0     C19833   3.624   8.810  10.397 -0.4149  0.0248 -0.0223
  869MOL0     C19834   3.504   8.755  10.451  0.1026 -0.0894  0.5741
  869MOL0     N19835   2.656   8.949  10.616 -0.6742 -0.0858 -0.9057
  869MOL0     N19836   2.616   9.055  10.679 -0.0830 -0.8312  0.9128
  869MOL0     C19837   1.810   9.236  11.257  0.1241  0.3736  0.5158
  869MOL0     C19838   1.672   9.253  11.233 -0.4572  0.5883 -0.2621
  869MOL0     C19839   1.264   9.427  11.091  0.4183 -0.3869 -0.8425
  869MOL0     C19840   1.231   9.387  11.219  0.1368 -0.6346 -1.3007
  869MOL0     C19841   1.098   9.403  11.269 -0.2047  0.2313  0.4769
  869MOL0     C19842   0.999   9.460  11.192 -0.3176  0.1256  0.0469
  869MOL0     O19843   0.865   9.481  11.229  0.1639  0.2870  0.0259
  869MOL0     C19844   0.838   9.529  11.367 -0.2104 -0.7852  1.0189
  869MOL0     C19845   0.838   9.686  11.379  0.4404  0.8477  0.9982
  869MOL0     C19846   0.984   9.740  11.370 -0.2430  0.0054  0.3207
  869MOL0     C19847   1.011   9.876  11.437  0.0381  0.6084 -0.1398
  869MOL0     C19848   0.977   9.885  11.581  0.1132  0.3228  0.1520
  869MOL0     C19849   0.956   9.864  11.695  0.9575 -1.2521 -0.8103
  869MOL0     C19850   1.033   9.501  11.061 -0.5988  0.0960 -0.0645
  869MOL0     C19851   1.163   9.485  11.010 -0.4857 -0.2173  0.5669
  869MOL0     C19852   1.176   9.539  10.870 -0.0989 -0.6864 -0.2476
  869MOL0     H19853   1.690   9.477  10.980 -2.7315  2.8985  3.4426
  869MOL0     H19854   1.935   9.438  11.017 -0.2988  2.5621  2.1043
  869MOL0     H19855   2.089   9.471  11.263 -0.4387  1.0572 -3.2560
  869MOL0     H19856   2.115   9.430  11.097  0.5856 -2.7847 -0.9829
  869MOL0     H19857   2.325   9.444  11.210  0.7019 -0.6405 -4.1674
  869MOL0     H19858   2.278   9.335  11.339 -2.2369 -0.5759  0.3319
  869MOL0     H19859   2.339   9.149  11.208  0.3927 -0.2629  0.3632
  869MOL0     H19860   2.249   9.216  11.074 -1.2825  3.0093  0.2873
  869MOL0     H19861   2.436   9.370  11.015 -1.3685 -0.3481 -0.9516
  869MOL0     H19862   2.522   9.323  11.162 -1.7447  2.7828  0.1495
  869MOL0     H19863   2.474   9.165  10.904  0.0026  1.0866 -0.4556
  869MOL0     H19864   2.525   9.088  11.054  2.4219 -0.4722  0.6608
  869MOL0     H19865   2.712   9.251  11.071 -0.0755 -0.5936  0.0470
  869MOL0     H19866   2.731   9.124  10.953 -1.1250  0.1022  0.8446
  869MOL0     H19867   2.809   9.359  10.874  1.4461 -2.9085 -2.2371
  869MOL0     H19868   2.656   9.424  10.887  0.5785  0.6951  0.2211
  869MOL0     H19869   2.579   9.299  10.712  0.2476 -1.2530  2.4516
  869MOL0     H19870   2.743   9.361  10.665  3.9516  0.6701  2.9228
  869MOL0     H19871   2.904   9.160  10.573 -0.0349 -0.4027  0.9177
  869MOL0     H19872   2.940   8.953  10.421 -2.2855  0.7394 -1.6953
  869MOL0     H19873   2.813   8.834  10.413 -0.3652 -1.7407  1.2621
  869MOL0     H19874   2.990   8.858  10.669 -4.0945  2.4845  0.8147
  869MOL0     H19875   2.880   8.725  10.627  0.4110 -1.6766 -1.9325
  869MOL0     H19876   3.084   8.626  10.589  1.3473  0.6318 -0.0668
  869MOL0     H19877   3.020   8.670  10.423 -1.2069 -0.5003 -0.2204
  869MOL0     H19878   3.167   8.878  10.446  1.5767  1.8240  0.1757
  869MOL0     H19879   3.232   8.805  10.598 -1.1139  0.3358 -0.0135
  869MOL0     H19880   3.292   8.845  10.211  0.0605 -1.4102 -1.0953
  869MOL0     H19881   3.544   8.942   9.995  2.1137  3.4662 -1.4615
  869MOL0     H19882   3.519   9.084  10.105 -0.5142 -0.4784  0.6886
  869MOL0     H19883   3.382   8.987  10.052  0.0553  0.0821 -1.4144
  869MOL0     H19884   3.962   9.079  10.482  1.4858 -3.0679  1.4088
  869MOL0     H19885   4.168   9.207  10.465 -2.1336  1.4519 -0.1989
  869MOL0     H19886   4.420   9.248  10.438 -3.2340 -0.5805 -0.7637
  869MOL0     H19887   4.392   9.076  10.461 -1.4841  1.8259  1.5629
  869MOL0     H19888   4.638   9.103  10.462 -1.0309 -0.9391  0.7624
  869MOL0     H19889   4.579   9.000  10.341  0.9717  0.4510  1.3755
  869MOL0     H19890   4.636   9.291  10.281  1.4541  0.2851 -2.1093
  869MOL0     H19891   4.595   9.155  10.175 -0.1467 -1.6364  1.5735
  869MOL0     H19892   4.809   9.044  10.235  0.2220 -0.1954  0.8459
  869MOL0     H19893   4.838   9.185  10.343 -1.0111 -2.2846  2.0099
  869MOL0     H19894   4.892   9.166  10.056  0.0711 -0.5462 -0.1923
  869MOL0     H19895   4.788   9.301  10.095 -0.4644  0.3090  1.1871
  869MOL0     H19896   5.070   9.256  10.205  0.8560  1.6975  2.7838
  869MOL0     H19897   4.952   9.372  10.276 -1.5891  0.4555 -0.5614
  869MOL0     H19898   4.970   9.524  10.091  3.3555  1.8989  1.2939
  869MOL0     H19899   5.010   9.393   9.983  0.8161  0.0246 -0.0650
  869MOL0     H19900   5.237   9.411  10.167  0.4728  2.3347  0.7135
  869MOL0     H19901   5.164   9.568  10.174 -1.6422 -0.2598  0.5508
  869MOL0     H19902   4.258   8.957  10.111 -0.4578 -2.0727 -0.1154
  869MOL0     H19903   4.043   8.873  10.132 -1.1446  1.3000  1.3988
  869MOL0     H19904   3.708   8.798  10.465  0.2143  1.4670 -0.5068
  869MOL0     H19905   3.508   8.695  10.541 -2.2520 -1.2027  0.0081
  869MOL0     H19906   1.841   9.166  11.335 -1.6582  2.8909  3.7378
  869MOL0     H19907   1.594   9.193  11.280 -1.2076  0.2602 -1.8415
  869MOL0     H19908   1.308   9.343  11.281  1.3812  1.7834 -1.0173
  869MOL0     H19909   1.074   9.352  11.362 -2.0594 -1.0076 -0.6086
  869MOL0     H19910   0.738   9.503  11.402 -0.0346 -0.3358  1.9009
  869MOL0     H19911   0.901   9.486  11.446  0.3137  0.2195  1.1681
  869MOL0     H19912   0.793   9.705  11.477 -1.0898 -1.7979  0.9375
  869MOL0     H19913   0.780   9.719  11.292  1.2642 -2.7393 -1.1493
  869MOL0     H19914   1.054   9.665  11.408  0.5403 -0.6549 -2.2051
  869MOL0     H19915   1.022   9.742  11.268  1.4846  1.3882  0.9511
  869MOL0     H19916   0.952   9.953  11.385  0.0288  0.0403 -0.9951
  869MOL0     H19917   1.116   9.903  11.427  0.0964  0.0659 -1.1906
  869MOL0     H19918   0.949   9.827  11.795  0.9191 -3.4787 -1.5799
  869MOL0     H19919   0.954   9.536  10.996 -1.1992 -3.2531 -1.3687
  869MOL0     H19920   1.253   9.616  10.871 -0.7837  0.0141 -0.5720
  869MOL0     H19921   1.203   9.458  10.801 -2.0877 -0.9805 -0.7587
  869MOL0     H19922   1.087   9.588  10.829  0.5615 -1.2923 -2.5848
  870MOL0     O19923   1.740   4.865  10.014 -0.1246  0.1786 -1.1840
  870MOL0     C19924   1.696   4.916  10.112  0.0834 -0.5554  0.1049
  870MOL0     O19925   1.758   5.019  10.179 -0.0156 -0.4742 -0.2543
  870MOL0     C19926   1.882   5.042  10.138 -0.4875 -0.5686 -0.5228
  870MOL0     C19927   1.918   5.144  10.047  0.2723 -0.3562  0.3299
  870MOL0     C19928   2.059   5.155  10.010  0.3382 -0.2207  0.5714
  870MOL0     C19929   2.162   5.077  10.068  0.0597 -0.3452  0.5090
  870MOL0     O19930   2.296   5.103  10.046  0.5503  0.4047 -0.2960
  870MOL0     C19931   2.358   4.977  10.011 -1.2007  0.5898  0.0426
  870MOL0     C19932   2.483   5.021   9.933 -0.4451  0.9166  0.0628
  870MOL0     C19933   2.453   5.094   9.803  0.3371 -1.1801 -1.1943
  870MOL0     C19934   2.373   5.018   9.706  1.0962  0.2830  0.0629
  870MOL0     C19935   2.428   5.056   9.566 -0.1961  0.3874  0.8777
  870MOL0     C19936   2.404   5.198   9.527 -0.3363 -0.9553 -0.0936
  870MOL0     C19937   2.415   5.225   9.375 -1.0281 -0.2048  0.9846
  870MOL0     C19938   2.387   5.377   9.346 -0.3504 -0.5018 -0.5561
  870MOL0     N19939   2.504   5.450   9.388 -0.1750 -0.4479  0.1394
  870MOL0     C19940   2.631   5.438   9.339 -0.3683  0.3843  0.5903
  870MOL0     C19941   2.701   5.551   9.387  0.0805 -0.0793 -0.7379
  870MOL0     C19942   2.851   5.572   9.360  0.5887 -0.2967  0.0286
  870MOL0     C19943   2.915   5.480   9.257  0.6161  0.5127  0.9817
  870MOL0     C19944   3.060   5.501   9.230  0.5126  0.0595  0.0883
  870MOL0     C19945   3.133   5.378   9.165  0.1876  0.3483  0.4774
  870MOL0     O19946   3.257   5.413   9.095 -0.1950 -0.4638  0.1994
  870MOL0     C19947   3.370   5.425   9.172  0.0615  0.0494  0.9156
  870MOL0     C19948   3.495   5.439   9.110 -0.4890  0.0419 -0.1684
  870MOL0     C19949   3.621   5.460   9.165  1.1483  0.7436  0.4115
  870MOL0     C19950   3.734   5.485   9.074 -0.2991 -0.4432  0.2275
  870MOL0     C19951   3.635   5.457   9.306  0.1977 -0.1502 -1.4764
  870MOL0     C19952   3.757   5.464   9.389 -1.0643 -0.1475  0.2579
  870MOL0     O19953   3.743   5.429   9.520  0.7639 -0.0903  0.3792
  870MOL0     C19954   3.852   5.421   9.600  0.2556 -0.0507 -0.4542
  870MOL0     C19955   3.849   5.484   9.726 -0.0707  1.1805 -0.3751
  870MOL0     C19956   3.955   5.475   9.806  0.3452 -0.3680  0.0761
  870MOL0     C19957   4.072   5.403   9.769 -0.1365  0.1105 -0.4799
  870MOL0     O19958   4.177   5.377   9.851 -0.6387 -0.0858 -0.9292
  870MOL0     C19959   4.252   5.253   9.848  0.8824  0.1890  0.3408
  870MOL0     C19960   4.365   5.244   9.945  0.0511  0.1145  0.0947
  870MOL0     C19961   4.438   5.108   9.936 -0.0859  0.2016 -0.9386
  870MOL0     C19962   4.567   5.103  10.026 -0.1622  0.2009  0.4436
  870MOL0     C19963   4.651   4.974  10.026  0.2380 -0.6226  0.1814
  870MOL0     C19964   4.771   4.989  10.125  0.0280  0.1160  0.1858
  870MOL0     C19965   4.863   4.871  10.125 -0.9818 -0.1798  0.4560
  870MOL0     C19966   4.995   4.900  10.193 -0.1474 -0.7825 -0.3121
  870MOL0    Cl19967   5.075   4.745  10.218 -0.2638  0.1294 -0.2830
  870MOL0     C19968   4.072   5.338   9.647 -0.2084 -0.1422 -0.2812
  870MOL0     C19969   3.966   5.359   9.558  1.1916  0.5920 -0.2421
  870MOL0     O19970   3.857   5.503   9.338  0.0696  0.1949  0.0507
  870MOL0     C19971   3.509   5.443   9.376 -0.3752 -0.1981 -0.3384
  870MOL0     C19972   3.383   5.425   9.312 -0.4749 -0.1643 -1.0201
  870MOL0     N19973   2.612   5.624   9.465 -0.3608 -0.0770  0.6772
  870MOL0     N19974   2.503   5.553   9.476 -0.4073  0.3191  0.2933
  870MOL0     C19975   2.114   4.977  10.160 -0.0062 -0.1433  0.9055
  870MOL0     C19976   1.982   4.963  10.196  0.1315  0.2201  0.2391
  870MOL0     C19977   1.564   4.869  10.160 -0.7320 -0.7398 -0.0769
  870MOL0     C19978   1.468   4.825  10.070  0.0813 -0.2538  0.1007
  870MOL0     C19979   1.343   4.775  10.096  0.2223  0.6502 -0.1426
  870MOL0     C19980   1.304   4.765  10.229  0.2010 -0.6164  0.7310
  870MOL0     O19981   1.182   4.714  10.247  0.3597 -1.0321 -1.0129
  870MOL0     C19982   1.133   4.731  10.380 -0.1171 -0.4736 -0.4330
  870MOL0     C19983   0.982   4.697  10.390 -0.0238  0.1276  0.0896
  870MOL0     C19984   0.920   4.703  10.530 -1.0991  0.0203  0.3669
  870MOL0     C19985   0.761   4.698  10.516  0.2696  0.1363  0.0061
  870MOL0     C19986   0.702   4.667  10.648  0.7911 -0.7795  0.2662
  870MOL0     C19987   0.669   4.641  10.762  0.0748 -0.4409 -0.0206
  870MOL0     C19988   1.396   4.806  10.330  0.6033  0.1051  0.1450
  870MOL0     C19989   1.523   4.855  10.294  1.1209 -1.5312 -0.2996
  870MOL0     C19990   1.616   4.891  10.409 -0.3445 -1.2157 -0.4248
  870MOL0     H19991   1.849   5.215  10.003  0.2724 -1.4575 -1.5439
  870MOL0     H19992   2.075   5.230   9.934  0.5949 -0.5258  0.3170
  870MOL0     H19993   2.297   4.906   9.954  1.9894 -2.4582  0.1376
  870MOL0     H19994   2.389   4.914  10.096 -0.1460 -1.7334 -1.9505
  870MOL0     H19995   2.534   5.093   9.999 -1.9205 -0.3165  2.7058
  870MOL0     H19996   2.542   4.930   9.920 -1.6401  0.1403 -0.0139
  870MOL0     H19997   2.393   5.177   9.840  0.9701 -2.0376  2.0199
  870MOL0     H19998   2.547   5.145   9.776 -0.5612  1.8033  0.7517
  870MOL0     H19999   2.383   4.911   9.724 -0.0053 -0.1813 -1.7661
  870MOL0     H20000   2.266   5.040   9.716  0.8614 -1.5989  2.5704
  870MOL0     H20001   2.378   4.986   9.498 -0.7090  1.0086  0.6048
  870MOL0     H20002   2.534   5.030   9.560 -0.3757 -0.5170  1.4890
  870MOL0     H20003   2.306   5.237   9.556  1.1197  2.1179  1.0700
  870MOL0     H20004   2.483   5.251   9.580  1.2749 -0.9390 -2.3708
  870MOL0     H20005   2.342   5.162   9.323  0.6575  0.5229 -2.5705
  870MOL0     H20006   2.514   5.197   9.340 -0.5991  1.6746  0.5606
  870MOL0     H20007   2.369   5.389   9.239 -0.4627  1.6874 -0.3328
  870MOL0     H20008   2.302   5.420   9.398  1.5181  3.5435 -0.4825
  870MOL0     H20009   2.660   5.352   9.280 -0.9857  0.1711  0.5960
  870MOL0     H20010   2.914   5.559   9.448 -0.0512  0.9605  0.7054
  870MOL0     H20011   2.853   5.676   9.326  2.1900  0.0261  1.0341
  870MOL0     H20012   2.890   5.378   9.285 -2.9361  1.2259  0.8866
  870MOL0     H20013   2.857   5.491   9.164  0.6230 -2.5281  0.5279
  870MOL0     H20014   3.081   5.589   9.168  1.4748  0.0778  0.4197
  870MOL0     H20015   3.115   5.518   9.323  0.7660  1.2042 -0.2464
  870MOL0     H20016   3.154   5.305   9.244  1.1927  1.0122  0.8529
  870MOL0     H20017   3.057   5.335   9.099  1.3445 -2.0367  0.5753
  870MOL0     H20018   3.489   5.419   9.004  0.5926 -1.4126  0.0118
  870MOL0     H20019   3.701   5.468   8.971 -1.7609 -1.1072  0.7760
  870MOL0     H20020   3.823   5.424   9.096  0.3459  0.6730  0.8061
  870MOL0     H20021   3.760   5.590   9.092 -1.8114 -0.0446  0.2112
  870MOL0     H20022   3.759   5.534   9.758 -2.2620 -0.7708 -3.0412
  870MOL0     H20023   3.945   5.511   9.908 -0.4164 -1.3086  0.3431
  870MOL0     H20024   4.183   5.169   9.860 -0.4411  0.9871 -1.3248
  870MOL0     H20025   4.296   5.246   9.749 -1.1190 -0.2974 -0.5725
  870MOL0     H20026   4.438   5.324   9.930  0.3946  0.3059  2.4378
  870MOL0     H20027   4.331   5.249  10.049 -1.6860 -2.2568 -0.2691
  870MOL0     H20028   4.469   5.098   9.831  0.6019  2.0252 -0.9527
  870MOL0     H20029   4.366   5.030   9.962 -0.9710  1.4050  0.3353
  870MOL0     H20030   4.543   5.125  10.130  0.3537  1.0810  0.3865
  870MOL0     H20031   4.625   5.187   9.984  0.8107  0.4756  2.2434
  870MOL0     H20032   4.599   4.880  10.046 -1.2988  0.3183  0.8863
  870MOL0     H20033   4.684   4.957   9.924  0.1826 -2.0301  0.3860
  870MOL0     H20034   4.732   5.019  10.222  1.2701 -0.1401  0.7881
  870MOL0     H20035   4.833   5.074  10.093  1.6399 -1.3070 -0.6212
  870MOL0     H20036   4.875   4.848  10.019 -4.9048 -1.4935  0.1475
  870MOL0     H20037   4.809   4.788  10.171  0.4547 -0.6537  1.3494
  870MOL0     H20038   4.973   4.934  10.294  0.1220 -1.8244  0.1072
  870MOL0     H20039   5.061   4.968  10.138  0.2191 -2.0651 -1.5085
  870MOL0     H20040   4.156   5.286   9.601  0.1467  1.6809 -1.8068
  870MOL0     H20041   3.973   5.326   9.455  1.9248  0.0529 -0.0258
  870MOL0     H20042   3.502   5.422   9.483 -3.0872 -3.7603 -1.0342
  870MOL0     H20043   3.303   5.414   9.384  0.3576  4.3482  0.9189
  870MOL0     H20044   2.173   4.898  10.207 -2.4131 -1.8379  1.2584
  870MOL0     H20045   1.945   4.880  10.255  2.4512 -0.9057  0.2164
  870MOL0     H20046   1.498   4.838   9.966  2.4019  3.1463  1.0298
  870MOL0     H20047   1.287   4.729  10.015 -0.0663 -3.5066  2.1433
  870MOL0     H20048   1.187   4.676  10.458  0.6655  3.2770  1.9744
  870MOL0     H20049   1.142   4.837  10.405  0.6383 -0.9403  1.4276
  870MOL0     H20050   0.968   4.597  10.349  0.9167 -0.7916  1.8659
  870MOL0     H20051   0.928   4.770  10.330  0.0374 -1.4000 -1.9113
  870MOL0     H20052   0.961   4.621  10.590 -2.0889 -2.0183 -1.6116
  870MOL0     H20053   0.953   4.798  10.574  0.7901  0.0371 -0.9565
  870MOL0     H20054   0.729   4.613  10.455  3.6332  0.5691 -2.6611
  870MOL0     H20055   0.721   4.790  10.473  0.1959 -0.4104 -1.1524
  870MOL0     H20056   0.621   4.614  10.853 -1.4351  0.1282 -0.6160
  870MOL0     H20057   1.367   4.813  10.435 -0.5716 -0.5639 -0.1155
  870MOL0     H20058   1.721   4.867  10.389  0.3522  1.6443 -0.5698
  870MOL0     H20059   1.611   4.998  10.428  0.4341 -0.4115 -4.0889
  870MOL0     H20060   1.582   4.830  10.494 -0.1629 -3.5175 -1.9050
  871MOL0     O20061   4.353   4.744   7.379 -0.4067 -0.6511 -0.1434
  871MOL0     C20062   4.308   4.792   7.278  1.1284 -0.0350  0.0917
  871MOL0     O20063   4.373   4.872   7.190 -0.6883  0.5887  0.7122
  871MOL0     C20064   4.515   4.878   7.181 -0.1027 -0.0661  0.4577
  871MOL0     C20065   4.603   4.785   7.234 -0.2940  0.1621 -0.3954
  871MOL0     C20066   4.740   4.810   7.228 -0.0700 -0.4859 -0.0279
  871MOL0     C20067   4.797   4.911   7.146  0.7682  0.9518 -0.1519
  871MOL0     O20068   4.934   4.927   7.140  0.5128 -0.3300 -0.1173
  871MOL0     C20069   4.985   4.979   7.261  0.6388  0.4360 -0.1624
  871MOL0     C20070   4.971   5.138   7.283 -0.0735  0.7101  0.8516
  871MOL0     C20071   4.937   5.180   7.422  0.3799  0.0871 -0.5733
  871MOL0     C20072   4.803   5.122   7.472 -0.6255  0.1120  0.7016
  871MOL0     C20073   4.681   5.195   7.412  0.3023 -0.4383  0.5544
  871MOL0     C20074   4.565   5.211   7.518 -0.3265  0.4778  0.4095
  871MOL0     C20075   4.482   5.076   7.537  0.2040  0.4263  0.4416
  871MOL0     C20076   4.554   4.952   7.589 -0.0719  0.9958 -0.8594
  871MOL0     N20077   4.606   4.967   7.729 -0.1241 -0.3957  0.4591
  871MOL0     C20078   4.554   5.039   7.827 -0.3197 -0.4455  0.1458
  871MOL0     C20079   4.630   5.020   7.933  0.5218 -1.0193 -1.6739
  871MOL0     C20080   4.602   5.070   8.082  0.1720  0.1030  0.3504
  871MOL0     C20081   4.465   5.020   8.138 -0.0972 -0.0330 -0.8236
  871MOL0     C20082   4.454   4.863   8.144 -0.5641 -0.3172 -0.2113
  871MOL0     C20083   4.552   4.789   8.246 -1.1913  0.2043 -0.0035
  871MOL0     O20084   4.517   4.812   8.385 -0.3484  0.6774  0.2132
  871MOL0     C20085   4.426   4.730   8.436  0.7579  0.1743  0.6818
  871MOL0     C20086   4.425   4.592   8.418  0.0167  0.7216  0.1312
  871MOL0     C20087   4.328   4.505   8.475 -0.2788 -0.0186  0.3082
  871MOL0     C20088   4.361   4.363   8.467  0.0601 -0.2144  0.5442
  871MOL0     C20089   4.222   4.548   8.547 -0.6608  0.1424  0.9176
  871MOL0     C20090   4.121   4.465   8.618 -0.4310  0.2078 -0.2222
  871MOL0     O20091   4.014   4.526   8.674 -0.8978  0.0718 -0.4039
  871MOL0     C20092   3.898   4.448   8.699  0.3378 -0.0504  0.1444
  871MOL0     C20093   3.830   4.505   8.803  0.2010 -0.6240 -0.7021
  871MOL0     C20094   3.716   4.448   8.860 -0.2725 -0.0161 -0.5792
  871MOL0     C20095   3.664   4.327   8.803 -0.3393  0.7079  1.2804
  871MOL0     O20096   3.555   4.279   8.854 -0.0983  0.6245  0.5662
  871MOL0     C20097   3.560   4.139   8.885  0.6917  0.0777  0.0952
  871MOL0     C20098   3.449   4.085   8.974 -0.3412 -0.0973  0.5915
  871MOL0     C20099   3.459   3.942   9.001 -0.0382  0.7877 -0.5986
  871MOL0     C20100   3.596   3.880   8.993  0.0985  0.7315  0.0173
  871MOL0     C20101   3.599   3.722   9.015 -0.4956  0.1685 -0.6000
  871MOL0     C20102   3.582   3.679   9.156 -0.5060 -0.2115 -0.0207
  871MOL0     C20103   3.587   3.522   9.171 -0.0511 -0.9043 -0.0179
  871MOL0     C20104   3.601   3.485   9.323 -0.4740  0.7136 -0.3137
  871MOL0    Cl20105   3.524   3.608   9.426  0.1641  0.0427  0.1568
  871MOL0     C20106   3.734   4.271   8.692  0.1492 -0.1147 -0.2767
  871MOL0     C20107   3.847   4.333   8.639  0.0234  0.4837  0.0489
  871MOL0     O20108   4.149   4.348   8.643  0.3439 -0.3720 -0.0549
  871MOL0     C20109   4.214   4.693   8.559  0.8466  0.0693  0.2023
  871MOL0     C20110   4.317   4.782   8.510  0.5837  0.1083  0.1570
  871MOL0     N20111   4.734   4.936   7.903  0.0845 -0.1364 -0.2662
  871MOL0     N20112   4.721   4.912   7.781  0.3732  1.0177  0.0546
  871MOL0     C20113   4.707   4.978   7.065 -0.3054 -0.1805  0.3231
  871MOL0     C20114   4.569   4.972   7.091 -0.2881 -0.0398  0.1011
  871MOL0     C20115   4.165   4.776   7.241 -0.5569  0.4442  0.5086
  871MOL0     C20116   4.131   4.725   7.114  1.2688  1.2698 -0.1877
  871MOL0     C20117   4.001   4.686   7.090  0.0641  0.4827  0.6236
  871MOL0     C20118   3.895   4.706   7.183 -0.1084  0.4329  0.6883
  871MOL0     O20119   3.774   4.663   7.156  0.3247 -0.2045  0.2244
  871MOL0     C20120   3.670   4.625   7.252 -0.2246  0.3244 -0.1646
  871MOL0     C20121   3.579   4.519   7.182  0.0281  0.2732  0.6061
  871MOL0     C20122   3.444   4.487   7.252 -0.1178 -0.1490  0.3168
  871MOL0     C20123   3.359   4.385   7.175 -0.6230 -0.1601 -0.1956
  871MOL0     C20124   3.220   4.438   7.172  0.0866 -0.0899  0.6553
  871MOL0     C20125   3.108   4.471   7.185  0.4138  0.3360  0.6018
  871MOL0     C20126   3.936   4.768   7.307  0.2257  0.2690 -0.2485
  871MOL0     C20127   4.064   4.808   7.338  0.4670 -0.6670  0.1057
  871MOL0     C20128   4.095   4.865   7.476 -0.1644 -0.1786 -0.0021
  871MOL0     H20129   4.569   4.689   7.273 -0.4022 -1.1135 -3.4181
  871MOL0     H20130   4.812   4.754   7.288 -1.4062 -0.2764  1.8794
  871MOL0     H20131   5.092   4.962   7.260  0.6558  0.4674 -2.0515
  871MOL0     H20132   4.954   4.917   7.346  1.4072 -0.1934 -0.3415
  871MOL0     H20133   5.067   5.180   7.250 -0.1900 -0.6704 -1.4896
  871MOL0     H20134   4.896   5.177   7.214  0.6626  3.3983  1.4528
  871MOL0     H20135   5.008   5.146   7.498  1.4502  2.4363 -0.4374
  871MOL0     H20136   4.932   5.289   7.419 -2.7452  0.1276  1.2892
  871MOL0     H20137   4.796   5.016   7.446  2.2537  0.2519 -1.0619
  871MOL0     H20138   4.808   5.119   7.582 -0.0156  0.0985  0.6800
  871MOL0     H20139   4.642   5.140   7.326  0.2943  0.9254 -0.3517
  871MOL0     H20140   4.706   5.297   7.381 -0.7758  0.7227  3.2518
  871MOL0     H20141   4.607   5.241   7.615  1.1977 -0.7898  0.1814
  871MOL0     H20142   4.488   5.276   7.476 -1.8270 -0.7054  1.2504
  871MOL0     H20143   4.439   5.059   7.438  2.1118  1.7829 -0.6980
  871MOL0     H20144   4.394   5.091   7.599 -0.5665 -2.0901  0.0747
  871MOL0     H20145   4.479   4.873   7.597  2.8915 -2.2191 -2.1511
  871MOL0     H20146   4.625   4.908   7.518 -0.1021 -0.6931  0.1160
  871MOL0     H20147   4.466   5.101   7.818  0.1342  0.0879 -0.8277
  871MOL0     H20148   4.596   5.179   8.076 -3.1684 -0.0530 -1.7928
  871MOL0     H20149   4.683   5.047   8.153 -1.9056  0.6443  3.0867
  871MOL0     H20150   4.450   5.050   8.242 -2.4504  2.2735 -1.7332
  871MOL0     H20151   4.389   5.069   8.077 -3.0256  1.2757  3.4737
  871MOL0     H20152   4.352   4.851   8.181 -0.1400 -1.5119  0.6605
  871MOL0     H20153   4.466   4.811   8.048  1.1599 -2.1351  0.9043
  871MOL0     H20154   4.553   4.680   8.233  3.9247 -0.5465  3.6636
  871MOL0     H20155   4.657   4.815   8.234 -1.2653 -0.0590 -1.3053
  871MOL0     H20156   4.513   4.548   8.374  0.7863  0.4498  1.8588
  871MOL0     H20157   4.375   4.314   8.564 -1.1171 -1.1068  0.2706
  871MOL0     H20158   4.457   4.348   8.417 -1.1392  2.5628 -2.9856
  871MOL0     H20159   4.298   4.298   8.408  2.3142 -1.3441 -0.7609
  871MOL0     H20160   3.864   4.602   8.840  2.0436 -2.1732  2.0495
  871MOL0     H20161   3.671   4.501   8.944 -3.3126 -0.8245 -1.5618
  871MOL0     H20162   3.558   4.081   8.792  2.2359  1.5895 -0.9302
  871MOL0     H20163   3.649   4.121   8.945  1.2708 -0.8720 -0.9998
  871MOL0     H20164   3.451   4.148   9.064  1.7659  2.0305 -0.8165
  871MOL0     H20165   3.348   4.094   8.932 -0.7879 -2.3599  1.0703
  871MOL0     H20166   3.404   3.883   8.928  0.5711 -2.0500  1.0572
  871MOL0     H20167   3.425   3.925   9.104  1.8789  1.0082  0.1231
  871MOL0     H20168   3.656   3.923   9.074 -0.2955  1.8388 -0.2552
  871MOL0     H20169   3.641   3.902   8.895  0.1992  1.1117  0.1461
  871MOL0     H20170   3.536   3.664   8.946  0.0707  1.1843 -2.0188
  871MOL0     H20171   3.702   3.688   8.999 -0.3447 -0.1625  0.9234
  871MOL0     H20172   3.480   3.705   9.184 -1.0431  0.0849 -2.0611
  871MOL0     H20173   3.650   3.727   9.226 -0.0027  1.1103 -1.3636
  871MOL0     H20174   3.672   3.473   9.123 -1.5021 -3.9875  0.3158
  871MOL0     H20175   3.497   3.481   9.125 -2.7143  2.0833  2.0537
  871MOL0     H20176   3.707   3.463   9.343  0.0009 -1.2926 -4.0307
  871MOL0     H20177   3.550   3.390   9.337  4.3682 -1.8526  2.9055
  871MOL0     H20178   3.690   4.188   8.638 -2.5367  1.8717 -1.3842
  871MOL0     H20179   3.900   4.291   8.554  0.2717  1.4998 -0.3052
  871MOL0     H20180   4.139   4.728   8.629  0.5299  1.7756 -0.9312
  871MOL0     H20181   4.317   4.889   8.530 -0.3028  0.6196 -2.2996
  871MOL0     H20182   4.746   5.041   6.987 -1.3093  0.1375  0.0608
  871MOL0     H20183   4.493   5.020   7.030 -0.7253  0.4665  1.0196
  871MOL0     H20184   4.213   4.716   7.044  1.3845  1.3597 -0.0648
  871MOL0     H20185   3.965   4.633   7.002 -0.8771 -2.6565  2.7114
  871MOL0     H20186   3.717   4.583   7.341 -0.5855  1.7448  0.7339
  871MOL0     H20187   3.610   4.704   7.299 -2.5578 -1.6413  0.3295
  871MOL0     H20188   3.630   4.424   7.164 -3.3885 -1.7177  0.6582
  871MOL0     H20189   3.558   4.561   7.083 -1.6559  0.6960  1.1205
  871MOL0     H20190   3.468   4.435   7.345  1.4882 -1.5381 -0.8245
  871MOL0     H20191   3.384   4.578   7.259 -1.9982 -1.2458 -0.7293
  871MOL0     H20192   3.367   4.286   7.221 -1.4271 -1.4486 -2.6640
  871MOL0     H20193   3.397   4.365   7.074 -1.1118 -1.5113 -0.1366
  871MOL0     H20194   3.006   4.501   7.186 -0.4007 -2.1938  0.4384
  871MOL0     H20195   3.849   4.788   7.368 -1.1607  0.2508 -2.1172
  871MOL0     H20196   4.141   4.784   7.533  0.3306 -0.2440 -0.4745
  871MOL0     H20197   4.176   4.939   7.466 -0.2597 -0.2168 -1.2001
  871MOL0     H20198   3.999   4.894   7.519 -0.4610 -3.1526  1.6149
  872MOL0     O20199   1.322   5.583   6.398  0.1579 -0.4839  0.3593
  872MOL0     C20200   1.304   5.629   6.508  0.2918  0.5444 -0.1532
  872MOL0     O20201   1.396   5.670   6.593 -0.1623 -0.2823  0.0763
  872MOL0     C20202   1.535   5.662   6.567  0.6330  0.6249 -0.5603
  872MOL0     C20203   1.597   5.556   6.496 -0.1794 -0.2512 -0.1006
  872MOL0     C20204   1.735   5.550   6.485 -0.0390 -0.8253  0.6935
  872MOL0     C20205   1.820   5.641   6.545  0.4786  0.5138  0.2155
  872MOL0     O20206   1.955   5.626   6.528 -0.1803 -0.0483  0.5221
  872MOL0     C20207   2.046   5.693   6.620 -0.2324  0.2427 -0.9180
  872MOL0     C20208   2.182   5.646   6.597 -0.0369 -0.5220  0.2224
  872MOL0     C20209   2.282   5.712   6.682 -0.8767  0.5088  0.0791
  872MOL0     C20210   2.410   5.638   6.645  0.2945 -0.4354 -0.2575
  872MOL0     C20211   2.533   5.713   6.700 -0.5811 -0.9299 -0.0607
  872MOL0     C20212   2.528   5.764   6.848  0.5184  0.4889  0.7539
  872MOL0     C20213   2.491   5.645   6.936 -0.1923  0.2991  0.0662
  872MOL0     C20214   2.541   5.667   7.082  0.4699 -0.0340 -0.4291
  872MOL0     N20215   2.512   5.545   7.155  0.1196  0.1528 -0.1883
  872MOL0     C20216   2.392   5.508   7.208 -0.6550  0.6027  0.3519
  872MOL0     C20217   2.420   5.393   7.273  0.8256  0.3762 -0.6795
  872MOL0     C20218   2.312   5.314   7.329  0.7788  0.0344 -0.9123
  872MOL0     C20219   2.362   5.267   7.468 -0.5287  0.1074 -0.8696
  872MOL0     C20220   2.261   5.185   7.556 -0.0546  0.0258  0.3461
  872MOL0     C20221   2.130   5.259   7.575  0.7868  0.4357  0.2463
  872MOL0     O20222   2.046   5.170   7.637  0.2560 -0.3650 -0.0619
  872MOL0     C20223   1.914   5.210   7.647 -0.7016 -0.2433 -0.7287
  872MOL0     C20224   1.872   5.335   7.695 -0.5493  0.1694 -0.2290
  872MOL0     C20225   1.733   5.359   7.706  0.4469 -0.3392  0.6584
  872MOL0     C20226   1.677   5.502   7.734 -0.2351 -0.5317 -0.4148
  872MOL0     C20227   1.643   5.249   7.692  0.0700  0.0077 -0.0145
  872MOL0     C20228   1.500   5.246   7.714  0.2762 -0.0292  0.1510
  872MOL0     O20229   1.419   5.185   7.620  0.3339 -0.2720 -0.1180
  872MOL0     C20230   1.289   5.175   7.642  0.6107  0.1814 -0.4855
  872MOL0     C20231   1.232   5.122   7.763 -0.7678  0.1970  0.1633
  872MOL0     C20232   1.096   5.113   7.785  0.2809  0.1926 -0.8241
  872MOL0     C20233   1.008   5.166   7.688 -0.2105  0.7310  0.7925
  872MOL0     O20234   0.873   5.168   7.694 -0.3981 -0.4541 -0.0652
  872MOL0     C20235   0.812   5.161   7.821 -0.3699  0.3877  0.4275
  872MOL0     C20236   0.665   5.186   7.822 -0.3370 -1.0719  0.2905
  872MOL0     C20237   0.581   5.110   7.924 -0.5054  0.0550 -0.3772
  872MOL0     C20238   0.442   5.168   7.924  0.9049  0.5681 -0.2311
  872MOL0     C20239   0.370   5.125   8.056 -0.6470  0.5494 -0.1296
  872MOL0     C20240   0.339   4.973   8.080 -0.3238  0.5709 -0.4181
  872MOL0     C20241   0.251   4.903   7.976  1.0178  0.4632  0.5356
  872MOL0     C20242   0.121   4.980   7.935 -0.6386 -0.4967  0.1555
  872MOL0    Cl20243   0.028   4.861   7.833  0.3383  0.2603  0.3210
  872MOL0     C20244   1.068   5.225   7.570  0.4249 -0.0554  0.4365
  872MOL0     C20245   1.205   5.238   7.551  0.2849  0.6345  0.0920
  872MOL0     O20246   1.461   5.300   7.814 -0.5131 -0.4179  0.1196
  872MOL0     C20247   1.693   5.134   7.637 -0.2435  0.6233 -0.1650
  872MOL0     C20248   1.828   5.113   7.615  0.6212  0.2157  0.2267
  872MOL0     N20249   2.552   5.354   7.256 -0.1274 -0.2122 -0.7030
  872MOL0     N20250   2.603   5.443   7.175  0.7847  0.2618  0.2143
  872MOL0     C20251   1.759   5.738   6.618  0.8437 -0.6693 -0.4266
  872MOL0     C20252   1.617   5.749   6.635 -0.7221  0.3142  0.0058
  872MOL0     C20253   1.164   5.624   6.548 -0.6515  0.4024 -0.9505
  872MOL0     C20254   1.090   5.504   6.535 -0.4282  0.1269 -0.9031
  872MOL0     C20255   0.950   5.500   6.564  0.5961  0.2641  0.2035
  872MOL0     C20256   0.879   5.606   6.609  0.1169  0.2091 -0.0766
  872MOL0     O20257   0.742   5.632   6.627 -0.4551 -0.2857 -0.1753
  872MOL0     C20258   0.651   5.521   6.597  0.6050 -0.2330  0.3112
  872MOL0     C20259   0.607   5.443   6.720 -0.1576  0.3210 -0.5111
  872MOL0     C20260   0.541   5.523   6.836  0.4752  0.0118 -0.5006
  872MOL0     C20261   0.645   5.601   6.922  0.3911 -0.0536 -0.5302
  872MOL0     C20262   0.564   5.682   7.024 -1.4029 -0.0145  0.3728
  872MOL0     C20263   0.509   5.752   7.110 -0.0193  0.3885  0.4539
  872MOL0     C20264   0.955   5.721   6.628  0.4106 -0.1295 -0.0347
  872MOL0     C20265   1.091   5.740   6.602  0.0603 -0.0966  0.0169
  872MOL0     C20266   1.157   5.875   6.629 -0.1866 -0.1110 -0.2703
  872MOL0     H20267   1.541   5.473   6.457  1.6411 -1.3160 -0.5714
  872MOL0     H20268   1.773   5.463   6.433 -0.6236  0.9539 -2.9998
  872MOL0     H20269   2.005   5.661   6.716 -1.3906  0.3109 -1.3819
  872MOL0     H20270   2.043   5.802   6.614  0.6300  0.2414 -1.6405
  872MOL0     H20271   2.184   5.537   6.591  0.3658 -0.4790 -0.6088
  872MOL0     H20272   2.201   5.673   6.493 -0.0907 -2.2754 -0.2785
  872MOL0     H20273   2.301   5.819   6.669 -0.1040  0.3294 -0.2805
  872MOL0     H20274   2.246   5.705   6.785 -2.6245  1.8081 -0.3831
  872MOL0     H20275   2.415   5.533   6.677  1.0401  0.2063  1.8744
  872MOL0     H20276   2.418   5.636   6.536 -1.4786  1.1192 -0.4800
  872MOL0     H20277   2.559   5.797   6.635  2.5828 -1.5698  0.1940
  872MOL0     H20278   2.617   5.645   6.679  0.5602  1.0244 -2.3897
  872MOL0     H20279   2.627   5.792   6.887 -0.3996  2.5750  1.7661
  872MOL0     H20280   2.455   5.846   6.850  1.0382  1.0436 -0.9265
  872MOL0     H20281   2.530   5.551   6.895 -3.0199 -0.0060 -2.2126
  872MOL0     H20282   2.385   5.620   6.935  0.3226 -2.1897 -0.8437
  872MOL0     H20283   2.646   5.697   7.078  0.0093  1.6396 -0.8604
  872MOL0     H20284   2.477   5.748   7.118 -0.3418 -0.7561 -0.2321
  872MOL0     H20285   2.299   5.563   7.195 -1.2049 -0.4372 -0.2259
  872MOL0     H20286   2.272   5.234   7.266 -0.7383 -0.4751  0.6186
  872MOL0     H20287   2.229   5.384   7.341 -0.0109 -0.6051 -2.3380
  872MOL0     H20288   2.440   5.190   7.454 -1.6505 -0.8070 -2.4762
  872MOL0     H20289   2.401   5.346   7.533 -1.1006  1.0022 -1.6022
  872MOL0     H20290   2.255   5.088   7.506  0.7485 -0.5934  1.3927
  872MOL0     H20291   2.303   5.161   7.655  1.0811 -1.1446 -0.3799
  872MOL0     H20292   2.140   5.345   7.642 -3.1525  1.2896 -0.0366
  872MOL0     H20293   2.087   5.288   7.478 -0.5655 -0.2628  0.6123
  872MOL0     H20294   1.943   5.415   7.714 -0.8418  0.4611 -0.3611
  872MOL0     H20295   1.603   5.497   7.814  0.5546  0.3684  0.4071
  872MOL0     H20296   1.642   5.555   7.645  2.3452  1.3135 -0.4666
  872MOL0     H20297   1.754   5.569   7.775 -0.7903 -0.8283  1.2049
  872MOL0     H20298   1.290   5.058   7.829 -1.4102  0.7962  1.3417
  872MOL0     H20299   1.053   5.062   7.871 -0.5699 -1.1313 -1.9935
  872MOL0     H20300   0.829   5.060   7.861  0.1543 -0.9450 -2.8376
  872MOL0     H20301   0.863   5.229   7.890 -0.3592 -0.4126  1.2383
  872MOL0     H20302   0.658   5.295   7.827 -0.8648 -1.0727 -0.2890
  872MOL0     H20303   0.622   5.158   7.725 -0.3320 -0.3638  0.0743
  872MOL0     H20304   0.620   5.118   8.026  0.7101 -1.0231 -0.7390
  872MOL0     H20305   0.581   5.002   7.906 -1.1768  0.1846 -1.2510
  872MOL0     H20306   0.392   5.128   7.836 -3.4205  2.2924  1.2116
  872MOL0     H20307   0.436   5.275   7.902 -0.4456  0.4142 -0.7077
  872MOL0     H20308   0.425   5.150   8.147 -0.4484 -0.9335  0.1892
  872MOL0     H20309   0.273   5.173   8.043  0.8888  3.3005 -3.0227
  872MOL0     H20310   0.293   4.957   8.178 -0.4379 -3.1833 -0.9553
  872MOL0     H20311   0.434   4.920   8.076 -0.1868  0.5174  2.0838
  872MOL0     H20312   0.222   4.801   8.001 -1.6777  0.6924 -1.2015
  872MOL0     H20313   0.314   4.888   7.887  2.4221 -0.1652  1.5996
  872MOL0     H20314   0.152   5.070   7.881  0.2837 -1.0900 -0.3289
  872MOL0     H20315   0.053   5.001   8.018 -1.1032 -1.9923  0.1845
  872MOL0     H20316   0.992   5.253   7.499 -0.6629  1.2955  2.0322
  872MOL0     H20317   1.236   5.293   7.463  1.7263 -2.4137 -1.4584
  872MOL0     H20318   1.626   5.052   7.612 -0.3301  0.7119 -0.2253
  872MOL0     H20319   1.867   5.015   7.589 -0.1431 -0.0122 -0.0961
  872MOL0     H20320   1.815   5.812   6.674 -0.1514  1.6639 -2.3541
  872MOL0     H20321   1.581   5.830   6.698 -0.0065  1.1085 -0.5836
  872MOL0     H20322   1.142   5.415   6.504 -1.8527 -1.8228  1.8437
  872MOL0     H20323   0.898   5.405   6.574 -1.2119  1.1469 -0.3075
  872MOL0     H20324   0.558   5.571   6.567 -0.8457 -2.8616  0.1553
  872MOL0     H20325   0.688   5.443   6.530  1.3843 -1.3600  1.9869
  872MOL0     H20326   0.688   5.382   6.760 -1.5604 -0.4983  1.1897
  872MOL0     H20327   0.525   5.376   6.693  0.2364 -0.1298 -0.5850
  872MOL0     H20328   0.469   5.596   6.800 -0.8740 -0.7114  0.6313
  872MOL0     H20329   0.488   5.451   6.900  2.4177 -1.2571 -0.2362
  872MOL0     H20330   0.692   5.675   6.857 -1.1503 -0.7492 -2.5198
  872MOL0     H20331   0.720   5.533   6.963  0.6654 -0.4340 -1.6287
  872MOL0     H20332   0.445   5.810   7.174 -0.6453  1.2684 -0.9168
  872MOL0     H20333   0.893   5.804   6.659  0.5418  0.1181 -0.4393
  872MOL0     H20334   1.083   5.955   6.618 -0.4537 -0.3543 -0.2428
  872MOL0     H20335   1.197   5.878   6.730  2.0030  0.8180 -1.1035
  872MOL0     H20336   1.248   5.892   6.571  0.9993 -0.7767  1.3307
  873MOL0     O20337  10.605   6.307   5.998 -0.0475 -0.8578 -0.0930
  873MOL0     C20338  10.584   6.414   5.939  0.1696 -0.9756  0.3514
  873MOL0     O20339  10.654   6.526   5.940 -0.0688  0.5560  0.1497
  873MOL0     C20340  10.779   6.520   5.983 -0.1745 -0.5998 -0.2268
  873MOL0     C20341  10.802   6.491   6.118  0.7335 -0.1568  0.7982
  873MOL0     C20342  10.935   6.466   6.167 -0.3629 -0.3872  0.1262
  873MOL0     C20343  11.041   6.470   6.081  0.2448  0.2206 -0.1107
  873MOL0     O20344  11.167   6.429   6.132 -0.2899 -0.0496  0.0791
  873MOL0     C20345  11.275   6.520   6.128  0.0651  0.3166 -0.4062
  873MOL0     C20346  11.347   6.497   6.257 -0.8356 -0.6698  0.3011
  873MOL0     C20347  11.441   6.626   6.284 -0.9043 -0.6542 -0.6637
  873MOL0     C20348  11.522   6.619   6.413  0.9586  1.0303 -0.2778
  873MOL0     C20349  11.662   6.674   6.399  0.5161 -0.8726  0.2584
  873MOL0     C20350  11.730   6.674   6.535 -0.4686  0.6247 -0.1056
  873MOL0     C20351  11.733   6.539   6.612  1.3211  0.6319 -0.1387
  873MOL0     C20352  11.844   6.533   6.716  0.1457  0.4174 -0.5096
  873MOL0     N20353  11.818   6.623   6.827  0.9707 -0.7468  0.0184
  873MOL0     C20354  11.708   6.604   6.911 -0.6835  0.3725  0.0969
  873MOL0     C20355  11.731   6.709   7.002  0.3678  0.0996  0.0284
  873MOL0     C20356  11.660   6.728   7.136 -0.8756  0.4324  0.0620
  873MOL0     C20357  11.538   6.816   7.111  0.2946 -0.4505 -0.3181
  873MOL0     C20358  11.480   6.849   7.250  0.5105  0.0906  0.5918
  873MOL0     C20359  11.360   6.935   7.243  0.2389  0.0002  0.0749
  873MOL0     O20360  11.251   6.871   7.168 -0.9870  0.0685  0.0180
  873MOL0     C20361  11.123   6.900   7.197  0.5744  0.0947  0.0099
  873MOL0     C20362  11.042   6.973   7.115  0.7924  0.1330 -0.6300
  873MOL0     C20363  10.904   6.987   7.148 -0.4423 -0.7908  0.5932
  873MOL0     C20364  10.829   7.079   7.053 -0.4222  0.0031  0.6645
  873MOL0     C20365  10.840   6.923   7.256 -0.3973  0.0673  0.3574
  873MOL0     C20366  10.698   6.924   7.282  0.3150 -0.1887  0.6183
  873MOL0     O20367  10.658   6.870   7.396  0.4529  0.1590  0.2963
  873MOL0     C20368  10.531   6.904   7.445 -0.4242 -0.7370  0.4017
  873MOL0     C20369  10.428   6.812   7.417 -0.2534 -1.2874  0.0384
  873MOL0     C20370  10.292   6.851   7.442  0.1970 -0.5311  0.2277
  873MOL0     C20371  10.260   6.979   7.488  0.4812 -0.6095 -0.3042
  873MOL0     O20372  10.127   7.013   7.513 -0.5885  0.3095 -0.3796
  873MOL0     C20373  10.065   6.934   7.612  0.1907  0.1813 -0.2084
  873MOL0     C20374   9.915   6.966   7.593 -0.0909  0.3103 -0.1766
  873MOL0     C20375   9.834   6.944   7.717 -1.1373  0.4616  0.3090
  873MOL0     C20376   9.692   6.993   7.701 -0.5159  0.5405  0.3613
  873MOL0     C20377   9.596   6.910   7.789 -0.2259  0.2384  0.4434
  873MOL0     C20378   9.449   6.946   7.759  0.7532  0.5639 -0.3242
  873MOL0     C20379   9.413   7.090   7.796 -1.2892  0.4349 -0.5076
  873MOL0     C20380   9.262   7.092   7.822 -0.1397  0.2460  0.6589
  873MOL0    Cl20381   9.233   7.016   7.978 -0.0709  0.1989 -0.0100
  873MOL0     C20382  10.366   7.071   7.517  0.1315  0.8285 -0.9766
  873MOL0     C20383  10.500   7.030   7.503 -1.0035 -1.0015  0.5129
  873MOL0     O20384  10.617   6.956   7.195 -0.0615  0.6846  0.0506
  873MOL0     C20385  10.926   6.843   7.338  0.3403  1.1025 -0.6007
  873MOL0     C20386  11.061   6.836   7.311 -0.2856  0.3144  0.2427
  873MOL0     N20387  11.825   6.796   6.944 -0.0081 -0.3597 -0.1087
  873MOL0     N20388  11.886   6.734   6.845  0.2187 -0.2551 -0.7625
  873MOL0     C20389  11.015   6.487   5.947  0.2275 -0.2661  0.6844
  873MOL0     C20390  10.886   6.530   5.894  0.2049 -0.5480 -0.1855
  873MOL0     C20391  10.460   6.421   5.853 -0.1159 -0.3466 -0.3883
  873MOL0     C20392  10.344   6.345   5.890  1.2715 -0.1304 -0.5919
  873MOL0     C20393  10.221   6.358   5.828 -0.5370  0.0632  0.2620
  873MOL0     C20394  10.201   6.455   5.733 -1.1718 -0.0884  0.2266
  873MOL0     O20395  10.077   6.451   5.671  0.6436 -0.1392 -0.1509
  873MOL0     C20396  10.033   6.547   5.577  0.2633 -0.3122  0.0521
  873MOL0     C20397  10.078   6.530   5.433 -0.1033 -0.1454 -0.0052
  873MOL0     C20398  10.011   6.409   5.363  0.1993  0.3075  0.2974
  873MOL0     C20399   9.879   6.447   5.298  0.2913  0.2606 -0.2175
  873MOL0     C20400   9.822   6.325   5.254  0.7909  0.5236  0.0030
  873MOL0     C20401   9.757   6.230   5.215 -0.1688  0.2025  0.3508
  873MOL0     C20402  10.314   6.529   5.695  0.0216  0.5798 -1.0621
  873MOL0     C20403  10.446   6.517   5.745  0.2338  0.5141 -0.0542
  873MOL0     C20404  10.550   6.605   5.688  0.8368 -0.1065 -0.1522
  873MOL0     H20405  10.713   6.485   6.180 -0.9535  1.8237 -1.2369
  873MOL0     H20406  10.948   6.438   6.271  0.2377 -0.5228  0.0156
  873MOL0     H20407  11.241   6.622   6.109 -1.1277 -0.1579 -0.8987
  873MOL0     H20408  11.349   6.509   6.047  1.4025  2.3952  0.4431
  873MOL0     H20409  11.275   6.474   6.337 -0.7004 -0.3926  0.5045
  873MOL0     H20410  11.412   6.410   6.253 -0.4379 -0.3376 -0.5311
  873MOL0     H20411  11.511   6.641   6.201 -0.1066 -0.2929  0.0668
  873MOL0     H20412  11.395   6.725   6.284  2.2163  0.9273 -0.4391
  873MOL0     H20413  11.458   6.668   6.487  0.4759  0.0316 -0.0136
  873MOL0     H20414  11.536   6.515   6.444 -0.7439  0.8385 -0.0320
  873MOL0     H20415  11.650   6.776   6.362  0.9084 -1.9604 -3.1166
  873MOL0     H20416  11.721   6.613   6.331  3.1631  1.4312  0.3224
  873MOL0     H20417  11.832   6.703   6.511 -0.2666  0.1461  0.1702
  873MOL0     H20418  11.691   6.751   6.602  1.0468  1.4652 -0.1428
  873MOL0     H20419  11.742   6.458   6.540 -1.5954  0.9505 -0.9876
  873MOL0     H20420  11.638   6.521   6.663  1.6661  3.6846  1.8862
  873MOL0     H20421  11.856   6.427   6.739  1.4392  0.3974 -1.2019
  873MOL0     H20422  11.942   6.565   6.680  0.7823 -0.9373 -0.0423
  873MOL0     H20423  11.638   6.522   6.912 -0.4778  0.1856 -0.4556
  873MOL0     H20424  11.735   6.765   7.206  1.6232  1.8990 -3.1005
  873MOL0     H20425  11.626   6.629   7.169  1.3090 -1.5658 -3.0819
  873MOL0     H20426  11.565   6.909   7.061  0.0972 -0.0026  0.3917
  873MOL0     H20427  11.459   6.771   7.050 -0.7480  0.4517  0.3199
  873MOL0     H20428  11.454   6.756   7.302 -2.5033  1.0838  1.0620
  873MOL0     H20429  11.560   6.901   7.303  1.1240 -0.5368  0.2875
  873MOL0     H20430  11.321   6.952   7.344 -5.2309 -3.8697 -0.9364
  873MOL0     H20431  11.383   7.031   7.197 -1.0972 -0.7354 -2.2617
  873MOL0     H20432  11.095   7.030   7.038  0.8784 -1.2015 -1.5954
  873MOL0     H20433  10.771   7.146   7.116 -1.3148 -0.9783  0.9214
  873MOL0     H20434  10.767   7.017   6.988  0.6970 -0.8269  0.3415
  873MOL0     H20435  10.894   7.146   6.996 -2.2458 -0.7383 -2.5203
  873MOL0     H20436  10.464   6.727   7.360  0.0676 -0.9442 -0.2760
  873MOL0     H20437  10.213   6.780   7.421 -0.6614  0.7436 -1.0029
  873MOL0     H20438  10.091   6.828   7.606  3.1459  0.5704  2.6009
  873MOL0     H20439  10.083   6.968   7.715 -4.0005  2.8684 -0.1294
  873MOL0     H20440   9.907   7.071   7.563 -0.8871  0.2565 -0.1549
  873MOL0     H20441   9.875   6.911   7.507  1.6094 -2.5762  0.7178
  873MOL0     H20442   9.883   7.004   7.795 -1.6433  1.8023 -0.3660
  873MOL0     H20443   9.845   6.840   7.749  1.3258  0.4642 -0.3546
  873MOL0     H20444   9.661   6.983   7.597  1.1716 -0.6345 -0.0680
  873MOL0     H20445   9.694   7.097   7.732  3.1934 -0.2424  3.5983
  873MOL0     H20446   9.612   6.802   7.787  5.1093  0.7085  1.2728
  873MOL0     H20447   9.620   6.941   7.891 -2.4976  0.4505  0.9527
  873MOL0     H20448   9.382   6.870   7.798  0.4206  1.0033 -0.0276
  873MOL0     H20449   9.424   6.938   7.653 -2.1883  0.4055  0.3089
  873MOL0     H20450   9.440   7.148   7.707 -0.1811 -0.3167 -0.6809
  873MOL0     H20451   9.459   7.120   7.890 -0.5570 -1.9973 -0.0046
  873MOL0     H20452   9.199   7.043   7.746 -1.3309  1.7676  0.6042
  873MOL0     H20453   9.226   7.195   7.826  2.0625  1.0598  0.6923
  873MOL0     H20454  10.343   7.171   7.552  0.2600  1.9838 -3.8930
  873MOL0     H20455  10.578   7.098   7.537 -2.7738  1.2205  0.3546
  873MOL0     H20456  10.882   6.788   7.420 -0.1505  1.3731 -0.6806
  873MOL0     H20457  11.127   6.773   7.370 -1.0444 -0.4963  0.2393
  873MOL0     H20458  11.101   6.486   5.881  1.4759 -1.3035  2.2789
  873MOL0     H20459  10.866   6.557   5.791  3.0637  0.4384 -0.5694
  873MOL0     H20460  10.339   6.279   5.977 -1.1875  0.3134 -0.3107
  873MOL0     H20461  10.141   6.291   5.858 -1.5621  0.6380 -1.1083
  873MOL0     H20462   9.924   6.533   5.571 -0.1835  2.0058  1.4296
  873MOL0     H20463  10.041   6.650   5.610  3.4597 -0.1308 -0.9666
  873MOL0     H20464  10.187   6.526   5.426 -0.0976 -1.2538  0.4857
  873MOL0     H20465  10.052   6.622   5.379  1.2454 -0.9817 -2.2545
  873MOL0     H20466  10.073   6.365   5.284 -1.5490 -1.7439 -0.0336
  873MOL0     H20467   9.992   6.333   5.439 -0.5519 -1.2752 -1.3954
  873MOL0     H20468   9.890   6.517   5.215 -0.3443  0.5160 -0.0922
  873MOL0     H20469   9.813   6.505   5.363 -0.0057  0.4152 -0.6548
  873MOL0     H20470   9.698   6.147   5.181  1.2255 -0.9367  0.5934
  873MOL0     H20471  10.304   6.609   5.622  0.0928  1.4799 -0.0942
  873MOL0     H20472  10.509   6.664   5.606  1.6704 -0.3993 -0.7981
  873MOL0     H20473  10.574   6.687   5.757  2.5293  0.4608 -1.3398
  873MOL0     H20474  10.630   6.537   5.655  0.2816 -0.4844 -0.7239
  874MOL0     O20475   2.185   7.692   3.605 -0.8618 -0.0147 -0.5112
  874MOL0     C20476   2.138   7.575   3.614 -0.2097  0.6633 -0.2613
  874MOL0     O20477   2.211   7.464   3.652  0.1609  0.4682  0.0918
  874MOL0     C20478   2.331   7.488   3.719  0.2175 -0.3071  0.5690
  874MOL0     C20479   2.452   7.494   3.648  0.6055 -0.1027  0.5028
  874MOL0     C20480   2.581   7.493   3.714 -0.1273  0.0758  0.7874
  874MOL0     C20481   2.583   7.498   3.859 -0.4161 -0.3334  0.0196
  874MOL0     O20482   2.688   7.502   3.936  0.1558 -0.5382  0.3566
  874MOL0     C20483   2.817   7.468   3.875  0.5874 -0.4315  0.2427
  874MOL0     C20484   2.908   7.412   3.977  0.0290  1.0901 -0.4286
  874MOL0     C20485   3.041   7.386   3.911 -0.2451 -0.4827 -0.2672
  874MOL0     C20486   3.143   7.333   4.005  0.1139 -0.3903 -0.5092
  874MOL0     C20487   3.264   7.274   3.935 -0.3910 -0.4576 -0.0881
  874MOL0     C20488   3.257   7.131   3.887  0.6112  0.1578 -0.2512
  874MOL0     C20489   3.361   7.099   3.772 -0.5250  0.2079 -0.3739
  874MOL0     C20490   3.505   7.140   3.823  0.1273 -0.5565  0.7735
  874MOL0     N20491   3.618   7.090   3.745 -0.5754  0.8308 -0.0962
  874MOL0     C20492   3.638   7.109   3.610  0.2975  0.6391 -0.7136
  874MOL0     C20493   3.720   7.006   3.571 -0.4497 -1.0364 -0.5117
  874MOL0     C20494   3.769   6.983   3.425 -0.4801 -1.2884 -0.7942
  874MOL0     C20495   3.901   7.050   3.394 -0.0662 -0.6903 -0.6276
  874MOL0     C20496   3.889   7.203   3.389  0.0387 -0.5712  0.1627
  874MOL0     C20497   4.010   7.283   3.356  0.3661  0.1373  0.1516
  874MOL0     O20498   4.028   7.249   3.221 -0.4653  0.4838 -0.2944
  874MOL0     C20499   4.151   7.275   3.163  0.3792  0.1526  0.1061
  874MOL0     C20500   4.157   7.241   3.034 -0.6814  0.3599 -0.3539
  874MOL0     C20501   4.286   7.241   2.969  0.3667  0.5610  0.2454
  874MOL0     C20502   4.288   7.176   2.836 -0.5499 -0.0095 -0.1525
  874MOL0     C20503   4.401   7.287   3.036  0.5057 -0.4046  0.2000
  874MOL0     C20504   4.532   7.296   2.964 -0.5561 -0.1621 -0.5181
  874MOL0     O20505   4.638   7.306   3.050  0.3662  0.3720  0.0062
  874MOL0     C20506   4.771   7.322   2.999  0.0962  0.4297 -0.0937
  874MOL0     C20507   4.794   7.406   2.889  0.5280  0.5003  0.4918
  874MOL0     C20508   4.924   7.418   2.847 -0.0546 -0.0922  0.4003
  874MOL0     C20509   5.035   7.355   2.911  0.3262 -0.0139 -0.0976
  874MOL0     O20510   5.166   7.365   2.860  0.3259  0.4219  0.2635
  874MOL0     C20511   5.224   7.489   2.827  0.1113  0.9993  0.6101
  874MOL0     C20512   5.216   7.598   2.935 -0.1392 -0.3291  0.3616
  874MOL0     C20513   5.329   7.699   2.894  0.8508  0.3521  0.2624
  874MOL0     C20514   5.368   7.799   3.003 -0.1264 -0.1611 -0.0898
  874MOL0     C20515   5.486   7.885   2.965 -0.7172 -0.2212  0.4501
  874MOL0     C20516   5.625   7.823   2.987  0.1028 -0.0349 -0.2347
  874MOL0     C20517   5.667   7.839   3.135  0.7808 -0.6252 -0.2541
  874MOL0     C20518   5.783   7.742   3.178  0.1805  0.0509  1.0506
  874MOL0    Cl20519   5.843   7.801   3.337 -0.3469 -0.0665 -0.6813
  874MOL0     C20520   5.005   7.265   3.017 -0.6593 -0.0213  0.5766
  874MOL0     C20521   4.878   7.250   3.058 -0.8210 -0.2024  0.3917
  874MOL0     O20522   4.535   7.299   2.837  0.3562 -0.1711 -0.2263
  874MOL0     C20523   4.379   7.361   3.154  0.2321 -0.0435  0.5077
  874MOL0     C20524   4.259   7.346   3.226  0.3784  1.0469 -0.8998
  874MOL0     N20525   3.750   6.937   3.682  0.6217  0.1537  0.2118
  874MOL0     N20526   3.695   6.983   3.781  0.2243 -1.1258  0.0299
  874MOL0     C20527   2.458   7.499   3.922  0.6274 -0.2481 -0.5200
  874MOL0     C20528   2.334   7.495   3.857  0.5745  0.3922  0.9654
  874MOL0     C20529   1.995   7.554   3.582 -0.1383 -0.4487 -0.2705
  874MOL0     C20530   1.938   7.429   3.605 -0.3892  0.7652 -0.3512
  874MOL0     C20531   1.805   7.404   3.582  0.8195 -0.0651 -0.1801
  874MOL0     C20532   1.720   7.498   3.534 -0.7129 -0.1628 -0.3275
  874MOL0     O20533   1.595   7.460   3.509  1.0213  0.4972  0.9568
  874MOL0     C20534   1.501   7.546   3.443 -0.0152  0.8116 -0.4243
  874MOL0     C20535   1.379   7.459   3.395 -0.1966  0.0794 -0.3331
  874MOL0     C20536   1.419   7.400   3.267  0.2132  0.2656 -0.5040
  874MOL0     C20537   1.308   7.303   3.209 -0.2648 -0.2136 -0.5477
  874MOL0     C20538   1.190   7.378   3.165 -0.0069  0.1397  0.0631
  874MOL0     C20539   1.083   7.433   3.154  0.2320 -0.1327  0.6118
  874MOL0     C20540   1.776   7.622   3.504  0.1143 -0.9369  0.0467
  874MOL0     C20541   1.908   7.659   3.531 -1.1421  0.2020  0.4902
  874MOL0     C20542   1.952   7.801   3.500  0.0427 -0.7447  0.5102
  874MOL0     H20543   2.453   7.512   3.541  2.6253  1.2099  0.6725
  874MOL0     H20544   2.671   7.502   3.655  0.4258 -1.5262  1.3497
  874MOL0     H20545   2.859   7.562   3.838 -1.0872  1.1610  2.1428
  874MOL0     H20546   2.812   7.398   3.792 -1.0051  1.9366 -1.8062
  874MOL0     H20547   2.928   7.473   4.066 -2.2017 -0.8043  1.4707
  874MOL0     H20548   2.880   7.318   4.025 -0.2291  1.3398 -0.0762
  874MOL0     H20549   3.028   7.326   3.820 -0.7071  0.9114 -1.1675
  874MOL0     H20550   3.078   7.486   3.883 -0.6051  0.4737  2.4166
  874MOL0     H20551   3.168   7.416   4.072 -1.5018  0.1772 -0.5683
  874MOL0     H20552   3.095   7.253   4.061 -3.0917 -0.8945 -3.6094
  874MOL0     H20553   3.356   7.288   3.992 -0.9812 -1.1219  1.0746
  874MOL0     H20554   3.280   7.337   3.847 -0.9463  0.9470  0.7659
  874MOL0     H20555   3.278   7.072   3.977 -0.9742  0.1805  0.1701
  874MOL0     H20556   3.163   7.094   3.844  1.1984 -1.0474 -0.5414
  874MOL0     H20557   3.337   7.166   3.689  1.9850  1.8807  0.1470
  874MOL0     H20558   3.362   6.996   3.737  1.5089 -0.0505  0.2926
  874MOL0     H20559   3.503   7.249   3.820  0.1209 -0.4782  2.6404
  874MOL0     H20560   3.508   7.113   3.929  1.6233  1.1351  1.1950
  874MOL0     H20561   3.599   7.185   3.543 -2.5241 -0.5396 -0.5293
  874MOL0     H20562   3.684   7.022   3.368 -1.4583 -2.3011 -0.0727
  874MOL0     H20563   3.766   6.879   3.393 -1.4814 -1.2191 -0.9786
  874MOL0     H20564   3.984   7.021   3.460  2.1169  0.0821 -2.8546
  874MOL0     H20565   3.926   7.018   3.292  0.9282 -2.3485  0.0863
  874MOL0     H20566   3.821   7.231   3.308  0.7743 -2.0567 -1.0368
  874MOL0     H20567   3.845   7.227   3.487 -1.9980 -4.1212  0.3102
  874MOL0     H20568   4.001   7.391   3.370  0.9651  0.3386 -0.8934
  874MOL0     H20569   4.097   7.256   3.418  1.3696 -0.2374 -1.3562
  874MOL0     H20570   4.067   7.200   2.990 -0.1457 -1.1734 -0.0974
  874MOL0     H20571   4.362   7.095   2.829 -0.2849 -0.0993  2.5200
  874MOL0     H20572   4.305   7.251   2.759 -1.4763  1.2603  0.8411
  874MOL0     H20573   4.194   7.125   2.813  0.0579 -1.4572  0.4207
  874MOL0     H20574   4.712   7.461   2.843 -2.5291 -2.2240  2.2313
  874MOL0     H20575   4.949   7.480   2.762 -0.5334 -0.6761 -0.1726
  874MOL0     H20576   5.328   7.463   2.808 -0.3559 -2.0784  1.5940
  874MOL0     H20577   5.177   7.534   2.739  0.4663  1.8552  0.8475
  874MOL0     H20578   5.119   7.648   2.942  0.2720  0.3820  1.0979
  874MOL0     H20579   5.234   7.555   3.034 -1.3575 -2.8793 -0.4610
  874MOL0     H20580   5.298   7.762   2.811  1.5863  0.5439  0.1206
  874MOL0     H20581   5.420   7.647   2.863  1.4044  1.4498 -0.0141
  874MOL0     H20582   5.386   7.747   3.098  2.3546  0.1967 -0.2812
  874MOL0     H20583   5.290   7.874   3.015  2.0991  2.2817 -0.0455
  874MOL0     H20584   5.473   7.922   2.863  3.7405  2.0136  0.4734
  874MOL0     H20585   5.473   7.979   3.019  1.5975  0.9097 -0.8432
  874MOL0     H20586   5.703   7.861   2.920  3.0367 -1.5010  2.1491
  874MOL0     H20587   5.633   7.716   2.971  0.4074 -1.1048  5.1841
  874MOL0     H20588   5.590   7.818   3.210  1.9757  1.3413  1.6634
  874MOL0     H20589   5.692   7.944   3.155 -2.5884  0.2585 -0.1437
  874MOL0     H20590   5.865   7.743   3.105  0.3567 -0.0037  1.2499
  874MOL0     H20591   5.739   7.642   3.188  1.6404 -0.9359 -1.3000
  874MOL0     H20592   5.089   7.211   3.059 -2.2156 -0.9973  2.5783
  874MOL0     H20593   4.865   7.195   3.151 -1.1711  2.2246  1.8589
  874MOL0     H20594   4.456   7.422   3.200 -0.4725 -1.0974  3.3211
  874MOL0     H20595   4.253   7.390   3.325  0.9237 -0.6710 -0.0738
  874MOL0     H20596   2.438   7.516   4.028 -1.4774 -0.8873 -0.7667
  874MOL0     H20597   2.239   7.493   3.909  0.1871 -0.2529  0.2514
  874MOL0     H20598   1.996   7.346   3.643 -2.7294 -0.9506 -0.3027
  874MOL0     H20599   1.763   7.304   3.594  0.4961 -0.0031 -0.7672
  874MOL0     H20600   1.463   7.615   3.519  0.1530 -0.4536  0.8637
  874MOL0     H20601   1.537   7.607   3.360 -0.9790 -0.8201 -2.1392
  874MOL0     H20602   1.297   7.526   3.367  0.2162  0.0925 -1.5565
  874MOL0     H20603   1.347   7.389   3.472 -1.1436  1.0503  0.1788
  874MOL0     H20604   1.454   7.470   3.191  2.7043 -0.2655  0.0535
  874MOL0     H20605   1.505   7.337   3.290  0.5739  0.6540 -0.7686
  874MOL0     H20606   1.265   7.234   3.282 -1.1108 -1.9741 -2.6071
  874MOL0     H20607   1.348   7.252   3.121  0.8570 -0.2405 -0.0478
  874MOL0     H20608   0.992   7.477   3.121  0.2562 -2.3771 -2.9289
  874MOL0     H20609   1.713   7.698   3.458  0.7061 -0.4142  0.0898
  874MOL0     H20610   1.870   7.839   3.439  1.6382  1.6837 -0.2711
  874MOL0     H20611   1.958   7.863   3.591 -0.9598 -0.1558  0.1939
  874MOL0     H20612   2.037   7.813   3.432 -3.3655 -1.2033 -4.3519
  875MOL0     O20613   0.322  10.605   4.827  0.1583 -0.4772 -0.4681
  875MOL0     C20614   0.321  10.545   4.724 -0.7269  0.4580 -0.4240
  875MOL0     O20615   0.440  10.501   4.663  0.1238 -0.0237 -0.2124
  875MOL0     C20616   0.557  10.536   4.714 -0.2577  0.6267  0.3978
  875MOL0     C20617   0.649  10.613   4.635  0.1547 -0.3198 -0.4173
  875MOL0     C20618   0.767  10.661   4.695 -0.3533  0.5458 -0.2979
  875MOL0     C20619   0.803  10.616   4.826  0.6064 -0.1662 -0.5860
  875MOL0     O20620   0.916  10.651   4.893  0.0006 -0.2616  0.5282
  875MOL0     C20621   0.997  10.763   4.842 -0.3042 -0.2313 -0.2287
  875MOL0     C20622   1.104  10.807   4.941 -0.4719 -0.2970  0.2699
  875MOL0     C20623   1.188  10.913   4.872 -0.0189  0.0693 -0.0045
  875MOL0     C20624   1.299  10.958   4.967 -0.2468 -0.9541 -0.6012
  875MOL0     C20625   1.374  11.081   4.925  0.9390 -0.1129  0.1331
  875MOL0     C20626   1.457  11.159   5.025  0.5178 -0.1177 -0.8270
  875MOL0     C20627   1.555  11.257   4.978 -0.9282 -0.5157 -0.8583
  875MOL0     C20628   1.480  11.370   4.898  0.5205 -0.0950 -0.2136
  875MOL0     N20629   1.585  11.467   4.868 -0.0030  0.3646  0.2075
  875MOL0     C20630   1.617  11.584   4.930 -0.7655  0.1173  0.3886
  875MOL0     C20631   1.716  11.641   4.856 -0.0459  1.1605  0.1324
  875MOL0     C20632   1.808  11.747   4.882  0.3989 -0.2150 -0.4223
  875MOL0     C20633   1.749  11.882   4.922  0.1405 -0.3985  0.3660
  875MOL0     C20634   1.642  11.913   4.821  1.1855  0.2096 -0.1757
  875MOL0     C20635   1.578  12.046   4.833 -0.7636  0.0654 -0.1623
  875MOL0     O20636   1.504  12.050   4.956 -0.6896  0.7679 -0.2163
  875MOL0     C20637   1.375  11.993   4.966 -0.4816  0.4084  0.2013
  875MOL0     C20638   1.305  12.021   5.087 -0.1232 -0.3213  0.6461
  875MOL0     C20639   1.177  11.971   5.117  0.1020 -0.2844  0.5418
  875MOL0     C20640   1.125  12.006   5.260 -0.6401 -0.2817 -0.4200
  875MOL0     C20641   1.116  11.890   5.018  0.0869 -0.1682  0.6351
  875MOL0     C20642   0.977  11.840   5.024  0.2281 -0.5709 -0.1605
  875MOL0     O20643   0.938  11.758   4.926 -0.6587  0.6298 -0.8746
  875MOL0     C20644   0.810  11.705   4.941 -0.2382  0.3217 -0.0896
  875MOL0     C20645   0.693  11.772   4.907 -0.3960  0.9643 -0.6420
  875MOL0     C20646   0.571  11.719   4.937  0.3541  0.1546  0.8968
  875MOL0     C20647   0.560  11.590   4.999 -0.8463  0.0410 -0.3110
  875MOL0     O20648   0.445  11.523   5.035  0.6031  0.4881  0.0906
  875MOL0     C20649   0.320  11.592   5.008 -0.6157 -0.5664  0.0658
  875MOL0     C20650   0.216  11.525   5.081  0.4265 -0.0394 -0.4663
  875MOL0     C20651   0.075  11.579   5.036  0.1088 -0.6750 -0.6366
  875MOL0     C20652  -0.037  11.524   5.122  0.0578 -1.3265  0.6912
  875MOL0     C20653  -0.170  11.532   5.052 -0.7037 -0.1450 -0.7524
  875MOL0     C20654  -0.231  11.675   5.030 -0.2137  1.0231 -0.1311
  875MOL0     C20655  -0.295  11.721   5.156 -0.5861 -0.4689 -0.4846
  875MOL0     C20656  -0.399  11.830   5.133 -0.9221 -0.4450  0.5322
  875MOL0    Cl20657  -0.287  11.969   5.085  0.5103  0.2680  0.5194
  875MOL0     C20658   0.686  11.527   5.025  0.0265 -0.4195  0.3829
  875MOL0     C20659   0.807  11.584   5.000  0.2439  0.2193 -0.0225
  875MOL0     O20660   0.917  11.857   5.132 -0.2856  0.2963  0.8571
  875MOL0     C20661   1.178  11.866   4.895  0.8383  0.3616 -1.5056
  875MOL0     C20662   1.307  11.913   4.869  0.2264 -0.0909 -0.1630
  875MOL0     N20663   1.735  11.566   4.744 -0.2570  0.2506  0.3956
  875MOL0     N20664   1.660  11.460   4.745  0.4179  0.6266 -0.9127
  875MOL0     C20665   0.712  10.541   4.896  0.0508  0.5605  0.4412
  875MOL0     C20666   0.589  10.500   4.844 -1.2621  0.1904 -0.9719
  875MOL0     C20667   0.201  10.507   4.657  0.0725 -0.8585 -0.0795
  875MOL0     C20668   0.217  10.471   4.524  0.5106  0.1193  0.5777
  875MOL0     C20669   0.100  10.426   4.454  0.6790 -0.4366 -0.3493
  875MOL0     C20670  -0.031  10.428   4.520 -0.7455  0.4234  0.4312
  875MOL0     O20671  -0.146  10.368   4.467  0.4845 -0.4155 -0.1603
  875MOL0     C20672  -0.116  10.238   4.404  0.2055 -0.1618 -0.1149
  875MOL0     C20673  -0.251  10.183   4.343 -0.4082  0.0996  0.4998
  875MOL0     C20674  -0.225  10.050   4.275  0.1073  0.3683 -0.8822
  875MOL0     C20675  -0.360   9.993   4.218 -0.3708  1.0834 -0.4773
  875MOL0     C20676  -0.391  10.046   4.084 -0.3716 -0.0037 -0.2545
  875MOL0     C20677  -0.413  10.104   3.976 -0.5100  0.9088  0.6270
  875MOL0     C20678  -0.038  10.474   4.656  0.5085  1.4688  0.7199
  875MOL0     C20679   0.073  10.509   4.722 -0.1647  0.0639 -0.1390
  875MOL0     C20680   0.051  10.558   4.862  0.7996  0.3600 -0.1566
  875MOL0     H20681   0.622  10.636   4.532  1.3368  2.3513 -0.2338
  875MOL0     H20682   0.834  10.730   4.645 -0.2280  3.5164  3.5666
  875MOL0     H20683   0.934  10.852   4.835  0.6595  0.6783  1.6492
  875MOL0     H20684   1.037  10.743   4.743 -0.2276  0.3541 -0.3177
  875MOL0     H20685   1.062  10.847   5.034  1.0673 -2.0165  1.8065
  875MOL0     H20686   1.164  10.719   4.965 -0.3892 -0.1027  0.8042
  875MOL0     H20687   1.241  10.872   4.786  1.5163 -1.6702  1.6601
  875MOL0     H20688   1.123  10.993   4.838  0.1838  0.0233 -0.5019
  875MOL0     H20689   1.257  10.982   5.065  1.5736 -1.0680  0.2534
  875MOL0     H20690   1.372  10.881   4.995 -0.5417 -1.4864 -1.2733
  875MOL0     H20691   1.294  11.151   4.901 -0.9765 -2.0497  0.6323
  875MOL0     H20692   1.440  11.061   4.840 -0.3284  1.7963 -1.3937
  875MOL0     H20693   1.393  11.215   5.094 -0.8058 -3.2253  0.6746
  875MOL0     H20694   1.509  11.084   5.084  2.4503  2.2306  0.6589
  875MOL0     H20695   1.629  11.207   4.914  0.7076  0.5232  0.1707
  875MOL0     H20696   1.618  11.298   5.057 -0.7936  0.2197 -1.3408
  875MOL0     H20697   1.435  11.327   4.808  2.6128 -1.5147 -0.6728
  875MOL0     H20698   1.403  11.414   4.961  0.7602 -2.3863  1.8391
  875MOL0     H20699   1.587  11.626   5.025  0.2138  2.1639 -0.1657
  875MOL0     H20700   1.881  11.751   4.801  2.7210 -0.6520  1.5206
  875MOL0     H20701   1.871  11.717   4.966 -0.5262  3.0272  1.5802
  875MOL0     H20702   1.723  11.860   5.026 -0.2259  1.5561  0.7258
  875MOL0     H20703   1.822  11.964   4.919  0.5041 -0.7336 -1.0482
  875MOL0     H20704   1.668  11.904   4.715  0.4237 -2.5483 -0.2021
  875MOL0     H20705   1.561  11.842   4.839  1.1573  0.5875  1.3502
  875MOL0     H20706   1.663  12.113   4.847  1.2450 -2.1334 -1.0514
  875MOL0     H20707   1.518  12.080   4.749 -0.6865  0.7617  0.0603
  875MOL0     H20708   1.358  12.090   5.151  1.2603 -0.0261 -0.7573
  875MOL0     H20709   1.169  12.097   5.302  1.4160 -1.1851 -0.5327
  875MOL0     H20710   1.130  11.917   5.324 -0.0796 -0.0564 -0.1486
  875MOL0     H20711   1.019  12.036   5.261 -0.6840 -0.2873  2.0479
  875MOL0     H20712   0.689  11.870   4.860 -0.8133  1.2885  0.0606
  875MOL0     H20713   0.482  11.779   4.918  0.3255 -0.1901 -0.1384
  875MOL0     H20714   0.323  11.691   5.054 -0.9194 -1.1153  1.3122
  875MOL0     H20715   0.298  11.590   4.900 -2.5766  0.5692  0.3869
  875MOL0     H20716   0.221  11.420   5.050  0.5465  0.2703 -1.5452
  875MOL0     H20717   0.233  11.533   5.188  2.4285 -2.5965 -0.5133
  875MOL0     H20718   0.053  11.550   4.933  3.6090 -3.6056 -0.7745
  875MOL0     H20719   0.079  11.688   5.049 -0.6624 -0.7225  0.1109
  875MOL0     H20720  -0.043  11.559   5.226 -0.9330 -1.4646  0.6891
  875MOL0     H20721  -0.010  11.418   5.128 -1.1679 -1.5823  2.4944
  875MOL0     H20722  -0.169  11.490   4.951  1.2117 -0.9765 -0.4300
  875MOL0     H20723  -0.242  11.470   5.107 -1.3510 -1.2779 -2.7687
  875MOL0     H20724  -0.312  11.652   4.960  0.2514  0.6167 -0.5391
  875MOL0     H20725  -0.155  11.741   4.989 -0.3040 -0.9766 -3.9817
  875MOL0     H20726  -0.218  11.738   5.231 -1.6923 -0.8517  0.7771
  875MOL0     H20727  -0.351  11.638   5.199 -2.5002 -0.2714 -2.3480
  875MOL0     H20728  -0.451  11.858   5.225  2.0943  3.7295  1.2754
  875MOL0     H20729  -0.471  11.825   5.050  0.1640  1.6335 -0.6403
  875MOL0     H20730   0.682  11.428   5.069  0.9687  0.9331  3.8102
  875MOL0     H20731   0.902  11.531   5.005  0.8624  0.8310 -3.1610
  875MOL0     H20732   1.135  11.810   4.813 -2.3657  2.9931 -1.8150
  875MOL0     H20733   1.351  11.883   4.775  0.7233 -3.6714  1.0826
  875MOL0     H20734   0.738  10.513   4.998  1.7367  0.4088 -0.0054
  875MOL0     H20735   0.512  10.455   4.905  0.6508 -0.4880  1.0843
  875MOL0     H20736   0.310  10.451   4.471  0.2504 -1.8873  0.7831
  875MOL0     H20737   0.106  10.387   4.353 -2.5307 -2.5057  0.1241
  875MOL0     H20738  -0.045  10.237   4.321 -0.0626 -2.0807 -0.3857
  875MOL0     H20739  -0.077  10.167   4.477 -0.0807 -1.7328 -1.4196
  875MOL0     H20740  -0.295  10.261   4.279 -0.7463  3.0942  4.0504
  875MOL0     H20741  -0.324  10.177   4.424 -1.3537 -1.1246 -0.3963
  875MOL0     H20742  -0.145  10.056   4.201  1.8427  0.5982  0.9158
  875MOL0     H20743  -0.193   9.974   4.347  3.6655  2.0405 -0.4933
  875MOL0     H20744  -0.437  10.007   4.293  1.2800  0.0658  1.5266
  875MOL0     H20745  -0.348   9.886   4.197 -0.9739  0.7552  0.7487
  875MOL0     H20746  -0.421  10.153   3.881 -0.0332 -1.7802 -0.9403
  875MOL0     H20747  -0.125  10.457   4.718  0.3152 -0.0337  0.1006
  875MOL0     H20748   0.053  10.666   4.842  1.4621 -0.1281 -3.3059
  875MOL0     H20749  -0.040  10.515   4.905  1.2730 -1.5538 -0.9618
  875MOL0     H20750   0.128  10.542   4.939 -1.0409  2.5104  2.3202
  876MOL0     O20751   5.371   7.837   6.352  0.1119  0.0064  0.4653
  876MOL0     C20752   5.306   7.735   6.361  0.0689 -0.0435  0.0630
  876MOL0     O20753   5.344   7.611   6.319 -0.6105 -0.0197  0.5667
  876MOL0     C20754   5.464   7.600   6.251  0.1743 -0.0079 -0.2338
  876MOL0     C20755   5.465   7.601   6.111 -0.0949 -0.2064  0.2001
  876MOL0     C20756   5.586   7.584   6.041  0.2405  0.3855 -0.3925
  876MOL0     C20757   5.706   7.571   6.115  0.3691 -0.2895 -0.2596
  876MOL0     O20758   5.827   7.572   6.060  0.0149 -0.2274 -0.3520
  876MOL0     C20759   5.842   7.584   5.914  0.4113  0.4614 -0.6370
  876MOL0     C20760   5.988   7.586   5.871  0.1495  0.4117  0.3136
  876MOL0     C20761   6.060   7.453   5.884  0.7270 -0.4923  0.1052
  876MOL0     C20762   6.187   7.431   5.793  0.7477 -0.4248  0.1212
  876MOL0     C20763   6.280   7.307   5.820 -0.3074 -0.8791  0.2995
  876MOL0     C20764   6.419   7.329   5.754  0.0935 -0.1308  0.3870
  876MOL0     C20765   6.516   7.230   5.825 -0.6427  0.4519  0.0416
  876MOL0     C20766   6.659   7.213   5.759 -0.4726 -0.4712  0.0466
  876MOL0     N20767   6.747   7.129   5.847  0.1062  0.4677  0.3283
  876MOL0     C20768   6.704   7.008   5.902  0.9207 -0.1534 -0.8167
  876MOL0     C20769   6.796   6.976   5.993 -0.1620 -0.6244 -0.0144
  876MOL0     C20770   6.789   6.871   6.097 -0.0507  0.0543 -0.6349
  876MOL0     C20771   6.937   6.819   6.125 -0.0809  0.3596 -0.4701
  876MOL0     C20772   6.930   6.700   6.230 -0.0184  0.6863 -0.0298
  876MOL0     C20773   7.063   6.634   6.243 -0.1553 -0.1214 -0.0744
  876MOL0     O20774   7.062   6.572   6.373 -0.4803  0.0214 -0.2706
  876MOL0     C20775   7.185   6.533   6.431 -0.4740 -0.6945 -0.7805
  876MOL0     C20776   7.179   6.456   6.550 -0.0591  0.0760  0.1676
  876MOL0     C20777   7.292   6.390   6.601 -0.0305 -0.0445  0.3298
  876MOL0     C20778   7.260   6.289   6.713  0.6507  0.2158 -0.7055
  876MOL0     C20779   7.419   6.424   6.552  0.0485  0.5230 -0.1885
  876MOL0     C20780   7.541   6.371   6.628  0.8489  0.1731  0.2821
  876MOL0     O20781   7.659   6.386   6.558  0.2455  0.3072 -0.0955
  876MOL0     C20782   7.776   6.340   6.603 -0.1090  0.4370  0.0497
  876MOL0     C20783   7.846   6.243   6.530  0.2922 -0.6308  0.3049
  876MOL0     C20784   7.975   6.208   6.566  0.3255 -0.2827 -0.3413
  876MOL0     C20785   8.041   6.257   6.676  0.0038  0.3304 -0.4850
  876MOL0     O20786   8.164   6.225   6.723 -0.6223  0.1039 -0.3252
  876MOL0     C20787   8.228   6.113   6.663  0.1606 -0.0438  0.1011
  876MOL0     C20788   8.371   6.125   6.702 -0.6819  0.0598  0.7129
  876MOL0     C20789   8.459   6.206   6.601  0.9069 -0.0779 -0.6733
  876MOL0     C20790   8.605   6.198   6.636  0.3472 -0.6358  0.0006
  876MOL0     C20791   8.688   6.275   6.540  0.4441 -0.1635 -0.7663
  876MOL0     C20792   8.836   6.277   6.591  0.4550  0.4175  1.1132
  876MOL0     C20793   8.931   6.357   6.491  0.1534 -0.1260 -0.0271
  876MOL0     C20794   9.051   6.391   6.559 -0.2221  0.0463  0.0058
  876MOL0    Cl20795   9.177   6.259   6.558 -0.1097  0.1288  0.0091
  876MOL0     C20796   7.969   6.346   6.757  0.6510 -0.8126  1.1835
  876MOL0     C20797   7.837   6.389   6.724  1.1283  0.3482 -0.9299
  876MOL0     O20798   7.535   6.316   6.737  0.4254  0.0612  0.2460
  876MOL0     C20799   7.425   6.513   6.444 -0.1024  0.6254  0.1913
  876MOL0     C20800   7.310   6.559   6.377 -0.5048 -0.2595 -0.5785
  876MOL0     N20801   6.893   7.076   5.988  1.0350  0.2375 -1.1843
  876MOL0     N20802   6.854   7.164   5.910  0.8086 -0.3059  0.6313
  876MOL0     C20803   5.699   7.589   6.257 -0.5509 -0.1539  0.0877
  876MOL0     C20804   5.581   7.597   6.324 -0.8031 -0.7194  0.2211
  876MOL0     C20805   5.178   7.744   6.428 -0.6591  0.2815 -0.4454
  876MOL0     C20806   5.148   7.648   6.519 -0.7440  0.0761  0.2952
  876MOL0     C20807   5.019   7.640   6.566 -0.2542 -1.1741  0.8509
  876MOL0     C20808   4.920   7.736   6.533 -0.2296  0.3742 -0.0075
  876MOL0     O20809   4.793   7.711   6.585  0.0821 -0.7555 -0.3336
  876MOL0     C20810   4.687   7.805   6.559 -0.1688 -0.3566  0.1390
  876MOL0     C20811   4.570   7.783   6.654  0.6612  0.1823 -0.4703
  876MOL0     C20812   4.455   7.885   6.622 -0.1329 -0.5234 -0.6159
  876MOL0     C20813   4.339   7.867   6.727  0.7825 -0.3258 -0.1114
  876MOL0     C20814   4.290   7.728   6.746 -0.7688  0.4782 -0.0750
  876MOL0     C20815   4.257   7.611   6.742  0.1422 -0.7931 -0.0825
  876MOL0     C20816   4.965   7.851   6.476 -0.4088 -0.7301 -0.4395
  876MOL0     C20817   5.093   7.851   6.411 -0.2741  0.1041  0.5808
  876MOL0     C20818   5.121   7.974   6.329  0.4905 -0.3931 -0.6566
  876MOL0     H20819   5.374   7.590   6.054  2.1353 -2.8332 -3.3060
  876MOL0     H20820   5.596   7.561   5.936  2.5048 -3.1574  0.4024
  876MOL0     H20821   5.797   7.678   5.881 -1.4861 -1.2871 -3.4977
  876MOL0     H20822   5.791   7.495   5.876 -1.2902  0.2021  1.9912
  876MOL0     H20823   5.982   7.618   5.767  0.0312  0.7931  0.4363
  876MOL0     H20824   6.042   7.670   5.915  0.6015  1.3025 -1.8201
  876MOL0     H20825   6.086   7.429   5.988  0.3015  1.1141  0.6011
  876MOL0     H20826   5.991   7.374   5.852  1.9589 -0.8791 -1.7077
  876MOL0     H20827   6.150   7.429   5.690 -1.7089 -0.9411  0.9458
  876MOL0     H20828   6.249   7.520   5.809  2.8283 -2.1631  2.5024
  876MOL0     H20829   6.235   7.218   5.776 -0.0169 -0.3801 -1.0620
  876MOL0     H20830   6.298   7.301   5.927  1.9231  0.0489  0.0269
  876MOL0     H20831   6.416   7.308   5.646 -3.0076 -1.4770  0.6308
  876MOL0     H20832   6.456   7.429   5.774 -0.8298  0.2994  0.0125
  876MOL0     H20833   6.464   7.134   5.829  3.9032 -2.2903  0.9379
  876MOL0     H20834   6.525   7.256   5.931 -0.2075  0.1585  0.0796
  876MOL0     H20835   6.647   7.159   5.665 -1.5843 -0.1225 -0.0310
  876MOL0     H20836   6.698   7.315   5.749  1.6474 -1.1874  0.5792
  876MOL0     H20837   6.604   6.967   5.894  0.3255  1.0171  0.2027
  876MOL0     H20838   6.730   6.788   6.057 -0.5514  0.0001  0.1815
  876MOL0     H20839   6.742   6.923   6.181  0.0957 -0.3388 -0.3071
  876MOL0     H20840   6.963   6.775   6.028 -3.7171 -3.0716 -0.1421
  876MOL0     H20841   7.003   6.902   6.153 -2.1960  2.3816 -1.1762
  876MOL0     H20842   6.896   6.731   6.329 -0.7617 -1.1639  0.3437
  876MOL0     H20843   6.863   6.625   6.186 -0.4514 -1.3355  3.6562
  876MOL0     H20844   7.084   6.557   6.168 -0.1750  0.6757 -0.9206
  876MOL0     H20845   7.145   6.705   6.227  2.0927 -2.2158  1.4204
  876MOL0     H20846   7.079   6.432   6.585  0.8334  0.1590  3.0396
  876MOL0     H20847   7.155   6.267   6.731  0.7689  0.7828  0.7893
  876MOL0     H20848   7.298   6.315   6.812  1.1596  2.0248 -1.3430
  876MOL0     H20849   7.309   6.196   6.682 -0.8726 -1.4951  1.6690
  876MOL0     H20850   7.793   6.216   6.440 -0.6497  1.7769  0.0833
  876MOL0     H20851   8.014   6.123   6.510  1.2429 -1.4189  1.8947
  876MOL0     H20852   8.179   6.022   6.699  1.9918 -1.0511  0.1710
  876MOL0     H20853   8.226   6.120   6.553 -0.3822  0.4293  0.1332
  876MOL0     H20854   8.386   6.163   6.804 -0.2903  3.3000 -0.4069
  876MOL0     H20855   8.415   6.025   6.699  0.0709  0.4056 -0.5937
  876MOL0     H20856   8.422   6.308   6.592 -1.5723 -0.7193  1.2385
  876MOL0     H20857   8.445   6.154   6.506  0.9379 -1.5914  0.1284
  876MOL0     H20858   8.639   6.095   6.621 -0.1423 -0.8069  0.0638
  876MOL0     H20859   8.623   6.245   6.733  3.4688  0.9833 -1.1982
  876MOL0     H20860   8.683   6.210   6.452 -1.5119 -4.5382  2.1829
  876MOL0     H20861   8.642   6.372   6.520  0.9515  0.8362  2.4177
  876MOL0     H20862   8.878   6.178   6.609  1.7484  0.6684 -0.3728
  876MOL0     H20863   8.838   6.331   6.687 -2.1491  1.7315  0.5287
  876MOL0     H20864   8.892   6.451   6.451  3.2405  0.1405 -2.9193
  876MOL0     H20865   8.951   6.290   6.406 -0.5179  1.0345 -1.1418
  876MOL0     H20866   9.024   6.417   6.662 -2.2883 -1.0347 -0.2080
  876MOL0     H20867   9.094   6.471   6.498 -0.4571 -0.6422 -1.1049
  876MOL0     H20868   8.017   6.390   6.845  0.3284 -1.4710  1.7018
  876MOL0     H20869   7.788   6.465   6.785  1.2398  0.0162 -0.4204
  876MOL0     H20870   7.518   6.536   6.392  0.7721 -1.3743  0.7793
  876MOL0     H20871   7.324   6.615   6.285  1.9748  2.0129  1.0084
  876MOL0     H20872   5.791   7.583   6.315 -0.5833  0.1612  0.1744
  876MOL0     H20873   5.578   7.598   6.433 -0.3631  1.0258  0.2405
  876MOL0     H20874   5.211   7.560   6.525 -0.3953  0.2027 -1.2612
  876MOL0     H20875   4.998   7.545   6.615 -2.8452 -2.4691 -2.4514
  876MOL0     H20876   4.722   7.908   6.575 -0.3303  0.3010 -3.0473
  876MOL0     H20877   4.652   7.799   6.455  0.5359  3.0593 -0.4228
  876MOL0     H20878   4.624   7.797   6.748  2.9811  0.5654 -1.7682
  876MOL0     H20879   4.527   7.682   6.650 -2.2608  1.3777 -2.6520
  876MOL0     H20880   4.489   7.989   6.629 -0.1781 -0.3921 -2.0368
  876MOL0     H20881   4.420   7.866   6.520  0.9081  0.6460 -1.2185
  876MOL0     H20882   4.246   7.922   6.712  0.1353 -1.6105 -0.9723
  876MOL0     H20883   4.371   7.910   6.822 -1.4073 -2.6434  1.7931
  876MOL0     H20884   4.218   7.511   6.751  2.8437 -1.8668  0.6321
  876MOL0     H20885   4.896   7.935   6.472 -0.7192 -0.8735  1.1667
  876MOL0     H20886   5.044   7.977   6.252 -0.1458 -1.9384 -0.1171
  876MOL0     H20887   5.114   8.053   6.405  1.5723  0.0940 -1.0364
  876MOL0     H20888   5.218   7.981   6.279 -0.2003  2.8486 -1.7986
  877MOL0     O20889  10.727   8.398   9.105  0.7433 -0.5880  0.0904
  877MOL0     C20890  10.682   8.314   9.177 -0.6888  0.1696 -0.5255
  877MOL0     O20891  10.753   8.252   9.271 -0.1737  0.2515  0.2607
  877MOL0     C20892  10.888   8.266   9.279 -0.2230  0.7802  0.2360
  877MOL0     C20893  10.982   8.272   9.172  0.1282 -0.1874 -0.2482
  877MOL0     C20894  11.115   8.255   9.193 -0.6551  0.9807 -0.1052
  877MOL0     C20895  11.168   8.250   9.316  0.1300 -0.1631 -0.6054
  877MOL0     O20896  11.305   8.229   9.328 -0.0238 -0.9516  0.5423
  877MOL0     C20897  11.374   8.342   9.399  0.4705 -0.2829 -0.2271
  877MOL0     C20898  11.515   8.334   9.359  0.1704 -0.0734  0.2299
  877MOL0     C20899  11.529   8.393   9.216 -0.3061  0.0615 -0.7258
  877MOL0     C20900  11.678   8.377   9.185 -0.3088  0.2012  0.6276
  877MOL0     C20901  11.721   8.426   9.039 -0.2811  1.1823  0.1954
  877MOL0     C20902  11.870   8.420   9.041  0.3816  0.3652  0.4957
  877MOL0     C20903  11.924   8.481   8.908 -0.3571  0.1086 -0.4496
  877MOL0     C20904  11.893   8.391   8.786 -0.5640 -0.3304  0.3333
  877MOL0     N20905  11.977   8.422   8.672 -0.4617 -0.4812  0.4447
  877MOL0     C20906  12.096   8.358   8.649 -0.7094 -0.5358 -0.6425
  877MOL0     C20907  12.139   8.426   8.536 -0.7165  0.1111 -0.6726
  877MOL0     C20908  12.266   8.389   8.461 -0.3387 -0.4666  0.9772
  877MOL0     C20909  12.388   8.473   8.506  0.9546  0.3563  0.6457
  877MOL0     C20910  12.429   8.433   8.642 -0.3860  0.0429  0.0662
  877MOL0     C20911  12.540   8.528   8.695  0.5292  1.0060 -0.6307
  877MOL0     O20912  12.590   8.486   8.824  0.2270  0.2826  0.0364
  877MOL0     C20913  12.723   8.516   8.844  0.7960  0.2129  0.3523
  877MOL0     C20914  12.811   8.428   8.912 -0.1049  0.1419 -0.2933
  877MOL0     C20915  12.945   8.462   8.938  0.0589  0.3530  0.0359
  877MOL0     C20916  13.032   8.354   8.996 -0.9344 -0.1674 -0.4488
  877MOL0     C20917  12.992   8.590   8.908 -0.5569  0.1510 -0.1432
  877MOL0     C20918  13.120   8.649   8.950 -0.2713 -0.1679 -0.9422
  877MOL0     O20919  13.149   8.773   8.898 -0.2412  0.0509 -0.8693
  877MOL0     C20920  13.275   8.821   8.917  0.3597 -1.4395  0.0566
  877MOL0     C20921  13.287   8.960   8.909  1.2299 -0.6398  0.1485
  877MOL0     C20922  13.411   9.026   8.907 -0.2286 -0.1647  1.5213
  877MOL0     C20923  13.533   8.958   8.920  0.0266 -0.9983  0.2578
  877MOL0     O20924  13.649   9.031   8.927  0.3416  0.2254  0.2170
  877MOL0     C20925  13.770   8.961   8.945 -0.9720  0.5055 -0.0258
  877MOL0     C20926  13.778   8.921   9.089  0.0159 -0.7001  0.3851
  877MOL0     C20927  13.878   8.809   9.108 -0.3651 -0.8778 -0.2110
  877MOL0     C20928  14.031   8.839   9.075  1.1349  0.1806 -0.9577
  877MOL0     C20929  14.133   8.736   9.121  0.5811  0.4893 -0.0337
  877MOL0     C20930  14.135   8.611   9.033  0.3147  0.5558  0.4450
  877MOL0     C20931  14.082   8.477   9.088  0.9643  0.6132 -0.6424
  877MOL0     C20932  14.077   8.371   8.976  0.3299 -0.1917  0.1794
  877MOL0    Cl20933  13.953   8.418   8.858 -0.7391  0.5413  0.0400
  877MOL0     C20934  13.523   8.818   8.917  0.6180 -0.5910 -0.8474
  877MOL0     C20935  13.397   8.754   8.905  0.1065  0.9116 -0.8099
  877MOL0     O20936  13.190   8.587   9.031 -0.2271 -0.5503 -0.0834
  877MOL0     C20937  12.908   8.671   8.828  0.3352  0.4938  0.3529
  877MOL0     C20938  12.784   8.636   8.800  0.4965  1.0649  0.6287
  877MOL0     N20939  12.056   8.533   8.499 -0.4056 -0.3740  0.5460
  877MOL0     N20940  11.961   8.529   8.587 -0.3167  0.7986  0.2174
  877MOL0     C20941  11.080   8.254   9.426 -0.2090 -0.5913  0.3965
  877MOL0     C20942  10.940   8.261   9.406 -0.3921  0.0266 -0.7480
  877MOL0     C20943  10.544   8.276   9.171  0.7723  0.2596 -0.3522
  877MOL0     C20944  10.485   8.207   9.280 -0.2244  0.2235  0.6051
  877MOL0     C20945  10.346   8.190   9.291  0.9963 -0.2054  0.3348
  877MOL0     C20946  10.258   8.215   9.185  0.0075  0.1716 -0.1301
  877MOL0     O20947  10.128   8.163   9.199 -0.3470  0.3226  0.4382
  877MOL0     C20948  10.039   8.174   9.090  0.5793 -0.0212 -0.7431
  877MOL0     C20949   9.904   8.146   9.140  0.1955  0.8566 -0.2493
  877MOL0     C20950   9.879   7.989   9.130 -0.2020 -0.1077  0.0160
  877MOL0     C20951   9.742   7.951   9.193 -0.1603  0.0684 -0.6248
  877MOL0     C20952   9.629   8.026   9.127  0.2489  0.3203  0.7152
  877MOL0     C20953   9.544   8.088   9.069 -0.5305 -0.1990  1.3290
  877MOL0     C20954  10.313   8.281   9.076 -0.4288 -0.1450  0.3187
  877MOL0     C20955  10.452   8.303   9.068  0.7882 -0.5152  0.4720
  877MOL0     C20956  10.501   8.354   8.939 -0.1974  0.4274  0.6137
  877MOL0     H20957  10.946   8.276   9.070 -0.3269  1.3982 -0.0594
  877MOL0     H20958  11.187   8.235   9.114  2.6532  1.0109  2.6359
  877MOL0     H20959  11.356   8.331   9.506 -3.6539 -0.3400 -0.7878
  877MOL0     H20960  11.329   8.438   9.374  1.2846  0.4753  1.0974
  877MOL0     H20961  11.587   8.387   9.421 -1.3017  2.1148  0.1788
  877MOL0     H20962  11.541   8.228   9.356  0.2177 -0.0582  0.0683
  877MOL0     H20963  11.481   8.338   9.135 -4.1961 -0.3392  1.5645
  877MOL0     H20964  11.508   8.501   9.213  1.9815  0.5816 -0.0229
  877MOL0     H20965  11.733   8.424   9.267  2.7368  0.1471 -1.2062
  877MOL0     H20966  11.707   8.271   9.188  2.8064  0.9693  0.8245
  877MOL0     H20967  11.684   8.526   9.018 -0.7954  0.7962 -0.8459
  877MOL0     H20968  11.679   8.357   8.964 -3.3047  1.9501  1.0370
  877MOL0     H20969  11.908   8.480   9.123  0.7864  1.2931 -0.3525
  877MOL0     H20970  11.901   8.316   9.056 -1.0948  0.2087  2.8659
  877MOL0     H20971  12.031   8.499   8.923 -0.9747  4.3994  0.0227
  877MOL0     H20972  11.897   8.585   8.889  1.7553  0.3613 -2.5267
  877MOL0     H20973  11.905   8.285   8.811  3.5838  0.3187  1.7807
  877MOL0     H20974  11.793   8.416   8.750 -0.0454 -0.9756 -1.6919
  877MOL0     H20975  12.128   8.264   8.692  3.7098  1.1816  0.2881
  877MOL0     H20976  12.248   8.406   8.354 -1.0743  1.3528  1.3595
  877MOL0     H20977  12.296   8.285   8.475  1.4384 -0.2344 -0.6318
  877MOL0     H20978  12.462   8.453   8.428 -1.8003  1.4858 -2.5274
  877MOL0     H20979  12.367   8.580   8.513 -1.1098  0.0497 -0.0055
  877MOL0     H20980  12.344   8.439   8.710  0.6902  0.3429  1.4356
  877MOL0     H20981  12.466   8.330   8.647 -1.3106 -0.2600  2.9600
  877MOL0     H20982  12.625   8.518   8.628  3.1104 -2.2491  2.6721
  877MOL0     H20983  12.498   8.629   8.705 -2.2469 -0.0185 -0.9462
  877MOL0     H20984  12.779   8.326   8.934  2.4211 -0.7872 -0.6040
  877MOL0     H20985  12.977   8.260   9.005  1.6668 -1.7911 -0.3031
  877MOL0     H20986  13.072   8.379   9.095 -1.5005  1.0541 -0.5013
  877MOL0     H20987  13.115   8.330   8.929 -1.4056 -4.5967  0.2901
  877MOL0     H20988  13.196   9.018   8.898  0.4256 -1.8196  0.4091
  877MOL0     H20989  13.420   9.133   8.891  0.0757 -0.4451 -0.4730
  877MOL0     H20990  13.763   8.877   8.876 -1.1873 -0.9410  1.6906
  877MOL0     H20991  13.858   9.019   8.914 -1.6047  2.0027  0.8745
  877MOL0     H20992  13.796   9.012   9.148  0.0747  0.3062 -1.1376
  877MOL0     H20993  13.678   8.892   9.124 -1.5914  2.2505 -1.3454
  877MOL0     H20994  13.852   8.719   9.051 -0.6135  0.9451 -3.1698
  877MOL0     H20995  13.874   8.770   9.211 -1.9629  0.4499  0.2771
  877MOL0     H20996  14.066   8.934   9.117 -0.0854  0.0823  0.3236
  877MOL0     H20997  14.038   8.847   8.966  1.0585 -1.0115 -1.0594
  877MOL0     H20998  14.239   8.764   9.123  1.6171 -2.8810 -0.5840
  877MOL0     H20999  14.115   8.712   9.226  2.9434 -0.8014  0.1492
  877MOL0     H21000  14.238   8.595   8.999  0.4920 -1.2247  1.6584
  877MOL0     H21001  14.070   8.627   8.947  0.6673 -0.3146  0.0011
  877MOL0     H21002  13.987   8.500   9.136  1.0242 -0.1845 -0.1279
  877MOL0     H21003  14.143   8.440   9.171  0.7567 -3.9079 -2.2031
  877MOL0     H21004  14.051   8.274   9.018  1.0328 -0.5619 -0.2182
  877MOL0     H21005  14.172   8.367   8.921  0.2024  2.1298 -0.3203
  877MOL0     H21006  13.611   8.754   8.925  0.1160 -1.1290  0.7581
  877MOL0     H21007  13.395   8.645   8.906 -1.9055  0.8121  3.0751
  877MOL0     H21008  12.940   8.773   8.806  0.2873  0.4051 -0.1184
  877MOL0     H21009  12.721   8.705   8.744  1.1961  0.6171 -0.7610
  877MOL0     H21010  11.128   8.256   9.524 -1.0939  0.9199  0.8357
  877MOL0     H21011  10.872   8.252   9.490  1.0371 -1.9711  0.2957
  877MOL0     H21012  10.554   8.179   9.358 -0.2558 -2.3614 -0.1900
  877MOL0     H21013  10.296   8.133   9.369 -0.0179 -1.7624 -1.3885
  877MOL0     H21014  10.033   8.280   9.064  0.6665  0.3021  0.4800
  877MOL0     H21015  10.078   8.123   9.002  0.6004 -0.7807 -0.3010
  877MOL0     H21016   9.838   8.198   9.069 -0.1594  1.1310  0.2699
  877MOL0     H21017   9.886   8.184   9.241  1.1761  1.5995 -0.3403
  877MOL0     H21018   9.881   7.948   9.028  1.1274  0.0634 -0.0492
  877MOL0     H21019   9.951   7.934   9.191 -1.2023 -2.0040 -0.4244
  877MOL0     H21020   9.749   7.970   9.300  0.2481  2.9402 -1.0833
  877MOL0     H21021   9.732   7.842   9.196 -1.1402  0.1778  1.0876
  877MOL0     H21022   9.483   8.148   9.006  0.3663  2.1036  2.5554
  877MOL0     H21023  10.254   8.298   8.986  2.2357  0.5822 -1.4145
  877MOL0     H21024  10.446   8.306   8.858  3.9232  0.2228 -2.3924
  877MOL0     H21025  10.496   8.464   8.937 -0.2692  0.4238 -1.0065
  877MOL0     H21026  10.602   8.318   8.916 -1.7209 -2.9560 -1.6304
  878MOL0     O21027   5.365   3.824   0.143  0.0224 -0.3892  0.6304
  878MOL0     C21028   5.398   3.851   0.024  0.1206 -0.4179 -0.0502
  878MOL0     O21029   5.528   3.884  -0.016 -0.5276 -0.2199  0.2386
  878MOL0     C21030   5.623   3.866   0.083 -0.2864  0.3032 -0.6344
  878MOL0     C21031   5.651   3.731   0.123  0.2205  0.5500 -0.4701
  878MOL0     C21032   5.752   3.707   0.219 -0.3317 -0.4269  0.2376
  878MOL0     C21033   5.825   3.815   0.282  0.1520  0.4621 -0.1598
  878MOL0     O21034   5.904   3.783   0.390 -0.3245 -0.0608  0.3645
  878MOL0     C21035   5.947   3.878   0.481  0.7232 -0.6143 -0.7624
  878MOL0     C21036   5.835   3.893   0.591  0.8375  0.5358  0.1180
  878MOL0     C21037   5.850   4.025   0.666 -0.3365 -0.0417  0.0376
  878MOL0     C21038   5.747   4.037   0.776 -0.2314  0.2174 -0.8217
  878MOL0     C21039   5.603   4.037   0.739 -0.1273 -0.9111  0.1543
  878MOL0     C21040   5.566   4.144   0.631 -0.1057 -0.4951 -0.0694
  878MOL0     C21041   5.414   4.149   0.623 -0.0596 -0.4634  0.5370
  878MOL0     C21042   5.378   4.054   0.510  1.0571 -0.0732 -0.5698
  878MOL0     N21043   5.361   4.127   0.388  0.6219 -0.2389 -0.2869
  878MOL0     C21044   5.465   4.162   0.299 -0.0749  0.0197 -0.4028
  878MOL0     C21045   5.397   4.220   0.199  1.2248  0.9408  0.4847
  878MOL0     C21046   5.452   4.246   0.067 -0.1135  0.2916  0.2339
  878MOL0     C21047   5.582   4.317   0.054  0.6127 -0.3657  0.1006
  878MOL0     C21048   5.617   4.349  -0.094  0.3772 -0.1611  0.1802
  878MOL0     C21049   5.764   4.392  -0.110  0.2007  0.6444 -0.3617
  878MOL0     O21050   5.847   4.280  -0.067  0.4735 -0.7692  0.7800
  878MOL0     C21051   5.981   4.306  -0.046 -0.3688 -0.2432 -0.4198
  878MOL0     C21052   6.065   4.359  -0.137 -0.6093  0.7909  0.2914
  878MOL0     C21053   6.200   4.352  -0.138 -0.6128 -0.2465  0.3962
  878MOL0     C21054   6.277   4.412  -0.256 -0.7113 -0.3730 -0.2782
  878MOL0     C21055   6.260   4.282  -0.027 -0.1926  0.2841  0.3449
  878MOL0     C21056   6.406   4.254  -0.016  0.0709 -0.3957 -0.6427
  878MOL0     O21057   6.478   4.259  -0.130 -0.0190  0.3847 -0.1659
  878MOL0     C21058   6.606   4.218  -0.116 -0.0404  0.1699  0.2567
  878MOL0     C21059   6.637   4.086  -0.092  0.6000 -0.3482 -0.4166
  878MOL0     C21060   6.769   4.043  -0.079  0.4391  0.1635  1.5249
  878MOL0     C21061   6.880   4.131  -0.093  0.8888  0.4760 -0.9413
  878MOL0     O21062   7.006   4.098  -0.062  0.3997  0.4616 -0.5696
  878MOL0     C21063   7.041   3.981   0.024 -0.3349 -0.5570 -0.0485
  878MOL0     C21064   7.188   3.945   0.016 -0.3183  0.4433  0.0538
  878MOL0     C21065   7.225   3.858  -0.107 -0.5684  0.2935 -0.4797
  878MOL0     C21066   7.189   3.922  -0.244  0.0241 -0.1936  0.0356
  878MOL0     C21067   7.246   3.848  -0.362 -0.3935 -0.7793  0.3595
  878MOL0     C21068   7.193   3.924  -0.492  0.2556  0.4143  0.1768
  878MOL0     C21069   7.240   3.860  -0.624  0.6567  0.2499 -1.1124
  878MOL0     C21070   7.200   3.714  -0.661  0.0860  0.3827  0.5374
  878MOL0    Cl21071   7.325   3.649  -0.775 -0.2717 -0.4654  0.2998
  878MOL0     C21072   6.850   4.272  -0.112  0.9220  0.7103  0.3111
  878MOL0     C21073   6.715   4.313  -0.124  0.7524  0.1361  0.2641
  878MOL0     O21074   6.452   4.207   0.092  0.3382  0.0640  0.5280
  878MOL0     C21075   6.179   4.233   0.067 -0.2816  0.0005 -0.7024
  878MOL0     C21076   6.038   4.238   0.061  0.1482 -0.2099  0.6400
  878MOL0     N21077   5.262   4.234   0.232 -0.2277  0.3889 -0.6734
  878MOL0     N21078   5.244   4.172   0.341  0.2316  0.7598  0.4520
  878MOL0     C21079   5.786   3.947   0.246 -0.5941 -0.2501 -0.3692
  878MOL0     C21080   5.698   3.969   0.137  0.7871  0.5754  0.1808
  878MOL0     C21081   5.305   3.851  -0.086 -0.0332  0.0890  0.1940
  878MOL0     C21082   5.348   3.798  -0.212 -0.5295 -0.5684  0.0671
  878MOL0     C21083   5.255   3.768  -0.312 -1.0710 -0.2848 -0.4276
  878MOL0     C21084   5.117   3.793  -0.297 -0.1197 -0.5199  0.1923
  878MOL0     O21085   5.022   3.775  -0.391  0.0678 -0.3916 -0.3985
  878MOL0     C21086   5.040   3.678  -0.490 -0.1136  0.8004  0.3056
  878MOL0     C21087   4.911   3.664  -0.570  0.2632 -0.0894  0.8502
  878MOL0     C21088   4.914   3.758  -0.695 -0.1248  1.2955 -0.7731
  878MOL0     C21089   4.887   3.906  -0.668  0.5021  0.2770  0.6176
  878MOL0     C21090   4.849   3.980  -0.785  0.7968 -0.0081 -1.2141
  878MOL0     C21091   4.800   4.048  -0.869 -0.5305 -0.7489 -0.6654
  878MOL0     C21092   5.075   3.836  -0.177  0.5354  0.2707 -0.2931
  878MOL0     C21093   5.164   3.869  -0.072 -1.0125 -0.1394  0.6633
  878MOL0     C21094   5.103   3.943   0.048  0.1578  0.6461  0.2018
  878MOL0     H21095   5.587   3.653   0.083 -0.8618  2.2187 -2.1990
  878MOL0     H21096   5.765   3.603   0.248 -0.9407 -0.8298 -0.8963
  878MOL0     H21097   5.976   3.980   0.453  0.3686 -0.9164 -2.3058
  878MOL0     H21098   6.033   3.834   0.533  0.1427  0.5572  1.3102
  878MOL0     H21099   5.741   3.891   0.535  0.0440 -1.4025  1.3868
  878MOL0     H21100   5.837   3.812   0.665 -1.6178 -0.4636 -0.7977
  878MOL0     H21101   5.949   4.044   0.710  0.2362 -0.3389 -1.0727
  878MOL0     H21102   5.839   4.109   0.597  0.5692 -0.4119 -0.5765
  878MOL0     H21103   5.770   3.955   0.845  1.4093  0.6743 -0.7770
  878MOL0     H21104   5.782   4.130   0.822  1.0588 -0.9974  0.8042
  878MOL0     H21105   5.547   4.070   0.827 -0.4427 -1.0332  0.0041
  878MOL0     H21106   5.565   3.938   0.712 -2.4243 -0.2210  0.5663
  878MOL0     H21107   5.613   4.235   0.669  0.7221 -0.4906 -1.0674
  878MOL0     H21108   5.613   4.126   0.534 -0.3896  0.1296 -0.3284
  878MOL0     H21109   5.383   4.253   0.607 -0.0386 -0.3862  0.9927
  878MOL0     H21110   5.367   4.122   0.718 -0.8778  4.5143  1.8691
  878MOL0     H21111   5.451   3.972   0.515  2.0802  0.8917  2.2960
  878MOL0     H21112   5.287   3.998   0.535  0.6867 -0.2998 -2.3090
  878MOL0     H21113   5.572   4.142   0.304 -0.1494 -0.2305  0.3431
  878MOL0     H21114   5.377   4.303   0.012  0.1347 -1.1728 -1.7273
  878MOL0     H21115   5.476   4.148   0.025  1.7188  1.2568 -1.1347
  878MOL0     H21116   5.565   4.404   0.117  1.9194 -1.8462  2.6798
  878MOL0     H21117   5.660   4.257   0.102  1.9888 -1.9985 -3.7369
  878MOL0     H21118   5.599   4.269  -0.165  1.8069  1.8769 -2.6666
  878MOL0     H21119   5.546   4.428  -0.121 -0.6927 -1.8313 -2.1353
  878MOL0     H21120   5.777   4.424  -0.214 -1.6788 -0.3116 -0.9279
  878MOL0     H21121   5.786   4.476  -0.044 -0.5736  1.2490 -0.8571
  878MOL0     H21122   6.018   4.393  -0.229 -3.0064  0.0289  1.1534
  878MOL0     H21123   6.229   4.500  -0.299  1.5894  2.4209  2.4030
  878MOL0     H21124   6.279   4.334  -0.333 -1.6798 -1.4783  0.7622
  878MOL0     H21125   6.378   4.446  -0.233 -0.1647 -0.0271 -2.9452
  878MOL0     H21126   6.566   4.004  -0.087  1.9546 -1.6452 -1.3556
  878MOL0     H21127   6.793   3.942  -0.044  0.3523 -0.9574 -1.3660
  878MOL0     H21128   7.023   4.002   0.130 -4.2344  3.0342 -1.1794
  878MOL0     H21129   6.976   3.895   0.005 -1.8468  0.5689 -0.0835
  878MOL0     H21130   7.248   4.035  -0.003 -2.8432  2.3233  0.4908
  878MOL0     H21131   7.220   3.899   0.110  0.3027 -0.8185 -0.7549
  878MOL0     H21132   7.190   3.755  -0.093  1.2950 -0.1339  1.5558
  878MOL0     H21133   7.333   3.844  -0.108 -0.7718 -1.4630 -1.3839
  878MOL0     H21134   7.233   4.022  -0.249 -1.8608  0.6752 -0.1581
  878MOL0     H21135   7.080   3.927  -0.251 -0.0567  0.1681  1.2444
  878MOL0     H21136   7.355   3.840  -0.355 -0.5316 -1.3630  2.2217
  878MOL0     H21137   7.196   3.751  -0.362  1.7235 -1.9370 -0.7733
  878MOL0     H21138   7.243   4.020  -0.489  3.4487 -1.1435  1.6777
  878MOL0     H21139   7.083   3.931  -0.492  0.1830 -0.3543 -1.4944
  878MOL0     H21140   7.349   3.863  -0.633  0.9173 -3.2131 -0.4803
  878MOL0     H21141   7.216   3.929  -0.706 -1.5972  0.0764 -0.6616
  878MOL0     H21142   7.104   3.729  -0.711  0.1157  2.1102  0.9470
  878MOL0     H21143   7.182   3.640  -0.582  0.1668 -2.2530 -1.7427
  878MOL0     H21144   6.938   4.335  -0.114  2.1675 -0.8834  1.5935
  878MOL0     H21145   6.691   4.418  -0.133  2.8685  0.5329 -1.7187
  878MOL0     H21146   6.221   4.192   0.159 -0.0028  3.1758  0.7284
  878MOL0     H21147   5.978   4.195   0.140  2.3011 -4.5752  0.2385
  878MOL0     H21148   5.830   4.032   0.297 -0.8095 -1.3346  1.7043
  878MOL0     H21149   5.688   4.068   0.094  1.3441  0.3289 -0.5376
  878MOL0     H21150   5.452   3.773  -0.233 -0.6405  0.0583 -1.3446
  878MOL0     H21151   5.301   3.733  -0.404  0.4292 -2.4495  1.0572
  878MOL0     H21152   5.120   3.705  -0.560  0.2545 -3.1372 -1.0098
  878MOL0     H21153   5.065   3.588  -0.432  1.4523  1.9823  1.5664
  878MOL0     H21154   4.826   3.691  -0.506 -1.3699  2.1010 -1.9873
  878MOL0     H21155   4.905   3.560  -0.603  2.3553 -0.1649  0.5543
  878MOL0     H21156   5.006   3.740  -0.751  0.0145  0.3421 -0.2531
  878MOL0     H21157   4.826   3.722  -0.748 -1.2084  0.5355  1.4221
  878MOL0     H21158   4.985   3.947  -0.639  1.5278 -0.1543 -2.0120
  878MOL0     H21159   4.818   3.927  -0.585 -0.1584  2.5431 -0.4411
  878MOL0     H21160   4.784   4.107  -0.957  2.1598  1.0362 -0.0923
  878MOL0     H21161   4.969   3.857  -0.162  0.0491 -3.7601  4.7793
  878MOL0     H21162   5.028   3.883   0.101 -0.3920  3.7548  3.2567
  878MOL0     H21163   5.181   3.987   0.111  3.0709  0.0562 -2.7238
  878MOL0     H21164   5.044   4.028   0.011 -2.0330 -0.8926 -0.0718
  879MOL0     O21165   3.855   8.850   1.544  0.5546  0.6010  0.0654
  879MOL0     C21166   3.790   8.778   1.474  0.9283 -1.3969  0.0513
  879MOL0     O21167   3.839   8.678   1.398 -0.4787  0.2550  0.0811
  879MOL0     C21168   3.974   8.647   1.414  0.0279  0.4903  0.0080
  879MOL0     C21169   4.013   8.520   1.459  0.2013  0.9759  0.3939
  879MOL0     C21170   4.152   8.500   1.478 -0.1574 -0.1984 -0.6608
  879MOL0     C21171   4.252   8.588   1.435 -0.7305 -1.3248  0.7273
  879MOL0     O21172   4.381   8.561   1.459  0.1454 -0.0685  0.1192
  879MOL0     C21173   4.488   8.653   1.411 -0.3356  0.4159  0.4789
  879MOL0     C21174   4.498   8.802   1.463  0.1369  0.2296  0.5912
  879MOL0     C21175   4.598   8.898   1.391  1.1346 -0.2971  0.0141
  879MOL0     C21176   4.536   8.939   1.251 -0.6465 -0.4961 -0.0058
  879MOL0     C21177   4.604   9.040   1.165  0.2895 -0.5741 -0.2803
  879MOL0     C21178   4.745   8.991   1.116  0.0092  0.1801  0.9054
  879MOL0     C21179   4.817   9.097   1.034  0.4035 -0.1457 -0.2604
  879MOL0     C21180   4.863   9.214   1.127  0.7489  0.6157  0.5445
  879MOL0     N21181   4.952   9.310   1.051 -0.8226 -0.2469  0.5400
  879MOL0     C21182   4.916   9.416   0.968 -0.8151 -0.1757 -1.0004
  879MOL0     C21183   5.034   9.477   0.935  0.0166  0.3391  0.0293
  879MOL0     C21184   5.043   9.601   0.855 -0.0827  0.8868 -0.1705
  879MOL0     C21185   5.063   9.580   0.707 -1.1021 -0.4104 -0.1179
  879MOL0     C21186   5.113   9.704   0.646  0.3042  0.6205  0.2466
  879MOL0     C21187   5.065   9.713   0.500 -0.3550 -0.7881 -0.5957
  879MOL0     O21188   5.112   9.597   0.426 -0.2291  0.8126 -1.1486
  879MOL0     C21189   5.210   9.613   0.335  0.3343 -0.2559  0.4201
  879MOL0     C21190   5.261   9.494   0.278  0.4481 -0.4025  0.1903
  879MOL0     C21191   5.352   9.502   0.171 -0.5166  0.9154 -0.2669
  879MOL0     C21192   5.395   9.360   0.137 -0.5602 -0.2802  1.2291
  879MOL0     C21193   5.414   9.624   0.130  0.0761  0.3431  0.7649
  879MOL0     C21194   5.518   9.639   0.014  0.6123 -0.0318 -0.4979
  879MOL0     O21195   5.546   9.534  -0.061  0.3122 -0.5267 -0.4087
  879MOL0     C21196   5.651   9.546  -0.154  0.5360 -0.3332 -0.8470
  879MOL0     C21197   5.624   9.603  -0.281  0.2385  0.6534  0.7157
  879MOL0     C21198   5.729   9.612  -0.377  0.2176  0.2763 -0.6033
  879MOL0     C21199   5.858   9.567  -0.332 -0.0163 -0.5081  0.0695
  879MOL0     O21200   5.964   9.561  -0.417 -0.6687 -0.1242 -0.0796
  879MOL0     C21201   5.946   9.594  -0.562 -0.2362  0.2879  0.1464
  879MOL0     C21202   6.070   9.558  -0.650 -0.3024  0.0764  0.3503
  879MOL0     C21203   6.197   9.626  -0.613  0.5924  0.8246  0.4737
  879MOL0     C21204   6.299   9.627  -0.730  0.9411  1.0187 -0.0929
  879MOL0     C21205   6.413   9.722  -0.705  0.8650  0.2884  0.2231
  879MOL0     C21206   6.533   9.703  -0.805  0.6487 -0.1628 -0.0314
  879MOL0     C21207   6.656   9.779  -0.748 -0.1101  0.6924  1.2443
  879MOL0     C21208   6.633   9.929  -0.719  0.6151 -0.0150  0.2555
  879MOL0    Cl21209   6.798  10.001  -0.711 -0.3541 -0.0342 -0.1543
  879MOL0     C21210   5.878   9.510  -0.210 -0.7252 -1.1816  0.2996
  879MOL0     C21211   5.774   9.498  -0.118  0.1418 -0.0196 -1.5735
  879MOL0     O21212   5.562   9.752   0.003  0.1721 -0.7110 -0.0869
  879MOL0     C21213   5.373   9.743   0.197  0.1827  0.3651  0.0019
  879MOL0     C21214   5.270   9.740   0.295  0.1002  0.0590 -0.5814
  879MOL0     N21215   5.138   9.398   0.991  0.2654  0.1761  0.6237
  879MOL0     N21216   5.088   9.301   1.061  0.6313  0.4304 -0.4442
  879MOL0     C21217   4.204   8.716   1.393 -0.2222 -0.1334 -0.1946
  879MOL0     C21218   4.069   8.740   1.385 -0.9707 -0.4748 -0.5388
  879MOL0     C21219   3.646   8.777   1.504 -0.0946  0.0718  0.2709
  879MOL0     C21220   3.569   8.664   1.483 -0.8059  1.0033 -0.4236
  879MOL0     C21221   3.437   8.649   1.526 -0.3363 -0.2095  0.9627
  879MOL0     C21222   3.361   8.753   1.582 -0.1216  0.4157 -0.1022
  879MOL0     O21223   3.228   8.731   1.608  0.1264  0.7975 -1.0324
  879MOL0     C21224   3.142   8.843   1.599 -0.2842 -0.0674 -0.0417
  879MOL0     C21225   3.007   8.799   1.651  1.5936  0.1209  0.3022
  879MOL0     C21226   2.947   8.680   1.575 -0.3076  0.0376 -0.7553
  879MOL0     C21227   2.985   8.538   1.614 -0.3919 -0.6239 -1.1585
  879MOL0     C21228   2.891   8.442   1.580 -0.0296  0.5868  0.6632
  879MOL0     C21229   2.795   8.369   1.545 -0.1317  0.4643 -0.2035
  879MOL0     C21230   3.433   8.873   1.594 -0.4375 -0.6659  0.8821
  879MOL0     C21231   3.566   8.896   1.545 -0.1421 -0.5393  0.2906
  879MOL0     C21232   3.618   9.037   1.559 -0.2915 -0.1747  0.0408
  879MOL0     H21233   3.944   8.438   1.479  0.5100  0.9005  1.1844
  879MOL0     H21234   4.175   8.411   1.535  1.7897  1.1394  0.7542
  879MOL0     H21235   4.474   8.654   1.303 -4.3819 -0.8683  0.8289
  879MOL0     H21236   4.589   8.612   1.425 -0.7744  0.0838  3.1662
  879MOL0     H21237   4.400   8.849   1.477 -0.8399 -0.3974 -3.0531
  879MOL0     H21238   4.539   8.797   1.564  2.2194  3.4856  0.0407
  879MOL0     H21239   4.598   8.994   1.442 -4.2597  0.4140 -0.7053
  879MOL0     H21240   4.699   8.857   1.381  1.3869  0.2026  0.5067
  879MOL0     H21241   4.522   8.850   1.189  0.4111 -1.0665  0.5467
  879MOL0     H21242   4.432   8.967   1.266 -0.5486 -0.2719  0.2587
  879MOL0     H21243   4.613   9.127   1.232  0.8151  1.2402 -2.5756
  879MOL0     H21244   4.538   9.081   1.088  0.1436  0.7421  0.5080
  879MOL0     H21245   4.817   8.962   1.193  1.5433 -0.1248 -0.5744
  879MOL0     H21246   4.728   8.906   1.049  0.4918 -0.7483  1.9460
  879MOL0     H21247   4.746   9.128   0.957 -0.9512 -0.4434  0.8331
  879MOL0     H21248   4.904   9.049   0.988  0.5961 -0.5006  0.4619
  879MOL0     H21249   4.786   9.271   1.179  0.9481  1.5963 -0.2015
  879MOL0     H21250   4.915   9.164   1.210 -1.1968  1.5126  2.3924
  879MOL0     H21251   4.812   9.441   0.950 -1.6506 -0.7701  2.2634
  879MOL0     H21252   5.127   9.659   0.897 -2.1047  2.2603  2.2581
  879MOL0     H21253   4.954   9.660   0.878 -0.9161  0.2132 -1.5880
  879MOL0     H21254   5.117   9.487   0.685 -0.0611 -0.0498  0.8138
  879MOL0     H21255   4.967   9.556   0.660 -0.6365 -3.9604  0.4137
  879MOL0     H21256   5.072   9.796   0.689 -1.3135  0.2259 -0.3953
  879MOL0     H21257   5.222   9.718   0.646  0.1307  2.1754  0.0868
  879MOL0     H21258   4.957   9.703   0.512 -0.4597  1.2282  0.5604
  879MOL0     H21259   5.082   9.811   0.455  0.5948 -1.2845 -1.3499
  879MOL0     H21260   5.213   9.403   0.312 -1.3393  0.6801  0.7178
  879MOL0     H21261   5.425   9.344   0.033  1.6531 -2.6082  2.1111
  879MOL0     H21262   5.313   9.289   0.144 -0.1199 -1.2375 -1.7489
  879MOL0     H21263   5.480   9.340   0.203  1.5339  2.6720 -0.3506
  879MOL0     H21264   5.518   9.618  -0.298 -0.1990 -0.6464  2.0833
  879MOL0     H21265   5.707   9.644  -0.479 -2.2967  0.9182  0.0666
  879MOL0     H21266   5.864   9.532  -0.599  0.5730 -1.3524  1.0120
  879MOL0     H21267   5.919   9.699  -0.578 -0.2814  0.0948 -1.2022
  879MOL0     H21268   6.095   9.452  -0.648 -1.4651 -0.2824  4.1145
  879MOL0     H21269   6.034   9.596  -0.746  1.4206 -0.4350 -0.5375
  879MOL0     H21270   6.242   9.580  -0.524 -1.0376  2.8291  2.4478
  879MOL0     H21271   6.168   9.731  -0.603 -0.6993  0.5234  0.0011
  879MOL0     H21272   6.246   9.644  -0.825  1.3643 -1.0536 -0.7505
  879MOL0     H21273   6.341   9.527  -0.739 -1.6293 -0.2287  0.7193
  879MOL0     H21274   6.377   9.826  -0.707 -0.6062 -0.1858 -2.4571
  879MOL0     H21275   6.449   9.691  -0.606  2.3324 -0.2778 -0.4616
  879MOL0     H21276   6.501   9.741  -0.903  0.9548  1.4864  0.4849
  879MOL0     H21277   6.556   9.599  -0.832 -0.6727 -0.3633 -0.4382
  879MOL0     H21278   6.742   9.758  -0.813  0.9415  1.7222  2.2609
  879MOL0     H21279   6.690   9.718  -0.664 -1.4710 -0.0872  1.2529
  879MOL0     H21280   6.582   9.936  -0.622 -0.0429  2.9266 -0.2349
  879MOL0     H21281   6.571   9.972  -0.797  0.5576 -0.2181  0.1896
  879MOL0     H21282   5.979   9.474  -0.191 -0.8107 -2.1716 -0.9927
  879MOL0     H21283   5.785   9.462  -0.017 -1.2276 -0.5068 -1.5823
  879MOL0     H21284   5.407   9.842   0.170 -0.0713  0.6362  0.6350
  879MOL0     H21285   5.246   9.838   0.333  0.5635 -1.4188  4.1523
  879MOL0     H21286   4.262   8.796   1.348 -2.4459  1.1812 -0.8808
  879MOL0     H21287   4.020   8.819   1.329 -1.0959 -1.9931 -2.6968
  879MOL0     H21288   3.615   8.573   1.445  1.6997  0.9830  2.2779
  879MOL0     H21289   3.386   8.558   1.495  0.4038 -1.0533  2.1532
  879MOL0     H21290   3.166   8.927   1.665 -2.0794  0.7590 -0.3908
  879MOL0     H21291   3.134   8.880   1.497 -0.2240  0.3417  0.0980
  879MOL0     H21292   2.943   8.886   1.633  0.5583 -0.8052 -0.7534
  879MOL0     H21293   2.996   8.766   1.755 -0.9313 -0.5366 -0.0886
  879MOL0     H21294   2.839   8.696   1.580  0.0141  2.0685  2.1041
  879MOL0     H21295   2.968   8.682   1.467  1.5574 -1.4396 -0.4867
  879MOL0     H21296   2.992   8.541   1.723 -0.3380 -2.8858 -1.0567
  879MOL0     H21297   3.082   8.506   1.574 -1.2798 -1.6666 -2.5785
  879MOL0     H21298   2.716   8.300   1.522  0.2830 -0.3816  0.8109
  879MOL0     H21299   3.387   8.961   1.638  0.1680  1.0717 -1.7720
  879MOL0     H21300   3.724   9.060   1.544 -0.7367  0.5113 -2.4931
  879MOL0     H21301   3.564   9.105   1.493  0.5587  0.8380  0.3577
  879MOL0     H21302   3.592   9.073   1.659 -1.7719  0.4393 -0.5468
  880MOL0     O21303   0.923  10.855   7.032 -0.5124 -0.1109  0.0237
  880MOL0     C21304   0.918  10.827   6.915 -1.0909 -0.4407  0.3490
  880MOL0     O21305   1.020  10.847   6.819 -0.6581  0.3904 -0.0484
  880MOL0     C21306   1.147  10.891   6.846 -0.2588 -0.8013  0.7455
  880MOL0     C21307   1.234  10.889   6.743  0.5902  0.3660  0.4919
  880MOL0     C21308   1.371  10.918   6.744  0.1263  0.4656 -0.2329
  880MOL0     C21309   1.422  10.957   6.863  0.6759 -0.0780 -0.1651
  880MOL0     O21310   1.551  10.980   6.857 -0.1558 -0.4969 -0.1117
  880MOL0     C21311   1.625  11.012   6.977 -0.6249 -0.0790  0.8840
  880MOL0     C21312   1.774  11.039   6.946  0.0245 -0.2941  0.3377
  880MOL0     C21313   1.863  10.919   6.926  0.2356  0.0495  0.4836
  880MOL0     C21314   2.016  10.956   6.907 -0.6221  0.1258  0.0668
  880MOL0     C21315   2.090  10.839   6.860 -0.1216  0.4562 -0.3563
  880MOL0     C21316   2.238  10.872   6.836 -0.1258  0.2812 -0.5289
  880MOL0     C21317   2.308  10.869   6.978  0.5657  0.2990  0.6243
  880MOL0     C21318   2.441  10.953   6.996 -0.4405  0.5566 -0.0055
  880MOL0     N21319   2.563  10.906   6.924  0.2899  0.1882 -0.6733
  880MOL0     C21320   2.599  10.926   6.791  0.2166 -0.0732  0.7450
  880MOL0     C21321   2.720  10.874   6.779 -0.6723 -0.2708  0.1072
  880MOL0     C21322   2.800  10.850   6.652 -0.3026  0.0151  0.2009
  880MOL0     C21323   2.941  10.781   6.672 -0.1011 -0.8523  0.2333
  880MOL0     C21324   3.022  10.759   6.541  0.0198  0.4102  0.2016
  880MOL0     C21325   3.077  10.890   6.490 -0.3300  0.3982  0.5082
  880MOL0     O21326   3.170  10.866   6.382 -0.2606 -0.2474 -0.2785
  880MOL0     C21327   3.298  10.816   6.409 -0.3198  0.5818  0.2823
  880MOL0     C21328   3.366  10.817   6.527 -0.0927  0.7197  0.8375
  880MOL0     C21329   3.485  10.745   6.546 -0.5631  0.7687  0.3779
  880MOL0     C21330   3.558  10.752   6.678  0.0162  0.3418 -0.4723
  880MOL0     C21331   3.541  10.679   6.424 -0.3130 -0.1486 -0.0205
  880MOL0     C21332   3.675  10.610   6.431  0.2701 -0.4203 -0.6557
  880MOL0     O21333   3.766  10.673   6.507  0.2999  0.2609 -1.1070
  880MOL0     C21334   3.886  10.622   6.538  0.5027  0.1909 -0.4846
  880MOL0     C21335   3.923  10.597   6.672  0.6050 -0.5246  0.1664
  880MOL0     C21336   4.050  10.554   6.711  0.3801  0.0347  0.3036
  880MOL0     C21337   4.150  10.528   6.612  0.6693  0.5875 -0.2255
  880MOL0     O21338   4.270  10.463   6.642  1.1036 -0.0255  0.0253
  880MOL0     C21339   4.296  10.450   6.783 -0.5025  0.2536 -0.0027
  880MOL0     C21340   4.440  10.400   6.805  0.0637 -0.8259  0.2938
  880MOL0     C21341   4.469  10.363   6.947  0.0903  0.0313 -0.0848
  880MOL0     C21342   4.615  10.325   6.946 -0.2924 -0.7716 -0.4707
  880MOL0     C21343   4.655  10.191   6.894  0.2110  0.8179 -0.2977
  880MOL0     C21344   4.812  10.171   6.902  0.7641  0.2216 -0.4877
  880MOL0     C21345   4.868  10.100   7.035 -0.0284 -0.6878 -0.3905
  880MOL0     C21346   4.812   9.959   7.043 -0.2552 -0.4633 -0.0756
  880MOL0    Cl21347   4.956   9.846   7.029  0.0328 -0.3059 -0.1956
  880MOL0     C21348   4.113  10.547   6.478  0.4129 -0.3394 -0.0110
  880MOL0     C21349   3.985  10.591   6.437  0.0239 -0.4740 -0.1018
  880MOL0     O21350   3.704  10.509   6.367  0.3898 -0.5220 -0.3752
  880MOL0     C21351   3.465  10.668   6.311 -0.0408 -1.2910  0.1590
  880MOL0     C21352   3.354  10.754   6.304 -0.0245  0.5773 -0.6843
  880MOL0     N21353   2.763  10.832   6.904 -0.1397  1.3012  0.2438
  880MOL0     N21354   2.670  10.853   6.988  0.3711 -0.1243  0.0515
  880MOL0     C21355   1.343  10.965   6.975  1.3552  0.0641 -0.6182
  880MOL0     C21356   1.207  10.932   6.969  0.0459  0.0987  0.1813
  880MOL0     C21357   0.788  10.774   6.855  0.3803  0.1001  0.0693
  880MOL0     C21358   0.774  10.748   6.718  0.3960 -0.4774 -0.3873
  880MOL0     C21359   0.656  10.692   6.666  0.5819 -1.3729 -0.3390
  880MOL0     C21360   0.543  10.673   6.741 -0.5032 -0.5400  0.8139
  880MOL0     O21361   0.427  10.638   6.687  0.1080 -0.0379  0.0218
  880MOL0     C21362   0.394  10.661   6.549  0.2479 -0.4832 -0.7701
  880MOL0     C21363   0.244  10.640   6.526  0.0273  0.1161  0.5522
  880MOL0     C21364   0.199  10.513   6.597 -0.7242  0.1283 -0.6573
  880MOL0     C21365   0.062  10.453   6.559  1.3109 -0.8387 -0.0070
  880MOL0     C21366  -0.024  10.549   6.482  0.2021 -0.1900 -0.2215
  880MOL0     C21367  -0.101  10.627   6.435  0.0503  0.1801  0.3480
  880MOL0     C21368   0.559  10.700   6.880 -0.0557  0.2347 -0.5324
  880MOL0     C21369   0.677  10.744   6.935 -0.5918  0.3197  0.0850
  880MOL0     C21370   0.671  10.747   7.088 -0.0852  0.3440  0.1713
  880MOL0     H21371   1.192  10.859   6.648  0.4574  0.4338  0.5293
  880MOL0     H21372   1.435  10.921   6.656  2.0788 -0.0509  1.1249
  880MOL0     H21373   1.616  10.933   7.052  0.1761 -2.8929 -1.7676
  880MOL0     H21374   1.584  11.103   7.021  1.6832  1.8034 -0.6129
  880MOL0     H21375   1.777  11.108   6.862 -0.4906 -0.9933 -0.2721
  880MOL0     H21376   1.822  11.093   7.028 -0.1933 -0.0713  0.3185
  880MOL0     H21377   1.848  10.842   7.002 -0.1488 -1.1162 -0.7455
  880MOL0     H21378   1.835  10.877   6.829 -0.5837 -1.2421  1.2555
  880MOL0     H21379   2.022  11.036   6.833 -2.6946  0.7706  0.5445
  880MOL0     H21380   2.066  10.997   6.996  1.6189 -2.9133  0.3802
  880MOL0     H21381   2.027  10.814   6.774 -0.7495 -1.0658  0.4948
  880MOL0     H21382   2.079  10.754   6.928 -2.3544  1.1694  0.2537
  880MOL0     H21383   2.283  10.797   6.771  0.2493  2.1492 -2.5222
  880MOL0     H21384   2.250  10.970   6.791  1.7100  0.3593  0.0528
  880MOL0     H21385   2.330  10.764   7.002 -0.2201 -0.1376 -0.5077
  880MOL0     H21386   2.232  10.905   7.048 -1.6327  1.1357 -2.0338
  880MOL0     H21387   2.408  11.051   6.959  0.3302  1.4596  1.5670
  880MOL0     H21388   2.463  10.957   7.103 -0.0050 -1.2959  0.0074
  880MOL0     H21389   2.535  10.963   6.712  1.3835  3.6496  1.3478
  880MOL0     H21390   2.825  10.951   6.618 -0.5277  0.4481  1.2833
  880MOL0     H21391   2.743  10.798   6.575  0.6941 -0.6559 -0.1088
  880MOL0     H21392   2.997  10.836   6.748  1.4870  0.7532 -1.9531
  880MOL0     H21393   2.921  10.680   6.708  0.4821 -1.2683 -0.5661
  880MOL0     H21394   3.105  10.692   6.565 -0.1680 -0.9294 -2.5367
  880MOL0     H21395   2.959  10.724   6.459  2.0936  0.6556 -1.5987
  880MOL0     H21396   2.990  10.940   6.447 -1.5062 -0.6000  1.6518
  880MOL0     H21397   3.120  10.940   6.578 -0.6787  0.7762  0.4687
  880MOL0     H21398   3.320  10.871   6.610  0.0695  0.6185  0.9946
  880MOL0     H21399   3.600  10.653   6.696 -0.8475 -0.0031 -0.3245
  880MOL0     H21400   3.486  10.785   6.753 -1.1322  2.3237 -2.2964
  880MOL0     H21401   3.641  10.824   6.679  1.3540 -1.0558  2.6014
  880MOL0     H21402   3.842  10.619   6.741 -0.5916  0.4403 -1.4953
  880MOL0     H21403   4.072  10.543   6.817 -1.5378  0.7284  0.8048
  880MOL0     H21404   4.277  10.539   6.844 -1.5611  1.0668 -1.4451
  880MOL0     H21405   4.236  10.367   6.823 -0.5654  0.3624  0.1304
  880MOL0     H21406   4.448  10.312   6.739  3.5396 -0.8120  0.5317
  880MOL0     H21407   4.514  10.473   6.772 -0.7406 -0.1412 -0.0300
  880MOL0     H21408   4.402  10.282   6.978 -1.7559  1.8578  0.9173
  880MOL0     H21409   4.465  10.455   7.006  5.1129  0.7901 -0.4611
  880MOL0     H21410   4.650  10.331   7.050 -0.2573 -0.9127 -0.4750
  880MOL0     H21411   4.668  10.403   6.890 -0.4225 -0.4756 -0.1868
  880MOL0     H21412   4.601  10.123   6.962 -1.1156  3.8602  1.8972
  880MOL0     H21413   4.629  10.170   6.790  3.8788 -2.6189 -0.7957
  880MOL0     H21414   4.857  10.269   6.885 -1.0833  0.9002 -1.7612
  880MOL0     H21415   4.837  10.111   6.813 -0.8944  1.5603 -1.9419
  880MOL0     H21416   4.837  10.171   7.113  2.2015  0.5579 -0.5300
  880MOL0     H21417   4.977  10.094   7.030  0.2627  2.1337  0.5348
  880MOL0     H21418   4.743   9.939   6.960 -0.6222  0.2331  0.0508
  880MOL0     H21419   4.771   9.948   7.143  2.4611 -2.4018  0.9356
  880MOL0     H21420   4.184  10.521   6.400  1.3122  0.8995  0.3511
  880MOL0     H21421   3.960  10.596   6.332  1.1776  0.9743 -0.3450
  880MOL0     H21422   3.506  10.629   6.218  1.1617  0.9341 -0.3196
  880MOL0     H21423   3.313  10.778   6.207 -2.4373  0.5237  0.2483
  880MOL0     H21424   1.386  10.983   7.073 -1.3609  1.0876  0.4624
  880MOL0     H21425   1.143  10.944   7.056 -1.7404 -0.7372 -0.9584
  880MOL0     H21426   0.857  10.766   6.650  0.0202  0.4034 -0.6270
  880MOL0     H21427   0.649  10.669   6.560  1.0567 -0.0461 -0.6813
  880MOL0     H21428   0.420  10.762   6.515 -2.5887  0.9480  0.9332
  880MOL0     H21429   0.445  10.589   6.485 -1.4098 -1.7024 -0.7838
  880MOL0     H21430   0.234  10.646   6.417  0.4945 -2.4175  0.2928
  880MOL0     H21431   0.213  10.733   6.574 -0.4388 -0.2248  0.9170
  880MOL0     H21432   0.277  10.437   6.582 -0.6349  0.1863 -0.4854
  880MOL0     H21433   0.209  10.526   6.705 -0.1976 -3.7897 -0.0836
  880MOL0     H21434   0.007  10.426   6.650 -1.8056  1.6256 -1.0004
  880MOL0     H21435   0.076  10.364   6.497  3.0273 -0.5677 -0.0646
  880MOL0     H21436  -0.182  10.687   6.400  0.5689  0.9293  0.3893
  880MOL0     H21437   0.469  10.705   6.941  0.3808  0.9458  0.0760
  880MOL0     H21438   0.699  10.842   7.134  0.1968  0.5277 -0.3730
  880MOL0     H21439   0.574  10.719   7.131 -0.1914  1.8373  0.9789
  880MOL0     H21440   0.727  10.660   7.124 -0.6208 -0.5052 -0.9955
  881MOL0     O21441   0.396   3.001   5.513  0.2966 -0.2681  0.1732
  881MOL0     C21442   0.293   2.957   5.560  0.8610  0.3387 -0.3827
  881MOL0     O21443   0.248   2.821   5.551  0.1092 -0.6453 -0.1187
  881MOL0     C21444   0.310   2.739   5.462  0.0347  0.4940 -0.6860
  881MOL0     C21445   0.391   2.630   5.497  0.2999  0.2024 -0.4687
  881MOL0     C21446   0.452   2.548   5.405 -0.0947 -0.3857 -0.0983
  881MOL0     C21447   0.424   2.561   5.269 -0.0094  0.1029 -0.3990
  881MOL0     O21448   0.474   2.465   5.190  0.1750  0.5829  0.2332
  881MOL0     C21449   0.411   2.444   5.062  0.6731 -0.2503  0.1467
  881MOL0     C21450   0.463   2.517   4.942 -0.4770  0.1728  0.1037
  881MOL0     C21451   0.614   2.476   4.915 -0.1267 -0.2464  0.4106
  881MOL0     C21452   0.643   2.328   4.874 -0.1024 -0.7630  0.1858
  881MOL0     C21453   0.776   2.322   4.791 -0.2021 -0.2859  0.2549
  881MOL0     C21454   0.909   2.319   4.875 -0.0382  0.9683 -0.0760
  881MOL0     C21455   1.034   2.318   4.782  0.3467 -0.5235 -0.0099
  881MOL0     C21456   1.056   2.208   4.674  0.1401  0.1575  0.2412
  881MOL0     N21457   1.189   2.224   4.607 -0.7516  0.1671  0.2156
  881MOL0     C21458   1.222   2.327   4.527 -0.1322 -0.4778 -0.6320
  881MOL0     C21459   1.356   2.305   4.500  0.8294  0.1987 -0.2872
  881MOL0     C21460   1.430   2.376   4.394  0.2730  0.3462 -0.2267
  881MOL0     C21461   1.542   2.456   4.454 -0.5304 -0.3825 -0.1620
  881MOL0     C21462   1.658   2.463   4.357  0.6815 -0.8044 -0.2783
  881MOL0     C21463   1.776   2.543   4.411  0.0020  0.1845  0.0045
  881MOL0     O21464   1.835   2.478   4.525  0.3541 -0.0872 -0.5890
  881MOL0     C21465   1.942   2.543   4.584 -0.3561 -0.3965  0.1492
  881MOL0     C21466   2.015   2.657   4.544  1.1603  0.2483  0.4991
  881MOL0     C21467   2.137   2.699   4.598  0.4454 -0.5252 -0.2430
  881MOL0     C21468   2.205   2.819   4.530 -0.1465  0.8363 -0.4849
  881MOL0     C21469   2.196   2.621   4.698  0.4072  0.8658  0.7653
  881MOL0     C21470   2.335   2.641   4.750  0.0970 -0.0419 -0.5997
  881MOL0     O21471   2.386   2.533   4.805  0.1966 -0.1038 -0.6681
  881MOL0     C21472   2.520   2.513   4.788 -0.2168 -0.5201  0.3800
  881MOL0     C21473   2.566   2.413   4.696  0.6700  0.1371 -0.3910
  881MOL0     C21474   2.704   2.393   4.686 -0.0551 -0.6938  0.1610
  881MOL0     C21475   2.800   2.462   4.759  0.4184 -0.7956  0.6110
  881MOL0     O21476   2.928   2.455   4.722 -0.1551 -0.1164  0.0680
  881MOL0     C21477   3.014   2.425   4.831 -0.0169 -0.1060 -0.2406
  881MOL0     C21478   3.158   2.422   4.778  0.5030  0.4041 -0.1634
  881MOL0     C21479   3.264   2.392   4.891  0.4176 -0.7134 -0.4576
  881MOL0     C21480   3.304   2.518   4.967 -0.0742  0.6595 -0.1301
  881MOL0     C21481   3.401   2.484   5.085 -0.0841 -0.6348  0.3165
  881MOL0     C21482   3.438   2.625   5.133 -0.2165  0.3989 -0.1703
  881MOL0     C21483   3.540   2.622   5.245  0.4231 -0.1438 -0.6672
  881MOL0     C21484   3.584   2.766   5.269  0.5331  0.6754 -0.3672
  881MOL0    Cl21485   3.748   2.753   5.342 -0.3913  0.1300 -0.3469
  881MOL0     C21486   2.754   2.571   4.841  0.0822  0.2761 -0.1921
  881MOL0     C21487   2.618   2.581   4.864 -0.7810 -0.3398  0.1678
  881MOL0     O21488   2.392   2.750   4.742  0.4733  0.2613  0.7458
  881MOL0     C21489   2.127   2.515   4.747 -1.0806 -0.1536  0.4798
  881MOL0     C21490   1.993   2.484   4.702  0.0834  0.2334  0.8078
  881MOL0     N21491   1.398   2.204   4.586 -0.1450 -0.0366  0.4011
  881MOL0     N21492   1.294   2.156   4.653 -0.3907 -0.0076 -0.4345
  881MOL0     C21493   0.348   2.675   5.228 -0.3572 -0.0856 -0.1382
  881MOL0     C21494   0.299   2.762   5.326 -0.7655 -0.6380 -0.0236
  881MOL0     C21495   0.205   3.061   5.625 -0.8707  1.2275 -0.2104
  881MOL0     C21496   0.084   3.013   5.688  0.7626  0.8964  0.8518
  881MOL0     C21497   0.001   3.099   5.762 -0.6429  0.6309 -1.0677
  881MOL0     C21498   0.038   3.241   5.776  0.3856  0.2436  0.6796
  881MOL0     O21499  -0.035   3.331   5.854 -0.5080  0.0161  0.2271
  881MOL0     C21500  -0.160   3.298   5.917 -0.6916  0.1035 -0.2928
  881MOL0     C21501  -0.137   3.241   6.060 -1.1138 -0.5749 -0.0612
  881MOL0     C21502  -0.260   3.193   6.128 -0.3461 -0.1668 -0.1190
  881MOL0     C21503  -0.238   3.130   6.271  1.0341  0.2601  0.7455
  881MOL0     C21504  -0.192   2.992   6.259  0.5731 -0.2251  0.1346
  881MOL0     C21505  -0.142   2.885   6.238  0.2010 -0.2389 -0.3227
  881MOL0     C21506   0.155   3.292   5.718 -0.1788 -0.4795  0.5223
  881MOL0     C21507   0.242   3.198   5.645 -0.1795  0.3372 -0.8726
  881MOL0     C21508   0.372   3.259   5.596 -0.1843  0.0686 -0.1389
  881MOL0     H21509   0.398   2.612   5.603  2.4994 -1.4258 -0.8260
  881MOL0     H21510   0.517   2.468   5.438  0.6128  0.3677  0.3679
  881MOL0     H21511   0.305   2.469   5.074  1.5949  3.0788  3.0101
  881MOL0     H21512   0.412   2.337   5.041 -0.4787 -0.6539  1.9300
  881MOL0     H21513   0.411   2.490   4.850  1.4581 -0.6810 -0.8160
  881MOL0     H21514   0.451   2.625   4.953 -2.7195  0.3327 -2.6857
  881MOL0     H21515   0.654   2.544   4.839  0.2483 -0.8526  0.0548
  881MOL0     H21516   0.671   2.499   5.005  1.1472  1.4801 -0.7789
  881MOL0     H21517   0.661   2.274   4.968  1.9616  2.1017  1.6165
  881MOL0     H21518   0.557   2.292   4.817  0.8533 -0.6096 -1.4164
  881MOL0     H21519   0.781   2.406   4.721 -1.0780  0.7646  1.4220
  881MOL0     H21520   0.772   2.234   4.725  2.2332  0.2508 -0.7202
  881MOL0     H21521   0.914   2.404   4.945 -0.1933 -0.2741  1.4930
  881MOL0     H21522   0.915   2.240   4.950  0.3663  1.8837  0.8923
  881MOL0     H21523   1.122   2.309   4.847 -0.1908  0.2739  0.8451
  881MOL0     H21524   1.035   2.416   4.732 -4.2217 -1.5722 -2.7233
  881MOL0     H21525   1.043   2.114   4.727 -1.0084  0.3859  0.4012
  881MOL0     H21526   0.978   2.221   4.598 -1.3075 -3.2293  0.9782
  881MOL0     H21527   1.148   2.400   4.496  0.8930  1.3492  0.9739
  881MOL0     H21528   1.362   2.449   4.350 -1.1969 -1.2099 -0.6514
  881MOL0     H21529   1.468   2.299   4.326  2.9341  0.5886  0.8665
  881MOL0     H21530   1.514   2.555   4.492  1.0166 -0.5077  1.4322
  881MOL0     H21531   1.569   2.413   4.551  1.4052  2.8876  0.8922
  881MOL0     H21532   1.696   2.362   4.345 -2.8325 -2.4702  1.2691
  881MOL0     H21533   1.633   2.499   4.256 -1.2499 -0.2356  0.3452
  881MOL0     H21534   1.852   2.555   4.333  1.0054 -1.9341  0.5786
  881MOL0     H21535   1.740   2.644   4.431  1.4703  0.6841  0.2486
  881MOL0     H21536   1.967   2.711   4.463 -0.2473 -0.7143  0.6687
  881MOL0     H21537   2.139   2.875   4.463 -0.7429  1.1788  0.3817
  881MOL0     H21538   2.299   2.793   4.480 -0.4729 -0.9478 -0.2242
  881MOL0     H21539   2.234   2.885   4.612  0.7283  0.6422 -0.6259
  881MOL0     H21540   2.505   2.365   4.620 -0.0416  0.5857 -0.1065
  881MOL0     H21541   2.740   2.322   4.612 -0.5081 -1.7279  0.9147
  881MOL0     H21542   3.003   2.491   4.917 -1.8945 -1.2180  0.4214
  881MOL0     H21543   2.986   2.324   4.862 -2.6401  0.6024 -0.1343
  881MOL0     H21544   3.169   2.352   4.694  0.2092 -0.5387  0.5577
  881MOL0     H21545   3.169   2.520   4.731 -0.8160  1.2121  1.1584
  881MOL0     H21546   3.359   2.352   4.856  1.4071 -0.8385  2.1325
  881MOL0     H21547   3.230   2.326   4.972  2.6401  1.2278  2.2062
  881MOL0     H21548   3.214   2.570   5.001  1.0365  2.0824  0.6988
  881MOL0     H21549   3.358   2.586   4.901  0.2799  1.9618  1.4424
  881MOL0     H21550   3.348   2.421   5.158 -0.8137  3.6518  3.8904
  881MOL0     H21551   3.487   2.436   5.038  0.0875 -0.3306  0.3170
  881MOL0     H21552   3.351   2.676   5.175 -0.8615 -0.2498 -0.6943
  881MOL0     H21553   3.473   2.669   5.039  1.0650 -2.9897 -1.4344
  881MOL0     H21554   3.622   2.554   5.225  0.9432  0.2930 -0.0444
  881MOL0     H21555   3.500   2.585   5.340 -0.2709 -1.9464 -1.6159
  881MOL0     H21556   3.514   2.823   5.331  1.0396  2.6062 -1.4866
  881MOL0     H21557   3.593   2.822   5.175  1.9909 -0.6050 -1.0463
  881MOL0     H21558   2.816   2.642   4.895 -2.0435  0.7988  1.7534
  881MOL0     H21559   2.589   2.647   4.944  3.7454  0.1659  1.6649
  881MOL0     H21560   2.151   2.448   4.830 -0.5622 -2.4310 -1.3957
  881MOL0     H21561   1.953   2.392   4.745  0.9416 -1.3647 -1.5723
  881MOL0     H21562   0.341   2.703   5.123  1.6552 -0.1188 -0.3356
  881MOL0     H21563   0.244   2.845   5.282  0.0062 -0.2990 -0.3688
  881MOL0     H21564   0.053   2.910   5.675  2.6982  0.5860 -2.4510
  881MOL0     H21565  -0.089   3.059   5.806 -0.6477  1.0156 -0.7206
  881MOL0     H21566  -0.209   3.392   5.940 -0.1866 -0.2551  2.7479
  881MOL0     H21567  -0.223   3.235   5.854 -0.0488 -2.9044  1.8408
  881MOL0     H21568  -0.098   3.321   6.122  0.8522 -2.4049  1.2115
  881MOL0     H21569  -0.065   3.159   6.065 -1.5073 -0.9070  0.2880
  881MOL0     H21570  -0.326   3.278   6.150  1.8505  1.2570  1.2623
  881MOL0     H21571  -0.321   3.128   6.064 -0.4053  0.1118 -0.3528
  881MOL0     H21572  -0.332   3.140   6.326  0.6965  0.5101  0.1246
  881MOL0     H21573  -0.161   3.198   6.310 -1.1479  2.8753  0.7376
  881MOL0     H21574  -0.122   2.789   6.195 -1.7177 -0.8402 -0.0070
  881MOL0     H21575   0.186   3.396   5.712  3.0874 -1.4477 -3.2642
  881MOL0     H21576   0.458   3.215   5.647 -0.8410  0.3626  1.2664
  881MOL0     H21577   0.371   3.240   5.488 -0.4155 -1.4701  0.1073
  881MOL0     H21578   0.377   3.368   5.601 -2.6146  0.2175  0.3957
  882MOL0     O21579   6.610   0.923  10.475 -0.6747 -0.3546 -0.8398
  882MOL0     C21580   6.673   0.905  10.376 -0.4280  0.2921 -0.0815
  882MOL0     O21581   6.637   0.959  10.257 -0.3970  0.5493 -0.1611
  882MOL0     C21582   6.501   0.993  10.239  0.6215  0.0760 -0.0175
  882MOL0     C21583   6.465   1.124  10.274 -0.2582 -0.1013 -0.0391
  882MOL0     C21584   6.337   1.162  10.253 -0.1462  0.2315 -0.2345
  882MOL0     C21585   6.235   1.077  10.209  0.7688  0.2908  0.2459
  882MOL0     O21586   6.102   1.101  10.177 -0.4517 -0.0853 -0.1944
  882MOL0     C21587   6.064   1.235  10.156 -0.6725 -0.2090 -0.0673
  882MOL0     C21588   5.917   1.231  10.091 -0.4547  0.5703 -0.5721
  882MOL0     C21589   5.861   1.366  10.094  0.8222 -0.0031 -0.3977
  882MOL0     C21590   5.718   1.370  10.046 -0.0720 -0.4852  0.0768
  882MOL0     C21591   5.663   1.516  10.067 -0.0889 -0.0773  0.3283
  882MOL0     C21592   5.525   1.543  10.008  0.3533  0.3622 -0.2324
  882MOL0     C21593   5.492   1.693  10.024  0.8049 -0.2612 -0.1653
  882MOL0     C21594   5.354   1.714   9.956 -0.4513 -0.0960  0.1976
  882MOL0     N21595   5.302   1.850   9.982  0.0107 -0.0188 -0.0538
  882MOL0     C21596   5.371   1.962   9.968 -0.5152 -0.9572  0.1043
  882MOL0     C21597   5.285   2.053  10.008  0.2465 -0.7814  0.6401
  882MOL0     C21598   5.314   2.197  10.043 -0.1472  0.1712 -0.8534
  882MOL0     C21599   5.353   2.196  10.193 -0.3918  0.0171  0.8120
  882MOL0     C21600   5.500   2.182  10.241 -0.0369 -0.2726  0.7062
  882MOL0     C21601   5.553   2.036  10.226 -0.0307 -0.3078  0.1127
  882MOL0     O21602   5.652   2.023  10.120  0.0872  0.4583  0.0706
  882MOL0     C21603   5.770   1.953  10.148 -0.1751 -0.6346 -0.7850
  882MOL0     C21604   5.776   1.838  10.239  0.1927  0.2719  0.0498
  882MOL0     C21605   5.896   1.773  10.257 -0.5210 -0.6397  0.2766
  882MOL0     C21606   5.888   1.658  10.358 -0.3714  0.0992  0.0748
  882MOL0     C21607   6.013   1.820  10.189 -0.5957 -0.1554 -0.5408
  882MOL0     C21608   6.144   1.770  10.224 -0.4242 -0.0356 -0.4129
  882MOL0     O21609   6.155   1.641  10.267 -0.6617  0.8278 -0.2796
  882MOL0     C21610   6.282   1.602  10.304  0.0217 -0.0668 -0.5291
  882MOL0     C21611   6.367   1.553  10.199  0.3146 -0.8719 -0.1738
  882MOL0     C21612   6.488   1.494  10.224 -0.9636 -0.5667 -0.5479
  882MOL0     C21613   6.535   1.494  10.363 -0.4982 -0.9463  0.5957
  882MOL0     O21614   6.662   1.457  10.380  0.0792 -0.5139  0.3243
  882MOL0     C21615   6.721   1.482  10.510 -0.3048  0.4029 -0.5460
  882MOL0     C21616   6.862   1.431  10.521 -0.1153  0.8942 -0.8731
  882MOL0     C21617   6.924   1.489  10.648 -0.2026 -0.1022 -0.1564
  882MOL0     C21618   6.862   1.452  10.784 -0.5986 -0.7900 -0.1142
  882MOL0     C21619   6.797   1.571  10.860 -0.2522  0.1595 -0.1396
  882MOL0     C21620   6.752   1.543  11.006 -0.8532  0.3995  1.3726
  882MOL0     C21621   6.882   1.493  11.085 -0.6675  0.1277 -0.0395
  882MOL0     C21622   6.859   1.490  11.239 -0.2915 -0.0189  0.3757
  882MOL0    Cl21623   6.999   1.398  11.302 -0.1568  0.0656  0.3336
  882MOL0     C21624   6.446   1.544  10.468 -0.5803 -0.5583 -0.2232
  882MOL0     C21625   6.323   1.601  10.437 -0.0323  1.0774  0.1153
  882MOL0     O21626   6.232   1.856  10.216  1.1477  0.3763  0.1231
  882MOL0     C21627   6.002   1.930  10.100 -0.2101 -0.3130 -0.6841
  882MOL0     C21628   5.883   1.999  10.086 -0.6310 -0.3969  0.1603
  882MOL0     N21629   5.166   1.998  10.039  0.2849  0.6017 -0.5650
  882MOL0     N21630   5.167   1.874  10.013  0.4833  0.4648  0.4917
  882MOL0     C21631   6.279   0.941  10.185  0.0618  0.0766  0.5590
  882MOL0     C21632   6.410   0.895  10.199 -0.2038  0.6943 -0.1689
  882MOL0     C21633   6.793   0.817  10.375  0.3556  0.2877  0.3906
  882MOL0     C21634   6.868   0.805  10.256 -0.3136 -0.2948  0.3051
  882MOL0     C21635   6.973   0.712  10.248  0.0669 -1.1368  0.8369
  882MOL0     C21636   7.010   0.629  10.356 -0.9801 -0.0784 -0.0205
  882MOL0     O21637   7.120   0.553  10.339 -0.3994  0.0361 -0.3745
  882MOL0     C21638   7.177   0.475  10.445 -0.4348 -0.2783 -0.5548
  882MOL0     C21639   7.294   0.396  10.389 -0.2648  0.1458  0.3715
  882MOL0     C21640   7.433   0.459  10.408 -0.1973 -0.4174 -0.6462
  882MOL0     C21641   7.494   0.394  10.539  0.0201  0.7133 -0.5230
  882MOL0     C21642   7.628   0.451  10.565  0.4873 -0.2005 -0.3867
  882MOL0     C21643   7.745   0.494  10.575 -0.0907  0.7279  0.4374
  882MOL0     C21644   6.946   0.646  10.473  1.2191 -0.5877  0.4329
  882MOL0     C21645   6.842   0.743  10.483  0.0734 -0.0185  0.7993
  882MOL0     C21646   6.785   0.754  10.621  0.4888  0.6110 -0.0660
  882MOL0     H21647   6.538   1.191  10.319 -0.9738 -0.3479  1.5136
  882MOL0     H21648   6.320   1.267  10.274 -2.4443 -0.2415  0.5776
  882MOL0     H21649   6.129   1.277  10.078 -2.9897  1.8958 -1.0128
  882MOL0     H21650   6.068   1.301  10.243 -3.7194  1.0527 -0.7342
  882MOL0     H21651   5.918   1.190   9.990  0.8490 -1.5976  0.2464
  882MOL0     H21652   5.851   1.163  10.146 -1.6311  1.4623 -0.8642
  882MOL0     H21653   5.864   1.401  10.198 -0.5398  2.2312 -1.0435
  882MOL0     H21654   5.929   1.433  10.041  0.7568 -0.7820 -1.4981
  882MOL0     H21655   5.719   1.318   9.949 -0.9713 -0.0076 -0.1976
  882MOL0     H21656   5.655   1.311  10.113  1.6165  0.2871  2.4734
  882MOL0     H21657   5.740   1.581  10.024  0.3088  3.2388  5.2067
  882MOL0     H21658   5.658   1.539  10.174 -2.8007 -0.5598  0.3641
  882MOL0     H21659   5.522   1.518   9.901 -0.1185 -1.6386  0.2091
  882MOL0     H21660   5.462   1.476  10.067 -0.8238  2.4840  1.0611
  882MOL0     H21661   5.567   1.752   9.970  4.2771 -5.4303 -1.6681
  882MOL0     H21662   5.491   1.722  10.130 -1.1456  0.3025 -0.2973
  882MOL0     H21663   5.367   1.708   9.847  0.1791 -1.3948  0.3311
  882MOL0     H21664   5.278   1.640   9.982  0.9802 -2.0891 -1.0013
  882MOL0     H21665   5.476   1.987   9.954 -1.0143  0.5494 -1.4008
  882MOL0     H21666   5.230   2.261  10.015  0.2783  0.4915 -1.4084
  882MOL0     H21667   5.401   2.235   9.990  1.3444  1.9449  2.5336
  882MOL0     H21668   5.321   2.293  10.235  0.2703 -0.1200  1.6678
  882MOL0     H21669   5.288   2.120  10.237 -1.3613 -1.6290 -3.0454
  882MOL0     H21670   5.572   2.251  10.194  0.4360 -1.7636 -0.8778
  882MOL0     H21671   5.498   2.195  10.349 -1.7896  0.7263  0.5871
  882MOL0     H21672   5.596   2.005  10.322  0.5066 -0.8647 -0.3019
  882MOL0     H21673   5.462   1.979  10.203  0.9349 -2.1398  0.6229
  882MOL0     H21674   5.682   1.801  10.279 -1.4735  1.6593 -2.3073
  882MOL0     H21675   5.783   1.642  10.386  0.1292 -0.5301  1.6330
  882MOL0     H21676   5.942   1.678  10.450 -3.3678  1.5614  1.6703
  882MOL0     H21677   5.917   1.568  10.304 -0.8831 -0.3464  0.5256
  882MOL0     H21678   6.340   1.563  10.095  2.2683  0.3382 -0.6034
  882MOL0     H21679   6.558   1.469  10.145  0.8514 -1.4111  1.2470
  882MOL0     H21680   6.722   1.589  10.533  0.4332  0.5289 -1.1246
  882MOL0     H21681   6.659   1.430  10.583  0.4191 -1.1769 -1.0203
  882MOL0     H21682   6.867   1.322  10.522  4.5127  0.8096  2.7655
  882MOL0     H21683   6.918   1.453  10.429 -1.7258 -0.3535 -2.1988
  882MOL0     H21684   6.934   1.596  10.630 -2.8934  0.4183  0.9028
  882MOL0     H21685   7.026   1.451  10.640  1.1802  2.0124  4.1941
  882MOL0     H21686   6.950   1.412  10.835  2.1797  2.7653 -1.6416
  882MOL0     H21687   6.784   1.377  10.770 -1.3821  0.1054 -0.6552
  882MOL0     H21688   6.876   1.646  10.858  1.4229 -1.4774  0.9507
  882MOL0     H21689   6.717   1.620  10.804  1.4538  2.2094 -0.9332
  882MOL0     H21690   6.685   1.457  10.998  0.9160 -0.8639 -1.0474
  882MOL0     H21691   6.716   1.637  11.050  2.4441  1.9672  1.0130
  882MOL0     H21692   6.970   1.557  11.072 -2.4827  2.5934 -0.9857
  882MOL0     H21693   6.907   1.388  11.070 -0.3544 -0.0091  1.3512
  882MOL0     H21694   6.768   1.432  11.261 -0.9888 -1.0263 -4.1281
  882MOL0     H21695   6.857   1.595  11.270 -1.8508  0.8512 -2.2837
  882MOL0     H21696   6.471   1.521  10.571  2.6704  1.1907 -0.4787
  882MOL0     H21697   6.250   1.628  10.513 -1.4805  0.1474 -0.8806
  882MOL0     H21698   6.084   1.978  10.047 -0.9612  0.5149 -1.1386
  882MOL0     H21699   5.880   2.088  10.024 -1.7377  1.8457  3.1828
  882MOL0     H21700   6.199   0.877  10.147  2.0383  0.7858 -6.0219
  882MOL0     H21701   6.444   0.793  10.186 -1.2816  0.2452  0.4514
  882MOL0     H21702   6.843   0.858  10.165 -1.7346  0.1936  0.9550
  882MOL0     H21703   7.039   0.706  10.162  0.9759 -0.0693  1.4254
  882MOL0     H21704   7.218   0.529  10.530  1.8901 -2.6446 -0.0369
  882MOL0     H21705   7.105   0.408  10.495 -0.2112 -0.7568 -0.8656
  882MOL0     H21706   7.282   0.366  10.284  2.8411 -1.0442  0.2562
  882MOL0     H21707   7.292   0.295  10.431  1.5871  0.4637  1.3348
  882MOL0     H21708   7.497   0.441  10.321  2.3099  2.3362  0.4552
  882MOL0     H21709   7.425   0.568  10.407 -2.0072 -0.5046 -2.1557
  882MOL0     H21710   7.517   0.287  10.534  4.3521  1.3569  1.5561
  882MOL0     H21711   7.430   0.422  10.623  1.3138  0.3135  0.6308
  882MOL0     H21712   7.842   0.539  10.583  0.8415 -0.6742 -1.9830
  882MOL0     H21713   6.961   0.591  10.566 -0.6944  1.0897  1.8263
  882MOL0     H21714   6.834   0.689  10.694 -0.2423  1.1268  0.9066
  882MOL0     H21715   6.786   0.855  10.662 -2.4844  0.3645  0.8170
  882MOL0     H21716   6.679   0.726  10.615  0.5545  0.4937 -0.8245
  883MOL0     O21717  11.140   1.388   6.306  0.6419  0.0928 -0.7053
  883MOL0     C21718  11.133   1.306   6.393  0.2426  0.3713  0.1722
  883MOL0     O21719  11.213   1.189   6.402 -0.1343 -0.0375 -0.2936
  883MOL0     C21720  11.311   1.160   6.314  0.3466 -0.1910 -0.5444
  883MOL0     C21721  11.295   1.173   6.177  0.7130  0.5768  0.0959
  883MOL0     C21722  11.400   1.147   6.093  0.1384  0.2309 -0.2964
  883MOL0     C21723  11.525   1.120   6.141 -0.3678 -0.2157 -0.2013
  883MOL0     O21724  11.641   1.093   6.068  0.3493 -0.3702 -0.0193
  883MOL0     C21725  11.627   1.036   5.937 -0.2118  0.4968 -0.5812
  883MOL0     C21726  11.711   1.115   5.839  0.3716  0.4537  0.3692
  883MOL0     C21727  11.673   1.261   5.839 -0.2637 -0.0988  0.0262
  883MOL0     C21728  11.758   1.358   5.754  0.2968 -0.2948 -0.5883
  883MOL0     C21729  11.711   1.497   5.747  0.0083 -0.3142 -0.0413
  883MOL0     C21730  11.791   1.583   5.653  0.3150 -0.4328 -0.0935
  883MOL0     C21731  11.790   1.524   5.508 -0.2256 -0.1675  0.0579
  883MOL0     C21732  11.828   1.619   5.393 -0.4175 -0.4515  0.0960
  883MOL0     N21733  11.843   1.556   5.257 -0.0535  1.3958  0.4877
  883MOL0     C21734  11.748   1.503   5.175  0.0746  0.1924 -1.0081
  883MOL0     C21735  11.805   1.476   5.055  0.0822  0.1149  0.0067
  883MOL0     C21736  11.748   1.426   4.932 -0.4222  0.1250 -0.1018
  883MOL0     C21737  11.738   1.541   4.826  0.6736 -0.7346 -0.0434
  883MOL0     C21738  11.866   1.604   4.762 -0.6334  0.1865 -0.1525
  883MOL0     C21739  11.935   1.515   4.656 -1.0683 -0.3892  0.1111
  883MOL0     O21740  12.050   1.593   4.606  0.2990 -0.0328  0.1612
  883MOL0     C21741  12.167   1.613   4.677  0.2280  0.4202  0.1227
  883MOL0     C21742  12.274   1.688   4.622  0.2937 -0.0146  0.1635
  883MOL0     C21743  12.393   1.703   4.681 -0.0726  0.2069  0.0608
  883MOL0     C21744  12.498   1.772   4.603 -0.5634  0.0174 -0.1355
  883MOL0     C21745  12.420   1.651   4.812  0.0432 -0.0634  0.4019
  883MOL0     C21746  12.537   1.689   4.895  0.8970 -0.0580  0.3382
  883MOL0     O21747  12.604   1.808   4.863 -0.0850 -0.6714  0.0277
  883MOL0     C21748  12.700   1.859   4.945 -0.0343  0.0198 -0.2719
  883MOL0     C21749  12.722   1.828   5.087  0.3022 -0.3095 -0.4533
  883MOL0     C21750  12.835   1.884   5.155 -1.2437 -0.5720  0.4238
  883MOL0     C21751  12.927   1.963   5.077 -0.3855  0.3531  1.2145
  883MOL0     O21752  13.048   2.006   5.115  0.6225  0.6545  0.0578
  883MOL0     C21753  13.113   1.917   5.215 -0.8897  0.5821 -0.0077
  883MOL0     C21754  13.263   1.942   5.211 -0.3850 -0.2413  0.0657
  883MOL0     C21755  13.344   1.827   5.273 -0.7390  0.2079 -0.7866
  883MOL0     C21756  13.497   1.881   5.291  0.3549  0.0614  0.2179
  883MOL0     C21757  13.591   1.779   5.362 -0.1156  0.0023 -0.4298
  883MOL0     C21758  13.735   1.801   5.339  0.2005 -0.4009 -0.0921
  883MOL0     C21759  13.813   1.687   5.404 -0.5557  0.0135 -0.0465
  883MOL0     C21760  13.965   1.719   5.397 -0.4863 -0.0571  0.6438
  883MOL0    Cl21761  13.987   1.863   5.496  0.0565 -0.0172 -0.0988
  883MOL0     C21762  12.895   1.992   4.947  0.0572 -0.3481  1.0716
  883MOL0     C21763  12.779   1.952   4.882 -0.5802  0.3808  0.5876
  883MOL0     O21764  12.564   1.605   4.977 -0.1480  0.8153  0.2001
  883MOL0     C21765  12.313   1.576   4.870  0.7260  0.6259  0.7678
  883MOL0     C21766  12.192   1.552   4.801  0.3597  0.1650  0.0470
  883MOL0     N21767  11.939   1.506   5.069 -0.3628 -0.5170 -0.3128
  883MOL0     N21768  11.968   1.553   5.192 -0.3355  0.5114  0.6103
  883MOL0     C21769  11.542   1.111   6.282  0.4723  0.0053 -0.4472
  883MOL0     C21770  11.433   1.121   6.368  0.4384  0.4423  0.2069
  883MOL0     C21771  11.035   1.333   6.504 -0.0495  0.1476 -0.9063
  883MOL0     C21772  10.924   1.418   6.481  0.0193 -0.2070 -0.3847
  883MOL0     C21773  10.831   1.454   6.580  0.6728  0.1018  0.3722
  883MOL0     C21774  10.839   1.407   6.708 -1.0388 -0.3119 -0.5049
  883MOL0     O21775  10.759   1.457   6.807  0.4496  0.3883 -0.2925
  883MOL0     C21776  10.624   1.406   6.786 -0.0209  0.0637 -0.8638
  883MOL0     C21777  10.521   1.500   6.852 -0.1082 -0.3879 -0.8204
  883MOL0     C21778  10.509   1.644   6.802  1.2101 -0.5636 -0.1415
  883MOL0     C21779  10.463   1.746   6.916 -0.4760  0.8780  0.4361
  883MOL0     C21780  10.419   1.869   6.857  0.1160 -0.4148  0.3856
  883MOL0     C21781  10.380   1.973   6.805 -0.4104 -0.2880 -0.8317
  883MOL0     C21782  10.942   1.323   6.734  0.2025 -0.1636 -0.3556
  883MOL0     C21783  11.041   1.289   6.643 -0.5608 -0.2646  0.0370
  883MOL0     C21784  11.167   1.223   6.696  0.1699  0.1987  0.2701
  883MOL0     H21785  11.204   1.203   6.127  1.7376 -0.1866 -2.3856
  883MOL0     H21786  11.379   1.160   5.987  1.5813  2.2983 -0.3830
  883MOL0     H21787  11.523   1.031   5.903 -0.2733  1.6678 -0.6071
  883MOL0     H21788  11.665   0.933   5.939 -1.0614  0.1350 -1.7880
  883MOL0     H21789  11.816   1.104   5.866  0.7761 -1.3760 -1.6449
  883MOL0     H21790  11.688   1.075   5.740 -2.0819 -1.0037  1.4347
  883MOL0     H21791  11.571   1.266   5.800 -0.1020 -0.9007 -0.5333
  883MOL0     H21792  11.691   1.304   5.938  3.5988 -2.2937  0.4709
  883MOL0     H21793  11.865   1.350   5.775  0.6949  1.8455 -1.5329
  883MOL0     H21794  11.752   1.318   5.652  0.0108  0.5268 -0.9026
  883MOL0     H21795  11.709   1.545   5.846  0.0046  0.9888 -0.6530
  883MOL0     H21796  11.607   1.500   5.712  0.5679 -1.3747 -1.9029
  883MOL0     H21797  11.747   1.682   5.639  1.9248  0.1074 -1.7059
  883MOL0     H21798  11.896   1.596   5.681  0.1933  1.8744 -0.5388
  883MOL0     H21799  11.688   1.487   5.493  0.2289 -1.0498 -0.9589
  883MOL0     H21800  11.867   1.447   5.498 -1.4605 -1.2778 -1.5325
  883MOL0     H21801  11.749   1.693   5.378  0.4945  0.0964 -2.5232
  883MOL0     H21802  11.918   1.677   5.414 -0.7060  0.0918 -0.1685
  883MOL0     H21803  11.643   1.504   5.202  0.1839  2.4852 -0.4720
  883MOL0     H21804  11.649   1.380   4.939 -0.1921 -0.4686 -0.6708
  883MOL0     H21805  11.816   1.351   4.891 -1.0658 -0.0290 -0.9130
  883MOL0     H21806  11.674   1.495   4.750 -0.9644  1.8191 -0.3342
  883MOL0     H21807  11.673   1.622   4.861  0.7728 -0.5221 -0.3475
  883MOL0     H21808  11.834   1.701   4.721  1.2988  0.1200 -2.0552
  883MOL0     H21809  11.940   1.620   4.841 -0.3606 -2.0938  0.0995
  883MOL0     H21810  11.969   1.416   4.687  1.2700  0.6445  1.1135
  883MOL0     H21811  11.869   1.500   4.569  0.3204  0.3090 -1.1157
  883MOL0     H21812  12.257   1.727   4.522  0.4434  2.6034  1.0620
  883MOL0     H21813  12.594   1.722   4.623  0.6547  1.5568 -1.8174
  883MOL0     H21814  12.514   1.876   4.632 -0.1534 -0.5301  1.7544
  883MOL0     H21815  12.482   1.772   4.495 -2.3934  0.9163  0.1004
  883MOL0     H21816  12.662   1.752   5.136  1.3243 -0.2695  0.9220
  883MOL0     H21817  12.849   1.868   5.262  2.3368  0.1861  0.1899
  883MOL0     H21818  13.079   1.949   5.313 -0.4557  2.6786 -0.4852
  883MOL0     H21819  13.092   1.813   5.192 -0.9586  0.8740 -1.3759
  883MOL0     H21820  13.291   1.939   5.106  0.0653 -0.7390  0.1940
  883MOL0     H21821  13.284   2.037   5.260 -5.2889  0.0352  2.2746
  883MOL0     H21822  13.349   1.731   5.221 -1.4891 -0.5599  0.5251
  883MOL0     H21823  13.319   1.806   5.377 -1.0210  0.6943 -0.7537
  883MOL0     H21824  13.486   1.973   5.349 -1.0126 -0.0186  0.1170
  883MOL0     H21825  13.537   1.902   5.191 -3.1356  0.3438 -1.2744
  883MOL0     H21826  13.562   1.785   5.467 -1.0648  0.4132 -0.7012
  883MOL0     H21827  13.555   1.678   5.339  2.6121 -1.3917  0.9375
  883MOL0     H21828  13.757   1.902   5.374  0.2719 -1.4304  3.1512
  883MOL0     H21829  13.764   1.807   5.234 -0.5446  1.2676 -0.2361
  883MOL0     H21830  13.789   1.598   5.345 -0.0437  0.2362 -0.5986
  883MOL0     H21831  13.777   1.667   5.506 -0.0984 -0.7994 -0.0316
  883MOL0     H21832  13.994   1.744   5.295  1.7837  0.0935  1.2808
  883MOL0     H21833  14.024   1.632   5.425 -1.0793 -0.7243 -0.1213
  883MOL0     H21834  12.973   2.041   4.890  0.5643 -1.7623  0.5238
  883MOL0     H21835  12.753   1.982   4.781 -2.9866 -4.2221 -0.4238
  883MOL0     H21836  12.328   1.526   4.965 -0.5118 -3.4904 -0.9487
  883MOL0     H21837  12.118   1.484   4.843 -1.0029  1.3819 -0.2647
  883MOL0     H21838  11.640   1.090   6.324 -0.0688  1.0446  1.5052
  883MOL0     H21839  11.444   1.119   6.476 -0.4408  1.5870  0.3436
  883MOL0     H21840  10.905   1.452   6.380  3.0405 -1.1552 -1.4089
  883MOL0     H21841  10.752   1.524   6.557 -1.1046 -2.2998 -1.3591
  883MOL0     H21842  10.596   1.387   6.682 -1.1876  0.6614 -0.6770
  883MOL0     H21843  10.625   1.309   6.837  4.6110  0.1651 -0.3264
  883MOL0     H21844  10.553   1.500   6.957  0.7108 -1.4395 -1.0545
  883MOL0     H21845  10.423   1.452   6.852  0.6587 -2.0387  0.1288
  883MOL0     H21846  10.606   1.658   6.754  1.0416 -2.2980 -1.0482
  883MOL0     H21847  10.448   1.659   6.712  0.0735 -2.3646  0.2726
  883MOL0     H21848  10.552   1.762   6.977  2.4697 -0.6405 -3.0759
  883MOL0     H21849  10.388   1.691   6.973 -0.6238  1.7277  1.0745
  883MOL0     H21850  10.375   2.072   6.762  1.6570  1.3150  2.2430
  883MOL0     H21851  10.944   1.278   6.833 -2.6216 -0.1775 -0.2345
  883MOL0     H21852  11.198   1.137   6.636 -1.3113 -1.4990  1.8136
  883MOL0     H21853  11.249   1.296   6.693  1.0660 -0.7892 -2.5729
  883MOL0     H21854  11.151   1.191   6.799  1.2957 -2.0709 -0.2123
  884MOL0     O21855   1.619   3.756  11.344 -0.3171  0.1393  0.6955
  884MOL0     C21856   1.618   3.793  11.457 -0.7342  0.1302 -0.5312
  884MOL0     O21857   1.730   3.847  11.525 -0.0851  0.7505  0.6859
  884MOL0     C21858   1.844   3.864  11.451  0.4876 -0.0665  0.5562
  884MOL0     C21859   1.844   3.963  11.353 -0.9014  0.2567 -0.6058
  884MOL0     C21860   1.947   3.989  11.270  0.0758 -0.1677  0.0851
  884MOL0     C21861   2.064   3.926  11.292 -0.1942 -0.4482 -0.1264
  884MOL0     O21862   2.165   3.957  11.201  0.7135 -0.7400 -0.4649
  884MOL0     C21863   2.287   3.875  11.194  0.8010 -0.1807 -0.2035
  884MOL0     C21864   2.379   3.912  11.078 -0.2556  0.0433 -0.3775
  884MOL0     C21865   2.478   3.800  11.045 -1.2153  0.1288  0.3797
  884MOL0     C21866   2.613   3.855  10.981  0.6468 -0.0263 -0.6099
  884MOL0     C21867   2.730   3.756  10.994 -0.2405  0.0127 -0.2936
  884MOL0     C21868   2.856   3.810  10.930  0.5751  0.2995 -0.2367
  884MOL0     C21869   2.984   3.728  10.947  0.1263  0.0771 -0.3942
  884MOL0     C21870   3.105   3.782  10.867  0.6116  0.9548  0.4758
  884MOL0     N21871   3.223   3.690  10.869 -0.0045 -0.7281 -0.5218
  884MOL0     C21872   3.236   3.552  10.851 -0.1723  1.0593 -0.2147
  884MOL0     C21873   3.367   3.524  10.856  0.9112  0.3446 -0.7632
  884MOL0     C21874   3.415   3.384  10.835 -0.0612  1.1601  0.2136
  884MOL0     C21875   3.568   3.362  10.810 -0.0562 -0.0284  0.3559
  884MOL0     C21876   3.603   3.219  10.808 -0.2529  0.7220 -0.2442
  884MOL0     C21877   3.757   3.203  10.790  0.7831 -0.3738  0.0513
  884MOL0     O21878   3.778   3.197  10.645  0.1891  0.2095  0.5880
  884MOL0     C21879   3.907   3.230  10.602 -1.9334 -0.3473 -1.0017
  884MOL0     C21880   3.935   3.346  10.542 -0.6216 -0.4157  0.4425
  884MOL0     C21881   4.064   3.387  10.506 -0.3342 -0.7225 -0.3934
  884MOL0     C21882   4.074   3.513  10.412  1.2566  0.6435  0.1026
  884MOL0     C21883   4.170   3.303  10.530 -0.2923 -0.9368 -0.2430
  884MOL0     C21884   4.308   3.332  10.484 -0.4948 -0.2791 -0.3998
  884MOL0     O21885   4.355   3.455  10.507 -0.5182 -0.2247  0.1775
  884MOL0     C21886   4.457   3.508  10.428 -0.6918  0.1513 -0.4255
  884MOL0     C21887   4.455   3.503  10.283  0.9774  0.4930 -0.1702
  884MOL0     C21888   4.540   3.571  10.190  0.0567 -0.6445 -0.5218
  884MOL0     C21889   4.650   3.637  10.244 -0.0223  0.7607 -0.7726
  884MOL0     O21890   4.731   3.700  10.155  1.1914 -0.2889 -0.4545
  884MOL0     C21891   4.836   3.786  10.202 -0.5480  1.1822 -0.5478
  884MOL0     C21892   4.964   3.711  10.209 -0.1520  0.4812 -0.4275
  884MOL0     C21893   5.077   3.799  10.165 -0.3288  0.1390  0.7616
  884MOL0     C21894   5.211   3.750  10.210 -0.4196  0.0646  0.5006
  884MOL0     C21895   5.327   3.817  10.129 -0.3562  0.4128  0.4263
  884MOL0     C21896   5.460   3.747  10.161  0.7292 -0.4243  0.2879
  884MOL0     C21897   5.571   3.812  10.085 -0.5133  0.2453 -0.6413
  884MOL0     C21898   5.706   3.749  10.117 -0.0252  0.0692 -0.7813
  884MOL0    Cl21899   5.728   3.795  10.291  0.6023 -0.1222 -0.0230
  884MOL0     C21900   4.667   3.642  10.387 -0.4182 -1.0101  0.0135
  884MOL0     C21901   4.576   3.569  10.472 -0.6272 -0.8242  0.0621
  884MOL0     O21902   4.362   3.230  10.435  0.2933  0.1809 -1.1044
  884MOL0     C21903   4.144   3.179  10.592  0.7640 -0.2153 -0.4344
  884MOL0     C21904   4.016   3.148  10.635  0.4418 -0.6984 -0.1217
  884MOL0     N21905   3.434   3.644  10.886  0.5153 -0.6449  0.1126
  884MOL0     N21906   3.347   3.737  10.891  0.2048 -0.2477 -0.3787
  884MOL0     C21907   2.075   3.822  11.389 -0.0488  0.0981 -1.1896
  884MOL0     C21908   1.964   3.789  11.468 -0.3249 -0.0355  0.4491
  884MOL0     C21909   1.484   3.787  11.515  0.3527  0.3276  0.0523
  884MOL0     C21910   1.445   3.889  11.602 -0.0529 -0.1469 -0.6714
  884MOL0     C21911   1.321   3.895  11.665 -0.9216 -0.1818 -0.1600
  884MOL0     C21912   1.216   3.808  11.638  0.2174  0.8212 -0.0069
  884MOL0     O21913   1.095   3.824  11.692  0.3146  0.3042  0.1698
  884MOL0     C21914   1.039   3.949  11.743  0.3516  0.3823  0.5631
  884MOL0     C21915   0.911   3.923  11.823  0.8925  0.0317 -0.2066
  884MOL0     C21916   0.799   3.888  11.728  0.1792 -0.0635 -0.1843
  884MOL0     C21917   0.668   3.834  11.780  0.0598 -0.7289 -0.6533
  884MOL0     C21918   0.577   3.811  11.667  0.3201  0.0150  0.2856
  884MOL0     C21919   0.515   3.767  11.570  0.1851  0.5389 -0.6366
  884MOL0     C21920   1.251   3.701  11.556  0.7979  0.9856 -0.0632
  884MOL0     C21921   1.374   3.696  11.490  0.0383 -0.7535  0.9999
  884MOL0     C21922   1.394   3.581  11.396 -0.2726  0.7915 -0.1359
  884MOL0     H21923   1.751   4.017  11.344 -1.6176 -0.8464 -0.0251
  884MOL0     H21924   1.935   4.069  11.197 -2.6387 -0.0695  0.5286
  884MOL0     H21925   2.264   3.769  11.186 -2.4981  0.3181  0.9311
  884MOL0     H21926   2.333   3.877  11.293 -0.3220  1.3996  0.3239
  884MOL0     H21927   2.308   3.917  10.995  1.8925  2.2308 -2.2221
  884MOL0     H21928   2.420   4.013  11.086  0.2418 -0.2223  0.5923
  884MOL0     H21929   2.517   3.744  11.131  3.4102  1.0087 -0.8296
  884MOL0     H21930   2.430   3.720  10.989  1.5708 -1.6660  0.3307
  884MOL0     H21931   2.587   3.867  10.875  0.4389 -1.2013 -0.6957
  884MOL0     H21932   2.627   3.959  11.012 -0.2490  0.3106 -1.2825
  884MOL0     H21933   2.699   3.662  10.947  2.1388  0.9429 -4.2071
  884MOL0     H21934   2.762   3.735  11.097  0.8327  0.8484 -0.4341
  884MOL0     H21935   2.833   3.805  10.823  1.0100 -1.6858 -0.2695
  884MOL0     H21936   2.860   3.917  10.952 -1.2061  0.3812 -0.1767
  884MOL0     H21937   2.960   3.630  10.905 -1.0440  0.0011  0.3872
  884MOL0     H21938   3.005   3.731  11.055 -2.8301 -1.5071  0.3475
  884MOL0     H21939   3.086   3.784  10.759  1.4253  3.2221  0.3326
  884MOL0     H21940   3.141   3.877  10.906  1.4001  0.1730  1.7153
  884MOL0     H21941   3.150   3.486  10.841 -0.9866  1.8952  0.9606
  884MOL0     H21942   3.357   3.352  10.747 -1.1310  3.2761  0.0674
  884MOL0     H21943   3.382   3.330  10.924  1.3595 -0.7127 -0.3176
  884MOL0     H21944   3.596   3.402  10.712 -2.4698  0.6436 -0.1295
  884MOL0     H21945   3.625   3.421  10.883  1.4651  4.5984 -3.9673
  884MOL0     H21946   3.571   3.173  10.901  2.0477 -0.9734 -0.1882
  884MOL0     H21947   3.536   3.182  10.731 -1.3501  1.7043  0.2113
  884MOL0     H21948   3.804   3.292  10.832  1.6520  0.0203 -1.6320
  884MOL0     H21949   3.792   3.110  10.836  0.1304 -0.3581  0.5883
  884MOL0     H21950   3.860   3.420  10.517  1.1741  1.7676  1.1754
  884MOL0     H21951   3.986   3.522  10.347  1.1073 -0.3291  0.1507
  884MOL0     H21952   4.160   3.510  10.345  2.0704  0.0746  1.1431
  884MOL0     H21953   4.091   3.600  10.475 -1.2704 -0.6509  2.7914
  884MOL0     H21954   4.365   3.454  10.247 -1.3064  3.5022  1.0315
  884MOL0     H21955   4.516   3.567  10.084  1.4029 -2.2411 -0.8102
  884MOL0     H21956   4.855   3.871  10.135  1.4010  1.7235  0.6274
  884MOL0     H21957   4.798   3.832  10.293 -2.2205 -1.1170  0.0266
  884MOL0     H21958   4.973   3.679  10.313 -3.6561  2.9364  0.8076
  884MOL0     H21959   4.958   3.622  10.146 -0.1771  0.0516  0.1732
  884MOL0     H21960   5.066   3.903  10.198  0.3257  0.6862 -0.6561
  884MOL0     H21961   5.076   3.803  10.055  0.6141  2.5975  0.7859
  884MOL0     H21962   5.212   3.641  10.199 -1.7158  0.0516  0.4376
  884MOL0     H21963   5.220   3.770  10.317 -0.2550 -1.7977  0.8551
  884MOL0     H21964   5.296   3.818  10.024 -0.5006  0.8253  0.4718
  884MOL0     H21965   5.335   3.922  10.159 -3.6754  0.2249  2.4812
  884MOL0     H21966   5.450   3.642  10.133  1.7959 -0.9600  1.8181
  884MOL0     H21967   5.476   3.757  10.269  0.6783 -1.1157  0.3624
  884MOL0     H21968   5.570   3.920  10.102 -2.3225  0.4303 -1.7150
  884MOL0     H21969   5.562   3.803   9.977  3.0765  2.5816 -1.3191
  884MOL0     H21970   5.787   3.793  10.058 -1.7753  2.3215 -1.6520
  884MOL0     H21971   5.712   3.643  10.092  0.0660 -0.1847  0.2792
  884MOL0     H21972   4.747   3.705  10.425  0.1021 -1.8721  0.3938
  884MOL0     H21973   4.600   3.576  10.577  2.6378  0.1532 -0.6273
  884MOL0     H21974   4.217   3.099  10.601  0.9305 -0.2400 -1.8259
  884MOL0     H21975   4.001   3.050  10.679 -0.0033 -0.6768 -0.2265
  884MOL0     H21976   2.163   3.767  11.420 -1.0932 -0.2123  1.5528
  884MOL0     H21977   1.969   3.719  11.550  1.0816 -1.9305 -1.1313
  884MOL0     H21978   1.521   3.965  11.619  0.6489 -1.2889  1.6952
  884MOL0     H21979   1.295   3.977  11.733  0.9383 -0.0132  0.3921
  884MOL0     H21980   1.118   3.999  11.799  2.2029 -0.5771 -1.0564
  884MOL0     H21981   1.012   4.012  11.658 -1.0662  0.6101  1.1482
  884MOL0     H21982   0.865   4.002  11.883 -1.7612 -0.9452 -0.8244
  884MOL0     H21983   0.927   3.834  11.885  1.5161 -0.8737 -1.6131
  884MOL0     H21984   0.781   3.974  11.661  4.3638 -1.4802 -3.5882
  884MOL0     H21985   0.834   3.809  11.661  1.9743  1.1775 -0.8090
  884MOL0     H21986   0.627   3.912  11.845  2.6779  0.8404 -0.7655
  884MOL0     H21987   0.704   3.740  11.822  2.4578 -1.2319 -3.5211
  884MOL0     H21988   0.457   3.737  11.485  1.3362  1.3562 -1.7404
  884MOL0     H21989   1.172   3.630  11.537  0.4453  0.8557  1.7138
  884MOL0     H21990   1.387   3.618  11.293  2.1695  0.3908 -0.4999
  884MOL0     H21991   1.492   3.534  11.409  0.4648  2.0410 -0.9076
  884MOL0     H21992   1.319   3.504  11.415  0.1757  0.3715 -0.0726
  885MOL0     O21993   7.661   8.571   4.053 -0.2442  0.1150  0.5722
  885MOL0     C21994   7.638   8.486   4.135 -0.0741  0.1614  0.2745
  885MOL0     O21995   7.715   8.375   4.166  0.2050 -0.0724  0.1091
  885MOL0     C21996   7.819   8.344   4.078 -0.9565  0.2878 -0.1819
  885MOL0     C21997   7.954   8.351   4.130  0.1719  0.4244 -0.2896
  885MOL0     C21998   8.072   8.328   4.057  0.4168 -0.3842 -0.5564
  885MOL0     C21999   8.056   8.311   3.918 -0.8321 -0.5960  0.0474
  885MOL0     O22000   8.181   8.316   3.852  0.1100  0.2098 -0.2079
  885MOL0     C22001   8.204   8.231   3.744 -0.1726  0.0423  0.1182
  885MOL0     C22002   8.241   8.081   3.777 -0.6772 -0.0141 -0.3437
  885MOL0     C22003   8.385   8.070   3.824 -0.7233  0.1315 -0.3476
  885MOL0     C22004   8.418   7.924   3.846  0.1153 -0.0606  0.1184
  885MOL0     C22005   8.558   7.916   3.908  0.0053 -0.5998 -0.4044
  885MOL0     C22006   8.599   7.771   3.925  0.0170  0.6565 -0.1831
  885MOL0     C22007   8.744   7.766   3.962 -0.6409 -0.7416 -0.0397
  885MOL0     C22008   8.790   7.616   3.962 -0.1403 -0.0203  0.4195
  885MOL0     N22009   8.928   7.603   4.005  0.4066  0.2837  0.0796
  885MOL0     C22010   9.043   7.574   3.938 -0.0310  0.1749 -0.0935
  885MOL0     C22011   9.141   7.595   4.030 -0.6501 -0.7289  0.8933
  885MOL0     C22012   9.290   7.583   4.007  0.5124  0.0215  0.0170
  885MOL0     C22013   9.358   7.519   4.121 -0.9044  0.1392  1.1141
  885MOL0     C22014   9.475   7.430   4.076 -0.7904  1.1814  0.3833
  885MOL0     C22015   9.521   7.356   4.205  0.2647 -0.7445 -0.2699
  885MOL0     O22016   9.648   7.276   4.181 -0.0162 -0.0469  0.2486
  885MOL0     C22017   9.767   7.333   4.202 -0.4784  0.1382 -0.6700
  885MOL0     C22018   9.877   7.247   4.209  0.3478  0.9918  0.4355
  885MOL0     C22019  10.010   7.296   4.210 -0.0137 -0.4595 -0.6213
  885MOL0     C22020  10.129   7.199   4.215  0.0688  0.2483  0.4161
  885MOL0     C22021  10.035   7.440   4.202 -0.3174  0.0804 -0.0138
  885MOL0     C22022  10.167   7.500   4.187 -0.4707  0.3835 -0.1415
  885MOL0     O22023  10.275   7.422   4.177 -0.9488  0.0046  0.2471
  885MOL0     C22024  10.399   7.478   4.183  0.2390  0.4723 -0.1865
  885MOL0     C22025  10.487   7.435   4.284  0.0292  0.7189 -0.4463
  885MOL0     C22026  10.614   7.495   4.301  0.1503  0.4962 -0.3139
  885MOL0     C22027  10.660   7.577   4.198  0.5036 -0.5892 -0.3683
  885MOL0     O22028  10.792   7.630   4.200  0.5932 -0.2306 -0.5193
  885MOL0     C22029  10.870   7.649   4.317 -0.1037  0.0834 -0.5880
  885MOL0     C22030  11.002   7.716   4.295 -0.1383 -0.0678  0.1862
  885MOL0     C22031  11.040   7.846   4.370 -0.4578 -0.6184  0.2835
  885MOL0     C22032  11.189   7.883   4.353 -0.0547 -0.1785  0.0893
  885MOL0     C22033  11.234   7.971   4.471 -0.9078 -0.2219 -0.1436
  885MOL0     C22034  11.382   8.001   4.482 -0.5077 -0.1615 -0.3944
  885MOL0     C22035  11.400   8.108   4.585  0.0609  0.1121  0.6093
  885MOL0     C22036  11.546   8.159   4.599 -0.1014  0.1619  0.2833
  885MOL0    Cl22037  11.592   8.252   4.451  0.0462 -0.4846  0.1794
  885MOL0     C22038  10.582   7.608   4.084 -0.5306 -0.3247  0.9151
  885MOL0     C22039  10.448   7.566   4.084  0.4420 -0.7463 -0.3770
  885MOL0     O22040  10.170   7.621   4.199 -0.7234 -0.1174  0.0992
  885MOL0     C22041   9.924   7.521   4.191 -0.1589 -0.8490 -0.3520
  885MOL0     C22042   9.794   7.478   4.195 -0.2326 -0.2858  0.1137
  885MOL0     N22043   9.080   7.630   4.149  1.4442 -0.3813  0.3504
  885MOL0     N22044   8.947   7.634   4.136  0.0174 -0.6493 -0.3099
  885MOL0     C22045   7.930   8.303   3.852 -0.0899 -0.2134  0.4726
  885MOL0     C22046   7.812   8.323   3.935  0.2873 -0.3445  0.8446
  885MOL0     C22047   7.501   8.490   4.191 -0.2267 -1.7494  0.2850
  885MOL0     C22048   7.396   8.535   4.107  0.8740  0.2481  0.5539
  885MOL0     C22049   7.263   8.518   4.151  0.3021  0.8037 -0.6750
  885MOL0     C22050   7.228   8.483   4.283 -0.1615 -0.0546 -0.3945
  885MOL0     O22051   7.093   8.461   4.318  0.0963  0.1515 -0.4507
  885MOL0     C22052   7.063   8.391   4.440  1.0581 -0.3109  0.1467
  885MOL0     C22053   6.911   8.376   4.466  0.3547  0.4563  0.3097
  885MOL0     C22054   6.897   8.310   4.605  0.1178  0.0740 -0.6852
  885MOL0     C22055   6.745   8.296   4.645 -0.3673 -0.0993 -0.1721
  885MOL0     C22056   6.746   8.206   4.759 -0.5019  0.3919 -0.6500
  885MOL0     C22057   6.765   8.125   4.846 -0.2950 -0.1609 -0.4836
  885MOL0     C22058   7.344   8.467   4.374  0.6436  0.1121 -0.1017
  885MOL0     C22059   7.471   8.463   4.326 -0.2053  0.6894  1.0799
  885MOL0     C22060   7.573   8.436   4.429  0.4237  0.4134 -0.1385
  885MOL0     H22061   7.964   8.362   4.237 -1.8346  0.4804 -0.0656
  885MOL0     H22062   8.171   8.326   4.100  0.9241  1.4121 -1.5216
  885MOL0     H22063   8.284   8.277   3.685  1.6514 -1.7977  1.0037
  885MOL0     H22064   8.124   8.225   3.670 -0.3245 -0.8086  0.3356
  885MOL0     H22065   8.171   8.057   3.858 -0.2158  3.2593  1.1978
  885MOL0     H22066   8.230   8.022   3.685  2.2511  0.0869 -0.8445
  885MOL0     H22067   8.456   8.110   3.751  2.5006 -2.1224  1.2971
  885MOL0     H22068   8.407   8.135   3.909  2.2720  0.8698 -1.5572
  885MOL0     H22069   8.347   7.877   3.915 -0.7866 -0.5201 -1.0973
  885MOL0     H22070   8.404   7.863   3.757 -0.5763 -1.7136  1.3162
  885MOL0     H22071   8.557   7.978   3.999  1.9015 -0.2523 -0.5708
  885MOL0     H22072   8.633   7.957   3.839  0.2274 -1.5055 -0.7146
  885MOL0     H22073   8.531   7.730   4.000 -0.3065  2.7776  0.7577
  885MOL0     H22074   8.582   7.728   3.826 -0.0952  0.1847  0.0381
  885MOL0     H22075   8.772   7.814   4.056 -0.6527 -1.2423  0.2234
  885MOL0     H22076   8.801   7.801   3.875  2.1409 -2.7024  0.8252
  885MOL0     H22077   8.722   7.568   4.033 -1.9752  0.3213 -1.0242
  885MOL0     H22078   8.785   7.568   3.863  3.3740 -0.7760  0.4764
  885MOL0     H22079   9.059   7.548   3.834  1.5701  0.4179  0.0668
  885MOL0     H22080   9.338   7.678   3.984  2.9909 -1.7111 -2.6870
  885MOL0     H22081   9.300   7.515   3.922 -2.1600  0.2329 -0.5318
  885MOL0     H22082   9.406   7.590   4.189 -1.0589 -0.0583  1.4329
  885MOL0     H22083   9.283   7.455   4.168 -0.8120  0.8555  2.2724
  885MOL0     H22084   9.439   7.356   4.004  0.5478 -0.5599  1.4151
  885MOL0     H22085   9.557   7.487   4.031 -2.1301  1.4134 -1.9084
  885MOL0     H22086   9.537   7.426   4.288  0.3577 -0.0503 -0.8527
  885MOL0     H22087   9.440   7.291   4.238  0.0246  0.0098  0.6746
  885MOL0     H22088   9.854   7.141   4.213  0.2178  1.0284  0.7120
  885MOL0     H22089  10.085   7.100   4.231 -1.4334  0.7891 -0.1693
  885MOL0     H22090  10.202   7.229   4.290 -1.0945 -0.3555  1.8572
  885MOL0     H22091  10.183   7.195   4.120  1.3376 -1.1595  1.1530
  885MOL0     H22092  10.465   7.365   4.364 -1.5987 -2.1663 -3.1837
  885MOL0     H22093  10.668   7.459   4.388 -1.2273 -0.5113  0.1636
  885MOL0     H22094  10.811   7.717   4.380 -0.0526  0.2926 -0.7638
  885MOL0     H22095  10.894   7.551   4.361 -3.4722 -0.3113  0.6443
  885MOL0     H22096  11.085   7.650   4.322  0.3310 -0.3334 -1.7532
  885MOL0     H22097  11.010   7.733   4.188  0.5278  1.1806  0.4237
  885MOL0     H22098  11.020   7.829   4.476 -1.7184 -1.1934 -0.0300
  885MOL0     H22099  10.982   7.934   4.340  0.2573  0.7564  2.6798
  885MOL0     H22100  11.205   7.932   4.257  1.2799 -0.5622  0.0857
  885MOL0     H22101  11.249   7.791   4.360  0.1209  0.0561  4.1746
  885MOL0     H22102  11.179   8.066   4.471 -2.6872 -1.2013 -0.6350
  885MOL0     H22103  11.195   7.930   4.565 -0.6682 -1.9379 -0.7546
  885MOL0     H22104  11.413   8.033   4.382  0.7110 -0.4818 -0.1461
  885MOL0     H22105  11.445   7.912   4.496  0.7934  0.5597 -1.3879
  885MOL0     H22106  11.367   8.071   4.682  0.0740  0.3248  0.6951
  885MOL0     H22107  11.344   8.198   4.561  1.0569  0.4756 -0.4762
  885MOL0     H22108  11.624   8.082   4.603 -0.9873 -0.8198 -0.4459
  885MOL0     H22109  11.551   8.222   4.687 -1.2972 -0.0966  0.5531
  885MOL0     H22110  10.631   7.667   4.007  3.2571 -3.3273  0.7406
  885MOL0     H22111  10.391   7.589   3.995  0.2964  0.0007 -0.1015
  885MOL0     H22112   9.931   7.629   4.178 -3.0262  0.0228  3.7028
  885MOL0     H22113   9.708   7.544   4.199 -1.0779 -1.3682  4.1114
  885MOL0     H22114   7.913   8.279   3.748  0.2523  0.3234  0.2817
  885MOL0     H22115   7.711   8.325   3.897  0.2720  1.7554  0.8848
  885MOL0     H22116   7.416   8.559   4.003 -1.7394 -2.3670 -0.7261
  885MOL0     H22117   7.182   8.514   4.079 -0.1312 -0.6320 -0.1469
  885MOL0     H22118   7.113   8.294   4.441  0.1054 -0.8691 -1.6615
  885MOL0     H22119   7.107   8.445   4.524  2.6578  0.1616 -0.9442
  885MOL0     H22120   6.874   8.319   4.380  1.4151 -0.0204  0.1463
  885MOL0     H22121   6.878   8.480   4.459  2.2969  1.0190 -3.8335
  885MOL0     H22122   6.938   8.209   4.604 -1.7340 -0.7132 -0.0282
  885MOL0     H22123   6.949   8.368   4.682 -2.3813 -0.8921  1.9057
  885MOL0     H22124   6.685   8.250   4.566  2.3812 -1.4261 -1.6133
  885MOL0     H22125   6.706   8.396   4.667  0.9539  1.0004 -2.4441
  885MOL0     H22126   6.775   8.043   4.915  0.9420 -0.2098 -0.7016
  885MOL0     H22127   7.316   8.436   4.475 -0.7012 -2.4170 -1.1395
  885MOL0     H22128   7.522   8.422   4.525 -1.5936 -2.6548 -1.5092
  885MOL0     H22129   7.620   8.341   4.400  1.0619  0.1224  1.6783
  885MOL0     H22130   7.652   8.510   4.443  1.6452 -0.6990 -0.8488
  886MOL0     O22131   6.418  10.761   2.714 -0.1841  0.0285  0.4292
  886MOL0     C22132   6.341  10.854   2.706 -0.0220 -0.3303 -0.4438
  886MOL0     O22133   6.367  10.989   2.713 -0.2723  0.3204 -0.0206
  886MOL0     C22134   6.495  11.022   2.729 -0.3232  0.4900 -0.2883
  886MOL0     C22135   6.527  11.110   2.836  0.1421 -0.1248  0.0944
  886MOL0     C22136   6.653  11.155   2.849 -0.1876  0.3040 -0.0552
  886MOL0     C22137   6.756  11.116   2.762 -0.0101  0.0971 -0.4117
  886MOL0     O22138   6.876  11.157   2.803  0.4499 -0.1484  0.5598
  886MOL0     C22139   6.997  11.120   2.731  0.3136  0.0121  0.0174
  886MOL0     C22140   6.998  11.213   2.599  0.1328  0.4122 -0.5650
  886MOL0     C22141   7.054  11.130   2.495 -0.1920  0.0142 -0.2192
  886MOL0     C22142   7.068  11.211   2.364  0.2161  0.2155 -0.4321
  886MOL0     C22143   7.148  11.134   2.266 -0.4998  0.9753 -0.3470
  886MOL0     C22144   7.304  11.159   2.292  0.0355  0.2223  0.4006
  886MOL0     C22145   7.395  11.082   2.186  0.3332  0.5081  0.4442
  886MOL0     C22146   7.356  11.127   2.045  0.2479 -0.2157 -1.0488
  886MOL0     N22147   7.463  11.106   1.946  0.6857  0.4771  0.6698
  886MOL0     C22148   7.524  10.988   1.918  0.5730  0.1089 -0.8580
  886MOL0     C22149   7.638  11.026   1.849 -0.7809  0.5352 -0.1876
  886MOL0     C22150   7.743  10.941   1.775 -0.6049 -0.8441  0.3752
  886MOL0     C22151   7.828  10.854   1.865  0.2407  0.3149  0.2909
  886MOL0     C22152   7.907  10.749   1.781  0.9989 -0.2783 -0.3402
  886MOL0     C22153   8.026  10.692   1.856  0.2310 -0.4765  0.1140
  886MOL0     O22154   8.138  10.779   1.831  0.0431 -0.3287  0.1819
  886MOL0     C22155   8.269  10.733   1.821  0.0793 -0.1886  0.5646
  886MOL0     C22156   8.366  10.809   1.757  0.0901  0.3196  0.1316
  886MOL0     C22157   8.505  10.767   1.745  0.7029  0.2566 -0.1691
  886MOL0     C22158   8.609  10.847   1.669 -0.4820 -0.0940 -0.2400
  886MOL0     C22159   8.539  10.642   1.800  0.9949  1.0751 -0.3628
  886MOL0     C22160   8.676  10.579   1.799  0.3586 -0.4580  0.0880
  886MOL0     O22161   8.771  10.613   1.704 -0.6987  0.1524  0.6118
  886MOL0     C22162   8.907  10.594   1.733 -0.2960  0.2499 -0.8671
  886MOL0     C22163   8.953  10.460   1.742 -0.0248 -0.1974  0.4680
  886MOL0     C22164   9.091  10.435   1.746  0.4011  0.2860  0.0892
  886MOL0     C22165   9.180  10.543   1.751  0.6127  0.1340 -0.7182
  886MOL0     O22166   9.316  10.527   1.771  0.3208  0.0383  0.1176
  886MOL0     C22167   9.402  10.621   1.711 -0.2938 -0.0449  0.4895
  886MOL0     C22168   9.546  10.585   1.710  0.9786 -0.8883  0.6413
  886MOL0     C22169   9.588  10.505   1.586 -0.5724 -0.3814 -0.0563
  886MOL0     C22170   9.739  10.444   1.603 -0.3407  0.6218 -0.1038
  886MOL0     C22171   9.786  10.362   1.481  0.0524 -0.7093  0.1478
  886MOL0     C22172   9.877  10.239   1.522  0.9329  0.2114 -0.4314
  886MOL0     C22173  10.013  10.296   1.573  0.6464 -0.4266  0.5744
  886MOL0     C22174  10.117  10.195   1.546  0.4740 -0.5218 -0.0426
  886MOL0    Cl22175  10.150  10.163   1.366 -0.3833  0.0890  0.4147
  886MOL0     C22176   9.128  10.672   1.749 -0.1445 -0.3322 -0.9386
  886MOL0     C22177   8.996  10.700   1.739 -0.2878 -0.8513 -0.8268
  886MOL0     O22178   8.698  10.495   1.886 -0.2835  0.3643 -0.1499
  886MOL0     C22179   8.437  10.571   1.876 -0.5429  0.4685  0.8229
  886MOL0     C22180   8.304  10.617   1.880 -0.7077 -0.6469  0.6589
  886MOL0     N22181   7.638  11.161   1.834  0.6490 -0.1559  0.5452
  886MOL0     N22182   7.539  11.209   1.898 -0.6836 -0.1437 -0.3584
  886MOL0     C22183   6.728  11.015   2.663 -0.8311 -0.4807  0.0222
  886MOL0     C22184   6.601  10.969   2.649  0.0934 -0.4066 -0.3467
  886MOL0     C22185   6.203  10.822   2.693 -0.1204 -0.1396  0.0325
  886MOL0     C22186   6.143  10.731   2.782 -0.0448  0.3749  0.2836
  886MOL0     C22187   6.012  10.688   2.753  0.1340 -0.0703 -0.4823
  886MOL0     C22188   5.953  10.717   2.630 -0.4310  0.4821  0.9869
  886MOL0     O22189   5.833  10.668   2.584 -0.0156  0.1567 -0.4642
  886MOL0     C22190   5.789  10.556   2.655  0.5107 -1.2048 -0.4843
  886MOL0     C22191   5.676  10.499   2.583 -0.0993 -0.6304  0.5093
  886MOL0     C22192   5.703  10.448   2.447 -0.5333  0.4936 -0.0096
  886MOL0     C22193   5.572  10.401   2.381  0.5699 -0.3844 -0.2447
  886MOL0     C22194   5.534  10.277   2.449 -0.4424  0.3161  0.4083
  886MOL0     C22195   5.518  10.173   2.498 -0.5573  0.5737 -0.2073
  886MOL0     C22196   6.014  10.805   2.544 -0.0930  0.5437  0.0206
  886MOL0     C22197   6.131  10.868   2.580 -0.7933  0.2308  0.2694
  886MOL0     C22198   6.180  10.969   2.477 -0.0150  0.0752  0.6682
  886MOL0     H22199   6.453  11.156   2.900 -2.3033 -0.6393 -2.2157
  886MOL0     H22200   6.686  11.219   2.931 -1.5840  0.1609  0.6477
  886MOL0     H22201   6.996  11.013   2.705  1.7441 -0.2946  1.1284
  886MOL0     H22202   7.089  11.145   2.784 -0.4747  2.3402  0.4036
  886MOL0     H22203   6.901  11.255   2.573  1.5319  3.9101 -0.5646
  886MOL0     H22204   7.061  11.301   2.609 -0.6528  1.0508 -1.1491
  886MOL0     H22205   7.147  11.088   2.534 -1.1410 -1.9514  0.0451
  886MOL0     H22206   7.008  11.038   2.459  2.5254 -1.5660  0.1035
  886MOL0     H22207   6.968  11.225   2.322 -1.0148 -0.9259  1.9160
  886MOL0     H22208   7.112  11.309   2.386 -1.7270  0.9097  0.5909
  886MOL0     H22209   7.125  11.173   2.167 -2.7533 -0.8780 -0.6265
  886MOL0     H22210   7.117  11.029   2.266  0.0992  0.6711  2.8213
  886MOL0     H22211   7.340  11.262   2.292  2.8818 -0.6879  0.1515
  886MOL0     H22212   7.331  11.129   2.393 -0.1691 -0.0168  0.3863
  886MOL0     H22213   7.375  10.975   2.197 -4.6155  0.9983 -1.4068
  886MOL0     H22214   7.503  11.097   2.203  0.7687 -0.3615 -1.3335
  886MOL0     H22215   7.262  11.078   2.016 -1.0480  1.2564  0.4216
  886MOL0     H22216   7.338  11.235   2.046 -0.6642 -0.3455  0.0667
  886MOL0     H22217   7.493  10.887   1.942  0.1861  0.0793 -1.4550
  886MOL0     H22218   7.803  10.996   1.702 -0.3289 -1.0492  0.4473
  886MOL0     H22219   7.684  10.867   1.720  2.8015 -2.2742 -1.6764
  886MOL0     H22220   7.885  10.911   1.938 -3.5462 -1.0073  4.8075
  886MOL0     H22221   7.754  10.797   1.922 -0.8605  2.3480  1.0189
  886MOL0     H22222   7.843  10.663   1.757  1.2012 -1.1342  1.9197
  886MOL0     H22223   7.942  10.782   1.683  1.0979 -1.8074 -0.8576
  886MOL0     H22224   8.003  10.681   1.962 -0.9193 -0.9686 -0.1708
  886MOL0     H22225   8.042  10.592   1.813  0.8096  0.0486 -0.9336
  886MOL0     H22226   8.336  10.910   1.728  2.5917  1.0037 -0.2940
  886MOL0     H22227   8.658  10.786   1.592  1.3289  0.0190  0.7750
  886MOL0     H22228   8.682  10.893   1.737 -0.4403 -0.7302  0.1570
  886MOL0     H22229   8.553  10.927   1.620  2.7105  2.7340  0.3679
  886MOL0     H22230   8.873  10.392   1.714  0.7116 -0.3432 -1.4323
  886MOL0     H22231   9.122  10.332   1.761  2.9776  0.7915 -1.2653
  886MOL0     H22232   9.368  10.650   1.611 -0.0832  0.6405  0.6127
  886MOL0     H22233   9.397  10.716   1.766  1.4268 -0.1603  0.9091
  886MOL0     H22234   9.607  10.676   1.706  1.1351 -1.0429 -0.8307
  886MOL0     H22235   9.569  10.523   1.797  0.0595 -1.1255  0.7215
  886MOL0     H22236   9.573  10.564   1.496 -1.1217 -2.0797 -1.1347
  886MOL0     H22237   9.516  10.422   1.580  0.6500 -1.5181  0.4013
  886MOL0     H22238   9.728  10.370   1.683 -0.6980 -0.1483 -0.8464
  886MOL0     H22239   9.812  10.522   1.624 -0.4219  0.5912  0.2864
  886MOL0     H22240   9.699  10.318   1.431 -0.5622  2.1987 -1.5836
  886MOL0     H22241   9.840  10.422   1.408 -1.2320 -0.8208 -0.9310
  886MOL0     H22242   9.880  10.176   1.433 -2.6124 -2.0786  0.8394
  886MOL0     H22243   9.824  10.178   1.597  0.1717 -0.8508 -1.7855
  886MOL0     H22244  10.005  10.321   1.679  4.1325 -0.6458  1.0001
  886MOL0     H22245  10.029  10.389   1.518 -0.4767  0.4789  1.6994
  886MOL0     H22246  10.094  10.102   1.598  1.9584 -0.2836  1.1036
  886MOL0     H22247  10.206  10.232   1.598 -0.2638  0.3605  0.6484
  886MOL0     H22248   9.197  10.756   1.748  1.0268 -1.2590 -0.7022
  886MOL0     H22249   8.953  10.799   1.729 -0.7174 -1.1864 -2.5389
  886MOL0     H22250   8.466  10.478   1.924 -0.5153 -1.6427 -2.9440
  886MOL0     H22251   8.232  10.559   1.937 -1.6686 -0.5107 -0.3812
  886MOL0     H22252   6.809  10.983   2.598 -0.8302 -1.8123  0.6501
  886MOL0     H22253   6.574  10.898   2.572 -2.0269  0.2854 -0.3168
  886MOL0     H22254   6.189  10.712   2.878  0.5206  2.6660  0.5137
  886MOL0     H22255   5.962  10.638   2.836  0.4933  0.0191 -0.2101
  886MOL0     H22256   5.862  10.476   2.674  4.0947  2.0451  0.8169
  886MOL0     H22257   5.751  10.588   2.753 -1.8431 -1.6697 -1.1972
  886MOL0     H22258   5.596  10.573   2.579 -0.2278 -0.7564  0.7601
  886MOL0     H22259   5.636  10.419   2.646 -1.4689 -1.2177 -1.0249
  886MOL0     H22260   5.738  10.525   2.378  0.6737  0.7665  0.8771
  886MOL0     H22261   5.790  10.383   2.456  2.0679  3.5245 -1.4458
  886MOL0     H22262   5.596  10.386   2.275 -0.3593 -3.1618 -0.1567
  886MOL0     H22263   5.485  10.467   2.390 -1.1697 -2.3537 -1.4086
  886MOL0     H22264   5.510  10.075   2.542  0.1207  0.9270  0.7450
  886MOL0     H22265   5.955  10.841   2.461 -0.8188  0.7676  0.6264
  886MOL0     H22266   6.262  10.930   2.417 -0.0905  1.5484 -0.4521
  886MOL0     H22267   6.105  11.003   2.405 -0.4445  1.2163  1.6121
  886MOL0     H22268   6.218  11.063   2.519 -0.7658  0.0475  1.4382
  887MOL0     O22269  10.115  10.386   8.397  0.2103  0.7195 -0.4967
  887MOL0     C22270  10.121  10.455   8.297  0.4071 -0.0073  0.6776
  887MOL0     O22271  10.222  10.535   8.272 -0.5702 -0.5713 -0.3038
  887MOL0     C22272  10.333  10.541   8.354  0.5301  1.0727 -0.0637
  887MOL0     C22273  10.326  10.588   8.482  0.4410  0.3785 -0.4785
  887MOL0     C22274  10.436  10.591   8.562 -1.2989 -0.0217 -0.4669
  887MOL0     C22275  10.565  10.546   8.513 -0.8315 -0.8852  0.0271
  887MOL0     O22276  10.666  10.544   8.607 -0.2580  0.7291  0.0999
  887MOL0     C22277  10.770  10.440   8.596  0.6322  0.4149  0.2931
  887MOL0     C22278  10.882  10.459   8.696 -0.7742 -0.6421  0.3590
  887MOL0     C22279  10.962  10.587   8.685  0.3479  0.9592 -0.2667
  887MOL0     C22280  11.099  10.592   8.762 -0.7931  0.0374  0.0651
  887MOL0     C22281  11.087  10.603   8.921  0.6067 -0.5610  0.2403
  887MOL0     C22282  11.044  10.751   8.969 -0.7605  0.2370 -0.0184
  887MOL0     C22283  11.149  10.854   8.920  0.3756  0.3828 -0.6942
  887MOL0     C22284  11.147  10.965   9.028 -0.5271 -0.1528  0.0539
  887MOL0     N22285  11.258  11.052   9.007  0.0119  0.6728 -0.7174
  887MOL0     C22286  11.374  11.044   9.082  0.3915  0.2902 -0.0249
  887MOL0     C22287  11.459  11.136   9.023 -0.1044  0.2176 -0.5202
  887MOL0     C22288  11.597  11.161   9.071 -0.1556 -0.3069  1.1934
  887MOL0     C22289  11.638  11.313   9.059 -0.1403  0.0649  0.2124
  887MOL0     C22290  11.788  11.342   9.107 -0.1244 -0.7829 -0.1909
  887MOL0     C22291  11.894  11.235   9.096 -0.0444 -0.4956  0.1953
  887MOL0     O22292  11.962  11.260   8.971 -0.6063 -0.1463  0.3332
  887MOL0     C22293  12.086  11.318   8.975  0.0712  0.2792  0.4396
  887MOL0     C22294  12.183  11.248   8.899  0.0802 -0.9651 -0.0647
  887MOL0     C22295  12.316  11.290   8.897  0.7285 -0.2472  0.0612
  887MOL0     C22296  12.402  11.202   8.807 -0.7377 -0.5245  0.1568
  887MOL0     C22297  12.352  11.408   8.963  0.4175 -0.0998 -0.7172
  887MOL0     C22298  12.487  11.472   8.963 -0.4639 -0.1406  0.3872
  887MOL0     O22299  12.519  11.577   9.042  0.0293 -0.4633  0.1952
  887MOL0     C22300  12.644  11.629   9.029  0.0862  0.0313 -0.1044
  887MOL0     C22301  12.690  11.718   8.930 -0.2791  0.5153 -0.2208
  887MOL0     C22302  12.825  11.761   8.930 -0.2821  0.9396  0.7387
  887MOL0     C22303  12.912  11.719   9.030 -0.7025 -0.2549  0.1854
  887MOL0     O22304  13.050  11.744   9.036 -0.2623 -0.5181 -0.3391
  887MOL0     C22305  13.119  11.731   8.911 -0.2849 -0.0576  0.9639
  887MOL0     C22306  13.267  11.691   8.932  0.2164  0.6557  0.2899
  887MOL0     C22307  13.366  11.792   8.999  0.1629  0.3780  0.3288
  887MOL0     C22308  13.390  11.919   8.921 -0.0822 -0.0917  0.3222
  887MOL0     C22309  13.376  12.049   9.009 -0.9286 -0.1065  0.4514
  887MOL0     C22310  13.239  12.069   9.076  0.9559  0.2063  1.3558
  887MOL0     C22311  13.222  12.210   9.131 -0.2062  0.0390 -0.4158
  887MOL0     C22312  13.083  12.226   9.181 -0.4337 -0.0415 -0.7037
  887MOL0    Cl22313  12.959  12.239   9.048  0.2180  0.1449  0.2886
  887MOL0     C22314  12.867  11.647   9.131 -0.2494  0.4385  0.0834
  887MOL0     C22315  12.730  11.593   9.130 -0.0889  1.4227 -0.1577
  887MOL0     O22316  12.571  11.407   8.898  0.0437 -0.4850 -0.2229
  887MOL0     C22317  12.253  11.481   9.040 -0.1228 -0.2325 -0.5535
  887MOL0     C22318  12.118  11.433   9.048 -0.0904 -0.3326 -0.4316
  887MOL0     N22319  11.395  11.188   8.913  0.4047 -0.3870  0.0396
  887MOL0     N22320  11.271  11.148   8.910 -0.2331 -0.1831 -0.0854
  887MOL0     C22321  10.570  10.498   8.384  0.0856 -0.4829  0.6602
  887MOL0     C22322  10.451  10.492   8.303  0.5634 -0.1171  0.0069
  887MOL0     C22323  10.021  10.440   8.190  0.0924 -0.0706 -0.3905
  887MOL0     C22324  10.059  10.468   8.058  0.4331  0.2938 -0.3081
  887MOL0     C22325   9.969  10.445   7.953 -0.7783  0.0411 -0.2827
  887MOL0     C22326   9.837  10.421   7.969  0.2848 -0.4284 -0.7485
  887MOL0     O22327   9.760  10.389   7.857  0.1514 -0.4990 -0.8767
  887MOL0     C22328   9.642  10.307   7.873 -0.2011 -0.5239 -0.0180
  887MOL0     C22329   9.630  10.218   7.750  0.2254  0.9436 -0.3550
  887MOL0     C22330   9.630  10.304   7.620  0.7874 -0.2646  0.3856
  887MOL0     C22331   9.503  10.389   7.610  0.2450  0.9243 -0.1636
  887MOL0     C22332   9.375  10.329   7.639 -0.3466 -0.0671  0.5170
  887MOL0     C22333   9.263  10.288   7.656  0.1199 -0.4568 -0.3540
  887MOL0     C22334   9.793  10.410   8.102  0.5851 -0.9056 -0.4497
  887MOL0     C22335   9.879  10.418   8.213 -0.4892 -0.6548  0.1370
  887MOL0     C22336   9.831  10.393   8.356  0.5955 -0.3002  0.0850
  887MOL0     H22337  10.225  10.610   8.514 -0.6872 -3.7019 -0.7066
  887MOL0     H22338  10.434  10.626   8.665  1.8646 -2.0476  0.4281
  887MOL0     H22339  10.809  10.439   8.494  0.9283  1.6677  0.3818
  887MOL0     H22340  10.725  10.342   8.614  0.5213  0.2068 -1.0033
  887MOL0     H22341  10.842  10.446   8.797 -0.6317 -0.1126  0.4864
  887MOL0     H22342  10.952  10.375   8.691 -1.3078 -1.1663  1.3763
  887MOL0     H22343  10.992  10.602   8.580  0.2717  0.0934 -0.4125
  887MOL0     H22344  10.900  10.671   8.718  0.6422  1.5526 -1.1761
  887MOL0     H22345  11.158  10.506   8.730  1.3134  1.7167 -0.8686
  887MOL0     H22346  11.149  10.683   8.726  1.1705  0.0385  2.5030
  887MOL0     H22347  11.174  10.569   8.977 -0.1097 -1.7672  0.6732
  887MOL0     H22348  11.012  10.528   8.949  1.3300 -1.8654 -1.1641
  887MOL0     H22349  10.941  10.776   8.941 -1.5244 -1.1529  1.3999
  887MOL0     H22350  11.035  10.744   9.078  0.5327 -3.6367 -0.0312
  887MOL0     H22351  11.111  10.884   8.822  1.4069  3.1278 -0.3338
  887MOL0     H22352  11.247  10.809   8.906  0.2936  0.7260 -2.6761
  887MOL0     H22353  11.051  11.017   9.024 -1.0950 -0.6876  3.4490
  887MOL0     H22354  11.162  10.923   9.128  1.7858  2.1493  0.7746
  887MOL0     H22355  11.392  10.977   9.165  0.2681  0.7405  0.3622
  887MOL0     H22356  11.665  11.107   9.006 -0.9121  0.4620 -0.3102
  887MOL0     H22357  11.600  11.120   9.172  0.2076 -2.1285  0.4665
  887MOL0     H22358  11.630  11.337   8.952 -0.3280 -0.7359  0.0365
  887MOL0     H22359  11.568  11.379   9.111 -0.6977  0.2108 -0.7068
  887MOL0     H22360  11.816  11.439   9.066  0.1560  0.6119  3.0670
  887MOL0     H22361  11.768  11.362   9.212  2.6214  1.1133  0.0778
  887MOL0     H22362  11.962  11.256   9.180 -0.1248  2.8184 -0.4423
  887MOL0     H22363  11.859  11.132   9.105 -0.1020 -0.3929  1.2824
  887MOL0     H22364  12.138  11.160   8.854 -1.0770 -0.5242  0.1873
  887MOL0     H22365  12.345  11.126   8.752  0.8049 -0.2637 -1.9452
  887MOL0     H22366  12.479  11.171   8.878  3.2417 -0.6444 -3.7742
  887MOL0     H22367  12.439  11.270   8.729 -0.3978 -1.4881 -0.5418
  887MOL0     H22368  12.612  11.756   8.865  1.3596  1.4761 -1.7298
  887MOL0     H22369  12.862  11.830   8.856  1.4879  0.3807  1.0505
  887MOL0     H22370  13.078  11.645   8.857  1.1448 -0.0344 -0.2156
  887MOL0     H22371  13.105  11.819   8.848 -2.3991 -0.9042  0.1837
  887MOL0     H22372  13.259  11.592   8.977 -0.9154 -1.5878 -4.3125
  887MOL0     H22373  13.307  11.667   8.833 -1.1921  0.4503 -0.2524
  887MOL0     H22374  13.456  11.731   9.005 -0.4588 -0.5881  0.0114
  887MOL0     H22375  13.339  11.817   9.102 -1.7245  0.2117 -0.0824
  887MOL0     H22376  13.319  11.922   8.839 -0.2236  0.1458  0.4522
  887MOL0     H22377  13.488  11.914   8.873 -0.7490  2.5336 -1.5447
  887MOL0     H22378  13.456  12.033   9.081  0.3971  1.1615 -0.6878
  887MOL0     H22379  13.396  12.142   8.956  1.7268 -1.4084 -1.0060
  887MOL0     H22380  13.235  11.994   9.154  3.4107 -1.5793 -0.0905
  887MOL0     H22381  13.157  12.046   9.007  0.4034 -0.3779  2.1958
  887MOL0     H22382  13.230  12.290   9.056 -2.1225 -0.1316 -0.8493
  887MOL0     H22383  13.296  12.234   9.208 -1.9146  2.2491  0.6319
  887MOL0     H22384  13.062  12.320   9.233  0.0950  0.1182 -0.7784
  887MOL0     H22385  13.057  12.143   9.248  0.8209  0.2694  0.1952
  887MOL0     H22386  12.929  11.632   9.219  1.4062  4.2282 -0.2144
  887MOL0     H22387  12.702  11.525   9.209 -0.8221 -0.5169 -1.9783
  887MOL0     H22388  12.284  11.575   9.085  1.1857  0.0744 -2.0023
  887MOL0     H22389  12.039  11.482   9.105  1.8559 -0.8044  2.9309
  887MOL0     H22390  10.659  10.462   8.334 -2.1013 -0.4792 -3.6397
  887MOL0     H22391  10.465  10.454   8.203 -0.2140 -4.4633  1.3282
  887MOL0     H22392  10.160  10.495   8.029  1.5694 -3.1110  0.0110
  887MOL0     H22393  10.003  10.468   7.852 -2.7283 -0.9447 -1.2196
  887MOL0     H22394   9.648  10.241   7.959 -0.1112  0.6811  0.9306
  887MOL0     H22395   9.555  10.373   7.885  1.8392  2.3069  0.3853
  887MOL0     H22396   9.542  10.154   7.753  1.0328 -0.3083 -1.6949
  887MOL0     H22397   9.717  10.153   7.737 -0.7042 -0.1890 -1.1042
  887MOL0     H22398   9.723  10.360   7.612 -0.1231  1.3638  0.6728
  887MOL0     H22399   9.627  10.228   7.541  2.1622  1.0565 -0.9903
  887MOL0     H22400   9.496  10.422   7.506  2.0216  3.0838  0.3025
  887MOL0     H22401   9.524  10.476   7.673 -0.2690  0.2715  0.9283
  887MOL0     H22402   9.163  10.255   7.674 -0.4684  1.1121 -0.5244
  887MOL0     H22403   9.690  10.383   8.123 -0.2697  1.4156 -1.2683
  887MOL0     H22404   9.862  10.292   8.385  0.7941 -0.4151 -0.5138
  887MOL0     H22405   9.881  10.457   8.428  0.2854 -0.0397  0.0690
  887MOL0     H22406   9.722  10.398   8.365  0.4779 -1.9020 -0.1265
  888MOL0     O22407   6.431   5.215   2.994 -0.1865  0.1062 -0.2509
  888MOL0     C22408   6.434   5.142   3.090 -0.4820  0.1719 -0.5883
  888MOL0     O22409   6.543   5.104   3.165 -0.8911  0.0995 -0.5660
  888MOL0     C22410   6.671   5.110   3.109 -0.2795 -0.4409 -0.7321
  888MOL0     C22411   6.714   5.007   3.031 -0.5405 -0.4054 -0.1246
  888MOL0     C22412   6.850   5.001   2.995 -0.6903  0.1636 -0.4704
  888MOL0     C22413   6.939   5.109   3.020  0.2942 -0.1786  0.4848
  888MOL0     O22414   7.057   5.112   2.953 -0.0259 -0.6167 -0.1196
  888MOL0     C22415   7.094   5.009   2.862  0.1870 -0.1512 -0.0562
  888MOL0     C22416   7.150   4.877   2.928  0.5127 -1.3387 -0.0047
  888MOL0     C22417   7.260   4.888   3.026 -0.0570 -1.4883 -0.4129
  888MOL0     C22418   7.210   4.821   3.150 -0.0050  0.5835 -0.3097
  888MOL0     C22419   7.301   4.846   3.275  0.1024  0.1396  0.5655
  888MOL0     C22420   7.431   4.766   3.276 -0.4686 -0.2773  0.3347
  888MOL0     C22421   7.478   4.745   3.415  0.6459  0.5504 -0.3008
  888MOL0     C22422   7.549   4.873   3.464  0.9050  0.4906  0.1065
  888MOL0     N22423   7.686   4.881   3.412 -0.1983  0.3363  0.4797
  888MOL0     C22424   7.718   4.939   3.293  0.1076 -0.3041  0.6711
  888MOL0     C22425   7.855   4.914   3.276  0.3030 -0.7513 -0.7260
  888MOL0     C22426   7.926   4.949   3.154 -0.7379 -0.6456 -0.3191
  888MOL0     C22427   8.056   4.864   3.137  0.3504 -0.3435  0.1108
  888MOL0     C22428   8.131   4.917   3.015 -0.4683  0.0457  0.4340
  888MOL0     C22429   8.197   5.047   3.038  0.1158  0.4843 -1.0290
  888MOL0     O22430   8.283   5.078   2.929 -0.3947 -0.1745 -0.1046
  888MOL0     C22431   8.412   5.029   2.939  0.3762 -0.6664  0.5033
  888MOL0     C22432   8.457   4.980   2.820 -0.2676 -0.6328  0.3419
  888MOL0     C22433   8.588   4.929   2.808 -0.2513  0.0598  0.4551
  888MOL0     C22434   8.622   4.858   2.676  0.1043 -0.2348  0.0430
  888MOL0     C22435   8.675   4.921   2.921 -0.1600 -0.1376  0.3598
  888MOL0     C22436   8.801   4.854   2.929 -0.1075  0.6772  0.1520
  888MOL0     O22437   8.895   4.895   3.023 -0.5122 -0.0813  0.5526
  888MOL0     C22438   9.015   4.837   3.014  0.7969  0.1739  0.3599
  888MOL0     C22439   9.054   4.752   3.116 -0.3030  0.8233 -0.5528
  888MOL0     C22440   9.178   4.681   3.109  0.2731 -0.4418 -0.9449
  888MOL0     C22441   9.260   4.688   2.997 -0.2756  0.3352 -0.9408
  888MOL0     O22442   9.362   4.593   3.007  0.3041 -0.1711  0.4202
  888MOL0     C22443   9.481   4.606   2.926 -0.2394  0.0906 -0.6496
  888MOL0     C22444   9.577   4.500   2.965 -0.1673 -0.1979 -0.2547
  888MOL0     C22445   9.705   4.529   2.883  0.1970  0.3672  0.5764
  888MOL0     C22446   9.737   4.416   2.783  0.4462 -0.0901  0.4730
  888MOL0     C22447   9.863   4.452   2.711  0.3196 -0.2583 -0.3780
  888MOL0     C22448   9.896   4.343   2.613 -0.1674 -0.0659 -0.4115
  888MOL0     C22449   9.946   4.205   2.668 -0.1244  0.3093 -0.0180
  888MOL0     C22450   9.985   4.107   2.547  0.4808 -0.4310  0.3853
  888MOL0    Cl22451  10.119   4.175   2.445 -0.3650 -0.4977  0.1490
  888MOL0     C22452   9.224   4.771   2.892 -0.9196  0.1569 -0.1821
  888MOL0     C22453   9.108   4.849   2.911 -1.0220 -0.3586  0.4717
  888MOL0     O22454   8.818   4.752   2.856 -0.3083 -0.0450  0.3606
  888MOL0     C22455   8.629   4.986   3.044 -0.2977  0.5358  0.0006
  888MOL0     C22456   8.500   5.034   3.050  1.0443 -0.6851  0.4641
  888MOL0     N22457   7.899   4.844   3.387 -0.0702  0.1990  0.1224
  888MOL0     N22458   7.799   4.827   3.465  0.5818  0.1728 -0.0119
  888MOL0     C22459   6.889   5.217   3.094 -1.0173 -0.7069  0.2025
  888MOL0     C22460   6.759   5.214   3.143 -0.5832  0.9839  0.1559
  888MOL0     C22461   6.301   5.097   3.138  0.0511 -0.1591 -0.3847
  888MOL0     C22462   6.200   5.075   3.037  0.0472 -0.8957 -0.5094
  888MOL0     C22463   6.067   5.036   3.062  0.4036 -0.3755 -0.3910
  888MOL0     C22464   6.026   5.035   3.190 -0.2562 -0.1142 -0.7090
  888MOL0     O22465   5.900   4.986   3.221  0.5801 -0.0889  0.5145
  888MOL0     C22466   5.861   4.951   3.352 -0.2361 -0.5717  0.1408
  888MOL0     C22467   5.723   4.889   3.350 -0.5345  0.4761 -0.1839
  888MOL0     C22468   5.739   4.761   3.260  0.2310  0.0040  1.1615
  888MOL0     C22469   5.608   4.676   3.275 -0.2199 -0.1181 -0.0073
  888MOL0     C22470   5.493   4.751   3.224  0.4492  0.3723 -0.5508
  888MOL0     C22471   5.409   4.821   3.179  0.4045  0.3428 -0.0991
  888MOL0     C22472   6.117   5.066   3.295 -0.2171 -0.3512 -1.0583
  888MOL0     C22473   6.255   5.103   3.276  0.5397  0.3239  0.5899
  888MOL0     C22474   6.335   5.139   3.401  0.2220  0.3270 -0.3961
  888MOL0     H22475   6.644   4.925   3.017 -0.6889 -0.2971 -0.0259
  888MOL0     H22476   6.889   4.913   2.944 -2.1019 -1.7410  1.5777
  888MOL0     H22477   7.173   5.046   2.797  0.2366  0.3241  0.2707
  888MOL0     H22478   7.011   4.992   2.793 -0.3944 -0.0348  0.6005
  888MOL0     H22479   7.069   4.815   2.968 -1.6731 -0.6001 -2.9279
  888MOL0     H22480   7.185   4.819   2.842  1.7520  0.4009 -0.7383
  888MOL0     H22481   7.351   4.841   2.988  1.4071  1.2480 -0.5416
  888MOL0     H22482   7.293   4.990   3.046 -0.5164 -0.6469 -3.3846
  888MOL0     H22483   7.116   4.875   3.165 -2.1296 -2.1619 -2.5453
  888MOL0     H22484   7.188   4.714   3.138  0.6147  0.3828  0.3127
  888MOL0     H22485   7.228   4.824   3.353 -0.2237 -2.7671 -0.4282
  888MOL0     H22486   7.315   4.953   3.292  0.9392 -0.0912  1.4365
  888MOL0     H22487   7.421   4.663   3.240 -1.2063 -0.0497 -0.1425
  888MOL0     H22488   7.503   4.820   3.213 -0.5456 -0.2220  0.2937
  888MOL0     H22489   7.555   4.668   3.422  1.1998  1.2115  1.6329
  888MOL0     H22490   7.398   4.707   3.480  0.5199 -1.0160 -1.3157
  888MOL0     H22491   7.484   4.958   3.438 -1.5542 -1.4885 -0.5392
  888MOL0     H22492   7.545   4.867   3.573 -3.7806 -0.9041  0.0922
  888MOL0     H22493   7.660   4.994   3.220  1.5697 -0.1750 -0.4333
  888MOL0     H22494   7.960   5.052   3.159  3.5778 -1.8401 -0.9162
  888MOL0     H22495   7.868   4.924   3.064  0.2189  1.5545 -1.6359
  888MOL0     H22496   8.119   4.884   3.224  1.8299  0.4329 -1.0900
  888MOL0     H22497   8.034   4.757   3.127 -0.7609 -0.0382 -0.9257
  888MOL0     H22498   8.219   4.856   2.992  0.3532  1.6208 -0.8017
  888MOL0     H22499   8.064   4.909   2.929  0.8458  0.1978 -0.6290
  888MOL0     H22500   8.125   5.129   3.046  0.8765  0.9803  1.3545
  888MOL0     H22501   8.248   5.052   3.134 -0.4465  0.1851 -0.7150
  888MOL0     H22502   8.384   4.977   2.740  0.4521 -1.5432 -0.2989
  888MOL0     H22503   8.552   4.872   2.593  1.7752 -0.0455 -1.3666
  888MOL0     H22504   8.630   4.751   2.697 -0.7131 -0.8489 -2.4836
  888MOL0     H22505   8.719   4.894   2.641  0.0415 -2.1607 -2.3640
  888MOL0     H22506   8.994   4.729   3.204  1.9280  0.2948  0.8985
  888MOL0     H22507   9.207   4.617   3.192 -0.4348 -1.3936 -1.4125
  888MOL0     H22508   9.449   4.585   2.824 -2.5581 -1.7143  0.3682
  888MOL0     H22509   9.524   4.706   2.940 -0.9423  0.3175 -0.0277
  888MOL0     H22510   9.607   4.515   3.069  0.6053 -0.4110 -0.4376
  888MOL0     H22511   9.533   4.400   2.955 -1.4438 -0.3568  4.5542
  888MOL0     H22512   9.781   4.540   2.961 -1.0746  0.9687  1.7670
  888MOL0     H22513   9.691   4.619   2.823  3.3457 -0.8082 -2.2320
  888MOL0     H22514   9.670   4.429   2.697  0.7334  2.0437  0.5078
  888MOL0     H22515   9.738   4.321   2.836  1.0781 -0.1112  0.4311
  888MOL0     H22516   9.852   4.550   2.665  0.0151  0.8556  1.9404
  888MOL0     H22517   9.944   4.466   2.783  1.3169  2.8791 -1.9483
  888MOL0     H22518   9.962   4.391   2.541 -2.7981  2.0661 -1.5837
  888MOL0     H22519   9.812   4.314   2.549 -0.5408 -0.0934  0.0829
  888MOL0     H22520   9.862   4.161   2.721 -0.7876  1.8303  0.2379
  888MOL0     H22521  10.034   4.204   2.734 -1.4043 -1.0936  1.7376
  888MOL0     H22522   9.902   4.069   2.487  2.6019 -0.8905 -2.4866
  888MOL0     H22523  10.022   4.020   2.603  1.7613  0.1746  0.5164
  888MOL0     H22524   9.277   4.777   2.798  1.2801 -3.3180  0.6378
  888MOL0     H22525   9.085   4.903   2.819  3.0106 -1.6406 -1.5514
  888MOL0     H22526   8.692   4.998   3.131  0.4861  0.6210 -0.5726
  888MOL0     H22527   8.467   5.067   3.148  1.5750 -0.1576  0.4699
  888MOL0     H22528   6.954   5.303   3.110 -0.4013 -0.4461 -3.0368
  888MOL0     H22529   6.712   5.293   3.202 -0.6871  0.3283  0.9779
  888MOL0     H22530   6.232   5.064   2.933  3.0043 -0.7975  0.2927
  888MOL0     H22531   5.998   5.028   2.979  1.6288 -0.2112 -1.4487
  888MOL0     H22532   5.932   4.884   3.400 -0.4918  0.1081  1.5396
  888MOL0     H22533   5.853   5.042   3.413  2.4793 -2.1235  3.1275
  888MOL0     H22534   5.640   4.955   3.324 -0.5287  1.2126  1.4954
  888MOL0     H22535   5.701   4.849   3.450 -0.0755 -1.0354 -0.6617
  888MOL0     H22536   5.749   4.791   3.155  1.2815 -2.5769  0.4242
  888MOL0     H22537   5.820   4.690   3.278 -1.6863 -2.2397  1.5907
  888MOL0     H22538   5.587   4.655   3.380 -0.4511 -0.4321 -0.1145
  888MOL0     H22539   5.607   4.584   3.215 -0.2005  0.7158 -1.3140
  888MOL0     H22540   5.325   4.874   3.139  2.2403  0.2003 -4.8583
  888MOL0     H22541   6.079   5.059   3.396  3.0951  2.4584  0.6392
  888MOL0     H22542   6.428   5.088   3.374  0.6834  0.1131  1.4586
  888MOL0     H22543   6.357   5.246   3.415  0.2614  0.5294 -1.8917
  888MOL0     H22544   6.309   5.093   3.497 -1.3392 -0.0089 -0.9611
  889MOL0     O22545   6.762   2.464   9.055  0.4819  0.6843 -0.6476
  889MOL0     C22546   6.664   2.429   9.124  0.4805 -0.1072 -0.5834
  889MOL0     O22547   6.668   2.346   9.226 -0.0280 -0.5102  0.1977
  889MOL0     C22548   6.774   2.258   9.241  0.6412 -0.3072  0.3450
  889MOL0     C22549   6.869   2.287   9.344 -0.1151  0.0886  0.9224
  889MOL0     C22550   6.989   2.209   9.351  0.5720 -0.0817  0.4621
  889MOL0     C22551   7.021   2.112   9.261 -0.5714  1.0209 -0.5306
  889MOL0     O22552   7.145   2.053   9.288 -0.1669 -0.1430  0.6635
  889MOL0     C22553   7.204   1.964   9.191 -0.3635  0.0106  0.4885
  889MOL0     C22554   7.254   2.039   9.066 -0.5710 -0.1540 -0.4337
  889MOL0     C22555   7.388   2.101   9.094 -0.1237 -0.3811 -0.4498
  889MOL0     C22556   7.467   2.145   8.968 -0.4614  0.0394  0.3680
  889MOL0     C22557   7.612   2.169   9.009 -0.1538 -0.5464 -0.2681
  889MOL0     C22558   7.705   2.222   8.897 -0.3774  0.4859 -0.6193
  889MOL0     C22559   7.851   2.204   8.937 -0.6129  0.1950  0.3083
  889MOL0     C22560   7.937   2.279   8.838  0.0471 -0.4124 -0.1359
  889MOL0     N22561   8.078   2.291   8.870 -0.0509 -0.6583  0.3409
  889MOL0     C22562   8.149   2.195   8.930 -0.1383 -0.6274 -0.3130
  889MOL0     C22563   8.272   2.248   8.952 -0.3205 -0.0935  0.5723
  889MOL0     C22564   8.388   2.189   9.023  0.4207  0.2570  0.5680
  889MOL0     C22565   8.447   2.279   9.125  0.2572 -0.1198  0.3770
  889MOL0     C22566   8.586   2.229   9.167  0.8413 -0.5063  0.7990
  889MOL0     C22567   8.670   2.348   9.240 -0.3463 -0.1952  0.3658
  889MOL0     O22568   8.625   2.377   9.372  0.2307  0.1235 -0.1334
  889MOL0     C22569   8.717   2.448   9.454 -0.5150  0.5885 -1.0114
  889MOL0     C22570   8.723   2.427   9.588  0.3667 -0.3553 -0.2082
  889MOL0     C22571   8.806   2.484   9.678 -0.0588 -0.1315  0.0508
  889MOL0     C22572   8.788   2.452   9.820 -0.0743 -0.5020 -0.4107
  889MOL0     C22573   8.907   2.577   9.629  0.1213 -0.0987 -0.1602
  889MOL0     C22574   9.008   2.648   9.714 -0.1616  0.1804 -0.2089
  889MOL0     O22575   9.061   2.760   9.655 -0.2482  0.0640  0.0661
  889MOL0     C22576   9.178   2.815   9.700 -0.5269  0.4228  0.3971
  889MOL0     C22577   9.200   2.935   9.654 -0.2792  0.2160 -0.0629
  889MOL0     C22578   9.317   3.010   9.676  0.0310  0.1371  0.3839
  889MOL0     C22579   9.417   2.952   9.756  0.4544  0.8129 -0.5071
  889MOL0     O22580   9.537   3.007   9.779 -0.9263 -0.6994  1.2658
  889MOL0     C22581   9.585   3.106   9.688  0.1875 -0.0013 -0.7828
  889MOL0     C22582   9.705   3.172   9.741 -0.1550 -0.5354 -0.5140
  889MOL0     C22583   9.828   3.091   9.726  0.2017  0.6578 -0.4114
  889MOL0     C22584   9.964   3.173   9.757  0.0406  0.8988  0.1487
  889MOL0     C22585  10.093   3.098   9.721 -0.6913  0.4492  0.1338
  889MOL0     C22586  10.211   3.189   9.704 -0.4746 -0.1660 -0.3238
  889MOL0     C22587  10.270   3.240   9.840 -0.0566  0.5220  0.4045
  889MOL0     C22588  10.315   3.127   9.940  0.6426 -0.5625  0.6455
  889MOL0    Cl22589  10.393   3.208  10.078 -0.2183 -0.0922  0.0426
  889MOL0     C22590   9.393   2.821   9.816 -0.0165  0.4383  0.6025
  889MOL0     C22591   9.278   2.750   9.778  0.0387  0.8555  0.0905
  889MOL0     O22592   9.033   2.600   9.824  0.4347  0.9724  0.4415
  889MOL0     C22593   8.902   2.602   9.486  0.9426 -0.0841 -0.2477
  889MOL0     C22594   8.817   2.532   9.407 -0.3318 -0.4016  0.6642
  889MOL0     N22595   8.271   2.383   8.889  0.7115  0.1053 -0.7102
  889MOL0     N22596   8.151   2.405   8.848 -0.1318 -0.8517  0.5540
  889MOL0     C22597   6.927   2.086   9.160  0.3908  0.1795 -0.4465
  889MOL0     C22598   6.804   2.157   9.151 -0.0581 -0.1461 -0.5100
  889MOL0     C22599   6.531   2.490   9.096 -0.2285 -0.7971 -0.7998
  889MOL0     C22600   6.416   2.423   9.136 -0.5080 -0.4900 -0.5806
  889MOL0     C22601   6.288   2.472   9.123 -0.2567  0.3025  0.3138
  889MOL0     C22602   6.262   2.605   9.068  0.1861 -0.0857  0.0852
  889MOL0     O22603   6.134   2.644   9.037 -0.5388  0.0076  0.0609
  889MOL0     C22604   6.113   2.785   9.006  0.7649  0.1291 -0.0422
  889MOL0     C22605   6.123   2.882   9.127 -0.1634  0.2321 -0.3831
  889MOL0     C22606   6.001   2.846   9.219 -0.3176  0.7411  0.0619
  889MOL0     C22607   5.915   2.964   9.242 -1.0364  0.3284 -0.2143
  889MOL0     C22608   5.832   2.993   9.123 -0.5165  0.8454  0.0257
  889MOL0     C22609   5.765   3.022   9.023 -0.0411  0.7329  0.1437
  889MOL0     C22610   6.385   2.676   9.035  0.6115  0.1149  0.2511
  889MOL0     C22611   6.516   2.623   9.044  0.7039 -0.6798  0.3487
  889MOL0     C22612   6.620   2.709   8.981  0.2371  0.2330  0.1630
  889MOL0     H22613   6.852   2.364   9.419  0.2784 -1.3755  2.5869
  889MOL0     H22614   7.062   2.228   9.430  0.6827 -2.1984  0.9255
  889MOL0     H22615   7.128   1.891   9.162  0.8949 -1.0147 -0.3838
  889MOL0     H22616   7.289   1.911   9.236  0.6601 -0.4810 -1.8613
  889MOL0     H22617   7.248   1.967   8.984 -2.2440 -0.8801  0.2763
  889MOL0     H22618   7.181   2.117   9.039  0.6617  2.6155  3.3537
  889MOL0     H22619   7.378   2.186   9.162  0.8906  1.0162 -1.9693
  889MOL0     H22620   7.445   2.021   9.141 -1.0560 -3.9710 -4.6884
  889MOL0     H22621   7.455   2.064   8.895  2.5099  0.0085 -0.2087
  889MOL0     H22622   7.421   2.235   8.926 -1.8694 -1.4608 -1.5074
  889MOL0     H22623   7.645   2.068   9.036 -0.1692  0.0506  2.1976
  889MOL0     H22624   7.613   2.234   9.097 -0.5913 -1.6582  0.5751
  889MOL0     H22625   7.676   2.167   8.807 -0.2236 -2.3706  0.9604
  889MOL0     H22626   7.694   2.331   8.890 -0.1331  0.8790  3.0184
  889MOL0     H22627   7.866   2.096   8.942 -0.6424  0.1007 -1.3442
  889MOL0     H22628   7.870   2.247   9.036 -3.0762  0.4439  0.7404
  889MOL0     H22629   7.918   2.226   8.744 -3.0389 -0.8456  0.6167
  889MOL0     H22630   7.897   2.381   8.838 -0.1384 -0.4295  2.1515
  889MOL0     H22631   8.123   2.094   8.964  3.3987 -1.5357  0.0359
  889MOL0     H22632   8.465   2.156   8.954  2.4222  1.0036  2.3226
  889MOL0     H22633   8.354   2.107   9.086 -0.1109 -1.1543 -1.4578
  889MOL0     H22634   8.455   2.381   9.088  2.9593 -0.0331  1.0473
  889MOL0     H22635   8.384   2.281   9.214 -1.9041 -0.3266 -1.0634
  889MOL0     H22636   8.590   2.149   9.241  3.6660 -2.0015 -0.8198
  889MOL0     H22637   8.641   2.207   9.075 -0.7039  3.3558 -1.3043
  889MOL0     H22638   8.775   2.316   9.246 -0.6951 -1.9768 -1.6509
  889MOL0     H22639   8.679   2.430   9.167  2.2492 -0.5781  0.1693
  889MOL0     H22640   8.640   2.364   9.619  1.1417 -3.5685 -3.9195
  889MOL0     H22641   8.888   2.420   9.852  0.9996 -0.5715 -3.5182
  889MOL0     H22642   8.713   2.373   9.830 -1.1874  0.4261 -1.1475
  889MOL0     H22643   8.754   2.537   9.879  2.1161 -0.1283  0.4170
  889MOL0     H22644   9.128   2.984   9.590 -0.1251  1.2714  0.5487
  889MOL0     H22645   9.337   3.110   9.640  1.4628 -0.8555 -1.7631
  889MOL0     H22646   9.606   3.053   9.594  0.5318 -1.3406  0.0251
  889MOL0     H22647   9.513   3.188   9.678  0.0561  0.1412  1.0716
  889MOL0     H22648   9.720   3.262   9.681  0.0127 -1.9824 -2.7531
  889MOL0     H22649   9.678   3.193   9.845 -1.2469 -0.8051 -0.7315
  889MOL0     H22650   9.827   3.039   9.630  0.9262 -3.1193  1.4244
  889MOL0     H22651   9.814   3.014   9.802  0.4647  0.4477 -0.5730
  889MOL0     H22652   9.983   3.217   9.855  1.1184 -0.4701  0.5869
  889MOL0     H22653   9.963   3.264   9.696 -2.2400  2.5297  2.4270
  889MOL0     H22654  10.113   3.021   9.796 -4.5301 -1.8634 -0.9479
  889MOL0     H22655  10.068   3.048   9.627 -2.4743  1.7881 -0.1574
  889MOL0     H22656  10.176   3.278   9.652 -1.8847  0.9527  2.3721
  889MOL0     H22657  10.293   3.136   9.654  1.0312  0.1451  1.6867
  889MOL0     H22658  10.201   3.308   9.890  0.0172  1.3087 -0.5223
  889MOL0     H22659  10.354   3.300   9.805 -0.3573 -0.2869 -1.9339
  889MOL0     H22660  10.388   3.065   9.886  0.9942  0.2799  0.1310
  889MOL0     H22661  10.232   3.065   9.978 -2.4547  2.4017 -0.7714
  889MOL0     H22662   9.450   2.759   9.884 -0.9925 -0.8544  0.2893
  889MOL0     H22663   9.272   2.648   9.813  0.6644  0.2075 -1.5974
  889MOL0     H22664   8.981   2.662   9.441  2.6446 -1.2120  1.0957
  889MOL0     H22665   8.829   2.555   9.302 -1.6326  0.9200  0.7720
  889MOL0     H22666   6.953   2.015   9.082 -0.4206  0.2692 -0.8176
  889MOL0     H22667   6.736   2.143   9.067 -1.0071 -0.8439  0.3516
  889MOL0     H22668   6.427   2.320   9.169  0.4068 -0.2001  0.0468
  889MOL0     H22669   6.199   2.411   9.135 -1.2024  1.4662 -0.5053
  889MOL0     H22670   6.196   2.809   8.939  0.9029  2.2029  0.8067
  889MOL0     H22671   6.021   2.803   8.950 -0.0451  0.9671  1.5089
  889MOL0     H22672   6.110   2.987   9.101  0.1720  0.3682 -0.0166
  889MOL0     H22673   6.216   2.861   9.180 -0.1279  0.2904 -0.4213
  889MOL0     H22674   5.937   2.765   9.185  0.4535 -0.3221  1.0517
  889MOL0     H22675   6.042   2.804   9.312 -0.9047 -0.6059 -0.2663
  889MOL0     H22676   5.979   3.048   9.273  2.2640 -2.1539  0.3056
  889MOL0     H22677   5.841   2.945   9.319 -1.5670  3.1900  0.0799
  889MOL0     H22678   5.714   3.046   8.932 -0.8100 -0.1351  0.3417
  889MOL0     H22679   6.382   2.777   8.995  0.5371  0.5706  1.3873
  889MOL0     H22680   6.683   2.749   9.061 -1.1137  0.6717  1.0447
  889MOL0     H22681   6.678   2.644   8.916  2.0832 -0.5514  2.4311
  889MOL0     H22682   6.583   2.800   8.934  0.9402  2.6393  3.8365
  890MOL0     O22683   2.604   0.028   0.164  0.8272  0.1709 -0.0400
  890MOL0     C22684   2.546   0.067   0.271 -0.2203 -0.4086  0.4320
  890MOL0     O22685   2.598   0.064   0.392 -0.6707 -0.1167 -0.6074
  890MOL0     C22686   2.723   0.007   0.408 -0.3454 -0.3583 -0.3706
  890MOL0     C22687   2.734  -0.103   0.498  0.5850  0.2151 -0.0321
  890MOL0     C22688   2.864  -0.158   0.522  0.6263  0.9014 -0.5964
  890MOL0     C22689   2.979  -0.093   0.460  0.0647  0.9211 -0.5809
  890MOL0     O22690   3.098  -0.148   0.491 -0.5306  0.5208 -0.1796
  890MOL0     C22691   3.221  -0.121   0.417  0.2899 -0.5243 -0.6509
  890MOL0     C22692   3.338  -0.181   0.490  0.1445 -0.4359 -0.2023
  890MOL0     C22693   3.467  -0.122   0.432  0.3423  0.4751 -0.0472
  890MOL0     C22694   3.590  -0.205   0.472  1.0227 -0.0131 -0.6045
  890MOL0     C22695   3.722  -0.150   0.424 -0.2452 -0.2767  0.3451
  890MOL0     C22696   3.849  -0.212   0.494  0.2873  0.4099  0.4777
  890MOL0     C22697   3.896  -0.173   0.634  0.4618  0.2836 -0.3166
  890MOL0     C22698   3.991  -0.288   0.703  0.1179 -0.7812 -0.4004
  890MOL0     N22699   4.112  -0.302   0.629 -0.3705  0.3271  0.9718
  890MOL0     C22700   4.126  -0.384   0.516  0.2649  0.4009 -0.1363
  890MOL0     C22701   4.256  -0.368   0.481 -0.4418 -0.1643 -0.7757
  890MOL0     C22702   4.334  -0.460   0.391 -0.5753 -0.7726 -0.7453
  890MOL0     C22703   4.268  -0.496   0.253  0.3971  0.5003  0.1167
  890MOL0     C22704   4.238  -0.360   0.184 -0.4731  0.1784  0.2219
  890MOL0     C22705   4.191  -0.379   0.048  1.0444  0.1330  0.0950
  890MOL0     O22706   4.256  -0.492  -0.011  0.0041 -0.3016 -0.1226
  890MOL0     C22707   4.382  -0.487  -0.063  0.3998 -0.2738 -0.0744
  890MOL0     C22708   4.455  -0.605  -0.058  0.1084 -0.3191 -0.1225
  890MOL0     C22709   4.579  -0.627  -0.106 -0.2511  0.5490 -0.5113
  890MOL0     C22710   4.647  -0.774  -0.079  0.4085  0.2525 -0.6056
  890MOL0     C22711   4.641  -0.513  -0.156 -0.6163  0.8819  1.0756
  890MOL0     C22712   4.784  -0.516  -0.189  0.7353  0.6272  0.5578
  890MOL0     O22713   4.862  -0.621  -0.163  1.0106 -0.3319 -0.3029
  890MOL0     C22714   4.991  -0.620  -0.216  0.6373  0.4360  0.5701
  890MOL0     C22715   5.102  -0.594  -0.130 -0.1705 -0.7505 -0.1561
  890MOL0     C22716   5.230  -0.582  -0.176  1.0271  0.1814 -0.3899
  890MOL0     C22717   5.261  -0.614  -0.305  0.2116  0.0794 -0.7922
  890MOL0     O22718   5.390  -0.585  -0.339 -0.1609  0.5433 -0.2460
  890MOL0     C22719   5.433  -0.609  -0.475 -0.2066  0.7100 -0.4163
  890MOL0     C22720   5.571  -0.553  -0.503  0.3426 -0.1674 -0.1147
  890MOL0     C22721   5.594  -0.401  -0.481 -0.2171 -0.1705 -0.8869
  890MOL0     C22722   5.685  -0.337  -0.590 -0.0640 -0.3714  1.3600
  890MOL0     C22723   5.826  -0.391  -0.587 -0.6386 -0.6846  0.4727
  890MOL0     C22724   5.910  -0.321  -0.693  0.0029  0.3823 -0.0004
  890MOL0     C22725   5.950  -0.172  -0.649  0.5319  0.7419  0.1718
  890MOL0     C22726   6.016  -0.171  -0.514  0.5524 -0.6240 -0.2883
  890MOL0    Cl22727   6.178  -0.255  -0.533  0.4351  0.4462 -0.4308
  890MOL0     C22728   5.154  -0.662  -0.389  0.0268 -0.5261  0.0126
  890MOL0     C22729   5.020  -0.663  -0.348  0.3146  0.1791 -0.7647
  890MOL0     O22730   4.823  -0.408  -0.233  0.1074 -0.1835  0.2802
  890MOL0     C22731   4.568  -0.387  -0.159 -0.5546  0.1099  0.3218
  890MOL0     C22732   4.439  -0.375  -0.120  0.2917 -0.2906  0.3004
  890MOL0     N22733   4.312  -0.291   0.580  0.6410 -0.0447 -0.5816
  890MOL0     N22734   4.230  -0.239   0.659  0.1589 -0.4725  0.3839
  890MOL0     C22735   2.961   0.007   0.363  1.1359 -0.1055  0.2915
  890MOL0     C22736   2.840   0.067   0.348  1.2441  0.5291  0.0880
  890MOL0     C22737   2.405   0.112   0.262 -0.0565 -0.3568 -0.2940
  890MOL0     C22738   2.313   0.090   0.362 -0.0870  0.0443  0.7408
  890MOL0     C22739   2.180   0.139   0.359 -0.7539  0.0682  0.0772
  890MOL0     C22740   2.124   0.204   0.245 -1.0514 -0.1776 -0.3169
  890MOL0     O22741   1.999   0.255   0.225 -0.0383 -0.7050  0.1848
  890MOL0     C22742   1.905   0.212   0.320  0.3407  0.0379 -0.3447
  890MOL0     C22743   1.761   0.219   0.269  0.4579 -0.6246 -0.2146
  890MOL0     C22744   1.670   0.152   0.371  0.0839  0.5947 -0.1712
  890MOL0     C22745   1.518   0.186   0.365 -0.7719 -0.4407  0.0934
  890MOL0     C22746   1.467   0.158   0.229 -0.2019 -0.2302  0.5618
  890MOL0     C22747   1.443   0.136   0.113  0.0311 -0.6656  0.5710
  890MOL0     C22748   2.217   0.218   0.138 -0.0353 -0.0088  0.8044
  890MOL0     C22749   2.349   0.178   0.147 -1.0475  0.2111  0.7356
  890MOL0     C22750   2.446   0.228   0.040 -0.4784 -0.3221  0.1581
  890MOL0     H22751   2.651  -0.138   0.559  0.1651  0.6585 -0.3428
  890MOL0     H22752   2.880  -0.243   0.589  0.0762  0.2973 -1.2293
  890MOL0     H22753   3.243  -0.014   0.406 -0.7664 -0.3239 -0.9222
  890MOL0     H22754   3.213  -0.151   0.312 -1.6629  0.0275 -0.6906
  890MOL0     H22755   3.339  -0.157   0.596 -0.4812  0.3414 -0.3601
  890MOL0     H22756   3.334  -0.290   0.488 -0.4709 -0.4517  1.1261
  890MOL0     H22757   3.479  -0.115   0.324  1.8407 -0.6173  0.0276
  890MOL0     H22758   3.476  -0.024   0.479  0.0552 -0.2729  1.6630
  890MOL0     H22759   3.588  -0.206   0.582 -1.5295  1.4954 -0.5565
  890MOL0     H22760   3.583  -0.306   0.430 -4.1694  0.6090 -1.9210
  890MOL0     H22761   3.730  -0.041   0.437 -1.9749  0.0588 -1.0409
  890MOL0     H22762   3.721  -0.168   0.316  0.2578  1.2949  0.0441
  890MOL0     H22763   3.831  -0.320   0.495  0.0244  0.4553  0.7719
  890MOL0     H22764   3.937  -0.188   0.433  0.4631  0.2604  0.6678
  890MOL0     H22765   3.809  -0.150   0.696 -0.6528  2.7107 -2.6029
  890MOL0     H22766   3.950  -0.078   0.638  0.0150  0.5270  0.0667
  890MOL0     H22767   4.014  -0.261   0.806 -0.0088  1.1871 -0.8560
  890MOL0     H22768   3.932  -0.380   0.696 -1.7359  0.3954 -0.6783
  890MOL0     H22769   4.046  -0.440   0.469 -0.1806  0.3572  0.6675
  890MOL0     H22770   4.344  -0.560   0.434  1.1309 -0.9542 -1.4859
  890MOL0     H22771   4.433  -0.415   0.379 -1.2194  1.4112  1.3834
  890MOL0     H22772   4.333  -0.569   0.205 -2.3813 -3.4436  1.8166
  890MOL0     H22773   4.174  -0.542   0.284  0.2663  1.5258  1.3125
  890MOL0     H22774   4.173  -0.295   0.244 -0.8441 -2.2634  2.7040
  890MOL0     H22775   4.335  -0.309   0.186 -0.2997 -0.1516  0.3214
  890MOL0     H22776   4.086  -0.410   0.046  1.6085 -2.0566  0.9230
  890MOL0     H22777   4.194  -0.291  -0.018 -1.6533  0.5633  0.4570
  890MOL0     H22778   4.397  -0.685  -0.012  0.5643  0.3864  1.7716
  890MOL0     H22779   4.710  -0.803  -0.164  1.7270 -1.9787  1.0378
  890MOL0     H22780   4.571  -0.851  -0.061  2.3053 -1.3683  0.9541
  890MOL0     H22781   4.709  -0.776   0.010  1.1838  0.9552 -1.1184
  890MOL0     H22782   5.078  -0.591  -0.025  1.9015  0.5872  0.3424
  890MOL0     H22783   5.307  -0.551  -0.106  2.1111  0.1798 -1.5511
  890MOL0     H22784   5.447  -0.714  -0.502  0.3528  0.0617  2.1140
  890MOL0     H22785   5.363  -0.564  -0.546 -0.4505  0.3575 -0.4025
  890MOL0     H22786   5.632  -0.622  -0.445 -2.9424 -1.3766  2.2110
  890MOL0     H22787   5.575  -0.571  -0.611 -0.4054 -4.6753  0.4193
  890MOL0     H22788   5.636  -0.383  -0.381  1.0775 -0.8299 -1.2870
  890MOL0     H22789   5.498  -0.350  -0.484 -0.3322 -0.0782  1.7097
  890MOL0     H22790   5.693  -0.235  -0.550  1.0552  0.0803  0.1049
  890MOL0     H22791   5.641  -0.339  -0.690 -0.9336  1.4260  1.6687
  890MOL0     H22792   5.870  -0.389  -0.487  3.4841 -0.8542 -1.1428
  890MOL0     H22793   5.820  -0.496  -0.620  0.7005 -0.6293  0.0136
  890MOL0     H22794   5.861  -0.310  -0.790 -1.5047  2.5160  0.9433
  890MOL0     H22795   5.998  -0.383  -0.712 -0.8959 -2.1208  3.1053
  890MOL0     H22796   5.862  -0.107  -0.654  0.8165  1.1587  0.5735
  890MOL0     H22797   6.016  -0.133  -0.727 -0.2076 -2.5796 -2.3740
  890MOL0     H22798   5.957  -0.215  -0.433  2.7924  0.5303  2.1525
  890MOL0     H22799   6.038  -0.069  -0.479 -0.5892  0.8053 -3.3764
  890MOL0     H22800   5.173  -0.699  -0.489 -2.2003  0.9728 -1.0306
  890MOL0     H22801   4.935  -0.690  -0.410 -1.0867  1.0331  0.6758
  890MOL0     H22802   4.617  -0.306  -0.212 -1.9678 -0.8391 -2.6287
  890MOL0     H22803   4.373  -0.291  -0.134  0.5942 -0.5333 -3.7077
  890MOL0     H22804   3.036   0.054   0.301 -0.6088  2.8975  0.2883
  890MOL0     H22805   2.829   0.153   0.283 -0.5071  0.2147 -0.0807
  890MOL0     H22806   2.331   0.043   0.459 -0.3539  0.4567  0.9957
  890MOL0     H22807   2.118   0.120   0.446 -0.9442 -2.1832 -0.4888
  890MOL0     H22808   1.919   0.105   0.342  2.1636  0.6049  1.5015
  890MOL0     H22809   1.918   0.261   0.417 -0.4449 -0.5375  0.0633
  890MOL0     H22810   1.747   0.170   0.173 -2.8063 -3.3158  1.4403
  890MOL0     H22811   1.735   0.323   0.246 -0.5431 -0.5507  1.1065
  890MOL0     H22812   1.686   0.045   0.362 -0.2584  0.5266  0.0112
  890MOL0     H22813   1.711   0.189   0.466  3.3687 -0.4754 -1.0520
  890MOL0     H22814   1.505   0.292   0.387  1.7167  0.2835 -1.4908
  890MOL0     H22815   1.464   0.130   0.442 -0.6493  0.1811  0.6379
  890MOL0     H22816   1.420   0.111   0.011  1.2167  0.0669  0.1036
  890MOL0     H22817   2.190   0.278   0.051 -2.1011 -1.1887  0.5502
  890MOL0     H22818   2.476   0.139  -0.017 -1.8653  1.0359 -2.8642
  890MOL0     H22819   2.405   0.292  -0.038  1.6690 -0.2430 -0.9785
  890MOL0     H22820   2.534   0.269   0.090 -1.6053  2.2243  0.1885
  891MOL0     O22821  10.142   1.309   6.347  0.1096  0.0510  0.8580
  891MOL0     C22822  10.095   1.414   6.374 -0.3556 -0.0245 -0.2901
  891MOL0     O22823  10.166   1.529   6.373  0.1849  0.4505 -0.3137
  891MOL0     C22824  10.296   1.520   6.333 -0.6618 -0.6154  0.8603
  891MOL0     C22825  10.339   1.469   6.210 -0.6916  0.5708 -0.0981
  891MOL0     C22826  10.477   1.473   6.170 -0.1811  0.1599  0.2208
  891MOL0     C22827  10.575   1.512   6.267  0.9379 -0.5478  0.3769
  891MOL0     O22828  10.706   1.530   6.230 -0.1893 -0.0138  0.0588
  891MOL0     C22829  10.732   1.464   6.102 -0.3665  0.4803 -0.4298
  891MOL0     C22830  10.881   1.465   6.082  0.0335  0.5479 -0.0682
  891MOL0     C22831  10.925   1.445   5.943  0.5038 -0.3835  0.4531
  891MOL0     C22832  11.061   1.373   5.935  0.0857  0.5228 -0.5154
  891MOL0     C22833  11.126   1.361   5.798 -0.6899 -0.1784  0.0726
  891MOL0     C22834  11.182   1.499   5.752  0.1602 -0.2553 -0.0188
  891MOL0     C22835  11.235   1.495   5.603 -0.6428  0.6577 -0.1088
  891MOL0     C22836  11.288   1.638   5.567 -0.1290 -0.3270 -0.0842
  891MOL0     N22837  11.335   1.649   5.427  0.2567 -0.7641  0.5949
  891MOL0     C22838  11.273   1.598   5.317 -0.5526  0.0414 -0.0063
  891MOL0     C22839  11.354   1.619   5.217 -0.4071 -0.4732  0.5769
  891MOL0     C22840  11.336   1.564   5.072 -0.3618  0.2127  0.2841
  891MOL0     C22841  11.339   1.678   4.972  0.2451 -0.1061  0.6320
  891MOL0     C22842  11.265   1.638   4.843 -0.0297 -0.2710 -0.0045
  891MOL0     C22843  11.277   1.744   4.731  0.0991  0.9523 -0.5770
  891MOL0     O22844  11.412   1.728   4.689  0.2634 -0.2095  0.7679
  891MOL0     C22845  11.470   1.804   4.584  1.0932  0.3912  0.6135
  891MOL0     C22846  11.406   1.902   4.513  0.0769 -0.3791  0.1380
  891MOL0     C22847  11.466   1.969   4.404  0.0839 -0.4208 -0.5419
  891MOL0     C22848  11.383   2.060   4.318  0.3490 -0.1026 -0.4963
  891MOL0     C22849  11.607   1.937   4.381 -0.6169 -1.2459 -0.2349
  891MOL0     C22850  11.690   2.001   4.278 -0.2620  0.3010  0.0962
  891MOL0     O22851  11.676   2.134   4.253  0.2649 -0.8859  0.5063
  891MOL0     C22852  11.758   2.208   4.177  0.4821  0.3219  0.3209
  891MOL0     C22853  11.699   2.293   4.077  0.1435 -0.0204 -0.0314
  891MOL0     C22854  11.773   2.346   3.974  0.1755 -1.4684 -0.4821
  891MOL0     C22855  11.912   2.333   3.987  0.1394 -0.1973 -0.3666
  891MOL0     O22856  11.986   2.392   3.892 -0.0408 -0.7638  0.5679
  891MOL0     C22857  12.108   2.451   3.936 -0.4930  0.2503 -0.5777
  891MOL0     C22858  12.104   2.567   4.041  0.2415 -0.0688 -0.4018
  891MOL0     C22859  12.202   2.685   4.017 -0.8892  0.2399  0.3835
  891MOL0     C22860  12.351   2.649   4.021  0.1978  0.3439 -0.5514
  891MOL0     C22861  12.447   2.761   3.988 -0.0424  0.2092 -0.1697
  891MOL0     C22862  12.588   2.714   3.993 -0.1015  0.2032  0.2499
  891MOL0     C22863  12.697   2.806   3.935  0.3377 -1.0086 -0.1540
  891MOL0     C22864  12.819   2.726   3.928  0.3209  1.0058 -0.2973
  891MOL0    Cl22865  12.884   2.691   4.091  0.0990 -0.2770 -0.2747
  891MOL0     C22866  11.968   2.261   4.098  0.2111 -0.1676  0.6879
  891MOL0     C22867  11.891   2.191   4.183 -0.0586 -0.4414 -0.0568
  891MOL0     O22868  11.769   1.917   4.218  0.4371 -0.7475 -0.0121
  891MOL0     C22869  11.675   1.847   4.459  0.1922 -0.2330  0.2853
  891MOL0     C22870  11.601   1.772   4.547 -0.8902  0.9698 -0.1543
  891MOL0     N22871  11.471   1.675   5.263  1.0790  0.0692 -0.7799
  891MOL0     N22872  11.455   1.701   5.387 -0.0895  0.0618 -0.3048
  891MOL0     C22873  10.535   1.553   6.395  0.7543 -0.2259 -0.2314
  891MOL0     C22874  10.394   1.566   6.424  0.1251  1.0029  0.2800
  891MOL0     C22875   9.946   1.426   6.391  0.5315  0.3220 -0.2639
  891MOL0     C22876   9.867   1.305   6.408  0.4841 -0.3571 -0.1750
  891MOL0     C22877   9.734   1.308   6.442 -0.3199 -0.0949 -0.2799
  891MOL0     C22878   9.672   1.432   6.458 -0.3896  0.0538  0.4179
  891MOL0     O22879   9.543   1.448   6.498 -0.1381 -0.0512 -0.1809
  891MOL0     C22880   9.473   1.345   6.572 -1.2039 -0.2740  0.3271
  891MOL0     C22881   9.336   1.383   6.636 -0.1508 -0.4949  0.6008
  891MOL0     C22882   9.252   1.260   6.659 -0.1142  1.1827 -0.6761
  891MOL0     C22883   9.173   1.277   6.787  0.1808 -0.4537 -0.6488
  891MOL0     C22884   9.086   1.162   6.808  0.2882  0.4276  0.1124
  891MOL0     C22885   9.008   1.066   6.809 -0.8553 -0.4021  0.3249
  891MOL0     C22886   9.749   1.548   6.445  0.6807  0.0670  1.2364
  891MOL0     C22887   9.881   1.553   6.410  0.3223 -0.4309 -0.1349
  891MOL0     C22888   9.937   1.688   6.400 -0.1305 -0.3576 -0.1746
  891MOL0     H22889  10.270   1.423   6.140  2.4394 -0.2053 -2.9203
  891MOL0     H22890  10.491   1.435   6.070 -3.1164  1.8688 -0.9701
  891MOL0     H22891  10.686   1.519   6.021  0.3793 -0.5284 -1.5848
  891MOL0     H22892  10.701   1.359   6.099  2.5971 -0.6694  2.3406
  891MOL0     H22893  10.930   1.556   6.118 -0.3758 -0.1321  2.3876
  891MOL0     H22894  10.921   1.389   6.150  3.3491  3.6392  1.7822
  891MOL0     H22895  10.848   1.391   5.889  1.3082  0.1873 -1.3342
  891MOL0     H22896  10.925   1.541   5.890  1.8920 -1.1451 -1.0198
  891MOL0     H22897  11.120   1.429   6.009 -3.6276  2.5132  1.1977
  891MOL0     H22898  11.045   1.268   5.965 -1.0850  0.3847 -1.5526
  891MOL0     H22899  11.059   1.312   5.726 -0.0805 -0.8219 -0.0633
  891MOL0     H22900  11.209   1.295   5.822 -0.5587  0.9904  3.3885
  891MOL0     H22901  11.104   1.575   5.757 -0.2610 -0.4109 -2.9483
  891MOL0     H22902  11.269   1.523   5.815  0.6912 -2.4445  0.1890
  891MOL0     H22903  11.159   1.475   5.527 -1.3161  0.6655  0.5495
  891MOL0     H22904  11.318   1.425   5.588 -0.3359  0.9112  0.3987
  891MOL0     H22905  11.203   1.706   5.574  2.7271  3.5436  0.4841
  891MOL0     H22906  11.364   1.673   5.638 -1.6399  2.8309  0.1390
  891MOL0     H22907  11.173   1.558   5.325 -0.6601  0.5977  2.2653
  891MOL0     H22908  11.244   1.506   5.079 -1.0595  1.4656  3.0124
  891MOL0     H22909  11.420   1.496   5.055  2.0525  2.4849  2.2307
  891MOL0     H22910  11.283   1.762   5.014  1.0839  1.0847 -0.5582
  891MOL0     H22911  11.443   1.706   4.951  0.3498 -1.0187 -0.1411
  891MOL0     H22912  11.300   1.540   4.810 -1.0553 -0.1328 -1.6224
  891MOL0     H22913  11.160   1.620   4.866 -0.4315 -0.9732 -2.2034
  891MOL0     H22914  11.202   1.728   4.653 -0.1242 -0.6104 -0.0753
  891MOL0     H22915  11.252   1.843   4.772  0.8320 -0.6045  4.3889
  891MOL0     H22916  11.300   1.910   4.538 -0.3070 -3.7270  0.0310
  891MOL0     H22917  11.409   2.166   4.331 -0.3834  0.1453 -0.9815
  891MOL0     H22918  11.275   2.053   4.334  0.1417 -1.7420 -2.2727
  891MOL0     H22919  11.395   2.041   4.211  0.3061  1.5764 -0.8348
  891MOL0     H22920  11.591   2.305   4.081  0.3365  2.4278 -0.7702
  891MOL0     H22921  11.720   2.386   3.888  0.1595 -0.5627 -0.0720
  891MOL0     H22922  12.170   2.368   3.971 -0.7567  0.7241  1.0997
  891MOL0     H22923  12.153   2.502   3.850  0.1748  0.8098  0.0995
  891MOL0     H22924  12.003   2.609   4.045  1.0564  1.9873 -0.6155
  891MOL0     H22925  12.128   2.537   4.144  1.1399  0.3642 -0.4787
  891MOL0     H22926  12.177   2.775   4.074  1.7248  0.5786  1.0993
  891MOL0     H22927  12.167   2.720   3.920 -0.5604 -0.4740  0.0009
  891MOL0     H22928  12.360   2.571   3.946 -0.2784 -0.2803  0.0312
  891MOL0     H22929  12.375   2.605   4.118  0.9259  2.1481  0.1401
  891MOL0     H22930  12.414   2.802   3.892 -0.4972  1.7079  0.5857
  891MOL0     H22931  12.434   2.846   4.056  0.9748  2.6068 -2.7363
  891MOL0     H22932  12.606   2.614   3.953  0.8688  1.3385 -2.3397
  891MOL0     H22933  12.599   2.696   4.100  3.9460  1.0247  0.1514
  891MOL0     H22934  12.700   2.894   4.000 -2.5848 -1.6581  1.0543
  891MOL0     H22935  12.674   2.843   3.835 -0.9933 -1.9641 -0.2416
  891MOL0     H22936  12.902   2.776   3.876  2.1108  0.1868  1.6079
  891MOL0     H22937  12.790   2.637   3.871  0.3133  0.1140  1.0591
  891MOL0     H22938  12.076   2.250   4.107  0.0920 -0.4455  1.8978
  891MOL0     H22939  11.925   2.121   4.259 -0.5676  0.4722  1.0354
  891MOL0     H22940  11.780   1.822   4.454  0.4642  0.6855  1.1953
  891MOL0     H22941  11.639   1.682   4.594 -0.9807  0.2408 -1.4354
  891MOL0     H22942  10.607   1.590   6.467  2.3185  0.5691 -2.1302
  891MOL0     H22943  10.362   1.587   6.526 -2.2592  1.3256 -0.4952
  891MOL0     H22944   9.901   1.206   6.379 -1.4535 -0.7042 -1.4019
  891MOL0     H22945   9.666   1.223   6.436  1.6592 -1.7533 -0.1221
  891MOL0     H22946   9.439   1.270   6.500 -0.7849  0.8791 -1.1203
  891MOL0     H22947   9.546   1.311   6.646 -1.3415  2.7413  2.0268
  891MOL0     H22948   9.295   1.461   6.572  0.4973  0.6453  1.5433
  891MOL0     H22949   9.357   1.427   6.734  0.4659 -0.8959  0.6593
  891MOL0     H22950   9.187   1.222   6.580  1.8946 -0.8055 -1.4900
  891MOL0     H22951   9.311   1.171   6.679 -0.3050  1.3645  0.7553
  891MOL0     H22952   9.106   1.364   6.791 -2.6365 -2.5168  1.1649
  891MOL0     H22953   9.236   1.282   6.876 -0.4255 -0.7085 -0.2029
  891MOL0     H22954   8.938   0.985   6.810 -2.0280  0.5824  0.5769
  891MOL0     H22955   9.697   1.642   6.459 -2.4723 -1.3339 -0.2119
  891MOL0     H22956   9.859   1.761   6.380  2.3515  2.0944 -1.7387
  891MOL0     H22957   9.996   1.710   6.489  1.1522  1.0810 -1.3306
  891MOL0     H22958   9.998   1.684   6.309  1.4805  1.0428  0.7792
  892MOL0     O22959   3.099   6.938   8.420  0.3241 -0.3120  0.0577
  892MOL0     C22960   3.116   6.889   8.529  0.8583  0.1302  0.7261
  892MOL0     O22961   3.233   6.887   8.600  0.7977  0.2478  0.1337
  892MOL0     C22962   3.353   6.877   8.538 -0.2293 -0.1804  0.1096
  892MOL0     C22963   3.452   6.800   8.590  0.7142  0.7633  0.1744
  892MOL0     C22964   3.582   6.781   8.538 -0.2443 -0.1189 -0.0432
  892MOL0     C22965   3.626   6.871   8.445 -0.4363 -1.0611 -0.5429
  892MOL0     O22966   3.752   6.869   8.380 -0.6397 -0.1633 -0.2514
  892MOL0     C22967   3.840   6.763   8.414  0.4962 -0.3552  0.1451
  892MOL0     C22968   3.964   6.765   8.324  0.0083 -0.9405  0.4881
  892MOL0     C22969   4.074   6.861   8.379  0.0666  0.6765  0.6383
  892MOL0     C22970   4.208   6.822   8.322 -0.5796  0.2412  0.9099
  892MOL0     C22971   4.331   6.868   8.394  0.0241 -0.2575  0.2203
  892MOL0     C22972   4.347   7.026   8.393  0.7030 -1.3540 -0.3871
  892MOL0     C22973   4.489   7.080   8.411 -1.0417 -0.3813  0.5055
  892MOL0     C22974   4.502   7.231   8.444 -0.6541  0.1775  0.3742
  892MOL0     N22975   4.493   7.312   8.324 -0.0752 -0.6295 -0.0324
  892MOL0     C22976   4.597   7.312   8.239 -0.4778 -0.2121 -0.0474
  892MOL0     C22977   4.547   7.384   8.134 -0.1377 -0.5684 -0.6984
  892MOL0     C22978   4.610   7.439   8.007  0.4196  0.1343 -0.1670
  892MOL0     C22979   4.755   7.381   7.991  1.3726  0.2498 -0.2130
  892MOL0     C22980   4.795   7.391   7.846 -0.8551  0.7988 -0.2009
  892MOL0     C22981   4.942   7.339   7.832  0.1183 -0.0752 -0.1105
  892MOL0     O22982   4.949   7.207   7.873 -0.0798  0.9220 -0.2895
  892MOL0     C22983   5.066   7.142   7.902  0.5789  0.0797  0.6868
  892MOL0     C22984   5.182   7.197   7.854 -0.4165 -0.3919  0.1708
  892MOL0     C22985   5.310   7.152   7.888  0.3125 -0.4992 -0.1476
  892MOL0     C22986   5.429   7.220   7.823  0.0722 -0.0140  0.3455
  892MOL0     C22987   5.325   7.044   7.981 -0.0368 -0.8630  0.4584
  892MOL0     C22988   5.455   7.001   8.043 -0.9776  1.1802 -0.2743
  892MOL0     O22989   5.567   7.076   8.032 -0.4869 -0.2357  0.2173
  892MOL0     C22990   5.699   7.021   8.048 -0.3537  0.1193  0.0039
  892MOL0     C22991   5.811   7.111   8.052  0.1299  0.3242 -0.7063
  892MOL0     C22992   5.941   7.054   8.069  1.0736  0.2654  0.0394
  892MOL0     C22993   5.963   6.914   8.077  0.2401 -0.4644 -0.2853
  892MOL0     O22994   6.085   6.865   8.086  1.0711  0.7030  0.1022
  892MOL0     C22995   6.212   6.930   8.054  1.2585 -0.8896 -0.1937
  892MOL0     C22996   6.267   6.977   8.186 -0.1504  0.3340  0.1873
  892MOL0     C22997   6.287   6.866   8.294  0.5572 -0.7386 -0.3194
  892MOL0     C22998   6.420   6.796   8.263  0.1134  0.5167 -0.5186
  892MOL0     C22999   6.437   6.690   8.368  0.0669 -0.1945 -0.3957
  892MOL0     C23000   6.572   6.616   8.322 -0.1440 -0.3395  0.1453
  892MOL0     C23001   6.572   6.486   8.390 -1.1559  1.3099  0.9181
  892MOL0     C23002   6.704   6.411   8.383 -0.4624 -0.2142 -0.0727
  892MOL0    Cl23003   6.818   6.456   8.251 -0.2938  0.1530  0.2419
  892MOL0     C23004   5.858   6.833   8.078  0.4329 -0.1810  0.8798
  892MOL0     C23005   5.725   6.886   8.068  0.0913 -0.4936 -0.0402
  892MOL0     O23006   5.449   6.898   8.118 -0.2563 -0.2238  0.6380
  892MOL0     C23007   5.201   6.979   8.017  0.1904  0.1155 -0.3643
  892MOL0     C23008   5.073   7.026   7.981 -0.6403 -0.7095 -0.3151
  892MOL0     N23009   4.410   7.398   8.161  0.7799  0.1924  0.6711
  892MOL0     N23010   4.377   7.367   8.281  0.4339  0.0979 -0.0091
  892MOL0     C23011   3.529   6.958   8.393 -0.6004 -0.3004  0.2459
  892MOL0     C23012   3.396   6.959   8.435 -0.4209  0.1716 -0.7180
  892MOL0     C23013   3.004   6.814   8.595 -0.4141 -0.2100  0.1101
  892MOL0     C23014   3.036   6.757   8.714 -0.1367  0.2016 -0.1177
  892MOL0     C23015   2.940   6.682   8.789  0.6247  0.2418 -0.3299
  892MOL0     C23016   2.811   6.668   8.749  0.2291  1.0476  0.8629
  892MOL0     O23017   2.731   6.589   8.825  0.7621  0.7086 -0.0090
  892MOL0     C23018   2.588   6.595   8.803  0.0199  0.6760  0.4007
  892MOL0     C23019   2.523   6.523   8.918 -0.4451 -0.8432 -0.5781
  892MOL0     C23020   2.519   6.611   9.044  0.4111 -0.3616  0.0200
  892MOL0     C23021   2.483   6.536   9.174 -0.1084 -0.3550 -0.2048
  892MOL0     C23022   2.347   6.489   9.192  0.3435 -0.1722  0.3251
  892MOL0     C23023   2.243   6.428   9.201  0.0602  0.4572 -0.3474
  892MOL0     C23024   2.779   6.740   8.633 -0.7747  0.1668  0.0693
  892MOL0     C23025   2.868   6.805   8.552 -0.9632 -0.4734 -0.8416
  892MOL0     C23026   2.825   6.861   8.415 -0.6900 -0.1394 -0.1828
  892MOL0     H23027   3.425   6.744   8.679 -0.7295 -1.8918 -1.7958
  892MOL0     H23028   3.640   6.706   8.589  0.7468  0.0494 -0.8835
  892MOL0     H23029   3.783   6.679   8.373  1.3158 -1.3899  1.0332
  892MOL0     H23030   3.858   6.740   8.519  0.3076 -0.2278  0.2049
  892MOL0     H23031   3.996   6.660   8.332  1.4828 -0.6348 -0.8899
  892MOL0     H23032   3.939   6.777   8.218 -1.0628 -3.1408  0.4380
  892MOL0     H23033   4.045   6.965   8.359  0.9427  0.4321 -2.5316
  892MOL0     H23034   4.082   6.861   8.488 -3.4665  2.1446  1.0343
  892MOL0     H23035   4.209   6.713   8.331  2.0349  0.3081  2.3908
  892MOL0     H23036   4.210   6.860   8.220 -2.0310  2.1784  1.5455
  892MOL0     H23037   4.417   6.842   8.332  1.7757  2.4653  1.2885
  892MOL0     H23038   4.333   6.818   8.492 -1.4691 -0.1945  0.2976
  892MOL0     H23039   4.314   7.065   8.297  1.7379 -2.4806 -1.2227
  892MOL0     H23040   4.270   7.067   8.460 -2.2201 -0.1981 -4.1231
  892MOL0     H23041   4.542   7.064   8.317 -0.1584  1.1148  0.7166
  892MOL0     H23042   4.527   7.043   8.506 -2.6064  1.0186  1.7351
  892MOL0     H23043   4.425   7.266   8.514 -0.5283 -3.1359  2.3775
  892MOL0     H23044   4.599   7.245   8.491 -1.0846 -1.6000  1.9148
  892MOL0     H23045   4.699   7.280   8.257 -0.4114  1.2096  2.4185
  892MOL0     H23046   4.610   7.549   8.011 -1.4523  0.4009 -3.7671
  892MOL0     H23047   4.543   7.424   7.922  1.8158 -1.1216 -1.0735
  892MOL0     H23048   4.815   7.446   8.056 -0.3158  2.4121 -0.6878
  892MOL0     H23049   4.759   7.278   8.027  0.6990  0.1964 -0.2817
  892MOL0     H23050   4.729   7.339   7.776 -0.7465 -0.2202  0.4399
  892MOL0     H23051   4.796   7.498   7.822 -2.8885  0.8247 -0.3535
  892MOL0     H23052   4.959   7.331   7.725  0.2704 -3.9992  0.0593
  892MOL0     H23053   5.015   7.397   7.889  1.4783 -1.9986  0.2414
  892MOL0     H23054   5.171   7.292   7.803 -2.3698  0.4606  2.0503
  892MOL0     H23055   5.390   7.267   7.732 -1.8270  0.0572  1.1383
  892MOL0     H23056   5.487   7.138   7.781 -0.3590  0.4132 -1.1513
  892MOL0     H23057   5.489   7.284   7.888  0.6048  0.5747 -0.7032
  892MOL0     H23058   5.803   7.219   8.044  2.0339  0.3875 -2.8166
  892MOL0     H23059   6.027   7.115   8.095  1.5231  1.3948 -3.5041
  892MOL0     H23060   6.283   6.857   8.016  3.0185  1.3939 -1.5304
  892MOL0     H23061   6.194   7.006   7.977 -2.5507 -0.9646  0.4090
  892MOL0     H23062   6.367   7.019   8.171  0.2678 -0.1208  1.5273
  892MOL0     H23063   6.203   7.055   8.229 -2.1112 -0.1785 -1.6710
  892MOL0     H23064   6.200   6.800   8.308  0.4148 -0.1109  2.3045
  892MOL0     H23065   6.294   6.909   8.394  2.7610 -3.4635  0.8087
  892MOL0     H23066   6.501   6.870   8.262 -0.1698  1.0252  2.6561
  892MOL0     H23067   6.408   6.759   8.161  0.8013 -0.8168 -0.1410
  892MOL0     H23068   6.440   6.731   8.469 -0.3366  2.0239 -1.2318
  892MOL0     H23069   6.362   6.611   8.363  1.5754 -1.8158  0.9872
  892MOL0     H23070   6.657   6.679   8.348 -0.2938  0.2679 -0.7582
  892MOL0     H23071   6.573   6.603   8.213 -1.9552 -3.3404  0.3818
  892MOL0     H23072   6.492   6.428   8.343 -0.0806  2.3208 -2.4481
  892MOL0     H23073   6.551   6.495   8.497  2.9218 -0.5046  2.0576
  892MOL0     H23074   6.686   6.303   8.379  2.4552 -0.7542 -1.3321
  892MOL0     H23075   6.755   6.432   8.477  0.6718 -2.5143 -0.1052
  892MOL0     H23076   5.867   6.725   8.068 -0.8004 -0.3948  1.8202
  892MOL0     H23077   5.647   6.810   8.062  0.9657 -1.4251  0.0523
  892MOL0     H23078   5.192   6.894   8.083  1.4741  0.1439 -0.1334
  892MOL0     H23079   4.986   6.988   8.034 -0.3487 -0.1004  0.6351
  892MOL0     H23080   3.560   7.019   8.309  0.5173  0.5283  1.2337
  892MOL0     H23081   3.327   7.030   8.393 -1.6406  0.2003  1.2307
  892MOL0     H23082   3.136   6.747   8.755  0.2641 -0.3911 -1.1917
  892MOL0     H23083   2.956   6.629   8.882 -3.2957 -0.0303  0.3663
  892MOL0     H23084   2.544   6.693   8.786 -1.4232  0.2000  1.1622
  892MOL0     H23085   2.569   6.545   8.707  3.7121 -0.1030 -0.0736
  892MOL0     H23086   2.574   6.428   8.936  0.4354 -0.4473 -0.9213
  892MOL0     H23087   2.418   6.504   8.891 -1.2069 -2.3313  2.8555
  892MOL0     H23088   2.612   6.666   9.059 -0.2903  1.1744 -1.1068
  892MOL0     H23089   2.441   6.684   9.023  1.9426  1.6544  0.9544
  892MOL0     H23090   2.524   6.601   9.251 -1.3734 -0.9293  0.9957
  892MOL0     H23091   2.544   6.446   9.184 -0.3216 -0.4880 -0.1003
  892MOL0     H23092   2.158   6.363   9.192  0.2380  0.2827 -0.7757
  892MOL0     H23093   2.678   6.741   8.592 -0.5210 -0.0093 -0.5723
  892MOL0     H23094   2.854   6.966   8.408  1.6040 -0.7255 -0.2857
  892MOL0     H23095   2.891   6.809   8.346 -0.2534  0.3635 -0.1507
  892MOL0     H23096   2.715   6.858   8.411 -0.7859 -1.0448  1.9522
  893MOL0     O23097   8.153   5.401  11.125 -0.1693  0.0645  0.2662
  893MOL0     C23098   8.274   5.444  11.135 -0.3453  0.1215 -0.2459
  893MOL0     O23099   8.348   5.444  11.251  0.8242  0.1491 -0.1184
  893MOL0     C23100   8.316   5.343  11.340 -0.0447 -0.2837  0.0349
  893MOL0     C23101   8.373   5.359  11.462 -0.4559  0.7217 -0.3324
  893MOL0     C23102   8.347   5.269  11.566  0.2197  0.5808 -0.6938
  893MOL0     C23103   8.293   5.148  11.544  0.5103  0.1019  0.5976
  893MOL0     O23104   8.285   5.048  11.639  0.2472 -0.6017  0.1120
  893MOL0     C23105   8.192   5.051  11.747  0.9867 -0.2444  0.0758
  893MOL0     C23106   8.040   5.070  11.718 -0.1016  0.4847  0.0259
  893MOL0     C23107   7.987   4.946  11.639 -0.1703  0.2185 -0.4044
  893MOL0     C23108   7.851   4.975  11.586  0.6893  0.0738  0.9777
  893MOL0     C23109   7.799   4.875  11.479 -0.2840  0.3330 -1.1233
  893MOL0     C23110   7.654   4.851  11.479  0.4517 -0.3205 -0.3469
  893MOL0     C23111   7.582   4.816  11.604  0.3387 -0.7405  0.5048
  893MOL0     C23112   7.631   4.683  11.667  0.1429 -0.2243  0.0100
  893MOL0     N23113   7.759   4.702  11.749  0.2089  0.4461 -0.9562
  893MOL0     C23114   7.770   4.779  11.865 -0.3728 -0.3431  0.7257
  893MOL0     C23115   7.888   4.744  11.919 -0.8095  0.6433  0.3386
  893MOL0     C23116   7.955   4.809  12.037 -0.0104  0.0704  0.4684
  893MOL0     C23117   8.090   4.747  12.063  0.5330  0.5257  0.1705
  893MOL0     C23118   8.162   4.809  12.179  0.0468  0.7655  0.0651
  893MOL0     C23119   8.310   4.793  12.169 -0.6719  0.1178  0.0831
  893MOL0     O23120   8.368   4.855  12.285  0.4775  0.4081 -0.2427
  893MOL0     C23121   8.505   4.886  12.288  0.1814  0.1612 -0.1169
  893MOL0     C23122   8.567   4.941  12.405 -0.4205  0.2866 -0.1127
  893MOL0     C23123   8.701   4.978  12.409 -0.9102  0.3800 -0.3875
  893MOL0     C23124   8.742   5.064  12.524 -0.5834 -0.0000 -0.5165
  893MOL0     C23125   8.790   4.939  12.304 -0.3543  0.1922 -0.3612
  893MOL0     C23126   8.935   4.966  12.305 -0.8563 -0.8965  1.7014
  893MOL0     O23127   8.999   4.963  12.180  0.1498 -0.2581 -0.2662
  893MOL0     C23128   9.132   4.998  12.167 -0.6374  0.1290  0.0461
  893MOL0     C23129   9.209   4.914  12.081  0.5659  0.1032  0.0087
  893MOL0     C23130   9.354   4.915  12.081  0.2928  0.5483  0.3918
  893MOL0     C23131   9.419   4.991  12.178 -0.6018 -0.2755  0.8829
  893MOL0     O23132   9.553   5.006  12.177 -0.2382  0.0509 -0.0170
  893MOL0     C23133   9.622   4.943  12.288  0.0258  0.0619  0.0592
  893MOL0     C23134   9.759   4.907  12.244 -0.5059  0.6534 -0.1145
  893MOL0     C23135   9.838   4.811  12.335 -0.5403  0.1366 -0.7965
  893MOL0     C23136   9.875   4.878  12.477 -0.0333 -0.0769  0.3748
  893MOL0     C23137   9.944   4.765  12.568 -0.3283  0.2364 -0.4835
  893MOL0     C23138  10.089   4.752  12.527 -0.3228 -0.1137  0.4106
  893MOL0     C23139  10.154   4.641  12.608 -0.1931  0.5069 -0.1852
  893MOL0     C23140  10.286   4.591  12.544  0.8076 -0.2770  0.2255
  893MOL0    Cl23141  10.394   4.734  12.556  0.2177 -0.2958 -0.5986
  893MOL0     C23142   9.352   5.079  12.263  0.1916  0.0233 -0.3127
  893MOL0     C23143   9.211   5.083  12.253  0.2836 -0.1343 -0.2887
  893MOL0     O23144   9.001   4.953  12.407  0.3204  0.7790 -0.1710
  893MOL0     C23145   8.731   4.872  12.199  0.4938  0.1045  0.6452
  893MOL0     C23146   8.592   4.850  12.182 -0.4310  0.0461  0.4425
  893MOL0     N23147   7.945   4.639  11.834  0.5420  0.0741 -0.1127
  893MOL0     N23148   7.867   4.614  11.736  0.3465  0.3779  0.6825
  893MOL0     C23149   8.253   5.119  11.414  0.3477  0.2093  0.5282
  893MOL0     C23150   8.266   5.215  11.312  0.0903  0.0174 -0.0211
  893MOL0     C23151   8.329   5.527  11.029 -0.4899  0.0589 -0.2522
  893MOL0     C23152   8.463   5.510  10.998 -0.0406  0.7150  0.1908
  893MOL0     C23153   8.532   5.581  10.898  0.4299  0.1969 -0.4435
  893MOL0     C23154   8.455   5.674  10.827  0.4943 -1.0348 -0.5733
  893MOL0     O23155   8.529   5.743  10.730 -0.3204 -0.4197 -1.4013
  893MOL0     C23156   8.473   5.849  10.653 -0.2750 -0.3216  0.5906
  893MOL0     C23157   8.576   5.942  10.572  0.6423  0.2360  0.8336
  893MOL0     C23158   8.671   5.868  10.478  0.2160  0.3651 -0.0329
  893MOL0     C23159   8.788   5.962  10.449 -0.3591  0.2318  0.4049
  893MOL0     C23160   8.878   5.892  10.358  1.0499  0.5054  0.8267
  893MOL0     C23161   8.939   5.835  10.271 -0.1040  1.1991  0.0557
  893MOL0     C23162   8.317   5.702  10.856  0.8060  0.3332  0.5792
  893MOL0     C23163   8.256   5.622  10.963 -0.4597  0.1498 -0.0189
  893MOL0     C23164   8.119   5.670  10.985 -0.0829 -0.5721 -0.0027
  893MOL0     H23165   8.438   5.443  11.482  1.7159 -1.0367  0.2859
  893MOL0     H23166   8.379   5.294  11.667  2.8707  0.3685 -1.4179
  893MOL0     H23167   8.230   5.121  11.823  2.0081 -0.9638  0.2533
  893MOL0     H23168   8.205   4.957  11.802  0.6903  0.4249  1.3427
  893MOL0     H23169   7.980   5.075  11.809  0.5907  0.0446  0.5082
  893MOL0     H23170   8.031   5.163  11.660 -1.3391 -0.0874 -0.7400
  893MOL0     H23171   8.057   4.924  11.558  1.3744 -1.7327  1.3579
  893MOL0     H23172   7.978   4.856  11.699 -0.7178  1.1242  0.9186
  893MOL0     H23173   7.788   4.984  11.675 -0.5192  1.7747  0.0041
  893MOL0     H23174   7.839   5.067  11.529 -0.5992 -1.3964 -1.2817
  893MOL0     H23175   7.854   4.782  11.489 -1.2506 -0.1574 -0.1408
  893MOL0     H23176   7.829   4.921  11.385  2.0130  2.8522  0.6817
  893MOL0     H23177   7.619   4.943  11.431  1.0539 -0.8688 -1.8975
  893MOL0     H23178   7.629   4.765  11.415 -0.3264 -0.4887  0.1738
  893MOL0     H23179   7.475   4.809  11.580  0.7428 -0.3858 -1.6201
  893MOL0     H23180   7.582   4.898  11.675 -2.1702  1.7287 -2.0559
  893MOL0     H23181   7.546   4.644  11.723 -0.6926  1.5946  0.0742
  893MOL0     H23182   7.668   4.615  11.590  3.9810  2.3196 -0.7031
  893MOL0     H23183   7.704   4.854  11.907  1.3829  0.7368  1.6811
  893MOL0     H23184   7.896   4.815  12.130 -0.1798  2.5900  0.2555
  893MOL0     H23185   7.967   4.914  12.011  0.5729 -0.3359 -0.9829
  893MOL0     H23186   8.077   4.638  12.060 -0.9362  0.6959 -0.6887
  893MOL0     H23187   8.146   4.763  11.970  3.0623  0.3170  1.5748
  893MOL0     H23188   8.135   4.914  12.190 -1.9492  0.3537 -0.4541
  893MOL0     H23189   8.127   4.764  12.272  1.1887 -3.9064 -1.4949
  893MOL0     H23190   8.347   4.691  12.156 -0.9949 -0.3083  2.0881
  893MOL0     H23191   8.347   4.844  12.080 -0.3313 -1.2167 -0.5723
  893MOL0     H23192   8.509   4.954  12.497  0.5499  3.2157  0.1617
  893MOL0     H23193   8.671   5.066  12.607  1.0495  1.7272  0.9267
  893MOL0     H23194   8.741   5.167  12.486  1.3492  0.5303  0.7410
  893MOL0     H23195   8.840   5.042  12.567 -1.6801 -1.4767  1.3385
  893MOL0     H23196   9.157   4.836  12.027  1.4256 -1.0262  0.7741
  893MOL0     H23197   9.415   4.848  12.021  1.9924  1.3641  1.1302
  893MOL0     H23198   9.627   5.013  12.372  0.6191 -0.9962  0.9251
  893MOL0     H23199   9.571   4.853  12.324 -0.3568  0.4052  0.3920
  893MOL0     H23200   9.744   4.854  12.149 -1.2226 -0.0265  0.3624
  893MOL0     H23201   9.822   4.994  12.222  1.3379 -0.7657 -0.7985
  893MOL0     H23202   9.930   4.775  12.287 -0.7195 -0.3545 -0.7757
  893MOL0     H23203   9.778   4.720  12.337 -0.3954  0.0048  2.4060
  893MOL0     H23204   9.780   4.918  12.513 -0.9321 -1.9455  0.1928
  893MOL0     H23205   9.931   4.970  12.459 -1.2729  1.0838  2.1153
  893MOL0     H23206   9.922   4.798  12.671 -0.6639 -1.1015 -0.1126
  893MOL0     H23207   9.876   4.680  12.554 -1.5575  0.3299  3.4764
  893MOL0     H23208  10.141   4.847  12.543 -4.0054  2.4624 -1.4800
  893MOL0     H23209  10.094   4.716  12.424  0.2909 -3.6429  1.5111
  893MOL0     H23210  10.078   4.565  12.627  1.0499 -0.5243  0.7995
  893MOL0     H23211  10.166   4.686  12.708 -0.6827 -0.0998  0.1504
  893MOL0     H23212  10.274   4.556  12.441 -0.5934 -2.9230  1.1889
  893MOL0     H23213  10.327   4.514  12.610  0.6003  1.0279  1.9485
  893MOL0     H23214   9.414   5.132  12.334  0.7359  0.1803 -0.8891
  893MOL0     H23215   9.166   5.153  12.323  0.8046  0.7607 -0.8381
  893MOL0     H23216   8.790   4.863  12.108  0.1631  1.2009  0.3013
  893MOL0     H23217   8.559   4.813  12.085  1.7484  2.8665 -1.5837
  893MOL0     H23218   8.210   5.024  11.386 -1.6479  1.8066 -2.2803
  893MOL0     H23219   8.231   5.189  11.212  0.1946 -1.2727  0.2564
  893MOL0     H23220   8.511   5.428  11.050 -0.1675  0.6257  0.1684
  893MOL0     H23221   8.637   5.563  10.876  0.8992  2.3029 -0.1153
  893MOL0     H23222   8.399   5.812  10.583 -1.3869 -0.2083  1.6730
  893MOL0     H23223   8.419   5.914  10.722  0.7416  1.2402  0.0009
  893MOL0     H23224   8.629   6.007  10.644 -0.7869  1.4029  0.8790
  893MOL0     H23225   8.520   6.015  10.513 -0.0073 -1.0910 -0.2400
  893MOL0     H23226   8.700   5.772  10.523 -1.3214  1.3061  3.2779
  893MOL0     H23227   8.614   5.853  10.386  0.4945  2.9804 -0.7075
  893MOL0     H23228   8.846   5.994  10.536  3.5108  2.0779 -2.5153
  893MOL0     H23229   8.746   6.053  10.405 -2.1390  0.4818  2.4580
  893MOL0     H23230   8.993   5.790  10.190 -0.0658  1.9663 -0.3486
  893MOL0     H23231   8.258   5.774  10.800  1.8458  0.2226 -0.7059
  893MOL0     H23232   8.081   5.613  11.069  0.0784  0.9109  1.1217
  893MOL0     H23233   8.113   5.778  11.002 -0.9969 -0.5967 -0.0870
  893MOL0     H23234   8.055   5.653  10.897  2.8470 -0.2014 -2.3718
  894MOL0     O23235   6.356  11.352   0.796  0.1737 -0.1050  0.2364
  894MOL0     C23236   6.321  11.295   0.896  0.5031 -0.1091 -0.1987
  894MOL0     O23237   6.398  11.272   1.005 -0.3696  0.3911  0.6438
  894MOL0     C23238   6.502  11.351   1.012 -0.6261 -0.4134  0.2764
  894MOL0     C23239   6.495  11.489   1.026  0.6113  0.4951 -0.0956
  894MOL0     C23240   6.610  11.559   1.048 -0.4487 -0.2105  0.7458
  894MOL0     C23241   6.731  11.498   1.056  0.2161  0.8281 -0.1445
  894MOL0     O23242   6.840  11.578   1.075 -0.6573 -0.1637  0.0637
  894MOL0     C23243   6.976  11.519   1.057  0.4544  0.0302 -0.3652
  894MOL0     C23244   7.081  11.620   1.076 -0.5470  0.4911 -0.0243
  894MOL0     C23245   7.126  11.635   1.224  0.4153  0.0419  0.3649
  894MOL0     C23246   7.226  11.516   1.249  0.5242 -0.0520  0.0442
  894MOL0     C23247   7.258  11.526   1.404  0.6023  0.6422  0.9087
  894MOL0     C23248   7.351  11.426   1.457 -0.0122 -0.0980 -0.2652
  894MOL0     C23249   7.376  11.453   1.613  0.0198 -0.1963  0.0039
  894MOL0     C23250   7.479  11.563   1.634 -0.5153 -0.1006 -0.2406
  894MOL0     N23251   7.614  11.532   1.569  0.6028 -0.3817 -0.4582
  894MOL0     C23252   7.716  11.457   1.620 -0.6893 -0.5122 -0.5161
  894MOL0     C23253   7.825  11.488   1.542  0.1076  0.4693  1.0465
  894MOL0     C23254   7.958  11.409   1.535  0.6671 -0.0140 -0.3171
  894MOL0     C23255   8.085  11.477   1.606  0.3050  0.5844 -0.0331
  894MOL0     C23256   8.141  11.590   1.518 -0.1986 -0.0208 -0.0944
  894MOL0     C23257   8.290  11.619   1.555  0.0606  0.2328  0.0664
  894MOL0     O23258   8.350  11.710   1.467 -0.7931  0.4810 -0.3287
  894MOL0     C23259   8.486  11.730   1.484 -0.0876 -0.6789 -0.3847
  894MOL0     C23260   8.565  11.688   1.593 -0.9463 -0.4355 -0.5320
  894MOL0     C23261   8.702  11.714   1.608 -0.6449  0.5895 -0.2715
  894MOL0     C23262   8.761  11.658   1.733  0.4710  0.5617 -0.0874
  894MOL0     C23263   8.766  11.780   1.504 -0.5478  0.3806  0.6624
  894MOL0     C23264   8.914  11.821   1.510 -0.0227  0.7855  0.6691
  894MOL0     O23265   8.970  11.843   1.388 -0.3060 -0.0408  0.0946
  894MOL0     C23266   9.100  11.885   1.380 -0.1967  0.0633  0.0815
  894MOL0     C23267   9.133  11.949   1.260  0.6642  0.0777  0.0401
  894MOL0     C23268   9.260  12.006   1.238 -0.4197  0.1205 -0.7764
  894MOL0     C23269   9.356  11.997   1.343 -0.0415  0.1857  0.1389
  894MOL0     O23270   9.484  12.043   1.323 -0.2484  0.0938  0.0385
  894MOL0     C23271   9.515  12.151   1.233  0.3776 -0.5579  0.4260
  894MOL0     C23272   9.666  12.171   1.258  0.6859  0.9760  0.9048
  894MOL0     C23273   9.702  12.216   1.400 -0.0277  0.4551  0.4388
  894MOL0     C23274   9.848  12.167   1.426 -0.6626  0.0314  0.9543
  894MOL0     C23275   9.890  12.179   1.571 -0.1368  0.3287 -0.3688
  894MOL0     C23276   9.871  12.322   1.622 -0.7410 -0.1558  0.1537
  894MOL0     C23277   9.958  12.418   1.534 -0.2752 -0.6883 -1.0012
  894MOL0     C23278   9.975  12.553   1.592 -0.0689 -0.3466 -0.4846
  894MOL0    Cl23279   9.846  12.662   1.544 -0.2018  0.3494  0.1993
  894MOL0     C23280   9.333  11.918   1.454  0.1252 -0.6639 -0.7098
  894MOL0     C23281   9.206  11.861   1.473  0.2053  0.1544  0.1451
  894MOL0     O23282   8.960  11.854   1.620 -0.0178  0.1129 -0.1267
  894MOL0     C23283   8.685  11.818   1.391 -0.2567 -0.2018 -1.0021
  894MOL0     C23284   8.548  11.789   1.378  0.5232  0.4777  0.6384
  894MOL0     N23285   7.782  11.589   1.463 -0.3340 -0.0630 -0.4530
  894MOL0     N23286   7.661  11.608   1.469  0.0734  0.2405 -0.1312
  894MOL0     C23287   6.745  11.362   1.023  0.7163 -0.5798 -0.0633
  894MOL0     C23288   6.627  11.288   1.010  0.4200  0.9153 -0.5104
  894MOL0     C23289   6.184  11.245   0.919  0.2158 -0.4908  0.1716
  894MOL0     C23290   6.129  11.276   1.046  0.0667 -0.8377  0.1310
  894MOL0     C23291   6.002  11.225   1.080 -0.1954  0.2842 -0.5384
  894MOL0     C23292   5.935  11.140   0.989  0.4449 -1.2991 -0.1664
  894MOL0     O23293   5.818  11.070   1.017 -0.1001  0.3977 -0.5919
  894MOL0     C23294   5.816  10.986   1.137 -0.2425 -0.1287  0.0144
  894MOL0     C23295   5.900  10.860   1.133 -0.6366 -0.1185  0.0112
  894MOL0     C23296   5.976  10.821   1.257 -0.0301  0.2958  0.1314
  894MOL0     C23297   5.893  10.811   1.391  0.1169 -0.2146  0.3631
  894MOL0     C23298   5.957  10.876   1.504  0.5945 -0.0695 -0.5081
  894MOL0     C23299   6.004  10.940   1.598 -0.0182 -0.2506 -0.4427
  894MOL0     C23300   5.983  11.116   0.865 -0.5435  0.7684 -0.0087
  894MOL0     C23301   6.103  11.166   0.831 -0.6380 -0.6057 -0.2751
  894MOL0     C23302   6.162  11.132   0.692  0.1430  0.6955 -0.6119
  894MOL0     H23303   6.401  11.542   1.013 -1.0421 -2.0487  0.5766
  894MOL0     H23304   6.621  11.666   1.057  2.2305 -0.2146 -1.2491
  894MOL0     H23305   6.977  11.494   0.950 -2.5364 -0.5702 -0.3264
  894MOL0     H23306   7.002  11.430   1.116 -1.1228 -0.3721 -0.2171
  894MOL0     H23307   7.166  11.602   1.010 -0.5587  2.8026 -0.7571
  894MOL0     H23308   7.034  11.717   1.056  0.4455  0.4665 -2.9059
  894MOL0     H23309   7.190  11.722   1.235  0.1686  0.1548  0.9457
  894MOL0     H23310   7.043  11.653   1.294 -2.0179  1.2721 -2.5822
  894MOL0     H23311   7.180  11.418   1.231 -1.2789  1.0412 -1.6883
  894MOL0     H23312   7.318  11.534   1.193 -0.2873  1.0156 -0.9902
  894MOL0     H23313   7.161  11.523   1.455 -1.2432 -2.1395 -2.3203
  894MOL0     H23314   7.307  11.624   1.410  1.8078  0.0537  0.9422
  894MOL0     H23315   7.316  11.323   1.441  0.5012 -0.1480 -1.1016
  894MOL0     H23316   7.440  11.437   1.395  1.5100  0.4713  1.9065
  894MOL0     H23317   7.402  11.354   1.653 -0.4539 -0.5446 -0.5277
  894MOL0     H23318   7.287  11.491   1.665  3.2635  5.4798  2.3089
  894MOL0     H23319   7.450  11.664   1.601 -2.1986 -0.8519 -1.1536
  894MOL0     H23320   7.499  11.577   1.741 -0.4127 -1.7870 -0.0207
  894MOL0     H23321   7.722  11.388   1.703 -0.9016 -0.5568 -0.5379
  894MOL0     H23322   7.973  11.395   1.428  0.0695 -1.9318 -0.1810
  894MOL0     H23323   7.954  11.309   1.578  2.3124 -0.5061 -1.2189
  894MOL0     H23324   8.056  11.514   1.705  0.8556 -0.2669  0.4598
  894MOL0     H23325   8.160  11.398   1.617 -0.3292 -0.8955 -4.4054
  894MOL0     H23326   8.139  11.565   1.412  1.4301  4.4616 -1.4427
  894MOL0     H23327   8.072  11.674   1.521 -0.7373 -0.4727  0.1790
  894MOL0     H23328   8.287  11.660   1.656 -3.0769 -0.1258  0.2252
  894MOL0     H23329   8.346  11.525   1.565 -0.8044 -0.1782  1.2561
  894MOL0     H23330   8.520  11.638   1.678 -0.4974  1.5742  0.9839
  894MOL0     H23331   8.690  11.599   1.792  0.4629  0.0638 -0.5899
  894MOL0     H23332   8.802  11.736   1.797  3.7371 -0.6539 -0.4977
  894MOL0     H23333   8.840  11.587   1.707 -0.4920 -1.5074  2.2251
  894MOL0     H23334   9.060  11.961   1.181  0.7417  0.1008 -0.0282
  894MOL0     H23335   9.284  12.063   1.149 -1.0370  0.7878 -0.5340
  894MOL0     H23336   9.497  12.116   1.131 -1.6208 -0.2614  0.6447
  894MOL0     H23337   9.456  12.237   1.266 -0.8348 -1.1344 -0.1965
  894MOL0     H23338   9.705  12.078   1.217 -2.8217 -0.2007 -0.0491
  894MOL0     H23339   9.704  12.240   1.183  0.0985  0.1204 -0.2057
  894MOL0     H23340   9.641  12.166   1.475 -0.9777  1.4079  0.3310
  894MOL0     H23341   9.673  12.320   1.423 -1.3209  0.1505  0.2615
  894MOL0     H23342   9.915  12.222   1.360  1.3507 -2.0427  1.1329
  894MOL0     H23343   9.872  12.067   1.387 -0.7828  0.4404 -0.2028
  894MOL0     H23344   9.820  12.121   1.632  0.6008  0.9523  1.1335
  894MOL0     H23345   9.994  12.147   1.581  0.2027  1.5066  0.0719
  894MOL0     H23346   9.889  12.330   1.730  0.6010  1.9627 -0.1632
  894MOL0     H23347   9.765  12.348   1.615 -0.8665  0.6847  3.4385
  894MOL0     H23348   9.924  12.432   1.432 -1.3017  5.2800 -0.1692
  894MOL0     H23349  10.061  12.382   1.531  0.8300  2.3220 -1.6350
  894MOL0     H23350  10.068  12.595   1.555 -1.4034 -1.7774 -6.4915
  894MOL0     H23351   9.972  12.537   1.701  0.9536  0.1649 -0.3708
  894MOL0     H23352   9.412  11.907   1.528  0.5755 -0.0729 -1.0988
  894MOL0     H23353   9.188  11.795   1.557 -2.5137 -2.3556 -2.1830
  894MOL0     H23354   8.743  11.851   1.304  0.0999  0.2379 -0.6062
  894MOL0     H23355   8.489  11.818   1.292  1.0355  1.8366  0.7187
  894MOL0     H23356   6.839  11.309   1.008  2.6913  2.7981 -0.7471
  894MOL0     H23357   6.631  11.182   0.987  0.7001  0.2378  2.2912
  894MOL0     H23358   6.180  11.328   1.126  0.8365  1.1115 -1.5140
  894MOL0     H23359   5.953  11.252   1.173  0.0019 -2.6471  0.5212
  894MOL0     H23360   5.837  11.054   1.220  3.3037  0.4375 -1.1844
  894MOL0     H23361   5.712  10.954   1.152  0.2216 -2.2890 -1.0022
  894MOL0     H23362   5.970  10.883   1.052  0.6669  1.0696  1.4064
  894MOL0     H23363   5.837  10.778   1.099 -0.5331 -0.0628 -0.3202
  894MOL0     H23364   6.023  10.724   1.237 -1.4551 -1.3305  3.6488
  894MOL0     H23365   6.056  10.895   1.262  0.0041  0.2052  1.0497
  894MOL0     H23366   5.872  10.705   1.408 -0.8837 -0.2378 -0.8754
  894MOL0     H23367   5.798  10.861   1.373  0.6207  0.7742  0.4000
  894MOL0     H23368   6.042  11.003   1.675  1.8700  0.1350 -1.6277
  894MOL0     H23369   5.924  11.055   0.797 -1.3925  2.0708 -0.4847
  894MOL0     H23370   6.107  11.046   0.651 -1.7166  1.4450  0.1868
  894MOL0     H23371   6.141  11.208   0.617 -0.6581  0.9359 -0.1615
  894MOL0     H23372   6.266  11.101   0.707 -0.6247 -1.3465  1.1301
  895MOL0     O23373   9.142   8.152  10.276 -0.8223 -0.2612  0.4315
  895MOL0     C23374   9.074   8.058  10.319  0.7854 -0.2583 -0.1607
  895MOL0     O23375   9.130   7.956  10.393  0.7731 -0.7423 -0.9178
  895MOL0     C23376   9.262   7.951  10.437  0.3686 -0.1836 -0.8488
  895MOL0     C23377   9.368   8.035  10.409 -0.2160 -0.2407  0.0094
  895MOL0     C23378   9.489   8.020  10.476 -0.2270 -0.2975 -0.4817
  895MOL0     C23379   9.516   7.924  10.561 -0.0131 -0.0152 -0.4709
  895MOL0     O23380   9.638   7.896  10.626  0.0623  0.2363  0.1418
  895MOL0     C23381   9.734   8.004  10.606  0.0626  0.0993 -0.0112
  895MOL0     C23382   9.849   7.973  10.701 -0.0809 -0.3798 -0.5957
  895MOL0     C23383   9.951   7.892  10.623 -0.9932 -1.5819 -0.4191
  895MOL0     C23384  10.065   7.844  10.716  0.0134  0.8420 -0.5305
  895MOL0     C23385  10.166   7.949  10.762 -0.2953 -0.5492 -0.3745
  895MOL0     C23386  10.272   7.886  10.848  1.3957 -0.1511 -0.2864
  895MOL0     C23387  10.378   7.971  10.920  0.3529  0.0606 -0.8220
  895MOL0     C23388  10.481   8.021  10.810  0.3496 -0.1696  0.7512
  895MOL0     N23389  10.588   8.069  10.891  1.1085  0.1998  0.8004
  895MOL0     C23390  10.708   7.994  10.901 -0.2717  0.2414 -1.0684
  895MOL0     C23391  10.764   8.050  11.012 -0.3763 -0.7939 -0.2794
  895MOL0     C23392  10.888   7.999  11.073  0.3755  0.2767 -0.2835
  895MOL0     C23393  11.022   8.003  10.989  0.3670  0.0608  1.0969
  895MOL0     C23394  11.126   7.921  11.071  0.2376  0.8247  0.1880
  895MOL0     C23395  11.246   7.883  10.978  0.3029 -0.6623  0.3040
  895MOL0     O23396  11.330   7.806  11.057  0.4658 -0.0196  0.5665
  895MOL0     C23397  11.468   7.797  11.062  0.6090 -0.5767 -0.7839
  895MOL0     C23398  11.553   7.880  10.994 -0.3106 -0.4845  0.6054
  895MOL0     C23399  11.691   7.855  10.992 -0.1365  0.1242  0.0116
  895MOL0     C23400  11.777   7.947  10.901 -0.3678 -0.2526 -0.4807
  895MOL0     C23401  11.746   7.760  11.079  0.9283  0.8112 -0.4321
  895MOL0     C23402  11.894   7.725  11.103  0.9522  0.4095  0.2839
  895MOL0     O23403  11.972   7.780  11.013 -0.8446 -0.2225 -0.2242
  895MOL0     C23404  12.099   7.728  10.994 -0.5030  0.3993 -0.0077
  895MOL0     C23405  12.208   7.807  11.005 -0.4983 -0.0249  0.1685
  895MOL0     C23406  12.336   7.763  10.986 -0.9552 -0.1342  0.0489
  895MOL0     C23407  12.364   7.633  10.938  0.0732 -0.0075 -0.4865
  895MOL0     O23408  12.491   7.607  10.912 -0.6210  0.2090  0.4427
  895MOL0     C23409  12.534   7.527  10.798  0.1386 -0.3990 -0.2389
  895MOL0     C23410  12.688   7.558  10.782  0.7091  0.0223  0.7508
  895MOL0     C23411  12.754   7.503  10.655  0.4328 -0.0513 -0.6505
  895MOL0     C23412  12.708   7.576  10.525 -0.1664 -0.4023  0.4194
  895MOL0     C23413  12.729   7.478  10.408  0.2852 -0.4499  0.2291
  895MOL0     C23414  12.696   7.545  10.270 -0.6321  0.0184 -0.6503
  895MOL0     C23415  12.742   7.444  10.162  0.4527 -0.2956 -0.0380
  895MOL0     C23416  12.702   7.502  10.030 -0.1536  0.3108 -0.0413
  895MOL0    Cl23417  12.780   7.658   9.987  0.1841  0.6609 -0.0453
  895MOL0     C23418  12.253   7.547  10.925  0.6212  0.4718  0.6734
  895MOL0     C23419  12.123   7.593  10.952 -0.9533  0.7362 -0.3719
  895MOL0     O23420  11.932   7.647  11.194  0.4926 -0.0811 -0.0180
  895MOL0     C23421  11.655   7.694  11.170 -0.1782 -0.4940  0.5230
  895MOL0     C23422  11.517   7.711  11.159 -0.4323 -0.0147  0.6874
  895MOL0     N23423  10.692   8.163  11.048  0.0474 -0.6295  0.2992
  895MOL0     N23424  10.578   8.175  10.979 -0.1318 -0.0269  0.7574
  895MOL0     C23425   9.408   7.826  10.589 -0.2463  0.1739  0.7661
  895MOL0     C23426   9.281   7.844  10.525 -0.0733  0.1531 -0.1060
  895MOL0     C23427   8.925   8.057  10.316 -0.5984 -0.4191 -0.3220
  895MOL0     C23428   8.859   7.991  10.427 -0.5266  0.8193  0.0459
  895MOL0     C23429   8.722   7.984  10.427 -0.1042 -0.6436 -0.2480
  895MOL0     C23430   8.650   8.052  10.329 -0.1043 -0.6885  0.6591
  895MOL0     O23431   8.514   8.044  10.327 -0.1562  0.7360 -0.1304
  895MOL0     C23432   8.435   7.977  10.433  0.2543 -0.5439 -0.5685
  895MOL0     C23433   8.411   8.060  10.559  1.0622  0.8925 -0.1040
  895MOL0     C23434   8.395   8.213  10.550  0.8188  0.4163 -0.0347
  895MOL0     C23435   8.367   8.276  10.682 -0.1622  0.1546 -0.0234
  895MOL0     C23436   8.228   8.286  10.701  0.5559 -0.7862 -0.4749
  895MOL0     C23437   8.109   8.311  10.726  0.0509  0.5616 -0.0104
  895MOL0     C23438   8.710   8.114  10.224  0.7697 -0.0381 -0.0754
  895MOL0     C23439   8.851   8.117  10.218  0.6711 -0.4444  0.0036
  895MOL0     C23440   8.923   8.174  10.103 -0.4070 -0.1712 -0.7056
  895MOL0     H23441   9.355   8.118  10.340 -0.2178 -1.6414 -1.7518
  895MOL0     H23442   9.561   8.096  10.450  0.2608 -0.9807 -1.1869
  895MOL0     H23443   9.689   8.098  10.640 -2.3575 -0.7220 -0.7611
  895MOL0     H23444   9.769   8.022  10.504  1.0160 -1.9930 -0.0977
  895MOL0     H23445   9.889   8.071  10.728 -0.2917 -0.2470 -0.7673
  895MOL0     H23446   9.812   7.913  10.784  1.3706 -2.0958 -1.1239
  895MOL0     H23447   9.908   7.820  10.553 -1.0853  1.1140 -3.3711
  895MOL0     H23448   9.999   7.958  10.550  0.4346 -2.8940 -0.7216
  895MOL0     H23449  10.017   7.801  10.804  2.1791  1.0838  0.8336
  895MOL0     H23450  10.122   7.770  10.658  0.5859 -0.5923  1.7170
  895MOL0     H23451  10.114   8.033  10.809  1.4473  1.7081 -2.2255
  895MOL0     H23452  10.205   7.993  10.669  2.9238 -1.6936  0.3184
  895MOL0     H23453  10.221   7.822  10.920  2.0446  0.6611  0.9317
  895MOL0     H23454  10.327   7.822  10.778  0.9035  2.3914 -3.2050
  895MOL0     H23455  10.420   7.906  10.998 -2.4701 -0.3106  0.5115
  895MOL0     H23456  10.328   8.058  10.963  0.2258  0.2818 -1.4171
  895MOL0     H23457  10.505   7.933  10.750 -2.4663 -2.0268  2.1137
  895MOL0     H23458  10.443   8.099  10.744  1.8878  1.4480  1.6639
  895MOL0     H23459  10.738   7.904  10.847 -0.9404 -1.5271  1.3259
  895MOL0     H23460  10.868   7.892  11.085  1.5101  0.1603  0.7681
  895MOL0     H23461  10.907   8.040  11.173  2.4067 -1.2088 -0.0021
  895MOL0     H23462  10.997   7.957  10.893 -2.0128 -0.7990  2.0602
  895MOL0     H23463  11.052   8.108  10.981  0.8681  0.0117  2.1741
  895MOL0     H23464  11.161   7.986  11.152  0.5173  1.4673 -0.4414
  895MOL0     H23465  11.079   7.832  11.114 -1.6817  2.3245  1.3507
  895MOL0     H23466  11.222   7.829  10.886  1.4839 -0.1320 -0.3286
  895MOL0     H23467  11.304   7.971  10.949 -0.8855  0.3566  0.9281
  895MOL0     H23468  11.516   7.951  10.921  1.4748  1.0110  1.0773
  895MOL0     H23469  11.728   8.035  10.859  1.0122 -0.2752 -2.2437
  895MOL0     H23470  11.829   7.887  10.826  0.0054 -2.2599  1.2750
  895MOL0     H23471  11.855   7.987  10.967 -0.9101 -2.2997  1.5471
  895MOL0     H23472  12.194   7.909  11.040 -4.1524 -0.0815 -0.6491
  895MOL0     H23473  12.427   7.818  11.005  0.8209 -3.3885  1.9065
  895MOL0     H23474  12.519   7.419  10.807  0.5845 -0.4132  0.4422
  895MOL0     H23475  12.475   7.554  10.710  0.5873 -0.7993 -0.6691
  895MOL0     H23476  12.691   7.667  10.797  0.6378  0.1470 -0.1120
  895MOL0     H23477  12.745   7.512  10.864  2.4586  2.1896  0.8488
  895MOL0     H23478  12.740   7.394  10.651  0.3396 -0.2280  2.4043
  895MOL0     H23479  12.861   7.518  10.664  0.4912 -1.4342  1.5825
  895MOL0     H23480  12.778   7.658  10.505 -0.0320 -0.5446  0.3022
  895MOL0     H23481  12.605   7.613  10.530  0.6048  1.7748  1.7538
  895MOL0     H23482  12.829   7.435  10.407  0.7409  0.5312 -1.4276
  895MOL0     H23483  12.656   7.397  10.414  0.2122 -0.3385  0.9946
  895MOL0     H23484  12.742   7.644  10.270  1.9026 -1.0716  0.5938
  895MOL0     H23485  12.589   7.567  10.267 -0.5472  0.6170  0.2052
  895MOL0     H23486  12.699   7.343  10.165 -0.5257  0.1200  0.4153
  895MOL0     H23487  12.850   7.433  10.172  0.2166 -1.3854  1.5259
  895MOL0     H23488  12.593   7.511  10.020 -0.1315  2.7069  1.1078
  895MOL0     H23489  12.732   7.431   9.953 -1.3322  0.9076 -1.0960
  895MOL0     H23490  12.261   7.446  10.886 -1.0639  0.9091 -0.9195
  895MOL0     H23491  12.037   7.527  10.944  0.7013 -1.4246 -1.3857
  895MOL0     H23492  11.689   7.633  11.253  1.2491  0.8317  0.9679
  895MOL0     H23493  11.451   7.652  11.221  1.4782 -2.2494  0.7301
  895MOL0     H23494   9.414   7.739  10.655  1.9930  1.2752  2.1145
  895MOL0     H23495   9.198   7.777  10.543 -2.6916  2.5193 -2.3543
  895MOL0     H23496   8.924   7.948  10.502  1.1491  0.6875 -1.4138
  895MOL0     H23497   8.689   7.914  10.503  0.6152  0.7498  1.4240
  895MOL0     H23498   8.341   7.943  10.389 -0.1173  1.7748 -1.7358
  895MOL0     H23499   8.476   7.878  10.452  0.0133 -0.3730  0.9739
  895MOL0     H23500   8.500   8.052  10.621  1.6197  1.1543 -0.8546
  895MOL0     H23501   8.327   8.021  10.617 -0.8999 -0.1826 -3.3885
  895MOL0     H23502   8.485   8.256  10.505  0.1472  1.5048 -0.3869
  895MOL0     H23503   8.314   8.240  10.482 -0.2416  2.2723  1.8067
  895MOL0     H23504   8.411   8.375  10.672 -1.6553  0.7247 -1.4592
  895MOL0     H23505   8.414   8.222  10.765  0.3131  0.8172  0.1412
  895MOL0     H23506   8.009   8.343  10.746  0.4594  1.8164  0.1080
  895MOL0     H23507   8.648   8.134  10.138 -0.6454 -1.9308  0.4382
  895MOL0     H23508   8.840   8.181  10.032 -1.2298  0.3824  0.2935
  895MOL0     H23509   8.957   8.275  10.124 -3.1115  0.5901  0.5201
  895MOL0     H23510   9.010   8.119  10.066  2.6220  4.1096 -0.6049
  896MOL0     O23511   5.560   1.184   7.122 -0.5623  0.1199  0.2674
  896MOL0     C23512   5.555   1.181   7.243 -0.2511  0.6180  0.0596
  896MOL0     O23513   5.662   1.177   7.330  0.8738  0.0325  0.0063
  896MOL0     C23514   5.780   1.239   7.288 -0.2996 -0.5715 -0.7905
  896MOL0     C23515   5.794   1.359   7.211  0.8875 -0.1104 -0.3564
  896MOL0     C23516   5.914   1.423   7.181  0.4029 -0.0653  0.2375
  896MOL0     C23517   6.030   1.374   7.235 -0.9686  0.1143  0.2680
  896MOL0     O23518   6.144   1.443   7.189  0.0390  0.5499  0.2132
  896MOL0     C23519   6.248   1.468   7.278  0.4781 -0.7596 -0.3768
  896MOL0     C23520   6.384   1.450   7.212  0.2313 -0.1302  0.6806
  896MOL0     C23521   6.502   1.467   7.303  0.1284  0.2299  0.0462
  896MOL0     C23522   6.476   1.455   7.456  0.9234  0.3215 -0.0628
  896MOL0     C23523   6.604   1.457   7.543 -0.4046 -0.4495 -0.2670
  896MOL0     C23524   6.705   1.346   7.517  0.1984 -0.2789  0.3929
  896MOL0     C23525   6.835   1.354   7.606  1.5378 -1.2992  0.1141
  896MOL0     C23526   6.912   1.227   7.605 -0.1605  0.0797 -0.2363
  896MOL0     N23527   7.042   1.246   7.678 -0.1357 -0.4461  0.2344
  896MOL0     C23528   7.054   1.307   7.796 -0.9210 -0.0173 -1.2751
  896MOL0     C23529   7.179   1.276   7.849 -0.2820  0.0407 -0.0624
  896MOL0     C23530   7.232   1.316   7.989 -0.9987  0.6542 -0.0712
  896MOL0     C23531   7.346   1.426   7.975 -0.4758 -0.2730 -0.3527
  896MOL0     C23532   7.400   1.451   8.109 -0.4946 -0.4347  0.4965
  896MOL0     C23533   7.492   1.577   8.103 -1.0083 -0.3543 -0.0460
  896MOL0     O23534   7.548   1.606   8.235 -0.6972 -0.0029  0.0314
  896MOL0     C23535   7.648   1.700   8.227 -0.8198 -0.7867  0.0029
  896MOL0     C23536   7.643   1.809   8.144  0.5814  0.5220  0.0755
  896MOL0     C23537   7.743   1.916   8.146 -0.1080 -0.6139 -0.4488
  896MOL0     C23538   7.716   2.040   8.066  0.4075  0.3012 -0.1607
  896MOL0     C23539   7.860   1.889   8.226 -0.0780  0.8822  0.1349
  896MOL0     C23540   7.973   1.974   8.236 -0.2353 -0.2329  0.8182
  896MOL0     O23541   8.091   1.932   8.287  0.2935  0.2900  0.3706
  896MOL0     C23542   8.212   1.996   8.269  0.9412 -0.3863  0.4201
  896MOL0     C23543   8.247   2.081   8.160  0.0357  0.4245  0.8128
  896MOL0     C23544   8.363   2.151   8.149  0.8641  1.0149  0.6510
  896MOL0     C23545   8.457   2.136   8.247  0.3563 -0.1756  0.1490
  896MOL0     O23546   8.574   2.196   8.216  0.0142 -0.0893 -0.5398
  896MOL0     C23547   8.702   2.189   8.285 -0.2709  0.4246  0.7014
  896MOL0     C23548   8.804   2.273   8.211  0.6259  0.1604 -0.4526
  896MOL0     C23549   8.931   2.295   8.288 -0.2893  0.4040 -0.1519
  896MOL0     C23550   9.017   2.166   8.295 -0.6257 -0.7001 -0.8270
  896MOL0     C23551   9.151   2.193   8.369 -0.1670 -0.5074  0.9861
  896MOL0     C23552   9.245   2.289   8.305 -0.3293  0.2935  0.3432
  896MOL0     C23553   9.394   2.287   8.357  0.1083 -0.2224  0.2112
  896MOL0     C23554   9.464   2.156   8.330  0.0349 -0.0274  0.1723
  896MOL0    Cl23555   9.627   2.157   8.419  0.1852 -0.0190  0.4827
  896MOL0     C23556   8.434   2.042   8.351  0.9942  0.5292  0.2392
  896MOL0     C23557   8.309   1.982   8.365 -0.1533 -0.3174 -0.1685
  896MOL0     O23558   7.957   2.082   8.193 -0.2189 -0.0209 -0.0806
  896MOL0     C23559   7.865   1.780   8.310 -0.0459  0.3707  0.4993
  896MOL0     C23560   7.761   1.683   8.313  0.3129 -0.4748 -0.0686
  896MOL0     N23561   7.242   1.198   7.749  0.4126  0.2942  0.2671
  896MOL0     N23562   7.158   1.173   7.659  0.5612 -0.8741 -0.1698
  896MOL0     C23563   6.030   1.251   7.306 -0.0548 -0.4209 -0.8369
  896MOL0     C23564   5.901   1.196   7.345  0.3945  0.4038  0.3344
  896MOL0     C23565   5.427   1.158   7.304 -0.4275 -0.6036  0.3888
  896MOL0     C23566   5.425   1.110   7.434  0.5951 -0.1958  1.1500
  896MOL0     C23567   5.305   1.084   7.497 -0.1262 -0.1566 -0.0316
  896MOL0     C23568   5.177   1.111   7.444 -0.6462 -0.7762  0.1760
  896MOL0     O23569   5.074   1.089   7.527  0.2982 -0.7282 -0.7751
  896MOL0     C23570   4.954   1.173   7.503 -0.0446 -0.2490 -0.8296
  896MOL0     C23571   4.983   1.323   7.524 -0.3353  0.2253 -0.3961
  896MOL0     C23572   5.030   1.368   7.666  0.7154  0.0817  0.1727
  896MOL0     C23573   5.051   1.521   7.662 -0.5596  0.9714 -0.1701
  896MOL0     C23574   5.159   1.554   7.764  0.6333  0.1818 -0.7473
  896MOL0     C23575   5.219   1.593   7.865 -0.9069  0.8926  0.2088
  896MOL0     C23576   5.173   1.164   7.312 -0.3982 -0.1385 -0.5009
  896MOL0     C23577   5.295   1.183   7.242 -0.3835 -0.3065 -0.2991
  896MOL0     C23578   5.283   1.229   7.101  0.1701  0.0852 -0.1201
  896MOL0     H23579   5.705   1.417   7.187  1.2195  1.2957  1.5456
  896MOL0     H23580   5.931   1.517   7.128 -3.0283  2.2005  2.7546
  896MOL0     H23581   6.241   1.402   7.365 -1.7042 -0.7996 -0.5239
  896MOL0     H23582   6.241   1.566   7.325  0.4834 -0.3800 -1.1429
  896MOL0     H23583   6.390   1.343   7.188  0.8789 -0.2313  1.2627
  896MOL0     H23584   6.389   1.502   7.116 -1.3154 -2.4703 -0.7745
  896MOL0     H23585   6.581   1.397   7.273 -1.3533 -0.6016 -2.1101
  896MOL0     H23586   6.543   1.565   7.277  1.4963 -0.8149 -2.0256
  896MOL0     H23587   6.399   1.530   7.477 -1.7876 -1.9002 -1.2991
  896MOL0     H23588   6.427   1.359   7.475 -1.5574  1.2439 -1.2354
  896MOL0     H23589   6.570   1.438   7.645 -0.1055  0.0934 -0.0658
  896MOL0     H23590   6.654   1.554   7.538 -0.1444 -0.5954 -0.5758
  896MOL0     H23591   6.655   1.250   7.534  1.0597 -0.4886  1.9245
  896MOL0     H23592   6.743   1.340   7.415  1.8376  4.3528  0.4806
  896MOL0     H23593   6.796   1.381   7.705 -0.3500  1.5911 -1.2492
  896MOL0     H23594   6.902   1.436   7.578  0.2666 -0.4210 -0.4365
  896MOL0     H23595   6.853   1.152   7.658 -0.1231 -0.9475 -1.5845
  896MOL0     H23596   6.928   1.200   7.500 -1.5425  3.5498 -1.5098
  896MOL0     H23597   6.969   1.364   7.833 -1.4241  0.8138 -3.5693
  896MOL0     H23598   7.270   1.224   8.036  1.9904  1.0731 -1.3947
  896MOL0     H23599   7.156   1.357   8.056 -0.2910 -0.5648  1.5671
  896MOL0     H23600   7.420   1.374   7.914  0.5066 -1.9319  2.0817
  896MOL0     H23601   7.303   1.514   7.926 -0.7563 -1.0045 -1.4580
  896MOL0     H23602   7.315   1.471   8.174  1.2629  1.3480  2.3550
  896MOL0     H23603   7.455   1.363   8.144  2.2852  0.8686 -0.3050
  896MOL0     H23604   7.569   1.562   8.027  0.4793  2.0625  0.8680
  896MOL0     H23605   7.434   1.666   8.074 -0.9654 -0.6029 -0.9378
  896MOL0     H23606   7.559   1.825   8.078 -0.2505  0.7661  1.1767
  896MOL0     H23607   7.789   2.049   7.985 -1.2666  1.4205 -1.6396
  896MOL0     H23608   7.720   2.124   8.135 -0.5235  0.7848 -0.6743
  896MOL0     H23609   7.613   2.046   8.028 -1.0986 -1.6295  3.1369
  896MOL0     H23610   8.174   2.088   8.080 -0.2539 -1.1001  0.9017
  896MOL0     H23611   8.384   2.213   8.062 -1.4913  0.9378 -0.0429
  896MOL0     H23612   8.690   2.234   8.384  2.3352  2.1830  0.3264
  896MOL0     H23613   8.728   2.083   8.282 -0.4347  0.3055  2.5070
  896MOL0     H23614   8.827   2.229   8.114  1.1507 -0.0989 -0.2150
  896MOL0     H23615   8.750   2.369   8.212 -1.6667 -0.8992  4.0539
  896MOL0     H23616   8.908   2.337   8.387 -0.9060  2.9651 -1.2983
  896MOL0     H23617   8.980   2.376   8.233 -0.9432  0.7134 -0.2903
  896MOL0     H23618   9.037   2.130   8.193  1.7641  0.8842 -1.0011
  896MOL0     H23619   8.958   2.094   8.353  0.2296  0.1339  1.1428
  896MOL0     H23620   9.117   2.226   8.467 -3.9153  0.7707 -0.5575
  896MOL0     H23621   9.206   2.099   8.373  0.0818 -0.4125  0.0246
  896MOL0     H23622   9.207   2.391   8.311  0.7920  0.8358 -1.0749
  896MOL0     H23623   9.249   2.263   8.198  1.2194  0.4899  0.3324
  896MOL0     H23624   9.387   2.299   8.466 -4.4262  0.2551  0.0627
  896MOL0     H23625   9.452   2.374   8.326  0.4429 -0.6588 -0.4105
  896MOL0     H23626   9.487   2.136   8.225  0.7073 -0.6460  0.4288
  896MOL0     H23627   9.417   2.072   8.382 -1.3382  1.9511  2.3482
  896MOL0     H23628   8.510   2.023   8.427  1.5673  0.7191 -0.2807
  896MOL0     H23629   8.292   1.921   8.453  1.8272 -0.6282  0.0579
  896MOL0     H23630   7.939   1.760   8.388 -1.5553 -0.9035  1.6717
  896MOL0     H23631   7.750   1.596   8.376  2.2665  0.1180  1.1701
  896MOL0     H23632   6.119   1.192   7.327 -0.6477 -2.2072 -2.9828
  896MOL0     H23633   5.896   1.101   7.397  0.6776  0.0035 -0.3645
  896MOL0     H23634   5.517   1.089   7.488  0.8546 -0.9687  0.4307
  896MOL0     H23635   5.320   1.061   7.602  0.6009  0.8804  0.1093
  896MOL0     H23636   4.915   1.150   7.404  0.0309  0.7657 -1.1026
  896MOL0     H23637   4.873   1.144   7.571  0.0775  1.2090 -0.0292
  896MOL0     H23638   4.885   1.368   7.506 -0.4565 -0.8495 -2.7602
  896MOL0     H23639   5.053   1.357   7.447  0.3367  0.2184  0.1887
  896MOL0     H23640   4.957   1.349   7.745  0.8134 -0.5077  0.1271
  896MOL0     H23641   5.119   1.311   7.693  1.6376  0.4390 -1.9229
  896MOL0     H23642   4.962   1.581   7.684  0.7709  2.2945  1.8420
  896MOL0     H23643   5.094   1.562   7.570 -0.3682  0.7623 -0.1745
  896MOL0     H23644   5.290   1.630   7.936 -0.0376 -0.2932  0.0036
  896MOL0     H23645   5.082   1.195   7.262 -3.1191 -2.3204  2.6416
  896MOL0     H23646   5.319   1.332   7.104  1.0738 -0.2404  1.0234
  896MOL0     H23647   5.346   1.176   7.029 -0.7399  1.2338 -1.8260
  896MOL0     H23648   5.180   1.211   7.068  0.3219 -1.3435  0.1026
  897MOL0     O23649   8.946   0.098   2.819  0.5351  0.2381 -0.6008
  897MOL0     C23650   8.855   0.052   2.753  0.2775 -0.4283  1.4058
  897MOL0     O23651   8.835   0.063   2.611 -0.3775 -0.5977 -0.5976
  897MOL0     C23652   8.939   0.121   2.542  0.1183  0.3369 -0.3697
  897MOL0     C23653   9.046   0.051   2.483 -0.5788 -1.1904 -0.1352
  897MOL0     C23654   9.140   0.130   2.408  0.2443  0.4321 -0.8103
  897MOL0     C23655   9.120   0.265   2.374  0.7964 -0.1836  0.1085
  897MOL0     O23656   9.204   0.324   2.279 -0.2152  0.2546 -0.0412
  897MOL0     C23657   9.166   0.451   2.224  0.5328 -0.2401 -1.0525
  897MOL0     C23658   9.247   0.476   2.095 -0.4059  0.1194 -0.6418
  897MOL0     C23659   9.205   0.584   2.000 -0.6990 -0.0277 -0.4903
  897MOL0     C23660   9.053   0.598   1.988 -0.0666 -0.5017  1.0427
  897MOL0     C23661   9.011   0.723   1.917 -0.0193  0.4738 -0.3823
  897MOL0     C23662   9.016   0.851   1.996 -0.3268 -1.0312 -0.1763
  897MOL0     C23663   8.959   0.968   1.925  0.5218 -0.5477  0.2063
  897MOL0     C23664   8.934   1.088   2.011 -0.1909 -0.8359 -1.0371
  897MOL0     N23665   9.052   1.118   2.100  0.5557  0.6722  0.8560
  897MOL0     C23666   9.169   1.168   2.055 -1.3815 -0.5181  0.2440
  897MOL0     C23667   9.246   1.176   2.165  0.2594 -0.1687 -0.4002
  897MOL0     C23668   9.379   1.237   2.173 -0.2249 -1.3289 -0.3855
  897MOL0     C23669   9.461   1.173   2.284 -0.5229  0.0144 -0.2631
  897MOL0     C23670   9.596   1.248   2.295 -0.4495 -0.2332 -0.1713
  897MOL0     C23671   9.683   1.189   2.414  0.7406  0.0981  0.2413
  897MOL0     O23672   9.824   1.219   2.397 -0.0799 -0.1722  0.3364
  897MOL0     C23673   9.911   1.154   2.310 -0.2947  0.3689  0.0139
  897MOL0     C23674   9.876   1.044   2.233  0.0949  0.0960 -0.3215
  897MOL0     C23675   9.966   0.991   2.140  0.2125  0.3421 -0.3223
  897MOL0     C23676   9.926   0.857   2.070  0.1222 -0.2058  0.3690
  897MOL0     C23677  10.086   1.063   2.111  0.0628  0.9128  0.2770
  897MOL0     C23678  10.171   1.034   1.990 -1.1695  1.0612 -0.1627
  897MOL0     O23679  10.298   1.066   2.005 -0.3421 -0.7518  0.4774
  897MOL0     C23680  10.382   1.081   1.901 -0.5322  0.5095 -0.4448
  897MOL0     C23681  10.356   1.078   1.765 -0.0570  0.0696  0.3198
  897MOL0     C23682  10.466   1.112   1.681 -0.1254  1.0121 -0.7603
  897MOL0     C23683  10.588   1.141   1.731 -0.0168 -0.2323 -0.0531
  897MOL0     O23684  10.680   1.168   1.638  0.2221  0.7145 -0.4823
  897MOL0     C23685  10.778   1.257   1.667 -0.6571  0.0886  0.0674
  897MOL0     C23686  10.855   1.291   1.541  0.4520  0.7348 -1.1538
  897MOL0     C23687  10.761   1.338   1.437  0.6746  0.2509 -0.5075
  897MOL0     C23688  10.823   1.398   1.316 -0.4940 -0.0377 -0.7067
  897MOL0     C23689  10.718   1.414   1.213  0.1282 -0.1004 -0.8078
  897MOL0     C23690  10.778   1.495   1.098 -1.0736 -0.0021  0.5143
  897MOL0     C23691  10.897   1.414   1.025  0.2239  0.7241 -0.0031
  897MOL0     C23692  10.950   1.489   0.899  0.7722  0.0448  0.0397
  897MOL0    Cl23693  10.807   1.509   0.793  0.4212  0.3567 -0.3681
  897MOL0     C23694  10.616   1.140   1.863  0.0097  0.4366 -0.1244
  897MOL0     C23695  10.515   1.100   1.950  0.3003  0.7334 -0.3544
  897MOL0     O23696  10.117   0.982   1.889  0.3454  0.3980 -0.0731
  897MOL0     C23697  10.119   1.177   2.184  0.8106 -1.2288 -1.1339
  897MOL0     C23698  10.033   1.225   2.285 -0.0494  0.4158 -0.5778
  897MOL0     N23699   9.167   1.130   2.270 -0.1341  0.7857 -0.0171
  897MOL0     N23700   9.055   1.095   2.232 -0.2211 -0.4632  0.1631
  897MOL0     C23701   9.008   0.329   2.433 -0.1785 -0.2487  0.3690
  897MOL0     C23702   8.929   0.261   2.519  0.7211  0.3004 -0.2916
  897MOL0     C23703   8.735  -0.011   2.827  0.2106 -0.0795 -0.8465
  897MOL0     C23704   8.607  -0.010   2.766  0.0174  0.3583  0.5115
  897MOL0     C23705   8.490  -0.049   2.834 -0.1864 -0.6139 -0.0185
  897MOL0     C23706   8.496  -0.103   2.965  0.3952 -0.5062  0.4527
  897MOL0     O23707   8.378  -0.142   3.024  0.1209 -0.3966  0.0071
  897MOL0     C23708   8.385  -0.235   3.139  0.7900 -0.9099  0.8112
  897MOL0     C23709   8.248  -0.309   3.170 -0.7378  0.1355 -0.4393
  897MOL0     C23710   8.142  -0.268   3.067 -0.2928 -0.2545  0.8754
  897MOL0     C23711   8.014  -0.353   3.074 -1.2813 -0.4374  0.0235
  897MOL0     C23712   8.032  -0.498   3.047  0.1917  0.4877 -0.5001
  897MOL0     C23713   8.048  -0.618   3.038  0.2433 -0.3784 -0.2769
  897MOL0     C23714   8.626  -0.114   3.022 -0.2801  0.1231  0.1577
  897MOL0     C23715   8.744  -0.073   2.958  0.7004 -0.6380  0.6426
  897MOL0     C23716   8.871  -0.082   3.035  0.4349 -0.3124  0.1682
  897MOL0     H23717   9.061  -0.053   2.510  1.8426 -1.1322 -0.9653
  897MOL0     H23718   9.231   0.084   2.371  0.5196  0.1638  0.1793
  897MOL0     H23719   9.166   0.538   2.290 -0.0560  0.0004 -1.3574
  897MOL0     H23720   9.062   0.433   2.196  0.5532 -2.6509  0.1472
  897MOL0     H23721   9.351   0.494   2.126  0.3106 -4.6662  0.4652
  897MOL0     H23722   9.247   0.387   2.032 -0.0486 -1.0720  0.9934
  897MOL0     H23723   9.257   0.673   2.038  1.9772 -1.2517 -1.0599
  897MOL0     H23724   9.246   0.590   1.899 -1.6459  1.2843 -0.8231
  897MOL0     H23725   9.008   0.513   1.936  0.0521 -0.0867  0.2490
  897MOL0     H23726   9.011   0.600   2.090 -1.4551 -0.3278  0.4866
  897MOL0     H23727   8.906   0.709   1.889 -0.8136  1.4570  1.8393
  897MOL0     H23728   9.073   0.732   1.828 -0.3006  1.6204 -0.4756
  897MOL0     H23729   8.951   0.844   2.084 -2.2875 -1.7954 -1.6324
  897MOL0     H23730   9.120   0.865   2.027 -0.3845 -0.6196 -0.1635
  897MOL0     H23731   8.865   0.940   1.876  0.7942  1.4317 -1.5992
  897MOL0     H23732   9.032   0.986   1.846  1.7275 -1.5426  1.0643
  897MOL0     H23733   8.903   1.175   1.953 -1.8539 -0.6301  0.0811
  897MOL0     H23734   8.856   1.055   2.080 -0.7182 -2.7340 -2.4753
  897MOL0     H23735   9.198   1.211   1.960  0.5732  0.9746  1.4243
  897MOL0     H23736   9.360   1.342   2.200 -0.9095 -2.1425  2.6754
  897MOL0     H23737   9.433   1.243   2.078 -0.1677  0.1340 -0.2958
  897MOL0     H23738   9.412   1.171   2.382  0.3691 -0.1472  0.1818
  897MOL0     H23739   9.488   1.073   2.248  1.5604  0.2978  0.4065
  897MOL0     H23740   9.661   1.263   2.209  0.7388  1.3502  0.9470
  897MOL0     H23741   9.563   1.348   2.323 -0.6188  0.3244 -2.2406
  897MOL0     H23742   9.632   1.222   2.505  0.0411  0.1263 -0.1578
  897MOL0     H23743   9.668   1.081   2.419  0.2366  0.1720  0.3833
  897MOL0     H23744   9.778   0.998   2.245  0.0276  0.9874  4.0533
  897MOL0     H23745   9.913   0.877   1.963  0.1358 -0.6310  0.2872
  897MOL0     H23746   9.832   0.812   2.105 -1.8094  3.7543  0.8629
  897MOL0     H23747  10.010   0.787   2.075 -0.4628 -1.1605 -2.0785
  897MOL0     H23748  10.260   1.056   1.718  0.7899  0.0184 -1.4628
  897MOL0     H23749  10.452   1.119   1.573  2.8423  2.0851 -1.1559
  897MOL0     H23750  10.744   1.343   1.726  1.1575  0.2175  0.9974
  897MOL0     H23751  10.852   1.208   1.731  0.2068  1.1936 -0.0553
  897MOL0     H23752  10.922   1.377   1.554 -1.7011  2.3891 -0.4371
  897MOL0     H23753  10.910   1.199   1.518  0.8328  0.3927  0.9192
  897MOL0     H23754  10.681   1.398   1.482 -0.7578 -0.4097 -2.0838
  897MOL0     H23755  10.698   1.251   1.418  1.9645 -0.8957  0.3395
  897MOL0     H23756  10.906   1.337   1.280 -0.1982  0.2371 -0.4940
  897MOL0     H23757  10.867   1.495   1.340  1.5047 -0.9335 -0.5730
  897MOL0     H23758  10.689   1.314   1.178 -2.4463 -0.0685  0.9416
  897MOL0     H23759  10.629   1.465   1.251 -0.3363  0.4160 -2.5333
  897MOL0     H23760  10.805   1.594   1.135  0.5710 -1.2399  2.9342
  897MOL0     H23761  10.703   1.517   1.022 -1.3123 -2.9798 -0.2337
  897MOL0     H23762  10.862   1.316   0.993  1.3802  1.0274 -2.4261
  897MOL0     H23763  10.984   1.409   1.091  0.4806  1.3685 -0.2765
  897MOL0     H23764  11.020   1.416   0.857 -1.5517 -2.7022  0.6205
  897MOL0     H23765  10.987   1.589   0.924 -0.8666  0.4774  0.8506
  897MOL0     H23766  10.716   1.164   1.900  0.0990  1.8810 -1.2332
  897MOL0     H23767  10.528   1.095   2.058 -1.4383  0.0917 -0.1525
  897MOL0     H23768  10.215   1.223   2.161 -0.1206 -0.2575 -3.4639
  897MOL0     H23769  10.058   1.316   2.339  0.9753 -1.0117  1.4909
  897MOL0     H23770   8.982   0.431   2.408 -0.4724 -1.2165 -3.9150
  897MOL0     H23771   8.838   0.312   2.547  0.1018 -0.9957  0.1622
  897MOL0     H23772   8.618   0.021   2.663  0.0413 -1.0866  0.0727
  897MOL0     H23773   8.397  -0.045   2.778 -0.5919 -0.2289  0.6716
  897MOL0     H23774   8.463  -0.311   3.124 -0.7880 -2.3729 -0.2980
  897MOL0     H23775   8.419  -0.177   3.226 -0.0879 -1.9355  1.8684
  897MOL0     H23776   8.214  -0.289   3.272 -1.9303 -1.5009 -0.4836
  897MOL0     H23777   8.274  -0.414   3.156 -1.3260 -0.2293  0.9884
  897MOL0     H23778   8.115  -0.163   3.076  0.5615 -0.1132  2.1759
  897MOL0     H23779   8.188  -0.269   2.968  0.3295  2.8303  1.0558
  897MOL0     H23780   7.945  -0.309   3.001 -3.0900  0.3434  2.1046
  897MOL0     H23781   7.961  -0.347   3.170 -1.2898  1.0776 -0.0641
  897MOL0     H23782   8.076  -0.721   3.040 -0.2692 -0.5486 -1.3949
  897MOL0     H23783   8.633  -0.161   3.119  0.2503  1.7265  0.9319
  897MOL0     H23784   8.900   0.020   3.062 -0.9424  0.0931  0.2071
  897MOL0     H23785   8.848  -0.143   3.123 -0.2219 -0.1277  0.1343
  897MOL0     H23786   8.948  -0.135   2.978 -1.9202 -4.2848  0.2662
  898MOL0     O23787   3.860  11.155   5.058  0.1310  0.3901 -0.1001
  898MOL0     C23788   3.802  11.203   4.964  0.1512 -0.0736  0.2708
  898MOL0     O23789   3.861  11.215   4.836 -0.6460 -0.0163  0.6048
  898MOL0     C23790   3.992  11.187   4.824  0.6718  0.3246  0.8094
  898MOL0     C23791   4.086  11.283   4.793 -0.7739 -0.0425  0.9555
  898MOL0     C23792   4.225  11.250   4.790 -0.3184  0.2088  0.0271
  898MOL0     C23793   4.252  11.111   4.785  0.0764 -1.5013 -0.8898
  898MOL0     O23794   4.379  11.081   4.741  0.5100  0.2503 -0.2347
  898MOL0     C23795   4.439  10.971   4.798 -0.0074  0.5548 -0.2546
  898MOL0     C23796   4.564  10.941   4.715  0.5394  0.1817 -0.3584
  898MOL0     C23797   4.645  11.065   4.688  0.1998 -0.7067 -0.2606
  898MOL0     C23798   4.787  11.031   4.665 -0.4118  0.7892  0.0540
  898MOL0     C23799   4.880  11.140   4.640 -1.0120 -0.1155  0.1640
  898MOL0     C23800   5.028  11.096   4.653  0.4851  0.1943  0.5028
  898MOL0     C23801   5.068  11.027   4.520 -0.4362 -0.1937  0.1825
  898MOL0     C23802   5.218  11.040   4.488 -0.6658 -0.6688  0.4174
  898MOL0     N23803   5.268  11.175   4.448  0.7285 -0.1193  0.0422
  898MOL0     C23804   5.291  11.216   4.321  0.1384  0.1385 -0.2006
  898MOL0     C23805   5.375  11.319   4.328  0.5741 -0.6066  0.1219
  898MOL0     C23806   5.439  11.370   4.201  0.6001  0.2209  0.1151
  898MOL0     C23807   5.534  11.279   4.134 -0.3663 -0.2505  0.4464
  898MOL0     C23808   5.641  11.243   4.247  0.3389  0.1859  0.5440
  898MOL0     C23809   5.764  11.164   4.196  0.1680 -0.2271 -0.4039
  898MOL0     O23810   5.833  11.241   4.096  0.3034 -0.1361 -0.9715
  898MOL0     C23811   5.975  11.233   4.085  0.2401  0.7977 -0.7316
  898MOL0     C23812   6.044  11.117   4.127  0.1454  0.1429 -0.2190
  898MOL0     C23813   6.184  11.112   4.131 -0.0461 -0.0407  0.1807
  898MOL0     C23814   6.250  10.984   4.179  0.6169 -0.3183  0.8248
  898MOL0     C23815   6.259  11.226   4.087  0.9301 -0.3156  0.7942
  898MOL0     C23816   6.408  11.235   4.081 -0.6873 -0.2759 -0.2974
  898MOL0     O23817   6.484  11.183   4.183 -0.9662 -0.4676 -0.2948
  898MOL0     C23818   6.615  11.192   4.161 -0.0086 -0.0906  0.4690
  898MOL0     C23819   6.691  11.282   4.228  0.2604 -0.4269  0.5447
  898MOL0     C23820   6.825  11.294   4.220  0.0207 -0.0596 -0.0088
  898MOL0     C23821   6.890  11.208   4.132 -0.0909 -0.6189  0.1772
  898MOL0     O23822   7.022  11.215   4.104  0.0266 -0.2169 -0.0509
  898MOL0     C23823   7.106  11.289   4.200 -1.0916 -0.5835 -0.2189
  898MOL0     C23824   7.242  11.232   4.173 -0.1519 -0.0973  0.0735
  898MOL0     C23825   7.348  11.322   4.235 -0.2230  0.0819 -0.9416
  898MOL0     C23826   7.487  11.307   4.181  0.2750  0.4554  0.3832
  898MOL0     C23827   7.557  11.184   4.238 -0.1100  0.4513  0.0130
  898MOL0     C23828   7.683  11.165   4.162  0.0688  0.5557  0.2616
  898MOL0     C23829   7.762  11.044   4.212 -0.2780 -0.3845  1.3350
  898MOL0     C23830   7.888  11.109   4.289  0.7916  0.8700  0.6693
  898MOL0    Cl23831   8.010  10.974   4.331  0.4249 -0.2102  0.3858
  898MOL0     C23832   6.822  11.113   4.052  0.1547 -0.0029  0.3764
  898MOL0     C23833   6.684  11.105   4.074  0.1875  0.4485 -0.5817
  898MOL0     O23834   6.458  11.288   3.984 -0.5287  0.1073  0.7536
  898MOL0     C23835   6.183  11.335   4.035 -0.5248 -0.6058 -0.8621
  898MOL0     C23836   6.048  11.340   4.036  0.7812 -0.2184  0.0033
  898MOL0     N23837   5.396  11.348   4.462 -0.0945  0.4686  0.5039
  898MOL0     N23838   5.327  11.268   4.530  0.2094 -0.0237  0.9989
  898MOL0     C23839   4.157  11.010   4.805  0.1267  0.3811  0.1457
  898MOL0     C23840   4.029  11.049   4.826  0.8049 -0.0714 -0.8708
  898MOL0     C23841   3.662  11.249   4.976  0.0293 -0.3709 -0.2523
  898MOL0     C23842   3.607  11.296   4.861 -0.5571  0.2693  0.2639
  898MOL0     C23843   3.483  11.359   4.854 -0.4339  0.2324 -0.4651
  898MOL0     C23844   3.413  11.381   4.976 -0.0943 -0.2051 -0.5502
  898MOL0     O23845   3.287  11.436   4.982  0.3146 -0.1344 -0.3760
  898MOL0     C23846   3.263  11.554   4.898  0.3320 -0.2527  0.2818
  898MOL0     C23847   3.174  11.664   4.954 -0.1094  0.0741  0.5462
  898MOL0     C23848   3.140  11.772   4.840  0.3556  0.2639  0.0134
  898MOL0     C23849   3.260  11.842   4.767 -0.2278 -0.6621  0.3534
  898MOL0     C23850   3.217  11.963   4.685 -0.4757 -0.5364 -0.0052
  898MOL0     C23851   3.189  12.059   4.621  0.1716 -0.0315 -0.5216
  898MOL0     C23852   3.458  11.317   5.085 -0.6077 -0.6979 -0.7834
  898MOL0     C23853   3.578  11.248   5.085 -0.0364 -0.4605 -0.3470
  898MOL0     C23854   3.619  11.196   5.218  0.0261 -0.0549  0.1604
  898MOL0     H23855   4.068  11.389   4.779  3.2704  0.8780  1.4109
  898MOL0     H23856   4.309  11.316   4.770 -0.6111  0.6210  0.1500
  898MOL0     H23857   4.372  10.886   4.810 -0.1088  0.6424 -0.1948
  898MOL0     H23858   4.460  11.005   4.900 -0.5841  2.5900 -0.7650
  898MOL0     H23859   4.625  10.865   4.765  1.4448 -0.1041 -1.8529
  898MOL0     H23860   4.529  10.904   4.618  3.8963  0.2142 -1.7270
  898MOL0     H23861   4.595  11.133   4.619 -1.1688 -1.2991  0.1218
  898MOL0     H23862   4.639  11.127   4.778  2.3337 -0.7284 -0.0510
  898MOL0     H23863   4.818  10.975   4.753 -0.4220 -0.6565 -0.8264
  898MOL0     H23864   4.789  10.960   4.582 -2.0812 -0.4751  1.0428
  898MOL0     H23865   4.859  11.224   4.707  1.5431  0.2469  0.6114
  898MOL0     H23866   4.863  11.187   4.542  1.8127  0.2455 -0.2306
  898MOL0     H23867   5.083  11.189   4.669  0.4893  0.5933 -1.5100
  898MOL0     H23868   5.049  11.033   4.740  2.3918 -1.3416 -0.9848
  898MOL0     H23869   5.007  11.059   4.435 -0.5155  1.3699  0.8036
  898MOL0     H23870   5.046  10.921   4.539  3.8763 -1.2915  0.2503
  898MOL0     H23871   5.282  11.015   4.573  2.5647 -0.3873 -1.7541
  898MOL0     H23872   5.231  10.975   4.401 -1.4140  0.5947 -0.6776
  898MOL0     H23873   5.265  11.152   4.236  6.0351 -3.9159  0.4673
  898MOL0     H23874   5.490  11.462   4.231  2.0740 -0.5972  0.1851
  898MOL0     H23875   5.359  11.388   4.128  2.2078 -0.6185 -1.9414
  898MOL0     H23876   5.474  11.190   4.114 -0.6692 -0.4908  2.3129
  898MOL0     H23877   5.588  11.323   4.049  1.1612 -1.3833  0.7826
  898MOL0     H23878   5.682  11.331   4.297 -0.7750  0.4007  1.0985
  898MOL0     H23879   5.596  11.190   4.331 -0.2136 -1.5950 -0.8118
  898MOL0     H23880   5.832  11.146   4.280 -1.7821 -1.2986  1.0138
  898MOL0     H23881   5.732  11.067   4.159  0.1309 -1.6482  2.9899
  898MOL0     H23882   5.987  11.028   4.152  0.5968 -0.1687 -0.2852
  898MOL0     H23883   6.185  10.899   4.156  1.4819 -0.6617 -0.4407
  898MOL0     H23884   6.267  11.001   4.286  1.9656  2.5693  0.2725
  898MOL0     H23885   6.343  10.967   4.125 -0.5098  0.6305 -1.5303
  898MOL0     H23886   6.622  11.344   4.284  0.2228 -0.2523  0.3109
  898MOL0     H23887   6.863  11.382   4.271 -1.1812  0.5843 -0.1971
  898MOL0     H23888   7.119  11.397   4.184  0.2140 -0.5548  0.8467
  898MOL0     H23889   7.073  11.263   4.301  0.2501 -2.7799 -0.2823
  898MOL0     H23890   7.252  11.126   4.199  2.2390 -0.2614 -1.2023
  898MOL0     H23891   7.260  11.227   4.065  0.0095 -0.5547  0.1160
  898MOL0     H23892   7.352  11.293   4.340 -0.8653  1.4945 -0.5109
  898MOL0     H23893   7.327  11.426   4.209  0.8003  0.1650 -1.4957
  898MOL0     H23894   7.553  11.392   4.205  1.5373 -0.7239  1.2123
  898MOL0     H23895   7.481  11.314   4.072 -0.2173  2.3312  0.4839
  898MOL0     H23896   7.566  11.189   4.347 -1.6020 -1.6810  0.2813
  898MOL0     H23897   7.493  11.096   4.228 -0.0597  0.3240  0.7707
  898MOL0     H23898   7.737  11.258   4.147  1.3308 -0.2442 -0.2450
  898MOL0     H23899   7.654  11.134   4.061  2.5993 -0.4181 -0.2321
  898MOL0     H23900   7.807  10.997   4.124  0.4482  0.0144  1.4823
  898MOL0     H23901   7.707  10.971   4.273 -2.2125  0.3204  0.5201
  898MOL0     H23902   7.858  11.160   4.382  1.5778  3.9464 -0.6459
  898MOL0     H23903   7.939  11.184   4.228 -2.2423  3.0928  0.6037
  898MOL0     H23904   6.882  11.043   3.995  2.5033  4.2063 -2.9070
  898MOL0     H23905   6.619  11.029   4.032  1.4819 -1.6949  1.0507
  898MOL0     H23906   6.236  11.421   3.994 -2.2637  1.3648  0.7282
  898MOL0     H23907   6.007  11.431   3.992  1.5507 -0.1984 -0.7106
  898MOL0     H23908   4.179  10.905   4.791  1.2700  0.8767 -2.2455
  898MOL0     H23909   3.951  10.979   4.853 -1.0489  0.6053 -4.0113
  898MOL0     H23910   3.659  11.297   4.766  0.7956  0.9946  0.9879
  898MOL0     H23911   3.442  11.395   4.761  0.5495  2.0935 -0.2160
  898MOL0     H23912   3.357  11.604   4.870 -0.3054  0.0728 -1.3505
  898MOL0     H23913   3.223  11.516   4.804 -0.1686  0.4961  0.1898
  898MOL0     H23914   3.224  11.716   5.036  0.0477  0.1409  0.4087
  898MOL0     H23915   3.085  11.617   4.997 -0.4920 -0.5485 -0.8660
  898MOL0     H23916   3.071  11.727   4.768 -0.4319  0.8310  0.3966
  898MOL0     H23917   3.086  11.855   4.886 -1.4870 -0.6538 -0.3875
  898MOL0     H23918   3.301  11.764   4.702 -3.1979  0.2410 -2.8547
  898MOL0     H23919   3.332  11.881   4.840 -0.2937  2.4904 -1.1369
  898MOL0     H23920   3.169  12.145   4.561 -1.3239 -1.7060 -2.5764
  898MOL0     H23921   3.395  11.311   5.174  0.0420 -0.3622 -0.2892
  898MOL0     H23922   3.569  11.239   5.305 -0.5502 -0.7418  0.1770
  898MOL0     H23923   3.601  11.088   5.223 -1.0247  0.1617  2.7961
  898MOL0     H23924   3.726  11.215   5.234 -0.4526  1.4246  1.9599
  899MOL0     O23925   6.386   1.544   1.935  0.6945 -0.1081  0.2574
  899MOL0     C23926   6.406   1.563   1.813 -0.4410  0.8064  0.9622
  899MOL0     O23927   6.527   1.546   1.756  0.1085 -0.5419 -0.2112
  899MOL0     C23928   6.628   1.519   1.849 -0.1159  0.2537 -0.2021
  899MOL0     C23929   6.665   1.386   1.877  0.2853  0.2611 -1.2221
  899MOL0     C23930   6.764   1.366   1.972 -0.0050  0.0088  0.1638
  899MOL0     C23931   6.820   1.475   2.042 -0.3995  0.2782 -0.2533
  899MOL0     O23932   6.901   1.449   2.149 -0.0695 -1.1392 -1.2530
  899MOL0     C23933   6.831   1.468   2.274 -0.5009 -0.3256  0.3739
  899MOL0     C23934   6.924   1.445   2.400  0.0513 -0.1226  0.5068
  899MOL0     C23935   7.053   1.533   2.398  0.7066  0.4391  0.1336
  899MOL0     C23936   7.138   1.531   2.524  0.7504 -0.5294 -0.2151
  899MOL0     C23937   7.261   1.613   2.515  0.3682 -1.3644  0.0774
  899MOL0     C23938   7.375   1.567   2.422  0.2496  0.1002  0.4789
  899MOL0     C23939   7.437   1.426   2.446 -0.4070  0.3072  0.4343
  899MOL0     C23940   7.579   1.408   2.397 -1.1459  0.4472 -0.4647
  899MOL0     N23941   7.675   1.470   2.484  0.6700  0.3593  0.7588
  899MOL0     C23942   7.702   1.604   2.501  0.4788 -0.8703 -0.5017
  899MOL0     C23943   7.756   1.608   2.626  0.1756  0.2940 -0.1835
  899MOL0     C23944   7.797   1.731   2.704  0.1032  0.2454  0.0951
  899MOL0     C23945   7.940   1.768   2.679 -0.4416 -0.6007  0.7282
  899MOL0     C23946   8.037   1.672   2.737  0.4725  0.8365 -0.6453
  899MOL0     C23947   8.138   1.746   2.818  0.8363  0.6011  0.2056
  899MOL0     O23948   8.208   1.843   2.732  0.1314  0.5218  0.2319
  899MOL0     C23949   8.342   1.835   2.752  0.5027  0.2080  0.7588
  899MOL0     C23950   8.423   1.748   2.678  0.2543 -0.0111 -0.6365
  899MOL0     C23951   8.554   1.728   2.717  0.0290  0.6876  0.5678
  899MOL0     C23952   8.632   1.621   2.645 -0.2039 -0.3774  0.3833
  899MOL0     C23953   8.614   1.813   2.816  0.1170  0.7917  0.2632
  899MOL0     C23954   8.746   1.793   2.872  0.0655  0.2377 -0.4268
  899MOL0     O23955   8.819   1.908   2.891 -0.2162 -0.3214  0.3680
  899MOL0     C23956   8.957   1.905   2.885  0.8965 -0.7586  0.2818
  899MOL0     C23957   9.033   1.834   2.792  0.1032 -0.0487  0.8532
  899MOL0     C23958   9.171   1.835   2.789  0.9826  0.3875 -0.1472
  899MOL0     C23959   9.239   1.910   2.883  0.0725 -0.7595  0.4448
  899MOL0     O23960   9.373   1.919   2.900 -0.1567 -0.2658 -0.6511
  899MOL0     C23961   9.453   1.846   2.814 -0.1623  0.1789 -0.1598
  899MOL0     C23962   9.604   1.877   2.838 -0.4718 -0.3232  0.2306
  899MOL0     C23963   9.640   2.016   2.795  0.5730 -0.6740 -0.5641
  899MOL0     C23964   9.788   2.041   2.823  0.9437  0.2518 -0.5561
  899MOL0     C23965   9.830   2.183   2.781  0.1464  0.0202 -0.3351
  899MOL0     C23966   9.852   2.194   2.629  0.0887 -0.1508  0.2288
  899MOL0     C23967   9.982   2.118   2.588 -0.3305  0.4231  0.1410
  899MOL0     C23968  10.001   2.098   2.433 -0.6783 -0.5377 -0.1004
  899MOL0    Cl23969   9.874   1.981   2.368  0.1800  0.0548  0.3563
  899MOL0     C23970   9.171   1.997   2.965  0.4540 -0.4529  1.0504
  899MOL0     C23971   9.034   1.992   2.967  1.3433  0.1317  0.6321
  899MOL0     O23972   8.782   1.673   2.881 -0.3508  0.1129  0.7271
  899MOL0     C23973   8.534   1.907   2.879 -1.2195  0.0202  0.3356
  899MOL0     C23974   8.393   1.910   2.858 -0.6491 -0.0120 -0.2601
  899MOL0     N23975   7.763   1.478   2.687 -0.3619  0.0870  0.6761
  899MOL0     N23976   7.714   1.400   2.595 -0.3027  0.7218 -0.4664
  899MOL0     C23977   6.784   1.601   2.017 -0.3044  0.5817 -0.3060
  899MOL0     C23978   6.685   1.623   1.923  0.1087 -0.3071  0.5090
  899MOL0     C23979   6.283   1.590   1.725 -1.1225 -0.6941  0.1189
  899MOL0     C23980   6.294   1.563   1.589  0.1518  0.2779  0.0457
  899MOL0     C23981   6.185   1.579   1.500 -0.4897  0.3143  0.1935
  899MOL0     C23982   6.063   1.622   1.546 -0.0635  0.2324  0.0699
  899MOL0     O23983   5.962   1.636   1.451 -0.3278  0.9328  0.2648
  899MOL0     C23984   5.828   1.635   1.496 -0.0943 -0.0097 -0.1337
  899MOL0     C23985   5.786   1.507   1.574  0.0431  0.1134 -0.2244
  899MOL0     C23986   5.631   1.485   1.580 -0.5226 -0.8227  0.8735
  899MOL0     C23987   5.555   1.600   1.637  0.8510 -0.0880 -0.0368
  899MOL0     C23988   5.416   1.589   1.590  0.2468 -0.0359 -0.8732
  899MOL0     C23989   5.306   1.573   1.540 -0.0100  0.3764  0.2065
  899MOL0     C23990   6.051   1.664   1.680 -0.0002 -0.8210  0.9246
  899MOL0     C23991   6.163   1.650   1.769 -0.5750 -0.1846  0.6453
  899MOL0     C23992   6.154   1.701   1.905  0.9904 -0.5429 -0.6496
  899MOL0     H23993   6.615   1.301   1.831  1.2758 -1.5797  0.9383
  899MOL0     H23994   6.796   1.265   1.993 -2.6974 -1.7070 -2.9998
  899MOL0     H23995   6.746   1.400   2.283 -0.7793 -0.1752 -0.9017
  899MOL0     H23996   6.786   1.567   2.276 -1.6047 -0.7547 -1.1183
  899MOL0     H23997   6.858   1.475   2.482 -0.0065 -0.9044  0.7557
  899MOL0     H23998   6.948   1.340   2.419  0.4244 -0.2942 -0.8117
  899MOL0     H23999   7.110   1.500   2.310 -0.8930  1.0462 -1.1885
  899MOL0     H24000   7.027   1.637   2.376  2.1848  0.9273  0.6188
  899MOL0     H24001   7.081   1.566   2.611 -0.0576  0.2716 -1.0389
  899MOL0     H24002   7.159   1.428   2.556 -0.8606  0.1929  3.9232
  899MOL0     H24003   7.299   1.624   2.617 -1.7676  0.4462  0.7735
  899MOL0     H24004   7.239   1.714   2.478 -0.5816 -0.4373  2.9468
  899MOL0     H24005   7.332   1.562   2.322 -1.0434 -0.9645  1.0404
  899MOL0     H24006   7.455   1.642   2.423  0.8806 -0.5605  0.5045
  899MOL0     H24007   7.382   1.348   2.393  1.9250 -0.5441 -0.8671
  899MOL0     H24008   7.424   1.409   2.554 -0.8939 -1.2970  0.1580
  899MOL0     H24009   7.604   1.302   2.404  1.8428  1.1092  0.9085
  899MOL0     H24010   7.577   1.439   2.293 -2.5404 -1.8664 -1.1974
  899MOL0     H24011   7.678   1.691   2.440  0.5989  0.6833  1.5483
  899MOL0     H24012   7.786   1.712   2.811  0.1544 -1.7445 -0.2146
  899MOL0     H24013   7.723   1.807   2.678 -0.3896 -0.8035 -1.7159
  899MOL0     H24014   7.964   1.773   2.572 -2.3780  3.0207  0.3002
  899MOL0     H24015   7.963   1.865   2.724  3.2844 -0.9343 -0.0868
  899MOL0     H24016   7.990   1.624   2.822  0.2073  2.9377  0.4678
  899MOL0     H24017   8.079   1.608   2.659 -0.7178 -0.3063 -0.3759
  899MOL0     H24018   8.085   1.789   2.904 -2.0527 -2.5788  0.2267
  899MOL0     H24019   8.207   1.668   2.851  0.5817  0.1964 -0.2154
  899MOL0     H24020   8.374   1.694   2.598 -2.7117  0.9476  0.4243
  899MOL0     H24021   8.652   1.536   2.710 -1.3732  0.0494  1.3288
  899MOL0     H24022   8.730   1.659   2.614  0.2529 -1.5438  0.3582
  899MOL0     H24023   8.578   1.591   2.555 -0.6743  0.6850  0.2887
  899MOL0     H24024   8.987   1.762   2.726  1.6151  0.0909 -0.4129
  899MOL0     H24025   9.216   1.770   2.714 -0.7072 -1.0867  0.0456
  899MOL0     H24026   9.420   1.741   2.816  1.6314 -0.4153  0.9608
  899MOL0     H24027   9.439   1.888   2.715 -4.7256  0.0577  0.2337
  899MOL0     H24028   9.621   1.851   2.943  0.0523  0.6979  0.4105
  899MOL0     H24029   9.667   1.805   2.785 -1.3482 -1.2510  0.4023
  899MOL0     H24030   9.580   2.087   2.852  0.7479 -0.0877 -1.0992
  899MOL0     H24031   9.620   2.017   2.688 -2.7633  0.6344 -0.0414
  899MOL0     H24032   9.843   1.955   2.784 -0.6811  0.0083 -2.4857
  899MOL0     H24033   9.805   2.037   2.931  0.8198 -4.0744 -0.5253
  899MOL0     H24034   9.753   2.254   2.810 -0.6057 -0.0439 -2.0286
  899MOL0     H24035   9.920   2.219   2.832  0.7016 -1.3425 -0.2954
  899MOL0     H24036   9.864   2.295   2.589  1.0612 -1.1397 -2.1951
  899MOL0     H24037   9.766   2.151   2.576 -0.3067  1.2835 -0.3531
  899MOL0     H24038   9.993   2.022   2.638  2.5248  0.8102  0.4404
  899MOL0     H24039  10.062   2.182   2.629  0.6594  0.7433 -2.1297
  899MOL0     H24040  10.101   2.061   2.413 -0.4757  0.2367 -0.5299
  899MOL0     H24041  10.004   2.190   2.375  1.1303 -1.8917 -2.2961
  899MOL0     H24042   9.227   2.053   3.041 -0.8432 -0.6968  2.2318
  899MOL0     H24043   8.983   2.062   3.032 -1.8454 -1.3961 -0.0466
  899MOL0     H24044   8.579   1.976   2.950 -1.1507 -0.8665  1.1780
  899MOL0     H24045   8.322   1.958   2.925  0.4647  2.2374 -0.5689
  899MOL0     H24046   6.832   1.687   2.062 -2.2164  1.9418 -0.7513
  899MOL0     H24047   6.656   1.722   1.888 -1.3664 -1.3227 -1.3010
  899MOL0     H24048   6.381   1.518   1.542  1.7298  3.8650 -0.7562
  899MOL0     H24049   6.200   1.554   1.396 -1.7623 -1.6199  0.4098
  899MOL0     H24050   5.809   1.724   1.557  0.6223 -0.8341  1.3525
  899MOL0     H24051   5.774   1.640   1.401 -0.5760  0.3285  0.1514
  899MOL0     H24052   5.831   1.497   1.673  1.6192 -3.5588 -1.1559
  899MOL0     H24053   5.833   1.421   1.526 -1.6468 -1.0544  0.1201
  899MOL0     H24054   5.601   1.461   1.477  1.7257 -0.8663  0.1666
  899MOL0     H24055   5.615   1.395   1.641  0.8524 -1.4452  0.3652
  899MOL0     H24056   5.592   1.692   1.590  1.7223 -0.3054  0.2083
  899MOL0     H24057   5.558   1.615   1.745  3.7694 -0.5517  0.0234
  899MOL0     H24058   5.218   1.566   1.479  0.8036 -1.9731 -0.8375
  899MOL0     H24059   5.964   1.723   1.710  1.6080  0.8099  2.6800
  899MOL0     H24060   6.059   1.755   1.913  0.7381 -0.9025 -1.1518
  899MOL0     H24061   6.156   1.622   1.980 -0.1474 -0.3778 -0.4225
  899MOL0     H24062   6.236   1.768   1.932 -0.6149  1.1861  0.1868
  900MOL0     O24063   5.443   4.337   6.556  0.9027 -0.6818 -0.4173
  900MOL0     C24064   5.358   4.279   6.614 -0.4586  0.8517 -0.5722
  900MOL0     O24065   5.346   4.140   6.617  0.3453  0.2841  1.2155
  900MOL0     C24066   5.453   4.065   6.561 -0.0225 -0.1830 -0.4466
  900MOL0     C24067   5.427   3.975   6.459  0.0754  0.1815 -0.1743
  900MOL0     C24068   5.534   3.913   6.398 -0.0024  0.3746  0.0948
  900MOL0     C24069   5.666   3.935   6.432  0.1559 -0.5453  0.6818
  900MOL0     O24070   5.760   3.845   6.381 -0.0283 -0.4286 -0.0419
  900MOL0     C24071   5.898   3.860   6.419  0.1700 -0.3719  1.0163
  900MOL0     C24072   5.982   3.747   6.367  0.0538 -0.0110  0.0040
  900MOL0     C24073   6.116   3.738   6.425 -0.6220 -0.0626 -0.2152
  900MOL0     C24074   6.206   3.633   6.345 -0.3250  0.4177 -0.3038
  900MOL0     C24075   6.351   3.607   6.400 -0.0060  0.0495  0.0592
  900MOL0     C24076   6.429   3.505   6.328 -0.2864  0.5391  0.6678
  900MOL0     C24077   6.533   3.428   6.410 -0.1585 -0.0691  0.4086
  900MOL0     C24078   6.644   3.523   6.461  0.8852 -0.7787 -0.3139
  900MOL0     N24079   6.753   3.447   6.526 -0.0878 -0.4505  0.8284
  900MOL0     C24080   6.856   3.384   6.458 -0.5358  0.7385 -0.6672
  900MOL0     C24081   6.944   3.341   6.549 -0.6536 -0.2233 -0.4367
  900MOL0     C24082   7.076   3.265   6.517  0.6368 -0.0569  0.4405
  900MOL0     C24083   7.168   3.344   6.431 -0.4238 -0.1774  0.1209
  900MOL0     C24084   7.300   3.268   6.422  0.2892  0.5424 -0.7306
  900MOL0     C24085   7.394   3.291   6.540 -0.5030 -0.6497  0.3259
  900MOL0     O24086   7.503   3.201   6.527 -0.7706 -0.1783  0.5376
  900MOL0     C24087   7.627   3.239   6.584  0.4678 -0.0338 -0.0799
  900MOL0     C24088   7.727   3.147   6.560  1.3338 -0.0782 -0.0170
  900MOL0     C24089   7.859   3.160   6.617 -0.1750  0.1868 -0.1136
  900MOL0     C24090   7.972   3.072   6.569 -0.3339 -0.1738 -0.5013
  900MOL0     C24091   7.880   3.273   6.703  0.1727  0.3792  0.2801
  900MOL0     C24092   8.011   3.320   6.746 -0.3037 -0.0548  0.3421
  900MOL0     O24093   8.043   3.454   6.723  0.1987  0.5650  0.2428
  900MOL0     C24094   8.151   3.509   6.794  0.7748  0.4814 -0.0103
  900MOL0     C24095   8.279   3.460   6.783 -0.0526 -0.1140  0.4756
  900MOL0     C24096   8.383   3.510   6.858  0.8116  0.3449 -0.5567
  900MOL0     C24097   8.368   3.624   6.948  1.3361 -0.5176 -0.9691
  900MOL0     O24098   8.467   3.698   7.005 -0.3864 -0.0193  0.1218
  900MOL0     C24099   8.600   3.643   7.014 -0.2913  0.2803  0.9418
  900MOL0     C24100   8.674   3.730   7.106 -0.2672 -0.1590 -0.0397
  900MOL0     C24101   8.825   3.694   7.121  0.7737  0.5509  0.0125
  900MOL0     C24102   8.887   3.771   7.229  0.7462 -0.1428 -0.1716
  900MOL0     C24103   9.029   3.730   7.225 -0.1330  0.2553 -0.5076
  900MOL0     C24104   9.096   3.788   7.346  0.1255 -0.7933 -0.2023
  900MOL0     C24105   9.244   3.751   7.357  0.7846 -0.2977  0.1967
  900MOL0     C24106   9.336   3.834   7.268 -0.7907  0.6984 -0.2911
  900MOL0    Cl24107   9.353   3.767   7.109  0.0896  0.2106  0.3828
  900MOL0     C24108   8.243   3.671   6.955  0.1913 -0.6703 -0.3019
  900MOL0     C24109   8.131   3.622   6.878 -0.1157  0.7679 -0.2528
  900MOL0     O24110   8.087   3.237   6.799  0.0598  0.3793 -0.8811
  900MOL0     C24111   7.776   3.363   6.732 -0.8415 -0.2118 -0.3950
  900MOL0     C24112   7.649   3.350   6.667 -0.2160 -0.6663  0.2984
  900MOL0     N24113   6.904   3.392   6.672 -0.2574  0.2960 -0.0173
  900MOL0     N24114   6.793   3.456   6.652 -0.0015 -0.0040 -0.8665
  900MOL0     C24115   5.693   4.021   6.542 -0.7097  0.0643  0.0021
  900MOL0     C24116   5.584   4.093   6.600 -0.1847  0.6321 -0.3955
  900MOL0     C24117   5.253   4.351   6.676  0.5450 -0.7259 -0.7922
  900MOL0     C24118   5.168   4.283   6.756  0.1279 -0.2024 -1.2768
  900MOL0     C24119   5.059   4.337   6.826  0.0681 -0.0155  0.1876
  900MOL0     C24120   5.015   4.469   6.791 -0.5412 -0.2742  0.1272
  900MOL0     O24121   4.892   4.516   6.837 -0.6334  0.7732 -0.3797
  900MOL0     C24122   4.794   4.504   6.734  0.1076 -0.4601 -0.9116
  900MOL0     C24123   4.673   4.590   6.750  0.1197  0.5152 -0.0437
  900MOL0     C24124   4.600   4.554   6.877 -0.1409  0.7559 -0.4790
  900MOL0     C24125   4.453   4.596   6.863  0.1842  0.8905  0.0104
  900MOL0     C24126   4.455   4.734   6.816  0.4048  0.2843  0.0661
  900MOL0     C24127   4.463   4.839   6.766 -1.1744 -0.5429 -1.0575
  900MOL0     C24128   5.095   4.539   6.709  0.1012 -0.3296 -0.0683
  900MOL0     C24129   5.219   4.490   6.654  0.2356  0.4737 -0.5094
  900MOL0     C24130   5.310   4.602   6.597  0.4803  0.4614 -0.4278
  900MOL0     H24131   5.324   3.964   6.427 -0.4638 -0.7122  1.6912
  900MOL0     H24132   5.517   3.847   6.313 -1.4915 -0.8992  1.3157
  900MOL0     H24133   5.907   3.864   6.528 -0.0476  1.0495  0.9992
  900MOL0     H24134   5.935   3.958   6.388  0.3856 -0.8868 -0.4071
  900MOL0     H24135   5.934   3.651   6.389  2.8060 -1.2508  1.1245
  900MOL0     H24136   5.995   3.762   6.259 -1.7856 -1.4794 -0.4660
  900MOL0     H24137   6.168   3.834   6.423  0.7013 -0.6540  1.9852
  900MOL0     H24138   6.112   3.712   6.531  0.3080  0.0859 -0.1305
  900MOL0     H24139   6.155   3.536   6.348 -2.1951  1.2823 -1.9689
  900MOL0     H24140   6.214   3.665   6.241 -0.3363 -1.7580 -1.0127
  900MOL0     H24141   6.337   3.567   6.502  0.6542  2.0302  0.9667
  900MOL0     H24142   6.404   3.701   6.415 -0.2973  0.0709  1.0819
  900MOL0     H24143   6.369   3.425   6.285  2.7084 -1.1173 -0.7176
  900MOL0     H24144   6.479   3.547   6.240  0.1910  2.2249  1.6914
  900MOL0     H24145   6.572   3.349   6.346  0.4184  1.4884 -1.2392
  900MOL0     H24146   6.480   3.383   6.494 -1.2742  1.9073  0.8204
  900MOL0     H24147   6.688   3.593   6.389  0.0885  0.2849  0.2076
  900MOL0     H24148   6.598   3.582   6.541 -2.3743 -2.9235 -0.4254
  900MOL0     H24149   6.869   3.358   6.353  2.1774 -1.3956  0.0786
  900MOL0     H24150   7.051   3.167   6.474  0.2949 -0.5703  1.7741
  900MOL0     H24151   7.122   3.246   6.614 -0.3597 -1.5096  0.6596
  900MOL0     H24152   7.137   3.352   6.326  3.5413 -1.6914 -1.3810
  900MOL0     H24153   7.178   3.445   6.470 -0.9473  0.2770 -0.8722
  900MOL0     H24154   7.272   3.165   6.397 -1.5949  1.1805 -1.4524
  900MOL0     H24155   7.351   3.302   6.331  0.6324  2.0448 -0.0158
  900MOL0     H24156   7.435   3.392   6.543  0.1815 -0.7727 -2.4414
  900MOL0     H24157   7.339   3.270   6.632 -0.3656 -2.4849  0.0367
  900MOL0     H24158   7.705   3.063   6.496  1.0211 -2.2262  2.7035
  900MOL0     H24159   8.005   3.017   6.658 -1.0403 -0.1241 -0.2033
  900MOL0     H24160   8.046   3.135   6.518 -0.4968 -0.3053 -0.9070
  900MOL0     H24161   7.929   3.010   6.489  0.3832  1.7924 -2.5163
  900MOL0     H24162   8.282   3.374   6.716 -0.3537 -2.8328  3.6715
  900MOL0     H24163   8.477   3.457   6.847  0.4425 -0.4173 -0.1349
  900MOL0     H24164   8.610   3.539   7.047  2.1118  0.5834  1.3745
  900MOL0     H24165   8.647   3.646   6.915  1.0089 -0.4362  1.5110
  900MOL0     H24166   8.665   3.833   7.070 -0.6741 -0.7243 -1.6547
  900MOL0     H24167   8.624   3.717   7.202 -0.7822  0.5701 -0.1976
  900MOL0     H24168   8.884   3.708   7.030  0.3288  0.9081 -0.2246
  900MOL0     H24169   8.835   3.589   7.151 -0.6821  1.2204  3.2066
  900MOL0     H24170   8.836   3.733   7.318  0.5872 -0.9642 -0.6061
  900MOL0     H24171   8.871   3.879   7.229  0.9917 -0.1053 -0.6353
  900MOL0     H24172   9.035   3.622   7.238 -2.0427  0.4559  4.1404
  900MOL0     H24173   9.071   3.764   7.130 -1.5059 -1.9001 -1.9587
  900MOL0     H24174   9.052   3.736   7.432  1.5462 -3.1458 -0.7962
  900MOL0     H24175   9.080   3.895   7.359 -0.9274 -0.7598 -1.5176
  900MOL0     H24176   9.254   3.644   7.340 -2.6786 -0.4186 -1.8829
  900MOL0     H24177   9.269   3.779   7.460 -1.0707  0.0300  0.5916
  900MOL0     H24178   9.438   3.839   7.307  0.8020 -0.8905 -3.7675
  900MOL0     H24179   9.303   3.937   7.253  0.9226  1.2044 -0.7715
  900MOL0     H24180   8.214   3.758   7.012 -1.3309 -1.1341 -0.2990
  900MOL0     H24181   8.037   3.676   6.889 -0.2195  0.3019  1.4973
  900MOL0     H24182   7.792   3.446   6.801  1.3861 -2.3125  1.8002
  900MOL0     H24183   7.579   3.433   6.677  0.2173 -0.0005 -1.6844
  900MOL0     H24184   5.783   4.025   6.602 -0.2790  2.8799 -0.7314
  900MOL0     H24185   5.612   4.159   6.682 -1.3342 -0.4216  0.8797
  900MOL0     H24186   5.187   4.178   6.778  0.2261 -0.9652 -4.5834
  900MOL0     H24187   5.000   4.270   6.887 -1.8883  2.1351  0.8023
  900MOL0     H24188   4.839   4.532   6.638  0.4871 -1.6022 -1.0807
  900MOL0     H24189   4.775   4.398   6.716  1.9680 -0.8250 -0.9558
  900MOL0     H24190   4.612   4.575   6.661  2.8499  2.6819 -2.4538
  900MOL0     H24191   4.711   4.692   6.760  2.6917 -0.2542 -1.2419
  900MOL0     H24192   4.610   4.449   6.903 -2.7502  0.8918  1.5566
  900MOL0     H24193   4.641   4.604   6.965 -2.3395  3.0938 -0.6524
  900MOL0     H24194   4.397   4.579   6.955 -1.4589 -0.7399 -1.2371
  900MOL0     H24195   4.406   4.547   6.777  2.0532  1.0113 -1.1612
  900MOL0     H24196   4.467   4.929   6.708  2.7572 -1.7112 -2.8672
  900MOL0     H24197   5.060   4.641   6.695  0.5358  0.1449  1.9761
  900MOL0     H24198   5.296   4.696   6.652  2.1511  0.0586  0.7903
  900MOL0     H24199   5.414   4.566   6.601 -0.0122 -0.9412  0.5025
  900MOL0     H24200   5.285   4.620   6.493  0.8797  2.0760 -0.2660
  901MOL0     O24201   2.811   7.036   1.687  0.0235 -0.4575  0.2660
  901MOL0     C24202   2.725   7.043   1.768 -0.1349  0.0908 -0.2524
  901MOL0     O24203   2.745   7.049   1.905  0.1770 -0.6807  0.2104
  901MOL0     C24204   2.854   7.123   1.951 -0.6407  0.2104  0.4218
  901MOL0     C24205   2.846   7.254   1.998  0.0314  0.7541  0.0313
  901MOL0     C24206   2.945   7.333   2.037 -0.0391 -0.5982 -0.6006
  901MOL0     C24207   3.077   7.270   2.042  0.0730  0.4679 -0.0136
  901MOL0     O24208   3.191   7.340   2.079 -0.3752 -0.0912  0.2720
  901MOL0     C24209   3.175   7.448   2.174 -0.2515  0.2767  0.3238
  901MOL0     C24210   3.295   7.450   2.269 -0.8165 -0.8653  0.1529
  901MOL0     C24211   3.437   7.467   2.204 -0.2340 -0.5403  0.0557
  901MOL0     C24212   3.542   7.458   2.311 -0.7999  0.2487  0.4583
  901MOL0     C24213   3.685   7.422   2.273  0.0373  0.1709  0.4613
  901MOL0     C24214   3.705   7.279   2.214 -0.3710 -0.1407 -0.0670
  901MOL0     C24215   3.850   7.245   2.207  0.4688  0.2125 -1.0900
  901MOL0     C24216   3.870   7.111   2.138 -0.5773  0.0109  1.2061
  901MOL0     N24217   3.976   7.128   2.032 -0.4571 -0.2519 -0.4833
  901MOL0     C24218   3.956   7.195   1.909 -0.4421  0.2371  0.5565
  901MOL0     C24219   4.073   7.194   1.845 -1.1225  0.5194  0.8896
  901MOL0     C24220   4.118   7.246   1.717  0.5828 -0.1976  0.5497
  901MOL0     C24221   4.128   7.136   1.605  0.0757 -0.4946 -0.4657
  901MOL0     C24222   4.103   7.187   1.466  0.0786  0.6882 -0.7434
  901MOL0     C24223   4.188   7.315   1.441  0.0468  0.3055  0.2721
  901MOL0     O24224   4.327   7.272   1.461  0.0128  0.4402  0.6915
  901MOL0     C24225   4.433   7.356   1.436 -0.3939 -0.1961  0.2689
  901MOL0     C24226   4.420   7.486   1.379 -0.4636  0.5248 -0.1487
  901MOL0     C24227   4.526   7.563   1.345  0.1187 -0.6182  0.6820
  901MOL0     C24228   4.501   7.695   1.288 -0.4993  0.4189 -0.2280
  901MOL0     C24229   4.658   7.510   1.357  0.3611  0.0224 -0.6622
  901MOL0     C24230   4.784   7.574   1.314  0.4143  0.1662 -0.5050
  901MOL0     O24231   4.897   7.519   1.378 -0.0457  0.6002  0.4990
  901MOL0     C24232   5.025   7.559   1.338 -0.0850 -0.2242  0.2094
  901MOL0     C24233   5.076   7.661   1.418  0.4875 -0.1347 -0.6766
  901MOL0     C24234   5.207   7.702   1.391 -0.4444 -0.3729 -0.1138
  901MOL0     C24235   5.281   7.659   1.274 -0.0568  0.2181 -0.3384
  901MOL0     O24236   5.409   7.687   1.254 -0.3308 -0.2612  1.0052
  901MOL0     C24237   5.413   7.792   1.154  0.0727 -0.2750  0.6602
  901MOL0     C24238   5.538   7.879   1.189 -0.0667 -0.5766 -0.0825
  901MOL0     C24239   5.667   7.784   1.187  0.5680 -0.1432 -0.2285
  901MOL0     C24240   5.787   7.871   1.193 -0.6424 -0.6925 -0.2931
  901MOL0     C24241   5.913   7.797   1.246  0.0516 -0.1214  0.0763
  901MOL0     C24242   6.030   7.894   1.238  0.0641 -0.0700  0.7669
  901MOL0     C24243   6.157   7.835   1.302 -0.8350  0.6293  0.4177
  901MOL0     C24244   6.290   7.926   1.272  0.1956  0.2953 -1.3413
  901MOL0    Cl24245   6.334   7.930   1.097  0.0636 -0.2995 -0.0577
  901MOL0     C24246   5.219   7.551   1.207  0.4654 -0.6419 -0.3886
  901MOL0     C24247   5.096   7.498   1.240 -0.3458 -0.0821  0.3007
  901MOL0     O24248   4.782   7.665   1.231  0.3881  0.0674  0.0744
  901MOL0     C24249   4.675   7.380   1.407  0.4836 -0.4678 -0.1053
  901MOL0     C24250   4.563   7.306   1.441 -0.2021 -0.2669 -0.2219
  901MOL0     N24251   4.165   7.136   1.934  0.8915  0.4880  0.5761
  901MOL0     N24252   4.102   7.092   2.043 -0.3472  0.0437 -0.0580
  901MOL0     C24253   3.087   7.137   2.006  0.0038 -0.2894  0.7424
  901MOL0     C24254   2.977   7.060   1.960  0.0461 -0.4210  0.3522
  901MOL0     C24255   2.590   7.010   1.725 -0.2839  0.1549 -0.7355
  901MOL0     C24256   2.558   6.920   1.623  0.1320 -0.9059  0.3043
  901MOL0     C24257   2.426   6.911   1.571  0.0992 -0.1102 -0.7304
  901MOL0     C24258   2.316   6.985   1.626 -1.1766 -0.7309  0.1275
  901MOL0     O24259   2.198   6.967   1.567  0.1742  0.0681 -0.2713
  901MOL0     C24260   2.092   7.063   1.583 -0.6079 -0.4875  0.5167
  901MOL0     C24261   2.015   7.086   1.453  1.1248 -0.1850 -0.3869
  901MOL0     C24262   1.957   6.947   1.400 -0.4458 -0.8260  1.4670
  901MOL0     C24263   1.891   6.967   1.255 -1.0215 -0.3295 -0.3444
  901MOL0     C24264   1.806   6.848   1.221 -0.0560  0.0263 -0.9174
  901MOL0     C24265   1.732   6.758   1.182 -0.2470  0.0331  0.1952
  901MOL0     C24266   2.349   7.079   1.728  0.1399  0.3197 -0.4911
  901MOL0     C24267   2.480   7.088   1.779 -0.3665 -0.4381 -0.4466
  901MOL0     C24268   2.499   7.199   1.880  0.7324 -0.7776 -0.0567
  901MOL0     H24269   2.750   7.302   2.014 -0.0448  0.4366  0.5396
  901MOL0     H24270   2.928   7.434   2.073  0.6499 -0.5006 -0.5256
  901MOL0     H24271   3.085   7.422   2.231  0.0296 -4.3259 -0.9184
  901MOL0     H24272   3.161   7.548   2.134  0.5626  0.9430  1.6106
  901MOL0     H24273   3.275   7.528   2.343 -3.5958 -2.2286  1.0273
  901MOL0     H24274   3.279   7.359   2.329  0.0726 -1.1092  0.0279
  901MOL0     H24275   3.462   7.397   2.124  4.0204  1.0261 -0.2369
  901MOL0     H24276   3.435   7.559   2.145 -0.7771  0.6216  1.8030
  901MOL0     H24277   3.547   7.558   2.355 -1.4429 -0.3379  1.9153
  901MOL0     H24278   3.487   7.400   2.386 -2.6475  0.0232 -0.9743
  901MOL0     H24279   3.753   7.446   2.355 -0.5539  2.7902  0.2801
  901MOL0     H24280   3.713   7.488   2.191 -1.3802  0.1188 -0.0985
  901MOL0     H24281   3.647   7.207   2.272 -2.3455  1.8355  0.5423
  901MOL0     H24282   3.670   7.274   2.111 -0.0471  0.2595 -0.2003
  901MOL0     H24283   3.889   7.240   2.309 -2.6289  0.8876  0.2352
  901MOL0     H24284   3.903   7.323   2.153  2.6077 -0.2610  0.2053
  901MOL0     H24285   3.895   7.037   2.215 -3.0218  0.4112  2.5074
  901MOL0     H24286   3.784   7.061   2.095  0.3153  0.2783 -1.0023
  901MOL0     H24287   3.871   7.239   1.857 -0.0305 -2.6046 -2.9625
  901MOL0     H24288   4.211   7.296   1.743  1.5078 -0.1303 -2.5123
  901MOL0     H24289   4.032   7.309   1.691  1.7612  1.6736  1.0099
  901MOL0     H24290   4.219   7.077   1.619  1.1071  1.6335  3.1318
  901MOL0     H24291   4.048   7.064   1.625 -1.3192  0.6544 -1.7000
  901MOL0     H24292   4.125   7.114   1.388  0.6097 -0.8658  0.7959
  901MOL0     H24293   3.997   7.214   1.462  0.0321  0.3700 -2.4660
  901MOL0     H24294   4.169   7.341   1.336 -0.0350 -2.9353 -0.6020
  901MOL0     H24295   4.167   7.404   1.502  0.0782  2.0138 -2.0664
  901MOL0     H24296   4.324   7.536   1.370  0.5083  2.4652 -0.3458
  901MOL0     H24297   4.539   7.699   1.185  0.5886  2.4884  0.1789
  901MOL0     H24298   4.553   7.775   1.341 -1.3055  1.2180 -0.6188
  901MOL0     H24299   4.395   7.722   1.290 -0.7027 -0.4269  1.2110
  901MOL0     H24300   5.012   7.700   1.497 -2.1067 -1.0380 -2.2325
  901MOL0     H24301   5.261   7.768   1.458  0.9493 -1.5725 -0.0085
  901MOL0     H24302   5.431   7.758   1.052  1.5859  2.2199  0.0079
  901MOL0     H24303   5.329   7.861   1.165 -0.5799 -1.2080  1.7535
  901MOL0     H24304   5.547   7.959   1.115  2.8467  0.2273  0.9894
  901MOL0     H24305   5.532   7.925   1.288 -2.3517 -0.7504 -0.1022
  901MOL0     H24306   5.675   7.731   1.092  2.3629 -0.6325  0.1665
  901MOL0     H24307   5.665   7.704   1.260  0.7488 -3.4106 -3.5019
  901MOL0     H24308   5.770   7.966   1.244  2.5470  0.6381 -1.4464
  901MOL0     H24309   5.803   7.898   1.089 -0.0850  2.4652  0.4965
  901MOL0     H24310   5.895   7.768   1.349  0.3261  2.9199  1.0729
  901MOL0     H24311   5.924   7.714   1.175 -0.3337  3.1135 -4.2388
  901MOL0     H24312   6.010   7.989   1.287 -0.4835 -0.1174  0.6512
  901MOL0     H24313   6.051   7.920   1.133 -0.2081 -1.0454  0.4547
  901MOL0     H24314   6.190   7.736   1.270  0.4102  1.2025 -0.1606
  901MOL0     H24315   6.146   7.829   1.411 -1.6766 -0.3628  0.2865
  901MOL0     H24316   6.373   7.884   1.329 -0.2255  1.7597  0.4534
  901MOL0     H24317   6.267   8.027   1.308  0.4392 -0.4096  0.9650
  901MOL0     H24318   5.271   7.505   1.123 -1.5053 -2.4185 -0.7179
  901MOL0     H24319   5.060   7.410   1.188  0.3956  0.0454 -0.4526
  901MOL0     H24320   4.770   7.328   1.411  0.0927 -1.2774 -0.9901
  901MOL0     H24321   4.578   7.205   1.478 -1.1169 -0.6447 -0.8460
  901MOL0     H24322   3.181   7.084   2.007 -0.3633 -0.9888 -0.2747
  901MOL0     H24323   2.972   6.963   1.911 -0.4553  0.5735 -1.6747
  901MOL0     H24324   2.635   6.854   1.584  2.4716  1.8102  0.0049
  901MOL0     H24325   2.407   6.838   1.494  2.3746  1.8467 -3.3369
  901MOL0     H24326   2.018   7.023   1.653 -0.6319 -2.2429 -0.4383
  901MOL0     H24327   2.124   7.164   1.610 -2.7878 -0.1388  2.0926
  901MOL0     H24328   2.073   7.132   1.372  1.0810  0.0027 -0.3132
  901MOL0     H24329   1.930   7.149   1.482  1.1645 -0.3106  0.0116
  901MOL0     H24330   2.044   6.880   1.398  0.0582 -0.1734  0.7761
  901MOL0     H24331   1.872   6.922   1.464 -1.7400 -1.2021 -0.3263
  901MOL0     H24332   1.970   6.980   1.181  1.1830 -2.0291  1.5804
  901MOL0     H24333   1.822   7.051   1.265  0.8800  1.1358  1.3638
  901MOL0     H24334   1.669   6.675   1.158  0.9885 -1.2991  1.3414
  901MOL0     H24335   2.269   7.138   1.772  0.1484  1.7387 -2.2826
  901MOL0     H24336   2.419   7.273   1.871  1.0635 -0.6734 -3.3964
  901MOL0     H24337   2.524   7.163   1.979  3.4502  1.6542  0.2744
  901MOL0     H24338   2.586   7.257   1.848 -1.0278  2.5705  0.7899
  902MOL0     O24339   8.999   2.567   3.510 -0.3149  0.6560 -0.2765
  902MOL0     C24340   8.917   2.657   3.525  0.0491  0.5246 -0.1231
  902MOL0     O24341   8.956   2.778   3.569  0.3236  0.5349 -0.6900
  902MOL0     C24342   9.067   2.792   3.650 -0.0969  0.1349  0.3736
  902MOL0     C24343   9.142   2.898   3.599  0.9379 -0.3111  0.0979
  902MOL0     C24344   9.270   2.920   3.641 -0.3206  1.4681 -0.9554
  902MOL0     C24345   9.327   2.845   3.741  0.2868 -0.3213 -0.3205
  902MOL0     O24346   9.447   2.893   3.793  0.7509  0.0761  0.0103
  902MOL0     C24347   9.538   2.816   3.875 -0.2367 -0.7693 -0.6651
  902MOL0     C24348   9.656   2.902   3.915 -0.0075 -0.1115 -0.9963
  902MOL0     C24349   9.595   3.014   3.998  0.3280  0.0668 -0.3256
  902MOL0     C24350   9.697   3.114   4.038  0.4088  0.2232  0.6257
  902MOL0     C24351   9.647   3.220   4.137 -0.0081 -0.5986 -1.2646
  902MOL0     C24352   9.732   3.347   4.145 -0.7060 -0.2654  0.2014
  902MOL0     C24353   9.874   3.319   4.202 -0.4033  0.5916 -0.2535
  902MOL0     C24354   9.971   3.445   4.214 -0.3632  0.5086 -0.0883
  902MOL0     N24355  10.100   3.402   4.267 -1.0825  0.0888  0.3593
  902MOL0     C24356  10.125   3.400   4.404 -0.2367  0.2714 -0.3670
  902MOL0     C24357  10.261   3.384   4.414  0.0760 -1.0502  0.4892
  902MOL0     C24358  10.335   3.389   4.547  0.6940 -0.1891 -0.0222
  902MOL0     C24359  10.483   3.406   4.525 -0.0031 -0.0897 -0.1201
  902MOL0     C24360  10.562   3.284   4.500 -0.6754 -0.4994  0.5191
  902MOL0     C24361  10.699   3.306   4.429 -0.0908  0.7420  0.3300
  902MOL0     O24362  10.775   3.183   4.428 -0.8214 -0.2097 -0.5516
  902MOL0     C24363  10.902   3.177   4.374 -0.0584 -0.3549 -0.1960
  902MOL0     C24364  10.969   3.059   4.401 -0.1126 -0.3973 -0.4781
  902MOL0     C24365  11.105   3.054   4.364 -1.0410 -0.3981 -0.8221
  902MOL0     C24366  11.154   2.909   4.359 -0.2378 -0.3337  0.1297
  902MOL0     C24367  11.178   3.168   4.329 -0.1768 -0.4411  0.5536
  902MOL0     C24368  11.327   3.177   4.295  0.1127 -0.2268  0.0986
  902MOL0     O24369  11.378   3.296   4.265  0.8872 -0.9915 -0.3166
  902MOL0     C24370  11.504   3.332   4.231 -0.7975 -0.5913  0.8491
  902MOL0     C24371  11.537   3.464   4.231  0.6497  0.1070  0.5267
  902MOL0     C24372  11.670   3.509   4.224 -0.3338  0.1544  0.4319
  902MOL0     C24373  11.772   3.425   4.195 -0.8268  0.2006  0.2282
  902MOL0     O24374  11.901   3.479   4.174  0.1950 -0.2526  0.1130
  902MOL0     C24375  12.013   3.391   4.202  0.1016  0.1898 -0.6479
  902MOL0     C24376  12.135   3.486   4.185  0.2646 -0.2406  0.4575
  902MOL0     C24377  12.273   3.418   4.200  0.1303  0.3649  0.5484
  902MOL0     C24378  12.293   3.330   4.321  0.2154 -0.5585  0.1749
  902MOL0     C24379  12.420   3.246   4.296 -0.0342 -0.3650 -0.3861
  902MOL0     C24380  12.556   3.341   4.307  0.7364  0.7588  0.1860
  902MOL0     C24381  12.691   3.273   4.282  0.6578 -0.2455 -0.1450
  902MOL0     C24382  12.719   3.176   4.397 -0.3225 -0.0955 -0.8883
  902MOL0    Cl24383  12.879   3.087   4.381 -0.0625 -0.1697  0.1890
  902MOL0     C24384  11.742   3.290   4.184  0.4801 -1.0273 -0.0410
  902MOL0     C24385  11.610   3.242   4.206  0.4493 -0.2990 -0.5267
  902MOL0     O24386  11.395   3.075   4.321 -0.3757  0.3773 -0.0515
  902MOL0     C24387  11.107   3.286   4.337  0.0599  0.2169  1.1977
  902MOL0     C24388  10.969   3.293   4.341 -0.6288  0.3870 -0.2384
  902MOL0     N24389  10.312   3.385   4.282  0.3638 -0.6664  0.9389
  902MOL0     N24390  10.217   3.407   4.195  0.3440  0.1278  0.0572
  902MOL0     C24391   9.255   2.728   3.789  0.5240 -0.2627 -0.2335
  902MOL0     C24392   9.128   2.701   3.746  0.3579  0.0803 -0.5141
  902MOL0     C24393   8.783   2.639   3.460  0.2186 -0.4502 -0.3754
  902MOL0     C24394   8.720   2.756   3.407 -0.1187 -0.0124  0.6051
  902MOL0     C24395   8.597   2.741   3.338 -0.5471 -0.2830  0.3105
  902MOL0     C24396   8.528   2.623   3.334 -0.3625 -0.4310 -0.0095
  902MOL0     O24397   8.400   2.630   3.276 -0.1815  0.2435  0.2153
  902MOL0     C24398   8.331   2.507   3.253  0.4589 -0.5912 -0.0406
  902MOL0     C24399   8.247   2.470   3.370  0.1998 -0.1348  0.3804
  902MOL0     C24400   8.138   2.577   3.391 -0.0483 -0.1889 -1.0854
  902MOL0     C24401   8.046   2.602   3.276  0.5654 -0.1062  0.5230
  902MOL0     C24402   7.937   2.699   3.323 -0.0058 -0.3141 -0.3132
  902MOL0     C24403   7.854   2.788   3.352 -0.0737 -0.1909 -0.1262
  902MOL0     C24404   8.586   2.511   3.395  0.1107 -0.3741 -0.1803
  902MOL0     C24405   8.709   2.521   3.453 -0.2573  0.0984  0.1325
  902MOL0     C24406   8.753   2.396   3.524 -0.1828 -0.2315  0.5038
  902MOL0     H24407   9.103   2.961   3.520  1.6109 -1.6365 -1.3489
  902MOL0     H24408   9.328   3.007   3.610 -0.9627  1.9613 -0.7997
  902MOL0     H24409   9.574   2.727   3.822 -2.1755 -0.6589 -2.2836
  902MOL0     H24410   9.487   2.779   3.965  0.5530 -0.9321 -0.2762
  902MOL0     H24411   9.711   2.841   3.987 -1.4935  1.5744  1.7434
  902MOL0     H24412   9.726   2.942   3.840  2.7777  0.5183  1.7299
  902MOL0     H24413   9.520   3.074   3.945 -0.3379 -0.0978  0.3986
  902MOL0     H24414   9.541   2.975   4.085 -0.7795  0.3757 -0.8536
  902MOL0     H24415   9.788   3.062   4.071  0.1654 -0.0278  0.9059
  902MOL0     H24416   9.729   3.173   3.951 -0.1336  0.9885  0.9411
  902MOL0     H24417   9.645   3.184   4.240  0.2366 -0.6395 -1.2743
  902MOL0     H24418   9.547   3.247   4.103  0.1172  1.8922  0.1244
  902MOL0     H24419   9.748   3.387   4.044  0.4212  0.7672  0.7620
  902MOL0     H24420   9.685   3.421   4.210  0.1099 -0.2096  0.7358
  902MOL0     H24421   9.927   3.253   4.133 -0.4252  0.0485  0.2463
  902MOL0     H24422   9.851   3.267   4.295 -2.2370  1.1064 -0.3851
  902MOL0     H24423   9.983   3.492   4.117 -0.3523  1.3027  0.2940
  902MOL0     H24424   9.914   3.512   4.278 -1.4156 -1.7313  1.4621
  902MOL0     H24425  10.070   3.391   4.497  0.9277 -1.5538  0.1987
  902MOL0     H24426  10.320   3.294   4.599  0.9009 -0.2118 -0.0023
  902MOL0     H24427  10.304   3.477   4.603  1.9993  0.4378 -0.2553
  902MOL0     H24428  10.500   3.486   4.452 -1.5530  1.0610  0.7159
  902MOL0     H24429  10.526   3.434   4.622  3.4551 -1.0756 -1.2042
  902MOL0     H24430  10.578   3.236   4.597 -3.5760 -2.2535  0.2593
  902MOL0     H24431  10.510   3.213   4.434  2.9810 -1.8016 -1.2259
  902MOL0     H24432  10.682   3.329   4.323  0.7659  0.6588  0.1685
  902MOL0     H24433  10.755   3.387   4.475 -0.2376  0.1405  1.6123
  902MOL0     H24434  10.921   2.970   4.441  1.1163 -1.3751 -1.0962
  902MOL0     H24435  11.208   2.883   4.267  2.2381 -1.8540  1.8972
  902MOL0     H24436  11.064   2.846   4.363 -1.9987  1.8963 -1.4328
  902MOL0     H24437  11.222   2.889   4.442 -1.4983 -0.4973  1.1460
  902MOL0     H24438  11.457   3.532   4.261  1.1623  0.2280  1.6807
  902MOL0     H24439  11.678   3.616   4.239  3.2052  0.3535 -1.7211
  902MOL0     H24440  12.006   3.360   4.306 -0.3551 -1.2284 -1.0800
  902MOL0     H24441  12.019   3.312   4.126 -1.3614  2.5749 -3.4849
  902MOL0     H24442  12.136   3.516   4.080 -0.9130  0.7708  0.7115
  902MOL0     H24443  12.109   3.574   4.244 -1.1160 -0.5391  0.3309
  902MOL0     H24444  12.350   3.496   4.192 -1.1086  1.4935 -1.2667
  902MOL0     H24445  12.282   3.356   4.110 -0.7518 -0.6135  1.1121
  902MOL0     H24446  12.200   3.273   4.335 -2.4103  3.3988  0.7202
  902MOL0     H24447  12.307   3.393   4.410  1.3637 -3.0186  1.8701
  902MOL0     H24448  12.431   3.166   4.369  0.4835  0.3005  0.2759
  902MOL0     H24449  12.406   3.194   4.201 -0.8242 -2.1510  0.6691
  902MOL0     H24450  12.551   3.407   4.395  1.0474  0.9983  0.0264
  902MOL0     H24451  12.552   3.406   4.220  1.8118 -1.0602 -1.2914
  902MOL0     H24452  12.768   3.349   4.271 -1.3819  1.7451 -1.5928
  902MOL0     H24453  12.681   3.227   4.183  1.5241 -0.5130 -0.1164
  902MOL0     H24454  12.645   3.097   4.410 -0.9667  0.2251 -2.3398
  902MOL0     H24455  12.726   3.249   4.478  1.7772  1.1691 -2.0984
  902MOL0     H24456  11.821   3.217   4.167  2.1526  0.1174  2.2660
  902MOL0     H24457  11.598   3.136   4.228  0.2325  0.1589  1.8579
  902MOL0     H24458  11.158   3.381   4.327  0.6501 -0.2685 -0.8578
  902MOL0     H24459  10.918   3.388   4.334 -1.1060  0.1510 -0.0135
  902MOL0     H24460   9.311   2.655   3.848 -1.3401 -2.9926 -1.6172
  902MOL0     H24461   9.081   2.610   3.779  1.4479  0.0195  0.9640
  902MOL0     H24462   8.770   2.851   3.421  0.4347 -0.1007 -0.5689
  902MOL0     H24463   8.556   2.828   3.287  1.2270 -1.5150 -3.5289
  902MOL0     H24464   8.271   2.517   3.162 -1.4941  1.8406  1.3866
  902MOL0     H24465   8.396   2.424   3.225  0.0268 -1.4579  1.4268
  902MOL0     H24466   8.305   2.472   3.463 -0.9509  1.2036  1.1000
  902MOL0     H24467   8.202   2.372   3.350 -0.3854  0.1569  0.2614
  902MOL0     H24468   8.080   2.551   3.480 -0.8881  0.6377 -1.3858
  902MOL0     H24469   8.193   2.668   3.416 -1.3342  0.0500  1.1021
  902MOL0     H24470   8.003   2.505   3.252 -1.7330  0.6944  1.0810
  902MOL0     H24471   8.102   2.657   3.199  0.2399  1.7030  1.5185
  902MOL0     H24472   7.790   2.869   3.381 -0.9058 -2.3454  5.0792
  902MOL0     H24473   8.541   2.412   3.387  0.2735 -0.4147 -0.6250
  902MOL0     H24474   8.675   2.320   3.510 -0.7788  0.0740  1.9344
  902MOL0     H24475   8.854   2.365   3.498 -0.1639 -0.2504  0.5997
  902MOL0     H24476   8.756   2.407   3.633  0.0752 -4.3885  1.0585
  903MOL0     O24477   2.120  10.808   1.532  0.3579 -0.5257 -0.0682
  903MOL0     C24478   2.103  10.850   1.415 -0.0560  0.4667 -0.3028
  903MOL0     O24479   2.207  10.875   1.324 -0.9286 -0.2008  0.4500
  903MOL0     C24480   2.336  10.840   1.354  0.6304  0.3049 -0.0154
  903MOL0     C24481   2.359  10.706   1.387  0.4234  0.1161  0.6039
  903MOL0     C24482   2.490  10.667   1.415  0.3030  0.9001  0.0171
  903MOL0     C24483   2.595  10.755   1.405  0.3892  0.5004  0.4301
  903MOL0     O24484   2.727  10.708   1.411  0.2494  0.1469 -0.2554
  903MOL0     C24485   2.825  10.759   1.314  0.1384 -0.5092 -0.2044
  903MOL0     C24486   2.916  10.867   1.369 -0.1644  0.8151 -1.0211
  903MOL0     C24487   3.016  10.816   1.480  0.1431 -1.2070  0.5195
  903MOL0     C24488   3.065  10.941   1.549  0.2643 -0.0905  0.1188
  903MOL0     C24489   3.176  10.907   1.649 -0.0605  0.2254  0.5731
  903MOL0     C24490   3.221  11.024   1.727  0.7553  0.1424 -0.0571
  903MOL0     C24491   3.309  11.118   1.634  1.0246  0.0815 -0.4030
  903MOL0     C24492   3.386  11.225   1.712  0.2099 -0.5017  0.2300
  903MOL0     N24493   3.521  11.173   1.726 -0.1424  0.2055  0.6971
  903MOL0     C24494   3.556  11.125   1.846 -0.4843  0.4469 -0.8575
  903MOL0     C24495   3.694  11.116   1.848  0.8708 -0.0685 -0.7888
  903MOL0     C24496   3.781  11.089   1.965  0.5440  0.0543  0.1976
  903MOL0     C24497   3.919  11.038   1.932 -0.5646  0.7545 -0.0243
  903MOL0     C24498   4.015  11.082   2.046  0.3206  0.1718  0.3087
  903MOL0     C24499   4.127  10.974   2.074 -0.8796 -0.3389  0.2297
  903MOL0     O24500   4.210  10.941   1.966 -0.7721  0.4165  0.5008
  903MOL0     C24501   4.346  10.974   1.973  0.0317 -0.0356  0.5522
  903MOL0     C24502   4.430  10.886   2.041  0.3287  0.1917 -0.3268
  903MOL0     C24503   4.564  10.914   2.070 -1.1024  0.2688 -0.3930
  903MOL0     C24504   4.647  10.812   2.143 -0.3997  0.0532  0.3809
  903MOL0     C24505   4.625  11.031   2.013 -0.0072 -0.5756 -0.6254
  903MOL0     C24506   4.776  11.072   2.028  0.4665  0.7591  0.8362
  903MOL0     O24507   4.800  11.197   1.973 -0.0785 -0.4228 -0.0186
  903MOL0     C24508   4.925  11.250   1.969 -0.8604 -0.3201  0.1671
  903MOL0     C24509   5.008  11.232   1.861  0.1638  0.0834 -0.6236
  903MOL0     C24510   5.137  11.278   1.860  0.4676  0.0363 -0.4278
  903MOL0     C24511   5.186  11.360   1.971 -0.3294 -0.3871 -0.2112
  903MOL0     O24512   5.318  11.395   1.978  0.0200 -0.3043 -0.1634
  903MOL0     C24513   5.414  11.295   2.007  0.0842  0.4226 -0.6513
  903MOL0     C24514   5.403  11.232   2.145 -0.3838 -0.5056  0.1622
  903MOL0     C24515   5.437  11.338   2.250  0.2944 -0.0382  0.3584
  903MOL0     C24516   5.432  11.290   2.396 -0.2860  0.0367 -0.0519
  903MOL0     C24517   5.458  11.406   2.491  0.3870  0.5302  0.2839
  903MOL0     C24518   5.605  11.453   2.494  0.4223 -1.0020  0.3308
  903MOL0     C24519   5.703  11.342   2.546 -0.8414 -0.9358  0.0220
  903MOL0     C24520   5.834  11.407   2.601 -0.7069  0.1919 -0.4064
  903MOL0    Cl24521   5.897  11.508   2.471 -0.0754  0.2668 -0.5673
  903MOL0     C24522   5.094  11.387   2.075  0.2678  0.5970  0.0932
  903MOL0     C24523   4.969  11.328   2.074  0.6638  0.6538  0.1452
  903MOL0     O24524   4.860  10.993   2.073  0.1729 -0.2832 -0.2608
  903MOL0     C24525   4.540  11.119   1.950  0.0492 -0.3781 -0.0776
  903MOL0     C24526   4.399  11.095   1.935  0.1910 -0.9030 -0.1647
  903MOL0     N24527   3.734  11.158   1.721  0.5244  0.3777  1.2198
  903MOL0     N24528   3.635  11.201   1.657 -0.2788  0.7213  0.3154
  903MOL0     C24529   2.565  10.893   1.372  0.2107  0.4389 -0.5846
  903MOL0     C24530   2.435  10.928   1.348 -0.6313  0.3120  0.4484
  903MOL0     C24531   1.972  10.875   1.365  0.3898  0.5009 -0.9188
  903MOL0     C24532   1.950  10.979   1.271 -0.0505  0.0646  0.0355
  903MOL0     C24533   1.827  11.011   1.229  0.7060  0.3569  0.0423
  903MOL0     C24534   1.721  10.932   1.262 -0.2777  0.2147  0.0155
  903MOL0     O24535   1.589  10.956   1.221  0.0413  0.0865  0.8223
  903MOL0     C24536   1.569  11.070   1.131 -0.5770 -0.2316 -0.6586
  903MOL0     C24537   1.422  11.074   1.075 -0.4798  0.0460 -0.1690
  903MOL0     C24538   1.321  11.094   1.192  0.8913 -0.2798 -0.1630
  903MOL0     C24539   1.181  11.108   1.141  0.2148  0.7856 -0.3734
  903MOL0     C24540   1.101  11.154   1.255  0.6265  0.0063  0.0240
  903MOL0     C24541   1.035  11.196   1.350  0.0198  0.2053 -0.3672
  903MOL0     C24542   1.736  10.844   1.367 -0.0855 -0.6541  0.0035
  903MOL0     C24543   1.860  10.808   1.416  0.4590  0.0113 -0.0425
  903MOL0     C24544   1.858  10.692   1.510  0.5640 -0.3289 -0.1437
  903MOL0     H24545   2.279  10.634   1.400  0.6928 -0.2811  0.0844
  903MOL0     H24546   2.499  10.564   1.450 -1.0551  1.6141  2.7405
  903MOL0     H24547   2.766  10.802   1.233  1.7630  0.4689 -0.9120
  903MOL0     H24548   2.888  10.678   1.276  0.9526 -1.1259  2.3075
  903MOL0     H24549   2.964  10.913   1.282 -0.2598  2.6044 -0.1847
  903MOL0     H24550   2.849  10.939   1.418 -2.3187 -2.2359  0.9424
  903MOL0     H24551   2.959  10.754   1.549 -3.1468  0.2055 -0.6992
  903MOL0     H24552   3.098  10.761   1.434 -0.3821 -0.9472 -0.7945
  903MOL0     H24553   3.103  11.014   1.476 -1.0460  0.4503 -0.0469
  903MOL0     H24554   2.986  10.991   1.605  0.0710  0.7185 -0.8449
  903MOL0     H24555   3.257  10.857   1.596 -0.0346  0.7707  0.0789
  903MOL0     H24556   3.131  10.837   1.719 -2.4128 -0.3863 -1.4190
  903MOL0     H24557   3.140  11.088   1.765 -0.3976  0.1177 -2.3177
  903MOL0     H24558   3.267  10.982   1.817 -0.8257 -0.6562  0.4059
  903MOL0     H24559   3.240  11.161   1.561  0.2127 -0.9136 -0.2391
  903MOL0     H24560   3.373  11.049   1.579  0.6484 -0.4798 -0.1439
  903MOL0     H24561   3.400  11.316   1.653  0.1277 -1.4035 -1.2335
  903MOL0     H24562   3.347  11.241   1.813 -0.9020 -0.9027 -0.1227
  903MOL0     H24563   3.488  11.101   1.927 -0.4300  1.4107 -0.5165
  903MOL0     H24564   3.719  11.021   2.023 -1.8622  1.4310 -0.6031
  903MOL0     H24565   3.793  11.191   2.002  0.3701  0.4172 -0.7102
  903MOL0     H24566   3.919  10.929   1.924  0.8374  0.8473 -2.2445
  903MOL0     H24567   3.955  11.077   1.836 -1.5898 -1.6146 -1.4699
  903MOL0     H24568   4.052  11.177   2.007 -2.2341 -0.2295 -3.6871
  903MOL0     H24569   3.955  11.091   2.137 -1.6077 -3.2337 -0.4616
  903MOL0     H24570   4.181  11.002   2.165 -1.5121 -2.1996  1.2390
  903MOL0     H24571   4.083  10.878   2.101 -1.3765  0.0022  0.6733
  903MOL0     H24572   4.387  10.794   2.082  1.8125  1.1745  3.9333
  903MOL0     H24573   4.582  10.734   2.183 -1.2756  0.2356 -0.6246
  903MOL0     H24574   4.707  10.852   2.225 -0.3559  0.1661  0.2946
  903MOL0     H24575   4.713  10.766   2.069 -1.1514 -1.4817  0.6267
  903MOL0     H24576   4.960  11.173   1.783 -1.8225  1.5731 -0.6214
  903MOL0     H24577   5.202  11.272   1.773  2.1170 -1.3741  0.8423
  903MOL0     H24578   5.409  11.217   1.930 -0.0415 -0.2393  0.0157
  903MOL0     H24579   5.515  11.336   2.003  1.0830 -1.1426  3.7819
  903MOL0     H24580   5.305  11.187   2.158 -0.9313  0.5317 -0.2551
  903MOL0     H24581   5.483  11.159   2.160 -0.8439 -0.6217  2.5228
  903MOL0     H24582   5.371  11.425   2.239  0.3004 -0.3786 -4.2744
  903MOL0     H24583   5.536  11.381   2.230 -0.3070  2.1324  1.6905
  903MOL0     H24584   5.503  11.208   2.409 -1.8062 -1.5334 -1.1376
  903MOL0     H24585   5.332  11.247   2.411  0.3364 -1.3817  0.1053
  903MOL0     H24586   5.392  11.489   2.466 -1.6949 -1.0894  0.1262
  903MOL0     H24587   5.432  11.394   2.597 -0.1324  1.3337  0.2573
  903MOL0     H24588   5.608  11.539   2.562 -2.6017 -2.0189  1.9568
  903MOL0     H24589   5.638  11.495   2.398 -2.3846 -3.9717 -2.1642
  903MOL0     H24590   5.714  11.279   2.458  4.4151  0.2550 -0.5101
  903MOL0     H24591   5.651  11.283   2.622  2.8211 -2.1114  1.8431
  903MOL0     H24592   5.898  11.323   2.629  0.0076 -0.3691 -3.3090
  903MOL0     H24593   5.790  11.459   2.686 -1.9814 -0.8960 -0.3676
  903MOL0     H24594   5.115  11.455   2.157 -1.3403  1.7284 -0.3819
  903MOL0     H24595   4.902  11.340   2.158 -1.3347 -1.6151 -0.9841
  903MOL0     H24596   4.561  11.225   1.936 -0.8963  0.0235  1.2890
  903MOL0     H24597   4.341  11.178   1.897 -1.0382 -2.0435 -0.8426
  903MOL0     H24598   2.643  10.969   1.376 -0.9994  1.8027 -1.7440
  903MOL0     H24599   2.400  11.027   1.322 -0.9011  0.2076  0.4145
  903MOL0     H24600   2.032  11.044   1.242 -1.9645  2.3183 -0.6464
  903MOL0     H24601   1.822  11.096   1.162 -0.3462  0.8319  0.6842
  903MOL0     H24602   1.590  11.161   1.188 -0.1388 -0.4279 -0.4994
  903MOL0     H24603   1.638  11.064   1.046  1.1441 -1.4783  0.7251
  903MOL0     H24604   1.402  10.972   1.040 -3.6324  0.7198 -0.6486
  903MOL0     H24605   1.431  11.145   0.991  0.9052  0.2558  0.1361
  903MOL0     H24606   1.321  11.013   1.265  0.9025 -0.6791 -0.6015
  903MOL0     H24607   1.344  11.185   1.250 -1.2016 -0.1614  0.5739
  903MOL0     H24608   1.143  11.014   1.100  1.4263  1.1640 -2.5184
  903MOL0     H24609   1.166  11.190   1.071 -1.7890  1.7854  1.1115
  903MOL0     H24610   0.979  11.212   1.440  0.8353  0.1540  0.1634
  903MOL0     H24611   1.643  10.801   1.402  0.2628 -1.9893 -0.6304
  903MOL0     H24612   1.906  10.598   1.480  0.2845 -1.5815  2.9531
  903MOL0     H24613   1.915  10.725   1.597  1.3991  0.9545 -1.1383
  903MOL0     H24614   1.757  10.669   1.545 -0.3675  3.2695 -0.0774
  904MOL0     O24615   8.561   4.351   3.014 -0.6242  0.5200 -0.0423
  904MOL0     C24616   8.609   4.376   3.124  0.1127  0.3866 -0.7616
  904MOL0     O24617   8.729   4.323   3.166 -0.6455 -0.2287 -0.7793
  904MOL0     C24618   8.808   4.286   3.070 -0.2990 -0.1969 -0.4449
  904MOL0     C24619   8.821   4.152   3.035 -0.8502 -0.3561  0.1543
  904MOL0     C24620   8.932   4.110   2.962 -0.9530  0.3265 -0.7422
  904MOL0     C24621   9.036   4.199   2.920  0.0597 -0.0768  0.6511
  904MOL0     O24622   9.155   4.163   2.854 -0.1908 -0.3182 -0.0383
  904MOL0     C24623   9.164   4.039   2.794 -0.4367  0.2943  0.0328
  904MOL0     C24624   9.284   4.043   2.698  0.4126  0.4285  0.2686
  904MOL0     C24625   9.415   4.080   2.770 -0.4552  0.7205  0.8422
  904MOL0     C24626   9.531   4.086   2.675 -0.0121  0.1649 -0.2881
  904MOL0     C24627   9.598   3.951   2.648  1.0499  0.7929  0.0029
  904MOL0     C24628   9.664   3.898   2.777 -0.5658 -0.4687  0.4933
  904MOL0     C24629   9.778   3.802   2.748  0.3825  0.9046  0.2047
  904MOL0     C24630   9.730   3.657   2.718 -0.4834 -0.1550 -0.3023
  904MOL0     N24631   9.844   3.562   2.731  0.3135 -0.2887  0.5945
  904MOL0     C24632   9.921   3.537   2.847  0.0497  0.2673 -1.1372
  904MOL0     C24633  10.011   3.440   2.814  0.0379 -0.6168 -0.1562
  904MOL0     C24634  10.118   3.370   2.896 -0.3349  0.0529  0.1437
  904MOL0     C24635  10.239   3.464   2.905  0.7810 -0.8040 -0.2928
  904MOL0     C24636  10.335   3.421   2.800 -0.7929 -0.6701 -0.2671
  904MOL0     C24637  10.470   3.487   2.811  0.7619  0.4381 -0.3207
  904MOL0     O24638  10.531   3.468   2.686  0.3692 -0.8883 -0.3538
  904MOL0     C24639  10.659   3.509   2.674 -0.0004 -0.2745  0.4698
  904MOL0     C24640  10.720   3.599   2.761  0.3986 -0.9504  0.7654
  904MOL0     C24641  10.845   3.655   2.733 -0.2781  0.2950 -0.5852
  904MOL0     C24642  10.903   3.744   2.837  0.2978  0.2383  0.2575
  904MOL0     C24643  10.914   3.616   2.610 -0.8439  0.1294  0.0856
  904MOL0     C24644  11.043   3.679   2.557 -0.6922  0.0947 -0.6382
  904MOL0     O24645  11.105   3.610   2.451 -0.3145 -0.4527 -0.0922
  904MOL0     C24646  11.195   3.691   2.383 -0.5653  0.6791  0.9410
  904MOL0     C24647  11.331   3.666   2.397  0.3465 -0.3569  0.7100
  904MOL0     C24648  11.426   3.742   2.331  0.3628  0.3111  0.4548
  904MOL0     C24649  11.385   3.852   2.253 -0.6470 -0.0536 -0.0782
  904MOL0     O24650  11.477   3.931   2.192  0.3694 -0.1816 -0.1856
  904MOL0     C24651  11.623   3.908   2.216  0.6959  0.2773  0.8017
  904MOL0     C24652  11.700   4.041   2.177 -0.1806  0.7407 -0.2235
  904MOL0     C24653  11.849   4.004   2.166  0.2006  0.0381  0.6023
  904MOL0     C24654  11.928   4.107   2.086  0.1619  0.4788  0.2076
  904MOL0     C24655  12.081   4.076   2.115 -0.2623  0.5636 -0.0911
  904MOL0     C24656  12.173   4.189   2.103  0.5671 -0.6608 -0.1774
  904MOL0     C24657  12.312   4.121   2.135  0.1208  0.0145 -0.5202
  904MOL0     C24658  12.346   4.134   2.289  0.1734 -0.2980 -0.2702
  904MOL0    Cl24659  12.519   4.113   2.324  0.1751 -0.4289  0.1448
  904MOL0     C24660  11.246   3.874   2.242 -0.4651 -0.4402  0.3039
  904MOL0     C24661  11.155   3.794   2.302  0.6333 -0.2983 -0.3806
  904MOL0     O24662  11.067   3.790   2.606  0.0622 -0.3807 -0.6317
  904MOL0     C24663  10.848   3.523   2.523  0.4250 -0.1435 -0.0877
  904MOL0     C24664  10.723   3.473   2.551  0.3735  0.5407  0.8347
  904MOL0     N24665   9.994   3.415   2.684 -0.0182 -0.2596  0.1453
  904MOL0     N24666   9.898   3.481   2.632  0.8827 -0.1401 -0.7731
  904MOL0     C24667   9.028   4.336   2.959 -0.2541  0.4277 -0.1439
  904MOL0     C24668   8.910   4.375   3.029  0.0310 -0.1297  0.5831
  904MOL0     C24669   8.527   4.437   3.230 -0.3535  0.5333 -0.5449
  904MOL0     C24670   8.550   4.407   3.362  1.0511 -0.1158  0.1597
  904MOL0     C24671   8.472   4.463   3.460 -0.1243 -0.0670 -0.6572
  904MOL0     C24672   8.370   4.558   3.425 -0.6660  1.4169  0.3881
  904MOL0     O24673   8.290   4.628   3.517 -0.3215 -0.4038 -0.2673
  904MOL0     C24674   8.314   4.622   3.655 -0.3431 -0.2437 -0.8639
  904MOL0     C24675   8.220   4.711   3.738 -1.0301  0.2192  0.3010
  904MOL0     C24676   8.287   4.776   3.859  0.1927  0.2684 -0.1104
  904MOL0     C24677   8.188   4.871   3.935  0.4743 -0.9057 -0.0893
  904MOL0     C24678   8.069   4.804   3.986  0.5815  0.0512  0.4831
  904MOL0     C24679   7.971   4.744   4.032  0.1233  0.3597 -0.0029
  904MOL0     C24680   8.350   4.597   3.292  1.0685  0.1899 -0.9727
  904MOL0     C24681   8.434   4.537   3.193  0.3340  0.8513  0.6461
  904MOL0     C24682   8.423   4.599   3.059  0.0327  0.0655 -0.0629
  904MOL0     H24683   8.749   4.082   3.075 -1.7635 -0.7804 -2.0769
  904MOL0     H24684   8.950   4.005   2.944 -0.3342  0.4898 -1.1053
  904MOL0     H24685   9.071   4.018   2.742 -1.7947  3.1529  1.0679
  904MOL0     H24686   9.177   3.960   2.868  1.4426 -0.2928 -0.8561
  904MOL0     H24687   9.293   3.945   2.650 -0.6934 -0.6037  2.0507
  904MOL0     H24688   9.264   4.119   2.623 -0.3860  3.3782  3.2333
  904MOL0     H24689   9.412   4.181   2.812  2.4463  1.8256 -1.3503
  904MOL0     H24690   9.438   4.010   2.851  1.1288  0.1917 -0.0244
  904MOL0     H24691   9.500   4.117   2.574 -0.9454  0.5278  0.0999
  904MOL0     H24692   9.607   4.159   2.705  1.0985 -0.8394 -0.6164
  904MOL0     H24693   9.675   3.958   2.570 -1.5207 -1.0799 -2.9233
  904MOL0     H24694   9.528   3.876   2.612  2.1161 -1.3666  2.1457
  904MOL0     H24695   9.709   3.987   2.822  1.3906 -1.1181 -0.0782
  904MOL0     H24696   9.589   3.853   2.842 -0.4881 -1.5750 -0.1566
  904MOL0     H24697   9.832   3.797   2.843  2.0974  1.4064 -0.6991
  904MOL0     H24698   9.846   3.840   2.672 -0.3499  0.6263 -0.6006
  904MOL0     H24699   9.650   3.628   2.787  1.2466 -2.6810  0.7925
  904MOL0     H24700   9.689   3.645   2.617 -0.5844 -1.1129 -0.1554
  904MOL0     H24701   9.915   3.573   2.949  2.1750 -1.0423 -0.5053
  904MOL0     H24702  10.142   3.275   2.848  0.6377 -0.3729  1.4338
  904MOL0     H24703  10.077   3.338   2.992 -0.4641 -2.1536 -0.5829
  904MOL0     H24704  10.221   3.571   2.897  0.6047 -0.8026  0.0881
  904MOL0     H24705  10.277   3.445   3.005  0.6668 -1.6412 -0.3950
  904MOL0     H24706  10.356   3.314   2.807  0.4630 -0.3572  1.1208
  904MOL0     H24707  10.292   3.460   2.707  0.1625 -1.2266 -0.9634
  904MOL0     H24708  10.447   3.590   2.838  0.7810  0.3881 -0.1137
  904MOL0     H24709  10.526   3.437   2.890 -0.8354  2.8618  2.5422
  904MOL0     H24710  10.684   3.611   2.863  1.4025 -0.1659  1.0443
  904MOL0     H24711  10.900   3.845   2.795  0.8285 -0.6610 -2.1017
  904MOL0     H24712  11.010   3.720   2.849  0.2193  0.2463  1.0402
  904MOL0     H24713  10.850   3.729   2.932 -0.6820 -0.6585 -0.4096
  904MOL0     H24714  11.353   3.579   2.459  0.0419 -1.6208 -0.9064
  904MOL0     H24715  11.526   3.703   2.343 -0.2243 -1.8112 -0.9851
  904MOL0     H24716  11.644   3.879   2.320  1.8416 -1.0964  0.2283
  904MOL0     H24717  11.655   3.827   2.150  0.2018  0.1972  0.6520
  904MOL0     H24718  11.661   4.079   2.082  0.2587  1.1237 -0.2518
  904MOL0     H24719  11.691   4.120   2.252  1.7004  2.5704 -1.8029
  904MOL0     H24720  11.852   3.919   2.098  1.7742  1.6086 -1.3963
  904MOL0     H24721  11.893   3.964   2.258  1.2798 -1.8698 -0.6790
  904MOL0     H24722  11.905   4.212   2.105  2.7537  1.0153  0.8161
  904MOL0     H24723  11.904   4.092   1.981 -1.8844  1.6905  0.4485
  904MOL0     H24724  12.093   4.033   2.215  1.0726  1.8411  0.3312
  904MOL0     H24725  12.100   3.996   2.043  0.4344 -0.4143  1.1399
  904MOL0     H24726  12.141   4.269   2.170 -0.3063  0.3422 -1.7205
  904MOL0     H24727  12.187   4.217   1.998  3.7274 -0.3981  0.2046
  904MOL0     H24728  12.397   4.162   2.080  1.2947  2.8032  3.0225
  904MOL0     H24729  12.307   4.012   2.125  0.8727 -0.0624 -0.0847
  904MOL0     H24730  12.287   4.057   2.338 -0.7410  0.4613 -0.1559
  904MOL0     H24731  12.322   4.227   2.341 -2.2791 -0.2203 -1.3874
  904MOL0     H24732  11.213   3.963   2.188  0.1088  1.4803  2.9248
  904MOL0     H24733  11.052   3.828   2.306  0.5392 -0.5835 -0.3453
  904MOL0     H24734  10.894   3.505   2.426 -0.1243 -0.0656 -0.3712
  904MOL0     H24735  10.666   3.405   2.488  0.0139  0.1997  1.5118
  904MOL0     H24736   9.099   4.411   2.928 -1.0564  0.6323 -1.6132
  904MOL0     H24737   8.897   4.479   3.057 -0.9921  0.2944 -1.2914
  904MOL0     H24738   8.632   4.346   3.399  0.5007 -0.5955  0.6206
  904MOL0     H24739   8.496   4.445   3.564 -0.0971 -0.0164 -0.6544
  904MOL0     H24740   8.309   4.522   3.700 -0.1521  0.8930  1.8858
  904MOL0     H24741   8.412   4.663   3.677  0.2262 -2.3851  0.9881
  904MOL0     H24742   8.127   4.658   3.762 -0.0893 -2.1795 -0.9903
  904MOL0     H24743   8.188   4.800   3.682  0.5163  1.6908  1.6280
  904MOL0     H24744   8.323   4.692   3.920  0.7848 -0.1980 -1.0858
  904MOL0     H24745   8.370   4.843   3.835 -0.0718  1.4791  2.0138
  904MOL0     H24746   8.160   4.958   3.875  0.3803 -2.7458 -2.8955
  904MOL0     H24747   8.241   4.910   4.023  2.2732  0.6540 -1.7570
  904MOL0     H24748   7.896   4.674   4.063 -0.6537  1.3170  0.3299
  904MOL0     H24749   8.271   4.667   3.265  0.8263  1.7355  3.0579
  904MOL0     H24750   8.382   4.700   3.072 -0.2721 -0.2522  1.6196
  904MOL0     H24751   8.519   4.610   3.006  0.7539 -2.4047  0.6311
  904MOL0     H24752   8.360   4.544   2.988  1.7572  2.8800 -4.1812
  905MOL0     O24753   8.998   6.266   3.843  0.4611  0.1688  0.5163
  905MOL0     C24754   8.991   6.346   3.746 -0.3846  0.3920  0.4405
  905MOL0     O24755   9.102   6.388   3.675  0.1511 -0.3723  0.1836
  905MOL0     C24756   9.228   6.332   3.712 -0.3304 -0.0989  1.0616
  905MOL0     C24757   9.337   6.418   3.702  0.0257 -1.4555  0.5089
  905MOL0     C24758   9.469   6.384   3.730 -0.4535  0.2474  0.2913
  905MOL0     C24759   9.492   6.259   3.770 -0.9770  0.3294 -0.3502
  905MOL0     O24760   9.617   6.211   3.805 -0.0312  0.4300  0.2763
  905MOL0     C24761   9.744   6.293   3.782  0.4356  0.2124 -0.8871
  905MOL0     C24762   9.868   6.219   3.831  0.1610  0.7041 -0.0912
  905MOL0     C24763  10.001   6.288   3.799 -0.0212  0.2358 -0.1106
  905MOL0     C24764  10.108   6.182   3.821  0.0774 -0.6077  0.1902
  905MOL0     C24765  10.247   6.232   3.788  0.3661 -0.5745  0.6512
  905MOL0     C24766  10.352   6.116   3.777  0.4374  0.1192 -0.2460
  905MOL0     C24767  10.484   6.163   3.729  0.3307  0.0743  0.7399
  905MOL0     C24768  10.598   6.056   3.727 -0.3167  0.1237 -0.9998
  905MOL0     N24769  10.719   6.118   3.673 -0.1550  0.5588 -0.1182
  905MOL0     C24770  10.774   6.100   3.551  0.1301  1.3095 -0.8890
  905MOL0     C24771  10.879   6.182   3.539 -0.6782 -0.0741  0.0479
  905MOL0     C24772  10.943   6.211   3.410  0.0262 -0.7803  0.2369
  905MOL0     C24773  11.051   6.307   3.437  0.2236  0.6852  0.0467
  905MOL0     C24774  11.116   6.362   3.309 -0.2624 -0.1132  0.0753
  905MOL0     C24775  11.164   6.253   3.214 -0.2297 -0.7742 -0.0016
  905MOL0     O24776  11.245   6.310   3.111  0.3837 -0.2018  0.3010
  905MOL0     C24777  11.305   6.227   3.017 -0.2045  0.0835 -0.8337
  905MOL0     C24778  11.379   6.277   2.920 -0.7713  0.7890  0.7742
  905MOL0     C24779  11.425   6.196   2.816  0.4069  0.4460  0.3702
  905MOL0     C24780  11.496   6.260   2.703 -0.1024  0.1912  0.2473
  905MOL0     C24781  11.404   6.056   2.813 -0.0362 -0.3603  1.6940
  905MOL0     C24782  11.431   5.966   2.695  0.1341  0.8832 -0.2558
  905MOL0     O24783  11.369   5.995   2.579  0.9125 -0.4012 -0.6057
  905MOL0     C24784  11.422   5.953   2.459  0.0309 -0.0420 -0.3680
  905MOL0     C24785  11.336   5.910   2.359  0.5131  0.4150  0.3480
  905MOL0     C24786  11.370   5.877   2.228 -0.4197  1.0628  0.4347
  905MOL0     C24787  11.509   5.891   2.195 -0.2435 -0.1051  0.3402
  905MOL0     O24788  11.542   5.872   2.062 -0.3374  0.2320  0.6162
  905MOL0     C24789  11.655   5.936   2.011 -0.6842 -0.7308 -0.1333
  905MOL0     C24790  11.637   6.076   1.970  0.2428 -0.4720 -0.3122
  905MOL0     C24791  11.519   6.109   1.869  0.2250  0.5156 -0.0584
  905MOL0     C24792  11.539   6.041   1.728 -0.3642 -0.6960  0.7083
  905MOL0     C24793  11.448   6.106   1.617 -0.1219 -0.7841 -1.5923
  905MOL0     C24794  11.462   6.050   1.477  0.4977  0.6480  0.2707
  905MOL0     C24795  11.360   6.116   1.377 -0.2212  0.1807  0.6427
  905MOL0     C24796  11.349   6.046   1.246  0.5924  0.3818 -0.1017
  905MOL0    Cl24797  11.218   6.138   1.172  0.4442 -0.1339  0.2870
  905MOL0     C24798  11.598   5.931   2.293  0.4685 -0.0870  0.3135
  905MOL0     C24799  11.555   5.971   2.423 -0.0593  1.3024 -0.5679
  905MOL0     O24800  11.526   5.885   2.712  0.2117 -0.5620 -0.1148
  905MOL0     C24801  11.329   6.001   2.915 -0.5256 -0.3953  0.4843
  905MOL0     C24802  11.287   6.085   3.019 -0.2600 -0.3757  0.1836
  905MOL0     N24803  10.892   6.238   3.665 -0.2056 -0.0990 -0.0151
  905MOL0     N24804  10.797   6.209   3.741  0.3513 -0.6833  0.4643
  905MOL0     C24805   9.386   6.164   3.781  0.5612  0.3374  0.4914
  905MOL0     C24806   9.257   6.196   3.741  0.5411  0.3474  0.0716
  905MOL0     C24807   8.855   6.391   3.697  0.4016  0.2666  0.0994
  905MOL0     C24808   8.851   6.459   3.576 -0.4059 -0.2533  0.6969
  905MOL0     C24809   8.736   6.481   3.515  0.5338 -0.5582 -1.0044
  905MOL0     C24810   8.619   6.448   3.582  0.1758 -0.7349 -0.2161
  905MOL0     O24811   8.496   6.470   3.522 -0.8103 -0.4002 -0.6349
  905MOL0     C24812   8.448   6.364   3.438  0.3556 -0.7710  0.1426
  905MOL0     C24813   8.299   6.315   3.460 -0.3761 -0.3831  1.1726
  905MOL0     C24814   8.296   6.249   3.599 -0.2439  0.1102 -0.2667
  905MOL0     C24815   8.159   6.207   3.643  0.2140  0.7068  0.6847
  905MOL0     C24816   8.108   6.088   3.574 -0.0548  0.6857  0.0850
  905MOL0     C24817   8.043   5.999   3.521 -0.0167 -0.0872  0.7136
  905MOL0     C24818   8.621   6.394   3.704 -1.0674  0.4942 -0.1689
  905MOL0     C24819   8.735   6.364   3.765 -0.4046 -0.6185 -0.3925
  905MOL0     C24820   8.727   6.290   3.894  0.0439 -0.1699  0.0744
  905MOL0     H24821   9.328   6.522   3.671  0.8729 -1.9882 -1.6443
  905MOL0     H24822   9.554   6.451   3.723 -1.1081  1.0351 -0.3486
  905MOL0     H24823   9.744   6.395   3.820  0.2666  0.7336 -2.2293
  905MOL0     H24824   9.762   6.303   3.675 -0.5136 -0.2619 -1.1067
  905MOL0     H24825   9.871   6.205   3.940  0.4811 -0.2065 -0.2163
  905MOL0     H24826   9.869   6.122   3.782 -1.0587 -0.0691  1.3436
  905MOL0     H24827  10.003   6.313   3.693 -2.8907  0.9890 -0.0523
  905MOL0     H24828  10.022   6.378   3.858 -0.2745  0.0150  0.3260
  905MOL0     H24829  10.103   6.143   3.923  1.5256 -0.9010  0.1763
  905MOL0     H24830  10.082   6.094   3.761  0.2894 -1.1865  0.9252
  905MOL0     H24831  10.263   6.307   3.866 -1.0032  0.2963  0.1376
  905MOL0     H24832  10.253   6.291   3.696  0.6638  0.8340  1.5360
  905MOL0     H24833  10.363   6.071   3.877  1.7641 -0.8570 -0.8039
  905MOL0     H24834  10.314   6.047   3.701  0.4162  0.7939 -0.8470
  905MOL0     H24835  10.506   6.252   3.789 -6.0511  1.7629  1.2373
  905MOL0     H24836  10.467   6.194   3.626 -1.6375 -2.6202  0.1423
  905MOL0     H24837  10.619   6.034   3.833 -1.9087 -1.3577 -0.9323
  905MOL0     H24838  10.570   5.963   3.677  0.1053  0.4803 -1.9146
  905MOL0     H24839  10.745   6.041   3.465 -1.7329  0.2498  0.3836
  905MOL0     H24840  10.863   6.253   3.349 -1.9788 -1.0841  2.5077
  905MOL0     H24841  10.990   6.125   3.362  2.6014  1.9466 -2.5986
  905MOL0     H24842  11.013   6.400   3.480 -1.6496  0.5059 -1.1321
  905MOL0     H24843  11.123   6.257   3.503  0.6707  0.5293 -0.5494
  905MOL0     H24844  11.040   6.426   3.262 -1.1492 -0.3054  1.2057
  905MOL0     H24845  11.193   6.439   3.324 -0.2559  0.3123 -1.8991
  905MOL0     H24846  11.227   6.175   3.258 -0.6147 -1.3238 -0.4149
  905MOL0     H24847  11.076   6.201   3.175 -0.9450  0.2934  0.1576
  905MOL0     H24848  11.405   6.383   2.920  1.0505  0.3743  0.7090
  905MOL0     H24849  11.593   6.212   2.686 -0.1250  0.7397 -1.5718
  905MOL0     H24850  11.521   6.364   2.728  0.9500 -0.1236  0.5619
  905MOL0     H24851  11.431   6.259   2.615  0.4188  1.6597 -0.1873
  905MOL0     H24852  11.231   5.898   2.385  0.1147  0.7780 -0.9982
  905MOL0     H24853  11.296   5.833   2.162  1.1123  0.1254 -0.7632
  905MOL0     H24854  11.748   5.925   2.068  1.0893  2.5678 -2.0350
  905MOL0     H24855  11.676   5.878   1.921 -1.4337  0.5985 -1.2040
  905MOL0     H24856  11.627   6.144   2.056  0.1115  3.0499 -2.9243
  905MOL0     H24857  11.729   6.114   1.926  0.1572  0.1009 -0.0068
  905MOL0     H24858  11.522   6.218   1.864  1.2425  0.5508  0.9407
  905MOL0     H24859  11.422   6.077   1.907 -0.3328  0.5438 -1.4144
  905MOL0     H24860  11.506   5.937   1.738 -1.4093 -0.6701 -1.7628
  905MOL0     H24861  11.645   6.042   1.703 -0.6794  2.8790 -1.0688
  905MOL0     H24862  11.350   6.088   1.662  1.5509 -3.2895  1.5586
  905MOL0     H24863  11.471   6.211   1.597  2.8676 -1.4849 -2.3674
  905MOL0     H24864  11.469   5.942   1.465  1.1870  0.4154  2.4645
  905MOL0     H24865  11.562   6.083   1.448  2.2354 -2.3646  2.3483
  905MOL0     H24866  11.407   6.214   1.372 -0.5366  0.2751 -1.0339
  905MOL0     H24867  11.260   6.127   1.421  0.2758  1.0943  1.5884
  905MOL0     H24868  11.301   5.948   1.254 -0.0101  0.2818 -3.4350
  905MOL0     H24869  11.438   6.043   1.183  1.3953 -3.1135  0.9828
  905MOL0     H24870  11.703   5.938   2.265  0.5070  0.1230  0.4999
  905MOL0     H24871  11.622   6.011   2.498 -1.5097  0.9369  0.9744
  905MOL0     H24872  11.305   5.896   2.899 -0.1237 -0.5910  1.1357
  905MOL0     H24873  11.220   6.039   3.091 -2.4878  1.9107 -0.2373
  905MOL0     H24874   9.400   6.065   3.824  3.3588  0.2733 -0.4146
  905MOL0     H24875   9.179   6.121   3.746  1.6055 -0.8136 -0.4788
  905MOL0     H24876   8.944   6.474   3.523 -0.6362 -0.6546  0.1736
  905MOL0     H24877   8.724   6.535   3.422 -1.7425 -0.1412 -0.5437
  905MOL0     H24878   8.466   6.389   3.333  1.2670 -2.6096 -0.1901
  905MOL0     H24879   8.508   6.272   3.443  0.9965 -0.3558  0.1416
  905MOL0     H24880   8.287   6.243   3.378  2.9954  1.5101 -1.2574
  905MOL0     H24881   8.231   6.398   3.441  1.5534  0.7822 -1.2238
  905MOL0     H24882   8.366   6.167   3.585 -2.4347 -1.7026 -1.2547
  905MOL0     H24883   8.340   6.317   3.672  0.0066 -1.2012  0.8439
  905MOL0     H24884   8.091   6.291   3.629 -1.2667 -0.4895  0.4345
  905MOL0     H24885   8.167   6.197   3.752 -0.8211  0.1908  0.7250
  905MOL0     H24886   7.991   5.925   3.463 -0.3469  2.3435 -2.3720
  905MOL0     H24887   8.528   6.372   3.756 -1.7246  1.5469 -0.8719
  905MOL0     H24888   8.804   6.332   3.960  0.2480 -0.0185 -0.2561
  905MOL0     H24889   8.632   6.289   3.949 -0.0166  0.5803  0.0020
  905MOL0     H24890   8.739   6.182   3.882  0.3994  0.0649 -2.2283
  906MOL0     O24891   7.750   5.668   8.156 -0.0740  0.4540 -0.1619
  906MOL0     C24892   7.839   5.700   8.079  0.0951  0.1744 -0.2621
  906MOL0     O24893   7.968   5.727   8.120 -0.2405  0.5769 -0.0381
  906MOL0     C24894   7.994   5.726   8.253  0.5822  0.5115 -0.5377
  906MOL0     C24895   7.969   5.843   8.314  0.4251  0.6378 -0.6775
  906MOL0     C24896   7.978   5.859   8.450 -0.2483  0.0265 -0.7545
  906MOL0     C24897   8.050   5.758   8.522 -0.7010  0.6111 -0.9628
  906MOL0     O24898   8.092   5.780   8.658 -0.4139  0.0903  0.5157
  906MOL0     C24899   8.049   5.890   8.736 -0.3516 -0.1602 -0.3482
  906MOL0     C24900   8.128   6.016   8.696 -0.1713 -0.7038  0.5318
  906MOL0     C24901   8.283   5.995   8.704 -0.3242  0.7510  1.0008
  906MOL0     C24902   8.367   6.117   8.690  0.6603 -0.6746  0.3449
  906MOL0     C24903   8.519   6.087   8.707  0.0116  0.2168 -0.2227
  906MOL0     C24904   8.605   6.213   8.693 -0.4631  0.2333  0.4738
  906MOL0     C24905   8.737   6.176   8.624  0.9859  0.9870  0.3843
  906MOL0     C24906   8.845   6.275   8.673  0.8057  0.5284 -0.4573
  906MOL0     N24907   8.814   6.407   8.641  0.3681 -0.8526 -0.1792
  906MOL0     C24908   8.815   6.462   8.517  0.6408  0.7187 -1.3282
  906MOL0     C24909   8.786   6.591   8.541  0.2019  0.1626 -0.3780
  906MOL0     C24910   8.756   6.698   8.438 -0.5305  0.8390  0.1401
  906MOL0     C24911   8.890   6.768   8.416 -0.6922 -0.7968 -0.2538
  906MOL0     C24912   8.883   6.885   8.309 -0.1244  0.0657  0.4924
  906MOL0     C24913   8.990   6.984   8.310  0.4432  0.5350 -0.8744
  906MOL0     O24914   8.945   7.098   8.242  0.1704  1.2676 -0.0263
  906MOL0     C24915   9.035   7.205   8.221  0.8086 -0.6211 -0.6166
  906MOL0     C24916   8.987   7.342   8.193 -0.2055 -0.3558 -0.0721
  906MOL0     C24917   9.076   7.453   8.181  0.5639  0.3992 -0.9671
  906MOL0     C24918   9.001   7.582   8.156  0.2164  0.5368 -0.4093
  906MOL0     C24919   9.211   7.427   8.187 -0.0205 -0.4381  0.7973
  906MOL0     C24920   9.306   7.532   8.170 -0.5227  0.5132 -0.4074
  906MOL0     O24921   9.438   7.496   8.160  0.2177  0.8036  0.1344
  906MOL0     C24922   9.538   7.590   8.131  0.0686  1.0129 -0.3004
  906MOL0     C24923   9.529   7.712   8.068 -0.5278 -0.8478  0.1865
  906MOL0     C24924   9.638   7.795   8.029 -0.9067  0.4392  0.4127
  906MOL0     C24925   9.763   7.748   8.049  0.2435  0.8070  0.6206
  906MOL0     O24926   9.855   7.840   8.013 -0.0570  0.2064  0.1627
  906MOL0     C24927   9.989   7.818   8.041 -0.4286  0.0379  0.1409
  906MOL0     C24928  10.072   7.917   7.968  0.4148 -0.5634 -0.3276
  906MOL0     C24929  10.211   7.932   8.026  0.7157  0.2358  0.4858
  906MOL0     C24930  10.295   7.818   7.995 -0.5480 -0.0088  0.6179
  906MOL0     C24931  10.440   7.855   7.996 -0.0214  0.3893  0.1628
  906MOL0     C24932  10.501   7.843   8.128  0.5700 -0.5303 -0.4399
  906MOL0     C24933  10.647   7.874   8.117  0.3259  0.3032 -0.5820
  906MOL0     C24934  10.736   7.830   8.233 -0.3190  1.0231 -0.1203
  906MOL0    Cl24935  10.910   7.878   8.224  0.0565  0.1674 -0.1440
  906MOL0     C24936   9.779   7.632   8.119 -0.1154 -0.0573 -0.0646
  906MOL0     C24937   9.672   7.552   8.162  0.4922 -1.0701  0.4586
  906MOL0     O24938   9.273   7.648   8.201  0.3763  0.3729 -0.6476
  906MOL0     C24939   9.253   7.291   8.204  0.9233  0.2937 -0.6038
  906MOL0     C24940   9.168   7.195   8.227 -0.3862  0.0461  0.1069
  906MOL0     N24941   8.767   6.617   8.672  0.2408  0.0924 -0.3476
  906MOL0     N24942   8.772   6.503   8.737 -0.3012 -0.1620  0.4146
  906MOL0     C24943   8.080   5.638   8.462 -0.1956  0.0442 -0.2908
  906MOL0     C24944   8.041   5.615   8.329  0.1720 -0.9422 -0.0562
  906MOL0     C24945   7.819   5.717   7.934 -0.2337 -0.0642  0.8027
  906MOL0     C24946   7.919   5.770   7.847  0.0271 -0.3925 -0.5444
  906MOL0     C24947   7.902   5.791   7.708 -0.0290  0.2581 -0.7527
  906MOL0     C24948   7.790   5.751   7.651  0.1840  0.8049  0.1303
  906MOL0     O24949   7.772   5.783   7.521 -0.2542 -0.2651  0.1947
  906MOL0     C24950   7.651   5.858   7.486  0.4187 -0.3754  0.0683
  906MOL0     C24951   7.633   5.986   7.569 -0.8374  0.0273 -0.7361
  906MOL0     C24952   7.511   6.061   7.530  0.4753 -0.4329  0.2004
  906MOL0     C24953   7.532   6.117   7.387 -0.1883 -0.2650  0.7158
  906MOL0     C24954   7.429   6.228   7.370 -0.3168 -0.2053 -0.5718
  906MOL0     C24955   7.346   6.312   7.339  0.4160 -1.1372 -0.1036
  906MOL0     C24956   7.692   5.694   7.732 -0.8826  0.0510  0.3669
  906MOL0     C24957   7.703   5.675   7.869 -0.0387 -0.1068 -0.0644
  906MOL0     C24958   7.587   5.602   7.933  0.6763 -0.5579 -0.1404
  906MOL0     H24959   7.919   5.924   8.261 -0.5615 -0.4714 -1.4883
  906MOL0     H24960   7.944   5.953   8.492  1.2914  0.8653 -1.2908
  906MOL0     H24961   8.055   5.861   8.842 -0.6976 -4.0267 -1.2321
  906MOL0     H24962   7.941   5.906   8.730 -0.2985  0.6258  0.5610
  906MOL0     H24963   8.094   6.036   8.594 -1.6682 -0.1129  1.1124
  906MOL0     H24964   8.105   6.102   8.761  1.5063 -1.2244  1.8850
  906MOL0     H24965   8.307   5.954   8.802  1.0520 -0.0523  0.3633
  906MOL0     H24966   8.318   5.926   8.626  1.8324 -0.7744  3.1737
  906MOL0     H24967   8.365   6.163   8.591 -0.4427  2.3895  1.6804
  906MOL0     H24968   8.340   6.195   8.761 -1.9153 -0.8025 -0.3879
  906MOL0     H24969   8.549   6.017   8.628 -2.9515 -3.2107  1.3920
  906MOL0     H24970   8.538   6.024   8.794  0.2020  0.5833  0.0057
  906MOL0     H24971   8.555   6.302   8.653 -1.6788 -0.9347 -0.7307
  906MOL0     H24972   8.613   6.245   8.797 -0.9145  1.1244  0.2480
  906MOL0     H24973   8.727   6.194   8.516 -1.2113 -1.3215  0.1254
  906MOL0     H24974   8.761   6.070   8.639  0.3316  0.7337 -0.2611
  906MOL0     H24975   8.873   6.256   8.777  1.0844  0.1174 -0.6062
  906MOL0     H24976   8.931   6.248   8.612  1.2065 -1.6962  0.9598
  906MOL0     H24977   8.834   6.418   8.420 -0.9230  0.1638 -1.4127
  906MOL0     H24978   8.687   6.768   8.486  2.9351  2.2587  3.5376
  906MOL0     H24979   8.710   6.666   8.344  0.4651  1.1748 -0.4759
  906MOL0     H24980   8.922   6.811   8.512  3.1759 -2.1688 -0.7615
  906MOL0     H24981   8.977   6.708   8.387  2.4330  3.3876 -0.6480
  906MOL0     H24982   8.884   6.835   8.212  2.1851  1.6338 -0.3733
  906MOL0     H24983   8.787   6.937   8.319 -0.6319 -0.6701 -0.4750
  906MOL0     H24984   9.010   7.004   8.416 -2.2143  1.9163 -0.5379
  906MOL0     H24985   9.077   6.941   8.260  1.6782  1.6809  0.1956
  906MOL0     H24986   8.879   7.350   8.184 -0.2507 -0.5937  0.2238
  906MOL0     H24987   9.042   7.639   8.072 -2.1147 -2.3587 -3.8001
  906MOL0     H24988   9.007   7.635   8.251 -0.6518 -0.7002  0.3715
  906MOL0     H24989   8.893   7.568   8.150  0.4982 -2.2668 -0.2449
  906MOL0     H24990   9.428   7.746   8.046 -0.6007 -1.0207  0.2580
  906MOL0     H24991   9.624   7.893   7.986  0.7107  1.5393  2.2681
  906MOL0     H24992  10.012   7.826   8.148 -2.4905 -1.2150  0.7220
  906MOL0     H24993  10.024   7.720   8.008 -0.9787 -0.5629  1.2714
  906MOL0     H24994  10.084   7.890   7.863  0.9186  1.8453 -0.9533
  906MOL0     H24995  10.019   8.012   7.979 -2.1759 -2.0435  1.2294
  906MOL0     H24996  10.200   7.941   8.134  0.7199 -2.1955  0.7348
  906MOL0     H24997  10.255   8.022   7.982 -0.4157 -0.2806 -1.8946
  906MOL0     H24998  10.270   7.780   7.895 -2.3961  0.6610  0.8047
  906MOL0     H24999  10.278   7.726   8.050  0.8034  0.0995  1.2603
  906MOL0     H25000  10.478   7.785   7.922 -0.8839  0.0578  0.0161
  906MOL0     H25001  10.465   7.949   7.946  0.1391  0.0667 -0.3703
  906MOL0     H25002  10.470   7.749   8.173 -2.3804 -0.1758 -1.5111
  906MOL0     H25003  10.453   7.918   8.193 -1.9609 -0.9646 -1.6922
  906MOL0     H25004  10.677   7.979   8.108 -2.5993  1.1600 -1.5346
  906MOL0     H25005  10.689   7.818   8.033 -0.6398 -1.3855  0.0257
  906MOL0     H25006  10.732   7.723   8.255 -2.3056  0.9221 -0.7923
  906MOL0     H25007  10.692   7.884   8.317 -1.0197  1.3518 -0.6851
  906MOL0     H25008   9.879   7.599   8.147 -1.5654 -3.4045  1.7784
  906MOL0     H25009   9.691   7.458   8.214  0.9639 -1.1320  0.1736
  906MOL0     H25010   9.354   7.267   8.172  1.4512  0.3334  0.9179
  906MOL0     H25011   9.226   7.105   8.247  2.4559  2.0938  1.8008
  906MOL0     H25012   8.135   5.561   8.515  0.6485  0.7218 -0.1640
  906MOL0     H25013   8.048   5.514   8.290  2.0899 -0.3028 -1.5384
  906MOL0     H25014   8.011   5.810   7.889 -0.5777  1.8569 -1.2178
  906MOL0     H25015   7.978   5.838   7.646  1.5997 -1.5634 -0.2517
  906MOL0     H25016   7.657   5.885   7.380  3.1851  1.1858  0.5302
  906MOL0     H25017   7.566   5.791   7.500 -1.2362  0.9218 -2.7886
  906MOL0     H25018   7.715   6.055   7.550 -1.4327  0.1375 -3.2556
  906MOL0     H25019   7.628   5.950   7.673 -2.0836 -2.9119 -1.6945
  906MOL0     H25020   7.422   5.998   7.540  2.0478 -2.4452  2.7603
  906MOL0     H25021   7.492   6.148   7.594 -2.3873  0.7827 -2.0250
  906MOL0     H25022   7.513   6.046   7.306  0.7674  0.9311 -0.5948
  906MOL0     H25023   7.633   6.156   7.372 -0.3409 -0.7820 -2.2061
  906MOL0     H25024   7.297   6.393   7.289  2.2652  1.1638  1.6243
  906MOL0     H25025   7.605   5.657   7.679  1.0714 -1.2256 -2.1384
  906MOL0     H25026   7.631   5.507   7.961 -0.0862 -1.2913 -1.3538
  906MOL0     H25027   7.547   5.654   8.021 -0.3461  0.4752 -1.1747
  906MOL0     H25028   7.494   5.592   7.875  1.2735 -1.4196 -0.9671
  907MOL0     O25029   5.855   8.300   2.639 -0.2031  0.2773  0.5092
  907MOL0     C25030   5.792   8.328   2.537 -0.5201  0.4854  0.1604
  907MOL0     O25031   5.849   8.361   2.419  0.2457  0.1499  0.7863
  907MOL0     C25032   5.985   8.353   2.407 -0.3071 -0.0715 -0.0732
  907MOL0     C25033   6.086   8.400   2.494  0.5171 -0.2460  0.3391
  907MOL0     C25034   6.223   8.396   2.460 -0.5330  0.1858 -0.0074
  907MOL0     C25035   6.268   8.357   2.338  0.0570  0.7195 -0.6478
  907MOL0     O25036   6.397   8.349   2.308 -0.3110 -0.4184 -0.2899
  907MOL0     C25037   6.455   8.232   2.375 -0.4955  0.2061  0.9294
  907MOL0     C25038   6.601   8.233   2.368  1.4409  0.1924  0.0472
  907MOL0     C25039   6.657   8.104   2.437 -0.5904 -0.4937  0.3524
  907MOL0     C25040   6.811   8.124   2.435 -1.0324 -0.1940 -0.0572
  907MOL0     C25041   6.879   8.042   2.547 -0.0995  0.2410  0.6666
  907MOL0     C25042   7.012   8.103   2.590  0.0320  0.7904  0.7793
  907MOL0     C25043   7.075   8.035   2.713 -0.0139 -0.4582 -0.1114
  907MOL0     C25044   7.143   7.900   2.672 -0.4607  0.6243  0.0075
  907MOL0     N25045   7.284   7.911   2.629 -0.5762 -0.2397  0.3350
  907MOL0     C25046   7.374   8.011   2.650  0.4203 -0.1014 -0.1689
  907MOL0     C25047   7.473   7.999   2.558 -0.0308 -0.1819  0.8846
  907MOL0     C25048   7.597   8.084   2.559  0.3771 -0.6707 -0.0005
  907MOL0     C25049   7.718   7.999   2.582  0.5878  0.1294 -0.2461
  907MOL0     C25050   7.846   8.076   2.572 -0.5137  0.1170  0.5573
  907MOL0     C25051   7.969   7.986   2.591 -0.1360 -0.8462 -1.0131
  907MOL0     O25052   8.094   8.055   2.590 -0.2822 -0.4726  0.2418
  907MOL0     C25053   8.153   8.109   2.471 -0.3498 -0.2029  0.2190
  907MOL0     C25054   8.276   8.175   2.499  0.4184 -0.2756 -0.3489
  907MOL0     C25055   8.361   8.215   2.399  1.1157  0.3771  0.2010
  907MOL0     C25056   8.481   8.303   2.441  0.7015 -0.6157  0.0530
  907MOL0     C25057   8.319   8.188   2.258 -0.2359  0.1555 -1.2871
  907MOL0     C25058   8.396   8.241   2.134  0.3744 -0.8496  0.0481
  907MOL0     O25059   8.371   8.182   2.017 -0.2578 -0.6924 -0.4314
  907MOL0     C25060   8.445   8.238   1.912 -0.1109 -0.0869  0.7785
  907MOL0     C25061   8.405   8.356   1.851  0.1436 -0.6947  0.5458
  907MOL0     C25062   8.466   8.402   1.733 -0.8425  0.7231 -0.2860
  907MOL0     C25063   8.580   8.328   1.693  0.0307  0.4064 -0.8507
  907MOL0     O25064   8.646   8.368   1.584  0.0265  0.2435  0.2981
  907MOL0     C25065   8.776   8.420   1.604  1.0191  0.6033 -0.6207
  907MOL0     C25066   8.848   8.439   1.472 -0.2565 -0.3525 -0.9723
  907MOL0     C25067   8.898   8.313   1.395 -0.6447  0.1445  0.3106
  907MOL0     C25068   8.938   8.361   1.252  0.3716 -0.4925  1.4965
  907MOL0     C25069   9.032   8.264   1.177 -0.2137  0.4249 -0.3556
  907MOL0     C25070   9.087   8.312   1.043 -0.1929  0.2021  0.4590
  907MOL0     C25071   9.181   8.200   0.990  0.0620 -0.1024  0.7781
  907MOL0     C25072   9.236   8.208   0.848  0.2467 -0.1248 -0.0509
  907MOL0    Cl25073   9.352   8.347   0.830  0.1227 -0.2822  0.3679
  907MOL0     C25074   8.625   8.214   1.759  0.0271 -0.1588 -0.0979
  907MOL0     C25075   8.559   8.171   1.870 -0.6300  0.1591 -0.4230
  907MOL0     O25076   8.476   8.333   2.150  0.4105 -0.4158 -0.6960
  907MOL0     C25077   8.200   8.131   2.233 -0.0511 -0.3867 -0.0647
  907MOL0     C25078   8.113   8.094   2.340  0.4600  0.0172 -0.0549
  907MOL0     N25079   7.440   7.892   2.474 -0.4250 -0.1293 -0.1825
  907MOL0     N25080   7.326   7.852   2.509  0.4485 -0.0439  0.0827
  907MOL0     C25081   6.170   8.324   2.247 -0.3016 -0.4537  0.7298
  907MOL0     C25082   6.032   8.324   2.275 -1.3591  0.2552 -0.5080
  907MOL0     C25083   5.648   8.347   2.541  0.4883  0.5534 -0.2150
  907MOL0     C25084   5.583   8.407   2.427 -0.5492 -0.3450  0.0762
  907MOL0     C25085   5.446   8.432   2.423  0.1375 -0.2926 -0.0287
  907MOL0     C25086   5.360   8.387   2.521 -0.0100 -0.6516 -0.5450
  907MOL0     O25087   5.220   8.392   2.511 -0.1763  0.0571 -0.2300
  907MOL0     C25088   5.153   8.414   2.383  0.0037 -0.4971  0.7274
  907MOL0     C25089   5.013   8.359   2.385 -0.0419 -0.3545  1.4639
  907MOL0     C25090   4.934   8.399   2.255 -0.0651  0.2691  0.3363
  907MOL0     C25091   4.778   8.379   2.269 -0.3182 -0.7100 -0.0520
  907MOL0     C25092   4.723   8.464   2.366  0.2270 -0.3579  0.6556
  907MOL0     C25093   4.699   8.554   2.445  0.1224  0.2568  0.2776
  907MOL0     C25094   5.417   8.319   2.629  0.0979  0.1011  0.0198
  907MOL0     C25095   5.556   8.295   2.640  0.7222 -0.0735  0.5607
  907MOL0     C25096   5.591   8.205   2.759  0.2116 -0.4094 -0.6955
  907MOL0     H25097   6.060   8.438   2.592 -1.2277 -0.5618  0.0309
  907MOL0     H25098   6.295   8.424   2.535  0.3608 -3.7156  0.8480
  907MOL0     H25099   6.420   8.138   2.333 -1.7752 -0.5418  3.4958
  907MOL0     H25100   6.427   8.222   2.480 -1.5486  0.3841  0.6723
  907MOL0     H25101   6.625   8.237   2.261 -0.5707 -3.9588 -0.7630
  907MOL0     H25102   6.646   8.323   2.410  3.1871  0.2350 -1.7594
  907MOL0     H25103   6.620   8.087   2.539 -1.1470  0.0677  0.2527
  907MOL0     H25104   6.626   8.011   2.389 -0.6844 -0.6090  0.6345
  907MOL0     H25105   6.848   8.092   2.337 -1.2913  0.1419 -0.2685
  907MOL0     H25106   6.822   8.232   2.451  0.4413 -0.6176  2.2105
  907MOL0     H25107   6.887   7.938   2.516  0.1238  0.3309  0.4192
  907MOL0     H25108   6.806   8.037   2.628 -1.5204 -0.4438 -0.6142
  907MOL0     H25109   7.079   8.089   2.504 -0.8650  1.1296 -0.0028
  907MOL0     H25110   6.998   8.211   2.598  0.8446  0.9801 -0.1673
  907MOL0     H25111   6.987   8.020   2.776 -1.2997 -2.1510 -2.1839
  907MOL0     H25112   7.148   8.100   2.762  0.6437 -1.2627 -0.0118
  907MOL0     H25113   7.131   7.827   2.753  0.9337 -1.2621 -1.3946
  907MOL0     H25114   7.081   7.847   2.600  0.4260 -1.3569  0.6412
  907MOL0     H25115   7.364   8.091   2.722 -3.4386 -1.6531  1.2385
  907MOL0     H25116   7.582   8.169   2.627  0.8488 -1.5520  1.2496
  907MOL0     H25117   7.601   8.135   2.463  1.3189 -1.8053 -0.5929
  907MOL0     H25118   7.703   7.960   2.683 -1.1721 -1.9469 -1.2233
  907MOL0     H25119   7.729   7.915   2.513  2.5818  1.5776 -1.8050
  907MOL0     H25120   7.848   8.115   2.470  0.0535 -0.7521  0.2265
  907MOL0     H25121   7.840   8.159   2.642  0.3069  0.9105 -0.2819
  907MOL0     H25122   7.953   7.927   2.682 -1.9364  1.0684  0.0165
  907MOL0     H25123   7.977   7.911   2.513  0.3471 -0.9810 -0.8348
  907MOL0     H25124   8.316   8.196   2.598  0.6244 -0.7657 -0.3299
  907MOL0     H25125   8.510   8.296   2.546 -1.0625 -0.0088  0.6120
  907MOL0     H25126   8.447   8.405   2.421 -0.7968 -1.4099 -1.7751
  907MOL0     H25127   8.568   8.292   2.376  0.1809  2.4899 -1.3516
  907MOL0     H25128   8.310   8.399   1.882 -0.6572 -0.6119 -1.8445
  907MOL0     H25129   8.433   8.489   1.678  0.9089  1.1163 -0.7767
  907MOL0     H25130   8.768   8.515   1.657 -1.9589 -0.4210  0.9408
  907MOL0     H25131   8.839   8.352   1.663 -2.3368 -0.5621  1.8861
  907MOL0     H25132   8.778   8.494   1.409 -0.8316  0.1347  0.0611
  907MOL0     H25133   8.935   8.503   1.492  0.3585 -1.0886 -1.2238
  907MOL0     H25134   8.814   8.244   1.384 -0.1616 -0.0409 -3.2078
  907MOL0     H25135   8.984   8.262   1.438 -1.0973  0.7661  2.0419
  907MOL0     H25136   8.986   8.460   1.252 -3.1349  1.3737 -0.0344
  907MOL0     H25137   8.845   8.365   1.195  0.7062  1.6233  1.0080
  907MOL0     H25138   9.121   8.244   1.238 -0.5487 -2.1511 -0.6012
  907MOL0     H25139   8.981   8.167   1.169  1.0760 -0.3065 -0.0652
  907MOL0     H25140   9.146   8.398   1.075  0.7702 -0.1992 -0.1876
  907MOL0     H25141   9.012   8.338   0.967  0.7177  2.4259  0.2462
  907MOL0     H25142   9.123   8.108   0.994 -2.8111  1.5502 -0.1570
  907MOL0     H25143   9.265   8.179   1.058 -0.3391 -0.8380  1.0559
  907MOL0     H25144   9.158   8.232   0.775  1.1886  5.6267  0.3459
  907MOL0     H25145   9.282   8.112   0.822  1.2703  0.2999  0.1315
  907MOL0     H25146   8.705   8.157   1.714 -1.8398 -3.8806  0.8597
  907MOL0     H25147   8.579   8.072   1.909  0.8119 -0.7197 -3.1743
  907MOL0     H25148   8.157   8.106   2.137 -1.4955  0.9840  0.1827
  907MOL0     H25149   8.014   8.055   2.321  0.0945  0.8982 -0.0079
  907MOL0     H25150   6.189   8.312   2.141  0.0902  0.8092  0.6347
  907MOL0     H25151   5.958   8.296   2.201 -2.0737 -1.0227  0.6398
  907MOL0     H25152   5.644   8.441   2.343 -1.7765 -1.2301 -1.2221
  907MOL0     H25153   5.410   8.501   2.347 -0.4808 -1.8090 -1.1725
  907MOL0     H25154   5.146   8.522   2.366 -0.1059 -0.5620  0.3487
  907MOL0     H25155   5.212   8.372   2.301  0.0552  1.0292 -0.0503
  907MOL0     H25156   4.959   8.396   2.473 -0.0567  0.3474  1.1642
  907MOL0     H25157   5.023   8.251   2.395  1.3325 -0.8199 -2.8607
  907MOL0     H25158   4.956   8.504   2.233  0.9609  0.3525  1.6526
  907MOL0     H25159   4.967   8.335   2.172  0.3393 -0.7862  1.2787
  907MOL0     H25160   4.765   8.277   2.306 -1.3064  0.1309  2.0565
  907MOL0     H25161   4.737   8.403   2.170  2.1727  2.1378 -0.5550
  907MOL0     H25162   4.662   8.629   2.512  1.5622  0.2280  1.1373
  907MOL0     H25163   5.355   8.283   2.711  0.7922 -1.9054 -0.3001
  907MOL0     H25164   5.609   8.273   2.843  1.5211  1.6070 -2.5073
  907MOL0     H25165   5.506   8.143   2.788  2.2556 -2.9828  0.2692
  907MOL0     H25166   5.673   8.134   2.740 -1.4806 -1.9665 -2.6003
  908MOL0     O25167   7.004   5.141   7.109  0.3102  0.3174  0.4617
  908MOL0     C25168   6.935   5.049   7.074 -0.2686  0.2229  0.0213
  908MOL0     O25169   6.983   4.933   7.022 -0.0674 -0.0615 -0.0584
  908MOL0     C25170   7.126   4.933   7.017 -0.2538  0.3417  0.4184
  908MOL0     C25171   7.200   4.913   7.132 -0.8704  0.3069 -0.0818
  908MOL0     C25172   7.338   4.938   7.138 -0.0474 -0.5174 -0.1679
  908MOL0     C25173   7.410   5.001   7.031 -0.1561  0.3290  0.1128
  908MOL0     O25174   7.545   5.035   7.025 -0.4286 -0.2030 -0.2015
  908MOL0     C25175   7.599   5.054   7.163 -0.4437  0.0702  0.9468
  908MOL0     C25176   7.754   5.082   7.144  0.2959 -0.1159  0.5713
  908MOL0     C25177   7.818   5.116   7.273 -0.1921  0.1908  0.1097
  908MOL0     C25178   7.959   5.142   7.241 -0.3526 -0.0254  0.2208
  908MOL0     C25179   8.041   5.174   7.363 -0.6993 -0.1998 -0.1220
  908MOL0     C25180   8.195   5.160   7.338 -0.4440  0.2327 -0.3018
  908MOL0     C25181   8.294   5.223   7.441  0.6599  0.3732 -0.0213
  908MOL0     C25182   8.437   5.195   7.386 -0.2295 -0.1168 -0.5275
  908MOL0     N25183   8.551   5.241   7.466 -0.9368 -0.5816 -0.2295
  908MOL0     C25184   8.688   5.219   7.431 -0.3374  0.8773  0.1070
  908MOL0     C25185   8.755   5.278   7.530 -0.1287 -0.0456  0.0089
  908MOL0     C25186   8.904   5.257   7.569 -0.0090  0.5850  0.3497
  908MOL0     C25187   8.967   5.379   7.626 -0.5706  0.2568 -0.7771
  908MOL0     C25188   9.108   5.356   7.680 -0.4831 -0.3022  0.5058
  908MOL0     C25189   9.212   5.341   7.564  0.0204 -0.4112  1.0846
  908MOL0     O25190   9.350   5.323   7.605 -0.0187 -0.0413  0.3656
  908MOL0     C25191   9.425   5.433   7.592 -0.2700  0.0447 -0.8669
  908MOL0     C25192   9.397   5.549   7.655 -0.0561  0.2284 -0.4289
  908MOL0     C25193   9.471   5.660   7.656  0.0177 -0.0087  0.4809
  908MOL0     C25194   9.395   5.779   7.716 -0.6937  0.3310  0.2685
  908MOL0     C25195   9.602   5.657   7.595 -0.5624 -0.0660  0.6433
  908MOL0     C25196   9.692   5.767   7.588  0.4821  0.1811  0.2825
  908MOL0     O25197   9.802   5.749   7.505 -0.7594  0.1252 -0.0868
  908MOL0     C25198   9.875   5.862   7.487  0.5185 -0.1043  0.8905
  908MOL0     C25199   9.970   5.892   7.586  0.6078 -1.2856 -0.2062
  908MOL0     C25200  10.055   6.004   7.564  0.3492  0.7467  0.2272
  908MOL0     C25201  10.039   6.089   7.458 -0.0326  0.0101  0.2539
  908MOL0     O25202  10.133   6.192   7.439  0.4468  0.3995 -0.4376
  908MOL0     C25203  10.227   6.152   7.335  0.4531 -0.4900  0.2222
  908MOL0     C25204  10.296   6.285   7.293  0.5661  0.0793  0.3587
  908MOL0     C25205  10.205   6.368   7.196 -0.2319  0.8427 -0.6363
  908MOL0     C25206  10.245   6.516   7.183 -0.3856 -0.4118  0.2289
  908MOL0     C25207  10.388   6.544   7.129 -0.1978  0.0495  0.0111
  908MOL0     C25208  10.406   6.676   7.060 -1.0915 -0.0570  0.7808
  908MOL0     C25209  10.553   6.684   7.011  0.2050  0.0319 -0.1722
  908MOL0     C25210  10.573   6.793   6.901 -0.0593 -0.0619  0.4007
  908MOL0    Cl25211  10.743   6.773   6.841 -0.2250 -0.0886 -0.6278
  908MOL0     C25212   9.941   6.062   7.356 -1.0312 -0.1548  0.3440
  908MOL0     C25213   9.859   5.948   7.375  1.1325 -0.2900 -0.0118
  908MOL0     O25214   9.660   5.872   7.652  0.4521  0.2472  0.4778
  908MOL0     C25215   9.635   5.533   7.532  0.7107  0.2489  0.1840
  908MOL0     C25216   9.544   5.422   7.529 -0.0542 -0.0044  0.1148
  908MOL0     N25217   8.668   5.337   7.618  0.6520  0.4436 -0.3798
  908MOL0     N25218   8.547   5.325   7.571 -0.2608 -0.4988  0.1828
  908MOL0     C25219   7.331   5.018   6.915  0.0761  0.1722 -0.9802
  908MOL0     C25220   7.196   4.971   6.910  0.7069  0.6745 -0.2888
  908MOL0     C25221   6.785   5.058   7.088  0.4489  0.6625  0.0136
  908MOL0     C25222   6.719   4.941   7.123 -0.2454  0.2773  0.9729
  908MOL0     C25223   6.589   4.930   7.153  0.8280 -0.0317  0.2103
  908MOL0     C25224   6.509   5.052   7.152  0.3722  0.2559  0.7227
  908MOL0     O25225   6.373   5.041   7.174  0.6169  0.4408  0.3084
  908MOL0     C25226   6.296   5.163   7.172 -0.9434  0.0189  0.4370
  908MOL0     C25227   6.146   5.138   7.196 -1.0014  0.9155 -0.5896
  908MOL0     C25228   6.056   5.261   7.198  0.2092 -0.9300  0.5156
  908MOL0     C25229   6.036   5.317   7.054  0.1264  0.5604 -1.0778
  908MOL0     C25230   5.963   5.443   7.064 -0.1229 -0.3411  0.7173
  908MOL0     C25231   5.894   5.550   7.064  0.0088  0.0741 -0.3671
  908MOL0     C25232   6.570   5.175   7.115 -0.6260 -0.1650 -0.6877
  908MOL0     C25233   6.706   5.178   7.079 -0.6383  0.5854 -0.6510
  908MOL0     C25234   6.767   5.313   7.049  0.6088 -0.0784  1.0381
  908MOL0     H25235   7.148   4.884   7.223 -0.1354  0.1528  0.2918
  908MOL0     H25236   7.386   4.905   7.230  0.6427 -0.2060 -0.4110
  908MOL0     H25237   7.604   4.958   7.215  1.5290 -1.1097 -1.2394
  908MOL0     H25238   7.540   5.135   7.207 -3.2510 -1.6437  0.5114
  908MOL0     H25239   7.793   4.986   7.108  0.5716  1.1984 -3.0424
  908MOL0     H25240   7.759   5.156   7.064  1.0619 -0.7086  0.0580
  908MOL0     H25241   7.778   5.196   7.336  2.1364 -0.4829  2.6310
  908MOL0     H25242   7.808   5.026   7.335  1.6592 -0.3589 -0.3295
  908MOL0     H25243   7.988   5.051   7.188 -1.1681 -1.2261  1.7442
  908MOL0     H25244   7.965   5.227   7.172  1.1613 -0.1284  0.1936
  908MOL0     H25245   8.019   5.100   7.440  2.1368 -1.5757 -0.5103
  908MOL0     H25246   8.013   5.267   7.413 -1.9271 -1.9213  2.6558
  908MOL0     H25247   8.215   5.053   7.332  1.8190  0.5496  0.5591
  908MOL0     H25248   8.201   5.214   7.243 -1.6569 -0.7767 -0.9740
  908MOL0     H25249   8.291   5.181   7.542  4.5528  0.4681  0.2770
  908MOL0     H25250   8.268   5.330   7.444 -0.6960  0.1024 -0.9695
  908MOL0     H25251   8.443   5.087   7.369  0.9660  0.1797 -2.3125
  908MOL0     H25252   8.444   5.241   7.287 -0.8597 -1.3863 -1.1817
  908MOL0     H25253   8.739   5.147   7.368  2.5927  0.8732  2.2638
  908MOL0     H25254   8.952   5.219   7.478 -2.1184  0.4720 -0.7743
  908MOL0     H25255   8.910   5.176   7.642  1.8425  2.0518  1.9175
  908MOL0     H25256   8.962   5.463   7.556 -1.5936  1.6424  0.8760
  908MOL0     H25257   8.913   5.410   7.716  1.2113  0.1558  0.3705
  908MOL0     H25258   9.143   5.439   7.743 -0.9940 -1.3577  2.2702
  908MOL0     H25259   9.116   5.259   7.729  0.3846 -0.0028  0.9653
  908MOL0     H25260   9.191   5.245   7.515 -0.4188  0.3024 -0.1766
  908MOL0     H25261   9.201   5.422   7.491 -2.2419  0.3177  2.1384
  908MOL0     H25262   9.294   5.546   7.688 -0.2176 -2.9832 -0.9542
  908MOL0     H25263   9.417   5.879   7.678  0.5817  1.4527  3.6594
  908MOL0     H25264   9.417   5.789   7.822 -0.1454 -1.6001  0.3817
  908MOL0     H25265   9.287   5.758   7.716 -0.4550 -1.0581  1.5268
  908MOL0     H25266   9.971   5.828   7.673 -1.6186 -1.0337  0.0711
  908MOL0     H25267  10.131   6.026   7.638  0.6793  1.2782 -0.2601
  908MOL0     H25268  10.310   6.088   7.365  2.3120  1.0376 -1.4319
  908MOL0     H25269  10.173   6.100   7.255 -1.6536  1.5555  0.2041
  908MOL0     H25270  10.323   6.334   7.387  3.4061 -0.3702 -0.1323
  908MOL0     H25271  10.388   6.270   7.235  0.1693 -1.0007 -0.0014
  908MOL0     H25272  10.107   6.351   7.241 -0.6854 -0.8775 -2.1382
  908MOL0     H25273  10.198   6.322   7.097 -0.0370 -2.2812  0.7022
  908MOL0     H25274  10.248   6.565   7.281  2.5461 -0.7880  0.3969
  908MOL0     H25275  10.168   6.563   7.121 -0.4469 -1.8082 -0.8100
  908MOL0     H25276  10.455   6.525   7.213 -1.3259 -4.9142  0.0870
  908MOL0     H25277  10.401   6.466   7.053 -2.6339 -1.4893  1.0681
  908MOL0     H25278  10.393   6.757   7.133 -0.7677  1.9246 -1.2341
  908MOL0     H25279  10.327   6.687   6.986 -0.9580 -1.4119  0.4123
  908MOL0     H25280  10.578   6.587   6.966  0.2950 -0.0920  0.1471
  908MOL0     H25281  10.611   6.706   7.101  0.0265 -1.5098  0.3530
  908MOL0     H25282  10.549   6.892   6.940 -0.9321  0.5584 -1.5711
  908MOL0     H25283  10.514   6.766   6.813  0.7853 -1.5896  0.2645
  908MOL0     H25284   9.925   6.141   7.283 -0.6280  0.0269  0.4532
  908MOL0     H25285   9.794   5.922   7.293 -1.7484 -2.2929  2.6729
  908MOL0     H25286   9.736   5.516   7.496  0.9667 -0.0957  1.0290
  908MOL0     H25287   9.574   5.327   7.487  1.2475 -0.8412  2.7423
  908MOL0     H25288   7.389   5.046   6.827  0.6430 -0.9074 -0.9607
  908MOL0     H25289   7.150   4.973   6.811  0.8714  0.6060 -0.3674
  908MOL0     H25290   6.778   4.850   7.111  2.5383  1.8699  1.5646
  908MOL0     H25291   6.549   4.834   7.183 -1.3693  0.1439 -1.8637
  908MOL0     H25292   6.325   5.229   7.254  0.4037 -0.1075  0.0827
  908MOL0     H25293   6.320   5.217   7.080 -1.2086 -0.3681  0.1380
  908MOL0     H25294   6.136   5.091   7.294 -0.3646  0.4162 -0.7595
  908MOL0     H25295   6.109   5.060   7.129 -1.0799  1.0445 -0.6961
  908MOL0     H25296   5.956   5.237   7.236  0.7185 -1.9106  1.2639
  908MOL0     H25297   6.092   5.338   7.267 -0.9619 -0.9941  1.2217
  908MOL0     H25298   5.986   5.243   6.992 -0.2150  0.8608 -1.1662
  908MOL0     H25299   6.132   5.326   7.002  0.9813 -1.1374  0.1146
  908MOL0     H25300   5.836   5.637   7.087 -0.7726 -0.7305  0.7990
  908MOL0     H25301   6.525   5.273   7.104 -1.1418 -0.5681 -2.5065
  908MOL0     H25302   6.804   5.356   7.142  1.5327  1.3115  0.0746
  908MOL0     H25303   6.848   5.304   6.976 -0.3916  0.7913 -0.2462
  908MOL0     H25304   6.697   5.385   7.005  0.9484 -0.6011 -0.4318
  909MOL0     O25305   8.609   1.411   5.045  0.1753 -0.0928 -0.1038
  909MOL0     C25306   8.545   1.329   4.975 -1.1957 -0.3494  1.2767
  909MOL0     O25307   8.601   1.218   4.909  0.3371 -0.5013 -0.1429
  909MOL0     C25308   8.728   1.197   4.943 -0.0959  1.0825 -0.7060
  909MOL0     C25309   8.814   1.224   4.835 -0.7342 -0.7955 -0.3259
  909MOL0     C25310   8.954   1.190   4.842  0.0840  0.2732 -0.3640
  909MOL0     C25311   9.007   1.126   4.954 -0.1232 -0.7026 -0.6825
  909MOL0     O25312   9.131   1.074   4.952 -0.5178 -0.3676  0.3560
  909MOL0     C25313   9.150   0.930   4.962  0.3474 -0.2046  0.2397
  909MOL0     C25314   9.290   0.902   4.998 -0.1749  0.5842  0.6037
  909MOL0     C25315   9.388   0.962   4.896 -0.0282  0.4657  0.0161
  909MOL0     C25316   9.529   0.926   4.947  0.2058 -0.7514 -0.0972
  909MOL0     C25317   9.642   0.960   4.850 -0.0988 -0.5867 -0.6135
  909MOL0     C25318   9.654   1.117   4.849 -0.1988  0.2862  0.0441
  909MOL0     C25319   9.774   1.153   4.759  0.4556  0.2811 -0.9899
  909MOL0     C25320   9.758   1.117   4.614 -0.5998 -0.3428 -0.6488
  909MOL0     N25321   9.641   1.170   4.547  0.2981 -1.1118  0.1585
  909MOL0     C25322   9.595   1.295   4.553 -0.3926 -0.3772 -0.0643
  909MOL0     C25323   9.464   1.281   4.517  0.2511  0.0585 -1.2064
  909MOL0     C25324   9.360   1.390   4.528 -1.1734  0.1245  0.7669
  909MOL0     C25325   9.299   1.387   4.668 -0.1766  0.2825 -0.1094
  909MOL0     C25326   9.395   1.430   4.791 -0.7558  0.6381  0.4580
  909MOL0     C25327   9.323   1.408   4.919 -0.6108  0.0421  0.3837
  909MOL0     O25328   9.408   1.440   5.031 -0.1463 -0.3049 -0.3559
  909MOL0     C25329   9.346   1.446   5.153 -0.2852  0.0039 -0.3957
  909MOL0     C25330   9.263   1.348   5.205 -0.2819  0.0466 -0.3760
  909MOL0     C25331   9.193   1.369   5.326 -0.3020  0.6676  0.3217
  909MOL0     C25332   9.108   1.256   5.375  0.6373  0.5446 -0.2494
  909MOL0     C25333   9.226   1.482   5.400  0.2631 -0.1850  0.3607
  909MOL0     C25334   9.159   1.511   5.529  0.0187  0.1416 -0.3823
  909MOL0     O25335   9.133   1.639   5.557  0.0898 -0.4716 -0.3695
  909MOL0     C25336   9.060   1.667   5.671 -1.0050  0.4225  0.5328
  909MOL0     C25337   9.115   1.746   5.768  0.8902  0.3100  0.1388
  909MOL0     C25338   9.037   1.784   5.881 -0.0563  1.1202 -0.3333
  909MOL0     C25339   8.903   1.738   5.902  0.2332 -0.4095 -0.4843
  909MOL0     O25340   8.843   1.780   6.021  0.3881  0.3011 -0.2640
  909MOL0     C25341   8.772   1.662   6.069  0.8162 -0.9637 -0.4968
  909MOL0     C25342   8.708   1.678   6.212  0.3690  0.3540  1.2956
  909MOL0     C25343   8.567   1.737   6.220  0.1687  0.1724 -0.0086
  909MOL0     C25344   8.492   1.670   6.335  0.0492  0.3326  0.7000
  909MOL0     C25345   8.341   1.624   6.303  0.4989  0.3547 -0.2007
  909MOL0     C25346   8.254   1.628   6.436 -0.1039 -0.1937  0.6174
  909MOL0     C25347   8.292   1.508   6.519  0.7272 -1.0824 -0.3552
  909MOL0     C25348   8.172   1.473   6.610 -0.0987  0.2466  0.2401
  909MOL0    Cl25349   8.198   1.343   6.733  0.3573  0.3044  0.6955
  909MOL0     C25350   8.842   1.666   5.794 -0.3463  0.5805 -0.0158
  909MOL0     C25351   8.919   1.641   5.679  0.2987  0.4820 -0.0018
  909MOL0     O25352   9.126   1.418   5.601  0.0765 -0.3848  0.2928
  909MOL0     C25353   9.327   1.571   5.354 -0.0859 -0.4107 -0.0124
  909MOL0     C25354   9.380   1.555   5.226 -0.1429  0.4120  0.2839
  909MOL0     N25355   9.438   1.145   4.497  0.0090  0.4253  0.4356
  909MOL0     N25356   9.542   1.080   4.516 -0.2575 -0.4072 -0.3685
  909MOL0     C25357   8.919   1.113   5.070 -0.9795  0.0674  0.2568
  909MOL0     C25358   8.783   1.149   5.065 -0.0784  0.9554  0.6237
  909MOL0     C25359   8.403   1.355   4.938  0.8403 -0.2368  0.1068
  909MOL0     C25360   8.355   1.325   4.807 -0.3467  0.2758  0.0200
  909MOL0     C25361   8.223   1.363   4.770  0.9717 -0.4445 -0.5458
  909MOL0     C25362   8.143   1.426   4.863  0.1663 -1.1241 -0.5084
  909MOL0     O25363   8.021   1.469   4.811 -0.4360  1.1378 -0.2413
  909MOL0     C25364   7.936   1.545   4.902  1.1132  0.7793  0.1798
  909MOL0     C25365   7.805   1.563   4.833  0.4340  0.3600 -0.5407
  909MOL0     C25366   7.816   1.651   4.706 -0.2570  0.0690 -0.1816
  909MOL0     C25367   7.694   1.687   4.624 -0.4651 -0.2475  0.4694
  909MOL0     C25368   7.579   1.731   4.702  0.8086 -0.7295  0.5695
  909MOL0     C25369   7.471   1.765   4.759 -1.0708 -0.3713 -0.0983
  909MOL0     C25370   8.194   1.464   4.994 -0.4892 -0.1756  0.2364
  909MOL0     C25371   8.325   1.418   5.031  0.3708  0.0678  0.6383
  909MOL0     C25372   8.362   1.453   5.180 -0.4661 -0.8677  0.3304
  909MOL0     H25373   8.779   1.271   4.744  1.9523 -0.1697 -1.1416
  909MOL0     H25374   9.017   1.222   4.759 -2.2282  2.2331 -1.5286
  909MOL0     H25375   9.129   0.876   4.869  0.0369 -0.6723  0.5759
  909MOL0     H25376   9.091   0.882   5.040  0.5613 -2.1216 -0.7057
  909MOL0     H25377   9.315   0.942   5.096  2.9474 -1.6386  0.8802
  909MOL0     H25378   9.317   0.796   5.010  4.2347  1.4518  0.1279
  909MOL0     H25379   9.361   0.905   4.806 -0.5732  0.1394  0.3763
  909MOL0     H25380   9.368   1.067   4.876 -0.7667 -0.0366 -2.0896
  909MOL0     H25381   9.541   0.973   5.045  0.2722 -1.2741  0.1535
  909MOL0     H25382   9.543   0.818   4.959  1.2165 -0.8676 -1.9120
  909MOL0     H25383   9.614   0.919   4.752 -1.2592 -2.0675  0.2863
  909MOL0     H25384   9.740   0.927   4.887 -0.0017  1.3594  1.0297
  909MOL0     H25385   9.560   1.153   4.808  0.8570  0.9451 -1.9011
  909MOL0     H25386   9.670   1.169   4.944 -3.9141  0.6219  0.6309
  909MOL0     H25387   9.861   1.098   4.795 -1.3416 -0.3598  2.8776
  909MOL0     H25388   9.798   1.259   4.761  1.2967  0.1964 -3.2681
  909MOL0     H25389   9.843   1.164   4.564 -2.5113  1.4483 -2.4236
  909MOL0     H25390   9.771   1.009   4.601  0.5515 -0.1514 -1.1828
  909MOL0     H25391   9.648   1.381   4.593  0.2055 -1.5253  1.7095
  909MOL0     H25392   9.274   1.383   4.460 -1.4105  0.5627  1.0144
  909MOL0     H25393   9.407   1.482   4.492  1.7469 -2.3299 -2.3838
  909MOL0     H25394   9.207   1.446   4.671 -1.1347 -1.1601 -0.1661
  909MOL0     H25395   9.273   1.283   4.687 -0.3853  0.1911 -0.8912
  909MOL0     H25396   9.491   1.377   4.781 -0.6305  1.1062 -1.1958
  909MOL0     H25397   9.409   1.539   4.787  1.8575  0.4699  2.3808
  909MOL0     H25398   9.240   1.479   4.927  1.2575  2.4713 -0.2337
  909MOL0     H25399   9.273   1.311   4.918 -2.6273  0.9964 -2.4263
  909MOL0     H25400   9.246   1.258   5.148 -0.9942  0.4002 -0.7238
  909MOL0     H25401   9.120   1.175   5.302 -0.1156  1.8730 -1.9241
  909MOL0     H25402   9.003   1.286   5.386  1.4560  3.7028 -0.1302
  909MOL0     H25403   9.145   1.218   5.470 -0.5229  0.0005  0.0134
  909MOL0     H25404   9.217   1.781   5.765  0.9877  0.1874  1.5386
  909MOL0     H25405   9.085   1.854   5.949  0.0426 -0.6915  1.5946
  909MOL0     H25406   8.693   1.632   6.000 -0.7028  0.5366  0.5088
  909MOL0     H25407   8.848   1.585   6.089  0.6190 -0.6102  2.0286
  909MOL0     H25408   8.716   1.577   6.254  2.8324 -0.8074 -1.5596
  909MOL0     H25409   8.775   1.739   6.274 -1.3668  0.8530  2.7587
  909MOL0     H25410   8.516   1.730   6.123  2.0844  0.4637 -1.1004
  909MOL0     H25411   8.565   1.841   6.254  1.0457 -0.8377  3.5844
  909MOL0     H25412   8.490   1.739   6.420 -1.9712  0.6924  0.4274
  909MOL0     H25413   8.537   1.577   6.371 -2.3491 -1.1397  0.1676
  909MOL0     H25414   8.294   1.689   6.229 -1.1649 -1.1629 -0.5548
  909MOL0     H25415   8.341   1.525   6.256 -0.5799  0.5192 -0.5957
  909MOL0     H25416   8.147   1.626   6.416 -0.1170 -0.7001  0.7206
  909MOL0     H25417   8.279   1.725   6.480 -2.0105  0.9039 -0.5760
  909MOL0     H25418   8.376   1.531   6.586  0.4776  1.2293 -0.7409
  909MOL0     H25419   8.320   1.427   6.451 -1.3455 -0.8911 -1.5115
  909MOL0     H25420   8.091   1.445   6.542 -1.8492 -0.8543  2.6080
  909MOL0     H25421   8.129   1.560   6.661 -0.6651 -1.3455  2.6460
  909MOL0     H25422   8.739   1.634   5.791 -0.5221  0.8410  1.8695
  909MOL0     H25423   8.866   1.590   5.599  1.3446 -1.8024  0.6685
  909MOL0     H25424   9.378   1.646   5.415  2.3945 -1.9389 -0.0692
  909MOL0     H25425   9.457   1.626   5.200 -0.4489  1.0790  1.1645
  909MOL0     H25426   8.970   1.077   5.158  2.0816 -0.9800 -1.7964
  909MOL0     H25427   8.725   1.143   5.156 -0.6070  0.4513  0.2635
  909MOL0     H25428   8.423   1.278   4.737 -0.4403  0.9120 -0.5083
  909MOL0     H25429   8.176   1.338   4.675 -0.0223 -0.8403  0.0378
  909MOL0     H25430   7.932   1.497   5.000  0.8063  2.0160  0.7947
  909MOL0     H25431   7.988   1.639   4.924  1.1521  0.9616 -0.6492
  909MOL0     H25432   7.743   1.612   4.909  1.0222 -3.1811  2.4958
  909MOL0     H25433   7.754   1.469   4.809  1.2763  0.4385 -2.8693
  909MOL0     H25434   7.865   1.746   4.730  0.7890 -0.3485 -0.5640
  909MOL0     H25435   7.880   1.606   4.629 -0.6219  2.2329 -1.8214
  909MOL0     H25436   7.664   1.602   4.562 -0.1733 -1.4110  1.8777
  909MOL0     H25437   7.731   1.771   4.564 -2.4475  1.0468  0.9754
  909MOL0     H25438   7.385   1.809   4.805 -2.5690 -0.4546 -2.6224
  909MOL0     H25439   8.143   1.530   5.063  0.5661 -1.0034  1.8742
  909MOL0     H25440   8.278   1.500   5.231 -0.1452  2.0113 -1.5228
  909MOL0     H25441   8.392   1.361   5.231  0.7671  0.1034  1.4395
  909MOL0     H25442   8.436   1.534   5.176 -0.6192 -0.6754  1.2466
  910MOL0     O25443   6.264   0.867   3.286 -0.3671  0.1031  0.2511
  910MOL0     C25444   6.216   0.969   3.344  0.7241  0.2455  0.8995
  910MOL0     O25445   6.293   1.078   3.381 -0.0497  0.2324  0.3243
  910MOL0     C25446   6.426   1.068   3.356  0.1226 -0.4029  0.3044
  910MOL0     C25447   6.516   0.988   3.431  0.0168 -1.0735 -0.5415
  910MOL0     C25448   6.657   0.995   3.413  0.1310  0.4466 -0.8418
  910MOL0     C25449   6.707   1.077   3.307 -0.3674 -0.7768  0.4536
  910MOL0     O25450   6.838   1.090   3.276 -1.1242 -0.0472  0.1191
  910MOL0     C25451   6.934   0.992   3.322  0.0395 -0.2431 -0.1734
  910MOL0     C25452   7.066   1.027   3.248 -0.3258  0.5907 -0.7295
  910MOL0     C25453   7.166   0.916   3.268  1.6494  0.1817 -0.0131
  910MOL0     C25454   7.289   0.939   3.189  0.0275  0.8811 -0.9509
  910MOL0     C25455   7.404   0.963   3.281 -0.0469 -0.5966  0.6746
  910MOL0     C25456   7.528   1.007   3.198 -0.0396 -0.1561  0.4838
  910MOL0     C25457   7.626   1.087   3.274 -0.5033 -0.3115  1.1330
  910MOL0     C25458   7.679   1.013   3.397  0.1475  0.7121 -0.3023
  910MOL0     N25459   7.805   1.069   3.449  0.0147  0.2960 -0.0586
  910MOL0     C25460   7.933   1.069   3.383 -0.0359 -0.3901  0.3714
  910MOL0     C25461   8.006   1.129   3.478 -0.4310  0.3101 -0.0104
  910MOL0     C25462   8.151   1.151   3.465  0.3780 -0.3420 -0.7131
  910MOL0     C25463   8.173   1.302   3.423  0.2818  0.3496 -0.2735
  910MOL0     C25464   8.325   1.331   3.389 -1.2590 -0.3565 -0.5567
  910MOL0     C25465   8.367   1.267   3.258  0.6915 -0.0751 -0.8421
  910MOL0     O25466   8.501   1.310   3.219  0.4365 -0.4817 -0.0177
  910MOL0     C25467   8.613   1.237   3.250 -0.1448  0.5933  0.7385
  910MOL0     C25468   8.623   1.108   3.305 -0.3692 -0.1946 -0.3077
  910MOL0     C25469   8.739   1.045   3.351  0.1240  0.1141  0.4203
  910MOL0     C25470   8.736   0.905   3.403  0.3847 -0.2238  0.2215
  910MOL0     C25471   8.869   1.116   3.330  0.3155  0.3855  0.3912
  910MOL0     C25472   8.998   1.061   3.376 -0.5652  0.1478  0.3070
  910MOL0     O25473   9.094   1.104   3.285 -0.2650  0.0511  0.2529
  910MOL0     C25474   9.224   1.077   3.305 -0.0413 -0.2246  0.1028
  910MOL0     C25475   9.316   1.188   3.301 -0.6269  0.3477  0.4353
  910MOL0     C25476   9.453   1.169   3.314 -0.3168  1.2473  0.6752
  910MOL0     C25477   9.502   1.039   3.327 -1.3965 -0.2560 -0.5120
  910MOL0     O25478   9.641   1.034   3.335 -0.4788  0.8478  0.3755
  910MOL0     C25479   9.689   0.911   3.394 -0.4454 -0.0194 -0.1655
  910MOL0     C25480   9.831   0.939   3.455  0.1639  0.1734 -0.2586
  910MOL0     C25481   9.928   0.970   3.342 -0.1144 -0.5381 -0.5116
  910MOL0     C25482  10.059   1.028   3.397 -0.5180 -0.1400  0.4010
  910MOL0     C25483  10.178   0.956   3.320 -0.4568 -0.8070 -0.1183
  910MOL0     C25484  10.306   1.031   3.357  0.3807  0.7389  0.3045
  910MOL0     C25485  10.412   0.932   3.304 -0.6860 -0.2483  0.1398
  910MOL0     C25486  10.547   1.006   3.313  0.4398  0.6864  0.8510
  910MOL0    Cl25487  10.603   1.060   3.478  0.4307 -0.2580 -0.2075
  910MOL0     C25488   9.417   0.926   3.328  0.2230  0.2831  0.7022
  910MOL0     C25489   9.274   0.947   3.311 -0.0856  0.5829  0.3133
  910MOL0     O25490   9.014   0.990   3.474 -0.1512 -0.0577  0.7185
  910MOL0     C25491   8.859   1.245   3.259 -0.6165 -0.3340 -0.1177
  910MOL0     C25492   8.733   1.299   3.218 -0.0748 -0.3604 -0.3146
  910MOL0     N25493   7.942   1.140   3.598  0.9611 -0.1756  0.2897
  910MOL0     N25494   7.812   1.108   3.579  0.3060 -0.5407  0.6923
  910MOL0     C25495   6.614   1.167   3.246 -0.3336 -0.5979  0.6067
  910MOL0     C25496   6.479   1.157   3.263 -0.2750 -0.2952 -0.1604
  910MOL0     C25497   6.065   0.972   3.376 -0.4154  0.1798 -0.2625
  910MOL0     C25498   5.995   0.858   3.342  0.1890 -0.2177 -0.1240
  910MOL0     C25499   5.859   0.860   3.368  0.5550  0.3091 -0.8028
  910MOL0     C25500   5.789   0.965   3.419 -0.6138  0.1657  0.3280
  910MOL0     O25501   5.654   0.949   3.411  0.8688 -0.2039  0.1484
  910MOL0     C25502   5.559   1.050   3.461 -0.4515 -0.4177  0.3523
  910MOL0     C25503   5.540   1.031   3.617 -0.6353 -0.0279 -0.2155
  910MOL0     C25504   5.484   0.889   3.656 -0.5720 -0.8615  0.0738
  910MOL0     C25505   5.450   0.879   3.809  0.3569 -0.0888  0.1526
  910MOL0     C25506   5.538   0.783   3.874 -0.7344  0.7400  0.0725
  910MOL0     C25507   5.622   0.703   3.917 -1.2552 -0.0826 -0.2217
  910MOL0     C25508   5.860   1.085   3.453  0.6183  0.6696  0.7060
  910MOL0     C25509   5.995   1.087   3.430 -0.3166  0.6640  0.3397
  910MOL0     C25510   6.056   1.217   3.465  0.2825 -1.2983 -0.4786
  910MOL0     H25511   6.469   0.922   3.504  1.9742 -0.8583  1.0000
  910MOL0     H25512   6.725   0.947   3.484  0.3745  2.1102  0.0857
  910MOL0     H25513   6.898   0.891   3.297 -1.2567 -0.6267  2.8728
  910MOL0     H25514   6.945   0.983   3.430  1.4917  0.5698 -0.2232
  910MOL0     H25515   7.042   1.041   3.143 -1.7164  1.8887 -0.2655
  910MOL0     H25516   7.101   1.122   3.290 -0.6905  0.1427  0.6584
  910MOL0     H25517   7.174   0.902   3.377  2.0928 -2.0493 -0.2867
  910MOL0     H25518   7.125   0.821   3.234  1.6716 -0.5332  1.8314
  910MOL0     H25519   7.299   0.843   3.137 -1.9191  0.8834 -1.3797
  910MOL0     H25520   7.267   1.029   3.132 -1.9053  2.0418  1.4617
  910MOL0     H25521   7.427   0.873   3.339  1.5364  0.5006  1.8095
  910MOL0     H25522   7.363   1.045   3.341  0.7789 -0.0216  0.4557
  910MOL0     H25523   7.579   0.922   3.151  0.2063  0.3656 -0.2007
  910MOL0     H25524   7.495   1.069   3.115  0.7246 -0.5155 -0.1031
  910MOL0     H25525   7.594   1.191   3.289  0.6132  0.3158 -0.5469
  910MOL0     H25526   7.709   1.109   3.206  0.2266  1.9198  2.6383
  910MOL0     H25527   7.601   1.013   3.474 -0.6341 -4.2948 -0.7755
  910MOL0     H25528   7.688   0.906   3.375  2.5966 -0.3182  4.3927
  910MOL0     H25529   7.959   1.044   3.281  1.0736  1.4104  0.1568
  910MOL0     H25530   8.192   1.084   3.389  0.1262 -2.5382  0.9977
  910MOL0     H25531   8.201   1.142   3.562 -2.2711  3.2885  1.2556
  910MOL0     H25532   8.113   1.322   3.333  0.2152  2.0626  0.1132
  910MOL0     H25533   8.145   1.374   3.501 -0.9256 -0.8350  0.4336
  910MOL0     H25534   8.336   1.438   3.371 -2.9286  0.2274  1.5625
  910MOL0     H25535   8.402   1.300   3.460 -0.2416  2.0997 -0.4865
  910MOL0     H25536   8.359   1.158   3.262 -0.6681 -0.1888 -3.8036
  910MOL0     H25537   8.301   1.296   3.175 -1.3128 -2.8194 -0.3644
  910MOL0     H25538   8.530   1.052   3.306 -2.1416  2.3987 -3.0023
  910MOL0     H25539   8.641   0.852   3.407  1.1607 -1.7056 -0.0482
  910MOL0     H25540   8.786   0.902   3.500  0.4266  1.4168  0.2718
  910MOL0     H25541   8.805   0.856   3.333 -0.0971 -1.5524  0.6409
  910MOL0     H25542   9.270   1.286   3.290  0.9001  1.1497  0.8513
  910MOL0     H25543   9.527   1.247   3.297  0.3194  0.6521  0.6685
  910MOL0     H25544   9.622   0.873   3.471 -0.5144  0.5587  0.0633
  910MOL0     H25545   9.703   0.829   3.323 -1.9185 -0.0515 -0.4349
  910MOL0     H25546   9.827   1.016   3.533  0.7849 -0.9197  0.8938
  910MOL0     H25547   9.862   0.854   3.516  1.7208  0.2623 -0.8920
  910MOL0     H25548   9.895   1.054   3.280  1.6395  2.3124  2.1084
  910MOL0     H25549   9.947   0.885   3.275  1.2311 -0.1114 -0.7033
  910MOL0     H25550  10.072   1.014   3.504 -1.6452 -2.3719  0.3130
  910MOL0     H25551  10.057   1.136   3.383  1.4010 -0.2122 -0.9087
  910MOL0     H25552  10.183   0.849   3.347 -0.7399 -1.1387 -1.3377
  910MOL0     H25553  10.176   0.959   3.211 -2.1670 -3.7698 -0.2990
  910MOL0     H25554  10.314   1.050   3.464 -1.2877  0.3814  0.5056
  910MOL0     H25555  10.319   1.123   3.300 -0.3506  0.2034 -0.7468
  910MOL0     H25556  10.388   0.905   3.200  2.5685  1.5957 -1.2453
  910MOL0     H25557  10.404   0.841   3.363 -1.4878 -0.0284  0.3912
  910MOL0     H25558  10.543   1.092   3.247 -1.0782  0.0030  0.0077
  910MOL0     H25559  10.624   0.935   3.281 -0.9947 -2.2995  3.4679
  910MOL0     H25560   9.437   0.821   3.349 -1.0054  0.1574  1.3702
  910MOL0     H25561   9.201   0.866   3.311  0.1666  0.3475 -0.9172
  910MOL0     H25562   8.948   1.303   3.237 -0.0801 -0.8657  0.5979
  910MOL0     H25563   8.729   1.399   3.176 -0.8472  0.8129  2.3394
  910MOL0     H25564   6.647   1.245   3.178  1.1608 -2.6903 -1.2427
  910MOL0     H25565   6.406   1.220   3.213  1.1343  1.3476 -0.2205
  910MOL0     H25566   6.041   0.767   3.306  1.6434  0.7606 -0.8308
  910MOL0     H25567   5.799   0.777   3.332 -0.6639  1.6707 -2.0456
  910MOL0     H25568   5.584   1.153   3.436 -0.1800 -0.8531 -1.3048
  910MOL0     H25569   5.467   1.028   3.405 -0.5093 -1.7448  0.9282
  910MOL0     H25570   5.472   1.108   3.656  2.5008  2.6705  0.3502
  910MOL0     H25571   5.638   1.049   3.661  0.3205 -2.3261 -1.2901
  910MOL0     H25572   5.385   0.879   3.610 -0.1819 -0.7498 -0.8124
  910MOL0     H25573   5.552   0.807   3.630  1.4867  0.1837  1.7617
  910MOL0     H25574   5.344   0.852   3.803 -0.0409  1.6427 -2.1332
  910MOL0     H25575   5.464   0.982   3.844  2.4272 -0.6154  0.9979
  910MOL0     H25576   5.695   0.637   3.958 -0.9072  0.5394  0.1903
  910MOL0     H25577   5.807   1.170   3.495  1.7517  0.7802  1.9739
  910MOL0     H25578   6.145   1.203   3.527  0.4078  1.5331  0.1198
  910MOL0     H25579   6.084   1.264   3.371  2.0754 -2.8627 -0.7822
  910MOL0     H25580   5.991   1.284   3.523  4.2527  0.7098  2.0601
  911MOL0     O25581   6.478   9.248   9.091 -0.6127  0.0103  0.4876
  911MOL0     C25582   6.523   9.154   9.154 -0.6947 -0.0172  0.0486
  911MOL0     O25583   6.650   9.149   9.228 -0.7151  0.2377  0.7255
  911MOL0     C25584   6.739   9.252   9.207 -0.4438 -0.2403 -0.0539
  911MOL0     C25585   6.865   9.237   9.141  0.7414 -0.0795 -0.3335
  911MOL0     C25586   6.948   9.349   9.134 -0.1968  0.1626 -0.2469
  911MOL0     C25587   6.913   9.470   9.187 -0.1486 -0.5136 -0.3583
  911MOL0     O25588   6.993   9.582   9.168 -0.2309  0.2593 -0.0782
  911MOL0     C25589   7.028   9.607   9.037 -0.0279 -0.4775 -0.2007
  911MOL0     C25590   7.142   9.705   9.023 -0.3323  0.3556 -1.1663
  911MOL0     C25591   7.197   9.723   8.883 -0.6660  0.3664 -0.2185
  911MOL0     C25592   7.282   9.612   8.835  0.0529  0.6689 -0.3248
  911MOL0     C25593   7.421   9.614   8.893 -0.5481 -0.2754  0.1521
  911MOL0     C25594   7.517   9.517   8.825 -0.7703 -0.4672 -0.3854
  911MOL0     C25595   7.644   9.503   8.899 -0.2687  0.2869 -0.6104
  911MOL0     C25596   7.714   9.640   8.903  0.4471  0.1109  0.8552
  911MOL0     N25597   7.852   9.608   8.953 -0.4102  0.3211  0.2906
  911MOL0     C25598   7.913   9.641   9.074  0.7485  0.0655  0.0294
  911MOL0     C25599   8.034   9.580   9.068 -0.1141 -0.3487  0.3074
  911MOL0     C25600   8.138   9.598   9.181 -0.0146  0.1009  0.0340
  911MOL0     C25601   8.283   9.561   9.144 -0.3783 -0.3387  0.0519
  911MOL0     C25602   8.389   9.612   9.238  0.0528  0.3292 -1.1324
  911MOL0     C25603   8.518   9.537   9.240 -0.7390 -0.2768  0.0781
  911MOL0     O25604   8.593   9.591   9.137  0.4485 -0.0359 -0.0398
  911MOL0     C25605   8.722   9.554   9.158  0.8062  0.5625 -0.1272
  911MOL0     C25606   8.818   9.653   9.178  0.6012 -0.1357 -1.1659
  911MOL0     C25607   8.957   9.627   9.198 -1.1969 -0.1130 -0.7918
  911MOL0     C25608   9.043   9.752   9.239 -0.5468  0.0165 -0.1650
  911MOL0     C25609   9.004   9.494   9.194 -0.4201  0.4679 -0.1533
  911MOL0     C25610   9.150   9.448   9.203 -0.1870 -0.3587  0.3846
  911MOL0     O25611   9.240   9.553   9.220 -0.4943 -0.1071 -0.5686
  911MOL0     C25612   9.373   9.513   9.248  0.6908 -0.4792  0.0507
  911MOL0     C25613   9.415   9.460   9.365 -0.7248 -0.0151  0.0738
  911MOL0     C25614   9.555   9.454   9.395  0.9628  0.6673 -0.0714
  911MOL0     C25615   9.650   9.484   9.300  0.0442 -0.7320 -0.2484
  911MOL0     O25616   9.788   9.484   9.311  0.0029 -0.0227 -0.7102
  911MOL0     C25617   9.832   9.446   9.440  0.8704  0.1902 -0.2677
  911MOL0     C25618   9.983   9.449   9.452 -0.7438  0.0700 -0.1499
  911MOL0     C25619  10.032   9.433   9.593 -0.0275  0.0520 -0.7335
  911MOL0     C25620  10.182   9.443   9.603 -0.3269 -0.6870  0.3557
  911MOL0     C25621  10.218   9.430   9.753 -0.5698 -0.1554  0.1097
  911MOL0     C25622  10.372   9.436   9.791 -0.1343 -0.4964  0.0718
  911MOL0     C25623  10.440   9.572   9.741  0.3820  0.6386  0.3515
  911MOL0     C25624  10.382   9.693   9.810  0.3349 -0.4736  0.2337
  911MOL0    Cl25625  10.379   9.686   9.988 -0.4259  0.1204  0.3596
  911MOL0     C25626   9.602   9.539   9.177 -0.1656  0.2379  0.4329
  911MOL0     C25627   9.465   9.545   9.144 -0.1239 -0.2969  0.2590
  911MOL0     O25628   9.188   9.336   9.177 -0.1727  0.1005  0.0098
  911MOL0     C25629   8.905   9.392   9.179  1.3176 -0.0488  0.5819
  911MOL0     C25630   8.756   9.416   9.161  0.0628 -0.2921  0.6521
  911MOL0     N25631   8.050   9.513   8.950 -0.0409 -0.3825  0.5711
  911MOL0     N25632   7.953   9.547   8.871 -0.0186  0.1375 -0.6420
  911MOL0     C25633   6.794   9.483   9.257 -0.0811  0.0606  0.6800
  911MOL0     C25634   6.707   9.380   9.252  0.4561  0.6025 -0.4539
  911MOL0     C25635   6.449   9.029   9.169  0.1748 -1.2371  0.0938
  911MOL0     C25636   6.503   8.926   9.251 -0.8323 -0.7600  0.0431
  911MOL0     C25637   6.436   8.806   9.264  1.2557 -0.4942 -0.6979
  911MOL0     C25638   6.306   8.778   9.217 -0.5415  0.6299  0.0882
  911MOL0     O25639   6.233   8.668   9.255 -0.3936 -0.3096 -0.2550
  911MOL0     C25640   6.102   8.634   9.201  0.1811  0.6322  0.3190
  911MOL0     C25641   6.102   8.512   9.118 -0.0001  0.3596 -0.4730
  911MOL0     C25642   5.960   8.480   9.088 -0.2405 -0.1663  0.3603
  911MOL0     C25643   5.938   8.337   9.043 -0.8363 -0.2911  0.7628
  911MOL0     C25644   6.003   8.317   8.912  0.0564 -0.1904  0.8891
  911MOL0     C25645   6.053   8.291   8.806 -0.9450 -0.4686  0.4211
  911MOL0     C25646   6.255   8.883   9.135  0.5839 -0.0325  0.7896
  911MOL0     C25647   6.321   9.001   9.112 -0.4830  0.7064  0.2412
  911MOL0     C25648   6.251   9.103   9.021  0.5671  0.4962 -0.0554
  911MOL0     H25649   6.892   9.145   9.091 -0.0741 -1.1449  1.1173
  911MOL0     H25650   7.051   9.342   9.100  0.3561 -2.5795  1.6829
  911MOL0     H25651   6.944   9.650   8.981  0.4918 -0.8853 -1.3179
  911MOL0     H25652   7.049   9.514   8.984  0.0400 -0.7721  0.3343
  911MOL0     H25653   7.124   9.799   9.076  1.6003  0.3347 -0.3987
  911MOL0     H25654   7.225   9.669   9.084  0.3274  2.3492 -0.8178
  911MOL0     H25655   7.116   9.740   8.811  0.4877  0.2041 -1.5917
  911MOL0     H25656   7.254   9.816   8.886  0.1797 -0.0794 -1.5942
  911MOL0     H25657   7.242   9.514   8.865  1.1018  0.1607 -0.5440
  911MOL0     H25658   7.286   9.626   8.727 -0.1282 -0.0535 -0.4323
  911MOL0     H25659   7.427   9.605   9.001  1.0061 -2.5132 -0.0630
  911MOL0     H25660   7.459   9.711   8.859 -1.2557  0.0624  0.3035
  911MOL0     H25661   7.479   9.415   8.816  2.1681 -1.5683 -1.4694
  911MOL0     H25662   7.545   9.541   8.722 -3.3747  1.2494 -0.7923
  911MOL0     H25663   7.705   9.432   8.841 -0.2665 -0.3463  0.1494
  911MOL0     H25664   7.622   9.451   8.993  0.3439 -2.5511 -1.9246
  911MOL0     H25665   7.713   9.677   8.800 -4.8485  0.9260  0.9560
  911MOL0     H25666   7.657   9.707   8.968 -1.2940  0.8716 -1.3248
  911MOL0     H25667   7.871   9.707   9.150 -2.0244 -2.5197  0.9729
  911MOL0     H25668   8.118   9.527   9.262  2.1702 -0.5108  0.1085
  911MOL0     H25669   8.138   9.699   9.223  0.1019  0.5790 -1.0925
  911MOL0     H25670   8.297   9.453   9.136 -0.5043 -0.3833  0.4094
  911MOL0     H25671   8.303   9.603   9.045  2.5509 -3.6310 -0.9452
  911MOL0     H25672   8.405   9.718   9.216  2.5001 -0.0071 -1.1943
  911MOL0     H25673   8.359   9.597   9.342 -1.0017  0.6163 -1.3794
  911MOL0     H25674   8.570   9.547   9.336 -0.6944 -3.4501  0.5178
  911MOL0     H25675   8.505   9.429   9.231 -0.1526 -0.2226 -1.6532
  911MOL0     H25676   8.782   9.755   9.185  3.6388  0.9241  2.5020
  911MOL0     H25677   9.120   9.772   9.164  1.2320 -0.8153  1.3589
  911MOL0     H25678   9.093   9.738   9.335 -0.7621  2.6035  0.4043
  911MOL0     H25679   8.974   9.836   9.248 -1.5343 -0.9151  1.3064
  911MOL0     H25680   9.352   9.431   9.449  1.3904 -0.2382  1.6783
  911MOL0     H25681   9.572   9.397   9.486 -1.2516 -1.2438 -0.7367
  911MOL0     H25682   9.780   9.509   9.512 -0.5293  0.3626 -1.3775
  911MOL0     H25683   9.806   9.342   9.465  0.7503 -0.0252 -1.2489
  911MOL0     H25684  10.020   9.371   9.385 -0.4969  0.4125 -0.4151
  911MOL0     H25685  10.014   9.543   9.405  1.6038  0.4641  1.9472
  911MOL0     H25686  10.007   9.333   9.630 -2.3517 -0.5588 -3.5587
  911MOL0     H25687   9.984   9.513   9.651 -1.7204  0.8471 -3.0791
  911MOL0     H25688  10.219   9.541   9.570 -1.4354 -0.3103  0.1981
  911MOL0     H25689  10.243   9.371   9.548  0.6988 -0.8106  1.5946
  911MOL0     H25690  10.176   9.510   9.816  0.0675  1.0800 -0.9820
  911MOL0     H25691  10.184   9.334   9.794 -2.5295  0.4783  0.0563
  911MOL0     H25692  10.421   9.345   9.754 -1.7182 -1.1816 -0.4383
  911MOL0     H25693  10.378   9.436   9.900 -1.9964 -0.5771  0.1978
  911MOL0     H25694  10.437   9.574   9.632  2.1915 -0.8975  0.2138
  911MOL0     H25695  10.543   9.558   9.775  1.9958  2.8765 -3.0639
  911MOL0     H25696  10.282   9.698   9.767  0.1906 -0.9504  0.5012
  911MOL0     H25697  10.444   9.778   9.781  1.2501 -1.8899 -2.2803
  911MOL0     H25698   9.675   9.575   9.106 -0.7437  1.6140  0.4941
  911MOL0     H25699   9.439   9.585   9.047 -3.3324 -1.9355  0.3343
  911MOL0     H25700   8.940   9.289   9.178 -2.1250 -1.3436  0.0011
  911MOL0     H25701   8.695   9.328   9.141 -3.0275  1.7491  0.5477
  911MOL0     H25702   6.759   9.578   9.297 -2.6607 -0.7712  0.6076
  911MOL0     H25703   6.617   9.390   9.311 -1.3932  1.0140 -3.1653
  911MOL0     H25704   6.599   8.940   9.300 -0.1863  1.6685 -1.7653
  911MOL0     H25705   6.486   8.725   9.315 -0.3340 -1.4886 -0.6441
  911MOL0     H25706   6.021   8.633   9.275 -1.6331  0.5835 -1.5803
  911MOL0     H25707   6.068   8.714   9.135 -2.4520 -0.7911 -0.1790
  911MOL0     H25708   6.136   8.427   9.177 -3.1214 -0.1911  0.6924
  911MOL0     H25709   6.160   8.524   9.026 -0.8919  0.5779 -1.0209
  911MOL0     H25710   5.893   8.490   9.173  0.2473 -0.0712  0.7375
  911MOL0     H25711   5.935   8.543   9.002  2.2512  0.4809  0.0175
  911MOL0     H25712   5.833   8.312   9.026 -0.6227 -2.2420  1.9899
  911MOL0     H25713   5.977   8.262   9.113 -1.0927  0.9062  2.2316
  911MOL0     H25714   6.095   8.263   8.711 -0.0068  1.4231  0.2293
  911MOL0     H25715   6.154   8.874   9.096  1.4623 -2.4709 -1.2722
  911MOL0     H25716   6.164   9.062   8.969 -0.0030 -0.6662  1.7389
  911MOL0     H25717   6.208   9.191   9.071 -1.8354 -1.3813  1.4354
  911MOL0     H25718   6.314   9.154   8.948 -0.9837  0.9587 -1.1221
  912MOL0     O25719   3.328   2.715   1.474  0.0064  0.1968  0.0057
  912MOL0     C25720   3.259   2.820   1.467 -0.3553 -0.0502 -0.5389
  912MOL0     O25721   3.269   2.919   1.374 -0.8928 -0.7004  0.2992
  912MOL0     C25722   3.358   2.905   1.269  0.6816 -0.2401  0.7959
  912MOL0     C25723   3.350   2.794   1.180  0.1929 -0.2301  0.2092
  912MOL0     C25724   3.437   2.786   1.067 -0.4272 -0.2547 -0.0768
  912MOL0     C25725   3.528   2.891   1.033  0.1955  0.1163  0.2683
  912MOL0     O25726   3.620   2.875   0.924 -0.5043 -0.3612 -1.0775
  912MOL0     C25727   3.681   2.747   0.915 -0.6181  0.7958  0.6650
  912MOL0     C25728   3.822   2.768   0.868  1.2050 -0.1125  0.7488
  912MOL0     C25729   3.845   2.843   0.737 -0.5993  0.2998 -0.0119
  912MOL0     C25730   3.992   2.870   0.727 -0.7056 -0.0885  0.4802
  912MOL0     C25731   4.028   2.909   0.582 -0.0603  0.5687  0.1798
  912MOL0     C25732   4.046   3.051   0.555  0.1696  0.3378  0.1784
  912MOL0     C25733   4.111   3.082   0.417 -0.4637 -0.3989  0.0962
  912MOL0     C25734   4.029   3.038   0.293 -0.7192 -0.0862  0.1852
  912MOL0     N25735   3.903   3.118   0.278 -0.9945 -0.0336 -0.1781
  912MOL0     C25736   3.907   3.256   0.254 -0.3262  0.0081 -0.3085
  912MOL0     C25737   3.785   3.299   0.243  0.3629 -0.2953  0.0075
  912MOL0     C25738   3.735   3.436   0.235  0.1196 -0.2503 -0.4042
  912MOL0     C25739   3.744   3.497   0.375  0.3479 -0.2356  0.4024
  912MOL0     C25740   3.703   3.405   0.487 -0.3274 -0.2187  0.0539
  912MOL0     C25741   3.696   3.479   0.623 -0.4346 -0.3173  0.0582
  912MOL0     O25742   3.678   3.389   0.735  0.0069 -0.1910 -0.1809
  912MOL0     C25743   3.792   3.329   0.781 -0.4052 -0.0253 -0.3776
  912MOL0     C25744   3.927   3.385   0.781 -0.1760 -0.3683  0.2760
  912MOL0     C25745   4.039   3.325   0.839 -0.5208  1.0742 -0.3179
  912MOL0     C25746   4.171   3.392   0.824 -0.2560  0.2105 -0.4737
  912MOL0     C25747   4.018   3.210   0.920  0.2694  0.4297  0.0039
  912MOL0     C25748   4.122   3.127   0.990  0.3955  0.8389  0.3622
  912MOL0     O25749   4.078   3.020   1.053  0.2051 -0.6627 -0.1149
  912MOL0     C25750   4.147   2.946   1.149  0.2658  0.2797  1.6539
  912MOL0     C25751   4.066   2.889   1.243  0.5058  0.3987 -0.0348
  912MOL0     C25752   4.131   2.802   1.333 -0.2738  0.2546  0.3509
  912MOL0     C25753   4.273   2.789   1.336 -0.4495  0.0209 -0.2025
  912MOL0     O25754   4.327   2.718   1.444  0.1994  0.1945  0.1883
  912MOL0     C25755   4.390   2.596   1.406 -0.1355  0.0006  0.2726
  912MOL0     C25756   4.449   2.538   1.533 -0.6465  0.0886  0.1106
  912MOL0     C25757   4.545   2.406   1.527  0.0060  0.5512  0.1644
  912MOL0     C25758   4.673   2.448   1.465 -0.4505  0.6498 -0.0519
  912MOL0     C25759   4.743   2.312   1.424 -0.5445 -0.2327  0.2814
  912MOL0     C25760   4.887   2.332   1.372  0.3927  0.2568 -0.2615
  912MOL0     C25761   4.943   2.190   1.344 -0.3743 -0.4744  0.0925
  912MOL0     C25762   5.011   2.166   1.208 -0.2735  0.7211 -0.0683
  912MOL0    Cl25763   5.157   2.253   1.195  0.1264 -0.7115  0.2897
  912MOL0     C25764   4.354   2.856   1.243  0.3233 -0.5831 -0.5395
  912MOL0     C25765   4.292   2.928   1.142 -0.3978 -0.4213  0.5300
  912MOL0     O25766   4.243   3.161   0.977  1.0304  0.0028 -0.0323
  912MOL0     C25767   3.885   3.158   0.929  0.6349 -0.0709 -0.7791
  912MOL0     C25768   3.778   3.208   0.862  0.1224 -0.9153 -0.3050
  912MOL0     N25769   3.715   3.182   0.258 -0.0743  0.2356  0.4128
  912MOL0     N25770   3.777   3.074   0.275 -0.5348  0.0580 -0.2474
  912MOL0     C25771   3.530   3.006   1.119 -0.9864 -0.9185 -0.2099
  912MOL0     C25772   3.444   3.011   1.232 -0.0036 -1.0787 -0.9886
  912MOL0     C25773   3.160   2.848   1.577 -0.2690  0.6087  0.3705
  912MOL0     C25774   3.114   2.734   1.648 -0.1310  0.8048  0.0208
  912MOL0     C25775   3.022   2.747   1.752  0.5665  0.3306 -0.0344
  912MOL0     C25776   2.973   2.878   1.784 -0.8391  0.4126  0.0894
  912MOL0     O25777   2.875   2.910   1.868  0.1418  0.8351  0.0685
  912MOL0     C25778   2.804   2.801   1.925  0.4011 -0.1066 -0.6186
  912MOL0     C25779   2.676   2.847   1.992 -0.0232  0.3578 -0.4050
  912MOL0     C25780   2.595   2.736   2.075  0.6531 -0.2757 -0.4132
  912MOL0     C25781   2.483   2.811   2.154 -0.5844  0.2436 -0.1512
  912MOL0     C25782   2.541   2.884   2.267  0.2753  0.2132 -0.6828
  912MOL0     C25783   2.583   2.921   2.374 -0.6421 -0.1429  0.0271
  912MOL0     C25784   3.028   2.988   1.721  0.1081 -0.2920  0.1149
  912MOL0     C25785   3.115   2.979   1.613  0.4226 -0.5984  0.4831
  912MOL0     C25786   3.142   3.112   1.546  0.0516  0.1467 -0.1559
  912MOL0     H25787   3.267   2.725   1.192 -0.2666 -0.0498 -1.6410
  912MOL0     H25788   3.420   2.707   0.995 -0.3573 -0.1603 -0.1958
  912MOL0     H25789   3.630   2.679   0.846  1.7428 -0.6915  0.2662
  912MOL0     H25790   3.681   2.686   1.006 -1.2961 -1.4946 -0.7661
  912MOL0     H25791   3.890   2.809   0.943  2.0040 -1.4928  0.8224
  912MOL0     H25792   3.862   2.666   0.860  0.8584 -0.4806  3.1109
  912MOL0     H25793   3.811   2.786   0.650  2.7617 -1.5583 -0.2614
  912MOL0     H25794   3.790   2.938   0.728 -3.0120 -1.1022 -1.2017
  912MOL0     H25795   4.026   2.949   0.794  1.6815 -0.7573  0.1422
  912MOL0     H25796   4.053   2.781   0.743  0.7449  0.4925 -1.5657
  912MOL0     H25797   3.949   2.869   0.518 -0.9938  0.8247  1.1468
  912MOL0     H25798   4.124   2.862   0.561  0.3594  0.1939  2.5963
  912MOL0     H25799   3.951   3.104   0.566 -0.2080 -0.6835  2.3084
  912MOL0     H25800   4.113   3.093   0.630  0.8295  2.5726 -1.5502
  912MOL0     H25801   4.209   3.034   0.412  0.2734  1.0245  0.4719
  912MOL0     H25802   4.127   3.190   0.408 -1.8280 -0.2329 -0.5757
  912MOL0     H25803   4.101   3.052   0.213 -1.5734  0.9744 -0.4258
  912MOL0     H25804   4.009   2.931   0.284 -1.4611  0.1447 -1.2714
  912MOL0     H25805   3.989   3.327   0.246 -1.6320  1.5341 -0.5998
  912MOL0     H25806   3.632   3.438   0.199  0.2011 -2.0118 -0.8191
  912MOL0     H25807   3.801   3.492   0.168 -0.5942 -1.4643 -2.1848
  912MOL0     H25808   3.844   3.537   0.397  0.7303 -1.7237  1.5703
  912MOL0     H25809   3.674   3.581   0.377 -1.9478 -1.9157 -2.3361
  912MOL0     H25810   3.602   3.366   0.471  0.1578 -1.2682 -0.6256
  912MOL0     H25811   3.782   3.329   0.497 -0.4295 -0.2250  0.8986
  912MOL0     H25812   3.778   3.550   0.637 -2.4349  1.8006  1.7887
  912MOL0     H25813   3.605   3.539   0.621  1.3458  2.6203  1.2578
  912MOL0     H25814   3.945   3.482   0.736 -1.1510  0.1396  0.9471
  912MOL0     H25815   4.231   3.328   0.759 -0.0490 -0.2959  0.2072
  912MOL0     H25816   4.214   3.405   0.923 -1.2543  1.8772 -0.2062
  912MOL0     H25817   4.159   3.493   0.781  2.0843  1.7095  2.1063
  912MOL0     H25818   3.958   2.902   1.252  0.7060  0.9535  2.1638
  912MOL0     H25819   4.071   2.748   1.404  0.9287 -0.5536  0.7877
  912MOL0     H25820   4.310   2.535   1.363  0.1390 -0.6912  0.7336
  912MOL0     H25821   4.474   2.610   1.338  0.4035  0.3136  0.9934
  912MOL0     H25822   4.504   2.615   1.588  0.2828 -0.1298 -0.4944
  912MOL0     H25823   4.362   2.522   1.597  1.0727 -0.5805  2.3976
  912MOL0     H25824   4.489   2.332   1.469 -0.4528  1.3722 -0.4721
  912MOL0     H25825   4.561   2.374   1.630 -0.3057  1.4785  0.5134
  912MOL0     H25826   4.731   2.495   1.544 -2.2452  1.3832  0.8911
  912MOL0     H25827   4.662   2.512   1.377 -0.2122 -0.4521 -0.9166
  912MOL0     H25828   4.746   2.245   1.510  0.1801  0.5677  0.9092
  912MOL0     H25829   4.677   2.262   1.352 -2.1079 -0.0101  1.5107
  912MOL0     H25830   4.958   2.391   1.432 -0.7048  2.3806 -0.9623
  912MOL0     H25831   4.877   2.397   1.285 -3.1673  1.1485  0.6712
  912MOL0     H25832   4.867   2.114   1.361 -2.5848  1.8368  1.2025
  912MOL0     H25833   5.025   2.171   1.414  0.4704 -0.5872 -0.8871
  912MOL0     H25834   4.946   2.206   1.130  1.1882  1.2167 -1.0967
  912MOL0     H25835   5.032   2.062   1.182  0.3355  0.1608  2.4740
  912MOL0     H25836   4.461   2.842   1.243  0.4944  0.0670 -3.1743
  912MOL0     H25837   4.358   2.964   1.064  1.4696  1.0579  2.6736
  912MOL0     H25838   3.855   3.068   0.983 -2.3471  1.6028  0.5916
  912MOL0     H25839   3.684   3.160   0.887 -0.4555  0.2994 -0.0637
  912MOL0     H25840   3.601   3.085   1.096 -2.6246  0.3386 -1.1232
  912MOL0     H25841   3.426   3.100   1.292 -0.4343 -1.7143 -0.1532
  912MOL0     H25842   3.167   2.640   1.637  1.0317  0.9495  3.2579
  912MOL0     H25843   2.980   2.656   1.793  1.3059  0.2232  0.5141
  912MOL0     H25844   2.777   2.714   1.864 -0.0822  0.0812 -0.6758
  912MOL0     H25845   2.863   2.762   2.008  0.0652 -0.4484 -0.5357
  912MOL0     H25846   2.615   2.898   1.916 -0.1270  1.0227  0.1088
  912MOL0     H25847   2.715   2.915   2.069 -1.6090 -3.7742  4.6727
  912MOL0     H25848   2.556   2.658   2.009 -1.3609  1.4507 -1.4125
  912MOL0     H25849   2.661   2.693   2.151 -1.9102 -0.5348  1.8170
  912MOL0     H25850   2.412   2.735   2.189  0.3416 -0.4271  0.2923
  912MOL0     H25851   2.423   2.882   2.097 -0.5588 -0.4581 -1.0731
  912MOL0     H25852   2.620   2.973   2.460 -0.0227 -1.1448  0.3827
  912MOL0     H25853   2.987   3.085   1.748 -0.4187  0.4391 -2.9005
  912MOL0     H25854   3.128   3.199   1.611  4.2262 -0.0781  1.3614
  912MOL0     H25855   3.250   3.111   1.528  0.4843 -1.4558  2.0980
  912MOL0     H25856   3.084   3.110   1.454 -0.0401 -0.2769 -0.0886
  913MOL0     O25857   7.763   7.875   2.983  0.1232 -0.3381 -0.3335
  913MOL0     C25858   7.724   7.909   3.095  0.4981 -0.5466 -0.3394
  913MOL0     O25859   7.805   7.956   3.197  0.2259  0.3341  0.2511
  913MOL0     C25860   7.941   7.942   3.183  0.4587 -0.2235  0.2698
  913MOL0     C25861   8.008   7.820   3.145  0.2459  0.3301  0.4813
  913MOL0     C25862   8.144   7.806   3.145 -0.5725 -0.4184 -0.0988
  913MOL0     C25863   8.224   7.912   3.193  0.1241 -0.0929  0.6138
  913MOL0     O25864   8.365   7.906   3.185 -0.0648 -0.6055  0.4287
  913MOL0     C25865   8.443   7.993   3.262  0.3557 -0.5101  0.0294
  913MOL0     C25866   8.582   7.938   3.291 -0.1629  0.3758 -0.2446
  913MOL0     C25867   8.659   8.033   3.377 -0.0027  0.2559  0.6376
  913MOL0     C25868   8.753   7.958   3.466  0.0755  0.6557 -0.5439
  913MOL0     C25869   8.828   8.053   3.557 -0.2165  0.4597 -0.0114
  913MOL0     C25870   8.933   7.998   3.661 -0.4446 -0.4637  1.0070
  913MOL0     C25871   9.054   7.914   3.605  0.5890  0.1928 -0.1409
  913MOL0     C25872   9.149   7.869   3.720 -1.1426  0.1751 -0.7060
  913MOL0     N25873   9.253   7.778   3.678  0.3083  0.2118 -0.1468
  913MOL0     C25874   9.361   7.830   3.611  0.2183  0.4585 -0.2026
  913MOL0     C25875   9.422   7.719   3.564 -0.3386 -0.6079  0.8524
  913MOL0     C25876   9.556   7.728   3.498 -0.4064 -0.6328 -0.3716
  913MOL0     C25877   9.674   7.704   3.591  0.2624 -0.2569 -1.1676
  913MOL0     C25878   9.668   7.804   3.701  0.2152 -0.4018 -0.2298
  913MOL0     C25879   9.806   7.811   3.773 -0.2029  0.0537 -0.4815
  913MOL0     O25880   9.903   7.856   3.676  0.4721 -0.2921 -0.2610
  913MOL0     C25881  10.014   7.900   3.742  0.1929 -0.1552 -0.2412
  913MOL0     C25882  10.093   7.990   3.679  0.9812 -0.7038  1.2176
  913MOL0     C25883  10.225   8.031   3.727  0.5130  0.2602  0.2395
  913MOL0     C25884  10.312   8.110   3.641 -1.1851 -0.4542  0.1108
  913MOL0     C25885  10.276   7.978   3.852 -0.3287  0.0577  0.1650
  913MOL0     C25886  10.395   8.022   3.928  0.5039 -0.0736  0.3513
  913MOL0     O25887  10.465   7.929   3.997  0.3775  0.6028 -0.1481
  913MOL0     C25888  10.602   7.954   4.024 -1.3344 -0.6584  0.4869
  913MOL0     C25889  10.689   7.971   3.920 -0.3306  0.0914 -0.1987
  913MOL0     C25890  10.823   8.002   3.937  0.5366  0.0695  1.2496
  913MOL0     C25891  10.876   8.023   4.067 -0.2566 -0.9155 -0.1188
  913MOL0     O25892  11.002   8.082   4.092 -0.0470 -0.0475  0.4457
  913MOL0     C25893  11.040   8.172   3.983  0.7811 -0.2961 -0.1235
  913MOL0     C25894  11.155   8.258   4.038  0.1070  0.1118 -0.3600
  913MOL0     C25895  11.275   8.178   4.082  0.2027 -1.5122  0.9181
  913MOL0     C25896  11.396   8.267   4.141  0.0840 -0.4266  0.4953
  913MOL0     C25897  11.454   8.349   4.026 -1.1023  0.5669  0.2677
  913MOL0     C25898  11.569   8.438   4.084  0.7945  0.4473 -0.4893
  913MOL0     C25899  11.664   8.487   3.971  0.3491  0.6216  0.2617
  913MOL0     C25900  11.805   8.507   4.022 -0.4530 -0.2008 -0.1681
  913MOL0    Cl25901  11.809   8.672   4.084  0.1228 -0.3531  0.6346
  913MOL0     C25902  10.786   8.003   4.175 -0.1227 -0.6092  0.1537
  913MOL0     C25903  10.653   7.970   4.153 -0.4095 -0.2688 -0.0004
  913MOL0     O25904  10.432   8.139   3.910 -0.3635 -0.0127 -0.0170
  913MOL0     C25905  10.187   7.891   3.917  0.5567 -0.3887  0.1831
  913MOL0     C25906  10.062   7.849   3.872 -0.5578  0.3491 -0.1233
  913MOL0     N25907   9.352   7.605   3.593 -0.3069 -0.4416  0.6259
  913MOL0     N25908   9.249   7.642   3.667  0.2377 -0.7097 -0.0421
  913MOL0     C25909   8.159   8.030   3.234  0.0106 -0.1175 -0.3378
  913MOL0     C25910   8.022   8.045   3.233  0.2170 -0.5334 -0.2989
  913MOL0     C25911   7.580   7.920   3.122  0.1902 -0.1873 -0.5615
  913MOL0     C25912   7.557   7.963   3.252 -0.4506 -0.1336 -0.0404
  913MOL0     C25913   7.428   7.964   3.301  0.1142 -0.4179 -0.4766
  913MOL0     C25914   7.325   7.918   3.229  0.0727  0.4897  0.1300
  913MOL0     O25915   7.203   7.936   3.300 -0.4148 -0.7512  0.0930
  913MOL0     C25916   7.085   7.934   3.224  0.7853 -0.3448  0.2886
  913MOL0     C25917   7.074   8.060   3.142 -0.6711 -0.3004  0.5304
  913MOL0     C25918   6.942   8.062   3.068 -0.7253  0.1694  0.2540
  913MOL0     C25919   6.931   8.187   2.981  0.2759  0.0018 -1.1505
  913MOL0     C25920   6.858   8.292   3.055 -0.6754 -0.0083 -0.3820
  913MOL0     C25921   6.806   8.372   3.130 -0.3739 -0.8675  0.0470
  913MOL0     C25922   7.345   7.865   3.103  0.1338 -0.1341  0.5832
  913MOL0     C25923   7.473   7.875   3.044  0.2802  0.0966 -0.0221
  913MOL0     C25924   7.499   7.817   2.903 -0.1138  0.4331 -0.2240
  913MOL0     H25925   7.945   7.735   3.124  1.2595 -0.5858  1.0549
  913MOL0     H25926   8.188   7.714   3.107 -2.7754 -1.8281  0.5162
  913MOL0     H25927   8.398   8.007   3.360  0.8354 -0.2413  0.2126
  913MOL0     H25928   8.452   8.089   3.211  0.4266 -1.1247 -1.1745
  913MOL0     H25929   8.567   7.840   3.335  1.6630 -1.1203 -2.7100
  913MOL0     H25930   8.618   7.929   3.188 -1.1396  0.8345 -0.6493
  913MOL0     H25931   8.712   8.101   3.310 -0.9204 -2.2161 -2.9052
  913MOL0     H25932   8.591   8.085   3.446 -0.0598  0.3119  0.5389
  913MOL0     H25933   8.695   7.891   3.529 -0.2078  1.6619  0.2974
  913MOL0     H25934   8.824   7.903   3.404  0.8548 -0.1231  0.9884
  913MOL0     H25935   8.752   8.107   3.614  0.0426  0.4273  0.3665
  913MOL0     H25936   8.885   8.114   3.486 -0.3939 -1.5734 -2.0541
  913MOL0     H25937   8.966   8.081   3.724 -0.8938  0.6052 -0.1256
  913MOL0     H25938   8.874   7.925   3.718 -0.7596 -1.2939 -0.3367
  913MOL0     H25939   9.108   7.968   3.527  0.6181  1.6144  0.8229
  913MOL0     H25940   9.020   7.819   3.564  0.8861  0.7219 -1.6687
  913MOL0     H25941   9.195   7.959   3.763  0.7377 -1.6265  1.2698
  913MOL0     H25942   9.092   7.816   3.797  0.5291 -0.3593  0.2114
  913MOL0     H25943   9.387   7.933   3.588  0.7561  0.1226 -1.2073
  913MOL0     H25944   9.574   7.825   3.451  2.3145 -0.6873  0.3646
  913MOL0     H25945   9.550   7.660   3.413 -1.7871  0.4118 -1.1485
  913MOL0     H25946   9.670   7.604   3.635  1.4543  0.8885  1.7650
  913MOL0     H25947   9.765   7.713   3.531  2.6043  1.3195  2.3034
  913MOL0     H25948   9.632   7.904   3.677 -0.4352 -0.8762 -1.3297
  913MOL0     H25949   9.599   7.762   3.775 -0.8020 -2.0288 -2.0026
  913MOL0     H25950   9.802   7.875   3.861 -0.0234  0.5311 -0.8120
  913MOL0     H25951   9.835   7.713   3.811  0.0250  0.5607  0.6760
  913MOL0     H25952  10.065   8.036   3.585  3.7972 -0.8958  0.1982
  913MOL0     H25953  10.365   8.188   3.696 -0.3888 -0.8528 -0.0843
  913MOL0     H25954  10.255   8.160   3.561  0.8101  1.3520 -0.2629
  913MOL0     H25955  10.388   8.041   3.604  0.3416  1.5983 -0.7472
  913MOL0     H25956  10.656   7.979   3.816  1.2775 -0.0108 -0.7470
  913MOL0     H25957  10.871   8.031   3.844  0.3170 -0.2690  1.0282
  913MOL0     H25958  11.071   8.116   3.895 -1.2792 -0.0716 -1.0478
  913MOL0     H25959  10.960   8.237   3.946  0.8821  0.3856  0.8085
  913MOL0     H25960  11.180   8.342   3.974  2.2678 -0.4110 -0.2779
  913MOL0     H25961  11.120   8.292   4.136  3.1106  3.8800 -0.3497
  913MOL0     H25962  11.310   8.137   3.987  2.3744  0.1246  0.9145
  913MOL0     H25963  11.259   8.096   4.153 -4.3085 -1.1693  0.5861
  913MOL0     H25964  11.477   8.203   4.177  1.9007  1.7911  0.5413
  913MOL0     H25965  11.349   8.329   4.218 -0.3888 -1.6116  1.1888
  913MOL0     H25966  11.488   8.284   3.945 -3.3058 -1.3783  0.7906
  913MOL0     H25967  11.388   8.420   3.974 -0.8667 -0.2384 -1.1865
  913MOL0     H25968  11.612   8.366   4.155  0.1480 -0.2705 -0.8178
  913MOL0     H25969  11.521   8.525   4.128 -2.0573 -0.3189 -1.8314
  913MOL0     H25970  11.614   8.572   3.925  0.6837  1.2383  1.0181
  913MOL0     H25971  11.672   8.407   3.896  0.7110  1.3926 -0.5476
  913MOL0     H25972  11.878   8.497   3.940 -0.7892  0.9553 -0.6354
  913MOL0     H25973  11.839   8.439   4.100  2.0163 -0.1884 -1.1397
  913MOL0     H25974  10.825   8.018   4.275  1.7893 -0.3413 -0.5705
  913MOL0     H25975  10.579   7.971   4.233 -0.3533 -1.1907  0.0666
  913MOL0     H25976  10.214   7.857   4.017 -1.5289  0.9426  1.2608
  913MOL0     H25977  10.013   7.775   3.934  0.1247  1.0335  1.2859
  913MOL0     H25978   8.222   8.106   3.281  0.6543 -0.8452 -0.0130
  913MOL0     H25979   7.961   8.126   3.272 -1.0454 -1.5936  0.0064
  913MOL0     H25980   7.632   8.011   3.315 -2.1784  3.4473 -0.4652
  913MOL0     H25981   7.398   8.007   3.396 -2.9051 -2.9509 -0.1072
  913MOL0     H25982   7.092   7.843   3.164  3.2611  1.7725 -3.0370
  913MOL0     H25983   6.998   7.932   3.291  0.9973  0.8298  0.6151
  913MOL0     H25984   7.160   8.055   3.075 -3.0225 -0.4249 -2.7152
  913MOL0     H25985   7.075   8.147   3.209 -2.1126 -0.7692  1.2037
  913MOL0     H25986   6.935   7.978   2.998 -1.6690 -0.4683  1.0937
  913MOL0     H25987   6.857   8.061   3.136 -0.1342  0.0306  0.9985
  913MOL0     H25988   6.873   8.161   2.892 -1.3541  0.6326 -0.2985
  913MOL0     H25989   7.029   8.230   2.957  1.2406  0.4905  2.9173
  913MOL0     H25990   6.757   8.447   3.189  0.5354 -0.9151  0.8965
  913MOL0     H25991   7.264   7.816   3.048 -0.2305  0.3573  0.6777
  913MOL0     H25992   7.554   7.891   2.845  2.1567 -0.9694  0.0276
  913MOL0     H25993   7.566   7.732   2.916 -0.6371  0.3154  2.2599
  913MOL0     H25994   7.406   7.792   2.852  0.8101 -0.4031 -1.5451
  914MOL0     O25995   1.799   0.057   2.610 -0.0124 -0.4106 -0.4201
  914MOL0     C25996   1.750   0.068   2.719  0.4403  0.2544 -0.4881
  914MOL0     O25997   1.808   0.129   2.832  0.1560 -0.0033  0.3621
  914MOL0     C25998   1.918   0.216   2.837 -0.0340 -0.5046 -0.5453
  914MOL0     C25999   1.945   0.279   2.960  1.3591 -0.2428 -0.2308
  914MOL0     C26000   2.057   0.367   2.974 -0.5547  0.4256 -0.1372
  914MOL0     C26001   2.150   0.387   2.874  0.2373 -0.8948 -0.2854
  914MOL0     O26002   2.247   0.480   2.891 -0.2336 -0.5386 -0.2387
  914MOL0     C26003   2.293   0.512   3.023  0.5137  0.0859 -1.3530
  914MOL0     C26004   2.446   0.544   3.024  0.3803  0.4246 -0.7570
  914MOL0     C26005   2.481   0.652   2.920 -0.2076 -0.0724 -0.5469
  914MOL0     C26006   2.635   0.695   2.913 -0.0999  0.6668  0.2928
  914MOL0     C26007   2.731   0.579   2.929  1.2919 -0.6567 -0.3562
  914MOL0     C26008   2.876   0.632   2.935  0.4900 -0.6145  0.2883
  914MOL0     C26009   2.916   0.689   2.805 -1.0008  0.0549  0.7524
  914MOL0     C26010   3.074   0.717   2.785  0.2512  0.0643 -0.2961
  914MOL0     N26011   3.161   0.604   2.834 -0.1680 -1.0185  0.0766
  914MOL0     C26012   3.198   0.492   2.760  0.5756 -0.0184  0.1896
  914MOL0     C26013   3.284   0.430   2.841  0.2145 -0.0741 -0.2987
  914MOL0     C26014   3.354   0.303   2.807  0.1619  0.1043  0.4257
  914MOL0     C26015   3.503   0.327   2.767  0.4642  0.4536 -0.0374
  914MOL0     C26016   3.573   0.188   2.754 -0.4382 -0.1360  0.0414
  914MOL0     C26017   3.714   0.192   2.716 -0.1301  0.0279  0.9773
  914MOL0     O26018   3.783   0.274   2.816 -1.1653  0.3876 -0.7567
  914MOL0     C26019   3.909   0.315   2.804 -0.0906 -0.2929 -0.2824
  914MOL0     C26020   4.000   0.253   2.718  0.3801  0.8079 -0.1856
  914MOL0     C26021   4.132   0.294   2.705  0.1570 -0.4774 -0.0166
  914MOL0     C26022   4.226   0.216   2.616  0.9635  0.7632  0.4982
  914MOL0     C26023   4.181   0.401   2.796  1.0811 -0.1004  0.5592
  914MOL0     C26024   4.303   0.484   2.772 -0.8875 -0.3127  0.1552
  914MOL0     O26025   4.350   0.547   2.888  0.5682 -0.2507  0.6082
  914MOL0     C26026   4.456   0.633   2.893  0.4126 -0.0955  0.1516
  914MOL0     C26027   4.546   0.625   3.001  0.2874  0.2537  0.4259
  914MOL0     C26028   4.647   0.729   3.009 -0.5834  0.9679 -0.4821
  914MOL0     C26029   4.670   0.819   2.903 -0.3909  0.8857 -0.3571
  914MOL0     O26030   4.757   0.927   2.905 -0.0432 -0.1271 -0.1193
  914MOL0     C26031   4.791   0.963   3.045 -0.1104  0.0409 -0.0816
  914MOL0     C26032   4.836   1.106   3.040 -0.3609  0.8209  0.1870
  914MOL0     C26033   4.727   1.217   3.019 -0.2149 -0.7180  1.0269
  914MOL0     C26034   4.760   1.371   3.029  0.2044 -0.3220  0.7104
  914MOL0     C26035   4.850   1.412   2.912 -0.7561  0.3159 -0.2216
  914MOL0     C26036   4.899   1.555   2.934  0.0884  0.0167  0.5088
  914MOL0     C26037   4.929   1.617   2.793  0.0028 -1.4971  0.0319
  914MOL0     C26038   5.067   1.570   2.742  0.4379 -0.8266  0.2290
  914MOL0    Cl26039   5.198   1.620   2.841 -0.0926 -0.0275 -0.0664
  914MOL0     C26040   4.591   0.816   2.793  0.2847  0.5060  0.1325
  914MOL0     C26041   4.489   0.715   2.780  0.7542  0.0895  0.0782
  914MOL0     O26042   4.349   0.491   2.659  0.4311  0.6320 -0.1395
  914MOL0     C26043   4.090   0.454   2.893  0.3592  0.0073  0.8346
  914MOL0     C26044   3.955   0.407   2.899 -0.6299  0.8345  0.3825
  914MOL0     N26045   3.308   0.502   2.963  0.3476 -0.2300 -0.2412
  914MOL0     N26046   3.229   0.600   2.956  0.0258 -0.1854 -0.8490
  914MOL0     C26047   2.116   0.337   2.753  0.5033 -0.1795  0.3601
  914MOL0     C26048   2.011   0.248   2.730 -0.2465 -0.1798 -0.4635
  914MOL0     C26049   1.615  -0.007   2.734  0.2487  0.0775  0.1290
  914MOL0     C26050   1.586  -0.071   2.854 -0.3016 -0.0148  0.2413
  914MOL0     C26051   1.467  -0.150   2.859  0.8818 -0.2241 -0.5243
  914MOL0     C26052   1.367  -0.154   2.756 -0.2868  0.9857 -0.8994
  914MOL0     O26053   1.255  -0.229   2.777  0.4293  0.7281 -0.1013
  914MOL0     C26054   1.172  -0.276   2.666 -0.2117 -0.9728  0.4760
  914MOL0     C26055   1.052  -0.183   2.640 -0.3188 -0.2035 -0.1898
  914MOL0     C26056   0.956  -0.169   2.757  0.3603 -0.0101 -0.3602
  914MOL0     C26057   0.877  -0.040   2.742  0.5391 -0.1580  0.5010
  914MOL0     C26058   0.797  -0.036   2.611 -0.6805 -0.1024 -0.5608
  914MOL0     C26059   0.742  -0.016   2.504 -0.6422 -0.5721 -0.8221
  914MOL0     C26060   1.399  -0.080   2.640  0.0869 -0.2616 -0.0755
  914MOL0     C26061   1.525  -0.004   2.627 -0.2134 -0.3771 -0.2104
  914MOL0     C26062   1.550   0.048   2.487 -0.9864 -0.7841 -0.0645
  914MOL0     H26063   1.886   0.250   3.046  1.8692  2.3939  1.1356
  914MOL0     H26064   2.065   0.394   3.079  0.0463 -1.7380  0.4150
  914MOL0     H26065   2.283   0.424   3.087 -0.5634  1.8683  1.1113
  914MOL0     H26066   2.230   0.591   3.066 -0.4789 -1.1484 -0.4180
  914MOL0     H26067   2.475   0.577   3.124 -0.3796 -1.3264  0.0821
  914MOL0     H26068   2.490   0.451   2.989  0.0358  1.1702 -3.4236
  914MOL0     H26069   2.452   0.616   2.820 -2.4869 -3.3224  1.0861
  914MOL0     H26070   2.420   0.741   2.937 -1.9981 -1.0912 -1.3808
  914MOL0     H26071   2.649   0.745   2.817 -1.1034  1.0315  0.3191
  914MOL0     H26072   2.648   0.766   2.995 -1.3471  0.1463  0.9663
  914MOL0     H26073   2.721   0.509   2.846  1.3708 -1.4184  0.2644
  914MOL0     H26074   2.703   0.538   3.026 -4.5643  3.2601  0.1205
  914MOL0     H26075   2.881   0.713   3.009 -0.0306 -0.9382  0.6890
  914MOL0     H26076   2.948   0.556   2.966  2.5596  1.0754 -0.1639
  914MOL0     H26077   2.852   0.774   2.781 -0.1692  0.7450  0.9111
  914MOL0     H26078   2.901   0.616   2.725 -2.4688 -1.2794  2.1677
  914MOL0     H26079   3.086   0.751   2.682 -2.3322  2.7007  0.1079
  914MOL0     H26080   3.092   0.807   2.845  1.4407  0.5706 -1.3828
  914MOL0     H26081   3.144   0.455   2.674 -1.1155  0.8677  0.8096
  914MOL0     H26082   3.300   0.255   2.725  0.5457  1.6466 -0.7824
  914MOL0     H26083   3.342   0.241   2.897  0.7981 -0.7515 -0.0723
  914MOL0     H26084   3.500   0.376   2.669 -0.2629 -2.1945 -1.4241
  914MOL0     H26085   3.551   0.391   2.842 -1.5879  1.6296  0.3477
  914MOL0     H26086   3.565   0.130   2.847 -0.9768  0.5904  0.4606
  914MOL0     H26087   3.516   0.128   2.683 -1.6431  0.5261  0.4158
  914MOL0     H26088   3.748   0.088   2.720 -2.3043 -0.8610 -1.0785
  914MOL0     H26089   3.739   0.218   2.612  0.7382 -0.6767  1.0014
  914MOL0     H26090   3.964   0.171   2.656 -0.6649  1.2276 -0.1508
  914MOL0     H26091   4.242   0.271   2.523  0.7214  1.6566  0.9677
  914MOL0     H26092   4.184   0.117   2.598  2.0259  0.2050  1.0229
  914MOL0     H26093   4.321   0.203   2.667  1.7683  0.2691 -1.0552
  914MOL0     H26094   4.537   0.548   3.077 -0.6864  0.0668  0.1352
  914MOL0     H26095   4.715   0.731   3.094 -1.4040  1.7752  0.1681
  914MOL0     H26096   4.707   0.956   3.114 -2.0725  2.9866 -1.9433
  914MOL0     H26097   4.870   0.894   3.077 -3.0900 -2.3652  2.6869
  914MOL0     H26098   4.886   1.128   3.135  0.5555  1.0888 -0.3465
  914MOL0     H26099   4.899   1.116   2.951  0.7930  0.5993  0.9562
  914MOL0     H26100   4.643   1.192   3.083  0.6963 -3.0777  1.3896
  914MOL0     H26101   4.690   1.208   2.916  3.9042  1.8023 -0.9386
  914MOL0     H26102   4.795   1.391   3.131 -0.8129  0.7063  0.8860
  914MOL0     H26103   4.665   1.424   3.014  0.7460  0.1876 -1.1924
  914MOL0     H26104   4.930   1.338   2.899 -1.3190 -0.4841  0.7732
  914MOL0     H26105   4.791   1.409   2.820 -2.1928 -1.1905  0.6837
  914MOL0     H26106   4.989   1.554   2.996  1.2316  2.0657 -0.9744
  914MOL0     H26107   4.815   1.613   2.972  0.1399 -1.1591  2.5573
  914MOL0     H26108   4.942   1.723   2.816  1.4115 -1.3868 -1.1176
  914MOL0     H26109   4.848   1.616   2.720 -1.0099 -1.4581  1.1206
  914MOL0     H26110   5.080   1.601   2.638 -0.1679  0.7936  0.6036
  914MOL0     H26111   5.076   1.461   2.749 -1.3866 -0.9965  0.5137
  914MOL0     H26112   4.585   0.891   2.715 -0.8414 -0.9722 -1.2613
  914MOL0     H26113   4.426   0.715   2.692  1.2906 -1.7605 -0.3428
  914MOL0     H26114   4.125   0.530   2.963  1.9752 -0.9193  1.0784
  914MOL0     H26115   3.885   0.446   2.971 -2.0696 -3.1571  1.3974
  914MOL0     H26116   2.188   0.346   2.672  1.6506 -0.2834  1.3318
  914MOL0     H26117   1.993   0.197   2.636  1.5913 -1.5677 -0.1287
  914MOL0     H26118   1.662  -0.069   2.931  0.4016 -0.0468 -0.4397
  914MOL0     H26119   1.442  -0.203   2.951  0.4377  2.8374  1.2756
  914MOL0     H26120   1.235  -0.289   2.578  0.3869 -4.3396  1.2848
  914MOL0     H26121   1.131  -0.374   2.692  1.0286 -1.6208  0.0718
  914MOL0     H26122   1.004  -0.219   2.549 -0.9524 -3.3789  1.2757
  914MOL0     H26123   1.087  -0.079   2.641  0.8622 -0.5737  1.5606
  914MOL0     H26124   0.891  -0.257   2.747 -0.1761  0.3444 -0.0074
  914MOL0     H26125   1.001  -0.177   2.856  1.8654 -2.3892 -1.1299
  914MOL0     H26126   0.944   0.046   2.742 -1.3345  1.4716 -2.0360
  914MOL0     H26127   0.814  -0.031   2.831 -2.3108  2.5990 -1.5338
  914MOL0     H26128   0.704   0.006   2.406  0.1978  0.6528 -0.8976
  914MOL0     H26129   1.330  -0.083   2.556 -1.4625  0.8421  1.0921
  914MOL0     H26130   1.565   0.156   2.489  0.0622 -0.9250  0.7508
  914MOL0     H26131   1.640   0.010   2.438  0.5977  1.8811  0.6043
  914MOL0     H26132   1.466   0.025   2.421 -1.1683  0.6120 -0.3522
  915MOL0     O26133  10.082  11.348   8.214 -0.3745  0.3339  0.6061
  915MOL0     C26134  10.020  11.246   8.201 -0.4191 -0.4950  0.0537
  915MOL0     O26135  10.073  11.112   8.182 -0.0262 -0.4590 -0.4059
  915MOL0     C26136  10.210  11.105   8.173 -0.7539 -0.7060  0.1921
  915MOL0     C26137  10.273  11.014   8.250 -0.2765  1.0561 -0.3328
  915MOL0     C26138  10.412  10.990   8.236 -0.2444  0.7471 -0.0758
  915MOL0     C26139  10.489  11.059   8.144  0.4012 -1.0005  0.2932
  915MOL0     O26140  10.621  11.043   8.126  0.1668 -0.5118 -0.4270
  915MOL0     C26141  10.709  11.015   8.235  0.1727  0.1593  0.4951
  915MOL0     C26142  10.849  11.051   8.192 -0.3752  0.2488  0.8043
  915MOL0     C26143  10.960  11.013   8.288  0.2454  0.1592  0.5814
  915MOL0     C26144  11.094  11.019   8.219 -0.5616 -0.5827 -0.8741
  915MOL0     C26145  11.216  10.964   8.295  0.4760 -0.6135 -0.7695
  915MOL0     C26146  11.200  10.993   8.445  0.9386  0.5387 -0.1566
  915MOL0     C26147  11.339  10.991   8.516 -0.1729  0.6412  0.3549
  915MOL0     C26148  11.410  11.125   8.489  0.5659  0.2792  0.5408
  915MOL0     N26149  11.546  11.125   8.530  0.5275 -1.0466 -0.2727
  915MOL0     C26150  11.594  11.074   8.648  0.5460  0.3817 -0.3277
  915MOL0     C26151  11.723  11.066   8.619 -0.1974 -0.7201  0.5183
  915MOL0     C26152  11.836  11.042   8.720 -0.1138  0.7710  0.1371
  915MOL0     C26153  11.880  10.902   8.692  0.0140  0.6728 -0.3925
  915MOL0     C26154  12.030  10.898   8.664  0.2568  0.3100 -0.1555
  915MOL0     C26155  12.093  10.770   8.711  0.9230  0.6647  0.3620
  915MOL0     O26156  12.236  10.765   8.684 -0.0478  0.3303 -0.5943
  915MOL0     C26157  12.285  10.764   8.558  0.1656 -0.2468  0.7654
  915MOL0     C26158  12.220  10.713   8.444  0.3503 -0.3041  0.4155
  915MOL0     C26159  12.294  10.695   8.325 -0.0529 -1.1437  0.4139
  915MOL0     C26160  12.216  10.655   8.197  0.2619 -0.5338  0.7786
  915MOL0     C26161  12.426  10.741   8.314 -0.3023  0.5795  0.0417
  915MOL0     C26162  12.501  10.737   8.189 -0.4228  0.2047 -0.3975
  915MOL0     O26163  12.637  10.714   8.207 -0.3675 -0.2769  0.5289
  915MOL0     C26164  12.709  10.713   8.083 -0.1463  0.4916  0.3440
  915MOL0     C26165  12.722  10.598   7.998 -0.3290 -0.2835  0.0027
  915MOL0     C26166  12.809  10.600   7.885  0.4078  0.1081 -0.8910
  915MOL0     C26167  12.863  10.721   7.852 -0.2218 -0.1810  0.4722
  915MOL0     O26168  12.942  10.741   7.740 -0.6149  0.1899  0.3894
  915MOL0     C26169  13.063  10.674   7.755 -0.7806  0.0885  0.1939
  915MOL0     C26170  13.164  10.726   7.661 -0.1600 -1.2803 -0.3655
  915MOL0     C26171  13.287  10.630   7.663 -0.4020  0.2667  0.2991
  915MOL0     C26172  13.389  10.666   7.550 -0.1814  0.2539  0.1262
  915MOL0     C26173  13.519  10.599   7.606 -0.6012 -0.3330  0.1378
  915MOL0     C26174  13.633  10.610   7.504 -0.6004  0.7273  0.0016
  915MOL0     C26175  13.748  10.519   7.547  0.3603  0.3726 -0.8616
  915MOL0     C26176  13.873  10.513   7.453  0.9403  0.1218 -0.3881
  915MOL0    Cl26177  13.988  10.410   7.526 -0.3971  0.1349 -0.0957
  915MOL0     C26178  12.845  10.841   7.923 -0.5493  0.0910 -0.3582
  915MOL0     C26179  12.764  10.832   8.040 -0.0283  0.2803  0.4154
  915MOL0     O26180  12.447  10.743   8.081  0.2576  0.3435  0.5490
  915MOL0     C26181  12.483  10.781   8.433 -0.5187  0.1699 -0.5344
  915MOL0     C26182  12.417  10.801   8.552  0.2142  0.0091 -0.1096
  915MOL0     N26183  11.755  11.089   8.488  1.4837 -0.5487  0.4279
  915MOL0     N26184  11.647  11.141   8.435  0.1160  0.1411 -0.4229
  915MOL0     C26185  10.426  11.153   8.069  0.2008  0.4681  0.4924
  915MOL0     C26186  10.284  11.177   8.075 -0.5012 -0.4653  0.5570
  915MOL0     C26187   9.875  11.257   8.178  0.4256 -0.8231 -0.7001
  915MOL0     C26188   9.824  11.189   8.067  0.3000  0.5990  0.3276
  915MOL0     C26189   9.688  11.197   8.036 -0.5959  0.2142 -0.2674
  915MOL0     C26190   9.597  11.266   8.120  0.8160  0.7590 -0.5047
  915MOL0     O26191   9.464  11.261   8.079 -0.8384 -0.3825  0.3237
  915MOL0     C26192   9.373  11.364   8.113 -0.2947 -0.6225  0.8033
  915MOL0     C26193   9.364  11.434   7.975  0.1957 -0.0886  0.7658
  915MOL0     C26194   9.247  11.534   7.979 -0.4931  0.2718  0.1358
  915MOL0     C26195   9.211  11.584   7.841  0.0004  0.2457  0.0113
  915MOL0     C26196   9.318  11.670   7.786 -0.5987  0.9492 -0.2538
  915MOL0     C26197   9.417  11.735   7.746  0.4184 -0.1180  0.1698
  915MOL0     C26198   9.643  11.322   8.238 -0.4117 -0.5169  0.6749
  915MOL0     C26199   9.779  11.326   8.268  0.1200  0.3045  0.2430
  915MOL0     C26200   9.816  11.369   8.403  0.3013 -0.9100 -1.1399
  915MOL0     H26201  10.215  10.943   8.308 -1.8835  2.1943 -0.4998
  915MOL0     H26202  10.440  10.903   8.294  0.0356  0.6911 -0.2967
  915MOL0     H26203  10.704  10.911   8.269  1.5299  0.9400  3.3705
  915MOL0     H26204  10.684  11.084   8.316 -0.7015  0.0351  0.3421
  915MOL0     H26205  10.875  11.004   8.096  3.2876  1.8861  0.8289
  915MOL0     H26206  10.851  11.160   8.187 -0.5298  0.4641  3.6976
  915MOL0     H26207  10.940  11.072   8.378  0.7823  0.1628  0.7027
  915MOL0     H26208  10.944  10.907   8.309 -1.3919  0.6397  1.9593
  915MOL0     H26209  11.087  10.965   8.124  3.8980 -3.3212  0.1062
  915MOL0     H26210  11.123  11.124   8.209  0.1952 -0.7243 -0.1976
  915MOL0     H26211  11.301  11.013   8.247  1.0076 -0.2829  0.4718
  915MOL0     H26212  11.214  10.856   8.280 -1.8239 -0.6367 -0.6959
  915MOL0     H26213  11.145  11.087   8.460  0.1259  0.2050 -0.9489
  915MOL0     H26214  11.137  10.916   8.491  0.7979 -0.2693 -1.6463
  915MOL0     H26215  11.398  10.910   8.471 -2.6101 -0.7990 -0.3897
  915MOL0     H26216  11.334  10.975   8.624 -1.4981  2.4269  0.5990
  915MOL0     H26217  11.393  11.152   8.384 -2.7589 -3.1482 -0.0303
  915MOL0     H26218  11.352  11.198   8.546 -3.3128 -2.9172  1.1014
  915MOL0     H26219  11.539  11.051   8.739  1.2096  1.1943  0.2959
  915MOL0     H26220  11.796  11.042   8.822  0.1835  1.1332  0.2547
  915MOL0     H26221  11.920  11.112   8.721  1.3793 -0.9482  1.8139
  915MOL0     H26222  11.856  10.826   8.766 -1.2372  1.9633  0.5951
  915MOL0     H26223  11.835  10.864   8.600  4.5392 -1.7674 -1.9384
  915MOL0     H26224  12.042  10.907   8.556  2.1470 -0.9688 -0.0958
  915MOL0     H26225  12.086  10.976   8.717  0.6048 -1.4167  2.2026
  915MOL0     H26226  12.076  10.754   8.818 -0.6303  0.9963  0.1904
  915MOL0     H26227  12.042  10.688   8.658 -0.9545  0.6573  2.0703
  915MOL0     H26228  12.115  10.686   8.441  0.8968 -2.6031 -0.3189
  915MOL0     H26229  12.210  10.739   8.127  3.0948  0.8217  2.0091
  915MOL0     H26230  12.113  10.630   8.223 -0.0607 -0.4378 -0.3496
  915MOL0     H26231  12.264  10.575   8.141  1.8799 -0.2359  1.6682
  915MOL0     H26232  12.689  10.501   8.033  2.3377 -1.3048 -0.0575
  915MOL0     H26233  12.829  10.509   7.829  0.7664 -1.9676  2.3453
  915MOL0     H26234  13.108  10.671   7.855  0.6058 -3.5156 -0.3927
  915MOL0     H26235  13.051  10.573   7.714 -1.4610 -0.1143  0.8540
  915MOL0     H26236  13.117  10.747   7.565 -1.6249  3.2306  1.0607
  915MOL0     H26237  13.187  10.829   7.693  0.0524 -1.2868 -0.4972
  915MOL0     H26238  13.253  10.527   7.652 -3.5484  1.3812 -2.2276
  915MOL0     H26239  13.325  10.643   7.764 -4.8430  0.1545  2.2210
  915MOL0     H26240  13.408  10.772   7.529  0.4995 -0.1879 -1.6259
  915MOL0     H26241  13.365  10.620   7.454 -0.9956  2.0611 -0.5924
  915MOL0     H26242  13.552  10.644   7.700  0.2644 -2.4368  0.9239
  915MOL0     H26243  13.496  10.496   7.635 -0.5451 -0.4034 -0.0645
  915MOL0     H26244  13.667  10.711   7.477  2.0176  0.4732  1.9550
  915MOL0     H26245  13.591  10.564   7.414  2.2490 -3.7200  0.6399
  915MOL0     H26246  13.704  10.419   7.547 -0.5757  0.7642  0.4804
  915MOL0     H26247  13.790  10.542   7.645  0.7590  0.4269 -1.0435
  915MOL0     H26248  13.911  10.616   7.449 -4.3959  2.4037 -2.2561
  915MOL0     H26249  13.852  10.475   7.352 -0.0989 -3.0885  0.9005
  915MOL0     H26250  12.887  10.930   7.878 -3.4268 -0.2388 -4.2854
  915MOL0     H26251  12.755  10.917   8.107 -0.6185  0.6460 -0.1203
  915MOL0     H26252  12.585  10.817   8.439 -0.3375 -0.5678  1.2581
  915MOL0     H26253  12.466  10.830   8.643 -1.1723  3.0307 -0.1896
  915MOL0     H26254  10.486  11.198   7.990 -1.6301 -1.1633 -1.9975
  915MOL0     H26255  10.238  11.264   8.028 -1.3364 -0.8731  0.6058
  915MOL0     H26256   9.890  11.137   7.998 -0.9859  1.0719 -1.3452
  915MOL0     H26257   9.655  11.133   7.955 -0.9827 -0.7459  0.6251
  915MOL0     H26258   9.274  11.324   8.138 -2.3620  1.8256 -2.6884
  915MOL0     H26259   9.409  11.433   8.190  0.9539  0.2214 -0.4788
  915MOL0     H26260   9.360  11.354   7.900  2.6822  1.6889 -1.4464
  915MOL0     H26261   9.461  11.476   7.948  0.3332 -1.3009 -0.7556
  915MOL0     H26262   9.160  11.498   8.035  0.2746 -0.3488  0.9673
  915MOL0     H26263   9.293  11.616   8.035  0.7274  0.7901 -1.5613
  915MOL0     H26264   9.113  11.631   7.851 -0.3654 -0.9261  2.4526
  915MOL0     H26265   9.195  11.496   7.779  1.4141  0.7395 -1.1057
  915MOL0     H26266   9.489  11.800   7.700  0.5223 -0.6184 -0.3972
  915MOL0     H26267   9.574  11.363   8.311 -0.5062 -1.8483  1.3641
  915MOL0     H26268   9.822  11.286   8.474 -0.9086 -0.9217 -1.0308
  915MOL0     H26269   9.914  11.417   8.404 -0.3723  0.5779  1.1375
  915MOL0     H26270   9.744  11.441   8.443  3.5937  2.9313 -1.4542
  916MOL0     O26271   9.363   6.919   4.885  0.8470  0.2580 -0.4112
  916MOL0     C26272   9.292   6.823   4.850  0.4869  0.6876  0.9106
  916MOL0     O26273   9.345   6.694   4.829  0.5808  0.2552  0.3496
  916MOL0     C26274   9.475   6.674   4.861 -0.0358  0.3787  0.1010
  916MOL0     C26275   9.513   6.586   4.965  0.0817 -0.6462  0.1854
  916MOL0     C26276   9.650   6.556   4.985  0.4235 -0.0670  0.0919
  916MOL0     C26277   9.751   6.607   4.910 -0.6915  0.0287 -0.1674
  916MOL0     O26278   9.881   6.578   4.933 -0.9037 -0.3409  0.5006
  916MOL0     C26279   9.970   6.572   4.816  0.0612  0.5591 -0.4520
  916MOL0     C26280  10.091   6.493   4.866 -0.5300  0.6395 -0.1190
  916MOL0     C26281  10.158   6.557   4.993 -0.0844  0.3882  0.4684
  916MOL0     C26282  10.295   6.483   5.018  0.6835 -0.4574  0.0629
  916MOL0     C26283  10.358   6.549   5.135  0.9765 -0.0252 -0.3950
  916MOL0     C26284  10.499   6.488   5.148  0.1631  0.1154 -0.0593
  916MOL0     C26285  10.563   6.479   5.284  0.1537  0.5012  0.3031
  916MOL0     C26286  10.619   6.618   5.330  0.5122  0.3137  0.3210
  916MOL0     N26287  10.720   6.672   5.231 -0.6243  0.3362  0.2620
  916MOL0     C26288  10.848   6.628   5.209  0.1063  0.7502 -0.9208
  916MOL0     C26289  10.918   6.729   5.150 -0.3464  0.3474 -0.0864
  916MOL0     C26290  11.063   6.720   5.100 -0.2559 -0.0494 -0.5917
  916MOL0     C26291  11.079   6.635   4.977  0.1044 -0.2498 -0.2375
  916MOL0     C26292  11.195   6.541   5.010 -0.4146  0.0566  0.4594
  916MOL0     C26293  11.208   6.447   4.893 -1.1508  0.9771  0.4680
  916MOL0     O26294  11.311   6.358   4.931  0.5747 -0.1214 -0.1076
  916MOL0     C26295  11.441   6.376   4.887  0.2278 -0.3182  0.4042
  916MOL0     C26296  11.475   6.331   4.757 -0.0402 -0.4051  0.1427
  916MOL0     C26297  11.607   6.352   4.708 -0.4471  0.6709 -0.1421
  916MOL0     C26298  11.634   6.308   4.573  1.0567  0.1456  0.9502
  916MOL0     C26299  11.694   6.440   4.773 -0.3624  0.4981 -0.1919
  916MOL0     C26300  11.829   6.487   4.732 -0.5047  0.0344  0.0243
  916MOL0     O26301  11.909   6.558   4.825  0.1194  0.2060  0.0448
  916MOL0     C26302  12.040   6.582   4.784  0.5180 -0.5354  0.5362
  916MOL0     C26303  12.152   6.503   4.823 -0.2167 -0.9050 -0.1115
  916MOL0     C26304  12.282   6.535   4.781  0.1629 -0.2299  0.0112
  916MOL0     C26305  12.303   6.643   4.698 -0.5911  0.9385  0.3041
  916MOL0     O26306  12.421   6.672   4.646 -0.9502 -0.2007  0.3828
  916MOL0     C26307  12.533   6.652   4.730  0.3856  0.3092 -0.1984
  916MOL0     C26308  12.647   6.747   4.672  0.6994  0.3292 -0.3195
  916MOL0     C26309  12.785   6.676   4.671 -0.7060 -0.0773  0.1132
  916MOL0     C26310  12.898   6.770   4.706 -0.6132  0.2824 -0.2172
  916MOL0     C26311  13.036   6.701   4.699  0.7891  0.7986 -0.0267
  916MOL0     C26312  13.083   6.630   4.573  0.7831 -0.4012  0.3442
  916MOL0     C26313  13.229   6.582   4.588  0.0735 -0.4971 -0.5869
  916MOL0     C26314  13.284   6.557   4.447 -0.4801  0.1095 -0.7470
  916MOL0    Cl26315  13.441   6.494   4.472  0.0674 -0.8473 -0.4720
  916MOL0     C26316  12.194   6.727   4.663  0.5933 -1.0702 -0.2015
  916MOL0     C26317  12.061   6.694   4.694 -0.0566  0.1386  0.3235
  916MOL0     O26318  11.865   6.466   4.618  0.0290 -0.2873 -0.5496
  916MOL0     C26319  11.659   6.476   4.909 -0.1695  0.0188 -0.1574
  916MOL0     C26320  11.538   6.437   4.964  0.3464 -0.6043 -0.1006
  916MOL0     N26321  10.833   6.842   5.126  0.5326 -0.0809  0.0748
  916MOL0     N26322  10.724   6.806   5.191  0.2629 -0.5206  0.2174
  916MOL0     C26323   9.709   6.693   4.812 -0.2068 -0.3671  1.2183
  916MOL0     C26324   9.579   6.728   4.785 -0.6243  0.4416 -0.5829
  916MOL0     C26325   9.141   6.834   4.822 -0.5227  0.5989  0.8503
  916MOL0     C26326   9.069   6.712   4.803  0.0723 -0.3974  0.4171
  916MOL0     C26327   8.936   6.707   4.795 -0.4094  0.2436 -0.1962
  916MOL0     C26328   8.858   6.818   4.804  0.5660 -0.0532 -0.6824
  916MOL0     O26329   8.721   6.796   4.796 -0.3147 -0.1958 -0.0192
  916MOL0     C26330   8.645   6.915   4.757  0.7121  0.4528  0.2973
  916MOL0     C26331   8.507   6.859   4.725 -0.6726 -0.2361 -0.3935
  916MOL0     C26332   8.439   6.777   4.838  0.4574 -0.0176 -0.4259
  916MOL0     C26333   8.307   6.717   4.790  0.6744  0.2863  0.2936
  916MOL0     C26334   8.260   6.625   4.896 -0.8170 -0.9381 -0.8058
  916MOL0     C26335   8.222   6.542   4.972 -0.3064  0.3409 -0.5651
  916MOL0     C26336   8.922   6.941   4.809 -0.3191 -1.0400  0.7438
  916MOL0     C26337   9.063   6.950   4.822  0.4323  0.1489 -0.1218
  916MOL0     C26338   9.119   7.088   4.836  0.1826 -0.3452  0.2091
  916MOL0     H26339   9.430   6.537   5.016 -0.6071 -1.7063 -1.8508
  916MOL0     H26340   9.672   6.479   5.058 -0.1026 -0.6854 -0.3973
  916MOL0     H26341  10.013   6.669   4.792 -2.4246  1.8863  0.1035
  916MOL0     H26342   9.911   6.524   4.736 -0.7205 -0.0365  0.4572
  916MOL0     H26343  10.049   6.393   4.883 -0.5984  0.6222 -0.3978
  916MOL0     H26344  10.176   6.480   4.799 -0.1120  0.2174  0.4865
  916MOL0     H26345  10.176   6.664   4.977 -2.0911  1.2596  3.2973
  916MOL0     H26346  10.094   6.564   5.081  0.4430 -0.7696  0.9612
  916MOL0     H26347  10.271   6.377   5.031 -0.4442 -0.2343 -0.1076
  916MOL0     H26348  10.360   6.495   4.931  1.2828 -0.8411  0.4465
  916MOL0     H26349  10.301   6.528   5.226  0.2992  0.1107 -0.7881
  916MOL0     H26350  10.364   6.655   5.112  0.2017  0.0092 -0.4477
  916MOL0     H26351  10.510   6.388   5.105  0.8536 -0.0262  0.4299
  916MOL0     H26352  10.567   6.538   5.078  2.3485 -4.4392 -1.5956
  916MOL0     H26353  10.646   6.407   5.286  0.2099  0.4928 -1.2706
  916MOL0     H26354  10.484   6.450   5.354 -0.6215 -1.4351 -1.3012
  916MOL0     H26355  10.530   6.683   5.328 -0.6299 -1.2162 -0.2477
  916MOL0     H26356  10.649   6.617   5.435  2.7591  1.7291 -0.2342
  916MOL0     H26357  10.869   6.526   5.239 -2.0789  0.4315 -0.2714
  916MOL0     H26358  11.116   6.683   5.189 -2.8714  0.7198  1.4381
  916MOL0     H26359  11.097   6.823   5.092 -1.9501  0.6401  0.3467
  916MOL0     H26360  10.994   6.571   4.953 -0.6836  0.9857 -0.8625
  916MOL0     H26361  11.102   6.696   4.889 -2.7831 -0.3460 -1.1561
  916MOL0     H26362  11.286   6.595   5.038 -0.0224  0.0006 -0.6949
  916MOL0     H26363  11.171   6.487   5.103 -1.5917  0.3287  0.3236
  916MOL0     H26364  11.118   6.389   4.870 -0.5753  0.5046 -0.7240
  916MOL0     H26365  11.240   6.500   4.803  3.4100 -1.4787  0.3533
  916MOL0     H26366  11.404   6.279   4.694  1.0323  1.9089 -3.3155
  916MOL0     H26367  11.571   6.221   4.557  1.4772  0.3022 -2.1625
  916MOL0     H26368  11.737   6.282   4.547  2.2124  1.3469  3.8634
  916MOL0     H26369  11.598   6.387   4.506 -2.1980 -0.8419  1.3709
  916MOL0     H26370  12.134   6.420   4.890 -1.1501 -1.3410 -0.8814
  916MOL0     H26371  12.362   6.469   4.814 -0.2985 -0.6302  0.3384
  916MOL0     H26372  12.506   6.677   4.833 -1.3969 -3.7292  0.5158
  916MOL0     H26373  12.557   6.545   4.739  1.0191  0.5172  0.7368
  916MOL0     H26374  12.625   6.772   4.568 -2.3499 -2.7871 -0.6218
  916MOL0     H26375  12.651   6.837   4.733 -2.7634  0.7620 -0.5070
  916MOL0     H26376  12.797   6.649   4.565 -0.2253  1.7220 -0.3188
  916MOL0     H26377  12.792   6.586   4.732 -1.7616 -0.2591 -0.0226
  916MOL0     H26378  12.891   6.812   4.807  3.5437  0.5391  0.1230
  916MOL0     H26379  12.896   6.857   4.641 -2.4883 -1.1835 -2.2610
  916MOL0     H26380  13.106   6.784   4.715  0.2119  1.4319 -0.7179
  916MOL0     H26381  13.067   6.626   4.773  1.4550  0.2628 -0.8301
  916MOL0     H26382  13.082   6.702   4.491  0.2634  1.5417  1.9795
  916MOL0     H26383  13.015   6.552   4.539  0.1060  0.6765 -0.8920
  916MOL0     H26384  13.229   6.489   4.646  3.7590 -0.1544  0.1918
  916MOL0     H26385  13.290   6.656   4.642 -2.7906  1.5382  0.1270
  916MOL0     H26386  13.304   6.647   4.389  0.5585  0.0869 -0.4477
  916MOL0     H26387  13.211   6.492   4.398  1.5709 -2.9296 -0.0676
  916MOL0     H26388  12.215   6.819   4.609  1.4812 -2.1048 -1.6966
  916MOL0     H26389  11.975   6.750   4.659 -1.7027 -1.3281  1.7769
  916MOL0     H26390  11.733   6.529   4.968  0.1736  1.5379 -1.8492
  916MOL0     H26391  11.518   6.453   5.070  0.4948 -2.2368  0.1987
  916MOL0     H26392   9.776   6.731   4.736  0.2409 -2.8498  0.2613
  916MOL0     H26393   9.540   6.795   4.709 -2.4873 -2.0939 -2.0128
  916MOL0     H26394   9.126   6.619   4.807  0.3626 -0.2372  0.1120
  916MOL0     H26395   8.883   6.613   4.781  1.2424 -0.6705 -0.5944
  916MOL0     H26396   8.643   6.993   4.833 -0.4493  1.3258 -0.5966
  916MOL0     H26397   8.679   6.954   4.661 -1.7119 -1.0707 -1.3100
  916MOL0     H26398   8.512   6.789   4.641 -3.2470  0.9715 -1.6528
  916MOL0     H26399   8.442   6.933   4.678  1.1406  0.6594 -1.6490
  916MOL0     H26400   8.495   6.689   4.871  0.1035  0.2925  1.0708
  916MOL0     H26401   8.417   6.836   4.927  1.2194 -0.9440  0.3976
  916MOL0     H26402   8.309   6.664   4.695  0.1300  1.3294 -0.3210
  916MOL0     H26403   8.240   6.803   4.776  0.9732  0.9437  2.4854
  916MOL0     H26404   8.192   6.459   5.033 -0.8845 -0.8881 -2.4632
  916MOL0     H26405   8.858   7.028   4.808  0.7684 -0.1630 -2.3527
  916MOL0     H26406   9.035   7.156   4.823  1.5922  1.3198 -0.6299
  916MOL0     H26407   9.168   7.100   4.933  1.3757 -0.9284 -0.2986
  916MOL0     H26408   9.190   7.104   4.754 -1.1028 -0.3962 -0.9480
  917MOL0     O26409   5.973  11.089   4.844 -0.6113  0.0612 -0.2312
  917MOL0     C26410   5.955  11.062   4.725 -0.5601  0.1756 -0.0466
  917MOL0     O26411   6.044  11.089   4.627 -0.4527 -0.4597 -0.5838
  917MOL0     C26412   6.169  11.136   4.640 -0.6218 -0.3092 -0.1367
  917MOL0     C26413   6.245  11.142   4.756  1.0231 -0.2897 -0.5363
  917MOL0     C26414   6.362  11.198   4.762 -0.7524  0.4427 -0.2943
  917MOL0     C26415   6.416  11.244   4.647 -0.6377 -0.5980  0.0055
  917MOL0     O26416   6.532  11.311   4.653 -0.7289 -1.1407 -0.6776
  917MOL0     C26417   6.653  11.231   4.624 -0.3257 -0.0574  0.5438
  917MOL0     C26418   6.769  11.324   4.624 -0.0995  0.5247 -0.1032
  917MOL0     C26419   6.892  11.240   4.592 -0.1771 -0.3955  0.8103
  917MOL0     C26420   6.954  11.181   4.726  0.6212 -1.6137  0.4300
  917MOL0     C26421   7.061  11.076   4.711 -0.2944  0.0892  0.6856
  917MOL0     C26422   7.167  11.114   4.601  0.4479  0.3912 -0.3915
  917MOL0     C26423   7.261  11.230   4.649  0.4380 -0.8696  0.1530
  917MOL0     C26424   7.407  11.176   4.679 -0.3537  0.1115 -0.8249
  917MOL0     N26425   7.410  11.100   4.803  0.6824 -0.2686 -0.0066
  917MOL0     C26426   7.399  10.963   4.811  0.6379  0.0157  0.4797
  917MOL0     C26427   7.404  10.929   4.947 -0.0325 -0.4701 -0.1129
  917MOL0     C26428   7.358  10.812   5.037  0.4713  0.6701 -0.2208
  917MOL0     C26429   7.487  10.738   5.064  0.7718  0.4722  0.1904
  917MOL0     C26430   7.477  10.616   5.163  0.4286 -0.9776 -0.0678
  917MOL0     C26431   7.605  10.555   5.197  0.1080  0.4334  0.1398
  917MOL0     O26432   7.661  10.482   5.083  0.0685  0.0390  0.0718
  917MOL0     C26433   7.794  10.510   5.043 -0.8690 -0.3789  0.0944
  917MOL0     C26434   7.908  10.499   5.126 -0.1857  0.1121 -0.7566
  917MOL0     C26435   8.034  10.523   5.081 -0.0815 -0.2728  0.2155
  917MOL0     C26436   8.144  10.525   5.183 -0.0305  0.2311  0.4013
  917MOL0     C26437   8.048  10.544   4.941 -0.0349  0.9198  0.2440
  917MOL0     C26438   8.176  10.553   4.876  0.3024  0.3427 -0.8018
  917MOL0     O26439   8.281  10.486   4.931 -0.5564  0.4508  0.0556
  917MOL0     C26440   8.410  10.490   4.870 -0.6906 -0.0637 -0.8311
  917MOL0     C26441   8.523  10.499   4.952  0.3154  0.4046 -0.5461
  917MOL0     C26442   8.648  10.507   4.902 -0.3191 -0.1444  0.4684
  917MOL0     C26443   8.669  10.489   4.767  0.1228 -0.1236 -0.4710
  917MOL0     O26444   8.804  10.493   4.732 -0.0617  0.3100  0.7873
  917MOL0     C26445   8.839  10.464   4.594  0.9961  0.5811 -0.0766
  917MOL0     C26446   8.989  10.430   4.596 -0.6003  0.4468 -0.3647
  917MOL0     C26447   9.045  10.408   4.451 -0.1620  0.3127 -0.3169
  917MOL0     C26448   9.084  10.537   4.381 -0.0499 -0.7683 -0.0133
  917MOL0     C26449   9.147  10.517   4.242 -0.3969 -0.3020  0.2174
  917MOL0     C26450   9.235  10.629   4.189  1.3655  0.7160 -0.0746
  917MOL0     C26451   9.309  10.597   4.057  0.2511 -0.6456  0.4261
  917MOL0     C26452   9.377  10.714   4.000 -0.3165  0.6133  0.0425
  917MOL0    Cl26453   9.382  10.687   3.819 -0.3356  0.1864 -0.1783
  917MOL0     C26454   8.557  10.470   4.683 -1.0309 -1.0469 -0.3210
  917MOL0     C26455   8.432  10.479   4.739  1.1354  0.1889  0.4937
  917MOL0     O26456   8.184  10.642   4.795 -0.5402 -0.4867  1.0030
  917MOL0     C26457   7.937  10.558   4.859  0.6469  0.6567  0.3446
  917MOL0     C26458   7.811  10.533   4.907  0.3178 -0.1966  0.0516
  917MOL0     N26459   7.432  11.051   5.014 -0.3490  0.5688  0.8047
  917MOL0     N26460   7.431  11.149   4.931  0.0094 -0.1929  0.6968
  917MOL0     C26461   6.362  11.233   4.519  0.3156 -0.6286 -0.6975
  917MOL0     C26462   6.229  11.177   4.521 -0.2764  0.2189 -0.3942
  917MOL0     C26463   5.824  10.998   4.692  1.1569 -1.6466 -0.1182
  917MOL0     C26464   5.804  10.861   4.715  0.3006 -0.3137 -0.0053
  917MOL0     C26465   5.686  10.798   4.680 -0.5813  0.4671 -0.6730
  917MOL0     C26466   5.581  10.870   4.627 -0.5741 -0.1927 -0.4527
  917MOL0     O26467   5.457  10.825   4.593 -0.1320  0.2711  0.3681
  917MOL0     C26468   5.422  10.692   4.576  0.0119 -0.5168  1.7053
  917MOL0     C26469   5.284  10.658   4.626 -0.2834 -0.2304  0.5378
  917MOL0     C26470   5.261  10.667   4.783 -0.2352  0.0557 -0.0790
  917MOL0     C26471   5.120  10.613   4.822 -0.1426 -0.6093  0.7410
  917MOL0     C26472   5.009  10.664   4.740 -0.0757  1.4323  0.3549
  917MOL0     C26473   4.918  10.700   4.669  0.2611 -0.5994  0.3092
  917MOL0     C26474   5.597  11.004   4.609 -0.2620  0.2255 -0.1567
  917MOL0     C26475   5.717  11.075   4.631  0.2079 -0.0436 -0.0573
  917MOL0     C26476   5.736  11.221   4.599  0.5514  0.3574 -0.0501
  917MOL0     H26477   6.213  11.091   4.847 -1.6386  1.6744 -0.2571
  917MOL0     H26478   6.408  11.213   4.859  1.9590  0.5393 -1.5246
  917MOL0     H26479   6.638  11.170   4.534  0.2910 -0.5208  0.7477
  917MOL0     H26480   6.679  11.160   4.702  0.5106  0.1643  0.4717
  917MOL0     H26481   6.748  11.404   4.552 -1.5262 -0.3156 -0.6603
  917MOL0     H26482   6.777  11.375   4.721 -3.0533  2.7387 -0.8821
  917MOL0     H26483   6.868  11.161   4.521  1.2343  0.6469 -0.8995
  917MOL0     H26484   6.966  11.299   4.538 -0.6202 -1.8182 -1.4975
  917MOL0     H26485   6.996  11.266   4.781 -0.2256  0.7207 -2.2702
  917MOL0     H26486   6.877  11.150   4.797  2.5571 -2.0919  2.4401
  917MOL0     H26487   7.020  10.978   4.686 -1.5871  0.5587  0.8930
  917MOL0     H26488   7.111  11.060   4.807  1.0268 -0.6035 -0.0868
  917MOL0     H26489   7.225  11.024   4.576 -2.3583 -1.1312 -1.8574
  917MOL0     H26490   7.110  11.143   4.513 -2.8763  0.4354  1.6173
  917MOL0     H26491   7.212  11.280   4.733  0.7044 -0.1903 -0.0953
  917MOL0     H26492   7.258  11.308   4.573 -1.6246  0.7821  1.8422
  917MOL0     H26493   7.443  11.112   4.597 -0.2331 -0.8221 -0.0639
  917MOL0     H26494   7.466  11.268   4.688 -0.9781  0.4784 -0.3923
  917MOL0     H26495   7.357  10.900   4.733 -1.7542  1.4937  0.4614
  917MOL0     H26496   7.284  10.749   4.986  1.6520 -0.1251 -0.9893
  917MOL0     H26497   7.310  10.841   5.131  1.0840 -3.1272  1.4687
  917MOL0     H26498   7.511  10.702   4.963  1.1612  2.0339 -0.3033
  917MOL0     H26499   7.561  10.812   5.097  0.3622  0.0454  2.1748
  917MOL0     H26500   7.440  10.673   5.249  2.0920 -1.0691  0.7438
  917MOL0     H26501   7.400  10.544   5.133 -0.3550 -0.8753  1.6001
  917MOL0     H26502   7.664  10.641   5.231 -2.3650  2.5840 -0.6949
  917MOL0     H26503   7.603  10.488   5.284  1.1173 -0.9997 -0.8979
  917MOL0     H26504   7.892  10.480   5.232  0.2731 -1.0141 -0.8679
  917MOL0     H26505   8.086  10.555   5.271 -0.7381  2.7958 -0.8403
  917MOL0     H26506   8.224  10.596   5.163 -0.1012  0.4763  0.9630
  917MOL0     H26507   8.199  10.431   5.193  2.4464  1.4624 -0.9128
  917MOL0     H26508   8.510  10.506   5.060  4.4217 -2.9948  0.4454
  917MOL0     H26509   8.737  10.493   4.964 -0.0319  0.9685  0.3197
  917MOL0     H26510   8.778  10.381   4.555  1.4360  0.8394 -1.3748
  917MOL0     H26511   8.806  10.550   4.535 -1.4285 -0.8554 -1.0075
  917MOL0     H26512   9.047  10.509   4.644  0.0632 -1.6822  2.5615
  917MOL0     H26513   9.011  10.337   4.649  0.2500  1.4988  1.1754
  917MOL0     H26514   8.964  10.369   4.388  0.4940  2.0645 -2.3487
  917MOL0     H26515   9.130  10.340   4.461 -2.0020 -1.9308  1.0389
  917MOL0     H26516   9.156  10.591   4.442 -0.1018  0.2341 -0.8122
  917MOL0     H26517   9.002  10.608   4.372  0.5123 -0.3112 -2.3528
  917MOL0     H26518   9.199  10.421   4.256 -0.8594 -0.4961  0.6735
  917MOL0     H26519   9.069  10.494   4.170 -2.0846  0.6259  1.6759
  917MOL0     H26520   9.310  10.643   4.267  0.7281 -3.0505  1.4340
  917MOL0     H26521   9.170  10.715   4.171  2.0971  1.0888 -1.0549
  917MOL0     H26522   9.232  10.572   3.983  0.4011  0.0333  0.0372
  917MOL0     H26523   9.373  10.510   4.071 -0.2450 -1.0181  0.4402
  917MOL0     H26524   9.478  10.720   4.040  0.3017  1.6069 -1.5749
  917MOL0     H26525   9.326  10.809   4.017 -2.1490 -0.2905 -0.1238
  917MOL0     H26526   8.567  10.468   4.575 -1.8845  3.6278 -0.6932
  917MOL0     H26527   8.351  10.465   4.668  3.3670 -0.0259 -2.1882
  917MOL0     H26528   7.952  10.583   4.754  0.5247  0.5484  0.3009
  917MOL0     H26529   7.726  10.548   4.840  2.7512 -0.6050 -3.4353
  917MOL0     H26530   6.391  11.287   4.430  0.0702  0.6183 -0.0390
  917MOL0     H26531   6.170  11.157   4.433 -2.3686 -0.2595  1.0475
  917MOL0     H26532   5.880  10.797   4.759  0.7450  1.0602  1.3047
  917MOL0     H26533   5.679  10.693   4.708 -0.7419  0.7592  0.4634
  917MOL0     H26534   5.432  10.664   4.471 -1.1884  1.8849  0.8727
  917MOL0     H26535   5.492  10.640   4.642 -1.2789 -0.5802  3.0522
  917MOL0     H26536   5.264  10.552   4.606 -1.6416 -0.4523  2.7051
  917MOL0     H26537   5.208  10.713   4.569  1.1118 -0.0702 -1.2405
  917MOL0     H26538   5.339  10.610   4.834 -0.1938  0.0473 -0.1513
  917MOL0     H26539   5.262  10.773   4.808 -0.2499  0.2189 -0.7488
  917MOL0     H26540   5.101  10.629   4.928 -0.6582  1.6654  0.3488
  917MOL0     H26541   5.112  10.507   4.797  0.2432 -0.5585  0.3988
  917MOL0     H26542   4.842  10.740   4.605  0.9864 -0.4475 -0.4794
  917MOL0     H26543   5.518  11.064   4.566 -1.3525  0.6637  2.2820
  917MOL0     H26544   5.645  11.259   4.552  0.8018  0.6567 -0.3009
  917MOL0     H26545   5.756  11.275   4.692  1.2140  0.9756 -0.5397
  917MOL0     H26546   5.821  11.233   4.532 -0.1069  1.2363 -0.7493
  918MOL0     O26547   4.561  10.164   1.044 -0.1785  0.4794 -0.0114
  918MOL0     C26548   4.559  10.091   1.138 -0.3101  0.6008  0.4810
  918MOL0     O26549   4.666  10.010   1.177 -0.8707 -0.0045  0.0456
  918MOL0     C26550   4.787  10.036   1.117 -0.5365  0.5715  0.5164
  918MOL0     C26551   4.841   9.938   1.032 -0.2507 -0.1145  0.0463
  918MOL0     C26552   4.963   9.963   0.969 -0.2768  1.3718  0.0481
  918MOL0     C26553   5.035  10.084   0.990  1.1400  0.1642  0.1853
  918MOL0     O26554   5.146  10.118   0.925 -0.0655 -0.1147  0.1621
  918MOL0     C26555   5.243  10.019   0.916 -0.4731  0.2490 -0.6200
  918MOL0     C26556   5.374  10.070   0.852 -0.6780  0.2252  0.6618
  918MOL0     C26557   5.491   9.969   0.830  0.1898 -0.0576  0.1797
  918MOL0     C26558   5.606  10.032   0.768 -0.7025  0.4132  0.2621
  918MOL0     C26559   5.579  10.074   0.622 -0.8022  0.3095 -0.3632
  918MOL0     C26560   5.704  10.090   0.536 -0.3308  0.4320  0.6207
  918MOL0     C26561   5.802  10.194   0.592 -0.2806  0.2905  0.3990
  918MOL0     C26562   5.941  10.214   0.514  0.8042 -0.1746  0.0304
  918MOL0     N26563   6.037  10.092   0.521 -0.0268 -0.3767  0.4074
  918MOL0     C26564   6.001   9.964   0.486 -0.0739 -0.2298 -0.0030
  918MOL0     C26565   6.109   9.894   0.525 -0.3365 -0.3293  0.1745
  918MOL0     C26566   6.140   9.745   0.506 -0.7073 -0.9699  0.4675
  918MOL0     C26567   6.236   9.693   0.405  0.0065 -0.7952  0.3824
  918MOL0     C26568   6.380   9.739   0.426 -0.0803  0.3441 -0.3637
  918MOL0     C26569   6.489   9.655   0.362 -0.0681 -0.2264 -0.5324
  918MOL0     O26570   6.544   9.563   0.453  0.6353  0.0215  0.7964
  918MOL0     C26571   6.663   9.526   0.404 -0.9315  0.0293 -0.2203
  918MOL0     C26572   6.667   9.404   0.339 -0.9228  0.0439 -0.4489
  918MOL0     C26573   6.797   9.363   0.292 -0.4674  0.6846  0.0154
  918MOL0     C26574   6.788   9.221   0.228 -0.3469 -0.3704 -0.6775
  918MOL0     C26575   6.920   9.430   0.309 -0.5574  0.7677 -0.7387
  918MOL0     C26576   7.059   9.376   0.273  0.0886  0.6371 -0.2294
  918MOL0     O26577   7.164   9.433   0.325 -0.0716 -0.3334 -1.0319
  918MOL0     C26578   7.274   9.458   0.239  0.6945 -0.0491 -0.3806
  918MOL0     C26579   7.351   9.361   0.177 -0.6702 -0.0044  0.0029
  918MOL0     C26580   7.455   9.396   0.087  0.1058  0.1901 -0.5409
  918MOL0     C26581   7.488   9.527   0.066 -0.2663 -1.0248  0.3742
  918MOL0     O26582   7.590   9.568  -0.021 -0.8183 -0.2374 -0.2871
  918MOL0     C26583   7.671   9.674   0.028 -0.0448 -0.0232 -0.0451
  918MOL0     C26584   7.787   9.725  -0.069 -0.3253 -0.6242  0.3083
  918MOL0     C26585   7.897   9.628  -0.065 -0.7152  0.9668 -0.4784
  918MOL0     C26586   7.992   9.641  -0.183 -0.5876 -1.0275  0.1626
  918MOL0     C26587   8.093   9.516  -0.193  1.0221 -0.7405  0.2104
  918MOL0     C26588   8.231   9.572  -0.222 -0.6339 -0.8694 -0.1797
  918MOL0     C26589   8.335   9.468  -0.263 -0.0417  0.3767 -0.5424
  918MOL0     C26590   8.457   9.545  -0.320 -0.8534  0.1585 -0.7126
  918MOL0    Cl26591   8.531   9.652  -0.200  0.2619 -0.0038  0.1674
  918MOL0     C26592   7.412   9.617   0.131 -0.4247 -0.5334 -0.4959
  918MOL0     C26593   7.306   9.584   0.213 -0.5707 -0.1394 -0.1043
  918MOL0     O26594   7.064   9.284   0.194  0.7392 -0.5410  0.2173
  918MOL0     C26595   6.904   9.551   0.379  0.8943 -0.0410 -0.2946
  918MOL0     C26596   6.783   9.609   0.416 -0.5969  0.4209  0.9710
  918MOL0     N26597   6.207   9.981   0.573  0.4818  0.4352  0.0371
  918MOL0     N26598   6.164  10.097   0.569  0.9270  0.0531 -0.2469
  918MOL0     C26599   4.974  10.181   1.076 -0.1658  0.3382  0.9958
  918MOL0     C26600   4.854  10.155   1.138 -0.2840 -0.3006  0.1646
  918MOL0     C26601   4.431  10.054   1.209 -0.2538 -0.7966  1.0181
  918MOL0     C26602   4.422   9.943   1.283 -0.1488 -0.2424 -1.0198
  918MOL0     C26603   4.297   9.897   1.341  0.1887  0.9044  0.4852
  918MOL0     C26604   4.183   9.962   1.310  0.0421  0.0316  0.3288
  918MOL0     O26605   4.070   9.913   1.360  0.2249 -0.1279 -0.3192
  918MOL0     C26606   3.944   9.989   1.340 -0.3055 -0.3378  0.2762
  918MOL0     C26607   3.820   9.917   1.398 -0.9486 -0.5681  0.2288
  918MOL0     C26608   3.825   9.904   1.552  0.1944  0.2861  0.1917
  918MOL0     C26609   3.704   9.833   1.607  0.0071  0.4850 -0.1911
  918MOL0     C26610   3.708   9.824   1.753  0.0181  0.8321 -0.8978
  918MOL0     C26611   3.712   9.824   1.878  0.4576  0.0927  0.9361
  918MOL0     C26612   4.188  10.074   1.242  0.2213 -1.0259 -0.8528
  918MOL0     C26613   4.307  10.125   1.192  0.1107 -0.2268  0.4577
  918MOL0     C26614   4.299  10.259   1.117  0.3656 -0.6249 -0.3470
  918MOL0     H26615   4.792   9.842   1.018  1.1302 -0.5230 -3.0349
  918MOL0     H26616   4.994   9.887   0.899 -1.3427  2.5257 -1.7571
  918MOL0     H26617   5.209   9.942   0.846 -1.4519 -0.5614  0.7053
  918MOL0     H26618   5.272   9.969   1.009  2.9680  1.1595 -1.0610
  918MOL0     H26619   5.340  10.109   0.756  1.7586 -4.2424 -2.3921
  918MOL0     H26620   5.410  10.154   0.912 -2.2205 -0.3200  2.4370
  918MOL0     H26621   5.529   9.926   0.923 -0.9722 -1.0568  0.2198
  918MOL0     H26622   5.454   9.884   0.772  1.2672 -2.4324  2.7170
  918MOL0     H26623   5.652  10.115   0.822  2.5555 -0.2010 -1.2767
  918MOL0     H26624   5.686   9.958   0.772 -0.5870  0.3535 -1.9042
  918MOL0     H26625   5.515  10.162   0.615 -0.2730  0.6520 -0.9972
  918MOL0     H26626   5.524   9.995   0.571  0.8305 -0.5289 -0.9223
  918MOL0     H26627   5.748   9.990   0.536 -3.1867 -0.9366 -0.1387
  918MOL0     H26628   5.678  10.115   0.432 -0.0000 -1.1102  0.1428
  918MOL0     H26629   5.834  10.159   0.690  1.3880 -1.5086 -0.7269
  918MOL0     H26630   5.750  10.290   0.605 -0.8878  0.8565 -4.3925
  918MOL0     H26631   5.927  10.220   0.406  0.4806  0.6195  0.1085
  918MOL0     H26632   5.987  10.307   0.550 -0.4832  0.0887  1.0878
  918MOL0     H26633   5.912   9.927   0.436 -0.5723 -0.2767  0.8938
  918MOL0     H26634   6.044   9.695   0.497 -1.2655 -0.1626  1.6208
  918MOL0     H26635   6.185   9.710   0.599  0.7644 -1.7298 -0.4948
  918MOL0     H26636   6.228   9.584   0.396 -1.7165 -0.6859  0.1707
  918MOL0     H26637   6.199   9.720   0.306 -1.5847  0.1444  1.2029
  918MOL0     H26638   6.398   9.839   0.387  0.7444 -0.5325 -2.3822
  918MOL0     H26639   6.403   9.733   0.533 -4.5623  0.6754  0.8247
  918MOL0     H26640   6.443   9.604   0.276  0.1600  0.4381 -1.0562
  918MOL0     H26641   6.560   9.724   0.317  1.2732 -1.9000 -1.1062
  918MOL0     H26642   6.579   9.351   0.305 -0.8813 -0.5667  0.3446
  918MOL0     H26643   6.704   9.152   0.238  0.3289 -1.1336 -0.2271
  918MOL0     H26644   6.868   9.156   0.264 -1.0651 -2.1493 -2.1292
  918MOL0     H26645   6.821   9.243   0.126  3.9726  0.2093  0.6399
  918MOL0     H26646   7.322   9.258   0.197  0.1302 -0.0359  1.0653
  918MOL0     H26647   7.530   9.326   0.049 -0.2884 -1.0097  0.7949
  918MOL0     H26648   7.618   9.767   0.051  1.0645  1.4347 -2.8942
  918MOL0     H26649   7.721   9.627   0.114 -1.3989  0.8938  1.2737
  918MOL0     H26650   7.745   9.721  -0.171 -0.9919 -0.0851  0.5499
  918MOL0     H26651   7.819   9.830  -0.061 -0.7070 -0.2285 -2.2554
  918MOL0     H26652   7.857   9.526  -0.065  2.0936 -0.2141 -0.8448
  918MOL0     H26653   7.951   9.640   0.029 -0.6643  2.0549 -0.6381
  918MOL0     H26654   8.048   9.734  -0.182  0.3614 -1.5707 -0.5035
  918MOL0     H26655   7.926   9.639  -0.271  1.1119  0.2925 -1.2024
  918MOL0     H26656   8.092   9.456  -0.102  4.2450 -0.0186  0.8574
  918MOL0     H26657   8.054   9.454  -0.274 -0.3721 -0.9403  1.0009
  918MOL0     H26658   8.264   9.618  -0.129 -0.9810  0.1725 -0.5560
  918MOL0     H26659   8.228   9.645  -0.303  1.4488 -1.4871 -0.8768
  918MOL0     H26660   8.304   9.390  -0.333  3.9712 -1.7509 -0.2619
  918MOL0     H26661   8.368   9.407  -0.178 -1.4726 -1.0458 -0.9588
  918MOL0     H26662   8.425   9.614  -0.399  1.1882 -1.5405 -3.1475
  918MOL0     H26663   8.540   9.490  -0.363  1.1307  2.5722 -0.2041
  918MOL0     H26664   7.431   9.724   0.131  0.1110 -0.4622  3.8643
  918MOL0     H26665   7.241   9.661   0.253 -2.1877 -1.8270  0.6390
  918MOL0     H26666   6.994   9.609   0.395  0.0000  1.1785  0.4074
  918MOL0     H26667   6.777   9.712   0.451  2.0740  0.6280  1.0139
  918MOL0     H26668   5.022  10.275   1.098 -1.2115  0.8717  1.0885
  918MOL0     H26669   4.811  10.221   1.212 -0.3755 -1.0539  0.8025
  918MOL0     H26670   4.510   9.886   1.313 -1.0200  0.0231  2.5108
  918MOL0     H26671   4.304   9.811   1.406  1.8499  0.5714 -0.0696
  918MOL0     H26672   3.959  10.086   1.389  0.2864  0.2852 -1.0885
  918MOL0     H26673   3.934  10.001   1.232 -2.3951  0.9738  0.5680
  918MOL0     H26674   3.819   9.819   1.351 -1.9223  0.3854 -1.8681
  918MOL0     H26675   3.724   9.960   1.369 -1.6373 -2.4277 -0.3810
  918MOL0     H26676   3.912   9.845   1.583  0.8469  2.4813  2.8809
  918MOL0     H26677   3.838  10.000   1.602  1.6034  0.1773  0.0759
  918MOL0     H26678   3.697   9.731   1.568 -2.4012  0.2413  0.7110
  918MOL0     H26679   3.607   9.878   1.584 -0.1628  0.3884  0.3219
  918MOL0     H26680   3.704   9.825   1.985 -2.0265 -1.0853  0.8374
  918MOL0     H26681   4.099  10.136   1.236 -1.0578 -2.7590 -0.7103
  918MOL0     H26682   4.382  10.329   1.129 -0.5665  0.7890 -1.6900
  918MOL0     H26683   4.283  10.236   1.011 -0.4725 -0.8033 -0.1859
  918MOL0     H26684   4.204  10.303   1.148  0.7713 -0.8230  1.2516
  919MOL0     O26685   7.832   6.079   7.072 -0.2989  0.7728 -0.5595
  919MOL0     C26686   7.870   5.992   6.997 -1.4035 -0.6367 -0.8037
  919MOL0     O26687   7.993   5.932   7.021  0.2714 -0.0491  0.0540
  919MOL0     C26688   8.106   5.985   7.074  0.3431 -0.3998 -0.1860
  919MOL0     C26689   8.200   5.904   7.135 -0.7001  0.0994 -0.0473
  919MOL0     C26690   8.323   5.956   7.189  0.6364  0.3577 -0.3724
  919MOL0     C26691   8.350   6.090   7.168  0.1707 -0.3997  0.1813
  919MOL0     O26692   8.471   6.142   7.203  0.4460 -0.6313 -0.3594
  919MOL0     C26693   8.533   6.087   7.319 -0.2742 -0.4220 -0.0497
  919MOL0     C26694   8.644   6.185   7.357 -0.4022 -0.3316 -0.9005
  919MOL0     C26695   8.705   6.161   7.494 -0.5092 -0.8199  0.1118
  919MOL0     C26696   8.857   6.171   7.490 -0.2796  0.4207  0.3091
  919MOL0     C26697   8.910   6.231   7.624 -0.2593  0.2973 -0.0831
  919MOL0     C26698   8.901   6.132   7.741  0.3991  0.3075 -0.0240
  919MOL0     C26699   8.955   6.196   7.873  0.0986  0.3811  0.1281
  919MOL0     C26700   8.895   6.162   8.011 -0.1445 -0.5912 -0.0636
  919MOL0     N26701   8.961   6.245   8.121  1.3560  0.1963 -0.5404
  919MOL0     C26702   9.065   6.186   8.182 -0.5129  0.7082  0.1110
  919MOL0     C26703   9.101   6.276   8.276  0.6953  0.0710  0.1641
  919MOL0     C26704   9.208   6.266   8.381  0.6533  0.3856  0.2251
  919MOL0     C26705   9.338   6.334   8.332  0.1429 -0.6983 -0.3668
  919MOL0     C26706   9.452   6.329   8.430  1.2055  0.0714 -0.4579
  919MOL0     C26707   9.586   6.341   8.361 -0.6066  0.7220  0.7613
  919MOL0     O26708   9.600   6.230   8.255  0.6006 -0.2369  0.1688
  919MOL0     C26709   9.717   6.216   8.193 -1.4290  0.4545 -0.0460
  919MOL0     C26710   9.733   6.103   8.115 -0.5388  0.4375  0.3748
  919MOL0     C26711   9.858   6.073   8.045  0.0791  0.0384 -0.1025
  919MOL0     C26712   9.881   5.940   7.982 -0.2897  0.1814  0.5380
  919MOL0     C26713   9.956   6.174   8.042 -1.1213 -0.0370 -0.3684
  919MOL0     C26714  10.082   6.186   7.957  0.5506  0.3416 -0.4676
  919MOL0     O26715  10.171   6.280   7.993 -0.7529 -0.4450 -0.2680
  919MOL0     C26716  10.268   6.314   7.906 -0.2216  0.2048 -0.3742
  919MOL0     C26717  10.242   6.391   7.794  0.3486 -0.3580  0.9341
  919MOL0     C26718  10.341   6.420   7.704 -0.3743 -0.0123 -0.1146
  919MOL0     C26719  10.474   6.390   7.724  0.1365  0.3806 -0.2061
  919MOL0     O26720  10.587   6.441   7.659 -0.3888 -0.3714 -0.1866
  919MOL0     C26721  10.577   6.500   7.532 -0.1553 -0.4212  0.5601
  919MOL0     C26722  10.704   6.454   7.464  0.2689 -0.4790  0.0622
  919MOL0     C26723  10.720   6.509   7.316 -0.5153 -0.0203 -0.1094
  919MOL0     C26724  10.860   6.467   7.276 -0.0225 -0.2554  0.3709
  919MOL0     C26725  10.875   6.525   7.134 -0.2225 -0.3224  0.6057
  919MOL0     C26726  11.007   6.472   7.070  0.1484 -0.2362 -0.7784
  919MOL0     C26727  11.143   6.495   7.132 -0.8912  0.2432  0.3516
  919MOL0     C26728  11.245   6.387   7.081  0.1621  0.3871 -0.0996
  919MOL0    Cl26729  11.398   6.397   7.152 -0.6687  0.0838 -0.2209
  919MOL0     C26730  10.497   6.310   7.833 -0.2588 -1.2691 -0.0976
  919MOL0     C26731  10.399   6.274   7.927 -0.8044 -1.0765  0.0652
  919MOL0     O26732  10.087   6.099   7.867 -0.4221  0.3589  0.3089
  919MOL0     C26733   9.934   6.297   8.114 -0.2159 -0.5652  0.0054
  919MOL0     C26734   9.816   6.316   8.187 -0.0833 -0.4376 -0.8982
  919MOL0     N26735   9.018   6.378   8.272  0.3436 -0.1797  0.3490
  919MOL0     N26736   8.928   6.364   8.177 -0.1353  0.2194 -0.1046
  919MOL0     C26737   8.261   6.177   7.108 -0.1910  0.0725 -0.0780
  919MOL0     C26738   8.137   6.124   7.068  0.0132  0.0570  0.2173
  919MOL0     C26739   7.802   5.965   6.872  0.0686  0.6948 -0.2054
  919MOL0     C26740   7.860   5.886   6.769 -0.3564  0.0987 -0.1572
  919MOL0     C26741   7.794   5.862   6.644  0.2241 -0.0269 -0.6541
  919MOL0     C26742   7.679   5.921   6.615  0.4528 -0.7465  0.0247
  919MOL0     O26743   7.623   5.889   6.494  0.2044  0.1686 -0.1799
  919MOL0     C26744   7.483   5.919   6.462 -0.0224  0.4944  0.3444
  919MOL0     C26745   7.442   5.854   6.322  0.1783 -0.2453 -0.3616
  919MOL0     C26746   7.524   5.903   6.209  0.4616 -0.0873  0.8499
  919MOL0     C26747   7.495   6.049   6.169 -0.9568 -0.4047 -0.4607
  919MOL0     C26748   7.565   6.067   6.043 -0.0159 -0.1497 -0.7761
  919MOL0     C26749   7.616   6.073   5.932  0.1711  0.2339 -0.9044
  919MOL0     C26750   7.623   6.009   6.711  0.4314 -1.0450 -0.2367
  919MOL0     C26751   7.676   6.025   6.836 -0.1516  0.0655  0.0359
  919MOL0     C26752   7.599   6.110   6.936 -0.8970 -1.4999 -0.0494
  919MOL0     H26753   8.180   5.798   7.151 -0.5318  0.4531  2.9303
  919MOL0     H26754   8.401   5.900   7.238  2.8317  2.1822 -1.6095
  919MOL0     H26755   8.579   5.987   7.316 -0.6321 -0.5745 -2.3647
  919MOL0     H26756   8.459   6.080   7.399  0.1834  0.1216  0.4282
  919MOL0     H26757   8.724   6.165   7.286  1.7894 -0.3085  1.3894
  919MOL0     H26758   8.612   6.289   7.345 -4.2693 -1.1787  0.5448
  919MOL0     H26759   8.676   6.231   7.574  1.5723  1.7192 -1.1906
  919MOL0     H26760   8.672   6.061   7.523 -1.2196 -0.7442 -0.4340
  919MOL0     H26761   8.895   6.070   7.472  4.1141  1.7816  0.7527
  919MOL0     H26762   8.893   6.220   7.399  1.8663 -0.0575  0.8401
  919MOL0     H26763   8.856   6.324   7.645  0.3220  0.5195  0.4331
  919MOL0     H26764   9.016   6.259   7.620 -0.8166  3.3068  2.1449
  919MOL0     H26765   8.804   6.090   7.769  0.9375 -0.6393  0.4683
  919MOL0     H26766   8.955   6.040   7.718  1.5571  0.9078  0.2585
  919MOL0     H26767   8.963   6.304   7.857 -1.4175  0.3925 -0.7234
  919MOL0     H26768   9.060   6.165   7.882  0.1809  0.7772  0.5938
  919MOL0     H26769   8.788   6.184   8.003  0.1160 -0.0138 -2.5000
  919MOL0     H26770   8.902   6.056   8.037  1.5326 -0.3447  0.6098
  919MOL0     H26771   9.115   6.093   8.156 -1.6685 -0.2110  1.0050
  919MOL0     H26772   9.234   6.162   8.400 -2.6505 -0.5327  0.3161
  919MOL0     H26773   9.170   6.290   8.481 -0.9156 -0.6694 -0.0846
  919MOL0     H26774   9.380   6.312   8.233  0.0137  0.9070 -0.8189
  919MOL0     H26775   9.320   6.442   8.325  1.0935 -0.5903 -1.6524
  919MOL0     H26776   9.437   6.410   8.502 -0.1888 -0.4318 -0.1350
  919MOL0     H26777   9.448   6.235   8.486  1.2577  1.4868  2.0847
  919MOL0     H26778   9.601   6.443   8.327 -0.6112  0.0932 -1.2417
  919MOL0     H26779   9.665   6.324   8.434 -0.6962 -1.8169  0.3534
  919MOL0     H26780   9.649   6.035   8.110 -0.0592 -0.1541  0.1190
  919MOL0     H26781   9.834   5.868   8.050 -0.0892  0.5713  1.0995
  919MOL0     H26782   9.988   5.918   7.979 -0.3534  0.0353 -1.5120
  919MOL0     H26783   9.835   5.935   7.883 -0.9082  1.6791  0.7279
  919MOL0     H26784  10.146   6.432   7.763  2.0671  3.1934 -0.1540
  919MOL0     H26785  10.322   6.492   7.624  5.2080  1.9490 -0.0545
  919MOL0     H26786  10.491   6.466   7.474  0.3667 -0.1133 -0.4273
  919MOL0     H26787  10.579   6.609   7.535  2.0308 -0.3724 -0.2966
  919MOL0     H26788  10.779   6.495   7.532 -0.5571  1.3246 -0.0753
  919MOL0     H26789  10.710   6.344   7.469  2.5340 -0.3527  1.6456
  919MOL0     H26790  10.698   6.616   7.311  1.6250  0.4144 -1.6783
  919MOL0     H26791  10.650   6.456   7.252  1.3136 -0.7392 -1.6007
  919MOL0     H26792  10.882   6.360   7.287  0.5552 -0.0447  1.4265
  919MOL0     H26793  10.935   6.518   7.337  1.8506  1.3787 -3.0142
  919MOL0     H26794  10.793   6.494   7.068  0.8174 -0.8838 -0.4676
  919MOL0     H26795  10.875   6.634   7.142 -0.5556 -0.0106 -2.4528
  919MOL0     H26796  11.015   6.510   6.967  2.5697  0.5882 -0.3644
  919MOL0     H26797  11.002   6.364   7.052 -0.7466  0.0068 -2.0919
  919MOL0     H26798  11.143   6.482   7.241  4.3184 -0.0770  0.5614
  919MOL0     H26799  11.178   6.596   7.112  0.3489 -0.2728 -0.1824
  919MOL0     H26800  11.247   6.401   6.973  0.0937  2.3839  0.1326
  919MOL0     H26801  11.204   6.290   7.110  0.5902 -0.0134 -0.7921
  919MOL0     H26802  10.600   6.293   7.865 -0.0740 -0.9802 -0.5297
  919MOL0     H26803  10.429   6.217   8.014 -0.5998 -1.5199 -0.2913
  919MOL0     H26804   9.995   6.386   8.102 -0.9275  0.1307  1.3237
  919MOL0     H26805   9.821   6.412   8.238  0.4688 -1.2022  0.5493
  919MOL0     H26806   8.297   6.278   7.092  0.5916  0.0407  1.3139
  919MOL0     H26807   8.070   6.194   7.019 -1.2278  0.4833  2.4124
  919MOL0     H26808   7.961   5.847   6.780  0.8137  3.1221  0.9289
  919MOL0     H26809   7.855   5.813   6.569 -0.6304  0.9450 -2.0194
  919MOL0     H26810   7.420   5.876   6.541 -1.4340  0.5506 -0.6988
  919MOL0     H26811   7.458   6.026   6.461  0.2952  0.5660 -0.0792
  919MOL0     H26812   7.335   5.872   6.308 -1.0804 -1.7687  4.8366
  919MOL0     H26813   7.459   5.747   6.337  0.7793  0.1781  2.8554
  919MOL0     H26814   7.632   5.896   6.220  1.0279  0.7794 -2.9512
  919MOL0     H26815   7.510   5.833   6.126 -0.3455 -1.1712  1.8501
  919MOL0     H26816   7.544   6.110   6.245  0.4832 -1.5547 -0.4203
  919MOL0     H26817   7.389   6.077   6.168 -0.6825  0.8637  1.4435
  919MOL0     H26818   7.661   6.081   5.835  3.1088  1.8595  0.4841
  919MOL0     H26819   7.530   6.062   6.695  1.6498  1.9939  1.8461
  919MOL0     H26820   7.594   6.062   7.034  0.4869  1.4075  1.5949
  919MOL0     H26821   7.657   6.202   6.950 -2.6309 -0.3592 -0.1171
  919MOL0     H26822   7.497   6.134   6.906 -0.9134 -1.2489  0.1990
  920MOL0     O26823   5.274   6.141  10.724 -0.3282  0.0799 -0.5021
  920MOL0     C26824   5.189   6.060  10.743 -0.3711  0.0952  0.3927
  920MOL0     O26825   5.197   5.936  10.695 -0.5110  0.8916 -0.0895
  920MOL0     C26826   5.313   5.898  10.630  0.0654  0.1001  0.4236
  920MOL0     C26827   5.431   5.873  10.704  0.0895 -0.0929  0.4711
  920MOL0     C26828   5.543   5.840  10.633  0.1850  0.4983 -0.0232
  920MOL0     C26829   5.537   5.839  10.490 -0.5836  0.7976  0.2055
  920MOL0     O26830   5.652   5.814  10.415 -0.0191 -0.5219 -0.7939
  920MOL0     C26831   5.788   5.801  10.474  0.1552  0.0250 -0.5500
  920MOL0     C26832   5.814   5.648  10.517 -0.4013 -0.8802  0.2644
  920MOL0     C26833   5.956   5.638  10.586  0.0653 -0.6420  0.2841
  920MOL0     C26834   5.994   5.490  10.602 -0.2129  0.1253 -0.1906
  920MOL0     C26835   6.121   5.476  10.696 -0.5551  0.4288  0.9199
  920MOL0     C26836   6.094   5.518  10.838  0.8584 -0.2302 -0.5682
  920MOL0     C26837   6.191   5.460  10.941  0.0493 -0.0016  0.3365
  920MOL0     C26838   6.339   5.506  10.907  0.1816  0.7830  1.2242
  920MOL0     N26839   6.420   5.514  11.029  0.7806  0.1517 -0.5262
  920MOL0     C26840   6.524   5.436  11.066 -0.5651 -0.0076  0.3787
  920MOL0     C26841   6.557   5.475  11.191 -0.1199  0.5336 -0.0161
  920MOL0     C26842   6.674   5.405  11.261 -0.2819  0.2795  1.1237
  920MOL0     C26843   6.811   5.454  11.206  0.1973 -0.1848  0.1329
  920MOL0     C26844   6.935   5.363  11.240  0.5186  0.5777  0.0780
  920MOL0     C26845   6.945   5.351  11.396  0.8556  0.4820  0.3800
  920MOL0     O26846   6.971   5.485  11.451  0.0941 -0.0660 -0.0636
  920MOL0     C26847   7.088   5.552  11.456 -0.5884  1.0543 -0.3183
  920MOL0     C26848   7.090   5.674  11.508 -0.1689 -0.2039  0.7415
  920MOL0     C26849   7.215   5.738  11.529  1.1584 -0.1532 -0.8863
  920MOL0     C26850   7.223   5.869  11.600  0.0896 -0.2042 -0.0957
  920MOL0     C26851   7.339   5.666  11.504  0.2340 -0.4117  0.6884
  920MOL0     C26852   7.477   5.725  11.517 -0.5732 -0.1130  0.1906
  920MOL0     O26853   7.502   5.851  11.466  0.3571 -0.3172  0.8239
  920MOL0     C26854   7.623   5.913  11.477 -0.5733 -0.3358  0.6478
  920MOL0     C26855   7.681   5.955  11.603  0.6933  0.3327 -0.3610
  920MOL0     C26856   7.795   6.039  11.612 -0.3740  0.5198  0.2226
  920MOL0     C26857   7.857   6.074  11.492 -0.1205 -0.0809  0.6965
  920MOL0     O26858   7.968   6.159  11.507 -0.3205  0.5094  0.1295
  920MOL0     C26859   8.023   6.228  11.394 -0.5276  0.7093 -0.4557
  920MOL0     C26860   8.143   6.317  11.430 -0.0354 -0.6528  0.1886
  920MOL0     C26861   8.189   6.407  11.314 -0.2786 -0.8000 -0.4417
  920MOL0     C26862   8.306   6.494  11.367 -0.0101 -0.5366  0.0855
  920MOL0     C26863   8.344   6.592  11.250  0.5746  0.3134  0.0579
  920MOL0     C26864   8.453   6.684  11.298  0.2407 -0.5947 -0.1819
  920MOL0     C26865   8.493   6.779  11.172 -0.4582 -0.1106 -0.5486
  920MOL0     C26866   8.574   6.893  11.230  0.3982  0.0257 -0.0731
  920MOL0    Cl26867   8.713   6.824  11.341  0.0603  0.0327 -0.1697
  920MOL0     C26868   7.808   6.037  11.368  0.5000 -0.8851 -0.3941
  920MOL0     C26869   7.692   5.955  11.355 -0.5617  0.7132 -0.5343
  920MOL0     O26870   7.562   5.659  11.581 -0.1068 -0.0383  0.0583
  920MOL0     C26871   7.330   5.540  11.450 -0.1251  0.3478 -0.4045
  920MOL0     C26872   7.202   5.484  11.421 -0.9606  1.1282  0.3058
  920MOL0     N26873   6.461   5.569  11.229  0.2616  0.4966 -0.2231
  920MOL0     N26874   6.375   5.591  11.136  0.2056 -0.1338  0.4945
  920MOL0     C26875   5.425   5.879  10.416 -0.2832 -0.2431  0.0933
  920MOL0     C26876   5.311   5.909  10.485  0.0670  0.4964  0.2424
  920MOL0     C26877   5.061   6.106  10.811  0.6626 -0.4198  0.6123
  920MOL0     C26878   4.942   6.057  10.759  0.5153 -0.0462 -0.7883
  920MOL0     C26879   4.810   6.080  10.809 -0.6015  0.3056 -0.1217
  920MOL0     C26880   4.802   6.148  10.931 -0.2969  0.5899 -0.2288
  920MOL0     O26881   4.686   6.141  10.998 -0.1499  0.7357 -0.9170
  920MOL0     C26882   4.671   6.180  11.135  0.6296  0.0756 -0.5003
  920MOL0     C26883   4.531   6.147  11.181 -0.3787  0.3665  0.4410
  920MOL0     C26884   4.435   6.255  11.167  0.3258 -0.2820 -0.3560
  920MOL0     C26885   4.301   6.187  11.200  1.4706 -0.1527 -0.2929
  920MOL0     C26886   4.196   6.293  11.189  0.9554  1.3005  0.2943
  920MOL0     C26887   4.106   6.374  11.181 -0.9004  0.1507  0.3447
  920MOL0     C26888   4.912   6.194  10.999  0.6622  0.3559  0.3823
  920MOL0     C26889   5.042   6.171  10.938 -0.4998  0.8251 -0.5986
  920MOL0     C26890   5.157   6.225  11.014  0.3112 -0.2022 -0.2726
  920MOL0     H26891   5.437   5.878  10.812  0.1717  0.7682  0.4354
  920MOL0     H26892   5.625   5.810  10.697 -0.2569 -1.1834 -0.1874
  920MOL0     H26893   5.799   5.868  10.560 -0.9692 -0.7499  0.2357
  920MOL0     H26894   5.861   5.825  10.397  3.1285 -2.0424  1.4167
  920MOL0     H26895   5.728   5.631  10.582  0.0401  1.5881  1.6002
  920MOL0     H26896   5.816   5.587  10.426 -0.8745  1.9374 -1.7582
  920MOL0     H26897   6.033   5.693  10.531 -1.4276 -0.1681 -1.4376
  920MOL0     H26898   5.939   5.687  10.682 -2.5353 -2.2331  0.7177
  920MOL0     H26899   5.920   5.444  10.668  0.9338 -1.9260 -0.2752
  920MOL0     H26900   6.001   5.439  10.505  2.3655 -0.3987  0.1978
  920MOL0     H26901   6.206   5.529  10.652  1.0554 -1.3267  1.7480
  920MOL0     H26902   6.153   5.371  10.699 -0.0991  0.5373  0.1681
  920MOL0     H26903   6.084   5.626  10.853  1.2192 -0.4057  1.1519
  920MOL0     H26904   5.993   5.481  10.858  0.4287  1.3669  0.3733
  920MOL0     H26905   6.175   5.352  10.939 -1.5389  0.1001  2.6768
  920MOL0     H26906   6.159   5.483  11.043  1.1314 -1.8021  1.1314
  920MOL0     H26907   6.385   5.430  10.843  2.2735  0.4902  2.9223
  920MOL0     H26908   6.328   5.602  10.858 -1.4667 -0.1883 -0.4249
  920MOL0     H26909   6.575   5.359  11.009 -1.5749 -1.3121  1.1779
  920MOL0     H26910   6.671   5.297  11.244 -0.7420  0.4609  0.0022
  920MOL0     H26911   6.662   5.406  11.370 -0.3484 -1.1816  1.1553
  920MOL0     H26912   6.796   5.469  11.098 -0.5962  1.9883  0.4905
  920MOL0     H26913   6.831   5.549  11.255 -1.8744  1.0437 -1.2348
  920MOL0     H26914   6.919   5.267  11.191 -0.2003  1.1163 -0.7629
  920MOL0     H26915   7.026   5.408  11.199  0.5188 -1.4589 -2.3903
  920MOL0     H26916   6.856   5.299  11.432 -0.4593  2.0565 -0.4730
  920MOL0     H26917   7.033   5.289  11.418  0.9696  0.5916  0.2424
  920MOL0     H26918   6.998   5.718  11.544 -1.0364 -0.3278 -1.2033
  920MOL0     H26919   7.237   5.950  11.528  2.2874  0.7855  1.3095
  920MOL0     H26920   7.309   5.893  11.664  0.7368  2.1379 -1.7301
  920MOL0     H26921   7.133   5.887  11.660  0.6691  2.6832  0.0212
  920MOL0     H26922   7.629   5.930  11.695  0.0627  2.1297 -0.1898
  920MOL0     H26923   7.845   6.078  11.700  1.4974  2.6897 -1.6790
  920MOL0     H26924   8.052   6.142  11.333 -0.5684 -0.9434  1.7055
  920MOL0     H26925   7.938   6.283  11.353 -1.5115 -1.6747 -1.7834
  920MOL0     H26926   8.115   6.381  11.514  0.6491  0.4234 -0.3705
  920MOL0     H26927   8.230   6.258  11.462 -1.0837 -1.6258  1.3542
  920MOL0     H26928   8.106   6.470  11.278  0.0020  0.9702  1.7633
  920MOL0     H26929   8.233   6.341  11.239  4.5089  1.0651  0.4131
  920MOL0     H26930   8.394   6.432  11.384  1.3956  0.2636 -3.3755
  920MOL0     H26931   8.282   6.545  11.461 -0.9367 -0.9513  0.0854
  920MOL0     H26932   8.371   6.527  11.167  1.3664  0.3524  0.2704
  920MOL0     H26933   8.259   6.652  11.217  0.4874 -0.7797 -1.8181
  920MOL0     H26934   8.537   6.619  11.326 -1.2824 -2.3641  0.4434
  920MOL0     H26935   8.414   6.734  11.387  0.4236 -0.1066 -0.3744
  920MOL0     H26936   8.401   6.817  11.126 -0.0317  1.9076  0.1893
  920MOL0     H26937   8.552   6.728  11.096  1.3090 -0.3498  0.9267
  920MOL0     H26938   8.516   6.947  11.305  1.1331  1.6762 -0.6352
  920MOL0     H26939   8.616   6.958  11.153  2.4015 -0.5440  0.4692
  920MOL0     H26940   7.840   6.077  11.272  0.0573  0.5861  0.0555
  920MOL0     H26941   7.647   5.934  11.258  0.9193  0.9177 -1.3083
  920MOL0     H26942   7.422   5.486  11.432  0.5218 -0.4522  3.9924
  920MOL0     H26943   7.202   5.383  11.382 -1.6274  1.5236 -0.7408
  920MOL0     H26944   5.425   5.873  10.308 -0.8210  0.2245  0.0625
  920MOL0     H26945   5.217   5.931  10.436 -0.3428 -3.3510 -1.0887
  920MOL0     H26946   4.939   5.999  10.667 -1.7231  0.1493 -0.8853
  920MOL0     H26947   4.721   6.032  10.772 -1.0181 -0.2591  1.5015
  920MOL0     H26948   4.751   6.137  11.196  1.0884 -0.0930 -1.2051
  920MOL0     H26949   4.688   6.288  11.143 -0.4359  0.1103  2.2811
  920MOL0     H26950   4.529   6.109  11.284  0.8308 -0.0336  0.3394
  920MOL0     H26951   4.496   6.061  11.123  0.8879  1.9538 -2.9211
  920MOL0     H26952   4.463   6.342  11.227 -1.7903  0.7310 -0.7554
  920MOL0     H26953   4.438   6.287  11.062 -4.9551 -1.9093 -1.2897
  920MOL0     H26954   4.298   6.134  11.296 -1.4836  0.6272  0.1484
  920MOL0     H26955   4.281   6.106  11.130 -0.3369 -0.2873  0.3356
  920MOL0     H26956   4.015   6.427  11.158 -1.0718 -0.6090 -0.8200
  920MOL0     H26957   4.908   6.250  11.092  3.8880  0.9848  0.2703
  920MOL0     H26958   5.157   6.332  10.991  3.2008  0.6915  3.0894
  920MOL0     H26959   5.134   6.225  11.121 -2.3749 -4.1699 -0.6245
  920MOL0     H26960   5.252   6.186  10.978  1.1852  3.1804 -2.0673
  921MOL0     O26961   6.264   7.390   8.503  0.3327  0.4751  0.0004
  921MOL0     C26962   6.305   7.276   8.476  0.2143 -0.3528  0.1249
  921MOL0     O26963   6.234   7.157   8.482  0.3846 -0.3153 -0.9148
  921MOL0     C26964   6.107   7.173   8.526 -0.2065 -0.3180 -0.2935
  921MOL0     C26965   6.003   7.196   8.439 -0.5640  0.0485 -0.0916
  921MOL0     C26966   5.871   7.216   8.486 -0.1597  0.2994 -0.8014
  921MOL0     C26967   5.847   7.213   8.624  0.2231  0.6686  0.7079
  921MOL0     O26968   5.711   7.209   8.662 -0.7830  0.5008 -0.2669
  921MOL0     C26969   5.687   7.166   8.795 -0.0453 -0.1827  0.0881
  921MOL0     C26970   5.542   7.134   8.814  0.6594  0.2431 -0.1202
  921MOL0     C26971   5.495   7.112   8.953 -0.4041  0.6622  0.3038
  921MOL0     C26972   5.340   7.121   8.969 -0.0846  0.1452 -0.3344
  921MOL0     C26973   5.298   7.100   9.124 -0.6729 -0.7948 -0.4531
  921MOL0     C26974   5.159   7.149   9.161  0.4624 -0.4584  0.5096
  921MOL0     C26975   5.136   7.152   9.310 -0.0912  0.5657  0.3925
  921MOL0     C26976   5.131   7.302   9.346 -0.1195  0.8557 -0.5598
  921MOL0     N26977   5.260   7.378   9.336  0.7924  0.7094 -0.2004
  921MOL0     C26978   5.327   7.431   9.229 -0.7408 -0.9718  0.9409
  921MOL0     C26979   5.438   7.489   9.280  0.1999 -1.0074  0.3023
  921MOL0     C26980   5.535   7.591   9.208 -0.1065 -1.0195  0.1809
  921MOL0     C26981   5.626   7.514   9.120  0.1610  0.7760  0.2151
  921MOL0     C26982   5.743   7.597   9.067  0.5760 -0.7052 -0.7685
  921MOL0     C26983   5.839   7.527   8.962  0.0659 -0.1972  0.9904
  921MOL0     O26984   5.922   7.439   9.040  0.0494 -0.2913 -0.3328
  921MOL0     C26985   6.050   7.397   9.005 -0.3034  0.0966 -0.6874
  921MOL0     C26986   6.120   7.313   9.090 -0.5360 -0.1472  0.3365
  921MOL0     C26987   6.252   7.269   9.058  0.8538  0.3525  0.2971
  921MOL0     C26988   6.318   7.168   9.143 -0.5337 -0.2867 -1.2134
  921MOL0     C26989   6.314   7.317   8.938  0.9702  0.1859 -0.4983
  921MOL0     C26990   6.456   7.302   8.910 -0.7367  0.3290 -0.0748
  921MOL0     O26991   6.496   7.309   8.779 -0.4457 -0.3157 -0.0478
  921MOL0     C26992   6.630   7.290   8.756  0.6490 -1.3721  0.4276
  921MOL0     C26993   6.689   7.178   8.795 -0.0548 -0.7290  0.2794
  921MOL0     C26994   6.829   7.169   8.772 -0.0253  0.0998 -0.9191
  921MOL0     C26995   6.908   7.269   8.716  0.1582  0.2409 -0.0683
  921MOL0     O26996   7.042   7.256   8.710  0.7738  0.1171  0.1054
  921MOL0     C26997   7.113   7.371   8.696 -0.3064  0.3906  0.1327
  921MOL0     C26998   7.128   7.384   8.541 -0.0132 -0.8091  0.1424
  921MOL0     C26999   7.230   7.280   8.502 -0.0507  0.8365  0.3961
  921MOL0     C27000   7.268   7.306   8.352 -0.6922 -0.3462 -0.5104
  921MOL0     C27001   7.361   7.198   8.304 -0.8906 -0.2021  0.5626
  921MOL0     C27002   7.356   7.194   8.145 -0.1784  0.4205 -0.6617
  921MOL0     C27003   7.458   7.087   8.103  0.1013  0.2468 -0.1829
  921MOL0     C27004   7.500   7.094   7.956  0.0721  0.7071 -0.2523
  921MOL0    Cl27005   7.367   7.056   7.850  0.3074  0.2011  0.0024
  921MOL0     C27006   6.839   7.377   8.666 -0.3769  0.6481  0.4853
  921MOL0     C27007   6.698   7.383   8.684 -0.1077 -0.1186  0.0988
  921MOL0     O27008   6.529   7.293   9.008  0.3660  0.3171  0.1385
  921MOL0     C27009   6.240   7.395   8.852 -0.1730  0.6515  0.3958
  921MOL0     C27010   6.110   7.436   8.883  1.1045 -0.9556  0.2384
  921MOL0     N27011   5.433   7.479   9.417 -0.7604 -0.2858  0.0583
  921MOL0     N27012   5.329   7.411   9.451 -0.6291  0.2259  0.3824
  921MOL0     C27013   5.951   7.193   8.714  0.5614 -0.4444  0.2664
  921MOL0     C27014   6.075   7.176   8.661  0.0176 -0.2085 -0.4218
  921MOL0     C27015   6.454   7.259   8.449  0.2125 -0.0377  0.2706
  921MOL0     C27016   6.517   7.135   8.482 -0.4199 -0.2232 -0.7431
  921MOL0     C27017   6.645   7.115   8.454 -0.5102  0.6224  0.2781
  921MOL0     C27018   6.733   7.208   8.389 -0.0463 -0.2191  0.7812
  921MOL0     O27019   6.864   7.188   8.356 -0.5349 -0.0759  0.2051
  921MOL0     C27020   6.933   7.066   8.390 -0.0045  0.0904  1.0879
  921MOL0     C27021   6.931   6.954   8.283 -0.4996 -0.5371  0.4597
  921MOL0     C27022   6.964   6.817   8.343  0.6264 -0.3875  0.1369
  921MOL0     C27023   7.112   6.793   8.364 -0.5164  0.5543 -0.7329
  921MOL0     C27024   7.132   6.658   8.428  0.2800 -0.5734 -0.0112
  921MOL0     C27025   7.154   6.553   8.483  0.1743 -0.2023  0.1017
  921MOL0     C27026   6.672   7.326   8.346 -0.1332 -0.4283  0.1295
  921MOL0     C27027   6.537   7.358   8.378 -0.4372  0.4013 -0.8782
  921MOL0     C27028   6.473   7.482   8.331  1.0918  0.3143 -0.1037
  921MOL0     H27029   6.013   7.194   8.331  1.9641 -3.0611  0.0249
  921MOL0     H27030   5.791   7.212   8.412 -0.1203 -2.8163 -0.8266
  921MOL0     H27031   5.729   7.246   8.855 -3.3682  2.9214 -1.3399
  921MOL0     H27032   5.742   7.073   8.812 -0.8281 -0.6967 -0.1354
  921MOL0     H27033   5.488   7.226   8.788 -1.5135 -0.3866  1.8220
  921MOL0     H27034   5.521   7.041   8.760  1.6278 -0.5390  0.8066
  921MOL0     H27035   5.536   7.016   8.986  2.6485  1.6341 -0.3896
  921MOL0     H27036   5.535   7.192   9.016 -1.8140  3.0847 -1.6881
  921MOL0     H27037   5.309   7.220   8.934 -0.5800 -0.5751 -2.0203
  921MOL0     H27038   5.293   7.045   8.907  0.0365 -1.0163  0.9652
  921MOL0     H27039   5.381   7.148   9.176 -0.4779 -1.6522  0.0434
  921MOL0     H27040   5.302   6.993   9.148 -0.8384 -0.2564  2.2604
  921MOL0     H27041   5.136   7.235   9.099 -0.6928 -2.8601 -2.6831
  921MOL0     H27042   5.084   7.083   9.116 -1.9812  2.7727 -0.4972
  921MOL0     H27043   5.211   7.100   9.370  0.5911 -1.8325 -2.2791
  921MOL0     H27044   5.044   7.096   9.326 -0.4267  0.6129 -1.1878
  921MOL0     H27045   5.058   7.367   9.297  0.3122  1.6892 -0.1287
  921MOL0     H27046   5.093   7.312   9.448 -0.8256  3.1227 -0.9921
  921MOL0     H27047   5.299   7.425   9.124 -2.7264  0.7503  1.3134
  921MOL0     H27048   5.598   7.645   9.279 -0.4312  3.6105 -2.6129
  921MOL0     H27049   5.473   7.664   9.156  1.6597  1.6126  1.5649
  921MOL0     H27050   5.660   7.425   9.174 -0.4337 -0.1755 -0.9395
  921MOL0     H27051   5.571   7.489   9.029 -0.3272 -0.1680  0.7557
  921MOL0     H27052   5.697   7.682   9.015 -2.8114 -1.8747  0.0520
  921MOL0     H27053   5.803   7.635   9.150  1.2883  0.0265 -1.5922
  921MOL0     H27054   5.786   7.469   8.885  0.7937 -2.0234  1.8138
  921MOL0     H27055   5.888   7.607   8.906 -5.1527  2.2017 -0.7835
  921MOL0     H27056   6.084   7.267   9.182  4.1946 -2.3458  1.3870
  921MOL0     H27057   6.245   7.116   9.206  0.3270  0.5865  0.6124
  921MOL0     H27058   6.390   7.210   9.215 -0.0486 -1.8460 -0.7549
  921MOL0     H27059   6.378   7.104   9.078  1.0489 -0.4256  0.3026
  921MOL0     H27060   6.636   7.102   8.852 -1.8470  1.8791  2.3180
  921MOL0     H27061   6.888   7.083   8.800 -2.2809 -0.8135  1.4766
  921MOL0     H27062   7.066   7.454   8.751  0.4302  0.7501  0.2216
  921MOL0     H27063   7.211   7.359   8.741  0.1882 -2.9509 -1.5531
  921MOL0     H27064   7.042   7.358   8.477  0.0070 -0.5310  0.0025
  921MOL0     H27065   7.150   7.488   8.516 -0.8497 -1.1143 -2.2059
  921MOL0     H27066   7.194   7.178   8.519  2.8203 -0.3551  0.0143
  921MOL0     H27067   7.318   7.289   8.566 -1.5067  1.5536  2.3861
  921MOL0     H27068   7.298   7.408   8.327  0.8300  0.0142  2.4047
  921MOL0     H27069   7.174   7.298   8.296 -0.8074  1.2199 -0.5893
  921MOL0     H27070   7.462   7.214   8.341 -1.4513  0.4403  1.8814
  921MOL0     H27071   7.340   7.101   8.350 -1.6454 -0.6851 -0.7083
  921MOL0     H27072   7.385   7.290   8.101  1.6712 -0.6741 -2.0038
  921MOL0     H27073   7.258   7.164   8.107  0.1205  1.4447 -2.3247
  921MOL0     H27074   7.415   6.987   8.119  2.2535 -1.0922 -2.0464
  921MOL0     H27075   7.549   7.092   8.164  0.1586  0.9707 -0.3172
  921MOL0     H27076   7.575   7.021   7.927  0.6806  2.2048 -2.7212
  921MOL0     H27077   7.542   7.194   7.938  1.3031  0.0568 -1.1132
  921MOL0     H27078   6.890   7.462   8.622 -1.7118  0.1856 -2.2019
  921MOL0     H27079   6.646   7.472   8.649  0.4377  0.1850  0.0402
  921MOL0     H27080   6.281   7.411   8.754 -2.2974  0.5562 -0.5718
  921MOL0     H27081   6.046   7.489   8.814 -1.0858 -2.6611  0.8313
  921MOL0     H27082   5.938   7.191   8.822 -1.3035  1.7939  0.1480
  921MOL0     H27083   6.153   7.158   8.734 -0.4136  1.4609  0.5030
  921MOL0     H27084   6.464   7.066   8.547  0.0587 -0.2046 -0.3257
  921MOL0     H27085   6.691   7.021   8.485  0.5032  0.2886 -2.0106
  921MOL0     H27086   7.037   7.094   8.411  0.1003  0.3639  0.2363
  921MOL0     H27087   6.898   7.022   8.483  3.5278  1.2826  3.1971
  921MOL0     H27088   7.004   6.972   8.203 -0.8055 -0.2568  0.2394
  921MOL0     H27089   6.832   6.944   8.239  0.7487  1.8361 -3.3588
  921MOL0     H27090   6.909   6.810   8.437 -2.5194  0.5586 -1.4920
  921MOL0     H27091   6.920   6.744   8.274 -2.1240  2.0436 -0.8717
  921MOL0     H27092   7.151   6.868   8.433 -0.2550  0.3819 -0.6942
  921MOL0     H27093   7.172   6.801   8.273 -0.9750  1.2890 -0.9874
  921MOL0     H27094   7.172   6.456   8.526 -0.6126 -0.1678  0.5270
  921MOL0     H27095   6.737   7.401   8.303 -0.9408 -0.9468 -2.1481
  921MOL0     H27096   6.404   7.452   8.251 -1.7714  1.5055  1.7277
  921MOL0     H27097   6.419   7.526   8.416  0.4133 -0.9165  0.1282
  921MOL0     H27098   6.541   7.553   8.285 -0.4711  1.4928 -0.6947
  922MOL0     O27099   9.530   1.200   0.050 -0.0739  0.6509  0.2917
  922MOL0     C27100   9.592   1.240   0.141  0.4386 -0.7729 -0.9496
  922MOL0     O27101   9.727   1.247   0.153 -0.3652  0.0291  0.1229
  922MOL0     C27102   9.814   1.236   0.043 -0.6421  0.8542 -0.2373
  922MOL0     C27103   9.787   1.306  -0.083 -0.1334 -0.5038 -0.8238
  922MOL0     C27104   9.868   1.283  -0.194  0.2668 -1.2113  0.1783
  922MOL0     C27105   9.980   1.195  -0.183 -0.5107  0.3772 -0.3983
  922MOL0     O27106  10.068   1.197  -0.294 -0.4123 -0.3155 -0.6190
  922MOL0     C27107  10.177   1.102  -0.293 -0.1125 -0.0795 -0.9601
  922MOL0     C27108  10.272   1.127  -0.407 -0.0978 -0.3873  0.3266
  922MOL0     C27109  10.387   1.025  -0.411  0.4712 -1.0363  0.0220
  922MOL0     C27110  10.463   1.048  -0.544  0.0422  0.0231  0.3683
  922MOL0     C27111  10.600   0.982  -0.532  0.3084  0.5779 -0.1958
  922MOL0     C27112  10.656   0.944  -0.663 -0.1930 -0.0541  0.1153
  922MOL0     C27113  10.802   0.909  -0.649 -0.1674  0.2637 -0.1648
  922MOL0     C27114  10.832   0.759  -0.658  1.0530  0.8300  0.4497
  922MOL0     N27115  10.855   0.691  -0.530 -0.3079 -0.2145  0.1418
  922MOL0     C27116  10.976   0.716  -0.456 -0.0967  0.0933  0.3660
  922MOL0     C27117  10.966   0.623  -0.358  0.9166  0.6903 -0.3185
  922MOL0     C27118  11.080   0.603  -0.258 -0.3608  0.8027  0.0456
  922MOL0     C27119  11.048   0.522  -0.137 -0.3534  0.1063  0.0515
  922MOL0     C27120  11.132   0.551  -0.021 -0.0164  0.1948 -0.4627
  922MOL0     C27121  11.277   0.499  -0.055  0.5433  0.6954  0.5096
  922MOL0     O27122  11.329   0.461   0.074 -0.0858 -0.4599  0.8303
  922MOL0     C27123  11.463   0.495   0.097 -0.8954  0.3221  0.1081
  922MOL0     C27124  11.487   0.555   0.218  0.0994 -0.0989 -0.2422
  922MOL0     C27125  11.606   0.623   0.243 -0.4505 -0.4041  0.2105
  922MOL0     C27126  11.607   0.713   0.365  0.0340  0.0922  0.3651
  922MOL0     C27127  11.718   0.596   0.157  0.1397  0.5525  0.6489
  922MOL0     C27128  11.866   0.634   0.201  0.3570 -0.1959  0.8641
  922MOL0     O27129  11.962   0.579   0.117 -0.3329  0.4823  0.1820
  922MOL0     C27130  12.098   0.572   0.157  1.3056  0.0062 -0.1195
  922MOL0     C27131  12.153   0.585   0.285 -0.2421 -0.9728  0.1931
  922MOL0     C27132  12.289   0.565   0.303 -0.5700 -0.2231 -0.2899
  922MOL0     C27133  12.375   0.536   0.194 -0.3620 -0.3224  0.1755
  922MOL0     O27134  12.502   0.520   0.204  0.1114 -0.1434  0.3406
  922MOL0     C27135  12.561   0.399   0.155  0.4351 -0.6724  0.4877
  922MOL0     C27136  12.501   0.261   0.218 -0.7722 -1.1218 -0.1647
  922MOL0     C27137  12.500   0.285   0.368  0.5919  0.0470 -0.8457
  922MOL0     C27138  12.495   0.151   0.441 -0.4953 -0.2751  0.1169
  922MOL0     C27139  12.481   0.177   0.594  0.8025 -1.0373 -0.6017
  922MOL0     C27140  12.494   0.056   0.683  0.3043 -0.2597 -0.3097
  922MOL0     C27141  12.359  -0.009   0.696  0.1956  0.6347  0.4678
  922MOL0     C27142  12.370  -0.100   0.816 -0.2139  0.0402 -0.1095
  922MOL0    Cl27143  12.518  -0.203   0.803 -0.0011 -0.0836  0.3036
  922MOL0     C27144  12.324   0.528   0.063  0.2592  0.3218 -0.1995
  922MOL0     C27145  12.181   0.536   0.052 -0.5074 -0.2510  0.5971
  922MOL0     O27146  11.885   0.704   0.298 -0.0378 -0.2121  0.4080
  922MOL0     C27147  11.692   0.535   0.029  0.5559 -0.3611  0.0110
  922MOL0     C27148  11.566   0.483   0.004 -0.0667 -0.1257 -0.0049
  922MOL0     N27149  10.841   0.558  -0.363 -0.4101 -0.0335 -0.7358
  922MOL0     N27150  10.773   0.608  -0.463  0.2921  0.0617  0.1230
  922MOL0     C27151  10.014   1.127  -0.063  0.3271 -0.4337 -0.2137
  922MOL0     C27152   9.930   1.152   0.044  0.0096  0.0261  0.0464
  922MOL0     C27153   9.519   1.250   0.268 -1.1710  0.7391  1.4751
  922MOL0     C27154   9.376   1.244   0.253  0.7197  0.7344  0.2226
  922MOL0     C27155   9.292   1.273   0.357  0.0529  1.3339  0.1105
  922MOL0     C27156   9.338   1.283   0.486  0.1075 -1.1404  0.0522
  922MOL0     O27157   9.259   1.313   0.595  0.3898  0.4600 -0.9065
  922MOL0     C27158   9.119   1.325   0.591 -0.5701  0.4117 -0.1518
  922MOL0     C27159   9.056   1.185   0.610  0.8286 -0.7340  0.2600
  922MOL0     C27160   8.897   1.206   0.607  0.4229  0.3113  0.3718
  922MOL0     C27161   8.837   1.072   0.669 -0.3634 -0.3802  0.2510
  922MOL0     C27162   8.850   1.063   0.811 -0.1022  0.1800 -0.5920
  922MOL0     C27163   8.867   1.064   0.930  0.0020 -0.9943  0.0331
  922MOL0     C27164   9.475   1.287   0.507 -0.4543  0.4058  0.8470
  922MOL0     C27165   9.565   1.265   0.398  0.0400  0.2614  0.0509
  922MOL0     C27166   9.710   1.266   0.437 -0.1483  0.3702 -0.3639
  922MOL0     H27167   9.695   1.364  -0.081  0.9022  1.1696  0.1587
  922MOL0     H27168   9.829   1.328  -0.285 -1.1064  2.2750  2.2862
  922MOL0     H27169  10.128   1.004  -0.295  0.3337 -0.2992 -1.5054
  922MOL0     H27170  10.235   1.112  -0.201 -0.9655 -1.7385 -0.1925
  922MOL0     H27171  10.209   1.125  -0.497 -2.4063  0.6129  1.8362
  922MOL0     H27172  10.309   1.227  -0.386  2.8768 -1.2490 -0.3217
  922MOL0     H27173  10.446   1.033  -0.319  0.1716 -0.8276  0.1965
  922MOL0     H27174  10.352   0.922  -0.414  1.3029 -1.3262 -0.0683
  922MOL0     H27175  10.391   1.025  -0.623 -0.6101  2.7092  0.0706
  922MOL0     H27176  10.473   1.153  -0.574 -2.4794 -0.4340 -2.6040
  922MOL0     H27177  10.599   0.901  -0.459  1.8566  0.8330  0.1451
  922MOL0     H27178  10.660   1.066  -0.495  0.0877  1.5843 -1.9853
  922MOL0     H27179  10.596   0.860  -0.699  0.2414 -0.4279  0.2536
  922MOL0     H27180  10.635   1.033  -0.723  1.5235  0.6305  0.4754
  922MOL0     H27181  10.841   0.964  -0.562 -0.7111 -0.1966  0.3776
  922MOL0     H27182  10.857   0.954  -0.732 -0.0405  3.2128  1.3873
  922MOL0     H27183  10.741   0.707  -0.690  0.1569  1.3553  2.0385
  922MOL0     H27184  10.911   0.730  -0.728 -0.8628 -0.0371 -1.4688
  922MOL0     H27185  11.064   0.775  -0.480  1.1976 -2.4081 -1.5508
  922MOL0     H27186  11.095   0.703  -0.216 -1.5114  0.4407  1.4148
  922MOL0     H27187  11.168   0.564  -0.310 -0.9257 -0.0578 -0.2801
  922MOL0     H27188  10.945   0.540  -0.105 -1.4504 -2.8804 -1.3528
  922MOL0     H27189  11.050   0.416  -0.166  2.6717  0.9727 -3.7320
  922MOL0     H27190  11.137   0.655   0.013  0.6358 -1.4482  5.8096
  922MOL0     H27191  11.082   0.507   0.066 -2.9398 -1.2390 -2.7122
  922MOL0     H27192  11.276   0.415  -0.124 -3.5886  0.8711  0.0832
  922MOL0     H27193  11.333   0.580  -0.103  1.2751  0.2121  0.5326
  922MOL0     H27194  11.403   0.570   0.285  0.3211  0.7819 -0.1479
  922MOL0     H27195  11.655   0.671   0.453  1.6526 -1.1691 -1.0534
  922MOL0     H27196  11.502   0.720   0.397  0.8248 -1.0031  3.5160
  922MOL0     H27197  11.646   0.807   0.325 -1.3092  0.4974 -0.0671
  922MOL0     H27198  12.093   0.609   0.372 -0.2656 -0.4838  0.0458
  922MOL0     H27199  12.321   0.550   0.405 -3.5363  0.1697  0.7897
  922MOL0     H27200  12.556   0.393   0.046 -0.8571 -2.3153  0.6045
  922MOL0     H27201  12.668   0.406   0.177  0.2761 -0.4757  1.2246
  922MOL0     H27202  12.398   0.253   0.184 -1.3177  0.6450  0.9442
  922MOL0     H27203  12.560   0.172   0.193 -0.5725 -0.5412 -1.9087
  922MOL0     H27204  12.417   0.351   0.396  0.3365  0.4317 -2.4272
  922MOL0     H27205  12.586   0.338   0.409 -1.0654  1.6110  0.8119
  922MOL0     H27206  12.593   0.104   0.431 -1.3661 -2.2117  0.1984
  922MOL0     H27207  12.417   0.081   0.409  0.4540 -1.3868  0.1825
  922MOL0     H27208  12.557   0.249   0.626  1.4445 -0.6577 -2.7877
  922MOL0     H27209  12.383   0.224   0.607  0.9722 -0.8963  0.1847
  922MOL0     H27210  12.535   0.099   0.775 -1.7976  2.0803 -0.3575
  922MOL0     H27211  12.576  -0.007   0.648  0.0728 -0.1464 -1.0899
  922MOL0     H27212  12.336  -0.060   0.602  0.8237  0.2615  0.5180
  922MOL0     H27213  12.284   0.065   0.726 -0.1195  0.1459  0.9135
  922MOL0     H27214  12.282  -0.164   0.803  0.4530 -0.9150  0.0362
  922MOL0     H27215  12.369  -0.057   0.917 -2.3460 -0.6135  0.2061
  922MOL0     H27216  12.382   0.501  -0.024 -0.8311  0.3558 -0.9522
  922MOL0     H27217  12.140   0.545  -0.048  1.0984 -0.8027 -0.1536
  922MOL0     H27218  11.769   0.539  -0.047  1.1845  1.8556  0.7033
  922MOL0     H27219  11.544   0.447  -0.097 -2.9403 -1.1655  0.8871
  922MOL0     H27220  10.091   1.052  -0.046 -0.4543 -1.0570  0.6620
  922MOL0     H27221   9.943   1.093   0.134 -0.7655 -2.4928 -1.3825
  922MOL0     H27222   9.329   1.232   0.156  1.3654  0.2760 -0.0444
  922MOL0     H27223   9.186   1.271   0.334  0.1615  1.0530 -0.3717
  922MOL0     H27224   9.090   1.399   0.666 -0.3124  2.1433 -1.6966
  922MOL0     H27225   9.094   1.370   0.494  4.9624  1.3341 -1.5084
  922MOL0     H27226   9.088   1.156   0.711  0.3045  1.4598  1.1086
  922MOL0     H27227   9.092   1.119   0.530  0.9189 -1.8057  1.1556
  922MOL0     H27228   8.869   1.296   0.661 -0.3782  0.2423  0.0754
  922MOL0     H27229   8.853   1.208   0.507 -0.8655  1.1352  0.9408
  922MOL0     H27230   8.885   0.985   0.623 -0.1670  0.6348 -1.5536
  922MOL0     H27231   8.733   1.079   0.637 -0.0028  4.4656 -0.5836
  922MOL0     H27232   8.878   1.083   1.035 -0.7780 -3.2484  0.5668
  922MOL0     H27233   9.514   1.321   0.603  0.2564 -0.5201  0.8909
  922MOL0     H27234   9.746   1.362   0.401 -1.2943  0.9230 -0.0538
  922MOL0     H27235   9.727   1.263   0.545  0.7642  0.9795 -0.4772
  922MOL0     H27236   9.763   1.186   0.384 -1.2035  0.2662 -1.2928
  923MOL0     O27237   0.642   0.745  11.247  0.3108 -1.1631  0.0738
  923MOL0     C27238   0.579   0.828  11.314 -0.4896  0.2992  0.3388
  923MOL0     O27239   0.637   0.914  11.405  0.0727 -0.7282  0.9572
  923MOL0     C27240   0.774   0.920  11.423 -0.1307 -0.7153  0.0535
  923MOL0     C27241   0.831   0.903  11.554 -0.0972  0.5615  0.5995
  923MOL0     C27242   0.966   0.915  11.575  0.0022 -0.0973  0.6289
  923MOL0     C27243   1.051   0.949  11.471  0.3440 -0.1233  0.2598
  923MOL0     O27244   1.186   0.960  11.507 -0.1914  0.1816 -0.0020
  923MOL0     C27245   1.261   0.832  11.494  0.1472  0.3270 -0.5700
  923MOL0     C27246   1.405   0.870  11.523 -0.4410 -0.2524 -0.0099
  923MOL0     C27247   1.456   0.973  11.419 -0.2551 -0.3405 -0.1891
  923MOL0     C27248   1.611   0.981  11.428 -0.4863  0.1475  0.3673
  923MOL0     C27249   1.668   1.109  11.374  0.6304 -0.0208 -0.3627
  923MOL0     C27250   1.813   1.090  11.332  0.3478  0.0064  0.6011
  923MOL0     C27251   1.886   1.230  11.325 -0.1647  0.8783 -0.7998
  923MOL0     C27252   2.034   1.205  11.328  0.4440 -0.4077 -0.4387
  923MOL0     N27253   2.078   1.130  11.205  0.2679  0.1541 -0.0476
  923MOL0     C27254   2.094   1.178  11.080 -0.2636 -0.2258  0.3240
  923MOL0     C27255   2.121   1.076  11.001  0.1798  0.8236  0.8798
  923MOL0     C27256   2.138   1.083  10.851 -1.3826 -0.5655 -1.2204
  923MOL0     C27257   2.289   1.111  10.824  0.5637 -0.0869  0.3820
  923MOL0     C27258   2.311   1.186  10.693 -0.4180 -0.4010 -0.0407
  923MOL0     C27259   2.292   1.341  10.695 -0.6522  0.4566  0.0605
  923MOL0     O27260   2.381   1.394  10.791  0.0182 -0.5121 -0.5584
  923MOL0     C27261   2.504   1.441  10.763  0.4924  0.1699  0.5359
  923MOL0     C27262   2.579   1.484  10.871  0.1239 -0.3388 -0.0349
  923MOL0     C27263   2.716   1.519  10.862  0.3521 -0.5459  0.2850
  923MOL0     C27264   2.784   1.565  10.984 -0.4214  0.7847 -0.5148
  923MOL0     C27265   2.784   1.510  10.736  0.0549  0.7656  0.2279
  923MOL0     C27266   2.927   1.533  10.723  0.5141  0.3077  0.5457
  923MOL0     O27267   2.962   1.516  10.591 -0.8255  0.1479 -0.1534
  923MOL0     C27268   3.099   1.521  10.576 -0.1539 -0.0780  0.2778
  923MOL0     C27269   3.165   1.403  10.592  0.7125 -0.3100  0.4865
  923MOL0     C27270   3.294   1.385  10.540 -0.2556  0.3445  0.4793
  923MOL0     C27271   3.359   1.491  10.478 -0.2072 -0.5554 -0.9025
  923MOL0     O27272   3.487   1.462  10.428  0.1740 -0.1057  0.2494
  923MOL0     C27273   3.553   1.561  10.361 -0.0815  0.3257  0.4093
  923MOL0     C27274   3.694   1.516  10.359  0.5919 -0.1534  0.4419
  923MOL0     C27275   3.772   1.614  10.272 -0.6910  0.2583 -0.6766
  923MOL0     C27276   3.920   1.588  10.267  0.3708  0.6513 -0.5594
  923MOL0     C27277   3.996   1.696  10.193 -0.3270 -0.0592  0.3193
  923MOL0     C27278   4.133   1.646  10.143  0.5607 -0.0290  0.4126
  923MOL0     C27279   4.218   1.756  10.077 -0.3023 -0.3850  0.4291
  923MOL0     C27280   4.326   1.708   9.976  0.3879 -0.6385  0.3856
  923MOL0    Cl27281   4.255   1.600   9.860  0.2806 -0.1851 -0.0012
  923MOL0     C27282   3.294   1.612  10.463  0.3378 -0.8429  0.2809
  923MOL0     C27283   3.156   1.630  10.508  0.2912 -0.6081  0.4342
  923MOL0     O27284   3.006   1.576  10.814 -0.1369 -0.3508  0.1250
  923MOL0     C27285   2.705   1.462  10.633 -0.1440 -0.0178 -0.3154
  923MOL0     C27286   2.573   1.426  10.645  0.5737  0.4120 -0.2748
  923MOL0     N27287   2.120   0.966  11.084 -0.1202  0.2175  0.0682
  923MOL0     N27288   2.101   1.000  11.202  0.4171 -0.2561 -0.1939
  923MOL0     C27289   1.004   0.964  11.339 -0.7036  0.2170 -0.1612
  923MOL0     C27290   0.867   0.948  11.320 -0.2374 -0.6295  0.1519
  923MOL0     C27291   0.429   0.837  11.291 -0.6515  0.3553 -0.8043
  923MOL0     C27292   0.356   0.902  11.395 -0.0232  0.5718  0.5803
  923MOL0     C27293   0.217   0.913  11.377 -0.5428 -0.0677 -0.4068
  923MOL0     C27294   0.146   0.842  11.279  0.5534 -0.3675  0.1658
  923MOL0     O27295   0.008   0.850  11.263 -0.4197  0.3847  0.5333
  923MOL0     C27296  -0.074   0.936  11.342  0.4423 -0.2993  0.2830
  923MOL0     C27297  -0.215   0.965  11.289  0.1502  0.1930  0.2765
  923MOL0     C27298  -0.227   1.009  11.141  1.1340 -0.3853 -1.3287
  923MOL0     C27299  -0.360   1.086  11.128  0.1563 -0.2632 -0.0485
  923MOL0     C27300  -0.483   1.004  11.151 -0.2492  0.4995 -0.0666
  923MOL0     C27301  -0.571   0.926  11.130 -0.2156  0.2650 -0.8202
  923MOL0     C27302   0.217   0.788  11.182 -0.5330  0.3299  0.0055
  923MOL0     C27303   0.361   0.782  11.177  0.5103  0.6400  0.7229
  923MOL0     C27304   0.424   0.703  11.059  0.5314  0.0625  0.3420
  923MOL0     H27305   0.764   0.870  11.634 -1.1400  0.5100 -0.2711
  923MOL0     H27306   1.004   0.902  11.676 -1.6558 -1.1112  1.1683
  923MOL0     H27307   1.253   0.782  11.398  1.8908 -4.1958  1.3965
  923MOL0     H27308   1.223   0.758  11.565 -0.2680  1.9219  0.9571
  923MOL0     H27309   1.403   0.909  11.625 -1.5377 -4.2998  1.6855
  923MOL0     H27310   1.473   0.785  11.519  0.5496  0.5487 -3.0717
  923MOL0     H27311   1.419   0.959  11.317  0.7290 -0.1026 -0.5866
  923MOL0     H27312   1.414   1.065  11.461 -4.2180 -2.0986  0.1564
  923MOL0     H27313   1.641   0.985  11.533 -0.0949  0.7830  0.2329
  923MOL0     H27314   1.656   0.892  11.383  0.4663  2.2794 -3.2913
  923MOL0     H27315   1.654   1.188  11.448  2.7743  0.4094 -0.3527
  923MOL0     H27316   1.605   1.118  11.284  1.6026  1.0044 -0.9702
  923MOL0     H27317   1.857   1.033  11.414 -0.7018 -0.5947  0.7661
  923MOL0     H27318   1.821   1.030  11.240 -0.1781 -0.1616  0.6635
  923MOL0     H27319   1.859   1.283  11.417 -0.4170  2.0602 -1.5477
  923MOL0     H27320   1.850   1.280  11.235 -1.1571 -1.9536 -2.0796
  923MOL0     H27321   2.089   1.300  11.335 -1.6925  0.8212  0.8665
  923MOL0     H27322   2.059   1.148  11.418  1.3313 -0.3089 -0.6191
  923MOL0     H27323   2.078   1.281  11.048 -1.9761 -0.1199  1.3943
  923MOL0     H27324   2.079   1.168  10.816  1.6084  1.9302 -0.6518
  923MOL0     H27325   2.109   0.988  10.805  0.0853 -2.3977  1.3121
  923MOL0     H27326   2.329   1.173  10.905 -0.0781  3.7853 -1.9951
  923MOL0     H27327   2.349   1.020  10.818 -1.5499 -1.4708 -0.7865
  923MOL0     H27328   2.418   1.170  10.675 -0.1655 -2.2451  2.4190
  923MOL0     H27329   2.246   1.142  10.618 -2.0125 -1.0401  1.6284
  923MOL0     H27330   2.305   1.382  10.594  0.8663  0.9248  0.4201
  923MOL0     H27331   2.195   1.367  10.737 -0.2813  1.1362  0.5246
  923MOL0     H27332   2.533   1.487  10.969 -1.4945  0.5623 -0.7782
  923MOL0     H27333   2.855   1.501  11.037 -1.8309  0.7429  1.4043
  923MOL0     H27334   2.707   1.575  11.061  0.6676 -3.0116  1.3305
  923MOL0     H27335   2.838   1.660  10.976 -1.6152  1.6069  0.9177
  923MOL0     H27336   3.107   1.320  10.631  0.8239 -0.5792  0.0773
  923MOL0     H27337   3.353   1.296  10.556  0.9199  0.3543 -3.0251
  923MOL0     H27338   3.518   1.573  10.258 -0.5557  1.6783  0.7116
  923MOL0     H27339   3.550   1.662  10.402 -1.4888  0.2067  0.6520
  923MOL0     H27340   3.727   1.525  10.462 -1.3271  1.4968  0.9706
  923MOL0     H27341   3.705   1.417  10.312  0.3921  0.4334 -0.9001
  923MOL0     H27342   3.761   1.708  10.326 -0.8196 -1.2466  2.1161
  923MOL0     H27343   3.734   1.617  10.169 -0.2669  1.3132 -0.8143
  923MOL0     H27344   3.934   1.498  10.207 -1.2200  0.4497 -0.6702
  923MOL0     H27345   3.961   1.576  10.368  1.5787 -2.9323 -1.3524
  923MOL0     H27346   3.934   1.724  10.107 -1.9597  0.0930  1.4968
  923MOL0     H27347   4.005   1.784  10.257 -0.5310  0.8792 -0.9016
  923MOL0     H27348   4.124   1.573  10.062 -0.0023 -0.5144  0.8967
  923MOL0     H27349   4.195   1.603  10.222  0.3959 -0.3880  0.3483
  923MOL0     H27350   4.248   1.827  10.154 -1.1966  1.3623 -0.7533
  923MOL0     H27351   4.146   1.815  10.018  0.1886 -0.0148  0.1904
  923MOL0     H27352   4.398   1.645  10.030  0.7267 -0.1498  0.5105
  923MOL0     H27353   4.377   1.790   9.924 -2.0537 -0.4448 -1.8733
  923MOL0     H27354   3.335   1.694  10.405 -3.3320 -0.1936 -1.7031
  923MOL0     H27355   3.100   1.721  10.488 -0.6411 -0.3282  3.8055
  923MOL0     H27356   2.748   1.443  10.535  4.2446  0.9996  1.1763
  923MOL0     H27357   2.532   1.365  10.565  1.0054 -1.1568  0.6385
  923MOL0     H27358   1.077   0.991  11.264 -1.8513 -0.0595 -1.4341
  923MOL0     H27359   0.837   0.963  11.217 -1.7516  3.4113  0.9875
  923MOL0     H27360   0.392   0.941  11.490 -1.0648 -1.1365  1.7124
  923MOL0     H27361   0.167   0.976  11.450 -1.2329 -1.0608 -0.0004
  923MOL0     H27362  -0.085   0.891  11.441 -1.8248  2.1842  1.2828
  923MOL0     H27363  -0.030   1.035  11.355 -1.7466  0.8544 -0.6491
  923MOL0     H27364  -0.247   1.051  11.350  0.4450  0.6334 -0.1785
  923MOL0     H27365  -0.279   0.877  11.303  0.2586 -0.2622 -1.8197
  923MOL0     H27366  -0.148   1.082  11.118  1.6949  0.1823  1.9170
  923MOL0     H27367  -0.211   0.921  11.077  1.0835 -0.6774 -0.9403
  923MOL0     H27368  -0.370   1.128  11.028  3.1822  0.6006 -0.0822
  923MOL0     H27369  -0.355   1.167  11.201 -1.2555 -2.9047  3.2523
  923MOL0     H27370  -0.643   0.855  11.096  0.2353 -0.4700 -0.2639
  923MOL0     H27371   0.167   0.736  11.100  3.2371 -1.8993 -1.1265
  923MOL0     H27372   0.354   0.686  10.976 -0.7680 -0.8631  1.5779
  923MOL0     H27373   0.511   0.750  11.013  2.4587 -2.5692  1.0477
  923MOL0     H27374   0.457   0.606  11.097  3.1126  0.1172 -1.5504
  924MOL0     O27375   7.385  10.145   7.764  0.2406 -0.9278 -0.6162
  924MOL0     C27376   7.369  10.034   7.803 -0.1049 -0.7958 -1.0196
  924MOL0     O27377   7.470   9.950   7.841 -0.0375  0.5605 -0.0289
  924MOL0     C27378   7.603   9.975   7.809  0.5411  0.1644 -0.8360
  924MOL0     C27379   7.702   9.885   7.863 -0.0364 -0.0485  0.4233
  924MOL0     C27380   7.839   9.893   7.836  0.4847  0.5516  0.0538
  924MOL0     C27381   7.881   9.989   7.745 -0.3365 -0.3040  0.8236
  924MOL0     O27382   8.013   9.995   7.698  0.5301 -0.6428  0.4772
  924MOL0     C27383   8.108  10.015   7.797 -0.1154 -0.1427  0.5818
  924MOL0     C27384   8.242   9.963   7.758 -0.5344 -0.0790  0.2209
  924MOL0     C27385   8.302  10.034   7.632 -0.3102  0.0053  0.2459
  924MOL0     C27386   8.371  10.166   7.663 -0.0644  0.5387 -0.3787
  924MOL0     C27387   8.435  10.221   7.528 -0.0008  0.5748 -0.1942
  924MOL0     C27388   8.535  10.335   7.533  0.2117 -0.6822  0.0322
  924MOL0     C27389   8.557  10.403   7.391  0.6831  0.1475  0.4764
  924MOL0     C27390   8.672  10.501   7.386  0.4241  0.2193  0.0329
  924MOL0     N27391   8.805  10.434   7.409 -0.3153 -0.0392  0.4541
  924MOL0     C27392   8.857  10.350   7.312 -0.1336 -0.0871 -0.6815
  924MOL0     C27393   8.968  10.305   7.372 -1.2852 -0.8005  0.1988
  924MOL0     C27394   9.050  10.199   7.312 -0.1298  0.0708  0.4493
  924MOL0     C27395   9.148  10.228   7.198  0.0412 -0.0626 -0.3997
  924MOL0     C27396   9.240  10.343   7.240  0.3152  0.3462 -0.7861
  924MOL0     C27397   9.375  10.360   7.169 -1.1218  0.3827 -0.0388
  924MOL0     O27398   9.365  10.378   7.025  0.5839 -0.0381  0.1499
  924MOL0     C27399   9.482  10.410   6.955  0.0483  0.1375 -0.2635
  924MOL0     C27400   9.460  10.480   6.833 -0.3096  0.3595  0.2512
  924MOL0     C27401   9.569  10.495   6.741 -0.1815  0.9654 -0.0612
  924MOL0     C27402   9.525  10.562   6.610 -0.3862 -0.2861  0.0242
  924MOL0     C27403   9.698  10.455   6.771  0.3932 -0.6250 -0.2684
  924MOL0     C27404   9.815  10.462   6.683 -0.0375 -0.6611  0.8223
  924MOL0     O27405   9.927  10.398   6.716 -0.2340  0.4728 -0.3217
  924MOL0     C27406  10.048  10.394   6.651 -0.1833 -0.2830 -0.3460
  924MOL0     C27407  10.131  10.291   6.686  1.3911 -0.2977 -0.2405
  924MOL0     C27408  10.255  10.263   6.626 -0.5352 -0.5494 -0.5777
  924MOL0     C27409  10.304  10.353   6.529 -0.4832 -0.6801 -0.0661
  924MOL0     O27410  10.437  10.347   6.492 -0.1627 -0.6626 -0.2714
  924MOL0     C27411  10.514  10.448   6.421 -0.1017 -0.0935  0.5402
  924MOL0     C27412  10.627  10.378   6.340  0.3877 -0.1456 -0.0908
  924MOL0     C27413  10.730  10.307   6.434  0.7461  0.3144 -0.3411
  924MOL0     C27414  10.827  10.217   6.351 -0.0096  0.2433 -0.5752
  924MOL0     C27415  10.887  10.110   6.440  0.4070 -0.2995  0.1477
  924MOL0     C27416  10.996  10.166   6.528  0.3145  0.0410  0.1795
  924MOL0     C27417  11.055  10.065   6.622  0.3343  0.1724  0.4790
  924MOL0     C27418  11.192  10.100   6.664 -0.4908  0.4021 -0.5939
  924MOL0    Cl27419  11.233   9.996   6.804  0.2060  0.1359  0.4465
  924MOL0     C27420  10.231  10.465   6.493 -0.0342 -0.0742  1.2693
  924MOL0     C27421  10.104  10.481   6.553  0.4013  0.2697  0.6327
  924MOL0     O27422   9.801  10.520   6.581  0.4179 -0.0452  0.5743
  924MOL0     C27423   9.717  10.391   6.900 -0.1138 -0.5238  0.7961
  924MOL0     C27424   9.611  10.377   6.990 -0.3148  0.0083  0.0835
  924MOL0     N27425   8.972  10.344   7.502 -0.1816  0.1129  0.0031
  924MOL0     N27426   8.878  10.431   7.523  0.7956 -0.3485 -0.0938
  924MOL0     C27427   7.788  10.080   7.692 -0.9965 -0.3235 -0.1006
  924MOL0     C27428   7.656  10.073   7.716 -0.1377  1.5274 -0.4529
  924MOL0     C27429   7.235   9.977   7.826  0.1436  0.6139  0.1858
  924MOL0     C27430   7.221   9.845   7.876 -0.0012 -0.0769 -0.0292
  924MOL0     C27431   7.096   9.786   7.897  0.9292 -0.2359 -0.6836
  924MOL0     C27432   6.975   9.854   7.869  0.2096 -0.2477 -0.2800
  924MOL0     O27433   6.842   9.812   7.900 -0.6080  0.5339 -0.5718
  924MOL0     C27434   6.823   9.673   7.917 -0.0111  0.5186  0.4551
  924MOL0     C27435   6.814   9.641   8.068  0.0634 -0.1035 -0.2982
  924MOL0     C27436   6.939   9.662   8.157 -0.3523 -0.4253 -0.7199
  924MOL0     C27437   6.907   9.676   8.312  0.6151  0.2324  0.0677
  924MOL0     C27438   7.027   9.690   8.397 -0.3171 -0.4012 -0.3425
  924MOL0     C27439   7.123   9.690   8.474 -0.0663  0.1579  0.7753
  924MOL0     C27440   6.992   9.984   7.820 -0.4346  0.1019 -0.8729
  924MOL0     C27441   7.114  10.051   7.804  0.2968 -0.0511  1.3120
  924MOL0     C27442   7.097  10.188   7.746 -0.0278 -0.8040 -0.1898
  924MOL0     H27443   7.671   9.806   7.931  0.7650 -1.6456 -0.9949
  924MOL0     H27444   7.889   9.809   7.885 -1.2250  0.0116  0.9400
  924MOL0     H27445   8.087   9.948   7.881 -1.4005 -2.1849 -1.2450
  924MOL0     H27446   8.102  10.122   7.820  1.1738  0.1698 -0.3899
  924MOL0     H27447   8.320   9.971   7.833  3.0244 -2.1978 -2.8945
  924MOL0     H27448   8.236   9.855   7.748  1.0084 -0.1440 -0.2641
  924MOL0     H27449   8.372   9.962   7.587 -1.1475 -0.1223 -0.8867
  924MOL0     H27450   8.221  10.060   7.564  1.8815 -1.5417 -3.2585
  924MOL0     H27451   8.298  10.235   7.706 -0.5435  0.6926 -1.4132
  924MOL0     H27452   8.450  10.160   7.739 -0.3203 -0.2991 -0.1653
  924MOL0     H27453   8.356  10.235   7.454 -0.0829 -3.7654 -1.2173
  924MOL0     H27454   8.486  10.132   7.488  0.3553  1.7184 -2.4095
  924MOL0     H27455   8.489  10.412   7.596 -0.2686  1.1280 -2.3747
  924MOL0     H27456   8.632  10.304   7.573  0.1197 -1.6682 -0.4782
  924MOL0     H27457   8.469  10.462   7.362  1.5551  0.8757 -0.7964
  924MOL0     H27458   8.564  10.328   7.311 -0.1605  1.5985 -1.0231
  924MOL0     H27459   8.669  10.538   7.283  1.6497 -1.4432 -0.6485
  924MOL0     H27460   8.660  10.579   7.461  3.5219  0.6653  0.2324
  924MOL0     H27461   8.819  10.320   7.215  4.2686  0.8020 -2.9301
  924MOL0     H27462   8.992  10.112   7.276  1.3979 -0.8540  0.1316
  924MOL0     H27463   9.104  10.158   7.397  0.8825 -1.4883 -0.8715
  924MOL0     H27464   9.200  10.137   7.167 -2.5325 -0.3906 -4.5277
  924MOL0     H27465   9.090  10.264   7.113  0.0852  1.0831  0.0436
  924MOL0     H27466   9.189  10.439   7.225  0.4217  0.4921 -0.2222
  924MOL0     H27467   9.266  10.335   7.346 -1.1862  1.5504 -0.2876
  924MOL0     H27468   9.433  10.448   7.200  2.0568 -1.3277 -0.6787
  924MOL0     H27469   9.432  10.272   7.200 -0.0196  1.4384  1.0764
  924MOL0     H27470   9.358  10.506   6.806 -1.8396 -3.0494  2.0669
  924MOL0     H27471   9.418  10.584   6.613 -0.5336 -0.9979  0.1874
  924MOL0     H27472   9.524  10.494   6.524 -0.4329  2.1354 -2.0117
  924MOL0     H27473   9.585  10.652   6.598  0.6295 -0.2916  3.9306
  924MOL0     H27474  10.089  10.224   6.761  1.2589 -0.0939 -0.1324
  924MOL0     H27475  10.323  10.180   6.642  0.5583 -0.4053 -3.8382
  924MOL0     H27476  10.450  10.481   6.338  0.7213 -4.7847 -2.3519
  924MOL0     H27477  10.550  10.525   6.490  1.4325 -0.8108  0.5783
  924MOL0     H27478  10.583  10.296   6.282 -1.5752  1.0910 -0.4182
  924MOL0     H27479  10.669  10.453   6.272 -3.4674  1.9473 -0.4491
  924MOL0     H27480  10.675  10.250   6.509 -2.1333  1.8528 -1.1182
  924MOL0     H27481  10.776  10.394   6.482 -0.5080  2.1399 -2.2763
  924MOL0     H27482  10.908  10.265   6.296  0.1494  0.0193 -0.5369
  924MOL0     H27483  10.762  10.161   6.283 -0.1055  1.4477 -1.5174
  924MOL0     H27484  10.807  10.066   6.501 -0.9281 -0.7981 -1.8748
  924MOL0     H27485  10.918  10.022   6.384 -0.4691 -0.7319  0.3305
  924MOL0     H27486  10.958  10.249   6.587 -1.2374 -1.8024  1.9147
  924MOL0     H27487  11.073  10.210   6.463 -1.9179  1.7841 -1.4633
  924MOL0     H27488  11.057   9.961   6.589  1.0184  0.5242 -0.6433
  924MOL0     H27489  10.989  10.061   6.709 -1.3156  0.0398 -0.7372
  924MOL0     H27490  11.202  10.208   6.682  0.8269  0.4998 -1.7345
  924MOL0     H27491  11.259  10.072   6.582  2.3107  0.1133  1.6288
  924MOL0     H27492  10.270  10.538   6.423  1.7004 -1.1713  1.0213
  924MOL0     H27493  10.039  10.555   6.507  1.4415 -0.2253 -1.7853
  924MOL0     H27494   9.817  10.367   6.932  0.1893 -2.8337 -1.5447
  924MOL0     H27495   9.618  10.329   7.087 -0.3663  1.1455  0.6657
  924MOL0     H27496   7.820  10.158   7.623  0.9236 -1.0415 -0.0913
  924MOL0     H27497   7.594  10.148   7.668 -0.4271  2.7783  1.7596
  924MOL0     H27498   7.309   9.785   7.894  0.0482 -0.2101 -0.6931
  924MOL0     H27499   7.090   9.687   7.940 -0.7102  1.4392  3.5464
  924MOL0     H27500   6.727   9.649   7.869  0.8806 -0.1325 -1.0686
  924MOL0     H27501   6.894   9.610   7.862 -1.7815 -0.3791 -0.9030
  924MOL0     H27502   6.781   9.538   8.084 -0.1586  0.3047  2.2148
  924MOL0     H27503   6.740   9.715   8.102  0.9239  0.5699  0.1692
  924MOL0     H27504   7.010   9.581   8.142  0.7845  0.6772 -1.5301
  924MOL0     H27505   6.993   9.752   8.128  0.6593 -1.2191 -1.3482
  924MOL0     H27506   6.858   9.584   8.346  2.2755 -1.1912 -1.1827
  924MOL0     H27507   6.847   9.765   8.333 -0.0406 -0.6002  1.9084
  924MOL0     H27508   7.200   9.690   8.548  1.4931  1.9522 -0.7617
  924MOL0     H27509   6.896  10.032   7.800 -0.6259  0.4661  0.7468
  924MOL0     H27510   6.991  10.212   7.742 -0.2059 -0.9209  2.3875
  924MOL0     H27511   7.150  10.258   7.812  0.0188 -0.7833 -0.2485
  924MOL0     H27512   7.138  10.189   7.645 -0.1263 -6.2076 -0.5685
  925MOL0     O27513  10.380   5.542  10.126 -0.0040 -0.2737 -0.7595
  925MOL0     C27514  10.331   5.435  10.101 -0.2797  0.0269  0.2045
  925MOL0     O27515  10.387   5.313  10.130 -0.6166 -0.9487 -0.5815
  925MOL0     C27516  10.502   5.299  10.202  0.1523 -0.2366 -0.1807
  925MOL0     C27517  10.509   5.247  10.328  0.4455  0.2934  0.1145
  925MOL0     C27518  10.629   5.240  10.400 -0.2205 -0.6083 -0.3685
  925MOL0     C27519  10.750   5.269  10.343  0.3967 -0.3736  0.2394
  925MOL0     O27520  10.861   5.239  10.418  0.9949  0.0294  0.1380
  925MOL0     C27521  10.983   5.302  10.390 -0.5376 -0.2146 -0.4358
  925MOL0     C27522  11.068   5.265  10.511  0.2651 -0.4751 -0.0532
  925MOL0     C27523  11.206   5.331  10.492 -0.1862  0.3018 -0.0873
  925MOL0     C27524  11.325   5.246  10.537  0.2060 -0.6694  0.0096
  925MOL0     C27525  11.465   5.317  10.538  1.0210  0.2154  0.3033
  925MOL0     C27526  11.490   5.434  10.631  0.3699 -0.1852 -0.2098
  925MOL0     C27527  11.640   5.462  10.654  0.5622 -0.5317  0.2113
  925MOL0     C27528  11.710   5.353  10.740 -1.0364 -0.4922  0.0359
  925MOL0     N27529  11.842   5.405  10.775  0.3987 -0.9355 -0.2660
  925MOL0     C27530  11.948   5.451  10.705 -0.4172 -0.3588 -0.0260
  925MOL0     C27531  12.054   5.470  10.788  0.7104 -0.0275  0.4520
  925MOL0     C27532  12.183   5.530  10.741  0.1730 -0.1751 -0.1655
  925MOL0     C27533  12.186   5.680  10.761  0.1200  0.8732 -0.2074
  925MOL0     C27534  12.328   5.746  10.739  0.0366 -0.0778  0.6331
  925MOL0     C27535  12.432   5.707  10.843  0.5261 -0.1568  0.8077
  925MOL0     O27536  12.552   5.786  10.818  0.4906 -0.5780 -0.3696
  925MOL0     C27537  12.635   5.791  10.922 -1.0206 -0.4495 -0.1581
  925MOL0     C27538  12.622   5.730  11.047 -0.1762  0.5205  0.9165
  925MOL0     C27539  12.727   5.741  11.146  0.3029 -0.7300 -0.2560
  925MOL0     C27540  12.691   5.676  11.284 -0.1435  0.1604 -0.3042
  925MOL0     C27541  12.840   5.821  11.127 -0.2406  0.0969  1.1169
  925MOL0     C27542  12.956   5.834  11.215 -0.9662 -0.6616  0.0670
  925MOL0     O27543  13.054   5.931  11.175  0.3505 -0.1007  0.3983
  925MOL0     C27544  13.172   5.950  11.247 -0.9792 -0.0070 -0.2965
  925MOL0     C27545  13.181   5.955  11.390  0.1495  0.2461  0.2995
  925MOL0     C27546  13.302   5.977  11.457  0.0677 -0.1984  0.1063
  925MOL0     C27547  13.421   6.007  11.383  0.0615 -0.1489 -0.6029
  925MOL0     O27548  13.542   6.036  11.451 -0.3786  0.0546  0.3106
  925MOL0     C27549  13.653   6.072  11.375 -0.4064  0.6929  0.8012
  925MOL0     C27550  13.777   6.110  11.458 -0.1566  0.0491 -0.1643
  925MOL0     C27551  13.889   6.149  11.367 -0.5541 -0.0114  0.2761
  925MOL0     C27552  14.017   6.184  11.439  0.0641  0.1260  0.3228
  925MOL0     C27553  14.138   6.183  11.340 -0.4288 -0.2976 -0.1924
  925MOL0     C27554  14.265   6.199  11.421  0.0875 -0.1146 -0.3069
  925MOL0     C27555  14.295   6.340  11.472  0.3582  0.0948  0.0167
  925MOL0     C27556  14.418   6.344  11.562 -0.5295  0.8690  0.4044
  925MOL0    Cl27557  14.563   6.359  11.451  0.6161  0.0674 -0.1786
  925MOL0     C27558  13.416   5.994  11.245 -0.2347  0.8069  0.4019
  925MOL0     C27559  13.291   5.979  11.178  0.3402  0.6352 -0.4878
  925MOL0     O27560  12.971   5.753  11.310 -0.1185 -0.5118 -0.4485
  925MOL0     C27561  12.851   5.889  10.999  0.4143  0.4666 -0.3049
  925MOL0     C27562  12.753   5.869  10.903 -0.5137 -0.1273  0.2067
  925MOL0     N27563  12.007   5.435  10.915 -0.1025 -0.4415 -0.0132
  925MOL0     N27564  11.887   5.400  10.901 -0.2556 -0.3273  0.3894
  925MOL0     C27565  10.752   5.326  10.216  0.3847 -0.0253 -0.0222
  925MOL0     C27566  10.630   5.346  10.151  0.5443  0.0396  0.2042
  925MOL0     C27567  10.197   5.420  10.035  0.5360  0.6797 -0.1548
  925MOL0     C27568  10.125   5.299  10.066 -0.0695 -0.3399 -0.5297
  925MOL0     C27569  10.005   5.275  10.004  0.0125 -0.1233  0.7368
  925MOL0     C27570   9.953   5.367   9.916  1.1603  0.6244 -0.2022
  925MOL0     O27571   9.823   5.337   9.883  0.5872 -0.2550 -0.5192
  925MOL0     C27572   9.750   5.447   9.823  0.5447 -0.3983  0.2689
  925MOL0     C27573   9.619   5.387   9.774  0.6411 -0.6133 -0.1062
  925MOL0     C27574   9.539   5.499   9.703 -0.0310  0.3212 -0.2924
  925MOL0     C27575   9.463   5.587   9.801  0.0766 -0.1147  0.0071
  925MOL0     C27576   9.405   5.708   9.737  0.8729  0.2476  0.2855
  925MOL0     C27577   9.347   5.804   9.689 -0.5466  0.2403 -0.0715
  925MOL0     C27578  10.011   5.485   9.891 -0.2788 -0.2525 -0.2843
  925MOL0     C27579  10.138   5.514   9.951 -0.3364  0.1550 -0.5397
  925MOL0     C27580  10.199   5.651   9.919 -0.0215  0.1850 -0.6240
  925MOL0     H27581  10.420   5.201  10.371  0.6257  0.9904  1.2997
  925MOL0     H27582  10.621   5.203  10.501  2.1450  0.1519  0.1591
  925MOL0     H27583  10.974   5.411  10.384  3.0244  0.2423  0.2612
  925MOL0     H27584  11.021   5.265  10.294  0.2713 -0.8193  0.1031
  925MOL0     H27585  11.016   5.299  10.601 -1.7509 -0.5771 -1.1206
  925MOL0     H27586  11.084   5.157  10.515  1.7785 -0.2428  2.2478
  925MOL0     H27587  11.232   5.356  10.389  2.3277  0.7364  0.5889
  925MOL0     H27588  11.214   5.428  10.542  2.7541  0.4659 -0.7115
  925MOL0     H27589  11.306   5.202  10.635 -1.2715  1.8074  0.9332
  925MOL0     H27590  11.331   5.167  10.461 -1.4498 -1.2206  0.4274
  925MOL0     H27591  11.490   5.355  10.439  2.3348 -1.8500 -0.2183
  925MOL0     H27592  11.539   5.241  10.566  1.5838  0.9259  0.8088
  925MOL0     H27593  11.437   5.525  10.601  1.8552  0.9168  0.3444
  925MOL0     H27594  11.452   5.408  10.730 -1.3810  3.7323  0.3336
  925MOL0     H27595  11.645   5.561  10.701 -2.4967  0.6769 -1.7204
  925MOL0     H27596  11.696   5.467  10.560  2.2037  3.9374  1.1601
  925MOL0     H27597  11.659   5.337  10.835 -2.6943 -1.0811 -0.9032
  925MOL0     H27598  11.723   5.262  10.682 -1.1135 -0.3502 -0.2048
  925MOL0     H27599  11.943   5.474  10.599 -0.2303  1.1673  0.2691
  925MOL0     H27600  12.204   5.483  10.645 -2.0517 -2.3294  0.3080
  925MOL0     H27601  12.270   5.497  10.798  1.4312  1.3922 -1.0848
  925MOL0     H27602  12.125   5.727  10.684 -1.3597 -0.0236  0.3860
  925MOL0     H27603  12.133   5.702  10.854  2.3638 -0.8117  1.6039
  925MOL0     H27604  12.373   5.719  10.643  1.9546 -0.6355  1.6445
  925MOL0     H27605  12.312   5.854  10.739  3.3624  0.5827 -1.7256
  925MOL0     H27606  12.386   5.726  10.941  1.1033 -2.5109  1.6090
  925MOL0     H27607  12.451   5.599  10.849 -1.2344 -0.4956  0.8612
  925MOL0     H27608  12.531   5.683  11.081  0.2208 -1.0934 -0.0804
  925MOL0     H27609  12.642   5.579  11.272 -3.0905  1.7060 -2.0670
  925MOL0     H27610  12.615   5.739  11.332  1.4565  0.0061  2.6325
  925MOL0     H27611  12.771   5.668  11.358  1.0414  1.7427 -1.3359
  925MOL0     H27612  13.087   5.942  11.442 -0.7771  2.8055 -0.5731
  925MOL0     H27613  13.307   5.978  11.565  2.0088  0.0212  0.0484
  925MOL0     H27614  13.693   5.997  11.306  1.8583 -0.1731  2.9018
  925MOL0     H27615  13.632   6.157  11.309 -1.0109  1.3420  1.8072
  925MOL0     H27616  13.749   6.199  11.516 -1.4642  0.2331 -1.0239
  925MOL0     H27617  13.815   6.033  11.527 -0.9802  0.4723  0.7910
  925MOL0     H27618  13.862   6.234  11.303  1.6984 -0.5321 -1.4820
  925MOL0     H27619  13.900   6.068  11.294 -1.3292  0.1886 -0.0774
  925MOL0     H27620  14.023   6.112  11.521 -6.4299  1.0691  2.2001
  925MOL0     H27621  14.019   6.279  11.494 -0.6223  0.7059 -0.6119
  925MOL0     H27622  14.135   6.088  11.285  0.6713  0.3281 -1.3659
  925MOL0     H27623  14.130   6.266  11.270  2.8557 -0.8620 -1.3908
  925MOL0     H27624  14.344   6.171  11.351  0.6577 -0.7675  0.5772
  925MOL0     H27625  14.279   6.129  11.504  0.2177  0.4419  0.1474
  925MOL0     H27626  14.211   6.379  11.531  0.0782  1.7015 -1.3674
  925MOL0     H27627  14.318   6.406  11.388 -0.0843  0.7577  0.3985
  925MOL0     H27628  14.422   6.263  11.636 -0.9788  0.6759  0.2199
  925MOL0     H27629  14.429   6.434  11.625  2.0224  0.0268  1.3119
  925MOL0     H27630  13.499   5.998  11.176  0.2483  0.0017  0.9206
  925MOL0     H27631  13.298   5.980  11.069 -0.6606  2.0188 -0.5695
  925MOL0     H27632  12.931   5.958  10.974 -0.0657  1.3302  0.4715
  925MOL0     H27633  12.762   5.924  10.810 -0.2878  1.6378  1.2349
  925MOL0     H27634  10.847   5.353  10.170  1.1774  1.1973  2.1666
  925MOL0     H27635  10.617   5.389  10.052 -2.4899 -1.7624 -0.3217
  925MOL0     H27636  10.162   5.211  10.119  0.4405  0.2885  0.1893
  925MOL0     H27637   9.949   5.185  10.027  0.7967 -1.0034 -0.6113
  925MOL0     H27638   9.722   5.530   9.889 -0.1342  1.2487 -1.9774
  925MOL0     H27639   9.806   5.476   9.733 -2.1915  0.4897 -1.2692
  925MOL0     H27640   9.554   5.340   9.848 -2.7026 -0.8038 -2.9155
  925MOL0     H27641   9.640   5.307   9.703 -4.0598 -2.0990 -0.1272
  925MOL0     H27642   9.608   5.562   9.646 -1.4158  2.2923  0.1262
  925MOL0     H27643   9.468   5.459   9.629 -0.6499 -0.9463  0.9457
  925MOL0     H27644   9.528   5.624   9.882 -0.8137  1.0740  0.2119
  925MOL0     H27645   9.391   5.523   9.853  1.8546 -3.2624 -1.1755
  925MOL0     H27646   9.303   5.882   9.630  0.3638 -1.0303 -2.6047
  925MOL0     H27647   9.955   5.566   9.845 -1.2169 -0.6434  0.1612
  925MOL0     H27648  10.308   5.661   9.923 -0.1707  1.5905  0.7699
  925MOL0     H27649  10.161   5.670   9.818  1.6553 -1.2452 -1.5813
  925MOL0     H27650  10.168   5.731   9.987  1.1999  0.0894  0.0666
  926MOL0     O27651   2.320   7.584   0.258 -0.0077  0.5367  0.1322
  926MOL0     C27652   2.306   7.470   0.297  0.1255  0.1477  0.5565
  926MOL0     O27653   2.404   7.394   0.349  0.6095 -0.2202 -0.7332
  926MOL0     C27654   2.536   7.436   0.347  0.0603  0.1662  0.1421
  926MOL0     C27655   2.596   7.450   0.225  0.1429 -0.2767 -0.2365
  926MOL0     C27656   2.720   7.502   0.213  0.0252 -0.6890  0.7084
  926MOL0     C27657   2.782   7.563   0.329 -0.3746  0.5132 -0.3732
  926MOL0     O27658   2.910   7.604   0.333  0.5617 -0.1078  0.8668
  926MOL0     C27659   2.988   7.574   0.213 -0.1837 -0.2557 -0.9656
  926MOL0     C27660   3.137   7.609   0.249 -0.4818 -0.2935  0.8909
  926MOL0     C27661   3.223   7.603   0.126 -0.1182 -0.1933  0.0494
  926MOL0     C27662   3.351   7.683   0.159 -0.5594  0.2312  0.0539
  926MOL0     C27663   3.471   7.663   0.058  0.1502 -0.5828 -0.2544
  926MOL0     C27664   3.576   7.776   0.053  0.3351 -0.3099  0.3972
  926MOL0     C27665   3.709   7.730  -0.008 -0.4021 -0.0631  0.3886
  926MOL0     C27666   3.697   7.667  -0.145  0.2634 -0.5868 -0.9057
  926MOL0     N27667   3.829   7.635  -0.206  1.1716  0.0861  0.3745
  926MOL0     C27668   3.876   7.664  -0.337  0.4248  0.0040 -0.2087
  926MOL0     C27669   3.991   7.589  -0.351  0.0468 -0.0718  0.4488
  926MOL0     C27670   4.063   7.592  -0.481 -0.5103 -0.9873  0.4280
  926MOL0     C27671   4.165   7.480  -0.503  0.1818 -0.2649 -0.7832
  926MOL0     C27672   4.284   7.504  -0.409 -0.6490  0.3084  0.6800
  926MOL0     C27673   4.422   7.469  -0.482 -0.5906  0.2490 -0.5214
  926MOL0     O27674   4.447   7.572  -0.584 -0.3620 -0.2060 -0.4013
  926MOL0     C27675   4.533   7.529  -0.688  0.1171  0.6446  0.9393
  926MOL0     C27676   4.473   7.481  -0.809  0.0365  0.4047  0.4549
  926MOL0     C27677   4.553   7.426  -0.914 -0.4799  0.4283 -0.4095
  926MOL0     C27678   4.472   7.348  -1.016  0.0662 -0.2167 -0.2928
  926MOL0     C27679   4.692   7.424  -0.902 -0.2115  0.0890  0.2207
  926MOL0     C27680   4.785   7.370  -1.003 -0.6228  0.1855 -0.2581
  926MOL0     O27681   4.907   7.343  -0.947  0.7150  0.7892 -0.2804
  926MOL0     C27682   5.032   7.317  -1.008 -0.0859  0.4568  0.5471
  926MOL0     C27683   5.146   7.314  -0.927  0.1174 -0.4008  0.8835
  926MOL0     C27684   5.274   7.292  -0.977 -0.1148 -0.3718  0.3081
  926MOL0     C27685   5.295   7.269  -1.106  0.2201  0.1559 -0.1800
  926MOL0     O27686   5.416   7.222  -1.141  0.6308  0.6197 -0.0425
  926MOL0     C27687   5.427   7.176  -1.276  0.0090 -0.2874 -0.8922
  926MOL0     C27688   5.567   7.120  -1.294 -0.0439  0.3510  0.8695
  926MOL0     C27689   5.677   7.218  -1.335  0.2904  0.2402 -0.1982
  926MOL0     C27690   5.669   7.258  -1.482 -0.5880 -0.7093 -0.5508
  926MOL0     C27691   5.785   7.328  -1.537  0.0517 -0.5428  0.0233
  926MOL0     C27692   5.780   7.335  -1.693  0.2516  0.2995 -0.4359
  926MOL0     C27693   5.891   7.431  -1.742  0.3205  0.3583 -1.0007
  926MOL0     C27694   5.848   7.492  -1.883 -0.3372  0.5915 -0.3450
  926MOL0    Cl27695   5.955   7.629  -1.931  0.1292  0.8973  0.3108
  926MOL0     C27696   5.182   7.292  -1.192 -0.8562  0.0126  1.1850
  926MOL0     C27697   5.059   7.300  -1.138  0.9121 -0.6532 -0.1282
  926MOL0     O27698   4.765   7.366  -1.123  0.3737 -0.4518  0.0900
  926MOL0     C27699   4.747   7.486  -0.785  0.6415  0.4989 -0.2005
  926MOL0     C27700   4.666   7.534  -0.674 -0.6263  0.4736  0.3534
  926MOL0     N27701   4.018   7.527  -0.237  0.5893 -0.2405  0.8120
  926MOL0     N27702   3.918   7.548  -0.152 -0.0967  0.6154  1.0440
  926MOL0     C27703   2.718   7.551   0.453 -0.1115 -0.0583  0.1706
  926MOL0     C27704   2.598   7.484   0.464 -0.5261 -0.7414 -0.8522
  926MOL0     C27705   2.178   7.400   0.276 -0.3821 -0.2839  0.4527
  926MOL0     C27706   2.181   7.256   0.293 -0.4463  0.6399  0.6990
  926MOL0     C27707   2.072   7.185   0.254 -0.2255  0.2634  0.3410
  926MOL0     C27708   1.952   7.239   0.206 -0.7069  0.0336  0.1390
  926MOL0     O27709   1.864   7.151   0.164 -0.0139  0.6003 -0.3957
  926MOL0     C27710   1.746   7.211   0.109  0.1066 -0.1461  0.1881
  926MOL0     C27711   1.634   7.250   0.206 -0.2349  0.9503  0.8707
  926MOL0     C27712   1.593   7.123   0.284 -0.1996 -0.0254 -0.0135
  926MOL0     C27713   1.487   7.144   0.400  0.0136  0.1006 -0.1419
  926MOL0     C27714   1.382   7.247   0.368  0.6425  0.3943  0.0646
  926MOL0     C27715   1.296   7.323   0.333 -0.1673 -1.2524 -1.0145
  926MOL0     C27716   1.947   7.381   0.199 -0.8940 -0.1368  0.0588
  926MOL0     C27717   2.054   7.463   0.236  0.4895 -0.2062  1.0801
  926MOL0     C27718   2.035   7.612   0.219  0.5752 -0.5400  0.3974
  926MOL0     H27719   2.549   7.401   0.140 -0.4309 -0.2478  0.0588
  926MOL0     H27720   2.776   7.497   0.120 -0.4519 -1.1491  0.4498
  926MOL0     H27721   2.947   7.629   0.128 -0.8840 -3.1873 -2.6573
  926MOL0     H27722   2.987   7.466   0.198 -0.6985 -0.4086  0.0930
  926MOL0     H27723   3.130   7.712   0.286 -3.1339 -0.5288  1.2439
  926MOL0     H27724   3.178   7.541   0.324 -1.0348 -0.5636  0.9481
  926MOL0     H27725   3.253   7.502   0.096  2.9513  0.6418 -0.0420
  926MOL0     H27726   3.173   7.651   0.041  0.6614 -2.2714 -1.6917
  926MOL0     H27727   3.329   7.790   0.168 -1.3201 -0.0102  1.1698
  926MOL0     H27728   3.386   7.638   0.253 -2.3265 -0.7445  0.2893
  926MOL0     H27729   3.429   7.642  -0.041 -1.6724 -2.4196  0.8187
  926MOL0     H27730   3.528   7.574   0.087  1.3791  0.0503 -0.6810
  926MOL0     H27731   3.541   7.858  -0.010 -1.3980 -1.6753 -0.5061
  926MOL0     H27732   3.597   7.814   0.154  2.9289 -1.5081  0.3934
  926MOL0     H27733   3.763   7.661   0.057  1.0998 -0.0073 -0.7411
  926MOL0     H27734   3.761   7.822  -0.037 -0.5954 -0.4426 -1.2791
  926MOL0     H27735   3.653   7.569  -0.126 -0.6298 -0.1734 -0.7585
  926MOL0     H27736   3.625   7.722  -0.207 -2.0974 -2.0632  0.3602
  926MOL0     H27737   3.835   7.738  -0.405  1.9363  2.1835  1.1581
  926MOL0     H27738   4.111   7.690  -0.490 -3.0598  0.1990 -1.5823
  926MOL0     H27739   3.987   7.598  -0.559  1.8704  2.4999 -1.9571
  926MOL0     H27740   4.113   7.385  -0.490 -1.3849 -0.0686 -4.4310
  926MOL0     H27741   4.192   7.488  -0.609  0.8677  4.3055 -0.4954
  926MOL0     H27742   4.298   7.610  -0.386  1.6176  0.0354  0.7781
  926MOL0     H27743   4.265   7.444  -0.319  2.1421 -1.7628  0.0155
  926MOL0     H27744   4.500   7.472  -0.406  1.4086  1.9406 -2.5060
  926MOL0     H27745   4.434   7.370  -0.529 -1.1392  0.9802 -2.3097
  926MOL0     H27746   4.366   7.480  -0.828  0.0661 -0.5208  0.2992
  926MOL0     H27747   4.502   7.365  -1.120 -1.4606 -0.9897 -0.8958
  926MOL0     H27748   4.367   7.371  -0.998  0.9841  4.8437  0.0554
  926MOL0     H27749   4.489   7.241  -1.001  1.6503  0.1709  1.0242
  926MOL0     H27750   5.133   7.334  -0.821 -2.9785  0.1201  0.4867
  926MOL0     H27751   5.353   7.284  -0.902 -0.3652 -4.1357  0.3250
  926MOL0     H27752   5.353   7.097  -1.291  1.1243 -1.6804  0.6586
  926MOL0     H27753   5.401   7.259  -1.343  2.5841  3.4101  2.2072
  926MOL0     H27754   5.592   7.070  -1.200 -1.7432 -2.0390  0.1675
  926MOL0     H27755   5.573   7.053  -1.380  1.0212  1.8695 -0.2955
  926MOL0     H27756   5.775   7.169  -1.341 -0.3424 -0.9026 -2.5849
  926MOL0     H27757   5.687   7.308  -1.274  0.7422 -1.6462  2.6984
  926MOL0     H27758   5.575   7.314  -1.480  0.7949  1.8520 -2.0711
  926MOL0     H27759   5.649   7.172  -1.546  1.5370  0.5752 -3.1255
  926MOL0     H27760   5.777   7.430  -1.500  1.0865 -0.0649 -0.9999
  926MOL0     H27761   5.875   7.275  -1.507 -0.3163 -1.6869 -0.8083
  926MOL0     H27762   5.679   7.363  -1.724  0.6675  2.2987 -0.0694
  926MOL0     H27763   5.816   7.236  -1.724  0.7875 -0.9405  3.6317
  926MOL0     H27764   5.982   7.371  -1.748  0.1313 -0.1757  1.0045
  926MOL0     H27765   5.900   7.514  -1.672 -0.0589 -1.7589  1.7037
  926MOL0     H27766   5.745   7.528  -1.876 -0.4241  0.0927  1.4473
  926MOL0     H27767   5.843   7.416  -1.962 -0.2483 -2.7477  2.6347
  926MOL0     H27768   5.175   7.284  -1.300 -1.8636 -0.2049  1.2520
  926MOL0     H27769   4.974   7.295  -1.205  0.1383 -0.1007  0.7850
  926MOL0     H27770   4.852   7.486  -0.759  0.9927 -0.4809 -1.5307
  926MOL0     H27771   4.721   7.566  -0.586  2.0150 -1.1740 -0.5735
  926MOL0     H27772   2.761   7.577   0.549 -0.1261  0.8345 -0.0555
  926MOL0     H27773   2.551   7.482   0.562 -0.2580  0.3881 -0.6825
  926MOL0     H27774   2.269   7.198   0.317  1.3601  2.6322 -0.7494
  926MOL0     H27775   2.079   7.077   0.261  1.5905  0.3920  0.8257
  926MOL0     H27776   1.767   7.300   0.048 -2.0237  0.2324 -0.0941
  926MOL0     H27777   1.705   7.134   0.042 -0.6406  0.1600  0.2779
  926MOL0     H27778   1.549   7.293   0.153 -0.5114 -0.3261  0.2422
  926MOL0     H27779   1.659   7.325   0.282 -2.0520  0.2203  2.2802
  926MOL0     H27780   1.555   7.046   0.215  1.0650 -0.9589  0.3010
  926MOL0     H27781   1.686   7.080   0.322 -0.0139 -1.0423 -1.5191
  926MOL0     H27782   1.532   7.182   0.493  2.5099  1.2087 -1.6961
  926MOL0     H27783   1.437   7.054   0.438  0.8866  1.2742  4.3858
  926MOL0     H27784   1.226   7.404   0.321  0.9315  0.1926  1.5975
  926MOL0     H27785   1.848   7.426   0.192 -0.5863  0.9286  2.0843
  926MOL0     H27786   2.105   7.654   0.146  0.8948 -0.0004  0.9977
  926MOL0     H27787   1.937   7.643   0.181  1.1925 -0.7993 -1.5173
  926MOL0     H27788   2.047   7.671   0.311  1.0964  0.6227 -0.3888
  927MOL0     O27789   2.453   0.694   1.648 -0.2974  0.1143 -0.2561
  927MOL0     C27790   2.484   0.632   1.751 -0.3220  0.3726 -0.0748
  927MOL0     O27791   2.616   0.594   1.779  0.5519  0.1051 -0.4257
  927MOL0     C27792   2.711   0.622   1.686 -0.8392  0.0246  0.5796
  927MOL0     C27793   2.813   0.715   1.722 -0.6519  0.0636  1.1618
  927MOL0     C27794   2.910   0.749   1.626  0.1167 -0.6076 -0.0847
  927MOL0     C27795   2.906   0.696   1.497  0.5183  0.4659 -0.4472
  927MOL0     O27796   2.995   0.749   1.408  0.0580 -0.3172  0.2002
  927MOL0     C27797   3.028   0.677   1.284  0.2392  0.0180  0.2989
  927MOL0     C27798   3.129   0.741   1.195  0.0787  0.7432  0.8239
  927MOL0     C27799   3.270   0.723   1.255 -0.3202 -0.4222 -0.7916
  927MOL0     C27800   3.345   0.852   1.216  0.7058  0.2585 -0.9749
  927MOL0     C27801   3.369   0.889   1.072  0.2682  0.5255 -1.0309
  927MOL0     C27802   3.411   1.031   1.051 -0.1854  0.2912  0.4055
  927MOL0     C27803   3.438   1.051   0.900  0.2938  0.2030  0.2712
  927MOL0     C27804   3.522   1.174   0.864  0.2276 -0.7311 -0.4436
  927MOL0     N27805   3.666   1.137   0.866 -0.5427 -0.3350 -0.7859
  927MOL0     C27806   3.755   1.150   0.972  0.4674 -0.1724 -0.1379
  927MOL0     C27807   3.864   1.093   0.927 -0.5291  0.4028 -0.3275
  927MOL0     C27808   3.983   1.062   1.016 -0.0808 -0.5282  1.1570
  927MOL0     C27809   4.092   1.000   0.929 -0.3163 -0.2122  0.3614
  927MOL0     C27810   4.223   1.016   0.995  0.4489  1.0253  1.0149
  927MOL0     C27811   4.327   0.912   0.929 -0.5573  0.0927 -0.0070
  927MOL0     O27812   4.362   0.958   0.792 -1.1943 -0.1814 -0.2977
  927MOL0     C27813   4.468   0.889   0.737 -0.0565 -0.7867 -0.8454
  927MOL0     C27814   4.425   0.812   0.628 -0.5570  0.0976 -0.5317
  927MOL0     C27815   4.527   0.748   0.552  0.8905 -0.0053 -0.8027
  927MOL0     C27816   4.479   0.671   0.432  0.4090 -0.2564 -0.2088
  927MOL0     C27817   4.668   0.762   0.587  1.1625  0.3834 -1.1492
  927MOL0     C27818   4.788   0.703   0.509 -0.5279 -0.7769  0.7031
  927MOL0     O27819   4.900   0.788   0.482 -0.6567  1.2416  0.6462
  927MOL0     C27820   5.017   0.729   0.426  0.0637  0.4666 -0.9402
  927MOL0     C27821   5.057   0.610   0.479 -0.2455  0.4033 -0.8857
  927MOL0     C27822   5.184   0.554   0.441  0.6574  0.5407  0.5569
  927MOL0     C27823   5.272   0.636   0.361  0.8673  0.3252  0.9034
  927MOL0     O27824   5.395   0.584   0.331  0.5243  0.6906 -0.0644
  927MOL0     C27825   5.499   0.675   0.303 -0.4722 -0.0311  0.1944
  927MOL0     C27826   5.622   0.601   0.265  0.0044  0.1158  1.2244
  927MOL0     C27827   5.680   0.504   0.368  0.5195  0.6141  0.6128
  927MOL0     C27828   5.801   0.417   0.309  0.0959  0.5481 -0.2935
  927MOL0     C27829   5.843   0.310   0.406 -0.3048  0.1656  0.6229
  927MOL0     C27830   5.937   0.212   0.340  0.6923 -0.3089 -0.1316
  927MOL0     C27831   5.954   0.084   0.426  0.4227 -0.1764 -0.3181
  927MOL0     C27832   6.012  -0.028   0.332  1.2184  0.0989  0.1651
  927MOL0    Cl27833   6.165   0.013   0.265  0.0616 -0.5826 -0.2672
  927MOL0     C27834   5.238   0.758   0.322  0.3013 -0.1367 -0.1447
  927MOL0     C27835   5.108   0.803   0.352  0.5402  0.8697  0.2879
  927MOL0     O27836   4.764   0.598   0.447 -0.0002 -0.2640 -0.4733
  927MOL0     C27837   4.705   0.836   0.702 -0.0295 -0.9683 -0.1491
  927MOL0     C27838   4.603   0.894   0.786  0.6804  0.1126  0.1736
  927MOL0     N27839   3.855   1.071   0.793  0.2303  0.7576  0.1838
  927MOL0     N27840   3.729   1.086   0.753  0.1860  0.0718 -0.4072
  927MOL0     C27841   2.810   0.597   1.466  0.1795 -0.2635  0.5135
  927MOL0     C27842   2.715   0.564   1.558  0.5578 -0.1514 -0.1084
  927MOL0     C27843   2.383   0.577   1.850 -0.5004 -0.3485 -0.6979
  927MOL0     C27844   2.275   0.654   1.883  0.1445 -0.6666 -0.2499
  927MOL0     C27845   2.180   0.617   1.978  0.6670 -0.0456 -0.2705
  927MOL0     C27846   2.183   0.495   2.036 -0.4895  0.3833  0.4652
  927MOL0     O27847   2.078   0.464   2.119  0.4186  0.0221 -0.1484
  927MOL0     C27848   2.067   0.332   2.167 -0.1529 -0.2318  0.1089
  927MOL0     C27849   1.932   0.288   2.226 -0.1411 -1.0484 -0.1027
  927MOL0     C27850   1.828   0.239   2.129  0.1764  0.3851 -0.2172
  927MOL0     C27851   1.704   0.173   2.195 -0.6217 -0.8349 -0.0268
  927MOL0     C27852   1.585   0.176   2.105  0.6556  0.0316 -0.4741
  927MOL0     C27853   1.490   0.202   2.043 -0.6984  0.2199 -0.1879
  927MOL0     C27854   2.293   0.411   2.011 -0.0054 -0.6397  1.0037
  927MOL0     C27855   2.390   0.455   1.917  0.0784  0.8354 -0.1363
  927MOL0     C27856   2.496   0.356   1.888  0.4784 -0.1542  0.4709
  927MOL0     H27857   2.813   0.759   1.821 -1.7747  2.2978  0.2581
  927MOL0     H27858   2.986   0.826   1.638 -0.3426  0.0043 -0.9203
  927MOL0     H27859   2.937   0.684   1.224 -0.0950 -1.5673  0.5725
  927MOL0     H27860   3.054   0.574   1.308 -0.6200 -0.7651 -1.8602
  927MOL0     H27861   3.131   0.695   1.096  3.8753  1.8971  0.1755
  927MOL0     H27862   3.107   0.845   1.171  1.7775  0.2244 -3.9170
  927MOL0     H27863   3.260   0.715   1.363 -1.7979  1.1448 -0.7634
  927MOL0     H27864   3.317   0.638   1.203 -0.7507 -0.8585 -0.4747
  927MOL0     H27865   3.296   0.939   1.260  0.1280 -0.5886  0.0955
  927MOL0     H27866   3.441   0.836   1.267 -0.5678 -0.9569  1.2336
  927MOL0     H27867   3.273   0.881   1.020 -1.4945 -0.1837  2.0728
  927MOL0     H27868   3.437   0.813   1.033 -0.6140  0.3306 -2.2287
  927MOL0     H27869   3.328   1.100   1.073  1.0060  2.6683 -1.9609
  927MOL0     H27870   3.505   1.047   1.104 -0.3864  1.5051  0.4373
  927MOL0     H27871   3.342   1.056   0.846  0.8073  0.9775 -0.5917
  927MOL0     H27872   3.487   0.958   0.870 -1.4023 -0.2315 -1.3761
  927MOL0     H27873   3.498   1.208   0.763 -1.1867  0.0773  0.1394
  927MOL0     H27874   3.509   1.253   0.939  3.1459  0.3914 -0.9855
  927MOL0     H27875   3.730   1.201   1.064  0.6932  0.9087 -0.6540
  927MOL0     H27876   3.957   0.997   1.099 -0.7433  0.8141  2.0377
  927MOL0     H27877   4.009   1.161   1.055  0.4605 -0.8671  1.6703
  927MOL0     H27878   4.067   0.897   0.904 -0.4974  0.1315 -0.9106
  927MOL0     H27879   4.095   1.061   0.838  0.2750 -0.3442  0.2862
  927MOL0     H27880   4.250   1.121   0.987 -0.4075  1.2714  1.1781
  927MOL0     H27881   4.214   1.000   1.103 -0.7101 -0.9857  0.6848
  927MOL0     H27882   4.413   0.904   0.997 -0.7345 -3.3309 -0.0242
  927MOL0     H27883   4.287   0.811   0.921 -0.6355  0.0998  0.2698
  927MOL0     H27884   4.320   0.801   0.601 -0.6783 -1.3953  0.4424
  927MOL0     H27885   4.390   0.716   0.387 -1.5029 -1.3154  2.2624
  927MOL0     H27886   4.456   0.571   0.470  0.0975 -0.7330 -1.5963
  927MOL0     H27887   4.550   0.658   0.349  0.8669 -0.8312  0.2677
  927MOL0     H27888   4.994   0.554   0.548  0.0525 -0.7420 -1.5227
  927MOL0     H27889   5.211   0.459   0.485  0.9673  0.3978  0.0608
  927MOL0     H27890   5.465   0.744   0.225  2.9879  0.9738 -0.5737
  927MOL0     H27891   5.524   0.724   0.398  0.1176 -2.4244  1.3394
  927MOL0     H27892   5.590   0.537   0.182  2.7497  0.0216  0.1289
  927MOL0     H27893   5.697   0.667   0.221 -1.1967  0.9168  0.3210
  927MOL0     H27894   5.600   0.435   0.396  1.5126 -0.4880  0.8262
  927MOL0     H27895   5.712   0.558   0.457 -2.9842  3.6739  0.2251
  927MOL0     H27896   5.886   0.479   0.282 -2.3799  3.2576 -2.6167
  927MOL0     H27897   5.769   0.369   0.216  1.0317 -3.3862  1.2029
  927MOL0     H27898   5.891   0.355   0.494  2.2739  1.7363 -1.4280
  927MOL0     H27899   5.748   0.267   0.437 -0.9512  1.4781  0.5573
  927MOL0     H27900   6.038   0.253   0.329  0.8886 -0.1382  1.9569
  927MOL0     H27901   5.903   0.183   0.240  1.1178  1.3484 -0.8013
  927MOL0     H27902   5.864   0.063   0.485  0.9384 -0.1533  0.4886
  927MOL0     H27903   6.018   0.112   0.510 -1.1173  0.8889  0.5543
  927MOL0     H27904   5.934  -0.040   0.256 -0.0854  1.5443  1.2118
  927MOL0     H27905   6.025  -0.118   0.392  0.2748 -1.2416 -1.5301
  927MOL0     H27906   5.301   0.832   0.274  0.2198  1.1042  1.5561
  927MOL0     H27907   5.073   0.901   0.320  0.3914  1.2531  1.5785
  927MOL0     H27908   4.803   0.837   0.750 -0.4969 -0.3103  0.8333
  927MOL0     H27909   4.629   0.955   0.872  1.5013  0.3020 -0.2034
  927MOL0     H27910   2.803   0.559   1.364  1.3713  3.2286 -1.0359
  927MOL0     H27911   2.649   0.482   1.531 -0.7171 -0.6345  3.8193
  927MOL0     H27912   2.277   0.750   1.833  1.4036  0.4184  1.7213
  927MOL0     H27913   2.100   0.688   1.997  1.4842  0.9164 -0.2972
  927MOL0     H27914   2.085   0.258   2.089 -1.1069 -1.6701  1.1945
  927MOL0     H27915   2.153   0.318   2.233 -0.7814 -1.9165  0.6300
  927MOL0     H27916   1.884   0.373   2.275 -0.4044 -0.9069 -0.5981
  927MOL0     H27917   1.954   0.208   2.298 -0.8702 -1.0771  0.0915
  927MOL0     H27918   1.803   0.334   2.081  1.2777  2.1894  2.5292
  927MOL0     H27919   1.880   0.171   2.061 -0.0006  0.9452 -0.9174
  927MOL0     H27920   1.671   0.225   2.285  0.3744  2.5629 -1.4776
  927MOL0     H27921   1.731   0.071   2.227  1.9882 -0.4095 -0.6235
  927MOL0     H27922   1.399   0.212   1.988  1.1069  0.0038 -3.5154
  927MOL0     H27923   2.304   0.313   2.056  0.6305 -1.0019  0.0834
  927MOL0     H27924   2.520   0.351   1.781 -3.1563  0.1632 -0.5180
  927MOL0     H27925   2.585   0.384   1.944  1.4959 -2.0713 -0.1129
  927MOL0     H27926   2.469   0.254   1.918 -3.3166  0.0503 -1.5615
  928MOL0     O27927   3.338   1.110   6.036  0.8675  0.1068  0.0399
  928MOL0     C27928   3.264   1.210   6.021 -0.7957  0.5191 -0.1470
  928MOL0     O27929   3.310   1.327   5.969 -0.0419 -0.6903 -0.1358
  928MOL0     C27930   3.436   1.360   5.922  1.0058  0.2822 -0.6180
  928MOL0     C27931   3.460   1.498   5.913 -0.2275  0.7687  0.3037
  928MOL0     C27932   3.584   1.539   5.866  0.2561  0.9912 -0.6926
  928MOL0     C27933   3.675   1.447   5.814 -0.4706  0.4315 -0.4551
  928MOL0     O27934   3.783   1.499   5.757  0.0704  0.0616 -0.1986
  928MOL0     C27935   3.897   1.409   5.762  0.6562 -0.2188  1.0931
  928MOL0     C27936   4.032   1.482   5.743  0.5301 -0.3183 -1.1391
  928MOL0     C27937   4.065   1.580   5.859 -0.1840 -0.2395  0.0337
  928MOL0     C27938   4.191   1.660   5.831  0.0484 -0.1412  0.3834
  928MOL0     C27939   4.230   1.771   5.940 -0.6517  0.2395 -0.2870
  928MOL0     C27940   4.362   1.850   5.909  0.5177 -0.4308  0.3434
  928MOL0     C27941   4.389   1.950   6.014 -0.4153 -0.2336  0.3274
  928MOL0     C27942   4.516   2.024   5.983  0.0357  0.1596 -0.4830
  928MOL0     N27943   4.636   1.940   5.999  0.6666  0.6114  1.2992
  928MOL0     C27944   4.697   1.877   5.897 -0.5179  0.3803  0.7307
  928MOL0     C27945   4.803   1.816   5.953 -0.2889  0.6063  0.3656
  928MOL0     C27946   4.919   1.760   5.868  1.5566  0.2004  0.4022
  928MOL0     C27947   5.032   1.868   5.837 -0.0333 -0.9040 -0.7529
  928MOL0     C27948   5.145   1.889   5.940 -0.4655 -0.3121  1.3996
  928MOL0     C27949   5.255   1.981   5.888 -0.1867 -0.8942 -0.2018
  928MOL0     O27950   5.221   2.122   5.926  0.1575 -0.0549  0.4874
  928MOL0     C27951   5.321   2.205   5.892  0.4168  0.4520 -0.0903
  928MOL0     C27952   5.296   2.331   5.927 -0.2644 -0.9455 -0.4632
  928MOL0     C27953   5.388   2.434   5.902 -0.0304  0.4169  0.3363
  928MOL0     C27954   5.338   2.575   5.940  0.3008  0.8038 -0.0866
  928MOL0     C27955   5.509   2.406   5.834 -0.4187  0.0212  0.3972
  928MOL0     C27956   5.611   2.502   5.789 -0.3971  0.0682 -0.3026
  928MOL0     O27957   5.719   2.449   5.721  0.2068  1.1811  0.9929
  928MOL0     C27958   5.830   2.524   5.712  0.1614 -0.1249 -0.1574
  928MOL0     C27959   5.938   2.462   5.776  0.6343  0.1809  0.3360
  928MOL0     C27960   6.063   2.523   5.749  0.6608 -0.6850 -0.0941
  928MOL0     C27961   6.077   2.642   5.665  0.2081  0.3237 -0.1668
  928MOL0     O27962   6.202   2.706   5.653 -0.0453  0.4260  0.3186
  928MOL0     C27963   6.231   2.780   5.528 -0.3786  0.0226 -0.4638
  928MOL0     C27964   6.363   2.759   5.453 -0.7795  0.5218 -0.6355
  928MOL0     C27965   6.480   2.806   5.537  0.4871 -0.4429 -0.4678
  928MOL0     C27966   6.481   2.959   5.557  0.1931 -0.4790  0.1966
  928MOL0     C27967   6.623   3.020   5.577 -0.2097 -0.9648 -0.8479
  928MOL0     C27968   6.695   2.971   5.709 -0.4146 -0.6787  0.4811
  928MOL0     C27969   6.820   3.056   5.751  0.3657 -0.5084 -0.0671
  928MOL0     C27970   6.880   2.991   5.868  0.6187 -0.4244  0.2296
  928MOL0    Cl27971   7.007   2.876   5.794  0.4606  0.2153  0.2286
  928MOL0     C27972   5.963   2.701   5.610  0.2568  0.1933 -0.1273
  928MOL0     C27973   5.836   2.643   5.638  0.2736 -0.7297  0.6564
  928MOL0     O27974   5.582   2.618   5.790 -0.2447 -0.7430  0.2624
  928MOL0     C27975   5.535   2.270   5.803 -0.0724 -0.2873 -1.4242
  928MOL0     C27976   5.439   2.173   5.828  0.7402 -0.2197  0.6451
  928MOL0     N27977   4.811   1.831   6.088  0.7042 -0.4119 -0.0876
  928MOL0     N27978   4.701   1.897   6.111 -0.7573  0.6902 -0.2123
  928MOL0     C27979   3.653   1.309   5.835 -0.8702 -0.3175 -0.3117
  928MOL0     C27980   3.529   1.266   5.885 -0.6148  0.3792 -0.1586
  928MOL0     C27981   3.120   1.194   6.042  0.1029  0.0945 -0.0981
  928MOL0     C27982   3.069   1.066   6.092  0.3225 -0.2508  0.6886
  928MOL0     C27983   2.935   1.050   6.129 -0.5876  0.4318 -0.0641
  928MOL0     C27984   2.841   1.153   6.110 -0.6006 -0.3442 -0.0272
  928MOL0     O27985   2.709   1.130   6.149 -0.3388  0.5045 -0.3069
  928MOL0     C27986   2.689   1.164   6.288  0.6615 -0.6021  0.0754
  928MOL0     C27987   2.539   1.164   6.310 -0.7351  0.5476  0.2423
  928MOL0     C27988   2.479   1.029   6.266 -0.2656 -0.2527  0.2903
  928MOL0     C27989   2.330   1.023   6.314  0.5534 -0.3987  0.5247
  928MOL0     C27990   2.315   1.021   6.457 -0.2239 -0.4051  0.7394
  928MOL0     C27991   2.288   1.010   6.570 -0.0662 -0.3890 -1.3223
  928MOL0     C27992   2.884   1.282   6.068  0.0369 -0.4457 -0.1127
  928MOL0     C27993   3.019   1.308   6.034 -0.9007 -1.2665  0.4385
  928MOL0     C27994   3.066   1.453   6.018 -0.4733 -0.1498 -0.0114
  928MOL0     H27995   3.389   1.575   5.940 -0.8022  0.1879  0.4734
  928MOL0     H27996   3.601   1.646   5.855  0.2926  0.8377 -2.5303
  928MOL0     H27997   3.881   1.346   5.674  1.0212  2.7307 -1.2328
  928MOL0     H27998   3.901   1.348   5.853 -1.4244  0.6609  1.8291
  928MOL0     H27999   4.112   1.409   5.754 -1.6356 -2.4367  2.5888
  928MOL0     H28000   4.035   1.530   5.644  0.0939  0.5942 -0.7180
  928MOL0     H28001   3.979   1.645   5.876 -0.8983 -1.0389 -0.4650
  928MOL0     H28002   4.094   1.533   5.954 -1.3034 -2.1959 -0.5335
  928MOL0     H28003   4.278   1.595   5.835  0.2198 -0.0677 -1.3771
  928MOL0     H28004   4.191   1.703   5.730 -0.6907 -0.7166  0.1298
  928MOL0     H28005   4.238   1.720   6.037 -1.9506 -0.2793 -0.4354
  928MOL0     H28006   4.150   1.845   5.939  0.2521  1.2505 -2.2179
  928MOL0     H28007   4.452   1.789   5.907  0.4501 -0.5757  1.1171
  928MOL0     H28008   4.343   1.895   5.811  1.3115  0.0590  0.4098
  928MOL0     H28009   4.397   1.896   6.109 -1.1695 -2.4565 -0.8072
  928MOL0     H28010   4.309   2.023   6.030 -3.5815 -3.0996 -1.1781
  928MOL0     H28011   4.529   2.080   5.890  1.0485 -1.8094 -1.5933
  928MOL0     H28012   4.512   2.105   6.057 -0.5067 -1.5960  1.5164
  928MOL0     H28013   4.675   1.874   5.791 -0.7678  1.8145  0.7224
  928MOL0     H28014   4.876   1.726   5.773 -0.0311 -0.7284  1.3882
  928MOL0     H28015   4.964   1.668   5.907 -3.0496 -4.8882 -4.3239
  928MOL0     H28016   5.079   1.845   5.741  0.5400 -0.1428 -0.6649
  928MOL0     H28017   4.991   1.969   5.826  1.8132  0.0562  0.5822
  928MOL0     H28018   5.092   1.929   6.027  0.1404  0.0414  1.6117
  928MOL0     H28019   5.201   1.796   5.957 -0.7465 -1.3352 -2.2512
  928MOL0     H28020   5.344   1.947   5.942 -0.0629  1.3959  1.1488
  928MOL0     H28021   5.259   1.972   5.779 -1.5995  0.0956 -0.3582
  928MOL0     H28022   5.201   2.353   5.974  0.2592 -1.3829  0.8244
  928MOL0     H28023   5.257   2.570   6.014 -2.5899  0.0750 -3.0574
  928MOL0     H28024   5.288   2.623   5.855 -2.6588  0.5020  1.3482
  928MOL0     H28025   5.419   2.639   5.978  1.8365 -2.1103  1.9434
  928MOL0     H28026   5.922   2.372   5.834  1.3682  1.0133  1.8824
  928MOL0     H28027   6.152   2.481   5.795  1.0499 -0.6853 -0.8280
  928MOL0     H28028   6.151   2.765   5.455 -2.5164  0.2064  1.6724
  928MOL0     H28029   6.211   2.883   5.559 -1.8746 -0.6898  1.1655
  928MOL0     H28030   6.379   2.654   5.429 -1.2276  0.1476  0.6402
  928MOL0     H28031   6.362   2.814   5.358 -0.3275 -0.2978 -1.1227
  928MOL0     H28032   6.575   2.763   5.503  0.4578 -2.2357  1.5380
  928MOL0     H28033   6.463   2.755   5.632  1.1622  1.0051  0.4786
  928MOL0     H28034   6.416   2.968   5.645 -1.9584  0.5763 -1.4100
  928MOL0     H28035   6.428   3.007   5.474 -0.5353 -2.4266 -0.5198
  928MOL0     H28036   6.676   2.993   5.486 -0.3307 -2.0432 -0.6143
  928MOL0     H28037   6.627   3.128   5.593 -0.1998 -1.2296  1.2608
  928MOL0     H28038   6.717   2.866   5.688  1.1376  0.1843 -2.9084
  928MOL0     H28039   6.631   2.974   5.798 -1.7237 -2.2253 -0.3404
  928MOL0     H28040   6.782   3.154   5.779 -1.8325 -1.9233  2.3829
  928MOL0     H28041   6.896   3.078   5.676  1.5206  1.0952  1.4864
  928MOL0     H28042   6.812   2.944   5.940  1.5374 -0.5782  1.0156
  928MOL0     H28043   6.930   3.075   5.915  0.1889 -0.5234  0.8832
  928MOL0     H28044   5.964   2.800   5.567 -2.1248  0.5308  0.4461
  928MOL0     H28045   5.753   2.683   5.582 -0.2394 -0.1966  1.7803
  928MOL0     H28046   5.628   2.236   5.758 -0.3181  1.1107 -3.0888
  928MOL0     H28047   5.463   2.074   5.791  2.4826  0.6958 -0.8233
  928MOL0     H28048   3.719   1.229   5.801  1.1356  0.5470  1.3317
  928MOL0     H28049   3.522   1.159   5.876  0.1059  0.2846  0.3094
  928MOL0     H28050   3.141   0.987   6.112  1.6077  1.5866  4.0799
  928MOL0     H28051   2.894   0.952   6.154 -0.4035  0.9609  2.5782
  928MOL0     H28052   2.739   1.094   6.357  1.0556 -0.9711 -0.5730
  928MOL0     H28053   2.723   1.265   6.310  0.4424 -0.8173  1.5530
  928MOL0     H28054   2.487   1.253   6.272 -0.8297  1.4042  2.2537
  928MOL0     H28055   2.533   1.168   6.419  2.5290 -2.1073  0.6718
  928MOL0     H28056   2.486   1.013   6.158 -1.0947 -0.9178  0.3260
  928MOL0     H28057   2.526   0.947   6.321  1.0320 -1.1730 -2.0412
  928MOL0     H28058   2.296   0.932   6.263  1.2474  0.1047 -0.9061
  928MOL0     H28059   2.261   1.102   6.282  0.9758  0.6903  2.1918
  928MOL0     H28060   2.258   1.016   6.673 -1.5799 -0.5588 -1.7347
  928MOL0     H28061   2.813   1.364   6.066 -0.2161 -0.5419  2.1530
  928MOL0     H28062   3.117   1.475   5.924 -0.0572  0.4782  0.3498
  928MOL0     H28063   2.987   1.528   6.029  1.4792  1.9224  0.7452
  928MOL0     H28064   3.134   1.490   6.096  1.1486 -0.7212 -1.1027
  929MOL0     O28065   8.461   2.693  10.059  0.0546  0.1488 -0.6190
  929MOL0     C28066   8.344   2.710  10.032  0.1574  0.2784 -0.5514
  929MOL0     O28067   8.273   2.819  10.069  0.0839  0.0892 -0.8158
  929MOL0     C28068   8.332   2.927  10.132 -0.6103 -0.5028  0.3749
  929MOL0     C28069   8.344   3.042  10.057  0.4468  0.2170  0.2051
  929MOL0     C28070   8.414   3.153  10.107  0.4732  0.4978  1.1306
  929MOL0     C28071   8.457   3.149  10.243  0.4173  0.7467  0.3785
  929MOL0     O28072   8.518   3.259  10.307  0.0498  0.9334  0.0406
  929MOL0     C28073   8.609   3.344  10.239  0.2533  0.7585  0.4200
  929MOL0     C28074   8.727   3.420  10.312  0.3509 -0.0069  0.0372
  929MOL0     C28075   8.856   3.334  10.299 -0.1312 -1.2259 -0.0599
  929MOL0     C28076   8.959   3.407  10.374  0.2500  0.3104  0.6179
  929MOL0     C28077   9.067   3.314  10.417 -0.3363  0.6285  1.0216
  929MOL0     C28078   9.194   3.399  10.421  1.3929  0.0860 -0.7424
  929MOL0     C28079   9.182   3.496  10.540  0.5466  0.1744  0.0325
  929MOL0     C28080   9.295   3.477  10.645  0.1556  0.3165  0.6939
  929MOL0     N28081   9.418   3.525  10.590 -0.6488  0.6960 -0.0669
  929MOL0     C28082   9.534   3.455  10.597  0.3510 -0.7669  0.3289
  929MOL0     C28083   9.629   3.550  10.573  0.0090 -0.2000 -0.4574
  929MOL0     C28084   9.774   3.519  10.572  0.0182  0.0158 -0.6134
  929MOL0     C28085   9.855   3.578  10.692  0.2444 -0.1758 -0.4338
  929MOL0     C28086   9.991   3.505  10.704  0.8561  0.2815 -0.4603
  929MOL0     C28087  10.082   3.567  10.809 -0.7784  0.6227 -0.3589
  929MOL0     O28088  10.177   3.456  10.834  0.1739 -0.8791  0.1189
  929MOL0     C28089  10.271   3.492  10.926 -0.3598  0.9371 -0.3599
  929MOL0     C28090  10.301   3.621  10.969 -0.6825  0.9076 -0.7859
  929MOL0     C28091  10.408   3.651  11.058 -0.3327  0.0451 -0.2147
  929MOL0     C28092  10.391   3.781  11.125  0.0225  0.3462  0.2592
  929MOL0     C28093  10.497   3.543  11.094  1.0512 -0.1774  0.3137
  929MOL0     C28094  10.616   3.552  11.183 -0.1634  0.4898 -0.0229
  929MOL0     O28095  10.692   3.441  11.197 -0.4448 -0.6137 -0.1382
  929MOL0     C28096  10.774   3.433  11.302  0.0789 -0.4487 -0.2149
  929MOL0     C28097  10.867   3.532  11.336  0.2411  0.0207 -0.1581
  929MOL0     C28098  10.961   3.509  11.440  0.2960 -0.1859  0.3636
  929MOL0     C28099  10.963   3.391  11.509 -0.8105  0.5191 -0.5412
  929MOL0     O28100  11.055   3.383  11.609 -0.2383 -0.8336 -0.0078
  929MOL0     C28101  11.098   3.256  11.649  0.5391 -0.3797 -0.3218
  929MOL0     C28102  11.208   3.257  11.752 -0.4821  0.2162 -0.0726
  929MOL0     C28103  11.149   3.249  11.889 -0.6124  0.0339 -0.1604
  929MOL0     C28104  11.267   3.208  11.981  0.1065  0.8597 -0.7262
  929MOL0     C28105  11.223   3.230  12.137 -0.3836 -0.3999 -0.0277
  929MOL0     C28106  11.336   3.191  12.233  0.2835 -0.6424  0.6225
  929MOL0     C28107  11.360   3.035  12.217 -0.3958 -1.1840  0.3915
  929MOL0     C28108  11.420   2.978  12.341  0.1743 -0.0343 -0.5263
  929MOL0    Cl28109  11.305   3.010  12.476 -0.3543 -0.1047 -0.1198
  929MOL0     C28110  10.867   3.296  11.478 -0.4569  0.0162 -0.4781
  929MOL0     C28111  10.766   3.315  11.382 -0.4397  0.0627 -0.5409
  929MOL0     O28112  10.636   3.664  11.234 -0.4394  0.7481  0.3180
  929MOL0     C28113  10.479   3.414  11.031  0.7973  0.2402 -0.1856
  929MOL0     C28114  10.359   3.385  10.964  0.7038 -0.7797 -0.2034
  929MOL0     N28115   9.577   3.679  10.572 -0.4733  0.7534 -0.1257
  929MOL0     N28116   9.453   3.656  10.587  0.6805 -0.5048 -0.4825
  929MOL0     C28117   8.429   3.038  10.318  0.0548 -0.2806 -0.0124
  929MOL0     C28118   8.372   2.924  10.267 -0.5979  0.8707  0.1305
  929MOL0     C28119   8.270   2.609   9.957 -0.4640  0.3567  0.3553
  929MOL0     C28120   8.139   2.638   9.901  0.0796 -0.2377 -0.5582
  929MOL0     C28121   8.071   2.549   9.828  0.0665  0.0848 -0.3692
  929MOL0     C28122   8.125   2.421   9.802 -1.0581 -0.3136 -0.0332
  929MOL0     O28123   8.060   2.317   9.746 -0.5594 -0.5564 -0.6752
  929MOL0     C28124   7.921   2.320   9.739 -0.2383 -0.7658 -0.2557
  929MOL0     C28125   7.861   2.171   9.747  0.2240  0.0234 -0.0207
  929MOL0     C28126   7.941   2.069   9.842  0.4705  0.1127  0.1464
  929MOL0     C28127   7.851   1.953   9.879 -0.9973 -0.3008  0.6972
  929MOL0     C28128   7.787   1.887   9.765  0.7505  0.2549 -0.1521
  929MOL0     C28129   7.720   1.852   9.674  0.4591  0.3427  1.0593
  929MOL0     C28130   8.250   2.388   9.858 -0.3842 -0.3234 -0.1951
  929MOL0     C28131   8.318   2.474   9.945  0.3372 -0.1333 -0.4951
  929MOL0     C28132   8.426   2.405  10.029 -0.0198 -0.1473 -0.7131
  929MOL0     H28133   8.310   3.055   9.955  0.5892  3.2472  0.4614
  929MOL0     H28134   8.435   3.241  10.046 -0.0317 -1.0022 -1.3616
  929MOL0     H28135   8.545   3.417  10.188 -0.6943 -2.2013 -2.9581
  929MOL0     H28136   8.652   3.283  10.159 -0.0704 -2.9413  2.8243
  929MOL0     H28137   8.729   3.521  10.271 -0.5537  0.4203  1.0068
  929MOL0     H28138   8.697   3.434  10.416  0.7796 -0.3800  0.2148
  929MOL0     H28139   8.836   3.234  10.340 -0.0558 -1.9004 -1.5842
  929MOL0     H28140   8.879   3.331  10.192  1.7510  1.1749  0.2095
  929MOL0     H28141   9.004   3.480  10.307 -1.3694 -0.9099 -1.9595
  929MOL0     H28142   8.914   3.450  10.464 -0.0807 -0.8248  1.0146
  929MOL0     H28143   9.087   3.244  10.335 -1.3285  1.0794  0.3757
  929MOL0     H28144   9.045   3.257  10.508  1.3153 -0.6350  0.6852
  929MOL0     H28145   9.283   3.337  10.439 -0.9864 -2.7749  2.5897
  929MOL0     H28146   9.215   3.453  10.328  1.2402 -0.4637 -1.1019
  929MOL0     H28147   9.085   3.485  10.590  0.5594  2.3096  0.6124
  929MOL0     H28148   9.184   3.599  10.505  0.1700  0.1210 -0.1450
  929MOL0     H28149   9.277   3.536  10.736  6.0413  2.4809  0.8380
  929MOL0     H28150   9.307   3.371  10.669  2.0135  0.2218 -0.4805
  929MOL0     H28151   9.564   3.351  10.612 -0.0616 -1.4613 -2.9665
  929MOL0     H28152   9.826   3.558  10.484  0.8822 -3.4357 -1.7970
  929MOL0     H28153   9.781   3.411  10.559  0.2309 -0.1777  0.9070
  929MOL0     H28154   9.863   3.686  10.676 -3.5542  0.3463  0.2420
  929MOL0     H28155   9.806   3.568  10.789  1.5361 -0.8311  0.1789
  929MOL0     H28156   9.968   3.404  10.741 -1.3124  1.1039  0.5607
  929MOL0     H28157  10.055   3.502  10.615  3.3004 -1.8848  1.2169
  929MOL0     H28158  10.138   3.650  10.764 -3.7829  2.4769 -0.9473
  929MOL0     H28159  10.031   3.590  10.903  1.8581  0.9362  1.0891
  929MOL0     H28160  10.230   3.703  10.962  0.3478  1.9343  0.3481
  929MOL0     H28161  10.346   3.757  11.221  0.3934  3.0788  1.2102
  929MOL0     H28162  10.325   3.845  11.066  0.6762 -0.0299 -0.9084
  929MOL0     H28163  10.481   3.838  11.148  0.9784 -0.0772 -2.1068
  929MOL0     H28164  10.867   3.630  11.291  2.5474  0.8339  1.4683
  929MOL0     H28165  11.032   3.590  11.450 -2.5417  2.7252 -1.1195
  929MOL0     H28166  11.011   3.197  11.678 -0.2325  0.9119  0.1024
  929MOL0     H28167  11.143   3.203  11.565  0.0831  1.4503 -1.7922
  929MOL0     H28168  11.274   3.170  11.745  0.2546  0.8458 -1.2422
  929MOL0     H28169  11.281   3.338  11.743 -0.7973  0.5906  0.6311
  929MOL0     H28170  11.070   3.176  11.908 -1.3360  0.5034 -1.2469
  929MOL0     H28171  11.103   3.347  11.906  0.0332  0.2666  0.3108
  929MOL0     H28172  11.342   3.287  11.978  1.1032 -0.1047 -2.7119
  929MOL0     H28173  11.299   3.106  11.962 -1.1427  0.5171 -1.0692
  929MOL0     H28174  11.204   3.337  12.149  4.4052  0.6284  0.2109
  929MOL0     H28175  11.134   3.172  12.165 -2.4355  2.4196 -0.2069
  929MOL0     H28176  11.303   3.220  12.333 -0.5640 -1.5660  0.6287
  929MOL0     H28177  11.432   3.241  12.219 -0.6424  1.7004  2.0827
  929MOL0     H28178  11.420   3.013  12.128 -0.9860 -1.6248  0.0901
  929MOL0     H28179  11.268   2.982  12.189 -1.7243  0.2720  1.8158
  929MOL0     H28180  11.522   3.012  12.363  0.4709 -1.1802 -0.0789
  929MOL0     H28181  11.430   2.872  12.316  1.4780  0.1606 -0.9242
  929MOL0     H28182  10.856   3.204  11.533  0.9241 -1.6654 -2.8048
  929MOL0     H28183  10.696   3.233  11.378 -0.3483 -0.0931  0.6121
  929MOL0     H28184  10.551   3.334  11.047 -0.7198 -1.6616 -2.3051
  929MOL0     H28185  10.344   3.279  10.947  0.5209 -0.8194  0.2117
  929MOL0     H28186   8.456   3.030  10.422  0.9223  2.0693 -0.0052
  929MOL0     H28187   8.364   2.830  10.321 -1.3487 -0.6450 -2.4297
  929MOL0     H28188   8.096   2.737   9.904  1.0928  0.2217  2.3082
  929MOL0     H28189   7.983   2.581   9.772 -0.6707 -1.6213 -0.2456
  929MOL0     H28190   7.888   2.374   9.828 -0.2739 -2.2913  0.6794
  929MOL0     H28191   7.889   2.359   9.642 -0.7531 -3.4796 -1.2505
  929MOL0     H28192   7.851   2.131   9.646 -0.8759 -0.3560  0.2227
  929MOL0     H28193   7.762   2.186   9.791 -0.0978  0.0844 -0.7453
  929MOL0     H28194   8.026   2.033   9.784 -0.3687 -0.9231 -0.4806
  929MOL0     H28195   7.965   2.121   9.935 -2.2927 -0.8455  1.5015
  929MOL0     H28196   7.777   1.974   9.957 -2.9193 -4.4377  0.2729
  929MOL0     H28197   7.913   1.878   9.930 -0.9865 -1.3611 -0.7999
  929MOL0     H28198   7.653   1.831   9.593  2.6647 -1.4816 -0.3843
  929MOL0     H28199   8.263   2.281   9.843 -2.2959 -0.5882 -0.2919
  929MOL0     H28200   8.383   2.310  10.064 -2.1517  1.4533  1.3401
  929MOL0     H28201   8.522   2.398   9.977  0.6567  3.9849 -0.3805
  929MOL0     H28202   8.447   2.458  10.123 -1.3250 -2.1042  0.7764
  930MOL0     O28203  10.257   2.258   7.170  0.1802  0.5640  0.1376
  930MOL0     C28204  10.164   2.292   7.244  0.2101  0.3619 -0.0729
  930MOL0     O28205  10.038   2.246   7.234  0.6871 -0.9534  0.8670
  930MOL0     C28206  10.008   2.151   7.129 -0.1682  0.1484  0.2831
  930MOL0     C28207   9.881   2.153   7.070 -0.0680  0.1227  0.8564
  930MOL0     C28208   9.843   2.057   6.975 -0.4647  1.0627  0.2257
  930MOL0     C28209   9.924   1.949   6.946  0.0163 -0.4069 -0.7150
  930MOL0     O28210   9.869   1.859   6.860  0.2254  0.8404 -0.2983
  930MOL0     C28211   9.899   1.721   6.887  0.3794 -0.2520  0.3006
  930MOL0     C28212   9.839   1.646   6.773  0.0162 -0.1081 -0.3912
  930MOL0     C28213   9.886   1.494   6.785  0.0037 -0.4206  0.7963
  930MOL0     C28214  10.041   1.468   6.764  0.6722 -0.7387 -0.2123
  930MOL0     C28215  10.082   1.330   6.728 -0.0310  0.3062  0.3364
  930MOL0     C28216  10.069   1.218   6.835 -0.3624 -0.4162  0.4579
  930MOL0     C28217  10.097   1.081   6.769 -0.8263  1.3558 -0.7003
  930MOL0     C28218  10.251   1.067   6.743  0.4684  0.2463 -0.2801
  930MOL0     N28219  10.303   0.929   6.735  0.0224  0.0569  0.7615
  930MOL0     C28220  10.298   0.858   6.625 -0.0925  1.0023 -0.4862
  930MOL0     C28221  10.299   0.731   6.674  0.0136  0.1867  0.1033
  930MOL0     C28222  10.281   0.609   6.587 -0.0836 -0.2875 -0.1590
  930MOL0     C28223  10.418   0.540   6.577 -0.5772  0.1269 -0.7205
  930MOL0     C28224  10.535   0.634   6.524 -0.5122  0.0770 -0.4091
  930MOL0     C28225  10.665   0.557   6.508  0.4213  0.3037 -0.1455
  930MOL0     O28226  10.764   0.647   6.468  0.0502  0.3101  0.2861
  930MOL0     C28227  10.894   0.616   6.449  0.5930  0.3526 -0.7585
  930MOL0     C28228  10.982   0.721   6.417  0.3647 -0.3195 -0.6308
  930MOL0     C28229  11.118   0.709   6.417 -0.7410  0.3471 -0.0122
  930MOL0     C28230  11.203   0.837   6.391  0.2538  0.3401 -0.2114
  930MOL0     C28231  11.177   0.586   6.447 -0.1844 -0.0973 -0.9390
  930MOL0     C28232  11.326   0.572   6.447  0.6472  0.5333  0.1569
  930MOL0     O28233  11.408   0.665   6.493 -0.0533 -0.2016  0.1400
  930MOL0     C28234  11.538   0.656   6.490  0.1318  0.0060 -0.1352
  930MOL0     C28235  11.608   0.764   6.433 -0.4185  0.0590  0.3665
  930MOL0     C28236  11.752   0.762   6.423  0.7301 -0.2167  1.2338
  930MOL0     C28237  11.828   0.650   6.466 -0.5163  0.2516  0.1248
  930MOL0     O28238  11.964   0.640   6.442  0.0429 -0.1124 -0.1136
  930MOL0     C28239  12.016   0.705   6.327  0.1637 -0.5201 -0.1539
  930MOL0     C28240  12.081   0.838   6.363  0.3653 -0.4008 -0.0397
  930MOL0     C28241  12.217   0.829   6.418 -0.8120  0.2570  0.2755
  930MOL0     C28242  12.293   0.962   6.418  0.2844 -0.6234  0.1693
  930MOL0     C28243  12.432   0.927   6.470  0.4163 -0.0086  1.0311
  930MOL0     C28244  12.515   1.057   6.476  0.0477 -0.2049 -0.1570
  930MOL0     C28245  12.648   1.029   6.551  0.2413 -0.6447  0.9869
  930MOL0     C28246  12.733   0.925   6.489  0.0893 -0.4790 -0.2937
  930MOL0    Cl28247  12.893   0.914   6.572  0.0541 -0.3346 -0.0348
  930MOL0     C28248  11.752   0.540   6.503 -0.0591 -0.2593 -0.6723
  930MOL0     C28249  11.617   0.536   6.515 -0.2674  0.2853  0.1054
  930MOL0     O28250  11.360   0.465   6.392  0.7367 -0.2727 -0.3804
  930MOL0     C28251  11.087   0.478   6.474 -0.0027 -0.0791  0.1133
  930MOL0     C28252  10.951   0.490   6.478  0.6796 -0.3286  0.4583
  930MOL0     N28253  10.310   0.734   6.814 -0.4606 -0.9751 -0.0634
  930MOL0     N28254  10.325   0.855   6.842 -0.1041  0.2564 -0.8618
  930MOL0     C28255  10.043   1.930   7.021  0.5115 -0.6750 -0.2828
  930MOL0     C28256  10.090   2.034   7.108 -0.8901 -0.0887  0.1376
  930MOL0     C28257  10.191   2.415   7.323  0.3055  0.6854 -1.1488
  930MOL0     C28258  10.327   2.455   7.333 -0.3240  0.1436  0.5010
  930MOL0     C28259  10.363   2.560   7.415 -0.0039  0.4124  0.5159
  930MOL0     C28260  10.265   2.639   7.473 -0.3968  0.1759 -0.4735
  930MOL0     O28261  10.315   2.736   7.556  0.0540  0.2170  0.1376
  930MOL0     C28262  10.242   2.841   7.607 -0.4416  0.4176  0.0062
  930MOL0     C28263  10.238   2.960   7.514 -0.4069 -0.1533  0.3171
  930MOL0     C28264  10.095   2.982   7.470  0.1285  0.2157 -0.2931
  930MOL0     C28265  10.069   3.024   7.323 -0.4547  0.2775 -0.5693
  930MOL0     C28266  10.077   2.907   7.230 -0.7579 -0.2451  0.2815
  930MOL0     C28267  10.095   2.808   7.164  0.1476 -0.7054  0.4107
  930MOL0     C28268  10.128   2.602   7.470  0.1292  0.6038  0.1943
  930MOL0     C28269  10.089   2.491   7.397  0.7983 -0.2918  1.1810
  930MOL0     C28270   9.942   2.448   7.401  0.4238  0.2117  0.0751
  930MOL0     H28271   9.817   2.232   7.108  1.4148  0.9725  1.6809
  930MOL0     H28272   9.738   2.059   6.945 -0.3890 -1.4622 -0.4555
  930MOL0     H28273   9.885   1.691   6.992 -0.2341  2.8596  1.2258
  930MOL0     H28274  10.005   1.723   6.862  0.8205 -1.8263  1.8076
  930MOL0     H28275   9.730   1.641   6.776  0.0709 -3.8870  0.4748
  930MOL0     H28276   9.874   1.685   6.677 -1.0598 -1.7142 -1.5072
  930MOL0     H28277   9.856   1.449   6.880 -0.1266 -3.5488 -0.5890
  930MOL0     H28278   9.828   1.435   6.713  1.0329  0.1383 -0.5160
  930MOL0     H28279  10.062   1.537   6.681 -3.6500 -0.6574 -1.4608
  930MOL0     H28280  10.092   1.499   6.855 -0.1936  0.8247 -0.2181
  930MOL0     H28281  10.189   1.334   6.704  0.5013 -2.6031  1.8601
  930MOL0     H28282  10.023   1.306   6.639 -1.2775 -1.3634  1.5534
  930MOL0     H28283  10.130   1.233   6.925  0.8901 -1.1383 -0.2263
  930MOL0     H28284   9.968   1.219   6.877 -1.2281  0.3096 -1.5353
  930MOL0     H28285  10.038   1.063   6.679 -0.7378  1.1909 -0.7261
  930MOL0     H28286  10.070   1.004   6.842  1.2260 -0.7489 -2.0457
  930MOL0     H28287  10.272   1.115   6.647  0.3950 -0.1420 -0.4945
  930MOL0     H28288  10.313   1.115   6.819 -0.9870  1.9728 -0.1467
  930MOL0     H28289  10.298   0.902   6.525 -0.8071  1.0678 -0.4640
  930MOL0     H28290  10.251   0.647   6.489 -2.5516 -1.2980  0.1410
  930MOL0     H28291  10.206   0.539   6.625  0.7229 -2.5909 -2.5359
  930MOL0     H28292  10.448   0.482   6.665 -0.3135  0.1422 -0.7993
  930MOL0     H28293  10.414   0.461   6.501 -0.5469 -0.8785  0.2874
  930MOL0     H28294  10.499   0.683   6.433 -0.2142 -0.4046 -0.7970
  930MOL0     H28295  10.553   0.709   6.600 -1.3304 -0.6329  0.5130
  930MOL0     H28296  10.701   0.510   6.600  3.2513  3.2343  0.4445
  930MOL0     H28297  10.655   0.472   6.441 -1.6040  0.6612 -0.3598
  930MOL0     H28298  10.945   0.817   6.383  3.0235  0.4395 -1.5875
  930MOL0     H28299  11.244   0.836   6.290  1.3203  3.2941  0.0967
  930MOL0     H28300  11.281   0.848   6.467  0.2290 -2.4454  0.3020
  930MOL0     H28301  11.139   0.925   6.403  2.0088  1.7471 -0.7087
  930MOL0     H28302  11.549   0.847   6.394  0.1637  0.0315 -0.5899
  930MOL0     H28303  11.798   0.850   6.381  1.5070 -0.5683  1.3342
  930MOL0     H28304  12.103   0.645   6.301  0.7259  0.3223 -0.2831
  930MOL0     H28305  11.943   0.715   6.247  0.6138 -1.0267 -0.6349
  930MOL0     H28306  12.080   0.893   6.269 -2.6766  1.0436  0.6981
  930MOL0     H28307  12.030   0.892   6.444  0.5669  0.9933 -0.8201
  930MOL0     H28308  12.273   0.753   6.364 -1.8174  0.1644 -0.6879
  930MOL0     H28309  12.219   0.786   6.519 -0.8766 -4.0017 -1.3230
  930MOL0     H28310  12.235   1.035   6.476  0.2559 -2.3394  2.4080
  930MOL0     H28311  12.303   0.998   6.315  0.7609 -1.2436 -0.0020
  930MOL0     H28312  12.422   0.884   6.570  1.9519 -0.9435  0.8067
  930MOL0     H28313  12.466   0.850   6.400  1.3579  0.3889  1.0239
  930MOL0     H28314  12.452   1.129   6.527 -3.0446 -2.7780 -0.0461
  930MOL0     H28315  12.536   1.090   6.374  1.1180 -3.4689 -1.1323
  930MOL0     H28316  12.629   1.011   6.657 -1.8127 -1.8877  0.4794
  930MOL0     H28317  12.712   1.117   6.551 -1.8196  0.9250  1.3261
  930MOL0     H28318  12.751   0.956   6.385 -2.4972  2.6364  0.0147
  930MOL0     H28319  12.672   0.834   6.493 -1.8838  0.8039  1.8947
  930MOL0     H28320  11.811   0.451   6.524 -1.1419 -1.4672 -2.4914
  930MOL0     H28321  11.576   0.437   6.535 -0.1878  0.3203  0.4447
  930MOL0     H28322  11.146   0.387   6.484 -0.1950 -0.2518 -0.3030
  930MOL0     H28323  10.898   0.396   6.486  0.8946 -0.6004 -1.1085
  930MOL0     H28324  10.102   1.840   7.013  0.2022 -0.8742 -0.3231
  930MOL0     H28325  10.181   2.011   7.164 -0.5196 -1.1155 -0.8576
  930MOL0     H28326  10.410   2.403   7.286 -0.7105 -0.7942  0.8273
  930MOL0     H28327  10.467   2.591   7.415  0.9549 -2.5079 -0.1647
  930MOL0     H28328  10.145   2.823   7.654 -0.9620 -3.0311 -2.0367
  930MOL0     H28329  10.309   2.866   7.691 -1.8269 -1.2581  1.6933
  930MOL0     H28330  10.301   2.942   7.426  2.5330  2.8623  1.5658
  930MOL0     H28331  10.278   3.050   7.562 -1.9329  1.3161 -1.0499
  930MOL0     H28332  10.035   2.892   7.491  0.5093 -0.0255 -0.2331
  930MOL0     H28333  10.057   3.062   7.534 -0.9827  1.1550 -2.0658
  930MOL0     H28334  10.151   3.086   7.286  0.6606 -2.3713 -2.9427
  930MOL0     H28335   9.971   3.072   7.316 -0.3751  0.6166  0.4899
  930MOL0     H28336  10.114   2.724   7.101 -1.1922  0.3747 -1.5307
  930MOL0     H28337  10.054   2.652   7.532  0.5942  0.3232  1.0006
  930MOL0     H28338   9.874   2.523   7.443  0.3271  0.2536 -0.1567
  930MOL0     H28339   9.907   2.425   7.300  0.4543  0.5924 -0.0212
  930MOL0     H28340   9.939   2.357   7.462  0.9904 -0.2024 -0.4971
  931MOL0     O28341   9.705   9.967   7.200  0.4602 -0.3903  0.2366
  931MOL0     C28342   9.637   9.869   7.210 -0.0130  0.1596  0.3128
  931MOL0     O28343   9.674   9.745   7.180 -0.6208 -0.2197 -0.6657
  931MOL0     C28344   9.780   9.714   7.096  0.3792  0.7376 -0.0041
  931MOL0     C28345   9.783   9.729   6.957 -0.1235  0.6030  0.4645
  931MOL0     C28346   9.896   9.701   6.877  0.7421 -0.4891  0.2907
  931MOL0     C28347  10.011   9.647   6.940  0.2740  0.3760 -0.6423
  931MOL0     O28348  10.119   9.619   6.857  0.4181  0.1414  0.2800
  931MOL0     C28349  10.250   9.611   6.907 -0.2459 -0.0017 -0.1101
  931MOL0     C28350  10.303   9.727   6.997  0.3584 -0.0263  0.3013
  931MOL0     C28351  10.280   9.865   6.944 -0.3981 -0.0352  0.5360
  931MOL0     C28352  10.314   9.981   7.041  0.1707 -0.1607 -0.0847
  931MOL0     C28353  10.268  10.125   6.978 -0.3035  0.5497 -0.1726
  931MOL0     C28354  10.319  10.243   7.056 -0.6291 -0.4144 -0.5412
  931MOL0     C28355  10.461  10.279   7.005  0.2391  0.0864  0.0589
  931MOL0     C28356  10.452  10.348   6.867 -0.8629 -0.0504  0.5771
  931MOL0     N28357  10.529  10.468   6.842 -1.1114 -0.0306 -0.0969
  931MOL0     C28358  10.651  10.469   6.778  0.1296  0.1977  0.7094
  931MOL0     C28359  10.696  10.596   6.786  0.4885 -0.9067 -0.7512
  931MOL0     C28360  10.827  10.657   6.739  0.5561  0.6022  0.4284
  931MOL0     C28361  10.938  10.614   6.837  0.1781  0.2422 -0.1487
  931MOL0     C28362  11.072  10.659   6.789  0.1394 -0.5791  0.0580
  931MOL0     C28363  11.174  10.645   6.894  0.2830  0.0789  0.5429
  931MOL0     O28364  11.192  10.503   6.919 -0.0044 -0.1527  0.6477
  931MOL0     C28365  11.316  10.465   6.952  0.5780 -0.3556 -0.1004
  931MOL0     C28366  11.345  10.329   6.956  0.3241  0.6844 -0.6356
  931MOL0     C28367  11.477  10.293   6.996  0.9004  0.8842  0.1348
  931MOL0     C28368  11.505  10.149   6.998 -0.9378 -1.2421  0.1548
  931MOL0     C28369  11.569  10.388   7.048 -0.3013 -0.8014 -0.2208
  931MOL0     C28370  11.710  10.365   7.107  0.4588 -0.0327 -0.3228
  931MOL0     O28371  11.777  10.475   7.162  0.2284 -0.3196  0.2894
  931MOL0     C28372  11.902  10.452   7.220  0.0892  0.0603  0.1547
  931MOL0     C28373  11.920  10.468   7.360  0.6898  0.3493  0.1929
  931MOL0     C28374  12.045  10.436   7.416 -0.1248 -0.0340 -0.2074
  931MOL0     C28375  12.144  10.373   7.341  0.2150  1.3074 -0.1210
  931MOL0     O28376  12.252  10.313   7.407  0.4264 -0.2656  1.0184
  931MOL0     C28377  12.381  10.304   7.341 -0.3917 -0.9065  0.2590
  931MOL0     C28378  12.404  10.173   7.264 -0.6619 -0.6356  0.4933
  931MOL0     C28379  12.554  10.161   7.216  0.0607 -0.1911 -0.0460
  931MOL0     C28380  12.572  10.026   7.144  0.0675 -0.0926 -0.6405
  931MOL0     C28381  12.721   9.995   7.111  0.0782  0.3139  0.3784
  931MOL0     C28382  12.772  10.096   7.004  0.2238  0.8957 -0.0097
  931MOL0     C28383  12.925  10.093   6.987 -0.0145  0.5631 -0.4881
  931MOL0     C28384  12.986  10.201   6.890 -0.4287 -0.5583  0.6531
  931MOL0    Cl28385  13.167  10.205   6.885  0.0903 -0.2553 -0.2903
  931MOL0     C28386  12.125  10.364   7.209  0.1479  0.4601  0.5251
  931MOL0     C28387  12.010  10.404   7.141 -0.4505 -0.6246 -0.6311
  931MOL0     O28388  11.755  10.248   7.101 -0.0063 -0.1388 -0.4467
  931MOL0     C28389  11.526  10.523   7.052 -0.0661  0.2835  0.6199
  931MOL0     C28390  11.402  10.561   7.003  1.0305 -0.7915  0.6336
  931MOL0     N28391  10.596  10.671   6.846 -0.3997 -0.6710  0.2590
  931MOL0     N28392  10.495  10.593   6.878 -0.7319 -0.5763  0.0863
  931MOL0     C28393  10.009   9.623   7.082  0.8157  0.0417  0.5054
  931MOL0     C28394   9.897   9.665   7.156  0.7883  0.0973  0.2165
  931MOL0     C28395   9.496   9.881   7.258  0.4292 -0.3145 -0.3615
  931MOL0     C28396   9.467   9.994   7.340  0.0021 -0.6591  0.1687
  931MOL0     C28397   9.345  10.003   7.411 -0.7388  0.4345  0.4408
  931MOL0     C28398   9.244   9.907   7.396 -0.6945  0.1689  0.3458
  931MOL0     O28399   9.127   9.931   7.465 -0.2778  0.0730 -0.0761
  931MOL0     C28400   9.017   9.836   7.468 -0.7020  0.9256 -0.4400
  931MOL0     C28401   8.891   9.908   7.510 -0.2570 -0.0466  0.1796
  931MOL0     C28402   8.913   9.958   7.653 -0.3143 -0.0359  0.3734
  931MOL0     C28403   8.799  10.036   7.704  0.4622  0.5515  0.0330
  931MOL0     C28404   8.694   9.940   7.750 -0.4506  0.5446 -0.0061
  931MOL0     C28405   8.597   9.876   7.800 -0.0476 -0.7283  0.9018
  931MOL0     C28406   9.269   9.800   7.309  0.3492 -0.9041  0.1040
  931MOL0     C28407   9.390   9.784   7.238  0.3786  0.3017  0.4336
  931MOL0     C28408   9.402   9.663   7.143 -0.6390 -0.3062  0.0029
  931MOL0     H28409   9.691   9.770   6.916 -3.8055 -4.9132  2.2141
  931MOL0     H28410   9.886   9.715   6.770  0.5755  1.5747  0.5272
  931MOL0     H28411  10.320   9.606   6.823  0.0070  1.2338  0.0071
  931MOL0     H28412  10.261   9.511   6.949  0.3188  0.5208  1.0278
  931MOL0     H28413  10.251   9.721   7.093  0.1561 -0.0350  0.1922
  931MOL0     H28414  10.410   9.713   7.014  0.5607  0.8313 -0.2167
  931MOL0     H28415  10.333   9.867   6.848 -1.7462 -1.2702 -0.2809
  931MOL0     H28416  10.177   9.878   6.911 -1.4789 -2.3096  2.6567
  931MOL0     H28417  10.265   9.964   7.137 -0.0721  1.1865  0.0442
  931MOL0     H28418  10.422   9.985   7.057  0.4967 -2.9012 -1.0630
  931MOL0     H28419  10.159  10.133   6.978 -0.1727  4.3173  1.3942
  931MOL0     H28420  10.323  10.124   6.883  0.8049 -3.6522  0.3028
  931MOL0     H28421  10.255  10.332   7.055 -0.7474 -0.4478  1.3688
  931MOL0     H28422  10.340  10.224   7.161  0.3760  3.9918  0.2502
  931MOL0     H28423  10.525  10.191   7.006  1.5863  1.0436  0.6781
  931MOL0     H28424  10.499  10.354   7.074  0.5758 -0.2398  0.2281
  931MOL0     H28425  10.483  10.269   6.798  0.8566 -0.0810  1.3443
  931MOL0     H28426  10.347  10.378   6.855 -0.9436 -0.5727 -0.0888
  931MOL0     H28427  10.691  10.392   6.712 -1.1567  0.1476 -0.0346
  931MOL0     H28428  10.830  10.766   6.727  0.8851  0.3185 -3.1386
  931MOL0     H28429  10.841  10.611   6.641 -0.3549 -2.6022  1.6856
  931MOL0     H28430  10.907  10.655   6.934 -2.1913  0.8787 -1.1169
  931MOL0     H28431  10.960  10.508   6.853  3.2862  0.6681 -0.9728
  931MOL0     H28432  11.100  10.607   6.697  1.3323  0.9334 -0.4691
  931MOL0     H28433  11.072  10.767   6.770 -1.2086 -0.4427  0.6823
  931MOL0     H28434  11.262  10.695   6.851 -0.1875 -0.3373 -0.9886
  931MOL0     H28435  11.140  10.694   6.986  0.2922  1.5020 -0.1789
  931MOL0     H28436  11.269  10.253   6.939  0.5329  0.7178 -1.8098
  931MOL0     H28437  11.601  10.145   6.947 -0.5314  0.6298  0.6880
  931MOL0     H28438  11.435  10.096   6.933 -0.9324  0.4682 -1.3105
  931MOL0     H28439  11.502  10.125   7.105 -2.1083 -0.9200  0.2136
  931MOL0     H28440  11.838  10.492   7.427  0.0159  1.6470 -1.0411
  931MOL0     H28441  12.059  10.457   7.521  0.5890 -0.1518 -0.2730
  931MOL0     H28442  12.386  10.390   7.272  0.0858 -1.4168 -0.3502
  931MOL0     H28443  12.458  10.323   7.416 -1.5781 -0.1336  1.3213
  931MOL0     H28444  12.385  10.085   7.327  2.6165 -1.5909  0.3526
  931MOL0     H28445  12.338  10.174   7.177  0.1732  0.3769 -0.1581
  931MOL0     H28446  12.622  10.159   7.301  0.4484 -1.0285 -0.3620
  931MOL0     H28447  12.576  10.243   7.147 -0.6589 -0.2337 -0.3403
  931MOL0     H28448  12.515  10.024   7.051  1.8920 -0.0258 -1.8226
  931MOL0     H28449  12.520   9.945   7.196 -1.7285 -1.4993 -4.2641
  931MOL0     H28450  12.786  10.009   7.198 -1.3440  0.9911  1.3854
  931MOL0     H28451  12.721   9.894   7.070  1.1565  0.1277  0.8295
  931MOL0     H28452  12.749  10.202   7.017 -3.2635  0.1429  0.7858
  931MOL0     H28453  12.722  10.069   6.910 -1.6365  0.1929  1.1297
  931MOL0     H28454  12.954   9.995   6.947  1.4705  0.5791  0.4708
  931MOL0     H28455  12.966  10.103   7.087 -1.6164  0.0341  0.2582
  931MOL0     H28456  12.962  10.300   6.931  2.0074  0.0500  0.7951
  931MOL0     H28457  12.953  10.201   6.786  2.9248 -0.1096 -0.5496
  931MOL0     H28458  12.206  10.322   7.149  1.1737  0.9995  1.4808
  931MOL0     H28459  11.999  10.399   7.033 -0.6454  1.6909 -0.7749
  931MOL0     H28460  11.589  10.604   7.088 -1.3557  1.7575 -0.3051
  931MOL0     H28461  11.390  10.669   7.007 -0.6151 -0.9188 -0.3134
  931MOL0     H28462  10.086   9.575   7.142 -0.5249 -2.6405  0.2530
  931MOL0     H28463   9.881   9.667   7.263  3.1318 -0.3353  0.6236
  931MOL0     H28464   9.547  10.065   7.357  0.0755 -0.5080 -0.7651
  931MOL0     H28465   9.338  10.087   7.480  1.1473  1.5907 -0.6757
  931MOL0     H28466   8.997   9.784   7.374  1.5923 -1.9653  0.5205
  931MOL0     H28467   9.038   9.759   7.543 -0.5311  2.0484  0.7006
  931MOL0     H28468   8.822   9.824   7.516  0.9636 -1.1622 -0.6769
  931MOL0     H28469   8.873   9.987   7.437 -1.2713 -2.2530 -2.0986
  931MOL0     H28470   8.939   9.866   7.705  2.3318 -0.9930 -2.3537
  931MOL0     H28471   9.002  10.022   7.654 -0.2645  0.0049 -1.5553
  931MOL0     H28472   8.771  10.115   7.633 -1.8426  0.6989  0.9999
  931MOL0     H28473   8.815  10.090   7.797  0.4625 -0.3108  0.5469
  931MOL0     H28474   8.510   9.827   7.839 -1.2147 -1.1224 -1.9252
  931MOL0     H28475   9.187   9.733   7.286 -1.0068  0.8105 -0.3142
  931MOL0     H28476   9.398   9.697   7.040 -0.2224  1.8910  0.6613
  931MOL0     H28477   9.496   9.608   7.149 -0.5044  0.0227  1.4431
  931MOL0     H28478   9.320   9.593   7.163 -0.9648 -0.3545 -1.4597
  932MOL0     O28479   2.995   8.464  11.332 -0.3733  0.1227  0.1942
  932MOL0     C28480   2.971   8.566  11.404  0.0692 -0.4797 -0.0457
  932MOL0     O28481   3.011   8.695  11.383  0.2181 -0.0240 -0.1381
  932MOL0     C28482   3.050   8.738  11.262 -0.4063 -0.6091  0.0889
  932MOL0     C28483   2.997   8.867  11.238 -0.7513  0.1127 -0.1015
  932MOL0     C28484   3.027   8.923  11.111  0.3427  0.1557  0.3567
  932MOL0     C28485   3.112   8.853  11.018 -0.5853 -0.7177 -0.3309
  932MOL0     O28486   3.157   8.919  10.901  0.9396  0.3118  0.3859
  932MOL0     C28487   3.241   9.030  10.922 -0.2697  0.6476  0.1087
  932MOL0     C28488   3.295   9.083  10.787 -0.4204 -0.3673 -0.6179
  932MOL0     C28489   3.199   9.117  10.676  0.3541  0.5228 -0.0577
  932MOL0     C28490   3.276   9.158  10.550 -0.2049  0.9607  0.6676
  932MOL0     C28491   3.176   9.192  10.449  0.0170  0.6119  0.1005
  932MOL0     C28492   3.246   9.253  10.328  0.1312 -0.3719 -0.0472
  932MOL0     C28493   3.138   9.301  10.220 -0.5166  0.6505  0.2325
  932MOL0     C28494   3.187   9.423  10.149 -0.1118  0.0961 -0.8459
  932MOL0     N28495   3.308   9.407  10.072 -0.4087 -0.1569  0.5088
  932MOL0     C28496   3.325   9.344   9.945 -0.1924 -0.6621 -0.1542
  932MOL0     C28497   3.458   9.361   9.918 -0.2826  0.7273  0.4145
  932MOL0     C28498   3.531   9.313   9.793 -0.2521  0.6492  0.1170
  932MOL0     C28499   3.665   9.270   9.835 -0.0307  0.5954  0.2878
  932MOL0     C28500   3.735   9.205   9.715  0.2490  0.5607  0.9928
  932MOL0     C28501   3.868   9.139   9.767  0.7209  0.7236  0.8871
  932MOL0     O28502   3.949   9.100   9.646  0.1745  0.6130  0.8758
  932MOL0     C28503   4.066   9.035   9.668  0.6301  0.6706  0.5669
  932MOL0     C28504   4.108   8.928   9.589  0.2603 -0.4754 -0.8374
  932MOL0     C28505   4.225   8.864   9.611 -0.2401 -0.4999  0.6949
  932MOL0     C28506   4.278   8.761   9.498 -0.1650 -0.5200 -0.7770
  932MOL0     C28507   4.298   8.890   9.727  0.2040  0.3538 -0.1250
  932MOL0     C28508   4.418   8.822   9.763  0.5394  0.4172 -0.0498
  932MOL0     O28509   4.521   8.888   9.828  0.6007  0.5441 -0.0999
  932MOL0     C28510   4.646   8.836   9.850  0.5229 -0.1710  0.0688
  932MOL0     C28511   4.717   8.746   9.766  0.1123 -0.0540 -0.1778
  932MOL0     C28512   4.846   8.693   9.803 -0.3353 -0.0128 -0.9349
  932MOL0     C28513   4.897   8.727   9.929 -0.1235  0.3028  0.0517
  932MOL0     O28514   5.011   8.659   9.956 -0.0745  0.3573  0.3741
  932MOL0     C28515   5.034   8.648  10.093  0.1749  0.1868  0.4387
  932MOL0     C28516   5.179   8.599  10.110  0.1624  0.2119 -0.2489
  932MOL0     C28517   5.212   8.479  10.031 -0.0611 -0.2065  0.5212
  932MOL0     C28518   5.354   8.444  10.054  0.6302 -0.2737  0.5055
  932MOL0     C28519   5.379   8.324   9.973 -0.4586  0.1761  0.4685
  932MOL0     C28520   5.518   8.273  10.020  0.7766 -0.4150  1.0725
  932MOL0     C28521   5.575   8.166   9.925 -1.1445 -1.3438 -0.3507
  932MOL0     C28522   5.522   8.024   9.951  0.4179  0.2599 -0.7019
  932MOL0    Cl28523   5.540   7.969  10.124  0.0204 -0.4057 -0.1403
  932MOL0     C28524   4.823   8.808  10.024  0.1939  0.1605  0.8203
  932MOL0     C28525   4.704   8.875   9.975  0.1479  0.7427  0.6083
  932MOL0     O28526   4.426   8.704   9.733  0.3072 -0.0927 -0.2762
  932MOL0     C28527   4.257   9.000   9.813  0.0498 -0.3298  0.8863
  932MOL0     C28528   4.143   9.072   9.779  0.2269  0.1260 -0.4671
  932MOL0     N28529   3.504   9.445  10.014  0.1887  0.9123  0.5697
  932MOL0     N28530   3.423   9.468  10.114 -0.3227 -0.4540  0.2719
  932MOL0     C28531   3.162   8.730  11.048  0.1242 -0.4251 -0.1372
  932MOL0     C28532   3.133   8.669  11.171 -0.1495 -0.1890  0.5837
  932MOL0     C28533   2.877   8.543  11.516 -0.2275 -0.0525 -1.0711
  932MOL0     C28534   2.797   8.658  11.551  0.7681 -0.5245  0.8600
  932MOL0     C28535   2.697   8.650  11.646  0.2420  0.5658  0.6279
  932MOL0     C28536   2.669   8.522  11.706  0.0373 -1.0073 -0.0456
  932MOL0     O28537   2.566   8.493  11.789 -0.3181  0.2579  0.4262
  932MOL0     C28538   2.534   8.595  11.890  0.0393  0.4456  0.6623
  932MOL0     C28539   2.433   8.542  11.987  0.5325 -0.0999  0.3653
  932MOL0     C28540   2.283   8.534  11.938 -0.5324 -0.1161 -0.0404
  932MOL0     C28541   2.268   8.432  11.820 -0.3013  0.2511 -0.1214
  932MOL0     C28542   2.128   8.436  11.769  0.1128 -0.0508  0.0961
  932MOL0     C28543   2.023   8.446  11.719  0.1255  0.4307  0.4073
  932MOL0     C28544   2.744   8.408  11.665 -0.3188  0.2164 -0.2097
  932MOL0     C28545   2.846   8.417  11.571 -0.3645 -0.0739  0.1815
  932MOL0     C28546   2.933   8.294  11.546  1.1464  0.3424 -0.1489
  932MOL0     H28547   2.938   8.915  11.316  1.0827 -0.9234  2.0297
  932MOL0     H28548   2.988   9.016  11.072  1.6904  0.8715  0.6178
  932MOL0     H28549   3.320   9.009  10.996 -3.0939 -0.8998  2.9303
  932MOL0     H28550   3.188   9.109  10.975  1.3833  0.3615  2.3448
  932MOL0     H28551   3.343   9.180  10.793  0.2594 -0.3684 -3.9744
  932MOL0     H28552   3.364   9.015  10.736  0.1199  0.1804 -0.6195
  932MOL0     H28553   3.129   9.036  10.656 -0.5600  1.0856  0.7529
  932MOL0     H28554   3.137   9.202  10.708 -1.4666 -0.9249  0.3915
  932MOL0     H28555   3.335   9.248  10.573 -1.5666  1.4535  2.4070
  932MOL0     H28556   3.335   9.075  10.512 -2.2442  0.6907 -2.2423
  932MOL0     H28557   3.102   9.260  10.493 -2.0303 -2.4218  1.6938
  932MOL0     H28558   3.122   9.105  10.411 -0.2910  0.7088  0.3107
  932MOL0     H28559   3.310   9.338  10.355  2.4598 -1.8526 -0.5896
  932MOL0     H28560   3.319   9.183  10.286  1.7130 -0.8115  3.1648
  932MOL0     H28561   3.045   9.329  10.272  0.3024 -2.4849  3.8460
  932MOL0     H28562   3.117   9.210  10.163  4.0889 -2.5063  2.9382
  932MOL0     H28563   3.104   9.460  10.088 -0.5213 -2.8700 -2.2520
  932MOL0     H28564   3.216   9.496  10.225  3.0763  0.3727 -2.1715
  932MOL0     H28565   3.256   9.283   9.887  1.1502 -2.1698 -0.2291
  932MOL0     H28566   3.530   9.396   9.721 -2.1542  0.1222 -0.4996
  932MOL0     H28567   3.481   9.226   9.750  0.9662  1.6634 -3.7238
  932MOL0     H28568   3.722   9.356   9.871  0.3245 -0.1024  1.4594
  932MOL0     H28569   3.672   9.197   9.916  3.2573 -0.1836 -0.5264
  932MOL0     H28570   3.674   9.127   9.669  2.1455 -0.3850 -0.0359
  932MOL0     H28571   3.756   9.281   9.639  1.3978 -3.4900 -3.1686
  932MOL0     H28572   3.918   9.194   9.848  0.2300 -0.6378  2.1611
  932MOL0     H28573   3.835   9.050   9.821  2.3812 -1.1184 -0.9603
  932MOL0     H28574   4.040   8.913   9.506 -1.5142 -1.1653  0.6796
  932MOL0     H28575   4.200   8.754   9.422 -1.9418  0.0413  0.9032
  932MOL0     H28576   4.295   8.661   9.537  1.2663  0.1872  0.5015
  932MOL0     H28577   4.365   8.809   9.454  1.0003 -1.8599 -0.0124
  932MOL0     H28578   4.678   8.721   9.668  0.8819 -4.4314  0.4185
  932MOL0     H28579   4.896   8.613   9.751 -0.3263 -0.5166 -0.1766
  932MOL0     H28580   5.031   8.747  10.141  0.4235 -0.2561  1.3835
  932MOL0     H28581   4.956   8.588  10.142  0.5750 -1.1354 -0.5145
  932MOL0     H28582   5.255   8.674  10.087 -0.3904 -0.0962 -3.4784
  932MOL0     H28583   5.196   8.579  10.216 -2.1035  0.1832  0.1437
  932MOL0     H28584   5.194   8.499   9.925 -0.8254 -1.3811  0.4166
  932MOL0     H28585   5.149   8.392  10.049 -0.1398 -0.3568 -0.4652
  932MOL0     H28586   5.356   8.428  10.162  0.2905  3.2450  1.1403
  932MOL0     H28587   5.414   8.529  10.021  2.1160 -1.5287 -0.1342
  932MOL0     H28588   5.307   8.243   9.985 -0.7983 -0.6299 -4.8752
  932MOL0     H28589   5.381   8.346   9.866 -0.5216 -2.8937 -0.2644
  932MOL0     H28590   5.511   8.242  10.125  1.0499 -0.4893  1.0690
  932MOL0     H28591   5.580   8.363  10.011 -1.6901  1.4223  1.3371
  932MOL0     H28592   5.685   8.167   9.928 -1.0731 -0.2733 -2.0877
  932MOL0     H28593   5.555   8.189   9.820  0.3207  1.5670 -0.0937
  932MOL0     H28594   5.588   7.950   9.904  2.4599  1.1968  0.5119
  932MOL0     H28595   5.421   8.021   9.909  0.6482  0.1605 -1.2669
  932MOL0     H28596   4.841   8.830  10.128  2.1875 -0.3925  0.6237
  932MOL0     H28597   4.651   8.943  10.041 -1.4199  3.5512 -3.2057
  932MOL0     H28598   4.313   9.013   9.906  1.1587 -0.5822  0.2779
  932MOL0     H28599   4.115   9.158   9.839 -0.9336 -1.2693  1.0919
  932MOL0     H28600   3.221   8.677  10.974 -0.5242  0.0555 -1.0223
  932MOL0     H28601   3.177   8.573  11.196  0.5329  0.0714  0.4261
  932MOL0     H28602   2.822   8.753  11.505 -0.6810  0.1345  1.3947
  932MOL0     H28603   2.645   8.742  11.671 -0.0574  0.4097  0.5777
  932MOL0     H28604   2.624   8.630  11.941 -0.5735 -0.4223  2.4011
  932MOL0     H28605   2.483   8.679  11.843 -0.4356  0.2663  0.8417
  932MOL0     H28606   2.427   8.597  12.081 -1.6382 -0.9049  0.7717
  932MOL0     H28607   2.460   8.438  12.008  1.6679  0.3190  1.0326
  932MOL0     H28608   2.224   8.501  12.024  3.9269 -2.3502  2.4985
  932MOL0     H28609   2.232   8.629  11.917  0.7795  0.6857  0.3044
  932MOL0     H28610   2.285   8.335  11.866  0.6625  0.3259 -0.3075
  932MOL0     H28611   2.346   8.444  11.745  2.2782 -3.1944  1.7367
  932MOL0     H28612   1.933   8.456  11.661  0.5968  0.4450 -0.3293
  932MOL0     H28613   2.720   8.313  11.712  1.5540  0.4123  1.2609
  932MOL0     H28614   2.930   8.268  11.440  1.7069 -1.5652  0.2732
  932MOL0     H28615   3.038   8.306  11.577  1.6843 -2.9170 -0.4169
  932MOL0     H28616   2.900   8.207  11.603  1.2575  0.3399 -0.0873
  933MOL0     O28617   3.528   7.990   5.744  0.2763 -0.4385  0.6394
  933MOL0     C28618   3.570   8.003   5.630  0.1319  1.0217 -0.3973
  933MOL0     O28619   3.494   7.978   5.521 -0.6399  0.2214 -0.2993
  933MOL0     C28620   3.360   7.941   5.542  1.0285 -0.5034  0.2497
  933MOL0     C28621   3.328   7.810   5.564 -0.1654 -0.8953 -0.7525
  933MOL0     C28622   3.198   7.774   5.577 -0.4406  0.4419  0.1786
  933MOL0     C28623   3.088   7.861   5.581  0.3569 -0.3761  0.5119
  933MOL0     O28624   2.956   7.825   5.599 -0.6223 -0.1604 -0.2791
  933MOL0     C28625   2.937   7.694   5.665  0.1893  0.5808  0.0608
  933MOL0     C28626   2.785   7.645   5.669  0.1478 -0.8993 -0.1918
  933MOL0     C28627   2.699   7.758   5.743 -0.6859  0.2632  0.0170
  933MOL0     C28628   2.553   7.702   5.763 -0.5173  0.3593  0.0394
  933MOL0     C28629   2.553   7.637   5.899  0.8038 -0.3535 -0.0026
  933MOL0     C28630   2.423   7.581   5.924  0.1789 -0.6107 -0.1557
  933MOL0     C28631   2.313   7.687   5.950 -0.0559 -0.0798  0.2944
  933MOL0     C28632   2.176   7.616   5.965  0.7920  0.5248 -1.0618
  933MOL0     N28633   2.164   7.511   6.076 -0.0899 -0.3282 -0.1827
  933MOL0     C28634   2.201   7.378   6.065 -0.3692 -0.3374  0.0072
  933MOL0     C28635   2.178   7.330   6.190 -0.1213 -0.0491  0.6085
  933MOL0     C28636   2.192   7.189   6.234  0.2310 -1.1241  0.3053
  933MOL0     C28637   2.239   7.184   6.382 -0.2442  0.1783 -0.3454
  933MOL0     C28638   2.241   7.039   6.419 -0.0790  0.3808 -0.5440
  933MOL0     C28639   2.296   7.025   6.559  0.1500 -0.4926  0.8706
  933MOL0     O28640   2.428   7.084   6.570 -0.5248  0.9646  0.0165
  933MOL0     C28641   2.541   7.003   6.537  1.2947 -0.3188 -0.1543
  933MOL0     C28642   2.674   7.046   6.555 -0.5723 -0.1560 -0.2463
  933MOL0     C28643   2.783   6.959   6.532 -1.3225  0.0185  0.5249
  933MOL0     C28644   2.918   7.025   6.554  0.1847  0.0376  0.2570
  933MOL0     C28645   2.759   6.827   6.482  0.1864  0.3474  0.2915
  933MOL0     C28646   2.864   6.732   6.449 -0.4948 -1.1891  0.2810
  933MOL0     O28647   2.833   6.622   6.382  0.9383  0.1602  0.3574
  933MOL0     C28648   2.931   6.543   6.328  0.4114  1.4566 -0.8381
  933MOL0     C28649   3.029   6.592   6.238 -0.4799  0.0334  0.0854
  933MOL0     C28650   3.120   6.504   6.183 -0.0626 -0.4271 -0.1957
  933MOL0     C28651   3.136   6.376   6.234 -0.8239 -0.7989 -0.4162
  933MOL0     O28652   3.248   6.303   6.195  0.1783 -0.0216  0.1549
  933MOL0     C28653   3.301   6.203   6.285  0.3975 -0.4335  0.0043
  933MOL0     C28654   3.445   6.160   6.245  0.8864  1.0404 -0.3815
  933MOL0     C28655   3.449   6.089   6.115 -0.9275 -0.3541  0.0165
  933MOL0     C28656   3.594   6.048   6.073 -0.0259  0.1500 -0.3089
  933MOL0     C28657   3.614   5.968   5.945 -0.9693 -0.3421 -0.0006
  933MOL0     C28658   3.752   5.895   5.935  0.3238  0.0514  0.9854
  933MOL0     C28659   3.761   5.793   5.819  0.3042 -0.4155  0.1734
  933MOL0     C28660   3.860   5.821   5.707  0.6518  0.3177  0.8646
  933MOL0    Cl28661   3.823   5.707   5.566  0.3641  0.0769  0.1134
  933MOL0     C28662   3.048   6.322   6.327 -0.8910 -0.3001  0.0139
  933MOL0     C28663   2.953   6.405   6.380 -0.1935 -0.3206 -0.2639
  933MOL0     O28664   2.980   6.753   6.487  0.5442  0.1540  0.2377
  933MOL0     C28665   2.627   6.790   6.467 -0.1816 -0.4041 -0.3889
  933MOL0     C28666   2.518   6.873   6.485  0.4169  0.0390 -0.3410
  933MOL0     N28667   2.126   7.432   6.271 -0.4044  0.0070 -0.3509
  933MOL0     N28668   2.144   7.545   6.212  0.0156 -0.9697  0.6556
  933MOL0     C28669   3.119   7.999   5.573 -0.5471  0.8592  0.4388
  933MOL0     C28670   3.252   8.039   5.551 -0.3251 -0.3800  0.0843
  933MOL0     C28671   3.711   8.053   5.627  0.0802 -0.0576 -0.1624
  933MOL0     C28672   3.767   8.058   5.496  0.3327 -0.0245 -0.3288
  933MOL0     C28673   3.895   8.104   5.462  0.8876  0.7312 -0.5553
  933MOL0     C28674   3.972   8.158   5.570 -0.0042 -0.0632 -1.2225
  933MOL0     O28675   4.069   8.243   5.545 -0.3136  1.0246  0.8433
  933MOL0     C28676   4.143   8.308   5.651 -0.6171 -0.1054 -0.4026
  933MOL0     C28677   4.236   8.419   5.611  0.1282  0.8456 -0.0396
  933MOL0     C28678   4.335   8.375   5.498  0.0387  0.0121  0.1092
  933MOL0     C28679   4.452   8.482   5.475 -1.2869  0.1491 -0.9134
  933MOL0     C28680   4.571   8.435   5.551  0.3432  0.3144  0.4854
  933MOL0     C28681   4.676   8.399   5.600 -1.0303 -1.0548 -1.2010
  933MOL0     C28682   3.927   8.128   5.702  0.1855 -0.5918  0.3382
  933MOL0     C28683   3.798   8.083   5.734 -0.5604 -0.4883 -0.9503
  933MOL0     C28684   3.762   8.083   5.887  0.9080  0.3000  1.3800
  933MOL0     H28685   3.394   7.724   5.563  2.9235  1.1754  1.7361
  933MOL0     H28686   3.180   7.667   5.591  0.1794  0.3649  0.4129
  933MOL0     H28687   2.974   7.716   5.765  0.4705 -1.2265  0.3873
  933MOL0     H28688   2.996   7.613   5.620 -0.0125 -0.3617  1.4366
  933MOL0     H28689   2.754   7.637   5.564 -2.2524  2.5066  0.1054
  933MOL0     H28690   2.772   7.552   5.726 -1.9792 -0.5941 -0.1075
  933MOL0     H28691   2.748   7.768   5.840 -2.0106  0.7075  0.6672
  933MOL0     H28692   2.692   7.852   5.688  1.2348 -0.5183 -1.7288
  933MOL0     H28693   2.494   7.794   5.758  2.0215  2.3074  2.2406
  933MOL0     H28694   2.529   7.634   5.681  0.3766  1.0353 -0.8056
  933MOL0     H28695   2.581   7.710   5.975 -0.2524  0.0531  0.0191
  933MOL0     H28696   2.625   7.555   5.907 -1.2262 -2.5066 -2.2638
  933MOL0     H28697   2.401   7.514   5.840  1.0387  0.0833 -0.9409
  933MOL0     H28698   2.434   7.518   6.013 -1.2517 -2.4621 -1.2107
  933MOL0     H28699   2.304   7.760   5.869 -0.7745  0.5233  0.9026
  933MOL0     H28700   2.341   7.741   6.041  1.2058  0.0025 -0.1226
  933MOL0     H28701   2.092   7.683   5.988 -1.5462 -1.4497 -3.1806
  933MOL0     H28702   2.143   7.563   5.875 -3.0341 -0.7687  0.8782
  933MOL0     H28703   2.231   7.327   5.974 -2.5510 -0.3936 -0.7371
  933MOL0     H28704   2.267   7.150   6.164  0.0472  4.2450 -3.5276
  933MOL0     H28705   2.102   7.130   6.217  0.7426 -1.5520 -1.1661
  933MOL0     H28706   2.338   7.229   6.395  0.1001 -0.8155  0.6780
  933MOL0     H28707   2.168   7.246   6.438 -1.2096 -0.7586 -0.4940
  933MOL0     H28708   2.144   6.989   6.417  1.1385 -2.2086 -0.2654
  933MOL0     H28709   2.303   6.981   6.350 -2.2945  1.6231 -3.8135
  933MOL0     H28710   2.226   7.090   6.612  1.0442  1.2351  0.0203
  933MOL0     H28711   2.287   6.926   6.605 -0.0857  0.6757  3.5026
  933MOL0     H28712   2.685   7.148   6.592 -1.0476 -0.6284  1.2906
  933MOL0     H28713   2.989   6.988   6.479  0.7069  0.4992  0.5121
  933MOL0     H28714   2.941   6.998   6.658 -0.4081  0.9477  0.6371
  933MOL0     H28715   2.909   7.132   6.536  0.2103 -0.1124 -0.6691
  933MOL0     H28716   3.038   6.693   6.200 -0.1580  0.2825  0.8037
  933MOL0     H28717   3.201   6.535   6.118  0.1711  0.9810  0.7331
  933MOL0     H28718   3.309   6.237   6.389 -0.1486 -0.4085  0.0398
  933MOL0     H28719   3.235   6.116   6.280 -0.0928 -0.1751  1.3153
  933MOL0     H28720   3.506   6.251   6.239 -0.3189  1.8519 -0.6119
  933MOL0     H28721   3.475   6.092   6.325 -4.4622  0.3873  1.4843
  933MOL0     H28722   3.399   6.151   6.040 -0.8578  1.6429  1.5250
  933MOL0     H28723   3.390   5.998   6.127 -1.9514  0.4778  1.6883
  933MOL0     H28724   3.649   5.999   6.155 -0.5544  0.3787  0.1884
  933MOL0     H28725   3.657   6.137   6.062 -0.4116  0.3123 -1.2298
  933MOL0     H28726   3.538   5.889   5.938 -0.5493 -0.5622 -3.4884
  933MOL0     H28727   3.605   6.038   5.863 -2.7493  0.3259  0.7241
  933MOL0     H28728   3.752   5.833   6.025 -1.5298  1.2796  1.8888
  933MOL0     H28729   3.836   5.965   5.931  1.2091 -1.0147 -2.3384
  933MOL0     H28730   3.667   5.781   5.764 -1.4469  2.5630  2.2307
  933MOL0     H28731   3.789   5.697   5.864  0.9666 -0.0967  0.4572
  933MOL0     H28732   3.957   5.789   5.744  0.2917 -3.1368 -0.7803
  933MOL0     H28733   3.867   5.926   5.678  3.1403  0.4124  1.5847
  933MOL0     H28734   3.055   6.218   6.359 -0.2707 -0.3689 -0.3404
  933MOL0     H28735   2.899   6.369   6.467  1.2289  0.8552  1.1667
  933MOL0     H28736   2.616   6.688   6.433  2.3239  0.0147 -2.8234
  933MOL0     H28737   2.424   6.836   6.447  0.2940 -1.8621  1.6207
  933MOL0     H28738   3.044   8.076   5.560  1.1396  2.1507 -2.8059
  933MOL0     H28739   3.274   8.145   5.538 -2.1394  0.1430  1.0072
  933MOL0     H28740   3.708   8.022   5.412 -0.1012 -1.9648  0.7521
  933MOL0     H28741   3.932   8.102   5.360  1.2864 -2.4278 -0.4429
  933MOL0     H28742   4.070   8.359   5.714  0.4718 -0.7510  1.4359
  933MOL0     H28743   4.197   8.231   5.707 -3.1958 -2.1154 -0.4885
  933MOL0     H28744   4.294   8.450   5.698 -1.8383  0.3933  1.4931
  933MOL0     H28745   4.170   8.501   5.582 -2.7585 -0.8026  1.4295
  933MOL0     H28746   4.377   8.278   5.526 -0.7841 -0.6539 -0.9218
  933MOL0     H28747   4.276   8.356   5.408  0.4985 -1.9611  0.1754
  933MOL0     H28748   4.412   8.577   5.511 -0.9046 -1.2224  3.8514
  933MOL0     H28749   4.481   8.488   5.370 -1.7417 -1.1881 -1.1410
  933MOL0     H28750   4.769   8.383   5.650 -1.0837  1.9415  0.0050
  933MOL0     H28751   3.995   8.168   5.776  1.8954  0.4612 -1.6802
  933MOL0     H28752   3.831   8.144   5.946 -0.5941  1.7102  1.7807
  933MOL0     H28753   3.663   8.125   5.911  0.6964 -0.6917  2.3541
  933MOL0     H28754   3.757   7.981   5.926 -0.1666 -1.1480 -2.1554
  934MOL0     O28755   3.961   4.915   3.241 -0.7665  0.1756  0.3712
  934MOL0     C28756   3.992   4.940   3.124 -0.1166 -0.3949 -0.1851
  934MOL0     O28757   4.124   4.929   3.078 -0.0546  0.0018 -0.6155
  934MOL0     C28758   4.217   4.900   3.174  0.0605  0.7290 -0.0316
  934MOL0     C28759   4.212   4.800   3.271 -0.1786 -0.1725 -0.4400
  934MOL0     C28760   4.326   4.772   3.349  0.4863 -0.7710 -0.0931
  934MOL0     C28761   4.444   4.850   3.330 -0.1302  0.7481 -0.4169
  934MOL0     O28762   4.572   4.831   3.389 -0.1064 -0.3322  1.0128
  934MOL0     C28763   4.591   4.715   3.473  0.0780  0.1358  0.1611
  934MOL0     C28764   4.547   4.743   3.616  0.8613 -0.2054 -0.4804
  934MOL0     C28765   4.649   4.833   3.681  0.0021  0.2794  0.0034
  934MOL0     C28766   4.646   4.824   3.830  0.6039  0.0530  0.5985
  934MOL0     C28767   4.769   4.891   3.899 -0.6524 -0.2058 -0.3802
  934MOL0     C28768   4.739   4.933   4.037  0.4929 -0.0410  0.4426
  934MOL0     C28769   4.849   4.963   4.125 -0.4785 -0.2265  0.5111
  934MOL0     C28770   4.937   5.069   4.053  0.4407 -0.0961 -0.3618
  934MOL0     N28771   4.991   5.162   4.154 -0.8703 -0.0470 -0.3734
  934MOL0     C28772   5.103   5.168   4.234  0.3690  0.5931 -0.0693
  934MOL0     C28773   5.099   5.285   4.303  0.2659 -0.0623 -0.4065
  934MOL0     C28774   5.207   5.336   4.395  0.2728 -0.2133  0.8004
  934MOL0     C28775   5.337   5.324   4.313 -0.3542 -0.1734 -0.1732
  934MOL0     C28776   5.450   5.404   4.384 -0.7137 -0.0409 -0.7033
  934MOL0     C28777   5.585   5.394   4.303  0.2076  0.0983  0.9511
  934MOL0     O28778   5.571   5.481   4.187  0.5296 -0.1603  0.6372
  934MOL0     C28779   5.683   5.518   4.120  0.3875  0.0447  0.6263
  934MOL0     C28780   5.680   5.628   4.035  0.5980  0.0061 -0.1380
  934MOL0     C28781   5.791   5.664   3.953 -0.0541  0.8644 -0.6300
  934MOL0     C28782   5.765   5.794   3.881  0.6780 -0.3900  0.3953
  934MOL0     C28783   5.914   5.590   3.961 -0.4228 -0.5156  0.9563
  934MOL0     C28784   6.045   5.636   3.904  0.6069  0.8911 -0.3115
  934MOL0     O28785   6.158   5.578   3.955  0.5756 -0.2276  0.1969
  934MOL0     C28786   6.280   5.630   3.922  0.0625 -0.6639  1.0549
  934MOL0     C28787   6.379   5.554   3.861 -0.0473  0.5375  0.2900
  934MOL0     C28788   6.513   5.598   3.851 -0.1618 -0.0485 -0.1881
  934MOL0     C28789   6.547   5.732   3.873  0.3267 -0.0417 -0.0087
  934MOL0     O28790   6.665   5.800   3.865  0.3423 -0.8382  0.1199
  934MOL0     C28791   6.786   5.726   3.883  0.3847  0.4918 -0.2780
  934MOL0     C28792   6.896   5.826   3.918 -0.3886 -0.4060 -0.2064
  934MOL0     C28793   6.943   5.909   3.798  0.8407 -0.3706  0.2685
  934MOL0     C28794   7.052   6.006   3.842 -0.3942  1.0429 -0.3150
  934MOL0     C28795   7.107   6.094   3.729 -0.6163  1.1937 -0.6780
  934MOL0     C28796   7.220   6.179   3.783 -0.5588 -0.2994 -1.0765
  934MOL0     C28797   7.297   6.258   3.670 -0.0623  0.3152  0.3794
  934MOL0     C28798   7.385   6.380   3.719 -0.3958 -0.5183  0.1627
  934MOL0    Cl28799   7.490   6.454   3.601  0.0444  0.1017 -0.5920
  934MOL0     C28800   6.452   5.810   3.933  0.7724 -0.2200 -0.2361
  934MOL0     C28801   6.316   5.765   3.953  0.7978  0.2498  0.4882
  934MOL0     O28802   6.045   5.725   3.821 -0.0729 -0.5191  0.1622
  934MOL0     C28803   5.919   5.481   4.050 -0.2325 -0.4478  0.2632
  934MOL0     C28804   5.805   5.443   4.129 -0.0744 -0.6259  0.9702
  934MOL0     N28805   4.983   5.349   4.267 -0.3651 -0.3959 -0.0171
  934MOL0     N28806   4.921   5.277   4.181  0.4926 -0.8211  0.3226
  934MOL0     C28807   4.445   4.945   3.231  0.2431 -0.2164  0.3717
  934MOL0     C28808   4.337   4.971   3.152 -0.7414  0.0404 -0.5883
  934MOL0     C28809   3.890   4.993   3.025  0.0362 -0.1379 -1.2121
  934MOL0     C28810   3.932   5.050   2.905 -0.2415  0.3974  0.4034
  934MOL0     C28811   3.841   5.096   2.813  0.2577  0.1841  0.1106
  934MOL0     C28812   3.699   5.083   2.837 -0.1020 -0.2762 -0.1111
  934MOL0     O28813   3.597   5.144   2.765  0.0453 -0.0304  0.0403
  934MOL0     C28814   3.621   5.177   2.630 -0.5674  0.2666 -0.9836
  934MOL0     C28815   3.493   5.146   2.546 -0.1745 -0.1091 -0.8414
  934MOL0     C28816   3.447   5.005   2.572 -0.7205 -1.3507  0.0855
  934MOL0     C28817   3.325   4.965   2.494 -0.0902  0.4554 -0.8913
  934MOL0     C28818   3.345   4.980   2.354 -0.3539 -1.4413 -0.0406
  934MOL0     C28819   3.334   4.972   2.232  0.2449 -0.3143  0.3481
  934MOL0     C28820   3.662   5.032   2.956  0.6715 -0.4731  0.1951
  934MOL0     C28821   3.751   4.983   3.050  0.2533  0.9028 -0.0295
  934MOL0     C28822   3.685   4.910   3.173  0.1615 -0.3715  0.0579
  934MOL0     H28823   4.120   4.746   3.289  0.2275 -0.7346 -0.0321
  934MOL0     H28824   4.312   4.691   3.420 -1.0228  0.4229  1.0452
  934MOL0     H28825   4.699   4.694   3.471  0.3284  1.0697  1.8957
  934MOL0     H28826   4.533   4.631   3.437 -1.3321 -0.0910  2.7262
  934MOL0     H28827   4.453   4.795   3.636  0.3506 -1.5828  0.8779
  934MOL0     H28828   4.553   4.649   3.671  1.5349 -0.6647 -1.3145
  934MOL0     H28829   4.750   4.821   3.642  0.5646  2.9243  0.4355
  934MOL0     H28830   4.623   4.938   3.664  1.3113  0.5793 -0.2224
  934MOL0     H28831   4.548   4.861   3.861  1.2407  0.8944  1.6716
  934MOL0     H28832   4.649   4.718   3.855  0.6292 -0.1007 -0.0506
  934MOL0     H28833   4.797   4.977   3.839 -1.8403 -1.5164 -2.9820
  934MOL0     H28834   4.860   4.831   3.899 -0.0239  0.6981  1.2071
  934MOL0     H28835   4.677   5.023   4.033  1.8651  1.2857  4.2274
  934MOL0     H28836   4.686   4.847   4.078 -0.6081 -1.2792 -3.2004
  934MOL0     H28837   4.921   4.884   4.147 -1.7384 -1.2809  1.0159
  934MOL0     H28838   4.814   5.005   4.219 -0.3779  2.5199 -0.5932
  934MOL0     H28839   5.025   5.020   4.010  1.3801  1.7419 -0.6200
  934MOL0     H28840   4.884   5.131   3.980  0.5113  0.9406  0.4525
  934MOL0     H28841   5.188   5.100   4.225  1.5602  2.0251 -0.0732
  934MOL0     H28842   5.205   5.287   4.493 -2.6888 -1.0271  0.4246
  934MOL0     H28843   5.201   5.444   4.412  0.6294  0.1123 -0.9093
  934MOL0     H28844   5.369   5.220   4.315 -1.8175 -0.6609 -1.0038
  934MOL0     H28845   5.334   5.356   4.208  1.4269 -1.0898 -0.5416
  934MOL0     H28846   5.418   5.508   4.370  1.6515  0.6255 -1.6738
  934MOL0     H28847   5.463   5.359   4.482 -1.2388 -1.8854 -1.4351
  934MOL0     H28848   5.662   5.433   4.370 -0.9135 -1.2370  3.1415
  934MOL0     H28849   5.604   5.293   4.266 -0.7688  0.2563 -0.0061
  934MOL0     H28850   5.594   5.694   4.029  1.1674  0.8519  0.6183
  934MOL0     H28851   5.738   5.765   3.779  2.3543  0.9083 -0.4640
  934MOL0     H28852   5.849   5.864   3.871 -1.9382  2.7970 -1.1531
  934MOL0     H28853   5.686   5.854   3.926  0.3339 -0.8647  0.4363
  934MOL0     H28854   6.346   5.451   3.855 -1.0185  0.7854  1.1921
  934MOL0     H28855   6.588   5.526   3.821  1.0360  0.4588  1.4487
  934MOL0     H28856   6.772   5.654   3.964 -0.9310  1.2864  0.2423
  934MOL0     H28857   6.826   5.668   3.800 -0.9634  0.6266 -1.0535
  934MOL0     H28858   6.864   5.897   3.994 -1.1709 -1.3885  0.4218
  934MOL0     H28859   6.977   5.766   3.961 -0.0371 -4.4582 -5.5149
  934MOL0     H28860   6.869   5.973   3.749  0.1126 -2.0603 -0.9309
  934MOL0     H28861   6.982   5.837   3.726 -0.7336 -2.6117  1.5312
  934MOL0     H28862   7.128   5.935   3.874 -0.0364  0.3584 -2.5257
  934MOL0     H28863   7.016   6.074   3.920 -1.0648  0.8851 -0.4786
  934MOL0     H28864   7.140   6.030   3.647 -0.6021  0.2348  0.0596
  934MOL0     H28865   7.030   6.169   3.709 -0.9091  0.9877 -0.3404
  934MOL0     H28866   7.289   6.116   3.841 -1.4712 -0.3976 -0.0648
  934MOL0     H28867   7.185   6.259   3.849 -2.4257  0.4782 -2.9245
  934MOL0     H28868   7.225   6.296   3.597  0.6573 -2.2384 -1.8577
  934MOL0     H28869   7.364   6.195   3.610 -0.5320  1.6824 -1.6409
  934MOL0     H28870   7.448   6.344   3.800  1.7125  0.6817 -0.8615
  934MOL0     H28871   7.314   6.453   3.759 -3.1602 -3.4180  0.9667
  934MOL0     H28872   6.480   5.913   3.950 -1.4318  0.4602 -0.3578
  934MOL0     H28873   6.243   5.825   4.005  1.9294  0.5381  1.7777
  934MOL0     H28874   6.016   5.432   4.062  0.5739  1.0534  0.0434
  934MOL0     H28875   5.815   5.355   4.192  2.1149 -0.4121  0.9965
  934MOL0     H28876   4.534   5.001   3.205 -0.8247  2.1259  1.4334
  934MOL0     H28877   4.356   5.034   3.065  2.0285 -2.1367 -1.7010
  934MOL0     H28878   4.040   5.056   2.896  0.0575 -1.3653  2.1174
  934MOL0     H28879   3.881   5.147   2.727  1.3830 -2.6082 -1.1408
  934MOL0     H28880   3.654   5.281   2.636  0.9509 -0.1693 -1.1258
  934MOL0     H28881   3.696   5.116   2.578  0.2251  2.0278 -2.0266
  934MOL0     H28882   3.516   5.178   2.444  0.3710 -0.2848 -0.7812
  934MOL0     H28883   3.413   5.211   2.583  0.4360 -0.1994  0.7106
  934MOL0     H28884   3.533   4.944   2.545 -0.6345 -1.9752  1.6550
  934MOL0     H28885   3.426   4.997   2.679  2.5687 -0.4389  0.9001
  934MOL0     H28886   3.238   5.027   2.516 -1.0015 -1.3998  1.1107
  934MOL0     H28887   3.288   4.868   2.529  2.6312 -0.1360  0.5650
  934MOL0     H28888   3.300   4.942   2.136 -1.8097  0.5693  0.7532
  934MOL0     H28889   3.559   5.010   2.982  1.7366 -4.0373  2.1322
  934MOL0     H28890   3.576   4.914   3.169 -0.0631 -1.3569  3.0300
  934MOL0     H28891   3.718   4.806   3.163  2.6653  0.4779 -1.2737
  934MOL0     H28892   3.719   4.961   3.263 -0.6191  1.6900 -0.7671
  935MOL0     O28893   5.003  10.425   9.590 -0.5530  0.1736 -0.2091
  935MOL0     C28894   5.001  10.316   9.539 -0.6487  0.1000  0.5919
  935MOL0     O28895   5.087  10.280   9.436  0.2935 -0.4186 -0.4143
  935MOL0     C28896   5.214  10.330   9.432 -0.7616 -0.1290 -0.1715
  935MOL0     C28897   5.305  10.369   9.538  0.8736 -0.3147 -0.7549
  935MOL0     C28898   5.440  10.386   9.514  0.0201  0.4899  0.2615
  935MOL0     C28899   5.494  10.371   9.387  0.9648 -0.3187 -0.4103
  935MOL0     O28900   5.622  10.388   9.347 -0.0412 -0.3869  0.4621
  935MOL0     C28901   5.727  10.414   9.449 -0.1445  0.0243  0.2479
  935MOL0     C28902   5.863  10.390   9.376  0.3110  0.8844 -0.3533
  935MOL0     C28903   5.984  10.410   9.465 -0.1421 -0.1210 -0.0497
  935MOL0     C28904   6.107  10.343   9.395 -0.1755  0.2041 -0.1766
  935MOL0     C28905   6.235  10.410   9.455 -0.1511 -0.5155 -0.5145
  935MOL0     C28906   6.364  10.351   9.391  0.0464  0.6765  0.7279
  935MOL0     C28907   6.482  10.387   9.477  0.0613 -0.5232  0.2792
  935MOL0     C28908   6.611  10.349   9.405 -0.3776 -0.3360  0.1073
  935MOL0     N28909   6.730  10.378   9.492 -0.3678  0.2831  0.3639
  935MOL0     C28910   6.863  10.346   9.453 -0.3458 -0.6904 -0.2096
  935MOL0     C28911   6.946  10.428   9.536  0.3983  0.1600  0.6894
  935MOL0     C28912   7.094  10.418   9.540 -0.3079  0.7308 -0.3087
  935MOL0     C28913   7.161  10.550   9.538  1.2936 -0.1483 -0.4541
  935MOL0     C28914   7.309  10.534   9.533 -0.3556 -0.0422  0.5451
  935MOL0     C28915   7.369  10.667   9.573  0.8170  0.0332  0.3980
  935MOL0     O28916   7.512  10.664   9.549  0.3054 -0.0866  0.6336
  935MOL0     C28917   7.570  10.687   9.428  0.1627  0.4982 -0.2656
  935MOL0     C28918   7.500  10.729   9.313 -0.9632  0.0539  0.2725
  935MOL0     C28919   7.577  10.748   9.197  0.3064 -1.1568  0.9105
  935MOL0     C28920   7.505  10.799   9.070  0.0649  0.7717  0.2926
  935MOL0     C28921   7.718  10.742   9.196 -0.4331  0.8363  0.5905
  935MOL0     C28922   7.805  10.756   9.075  0.1688 -0.1325 -0.0737
  935MOL0     O28923   7.944  10.780   9.099  0.1206 -0.0931 -0.8261
  935MOL0     C28924   8.020  10.808   8.992  0.2698  0.4342 -0.2467
  935MOL0     C28925   8.003  10.923   8.908  0.3571 -0.0694 -0.8074
  935MOL0     C28926   8.088  10.955   8.800  0.2026 -0.1276 -0.8783
  935MOL0     C28927   8.193  10.867   8.767 -0.8166  0.2126 -0.9473
  935MOL0     O28928   8.288  10.870   8.667  1.3926  0.7959  0.1904
  935MOL0     C28929   8.313  10.995   8.593 -0.1079 -0.5854 -0.6995
  935MOL0     C28930   8.394  11.104   8.667  0.1290 -0.4467 -0.5829
  935MOL0     C28931   8.526  11.044   8.717 -0.5795 -0.2369 -0.7806
  935MOL0     C28932   8.616  10.987   8.602  0.7161  0.3146 -0.7265
  935MOL0     C28933   8.669  11.096   8.506 -0.2628  0.1356  0.1078
  935MOL0     C28934   8.795  11.050   8.427  0.7627  0.0589 -0.4014
  935MOL0     C28935   8.842  11.149   8.329  0.1994  0.5233 -0.3088
  935MOL0     C28936   8.983  11.137   8.281  0.0271 -0.5996 -0.2550
  935MOL0    Cl28937   9.031  11.292   8.204 -0.1237 -0.4162 -0.3531
  935MOL0     C28938   8.220  10.765   8.862  0.7196 -0.2700 -0.5454
  935MOL0     C28939   8.136  10.732   8.969 -0.1426 -0.0711  0.1714
  935MOL0     O28940   7.758  10.729   8.967  0.0417 -0.0287  0.4221
  935MOL0     C28941   7.786  10.708   9.319  0.3347  0.3688  0.7394
  935MOL0     C28942   7.706  10.679   9.430  0.5472 -0.5304  0.1723
  935MOL0     N28943   6.856  10.502   9.616 -0.4856  0.6780  0.2260
  935MOL0     N28944   6.738  10.466   9.594  0.5146  0.7678  0.0681
  935MOL0     C28945   5.411  10.339   9.285 -0.3944 -0.2406 -0.2034
  935MOL0     C28946   5.271  10.313   9.307 -0.0393  0.4642  0.3489
  935MOL0     C28947   4.887  10.220   9.578  0.3749  0.2648  0.1152
  935MOL0     C28948   4.792  10.253   9.678  0.2866  0.7110 -0.2051
  935MOL0     C28949   4.682  10.175   9.702 -0.1728 -0.0549  0.6259
  935MOL0     C28950   4.659  10.054   9.631 -1.2337 -0.2639 -0.6003
  935MOL0     O28951   4.563   9.959   9.666  0.6394 -0.8476  0.3866
  935MOL0     C28952   4.484   9.974   9.782  0.1562 -0.5251 -0.5459
  935MOL0     C28953   4.376   9.877   9.761  0.0455  0.4653  1.0209
  935MOL0     C28954   4.275   9.917   9.639 -0.8928 -0.4074  0.5440
  935MOL0     C28955   4.177   9.809   9.620 -0.0380 -0.1480  0.8303
  935MOL0     C28956   4.088   9.787   9.736  0.1806 -0.1663  1.0538
  935MOL0     C28957   4.008   9.781   9.829  0.1935  0.0256 -0.0809
  935MOL0     C28958   4.759  10.010   9.548  0.9213 -0.5050  0.2786
  935MOL0     C28959   4.872  10.095   9.510 -0.3691 -0.5050 -0.4722
  935MOL0     C28960   4.972  10.046   9.403  0.3884  0.4587 -0.3091
  935MOL0     H28961   5.276  10.362   9.642  1.4338 -1.2524 -0.6494
  935MOL0     H28962   5.492  10.421   9.602  1.3493 -2.7061  0.9107
  935MOL0     H28963   5.705  10.337   9.524  3.7469 -0.9055  0.6241
  935MOL0     H28964   5.715  10.513   9.493 -1.3017 -0.8619  2.0737
  935MOL0     H28965   5.870  10.288   9.339  0.0361  0.7449 -0.0301
  935MOL0     H28966   5.868  10.453   9.287 -0.6827  0.3335 -0.8156
  935MOL0     H28967   6.004  10.516   9.481 -0.7213 -0.1509  1.0146
  935MOL0     H28968   5.992  10.361   9.563  2.8748  2.5170  1.2174
  935MOL0     H28969   6.110  10.236   9.419 -2.4703  0.4326  1.4223
  935MOL0     H28970   6.098  10.369   9.289 -1.3723  1.5381  0.2355
  935MOL0     H28971   6.238  10.400   9.564  1.4240 -3.1476 -0.7113
  935MOL0     H28972   6.230  10.517   9.433 -2.3502 -0.7001 -1.0805
  935MOL0     H28973   6.359  10.242   9.402  0.3810  0.6510  0.6322
  935MOL0     H28974   6.373  10.361   9.282 -1.1705 -1.9342  0.3068
  935MOL0     H28975   6.482  10.328   9.570 -1.5666  0.1612  0.7523
  935MOL0     H28976   6.492  10.494   9.499  0.9941 -0.0939 -2.0336
  935MOL0     H28977   6.598  10.243   9.381 -0.8461 -0.2453 -0.0540
  935MOL0     H28978   6.636  10.409   9.317  0.0660 -2.0910 -0.9986
  935MOL0     H28979   6.900  10.285   9.371 -0.9176 -1.0163 -0.2267
  935MOL0     H28980   7.127  10.354   9.457  1.6412 -2.0349  2.3712
  935MOL0     H28981   7.117  10.360   9.630  2.6812  0.0851 -1.3723
  935MOL0     H28982   7.127  10.619   9.460 -0.4946  1.5908  1.7498
  935MOL0     H28983   7.134  10.592   9.635  0.9339 -0.1264 -0.5605
  935MOL0     H28984   7.346  10.449   9.591 -1.8081  0.0487  1.6511
  935MOL0     H28985   7.336  10.507   9.430 -1.7383 -0.5088  0.2853
  935MOL0     H28986   7.321  10.749   9.518  1.0350 -1.0834 -1.5725
  935MOL0     H28987   7.342  10.681   9.678 -1.8277 -0.2619 -0.1647
  935MOL0     H28988   7.393  10.746   9.314 -1.2330 -1.2964 -1.3581
  935MOL0     H28989   7.495  10.717   8.999  1.7353  0.1628  0.7186
  935MOL0     H28990   7.569  10.870   9.016  0.5839 -2.6705 -4.1301
  935MOL0     H28991   7.408  10.843   9.094  0.3850  1.6591  0.0288
  935MOL0     H28992   7.915  10.984   8.927 -1.0553 -1.9402 -1.0792
  935MOL0     H28993   8.051  11.027   8.727  1.1985 -1.1226 -2.4074
  935MOL0     H28994   8.350  10.971   8.493 -1.0328  2.1600 -1.7857
  935MOL0     H28995   8.218  11.040   8.561 -1.3196 -1.3959  1.5233
  935MOL0     H28996   8.422  11.189   8.603  0.7948 -1.8239 -2.1957
  935MOL0     H28997   8.336  11.145   8.750  1.5670 -0.9781  0.7319
  935MOL0     H28998   8.499  10.962   8.784  1.7134 -1.9010 -1.7891
  935MOL0     H28999   8.584  11.118   8.774  1.9521 -1.3336 -1.7820
  935MOL0     H29000   8.573  10.907   8.541 -1.5746 -1.7473  3.1965
  935MOL0     H29001   8.706  10.948   8.650  0.0261  1.3049  1.5077
  935MOL0     H29002   8.584  11.115   8.440 -0.6491 -3.9393 -0.8246
  935MOL0     H29003   8.687  11.178   8.575 -0.6838 -1.2774  1.9785
  935MOL0     H29004   8.772  10.960   8.369 -0.8551  0.5772 -0.6075
  935MOL0     H29005   8.866  11.022   8.506 -0.8184  0.2627  1.1535
  935MOL0     H29006   8.824  11.241   8.385 -0.0190 -1.7826  3.7768
  935MOL0     H29007   8.772  11.144   8.245  1.0886  0.8093 -1.0797
  935MOL0     H29008   8.992  11.051   8.215  0.0569 -0.8875  0.1177
  935MOL0     H29009   9.051  11.116   8.364 -2.1776 -0.7120  1.6586
  935MOL0     H29010   8.311  10.711   8.836 -1.0249 -2.5155 -2.3642
  935MOL0     H29011   8.157  10.643   9.028 -1.0894  1.1616  2.4979
  935MOL0     H29012   7.893  10.700   9.335  0.1513  1.1618  2.5841
  935MOL0     H29013   7.749  10.652   9.525  2.1071  2.9215  0.5957
  935MOL0     H29014   5.459  10.342   9.188 -0.3540  3.6738 -0.1986
  935MOL0     H29015   5.201  10.297   9.226  1.2384  2.1842 -1.1899
  935MOL0     H29016   4.784  10.343   9.737 -1.4232 -1.7085  3.6199
  935MOL0     H29017   4.626  10.221   9.783 -2.1400 -1.8599  0.3969
  935MOL0     H29018   4.543   9.959   9.873  2.3448  1.1295 -1.6097
  935MOL0     H29019   4.436  10.071   9.798 -0.6149 -0.9731 -0.0864
  935MOL0     H29020   4.318   9.863   9.853  0.4935  1.0801  1.4031
  935MOL0     H29021   4.424   9.784   9.729 -0.9078  0.1361  0.5037
  935MOL0     H29022   4.224  10.012   9.658 -0.2536  0.5262 -1.9681
  935MOL0     H29023   4.343   9.936   9.556  1.0109 -0.8709  1.9425
  935MOL0     H29024   4.235   9.718   9.604 -0.7389 -0.6772  1.2456
  935MOL0     H29025   4.121   9.834   9.529  4.1405  1.9049 -1.4725
  935MOL0     H29026   3.950   9.792   9.918  1.4209  1.3017  0.5861
  935MOL0     H29027   4.750   9.908   9.511  2.4080 -1.5016  2.4124
  935MOL0     H29028   4.960   9.941   9.373  0.6925  1.0358 -2.6693
  935MOL0     H29029   4.964  10.098   9.307 -2.4161  0.5711 -0.1142
  935MOL0     H29030   5.071  10.054   9.448 -0.0828  0.2791  0.7911
  936MOL0     O29031   2.930   9.146   4.496  0.5501  0.3847 -0.1687
  936MOL0     C29032   2.914   9.221   4.401 -1.0795 -0.3571  0.8507
  936MOL0     O29033   2.834   9.209   4.294  0.6126  0.3285 -0.1054
  936MOL0     C29034   2.755   9.101   4.275 -0.4470  0.8630  0.5179
  936MOL0     C29035   2.623   9.109   4.230 -0.5777  0.0768  0.4400
  936MOL0     C29036   2.554   8.991   4.196 -0.0302  0.4506  0.2270
  936MOL0     C29037   2.608   8.864   4.207 -0.1349  0.4262  0.2437
  936MOL0     O29038   2.540   8.752   4.166  0.1450 -0.0948 -0.7162
  936MOL0     C29039   2.424   8.707   4.246  0.3141  0.8534  0.1763
  936MOL0     C29040   2.396   8.563   4.199  0.6776 -0.3476  0.0521
  936MOL0     C29041   2.253   8.506   4.249 -0.1636 -1.2789  0.2288
  936MOL0     C29042   2.209   8.379   4.166 -0.4141 -0.0190  0.0083
  936MOL0     C29043   2.053   8.360   4.169 -0.5165 -0.1258  0.2221
  936MOL0     C29044   2.004   8.347   4.319 -0.7404  0.0398 -0.0777
  936MOL0     C29045   1.855   8.347   4.336  0.1057 -0.2617 -0.1566
  936MOL0     C29046   1.805   8.344   4.483 -0.2635 -0.6699  0.4719
  936MOL0     N29047   1.661   8.360   4.477 -0.1848  1.0301 -0.4788
  936MOL0     C29048   1.573   8.274   4.543 -0.8688  0.2339  0.2777
  936MOL0     C29049   1.458   8.346   4.538  0.2417 -0.3412 -0.0880
  936MOL0     C29050   1.337   8.286   4.591  1.3916 -0.6596 -0.1772
  936MOL0     C29051   1.216   8.285   4.502  0.3156  0.4804  0.4160
  936MOL0     C29052   1.083   8.245   4.563  0.3534  0.8526 -1.1068
  936MOL0     C29053   0.967   8.250   4.463  0.1583 -0.0685  0.1055
  936MOL0     O29054   0.846   8.246   4.549 -0.5965 -0.7368 -0.2658
  936MOL0     C29055   0.733   8.199   4.491  1.0707  0.1002 -0.2069
  936MOL0     C29056   0.688   8.072   4.517 -0.2885  0.1407 -0.5637
  936MOL0     C29057   0.590   8.007   4.450  0.2453 -0.3125  0.3138
  936MOL0     C29058   0.568   7.855   4.477  0.4883 -0.2537 -0.4546
  936MOL0     C29059   0.522   8.078   4.350  0.3232 -0.2243 -0.0167
  936MOL0     C29060   0.410   8.029   4.251  0.1617  0.8056  0.9108
  936MOL0     O29061   0.339   7.911   4.284  0.1748 -0.3688 -0.0117
  936MOL0     C29062   0.230   7.859   4.210 -0.5612  0.4206 -0.4345
  936MOL0     C29063   0.187   7.721   4.250  0.5260 -0.8952 -0.0226
  936MOL0     C29064   0.073   7.661   4.194  0.2372 -0.4655  0.5885
  936MOL0     C29065   0.001   7.727   4.089 -0.4017  0.5387 -0.4513
  936MOL0     O29066  -0.115   7.664   4.045 -0.1800  0.1866  0.4633
  936MOL0     C29067  -0.154   7.667   3.910 -0.2226  0.5563  0.1280
  936MOL0     C29068  -0.262   7.774   3.913 -0.0340 -0.3317 -0.1874
  936MOL0     C29069  -0.253   7.835   3.772  0.4476  0.8523 -0.5928
  936MOL0     C29070  -0.303   7.745   3.655 -0.2820  0.4302 -0.7867
  936MOL0     C29071  -0.291   7.810   3.523  0.5622 -0.0134 -0.5409
  936MOL0     C29072  -0.338   7.714   3.412  0.5155 -0.5412 -0.0683
  936MOL0     C29073  -0.230   7.610   3.385 -0.5028  0.5084  0.1725
  936MOL0     C29074  -0.250   7.525   3.254  0.5046  0.4728 -0.9332
  936MOL0    Cl29075  -0.099   7.447   3.225 -0.1093  0.4611  0.4941
  936MOL0     C29076   0.050   7.850   4.051  0.9341 -0.0893 -0.2069
  936MOL0     C29077   0.163   7.917   4.111 -0.5940  0.8944  0.4122
  936MOL0     O29078   0.392   8.098   4.151  0.5129  0.0013  1.2453
  936MOL0     C29079   0.555   8.213   4.325 -0.3377  0.0061  0.5680
  936MOL0     C29080   0.663   8.273   4.400 -0.3436 -0.0598 -0.1071
  936MOL0     N29081   1.473   8.472   4.468  1.2685  0.5243 -0.0212
  936MOL0     N29082   1.593   8.479   4.435  0.4950 -0.7574 -0.3618
  936MOL0     C29083   2.741   8.856   4.255 -0.7931  0.2017 -0.4686
  936MOL0     C29084   2.811   8.971   4.289 -0.4782 -0.0652 -0.2465
  936MOL0     C29085   2.995   9.351   4.399 -0.1392  0.6718  0.5345
  936MOL0     C29086   3.124   9.344   4.444  0.5378 -0.1619 -0.0867
  936MOL0     C29087   3.199   9.468   4.452  0.1342  0.6286  0.1802
  936MOL0     C29088   3.141   9.587   4.413  0.6677  0.3266  0.8242
  936MOL0     O29089   3.213   9.701   4.385  0.4977 -0.2463  0.4831
  936MOL0     C29090   3.352   9.677   4.374 -0.1780 -0.2757 -0.6950
  936MOL0     C29091   3.421   9.791   4.306  0.2321  0.8020  0.7181
  936MOL0     C29092   3.564   9.751   4.265 -0.2875 -0.0853  0.1737
  936MOL0     C29093   3.631   9.863   4.184 -0.4005  0.0061  0.1433
  936MOL0     C29094   3.671   9.982   4.262 -0.2480  0.3714  0.7267
  936MOL0     C29095   3.707  10.091   4.313 -0.3785  0.1974  0.2064
  936MOL0     C29096   3.012   9.588   4.370  0.4503 -0.6970  0.7094
  936MOL0     C29097   2.937   9.472   4.359  0.4624  0.2536 -0.4662
  936MOL0     C29098   2.794   9.496   4.318 -0.0331  0.1471  0.1486
  936MOL0     H29099   2.579   9.207   4.216  1.8989  1.3439  0.9415
  936MOL0     H29100   2.456   8.996   4.149  1.7581 -0.7384 -4.1205
  936MOL0     H29101   2.345   8.781   4.232  1.5213  1.7506 -2.9462
  936MOL0     H29102   2.454   8.704   4.351 -0.0750  0.8717  0.2905
  936MOL0     H29103   2.401   8.566   4.090  1.8958  2.7867  0.0993
  936MOL0     H29104   2.478   8.495   4.222 -0.4111 -1.7159  0.0344
  936MOL0     H29105   2.254   8.473   4.353 -0.5150 -1.3361  0.2136
  936MOL0     H29106   2.176   8.580   4.227 -1.4630 -2.7297 -0.2809
  936MOL0     H29107   2.248   8.383   4.064  0.4087 -0.8366  0.2678
  936MOL0     H29108   2.256   8.289   4.207  1.3079  0.5841 -0.5459
  936MOL0     H29109   2.016   8.278   4.107 -0.5722 -0.0361  0.1370
  936MOL0     H29110   2.002   8.448   4.126  1.0392  1.3900  1.3376
  936MOL0     H29111   2.043   8.251   4.353  0.2896  0.7914  0.9244
  936MOL0     H29112   2.045   8.427   4.381  0.1775 -0.9821  0.6589
  936MOL0     H29113   1.819   8.250   4.300 -3.1220  1.3286 -1.6776
  936MOL0     H29114   1.811   8.431   4.282  0.7054  0.9855  1.2475
  936MOL0     H29115   1.836   8.249   4.526  1.9852 -0.6534 -0.9066
  936MOL0     H29116   1.843   8.429   4.541  0.8150 -1.4468  0.9387
  936MOL0     H29117   1.605   8.179   4.582  0.4383  0.9743  1.0689
  936MOL0     H29118   1.304   8.339   4.681 -1.0997  1.5290 -2.2262
  936MOL0     H29119   1.369   8.185   4.622 -3.8665 -1.7737  2.7448
  936MOL0     H29120   1.205   8.388   4.467  1.4185  0.2868 -0.5502
  936MOL0     H29121   1.242   8.222   4.416 -0.4543 -0.5103  0.8844
  936MOL0     H29122   1.082   8.143   4.603 -4.7632  0.3053 -1.8933
  936MOL0     H29123   1.057   8.299   4.655  0.0465 -0.8144 -0.1737
  936MOL0     H29124   0.964   8.343   4.405 -3.5749 -0.5001 -0.6428
  936MOL0     H29125   0.965   8.164   4.396 -0.0122 -0.2271  0.3135
  936MOL0     H29126   0.748   8.014   4.586  0.8815 -0.3985 -1.9672
  936MOL0     H29127   0.538   7.793   4.392  0.6233 -1.4258  0.3374
  936MOL0     H29128   0.492   7.839   4.554 -1.2476 -0.5026 -2.1444
  936MOL0     H29129   0.664   7.814   4.510  0.5810  0.2655 -0.0636
  936MOL0     H29130   0.227   7.664   4.333 -0.2555 -0.2310  0.8353
  936MOL0     H29131   0.043   7.558   4.213 -0.9687 -1.1450 -3.8362
  936MOL0     H29132  -0.065   7.692   3.851 -0.0585  1.0695  0.5784
  936MOL0     H29133  -0.195   7.573   3.872 -0.0735  0.1874  0.8542
  936MOL0     H29134  -0.356   7.719   3.922  1.6812 -3.0922  3.7159
  936MOL0     H29135  -0.256   7.845   3.996  0.5925 -0.9975  0.3455
  936MOL0     H29136  -0.146   7.856   3.761 -0.1272  3.9097 -1.3847
  936MOL0     H29137  -0.310   7.929   3.779  0.5128  0.7555  1.9553
  936MOL0     H29138  -0.404   7.709   3.677  0.2054 -0.9777 -0.7895
  936MOL0     H29139  -0.239   7.656   3.658  2.7423  2.4723 -0.6055
  936MOL0     H29140  -0.347   7.905   3.522  1.2267  0.4481  1.4612
  936MOL0     H29141  -0.186   7.834   3.505  0.1405  0.3270 -3.0235
  936MOL0     H29142  -0.344   7.766   3.316  2.9751 -2.6313 -1.4683
  936MOL0     H29143  -0.435   7.672   3.442  1.0076  0.2588  2.9766
  936MOL0     H29144  -0.226   7.543   3.471  1.4952 -0.7683 -0.8199
  936MOL0     H29145  -0.138   7.670   3.380 -0.7165  0.7942 -0.4236
  936MOL0     H29146  -0.283   7.584   3.168  1.4521  1.4191 -0.6675
  936MOL0     H29147  -0.329   7.451   3.267  1.4898 -0.9368 -2.6508
  936MOL0     H29148  -0.002   7.896   3.967  0.4610 -4.5980 -2.7032
  936MOL0     H29149   0.184   8.013   4.063  0.6330  0.5783  0.2951
  936MOL0     H29150   0.507   8.280   4.254  0.5747  2.5945  2.2426
  936MOL0     H29151   0.699   8.373   4.376  0.1439 -0.9796 -3.8463
  936MOL0     H29152   2.787   8.758   4.249 -1.5481 -0.2527  0.7844
  936MOL0     H29153   2.913   8.958   4.323 -1.1308  1.0948  2.4362
  936MOL0     H29154   3.171   9.251   4.476  0.7188  0.0093  0.1521
  936MOL0     H29155   3.306   9.455   4.467  0.1104  2.2437  2.1564
  936MOL0     H29156   3.384   9.658   4.477 -0.4261 -2.8601 -1.0222
  936MOL0     H29157   3.367   9.588   4.312  2.7331 -1.5916  1.6232
  936MOL0     H29158   3.438   9.873   4.376  1.4828 -0.6109  2.1756
  936MOL0     H29159   3.366   9.818   4.216  0.3095 -0.1348  0.3760
  936MOL0     H29160   3.629   9.724   4.349  0.2972 -0.1879 -0.2993
  936MOL0     H29161   3.551   9.671   4.191 -2.4521  1.7275 -1.5384
  936MOL0     H29162   3.556   9.889   4.108  0.2644  3.1019  0.4250
  936MOL0     H29163   3.716   9.819   4.131  0.5803 -0.0656  1.7162
  936MOL0     H29164   3.743  10.182   4.358  0.2385 -1.1104  2.5266
  936MOL0     H29165   2.980   9.690   4.350  0.2433 -1.1934 -1.8589
  936MOL0     H29166   2.791   9.462   4.214  2.0047 -0.7777  0.3433
  936MOL0     H29167   2.724   9.432   4.374  1.6303  0.5340  2.8197
  936MOL0     H29168   2.758   9.599   4.322 -3.1248 -0.7857 -0.5530
  937MOL0     O29169   7.908   3.289   8.998  0.4446  0.2078  0.8659
  937MOL0     C29170   7.919   3.176   8.951 -0.9613 -0.0538  0.1145
  937MOL0     O29171   8.017   3.089   8.981  0.2361  0.3569 -0.5217
  937MOL0     C29172   8.112   3.125   9.073  0.5565  0.7385  0.0149
  937MOL0     C29173   8.092   3.182   9.197 -0.2657  1.2741 -0.2723
  937MOL0     C29174   8.195   3.209   9.293  0.4314 -0.0773 -0.4139
  937MOL0     C29175   8.327   3.170   9.265 -0.0711  0.5821 -0.0605
  937MOL0     O29176   8.437   3.194   9.348  0.0799  0.3397 -0.0693
  937MOL0     C29177   8.484   3.327   9.370  0.0998 -0.0284  0.7313
  937MOL0     C29178   8.618   3.329   9.449 -0.7267  0.4450  0.3592
  937MOL0     C29179   8.689   3.466   9.451  0.1009  0.7829 -0.0819
  937MOL0     C29180   8.783   3.464   9.575 -0.2114 -0.8885  0.1193
  937MOL0     C29181   8.907   3.543   9.567 -0.7174 -0.2312  0.0695
  937MOL0     C29182   8.874   3.688   9.583  0.4022  0.1166 -0.2036
  937MOL0     C29183   8.993   3.776   9.634  0.3627  0.3996  0.4233
  937MOL0     C29184   9.115   3.746   9.549 -0.2321 -0.2559 -0.0439
  937MOL0     N29185   9.209   3.850   9.571 -0.2606 -0.9319  0.4953
  937MOL0     C29186   9.287   3.871   9.676 -0.6393 -0.4574 -0.1469
  937MOL0     C29187   9.379   3.966   9.652  0.1467 -0.4261 -0.2328
  937MOL0     C29188   9.475   4.024   9.755 -0.1962  0.6347 -0.0586
  937MOL0     C29189   9.613   4.013   9.693 -0.1309 -0.1545 -0.0388
  937MOL0     C29190   9.713   4.033   9.819  0.5384 -1.0091 -0.3926
  937MOL0     C29191   9.857   4.058   9.770  0.5612  0.5082 -0.4811
  937MOL0     O29192   9.927   4.058   9.894  0.1761  0.0135 -0.6782
  937MOL0     C29193  10.062   4.067   9.895  0.4592  0.4359  0.2010
  937MOL0     C29194  10.133   4.030  10.014 -0.2529 -0.2515 -0.5808
  937MOL0     C29195  10.275   4.048  10.014  0.5092 -0.9295 -0.0994
  937MOL0     C29196  10.341   3.992  10.140  0.4454  0.3351  0.0843
  937MOL0     C29197  10.348   4.082   9.891  0.0803 -0.2156 -0.6770
  937MOL0     C29198  10.502   4.099   9.887  0.1168 -0.4479 -0.0679
  937MOL0     O29199  10.555   4.123   9.761 -0.0871 -0.6574  0.7006
  937MOL0     C29200  10.697   4.129   9.740  0.1206 -0.8999 -0.1293
  937MOL0     C29201  10.743   4.061   9.631 -0.4672 -0.1610  0.5226
  937MOL0     C29202  10.884   4.064   9.593  0.6520 -1.0090 -0.0584
  937MOL0     C29203  10.973   4.144   9.663  0.6425  0.5496  0.0407
  937MOL0     O29204  11.099   4.160   9.620 -0.0544 -0.1353  0.9486
  937MOL0     C29205  11.207   4.188   9.710 -0.3083 -0.2128  0.5766
  937MOL0     C29206  11.309   4.259   9.629 -1.0347  0.0887 -0.1159
  937MOL0     C29207  11.456   4.246   9.692 -0.0052 -0.4818  0.6356
  937MOL0     C29208  11.555   4.334   9.609 -0.3050  0.7704  0.1962
  937MOL0     C29209  11.696   4.321   9.659  0.3139 -0.4769 -0.7161
  937MOL0     C29210  11.802   4.357   9.548 -0.0275  0.2390  0.0957
  937MOL0     C29211  11.810   4.513   9.539 -0.4540 -0.3502 -0.1436
  937MOL0     C29212  11.929   4.561   9.450  0.2652  0.2685 -0.1916
  937MOL0    Cl29213  11.899   4.730   9.432  0.5312 -0.1116  0.1075
  937MOL0     C29214  10.926   4.204   9.781  0.9318  0.6591  0.2510
  937MOL0     C29215  10.796   4.199   9.806 -0.3452 -0.2752 -0.3887
  937MOL0     O29216  10.571   4.095   9.990  0.3684 -0.1981  0.5180
  937MOL0     C29217  10.270   4.104   9.784 -0.7268 -0.4181  0.4231
  937MOL0     C29218  10.134   4.102   9.780  0.4104 -0.0549  0.2697
  937MOL0     N29219   9.353   4.005   9.524  0.4390 -0.1029  0.4376
  937MOL0     N29220   9.264   3.932   9.474 -0.2525 -0.0310  0.2174
  937MOL0     C29221   8.352   3.111   9.139 -0.6260 -0.4096  0.7128
  937MOL0     C29222   8.243   3.086   9.046 -0.8037 -0.1708  0.0422
  937MOL0     C29223   7.809   3.132   8.862 -0.4494  0.1692  0.8668
  937MOL0     C29224   7.746   3.022   8.896  0.2707  0.8425  0.5491
  937MOL0     C29225   7.623   2.985   8.828 -0.4558 -0.0688  0.3708
  937MOL0     C29226   7.576   3.051   8.714  0.5495 -0.6409  0.1471
  937MOL0     O29227   7.476   2.991   8.645 -0.1124 -0.8671  0.2429
  937MOL0     C29228   7.378   3.078   8.583 -0.0555  0.9749 -0.8350
  937MOL0     C29229   7.300   3.166   8.682  0.4587 -0.2096  0.5695
  937MOL0     C29230   7.180   3.236   8.601  0.5075 -0.7715  0.0019
  937MOL0     C29231   7.092   3.347   8.680  0.3022  1.0331 -0.1370
  937MOL0     C29232   7.173   3.440   8.759  0.0186 -0.7064 -1.1157
  937MOL0     C29233   7.251   3.498   8.835  0.5086  0.7459  0.3872
  937MOL0     C29234   7.652   3.167   8.682  0.1640  0.3890 -0.4114
  937MOL0     C29235   7.765   3.207   8.749 -0.0885  0.2406 -0.0503
  937MOL0     C29236   7.837   3.326   8.687  0.4858  0.4241  0.7996
  937MOL0     H29237   7.986   3.184   9.220 -0.5159 -3.6707  0.0122
  937MOL0     H29238   8.175   3.240   9.394  0.5251 -3.0859  0.6492
  937MOL0     H29239   8.411   3.372   9.438 -0.7114 -0.2934  0.0632
  937MOL0     H29240   8.499   3.396   9.286 -2.6212  1.5633  1.4140
  937MOL0     H29241   8.585   3.297   9.549  0.2587 -1.1792  0.1995
  937MOL0     H29242   8.682   3.247   9.415  0.6801  0.6584  2.2868
  937MOL0     H29243   8.747   3.479   9.359 -0.1991 -0.3033 -0.4432
  937MOL0     H29244   8.616   3.546   9.467  1.8309  2.0784  1.7425
  937MOL0     H29245   8.728   3.492   9.665 -1.7255 -0.2663 -0.9490
  937MOL0     H29246   8.822   3.363   9.592  0.2733 -1.2189 -2.5118
  937MOL0     H29247   8.958   3.536   9.470  0.6956  1.8237  0.5835
  937MOL0     H29248   8.977   3.505   9.641 -0.6964  0.9243  0.6673
  937MOL0     H29249   8.836   3.718   9.485  0.5749 -2.7692 -1.2287
  937MOL0     H29250   8.797   3.692   9.660 -1.2279  0.5020 -1.7925
  937MOL0     H29251   9.015   3.758   9.740  0.4945  0.1031  0.3458
  937MOL0     H29252   8.968   3.881   9.622 -0.0127  0.2723  0.0820
  937MOL0     H29253   9.160   3.654   9.586 -0.7760 -1.1885 -1.6284
  937MOL0     H29254   9.083   3.733   9.445 -1.2914 -0.2438  0.2681
  937MOL0     H29255   9.270   3.832   9.775 -0.9824 -1.9717 -0.7775
  937MOL0     H29256   9.459   3.969   9.848 -2.7953 -2.1558 -1.9633
  937MOL0     H29257   9.450   4.129   9.775 -1.3634  0.7283 -1.7325
  937MOL0     H29258   9.643   3.920   9.645  0.2519 -0.2010  0.2933
  937MOL0     H29259   9.630   4.092   9.618 -2.2096  1.0616  0.6642
  937MOL0     H29260   9.681   4.120   9.878 -2.1376 -1.0759 -1.5770
  937MOL0     H29261   9.712   3.939   9.875  1.5241 -1.4105 -1.0234
  937MOL0     H29262   9.888   3.976   9.704  1.2455  0.8902 -0.6398
  937MOL0     H29263   9.878   4.152   9.719 -0.9000  1.2123  0.1511
  937MOL0     H29264  10.078   4.010  10.106  0.3863 -2.7442 -0.6688
  937MOL0     H29265  10.254   3.973  10.205 -1.7543 -0.2127 -2.7897
  937MOL0     H29266  10.414   4.060  10.183 -1.6073  3.2670 -0.7444
  937MOL0     H29267  10.377   3.891  10.119 -1.2407 -0.5938  1.4002
  937MOL0     H29268  10.679   4.008   9.561 -0.5107 -0.9863  1.1701
  937MOL0     H29269  10.905   4.002   9.505 -1.7715 -3.5626  0.9931
  937MOL0     H29270  11.187   4.244   9.802  0.7674 -2.1183  2.0661
  937MOL0     H29271  11.263   4.098   9.739  0.7576  0.2989  0.1579
  937MOL0     H29272  11.301   4.226   9.525 -0.0078 -1.9564  0.4235
  937MOL0     H29273  11.286   4.366   9.626 -0.4272  0.2032 -1.3585
  937MOL0     H29274  11.490   4.142   9.687 -0.7093 -0.6682 -2.3957
  937MOL0     H29275  11.445   4.285   9.793 -0.2535  1.3798 -0.0728
  937MOL0     H29276  11.523   4.438   9.598  1.4672  1.1027 -3.0858
  937MOL0     H29277  11.538   4.305   9.505  1.4077 -1.5478  0.4751
  937MOL0     H29278  11.713   4.388   9.744  0.9802 -0.7774 -0.6108
  937MOL0     H29279  11.710   4.217   9.690  1.7679 -0.1173 -0.1122
  937MOL0     H29280  11.783   4.309   9.452 -1.4679 -0.8723  0.8927
  937MOL0     H29281  11.896   4.314   9.583 -2.0710 -4.1084  0.9086
  937MOL0     H29282  11.818   4.554   9.640  1.8412 -0.7306 -0.1138
  937MOL0     H29283  11.720   4.550   9.490 -0.4996  2.0706  1.5548
  937MOL0     H29284  11.933   4.496   9.362 -3.0859  0.9041 -0.9458
  937MOL0     H29285  12.015   4.543   9.516  1.4979  0.0802 -1.7899
  937MOL0     H29286  10.980   4.265   9.853  0.3105 -0.5377  1.7933
  937MOL0     H29287  10.763   4.255   9.894 -2.4330 -1.6978 -0.1864
  937MOL0     H29288  10.314   4.136   9.690 -2.9819 -0.8702 -0.8652
  937MOL0     H29289  10.085   4.119   9.685 -0.9099 -1.2239  0.7020
  937MOL0     H29290   8.456   3.095   9.113 -0.8941  1.0082 -1.5142
  937MOL0     H29291   8.263   3.032   8.954  1.1073  2.7041 -1.3822
  937MOL0     H29292   7.771   2.965   8.985  0.0964  0.0773  0.1177
  937MOL0     H29293   7.569   2.895   8.857  1.3825 -1.5131 -0.5105
  937MOL0     H29294   7.419   3.139   8.502  0.4469  1.7701 -0.0011
  937MOL0     H29295   7.319   2.997   8.537 -1.1005  1.4698 -0.3985
  937MOL0     H29296   7.366   3.237   8.733  1.0924 -0.4580  0.1151
  937MOL0     H29297   7.249   3.108   8.759 -0.9982 -2.1857 -1.7277
  937MOL0     H29298   7.232   3.299   8.527 -0.6957  0.9042  0.5201
  937MOL0     H29299   7.118   3.165   8.545 -0.2200  0.2128 -0.4692
  937MOL0     H29300   7.024   3.292   8.745  1.6290 -0.0609  0.3825
  937MOL0     H29301   7.022   3.395   8.612 -2.1715  1.6917  2.6567
  937MOL0     H29302   7.319   3.556   8.894 -0.3622  0.8824  1.2694
  937MOL0     H29303   7.613   3.229   8.601  0.3415  1.7119  0.4876
  937MOL0     H29304   7.847   3.405   8.762 -1.0232  0.8842  0.5621
  937MOL0     H29305   7.936   3.298   8.652 -0.3158  1.6149 -2.9417
  937MOL0     H29306   7.786   3.365   8.599 -1.8050  0.1601  1.9239
  938MOL0     O29307   1.274   0.546   4.350 -0.3560 -0.6167  0.1951
  938MOL0     C29308   1.307   0.486   4.454 -0.7148  0.2234  0.5353
  938MOL0     O29309   1.418   0.499   4.526  0.3735  0.5885  0.3217
  938MOL0     C29310   1.511   0.574   4.470  0.2466 -0.4751 -0.5537
  938MOL0     C29311   1.510   0.713   4.481 -0.8849 -0.2403 -0.2581
  938MOL0     C29312   1.612   0.794   4.425  0.5141  0.0104 -0.2532
  938MOL0     C29313   1.725   0.737   4.366 -0.2567 -0.4770  0.5888
  938MOL0     O29314   1.816   0.824   4.311 -0.1404 -0.8892 -0.2299
  938MOL0     C29315   1.838   0.827   4.173 -0.3374 -0.0106  0.1094
  938MOL0     C29316   1.954   0.924   4.152  0.6340 -0.8766 -0.3988
  938MOL0     C29317   2.005   0.934   4.006  0.0644 -0.2637 -0.1616
  938MOL0     C29318   2.131   1.042   4.007 -0.4312  0.7143  0.0128
  938MOL0     C29319   2.212   1.043   3.872 -0.7257 -0.3397 -0.3798
  938MOL0     C29320   2.353   1.090   3.902 -0.9778  0.3523  0.1243
  938MOL0     C29321   2.433   1.133   3.773  0.4880 -0.3304  1.4702
  938MOL0     C29322   2.572   1.185   3.805  0.0284  0.1512  0.0935
  938MOL0     N29323   2.652   1.071   3.849  0.5181  0.0959 -0.2569
  938MOL0     C29324   2.675   0.948   3.782  0.3261  0.8466  0.4333
  938MOL0     C29325   2.740   0.865   3.873  0.1702 -0.7674  0.6796
  938MOL0     C29326   2.809   0.736   3.849 -1.1447  0.7820 -0.9377
  938MOL0     C29327   2.948   0.740   3.784  0.9990 -0.1620  1.3150
  938MOL0     C29328   3.041   0.825   3.861 -0.4933 -0.1876  0.2656
  938MOL0     C29329   3.184   0.817   3.821 -0.1354 -0.1216  0.6235
  938MOL0     O29330   3.185   0.900   3.697 -0.3211  0.4815  0.0739
  938MOL0     C29331   3.306   0.937   3.644  0.4563 -0.4028  0.2118
  938MOL0     C29332   3.417   0.856   3.660 -1.0564  0.0746 -0.1920
  938MOL0     C29333   3.545   0.891   3.618 -0.8283 -0.7151 -0.6992
  938MOL0     C29334   3.660   0.794   3.639  0.2930  0.5964 -0.3518
  938MOL0     C29335   3.555   1.014   3.546 -0.3944 -0.3262 -0.0952
  938MOL0     C29336   3.680   1.067   3.494 -0.5795 -0.1619  0.1679
  938MOL0     O29337   3.669   1.158   3.387  0.4530 -0.4568 -0.4998
  938MOL0     C29338   3.782   1.229   3.341 -0.5991  0.0097 -0.5344
  938MOL0     C29339   3.840   1.193   3.213 -1.0876 -0.8333 -0.5643
  938MOL0     C29340   3.960   1.250   3.181 -0.0014 -0.1481  0.7459
  938MOL0     C29341   4.017   1.350   3.258 -0.4311  0.1981 -0.0273
  938MOL0     O29342   4.122   1.426   3.217 -0.1626  0.3503 -0.2263
  938MOL0     C29343   4.181   1.410   3.088 -0.1382 -0.0034  0.3130
  938MOL0     C29344   4.300   1.506   3.065 -0.2272 -0.5034 -0.7601
  938MOL0     C29345   4.356   1.494   2.925 -0.4588  0.5924 -0.0841
  938MOL0     C29346   4.471   1.595   2.911  0.7488 -0.3799 -0.0432
  938MOL0     C29347   4.427   1.729   2.861 -0.1622 -1.0797 -0.0515
  938MOL0     C29348   4.530   1.841   2.827  0.3316  0.0974  0.0478
  938MOL0     C29349   4.485   1.984   2.816  0.0832 -0.3654 -0.2606
  938MOL0     C29350   4.596   2.083   2.854  0.3213 -0.4825  0.4285
  938MOL0    Cl29351   4.716   2.099   2.719  0.0611  0.1768 -0.0569
  938MOL0     C29352   3.959   1.392   3.385 -0.0224 -0.6281 -0.3230
  938MOL0     C29353   3.844   1.320   3.423  0.3887 -0.4212 -0.3675
  938MOL0     O29354   3.787   1.022   3.532  1.0903 -0.4638 -0.0281
  938MOL0     C29355   3.443   1.090   3.515 -0.0564 -1.1097 -0.2268
  938MOL0     C29356   3.320   1.050   3.562 -0.6319  0.4398 -0.2144
  938MOL0     N29357   2.741   0.939   3.991 -0.3413  0.0832  0.7035
  938MOL0     N29358   2.698   1.065   3.973 -0.2432 -0.9270 -0.1803
  938MOL0     C29359   1.719   0.599   4.353  0.3726 -0.3486  0.2855
  938MOL0     C29360   1.615   0.517   4.402  0.3500 -0.8871  0.9213
  938MOL0     C29361   1.206   0.392   4.499  0.1523  0.2462 -0.5948
  938MOL0     C29362   1.067   0.407   4.462 -0.3035 -0.7375  0.0552
  938MOL0     C29363   0.964   0.326   4.514 -0.5625  0.2093 -0.1609
  938MOL0     C29364   1.002   0.212   4.585 -0.4182  0.9615 -0.2294
  938MOL0     O29365   0.909   0.127   4.647 -0.4766  0.0976  0.2670
  938MOL0     C29366   0.764   0.146   4.629 -0.5574  0.4519 -0.1738
  938MOL0     C29367   0.700   0.015   4.689  1.1198 -0.2868 -0.5517
  938MOL0     C29368   0.546   0.039   4.695 -0.9796 -0.0808  0.7492
  938MOL0     C29369   0.480  -0.069   4.775 -0.0861  0.3375 -0.0418
  938MOL0     C29370   0.332  -0.060   4.777  0.0631  0.6845 -0.6168
  938MOL0     C29371   0.213  -0.044   4.790  0.2914 -0.2709 -0.0069
  938MOL0     C29372   1.134   0.191   4.610 -0.3990  0.4024  0.2070
  938MOL0     C29373   1.240   0.281   4.577  0.0353  0.4450  0.7091
  938MOL0     C29374   1.385   0.247   4.622  0.1694 -0.4790  0.5825
  938MOL0     H29375   1.422   0.752   4.531 -0.7114 -0.7380  0.4470
  938MOL0     H29376   1.608   0.901   4.437 -1.1966 -0.1191  0.7486
  938MOL0     H29377   1.754   0.869   4.116 -0.3419  1.4374  1.1308
  938MOL0     H29378   1.867   0.727   4.137 -2.9147 -0.5553 -0.6541
  938MOL0     H29379   1.926   1.025   4.181  4.6469  0.1168  0.6216
  938MOL0     H29380   2.032   0.890   4.220  0.5768 -0.9775 -0.3822
  938MOL0     H29381   2.039   0.836   3.972  1.4576  0.8413 -2.2049
  938MOL0     H29382   1.930   0.982   3.942 -0.1271 -0.6642 -0.2367
  938MOL0     H29383   2.097   1.141   4.039 -0.5297  0.0140  2.2719
  938MOL0     H29384   2.202   1.018   4.087 -0.4986 -2.5924 -0.7614
  938MOL0     H29385   2.167   1.100   3.790  1.6490  3.0945  0.4931
  938MOL0     H29386   2.218   0.939   3.838  0.9470 -1.0927  2.0196
  938MOL0     H29387   2.334   1.177   3.966  1.3695  0.9516  0.1331
  938MOL0     H29388   2.408   1.008   3.949 -2.0518 -1.5077 -1.7358
  938MOL0     H29389   2.386   1.213   3.714 -0.6866 -2.3120 -0.4468
  938MOL0     H29390   2.444   1.053   3.699  2.4511  0.6570  0.6284
  938MOL0     H29391   2.617   1.216   3.710  1.0110  0.0553  0.5108
  938MOL0     H29392   2.566   1.267   3.877  0.9413 -0.6537  1.1340
  938MOL0     H29393   2.667   0.937   3.674  0.6523 -0.7390  0.5538
  938MOL0     H29394   2.741   0.671   3.794 -0.9149  0.9469 -1.4208
  938MOL0     H29395   2.834   0.703   3.951  2.1945  3.5106 -0.7036
  938MOL0     H29396   2.992   0.640   3.771  0.1354 -0.6068  1.6944
  938MOL0     H29397   2.935   0.786   3.686  1.6181 -0.2292  1.1980
  938MOL0     H29398   3.001   0.927   3.870 -0.0307 -0.0970  1.5765
  938MOL0     H29399   3.051   0.782   3.961  1.7217  3.4554  1.8304
  938MOL0     H29400   3.246   0.845   3.906 -0.4670 -1.9917  1.5305
  938MOL0     H29401   3.215   0.718   3.786 -1.0913  0.5847 -2.5765
  938MOL0     H29402   3.414   0.756   3.703 -0.1538  1.0806  2.3953
  938MOL0     H29403   3.618   0.699   3.673  3.3855 -0.0879  1.9402
  938MOL0     H29404   3.723   0.832   3.719  0.7704  0.9151 -0.8763
  938MOL0     H29405   3.710   0.779   3.543 -2.6807  2.8245 -2.4648
  938MOL0     H29406   3.794   1.109   3.163 -0.3573 -2.7453  1.7433
  938MOL0     H29407   4.007   1.229   3.085 -0.9285  0.1599  0.2010
  938MOL0     H29408   4.219   1.308   3.084  1.2795  0.5209 -0.5587
  938MOL0     H29409   4.116   1.424   3.001  2.2360  1.7419 -1.3350
  938MOL0     H29410   4.270   1.607   3.095  1.2207 -0.3552  0.2733
  938MOL0     H29411   4.373   1.482   3.143 -1.0228 -1.2324 -0.2118
  938MOL0     H29412   4.279   1.515   2.850 -2.2135 -2.4183  0.6672
  938MOL0     H29413   4.384   1.390   2.903  0.6451  0.1307  3.0995
  938MOL0     H29414   4.542   1.557   2.837 -0.6858  0.7680 -2.1105
  938MOL0     H29415   4.516   1.620   3.008 -0.6204 -1.2009  0.8399
  938MOL0     H29416   4.366   1.716   2.771 -1.6110 -0.4271  0.7922
  938MOL0     H29417   4.359   1.778   2.932  0.6693  2.0869 -1.3018
  938MOL0     H29418   4.564   1.809   2.728 -2.5983  0.5325 -1.2179
  938MOL0     H29419   4.603   1.832   2.908  0.7475 -0.2370 -0.3592
  938MOL0     H29420   4.410   2.007   2.893 -0.1451 -0.1926 -0.5325
  938MOL0     H29421   4.443   2.007   2.718 -0.3545 -1.1559 -0.2630
  938MOL0     H29422   4.642   2.061   2.951 -0.6681 -3.2932  0.3560
  938MOL0     H29423   4.560   2.185   2.871  2.5753  0.4455 -0.0473
  938MOL0     H29424   3.994   1.480   3.438 -2.7880  0.1388  0.3827
  938MOL0     H29425   3.797   1.343   3.518  0.4128 -2.3972  0.1483
  938MOL0     H29426   3.445   1.184   3.462 -1.2826 -1.9074 -1.8071
  938MOL0     H29427   3.229   1.108   3.560 -0.9795 -0.1045 -0.4434
  938MOL0     H29428   1.802   0.548   4.304  1.6507  0.4416  1.5499
  938MOL0     H29429   1.626   0.412   4.379  0.2375 -0.5789 -0.7151
  938MOL0     H29430   1.039   0.490   4.398 -2.6077 -1.7934 -0.4443
  938MOL0     H29431   0.863   0.354   4.485 -0.1432  1.2053 -0.7446
  938MOL0     H29432   0.731   0.239   4.676  0.9801  0.9854 -0.1070
  938MOL0     H29433   0.738   0.168   4.525 -1.5700 -0.6730 -0.1827
  938MOL0     H29434   0.745  -0.002   4.787 -1.9739 -3.2478  0.5595
  938MOL0     H29435   0.723  -0.060   4.612 -1.8057 -0.1279 -1.7070
  938MOL0     H29436   0.513   0.138   4.730  0.8577  0.2523  1.6627
  938MOL0     H29437   0.514   0.025   4.591 -0.2708 -0.3979  0.5638
  938MOL0     H29438   0.512  -0.085   4.878 -2.5550  0.0729  0.7487
  938MOL0     H29439   0.503  -0.162   4.722 -0.0846  0.1784  0.2355
  938MOL0     H29440   0.110  -0.014   4.789  0.2330 -0.4648  0.0434
  938MOL0     H29441   1.166   0.106   4.670  1.9566 -0.6791 -2.3359
  938MOL0     H29442   1.417   0.327   4.690  0.2765 -0.5106  0.5688
  938MOL0     H29443   1.386   0.151   4.674 -1.9559 -2.4186 -2.6209
  938MOL0     H29444   1.453   0.247   4.536  2.2969 -2.4788  2.1371
  939MOL0     O29445   3.924   9.179   1.679  0.5724 -0.4648  0.1361
  939MOL0     C29446   4.005   9.115   1.735 -0.2493  0.2678 -0.9534
  939MOL0     O29447   3.992   9.056   1.859  0.0109  0.0168 -0.0016
  939MOL0     C29448   3.867   9.040   1.910  0.6375 -0.1377  0.0114
  939MOL0     C29449   3.811   9.141   1.989 -0.4309  0.4631  0.5224
  939MOL0     C29450   3.683   9.117   2.039  0.2789  0.1680 -1.0065
  939MOL0     C29451   3.604   9.002   2.012 -0.1805 -0.3828  0.1272
  939MOL0     O29452   3.478   8.992   2.061 -0.3049 -0.1349  0.0144
  939MOL0     C29453   3.363   8.937   1.995  0.2056  0.2457 -1.4800
  939MOL0     C29454   3.264   8.889   2.107 -0.1545  0.5173  0.4312
  939MOL0     C29455   3.129   8.867   2.052 -0.5669 -0.9197  0.2971
  939MOL0     C29456   3.057   8.985   1.979  0.4422  0.1990  0.2489
  939MOL0     C29457   3.037   9.111   2.060 -0.3473  1.0950 -0.6812
  939MOL0     C29458   2.976   9.097   2.201  0.5425 -0.3357 -0.0077
  939MOL0     C29459   2.848   9.015   2.208 -0.6841 -0.1407 -0.0437
  939MOL0     C29460   2.785   9.021   2.350 -0.0947  0.3729  0.3042
  939MOL0     N29461   2.862   8.932   2.436 -0.5259  0.0939 -0.3220
  939MOL0     C29462   2.968   8.970   2.517  1.1018  0.1663 -0.4254
  939MOL0     C29463   3.016   8.849   2.574  0.0857  0.1031  0.4364
  939MOL0     C29464   3.123   8.847   2.680 -0.6576 -0.6507  0.5052
  939MOL0     C29465   3.168   8.701   2.721  1.3007 -0.4209 -0.2522
  939MOL0     C29466   3.242   8.709   2.859 -1.0582 -0.1547  0.4101
  939MOL0     C29467   3.395   8.736   2.847  0.2237 -0.0421 -0.4356
  939MOL0     O29468   3.456   8.616   2.798  0.4169 -0.7714 -0.6668
  939MOL0     C29469   3.590   8.628   2.782 -0.3086  0.5317 -0.0350
  939MOL0     C29470   3.677   8.645   2.890 -0.5232  0.2721 -0.0753
  939MOL0     C29471   3.813   8.659   2.879  0.5902  0.8476  0.4144
  939MOL0     C29472   3.886   8.654   3.014  0.4545  0.2324  0.2687
  939MOL0     C29473   3.877   8.648   2.752 -0.9985 -0.2566 -0.4090
  939MOL0     C29474   4.025   8.654   2.735 -0.1455 -0.0772  0.3679
  939MOL0     O29475   4.106   8.638   2.843 -0.4130  0.0364 -0.0470
  939MOL0     C29476   4.239   8.657   2.825 -0.3513 -0.0269  0.6256
  939MOL0     C29477   4.302   8.776   2.862  0.0204 -0.4079  0.7641
  939MOL0     C29478   4.445   8.805   2.851  0.7403  0.0689  0.1858
  939MOL0     C29479   4.523   8.698   2.806  0.7064 -0.5661 -0.6020
  939MOL0     O29480   4.658   8.709   2.778 -0.1118 -0.0833 -0.5401
  939MOL0     C29481   4.726   8.834   2.766 -0.5883 -0.8492 -0.1347
  939MOL0     C29482   4.872   8.815   2.766 -0.7844 -0.5099  0.3673
  939MOL0     C29483   4.930   8.720   2.652  0.4427 -0.2114  0.6707
  939MOL0     C29484   5.072   8.737   2.615  0.0573  0.9602 -0.7028
  939MOL0     C29485   5.156   8.679   2.738  0.9497 -0.3371 -0.4780
  939MOL0     C29486   5.303   8.698   2.716  1.2876 -0.2107  0.5560
  939MOL0     C29487   5.365   8.628   2.838 -0.5209  0.0899 -0.3965
  939MOL0     C29488   5.515   8.626   2.821 -1.3206 -0.1112  0.1351
  939MOL0    Cl29489   5.603   8.545   2.953  0.1305 -0.3970 -0.3940
  939MOL0     C29490   4.463   8.581   2.783  0.6936  1.0627  0.3565
  939MOL0     C29491   4.327   8.553   2.793  0.0389 -0.1683  0.4429
  939MOL0     O29492   4.064   8.660   2.625  0.6021  0.4212 -0.0639
  939MOL0     C29493   3.788   8.645   2.640  0.3397  0.4825  0.2501
  939MOL0     C29494   3.650   8.631   2.653 -0.2908 -0.7549  0.4914
  939MOL0     N29495   2.940   8.753   2.517  0.1703 -0.2994  0.7052
  939MOL0     N29496   2.848   8.799   2.438  0.1413  0.2562  0.3939
  939MOL0     C29497   3.662   8.915   1.919  0.3810 -0.3190  0.0356
  939MOL0     C29498   3.793   8.930   1.871 -0.1160  0.4751  0.5033
  939MOL0     C29499   4.153   9.144   1.704 -0.0310 -0.2054 -0.7201
  939MOL0     C29500   4.237   9.191   1.804  0.7373  0.3883 -0.6244
  939MOL0     C29501   4.365   9.235   1.777  0.8070 -0.7313 -0.1402
  939MOL0     C29502   4.421   9.220   1.650  0.2537  0.0083  0.4014
  939MOL0     O29503   4.550   9.250   1.620 -0.2573  0.5591  0.1473
  939MOL0     C29504   4.654   9.189   1.701  0.2431 -0.2492 -0.0001
  939MOL0     C29505   4.796   9.225   1.658 -0.3454 -1.0402  0.3505
  939MOL0     C29506   4.865   9.112   1.582  0.7285 -0.3006  0.1128
  939MOL0     C29507   5.008   9.139   1.559  0.4152 -0.6597 -0.4536
  939MOL0     C29508   5.036   9.254   1.471 -0.0681 -0.3220  0.0481
  939MOL0     C29509   5.060   9.348   1.395 -0.0204  0.0517 -0.2986
  939MOL0     C29510   4.342   9.171   1.544  0.1093 -0.2486 -0.1032
  939MOL0     C29511   4.210   9.126   1.573  0.1411  0.7090  0.5092
  939MOL0     C29512   4.123   9.064   1.471 -0.0301  0.1243 -0.5639
  939MOL0     H29513   3.869   9.230   2.011  0.1225  0.2673 -0.1209
  939MOL0     H29514   3.632   9.188   2.104 -0.0969  0.3439 -1.4838
  939MOL0     H29515   3.371   8.856   1.922 -3.3705 -0.5529 -1.1640
  939MOL0     H29516   3.311   9.019   1.945 -0.0286 -0.4951 -2.5078
  939MOL0     H29517   3.304   8.797   2.152  1.5387  0.8273 -0.3470
  939MOL0     H29518   3.261   8.956   2.193 -0.8290 -0.8033  1.4722
  939MOL0     H29519   3.130   8.777   1.989  0.3295 -1.1359  0.5952
  939MOL0     H29520   3.070   8.839   2.140  0.1332 -2.5736  0.2957
  939MOL0     H29521   3.111   9.004   1.886 -2.5935  0.6293 -1.5777
  939MOL0     H29522   2.954   8.953   1.958 -0.3170  0.9802  2.4957
  939MOL0     H29523   2.976   9.185   2.008 -2.5466 -0.3416 -0.3119
  939MOL0     H29524   3.137   9.154   2.068  0.6977 -0.9680 -1.8327
  939MOL0     H29525   3.060   9.059   2.260  1.3658 -1.5819 -1.9053
  939MOL0     H29526   2.961   9.201   2.231  0.7326  0.1323 -1.4886
  939MOL0     H29527   2.861   8.909   2.185 -1.6292  0.0320 -1.5047
  939MOL0     H29528   2.772   9.054   2.138  0.6425  2.9654  0.0810
  939MOL0     H29529   2.781   9.124   2.386  0.4989  0.6045 -0.2732
  939MOL0     H29530   2.683   8.984   2.352  0.3307 -0.8256  1.1927
  939MOL0     H29531   3.001   9.073   2.523 -1.9610  1.7898 -5.2020
  939MOL0     H29532   3.080   8.904   2.763  0.9144  0.8911  0.3035
  939MOL0     H29533   3.203   8.903   2.632 -0.3507 -0.7441  0.9086
  939MOL0     H29534   3.078   8.643   2.741 -1.3861  3.7678  1.3476
  939MOL0     H29535   3.222   8.652   2.640 -0.7091  1.2997 -2.8037
  939MOL0     H29536   3.199   8.788   2.920  1.1358  0.0391  1.7920
  939MOL0     H29537   3.230   8.618   2.918 -0.9822  1.0787  2.3955
  939MOL0     H29538   3.424   8.819   2.781  1.3248 -0.1411 -0.0912
  939MOL0     H29539   3.428   8.760   2.948 -0.7613  1.4585 -0.4285
  939MOL0     H29540   3.640   8.647   2.992  0.5973  0.2309  0.3438
  939MOL0     H29541   3.965   8.730   3.017 -0.7948  1.6744 -1.4176
  939MOL0     H29542   3.926   8.553   3.023  0.3773  0.3316  2.1236
  939MOL0     H29543   3.814   8.679   3.092 -0.2888 -0.3449 -0.2183
  939MOL0     H29544   4.233   8.846   2.908  0.6223  1.2930 -0.8115
  939MOL0     H29545   4.471   8.907   2.881 -0.2340  0.5342 -0.4931
  939MOL0     H29546   4.684   8.878   2.675 -0.5229 -2.4620 -0.9883
  939MOL0     H29547   4.696   8.898   2.849  1.9541  1.0881 -0.5852
  939MOL0     H29548   4.909   8.918   2.759 -1.1661 -0.4598 -1.3282
  939MOL0     H29549   4.903   8.770   2.861  1.7030 -0.5365 -0.3965
  939MOL0     H29550   4.876   8.743   2.560  2.4092  2.3591  0.0507
  939MOL0     H29551   4.905   8.614   2.667  1.0565 -0.3665  0.6128
  939MOL0     H29552   5.115   8.837   2.606  3.7966 -0.5609 -2.1307
  939MOL0     H29553   5.087   8.679   2.524 -1.0637  0.2471 -0.4497
  939MOL0     H29554   5.128   8.732   2.830 -1.7712 -4.3161  1.2685
  939MOL0     H29555   5.133   8.572   2.745  0.0472 -0.2199 -1.3712
  939MOL0     H29556   5.317   8.806   2.709 -0.2466 -0.0435 -0.3818
  939MOL0     H29557   5.337   8.652   2.623  0.7253 -0.0979  0.2913
  939MOL0     H29558   5.331   8.526   2.861 -0.4183  0.3785  1.2002
  939MOL0     H29559   5.335   8.679   2.930 -0.5776 -0.2918 -0.1992
  939MOL0     H29560   5.559   8.725   2.807  1.8833 -1.5661 -1.2145
  939MOL0     H29561   5.537   8.581   2.724 -0.1268 -0.8889  0.7403
  939MOL0     H29562   4.525   8.496   2.756 -1.2396 -0.2882 -0.0442
  939MOL0     H29563   4.295   8.452   2.768  0.8775 -0.0019 -1.5630
  939MOL0     H29564   3.822   8.646   2.537 -1.3025 -1.2455 -0.3462
  939MOL0     H29565   3.599   8.614   2.559 -1.5081 -1.7613  1.3133
  939MOL0     H29566   3.597   8.834   1.884 -0.9323  1.0584 -0.8295
  939MOL0     H29567   3.840   8.862   1.800 -0.2281 -0.1669  1.0364
  939MOL0     H29568   4.199   9.202   1.906 -0.5628 -1.2789 -0.8863
  939MOL0     H29569   4.425   9.280   1.855  0.4629 -2.8901  1.4748
  939MOL0     H29570   4.631   9.214   1.805 -1.2321  0.4512 -0.4695
  939MOL0     H29571   4.649   9.079   1.704 -1.0845 -0.2049 -0.1613
  939MOL0     H29572   4.856   9.260   1.742  0.1235 -0.1706 -0.3259
  939MOL0     H29573   4.790   9.312   1.592  0.0697 -1.8583 -0.8115
  939MOL0     H29574   4.869   9.024   1.647  3.4321  0.3329  0.9155
  939MOL0     H29575   4.815   9.096   1.486  1.6002  1.0455 -0.5980
  939MOL0     H29576   5.056   9.050   1.518 -1.3744 -1.1790 -1.4987
  939MOL0     H29577   5.045   9.162   1.660 -2.7029  1.3176  0.3786
  939MOL0     H29578   5.089   9.429   1.331  3.1401 -0.4489  0.3826
  939MOL0     H29579   4.390   9.164   1.447 -1.1000 -3.1910 -0.6072
  939MOL0     H29580   4.056   8.984   1.506  2.0352 -1.7570 -0.6927
  939MOL0     H29581   4.071   9.147   1.422  1.3246  2.1376  1.2238
  939MOL0     H29582   4.182   9.008   1.398  3.0063  0.2782  1.6270
  940MOL0     O29583   9.645   8.556   4.807  0.4130 -0.6257  0.4225
  940MOL0     C29584   9.608   8.541   4.687  0.5367  0.0281 -0.1566
  940MOL0     O29585   9.686   8.555   4.579  0.7578 -0.1536  0.8899
  940MOL0     C29586   9.803   8.624   4.586 -0.5365 -0.0575 -0.7377
  940MOL0     C29587   9.918   8.591   4.669  0.1338  0.1384 -0.2077
  940MOL0     C29588  10.028   8.676   4.679 -0.4780 -0.4747  0.5182
  940MOL0     C29589  10.028   8.799   4.608 -0.5479  0.5857  0.4508
  940MOL0     O29590  10.134   8.882   4.589  0.6011 -0.8014 -0.2728
  940MOL0     C29591  10.260   8.833   4.635  0.4705  0.5284 -0.1291
  940MOL0     C29592  10.366   8.922   4.576  0.2103 -0.6933 -0.1731
  940MOL0     C29593  10.497   8.846   4.588 -0.2810 -0.0316 -0.1575
  940MOL0     C29594  10.609   8.946   4.555 -0.0491 -0.3983  0.3763
  940MOL0     C29595  10.736   8.862   4.556 -1.0523 -0.7721  0.7960
  940MOL0     C29596  10.865   8.951   4.558  0.4709 -0.1418  0.1258
  940MOL0     C29597  10.983   8.861   4.541 -0.5568  0.1409 -0.2053
  940MOL0     C29598  11.114   8.933   4.577  0.3737 -0.4267 -0.0375
  940MOL0     N29599  11.227   8.851   4.604 -0.6625 -0.6427 -0.1966
  940MOL0     C29600  11.290   8.778   4.505 -0.8246  0.0092  0.1791
  940MOL0     C29601  11.418   8.757   4.547  0.6272  0.2697  0.0444
  940MOL0     C29602  11.523   8.685   4.475  0.3132  0.0208  0.1575
  940MOL0     C29603  11.572   8.565   4.557  0.2425 -0.1260  0.8207
  940MOL0     C29604  11.672   8.614   4.672  0.0808  0.3873  0.3893
  940MOL0     C29605  11.787   8.525   4.711  0.5252 -0.3069  0.3326
  940MOL0     O29606  11.869   8.483   4.605 -0.2499 -0.3004 -0.1760
  940MOL0     C29607  11.988   8.560   4.585  0.0783 -0.0802 -0.0459
  940MOL0     C29608  12.013   8.639   4.469 -0.0879  0.4992  0.4479
  940MOL0     C29609  12.135   8.708   4.458 -0.0396  0.5347  0.2419
  940MOL0     C29610  12.160   8.781   4.326  1.0748 -0.4351  0.1049
  940MOL0     C29611  12.230   8.700   4.560 -0.7241 -0.3221  0.5925
  940MOL0     C29612  12.359   8.778   4.547  0.2429  0.4875  0.1051
  940MOL0     O29613  12.463   8.733   4.620 -0.6458  1.2765  0.2841
  940MOL0     C29614  12.579   8.809   4.635  0.3591  0.2473 -0.1375
  940MOL0     C29615  12.697   8.772   4.579  0.9645 -0.0638  0.0595
  940MOL0     C29616  12.817   8.824   4.618  0.1833 -0.0111  0.1737
  940MOL0     C29617  12.822   8.942   4.701 -0.7205  0.3725  0.2855
  940MOL0     O29618  12.941   8.993   4.738 -0.7966 -0.3564 -0.1156
  940MOL0     C29619  12.943   9.091   4.838  0.5909  0.1254  1.0166
  940MOL0     C29620  13.085   9.135   4.874  0.9779 -0.1927  0.0239
  940MOL0     C29621  13.158   9.015   4.937 -0.5194 -1.2998  0.1660
  940MOL0     C29622  13.288   9.060   4.990 -0.0216 -0.1953 -0.0645
  940MOL0     C29623  13.364   8.938   5.068  0.6022 -0.4223  1.0043
  940MOL0     C29624  13.508   8.940   5.026 -0.0342  0.4959  0.5664
  940MOL0     C29625  13.604   8.836   5.076 -0.1903  1.2264 -0.3482
  940MOL0     C29626  13.740   8.850   5.014  0.1403 -0.5606  0.0192
  940MOL0    Cl29627  13.805   9.014   5.058 -0.2205 -0.0590  0.3412
  940MOL0     C29628  12.703   8.984   4.750  0.2789  0.4096 -0.2694
  940MOL0     C29629  12.583   8.917   4.728  0.0263  0.5054  0.2899
  940MOL0     O29630  12.359   8.885   4.484  0.4120 -0.5026 -0.3427
  940MOL0     C29631  12.208   8.610   4.667  1.0259 -0.6655 -0.1028
  940MOL0     C29632  12.090   8.537   4.680 -0.3566 -0.3939  0.0447
  940MOL0     N29633  11.429   8.824   4.661 -0.0387  0.5891 -0.8475
  940MOL0     N29634  11.318   8.873   4.702 -0.0446  0.4665  0.3212
  940MOL0     C29635   9.918   8.825   4.524 -0.2818 -0.1745  0.6122
  940MOL0     C29636   9.804   8.742   4.512  0.1136 -0.2133  0.5613
  940MOL0     C29637   9.461   8.511   4.674 -0.9399  0.1326 -0.1644
  940MOL0     C29638   9.380   8.615   4.627  0.0272 -0.7183 -0.4144
  940MOL0     C29639   9.242   8.616   4.630 -0.2832 -0.2010 -0.4174
  940MOL0     C29640   9.178   8.506   4.684  0.9812 -0.2704 -0.2799
  940MOL0     O29641   9.039   8.506   4.699  0.4480 -0.9164  0.2717
  940MOL0     C29642   9.000   8.498   4.836  0.3283  0.2092 -0.7301
  940MOL0     C29643   8.859   8.550   4.863  0.5750 -0.0775  0.2057
  940MOL0     C29644   8.838   8.705   4.865  0.3739 -0.3459 -0.1088
  940MOL0     C29645   8.923   8.771   4.975 -0.5109 -0.1816 -0.5422
  940MOL0     C29646   8.943   8.702   5.103  1.0556  0.2757  0.0170
  940MOL0     C29647   8.955   8.669   5.218 -0.5175  0.7364  0.4022
  940MOL0     C29648   9.256   8.395   4.726  0.9224 -0.5151  0.5017
  940MOL0     C29649   9.395   8.401   4.737 -1.3190  0.7818  0.7510
  940MOL0     C29650   9.468   8.292   4.788 -0.2699 -0.0553 -0.1034
  940MOL0     H29651   9.910   8.499   4.727 -2.0361 -0.6301 -1.5753
  940MOL0     H29652  10.098   8.645   4.756 -0.4662 -1.0157  0.2887
  940MOL0     H29653  10.287   8.729   4.615 -1.7658 -0.2148  0.4533
  940MOL0     H29654  10.256   8.846   4.744 -0.2476  0.0251 -0.0865
  940MOL0     H29655  10.340   8.957   4.475 -2.1429 -2.1524 -0.1657
  940MOL0     H29656  10.371   9.008   4.643 -0.3464 -0.4349 -0.4544
  940MOL0     H29657  10.519   8.809   4.689 -0.2731  1.0577  0.2553
  940MOL0     H29658  10.500   8.765   4.514  1.6584 -0.5379  0.4044
  940MOL0     H29659  10.590   8.992   4.457  1.2893  0.1951  0.3772
  940MOL0     H29660  10.618   9.025   4.630 -0.5067  0.4644 -0.4548
  940MOL0     H29661  10.731   8.807   4.462  0.4591  1.2791 -0.5673
  940MOL0     H29662  10.735   8.802   4.647  0.6224 -0.0650  1.3176
  940MOL0     H29663  10.863   9.032   4.484  0.3061  0.0438  0.3322
  940MOL0     H29664  10.876   9.002   4.655 -1.5595 -0.3523  0.4959
  940MOL0     H29665  10.996   8.827   4.438 -0.1388  1.7536 -0.7054
  940MOL0     H29666  10.960   8.779   4.610 -1.7345 -0.8334 -1.6811
  940MOL0     H29667  11.141   8.994   4.490  1.4324 -1.2670 -0.3153
  940MOL0     H29668  11.091   9.005   4.656 -0.7976 -0.2481 -0.5189
  940MOL0     H29669  11.251   8.746   4.409 -0.3853  0.4513 -0.1525
  940MOL0     H29670  11.604   8.756   4.454 -1.1423  1.6457 -0.2230
  940MOL0     H29671  11.479   8.650   4.382  2.1281 -0.9612 -0.3938
  940MOL0     H29672  11.484   8.510   4.592  0.5505 -0.5578  0.9244
  940MOL0     H29673  11.622   8.510   4.477 -0.9226  1.4812 -1.0853
  940MOL0     H29674  11.724   8.708   4.651 -0.6747  1.1426  1.7369
  940MOL0     H29675  11.601   8.635   4.753 -1.7232  0.9838 -1.2565
  940MOL0     H29676  11.848   8.580   4.783 -0.3782  0.5503  0.4594
  940MOL0     H29677  11.730   8.444   4.758 -2.3413  0.9090 -0.7729
  940MOL0     H29678  11.928   8.643   4.403 -1.6607 -2.7369  2.0607
  940MOL0     H29679  12.153   8.890   4.340 -1.4045 -0.6641  1.1679
  940MOL0     H29680  12.083   8.758   4.252 -1.2127  0.2812  2.1394
  940MOL0     H29681  12.262   8.766   4.289  0.8257  0.6615 -1.1297
  940MOL0     H29682  12.690   8.686   4.512 -0.1131 -1.2862  1.6555
  940MOL0     H29683  12.915   8.784   4.598  0.6936  0.5328  1.4548
  940MOL0     H29684  12.877   9.172   4.803 -0.1333 -1.4672 -1.5390
  940MOL0     H29685  12.898   9.057   4.932  0.9722  0.0104  1.1573
  940MOL0     H29686  13.133   9.176   4.784  1.3037 -1.8211 -0.5704
  940MOL0     H29687  13.067   9.211   4.950 -1.6905  0.1332 -0.8304
  940MOL0     H29688  13.173   8.947   4.853  1.7655 -1.9010  0.9744
  940MOL0     H29689  13.094   8.969   5.012 -0.7248 -0.5269  0.4749
  940MOL0     H29690  13.267   9.139   5.063  0.5006  2.0574 -2.1863
  940MOL0     H29691  13.347   9.101   4.907  0.0722 -1.9681 -0.9069
  940MOL0     H29692  13.353   8.953   5.176  0.4641 -2.6300  1.3333
  940MOL0     H29693  13.330   8.842   5.030  0.6005 -0.9829  2.3892
  940MOL0     H29694  13.545   9.037   5.059  1.1644  0.4385 -0.5568
  940MOL0     H29695  13.521   8.944   4.917  1.0734  1.0075  0.7072
  940MOL0     H29696  13.561   8.735   5.070  2.4367 -0.0392  0.6538
  940MOL0     H29697  13.609   8.848   5.184 -1.5907 -2.5165  0.2697
  940MOL0     H29698  13.729   8.838   4.906  1.5585 -2.3128  0.0202
  940MOL0     H29699  13.793   8.764   5.054 -0.2939 -0.8669 -0.0486
  940MOL0     H29700  12.684   9.066   4.819  1.7525  0.5908 -0.0360
  940MOL0     H29701  12.487   8.944   4.770  0.4351  1.2636  0.7540
  940MOL0     H29702  12.282   8.608   4.746 -1.2862 -0.3460  2.2175
  940MOL0     H29703  12.067   8.457   4.749  1.8409 -0.8881  0.2784
  940MOL0     H29704   9.927   8.916   4.465 -0.0866  1.0636  2.4563
  940MOL0     H29705   9.718   8.774   4.454  0.4398  1.0113  0.7210
  940MOL0     H29706   9.416   8.697   4.567  1.8825 -2.8063 -2.3608
  940MOL0     H29707   9.182   8.702   4.604 -0.1196 -0.6204 -2.3581
  940MOL0     H29708   9.003   8.390   4.849 -2.2123 -0.0978 -2.1499
  940MOL0     H29709   9.071   8.534   4.911  0.5510 -0.6003 -0.5398
  940MOL0     H29710   8.818   8.509   4.956 -1.5110 -1.4336 -1.2288
  940MOL0     H29711   8.791   8.507   4.788 -2.1958  2.6949  0.9214
  940MOL0     H29712   8.863   8.738   4.764 -1.6282 -0.2984 -0.6460
  940MOL0     H29713   8.731   8.721   4.885  0.1784 -0.7925 -0.7367
  940MOL0     H29714   8.887   8.873   4.993  0.6763  0.0590  0.6064
  940MOL0     H29715   9.025   8.769   4.936  0.1345 -3.7475  0.9922
  940MOL0     H29716   8.949   8.643   5.322 -1.4936  1.9685  0.6796
  940MOL0     H29717   9.206   8.313   4.776  0.5973 -0.0265  0.9849
  940MOL0     H29718   9.419   8.198   4.762  0.6238 -0.5826  0.0624
  940MOL0     H29719   9.569   8.281   4.747 -1.5007 -2.2534 -2.7915
  940MOL0     H29720   9.476   8.311   4.896 -1.8891  1.6281 -0.2352
  941MOL0     O29721   4.940   6.697   3.081 -0.0091  0.1229 -0.8667
  941MOL0     C29722   4.899   6.810   3.047  0.0992  0.2064 -0.6330
  941MOL0     O29723   4.970   6.927   3.087  0.3320 -0.4708  0.0172
  941MOL0     C29724   5.077   6.913   3.173 -0.0738  0.3406  1.0304
  941MOL0     C29725   5.070   6.902   3.311  0.0056  0.1642 -0.0974
  941MOL0     C29726   5.182   6.891   3.396  0.3352 -0.0391  0.4244
  941MOL0     C29727   5.303   6.881   3.332 -0.5361  1.2518  0.0345
  941MOL0     O29728   5.419   6.871   3.395  0.2350 -0.1933 -0.9523
  941MOL0     C29729   5.438   6.942   3.517  0.2884  0.6529  0.2459
  941MOL0     C29730   5.588   6.926   3.559  0.7174 -0.2474  0.0826
  941MOL0     C29731   5.618   6.768   3.571  0.2170 -0.7508  0.2363
  941MOL0     C29732   5.757   6.729   3.632 -0.3620  0.4762 -0.3077
  941MOL0     C29733   5.888   6.763   3.547  0.6166 -0.4561  0.2515
  941MOL0     C29734   5.898   6.699   3.409 -0.1009  0.4451 -0.7437
  941MOL0     C29735   6.025   6.739   3.349 -0.2861  0.0360 -0.5357
  941MOL0     C29736   6.050   6.895   3.330 -0.3187 -0.5719 -0.7813
  941MOL0     N29737   6.171   6.906   3.243  0.1834 -0.3865 -0.2414
  941MOL0     C29738   6.300   6.905   3.289 -0.3851  0.5580  0.1039
  941MOL0     C29739   6.377   6.875   3.180 -0.2139  0.0100 -0.0190
  941MOL0     C29740   6.531   6.882   3.173  0.2347  0.2357 -0.1298
  941MOL0     C29741   6.587   6.744   3.171  0.3744  0.5937 -0.1524
  941MOL0     C29742   6.745   6.761   3.175  0.7882 -0.9730  0.2154
  941MOL0     C29743   6.831   6.639   3.189 -0.3931  0.2894 -0.5182
  941MOL0     O29744   6.969   6.664   3.206 -0.5150 -0.2828  0.0608
  941MOL0     C29745   7.054   6.562   3.221  0.2799  0.8911  0.4965
  941MOL0     C29746   7.037   6.434   3.280 -0.6740  0.7600  0.4653
  941MOL0     C29747   7.148   6.349   3.267 -1.1259  1.0640  0.2874
  941MOL0     C29748   7.120   6.206   3.324 -0.1194 -0.3605  0.2675
  941MOL0     C29749   7.278   6.389   3.212 -0.4672  0.1259 -0.9073
  941MOL0     C29750   7.393   6.296   3.208 -0.4853  0.0309  0.7299
  941MOL0     O29751   7.515   6.354   3.215 -0.6453  0.6286  0.5056
  941MOL0     C29752   7.623   6.276   3.194 -0.4624  0.1304  0.2310
  941MOL0     C29753   7.665   6.181   3.297 -0.3737  0.9144  0.3178
  941MOL0     C29754   7.762   6.080   3.275 -0.3174 -0.5904 -0.2923
  941MOL0     C29755   7.832   6.081   3.145 -1.1558 -0.7188 -0.1392
  941MOL0     O29756   7.925   5.979   3.126  0.5466  0.7695 -0.1614
  941MOL0     C29757   8.016   6.001   3.032 -0.1286 -0.7065 -0.4640
  941MOL0     C29758   8.132   5.899   3.038 -0.6407 -0.5498  0.1737
  941MOL0     C29759   8.211   5.904   3.170 -0.2684 -0.8982  0.6162
  941MOL0     C29760   8.288   5.777   3.189 -0.1722 -0.0542 -0.4043
  941MOL0     C29761   8.379   5.800   3.305 -0.3029  0.2724  0.5012
  941MOL0     C29762   8.479   5.670   3.323  0.0671  0.1332 -0.0393
  941MOL0     C29763   8.591   5.664   3.210  0.3368  0.0837 -0.3945
  941MOL0     C29764   8.698   5.564   3.238 -0.6870  0.0421 -0.0002
  941MOL0    Cl29765   8.625   5.402   3.229  0.3393  0.1762 -0.3474
  941MOL0     C29766   7.789   6.171   3.049 -0.2857 -0.2726 -0.1761
  941MOL0     C29767   7.688   6.272   3.071 -0.2645 -0.4956 -0.2265
  941MOL0     O29768   7.373   6.185   3.162 -0.7840 -0.1014 -0.3442
  941MOL0     C29769   7.286   6.515   3.155  0.4983 -0.1384 -0.2812
  941MOL0     C29770   7.175   6.599   3.166  0.5342 -0.0435  0.2855
  941MOL0     N29771   6.290   6.848   3.073  0.3296 -0.0719 -0.5382
  941MOL0     N29772   6.164   6.861   3.113 -0.6686  0.2714  0.1439
  941MOL0     C29773   5.313   6.887   3.196 -0.0291  0.7180  0.5548
  941MOL0     C29774   5.205   6.897   3.110  0.1811 -0.1064 -0.1369
  941MOL0     C29775   4.789   6.817   2.948  0.0734  0.2365 -1.3973
  941MOL0     C29776   4.729   6.944   2.922 -0.4373  0.4654 -0.0934
  941MOL0     C29777   4.627   6.958   2.830  0.2505 -0.0083 -0.0671
  941MOL0     C29778   4.575   6.856   2.753  0.7219  0.4260 -0.6613
  941MOL0     O29779   4.468   6.895   2.674 -0.1953 -0.1581  0.6423
  941MOL0     C29780   4.420   6.793   2.583 -1.0975  0.2765  0.3436
  941MOL0     C29781   4.277   6.835   2.542 -0.2690  0.0878  0.8157
  941MOL0     C29782   4.292   6.941   2.438  0.5128 -0.3853  0.0729
  941MOL0     C29783   4.154   6.989   2.387 -0.5857  0.5790 -0.1480
  941MOL0     C29784   4.070   7.057   2.484 -1.0194 -0.2293 -0.4954
  941MOL0     C29785   3.989   7.113   2.555  0.2035 -0.2535 -0.5943
  941MOL0     C29786   4.635   6.734   2.778  0.8449 -0.0961 -0.1242
  941MOL0     C29787   4.736   6.705   2.874  0.2164 -0.1653  0.2882
  941MOL0     C29788   4.785   6.560   2.875  0.1921  0.1299 -0.2161
  941MOL0     H29789   4.969   6.907   3.352  0.2343 -1.6483  0.7526
  941MOL0     H29790   5.174   6.864   3.501  3.3923 -5.7423 -0.3933
  941MOL0     H29791   5.370   6.909   3.596  1.2010  0.7785  1.1022
  941MOL0     H29792   5.411   7.046   3.494 -0.4578 -0.2479 -3.5361
  941MOL0     H29793   5.651   6.977   3.485 -1.3670 -0.0121 -1.6423
  941MOL0     H29794   5.602   6.963   3.661 -2.4237 -1.3965  1.0713
  941MOL0     H29795   5.536   6.722   3.626 -1.4185 -1.4413 -2.6046
  941MOL0     H29796   5.616   6.726   3.471  3.3467  0.0197 -0.2730
  941MOL0     H29797   5.758   6.758   3.737 -1.1401 -1.5832  0.3001
  941MOL0     H29798   5.748   6.620   3.638 -0.8628  0.3009 -2.8775
  941MOL0     H29799   5.972   6.730   3.609  0.1432 -0.0776  1.1167
  941MOL0     H29800   5.903   6.871   3.549 -1.1681 -0.1699  2.3115
  941MOL0     H29801   5.902   6.591   3.424 -2.5377  0.2456 -1.2122
  941MOL0     H29802   5.816   6.722   3.340  0.1618 -0.4261 -1.3722
  941MOL0     H29803   6.041   6.690   3.252  1.5964 -2.0659  0.7277
  941MOL0     H29804   6.111   6.702   3.405  0.5710  0.2247 -1.6966
  941MOL0     H29805   5.961   6.941   3.285  1.4453  1.7947 -2.0726
  941MOL0     H29806   6.075   6.933   3.429  0.1031  1.7758 -1.7148
  941MOL0     H29807   6.335   6.919   3.390 -2.2627 -0.0588  0.8947
  941MOL0     H29808   6.581   6.939   3.251  2.1074 -0.2468 -0.9102
  941MOL0     H29809   6.552   6.922   3.073 -3.2131 -1.0450 -1.5614
  941MOL0     H29810   6.550   6.692   3.259 -0.7276 -0.0776 -0.9928
  941MOL0     H29811   6.562   6.677   3.089  0.2840  2.2813 -1.5723
  941MOL0     H29812   6.762   6.803   3.075 -2.9896  0.0533 -0.1595
  941MOL0     H29813   6.767   6.830   3.258 -2.2822 -0.5541  0.7842
  941MOL0     H29814   6.800   6.599   3.286 -1.0391 -0.0206 -0.8486
  941MOL0     H29815   6.807   6.566   3.112  0.4630 -0.7300  0.1519
  941MOL0     H29816   6.939   6.409   3.319 -1.5979  2.0501 -0.9138
  941MOL0     H29817   7.201   6.195   3.396  2.4742  4.3719 -1.5455
  941MOL0     H29818   7.113   6.122   3.255 -0.7783  0.1595 -0.3114
  941MOL0     H29819   7.027   6.208   3.383 -0.7424  0.8129 -0.7121
  941MOL0     H29820   7.614   6.182   3.392 -1.8149 -1.1630 -0.3679
  941MOL0     H29821   7.786   6.011   3.355 -0.9672 -0.2851  0.1711
  941MOL0     H29822   7.967   5.991   2.935  0.2617 -0.2615 -0.7065
  941MOL0     H29823   8.054   6.103   3.028 -0.3465 -0.6738 -2.5834
  941MOL0     H29824   8.086   5.802   3.015 -2.8874  0.4521  0.2210
  941MOL0     H29825   8.200   5.926   2.957  1.2081  1.7644  2.3482
  941MOL0     H29826   8.144   5.919   3.255 -1.9448  2.4398 -1.1060
  941MOL0     H29827   8.277   5.991   3.170 -0.4149 -0.6109 -2.9981
  941MOL0     H29828   8.350   5.759   3.101  2.6749  0.3173  1.3998
  941MOL0     H29829   8.226   5.688   3.205  0.7958 -0.5888  0.4728
  941MOL0     H29830   8.431   5.894   3.286 -2.3818  1.2766 -0.6842
  941MOL0     H29831   8.321   5.800   3.398 -1.3836 -2.7327 -0.0332
  941MOL0     H29832   8.415   5.582   3.313  2.3364 -1.4802 -1.5268
  941MOL0     H29833   8.516   5.668   3.426 -0.4210 -1.8859  0.1281
  941MOL0     H29834   8.645   5.759   3.221  0.2907  0.0593  0.0969
  941MOL0     H29835   8.547   5.650   3.111 -0.1933 -0.9894 -0.0154
  941MOL0     H29836   8.727   5.577   3.343  1.8826  2.1174 -0.8714
  941MOL0     H29837   8.787   5.574   3.176 -1.2611 -0.2787 -0.8970
  941MOL0     H29838   7.811   6.150   2.944 -4.5007 -1.8074 -0.9447
  941MOL0     H29839   7.679   6.338   2.986 -2.0365 -2.6640 -1.8273
  941MOL0     H29840   7.381   6.552   3.118 -0.5339 -0.1824 -3.1870
  941MOL0     H29841   7.205   6.695   3.128  0.9492 -0.5952 -0.8133
  941MOL0     H29842   5.409   6.873   3.147 -0.0189  0.8818  0.5280
  941MOL0     H29843   5.229   6.898   3.004  2.2108 -0.7204  0.2795
  941MOL0     H29844   4.768   7.038   2.959 -1.4296  1.4213 -1.3706
  941MOL0     H29845   4.575   7.051   2.807  2.5401  0.7815 -2.6734
  941MOL0     H29846   4.493   6.791   2.502 -1.4334  0.5941  0.0247
  941MOL0     H29847   4.421   6.698   2.637  0.0810  0.8162  1.3056
  941MOL0     H29848   4.216   6.864   2.628 -0.9130 -1.8170  1.0732
  941MOL0     H29849   4.224   6.749   2.497  0.8505  0.8028 -2.0956
  941MOL0     H29850   4.341   7.028   2.483  0.7133 -0.5226  0.1225
  941MOL0     H29851   4.355   6.906   2.356  1.4753 -0.8202  0.9780
  941MOL0     H29852   4.097   6.906   2.344  0.7646  0.7575 -2.4386
  941MOL0     H29853   4.176   7.050   2.300 -0.3151 -2.0741 -2.0794
  941MOL0     H29854   3.909   7.165   2.603 -2.5705 -1.9068 -3.0889
  941MOL0     H29855   4.608   6.654   2.709  1.1533  0.5094 -0.9642
  941MOL0     H29856   4.726   6.512   2.953  0.4158  4.2471  2.8389
  941MOL0     H29857   4.789   6.517   2.775  4.6545 -0.3947 -0.0185
  941MOL0     H29858   4.890   6.549   2.904  1.3006  0.1019 -3.7776
  942MOL0     O29859   9.137   4.110   8.529 -0.2029 -0.6040  0.4588
  942MOL0     C29860   9.079   4.112   8.418 -0.4383  0.1795  0.9979
  942MOL0     O29861   9.138   4.141   8.295 -0.4193 -0.3300 -0.3616
  942MOL0     C29862   9.279   4.148   8.304  0.3524  0.0940 -0.5376
  942MOL0     C29863   9.329   4.277   8.324 -0.6520 -0.6295 -0.1383
  942MOL0     C29864   9.472   4.297   8.331  0.4953 -0.3559 -0.2627
  942MOL0     C29865   9.554   4.181   8.329  0.6832 -0.4813  0.3053
  942MOL0     O29866   9.692   4.194   8.347  0.5643  0.6940 -0.3597
  942MOL0     C29867   9.757   4.318   8.381  0.1637  0.2897  0.6163
  942MOL0     C29868   9.899   4.273   8.426 -0.2985  0.0545 -0.3347
  942MOL0     C29869   9.998   4.391   8.424  0.6879 -0.1459 -0.0730
  942MOL0     C29870   9.949   4.528   8.450 -0.4538 -0.1574 -0.2490
  942MOL0     C29871  10.066   4.623   8.437  0.1406 -0.2529 -0.3107
  942MOL0     C29872  10.008   4.768   8.433  0.0585 -0.6420 -0.1298
  942MOL0     C29873   9.994   4.828   8.575 -0.3608 -0.3310  0.7098
  942MOL0     C29874  10.139   4.860   8.624 -0.3830  0.3139 -0.8259
  942MOL0     N29875  10.186   5.001   8.607  0.0386 -0.4870 -0.1703
  942MOL0     C29876  10.153   5.112   8.682  0.8580  1.0065 -0.1913
  942MOL0     C29877  10.223   5.217   8.639  0.8421  0.3669 -0.0539
  942MOL0     C29878  10.217   5.351   8.696  0.0722 -0.2424  0.2605
  942MOL0     C29879  10.345   5.371   8.775  0.2708  0.5676 -0.1666
  942MOL0     C29880  10.352   5.489   8.868  0.0796  0.7764 -0.6373
  942MOL0     C29881  10.331   5.621   8.803 -0.2105  0.6944 -1.2968
  942MOL0     O29882  10.406   5.651   8.686  0.7230  0.3234 -0.3035
  942MOL0     C29883  10.536   5.682   8.693 -0.0086 -0.8837 -0.5190
  942MOL0     C29884  10.604   5.709   8.810  0.1185 -1.2134  0.4380
  942MOL0     C29885  10.734   5.765   8.807 -0.0813  0.5636  0.4556
  942MOL0     C29886  10.798   5.820   8.939  0.3106 -0.4361  0.2348
  942MOL0     C29887  10.807   5.766   8.690 -0.6727 -0.2170  0.1856
  942MOL0     C29888  10.959   5.798   8.691 -0.1624  0.3594  0.3028
  942MOL0     O29889  11.043   5.723   8.780  1.0860 -0.5585  0.2864
  942MOL0     C29890  11.178   5.745   8.774 -0.7690 -0.5453  0.7848
  942MOL0     C29891  11.256   5.793   8.675 -0.5522 -0.0753  0.2925
  942MOL0     C29892  11.396   5.809   8.691 -0.8263  0.1225 -0.2904
  942MOL0     C29893  11.457   5.772   8.809 -0.8001 -0.1376  0.6292
  942MOL0     O29894  11.593   5.780   8.835  0.0623 -0.2108  0.1678
  942MOL0     C29895  11.673   5.845   8.735  0.6639  0.3438 -0.1968
  942MOL0     C29896  11.821   5.833   8.765  0.1921  1.2525 -0.2109
  942MOL0     C29897  11.909   5.819   8.640 -0.4311  0.2092  0.0006
  942MOL0     C29898  12.052   5.828   8.680 -0.4058  0.5163  0.2373
  942MOL0     C29899  12.159   5.840   8.569  0.4277  0.1834 -0.1781
  942MOL0     C29900  12.210   5.716   8.499 -0.4018  0.2372 -0.1632
  942MOL0     C29901  12.268   5.745   8.366 -0.6920 -0.6438  0.5420
  942MOL0     C29902  12.155   5.776   8.267  1.4602 -0.2852  0.8743
  942MOL0    Cl29903  12.233   5.752   8.108  0.0088  0.4671  0.2189
  942MOL0     C29904  11.382   5.720   8.909  0.0704 -0.4900 -0.4645
  942MOL0     C29905  11.245   5.711   8.890  0.2355  0.5400 -0.5996
  942MOL0     O29906  10.990   5.881   8.608 -0.5122 -0.4559  0.2251
  942MOL0     C29907  10.736   5.752   8.570  0.3835 -0.2344 -0.6855
  942MOL0     C29908  10.603   5.706   8.572 -0.1815  0.2958 -0.8677
  942MOL0     N29909  10.287   5.173   8.533 -0.5964  0.1178  0.9771
  942MOL0     N29910  10.272   5.042   8.514  0.2982  0.6194 -0.2064
  942MOL0     C29911   9.506   4.050   8.315  0.0357 -0.2556  0.5948
  942MOL0     C29912   9.366   4.039   8.301 -1.6490 -0.1530 -0.8880
  942MOL0     C29913   8.932   4.077   8.396  0.4013 -0.0848 -0.4807
  942MOL0     C29914   8.884   4.054   8.262  0.0178  0.4081 -0.0666
  942MOL0     C29915   8.745   4.041   8.230 -0.5926  0.5559  0.1351
  942MOL0     C29916   8.649   4.042   8.330 -0.3767 -0.2846 -0.0958
  942MOL0     O29917   8.522   4.030   8.285  0.1516  0.3889 -0.3699
  942MOL0     C29918   8.412   4.064   8.380 -0.4125 -0.1457 -0.4402
  942MOL0     C29919   8.422   4.217   8.407 -0.1667  0.3946 -0.9762
  942MOL0     C29920   8.454   4.300   8.277  0.0659  0.0894 -0.2069
  942MOL0     C29921   8.379   4.436   8.301  0.9970  0.6891  0.5036
  942MOL0     C29922   8.363   4.518   8.181  0.7403 -0.4085  0.2038
  942MOL0     C29923   8.349   4.574   8.069 -0.1939  0.1544 -0.6736
  942MOL0     C29924   8.693   4.057   8.468 -0.2794  0.2912 -0.2001
  942MOL0     C29925   8.829   4.066   8.497  0.8285  0.4783 -0.5157
  942MOL0     C29926   8.876   4.065   8.650  0.4541 -0.3401 -0.0227
  942MOL0     H29927   9.265   4.363   8.338  1.5891  1.4679 -1.7902
  942MOL0     H29928   9.514   4.395   8.350 -2.3233  0.9289 -0.2555
  942MOL0     H29929   9.709   4.366   8.467 -0.0260  1.5199 -0.1523
  942MOL0     H29930   9.762   4.382   8.292  4.5344 -1.6343 -0.8072
  942MOL0     H29931   9.904   4.213   8.517  1.2697 -0.7250 -0.8959
  942MOL0     H29932   9.942   4.202   8.354 -0.8687  0.0692 -0.7016
  942MOL0     H29933  10.070   4.358   8.499  0.9587 -0.2922 -0.3935
  942MOL0     H29934  10.039   4.384   8.323 -1.1744 -2.7729 -0.7695
  942MOL0     H29935   9.880   4.560   8.372 -1.6785  1.1355  1.2799
  942MOL0     H29936   9.904   4.534   8.550 -3.3410  2.4374 -1.5238
  942MOL0     H29937  10.124   4.605   8.346  1.6847  1.3217  0.2749
  942MOL0     H29938  10.139   4.614   8.518 -0.7157  0.4552  0.5590
  942MOL0     H29939  10.079   4.828   8.376  1.0602 -0.2802  1.4125
  942MOL0     H29940   9.912   4.770   8.381 -0.2087 -1.4489  0.3095
  942MOL0     H29941   9.964   4.746   8.640  0.6074 -1.6842 -0.4827
  942MOL0     H29942   9.929   4.916   8.577 -0.4914 -0.3238 -1.5172
  942MOL0     H29943  10.135   4.843   8.732  1.2407 -0.3939 -0.8416
  942MOL0     H29944  10.217   4.791   8.590  1.4484  0.7017  2.2393
  942MOL0     H29945  10.075   5.110   8.757  2.0644  0.6121  1.0867
  942MOL0     H29946  10.130   5.366   8.760  0.7479  1.2743  0.8944
  942MOL0     H29947  10.218   5.433   8.623  4.9907  1.8752  2.2228
  942MOL0     H29948  10.353   5.284   8.842  0.9085  0.0020 -0.9487
  942MOL0     H29949  10.428   5.366   8.704  0.8236 -1.6919  0.5247
  942MOL0     H29950  10.274   5.478   8.944 -0.1451  0.7297 -0.8757
  942MOL0     H29951  10.451   5.484   8.916  0.7013  0.1512 -1.9334
  942MOL0     H29952  10.226   5.640   8.776 -0.2733  1.4109 -0.5953
  942MOL0     H29953  10.345   5.701   8.876  1.2398 -0.6240 -0.0691
  942MOL0     H29954  10.548   5.717   8.903  0.3360 -0.9344  0.5473
  942MOL0     H29955  10.850   5.914   8.917  2.0384 -1.9103 -2.6089
  942MOL0     H29956  10.879   5.762   8.982  3.3062  2.6047 -0.8369
  942MOL0     H29957  10.712   5.822   9.007 -0.2932  0.1687 -0.5124
  942MOL0     H29958  11.214   5.806   8.576 -3.0018  0.1336  1.2941
  942MOL0     H29959  11.448   5.849   8.604 -1.1314  1.9447  0.3137
  942MOL0     H29960  11.650   5.808   8.635 -1.4173  0.1164  0.3297
  942MOL0     H29961  11.645   5.951   8.746 -0.5329  0.4725 -3.5281
  942MOL0     H29962  11.841   5.926   8.820 -2.3950  2.3083 -0.8962
  942MOL0     H29963  11.841   5.754   8.838 -2.9256  2.7773  2.5771
  942MOL0     H29964  11.897   5.908   8.578 -1.7153  1.4729  1.9626
  942MOL0     H29965  11.885   5.729   8.583 -0.8285  1.3562 -1.7209
  942MOL0     H29966  12.077   5.737   8.736  1.7855  1.1372  0.3377
  942MOL0     H29967  12.067   5.912   8.748  0.9940  0.0769  0.5122
  942MOL0     H29968  12.109   5.910   8.502 -0.4478  0.5249  0.8150
  942MOL0     H29969  12.245   5.895   8.608 -2.0175  3.8317  0.5152
  942MOL0     H29970  12.133   5.639   8.494  0.9950 -1.1293 -3.1566
  942MOL0     H29971  12.291   5.687   8.567 -0.0255 -1.9200 -1.4443
  942MOL0     H29972  12.326   5.660   8.328  2.7464  0.5690  2.6199
  942MOL0     H29973  12.330   5.836   8.367 -1.5686 -0.0300  0.4248
  942MOL0     H29974  12.134   5.882   8.277  2.1366 -0.3048  2.7658
  942MOL0     H29975  12.065   5.715   8.276  2.1750 -1.2842  1.4587
  942MOL0     H29976  11.421   5.682   9.003  0.4550  2.5704  0.7200
  942MOL0     H29977  11.168   5.675   8.957 -2.3064 -0.1717 -3.6330
  942MOL0     H29978  10.791   5.773   8.479  3.5455  1.9517  1.5382
  942MOL0     H29979  10.550   5.679   8.481 -2.0780  1.9338 -0.3207
  942MOL0     H29980   9.569   3.962   8.321  0.0700 -0.1595  1.9978
  942MOL0     H29981   9.338   3.935   8.286  2.3508 -2.0057  2.5932
  942MOL0     H29982   8.948   4.057   8.174 -1.5835 -0.0709 -1.2810
  942MOL0     H29983   8.716   4.029   8.126  0.3911 -2.0955  0.0799
  942MOL0     H29984   8.316   4.047   8.330 -1.1273  0.2168  0.7585
  942MOL0     H29985   8.421   4.011   8.475  1.2317 -0.1611 -0.5708
  942MOL0     H29986   8.503   4.233   8.479 -1.4292  3.3407 -0.0450
  942MOL0     H29987   8.326   4.238   8.455  0.3496 -3.4121  2.2506
  942MOL0     H29988   8.562   4.309   8.262 -0.0096  3.0537  0.4207
  942MOL0     H29989   8.414   4.235   8.199  1.2094 -0.6792 -0.1644
  942MOL0     H29990   8.434   4.503   8.368 -1.1454  2.1237  0.9299
  942MOL0     H29991   8.281   4.416   8.344 -0.0112  0.6087 -1.7101
  942MOL0     H29992   8.344   4.615   7.970 -1.7382  1.0485 -0.2575
  942MOL0     H29993   8.625   4.064   8.553  1.0512 -0.0706  0.9389
  942MOL0     H29994   8.941   4.150   8.671 -3.1921  2.2388  1.8766
  942MOL0     H29995   8.795   4.074   8.722 -0.6678 -3.3065 -0.7649
  942MOL0     H29996   8.926   3.972   8.678 -1.5539 -1.3197  0.4389
  943MOL0     O29997   0.925   8.918   9.963  0.0191  0.1049  0.5634
  943MOL0     C29998   0.893   8.844  10.055  0.7875  0.4523 -0.1207
  943MOL0     O29999   0.967   8.842  10.169  0.1236 -0.2008  0.3587
  943MOL0     C30000   1.101   8.887  10.160 -0.6515  0.0810  0.5683
  943MOL0     C30001   1.133   9.027  10.146  1.0850  0.3816 -0.2380
  943MOL0     C30002   1.262   9.064  10.129  0.8373 -0.2777  0.3246
  943MOL0     C30003   1.372   8.986  10.114  0.0012 -0.1090  0.1502
  943MOL0     O30004   1.494   9.040  10.096 -0.1644 -0.1525  0.1915
  943MOL0     C30005   1.608   8.960  10.124 -0.9692 -0.0065 -0.3974
  943MOL0     C30006   1.714   9.045  10.188  0.7503  0.3401  0.0549
  943MOL0     C30007   1.849   8.975  10.198 -0.2488  0.0282 -0.6819
  943MOL0     C30008   1.846   8.885  10.326  0.2406  0.3573  0.2308
  943MOL0     C30009   1.984   8.864  10.392  0.6680 -0.6192 -0.8094
  943MOL0     C30010   2.087   8.798  10.305  0.8249  0.4498 -0.0677
  943MOL0     C30011   2.210   8.753  10.378 -0.8484  0.4179  0.3206
  943MOL0     C30012   2.329   8.851  10.354 -0.1976  0.4608 -0.2594
  943MOL0     N30013   2.307   8.983  10.417 -0.2475  0.3979  0.6222
  943MOL0     C30014   2.269   8.996  10.549  0.5000 -0.1154 -0.0577
  943MOL0     C30015   2.237   9.128  10.562 -0.8020  0.0012 -0.4032
  943MOL0     C30016   2.197   9.189  10.702  1.0288  0.4526 -0.0421
  943MOL0     C30017   2.050   9.235  10.686 -0.7615 -0.7017 -0.2863
  943MOL0     C30018   1.959   9.119  10.693 -0.4362  0.1651  0.1249
  943MOL0     C30019   1.823   9.145  10.613 -0.6398  0.5528  0.4798
  943MOL0     O30020   1.751   9.249  10.682 -0.1344 -0.4695 -0.3021
  943MOL0     C30021   1.615   9.234  10.687 -0.0467  0.7980  0.2223
  943MOL0     C30022   1.536   9.218  10.573 -0.1297 -0.4900 -0.3649
  943MOL0     C30023   1.402   9.193  10.578 -0.6400  0.0309  0.7018
  943MOL0     C30024   1.335   9.176  10.436  0.0086  0.4930  0.6509
  943MOL0     C30025   1.337   9.171  10.702 -0.1249  0.3059  0.0426
  943MOL0     C30026   1.199   9.115  10.721  0.5937 -0.1956 -0.4144
  943MOL0     O30027   1.153   9.100  10.852 -0.0046 -0.2866  0.2703
  943MOL0     C30028   1.027   9.045  10.873  0.4019 -0.0753 -0.3113
  943MOL0     C30029   0.963   8.948  10.801  0.1919  0.0707 -0.7929
  943MOL0     C30030   0.831   8.916  10.818 -0.6586  0.0206 -0.4258
  943MOL0     C30031   0.756   8.973  10.919 -0.3070 -0.1802 -0.4888
  943MOL0     O30032   0.631   8.933  10.944  0.2217  0.0764  0.4955
  943MOL0     C30033   0.542   8.898  10.833  0.6810 -0.3573 -0.1584
  943MOL0     C30034   0.398   8.881  10.903 -0.1872 -0.0620  0.2596
  943MOL0     C30035   0.323   9.017  10.927 -0.1440  0.3668  0.9438
  943MOL0     C30036   0.273   9.080  10.797  0.7307 -0.4785  0.9095
  943MOL0     C30037   0.302   9.228  10.788  0.3543  0.7934  0.2480
  943MOL0     C30038   0.233   9.294  10.673  0.6937 -0.0687 -0.7134
  943MOL0     C30039   0.234   9.228  10.538  0.2524  0.2007 -0.5870
  943MOL0     C30040   0.188   9.337  10.435  0.7284  0.5989  0.5108
  943MOL0    Cl30041   0.315   9.453  10.380 -0.2183  0.4429 -0.2941
  943MOL0     C30042   0.825   9.052  11.005  0.2332 -0.1827 -0.1710
  943MOL0     C30043   0.960   9.097  10.988  0.4420 -0.0623  0.3276
  943MOL0     O30044   1.134   9.093  10.622  0.0876 -0.0182  0.2618
  943MOL0     C30045   1.416   9.194  10.819  0.1487 -0.4937 -0.6392
  943MOL0     C30046   1.554   9.226  10.810  0.6193 -0.1386 -1.3371
  943MOL0     N30047   2.266   9.198  10.441  0.3903  0.1964  0.1764
  943MOL0     N30048   2.307   9.110  10.366 -0.1751  0.9663 -0.1667
  943MOL0     C30049   1.339   8.850  10.119  0.1783  0.4706  0.3007
  943MOL0     C30050   1.206   8.797  10.151  0.0230  0.8029  0.0569
  943MOL0     C30051   0.764   8.770  10.052  0.3524 -0.5440 -0.0674
  943MOL0     C30052   0.740   8.669  10.152  0.3598 -0.0286 -0.0538
  943MOL0     C30053   0.622   8.589  10.155 -0.1917 -0.2429 -0.2737
  943MOL0     C30054   0.521   8.602  10.059 -0.1254 -0.0238  0.4903
  943MOL0     O30055   0.409   8.538  10.021  0.0880 -0.0414 -0.2064
  943MOL0     C30056   0.364   8.442  10.116 -0.0492 -0.6754 -0.2478
  943MOL0     C30057   0.214   8.414  10.093  0.4243  1.0016  0.5038
  943MOL0     C30058   0.142   8.395  10.220 -0.0291 -0.4069 -0.3159
  943MOL0     C30059  -0.002   8.359  10.202  0.1792 -0.3138 -1.2930
  943MOL0     C30060  -0.068   8.359  10.342  0.4758 -0.1645  0.2638
  943MOL0     C30061  -0.114   8.368  10.449  1.6734 -0.3532 -0.3094
  943MOL0     C30062   0.550   8.698   9.960 -1.4305 -0.3845  0.8275
  943MOL0     C30063   0.665   8.784   9.955  0.0252  0.2099 -0.4592
  943MOL0     C30064   0.668   8.896   9.839  0.2236  0.5156 -0.0082
  943MOL0     H30065   1.049   9.096  10.155  0.3869 -0.1088 -2.3897
  943MOL0     H30066   1.293   9.167  10.114  1.4681 -0.6407 -1.1020
  943MOL0     H30067   1.654   8.919  10.034 -1.1844 -1.3118  0.0585
  943MOL0     H30068   1.577   8.875  10.186 -0.1532 -0.1545 -0.1710
  943MOL0     H30069   1.739   9.129  10.123  0.5860  0.1471 -0.2572
  943MOL0     H30070   1.673   9.076  10.285 -2.0892 -2.9192  0.0903
  943MOL0     H30071   1.859   8.912  10.109 -3.5044 -1.4451 -0.1760
  943MOL0     H30072   1.922   9.056  10.202 -0.9620  0.8039 -2.3296
  943MOL0     H30073   1.777   8.913  10.406  1.6868  1.6324  1.0820
  943MOL0     H30074   1.807   8.786  10.300  0.7571  0.4528 -0.9970
  943MOL0     H30075   1.973   8.811  10.487  0.3271  3.1251  1.4620
  943MOL0     H30076   2.017   8.965  10.418  0.7280 -0.6989 -0.5712
  943MOL0     H30077   2.034   8.712  10.262 -1.9633  1.0330  1.9581
  943MOL0     H30078   2.108   8.862  10.219  0.3428  1.0091  0.2214
  943MOL0     H30079   2.230   8.649  10.349  0.3377  0.2559  1.5882
  943MOL0     H30080   2.181   8.736  10.482 -1.0678 -1.2278  0.0226
  943MOL0     H30081   2.422   8.812  10.395 -2.1629 -1.5453  2.7739
  943MOL0     H30082   2.345   8.864  10.247 -0.6049  1.5458 -0.1972
  943MOL0     H30083   2.267   8.927  10.633  0.1974  1.7673  1.5321
  943MOL0     H30084   2.242   9.288  10.719 -2.2909  2.1297 -0.2927
  943MOL0     H30085   2.199   9.112  10.779  1.6810 -1.6282 -2.0531
  943MOL0     H30086   2.025   9.301  10.769  0.0312  0.6568 -1.0850
  943MOL0     H30087   2.046   9.290  10.591  1.9790 -0.9002 -0.6074
  943MOL0     H30088   2.004   9.042  10.630 -2.7589 -1.2237  0.0640
  943MOL0     H30089   1.935   9.079  10.792  0.2599  2.0140  1.0845
  943MOL0     H30090   1.841   9.182  10.512 -0.4467 -0.4874  0.1225
  943MOL0     H30091   1.764   9.056  10.592 -1.8499  1.4630 -0.0841
  943MOL0     H30092   1.579   9.230  10.474  1.8087 -1.0731  0.3503
  943MOL0     H30093   1.274   9.087  10.421  1.6268 -0.7155  0.8927
  943MOL0     H30094   1.410   9.163  10.357 -1.5191  0.2667 -0.8004
  943MOL0     H30095   1.283   9.271  10.418 -2.8535 -1.3083 -1.4468
  943MOL0     H30096   1.021   8.893  10.728  1.0384 -1.8519  1.2241
  943MOL0     H30097   0.793   8.836  10.755 -0.7969 -3.1212  3.2058
  943MOL0     H30098   0.543   8.980  10.760  0.4766  1.2794  1.6013
  943MOL0     H30099   0.563   8.801  10.787  1.0094 -0.0668 -0.6401
  943MOL0     H30100   0.328   8.821  10.844 -1.3347  2.7251 -1.3794
  943MOL0     H30101   0.420   8.829  10.997  2.6601 -0.3529 -0.4482
  943MOL0     H30102   0.386   9.090  10.979  0.0638  0.8978 -0.0063
  943MOL0     H30103   0.238   8.999  10.993  0.2329 -1.8274  0.9030
  943MOL0     H30104   0.164   9.075  10.789  0.7695 -0.3796  0.2240
  943MOL0     H30105   0.321   9.029  10.713  1.6976  0.1502  1.0613
  943MOL0     H30106   0.266   9.277  10.879 -1.7130  2.9655 -1.5922
  943MOL0     H30107   0.411   9.243  10.787  0.6917 -1.2146  1.3411
  943MOL0     H30108   0.269   9.397  10.673  1.5098 -0.2702  2.0887
  943MOL0     H30109   0.129   9.301  10.706  0.4800 -0.4096 -1.2913
  943MOL0     H30110   0.160   9.148  10.527  0.1471  0.3495 -0.9854
  943MOL0     H30111   0.336   9.195  10.515  0.6831 -0.1473  1.6345
  943MOL0     H30112   0.101   9.385  10.481  0.7469 -0.9545  2.2967
  943MOL0     H30113   0.157   9.294  10.339 -0.4435  1.1312  0.6380
  943MOL0     H30114   0.774   9.083  11.096 -1.1851  0.9732 -1.3184
  943MOL0     H30115   1.011   9.153  11.066 -0.5114  0.6658  0.4502
  943MOL0     H30116   1.375   9.175  10.918 -0.2234 -1.2867 -0.9336
  943MOL0     H30117   1.616   9.245  10.897 -0.6946 -0.3279 -0.3228
  943MOL0     H30118   1.409   8.767  10.110  0.2671  0.4317  1.2626
  943MOL0     H30119   1.203   8.689  10.145 -2.7802  0.8547 -1.4682
  943MOL0     H30120   0.806   8.662  10.238 -2.1587 -0.7535  1.9117
  943MOL0     H30121   0.606   8.521  10.238 -0.7628  0.2253 -0.0008
  943MOL0     H30122   0.425   8.354  10.135 -1.6964 -1.8385 -0.0983
  943MOL0     H30123   0.364   8.491  10.214 -1.1485 -0.3128 -0.4083
  943MOL0     H30124   0.198   8.323  10.034 -2.4982  1.3263  0.6708
  943MOL0     H30125   0.171   8.493  10.030  1.6042  0.3404 -1.2160
  943MOL0     H30126   0.192   8.318  10.279  0.6842  0.1368 -0.2074
  943MOL0     H30127   0.144   8.490  10.275  1.9214 -0.4261 -0.3126
  943MOL0     H30128  -0.004   8.253  10.176  1.9026 -0.9233  0.7965
  943MOL0     H30129  -0.058   8.418  10.129 -0.9537  0.6887  0.3080
  943MOL0     H30130  -0.162   8.364  10.545 -1.3183 -1.9952 -1.7229
  943MOL0     H30131   0.480   8.706   9.878 -1.6400 -0.9680  0.9427
  943MOL0     H30132   0.753   8.881   9.771 -1.3287  0.2029 -1.9815
  943MOL0     H30133   0.576   8.896   9.780 -1.1519  1.4997  2.0269
  943MOL0     H30134   0.675   8.992   9.890 -2.0716  0.9397 -0.3920
  944MOL0     O30135   8.679   1.721   1.053 -0.0018  0.0824 -0.8948
  944MOL0     C30136   8.620   1.672   0.956 -0.2784  0.8551 -0.0033
  944MOL0     O30137   8.673   1.569   0.882 -0.1641 -0.7761  0.0343
  944MOL0     C30138   8.809   1.548   0.886 -1.3400  0.3525  0.0925
  944MOL0     C30139   8.908   1.648   0.867  0.7666 -0.0222 -0.6725
  944MOL0     C30140   9.045   1.621   0.887  0.7060  1.1039 -0.5570
  944MOL0     C30141   9.083   1.485   0.922 -0.7286 -0.3870 -0.4551
  944MOL0     O30142   9.212   1.444   0.946 -0.4929 -0.2807  0.0465
  944MOL0     C30143   9.318   1.533   0.898 -0.2327  0.0932 -0.0022
  944MOL0     C30144   9.443   1.453   0.890  0.0530 -0.1291  0.1053
  944MOL0     C30145   9.551   1.532   0.815 -0.5065 -0.0063  0.2328
  944MOL0     C30146   9.687   1.461   0.835 -0.4455  0.0869  0.6154
  944MOL0     C30147   9.804   1.554   0.796 -0.1496  0.6766  0.7071
  944MOL0     C30148   9.932   1.481   0.815  0.3530  0.5094 -0.7220
  944MOL0     C30149  10.043   1.595   0.776  0.0483 -0.0694 -0.5937
  944MOL0     C30150  10.045   1.639   0.633 -0.0142  0.5086 -0.3874
  944MOL0     N30151  10.181   1.691   0.622  0.7238  0.1847  0.4328
  944MOL0     C30152  10.271   1.630   0.539 -1.2669 -0.6952 -0.9856
  944MOL0     C30153  10.379   1.711   0.533 -0.2007  0.2539 -0.6021
  944MOL0     C30154  10.495   1.697   0.436 -0.5623 -0.3873 -0.5999
  944MOL0     C30155  10.460   1.720   0.282  0.2766 -0.5898 -0.5519
  944MOL0     C30156  10.559   1.628   0.202 -0.2592 -0.5137 -0.1143
  944MOL0     C30157  10.695   1.687   0.201 -0.0688 -0.4829  0.7080
  944MOL0     O30158  10.766   1.663   0.322  0.0451  0.0333  0.1128
  944MOL0     C30159  10.907   1.663   0.317  0.1037  0.2446 -0.0570
  944MOL0     C30160  10.989   1.705   0.217 -0.0063  0.6384  0.3928
  944MOL0     C30161  11.128   1.725   0.226  0.5724 -0.3785 -0.7663
  944MOL0     C30162  11.210   1.780   0.105 -0.0495 -0.6130 -0.1810
  944MOL0     C30163  11.189   1.694   0.356  0.0126 -0.3316  0.0568
  944MOL0     C30164  11.337   1.696   0.381  0.3087 -0.7336  0.5144
  944MOL0     O30165  11.409   1.760   0.290 -0.9365  0.3995  0.1701
  944MOL0     C30166  11.545   1.772   0.298 -0.5843  0.4100  0.2675
  944MOL0     C30167  11.612   1.787   0.178  0.3562 -0.3288  0.2593
  944MOL0     C30168  11.753   1.792   0.166  0.6526  0.1213 -0.5734
  944MOL0     C30169  11.825   1.775   0.277 -0.9515  0.9015 -0.8283
  944MOL0     O30170  11.957   1.767   0.259  0.0577 -0.0931  0.7480
  944MOL0     C30171  12.021   1.878   0.306  0.0963  0.0564 -0.5223
  944MOL0     C30172  12.162   1.836   0.273 -0.5008  0.3412 -0.1491
  944MOL0     C30173  12.258   1.938   0.328  0.2811 -0.1696 -0.5260
  944MOL0     C30174  12.408   1.887   0.326 -0.0000 -0.2174 -0.7623
  944MOL0     C30175  12.513   1.976   0.397 -0.7038 -1.2264 -0.4364
  944MOL0     C30176  12.658   1.957   0.352  0.0882  0.1222  0.1960
  944MOL0     C30177  12.722   1.813   0.398  0.2848 -0.1276  1.0121
  944MOL0     C30178  12.780   1.747   0.274 -0.2307 -0.7248  0.3053
  944MOL0    Cl30179  12.928   1.848   0.233  0.0963 -0.6076  0.0551
  944MOL0     C30180  11.760   1.786   0.402 -0.4995 -0.3144 -0.1985
  944MOL0     C30181  11.623   1.775   0.412  0.8964 -0.1725  0.4495
  944MOL0     O30182  11.381   1.640   0.479 -0.7197  0.0877  0.1072
  944MOL0     C30183  11.107   1.642   0.460  0.8134 -0.1305 -0.0324
  944MOL0     C30184  10.968   1.628   0.436  0.6163  1.3714  0.5322
  944MOL0     N30185  10.355   1.814   0.618  0.3543 -0.6539  1.1637
  944MOL0     N30186  10.241   1.804   0.667  0.1903  0.0876  0.4095
  944MOL0     C30187   8.983   1.389   0.940 -0.0505  0.5224  0.1426
  944MOL0     C30188   8.852   1.420   0.925  0.5398  0.0266 -0.8590
  944MOL0     C30189   8.479   1.718   0.929 -0.3205  0.0278  0.3910
  944MOL0     C30190   8.415   1.678   0.810  0.2779 -0.0639 -0.3345
  944MOL0     C30191   8.279   1.698   0.779 -0.1297  0.0186  0.5216
  944MOL0     C30192   8.197   1.770   0.858 -0.5749 -0.3481  0.7433
  944MOL0     O30193   8.065   1.796   0.825 -0.1347 -0.2227  0.2720
  944MOL0     C30194   7.973   1.685   0.822 -0.0427  0.7912  0.2545
  944MOL0     C30195   7.975   1.600   0.688 -0.3888  0.5101  0.7420
  944MOL0     C30196   7.969   1.702   0.568 -0.0704  0.6227  0.2011
  944MOL0     C30197   7.837   1.797   0.559  0.0163  0.6688 -0.1735
  944MOL0     C30198   7.716   1.730   0.494 -0.1314  0.4819  0.0794
  944MOL0     C30199   7.629   1.672   0.431  0.5535  0.3761 -0.3063
  944MOL0     C30200   8.258   1.814   0.980 -0.8486 -0.3526 -0.2086
  944MOL0     C30201   8.401   1.789   1.014  0.6642 -0.4081  0.4074
  944MOL0     C30202   8.434   1.846   1.151 -0.0278 -0.0169  0.2932
  944MOL0     H30203   8.883   1.751   0.845 -0.6516  0.1004  1.2255
  944MOL0     H30204   9.113   1.703   0.870  0.7340  0.9215 -1.3586
  944MOL0     H30205   9.332   1.622   0.960  0.5346 -1.1895  1.7535
  944MOL0     H30206   9.292   1.562   0.796 -1.2374  0.1366  0.2586
  944MOL0     H30207   9.461   1.438   0.997  1.7666  4.3721  0.6610
  944MOL0     H30208   9.424   1.353   0.850 -0.4354 -0.5006  1.2148
  944MOL0     H30209   9.525   1.535   0.709  1.5944 -0.5614 -0.3286
  944MOL0     H30210   9.555   1.635   0.851  0.5839 -0.0746  0.3243
  944MOL0     H30211   9.698   1.430   0.939  3.0704  0.2008  0.3930
  944MOL0     H30212   9.688   1.368   0.777  0.7208 -0.2410  1.1324
  944MOL0     H30213   9.810   1.640   0.863 -1.0450 -0.2999  2.0985
  944MOL0     H30214   9.789   1.585   0.691 -0.1541 -1.4999  0.0205
  944MOL0     H30215   9.949   1.457   0.920  2.1253 -0.3492 -1.1582
  944MOL0     H30216   9.949   1.389   0.758 -3.2909 -0.7167 -0.0842
  944MOL0     H30217  10.139   1.553   0.804 -0.9489 -0.8035  2.0064
  944MOL0     H30218  10.022   1.684   0.836  1.0682 -0.8367  0.9685
  944MOL0     H30219  10.034   1.552   0.568 -0.5488 -0.5076  1.0145
  944MOL0     H30220   9.972   1.718   0.614 -0.9180  0.4976  2.4855
  944MOL0     H30221  10.243   1.546   0.475 -1.3445 -0.6097 -1.0639
  944MOL0     H30222  10.540   1.597   0.445 -0.0396 -0.1842 -0.9557
  944MOL0     H30223  10.574   1.764   0.469 -1.5195  0.4311  0.0816
  944MOL0     H30224  10.354   1.704   0.265  0.1752  0.1458 -0.6458
  944MOL0     H30225  10.471   1.826   0.260 -1.6038 -0.0583  0.8461
  944MOL0     H30226  10.553   1.522   0.232 -1.1396 -0.5519 -0.3930
  944MOL0     H30227  10.531   1.640   0.097  0.2318 -0.8601 -0.2901
  944MOL0     H30228  10.743   1.647   0.111 -0.9024  1.4143 -0.6372
  944MOL0     H30229  10.680   1.793   0.177 -1.3138 -0.7207  0.3948
  944MOL0     H30230  10.948   1.728   0.119 -0.5731  2.1538  0.9479
  944MOL0     H30231  11.291   1.720   0.063  0.1285 -0.3420 -0.2299
  944MOL0     H30232  11.250   1.875   0.142 -1.6543 -0.0543  0.2039
  944MOL0     H30233  11.141   1.805   0.023  0.7671  0.5122 -0.5569
  944MOL0     H30234  11.556   1.788   0.085  1.5750 -0.2811 -0.4880
  944MOL0     H30235  11.795   1.793   0.065 -0.4910 -1.6812 -1.1037
  944MOL0     H30236  11.996   1.966   0.246  3.5113  0.5378 -1.4519
  944MOL0     H30237  12.005   1.895   0.413  5.6720 -1.9962  0.9630
  944MOL0     H30238  12.178   1.742   0.326 -0.8768 -0.8713 -2.0741
  944MOL0     H30239  12.192   1.839   0.168  0.0993  3.4035  0.0300
  944MOL0     H30240  12.228   1.951   0.432 -0.8116  1.2765 -0.9815
  944MOL0     H30241  12.249   2.035   0.277  0.7018 -0.0748 -0.4259
  944MOL0     H30242  12.438   1.877   0.222  1.3360  1.1168 -0.5422
  944MOL0     H30243  12.411   1.785   0.367 -1.6965 -0.0315 -0.1336
  944MOL0     H30244  12.482   2.078   0.372  1.1460  0.4548  3.2571
  944MOL0     H30245  12.518   1.982   0.506  3.2388  3.4650 -0.5628
  944MOL0     H30246  12.729   2.031   0.390  0.2017  1.7736 -2.9197
  944MOL0     H30247  12.649   1.965   0.243  1.6295  1.5113  0.1317
  944MOL0     H30248  12.637   1.757   0.438 -0.2059  0.3116  0.6092
  944MOL0     H30249  12.794   1.843   0.473  0.1903  0.9282  0.7011
  944MOL0     H30250  12.703   1.750   0.196 -1.0852  3.3107  1.0840
  944MOL0     H30251  12.808   1.644   0.300 -0.3839 -0.0775  3.3216
  944MOL0     H30252  11.822   1.783   0.492  0.3546 -0.8203 -0.7878
  944MOL0     H30253  11.586   1.772   0.514  0.6439 -3.1023  0.3640
  944MOL0     H30254  11.156   1.609   0.551  2.1413  0.2228 -0.5888
  944MOL0     H30255  10.902   1.570   0.500  1.1906 -1.3989 -1.2025
  944MOL0     H30256   9.004   1.288   0.973  1.4888  1.4893  2.3491
  944MOL0     H30257   8.779   1.345   0.953  1.0944  0.3047  1.5338
  944MOL0     H30258   8.470   1.612   0.742  1.7032  0.2905  0.4357
  944MOL0     H30259   8.247   1.652   0.686 -1.7556  2.9555 -0.4905
  944MOL0     H30260   7.996   1.614   0.902  0.7713 -2.2981 -2.5017
  944MOL0     H30261   7.878   1.736   0.844 -0.1439  0.5393  0.4052
  944MOL0     H30262   7.897   1.522   0.685 -0.8672  0.7946  3.3018
  944MOL0     H30263   8.070   1.545   0.690 -0.8375 -0.3091  0.2334
  944MOL0     H30264   8.051   1.772   0.585 -0.2381  0.4127  2.1759
  944MOL0     H30265   7.987   1.646   0.476  0.4981  0.1718  0.5739
  944MOL0     H30266   7.863   1.891   0.510 -0.6267  2.0850  2.0435
  944MOL0     H30267   7.814   1.840   0.657  0.2540  2.9128 -1.0292
  944MOL0     H30268   7.556   1.609   0.384  1.6035 -1.0454 -0.1149
  944MOL0     H30269   8.197   1.867   1.053  1.8088  0.0207  1.8941
  944MOL0     H30270   8.340   1.894   1.178 -2.0616 -3.1002 -0.7542
  944MOL0     H30271   8.434   1.765   1.224  1.5394 -0.7978 -0.5082
  944MOL0     H30272   8.518   1.916   1.146  0.6080 -0.8439 -1.5477
  945MOL0     O30273   7.024   9.762   7.207  0.2086  0.1118  0.2502
  945MOL0     C30274   6.969   9.739   7.314 -0.0650  0.1779 -0.1094
  945MOL0     O30275   7.037   9.703   7.422 -0.5047  0.4194  0.4067
  945MOL0     C30276   7.174   9.704   7.426 -0.1730  0.0789  0.1749
  945MOL0     C30277   7.262   9.650   7.333  0.0350 -0.1808  0.4990
  945MOL0     C30278   7.402   9.663   7.341  0.3996 -0.6129  0.5627
  945MOL0     C30279   7.459   9.722   7.454 -0.0678  0.3665 -0.1983
  945MOL0     O30280   7.591   9.754   7.469 -0.5657  0.5210  0.0974
  945MOL0     C30281   7.695   9.686   7.401  0.6396  0.3968  0.0226
  945MOL0     C30282   7.823   9.676   7.484 -0.1770 -0.3214 -0.8445
  945MOL0     C30283   7.944   9.635   7.402 -0.7160 -0.7826  0.4252
  945MOL0     C30284   8.055   9.649   7.511  0.8140  0.2341  0.3962
  945MOL0     C30285   8.184   9.606   7.436 -0.6848  0.1302 -0.5197
  945MOL0     C30286   8.294   9.589   7.542  0.4365  0.1146  0.6182
  945MOL0     C30287   8.423   9.527   7.480 -0.8914 -0.7297  0.1847
  945MOL0     C30288   8.553   9.568   7.552  0.2644 -0.1534 -0.2375
  945MOL0     N30289   8.668   9.505   7.494  0.4054 -0.5009  0.2565
  945MOL0     C30290   8.731   9.391   7.529 -0.1567 -0.0932 -0.2910
  945MOL0     C30291   8.838   9.385   7.445 -0.8687  0.3350 -0.0300
  945MOL0     C30292   8.939   9.274   7.446 -0.1062  0.7162  0.3384
  945MOL0     C30293   9.079   9.319   7.397  1.2092 -0.7393  0.4791
  945MOL0     C30294   9.133   9.438   7.483  0.0220  0.1485 -0.0122
  945MOL0     C30295   9.278   9.465   7.452 -0.6742  0.0230 -0.8080
  945MOL0     O30296   9.318   9.577   7.538  0.2451 -0.0623  0.5034
  945MOL0     C30297   9.450   9.619   7.531  0.1069 -0.5064 -0.5473
  945MOL0     C30298   9.556   9.533   7.493 -0.2441  0.1984 -0.0560
  945MOL0     C30299   9.685   9.576   7.502 -0.0122 -0.7379 -0.2201
  945MOL0     C30300   9.792   9.469   7.479  0.8220  0.1862  0.0091
  945MOL0     C30301   9.705   9.713   7.550 -0.2796  0.1688  0.3897
  945MOL0     C30302   9.840   9.775   7.554  0.1430  0.2449 -0.0075
  945MOL0     O30303   9.950   9.706   7.503  0.1273 -1.3867 -0.0706
  945MOL0     C30304  10.079   9.750   7.532 -0.2967  1.0633 -0.1947
  945MOL0     C30305  10.144   9.826   7.434 -0.2852  0.2709 -0.3954
  945MOL0     C30306  10.277   9.867   7.450 -0.6221  0.3045  0.5934
  945MOL0     C30307  10.343   9.840   7.573  0.8204 -0.2036 -0.3623
  945MOL0     O30308  10.473   9.879   7.602  0.5835 -0.0086 -0.2378
  945MOL0     C30309  10.534   9.979   7.517 -0.2592 -0.3037 -0.5604
  945MOL0     C30310  10.684   9.963   7.513  0.1846 -0.2869  0.4923
  945MOL0     C30311  10.747  10.064   7.416  0.2230  0.3935  0.2179
  945MOL0     C30312  10.881   9.998   7.360 -0.5474 -0.1626 -0.0025
  945MOL0     C30313  10.970  10.084   7.273 -0.9350  0.7862  0.1170
  945MOL0     C30314  10.904  10.138   7.158 -0.1506 -0.5416  0.0591
  945MOL0     C30315  10.990  10.172   7.045 -0.1136  0.5689 -0.2000
  945MOL0     C30316  10.929  10.268   6.949  0.1668  0.9426  0.1497
  945MOL0    Cl30317  10.780  10.181   6.875 -0.2548 -0.6585 -0.4098
  945MOL0     C30318  10.273   9.758   7.663  0.4135 -0.9112 -0.4469
  945MOL0     C30319  10.147   9.710   7.645 -0.1841  0.5070 -0.2461
  945MOL0     O30320   9.854   9.880   7.615  0.1508 -0.2187 -0.0687
  945MOL0     C30321   9.599   9.797   7.587 -0.4916 -0.2230  0.6306
  945MOL0     C30322   9.470   9.748   7.582  0.1545 -0.4966  0.3127
  945MOL0     N30323   8.822   9.489   7.348  0.0419  0.4507 -0.5112
  945MOL0     N30324   8.718   9.558   7.379 -1.3116  0.2685  0.3448
  945MOL0     C30325   7.374   9.786   7.548 -0.0634  0.1630 -0.1108
  945MOL0     C30326   7.232   9.775   7.527 -1.0132  0.4039 -0.6035
  945MOL0     C30327   6.819   9.760   7.324 -0.3020 -0.3774  0.3812
  945MOL0     C30328   6.774   9.828   7.437  1.0068 -0.4609  0.1358
  945MOL0     C30329   6.635   9.857   7.443  0.0543 -0.2417  0.5025
  945MOL0     C30330   6.547   9.819   7.345  0.2131 -0.1092  0.1769
  945MOL0     O30331   6.415   9.848   7.365 -0.4036 -0.5711 -0.4449
  945MOL0     C30332   6.318   9.754   7.315  0.1815 -0.1982 -0.5772
  945MOL0     C30333   6.331   9.622   7.396 -0.5671 -0.2444 -0.2351
  945MOL0     C30334   6.334   9.644   7.545  0.2139 -0.6163  0.8970
  945MOL0     C30335   6.330   9.509   7.621 -0.1805 -0.0806  0.4519
  945MOL0     C30336   6.291   9.537   7.760 -0.4029 -0.6707  0.2573
  945MOL0     C30337   6.254   9.561   7.875  0.0325 -0.8258 -0.7968
  945MOL0     C30338   6.600   9.747   7.236  0.0253  0.1701  0.4375
  945MOL0     C30339   6.738   9.710   7.227  0.7462  0.2210  0.0038
  945MOL0     C30340   6.778   9.628   7.110 -0.0127  0.7020  1.0474
  945MOL0     H30341   7.226   9.594   7.247  0.8120 -1.0943  0.7536
  945MOL0     H30342   7.469   9.634   7.261  2.8634  1.9776  1.5050
  945MOL0     H30343   7.722   9.747   7.314  2.5980 -0.4926 -0.0392
  945MOL0     H30344   7.665   9.587   7.367  1.4604  0.7377 -1.8522
  945MOL0     H30345   7.846   9.775   7.526  2.1381 -1.3751  0.5575
  945MOL0     H30346   7.810   9.615   7.573  1.2338  1.3478  0.5903
  945MOL0     H30347   7.927   9.539   7.354  0.3718 -0.4394 -0.6981
  945MOL0     H30348   7.959   9.717   7.331 -0.6485 -0.5590  0.6934
  945MOL0     H30349   8.060   9.749   7.554 -1.1239  1.0795 -1.2098
  945MOL0     H30350   8.028   9.583   7.593 -0.6015  0.6329  0.2768
  945MOL0     H30351   8.203   9.682   7.360 -1.2125 -0.4048 -1.2093
  945MOL0     H30352   8.162   9.510   7.388 -5.3195  0.7907 -0.2025
  945MOL0     H30353   8.311   9.689   7.582  2.3896  1.2199 -2.6096
  945MOL0     H30354   8.265   9.527   7.627  1.6929 -0.6931  0.4896
  945MOL0     H30355   8.427   9.565   7.378 -1.2642 -0.2293  0.3541
  945MOL0     H30356   8.421   9.419   7.465  1.9628 -0.6859 -1.2090
  945MOL0     H30357   8.560   9.677   7.560 -0.1357 -0.2494  2.0041
  945MOL0     H30358   8.544   9.525   7.652  1.3864  0.0533 -0.0309
  945MOL0     H30359   8.709   9.326   7.613 -1.6704  0.0024 -0.5816
  945MOL0     H30360   8.906   9.188   7.387  0.1309  0.3030  0.8009
  945MOL0     H30361   8.934   9.234   7.547  0.2619 -0.5268 -0.1115
  945MOL0     H30362   9.142   9.229   7.409  3.5046  1.0101  2.8001
  945MOL0     H30363   9.078   9.326   7.288  1.7586 -1.1221  0.4427
  945MOL0     H30364   9.063   9.521   7.471 -1.6562 -1.3617 -1.2885
  945MOL0     H30365   9.115   9.404   7.586 -0.3844  1.8749  0.5192
  945MOL0     H30366   9.351   9.394   7.492  0.7771  2.1474  0.5837
  945MOL0     H30367   9.294   9.493   7.348  1.0139 -1.5566 -1.0134
  945MOL0     H30368   9.538   9.429   7.469 -0.5691  0.7676 -2.5213
  945MOL0     H30369   9.740   9.373   7.472 -2.3459  1.8307 -1.0812
  945MOL0     H30370   9.859   9.452   7.563  1.2948 -0.2136 -0.4479
  945MOL0     H30371   9.850   9.476   7.387 -0.5118  2.8208 -0.7493
  945MOL0     H30372  10.087   9.843   7.343  0.8592  2.2428 -0.8024
  945MOL0     H30373  10.329   9.908   7.364  2.0499 -1.1614  1.4231
  945MOL0     H30374  10.507   9.973   7.412 -0.5679  3.3241 -0.8093
  945MOL0     H30375  10.501  10.078   7.552 -3.3607 -1.9509  1.6997
  945MOL0     H30376  10.742   9.971   7.606 -0.0115 -1.0675  0.6896
  945MOL0     H30377  10.698   9.859   7.484  1.7372 -0.4674  1.7056
  945MOL0     H30378  10.771  10.149   7.480 -0.9438  2.2970 -1.7586
  945MOL0     H30379  10.680  10.090   7.334 -0.4146 -1.7051 -0.0008
  945MOL0     H30380  10.875   9.909   7.298 -0.0986  0.0040 -0.2921
  945MOL0     H30381  10.946   9.975   7.446  0.6897  0.3691 -0.7575
  945MOL0     H30382  11.017  10.163   7.333 -0.8200  0.3150  0.6576
  945MOL0     H30383  11.057  10.025   7.243 -0.7139  1.5128 -0.7207
  945MOL0     H30384  10.858  10.228   7.198 -2.5440 -1.8292  0.3976
  945MOL0     H30385  10.830  10.068   7.117  0.5219 -0.4209 -1.4466
  945MOL0     H30386  11.025  10.079   7.001 -0.9833 -0.8163  1.8869
  945MOL0     H30387  11.080  10.224   7.079  1.4290 -1.7623 -0.4775
  945MOL0     H30388  10.994  10.306   6.869 -1.0900 -1.4552 -2.1914
  945MOL0     H30389  10.903  10.361   7.000  1.1466  2.7659 -2.4424
  945MOL0     H30390  10.323   9.730   7.755  1.9247  1.7456 -0.3830
  945MOL0     H30391  10.110   9.634   7.713  1.0950 -2.4493 -2.6144
  945MOL0     H30392   9.614   9.898   7.622  0.5970  0.1334 -0.7463
  945MOL0     H30393   9.389   9.813   7.613 -0.5264 -0.3385 -1.6668
  945MOL0     H30394   7.414   9.849   7.627 -1.2988  1.7505 -0.6903
  945MOL0     H30395   7.173   9.835   7.596  1.9821 -0.5030  3.1102
  945MOL0     H30396   6.843   9.851   7.518  0.5366 -1.1859  0.7483
  945MOL0     H30397   6.587   9.905   7.527 -1.4662 -1.1693  0.1906
  945MOL0     H30398   6.217   9.795   7.322  0.1997  0.1010 -1.8376
  945MOL0     H30399   6.329   9.728   7.210  1.1988 -2.1311 -0.0496
  945MOL0     H30400   6.422   9.571   7.365  0.3954 -1.5678  4.1959
  945MOL0     H30401   6.247   9.555   7.374  0.2566 -1.1483 -0.7154
  945MOL0     H30402   6.424   9.702   7.569 -0.7928  0.4521  2.2862
  945MOL0     H30403   6.249   9.706   7.577 -0.3307 -1.9108  2.0389
  945MOL0     H30404   6.433   9.472   7.614  0.9665  2.7890  0.8683
  945MOL0     H30405   6.259   9.441   7.572  0.7658 -0.8856  0.1637
  945MOL0     H30406   6.226   9.579   7.976  1.0684  0.8704 -0.7484
  945MOL0     H30407   6.547   9.704   7.151  1.3818 -2.2484  0.7335
  945MOL0     H30408   6.839   9.538   7.125  2.1588  2.0457  0.7930
  945MOL0     H30409   6.695   9.600   7.044  3.1066  1.8722 -3.9419
  945MOL0     H30410   6.839   9.698   7.052 -2.1913  2.8207  1.1737
  946MOL0     O30411   0.209   4.597   4.024 -0.0628 -0.1615  0.2387
  946MOL0     C30412   0.167   4.703   4.066  0.1895  0.4486  0.5850
  946MOL0     O30413   0.239   4.828   4.064  0.2036  0.6626  0.6545
  946MOL0     C30414   0.374   4.815   4.044 -0.0257 -0.0818  0.0467
  946MOL0     C30415   0.456   4.848   4.146 -0.3249  0.2731  0.2240
  946MOL0     C30416   0.597   4.846   4.129 -0.3302 -0.3536 -0.2488
  946MOL0     C30417   0.654   4.807   4.002  0.5888 -0.7208  0.7983
  946MOL0     O30418   0.792   4.799   3.972  0.0790  0.3277  0.0472
  946MOL0     C30419   0.882   4.869   4.065 -0.3953  0.4106  0.7671
  946MOL0     C30420   0.933   4.767   4.164 -0.0628  0.6715 -0.6346
  946MOL0     C30421   1.032   4.669   4.090 -0.7568  0.2970  0.1727
  946MOL0     C30422   0.987   4.555   4.001  0.8758  0.0413  0.8555
  946MOL0     C30423   1.103   4.485   3.928  0.0405 -0.7186 -0.1227
  946MOL0     C30424   1.184   4.402   4.033 -0.2444 -0.0548 -0.1980
  946MOL0     C30425   1.328   4.369   3.989 -0.5998  0.1937 -0.5107
  946MOL0     C30426   1.387   4.276   4.096  0.1749  1.1180 -0.4284
  946MOL0     N30427   1.529   4.314   4.117 -0.5571 -0.7316 -0.2923
  946MOL0     C30428   1.637   4.283   4.031  0.1255 -0.1519  0.1477
  946MOL0     C30429   1.751   4.294   4.110  0.1815 -0.1899  0.5656
  946MOL0     C30430   1.894   4.272   4.054  0.3398 -1.2434  1.0974
  946MOL0     C30431   1.941   4.384   3.953 -0.1457 -0.0264  0.0875
  946MOL0     C30432   1.981   4.501   4.042 -0.1426  0.3193  0.6623
  946MOL0     C30433   2.061   4.605   3.970  0.1476  0.2282 -0.5069
  946MOL0     O30434   2.189   4.568   3.928  0.2731 -0.2965 -0.3936
  946MOL0     C30435   2.304   4.603   3.992  0.0538 -0.6050 -0.6928
  946MOL0     C30436   2.304   4.642   4.124  0.3087 -0.0365 -0.5062
  946MOL0     C30437   2.417   4.684   4.194  0.3892  0.2908 -0.8797
  946MOL0     C30438   2.385   4.722   4.343  0.3715 -0.0879 -0.4470
  946MOL0     C30439   2.541   4.680   4.132  0.0491  0.3859 -0.5149
  946MOL0     C30440   2.666   4.702   4.202 -0.8225  0.5835 -0.3040
  946MOL0     O30441   2.776   4.726   4.123  0.2160  0.1646 -0.4862
  946MOL0     C30442   2.899   4.759   4.181  0.8837 -0.0435  0.4395
  946MOL0     C30443   2.956   4.877   4.135 -0.3976 -0.3955 -0.3192
  946MOL0     C30444   3.080   4.916   4.184 -1.1416 -0.1632  0.3676
  946MOL0     C30445   3.157   4.836   4.267 -0.3140 -0.0350  0.4253
  946MOL0     O30446   3.278   4.860   4.309 -0.1438  0.9712  0.0804
  946MOL0     C30447   3.326   4.994   4.269  0.4011  0.3624  1.1211
  946MOL0     C30448   3.475   5.016   4.311  0.3516  0.1442  0.8734
  946MOL0     C30449   3.486   5.042   4.457  0.3661  0.0005  1.2002
  946MOL0     C30450   3.636   5.037   4.504  0.4050  0.0208 -0.3970
  946MOL0     C30451   3.644   5.084   4.651 -0.5783 -0.4312 -0.5748
  946MOL0     C30452   3.783   5.144   4.696  1.0431  0.2664  0.5865
  946MOL0     C30453   3.778   5.223   4.828  0.4054 -0.6589  0.1944
  946MOL0     C30454   3.912   5.294   4.863 -0.4716  0.5583 -0.3305
  946MOL0    Cl30455   3.888   5.435   4.965  0.2622  0.4740  0.2224
  946MOL0     C30456   3.100   4.717   4.302  0.4727 -0.6570 -0.5563
  946MOL0     C30457   2.970   4.682   4.270 -0.5521  0.4296 -0.0329
  946MOL0     O30458   2.671   4.708   4.328 -0.3749 -0.0375 -0.8459
  946MOL0     C30459   2.538   4.651   3.992  0.6829 -0.4336  0.3051
  946MOL0     C30460   2.423   4.605   3.927 -0.3633  0.7619  0.1214
  946MOL0     N30461   1.712   4.331   4.237  0.6840 -0.6651  0.1045
  946MOL0     N30462   1.578   4.339   4.243  0.1111 -0.1652  0.3162
  946MOL0     C30463   0.568   4.771   3.901  0.4085  0.9593 -0.2620
  946MOL0     C30464   0.432   4.774   3.924  0.0644  0.8165 -0.1610
  946MOL0     C30465   0.021   4.709   4.102  0.1707 -0.0478 -0.7357
  946MOL0     C30466  -0.014   4.802   4.207 -0.7488 -0.2183 -0.0611
  946MOL0     C30467  -0.147   4.796   4.261 -0.4567 -0.0351 -0.7834
  946MOL0     C30468  -0.252   4.716   4.207  1.1516 -0.4249  0.2992
  946MOL0     O30469  -0.383   4.704   4.256  0.1518 -0.4442  0.6545
  946MOL0     C30470  -0.449   4.825   4.299 -0.1651 -0.1894  0.3580
  946MOL0     C30471  -0.597   4.817   4.291  0.5958 -0.2845 -0.4245
  946MOL0     C30472  -0.662   4.905   4.385  1.2372 -0.0562 -0.6647
  946MOL0     C30473  -0.814   4.898   4.388  0.1050 -1.0721  0.0179
  946MOL0     C30474  -0.871   4.968   4.276 -0.3021 -0.6403 -0.4727
  946MOL0     C30475  -0.930   5.028   4.188  0.8133  0.6542 -0.0664
  946MOL0     C30476  -0.214   4.627   4.110 -0.3338 -0.0981 -0.5655
  946MOL0     C30477  -0.080   4.614   4.067 -0.7669  0.3581  0.5534
  946MOL0     C30478  -0.062   4.501   3.968  0.4634  0.5034  1.1337
  946MOL0     H30479   0.409   4.882   4.237  2.1811 -1.3456  2.2564
  946MOL0     H30480   0.656   4.878   4.215 -2.5211  5.7569 -0.5268
  946MOL0     H30481   0.842   4.960   4.112 -1.9462  0.1308  0.0348
  946MOL0     H30482   0.962   4.912   4.004 -0.6910  1.5662  1.1708
  946MOL0     H30483   0.991   4.819   4.240 -1.4770  0.1292  0.8703
  946MOL0     H30484   0.843   4.714   4.198  0.9644 -1.1236 -0.6000
  946MOL0     H30485   1.096   4.731   4.026 -3.6246  2.7065 -0.5608
  946MOL0     H30486   1.087   4.616   4.168  2.6364  2.0471 -0.8339
  946MOL0     H30487   0.918   4.492   4.059 -0.1729  1.3944  1.1251
  946MOL0     H30488   0.928   4.596   3.919  1.9509 -1.6732 -0.8656
  946MOL0     H30489   1.168   4.567   3.894 -0.8426  0.4537  0.8950
  946MOL0     H30490   1.069   4.429   3.840  1.5319  0.7977 -1.7589
  946MOL0     H30491   1.192   4.452   4.130 -0.9266 -0.0077 -0.1652
  946MOL0     H30492   1.126   4.310   4.050  1.8818 -1.6418 -0.9890
  946MOL0     H30493   1.381   4.463   3.974  0.0052  0.0878  0.7824
  946MOL0     H30494   1.329   4.310   3.897  0.6916  0.6275 -0.8080
  946MOL0     H30495   1.324   4.272   4.185 -0.1241 -2.2012 -0.6460
  946MOL0     H30496   1.389   4.175   4.054 -1.2274  1.4586 -1.3484
  946MOL0     H30497   1.629   4.245   3.930  1.6628 -0.9280  0.2849
  946MOL0     H30498   1.885   4.177   4.002  0.4201 -2.5572  3.3431
  946MOL0     H30499   1.959   4.273   4.142 -0.4121 -0.9790  1.6624
  946MOL0     H30500   2.029   4.361   3.892 -1.0381  0.7907 -1.5922
  946MOL0     H30501   1.856   4.412   3.891  1.5870  2.3799 -1.3471
  946MOL0     H30502   1.890   4.545   4.084 -1.5299 -1.5697 -0.1994
  946MOL0     H30503   2.042   4.469   4.127  0.0087  0.4589  0.6055
  946MOL0     H30504   1.994   4.623   3.886  0.3476  1.1349 -0.4787
  946MOL0     H30505   2.067   4.696   4.031  1.2108  0.5180 -1.0357
  946MOL0     H30506   2.210   4.634   4.177 -0.8735 -1.4529 -2.6389
  946MOL0     H30507   2.418   4.643   4.411 -0.4307 -1.0322 -1.1232
  946MOL0     H30508   2.276   4.720   4.354  0.2469 -3.2454 -1.1866
  946MOL0     H30509   2.432   4.816   4.373 -3.2610  0.4633  4.9843
  946MOL0     H30510   2.899   4.942   4.069  0.7410  2.2774  1.1740
  946MOL0     H30511   3.114   5.011   4.144 -0.4961 -0.6521 -0.2637
  946MOL0     H30512   3.327   4.996   4.160 -3.4411 -2.1795  0.8417
  946MOL0     H30513   3.274   5.078   4.317  1.7972  0.0863  3.2749
  946MOL0     H30514   3.536   4.927   4.295  1.9438  1.5596 -1.9222
  946MOL0     H30515   3.504   5.101   4.247 -1.7830  1.2735  1.3163
  946MOL0     H30516   3.431   4.968   4.515 -1.0025  0.5058  0.5808
  946MOL0     H30517   3.442   5.140   4.477 -1.4374 -0.2958 -0.8689
  946MOL0     H30518   3.701   5.104   4.447 -2.5629 -0.4723 -4.8309
  946MOL0     H30519   3.680   4.937   4.501  1.9443  0.5631  1.6472
  946MOL0     H30520   3.574   5.168   4.656  0.3107  0.3395 -0.9521
  946MOL0     H30521   3.601   5.014   4.723  0.1102 -0.7879 -0.5026
  946MOL0     H30522   3.812   5.214   4.617  0.0453  1.7484  1.4847
  946MOL0     H30523   3.860   5.066   4.696 -1.4088 -2.3143  0.6814
  946MOL0     H30524   3.750   5.161   4.913  3.0651  1.6669  2.9974
  946MOL0     H30525   3.699   5.297   4.816 -0.4345 -1.7799 -1.6293
  946MOL0     H30526   3.968   5.337   4.779 -0.9954  0.7429 -0.5917
  946MOL0     H30527   3.966   5.223   4.926 -1.4716 -1.5123 -1.7000
  946MOL0     H30528   3.151   4.653   4.373  0.5773 -1.3701 -1.2551
  946MOL0     H30529   2.931   4.590   4.312  1.1912 -0.7761 -0.9502
  946MOL0     H30530   2.613   4.661   3.915 -0.0115  0.8000 -0.2495
  946MOL0     H30531   2.416   4.577   3.822  1.0961  1.6162 -0.2314
  946MOL0     H30532   0.605   4.728   3.809  1.0978  2.0158 -0.4866
  946MOL0     H30533   0.369   4.730   3.847  1.2164 -2.2123  0.5018
  946MOL0     H30534   0.050   4.876   4.254 -2.9283  2.3717 -0.9579
  946MOL0     H30535  -0.166   4.868   4.340  0.6048 -1.2537  0.6416
  946MOL0     H30536  -0.419   4.846   4.402  0.4180 -2.6908  0.7604
  946MOL0     H30537  -0.411   4.917   4.254 -0.0488 -0.9698 -1.2075
  946MOL0     H30538  -0.628   4.712   4.300 -0.1244 -0.1257 -0.9485
  946MOL0     H30539  -0.613   4.852   4.189  1.4188 -0.3796 -0.5935
  946MOL0     H30540  -0.627   4.873   4.483  1.7975  2.8283  0.1720
  946MOL0     H30541  -0.642   5.012   4.371 -2.4139  0.8124 -0.4423
  946MOL0     H30542  -0.858   4.948   4.475  0.7509 -2.3494  1.1094
  946MOL0     H30543  -0.839   4.791   4.389 -1.5046 -0.7360  1.6020
  946MOL0     H30544  -0.971   5.081   4.105 -1.8376  0.6942  1.1795
  946MOL0     H30545  -0.294   4.568   4.067 -1.3662  0.0191  1.0861
  946MOL0     H30546  -0.075   4.546   3.870  0.4463 -2.0751 -0.1194
  946MOL0     H30547   0.033   4.449   3.984 -0.6455 -2.1308 -0.1071
  946MOL0     H30548  -0.143   4.427   3.974  2.0706 -1.3124  1.3560
  947MOL0     O30549   9.051   6.735   9.555 -0.5129 -0.2689 -0.0804
  947MOL0     C30550   9.040   6.859   9.552  0.3867  0.2056  0.1531
  947MOL0     O30551   9.131   6.957   9.596  0.1267 -0.1630 -0.3408
  947MOL0     C30552   9.243   6.907   9.664 -0.0769 -0.0401 -0.2937
  947MOL0     C30553   9.365   6.919   9.600 -0.2335 -0.0872  0.0393
  947MOL0     C30554   9.483   6.901   9.668 -0.6817 -0.1421  0.4603
  947MOL0     C30555   9.480   6.876   9.808 -0.6839  0.1034 -0.3420
  947MOL0     O30556   9.596   6.861   9.886 -0.5383  0.1147 -0.0023
  947MOL0     C30557   9.723   6.864   9.812 -0.0552 -0.1621  0.0017
  947MOL0     C30558   9.828   6.849   9.918  0.3929  0.0441  0.3898
  947MOL0     C30559   9.955   6.785   9.869 -0.1266  0.0561 -0.4427
  947MOL0     C30560  10.043   6.772   9.996 -0.4559  0.2375 -0.4507
  947MOL0     C30561  10.176   6.704   9.976  0.1599 -0.1586  0.0900
  947MOL0     C30562  10.273   6.719  10.095 -0.2637  0.2419  0.6997
  947MOL0     C30563  10.371   6.605  10.083 -1.3125  0.0674  0.5734
  947MOL0     C30564  10.330   6.476  10.150 -1.0077 -0.5053  0.5877
  947MOL0     N30565  10.343   6.495  10.296  0.0932  0.2066  0.5725
  947MOL0     C30566  10.457   6.508  10.364 -0.0127  0.2528 -0.3718
  947MOL0     C30567  10.411   6.547  10.484  1.1175  0.1494  0.4053
  947MOL0     C30568  10.493   6.572  10.611  0.0797  0.2540 -0.3033
  947MOL0     C30569  10.609   6.662  10.588  0.4949  0.0557 -0.5958
  947MOL0     C30570  10.658   6.707  10.729 -0.0183 -0.0827 -1.2266
  947MOL0     C30571  10.751   6.594  10.788 -0.2364 -1.2057  0.4673
  947MOL0     O30572  10.861   6.544  10.711 -0.0547 -0.7402  0.3521
  947MOL0     C30573  10.984   6.555  10.774  0.1287  0.5795 -0.4100
  947MOL0     C30574  11.079   6.454  10.733  1.2412  0.4212 -0.2707
  947MOL0     C30575  11.201   6.448  10.800  0.4533 -0.0731  1.9029
  947MOL0     C30576  11.292   6.331  10.763 -0.4605 -0.0717  0.0196
  947MOL0     C30577  11.241   6.542  10.896  0.0797 -0.0543  0.1902
  947MOL0     C30578  11.361   6.537  10.976  0.2358  0.2332  0.7170
  947MOL0     O30579  11.357   6.598  11.108  0.2310 -0.1506  0.2051
  947MOL0     C30580  11.474   6.613  11.178 -1.0394 -0.0593 -0.8004
  947MOL0     C30581  11.530   6.509  11.255  0.1285  0.4385 -0.0463
  947MOL0     C30582  11.647   6.525  11.335  0.2695 -0.3421 -0.5013
  947MOL0     C30583  11.723   6.646  11.327  0.6621  0.4741 -0.5881
  947MOL0     O30584  11.838   6.655  11.396 -0.0476 -0.1345 -0.1156
  947MOL0     C30585  11.934   6.752  11.368 -0.5133  0.2664  0.0301
  947MOL0     C30586  12.065   6.716  11.432 -0.4214 -0.2623  0.4728
  947MOL0     C30587  12.162   6.829  11.422 -0.3117 -0.9336  0.2654
  947MOL0     C30588  12.303   6.779  11.440 -0.0536 -0.8262 -0.1674
  947MOL0     C30589  12.392   6.883  11.505 -0.1146 -0.0489  0.2123
  947MOL0     C30590  12.492   6.936  11.397  0.1565  0.3916 -0.8762
  947MOL0     C30591  12.592   7.030  11.456  0.1686 -0.2013 -0.2854
  947MOL0     C30592  12.687   7.114  11.371 -0.5530  0.1591  0.1853
  947MOL0    Cl30593  12.760   7.012  11.247 -0.3566 -0.5870 -0.0277
  947MOL0     C30594  11.669   6.754  11.252  0.4913 -0.2575 -0.1662
  947MOL0     C30595  11.547   6.732  11.173  0.0296  0.5103 -0.9530
  947MOL0     O30596  11.458   6.479  10.936 -0.5658 -0.2079  0.1770
  947MOL0     C30597  11.151   6.651  10.915 -0.1591 -0.1140 -0.7709
  947MOL0     C30598  11.034   6.665  10.854 -0.0732  0.5541 -0.3773
  947MOL0     N30599  10.271   6.567  10.482 -1.0463  0.2372  0.8765
  947MOL0     N30600  10.228   6.529  10.371 -0.0255 -0.7765  1.4457
  947MOL0     C30601   9.358   6.853   9.867 -0.6213  0.3025 -0.2251
  947MOL0     C30602   9.242   6.871   9.798  0.3352 -0.4692  0.1981
  947MOL0     C30603   8.909   6.913   9.506  0.2236  0.1487 -0.2162
  947MOL0     C30604   8.873   7.042   9.554  0.2571 -0.0260  0.8007
  947MOL0     C30605   8.757   7.105   9.516  0.1713  0.4737  0.3380
  947MOL0     C30606   8.668   7.033   9.424  0.1551 -0.0461  0.5005
  947MOL0     O30607   8.555   7.086   9.379  0.2751  0.0247 -0.4155
  947MOL0     C30608   8.535   7.229   9.391 -0.5356  0.6911 -0.2178
  947MOL0     C30609   8.420   7.282   9.302 -0.2806 -0.1858 -0.4592
  947MOL0     C30610   8.275   7.259   9.348  0.9459  0.0869 -0.4372
  947MOL0     C30611   8.245   7.113   9.379  0.9709 -0.6373  0.0402
  947MOL0     C30612   8.110   7.088   9.400 -0.1035  0.1301  0.3830
  947MOL0     C30613   7.993   7.086   9.433  0.3040  0.7615 -0.4712
  947MOL0     C30614   8.695   6.904   9.392  0.0726  0.4764 -0.3176
  947MOL0     C30615   8.817   6.837   9.427  0.1711 -0.2419 -0.0721
  947MOL0     C30616   8.832   6.697   9.379  0.6900 -0.5789 -0.3373
  947MOL0     H30617   9.372   6.950   9.496  0.9287 -0.3596  0.0246
  947MOL0     H30618   9.576   6.918   9.615  0.4310  0.3192  2.4660
  947MOL0     H30619   9.740   6.954   9.753  1.9244 -1.0806 -0.9147
  947MOL0     H30620   9.731   6.779   9.744 -4.3094  0.9006 -2.2067
  947MOL0     H30621   9.858   6.946   9.959 -1.9264 -0.2873  3.2598
  947MOL0     H30622   9.785   6.781   9.993  1.9462 -2.6770 -1.0382
  947MOL0     H30623   9.938   6.684   9.830  1.5899 -0.0200 -1.0544
  947MOL0     H30624  10.003   6.839   9.788  1.1570 -0.5699 -0.1246
  947MOL0     H30625  10.066   6.869  10.041  2.8514 -0.3089 -0.7709
  947MOL0     H30626   9.983   6.718  10.070  1.8800 -1.6098  0.1897
  947MOL0     H30627  10.217   6.751   9.886 -0.9264  1.5344  0.4381
  947MOL0     H30628  10.156   6.597   9.962  0.2595 -0.1130 -0.4277
  947MOL0     H30629  10.324   6.816  10.093 -0.1472  0.2874 -3.4590
  947MOL0     H30630  10.215   6.700  10.185 -0.7905 -1.6987 -0.0057
  947MOL0     H30631  10.464   6.641  10.129 -2.1513  0.9791  1.6200
  947MOL0     H30632  10.387   6.577   9.978 -0.0730  0.8584  0.5230
  947MOL0     H30633  10.230   6.452  10.112 -0.9281  1.4380 -1.0039
  947MOL0     H30634  10.395   6.396  10.115 -1.4039 -0.0406 -1.3635
  947MOL0     H30635  10.559   6.487  10.334  0.2598  2.2820 -1.0138
  947MOL0     H30636  10.527   6.472  10.640 -0.5754 -0.0078 -0.3969
  947MOL0     H30637  10.425   6.613  10.686  0.2998  1.3319 -0.6844
  947MOL0     H30638  10.685   6.613  10.526  0.4587  1.2142 -1.6028
  947MOL0     H30639  10.585   6.747  10.523  2.2261 -0.2290 -1.6649
  947MOL0     H30640  10.726   6.792  10.726  0.1312 -0.1858 -0.8468
  947MOL0     H30641  10.580   6.729  10.802  1.3248  0.3166  0.1342
  947MOL0     H30642  10.781   6.617  10.891  1.7495 -2.5879  0.2420
  947MOL0     H30643  10.687   6.506  10.796 -0.1728 -1.1620  1.6050
  947MOL0     H30644  11.044   6.391  10.652  0.0779  2.6512 -1.6151
  947MOL0     H30645  11.344   6.299  10.854  0.1232  2.3652  0.6293
  947MOL0     H30646  11.359   6.371  10.686 -2.8055 -1.1699 -2.7743
  947MOL0     H30647  11.240   6.243  10.725 -0.9164 -0.1070  0.7094
  947MOL0     H30648  11.492   6.407  11.252 -2.1513  1.2013  0.5839
  947MOL0     H30649  11.681   6.442  11.397 -0.2550 -0.0965  0.1195
  947MOL0     H30650  11.948   6.768  11.261 -1.6479  2.4328  0.1575
  947MOL0     H30651  11.902   6.847  11.413  0.7137  2.3996 -3.2501
  947MOL0     H30652  12.054   6.683  11.535 -0.1036  1.2617  1.0250
  947MOL0     H30653  12.101   6.628  11.378 -1.6109 -2.0207  2.4324
  947MOL0     H30654  12.136   6.914  11.485  0.9189 -0.6014  0.3532
  947MOL0     H30655  12.154   6.859  11.317  2.5699 -0.6805  0.0467
  947MOL0     H30656  12.344   6.740  11.347 -3.9014 -2.8661 -1.2180
  947MOL0     H30657  12.286   6.692  11.504  0.7013  0.1903  1.4766
  947MOL0     H30658  12.329   6.967  11.537 -2.1952 -1.3495 -0.2410
  947MOL0     H30659  12.452   6.838  11.585  1.1158  1.8066  0.3823
  947MOL0     H30660  12.440   6.993  11.319 -0.9412 -1.4497 -1.5665
  947MOL0     H30661  12.555   6.855  11.359  1.6459  1.6394 -1.1285
  947MOL0     H30662  12.662   6.964  11.509  1.6355  2.1904  0.9575
  947MOL0     H30663  12.539   7.093  11.528 -2.7646  0.4206 -2.8085
  947MOL0     H30664  12.764   7.153  11.438 -2.0996  1.3148  1.3923
  947MOL0     H30665  12.636   7.200  11.327 -0.5371  0.1822  0.2112
  947MOL0     H30666  11.714   6.852  11.256 -4.0354  2.1029 -0.7924
  947MOL0     H30667  11.519   6.811  11.104 -0.0931 -0.5006 -2.0893
  947MOL0     H30668  11.177   6.737  10.976 -0.2427 -0.2212 -0.5846
  947MOL0     H30669  10.962   6.745  10.867 -0.3047  0.5597 -1.5578
  947MOL0     H30670   9.347   6.829   9.972 -1.4959  0.3055 -0.3087
  947MOL0     H30671   9.147   6.860   9.849  0.9889 -0.3137  1.5030
  947MOL0     H30672   8.935   7.093   9.627 -0.5581  1.3529  0.5818
  947MOL0     H30673   8.725   7.195   9.567  0.0894 -0.3354  1.7762
  947MOL0     H30674   8.495   7.246   9.492  0.4323 -1.4373  0.5870
  947MOL0     H30675   8.628   7.278   9.364 -0.5532  1.1341  0.5012
  947MOL0     H30676   8.446   7.252   9.200 -0.2269  2.1788 -1.2005
  947MOL0     H30677   8.440   7.389   9.302  0.1012 -0.2281  0.9986
  947MOL0     H30678   8.251   7.318   9.437 -0.1834 -2.9770  1.4616
  947MOL0     H30679   8.214   7.292   9.264  1.6424  0.6490 -0.7298
  947MOL0     H30680   8.299   7.086   9.471 -0.2279 -1.6028  0.4843
  947MOL0     H30681   8.277   7.046   9.298 -0.0375  0.5342 -1.3555
  947MOL0     H30682   7.891   7.091   9.466 -0.6574 -1.8681 -2.7077
  947MOL0     H30683   8.616   6.858   9.333  0.1745 -0.4118  0.2139
  947MOL0     H30684   8.753   6.679   9.305  0.0158 -2.6600  0.7946
  947MOL0     H30685   8.931   6.671   9.340  0.3529  0.2507 -1.8313
  947MOL0     H30686   8.816   6.624   9.460  2.7909 -1.3246 -0.5277
  948MOL0     O30687  10.193  11.336   2.746  0.0605  0.3313  0.1199
  948MOL0     C30688  10.111  11.399   2.806  0.0422  0.6562  0.1321
  948MOL0     O30689  10.134  11.505   2.904 -0.0849 -0.0403  0.0738
  948MOL0     C30690  10.261  11.516   2.954  0.2768 -0.3691 -1.2744
  948MOL0     C30691  10.274  11.552   3.093  0.3907  0.1128  0.5986
  948MOL0     C30692  10.403  11.592   3.147  0.3236  0.0430  0.4737
  948MOL0     C30693  10.518  11.588   3.062 -0.4340 -0.4347  0.5243
  948MOL0     O30694  10.632  11.612   3.124 -0.1043  0.0004  0.4126
  948MOL0     C30695  10.741  11.525   3.087 -0.1100 -0.6238 -1.0178
  948MOL0     C30696  10.846  11.572   3.198 -0.3729  0.0230 -0.3305
  948MOL0     C30697  10.943  11.446   3.228 -0.3818  0.4411 -0.7907
  948MOL0     C30698  10.893  11.359   3.341 -0.2855 -0.4057  0.3155
  948MOL0     C30699  10.992  11.263   3.402  0.1316  0.8238 -0.6583
  948MOL0     C30700  10.911  11.167   3.500 -1.6187 -0.2579 -0.3869
  948MOL0     C30701  11.009  11.068   3.569  0.6338  0.7157 -0.4966
  948MOL0     C30702  11.088  11.142   3.680  0.4378 -0.6568  0.3815
  948MOL0     N30703  11.186  11.059   3.749  1.0170 -0.4752  0.1245
  948MOL0     C30704  11.320  11.069   3.729 -0.6329  0.7137 -0.3631
  948MOL0     C30705  11.371  10.954   3.786 -0.9851  0.2295  0.1197
  948MOL0     C30706  11.517  10.919   3.783 -0.7752 -0.5332 -0.6645
  948MOL0     C30707  11.559  10.861   3.645 -0.1249 -0.2115 -0.3309
  948MOL0     C30708  11.464  10.742   3.602 -0.3633 -0.1996  0.9697
  948MOL0     C30709  11.464  10.617   3.685 -0.2308 -0.5352 -0.0884
  948MOL0     O30710  11.596  10.602   3.750  0.3241 -0.1221 -0.4018
  948MOL0     C30711  11.616  10.494   3.828 -0.4131 -0.0278 -1.1333
  948MOL0     C30712  11.525  10.399   3.873  0.3128 -0.4298  0.0267
  948MOL0     C30713  11.551  10.296   3.962  0.6171  0.7577  0.2148
  948MOL0     C30714  11.443  10.185   3.972  0.7107  0.0306 -0.4941
  948MOL0     C30715  11.684  10.284   4.019  0.4466 -0.5453  0.5921
  948MOL0     C30716  11.735  10.184   4.107 -0.4800  0.6884  0.1740
  948MOL0     O30717  11.855  10.126   4.071  0.3702  0.5413 -0.3452
  948MOL0     C30718  11.907  10.034   4.164 -1.0374  0.4003  0.7407
  948MOL0     C30719  11.889   9.898   4.136 -0.5283 -1.2437 -0.1267
  948MOL0     C30720  11.944   9.808   4.228  0.5019  0.4151 -0.4084
  948MOL0     C30721  12.023   9.849   4.337 -0.5234  0.2050 -0.3473
  948MOL0     O30722  12.072   9.772   4.439 -0.8161  0.8907 -0.0549
  948MOL0     C30723  12.064   9.629   4.421 -0.4338  0.6298 -0.4539
  948MOL0     C30724  12.127   9.562   4.538  0.1157  0.2183 -0.1420
  948MOL0     C30725  12.276   9.537   4.518  0.7222  1.2397 -0.2457
  948MOL0     C30726  12.354   9.668   4.505  0.6945  0.0227  0.5166
  948MOL0     C30727  12.505   9.651   4.519 -0.2912  0.7436 -0.2995
  948MOL0     C30728  12.602   9.772   4.511 -0.7451 -0.5238 -0.6826
  948MOL0     C30729  12.732   9.750   4.572 -0.1502 -0.4643  0.7713
  948MOL0     C30730  12.838   9.848   4.503 -0.2345  0.0707  0.1758
  948MOL0    Cl30731  12.884   9.788   4.334 -0.0862  0.0410  0.4523
  948MOL0     C30732  12.048   9.983   4.351 -0.0754  0.5741 -0.9812
  948MOL0     C30733  11.988  10.077   4.268  0.0251 -0.4613  0.1320
  948MOL0     O30734  11.656  10.150   4.197  0.2484 -0.1487 -0.2158
  948MOL0     C30735  11.768  10.386   3.981  0.1825 -0.3513 -0.2099
  948MOL0     C30736  11.741  10.483   3.889  0.3181  0.4095  1.1528
  948MOL0     N30737  11.267  10.878   3.831  0.4775 -0.4712  0.4302
  948MOL0     N30738  11.150  10.940   3.809  0.2659  0.1054 -0.0250
  948MOL0     C30739  10.499  11.549   2.933 -0.2176 -0.4795  0.2469
  948MOL0     C30740  10.375  11.522   2.879  0.2845 -0.4413 -0.3278
  948MOL0     C30741   9.967  11.371   2.781  0.1124  0.4937  0.3046
  948MOL0     C30742   9.934  11.310   2.659  1.0161 -0.1882  0.2352
  948MOL0     C30743   9.805  11.289   2.616 -1.0607  0.7014  0.0845
  948MOL0     C30744   9.699  11.343   2.688  0.5355 -0.3393 -0.3284
  948MOL0     O30745   9.571  11.353   2.661  0.6850 -0.4610  0.5184
  948MOL0     C30746   9.523  11.298   2.530 -0.0519  0.2841 -0.4350
  948MOL0     C30747   9.500  11.144   2.535 -0.6245 -0.6137 -0.5581
  948MOL0     C30748   9.460  11.106   2.388 -0.6143 -0.0913 -0.7824
  948MOL0     C30749   9.487  10.960   2.345 -0.2551 -0.3822 -0.0478
  948MOL0     C30750   9.626  10.917   2.339  0.6917 -0.4921 -0.3700
  948MOL0     C30751   9.736  10.875   2.319  1.1879  0.2165  0.1793
  948MOL0     C30752   9.720  11.409   2.811 -0.1494 -0.6289 -0.9657
  948MOL0     C30753   9.853  11.422   2.858 -0.2408  0.0253 -0.1407
  948MOL0     C30754   9.867  11.483   3.001 -0.4733 -0.3228  0.0234
  948MOL0     H30755  10.192  11.544   3.165  0.6711 -1.1271  0.7980
  948MOL0     H30756  10.408  11.623   3.251 -1.2029  2.0682  0.0198
  948MOL0     H30757  10.783  11.551   2.989  0.0836 -0.9476 -1.0191
  948MOL0     H30758  10.728  11.418   3.106  0.3449 -0.0521  4.0098
  948MOL0     H30759  10.902  11.658   3.161  3.3183 -1.2702  1.7792
  948MOL0     H30760  10.797  11.600   3.292 -0.0530 -0.7324  0.0735
  948MOL0     H30761  10.955  11.382   3.140  1.2515  1.5762 -1.4382
  948MOL0     H30762  11.045  11.479   3.249  0.2945 -1.7064 -0.4201
  948MOL0     H30763  10.867  11.434   3.417 -0.6294 -0.6431  0.4328
  948MOL0     H30764  10.807  11.308   3.299  0.8318 -0.7466 -1.7179
  948MOL0     H30765  11.070  11.320   3.453 -0.6304  0.6644  0.7361
  948MOL0     H30766  11.037  11.201   3.324  1.0230 -0.1169  0.5746
  948MOL0     H30767  10.835  11.227   3.551 -1.6719  2.0523 -2.9731
  948MOL0     H30768  10.863  11.104   3.424  2.7110 -1.9501 -2.0312
  948MOL0     H30769  11.072  11.018   3.495 -0.0087  2.1914 -2.0976
  948MOL0     H30770  10.954  10.984   3.614  0.1918  1.2825  0.0375
  948MOL0     H30771  11.129  11.234   3.637 -1.5351 -0.1113 -0.4117
  948MOL0     H30772  11.010  11.181   3.745 -0.7362  0.6683 -1.7255
  948MOL0     H30773  11.385  11.151   3.700  1.8364 -0.7729  0.5959
  948MOL0     H30774  11.543  10.861   3.872 -2.5304 -1.6981 -0.8540
  948MOL0     H30775  11.585  11.002   3.800 -0.0115 -0.8694 -1.9327
  948MOL0     H30776  11.548  10.944   3.575  0.1817 -0.1611 -0.3226
  948MOL0     H30777  11.663  10.827   3.640  0.0636  0.5816 -2.7690
  948MOL0     H30778  11.367  10.781   3.571 -0.2755 -0.7265  0.0076
  948MOL0     H30779  11.507  10.698   3.512  0.8337  0.2913  1.2821
  948MOL0     H30780  11.391  10.642   3.763 -0.0364  0.8373 -0.3379
  948MOL0     H30781  11.428  10.533   3.624 -0.7328  0.6236 -1.4179
  948MOL0     H30782  11.425  10.394   3.829  0.4854 -2.4651 -0.2383
  948MOL0     H30783  11.474  10.103   4.037 -1.7362 -0.3610  0.2995
  948MOL0     H30784  11.412  10.142   3.876 -0.0243 -0.4236 -0.0654
  948MOL0     H30785  11.349  10.234   4.000  0.9682  0.8424 -1.0068
  948MOL0     H30786  11.834   9.868   4.048 -0.4042 -1.6014 -0.0828
  948MOL0     H30787  11.930   9.701   4.221  1.3071  0.2620  0.1807
  948MOL0     H30788  11.958   9.601   4.412  0.1401 -1.0681 -2.4765
  948MOL0     H30789  12.120   9.597   4.333 -0.0624  2.3030 -0.8680
  948MOL0     H30790  12.114   9.606   4.637 -0.4333 -1.4725  0.5733
  948MOL0     H30791  12.081   9.464   4.549  0.3210 -0.0505 -1.5237
  948MOL0     H30792  12.287   9.495   4.418 -1.5204 -1.2884  0.4775
  948MOL0     H30793  12.320   9.465   4.588  0.4640  2.4649  1.2409
  948MOL0     H30794  12.318   9.747   4.573  2.2357  1.5572 -0.3823
  948MOL0     H30795  12.340   9.713   4.406  1.2360 -1.6362 -0.3431
  948MOL0     H30796  12.529   9.610   4.618  4.3880  1.0441 -1.0834
  948MOL0     H30797  12.532   9.578   4.442 -2.5430  0.0339 -0.4773
  948MOL0     H30798  12.548   9.852   4.561  0.3900 -0.7442  0.9478
  948MOL0     H30799  12.621   9.802   4.407 -3.2439 -0.0583 -1.0797
  948MOL0     H30800  12.755   9.644   4.556 -1.7108 -0.6122 -0.7679
  948MOL0     H30801  12.726   9.752   4.681 -0.3151  2.5000  0.7753
  948MOL0     H30802  12.929   9.861   4.562  0.2439 -0.7760 -0.3646
  948MOL0     H30803  12.796   9.948   4.487 -0.8965 -0.4455 -1.6866
  948MOL0     H30804  12.122  10.009   4.426  1.1889 -4.5853 -0.1094
  948MOL0     H30805  12.005  10.183   4.283  0.0889 -0.2781 -1.1417
  948MOL0     H30806  11.865  10.383   4.029 -0.1432 -2.0885  0.4535
  948MOL0     H30807  11.820  10.552   3.861 -0.1297  0.1239 -0.9577
  948MOL0     H30808  10.585  11.566   2.869 -0.2515 -0.6901  0.1448
  948MOL0     H30809  10.371  11.505   2.771 -1.1986 -0.3390 -0.3136
  948MOL0     H30810  10.016  11.274   2.597  0.2089 -0.4302 -0.7178
  948MOL0     H30811   9.790  11.235   2.524  0.7333 -0.0496  0.1941
  948MOL0     H30812   9.429  11.343   2.497 -0.5486 -1.3012 -1.3359
  948MOL0     H30813   9.600  11.316   2.455  2.5828 -0.2776  1.9694
  948MOL0     H30814   9.415  11.131   2.602  1.2882 -0.9432  1.9353
  948MOL0     H30815   9.585  11.083   2.569  1.4471  0.6442 -3.1322
  948MOL0     H30816   9.352  11.118   2.380 -0.9222 -0.1585  2.3576
  948MOL0     H30817   9.510  11.177   2.321  0.1840 -1.5994 -1.8597
  948MOL0     H30818   9.447  10.943   2.245  0.0582 -1.8924  0.0619
  948MOL0     H30819   9.435  10.892   2.413  0.2926 -1.7312 -0.9529
  948MOL0     H30820   9.823  10.813   2.305  0.3123 -0.9007 -0.5059
  948MOL0     H30821   9.639  11.445   2.873  0.1178 -1.0094 -0.3859
  948MOL0     H30822   9.767  11.499   3.040  0.3017 -0.4877  2.2117
  948MOL0     H30823   9.924  11.424   3.074 -1.7899  3.4858  4.6250
  948MOL0     H30824   9.924  11.576   2.992  1.1936 -1.2132  0.9254
  949MOL0     O30825   2.089   0.355   4.188  0.4659  0.9941 -0.1188
  949MOL0     C30826   2.050   0.257   4.257 -0.0159  0.3613 -0.9499
  949MOL0     O30827   2.125   0.178   4.345 -0.4887  0.1276  0.1333
  949MOL0     C30828   2.255   0.208   4.372  0.1606 -0.0664  0.5851
  949MOL0     C30829   2.284   0.267   4.498  0.0203 -0.6577  0.2426
  949MOL0     C30830   2.419   0.307   4.525  0.9221 -0.4922 -0.0514
  949MOL0     C30831   2.522   0.277   4.441  0.1106 -0.8898  0.2317
  949MOL0     O30832   2.642   0.335   4.464  0.0341 -0.0948 -0.0860
  949MOL0     C30833   2.709   0.312   4.587  0.1883 -0.1503  0.1098
  949MOL0     C30834   2.736   0.157   4.601  0.6206 -0.3249  0.4507
  949MOL0     C30835   2.843   0.117   4.712 -0.6485  0.3412  0.4048
  949MOL0     C30836   2.868  -0.030   4.720 -0.3263 -0.2688 -0.1615
  949MOL0     C30837   2.932  -0.077   4.857 -0.1930  0.6919 -0.1387
  949MOL0     C30838   2.965  -0.232   4.858 -0.1482  0.3140 -0.0600
  949MOL0     C30839   3.005  -0.263   5.006 -0.1182 -0.5750  0.3598
  949MOL0     C30840   3.136  -0.199   5.058  0.4765 -0.1702 -0.0970
  949MOL0     N30841   3.193  -0.267   5.173  0.0413  0.0665 -0.1678
  949MOL0     C30842   3.197  -0.227   5.307  0.7127 -0.4493  0.6251
  949MOL0     C30843   3.244  -0.334   5.371  0.1592 -0.1054  0.8814
  949MOL0     C30844   3.274  -0.345   5.518 -0.1356 -0.1589  0.0981
  949MOL0     C30845   3.431  -0.324   5.529 -0.2793  1.1232  0.5034
  949MOL0     C30846   3.519  -0.442   5.479 -0.0670  0.8766 -1.0396
  949MOL0     C30847   3.664  -0.396   5.495  0.5173 -0.5860  0.5203
  949MOL0     O30848   3.747  -0.508   5.504  0.3258 -0.1277 -0.2945
  949MOL0     C30849   3.875  -0.475   5.471  0.2883  0.0045 -0.6238
  949MOL0     C30850   3.924  -0.491   5.344  0.0461 -0.4266 -0.0357
  949MOL0     C30851   4.054  -0.447   5.314  0.4840  0.3014  0.3826
  949MOL0     C30852   4.099  -0.449   5.168  0.1301  0.1192 -0.6727
  949MOL0     C30853   4.137  -0.395   5.416  0.5916 -0.9913 -0.2089
  949MOL0     C30854   4.277  -0.359   5.396  0.1513  0.5071 -0.0145
  949MOL0     O30855   4.312  -0.255   5.478 -0.4269  0.0430  0.1125
  949MOL0     C30856   4.443  -0.220   5.481 -0.8210  0.1720  0.7339
  949MOL0     C30857   4.536  -0.305   5.536  0.5233 -0.5030  0.3247
  949MOL0     C30858   4.675  -0.256   5.558  1.1304 -0.0086  0.0467
  949MOL0     C30859   4.709  -0.128   5.520  0.1634 -0.3669 -0.1555
  949MOL0     O30860   4.834  -0.071   5.550  0.1557 -0.0276  0.3259
  949MOL0     C30861   4.954  -0.142   5.593  0.2301  0.6273  0.1321
  949MOL0     C30862   5.062  -0.043   5.593  0.2885 -0.1025 -0.2938
  949MOL0     C30863   5.079   0.008   5.448  0.1140  1.1015 -0.4815
  949MOL0     C30864   5.209   0.088   5.444 -0.0856 -0.0855 -0.6010
  949MOL0     C30865   5.333  -0.011   5.443  0.6791 -0.2360 -0.3849
  949MOL0     C30866   5.464   0.068   5.471  0.3083 -0.4795  0.1582
  949MOL0     C30867   5.491   0.163   5.353 -0.3113  0.6652  0.1507
  949MOL0     C30868   5.626   0.240   5.355  0.0628  0.7505 -0.3168
  949MOL0    Cl30869   5.655   0.298   5.514  0.0540 -0.4818 -0.1007
  949MOL0     C30870   4.612  -0.042   5.455 -0.7552  0.7065 -0.3651
  949MOL0     C30871   4.482  -0.089   5.434 -0.3243  0.4166 -0.8832
  949MOL0     O30872   4.349  -0.420   5.318  0.0806 -0.5216 -0.7688
  949MOL0     C30873   4.083  -0.379   5.545  0.3540  0.5893 -0.5490
  949MOL0     C30874   3.952  -0.431   5.576 -0.0288 -0.1099  0.3772
  949MOL0     N30875   3.243  -0.442   5.288  0.1555  0.1373 -0.0592
  949MOL0     N30876   3.215  -0.402   5.174 -0.1655 -0.4149  0.1916
  949MOL0     C30877   2.490   0.224   4.319  0.4833  0.3785  0.0525
  949MOL0     C30878   2.361   0.190   4.281 -0.2682  0.5235 -0.5953
  949MOL0     C30879   1.907   0.220   4.252  0.3679 -0.7747  0.9111
  949MOL0     C30880   1.846   0.166   4.369  0.2990  0.0938 -0.2205
  949MOL0     C30881   1.713   0.147   4.381 -0.3550  0.2670  0.3770
  949MOL0     C30882   1.628   0.166   4.270 -0.0119  0.5607 -0.5179
  949MOL0     O30883   1.498   0.127   4.302 -0.0037 -0.0092 -0.7033
  949MOL0     C30884   1.390   0.161   4.217 -1.2877  0.3524 -0.1375
  949MOL0     C30885   1.272   0.082   4.266 -0.3103  0.3589 -0.2894
  949MOL0     C30886   1.151   0.093   4.168 -0.3264 -0.8935  0.0565
  949MOL0     C30887   1.053  -0.026   4.195 -0.0289  0.4425  1.1174
  949MOL0     C30888   0.914   0.012   4.170 -0.4987  0.5751 -0.2791
  949MOL0     C30889   0.802   0.036   4.137 -0.0867  0.0816 -0.9704
  949MOL0     C30890   1.685   0.216   4.152  0.7289  0.0377 -0.7403
  949MOL0     C30891   1.819   0.250   4.137  0.9564  0.2032 -0.7108
  949MOL0     C30892   1.867   0.302   4.010  0.0387 -0.4834  0.8669
  949MOL0     H30893   2.211   0.304   4.569 -0.7515 -0.1549 -0.7849
  949MOL0     H30894   2.441   0.359   4.618  0.0879  0.3864 -0.3260
  949MOL0     H30895   2.646   0.350   4.668 -1.4070 -2.2799 -0.0408
  949MOL0     H30896   2.802   0.368   4.577 -0.8793  1.5449 -0.8996
  949MOL0     H30897   2.649   0.094   4.620  0.3084  0.0625  0.3075
  949MOL0     H30898   2.771   0.124   4.503  3.6315  1.2729  0.8512
  949MOL0     H30899   2.938   0.169   4.697  0.7932 -1.2773  3.0998
  949MOL0     H30900   2.806   0.154   4.808 -0.4668 -2.4672  1.6539
  949MOL0     H30901   2.771  -0.078   4.705  0.4000 -1.3148 -1.7080
  949MOL0     H30902   2.921  -0.055   4.627  1.0269  0.1745  0.4671
  949MOL0     H30903   2.852  -0.055   4.928 -0.3041  1.9103 -0.6245
  949MOL0     H30904   3.018  -0.016   4.888 -0.6395  0.1376  2.4133
  949MOL0     H30905   2.873  -0.289   4.840 -0.9749  2.3383 -3.1358
  949MOL0     H30906   3.033  -0.274   4.783 -1.8024 -0.5838 -1.1132
  949MOL0     H30907   3.031  -0.370   5.000 -0.0081 -0.5514  0.4204
  949MOL0     H30908   2.919  -0.252   5.073  0.3058  1.4257  0.6336
  949MOL0     H30909   3.213  -0.201   4.981 -1.1242  0.2004 -1.7621
  949MOL0     H30910   3.121  -0.095   5.089 -1.9751 -0.6279  0.4239
  949MOL0     H30911   3.177  -0.129   5.348 -1.1218 -0.0099 -1.1882
  949MOL0     H30912   3.252  -0.445   5.557  0.2857  0.0769  0.9498
  949MOL0     H30913   3.215  -0.275   5.578 -1.2176  1.7901 -2.9917
  949MOL0     H30914   3.463  -0.232   5.478  0.7432 -0.0734 -1.0909
  949MOL0     H30915   3.447  -0.313   5.636 -1.4918  0.6191  0.7568
  949MOL0     H30916   3.498  -0.538   5.526 -0.3119  1.8102  0.8303
  949MOL0     H30917   3.513  -0.450   5.370  1.9473  0.0418 -1.1241
  949MOL0     H30918   3.685  -0.315   5.424 -0.1226 -0.3491  0.5911
  949MOL0     H30919   3.684  -0.333   5.583 -2.1883  1.9749 -0.5064
  949MOL0     H30920   3.863  -0.520   5.259  0.2673 -0.0213 -0.3384
  949MOL0     H30921   4.023  -0.472   5.093  1.6336  0.0268 -2.2371
  949MOL0     H30922   4.172  -0.529   5.150 -1.2089 -1.0797 -0.9976
  949MOL0     H30923   4.151  -0.359   5.134 -0.8747  0.5588 -1.0821
  949MOL0     H30924   4.525  -0.408   5.567  1.9061 -1.2637 -1.4951
  949MOL0     H30925   4.743  -0.326   5.604 -0.7958 -1.1852  1.2339
  949MOL0     H30926   4.939  -0.189   5.691  1.7435 -1.4570 -0.5597
  949MOL0     H30927   4.972  -0.220   5.519 -1.3766  0.4484 -0.0972
  949MOL0     H30928   5.033   0.043   5.653  0.5045 -0.2205 -0.0205
  949MOL0     H30929   5.147  -0.091   5.642  0.7368  0.3778 -0.5897
  949MOL0     H30930   4.998   0.074   5.415  0.3561 -0.1484 -3.9036
  949MOL0     H30931   5.085  -0.074   5.376 -1.9954  0.1306  0.3467
  949MOL0     H30932   5.225   0.153   5.530 -1.7842  1.4344 -1.3641
  949MOL0     H30933   5.222   0.154   5.357 -3.3786 -0.2851 -1.3709
  949MOL0     H30934   5.319  -0.096   5.511  0.1066 -2.3772 -2.9923
  949MOL0     H30935   5.347  -0.063   5.347  0.1875 -1.5254  0.2159
  949MOL0     H30936   5.549  -0.001   5.480  0.9276  0.3560  0.9029
  949MOL0     H30937   5.451   0.127   5.562 -4.4242  1.2951 -1.3540
  949MOL0     H30938   5.416   0.242   5.346 -0.6718  0.2044 -1.9973
  949MOL0     H30939   5.474   0.113   5.257 -1.7100 -0.3501  0.8935
  949MOL0     H30940   5.618   0.324   5.286  1.6941  1.5722  0.4412
  949MOL0     H30941   5.702   0.178   5.305  1.0004  2.3266 -0.9225
  949MOL0     H30942   4.626   0.061   5.424 -0.5499  1.0220  0.7214
  949MOL0     H30943   4.420  -0.011   5.391 -2.2421  0.6191  1.9861
  949MOL0     H30944   4.137  -0.333   5.627 -2.1772 -1.8220  2.7492
  949MOL0     H30945   3.906  -0.413   5.673 -1.4039  0.6732 -0.3798
  949MOL0     H30946   2.573   0.203   4.252  1.3568  2.6316  0.3396
  949MOL0     H30947   2.345   0.158   4.179 -0.2183  0.0370 -0.4557
  949MOL0     H30948   1.907   0.139   4.455 -2.5139 -1.7827  1.3436
  949MOL0     H30949   1.672   0.121   4.478  1.6427  3.9134  2.3673
  949MOL0     H30950   1.372   0.267   4.236  1.8417  0.8471  0.5977
  949MOL0     H30951   1.415   0.124   4.117  1.8680 -0.0218  0.6654
  949MOL0     H30952   1.249   0.127   4.363 -0.9732  2.0826 -1.1860
  949MOL0     H30953   1.301  -0.022   4.276  0.3786  0.4830 -0.9331
  949MOL0     H30954   1.097   0.188   4.173  1.9022  0.4697 -0.4156
  949MOL0     H30955   1.188   0.095   4.065  0.7541  4.7727  0.2553
  949MOL0     H30956   1.057  -0.058   4.300  0.2697  0.5254  1.1349
  949MOL0     H30957   1.082  -0.107   4.128 -1.0420  1.5630 -0.7594
  949MOL0     H30958   0.702   0.045   4.099 -0.7756 -1.3471  0.3930
  949MOL0     H30959   1.622   0.217   4.064  1.6813 -0.8913 -1.4623
  949MOL0     H30960   1.952   0.243   3.974  0.0066  1.1852 -2.3830
  949MOL0     H30961   1.798   0.295   3.925  0.9682 -1.6962  0.1771
  949MOL0     H30962   1.892   0.408   4.025 -1.9879 -0.2130  2.7919
  950MOL0     O30963   8.781   0.639   0.442  0.0162  0.5695 -0.4736
  950MOL0     C30964   8.672   0.595   0.410  0.1930 -0.1921  0.3356
  950MOL0     O30965   8.640   0.568   0.284  0.5339  0.3553  0.3438
  950MOL0     C30966   8.732   0.561   0.184 -0.0174 -0.4212 -0.5725
  950MOL0     C30967   8.678   0.533   0.062  0.6924 -0.9273 -0.4542
  950MOL0     C30968   8.757   0.522  -0.049 -0.2431  0.5761  0.0186
  950MOL0     C30969   8.890   0.563  -0.052  0.2907  0.7064 -0.5302
  950MOL0     O30970   8.982   0.552  -0.156  0.1746 -0.0313  0.1538
  950MOL0     C30971   8.940   0.474  -0.270  0.3225 -0.0638  0.0006
  950MOL0     C30972   9.069   0.446  -0.343 -0.2405 -0.0628 -0.2714
  950MOL0     C30973   9.171   0.556  -0.361 -1.1670 -0.1616 -0.2282
  950MOL0     C30974   9.300   0.506  -0.429  0.2305  0.3598 -0.9497
  950MOL0     C30975   9.373   0.628  -0.510 -0.2505  0.4971  0.0905
  950MOL0     C30976   9.496   0.581  -0.589  0.5813  0.3663 -0.4962
  950MOL0     C30977   9.517   0.651  -0.725 -0.2897 -0.5724  0.2172
  950MOL0     C30978   9.629   0.597  -0.816  0.0886  0.0102 -0.4614
  950MOL0     N30979   9.644   0.669  -0.940  0.4126 -0.0566 -0.3458
  950MOL0     C30980   9.739   0.769  -0.968  0.5852  0.0754 -0.7331
  950MOL0     C30981   9.716   0.807  -1.096  0.4054  1.3005  1.2614
  950MOL0     C30982   9.769   0.923  -1.181 -0.8703 -0.3590  0.0967
  950MOL0     C30983   9.685   1.046  -1.176 -0.7561 -0.4084 -0.5088
  950MOL0     C30984   9.537   1.034  -1.220 -0.6063 -0.3612 -0.5701
  950MOL0     C30985   9.525   0.976  -1.356  0.6401 -0.1509  0.1819
  950MOL0     O30986   9.615   1.049  -1.439  0.1686 -0.2911  0.3717
  950MOL0     C30987   9.643   1.007  -1.572 -0.3872 -0.0558 -0.0483
  950MOL0     C30988   9.567   0.908  -1.633 -0.0548 -0.5049  0.5632
  950MOL0     C30989   9.590   0.868  -1.768 -0.3122  0.9813 -0.0519
  950MOL0     C30990   9.497   0.761  -1.821 -0.2810 -0.3422 -0.1103
  950MOL0     C30991   9.709   0.920  -1.843 -0.0923 -0.6150 -0.2414
  950MOL0     C30992   9.750   0.879  -1.983 -0.2674  0.7417  0.1043
  950MOL0     O30993   9.849   0.953  -2.040  0.2981  0.1085 -0.5728
  950MOL0     C30994   9.874   0.937  -2.167  0.1516  0.1719 -0.4345
  950MOL0     C30995  10.001   0.899  -2.207  0.0146  0.9477  0.2327
  950MOL0     C30996  10.030   0.889  -2.341  0.4941 -1.3795  1.0028
  950MOL0     C30997   9.936   0.924  -2.441 -0.5747  0.8180 -0.7793
  950MOL0     O30998   9.985   0.920  -2.569 -0.6772 -0.3512 -0.3370
  950MOL0     C30999   9.889   0.907  -2.674  0.3212  0.4415 -0.9655
  950MOL0     C31000   9.966   0.815  -2.771 -0.1904  0.0250 -0.0828
  950MOL0     C31001  10.106   0.865  -2.800  0.1558 -0.5404  0.1845
  950MOL0     C31002  10.185   0.793  -2.914  1.2375 -0.6817  0.6176
  950MOL0     C31003  10.331   0.826  -2.905 -0.2518  0.0611 -0.8736
  950MOL0     C31004  10.404   0.765  -3.024  0.5891 -0.8060 -0.0264
  950MOL0     C31005  10.554   0.789  -3.025  0.6118  0.2139 -0.3635
  950MOL0     C31006  10.632   0.731  -2.918 -0.7915 -0.1050  0.5592
  950MOL0    Cl31007  10.706   0.855  -2.808  0.3046 -0.8085 -0.1885
  950MOL0     C31008   9.804   0.954  -2.398 -0.9901  0.5055  0.9279
  950MOL0     C31009   9.774   0.956  -2.263  0.0674  0.1303 -0.4376
  950MOL0     O31010   9.711   0.770  -2.029  0.0579  0.6721 -0.2899
  950MOL0     C31011   9.779   1.022  -1.773 -0.1151  0.2980  0.1478
  950MOL0     C31012   9.752   1.068  -1.643 -0.1790  1.0391  0.4235
  950MOL0     N31013   9.604   0.731  -1.132 -0.7704  0.3893  0.2326
  950MOL0     N31014   9.570   0.646  -1.040  0.6105 -0.2110  1.1140
  950MOL0     C31015   8.945   0.592   0.066  0.1006 -0.3630 -0.4348
  950MOL0     C31016   8.868   0.589   0.181  0.5284  0.6109 -0.5092
  950MOL0     C31017   8.565   0.567   0.512  0.1055 -0.0365  0.2686
  950MOL0     C31018   8.475   0.455   0.483 -0.2579 -0.0620  0.0358
  950MOL0     C31019   8.373   0.433   0.570 -0.3579  0.1427 -0.7143
  950MOL0     C31020   8.344   0.526   0.666  0.2167  0.0623 -0.6574
  950MOL0     O31021   8.234   0.508   0.730  0.9990  0.2072 -0.0602
  950MOL0     C31022   8.157   0.619   0.771 -0.3410  0.2163  0.1447
  950MOL0     C31023   8.004   0.588   0.793 -1.2935  0.1612  0.5982
  950MOL0     C31024   7.934   0.729   0.784 -0.6267 -0.0476  0.1418
  950MOL0     C31025   7.808   0.741   0.858  1.3791  0.9664  0.4817
  950MOL0     C31026   7.746   0.871   0.853  0.6419 -0.0448 -0.3263
  950MOL0     C31027   7.684   0.979   0.862  0.2128 -0.5962  0.3474
  950MOL0     C31028   8.433   0.628   0.700 -0.0702 -0.2510  0.1773
  950MOL0     C31029   8.546   0.651   0.625  0.8872  0.4321  0.1120
  950MOL0     C31030   8.637   0.769   0.662  0.4748 -0.7775 -0.2230
  950MOL0     H31031   8.570   0.518   0.058  0.5328 -0.6200  1.4092
  950MOL0     H31032   8.707   0.487  -0.139 -0.0180  0.4325 -0.0512
  950MOL0     H31033   8.873   0.523  -0.343 -2.0744 -0.6321  1.6934
  950MOL0     H31034   8.897   0.382  -0.231 -0.4978  0.7652  1.1265
  950MOL0     H31035   9.116   0.374  -0.276 -1.7673  0.5079  1.4757
  950MOL0     H31036   9.055   0.396  -0.439  1.7858 -0.7623 -0.2619
  950MOL0     H31037   9.135   0.640  -0.421  1.7355 -0.3007 -2.4018
  950MOL0     H31038   9.196   0.606  -0.267  0.3846  1.3575 -1.3761
  950MOL0     H31039   9.370   0.476  -0.351  2.1004  2.8942 -1.5350
  950MOL0     H31040   9.299   0.420  -0.498  2.8386  0.3925 -1.1489
  950MOL0     H31041   9.391   0.718  -0.450  1.9119 -0.3354  0.8076
  950MOL0     H31042   9.299   0.648  -0.588  0.0335 -3.8473 -1.5999
  950MOL0     H31043   9.580   0.601  -0.522 -0.4502 -0.4198  1.1044
  950MOL0     H31044   9.502   0.472  -0.600 -2.3331  0.1799 -1.1195
  950MOL0     H31045   9.528   0.757  -0.699  1.1098 -0.1355 -1.8821
  950MOL0     H31046   9.429   0.650  -0.790 -0.0276 -0.4489 -0.1460
  950MOL0     H31047   9.721   0.596  -0.757 -1.4469 -0.1395  2.0662
  950MOL0     H31048   9.610   0.490  -0.831  1.2947  0.0201 -2.4162
  950MOL0     H31049   9.826   0.798  -0.911 -0.4293  1.1905  0.3218
  950MOL0     H31050   9.779   0.895  -1.286  0.1826  0.1645  0.0526
  950MOL0     H31051   9.871   0.943  -1.147 -1.3673 -0.6425  1.8422
  950MOL0     H31052   9.686   1.088  -1.075  1.4033  2.6497 -1.6367
  950MOL0     H31053   9.727   1.127  -1.237  2.9670 -1.5164  0.3535
  950MOL0     H31054   9.475   0.983  -1.145  1.9109 -1.2878  0.9811
  950MOL0     H31055   9.504   1.138  -1.225  1.8066  0.4100 -3.2316
  950MOL0     H31056   9.560   0.872  -1.356  0.0503 -0.3663  1.3397
  950MOL0     H31057   9.421   0.975  -1.390  0.4948 -2.4687  0.5225
  950MOL0     H31058   9.485   0.865  -1.576 -3.6658  1.4759 -2.6854
  950MOL0     H31059   9.504   0.678  -1.750 -1.0157 -0.0848  0.2776
  950MOL0     H31060   9.502   0.733  -1.927  0.2466 -2.0671  0.3367
  950MOL0     H31061   9.396   0.803  -1.810  0.5619  1.2530  2.4328
  950MOL0     H31062  10.075   0.876  -2.131 -1.1828 -5.6533 -0.0389
  950MOL0     H31063  10.131   0.863  -2.372  0.9915  0.0244  1.3325
  950MOL0     H31064   9.798   0.852  -2.646  1.9146 -2.7916 -1.7032
  950MOL0     H31065   9.863   0.995  -2.733 -0.8259  0.9591  0.2567
  950MOL0     H31066   9.978   0.716  -2.726  2.2161  0.3432  0.1329
  950MOL0     H31067   9.927   0.819  -2.873  1.7415  1.0031 -0.8221
  950MOL0     H31068  10.168   0.857  -2.710  1.5292 -0.3695 -0.7080
  950MOL0     H31069  10.109   0.970  -2.830  2.6962  0.7591  4.1365
  950MOL0     H31070  10.146   0.835  -3.007  3.1019 -0.4271 -0.1043
  950MOL0     H31071  10.169   0.685  -2.910 -2.2819 -0.3754 -1.5729
  950MOL0     H31072  10.367   0.929  -2.896  2.8924 -1.0956  1.8355
  950MOL0     H31073  10.371   0.783  -2.813 -0.3529 -1.2458 -1.4243
  950MOL0     H31074  10.350   0.788  -3.117  0.1707 -1.7543 -0.0307
  950MOL0     H31075  10.385   0.657  -3.018  0.2319 -0.8043 -0.8462
  950MOL0     H31076  10.567   0.897  -3.036 -0.8939  0.4842  0.2064
  950MOL0     H31077  10.576   0.735  -3.118 -3.0441  0.2153 -1.4139
  950MOL0     H31078  10.715   0.676  -2.965 -1.3027 -0.3109 -0.1116
  950MOL0     H31079  10.570   0.674  -2.849 -0.0666  0.5997  1.8408
  950MOL0     H31080   9.726   0.986  -2.468 -0.7313  1.9545  1.2588
  950MOL0     H31081   9.675   0.987  -2.233  0.5631  1.1895  0.1819
  950MOL0     H31082   9.868   1.070  -1.811 -0.0630  1.1395  1.2739
  950MOL0     H31083   9.821   1.146  -1.614  0.1674  2.1932 -3.0634
  950MOL0     H31084   9.050   0.617   0.072  0.1096 -0.4726 -0.1239
  950MOL0     H31085   8.923   0.619   0.269 -1.0094  0.5290  0.5250
  950MOL0     H31086   8.505   0.390   0.402  0.5823  1.6721 -1.1035
  950MOL0     H31087   8.305   0.349   0.561 -0.5652  0.1586  0.5120
  950MOL0     H31088   8.192   0.673   0.859 -0.0125  0.2521 -0.0080
  950MOL0     H31089   8.166   0.684   0.683 -1.7619 -0.7891 -0.7941
  950MOL0     H31090   7.984   0.535   0.886  0.7920 -1.2679  0.2898
  950MOL0     H31091   7.967   0.535   0.704  1.0018  1.6411 -1.3728
  950MOL0     H31092   8.002   0.807   0.819 -1.1413  0.0705  0.8892
  950MOL0     H31093   7.918   0.735   0.676 -2.2844 -0.4241  0.3413
  950MOL0     H31094   7.828   0.723   0.964  2.5111  0.0066  0.1212
  950MOL0     H31095   7.741   0.665   0.815  1.1036  1.5929 -0.2289
  950MOL0     H31096   7.646   1.079   0.872  0.8153 -0.0186 -2.4164
  950MOL0     H31097   8.419   0.695   0.784  4.3312 -0.1568  1.0623
  950MOL0     H31098   8.614   0.804   0.763  0.1480  0.1520 -0.6101
  950MOL0     H31099   8.744   0.746   0.658  0.7777  0.0267  2.0307
  950MOL0     H31100   8.623   0.860   0.603  1.7256  0.3907  1.2103
  951MOL0     O31101   0.763  10.220   8.662  0.0281 -0.2542  0.4145
  951MOL0     C31102   0.740  10.301   8.752  0.6287  0.9621  0.2089
  951MOL0     O31103   0.823  10.393   8.791  0.6900 -0.1274 -1.1212
  951MOL0     C31104   0.954  10.378   8.746  0.4330  1.0159  1.2838
  951MOL0     C31105   1.050  10.311   8.828  1.2547 -1.0041 -0.2182
  951MOL0     C31106   1.175  10.294   8.781  0.7824 -0.3778 -0.6100
  951MOL0     C31107   1.218  10.344   8.666 -0.8736 -0.0248 -0.0522
  951MOL0     O31108   1.343  10.325   8.613 -0.8132  0.4849  0.7923
  951MOL0     C31109   1.425  10.439   8.619 -0.6543 -0.1195  0.3662
  951MOL0     C31110   1.392  10.549   8.516 -0.2241  0.1830 -0.1015
  951MOL0     C31111   1.525  10.630   8.484 -0.2715 -0.2432 -0.0521
  951MOL0     C31112   1.554  10.640   8.334  0.4607 -0.4726  0.4238
  951MOL0     C31113   1.699  10.655   8.294  0.1902 -0.6634 -0.1797
  951MOL0     C31114   1.715  10.744   8.175 -0.4978  0.0072  1.0102
  951MOL0     C31115   1.864  10.773   8.152 -0.5232  0.6966 -0.0123
  951MOL0     C31116   1.920  10.859   8.260  0.3549  0.7182 -0.0130
  951MOL0     N31117   2.045  10.915   8.218  0.4616  0.0799 -0.2415
  951MOL0     C31118   2.161  10.848   8.197  0.0917  0.6828  0.6791
  951MOL0     C31119   2.255  10.934   8.209 -0.7053  0.2871 -0.3594
  951MOL0     C31120   2.408  10.910   8.213 -0.6190  0.0692  0.8205
  951MOL0     C31121   2.425  10.779   8.290  0.8556 -0.6893  0.1317
  951MOL0     C31122   2.573  10.752   8.337 -0.5014 -0.0724  0.1997
  951MOL0     C31123   2.562  10.663   8.465  0.1452  0.3386 -0.9304
  951MOL0     O31124   2.505  10.532   8.444 -0.1744 -0.6360 -0.7477
  951MOL0     C31125   2.595  10.433   8.406  0.3224  0.2456 -0.1705
  951MOL0     C31126   2.556  10.301   8.413  0.9122  0.6559  0.6332
  951MOL0     C31127   2.641  10.196   8.372 -0.0178 -0.9579 -0.2056
  951MOL0     C31128   2.588  10.052   8.372  0.3513 -0.1725 -0.4715
  951MOL0     C31129   2.773  10.226   8.330  0.1767  0.3807 -0.7468
  951MOL0     C31130   2.859  10.127   8.272 -0.5990  0.1306  0.1080
  951MOL0     O31131   2.806  10.034   8.189 -0.4797 -0.0909  0.0234
  951MOL0     C31132   2.886   9.930   8.161  0.0684  0.2576  0.5759
  951MOL0     C31133   2.852   9.795   8.196 -0.5249 -0.2608 -0.7532
  951MOL0     C31134   2.945   9.687   8.183  0.5871  0.7169  0.0461
  951MOL0     C31135   3.072   9.708   8.132 -1.0400  0.3343 -0.2280
  951MOL0     O31136   3.168   9.613   8.111 -0.6630  0.0961  0.0732
  951MOL0     C31137   3.134   9.475   8.116 -0.1451 -0.6583 -0.0251
  951MOL0     C31138   3.261   9.398   8.080  0.8594  0.6845  0.3047
  951MOL0     C31139   3.363   9.410   8.199  0.2268 -0.1433 -0.2428
  951MOL0     C31140   3.461   9.290   8.201  0.3224  0.1414  0.0049
  951MOL0     C31141   3.549   9.315   8.327 -0.5696  0.1132  0.1223
  951MOL0     C31142   3.697   9.270   8.311  0.3334  0.1821 -1.0209
  951MOL0     C31143   3.765   9.264   8.446 -0.1126  0.4264 -0.8351
  951MOL0     C31144   3.913   9.245   8.444 -0.7109 -0.5043 -0.2983
  951MOL0    Cl31145   3.947   9.078   8.383  0.3315  0.3330 -0.0353
  951MOL0     C31146   3.095   9.840   8.078 -0.2780  0.3531 -1.5940
  951MOL0     C31147   3.010   9.948   8.090  0.1379 -0.3428 -0.5176
  951MOL0     O31148   2.973  10.124   8.322  0.4548 -0.2725  0.6386
  951MOL0     C31149   2.815  10.353   8.341  0.3479  0.0514  0.5995
  951MOL0     C31150   2.730  10.454   8.374  0.2441 -0.2074  0.4202
  951MOL0     N31151   2.207  11.058   8.233 -0.1669 -0.3845 -0.0730
  951MOL0     N31152   2.077  11.046   8.233  0.1242  1.1865 -0.7139
  951MOL0     C31153   1.128  10.412   8.582  0.1382  0.6994  0.8596
  951MOL0     C31154   0.996  10.430   8.623  0.3889 -0.2682  0.0684
  951MOL0     C31155   0.607  10.288   8.822  0.3645 -0.3003  0.2537
  951MOL0     C31156   0.587  10.349   8.946 -0.8217  0.5310  0.0518
  951MOL0     C31157   0.462  10.354   9.013  0.4213  0.2249 -0.3815
  951MOL0     C31158   0.345  10.291   8.960  0.0230 -0.7163 -0.3050
  951MOL0     O31159   0.224  10.283   9.020 -0.3004  0.7044  0.7628
  951MOL0     C31160   0.193  10.346   9.150  0.6628  0.0694 -0.3148
  951MOL0     C31161   0.149  10.489   9.154 -0.5061 -0.0808  0.4434
  951MOL0     C31162   0.015  10.510   9.240  0.2321 -0.2045  0.1631
  951MOL0     C31163   0.012  10.669   9.258  0.0150  1.0262 -0.3555
  951MOL0     C31164  -0.111  10.682   9.331  0.6197 -0.5689  0.0508
  951MOL0     C31165  -0.223  10.682   9.386  0.2730  0.8874  0.1879
  951MOL0     C31166   0.364  10.220   8.837  0.8455 -0.8545 -0.2138
  951MOL0     C31167   0.484  10.232   8.769  0.0432  0.0596  0.0246
  951MOL0     C31168   0.487  10.166   8.632  0.2287  0.4089  1.1017
  951MOL0     H31169   1.027  10.277   8.928 -4.0110  2.3229  0.0403
  951MOL0     H31170   1.248  10.238   8.838  0.5543  0.2294  0.2801
  951MOL0     H31171   1.531  10.413   8.610  0.1489  2.2300  1.9709
  951MOL0     H31172   1.425  10.491   8.716  1.1174  1.8943 -0.6211
  951MOL0     H31173   1.350  10.502   8.427  0.7548 -1.4072  0.2499
  951MOL0     H31174   1.312  10.619   8.543 -1.7748 -2.0228  1.2995
  951MOL0     H31175   1.521  10.736   8.514  2.7853 -0.3321  1.0283
  951MOL0     H31176   1.607  10.594   8.547  0.9134  3.5193  0.8379
  951MOL0     H31177   1.521  10.548   8.285  1.9595 -0.8674  0.0981
  951MOL0     H31178   1.505  10.725   8.286  2.5010  0.3749 -0.2646
  951MOL0     H31179   1.760  10.567   8.274  2.7599  0.7440  1.0116
  951MOL0     H31180   1.737  10.714   8.378 -1.6715  0.0796  0.2072
  951MOL0     H31181   1.678  10.697   8.084  1.3439  0.2326  0.0897
  951MOL0     H31182   1.654  10.834   8.191 -0.2791  0.8244 -2.0789
  951MOL0     H31183   1.875  10.826   8.057  1.0355  2.5138  1.1091
  951MOL0     H31184   1.926  10.683   8.147  0.5321  1.2273  2.0801
  951MOL0     H31185   1.854  10.940   8.292  0.6592  0.8920  0.1857
  951MOL0     H31186   1.944  10.795   8.346  0.7249  2.3687  1.1648
  951MOL0     H31187   2.167  10.740   8.186  2.2438  0.6583  1.5303
  951MOL0     H31188   2.457  10.998   8.255 -0.6330  1.3961 -1.7835
  951MOL0     H31189   2.443  10.888   8.112  1.5482 -1.7292  1.8724
  951MOL0     H31190   2.352  10.784   8.372  0.3736  1.1349 -0.3554
  951MOL0     H31191   2.394  10.703   8.218 -0.9957  0.6217 -0.5361
  951MOL0     H31192   2.633  10.693   8.267 -0.5144 -0.4303  0.4884
  951MOL0     H31193   2.623  10.848   8.352 -3.3462  1.9585 -1.9815
  951MOL0     H31194   2.663  10.656   8.505  0.0007 -0.2522 -0.6636
  951MOL0     H31195   2.496  10.724   8.528  0.9588  1.7506 -1.4012
  951MOL0     H31196   2.455  10.269   8.438  0.4441  2.2026  0.8489
  951MOL0     H31197   2.662   9.988   8.420  0.3904  0.3762  0.2135
  951MOL0     H31198   2.568  10.014   8.272  0.5361  1.5556 -1.2064
  951MOL0     H31199   2.492  10.043   8.424  0.4301  1.0280 -0.0866
  951MOL0     H31200   2.751   9.771   8.229  0.1163 -2.5392 -0.2706
  951MOL0     H31201   2.910   9.594   8.227 -1.6978  1.9524  1.0443
  951MOL0     H31202   3.102   9.446   8.216 -1.9362  0.2121 -0.3057
  951MOL0     H31203   3.062   9.448   8.038  0.8092 -0.3784 -1.0352
  951MOL0     H31204   3.236   9.294   8.055 -1.0065  1.4055 -1.0620
  951MOL0     H31205   3.316   9.432   7.991  2.3669 -0.6866  0.6693
  951MOL0     H31206   3.321   9.419   8.300  0.2917  1.3533 -0.3357
  951MOL0     H31207   3.425   9.496   8.175  1.5982 -1.4575 -1.6741
  951MOL0     H31208   3.519   9.293   8.109  3.7026  1.0788  1.9896
  951MOL0     H31209   3.416   9.190   8.196  0.4925 -0.0113  1.1686
  951MOL0     H31210   3.539   9.419   8.360 -2.2850 -0.5761  1.9675
  951MOL0     H31211   3.500   9.263   8.409 -2.8036  0.0976 -1.1525
  951MOL0     H31212   3.754   9.339   8.248  1.3041  0.0743 -0.2859
  951MOL0     H31213   3.699   9.170   8.265 -0.0031  0.9945 -2.8949
  951MOL0     H31214   3.714   9.186   8.504 -0.3871  2.7260  2.3066
  951MOL0     H31215   3.745   9.358   8.500 -1.8545 -1.5180  2.2365
  951MOL0     H31216   3.946   9.238   8.548 -1.8159 -0.7068  0.0597
  951MOL0     H31217   3.951   9.323   8.379 -2.7926 -0.7369 -1.9079
  951MOL0     H31218   3.193   9.866   8.038  0.4883 -0.1671 -0.1330
  951MOL0     H31219   3.040  10.043   8.046 -0.2072 -0.6972 -1.5631
  951MOL0     H31220   2.923  10.361   8.329  0.5464  2.0122  2.8507
  951MOL0     H31221   2.765  10.557   8.372  1.5261 -0.6246  0.4932
  951MOL0     H31222   1.150  10.453   8.483 -1.2470 -0.8280 -0.1282
  951MOL0     H31223   0.921  10.472   8.556 -0.0094  0.6521  1.0444
  951MOL0     H31224   0.669  10.400   8.997 -1.9207 -0.5194  3.1139
  951MOL0     H31225   0.465  10.403   9.109  3.8441 -0.2001 -0.1161
  951MOL0     H31226   0.108  10.289   9.192  0.7550 -0.4786 -0.8610
  951MOL0     H31227   0.278  10.338   9.218  1.4499  1.2956 -1.1343
  951MOL0     H31228   0.132  10.517   9.049  1.2139  0.2777  0.2358
  951MOL0     H31229   0.227  10.543   9.207 -0.4058 -1.3082  1.5707
  951MOL0     H31230  -0.067  10.470   9.178  0.6052 -0.0892 -0.4166
  951MOL0     H31231   0.019  10.452   9.333  1.4007  1.3805  1.1367
  951MOL0     H31232  -0.009  10.711   9.159 -0.1428 -1.5299 -1.4624
  951MOL0     H31233   0.102  10.707   9.308  0.3586 -0.3888  0.1484
  951MOL0     H31234  -0.318  10.687   9.435  2.1585 -0.0675  4.4790
  951MOL0     H31235   0.272  10.183   8.793 -0.2305  0.0885  1.1627
  951MOL0     H31236   0.532  10.067   8.647  0.1203  0.5312  2.2849
  951MOL0     H31237   0.392  10.155   8.579  3.0160  1.9798 -5.1614
  951MOL0     H31238   0.546  10.234   8.569 -1.3965  2.9204  2.1559
  952MOL0     O31239   7.756   3.255   1.709 -0.5167 -0.2247 -0.5583
  952MOL0     C31240   7.773   3.357   1.777 -0.0568  0.8641  0.6384
  952MOL0     O31241   7.894   3.416   1.804  0.0704 -0.3431  0.2713
  952MOL0     C31242   8.011   3.392   1.735 -0.1062 -0.2356 -0.2712
  952MOL0     C31243   8.058   3.265   1.700  0.1308  0.0358 -0.1678
  952MOL0     C31244   8.181   3.243   1.650 -0.0136 -0.0491  0.0335
  952MOL0     C31245   8.278   3.350   1.629 -0.0002 -0.0566 -1.2031
  952MOL0     O31246   8.409   3.344   1.590 -0.0091 -0.3681 -0.1096
  952MOL0     C31247   8.459   3.216   1.573  0.1586 -0.5751  0.2198
  952MOL0     C31248   8.569   3.231   1.466 -1.2894 -0.9688  0.8726
  952MOL0     C31249   8.673   3.341   1.526  0.2126  0.0354  0.0510
  952MOL0     C31250   8.711   3.447   1.420  0.7691 -0.3337 -0.4733
  952MOL0     C31251   8.785   3.576   1.456 -0.8049  0.1668 -0.3154
  952MOL0     C31252   8.722   3.663   1.570  0.3836 -0.3218  1.0591
  952MOL0     C31253   8.572   3.699   1.548 -0.5277 -0.2144 -0.0572
  952MOL0     C31254   8.561   3.811   1.451  0.3185 -0.2242  0.2960
  952MOL0     N31255   8.622   3.929   1.507  0.7735 -0.7261 -0.1043
  952MOL0     C31256   8.754   3.967   1.486 -0.0373  0.2992 -0.5250
  952MOL0     C31257   8.758   4.086   1.550  0.0393  0.5151 -1.2418
  952MOL0     C31258   8.874   4.184   1.579 -0.0343  1.0730 -0.2305
  952MOL0     C31259   8.850   4.316   1.494 -0.1098  0.4084 -0.1468
  952MOL0     C31260   8.959   4.411   1.519 -0.3133  0.1041 -0.1917
  952MOL0     C31261   9.073   4.382   1.416  0.0046  0.0034  0.6308
  952MOL0     O31262   9.183   4.479   1.416  0.3321  0.5244 -0.5982
  952MOL0     C31263   9.292   4.447   1.330 -0.0012  0.2950 -1.2046
  952MOL0     C31264   9.282   4.357   1.230  0.8410 -0.1056  0.4459
  952MOL0     C31265   9.402   4.326   1.152  0.2084  0.3975 -0.0218
  952MOL0     C31266   9.393   4.216   1.043 -0.3870 -0.0658 -0.3825
  952MOL0     C31267   9.529   4.396   1.172 -0.5006 -0.8746  0.5417
  952MOL0     C31268   9.658   4.356   1.110  0.0215 -0.0246  0.9494
  952MOL0     O31269   9.770   4.441   1.118  0.5525  0.4343  0.6842
  952MOL0     C31270   9.888   4.407   1.078 -0.8638  0.9608 -0.2274
  952MOL0     C31271   9.960   4.296   1.118  0.7477  0.2889 -0.3586
  952MOL0     C31272  10.077   4.247   1.053 -0.3737 -0.5858 -0.1430
  952MOL0     C31273  10.132   4.314   0.948  0.1200  0.2597 -0.7758
  952MOL0     O31274  10.242   4.273   0.876  0.3891  0.3277  0.0123
  952MOL0     C31275  10.268   4.127   0.892  0.2096 -0.8048 -0.2917
  952MOL0     C31276  10.394   4.100   0.817 -0.1603 -0.0686  0.3935
  952MOL0     C31277  10.392   4.081   0.672  0.2696  0.2600  1.1065
  952MOL0     C31278  10.520   4.007   0.603  0.1374 -0.1261 -0.7715
  952MOL0     C31279  10.484   3.975   0.455  0.2414  0.5701  0.4048
  952MOL0     C31280  10.601   3.886   0.410  0.2120  0.2566 -0.0017
  952MOL0     C31281  10.612   3.869   0.257 -0.1853 -0.3270  0.0082
  952MOL0     C31282  10.736   3.793   0.202 -0.8492 -0.1107 -0.2607
  952MOL0    Cl31283  10.878   3.878   0.253 -0.1143 -0.1456  0.2529
  952MOL0     C31284  10.060   4.425   0.907 -0.1024 -0.6452 -0.3271
  952MOL0     C31285   9.947   4.476   0.976  0.1988 -0.3081 -0.6164
  952MOL0     O31286   9.658   4.257   1.037  0.7071  0.0002 -0.1528
  952MOL0     C31287   9.528   4.493   1.275  0.3462 -0.3124  0.3384
  952MOL0     C31288   9.415   4.512   1.352 -0.0910 -0.1890  0.3302
  952MOL0     N31289   8.635   4.121   1.596  0.6259  0.6060 -0.5878
  952MOL0     N31290   8.553   4.023   1.586  0.5153  0.6543 -0.1045
  952MOL0     C31291   8.233   3.474   1.678 -0.8052 -0.1365 -0.1960
  952MOL0     C31292   8.102   3.494   1.726 -0.1586 -0.3166  0.0534
  952MOL0     C31293   7.652   3.426   1.841 -0.2234  0.5507 -0.7296
  952MOL0     C31294   7.677   3.554   1.904 -0.0269  0.5211  0.6889
  952MOL0     C31295   7.572   3.622   1.957  1.4114  0.1870 -0.3168
  952MOL0     C31296   7.440   3.575   1.962  0.5234  0.1079 -0.9547
  952MOL0     O31297   7.341   3.636   2.034  0.3430  0.1621  0.6442
  952MOL0     C31298   7.371   3.751   2.113  0.0436 -0.2645 -0.3489
  952MOL0     C31299   7.452   3.698   2.233  0.2859 -0.4265  0.5672
  952MOL0     C31300   7.381   3.591   2.324 -0.7541  0.3294  0.8513
  952MOL0     C31301   7.268   3.643   2.409 -0.1069  0.5350 -0.2098
  952MOL0     C31302   7.245   3.545   2.516  0.2888  0.3411  1.2320
  952MOL0     C31303   7.227   3.461   2.601 -0.6027 -0.1358 -0.7933
  952MOL0     C31304   7.422   3.450   1.890  0.4698 -0.6504  0.0771
  952MOL0     C31305   7.522   3.376   1.829  0.4142  0.0606 -0.3922
  952MOL0     C31306   7.477   3.250   1.763  0.0258 -0.4298  0.0245
  952MOL0     H31307   7.999   3.176   1.720  0.2146  0.2144  0.9410
  952MOL0     H31308   8.198   3.143   1.610  0.0059  0.6370 -1.7954
  952MOL0     H31309   8.390   3.133   1.552 -1.2554  0.8463 -1.0012
  952MOL0     H31310   8.494   3.201   1.675 -3.8041 -0.5467  1.7481
  952MOL0     H31311   8.625   3.137   1.457 -1.3569 -0.9900  0.6863
  952MOL0     H31312   8.520   3.251   1.371  0.5134 -3.4580 -0.7064
  952MOL0     H31313   8.630   3.398   1.609 -1.5271  1.9212 -2.0104
  952MOL0     H31314   8.764   3.295   1.565  0.0754 -0.4500 -0.1925
  952MOL0     H31315   8.777   3.401   1.346  0.9781 -0.7952 -0.0010
  952MOL0     H31316   8.616   3.478   1.375  1.0215 -0.7313 -1.3065
  952MOL0     H31317   8.799   3.641   1.369  1.1752 -1.3698 -1.2209
  952MOL0     H31318   8.885   3.546   1.489  0.0639  3.0776 -0.0039
  952MOL0     H31319   8.736   3.597   1.656  2.5628 -1.2777  0.0462
  952MOL0     H31320   8.785   3.752   1.579  0.2132  0.0463 -0.8302
  952MOL0     H31321   8.531   3.727   1.646  0.9573 -1.9710  1.1315
  952MOL0     H31322   8.520   3.614   1.504  1.1052 -1.3451  0.1443
  952MOL0     H31323   8.612   3.788   1.356  0.4847  2.4024 -0.3350
  952MOL0     H31324   8.455   3.830   1.432  0.3326 -1.1353 -0.8016
  952MOL0     H31325   8.827   3.923   1.418  0.4053 -1.7390  1.1725
  952MOL0     H31326   8.965   4.135   1.541 -0.3003  0.5965 -0.2624
  952MOL0     H31327   8.876   4.202   1.687 -2.6846  0.4353 -0.0171
  952MOL0     H31328   8.835   4.294   1.388  0.9778  2.8827 -0.8803
  952MOL0     H31329   8.758   4.356   1.538 -0.5135  0.2370 -0.8260
  952MOL0     H31330   8.926   4.514   1.510  0.6065  0.4882  0.6888
  952MOL0     H31331   8.999   4.404   1.620 -0.0142  1.3619 -0.2140
  952MOL0     H31332   9.114   4.281   1.412 -1.1566 -0.4685 -2.1909
  952MOL0     H31333   9.031   4.391   1.315 -2.0968  0.0716  1.4447
  952MOL0     H31334   9.189   4.305   1.212  0.2739  0.9743  0.1526
  952MOL0     H31335   9.287   4.198   1.022 -0.8919 -2.4347  3.4044
  952MOL0     H31336   9.432   4.119   1.075 -0.4284 -1.1066 -3.1986
  952MOL0     H31337   9.435   4.245   0.946  0.0432 -1.0976 -0.5171
  952MOL0     H31338   9.908   4.240   1.196 -1.0728  3.3679  0.8331
  952MOL0     H31339  10.131   4.167   1.102  2.1048  1.0722  0.0713
  952MOL0     H31340  10.290   4.099   0.995  1.4738 -2.4359 -0.9603
  952MOL0     H31341  10.185   4.073   0.846 -3.1631  3.4800  0.0589
  952MOL0     H31342  10.471   4.171   0.849  4.0452 -3.0371 -2.0206
  952MOL0     H31343  10.423   4.003   0.859  3.6951  0.8983  0.3781
  952MOL0     H31344  10.370   4.179   0.629  1.5150  1.2023  2.4888
  952MOL0     H31345  10.306   4.016   0.654  1.2810 -1.1358  1.0864
  952MOL0     H31346  10.549   3.915   0.656 -2.4724 -0.5013  0.1822
  952MOL0     H31347  10.615   4.061   0.601 -0.0324  0.1567 -1.7173
  952MOL0     H31348  10.388   3.922   0.446  0.9128 -0.4880 -0.8629
  952MOL0     H31349  10.475   4.068   0.399  0.6566 -0.5580 -1.6264
  952MOL0     H31350  10.604   3.788   0.457 -2.4184  0.6163  1.0636
  952MOL0     H31351  10.687   3.947   0.440 -0.9796  0.6361  2.8858
  952MOL0     H31352  10.608   3.966   0.207 -3.3641 -0.2703  0.2047
  952MOL0     H31353  10.518   3.818   0.239 -2.1837  3.2068 -0.4736
  952MOL0     H31354  10.737   3.803   0.093  3.1817  1.7950 -0.2340
  952MOL0     H31355  10.738   3.690   0.237  0.0388 -0.1678 -0.4573
  952MOL0     H31356  10.103   4.479   0.823  0.7011 -3.1873 -1.6732
  952MOL0     H31357   9.887   4.556   0.935  0.1723 -0.5018 -0.9608
  952MOL0     H31358   9.623   4.537   1.304  1.4026 -0.2831 -2.8368
  952MOL0     H31359   9.429   4.588   1.428 -3.1189 -0.1632  0.9514
  952MOL0     H31360   8.309   3.551   1.676 -0.6141 -0.3301 -1.2007
  952MOL0     H31361   8.089   3.595   1.765  1.4798  0.0284 -0.1875
  952MOL0     H31362   7.777   3.588   1.925 -0.3223  0.4777  2.2188
  952MOL0     H31363   7.608   3.709   2.012 -0.0332  1.3387 -1.0930
  952MOL0     H31364   7.411   3.839   2.063 -2.3801  1.3787  0.4512
  952MOL0     H31365   7.278   3.794   2.151 -0.7449 -1.9430 -0.2804
  952MOL0     H31366   7.487   3.778   2.298  2.5895 -0.3967 -0.6208
  952MOL0     H31367   7.549   3.663   2.196  0.0236  1.2972 -2.0181
  952MOL0     H31368   7.351   3.516   2.250  1.1493  1.8409 -1.6160
  952MOL0     H31369   7.453   3.550   2.395  0.4274  0.8080 -0.0501
  952MOL0     H31370   7.177   3.656   2.349  1.7566  0.3757 -3.2835
  952MOL0     H31371   7.288   3.739   2.458 -3.1355  0.1697  2.0159
  952MOL0     H31372   7.223   3.393   2.683 -0.6592  0.8041 -0.0052
  952MOL0     H31373   7.317   3.424   1.883  0.0944  1.1084 -2.3833
  952MOL0     H31374   7.552   3.171   1.775 -0.2925 -1.1167 -2.1011
  952MOL0     H31375   7.381   3.219   1.804 -0.6859  1.1134 -0.3932
  952MOL0     H31376   7.461   3.266   1.656 -1.3714 -1.8341 -0.0047
  953MOL0     O31377   0.749   8.539   1.432  0.1831  0.5045  0.2393
  953MOL0     C31378   0.749   8.627   1.349 -0.9047 -0.2864 -0.5231
  953MOL0     O31379   0.858   8.705   1.320  0.6939  0.4972  0.5697
  953MOL0     C31380   0.965   8.686   1.405 -0.2753  0.9872 -0.3615
  953MOL0     C31381   0.964   8.707   1.542  0.1039  0.0886  0.0422
  953MOL0     C31382   1.077   8.703   1.618 -0.0116 -0.4612 -0.7114
  953MOL0     C31383   1.199   8.668   1.562 -0.0315 -0.1809 -0.2022
  953MOL0     O31384   1.319   8.653   1.631  1.0517  0.9156  0.7615
  953MOL0     C31385   1.306   8.622   1.770  0.3337  0.2108  0.4966
  953MOL0     C31386   1.298   8.473   1.800 -0.9407  0.0174 -0.2509
  953MOL0     C31387   1.422   8.410   1.726  0.0980  1.5914  0.4343
  953MOL0     C31388   1.409   8.254   1.729  0.1401 -0.8388 -0.3710
  953MOL0     C31389   1.515   8.175   1.642  0.0197 -0.4806 -0.0215
  953MOL0     C31390   1.653   8.212   1.677  0.3609  0.3209  0.0896
  953MOL0     C31391   1.761   8.143   1.599 -0.4432  0.6132 -0.0219
  953MOL0     C31392   1.776   8.178   1.459 -0.0690 -0.0087 -0.0360
  953MOL0     N31393   1.845   8.069   1.386 -0.4871  0.5612 -0.9602
  953MOL0     C31394   1.965   8.008   1.427  0.0673 -0.2409 -0.3596
  953MOL0     C31395   1.983   7.918   1.324 -0.2760  0.3244 -0.0980
  953MOL0     C31396   2.099   7.816   1.304 -0.2946 -0.8376  1.0712
  953MOL0     C31397   2.231   7.886   1.259 -0.0377 -0.3628  0.3512
  953MOL0     C31398   2.336   7.895   1.371  0.1718  0.4010 -0.5744
  953MOL0     C31399   2.473   7.950   1.324  0.1058  0.1835  0.4695
  953MOL0     O31400   2.577   7.924   1.423 -0.1706 -0.3087 -0.0883
  953MOL0     C31401   2.703   7.974   1.388  0.3053 -0.0273  0.3176
  953MOL0     C31402   2.728   8.056   1.273  0.5205 -0.0483  0.0561
  953MOL0     C31403   2.852   8.107   1.237 -0.6949 -0.3576 -0.7685
  953MOL0     C31404   2.871   8.170   1.096 -0.2921 -0.1901 -0.1425
  953MOL0     C31405   2.956   8.095   1.338 -0.1498 -0.3769 -0.4550
  953MOL0     C31406   3.100   8.136   1.328  0.9700  1.2436  0.5741
  953MOL0     O31407   3.185   8.054   1.386 -0.3635 -0.7315 -0.5294
  953MOL0     C31408   3.320   8.086   1.370 -0.7955  0.8221 -0.6245
  953MOL0     C31409   3.393   8.185   1.442 -0.1455  0.1966 -0.3480
  953MOL0     C31410   3.532   8.194   1.414  0.1695 -0.8228 -0.2617
  953MOL0     C31411   3.605   8.103   1.331 -0.1324 -1.0733 -0.6221
  953MOL0     O31412   3.740   8.107   1.316  0.0640  1.0596 -0.1352
  953MOL0     C31413   3.799   8.030   1.213 -0.4611 -0.2419  0.1132
  953MOL0     C31414   3.943   8.083   1.201  1.0945 -0.2405 -0.1537
  953MOL0     C31415   4.036   8.026   1.314  0.6219  0.5168  0.2491
  953MOL0     C31416   4.176   8.079   1.282 -0.7312  0.2252 -0.6541
  953MOL0     C31417   4.270   8.024   1.395  0.2252  0.0525  0.7513
  953MOL0     C31418   4.396   8.100   1.433 -0.0969  0.3002 -0.0479
  953MOL0     C31419   4.493   8.146   1.319 -1.0441  0.7690 -0.5718
  953MOL0     C31420   4.539   8.283   1.333  0.7427 -0.7869  0.4403
  953MOL0    Cl31421   4.638   8.286   1.477 -0.2236 -0.0813 -0.5391
  953MOL0     C31422   3.531   8.005   1.266  0.9620  0.1694 -0.4611
  953MOL0     C31423   3.392   7.994   1.292 -0.5617  0.7514 -0.5434
  953MOL0     O31424   3.135   8.239   1.271  0.3085  0.1245 -0.3627
  953MOL0     C31425   2.921   8.028   1.462 -0.4729  0.8415 -0.3875
  953MOL0     C31426   2.805   7.962   1.479 -0.2849  0.9118  0.2933
  953MOL0     N31427   1.889   7.932   1.225  0.0792 -0.2901 -0.2424
  953MOL0     N31428   1.804   8.021   1.264  0.0577 -0.1353  0.4433
  953MOL0     C31429   1.196   8.621   1.432 -0.6875  0.9837  0.1978
  953MOL0     C31430   1.089   8.641   1.345  0.3655 -0.6956 -0.6887
  953MOL0     C31431   0.618   8.665   1.295  0.5947  0.2953 -0.1110
  953MOL0     C31432   0.578   8.800   1.276 -0.5613  0.9902  0.5235
  953MOL0     C31433   0.453   8.832   1.240  1.2367  0.1405 -0.0902
  953MOL0     C31434   0.350   8.735   1.219  0.4089  0.3563  0.1642
  953MOL0     O31435   0.222   8.757   1.177  0.0787  0.1272  0.6364
  953MOL0     C31436   0.177   8.889   1.185  0.2631 -0.3929 -0.4169
  953MOL0     C31437   0.017   8.897   1.177 -0.6378  0.5664  0.0580
  953MOL0     C31438  -0.049   8.812   1.283  0.5196 -0.0657  1.2244
  953MOL0     C31439  -0.191   8.772   1.253 -0.0893  0.2231 -0.7619
  953MOL0     C31440  -0.222   8.630   1.295  1.2790 -0.5551 -0.3213
  953MOL0     C31441  -0.254   8.517   1.321  0.1749  0.1894  0.2153
  953MOL0     C31442   0.389   8.599   1.226 -0.2854  0.7224 -0.3663
  953MOL0     C31443   0.524   8.563   1.266 -0.2018 -0.3385  0.0443
  953MOL0     C31444   0.542   8.416   1.272 -0.3681  0.4229 -1.0279
  953MOL0     H31445   0.877   8.744   1.596  2.1610  2.0634  2.2453
  953MOL0     H31446   1.063   8.739   1.720  0.4365  0.8025 -1.0905
  953MOL0     H31447   1.222   8.676   1.815 -2.0976 -1.5218 -1.7264
  953MOL0     H31448   1.401   8.656   1.812  1.1940  0.8063 -1.7605
  953MOL0     H31449   1.294   8.459   1.909 -0.5384  1.2779 -0.0528
  953MOL0     H31450   1.211   8.432   1.749 -0.6472  1.2337 -1.7882
  953MOL0     H31451   1.426   8.450   1.624  0.9400  0.5436  0.0350
  953MOL0     H31452   1.514   8.444   1.775 -0.9860  2.9998  1.5706
  953MOL0     H31453   1.413   8.232   1.836  2.0467  0.8436 -0.0258
  953MOL0     H31454   1.317   8.218   1.683  0.4848 -1.8378 -0.2988
  953MOL0     H31455   1.492   8.195   1.537  1.4711 -3.3377 -1.0021
  953MOL0     H31456   1.506   8.067   1.656  1.2899 -0.6282 -0.1848
  953MOL0     H31457   1.671   8.319   1.664  0.2534  0.2409 -0.7626
  953MOL0     H31458   1.675   8.183   1.780 -0.0254  2.0713  0.6971
  953MOL0     H31459   1.729   8.038   1.608 -2.8480  1.1243 -1.5687
  953MOL0     H31460   1.857   8.158   1.650 -0.5957  0.2762  0.3762
  953MOL0     H31461   1.678   8.201   1.416  0.0308 -0.7543 -0.6728
  953MOL0     H31462   1.833   8.272   1.452 -0.5048  0.1958 -1.0751
  953MOL0     H31463   2.036   8.038   1.504  0.8061  1.0849 -1.4978
  953MOL0     H31464   2.071   7.733   1.238 -0.9171  0.4178 -0.3004
  953MOL0     H31465   2.106   7.775   1.405 -0.1683 -2.7583  0.3265
  953MOL0     H31466   2.281   7.832   1.177  2.1174  2.6816 -0.5471
  953MOL0     H31467   2.222   7.990   1.225  0.3936  0.1178  1.6574
  953MOL0     H31468   2.296   7.966   1.444 -1.8757 -0.4855 -0.7435
  953MOL0     H31469   2.349   7.797   1.419  0.0058  1.7588  2.5215
  953MOL0     H31470   2.496   7.896   1.232 -0.2085  2.0034 -0.7288
  953MOL0     H31471   2.455   8.056   1.303 -2.3493 -0.1503  0.5063
  953MOL0     H31472   2.656   8.076   1.194 -2.9881 -0.8583  2.7557
  953MOL0     H31473   2.805   8.257   1.102  1.2444  1.0500  5.6914
  953MOL0     H31474   2.832   8.099   1.022  3.1449 -0.9055 -1.4606
  953MOL0     H31475   2.972   8.198   1.066 -1.3752  0.6811 -3.3154
  953MOL0     H31476   3.361   8.251   1.522  0.3904 -0.0820  0.1026
  953MOL0     H31477   3.593   8.272   1.459 -2.2942 -0.0181  1.9540
  953MOL0     H31478   3.789   7.925   1.244 -0.9083  0.1407  1.3221
  953MOL0     H31479   3.758   8.042   1.112  0.3606 -0.2198 -0.2278
  953MOL0     H31480   3.991   8.056   1.106 -0.5320 -0.5778 -0.9010
  953MOL0     H31481   3.934   8.192   1.204  3.6531  0.0519 -0.2239
  953MOL0     H31482   4.034   7.917   1.319  6.7174 -0.2615 -3.9187
  953MOL0     H31483   3.997   8.081   1.401 -0.5728  1.8376 -1.0475
  953MOL0     H31484   4.172   8.188   1.284  2.5526  0.4485 -0.9930
  953MOL0     H31485   4.210   8.051   1.182 -1.8778  0.4553 -1.1208
  953MOL0     H31486   4.204   8.024   1.482 -0.2008 -0.3838  0.4316
  953MOL0     H31487   4.290   7.917   1.387 -1.6697 -0.2508 -0.7090
  953MOL0     H31488   4.456   8.040   1.502  2.9423  0.9531 -1.9746
  953MOL0     H31489   4.353   8.184   1.489  0.3253  1.1891 -1.0371
  953MOL0     H31490   4.452   8.127   1.219 -1.0964  0.5941 -0.5172
  953MOL0     H31491   4.577   8.078   1.334 -3.1481 -1.5404  1.5927
  953MOL0     H31492   4.456   8.354   1.330  1.1346 -0.2589  1.5914
  953MOL0     H31493   4.599   8.321   1.250  1.9821  1.5294  2.2850
  953MOL0     H31494   3.574   7.932   1.198 -0.0073 -0.5536 -0.3289
  953MOL0     H31495   3.343   7.918   1.233  0.4510  2.5242 -3.8848
  953MOL0     H31496   2.983   8.028   1.551 -2.4761 -0.9574  1.1001
  953MOL0     H31497   2.799   7.903   1.570  1.8910  0.5944  0.2668
  953MOL0     H31498   1.288   8.581   1.391 -0.3896  2.5663 -0.7918
  953MOL0     H31499   1.093   8.640   1.236  2.4607  1.4261 -0.7207
  953MOL0     H31500   0.644   8.884   1.295  1.1645 -0.6174  2.0495
  953MOL0     H31501   0.432   8.936   1.218  0.3504 -0.2631 -1.2733
  953MOL0     H31502   0.213   8.925   1.282  1.8930 -3.3141  0.1883
  953MOL0     H31503   0.231   8.943   1.107  0.1135 -0.3100 -0.4626
  953MOL0     H31504  -0.010   8.857   1.078  0.9217 -0.9242  0.1875
  953MOL0     H31505  -0.031   8.993   1.196 -3.9996 -1.1932  1.3893
  953MOL0     H31506   0.008   8.720   1.301  1.0822  0.2055  0.8727
  953MOL0     H31507  -0.052   8.862   1.380  0.3962 -0.5666  1.4799
  953MOL0     H31508  -0.218   8.775   1.147  2.1676  0.4841 -1.3775
  953MOL0     H31509  -0.269   8.834   1.299 -1.2492 -1.5848 -0.1922
  953MOL0     H31510  -0.284   8.418   1.347  0.5184 -0.6946 -2.4267
  953MOL0     H31511   0.316   8.521   1.206 -0.5116  0.4734  1.2632
  953MOL0     H31512   0.466   8.365   1.211  1.1375  0.4314 -3.0152
  953MOL0     H31513   0.640   8.396   1.228 -0.4845  1.9218 -2.0596
  953MOL0     H31514   0.535   8.379   1.374  2.7458 -2.3562 -1.6653
  954MOL0     O31515   1.513   7.311  11.186  0.0081  0.7191 -0.3467
  954MOL0     C31516   1.483   7.255  11.077 -0.5022 -0.5006 -0.4474
  954MOL0     O31517   1.568   7.216  10.979  0.3517 -0.2891  0.5829
  954MOL0     C31518   1.701   7.237  11.011 -0.1776 -0.4775  0.6998
  954MOL0     C31519   1.785   7.129  11.041  0.6688 -0.1863 -0.1405
  954MOL0     C31520   1.924   7.150  11.058  0.1156  0.1880  0.1504
  954MOL0     C31521   1.972   7.282  11.071  0.4524  0.4230 -0.9122
  954MOL0     O31522   2.093   7.287  11.124 -0.0536  0.1879 -0.1041
  954MOL0     C31523   2.144   7.411  11.186 -0.0870  0.2599  0.0270
  954MOL0     C31524   2.261   7.391  11.274  0.1901 -0.6801 -0.3568
  954MOL0     C31525   2.395   7.424  11.198 -0.3461  0.0120 -0.5222
  954MOL0     C31526   2.463   7.313  11.114 -0.3053  0.3373 -0.0917
  954MOL0     C31527   2.607   7.339  11.063 -0.2302  0.9763  0.1009
  954MOL0     C31528   2.699   7.396  11.166 -0.9495 -0.1203 -0.7883
  954MOL0     C31529   2.843   7.382  11.116 -0.6128  0.3507  0.2556
  954MOL0     C31530   2.930   7.482  11.195  0.8347  0.7482  0.4389
  954MOL0     N31531   3.060   7.510  11.127 -0.4480  0.6390 -0.6252
  954MOL0     C31532   3.079   7.551  11.004  0.1959 -0.0340  0.4801
  954MOL0     C31533   3.202   7.588  10.990 -0.4762 -0.4502 -0.5597
  954MOL0     C31534   3.278   7.632  10.874  0.1763 -0.5531  0.3045
  954MOL0     C31535   3.354   7.525  10.792 -0.4798  0.1632  1.0530
  954MOL0     C31536   3.476   7.468  10.862 -0.5509 -0.7782 -0.4895
  954MOL0     C31537   3.588   7.568  10.906  0.3242  0.0668  0.3030
  954MOL0     O31538   3.622   7.665  10.807 -0.2933 -0.0179 -0.5390
  954MOL0     C31539   3.709   7.618  10.709 -0.6353 -0.1865  0.6304
  954MOL0     C31540   3.761   7.487  10.697  0.2061 -0.6849  0.7005
  954MOL0     C31541   3.873   7.453  10.619  0.4007 -0.4793  1.0443
  954MOL0     C31542   3.917   7.307  10.634 -0.0675  0.2799  0.5100
  954MOL0     C31543   3.922   7.542  10.529 -0.5249  0.2710 -0.0178
  954MOL0     C31544   4.041   7.523  10.441 -0.6708 -1.1587 -0.5094
  954MOL0     O31545   4.072   7.613  10.345 -0.1581 -0.1944 -0.0559
  954MOL0     C31546   4.196   7.604  10.287  0.4207 -0.7738  0.1487
  954MOL0     C31547   4.310   7.675  10.336 -0.2150 -0.6389 -0.0336
  954MOL0     C31548   4.423   7.678  10.253  0.2036  0.2538 -0.3259
  954MOL0     C31549   4.424   7.635  10.125 -0.1943 -0.3469 -0.5316
  954MOL0     O31550   4.531   7.658  10.042 -0.3121 -0.0494 -0.5934
  954MOL0     C31551   4.616   7.773  10.067 -0.9294  0.5401  0.3267
  954MOL0     C31552   4.742   7.777   9.978  0.7947  0.0758  0.1922
  954MOL0     C31553   4.837   7.662   9.999  0.1381  0.3157 -0.4395
  954MOL0     C31554   4.964   7.692   9.922  0.0775 -0.1647 -0.0491
  954MOL0     C31555   5.064   7.569   9.921 -0.0548  1.2885  0.2173
  954MOL0     C31556   5.193   7.611   9.842 -0.5704 -0.1489  0.6612
  954MOL0     C31557   5.278   7.489   9.816 -0.2217  0.2388 -0.7086
  954MOL0     C31558   5.408   7.529   9.739 -0.1987 -0.0533  0.2964
  954MOL0    Cl31559   5.504   7.631   9.859  0.3270  0.1773  0.5938
  954MOL0     C31560   4.310   7.564  10.081 -0.0393 -0.1789  1.0150
  954MOL0     C31561   4.198   7.551  10.164  0.3040  0.6116  1.0515
  954MOL0     O31562   4.112   7.425  10.470  0.3453 -0.1791 -0.0938
  954MOL0     C31563   3.861   7.668  10.524  0.1093  0.7676  0.3797
  954MOL0     C31564   3.767   7.713  10.624 -0.3627  0.3480  0.0009
  954MOL0     N31565   3.265   7.553  11.111  1.6487 -0.2887  0.6875
  954MOL0     N31566   3.182   7.510  11.188  0.3890  0.2417 -0.4206
  954MOL0     C31567   1.892   7.391  11.034  0.1839 -0.3739 -0.2248
  954MOL0     C31568   1.755   7.369  11.007 -0.3318 -0.7119  0.5133
  954MOL0     C31569   1.343   7.229  11.047  0.4555 -1.0912 -0.3351
  954MOL0     C31570   1.240   7.310  11.107 -0.4029 -0.3693 -0.3541
  954MOL0     C31571   1.106   7.288  11.082 -0.4945  0.8227  0.4066
  954MOL0     C31572   1.056   7.196  10.995  0.4668 -0.9209 -0.4788
  954MOL0     O31573   0.915   7.200  10.966  0.2744  0.6937 -0.5248
  954MOL0     C31574   0.861   7.077  10.909  0.6569 -0.6453 -0.0349
  954MOL0     C31575   0.707   7.086  10.902  0.3686  0.0315  0.5675
  954MOL0     C31576   0.655   7.204  10.815 -0.7514  0.1175  0.5720
  954MOL0     C31577   0.667   7.178  10.658  0.5874  0.2169 -0.1337
  954MOL0     C31578   0.590   7.052  10.627  0.4249  0.3400 -0.1217
  954MOL0     C31579   0.520   6.948  10.626 -0.1136 -0.3968 -0.5073
  954MOL0     C31580   1.154   7.119  10.932  0.0620 -0.0657  0.2669
  954MOL0     C31581   1.289   7.129  10.956 -0.9396 -0.3891  0.7940
  954MOL0     C31582   1.377   7.039  10.862  0.6311 -0.1683  0.1969
  954MOL0     H31583   1.742   7.031  11.026 -0.1408 -0.5106  3.4738
  954MOL0     H31584   1.983   7.060  11.072 -2.5886 -1.9014 -0.9399
  954MOL0     H31585   2.068   7.470  11.239 -2.3950 -1.8676 -0.6989
  954MOL0     H31586   2.184   7.465  11.101  1.8275 -0.6358  0.3161
  954MOL0     H31587   2.260   7.459  11.360  2.9180 -1.4629  0.3774
  954MOL0     H31588   2.254   7.298  11.330 -1.0919 -0.5843 -0.3305
  954MOL0     H31589   2.383   7.510  11.132  0.4765 -0.8011 -1.7778
  954MOL0     H31590   2.459   7.465  11.276 -0.6278  0.8088 -0.6974
  954MOL0     H31591   2.473   7.225  11.179 -1.6952 -0.6235 -1.1005
  954MOL0     H31592   2.400   7.296  11.026  0.1518 -0.0467 -0.3485
  954MOL0     H31593   2.601   7.418  10.988  0.3178  1.4125  0.5113
  954MOL0     H31594   2.651   7.252  11.011  0.6811  0.4695  1.6562
  954MOL0     H31595   2.666   7.495  11.198 -3.0933 -1.2332  0.7460
  954MOL0     H31596   2.692   7.337  11.258 -1.6243 -1.3406 -1.5873
  954MOL0     H31597   2.840   7.397  11.008  2.9727  0.0088  0.0053
  954MOL0     H31598   2.886   7.285  11.140 -0.2754  0.2890 -0.5789
  954MOL0     H31599   2.882   7.578  11.209 -2.6926 -0.4035 -2.2351
  954MOL0     H31600   2.954   7.429  11.288 -0.1504 -1.1135 -0.3184
  954MOL0     H31601   3.009   7.561  10.922  0.4866 -0.0784  0.2249
  954MOL0     H31602   3.336   7.721  10.902 -1.6010  0.7305  0.0570
  954MOL0     H31603   3.222   7.690  10.801  1.1889  0.5701  0.3777
  954MOL0     H31604   3.284   7.441  10.782  0.5834 -0.9320  2.4288
  954MOL0     H31605   3.383   7.570  10.696 -3.0064  1.8862  1.0022
  954MOL0     H31606   3.435   7.424  10.953  0.1734 -0.1112  0.1788
  954MOL0     H31607   3.521   7.388  10.803  4.1166  1.6039 -0.6094
  954MOL0     H31608   3.538   7.613  10.992  0.6699  0.6788  0.1944
  954MOL0     H31609   3.674   7.509  10.940 -0.7781 -1.3476  0.7450
  954MOL0     H31610   3.724   7.401  10.753 -1.0535 -1.8400 -1.7673
  954MOL0     H31611   4.016   7.315  10.679 -0.4866  0.5558  1.4123
  954MOL0     H31612   3.924   7.260  10.536  0.4025  0.5848  0.3931
  954MOL0     H31613   3.852   7.254  10.705  1.9565 -2.8958  0.1531
  954MOL0     H31614   4.310   7.730  10.430 -2.5273 -0.1780 -0.2251
  954MOL0     H31615   4.507   7.735  10.291  0.7909 -0.7290 -0.1213
  954MOL0     H31616   4.543   7.852  10.047 -2.0929 -1.2168 -3.3600
  954MOL0     H31617   4.657   7.781  10.168  1.9675  0.5118 -0.7653
  954MOL0     H31618   4.717   7.793   9.873 -0.9486 -0.8334  0.4380
  954MOL0     H31619   4.798   7.867  10.007  0.1122  1.1202 -1.5837
  954MOL0     H31620   4.786   7.576   9.956 -2.5921  0.4068  2.2841
  954MOL0     H31621   4.866   7.658  10.104  0.8472 -0.8063 -0.6659
  954MOL0     H31622   5.017   7.778   9.964  2.8302 -1.3666 -0.7890
  954MOL0     H31623   4.955   7.723   9.817 -0.2102  2.3952  0.6759
  954MOL0     H31624   5.089   7.544  10.024 -0.1031  1.2693  0.2240
  954MOL0     H31625   5.016   7.476   9.891 -0.7159  1.2592  1.3249
  954MOL0     H31626   5.252   7.683   9.898  0.1512  0.2854 -0.6179
  954MOL0     H31627   5.178   7.662   9.747 -0.0221 -0.0544  0.6219
  954MOL0     H31628   5.218   7.423   9.753  0.5147 -0.3039 -0.8470
  954MOL0     H31629   5.306   7.425   9.900 -1.7115  0.3091 -0.1200
  954MOL0     H31630   5.386   7.594   9.654 -3.3887 -0.3856  0.7372
  954MOL0     H31631   5.455   7.431   9.722 -0.2252 -0.2403  1.2260
  954MOL0     H31632   4.298   7.516   9.984  0.3980 -1.4662  1.5800
  954MOL0     H31633   4.108   7.500  10.133  1.2458 -1.5011  1.6116
  954MOL0     H31634   3.872   7.753  10.456 -3.9631 -0.2293 -1.8280
  954MOL0     H31635   3.718   7.810  10.617 -0.0563  0.3779 -3.2240
  954MOL0     H31636   1.936   7.490  11.046 -0.9591  0.0694  0.3993
  954MOL0     H31637   1.702   7.459  10.978  0.7837 -0.2286 -0.0706
  954MOL0     H31638   1.268   7.393  11.172  0.4017 -0.4537 -0.5863
  954MOL0     H31639   1.039   7.336  11.153 -2.0108 -4.0807  2.7302
  954MOL0     H31640   0.893   7.062  10.805 -2.7057  2.4560 -1.7350
  954MOL0     H31641   0.900   6.993  10.967  1.5821 -0.7537 -0.7769
  954MOL0     H31642   0.664   7.089  11.002 -2.7527  2.5896 -0.6807
  954MOL0     H31643   0.667   6.993  10.862  0.6238 -0.6892  1.9491
  954MOL0     H31644   0.549   7.211  10.842 -0.8638 -0.2318  0.2378
  954MOL0     H31645   0.715   7.291  10.842  0.6378 -0.9276  1.0031
  954MOL0     H31646   0.773   7.182  10.633  0.5617  2.8128 -0.1614
  954MOL0     H31647   0.621   7.265  10.609  2.0254  1.2594  0.2950
  954MOL0     H31648   0.463   6.858  10.614  1.5673 -1.5361 -0.3829
  954MOL0     H31649   1.118   7.045  10.861 -1.8921  0.7509  0.3264
  954MOL0     H31650   1.463   6.988  10.907  1.5105 -0.1848 -1.4285
  954MOL0     H31651   1.316   6.961  10.816  1.6054 -0.7677 -0.1106
  954MOL0     H31652   1.411   7.109  10.786  2.3787 -0.7269  0.4207
  955MOL0     O31653   8.927   3.210  11.003  0.5237 -0.0903  0.2348
  955MOL0     C31654   8.903   3.289  10.911 -0.4198  0.3520 -0.6885
  955MOL0     O31655   8.990   3.381  10.860 -0.5527  0.8057 -0.3988
  955MOL0     C31656   9.113   3.385  10.907 -0.4134  0.1788  0.7043
  955MOL0     C31657   9.150   3.511  10.964 -0.5538  0.3232 -0.3301
  955MOL0     C31658   9.281   3.528  11.021 -0.7356  0.9547 -0.7144
  955MOL0     C31659   9.366   3.419  11.023 -0.4883 -0.5271 -0.9327
  955MOL0     O31660   9.484   3.437  11.094  0.0042 -0.5159  0.0399
  955MOL0     C31661   9.563   3.321  11.121  0.5629 -0.3114 -0.0589
  955MOL0     C31662   9.673   3.347  11.222 -0.0295 -0.5550  0.3451
  955MOL0     C31663   9.780   3.440  11.181 -0.8879 -0.3120 -0.2089
  955MOL0     C31664   9.905   3.415  11.272 -0.3786  0.7471  0.1571
  955MOL0     C31665  10.024   3.508  11.243 -0.2008  0.6407  0.3467
  955MOL0     C31666  10.136   3.489  11.335 -0.2217  0.1035  0.3446
  955MOL0     C31667  10.198   3.350  11.337  0.1522 -0.6848 -0.2718
  955MOL0     C31668  10.330   3.353  11.410  0.3841  0.8216  0.6089
  955MOL0     N31669  10.395   3.222  11.413  0.0275 -0.3690  0.0488
  955MOL0     C31670  10.367   3.114  11.494 -0.4294  0.3994 -0.5139
  955MOL0     C31671  10.422   3.010  11.432 -0.1132 -0.3195  0.4642
  955MOL0     C31672  10.427   2.869  11.470  0.2764  0.1735  0.7833
  955MOL0     C31673  10.568   2.804  11.458 -0.7403 -0.5448 -0.6159
  955MOL0     C31674  10.670   2.839  11.569 -0.5497  0.5891  1.1189
  955MOL0     C31675  10.815   2.815  11.519  0.0702  0.7237  0.2283
  955MOL0     O31676  10.910   2.869  11.605 -0.1762 -1.0632  0.9439
  955MOL0     C31677  11.044   2.875  11.566  0.1552  0.2661  0.4771
  955MOL0     C31678  11.146   2.894  11.668 -0.9120  0.3409 -0.0936
  955MOL0     C31679  11.283   2.893  11.638 -0.3668 -0.0958 -0.6716
  955MOL0     C31680  11.380   2.914  11.757 -0.2003  0.0048 -0.3780
  955MOL0     C31681  11.323   2.894  11.504 -0.2741 -0.1815  0.0719
  955MOL0     C31682  11.463   2.912  11.465 -0.4402 -0.2594  0.2646
  955MOL0     O31683  11.484   2.831  11.352  0.5513  0.5121 -0.4582
  955MOL0     C31684  11.614   2.797  11.328 -0.2322 -0.6271 -0.7643
  955MOL0     C31685  11.684   2.847  11.209  0.0210  0.8462  0.2637
  955MOL0     C31686  11.818   2.822  11.194  0.0363  0.4630 -0.0295
  955MOL0     C31687  11.896   2.742  11.290 -0.2341 -0.1198 -0.7415
  955MOL0     O31688  12.032   2.702  11.286 -0.1656  0.3907  0.8353
  955MOL0     C31689  12.099   2.742  11.167 -0.1719  1.0216 -0.3546
  955MOL0     C31690  12.240   2.684  11.173  0.2054 -0.9148 -0.1483
  955MOL0     C31691  12.317   2.738  11.293  0.2251  0.0890  0.4746
  955MOL0     C31692  12.457   2.685  11.291 -0.5200 -0.4710  0.3970
  955MOL0     C31693  12.549   2.762  11.383  0.6537 -0.3663 -0.0228
  955MOL0     C31694  12.693   2.737  11.335  0.5922 -0.3570  1.0619
  955MOL0     C31695  12.808   2.777  11.438  0.6067  0.0418 -0.1880
  955MOL0     C31696  12.940   2.712  11.409 -1.2114 -0.7415  0.4063
  955MOL0    Cl31697  12.982   2.580  11.521 -0.2182  0.1153  0.3872
  955MOL0     C31698  11.830   2.693  11.401 -0.8031  0.1202  0.2194
  955MOL0     C31699  11.694   2.723  11.422  0.0291  0.2096  0.0389
  955MOL0     O31700  11.542   2.989  11.517  0.5628 -0.3092 -0.0624
  955MOL0     C31701  11.227   2.869  11.401 -0.5917 -0.1442  0.2611
  955MOL0     C31702  11.093   2.855  11.438  0.4004  0.0128  0.1906
  955MOL0     N31703  10.477   3.048  11.317 -0.0558 -0.0285 -0.4878
  955MOL0     N31704  10.464   3.171  11.307 -0.1931 -0.4304 -0.2034
  955MOL0     C31705   9.320   3.298  10.968 -0.1923 -0.8000 -0.1017
  955MOL0     C31706   9.198   3.284  10.903  0.5569  0.4798  0.6412
  955MOL0     C31707   8.768   3.274  10.856  0.1997  0.5919 -0.0259
  955MOL0     C31708   8.759   3.294  10.710  0.5146  0.1037 -0.6954
  955MOL0     C31709   8.641   3.267  10.650  0.6251 -0.0969  0.0229
  955MOL0     C31710   8.528   3.223  10.711 -1.0742 -0.8484 -0.3205
  955MOL0     O31711   8.420   3.209  10.630 -0.4972 -0.6736  0.4163
  955MOL0     C31712   8.296   3.189  10.699 -0.1897  0.7629  0.7290
  955MOL0     C31713   8.234   3.322  10.743  1.0513  0.2889  0.4354
  955MOL0     C31714   8.088   3.314  10.751  0.9229  0.3503 -0.9028
  955MOL0     C31715   8.037   3.206  10.855  0.5359 -0.4040  0.3376
  955MOL0     C31716   8.084   3.220  10.997  0.5628 -0.7971  0.5914
  955MOL0     C31717   8.148   3.220  11.098  0.0106 -0.7663 -0.6057
  955MOL0     C31718   8.532   3.212  10.848  1.0027 -0.0701 -0.0237
  955MOL0     C31719   8.652   3.227  10.922  0.2242  0.0311 -0.5467
  955MOL0     C31720   8.639   3.223  11.069  0.4019  0.2871 -0.0824
  955MOL0     H31721   9.072   3.586  10.966 -1.9830 -1.0316 -1.8305
  955MOL0     H31722   9.309   3.620  11.071  0.7481 -0.0761  0.4248
  955MOL0     H31723   9.603   3.277  11.030  3.8086  0.2813  0.9352
  955MOL0     H31724   9.502   3.247  11.174  2.9692 -0.7782  2.2825
  955MOL0     H31725   9.635   3.387  11.316 -0.6217  1.7989 -0.8372
  955MOL0     H31726   9.701   3.242  11.236 -2.1830 -1.2850 -0.3924
  955MOL0     H31727   9.813   3.439  11.076  0.0640 -1.4128  0.0780
  955MOL0     H31728   9.742   3.542  11.194  0.8557  0.3908 -0.2015
  955MOL0     H31729   9.869   3.420  11.376  0.1620  1.3395  0.3209
  955MOL0     H31730   9.938   3.310  11.272 -0.5829  0.6482  1.7501
  955MOL0     H31731   9.999   3.614  11.253  1.0128  0.7578  3.0623
  955MOL0     H31732  10.046   3.497  11.136 -5.5324  1.3310 -1.0918
  955MOL0     H31733  10.221   3.550  11.304  1.5008 -0.6164  3.2877
  955MOL0     H31734  10.103   3.514  11.436  2.3240  1.9017  0.8088
  955MOL0     H31735  10.206   3.326  11.231  0.8493  3.1914 -1.2548
  955MOL0     H31736  10.124   3.286  11.387 -1.4830  0.7164 -0.7722
  955MOL0     H31737  10.400   3.419  11.359  0.8125 -0.7956 -0.9765
  955MOL0     H31738  10.316   3.388  11.513 -1.3379  1.8295  0.0705
  955MOL0     H31739  10.321   3.124  11.592  1.1865 -0.2841  0.3571
  955MOL0     H31740  10.356   2.808  11.414  1.4420 -2.3511  1.8504
  955MOL0     H31741  10.391   2.855  11.572 -0.8324 -1.3806  0.2158
  955MOL0     H31742  10.556   2.696  11.460  1.8912 -0.8872  0.8882
  955MOL0     H31743  10.610   2.815  11.357  0.5113  0.7806  0.0137
  955MOL0     H31744  10.676   2.945  11.593  4.4585  1.0069 -0.7090
  955MOL0     H31745  10.660   2.778  11.660  1.1905 -0.5386  0.6201
  955MOL0     H31746  10.840   2.710  11.503  1.2200  1.0192  0.0375
  955MOL0     H31747  10.834   2.861  11.422  2.1300  0.1571  0.3300
  955MOL0     H31748  11.113   2.911  11.770  0.7059  0.3873  0.4348
  955MOL0     H31749  11.326   2.893  11.850  0.9350  0.0143  0.3027
  955MOL0     H31750  11.414   3.018  11.762  2.6557 -0.6856 -2.9883
  955MOL0     H31751  11.459   2.841  11.740 -4.3687 -4.8063 -1.8347
  955MOL0     H31752  11.632   2.892  11.125  2.1232 -1.5549 -2.5614
  955MOL0     H31753  11.872   2.861  11.109  1.5330  0.9841  1.1259
  955MOL0     H31754  12.048   2.710  11.075  4.3187  1.6123 -3.3476
  955MOL0     H31755  12.110   2.850  11.152  1.0132  1.1929  1.4636
  955MOL0     H31756  12.241   2.575  11.184  0.6763 -0.7373  1.9410
  955MOL0     H31757  12.273   2.719  11.075  0.1925  0.5568  0.3564
  955MOL0     H31758  12.266   2.728  11.390 -4.0567 -0.7577 -1.6191
  955MOL0     H31759  12.327   2.846  11.285 -2.1061  0.3008 -0.6503
  955MOL0     H31760  12.488   2.690  11.186 -2.6675 -1.4340 -0.3378
  955MOL0     H31761  12.463   2.578  11.316  0.7844 -0.2326  1.1669
  955MOL0     H31762  12.533   2.870  11.376  1.7014 -0.2391 -0.6136
  955MOL0     H31763  12.527   2.724  11.483 -0.2843  1.0702  0.3509
  955MOL0     H31764  12.713   2.792  11.243  2.2206  0.5142  1.8859
  955MOL0     H31765  12.696   2.630  11.314  2.5667 -0.3652  1.2165
  955MOL0     H31766  12.771   2.770  11.540  0.4733  3.8610  0.1587
  955MOL0     H31767  12.813   2.885  11.418  0.9669 -0.1720 -1.3299
  955MOL0     H31768  13.011   2.794  11.407 -3.5219  1.4254  1.7648
  955MOL0     H31769  12.937   2.660  11.312  1.4779 -1.0203  0.4109
  955MOL0     H31770  11.885   2.627  11.468 -0.9711 -0.2525 -0.0047
  955MOL0     H31771  11.657   2.678  11.514 -0.5386 -0.9020 -0.7010
  955MOL0     H31772  11.260   2.869  11.297  0.3344 -1.0898  0.5300
  955MOL0     H31773  11.019   2.825  11.365 -1.2263 -1.8328  2.4534
  955MOL0     H31774   9.381   3.209  10.963 -0.5021 -0.9522 -4.2936
  955MOL0     H31775   9.172   3.186  10.865 -0.5994  0.7132  0.7653
  955MOL0     H31776   8.846   3.314  10.649  1.8454 -2.2344  0.2815
  955MOL0     H31777   8.626   3.292  10.545 -0.6861  1.3091  0.5163
  955MOL0     H31778   8.227   3.145  10.627 -0.1919  1.9728 -0.0231
  955MOL0     H31779   8.299   3.112  10.777  2.4046  0.3333  0.3130
  955MOL0     H31780   8.250   3.388  10.658 -1.1353 -3.0271 -2.8613
  955MOL0     H31781   8.282   3.362  10.833  2.0225 -1.1998  0.6190
  955MOL0     H31782   8.050   3.412  10.782  1.1821  0.9550 -2.3874
  955MOL0     H31783   8.045   3.291  10.653 -0.4129 -2.2159  0.1951
  955MOL0     H31784   8.047   3.105  10.815  3.0124  0.4201 -1.3971
  955MOL0     H31785   7.930   3.214  10.871 -0.1777 -1.1132 -3.1802
  955MOL0     H31786   8.198   3.219  11.193  3.2453  1.5243 -2.0618
  955MOL0     H31787   8.443   3.188  10.905  1.9005  0.1268  1.4984
  955MOL0     H31788   8.640   3.326  11.107 -3.0619  1.3033 -2.2375
  955MOL0     H31789   8.550   3.177  11.111  0.2233  0.5358 -0.1810
  955MOL0     H31790   8.709   3.155  11.118 -2.2859 -1.8493  1.0347
  956MOL0     O31791   3.099   3.797   8.381  0.5539 -0.4059  0.3929
  956MOL0     C31792   2.996   3.730   8.374  0.4256  0.4993 -0.1680
  956MOL0     O31793   2.993   3.599   8.338 -0.4098 -0.3617 -0.2690
  956MOL0     C31794   3.121   3.557   8.310 -0.3246  0.3869  0.1261
  956MOL0     C31795   3.175   3.562   8.183 -0.1713  0.3539  0.1293
  956MOL0     C31796   3.312   3.539   8.166 -0.3329 -0.3452 -0.4292
  956MOL0     C31797   3.390   3.488   8.273  0.5470 -0.4056  0.2935
  956MOL0     O31798   3.520   3.459   8.256 -0.4354 -0.7044  0.3800
  956MOL0     C31799   3.535   3.363   8.153 -1.4418 -0.2650  0.1239
  956MOL0     C31800   3.659   3.281   8.186 -0.1861  0.3376 -0.1630
  956MOL0     C31801   3.627   3.195   8.307  0.2303 -0.0544  0.0615
  956MOL0     C31802   3.745   3.121   8.366 -0.2554 -0.7511 -0.0779
  956MOL0     C31803   3.702   3.029   8.481 -0.1373  0.2944  0.0332
  956MOL0     C31804   3.821   2.965   8.546  1.1456  0.0797 -0.1289
  956MOL0     C31805   3.906   2.891   8.435  0.2275  0.1629 -0.2500
  956MOL0     C31806   4.015   2.808   8.494 -1.0780  0.4796  0.0878
  956MOL0     N31807   4.106   2.782   8.386  0.7415  0.1926  0.0997
  956MOL0     C31808   4.187   2.873   8.322  0.2352 -0.5333 -0.1518
  956MOL0     C31809   4.228   2.810   8.204 -0.7131 -0.0742  0.0306
  956MOL0     C31810   4.290   2.878   8.085 -0.1607  0.8237 -0.2815
  956MOL0     C31811   4.440   2.848   8.085  0.3331  0.1007 -0.3043
  956MOL0     C31812   4.508   2.933   7.985  0.4868  0.6517  0.4658
  956MOL0     C31813   4.658   2.902   7.984  0.3371  0.0433 -0.4934
  956MOL0     O31814   4.685   2.767   7.965 -0.2846  0.0407 -0.2571
  956MOL0     C31815   4.811   2.727   7.959  0.1415  0.1608 -0.9471
  956MOL0     C31816   4.834   2.597   7.984  0.1146  0.4163 -0.5331
  956MOL0     C31817   4.964   2.543   7.992 -0.2869  0.0129  0.6606
  956MOL0     C31818   4.976   2.396   8.019  0.5693  0.2152  0.3562
  956MOL0     C31819   5.072   2.629   7.984  0.4482  0.8227 -0.9550
  956MOL0     C31820   5.214   2.581   7.987  0.6924  0.0168 -0.1255
  956MOL0     O31821   5.243   2.457   7.932 -0.7413  0.6355 -0.5301
  956MOL0     C31822   5.380   2.429   7.933  0.9200  0.5280 -0.5189
  956MOL0     C31823   5.454   2.436   7.827  0.7532 -0.0334  0.5024
  956MOL0     C31824   5.590   2.415   7.840 -0.1898 -1.1069  0.7723
  956MOL0     C31825   5.650   2.358   7.953  0.0261 -0.0541 -0.6654
  956MOL0     O31826   5.782   2.328   7.948  0.4358 -0.3664  0.0598
  956MOL0     C31827   5.859   2.267   8.054  1.0186  0.3959  0.1401
  956MOL0     C31828   6.013   2.278   8.058  0.4426  0.2115 -0.1922
  956MOL0     C31829   6.069   2.219   7.925 -0.5683  0.3299  0.3537
  956MOL0     C31830   6.225   2.219   7.924 -0.0983 -0.5599 -0.1916
  956MOL0     C31831   6.291   2.359   7.902  0.8764 -0.0466  0.5001
  956MOL0     C31832   6.448   2.341   7.885 -0.0384 -0.9899 -0.2278
  956MOL0     C31833   6.521   2.283   8.012  0.0055  0.6339  0.2991
  956MOL0     C31834   6.673   2.277   8.002 -0.3453  0.4090 -0.0707
  956MOL0    Cl31835   6.747   2.430   7.938  0.0637 -0.0717 -0.5230
  956MOL0     C31836   5.569   2.341   8.062 -0.4487  0.3932 -0.4766
  956MOL0     C31837   5.436   2.374   8.058 -0.1224  0.0167 -0.4876
  956MOL0     O31838   5.296   2.662   8.032 -0.4773  0.0424  0.1858
  956MOL0     C31839   5.052   2.760   7.958  0.2171 -0.4185 -0.5972
  956MOL0     C31840   4.918   2.811   7.950 -0.1164  0.0168 -0.9300
  956MOL0     N31841   4.183   2.684   8.206  0.5168 -0.3100  0.0268
  956MOL0     N31842   4.105   2.665   8.309  0.1410 -0.2589 -0.5346
  956MOL0     C31843   3.333   3.492   8.402 -0.1772  0.1936 -0.3181
  956MOL0     C31844   3.199   3.522   8.422 -0.1676 -1.0393 -0.0823
  956MOL0     C31845   2.860   3.794   8.398 -0.3147  0.3237  0.0343
  956MOL0     C31846   2.754   3.710   8.403 -0.5868 -0.0207 -0.1850
  956MOL0     C31847   2.626   3.758   8.409 -0.2074  0.8978 -0.6335
  956MOL0     C31848   2.599   3.898   8.413 -0.5180  0.2788 -0.9326
  956MOL0     O31849   2.478   3.951   8.404  0.6083 -0.6125 -0.4916
  956MOL0     C31850   2.368   3.875   8.359  0.3282 -0.1117 -0.4219
  956MOL0     C31851   2.258   3.969   8.326  0.4674 -0.3488  0.1738
  956MOL0     C31852   2.216   4.071   8.438 -0.0095 -0.4034  0.8444
  956MOL0     C31853   2.099   4.166   8.394  0.2233  0.8681  0.2157
  956MOL0     C31854   2.043   4.206   8.517 -0.2000 -0.3132 -0.5084
  956MOL0     C31855   1.990   4.256   8.619  0.0465 -0.1011 -0.3199
  956MOL0     C31856   2.707   3.990   8.415  0.0906  0.5810 -0.3096
  956MOL0     C31857   2.837   3.936   8.407  1.0117 -0.6825  0.5440
  956MOL0     C31858   2.949   4.035   8.400  0.6374 -0.4264  0.1220
  956MOL0     H31859   3.109   3.602   8.106  2.0554  1.2238 -1.4224
  956MOL0     H31860   3.350   3.555   8.065  1.3974  0.1530  0.2773
  956MOL0     H31861   3.553   3.417   8.059  0.0119  0.2872  0.6850
  956MOL0     H31862   3.447   3.300   8.139 -0.4340 -1.6952  0.0540
  956MOL0     H31863   3.687   3.219   8.100  0.4856  0.2421  0.1219
  956MOL0     H31864   3.737   3.349   8.220 -0.6454  1.9566 -2.0903
  956MOL0     H31865   3.579   3.253   8.386 -0.6651 -0.3712 -0.2344
  956MOL0     H31866   3.557   3.120   8.269 -0.6391  1.1772 -0.8573
  956MOL0     H31867   3.783   3.060   8.283  1.4174 -0.6537  0.5760
  956MOL0     H31868   3.821   3.194   8.393 -2.3169  2.5557 -2.3906
  956MOL0     H31869   3.642   2.947   8.440  2.3743 -2.1681  1.0503
  956MOL0     H31870   3.640   3.079   8.557 -0.9706  1.3106 -1.2644
  956MOL0     H31871   3.884   3.030   8.607  1.6308  0.1605 -0.7008
  956MOL0     H31872   3.782   2.891   8.616  0.4316  0.7454  0.1892
  956MOL0     H31873   3.945   2.963   8.362 -3.7599  2.3130 -0.5239
  956MOL0     H31874   3.840   2.824   8.380 -0.1521 -2.2831  2.8687
  956MOL0     H31875   4.080   2.855   8.568  0.6250 -3.3223  1.3138
  956MOL0     H31876   3.966   2.716   8.529 -0.2514  0.5662  1.5770
  956MOL0     H31877   4.202   2.977   8.348  0.2375 -0.5054 -0.2652
  956MOL0     H31878   4.260   2.983   8.078 -1.2146  0.6575  1.1551
  956MOL0     H31879   4.251   2.822   8.001  0.5220 -2.2240  1.2972
  956MOL0     H31880   4.481   2.871   8.184 -1.1801  0.9918  0.1503
  956MOL0     H31881   4.452   2.744   8.051  0.5035  0.2818 -0.8067
  956MOL0     H31882   4.457   2.920   7.889 -0.9127 -0.4031  1.3206
  956MOL0     H31883   4.487   3.038   8.008 -2.9260 -0.1681  1.6065
  956MOL0     H31884   4.705   2.947   7.895 -1.4613  0.2175 -1.4057
  956MOL0     H31885   4.705   2.941   8.075 -0.7743  1.7262 -0.5839
  956MOL0     H31886   4.752   2.527   7.996 -1.0683  1.6480 -1.0616
  956MOL0     H31887   5.060   2.369   8.084  0.7892 -0.3131 -0.1373
  956MOL0     H31888   4.999   2.353   7.921  0.3528  4.2234 -1.6697
  956MOL0     H31889   4.888   2.343   8.056  0.3171 -1.6291 -2.5198
  956MOL0     H31890   5.408   2.470   7.735  2.6402  0.5797 -0.2756
  956MOL0     H31891   5.653   2.408   7.752 -1.5291  0.3005 -0.3615
  956MOL0     H31892   5.829   2.307   8.151  1.9985 -1.4484  1.2539
  956MOL0     H31893   5.830   2.162   8.067  1.4195  0.0300 -1.6396
  956MOL0     H31894   6.047   2.381   8.073  1.0446  0.0053 -0.1044
  956MOL0     H31895   6.048   2.221   8.145 -3.0497 -0.9421  0.6506
  956MOL0     H31896   6.029   2.266   7.835 -0.4716  2.5829  1.3947
  956MOL0     H31897   6.056   2.111   7.930  0.0916  0.1381 -1.5697
  956MOL0     H31898   6.273   2.158   7.846  1.9240 -2.9090  2.6612
  956MOL0     H31899   6.256   2.164   8.014 -2.9729  0.1913  1.3711
  956MOL0     H31900   6.256   2.409   7.811 -1.7036  3.0053  2.9078
  956MOL0     H31901   6.256   2.413   7.991  1.5785 -1.5168  1.7188
  956MOL0     H31902   6.491   2.441   7.877 -1.1414 -0.3567  1.3135
  956MOL0     H31903   6.470   2.286   7.793  0.4387 -0.7254 -0.2715
  956MOL0     H31904   6.470   2.188   8.028  0.7053 -0.1219 -1.6475
  956MOL0     H31905   6.493   2.342   8.100 -0.5871  1.9769 -0.7427
  956MOL0     H31906   6.700   2.207   7.923 -1.3446  0.4045 -0.4221
  956MOL0     H31907   6.721   2.238   8.093 -0.7746 -4.2092 -1.5515
  956MOL0     H31908   5.610   2.302   8.155 -3.7017  0.0701  0.9895
  956MOL0     H31909   5.371   2.361   8.144  1.3194  2.2808  1.0190
  956MOL0     H31910   5.138   2.826   7.957 -0.9938  1.2665  0.2662
  956MOL0     H31911   4.896   2.912   7.917 -3.8353 -0.5530 -0.6061
  956MOL0     H31912   3.377   3.466   8.498 -2.0526  0.3625  0.6508
  956MOL0     H31913   3.160   3.503   8.521  1.0859 -0.7636  0.4881
  956MOL0     H31914   2.761   3.602   8.415 -0.1486  0.3157  4.6153
  956MOL0     H31915   2.543   3.687   8.412  1.3455 -0.9563  0.2961
  956MOL0     H31916   2.391   3.807   8.277  0.6477  0.2096 -0.6026
  956MOL0     H31917   2.340   3.809   8.442  2.6678  1.3857  1.6971
  956MOL0     H31918   2.167   3.911   8.306  0.1950 -0.6939  2.1577
  956MOL0     H31919   2.287   4.024   8.236  2.7803  1.0812  1.6819
  956MOL0     H31920   2.201   4.010   8.527  1.6182 -0.6609  0.9823
  956MOL0     H31921   2.296   4.139   8.470 -1.4016  0.3937  2.7937
  956MOL0     H31922   2.016   4.131   8.332  0.3989 -0.0410  0.4894
  956MOL0     H31923   2.148   4.245   8.336  1.8222 -0.4533 -0.3037
  956MOL0     H31924   1.954   4.307   8.706  0.3498  0.8588 -0.7562
  956MOL0     H31925   2.684   4.096   8.418  0.0063  0.5505  2.2795
  956MOL0     H31926   3.014   4.023   8.487  0.9317  0.4041  0.0297
  956MOL0     H31927   3.005   4.011   8.309  1.9826 -2.7508  1.4703
  956MOL0     H31928   2.916   4.140   8.397  2.0799  0.1945  2.7612
  957MOL0     O31929   5.694   6.904   7.491  0.1592  0.0039  0.0503
  957MOL0     C31930   5.590   6.906   7.559 -0.3728  0.4037 -0.3997
  957MOL0     O31931   5.548   6.816   7.660 -0.0183 -0.2968 -0.0593
  957MOL0     C31932   5.621   6.696   7.666  0.0491  1.0815  0.2529
  957MOL0     C31933   5.580   6.589   7.588 -0.1932  1.0648  0.4188
  957MOL0     C31934   5.658   6.473   7.599 -0.1498  0.1515  1.2331
  957MOL0     C31935   5.780   6.471   7.669 -0.1716  0.6568  0.6605
  957MOL0     O31936   5.845   6.352   7.692 -0.1807 -0.3253  0.0739
  957MOL0     C31937   5.992   6.352   7.712 -0.1791  0.0549 -0.6074
  957MOL0     C31938   6.052   6.230   7.648  0.0948  0.8058  0.2345
  957MOL0     C31939   6.193   6.203   7.696 -0.5587 -0.5166 -0.7456
  957MOL0     C31940   6.231   6.055   7.673  0.9616 -0.4757  0.9451
  957MOL0     C31941   6.385   6.040   7.659  0.2186  0.2465  1.0500
  957MOL0     C31942   6.468   6.065   7.785 -0.0286  0.4514 -0.4262
  957MOL0     C31943   6.621   6.048   7.746 -0.4939 -0.7412  0.0896
  957MOL0     C31944   6.708   6.134   7.841 -0.1689  0.1682  0.3714
  957MOL0     N31945   6.698   6.090   7.980  0.7626 -0.4011  0.1289
  957MOL0     C31946   6.794   6.015   8.049  0.3919 -0.4521 -0.7032
  957MOL0     C31947   6.751   6.003   8.173 -0.1102  1.1363 -0.2877
  957MOL0     C31948   6.823   5.937   8.291 -0.4354 -0.5823  0.0385
  957MOL0     C31949   6.941   6.026   8.331  0.6869 -0.4663  0.0417
  957MOL0     C31950   6.935   6.065   8.477 -0.0964  0.3719 -0.0039
  957MOL0     C31951   7.046   6.174   8.502  0.2275  0.0691  0.8049
  957MOL0     O31952   7.167   6.132   8.441 -0.1853 -0.0531 -0.2106
  957MOL0     C31953   7.256   6.068   8.513 -0.6444  0.7279 -0.1023
  957MOL0     C31954   7.380   6.040   8.451 -0.6352 -0.3332 -0.2987
  957MOL0     C31955   7.492   6.019   8.534  0.0510  0.4865 -0.3367
  957MOL0     C31956   7.622   6.038   8.473  0.2288 -0.0740  0.3644
  957MOL0     C31957   7.474   5.996   8.675 -0.0158 -0.1078 -0.2551
  957MOL0     C31958   7.594   5.970   8.763 -0.4592  0.0605 -0.0484
  957MOL0     O31959   7.583   5.878   8.859 -0.2104  0.1645  0.0537
  957MOL0     C31960   7.685   5.856   8.950 -0.5352 -1.4148  0.0213
  957MOL0     C31961   7.732   5.960   9.026 -0.0974 -0.7717 -0.1741
  957MOL0     C31962   7.831   5.942   9.114 -0.5120 -0.2828 -0.2264
  957MOL0     C31963   7.894   5.815   9.126  0.2046  0.4703 -0.6299
  957MOL0     O31964   8.014   5.822   9.192 -0.1085  1.0166 -0.7136
  957MOL0     C31965   8.049   5.710   9.268 -0.2410 -0.2104 -0.2070
  957MOL0     C31966   8.151   5.750   9.367 -0.3648  0.1566 -1.0282
  957MOL0     C31967   8.082   5.810   9.493  0.3197  0.5509  0.2773
  957MOL0     C31968   8.073   5.705   9.608  0.9851  0.3239 -0.0743
  957MOL0     C31969   8.004   5.736   9.737  0.3283  0.0861  0.1735
  957MOL0     C31970   8.009   5.623   9.840  0.2619 -0.3388 -0.7002
  957MOL0     C31971   7.918   5.643   9.967  0.3107 -0.2571  0.3548
  957MOL0     C31972   7.768   5.627   9.929  0.1975 -0.4390 -0.7557
  957MOL0    Cl31973   7.713   5.463   9.908  0.1035 -0.0203  0.4388
  957MOL0     C31974   7.842   5.704   9.054 -0.3497  0.0736  0.3442
  957MOL0     C31975   7.741   5.728   8.963  0.7698  1.1416  0.3635
  957MOL0     O31976   7.694   6.034   8.749 -0.0320 -0.8417 -0.5121
  957MOL0     C31977   7.344   5.995   8.730 -0.3804  0.7761  0.3066
  957MOL0     C31978   7.247   6.033   8.646  0.0796 -0.3160 -1.3123
  957MOL0     N31979   6.623   6.059   8.170  0.2287  0.1700  0.0107
  957MOL0     N31980   6.593   6.122   8.057 -0.6595 -0.5283 -0.5029
  957MOL0     C31981   5.821   6.588   7.732 -0.7185  0.0452 -0.5371
  957MOL0     C31982   5.741   6.696   7.733  0.5796  0.1269  0.5070
  957MOL0     C31983   5.509   7.030   7.530 -0.1080  0.3566  0.0563
  957MOL0     C31984   5.572   7.142   7.480  0.1988 -0.2004  0.8557
  957MOL0     C31985   5.500   7.255   7.439  0.1198  0.3346  0.1213
  957MOL0     C31986   5.364   7.266   7.452  0.4950 -0.5942  0.3863
  957MOL0     O31987   5.310   7.388   7.410 -0.6853 -0.3725  0.0113
  957MOL0     C31988   5.173   7.394   7.398  0.6110 -0.0868 -0.3935
  957MOL0     C31989   5.116   7.528   7.350  0.9542 -0.2216 -0.0439
  957MOL0     C31990   4.966   7.508   7.329  0.0621  0.7254  0.1985
  957MOL0     C31991   4.901   7.631   7.257 -0.5665 -0.7240 -0.8288
  957MOL0     C31992   4.961   7.654   7.119 -1.0369 -0.0562 -0.0051
  957MOL0     C31993   5.003   7.671   7.003  0.2177 -0.2260 -0.6426
  957MOL0     C31994   5.303   7.149   7.502  0.6668 -0.3566 -0.1139
  957MOL0     C31995   5.375   7.034   7.551  0.7396  0.4838  0.7364
  957MOL0     C31996   5.290   6.924   7.602  0.1346 -0.4275 -1.3366
  957MOL0     H31997   5.488   6.600   7.532  0.1291  1.5037 -0.0343
  957MOL0     H31998   5.643   6.384   7.539  2.1062  0.9767 -0.7368
  957MOL0     H31999   6.004   6.348   7.820 -2.0281  1.7185 -0.2704
  957MOL0     H32000   6.047   6.441   7.679  0.7164  0.1867  1.1596
  957MOL0     H32001   5.994   6.143   7.680 -0.9338  1.2737 -0.2990
  957MOL0     H32002   6.052   6.239   7.539  0.2305 -0.6221  0.0988
  957MOL0     H32003   6.259   6.272   7.643 -1.8590  0.6801 -0.8689
  957MOL0     H32004   6.190   6.232   7.801 -3.8769 -0.8562 -0.6614
  957MOL0     H32005   6.203   5.997   7.762 -0.8292 -1.4416 -0.1879
  957MOL0     H32006   6.188   6.009   7.584  1.3428 -2.3425  1.6892
  957MOL0     H32007   6.425   6.114   7.589  0.9427 -1.2796 -0.2126
  957MOL0     H32008   6.418   5.942   7.623  1.6419 -0.5144  4.1493
  957MOL0     H32009   6.451   6.170   7.812  1.0679  0.8700 -1.2839
  957MOL0     H32010   6.436   6.011   7.874 -0.6802  2.5062  0.6581
  957MOL0     H32011   6.648   6.093   7.651  0.2428  1.0677  1.1053
  957MOL0     H32012   6.655   5.944   7.749  0.5680 -0.4224 -0.4117
  957MOL0     H32013   6.815   6.125   7.816 -0.0906  0.9283  0.4059
  957MOL0     H32014   6.694   6.241   7.824  0.8847  0.2196 -0.3120
  957MOL0     H32015   6.884   5.966   8.015 -0.6663 -2.0844 -1.2726
  957MOL0     H32016   6.856   5.836   8.268 -0.1881 -0.2192 -1.3113
  957MOL0     H32017   6.751   5.937   8.373 -1.3798  0.8309 -0.7349
  957MOL0     H32018   7.035   5.973   8.314  1.1801  0.7295 -1.1070
  957MOL0     H32019   6.935   6.119   8.274  0.3373  0.0981  0.9785
  957MOL0     H32020   6.832   6.099   8.494 -0.6606 -1.2871  0.1224
  957MOL0     H32021   6.973   5.982   8.538  3.7165  1.3261 -0.8156
  957MOL0     H32022   7.008   6.259   8.445 -1.2124 -1.0479 -0.0016
  957MOL0     H32023   7.051   6.190   8.610 -0.2415  1.4947  0.6366
  957MOL0     H32024   7.403   6.074   8.350  0.5083  0.2553  0.1388
  957MOL0     H32025   7.661   6.136   8.499  0.8507 -0.8785  2.6818
  957MOL0     H32026   7.612   6.035   8.364  0.1418  0.6142  0.3519
  957MOL0     H32027   7.682   5.953   8.506 -0.2272 -0.6531 -0.2619
  957MOL0     H32028   7.689   6.059   9.017 -0.1894 -0.5546  1.9755
  957MOL0     H32029   7.859   6.032   9.169  0.6688 -0.3352 -0.7085
  957MOL0     H32030   7.957   5.674   9.317 -0.6637  2.4429  1.1313
  957MOL0     H32031   8.082   5.632   9.198 -1.0653 -1.3983  0.6705
  957MOL0     H32032   8.205   5.658   9.390 -2.1536 -0.4740  0.9714
  957MOL0     H32033   8.212   5.828   9.321  1.5708  1.7487  3.6628
  957MOL0     H32034   7.980   5.833   9.461 -0.1222 -0.2775  1.0432
  957MOL0     H32035   8.126   5.908   9.512 -1.8795  1.7032 -0.2351
  957MOL0     H32036   8.175   5.673   9.629  1.5733  1.8229 -0.4850
  957MOL0     H32037   8.014   5.626   9.562  0.4615 -0.0608  1.2077
  957MOL0     H32038   8.042   5.820   9.797 -1.4857 -0.1886  1.7857
  957MOL0     H32039   7.902   5.766   9.713  1.0572  0.7630 -2.4166
  957MOL0     H32040   8.111   5.615   9.878 -0.7959 -4.7594  1.9745
  957MOL0     H32041   7.990   5.525   9.797  0.0895 -0.7544  0.3016
  957MOL0     H32042   7.932   5.743  10.009  0.1749 -0.4087  0.7600
  957MOL0     H32043   7.935   5.572  10.048 -0.0418  0.0604  0.7157
  957MOL0     H32044   7.751   5.685   9.837 -2.7970  1.4540  0.8288
  957MOL0     H32045   7.713   5.688  10.000  0.5103  2.3253 -2.7187
  957MOL0     H32046   7.888   5.608   9.072 -1.6238 -0.0301  3.6478
  957MOL0     H32047   7.714   5.648   8.894 -0.7618  1.2556  0.7954
  957MOL0     H32048   7.328   5.973   8.836 -1.9126  1.2483  0.1962
  957MOL0     H32049   7.153   6.030   8.701  0.4287 -0.8859 -0.7475
  957MOL0     H32050   5.900   6.595   7.806 -2.7219  1.4459  1.6124
  957MOL0     H32051   5.769   6.780   7.796 -0.1467  1.0824 -0.4237
  957MOL0     H32052   5.679   7.145   7.463  0.1593  0.5296  0.7303
  957MOL0     H32053   5.559   7.330   7.387 -0.7049  2.7042  2.4174
  957MOL0     H32054   5.136   7.308   7.341 -1.1053  0.9788 -0.9821
  957MOL0     H32055   5.139   7.381   7.501  1.0778  0.9934 -0.0860
  957MOL0     H32056   5.162   7.556   7.255 -1.5805  1.0141 -1.0017
  957MOL0     H32057   5.132   7.606   7.426 -0.3159 -2.0863  2.2712
  957MOL0     H32058   4.933   7.416   7.279 -0.5292 -0.4095  2.5543
  957MOL0     H32059   4.912   7.500   7.424 -1.2419 -2.7152 -0.6597
  957MOL0     H32060   4.926   7.717   7.321 -0.9553 -1.3643  0.2015
  957MOL0     H32061   4.794   7.621   7.240 -0.4347 -0.3626 -1.9531
  957MOL0     H32062   5.039   7.686   6.904  0.6335 -0.1330 -0.4781
  957MOL0     H32063   5.196   7.163   7.508  0.7479 -0.0213  0.8283
  957MOL0     H32064   5.325   6.832   7.553 -1.5378 -3.3198  2.4430
  957MOL0     H32065   5.303   6.914   7.710 -0.4664 -1.2310 -1.3310
  957MOL0     H32066   5.185   6.946   7.584  0.5095  2.8618 -0.2489
  958MOL0     O32067   5.699  10.645   4.307 -0.1124  0.1156 -0.4730
  958MOL0     C32068   5.739  10.607   4.417 -0.5035 -0.7546 -1.2865
  958MOL0     O32069   5.677  10.522   4.500 -0.1860 -0.0785 -0.6698
  958MOL0     C32070   5.572  10.446   4.458  1.2100  0.5042 -0.0475
  958MOL0     C32071   5.549  10.401   4.323  0.8857  0.4914  0.5606
  958MOL0     C32072   5.435  10.336   4.288 -0.1170 -0.0859  0.8741
  958MOL0     C32073   5.341  10.296   4.391 -0.6770 -0.6601  0.3316
  958MOL0     O32074   5.228  10.224   4.347 -0.4131  0.2874  0.2818
  958MOL0     C32075   5.107  10.243   4.426  0.3008  0.0471  0.0332
  958MOL0     C32076   4.984  10.203   4.339 -0.7308  0.3093 -0.2936
  958MOL0     C32077   4.987  10.068   4.274 -0.1194  0.0714  0.1114
  958MOL0     C32078   4.855   9.997   4.243 -0.1814  0.3156  0.5225
  958MOL0     C32079   4.757   9.990   4.364 -0.6001 -0.3741  1.5069
  958MOL0     C32080   4.668   9.867   4.345  0.7797  1.1467 -0.8948
  958MOL0     C32081   4.602   9.849   4.485  0.1207  0.2096  0.4034
  958MOL0     C32082   4.497   9.737   4.477 -0.4378 -0.4534 -0.1479
  958MOL0     N32083   4.411   9.753   4.601  0.4673 -0.7367 -0.9202
  958MOL0     C32084   4.357   9.644   4.670  0.1653 -0.4375 -0.3543
  958MOL0     C32085   4.244   9.695   4.737 -0.0424  0.0185  0.3756
  958MOL0     C32086   4.148   9.621   4.819  0.1921 -0.5193  0.2820
  958MOL0     C32087   4.224   9.563   4.949  0.3099 -0.2787  0.9309
  958MOL0     C32088   4.139   9.460   5.012 -0.5737 -0.7063  0.1720
  958MOL0     C32089   4.219   9.389   5.117 -0.2979  0.0341  0.4950
  958MOL0     O32090   4.258   9.480   5.226 -0.0647 -0.2726 -0.0320
  958MOL0     C32091   4.157   9.503   5.317 -0.0018  0.3227  0.7901
  958MOL0     C32092   4.114   9.398   5.399  0.0457 -0.6428 -0.1509
  958MOL0     C32093   4.006   9.415   5.487  0.2556 -0.9584 -0.0262
  958MOL0     C32094   3.970   9.293   5.565 -0.6740 -0.1593  0.4061
  958MOL0     C32095   3.940   9.539   5.495  0.3106  0.0130 -0.9454
  958MOL0     C32096   3.813   9.565   5.576 -0.3186  0.1983 -0.1976
  958MOL0     O32097   3.772   9.692   5.581 -0.1906  0.1764  0.0503
  958MOL0     C32098   3.668   9.726   5.666  0.0476 -0.0345  0.0554
  958MOL0     C32099   3.539   9.700   5.624  0.2322 -0.4450 -0.4035
  958MOL0     C32100   3.429   9.754   5.688  0.3015 -0.8269 -0.6624
  958MOL0     C32101   3.440   9.829   5.812  0.4026  0.6948 -0.5489
  958MOL0     O32102   3.326   9.879   5.879  0.1545 -0.1689  0.2668
  958MOL0     C32103   3.335   9.841   6.018 -0.0013 -0.2524 -0.6871
  958MOL0     C32104   3.201   9.871   6.077  0.9377 -0.2812  0.3094
  958MOL0     C32105   3.094   9.770   6.025 -0.2865  0.2111 -1.0742
  958MOL0     C32106   2.964   9.789   6.101  0.2305  0.0913  0.5622
  958MOL0     C32107   2.863   9.683   6.079 -0.2504  0.3502 -0.7346
  958MOL0     C32108   2.762   9.673   6.189  0.5631 -0.4749 -0.3766
  958MOL0     C32109   2.648   9.571   6.152 -0.4373 -0.0657  0.0332
  958MOL0     C32110   2.535   9.562   6.254 -0.0581  0.5341  0.4686
  958MOL0    Cl32111   2.596   9.499   6.410  0.3202  0.0695  0.5317
  958MOL0     C32112   3.572   9.849   5.851 -0.6289 -0.4939 -0.1010
  958MOL0     C32113   3.690   9.810   5.774 -0.4099  0.0015 -0.4138
  958MOL0     O32114   3.762   9.474   5.635  0.1883  0.7200 -0.4336
  958MOL0     C32115   3.995   9.641   5.416  0.1610  0.7163  0.6354
  958MOL0     C32116   4.097   9.625   5.328 -0.5486 -0.0329  0.1101
  958MOL0     N32117   4.230   9.831   4.709  0.0397  0.1664 -0.2509
  958MOL0     N32118   4.331   9.865   4.637 -0.7080 -1.0823  0.4457
  958MOL0     C32119   5.376  10.318   4.517  0.3761  0.3517  0.8917
  958MOL0     C32120   5.491  10.388   4.556  0.5285 -0.0402 -0.8297
  958MOL0     C32121   5.876  10.648   4.454 -0.7908 -0.1016  0.6573
  958MOL0     C32122   5.954  10.558   4.536  1.4198  0.0140 -0.8578
  958MOL0     C32123   6.085  10.581   4.580  0.6813 -0.4655  0.2517
  958MOL0     C32124   6.144  10.698   4.545 -0.4131 -0.7554  0.6392
  958MOL0     O32125   6.276  10.705   4.591  0.4629  0.5100 -0.1039
  958MOL0     C32126   6.360  10.797   4.514 -0.0628 -0.3907 -0.8427
  958MOL0     C32127   6.493  10.726   4.484  0.0671 -0.6336  0.8362
  958MOL0     C32128   6.601  10.819   4.426 -0.3051 -0.1563  0.8182
  958MOL0     C32129   6.733  10.743   4.422  0.9142 -0.3728 -0.9004
  958MOL0     C32130   6.849  10.805   4.355 -0.7320  0.8732 -0.0204
  958MOL0     C32131   6.936  10.858   4.291 -0.0217  0.2170 -0.0830
  958MOL0     C32132   6.078  10.792   4.452 -0.4329  0.7820 -0.2835
  958MOL0     C32133   5.942  10.766   4.411  0.6171 -0.8310 -0.0529
  958MOL0     C32134   5.870  10.883   4.350 -0.1458 -0.0514  0.4580
  958MOL0     H32135   5.614  10.428   4.240  0.2006 -0.0383 -0.1569
  958MOL0     H32136   5.410  10.303   4.188 -0.9076 -0.8827  1.3099
  958MOL0     H32137   5.095  10.341   4.473 -1.0346 -0.3127  0.4782
  958MOL0     H32138   5.107  10.172   4.510  3.4620  0.2815  0.3739
  958MOL0     H32139   4.903  10.200   4.413 -0.4640 -0.7801 -0.0384
  958MOL0     H32140   4.964  10.276   4.259 -1.4155  0.8560  0.3513
  958MOL0     H32141   5.035  10.081   4.176 -0.7228  0.5298 -0.1301
  958MOL0     H32142   5.047  10.003   4.338  2.6761  2.9837  0.6699
  958MOL0     H32143   4.803  10.042   4.158  1.7515  0.9380 -0.3858
  958MOL0     H32144   4.876   9.894   4.213 -0.3213  0.4959 -0.2070
  958MOL0     H32145   4.696  10.080   4.378 -0.6912 -0.4608  1.6690
  958MOL0     H32146   4.824   9.981   4.450  1.7772  0.4492 -0.1341
  958MOL0     H32147   4.597   9.887   4.264  1.2353  0.8295 -1.3895
  958MOL0     H32148   4.731   9.780   4.320 -0.3689 -1.4596  4.1386
  958MOL0     H32149   4.558   9.944   4.515  1.1393  0.7117  0.3523
  958MOL0     H32150   4.673   9.815   4.561  0.4607  1.0438  0.4681
  958MOL0     H32151   4.425   9.763   4.399 -2.7789 -0.1418  1.9881
  958MOL0     H32152   4.545   9.640   4.461 -0.7520 -0.7038  0.3848
  958MOL0     H32153   4.403   9.546   4.673  0.2771 -0.4509 -1.6536
  958MOL0     H32154   4.118   9.536   4.756  0.6281 -2.4117  2.4854
  958MOL0     H32155   4.064   9.677   4.862 -0.4511  0.9411 -2.6625
  958MOL0     H32156   4.312   9.513   4.908  0.0861 -0.7041  0.9582
  958MOL0     H32157   4.251   9.648   5.012 -2.9980  2.1556 -0.6427
  958MOL0     H32158   4.055   9.516   5.055  0.6176 -0.2880  2.0987
  958MOL0     H32159   4.094   9.392   4.940  0.1695 -0.3251 -0.6668
  958MOL0     H32160   4.159   9.310   5.163 -1.3917  1.1986  1.1480
  958MOL0     H32161   4.310   9.345   5.075 -0.6336 -1.5498  1.3501
  958MOL0     H32162   4.159   9.299   5.392  1.2624 -0.3175  2.2414
  958MOL0     H32163   3.961   9.311   5.673 -0.5930 -3.3574  1.0446
  958MOL0     H32164   4.052   9.221   5.556 -2.6821 -2.4110 -0.9066
  958MOL0     H32165   3.890   9.234   5.520  0.7212 -0.9547 -1.1431
  958MOL0     H32166   3.512   9.659   5.527 -1.8008  0.4706 -0.2843
  958MOL0     H32167   3.328   9.750   5.649 -0.2372 -1.7671  0.7567
  958MOL0     H32168   3.358   9.735   6.032  0.5393 -0.3458 -2.0895
  958MOL0     H32169   3.410   9.900   6.070 -1.3832 -1.1001  2.5115
  958MOL0     H32170   3.213   9.863   6.185  0.2996  0.6845  0.4685
  958MOL0     H32171   3.174   9.975   6.058  3.0290  0.0444 -1.2760
  958MOL0     H32172   3.143   9.673   6.039  2.3907  1.4310 -1.2591
  958MOL0     H32173   3.085   9.773   5.916  2.6125  2.2238 -1.3617
  958MOL0     H32174   2.934   9.886   6.062  0.8204  1.3525  3.0418
  958MOL0     H32175   2.980   9.811   6.207  0.2626  0.3182  0.5105
  958MOL0     H32176   2.815   9.674   5.981 -1.3760  0.9840 -0.2692
  958MOL0     H32177   2.919   9.589   6.087 -2.2671 -0.7708  1.9451
  958MOL0     H32178   2.709   9.769   6.193 -1.1276 -1.3895  0.4635
  958MOL0     H32179   2.808   9.646   6.284  0.3602  0.5412  0.0284
  958MOL0     H32180   2.692   9.472   6.137 -0.2977 -0.0668  0.4317
  958MOL0     H32181   2.600   9.609   6.061 -2.0684 -0.8405  0.5398
  958MOL0     H32182   2.453   9.499   6.219  2.4964 -1.9186 -1.5888
  958MOL0     H32183   2.492   9.660   6.274 -2.5060 -0.7579  2.0818
  958MOL0     H32184   3.587   9.915   5.937 -2.1732  1.2494 -1.0901
  958MOL0     H32185   3.787   9.852   5.798 -1.2795  0.9063  1.8531
  958MOL0     H32186   3.947   9.738   5.415 -0.9565  0.1936 -1.1231
  958MOL0     H32187   4.135   9.714   5.279  0.7985  1.1832  3.1191
  958MOL0     H32188   5.307  10.284   4.593 -1.4310 -2.4946 -1.7972
  958MOL0     H32189   5.507  10.402   4.662 -0.9977 -1.7500 -0.3177
  958MOL0     H32190   5.908  10.465   4.569 -1.7081  1.2180 -1.5782
  958MOL0     H32191   6.129  10.507   4.646 -2.2763 -1.4228  1.3343
  958MOL0     H32192   6.321  10.821   4.414  3.0743 -0.7208 -2.2634
  958MOL0     H32193   6.367  10.884   4.579 -1.9525 -0.4378 -0.5080
  958MOL0     H32194   6.473  10.640   4.420  3.1409  1.0240 -2.7551
  958MOL0     H32195   6.525  10.684   4.580 -0.8880 -1.1866  0.9225
  958MOL0     H32196   6.583  10.834   4.319  1.2557 -1.7688  0.2816
  958MOL0     H32197   6.603  10.918   4.472  1.4642 -1.0553  2.8111
  958MOL0     H32198   6.719  10.649   4.369 -0.2192 -0.7552  0.0460
  958MOL0     H32199   6.760  10.724   4.526 -1.1468 -3.9228 -0.8656
  958MOL0     H32200   7.020  10.906   4.246 -0.1957  1.6403  1.0542
  958MOL0     H32201   6.122  10.885   4.417 -0.0481  1.6675  2.3557
  958MOL0     H32202   5.934  10.970   4.332 -1.4440  1.3347  2.2344
  958MOL0     H32203   5.838  10.848   4.251  1.3269 -0.4344  0.0835
  958MOL0     H32204   5.795  10.916   4.421  1.6343  0.4636  2.1984
  959MOL0     O32205   8.674  11.096   3.845  0.0919 -0.6953  0.3780
  959MOL0     C32206   8.578  11.173   3.859  0.1462  0.7680  0.3508
  959MOL0     O32207   8.562  11.259   3.970  0.2431 -0.1190  0.0456
  959MOL0     C32208   8.677  11.276   4.046  0.7228  0.1262  1.0325
  959MOL0     C32209   8.786  11.347   3.993  0.7988  0.4083  0.6825
  959MOL0     C32210   8.901  11.368   4.066 -0.1945  0.3429  0.1118
  959MOL0     C32211   8.902  11.329   4.200 -0.8811 -0.8980 -0.0252
  959MOL0     O32212   9.000  11.339   4.298 -0.0592 -0.5184 -0.5794
  959MOL0     C32213   9.117  11.418   4.289 -0.8596 -0.3951 -0.2360
  959MOL0     C32214   9.224  11.319   4.254  0.1118 -0.5935  0.1611
  959MOL0     C32215   9.369  11.374   4.243 -0.1862 -0.0448  0.5930
  959MOL0     C32216   9.446  11.398   4.373 -0.3953 -0.1478 -0.0911
  959MOL0     C32217   9.584  11.464   4.341  0.2107  1.1417 -0.3418
  959MOL0     C32218   9.707  11.408   4.425  0.2066 -0.3337 -0.2528
  959MOL0     C32219   9.816  11.517   4.424 -0.0477  0.0657 -0.4352
  959MOL0     C32220   9.954  11.457   4.446  0.3575  0.0267  0.5216
  959MOL0     N32221  10.051  11.570   4.460 -0.8598  0.3063 -0.6947
  959MOL0     C32222  10.079  11.649   4.573  0.1359 -0.3702  0.0131
  959MOL0     C32223  10.201  11.688   4.550 -0.1561 -0.1869  0.0688
  959MOL0     C32224  10.294  11.770   4.637  0.2815 -0.2194  0.1485
  959MOL0     C32225  10.306  11.911   4.601 -0.3557 -0.2277  0.8474
  959MOL0     C32226  10.411  11.982   4.688  0.4826 -0.2520  0.1269
  959MOL0     C32227  10.435  12.129   4.626 -0.3164  0.0540 -0.8409
  959MOL0     O32228  10.506  12.122   4.503  0.2528 -0.0483 -0.0413
  959MOL0     C32229  10.644  12.109   4.501 -0.0294 -0.0465  0.3795
  959MOL0     C32230  10.731  12.074   4.605  0.1878 -0.9822 -0.2058
  959MOL0     C32231  10.869  12.051   4.586 -1.0788 -1.0098  0.4449
  959MOL0     C32232  10.952  12.001   4.704  0.1599  0.0696  0.0421
  959MOL0     C32233  10.932  12.095   4.463  0.9420 -0.4956 -0.0006
  959MOL0     C32234  11.072  12.077   4.424  0.6867 -0.2620 -0.1085
  959MOL0     O32235  11.129  12.164   4.336  0.5640  0.2207 -1.1434
  959MOL0     C32236  11.253  12.127   4.291  0.1375 -0.0167 -0.4013
  959MOL0     C32237  11.376  12.154   4.358 -0.3860 -0.5796 -0.2043
  959MOL0     C32238  11.499  12.137   4.300 -0.4363  0.8786 -0.0788
  959MOL0     C32239  11.512  12.069   4.180  0.1451 -0.0270 -1.1052
  959MOL0     O32240  11.631  12.046   4.119  0.0237  0.8896  0.3274
  959MOL0     C32241  11.743  11.977   4.185  0.7359 -0.6710 -0.5901
  959MOL0     C32242  11.839  12.079   4.254 -0.4028  1.0471 -0.6109
  959MOL0     C32243  11.895  12.188   4.158 -0.8430 -0.0920  0.0962
  959MOL0     C32244  12.024  12.243   4.214  0.3722 -0.4164  0.0059
  959MOL0     C32245  12.048  12.387   4.180 -0.3193 -0.8851 -0.0984
  959MOL0     C32246  12.041  12.424   4.032 -0.2579  0.0740 -0.0308
  959MOL0     C32247  12.020  12.573   4.028  0.7459 -0.5549 -0.1306
  959MOL0     C32248  12.000  12.625   3.890  0.2940  0.7535 -0.3847
  959MOL0    Cl32249  12.152  12.653   3.812  0.3344  0.3411 -0.1632
  959MOL0     C32250  11.392  12.044   4.110  0.3633 -0.4903  0.0926
  959MOL0     C32251  11.266  12.070   4.166 -0.1458 -0.8343 -0.1232
  959MOL0     O32252  11.124  11.982   4.477 -0.5481 -0.4223  0.3289
  959MOL0     C32253  10.848  12.144   4.361  0.3515  0.3553 -0.3878
  959MOL0     C32254  10.708  12.149   4.381  0.7575 -0.4306 -0.2846
  959MOL0     N32255  10.241  11.646   4.422 -0.0463 -0.6033  0.2756
  959MOL0     N32256  10.153  11.583   4.360  0.0232 -0.2428  0.1368
  959MOL0     C32257   8.787  11.254   4.252 -0.6758 -0.7748  0.4713
  959MOL0     C32258   8.679  11.222   4.170  0.1322  0.4993 -0.2290
  959MOL0     C32259   8.464  11.177   3.758 -0.1248  0.1692 -0.1381
  959MOL0     C32260   8.360  11.275   3.771 -0.0568 -0.1843 -1.1530
  959MOL0     C32261   8.243  11.278   3.700  0.6455  0.4370  0.3646
  959MOL0     C32262   8.230  11.193   3.592  0.0533  0.3348 -0.0811
  959MOL0     O32263   8.133  11.202   3.496  0.1476 -0.3112 -0.1852
  959MOL0     C32264   8.022  11.295   3.509 -0.6946 -1.3079  0.8282
  959MOL0     C32265   7.914  11.246   3.409 -1.0730 -0.0271  0.1417
  959MOL0     C32266   7.800  11.343   3.396  0.3926 -0.1244  0.2702
  959MOL0     C32267   7.708  11.278   3.293  0.7327 -0.1133  0.3722
  959MOL0     C32268   7.566  11.291   3.330  0.8503  0.1134  0.0236
  959MOL0     C32269   7.449  11.329   3.344 -0.0792 -0.2046 -0.5721
  959MOL0     C32270   8.334  11.103   3.571 -0.0915  0.4518  0.3557
  959MOL0     C32271   8.445  11.089   3.650  0.3879  0.4241  0.2612
  959MOL0     C32272   8.540  10.987   3.621 -0.2929  0.7749  0.0586
  959MOL0     H32273   8.799  11.376   3.889  0.6244  0.4568  0.6746
  959MOL0     H32274   8.979  11.413   4.006 -2.0896  2.8835 -0.6176
  959MOL0     H32275   9.136  11.476   4.380 -1.3264  0.9087 -0.9435
  959MOL0     H32276   9.111  11.486   4.204 -2.2393 -0.5339 -0.2757
  959MOL0     H32277   9.236  11.241   4.330 -0.6588  0.8259  1.8220
  959MOL0     H32278   9.206  11.279   4.154 -0.3860  1.9691 -0.8587
  959MOL0     H32279   9.422  11.306   4.176 -0.2427  1.0120 -0.5368
  959MOL0     H32280   9.365  11.469   4.190 -0.1142  0.5515  1.6170
  959MOL0     H32281   9.396  11.467   4.442 -0.1302 -0.5184  0.4891
  959MOL0     H32282   9.464  11.306   4.430  1.3562 -0.3628 -0.9101
  959MOL0     H32283   9.571  11.569   4.368  0.2859  0.4179  2.9296
  959MOL0     H32284   9.616  11.458   4.237  2.8282  3.9472  0.1487
  959MOL0     H32285   9.676  11.386   4.527 -1.6218  1.6887 -0.2950
  959MOL0     H32286   9.748  11.314   4.387  2.4495  0.0777  1.0020
  959MOL0     H32287   9.799  11.586   4.508 -2.9667 -0.4275 -0.5006
  959MOL0     H32288   9.805  11.573   4.330 -0.5839 -0.9552 -0.9953
  959MOL0     H32289   9.959  11.397   4.538 -0.6980  0.6089  0.9838
  959MOL0     H32290   9.972  11.389   4.362 -0.3194 -0.0283  0.4128
  959MOL0     H32291  10.020  11.653   4.664 -1.2650 -1.2093 -0.8221
  959MOL0     H32292  10.395  11.727   4.649  0.5812  0.5783  0.5742
  959MOL0     H32293  10.262  11.754   4.741 -0.1020 -0.9339 -0.0758
  959MOL0     H32294  10.344  11.913   4.498 -2.1190  1.5221  0.1858
  959MOL0     H32295  10.215  11.971   4.598  1.1056  2.2924  2.6110
  959MOL0     H32296  10.364  11.991   4.786  0.8472 -2.4584  0.5661
  959MOL0     H32297  10.502  11.922   4.688 -0.3465 -1.6249 -1.5159
  959MOL0     H32298  10.344  12.190   4.628 -1.3302 -1.3646  1.4258
  959MOL0     H32299  10.498  12.171   4.705 -0.1894 -0.9934 -0.3656
  959MOL0     H32300  10.696  12.062   4.707 -2.2273 -2.2560 -1.1091
  959MOL0     H32301  11.016  12.085   4.732  0.7383 -0.0785 -0.7705
  959MOL0     H32302  11.001  11.905   4.681  0.9862  0.6786 -0.8105
  959MOL0     H32303  10.887  11.984   4.790 -3.5395  1.3376 -2.2916
  959MOL0     H32304  11.357  12.216   4.445 -0.0109 -0.5934 -0.1129
  959MOL0     H32305  11.585  12.185   4.345 -0.3759  1.3107 -0.6557
  959MOL0     H32306  11.703  11.907   4.259 -1.2206 -0.0933 -1.0484
  959MOL0     H32307  11.785  11.923   4.099 -1.1970 -0.1037 -1.9487
  959MOL0     H32308  11.788  12.126   4.338  0.4628  0.6601  0.1459
  959MOL0     H32309  11.927  12.031   4.298 -0.1133  2.6335  0.6600
  959MOL0     H32310  11.820  12.266   4.137  1.0284  1.1692 -2.4087
  959MOL0     H32311  11.914  12.148   4.058  1.3928  1.4914 -0.1929
  959MOL0     H32312  12.104  12.186   4.166 -0.1444 -1.4897  0.4031
  959MOL0     H32313  12.034  12.221   4.320 -0.3539 -2.8167 -0.3607
  959MOL0     H32314  11.970  12.435   4.239 -0.1370 -1.7819  0.9082
  959MOL0     H32315  12.142  12.418   4.226 -0.1757 -2.8711  1.0629
  959MOL0     H32316  11.959  12.371   3.982 -1.1021  1.4752 -0.1950
  959MOL0     H32317  12.132  12.390   3.982 -0.5623  2.0007 -2.0654
  959MOL0     H32318  12.110  12.622   4.064  1.9443 -1.3786 -1.8381
  959MOL0     H32319  11.931  12.596   4.087 -1.2412 -3.3498 -1.7603
  959MOL0     H32320  11.956  12.725   3.892  1.2723  1.2726 -2.1953
  959MOL0     H32321  11.935  12.555   3.835  1.2326 -0.7884  0.4223
  959MOL0     H32322  11.420  12.001   4.015 -0.9083 -0.7333 -0.2013
  959MOL0     H32323  11.181  12.061   4.099  0.4720  1.0043 -1.2328
  959MOL0     H32324  10.876  12.165   4.258  1.7749  3.2186  0.4634
  959MOL0     H32325  10.660  12.185   4.291 -0.3501 -1.6494 -0.2121
  959MOL0     H32326   8.791  11.221   4.356  4.1161 -1.8918  0.1585
  959MOL0     H32327   8.594  11.164   4.203 -0.3415  0.8032 -0.9017
  959MOL0     H32328   8.358  11.353   3.847 -3.0754 -0.7773 -0.5305
  959MOL0     H32329   8.165  11.353   3.714 -0.3281 -0.2969 -0.9881
  959MOL0     H32330   7.986  11.306   3.611  1.8097 -0.7420  1.7235
  959MOL0     H32331   8.055  11.395   3.477 -2.0496 -2.0149 -3.5346
  959MOL0     H32332   7.885  11.146   3.442  1.8008 -1.9442 -2.4837
  959MOL0     H32333   7.957  11.239   3.308  0.7168  0.1747  0.8574
  959MOL0     H32334   7.751  11.354   3.493 -0.1579  2.5918 -0.2513
  959MOL0     H32335   7.841  11.436   3.357 -0.7140  0.5627  0.7000
  959MOL0     H32336   7.730  11.173   3.273 -0.3355 -0.1624 -0.6560
  959MOL0     H32337   7.728  11.317   3.193 -2.6049 -0.3004 -0.4562
  959MOL0     H32338   7.350  11.366   3.360  0.3238  1.7668 -2.1671
  959MOL0     H32339   8.324  11.037   3.486  0.9540  1.1172 -0.3063
  959MOL0     H32340   8.517  10.916   3.541 -0.1788 -1.5919  2.0149
  959MOL0     H32341   8.635  11.033   3.593  1.0189 -0.2804  2.4602
  959MOL0     H32342   8.568  10.932   3.712 -1.5310  0.1134  0.0627
  960MOL0     O32343   1.657   2.658   7.473  0.4665 -0.1491  0.1377
  960MOL0     C32344   1.663   2.633   7.352 -1.2855  0.1492  0.0767
  960MOL0     O32345   1.777   2.597   7.284  0.3890 -0.1330  0.2137
  960MOL0     C32346   1.894   2.578   7.345  0.3192 -0.4260 -0.6960
  960MOL0     C32347   2.000   2.663   7.306  0.0432  0.2642  0.4361
  960MOL0     C32348   2.117   2.664   7.378 -0.5137 -0.3963 -0.0982
  960MOL0     C32349   2.140   2.579   7.491 -0.6493  0.3140  0.2919
  960MOL0     O32350   2.250   2.604   7.566 -0.1257 -0.8239  0.4150
  960MOL0     C32351   2.334   2.493   7.608 -1.2237  0.5564 -0.0278
  960MOL0     C32352   2.415   2.435   7.493 -0.2825  0.0748  0.3193
  960MOL0     C32353   2.491   2.533   7.405  0.2417  0.3666  0.3073
  960MOL0     C32354   2.554   2.462   7.279 -0.8535  0.1866  0.0720
  960MOL0     C32355   2.675   2.393   7.326  0.0145 -0.4261 -0.5150
  960MOL0     C32356   2.736   2.314   7.215  0.9614 -0.0532 -0.1126
  960MOL0     C32357   2.872   2.272   7.253 -0.1267  0.1786  0.9295
  960MOL0     C32358   2.904   2.147   7.168  0.4745 -0.3520 -0.7576
  960MOL0     N32359   3.040   2.108   7.199 -0.5515 -0.6958 -0.1437
  960MOL0     C32360   3.086   1.991   7.251 -0.0014 -0.4261  0.0785
  960MOL0     C32361   3.218   2.008   7.243  0.0448 -0.8535 -0.0228
  960MOL0     C32362   3.311   1.917   7.309 -0.2471 -0.4096  0.1853
  960MOL0     C32363   3.446   1.992   7.321  0.4389  0.2936  0.2008
  960MOL0     C32364   3.537   1.913   7.420  0.4392  0.1240 -0.3994
  960MOL0     C32365   3.684   1.961   7.401 -0.3577 -0.7448 -0.0446
  960MOL0     O32366   3.754   1.894   7.290 -0.3651  0.7767 -0.5386
  960MOL0     C32367   3.890   1.912   7.279  0.8216  1.2762 -0.0075
  960MOL0     C32368   3.966   1.983   7.376  0.0275  0.0332  0.5167
  960MOL0     C32369   4.107   2.005   7.360  0.1541 -0.0623  0.8892
  960MOL0     C32370   4.166   2.098   7.465  0.1577  0.1890  0.5523
  960MOL0     C32371   4.181   1.956   7.247  0.8001  0.0890  0.2466
  960MOL0     C32372   4.333   1.974   7.217  0.5767  0.1197  1.5868
  960MOL0     O32373   4.378   1.908   7.109  0.0027  0.7089 -0.2046
  960MOL0     C32374   4.504   1.916   7.057 -0.4931 -0.4033 -0.4844
  960MOL0     C32375   4.602   2.016   7.089 -0.5709 -0.8838  0.6618
  960MOL0     C32376   4.729   2.007   7.040 -0.9398  0.8611  0.0105
  960MOL0     C32377   4.766   1.894   6.954  0.2703  0.4423 -0.8749
  960MOL0     O32378   4.900   1.871   6.918  0.3408 -0.0821 -0.3350
  960MOL0     C32379   4.990   1.983   6.924  0.4548 -0.0406 -0.0188
  960MOL0     C32380   5.128   1.948   6.849  0.5846  0.1628  0.4550
  960MOL0     C32381   5.105   1.932   6.693  0.2824  0.6108  0.3908
  960MOL0     C32382   5.122   2.059   6.609 -0.2255  0.1673  0.0113
  960MOL0     C32383   5.096   2.029   6.460  0.2288  0.0959  0.1900
  960MOL0     C32384   5.110   2.163   6.388  0.0560 -0.7966 -0.8071
  960MOL0     C32385   5.091   2.146   6.237 -0.7663 -1.0942 -0.2182
  960MOL0     C32386   4.946   2.088   6.211  0.1793 -0.0534  0.4293
  960MOL0    Cl32387   4.824   2.202   6.281  0.1283  0.0282  0.0742
  960MOL0     C32388   4.666   1.799   6.915 -0.4111 -0.8339 -0.1856
  960MOL0     C32389   4.535   1.813   6.965  0.2202  0.2758  0.5297
  960MOL0     O32390   4.407   2.047   7.288 -0.0358  0.6698 -0.6403
  960MOL0     C32391   4.098   1.886   7.157 -0.0118  0.5445  0.3133
  960MOL0     C32392   3.958   1.854   7.173  0.3642 -0.6692  0.3705
  960MOL0     N32393   3.256   2.121   7.186 -0.1591 -0.3802 -0.4423
  960MOL0     N32394   3.146   2.180   7.153  0.2091  0.3195 -0.2072
  960MOL0     C32395   2.038   2.489   7.527 -0.3693  0.6429 -0.1380
  960MOL0     C32396   1.911   2.493   7.461 -0.0750 -1.1328 -0.0810
  960MOL0     C32397   1.540   2.625   7.273 -0.8810 -0.6788  0.0013
  960MOL0     C32398   1.455   2.731   7.272 -0.7823 -0.4397 -0.3187
  960MOL0     C32399   1.354   2.743   7.182  1.1221 -0.2531  0.3498
  960MOL0     C32400   1.316   2.639   7.096  0.0218  0.0688 -0.2356
  960MOL0     O32401   1.219   2.675   7.003 -1.1617  0.1953 -0.2169
  960MOL0     C32402   1.134   2.568   6.965  0.1285  0.2564 -0.0473
  960MOL0     C32403   1.044   2.630   6.861 -0.1424 -0.3218 -0.3085
  960MOL0     C32404   1.109   2.675   6.735 -0.4508 -0.1235  1.1713
  960MOL0     C32405   1.008   2.730   6.633  0.1389  0.2466 -0.7309
  960MOL0     C32406   0.916   2.627   6.587  0.2577  0.3207  0.4312
  960MOL0     C32407   0.838   2.539   6.562  0.2376 -0.3441  0.3396
  960MOL0     C32408   1.394   2.522   7.108  0.3823  0.2340 -0.3109
  960MOL0     C32409   1.507   2.512   7.195 -0.0801  0.1448  1.3219
  960MOL0     C32410   1.592   2.389   7.188 -0.8592  0.4840  0.3324
  960MOL0     H32411   1.980   2.746   7.239  0.1819  0.5807  0.7907
  960MOL0     H32412   2.198   2.733   7.355 -0.5595 -0.0518  0.7538
  960MOL0     H32413   2.278   2.416   7.663  0.7222 -0.7044  0.2801
  960MOL0     H32414   2.407   2.532   7.680 -0.5013  4.5346 -2.6534
  960MOL0     H32415   2.494   2.369   7.531  0.3968  0.2869 -0.6904
  960MOL0     H32416   2.353   2.373   7.428  0.9647 -0.3583 -0.4912
  960MOL0     H32417   2.419   2.608   7.371 -0.2587 -0.9272 -1.6746
  960MOL0     H32418   2.567   2.579   7.467 -1.4176  1.0838  1.8915
  960MOL0     H32419   2.479   2.395   7.236 -1.7299  0.7814  0.6441
  960MOL0     H32420   2.586   2.532   7.201  1.1026  0.9454  1.4725
  960MOL0     H32421   2.664   2.327   7.412  0.5950 -2.3854 -1.8799
  960MOL0     H32422   2.742   2.471   7.362  0.4863 -1.1856  0.2780
  960MOL0     H32423   2.666   2.233   7.192  0.4040  0.6931 -1.1246
  960MOL0     H32424   2.734   2.373   7.123 -2.6189 -1.9260 -1.4599
  960MOL0     H32425   2.882   2.255   7.361 -1.3661  1.2867  1.2437
  960MOL0     H32426   2.933   2.352   7.210 -1.5131  0.9908  0.3994
  960MOL0     H32427   2.835   2.066   7.191  3.4621 -2.1964  2.6643
  960MOL0     H32428   2.887   2.176   7.064 -2.6463  0.9817 -0.0069
  960MOL0     H32429   3.036   1.911   7.305 -1.3561 -0.3460 -1.0180
  960MOL0     H32430   3.323   1.823   7.256 -0.8979  0.1696 -1.0285
  960MOL0     H32431   3.279   1.899   7.412 -0.1228  0.0108  0.3010
  960MOL0     H32432   3.500   1.981   7.227  1.0416  1.8812  0.3278
  960MOL0     H32433   3.444   2.098   7.351  3.6345  0.7200 -0.7490
  960MOL0     H32434   3.507   1.934   7.524 -2.7268 -2.9829 -0.4665
  960MOL0     H32435   3.520   1.805   7.406  1.0347 -0.0796  0.3907
  960MOL0     H32436   3.696   2.070   7.391 -0.7688 -0.7233 -0.3754
  960MOL0     H32437   3.734   1.936   7.495 -1.5046  2.2401  1.5131
  960MOL0     H32438   3.918   2.033   7.459 -1.8737  0.2276 -0.6268
  960MOL0     H32439   4.120   2.094   7.564  0.8196  2.2297  0.9930
  960MOL0     H32440   4.159   2.202   7.431  1.0972  1.3515  3.5882
  960MOL0     H32441   4.272   2.077   7.482  0.3238 -2.9758 -2.9829
  960MOL0     H32442   4.586   2.106   7.146  3.9527  0.0781  0.8371
  960MOL0     H32443   4.804   2.074   7.080  0.7200  0.1113 -1.6868
  960MOL0     H32444   4.946   2.073   6.880  4.3145  0.9733 -2.2069
  960MOL0     H32445   5.016   2.000   7.029 -0.9358  2.1663  0.0272
  960MOL0     H32446   5.205   2.024   6.865 -0.4794  1.3074  0.2963
  960MOL0     H32447   5.177   1.857   6.884  3.0131  1.4288  0.4867
  960MOL0     H32448   5.009   1.885   6.666  0.9221 -1.7433  1.9210
  960MOL0     H32449   5.181   1.860   6.660  0.8651  0.6816  1.5416
  960MOL0     H32450   5.223   2.096   6.626 -0.2388 -0.2690  1.1749
  960MOL0     H32451   5.058   2.138   6.651 -0.4746 -0.2547  0.4480
  960MOL0     H32452   5.161   1.946   6.429 -0.2795 -0.7901  1.3717
  960MOL0     H32453   4.993   1.990   6.455  0.5901 -1.7025  3.5862
  960MOL0     H32454   5.205   2.211   6.412 -0.0039 -2.0103  2.2395
  960MOL0     H32455   5.038   2.238   6.423 -0.3410 -1.2956 -0.5441
  960MOL0     H32456   5.161   2.074   6.195  0.4442 -0.3848  0.5386
  960MOL0     H32457   5.101   2.242   6.185  0.8887 -2.0347 -1.6985
  960MOL0     H32458   4.935   1.987   6.251  2.0125 -0.8940 -1.0275
  960MOL0     H32459   4.935   2.085   6.102 -0.9385 -2.0454  0.5596
  960MOL0     H32460   4.697   1.719   6.848 -0.5574  0.0766 -1.3739
  960MOL0     H32461   4.452   1.745   6.947 -0.7800  0.7082  3.1516
  960MOL0     H32462   4.139   1.853   7.062  1.8079  0.7248  1.0091
  960MOL0     H32463   3.888   1.805   7.106 -0.3377  1.5567 -0.6420
  960MOL0     H32464   2.048   2.435   7.620  2.9213 -0.2088 -0.8587
  960MOL0     H32465   1.828   2.428   7.486 -2.2738  2.2366  2.3182
  960MOL0     H32466   1.466   2.812   7.344 -2.4488 -1.5310  1.2322
  960MOL0     H32467   1.297   2.835   7.181  0.3351 -0.7247  0.2828
  960MOL0     H32468   1.196   2.492   6.917 -0.9042  0.4463 -1.7693
  960MOL0     H32469   1.086   2.532   7.056  0.3061  0.6787  0.2166
  960MOL0     H32470   0.989   2.718   6.893 -2.4088 -1.5670 -0.5267
  960MOL0     H32471   0.976   2.547   6.838  0.0066 -1.2589  2.2319
  960MOL0     H32472   1.181   2.755   6.753 -0.9683  1.4731 -2.7646
  960MOL0     H32473   1.158   2.588   6.690 -2.8096 -2.6442  3.0833
  960MOL0     H32474   1.072   2.760   6.549  0.6402 -0.6752 -0.6924
  960MOL0     H32475   0.961   2.825   6.659  0.8033 -0.0343  1.6609
  960MOL0     H32476   0.773   2.457   6.541  3.2969 -2.7559 -0.4448
  960MOL0     H32477   1.361   2.437   7.048 -1.8896  0.9035 -0.0979
  960MOL0     H32478   1.548   2.301   7.141  1.0904  0.1981 -1.0749
  960MOL0     H32479   1.679   2.410   7.125 -1.0436  0.7600  0.1589
  960MOL0     H32480   1.622   2.371   7.291  2.2600 -1.2958 -0.7625
  961MOL0     O32481   2.314   5.474   4.659 -1.0085  0.3720  0.4940
  961MOL0     C32482   2.424   5.426   4.631 -0.1924  0.5441 -0.6754
  961MOL0     O32483   2.438   5.308   4.565 -0.3886  1.2444  0.2496
  961MOL0     C32484   2.336   5.258   4.483 -0.3421 -0.1061  1.0156
  961MOL0     C32485   2.375   5.137   4.426 -0.0555 -0.3924  0.3929
  961MOL0     C32486   2.292   5.070   4.336  0.5613 -0.4061  0.4925
  961MOL0     C32487   2.177   5.131   4.290 -0.0710  0.0128  0.3895
  961MOL0     O32488   2.112   5.068   4.189 -0.2339  0.6415 -1.1666
  961MOL0     C32489   1.966   5.078   4.201 -0.4969 -0.9963 -0.4694
  961MOL0     C32490   1.906   4.947   4.143 -1.0647  0.4694  0.2147
  961MOL0     C32491   1.756   4.939   4.163 -0.0180  0.5166  1.0900
  961MOL0     C32492   1.688   5.036   4.064 -0.3551 -0.3169 -0.2640
  961MOL0     C32493   1.536   5.031   4.065 -0.2059 -0.2464 -0.5051
  961MOL0     C32494   1.486   4.895   4.001  0.2158 -0.4693 -0.3241
  961MOL0     C32495   1.332   4.875   3.991 -0.2420 -0.2708  0.1106
  961MOL0     C32496   1.270   4.979   3.893  0.1854 -0.0233  0.0576
  961MOL0     N32497   1.348   4.986   3.775  0.2558  0.8896  1.0247
  961MOL0     C32498   1.427   5.084   3.732 -0.1073 -0.4164  0.4717
  961MOL0     C32499   1.471   5.055   3.610 -1.2569 -0.8843  0.8587
  961MOL0     C32500   1.564   5.144   3.536  0.0129 -0.1663 -1.1916
  961MOL0     C32501   1.698   5.080   3.529  0.1212 -0.2825  0.2153
  961MOL0     C32502   1.799   5.174   3.452 -0.7232 -0.1257 -0.3894
  961MOL0     C32503   1.939   5.128   3.479  0.1996  0.1518  0.6845
  961MOL0     O32504   1.954   5.154   3.617  0.8160  0.5476  0.0114
  961MOL0     C32505   2.073   5.124   3.684 -0.4564  0.0195 -0.3056
  961MOL0     C32506   2.182   5.049   3.627 -0.2432 -0.2712 -0.4013
  961MOL0     C32507   2.301   5.036   3.702  0.9762  0.1494  0.1678
  961MOL0     C32508   2.409   4.961   3.638 -0.3991  0.5526  0.3670
  961MOL0     C32509   2.309   5.090   3.840 -0.4951 -0.1389 -0.4445
  961MOL0     C32510   2.438   5.092   3.925  0.4750 -0.6027  0.9506
  961MOL0     O32511   2.431   5.169   4.039 -0.1114  0.4784 -0.1574
  961MOL0     C32512   2.535   5.178   4.130 -0.1724  0.0328 -0.6009
  961MOL0     C32513   2.567   5.303   4.177 -0.6115  0.1750  0.1619
  961MOL0     C32514   2.674   5.312   4.275 -0.6629 -0.0981 -0.7073
  961MOL0     C32515   2.727   5.198   4.336  0.2498  0.0382 -0.3378
  961MOL0     O32516   2.824   5.200   4.438  0.2589 -0.7388  0.3136
  961MOL0     C32517   2.923   5.299   4.445  0.8239 -0.0239 -0.1896
  961MOL0     C32518   3.048   5.258   4.533  0.2046  0.0686  0.3559
  961MOL0     C32519   3.116   5.387   4.573 -0.4032 -0.3912 -0.4591
  961MOL0     C32520   3.262   5.367   4.624  0.2274 -0.1112  0.3325
  961MOL0     C32521   3.274   5.259   4.730  0.1898  0.3761 -0.1566
  961MOL0     C32522   3.196   5.289   4.848 -0.2570  0.0778 -0.3576
  961MOL0     C32523   3.203   5.174   4.949 -0.0687  0.0818 -0.3721
  961MOL0     C32524   3.147   5.205   5.080 -0.0898 -0.5027  0.3175
  961MOL0    Cl32525   3.129   5.060   5.175 -0.1266 -0.3304 -0.4062
  961MOL0     C32526   2.686   5.073   4.286  0.0646 -0.7801  0.2417
  961MOL0     C32527   2.591   5.063   4.182  1.2376  0.0525  0.1450
  961MOL0     O32528   2.537   5.041   3.878 -0.7909 -0.5266 -0.7467
  961MOL0     C32529   2.195   5.158   3.895  0.6676 -0.3189  0.6970
  961MOL0     C32530   2.080   5.177   3.813  0.9814  0.1548 -0.3781
  961MOL0     N32531   1.398   4.941   3.570  0.5727 -0.6659 -0.6167
  961MOL0     N32532   1.330   4.900   3.671  0.1000 -0.4742  0.2653
  961MOL0     C32533   2.141   5.255   4.338 -1.2775 -0.2157 -0.7860
  961MOL0     C32534   2.213   5.312   4.444  0.6057 -0.2631  0.1922
  961MOL0     C32535   2.544   5.483   4.694  0.6046  0.8570 -1.0987
  961MOL0     C32536   2.652   5.398   4.718 -0.2445  0.1331  0.2953
  961MOL0     C32537   2.775   5.448   4.777 -0.3035 -1.0539 -0.2888
  961MOL0     C32538   2.775   5.583   4.826  0.3796  0.1992 -0.0976
  961MOL0     O32539   2.891   5.618   4.899 -0.1577 -0.0408 -0.3903
  961MOL0     C32540   2.875   5.730   4.987  1.1900 -0.3867  0.1936
  961MOL0     C32541   2.972   5.715   5.104 -0.4205  0.0111 -0.0988
  961MOL0     C32542   3.113   5.691   5.050 -0.2285  0.6157 -0.6149
  961MOL0     C32543   3.214   5.724   5.160  0.1254 -0.6882 -1.2052
  961MOL0     C32544   3.221   5.632   5.278  0.1538 -0.4295  1.0949
  961MOL0     C32545   3.248   5.553   5.365  0.0849 -0.0100 -1.1996
  961MOL0     C32546   2.664   5.663   4.805 -0.3048 -1.1455  0.6247
  961MOL0     C32547   2.548   5.620   4.731  0.2927 -0.9265 -0.3051
  961MOL0     C32548   2.443   5.726   4.722  0.1457  0.1946  0.2375
  961MOL0     H32549   2.468   5.091   4.457 -0.4100 -0.9284  0.6636
  961MOL0     H32550   2.311   4.971   4.297  1.2680 -0.3105  0.5803
  961MOL0     H32551   1.937   5.171   4.151  1.0788  0.1165  0.5718
  961MOL0     H32552   1.950   5.085   4.309  1.4231  1.1302 -0.2298
  961MOL0     H32553   1.933   4.926   4.039  2.6697 -0.2732  1.2004
  961MOL0     H32554   1.941   4.855   4.191 -0.7736 -1.1373 -2.8240
  961MOL0     H32555   1.727   4.834   4.154  0.4671  0.4750 -0.1114
  961MOL0     H32556   1.736   4.968   4.267 -0.5448  1.3846  0.7637
  961MOL0     H32557   1.728   5.135   4.083  1.4444 -0.1871 -3.8247
  961MOL0     H32558   1.714   4.998   3.964 -0.2687  1.6922 -1.0531
  961MOL0     H32559   1.510   5.123   4.012 -1.5227  0.0573  0.5946
  961MOL0     H32560   1.501   5.040   4.168 -0.2470  1.4129 -0.6355
  961MOL0     H32561   1.530   4.866   3.905 -0.3019  0.0024 -0.7085
  961MOL0     H32562   1.524   4.816   4.066  0.4688 -0.1260 -0.0472
  961MOL0     H32563   1.282   4.897   4.086 -3.1322  1.1476 -1.5946
  961MOL0     H32564   1.316   4.770   3.962  0.5209 -0.0075 -1.3243
  961MOL0     H32565   1.165   4.965   3.867  0.0380  2.9072 -1.2179
  961MOL0     H32566   1.266   5.078   3.938 -2.4115  0.5592 -1.3102
  961MOL0     H32567   1.444   5.178   3.784 -1.5795  1.7785 -2.7101
  961MOL0     H32568   1.559   5.240   3.586 -0.0265 -1.7352  2.0485
  961MOL0     H32569   1.523   5.151   3.434  1.6948 -0.5653 -1.9273
  961MOL0     H32570   1.731   5.039   3.625 -1.3700  2.1056  1.8722
  961MOL0     H32571   1.684   4.991   3.467  2.2314 -2.2801  2.4104
  961MOL0     H32572   1.779   5.163   3.345  0.1361  1.7978 -0.7810
  961MOL0     H32573   1.790   5.279   3.478  1.8559 -0.1020  0.6623
  961MOL0     H32574   1.959   5.023   3.456  0.9391  0.2025  1.0700
  961MOL0     H32575   2.018   5.184   3.429  0.4368  1.1659  2.1366
  961MOL0     H32576   2.166   5.003   3.530 -3.1755 -2.5911  1.0217
  961MOL0     H32577   2.452   4.884   3.703  2.4352  0.8797 -0.9726
  961MOL0     H32578   2.493   5.025   3.610  0.6178 -1.3213 -1.0938
  961MOL0     H32579   2.376   4.916   3.543  2.6299  1.2751 -1.1724
  961MOL0     H32580   2.514   5.390   4.138 -1.9849 -1.7560 -2.6300
  961MOL0     H32581   2.702   5.408   4.315 -1.1030 -0.7674  1.3245
  961MOL0     H32582   2.949   5.332   4.345  1.3689  0.3986  0.0880
  961MOL0     H32583   2.880   5.386   4.497  0.5472  1.5319 -2.8612
  961MOL0     H32584   3.021   5.210   4.627 -0.9336  0.7329  0.3872
  961MOL0     H32585   3.126   5.198   4.484  0.8710 -2.2673  3.9445
  961MOL0     H32586   3.057   5.427   4.656 -1.4158  0.5088 -1.5593
  961MOL0     H32587   3.113   5.457   4.489  1.3957 -3.4155 -3.3303
  961MOL0     H32588   3.301   5.466   4.650  0.6148  0.1428 -1.1687
  961MOL0     H32589   3.321   5.326   4.542  3.7700  0.9748  2.1090
  961MOL0     H32590   3.249   5.162   4.687  2.8151 -0.0302 -0.9262
  961MOL0     H32591   3.382   5.258   4.749  0.3947  3.7868 -0.4336
  961MOL0     H32592   3.091   5.321   4.839 -0.0398  2.1481  2.7672
  961MOL0     H32593   3.244   5.379   4.888 -0.8252 -0.1717  0.9419
  961MOL0     H32594   3.308   5.148   4.967  0.7809  3.8539  1.0336
  961MOL0     H32595   3.139   5.097   4.905 -2.5266  2.8050 -2.0003
  961MOL0     H32596   3.051   5.253   5.059  0.3621 -1.0928 -3.9412
  961MOL0     H32597   3.209   5.282   5.128 -1.3710  1.2792 -0.7784
  961MOL0     H32598   2.734   4.983   4.322 -0.3028 -1.5695 -1.1568
  961MOL0     H32599   2.555   4.966   4.148 -1.1464  1.5976 -2.0793
  961MOL0     H32600   2.203   5.199   3.995  5.8857 -0.6358  0.7032
  961MOL0     H32601   1.996   5.231   3.856  2.0774  0.4253  1.5106
  961MOL0     H32602   2.049   5.299   4.300 -1.4428  0.5313  0.4289
  961MOL0     H32603   2.162   5.398   4.485 -1.2686 -0.5962 -1.2821
  961MOL0     H32604   2.646   5.297   4.680 -1.9963  0.4497 -0.3517
  961MOL0     H32605   2.859   5.382   4.795 -0.0458 -0.1976  1.8459
  961MOL0     H32606   2.895   5.815   4.922  2.2469  0.7860  1.9645
  961MOL0     H32607   2.774   5.739   5.029 -1.2210 -3.3639 -4.1263
  961MOL0     H32608   2.945   5.629   5.166  0.9407  0.6096  1.4135
  961MOL0     H32609   2.976   5.801   5.172 -1.8872 -3.1843  4.4829
  961MOL0     H32610   3.098   5.590   5.009 -4.3649  0.8554 -0.1464
  961MOL0     H32611   3.154   5.737   4.961  1.7143 -3.7666 -2.2794
  961MOL0     H32612   3.191   5.822   5.202  0.2710 -1.0431 -0.2711
  961MOL0     H32613   3.317   5.726   5.125  0.0989  0.3022 -1.2467
  961MOL0     H32614   3.281   5.480   5.436 -1.9318  0.6696  0.5762
  961MOL0     H32615   2.657   5.764   4.845 -0.8681 -1.0743  0.3659
  961MOL0     H32616   2.421   5.736   4.616 -1.2229 -0.2387  0.4617
  961MOL0     H32617   2.352   5.698   4.776  0.9234 -2.6507  0.2601
  961MOL0     H32618   2.479   5.819   4.766  0.7901  0.1220 -0.1117
  962MOL0     O32619   7.223   5.568   4.146  0.3305  0.1849  0.3988
  962MOL0     C32620   7.326   5.550   4.205 -0.2255 -0.7073 -0.1914
  962MOL0     O32621   7.348   5.480   4.325 -0.2448 -0.7836  0.2236
  962MOL0     C32622   7.234   5.425   4.387 -0.4128  0.5186 -0.1085
  962MOL0     C32623   7.198   5.459   4.512  0.1978 -0.4724 -0.7258
  962MOL0     C32624   7.081   5.394   4.579 -0.0407 -0.3024  0.5368
  962MOL0     C32625   7.021   5.292   4.511 -0.1194  0.1307  0.2259
  962MOL0     O32626   6.906   5.228   4.550  1.0319  0.0231 -0.4573
  962MOL0     C32627   6.853   5.255   4.684 -0.0972  0.2778 -0.4720
  962MOL0     C32628   6.754   5.157   4.728 -0.2361  0.2251  0.3630
  962MOL0     C32629   6.801   5.019   4.723  0.0527  0.6842 -0.4057
  962MOL0     C32630   6.686   4.939   4.798  0.2931  0.5751  0.1718
  962MOL0     C32631   6.737   4.792   4.819  0.4907 -0.1260 -0.4517
  962MOL0     C32632   6.638   4.691   4.882 -0.9392  0.3118 -0.3588
  962MOL0     C32633   6.515   4.669   4.797  0.0825 -0.3075  0.7023
  962MOL0     C32634   6.547   4.640   4.653 -0.1667 -0.2005 -0.0145
  962MOL0     N32635   6.624   4.515   4.621 -0.7039  0.6493 -0.4366
  962MOL0     C32636   6.724   4.498   4.525 -1.0567 -0.3998  0.1287
  962MOL0     C32637   6.745   4.364   4.512 -0.4793  0.4232 -0.0836
  962MOL0     C32638   6.845   4.288   4.419  0.1220 -0.5204 -0.3306
  962MOL0     C32639   6.940   4.228   4.516 -0.2213  0.6511  0.0820
  962MOL0     C32640   7.053   4.146   4.450  0.2581 -0.4284 -0.4224
  962MOL0     C32641   7.154   4.235   4.378  0.5894  0.4906  0.0282
  962MOL0     O32642   7.187   4.351   4.450 -0.1464  0.1528 -0.5077
  962MOL0     C32643   7.309   4.414   4.432 -0.4518  0.1207 -0.4820
  962MOL0     C32644   7.357   4.456   4.308  0.5502  0.8254  0.2561
  962MOL0     C32645   7.485   4.512   4.287 -0.6390  0.2875 -0.6453
  962MOL0     C32646   7.523   4.547   4.144  0.4341 -0.3275 -1.3041
  962MOL0     C32647   7.577   4.508   4.398 -0.4227 -0.4028 -0.0853
  962MOL0     C32648   7.723   4.546   4.383  0.4524 -0.0689  0.3629
  962MOL0     O32649   7.774   4.581   4.501 -0.0422  0.1458 -0.1223
  962MOL0     C32650   7.908   4.603   4.513 -0.1909  0.2514 -0.1651
  962MOL0     C32651   7.964   4.700   4.438  0.3442  0.5592 -0.9173
  962MOL0     C32652   8.095   4.744   4.464  0.6336 -0.1717  0.1229
  962MOL0     C32653   8.170   4.699   4.574 -0.3338  0.0009  0.4727
  962MOL0     O32654   8.295   4.745   4.594  0.6912  0.1406  0.9137
  962MOL0     C32655   8.375   4.699   4.704 -0.3218 -0.3884 -0.1028
  962MOL0     C32656   8.519   4.737   4.662  0.0953  0.6032 -0.0264
  962MOL0     C32657   8.560   4.885   4.683 -0.0642 -0.6794  0.2136
  962MOL0     C32658   8.592   4.926   4.822  0.8244  0.6399 -0.1098
  962MOL0     C32659   8.647   5.069   4.828 -0.4592  0.1661  0.2909
  962MOL0     C32660   8.679   5.099   4.978 -0.3233  0.7569 -0.3243
  962MOL0     C32661   8.638   5.241   5.023 -0.0856  0.2612  0.1996
  962MOL0     C32662   8.739   5.339   4.946  0.1186  0.7109 -0.4963
  962MOL0    Cl32663   8.906   5.351   5.025 -0.5408  0.0024 -0.0452
  962MOL0     C32664   8.108   4.599   4.652 -0.4467 -0.3768 -1.1518
  962MOL0     C32665   7.980   4.549   4.624 -0.3107 -0.4642  0.4788
  962MOL0     O32666   7.779   4.538   4.273  0.3440 -0.2497  0.2128
  962MOL0     C32667   7.526   4.460   4.524  1.1641 -0.3222  0.5219
  962MOL0     C32668   7.396   4.424   4.537 -0.1718 -0.4044 -0.3016
  962MOL0     N32669   6.667   4.307   4.614 -0.2937  0.2388 -0.3825
  962MOL0     N32670   6.596   4.392   4.672  1.1456 -0.6542 -0.1296
  962MOL0     C32671   7.072   5.249   4.390 -0.3291  0.4599 -0.5737
  962MOL0     C32672   7.172   5.317   4.326 -0.2655 -0.2500  0.5975
  962MOL0     C32673   7.444   5.570   4.124 -0.0074 -0.0525 -0.9005
  962MOL0     C32674   7.459   5.496   4.002 -0.2314 -0.4886  0.7550
  962MOL0     C32675   7.570   5.522   3.922 -0.0154  0.2015  0.1853
  962MOL0     C32676   7.661   5.631   3.948 -0.5818  0.3210  0.4078
  962MOL0     O32677   7.775   5.641   3.877  0.3761 -0.5318  0.2406
  962MOL0     C32678   7.747   5.656   3.737  0.4769 -0.1878 -0.1640
  962MOL0     C32679   7.866   5.712   3.655  0.0048 -0.6687 -0.1869
  962MOL0     C32680   7.997   5.623   3.639  0.7566 -0.2152  0.0934
  962MOL0     C32681   8.088   5.613   3.761  0.3300  0.0367 -0.0372
  962MOL0     C32682   8.228   5.569   3.732  0.2942  0.7485 -0.1947
  962MOL0     C32683   8.351   5.548   3.705 -0.5661 -0.8212  0.0017
  962MOL0     C32684   7.640   5.703   4.067 -0.2466  0.8689  0.3681
  962MOL0     C32685   7.537   5.672   4.157 -0.1458  0.1726  0.3841
  962MOL0     C32686   7.534   5.765   4.277 -0.0321 -0.4375  0.8629
  962MOL0     H32687   7.243   5.547   4.556  0.6501 -0.7956 -0.5341
  962MOL0     H32688   7.051   5.435   4.675  0.1321 -0.8710  0.8428
  962MOL0     H32689   6.808   5.354   4.695  0.0436  0.1227  1.8258
  962MOL0     H32690   6.934   5.246   4.757  0.6168 -3.2826 -1.5065
  962MOL0     H32691   6.728   5.181   4.832 -0.7191 -3.2455  1.1747
  962MOL0     H32692   6.665   5.167   4.666  1.5010 -3.2311 -3.1690
  962MOL0     H32693   6.802   4.977   4.622 -3.7306 -0.5671 -0.0773
  962MOL0     H32694   6.898   4.999   4.769 -0.6604 -0.1163  0.7781
  962MOL0     H32695   6.667   4.975   4.899 -0.4795 -2.2560  1.1020
  962MOL0     H32696   6.599   4.951   4.733 -2.6637 -1.1354  3.4898
  962MOL0     H32697   6.804   4.814   4.902  0.6004 -1.7726 -0.0524
  962MOL0     H32698   6.788   4.741   4.736  0.0529 -4.6451  1.7316
  962MOL0     H32699   6.676   4.591   4.904  1.4697  1.1614 -0.3736
  962MOL0     H32700   6.594   4.734   4.972 -0.1811  1.5162 -0.5381
  962MOL0     H32701   6.462   4.764   4.794 -0.5939 -0.6432  1.5615
  962MOL0     H32702   6.448   4.592   4.837 -0.0476  0.4524  1.9805
  962MOL0     H32703   6.454   4.634   4.596 -0.4286 -1.4865  0.5230
  962MOL0     H32704   6.600   4.725   4.609 -1.7944  0.0871 -1.5428
  962MOL0     H32705   6.767   4.583   4.475 -1.1081 -0.4515 -0.0038
  962MOL0     H32706   6.888   4.360   4.349 -0.5856  1.5577  1.2537
  962MOL0     H32707   6.793   4.205   4.371 -0.9329 -0.2636  0.3236
  962MOL0     H32708   6.984   4.290   4.594  0.2348 -1.2529  1.4111
  962MOL0     H32709   6.885   4.156   4.578  1.8305  0.0960  1.3594
  962MOL0     H32710   7.107   4.088   4.525  1.1679  0.1095 -0.6509
  962MOL0     H32711   7.005   4.077   4.380 -1.6746 -0.0404  0.4525
  962MOL0     H32712   7.246   4.179   4.361  1.9961  2.3455  1.0997
  962MOL0     H32713   7.110   4.262   4.281 -0.7260  0.1347  0.5090
  962MOL0     H32714   7.276   4.440   4.238  1.3571 -0.5735 -0.4159
  962MOL0     H32715   7.570   4.466   4.086 -0.0521 -0.6003 -1.3237
  962MOL0     H32716   7.594   4.630   4.152 -0.1074 -0.0666  2.1339
  962MOL0     H32717   7.441   4.584   4.082 -1.7490  0.9789  2.0732
  962MOL0     H32718   7.919   4.762   4.361  0.3083  0.1290 -1.2481
  962MOL0     H32719   8.146   4.817   4.402  1.5769 -0.5002  0.4943
  962MOL0     H32720   8.359   4.750   4.800  2.3748  0.6138 -0.1093
  962MOL0     H32721   8.363   4.592   4.720  0.0229 -0.2491  1.1875
  962MOL0     H32722   8.582   4.675   4.727  2.1873  1.1356 -1.4595
  962MOL0     H32723   8.529   4.708   4.557 -0.3846  2.4238 -0.6108
  962MOL0     H32724   8.494   4.957   4.634  0.6666 -0.2964 -0.2323
  962MOL0     H32725   8.647   4.901   4.619 -2.0617  2.4648 -2.0198
  962MOL0     H32726   8.660   4.859   4.875  0.7423  0.7784  0.1769
  962MOL0     H32727   8.503   4.907   4.883 -1.0913  0.0535 -2.9065
  962MOL0     H32728   8.740   5.073   4.771 -0.8976 -2.0084 -0.6404
  962MOL0     H32729   8.570   5.136   4.788 -0.7737 -1.6343 -2.3489
  962MOL0     H32730   8.780   5.070   5.007 -1.9056 -3.7258  1.5510
  962MOL0     H32731   8.617   5.036   5.042 -0.8585 -0.2562 -1.7925
  962MOL0     H32732   8.651   5.246   5.132 -1.8289  0.9518  0.4120
  962MOL0     H32733   8.531   5.263   5.011 -0.1339  0.0638  0.2762
  962MOL0     H32734   8.687   5.433   4.968  2.5834  1.3250  4.0231
  962MOL0     H32735   8.752   5.313   4.841  1.7025 -1.0981  0.0955
  962MOL0     H32736   8.149   4.549   4.739 -0.7614 -2.5617 -2.2151
  962MOL0     H32737   7.930   4.471   4.681 -0.3271 -1.9648 -1.4576
  962MOL0     H32738   7.592   4.445   4.609  0.4197 -3.1592  0.7165
  962MOL0     H32739   7.362   4.384   4.632 -3.1730  1.3692 -0.5025
  962MOL0     H32740   7.022   5.164   4.344 -0.4168  0.2238 -0.0451
  962MOL0     H32741   7.224   5.294   4.234 -0.1101 -1.1770  0.9023
  962MOL0     H32742   7.380   5.425   3.979 -1.6400  0.5721  2.1074
  962MOL0     H32743   7.594   5.464   3.833 -0.0334 -2.2077  1.6769
  962MOL0     H32744   7.714   5.564   3.688 -2.4525  1.1058 -0.8221
  962MOL0     H32745   7.667   5.731   3.734  1.5203  1.2161  3.0749
  962MOL0     H32746   7.903   5.807   3.694  0.6951 -0.7831 -0.5571
  962MOL0     H32747   7.837   5.731   3.551  0.7130 -0.4851 -0.3519
  962MOL0     H32748   7.977   5.521   3.605 -0.0858 -0.5215  1.4355
  962MOL0     H32749   8.045   5.664   3.549  0.8208 -1.5234 -0.4907
  962MOL0     H32750   8.037   5.551   3.836  0.0897 -0.2996 -0.4744
  962MOL0     H32751   8.104   5.710   3.809  0.4784 -0.9580  2.0899
  962MOL0     H32752   8.447   5.539   3.658 -0.4777 -0.9001  0.1958
  962MOL0     H32753   7.707   5.784   4.092  1.2496 -0.6522  1.4828
  962MOL0     H32754   7.524   5.867   4.241 -0.3658 -0.2630  1.4388
  962MOL0     H32755   7.446   5.755   4.340  1.0420  0.8366  2.6637
  962MOL0     H32756   7.624   5.760   4.340 -0.2296 -1.1860  1.0960
  963MOL0     O32757   6.559   2.034   5.456 -0.7379 -0.0543  0.5577
  963MOL0     C32758   6.533   1.983   5.563 -0.5394  0.7225  0.3487
  963MOL0     O32759   6.610   1.994   5.678 -0.3270  0.2612  0.0984
  963MOL0     C32760   6.736   2.052   5.680  1.1040 -0.5678  1.0148
  963MOL0     C32761   6.824   2.020   5.575 -0.0993  0.7862 -0.2371
  963MOL0     C32762   6.951   2.084   5.573  0.4880  0.1457 -0.6930
  963MOL0     C32763   6.968   2.198   5.658 -0.0481 -0.1495  0.0150
  963MOL0     O32764   7.082   2.276   5.656 -0.6271  0.0366  0.1026
  963MOL0     C32765   7.142   2.297   5.523  0.0654 -0.1158 -0.9752
  963MOL0     C32766   7.074   2.406   5.449 -0.3096  1.1855  0.2248
  963MOL0     C32767   7.057   2.540   5.519 -0.7827  1.5987 -0.7271
  963MOL0     C32768   7.024   2.645   5.411 -0.4010 -0.4769 -0.7331
  963MOL0     C32769   7.032   2.788   5.477 -0.3360 -0.3235 -0.3447
  963MOL0     C32770   7.016   2.901   5.370 -0.8371  0.1056 -0.0453
  963MOL0     C32771   7.065   3.035   5.422 -0.8340 -0.3838 -0.4801
  963MOL0     C32772   7.201   3.070   5.369  0.1150 -0.0732 -0.1582
  963MOL0     N32773   7.305   2.977   5.427  0.6123  0.3982 -0.6737
  963MOL0     C32774   7.340   2.958   5.554  0.2270 -0.3742  0.0178
  963MOL0     C32775   7.453   2.888   5.547  0.0497 -0.1181  0.1192
  963MOL0     C32776   7.544   2.843   5.659  0.4032 -0.4275 -0.3434
  963MOL0     C32777   7.683   2.917   5.637  0.2790  0.3868 -0.0292
  963MOL0     C32778   7.774   2.889   5.751 -0.4625 -0.5111 -0.4425
  963MOL0     C32779   7.906   2.969   5.749 -0.2135  0.0160 -0.5668
  963MOL0     O32780   7.985   2.915   5.856  0.0266  0.0027 -0.2075
  963MOL0     C32781   8.110   2.961   5.876  0.0935  0.5482  0.4836
  963MOL0     C32782   8.157   3.086   5.846  0.3575 -0.1932 -0.3860
  963MOL0     C32783   8.291   3.125   5.877  0.1706 -0.3425  0.0007
  963MOL0     C32784   8.329   3.269   5.856 -1.0198 -0.1366 -0.4328
  963MOL0     C32785   8.386   3.031   5.926  0.0071 -0.3659 -0.0913
  963MOL0     C32786   8.523   3.068   5.968  0.0916 -0.6797  0.2462
  963MOL0     O32787   8.585   2.983   6.054  0.4104  0.4215 -0.4966
  963MOL0     C32788   8.718   2.999   6.073  1.1152  0.5118  0.6498
  963MOL0     C32789   8.803   2.936   5.983 -0.1425  0.1369  0.1164
  963MOL0     C32790   8.942   2.948   5.979  0.1985 -0.1034  0.1801
  963MOL0     C32791   9.007   3.029   6.074  0.3022  0.5567 -0.9697
  963MOL0     O32792   9.142   3.030   6.097  0.4134 -0.0200  1.5118
  963MOL0     C32793   9.227   2.983   5.994 -0.5845 -0.2109 -0.4529
  963MOL0     C32794   9.376   3.008   6.036  0.3709 -0.3836  0.3145
  963MOL0     C32795   9.422   2.884   6.108  0.0675 -0.5803  0.3005
  963MOL0     C32796   9.555   2.893   6.181  0.7781 -0.2638 -0.1949
  963MOL0     C32797   9.588   2.775   6.279  0.6635  0.1317 -0.0961
  963MOL0     C32798   9.736   2.784   6.308 -0.4955  0.2356 -0.1586
  963MOL0     C32799   9.783   2.664   6.390  0.6321 -0.0627 -0.7308
  963MOL0     C32800   9.928   2.657   6.434  0.7626 -0.9314 -0.3824
  963MOL0    Cl32801  10.050   2.733   6.324  0.4572 -0.0326 -0.0313
  963MOL0     C32802   8.923   3.098   6.169 -0.4643  0.2608  0.5687
  963MOL0     C32803   8.782   3.090   6.162 -0.0928  0.4927  0.0487
  963MOL0     O32804   8.581   3.163   5.914 -0.0255  0.1781  0.0294
  963MOL0     C32805   8.334   2.906   5.959 -0.7670  0.2716  1.4662
  963MOL0     C32806   8.202   2.870   5.930  0.4456  0.4833 -0.0751
  963MOL0     N32807   7.485   2.861   5.420 -0.1020 -0.0987  0.3298
  963MOL0     N32808   7.394   2.913   5.350 -0.0203 -0.1271 -0.3921
  963MOL0     C32809   6.889   2.227   5.766 -0.2435  0.1962  0.2854
  963MOL0     C32810   6.771   2.153   5.776 -0.2101 -0.2243 -0.2518
  963MOL0     C32811   6.401   1.910   5.579 -0.0594 -0.0840  0.3801
  963MOL0     C32812   6.327   1.933   5.694 -0.4732 -0.6142  0.2141
  963MOL0     C32813   6.202   1.885   5.699 -0.0373 -0.0827  0.2913
  963MOL0     C32814   6.137   1.825   5.587 -0.6516  0.4317  0.7346
  963MOL0     O32815   6.009   1.800   5.594 -0.0834  0.4256  0.2711
  963MOL0     C32816   5.930   1.744   5.484 -0.5156  0.2198 -0.4407
  963MOL0     C32817   5.935   1.595   5.499  0.0040 -0.6419  0.0593
  963MOL0     C32818   5.874   1.531   5.378  1.1332  1.2292  0.2305
  963MOL0     C32819   5.881   1.373   5.383  0.4433 -0.8887 -0.7012
  963MOL0     C32820   5.769   1.312   5.460 -0.0035  0.5848  0.2964
  963MOL0     C32821   5.679   1.259   5.535 -0.8670 -0.2823  0.3792
  963MOL0     C32822   6.217   1.813   5.470  0.5737  0.0910  0.2551
  963MOL0     C32823   6.349   1.844   5.467 -0.3053 -0.8181 -0.4946
  963MOL0     C32824   6.425   1.807   5.346  0.3715 -0.9649  0.1437
  963MOL0     H32825   6.796   1.949   5.498 -2.7916  0.1490  1.2209
  963MOL0     H32826   7.036   2.048   5.515  1.1816 -0.5398  0.7010
  963MOL0     H32827   7.153   2.213   5.453 -0.8417 -0.9548 -0.1536
  963MOL0     H32828   7.242   2.330   5.552 -0.6503 -0.6483  2.5865
  963MOL0     H32829   7.132   2.426   5.359  0.8622 -0.9584  0.4555
  963MOL0     H32830   6.974   2.368   5.424  0.0314  0.5095 -0.1149
  963MOL0     H32831   6.975   2.534   5.591  0.0673  2.0235  0.3013
  963MOL0     H32832   7.154   2.562   5.565  0.5484 -0.4118 -2.4167
  963MOL0     H32833   7.102   2.638   5.334  1.3452  0.1511  0.9195
  963MOL0     H32834   6.925   2.624   5.369  0.2282 -2.2850 -1.4321
  963MOL0     H32835   7.132   2.796   5.521 -0.3215  2.8168 -0.6641
  963MOL0     H32836   6.955   2.800   5.554  0.0390  2.3031 -0.2761
  963MOL0     H32837   7.071   2.874   5.279  1.4235  2.0346  0.6502
  963MOL0     H32838   6.911   2.909   5.344 -0.4093 -0.0677 -1.9860
  963MOL0     H32839   7.064   3.045   5.531  2.7679  2.0375 -0.4898
  963MOL0     H32840   7.002   3.121   5.399 -1.0786 -0.3116  0.4257
  963MOL0     H32841   7.209   3.059   5.260  3.6362  2.3558 -0.3283
  963MOL0     H32842   7.217   3.177   5.389 -0.2853  0.3014 -1.6928
  963MOL0     H32843   7.289   2.996   5.642 -0.8241 -3.1398  0.7107
  963MOL0     H32844   7.552   2.734   5.660 -1.9641 -0.6818 -1.2782
  963MOL0     H32845   7.492   2.877   5.749 -3.0033 -2.2991 -1.4090
  963MOL0     H32846   7.726   2.865   5.551  1.8910 -0.5755  1.2932
  963MOL0     H32847   7.663   3.021   5.613 -0.4655  0.3361  0.3383
  963MOL0     H32848   7.711   2.914   5.837 -1.4028  1.6024 -1.6642
  963MOL0     H32849   7.793   2.781   5.759 -1.9255 -0.6328  4.7254
  963MOL0     H32850   7.956   2.955   5.653  1.0159  3.5080 -0.5692
  963MOL0     H32851   7.894   3.077   5.761  1.6898  0.2362 -0.3961
  963MOL0     H32852   8.086   3.157   5.803  0.5304 -0.3008 -0.8572
  963MOL0     H32853   8.380   3.281   5.759 -0.7266  0.9257 -0.1682
  963MOL0     H32854   8.387   3.308   5.940 -2.0089 -0.2541  0.3115
  963MOL0     H32855   8.236   3.326   5.855  0.0384  1.6727 -1.2846
  963MOL0     H32856   8.755   2.879   5.903  1.3863 -0.0079 -0.7399
  963MOL0     H32857   8.994   2.883   5.910 -0.7559 -0.4743 -0.2074
  963MOL0     H32858   9.215   2.875   5.982 -1.1552 -0.4120  1.5810
  963MOL0     H32859   9.209   3.034   5.899  1.4203  0.7504 -0.3843
  963MOL0     H32860   9.430   3.042   5.948 -2.3351 -0.0291 -1.3254
  963MOL0     H32861   9.378   3.088   6.111  0.6984 -1.1095  1.0928
  963MOL0     H32862   9.428   2.802   6.035  1.6946  1.3743 -1.8924
  963MOL0     H32863   9.353   2.858   6.189  0.4803  1.9701  1.5555
  963MOL0     H32864   9.572   2.988   6.232  0.6822 -1.3421  1.9527
  963MOL0     H32865   9.625   2.879   6.098  0.0009 -1.4104 -0.6822
  963MOL0     H32866   9.530   2.787   6.372 -0.0279  1.2393 -0.6496
  963MOL0     H32867   9.554   2.682   6.232  1.5846  0.2448 -1.0021
  963MOL0     H32868   9.749   2.876   6.366  0.6216 -0.6805  1.1035
  963MOL0     H32869   9.787   2.784   6.212 -1.2920 -1.7928 -0.6353
  963MOL0     H32870   9.759   2.581   6.322  1.3460 -1.0011  0.1356
  963MOL0     H32871   9.716   2.654   6.476  0.1854  1.0911 -0.9258
  963MOL0     H32872   9.955   2.555   6.464 -1.4534 -1.4351  0.0878
  963MOL0     H32873   9.939   2.715   6.526  0.8864 -0.2114 -0.8458
  963MOL0     H32874   8.973   3.154   6.248  2.0916 -0.7214 -0.2333
  963MOL0     H32875   8.709   3.137   6.227 -2.7513 -2.0886 -0.8160
  963MOL0     H32876   8.396   2.825   5.996  1.1614  1.4930  1.0832
  963MOL0     H32877   8.170   2.772   5.963 -0.5998  0.3555 -1.3951
  963MOL0     H32878   6.920   2.297   5.843 -1.0143 -0.9621  1.6919
  963MOL0     H32879   6.692   2.190   5.841  0.5830  1.4067 -0.1493
  963MOL0     H32880   6.362   2.002   5.770  0.3502 -2.6154  1.7311
  963MOL0     H32881   6.142   1.899   5.788 -1.5936 -0.0221 -0.7126
  963MOL0     H32882   5.827   1.780   5.491 -1.6863 -2.6473 -1.2815
  963MOL0     H32883   5.958   1.781   5.386 -0.9715  0.7453 -0.3767
  963MOL0     H32884   5.880   1.575   5.592 -1.2361  1.2761 -0.2144
  963MOL0     H32885   6.038   1.558   5.504  0.6864  1.2713  1.6045
  963MOL0     H32886   5.772   1.568   5.367  1.7889  3.5500  1.2573
  963MOL0     H32887   5.933   1.568   5.294  0.5127  2.8465  0.4722
  963MOL0     H32888   5.966   1.335   5.441 -1.5258 -1.8689  1.7396
  963MOL0     H32889   5.888   1.337   5.280  1.7959  3.1450 -2.2072
  963MOL0     H32890   5.606   1.215   5.599  0.8720  2.7059  4.8644
  963MOL0     H32891   6.173   1.767   5.382  0.2945  0.0247  0.4285
  963MOL0     H32892   6.534   1.796   5.352  0.8505  2.5203 -0.2264
  963MOL0     H32893   6.387   1.720   5.291 -0.9145 -1.8981  2.3746
  963MOL0     H32894   6.405   1.894   5.284 -0.0003  0.2551  1.8962
  964MOL0     O32895  10.722   0.046   8.583  0.1849 -0.9500  0.1224
  964MOL0     C32896  10.630   0.105   8.648  0.0090  0.2067  0.0885
  964MOL0     O32897  10.646   0.213   8.737  0.4126 -0.7999  0.8658
  964MOL0     C32898  10.740   0.315   8.725  0.4347  0.2458  0.2476
  964MOL0     C32899  10.787   0.360   8.600 -1.1262 -0.3173 -1.5918
  964MOL0     C32900  10.866   0.468   8.595 -0.2436 -0.1608 -0.2105
  964MOL0     C32901  10.909   0.538   8.708  0.2516 -0.5962  0.0679
  964MOL0     O32902  10.989   0.647   8.692 -0.6783 -0.1087 -0.2261
  964MOL0     C32903  11.032   0.727   8.805 -0.5505  0.4741  1.2585
  964MOL0     C32904  11.158   0.661   8.867  0.2683 -0.2990 -0.2818
  964MOL0     C32905  11.278   0.681   8.781  0.4237  0.3259  0.5288
  964MOL0     C32906  11.396   0.629   8.863 -0.2109 -0.2683  0.0554
  964MOL0     C32907  11.516   0.715   8.831  0.9579  0.4792 -0.2562
  964MOL0     C32908  11.635   0.668   8.919 -0.0749  0.7037 -0.5948
  964MOL0     C32909  11.764   0.747   8.886  0.3103  0.4276  0.3815
  964MOL0     C32910  11.746   0.892   8.939  0.3279  0.0300 -0.6043
  964MOL0     N32911  11.868   0.945   8.998  0.1044  0.2245  0.3245
  964MOL0     C32912  11.993   0.947   8.934 -0.3247  0.8123 -0.8295
  964MOL0     C32913  12.078   0.974   9.035  0.0378 -0.0319 -0.0806
  964MOL0     C32914  12.217   0.995   9.005  0.2554 -0.0127 -0.0418
  964MOL0     C32915  12.243   1.125   8.918 -0.1913 -0.2171 -0.4893
  964MOL0     C32916  12.364   1.099   8.813 -0.0999  0.3240 -0.6481
  964MOL0     C32917  12.343   0.978   8.718 -0.4257 -0.5019  0.9109
  964MOL0     O32918  12.455   0.886   8.723 -0.1256  0.0393  0.3856
  964MOL0     C32919  12.583   0.934   8.683  0.4998 -0.2462  0.1486
  964MOL0     C32920  12.604   0.994   8.559  0.9876 -0.1713  0.0901
  964MOL0     C32921  12.727   1.054   8.526  0.6221 -0.0172  0.4233
  964MOL0     C32922  12.747   1.092   8.381 -0.7104  0.7706  0.9741
  964MOL0     C32923  12.830   1.056   8.621  0.1129  0.8313 -0.6264
  964MOL0     C32924  12.956   1.125   8.608  0.1770 -0.3391 -0.5192
  964MOL0     O32925  13.019   1.152   8.723 -0.3809 -0.7113 -0.1006
  964MOL0     C32926  13.123   1.245   8.728  0.2337 -0.7585  0.2509
  964MOL0     C32927  13.096   1.385   8.756  0.3512  0.2382 -0.0140
  964MOL0     C32928  13.202   1.477   8.755 -0.9362  0.1504 -0.4858
  964MOL0     C32929  13.334   1.441   8.745 -0.3731 -1.0699  0.5745
  964MOL0     O32930  13.422   1.548   8.754 -0.2393 -0.0273 -0.6890
  964MOL0     C32931  13.563   1.531   8.723 -0.2255  0.3650  0.6280
  964MOL0     C32932  13.590   1.502   8.580 -0.8304 -0.0070  0.0507
  964MOL0     C32933  13.740   1.477   8.557  0.1324 -0.1231 -0.0307
  964MOL0     C32934  13.811   1.602   8.518  0.2188 -0.4409  0.6986
  964MOL0     C32935  13.949   1.569   8.468  0.4518  0.6897  0.5057
  964MOL0     C32936  14.035   1.703   8.439  0.1306  0.4084 -0.0760
  964MOL0     C32937  14.186   1.680   8.450 -0.3957 -0.1991  0.2337
  964MOL0     C32938  14.265   1.693   8.320  0.0104 -0.0623 -0.4312
  964MOL0    Cl32939  14.439   1.677   8.328  0.5645  0.5127 -0.0704
  964MOL0     C32940  13.356   1.304   8.724  0.5644 -0.7191  0.1334
  964MOL0     C32941  13.252   1.206   8.725  0.0871  0.7518  0.5827
  964MOL0     O32942  12.991   1.168   8.493 -0.8668  0.7572  0.1534
  964MOL0     C32943  12.808   0.984   8.744 -0.4599 -0.0762  0.1110
  964MOL0     C32944  12.686   0.924   8.773 -0.3429  0.4948  1.1021
  964MOL0     N32945  12.014   0.986   9.159  0.3499 -0.2034 -0.3052
  964MOL0     N32946  11.883   0.975   9.131 -0.5033  0.0195 -0.3801
  964MOL0     C32947  10.855   0.494   8.832  0.1017 -0.6566 -0.4858
  964MOL0     C32948  10.777   0.382   8.838 -0.4270  0.8928 -0.0261
  964MOL0     C32949  10.494   0.040   8.650  0.3349 -0.3394 -0.2996
  964MOL0     C32950  10.417   0.047   8.766  0.9785  0.3246 -0.5722
  964MOL0     C32951  10.278   0.013   8.765 -0.2592 -0.5752 -0.2322
  964MOL0     C32952  10.219  -0.021   8.634  0.0144 -0.4868 -0.3313
  964MOL0     O32953  10.090  -0.065   8.613  0.0034 -0.0068  0.4298
  964MOL0     C32954   9.989  -0.007   8.701  0.8020 -0.3310  0.1805
  964MOL0     C32955   9.912  -0.111   8.775 -0.9538  0.1327  0.2323
  964MOL0     C32956  10.014  -0.177   8.878  0.8854  0.4676  0.2648
  964MOL0     C32957   9.937  -0.287   8.952  0.9672 -0.0332 -0.6668
  964MOL0     C32958   9.875  -0.238   9.082 -0.5228 -0.3363 -0.7795
  964MOL0     C32959   9.828  -0.225   9.195  0.4391  0.1721  0.9038
  964MOL0     C32960  10.295  -0.010   8.519 -0.4415  0.4975  0.0180
  964MOL0     C32961  10.430   0.010   8.527  0.0995 -0.6653  0.0643
  964MOL0     C32962  10.511   0.001   8.388 -0.3115 -0.8715  0.3463
  964MOL0     H32963  10.763   0.314   8.504 -2.3896 -1.5730 -0.7182
  964MOL0     H32964  10.918   0.494   8.503  0.3258 -2.0341 -0.4550
  964MOL0     H32965  10.953   0.738   8.879 -1.3127  2.6153  0.1960
  964MOL0     H32966  11.049   0.825   8.760 -0.0469  0.2116  0.8498
  964MOL0     H32967  11.170   0.703   8.967  2.2320 -0.9989 -0.1820
  964MOL0     H32968  11.137   0.556   8.888  3.3236 -1.2840 -1.5970
  964MOL0     H32969  11.274   0.621   8.690  0.4735 -1.4556  1.6629
  964MOL0     H32970  11.286   0.788   8.757 -2.8466  0.4943 -0.2721
  964MOL0     H32971  11.377   0.612   8.969  1.6538 -1.2068  0.2727
  964MOL0     H32972  11.426   0.535   8.815 -2.4256 -1.0971  0.1753
  964MOL0     H32973  11.490   0.819   8.855  1.9086  0.6197  0.2289
  964MOL0     H32974  11.537   0.702   8.725  0.1777 -0.2020 -0.3305
  964MOL0     H32975  11.598   0.682   9.022 -0.3657 -0.7520 -0.4889
  964MOL0     H32976  11.659   0.562   8.910 -1.5295  0.2415  0.6079
  964MOL0     H32977  11.796   0.749   8.782  1.0194  2.4486  0.6047
  964MOL0     H32978  11.844   0.691   8.935  0.0223 -0.1805  0.1758
  964MOL0     H32979  11.716   0.956   8.855  2.1610 -0.3815 -1.6233
  964MOL0     H32980  11.671   0.890   9.018  0.3526  0.6258 -0.5636
  964MOL0     H32981  12.017   0.939   8.828  1.6074  0.8919 -0.4286
  964MOL0     H32982  12.247   0.910   8.944  1.3347  1.9115 -2.3908
  964MOL0     H32983  12.276   0.995   9.097 -1.2091 -3.0837  0.9984
  964MOL0     H32984  12.151   1.153   8.866  0.6567  0.1090 -1.8551
  964MOL0     H32985  12.278   1.198   8.991 -0.8468 -0.6110  0.2449
  964MOL0     H32986  12.379   1.195   8.763  1.0528  1.4237  1.6532
  964MOL0     H32987  12.454   1.077   8.872 -1.2734 -1.5879  0.4971
  964MOL0     H32988  12.257   0.914   8.738 -1.9897  0.6922 -1.5119
  964MOL0     H32989  12.331   1.013   8.615  0.5205  1.3874  1.3906
  964MOL0     H32990  12.517   1.004   8.495  0.3751  0.0088  0.9438
  964MOL0     H32991  12.814   1.019   8.336 -0.6687 -0.2391  2.6057
  964MOL0     H32992  12.790   1.192   8.366 -1.8513  0.8983 -2.6552
  964MOL0     H32993  12.655   1.097   8.322  0.9744  2.5117 -1.7361
  964MOL0     H32994  12.995   1.426   8.764 -0.1423 -0.7857 -0.7005
  964MOL0     H32995  13.168   1.579   8.768  1.2652  0.8746  0.0543
  964MOL0     H32996  13.620   1.620   8.749  1.2555 -0.5986  0.8072
  964MOL0     H32997  13.605   1.447   8.780 -1.2901 -0.3021  0.4583
  964MOL0     H32998  13.538   1.412   8.544 -0.3244  0.3240 -1.6227
  964MOL0     H32999  13.567   1.586   8.514  1.3643 -0.9678 -2.0905
  964MOL0     H33000  13.750   1.400   8.480  1.7832  0.4379 -0.4079
  964MOL0     H33001  13.780   1.441   8.653 -1.2959  1.8553  1.3959
  964MOL0     H33002  13.825   1.664   8.607  0.0480  1.2312 -0.4039
  964MOL0     H33003  13.754   1.661   8.446  1.9396 -0.1941 -0.5274
  964MOL0     H33004  13.999   1.503   8.540  1.3168  2.1831  1.3148
  964MOL0     H33005  13.948   1.515   8.373 -0.7271  0.2348  0.7582
  964MOL0     H33006  14.003   1.783   8.507 -1.2361 -0.6339  0.5567
  964MOL0     H33007  14.003   1.739   8.341 -1.3370 -0.7176 -0.0492
  964MOL0     H33008  14.206   1.588   8.505  0.3803 -1.0219 -1.3547
  964MOL0     H33009  14.218   1.759   8.519 -2.0166  0.0360  0.7648
  964MOL0     H33010  14.243   1.787   8.270 -1.5567 -0.7454 -1.0722
  964MOL0     H33011  14.227   1.620   8.247 -1.6178 -0.4381  0.7374
  964MOL0     H33012  13.459   1.276   8.709  1.1299  1.9095 -1.5186
  964MOL0     H33013  13.269   1.100   8.714 -0.5333  0.7225 -0.2002
  964MOL0     H33014  12.878   0.973   8.826 -0.2944 -1.3503 -0.1796
  964MOL0     H33015  12.657   0.879   8.867  1.1258  0.2891  1.4808
  964MOL0     H33016  10.868   0.552   8.923  0.5628  1.8480 -2.0698
  964MOL0     H33017  10.728   0.345   8.927 -1.4043  0.2936 -0.7836
  964MOL0     H33018  10.452   0.068   8.867 -1.5144  1.5749  0.1291
  964MOL0     H33019  10.222   0.011   8.859 -1.3721 -2.2181 -0.8761
  964MOL0     H33020  10.022   0.073   8.768 -4.4139 -0.1421  3.0096
  964MOL0     H33021   9.920   0.042   8.633  0.8100  0.8433  1.0040
  964MOL0     H33022   9.873  -0.186   8.706  2.1174  0.2117 -1.7873
  964MOL0     H33023   9.828  -0.069   8.832  0.5843  1.2642  1.7908
  964MOL0     H33024  10.094  -0.221   8.819 -0.6790 -2.2768  0.0286
  964MOL0     H33025  10.052  -0.103   8.949  3.2209  0.0272 -0.4448
  964MOL0     H33026   9.996  -0.373   8.986  1.0142  0.7286  1.3040
  964MOL0     H33027   9.857  -0.333   8.894  1.5671 -3.3670  0.8557
  964MOL0     H33028   9.779  -0.229   9.290 -1.4368  2.9512  0.1575
  964MOL0     H33029  10.231  -0.016   8.432 -1.2472  0.3660  0.6061
  964MOL0     H33030  10.589  -0.074   8.401  0.4257 -0.4924 -1.6642
  964MOL0     H33031  10.445  -0.017   8.303 -1.2042  0.9432  0.6035
  964MOL0     H33032  10.561   0.097   8.375  0.3952 -1.3687 -0.7415
  965MOL0     O33033   9.418   2.593   8.434 -0.7861 -0.4692 -0.4345
  965MOL0     C33034   9.376   2.687   8.364 -0.3590 -0.4015 -0.6981
  965MOL0     O33035   9.446   2.798   8.324 -0.7272  0.2501  0.5252
  965MOL0     C33036   9.581   2.797   8.345 -0.6637 -0.4957 -0.8130
  965MOL0     C33037   9.631   2.901   8.422 -0.1604  0.2799  0.0893
  965MOL0     C33038   9.762   2.923   8.441 -0.3828  0.7083  0.0364
  965MOL0     C33039   9.859   2.837   8.390 -0.6641  0.9521  0.2159
  965MOL0     O33040  10.001   2.855   8.393  0.2486 -0.0964 -0.5573
  965MOL0     C33041  10.059   2.967   8.466  0.4227 -0.4359 -0.3212
  965MOL0     C33042  10.201   3.001   8.422 -0.0528  0.2976  0.4827
  965MOL0     C33043  10.291   2.875   8.430  0.4706 -0.2813 -0.0641
  965MOL0     C33044  10.424   2.922   8.372  0.2648 -0.5957 -0.5463
  965MOL0     C33045  10.520   2.808   8.352 -0.6626 -0.6353 -0.4755
  965MOL0     C33046  10.575   2.747   8.482  0.2171 -0.2791 -0.0774
  965MOL0     C33047  10.668   2.851   8.543 -0.0907 -0.1829  0.3931
  965MOL0     C33048  10.712   2.787   8.673 -0.7455  0.2974  0.3194
  965MOL0     N33049  10.796   2.879   8.746  0.0307 -0.1409 -0.1702
  965MOL0     C33050  10.932   2.873   8.777  0.2732 -0.0227 -0.5475
  965MOL0     C33051  10.951   2.973   8.870 -0.6161 -0.5115  0.0799
  965MOL0     C33052  11.078   2.994   8.948 -0.0658 -0.2958 -0.3777
  965MOL0     C33053  11.162   3.114   8.910 -0.1644  0.1123 -0.0096
  965MOL0     C33054  11.206   3.105   8.765 -0.3946  0.2205  0.2727
  965MOL0     C33055  11.302   2.983   8.726  0.6946 -0.0305 -0.6583
  965MOL0     O33056  11.382   3.025   8.617  0.4962  0.0602  0.4438
  965MOL0     C33057  11.507   2.959   8.621 -0.9692 -0.4530  0.3663
  965MOL0     C33058  11.516   2.829   8.580 -0.1273 -0.4391 -0.2531
  965MOL0     C33059  11.641   2.761   8.556 -0.0324 -0.3142 -0.2318
  965MOL0     C33060  11.632   2.616   8.513  0.4983  0.0375 -0.0890
  965MOL0     C33061  11.757   2.816   8.621  0.1955  0.2398 -0.5562
  965MOL0     C33062  11.877   2.734   8.642 -0.0757 -0.4274  0.1856
  965MOL0     O33063  11.902   2.642   8.546  0.4851  0.0841  0.4422
  965MOL0     C33064  12.027   2.575   8.553  0.4391  0.6358  0.2846
  965MOL0     C33065  12.123   2.601   8.455 -0.5141  0.4103 -0.2562
  965MOL0     C33066  12.242   2.528   8.462  0.2832 -0.1228  0.4123
  965MOL0     C33067  12.266   2.431   8.561 -0.1249 -0.2666 -0.1479
  965MOL0     O33068  12.390   2.374   8.569  0.0740 -0.1961  0.2371
  965MOL0     C33069  12.513   2.447   8.562 -0.1604 -1.1984  0.5762
  965MOL0     C33070  12.598   2.406   8.687 -0.4763 -0.2299  0.7722
  965MOL0     C33071  12.730   2.490   8.720  0.8874 -0.5793  1.0826
  965MOL0     C33072  12.693   2.635   8.753 -0.6125 -0.4282  0.0617
  965MOL0     C33073  12.819   2.721   8.788  0.0450 -0.2093 -0.2935
  965MOL0     C33074  12.893   2.674   8.913  0.1613 -0.0443  1.3024
  965MOL0     C33075  12.997   2.786   8.948  0.0887 -1.1255  0.2073
  965MOL0     C33076  13.090   2.737   9.054  0.3789  0.1693 -0.5363
  965MOL0    Cl33077  13.229   2.849   9.063 -0.0343 -0.3970  0.5023
  965MOL0     C33078  12.163   2.398   8.643 -0.4592 -0.1400  0.3222
  965MOL0     C33079  12.042   2.469   8.646  0.7120  0.9290  0.1047
  965MOL0     O33080  11.943   2.760   8.739  0.1957 -0.3506  0.1883
  965MOL0     C33081  11.749   2.946   8.667 -0.6420 -0.1916 -0.6695
  965MOL0     C33082  11.630   3.016   8.664  0.7806  0.0855  0.0060
  965MOL0     N33083  10.833   3.051   8.885 -0.6864 -0.4671  0.4210
  965MOL0     N33084  10.742   2.978   8.825  0.3681 -0.3107  0.1465
  965MOL0     C33085   9.815   2.720   8.328 -0.8877 -0.0234 -0.0711
  965MOL0     C33086   9.672   2.702   8.304 -0.9109  0.3359 -0.6170
  965MOL0     C33087   9.228   2.691   8.327 -0.1036 -0.6177 -0.5173
  965MOL0     C33088   9.194   2.736   8.203  0.2011  0.0706 -0.3411
  965MOL0     C33089   9.065   2.757   8.161 -0.1686  0.4640  0.2223
  965MOL0     C33090   8.961   2.717   8.247 -0.1020 -0.4596 -0.2011
  965MOL0     O33091   8.831   2.735   8.218  0.4291 -0.4101  0.3532
  965MOL0     C33092   8.783   2.821   8.121  0.3080 -0.0548 -0.1091
  965MOL0     C33093   8.742   2.955   8.191 -0.0956  0.4847  0.2062
  965MOL0     C33094   8.652   2.933   8.314 -0.6654 -0.5023  0.3158
  965MOL0     C33095   8.522   2.863   8.275  1.0475  0.3244 -0.6938
  965MOL0     C33096   8.440   2.947   8.187  0.5327 -0.1112  0.0898
  965MOL0     C33097   8.367   3.022   8.126 -0.2681 -0.6277 -0.0513
  965MOL0     C33098   8.993   2.656   8.367 -0.3085  0.2940 -0.8335
  965MOL0     C33099   9.126   2.647   8.412 -0.7366  0.3156  0.0554
  965MOL0     C33100   9.150   2.593   8.546 -0.0304 -0.2704 -0.1755
  965MOL0     H33101   9.566   2.967   8.477 -1.3021 -3.2577  3.4036
  965MOL0     H33102   9.783   3.011   8.500 -1.8528  0.5347  0.8660
  965MOL0     H33103  10.046   2.929   8.568  0.8858 -3.1645 -1.1820
  965MOL0     H33104   9.995   3.054   8.453  2.1821  0.5766 -2.8692
  965MOL0     H33105  10.189   3.043   8.322 -1.5012  0.0990  0.5453
  965MOL0     H33106  10.236   3.077   8.494  0.1311  1.4763 -0.8133
  965MOL0     H33107  10.291   2.825   8.527 -1.8353 -0.1365  0.0575
  965MOL0     H33108  10.244   2.806   8.359  0.3170 -0.7989  0.5398
  965MOL0     H33109  10.403   2.972   8.277  0.6512  0.9631  0.1522
  965MOL0     H33110  10.464   2.999   8.439 -1.1547  0.4754 -0.8725
  965MOL0     H33111  10.606   2.836   8.290 -1.3922  3.0132 -0.0292
  965MOL0     H33112  10.471   2.720   8.309 -0.1484 -0.8121 -0.7099
  965MOL0     H33113  10.498   2.723   8.557  1.9230 -0.9211  1.5543
  965MOL0     H33114  10.640   2.661   8.465  0.0558 -0.7808  1.6040
  965MOL0     H33115  10.636   2.954   8.558 -1.2370 -0.7992  2.8434
  965MOL0     H33116  10.757   2.854   8.480  0.9823 -0.5421  1.8148
  965MOL0     H33117  10.626   2.781   8.741 -0.5860  0.4347  0.5346
  965MOL0     H33118  10.750   2.687   8.650 -0.6471  0.6209 -0.9818
  965MOL0     H33119  10.997   2.793   8.743 -0.9735 -0.9761 -0.7483
  965MOL0     H33120  11.142   2.907   8.933  2.3283  1.5966 -1.9503
  965MOL0     H33121  11.045   2.999   9.053  0.5913 -0.9285 -0.1309
  965MOL0     H33122  11.104   3.206   8.913 -0.4619 -0.0999  1.1385
  965MOL0     H33123  11.252   3.130   8.970  0.0657  2.3285 -0.8542
  965MOL0     H33124  11.118   3.095   8.701 -1.9538  1.2321  2.1396
  965MOL0     H33125  11.253   3.200   8.734 -0.4283 -0.6874 -2.9282
  965MOL0     H33126  11.369   2.965   8.811  0.4552  2.1088  0.0523
  965MOL0     H33127  11.238   2.897   8.706 -0.0977  0.0970  1.1380
  965MOL0     H33128  11.427   2.784   8.538  1.6840 -1.8215 -2.9010
  965MOL0     H33129  11.705   2.603   8.433  0.0370 -0.0223 -0.5062
  965MOL0     H33130  11.532   2.589   8.477  0.3453  0.4846 -0.0039
  965MOL0     H33131  11.659   2.553   8.597 -0.3941  0.6186  0.6568
  965MOL0     H33132  12.104   2.682   8.385  1.6441 -0.1723 -1.6179
  965MOL0     H33133  12.322   2.557   8.394 -0.9824  2.8505  0.0706
  965MOL0     H33134  12.570   2.429   8.471  1.2309 -2.9979  1.7243
  965MOL0     H33135  12.493   2.555   8.562  1.0352 -0.9317 -1.3758
  965MOL0     H33136  12.531   2.394   8.773 -3.4120 -1.2983 -1.5014
  965MOL0     H33137  12.636   2.309   8.653  0.1032  1.2106 -3.2990
  965MOL0     H33138  12.798   2.492   8.635 -2.8126  2.5982 -2.1973
  965MOL0     H33139  12.781   2.439   8.803  1.0602 -2.1413  0.0435
  965MOL0     H33140  12.626   2.641   8.839  0.4082  0.3178  0.8300
  965MOL0     H33141  12.654   2.691   8.667  1.5437  3.0836  1.1138
  965MOL0     H33142  12.906   2.708   8.721  1.7959 -1.2140  2.0338
  965MOL0     H33143  12.790   2.826   8.798 -0.2281 -0.1948 -1.1244
  965MOL0     H33144  12.948   2.584   8.886 -0.3895  0.0268 -0.2007
  965MOL0     H33145  12.824   2.665   8.997 -3.2249 -0.9561 -1.3606
  965MOL0     H33146  12.958   2.884   8.976  1.0435 -0.7167  0.1491
  965MOL0     H33147  13.060   2.816   8.864  1.2376  2.8106  2.2122
  965MOL0     H33148  13.132   2.639   9.030 -0.6030 -0.4638  0.2885
  965MOL0     H33149  13.038   2.724   9.149  1.2490 -0.8316 -0.1703
  965MOL0     H33150  12.187   2.326   8.721  0.4486 -1.0018 -0.7206
  965MOL0     H33151  11.965   2.437   8.715  0.7409  0.1521 -0.2135
  965MOL0     H33152  11.839   2.989   8.710 -0.4260 -1.2642 -0.0056
  965MOL0     H33153  11.635   3.119   8.698 -0.4557  0.2004 -0.1363
  965MOL0     H33154   9.886   2.642   8.302 -2.0787 -0.8643 -0.8825
  965MOL0     H33155   9.648   2.617   8.242  2.0505 -1.4846  0.5434
  965MOL0     H33156   9.275   2.775   8.141  1.1283  0.6480  1.1892
  965MOL0     H33157   9.050   2.823   8.076 -1.2155 -0.5210 -0.3682
  965MOL0     H33158   8.848   2.864   8.044 -0.2291  3.2054  1.0625
  965MOL0     H33159   8.701   2.772   8.067  1.3499 -1.7370 -0.2175
  965MOL0     H33160   8.694   3.026   8.123 -2.3701 -1.7515 -0.7000
  965MOL0     H33161   8.830   3.007   8.230  0.0415  1.2066 -1.0233
  965MOL0     H33162   8.706   2.868   8.383 -0.3870 -2.7491 -1.8742
  965MOL0     H33163   8.625   3.033   8.349 -0.5596 -0.1736 -0.5212
  965MOL0     H33164   8.457   2.841   8.361  0.3422 -0.3896 -1.3930
  965MOL0     H33165   8.545   2.764   8.235  0.6327 -0.9459  1.9708
  965MOL0     H33166   8.320   3.101   8.071  0.5281 -1.1280 -1.4990
  965MOL0     H33167   8.907   2.616   8.420 -0.2095  0.4041 -0.5873
  965MOL0     H33168   9.184   2.489   8.541 -0.8274 -0.5033 -0.9247
  965MOL0     H33169   9.230   2.651   8.594  0.0222 -0.7947  0.3900
  965MOL0     H33170   9.065   2.602   8.614 -0.3608  1.1823 -0.7354
  966MOL0     O33171   8.784   7.554   7.237  0.0934  0.5615  0.0029
  966MOL0     C33172   8.682   7.558   7.311 -0.1161  0.4437 -0.5507
  966MOL0     O33173   8.614   7.671   7.358 -0.3360 -0.5123 -0.8398
  966MOL0     C33174   8.658   7.792   7.319 -0.2046 -0.0582  0.9703
  966MOL0     C33175   8.631   7.849   7.194 -1.0301  0.2064 -0.3148
  966MOL0     C33176   8.690   7.969   7.147 -0.1504 -0.5155 -2.2546
  966MOL0     C33177   8.751   8.051   7.245 -0.3894  0.8646 -0.1932
  966MOL0     O33178   8.813   8.179   7.232  0.0127 -0.2405  0.0250
  966MOL0     C33179   8.817   8.247   7.106  0.5249 -0.0798  0.7626
  966MOL0     C33180   8.892   8.377   7.105  1.6257  0.8383 -0.3670
  966MOL0     C33181   9.033   8.354   7.136 -0.0331 -0.2827  0.2630
  966MOL0     C33182   9.083   8.496   7.175 -0.4642 -0.0309  0.5051
  966MOL0     C33183   9.242   8.501   7.187 -0.6341 -0.3809  0.4294
  966MOL0     C33184   9.293   8.526   7.048  0.6683  0.4175 -0.1054
  966MOL0     C33185   9.447   8.533   7.041  0.0682  0.2951  0.2238
  966MOL0     C33186   9.502   8.674   7.070 -0.8717  0.4423  0.3646
  966MOL0     N33187   9.639   8.689   7.030  0.1420  0.5807  0.6996
  966MOL0     C33188   9.684   8.646   6.909  0.2126 -0.7933 -0.2385
  966MOL0     C33189   9.821   8.655   6.924  0.1378 -0.1815 -0.1084
  966MOL0     C33190   9.895   8.615   6.808 -0.3625  0.1372 -0.2540
  966MOL0     C33191  10.008   8.715   6.762 -0.5715 -0.9215 -0.1476
  966MOL0     C33192  10.144   8.658   6.814 -0.0960  0.6796  0.9438
  966MOL0     C33193  10.255   8.769   6.792 -0.3308 -0.1716 -0.6148
  966MOL0     O33194  10.334   8.753   6.670  0.1655  0.0223 -0.1948
  966MOL0     C33195  10.461   8.809   6.669 -0.2645 -0.1121  0.1711
  966MOL0     C33196  10.554   8.764   6.573 -0.2363  0.5705 -0.4316
  966MOL0     C33197  10.677   8.826   6.561 -0.6888 -0.1590  0.2955
  966MOL0     C33198  10.756   8.779   6.440 -0.0721 -0.2139 -0.2273
  966MOL0     C33199  10.720   8.933   6.650 -0.0458 -0.2563  0.0979
  966MOL0     C33200  10.856   8.997   6.649 -0.3414  0.3338  0.6108
  966MOL0     O33201  10.890   9.056   6.763 -0.4369  0.7104 -0.1709
  966MOL0     C33202  11.010   9.113   6.808  0.3844  0.1773 -0.2630
  966MOL0     C33203  11.130   9.122   6.740  0.0790  0.2001 -0.7121
  966MOL0     C33204  11.230   9.194   6.796  0.2125  0.7397 -0.6579
  966MOL0     C33205  11.227   9.254   6.918  0.4905 -0.2042 -0.4959
  966MOL0     O33206  11.338   9.316   6.965  0.6517  0.3804  0.5636
  966MOL0     C33207  11.337   9.444   7.034  0.8487  0.5048 -0.2577
  966MOL0     C33208  11.351   9.556   6.937 -0.5685 -0.4764 -1.0806
  966MOL0     C33209  11.420   9.676   6.997 -0.5188  0.8508 -0.3923
  966MOL0     C33210  11.334   9.732   7.107 -1.9488 -0.3982 -0.0326
  966MOL0     C33211  11.402   9.843   7.187  0.2926  0.4439  0.8089
  966MOL0     C33212  11.550   9.835   7.225 -0.0586 -0.1763  0.1732
  966MOL0     C33213  11.569   9.718   7.329  0.1218 -0.5879 -0.2007
  966MOL0     C33214  11.694   9.737   7.419  0.2149 -0.5276 -0.4512
  966MOL0    Cl33215  11.843   9.731   7.327 -0.0511  0.3188 -0.0237
  966MOL0     C33216  11.109   9.239   6.994  0.5099  0.7461 -0.7249
  966MOL0     C33217  10.998   9.173   6.934  0.1433 -0.0846  0.2322
  966MOL0     O33218  10.921   9.020   6.542  0.1189  0.9314  0.1320
  966MOL0     C33219  10.624   8.978   6.744  0.4260 -0.2140  1.0549
  966MOL0     C33220  10.497   8.912   6.754 -0.0272 -0.3162  1.0783
  966MOL0     N33221   9.848   8.698   7.056  0.2972  0.1389  0.5504
  966MOL0     N33222   9.740   8.727   7.114  0.1022  0.2994  0.3516
  966MOL0     C33223   8.787   7.997   7.371  0.3358 -0.8257  0.5694
  966MOL0     C33224   8.739   7.871   7.403  0.7785  1.0821 -0.2677
  966MOL0     C33225   8.621   7.420   7.336  0.1886  1.1539 -0.0279
  966MOL0     C33226   8.669   7.306   7.267  0.0417 -0.0182 -0.4678
  966MOL0     C33227   8.606   7.185   7.277  0.8107 -0.5617 -0.1610
  966MOL0     C33228   8.505   7.165   7.369 -0.3997  0.0720  0.0595
  966MOL0     O33229   8.439   7.039   7.375 -0.3981  0.2217  0.0510
  966MOL0     C33230   8.300   7.037   7.410 -0.0961 -0.5762 -0.1653
  966MOL0     C33231   8.225   6.902   7.375 -0.5856 -0.0991  0.7223
  966MOL0     C33232   8.080   6.898   7.407  0.2546 -0.5041  0.1180
  966MOL0     C33233   8.046   6.916   7.565 -0.9774 -0.6812  0.5594
  966MOL0     C33234   7.910   6.951   7.590  0.4037 -1.4706 -0.5658
  966MOL0     C33235   7.811   7.005   7.647  0.2520  0.2374  0.2219
  966MOL0     C33236   8.471   7.265   7.455 -0.3564  1.3579 -0.3375
  966MOL0     C33237   8.531   7.395   7.445 -0.0211  0.2074 -0.1589
  966MOL0     C33238   8.494   7.505   7.545 -0.6445  0.7977 -0.3237
  966MOL0     H33239   8.566   7.785   7.135 -0.3755 -1.1677  0.4236
  966MOL0     H33240   8.661   8.008   7.050 -2.5953  4.6071  0.1406
  966MOL0     H33241   8.714   8.250   7.068  0.8163 -2.3124 -0.4085
  966MOL0     H33242   8.868   8.181   7.035  0.3168  2.2505 -1.7107
  966MOL0     H33243   8.878   8.423   7.007 -1.5432  3.5141  1.1658
  966MOL0     H33244   8.843   8.435   7.184 -1.0831 -1.5939 -0.0768
  966MOL0     H33245   9.046   8.290   7.224 -0.7435  0.8208  1.2009
  966MOL0     H33246   9.086   8.307   7.052  1.4944  1.5213  0.1651
  966MOL0     H33247   9.038   8.571   7.109 -0.3678 -1.2511 -0.9771
  966MOL0     H33248   9.044   8.527   7.273  0.2936  0.8932  0.5268
  966MOL0     H33249   9.275   8.403   7.221  1.0136 -0.1839 -0.5014
  966MOL0     H33250   9.281   8.579   7.252 -0.7534  0.3067 -0.3030
  966MOL0     H33251   9.262   8.444   6.984  3.4128  0.2765 -1.4146
  966MOL0     H33252   9.255   8.623   7.013  1.3106  0.2485 -1.3393
  966MOL0     H33253   9.467   8.488   6.943 -4.0817  0.5318 -0.9221
  966MOL0     H33254   9.491   8.462   7.112 -1.1141 -0.8838 -0.1879
  966MOL0     H33255   9.440   8.747   7.018 -0.8475  0.0979 -0.1605
  966MOL0     H33256   9.490   8.684   7.178 -2.4280 -1.3931  0.4053
  966MOL0     H33257   9.623   8.614   6.825 -2.5947 -0.1702  1.4270
  966MOL0     H33258   9.825   8.607   6.723 -1.8498 -0.3446  0.9681
  966MOL0     H33259   9.931   8.514   6.826 -0.1807  0.3982  0.8989
  966MOL0     H33260  10.027   8.715   6.654 -0.2832 -0.6091 -0.0979
  966MOL0     H33261   9.991   8.816   6.800  0.0787  0.0146 -2.2060
  966MOL0     H33262  10.127   8.629   6.918 -0.4616  3.5635  1.7699
  966MOL0     H33263  10.167   8.571   6.751  2.0502  0.8623  1.3982
  966MOL0     H33264  10.208   8.868   6.793 -2.2183 -1.0043  2.0253
  966MOL0     H33265  10.322   8.762   6.878 -1.9277  0.7260  0.7750
  966MOL0     H33266  10.518   8.678   6.516  0.6332 -2.2341  2.8891
  966MOL0     H33267  10.819   8.857   6.396 -1.3775 -0.4073 -2.6002
  966MOL0     H33268  10.684   8.760   6.360  0.2089  0.7986 -0.7315
  966MOL0     H33269  10.798   8.681   6.469  0.3041  0.6276  2.2750
  966MOL0     H33270  11.138   9.088   6.638 -1.3144 -2.7245  0.0484
  966MOL0     H33271  11.314   9.230   6.738  0.9114  0.0839 -0.0721
  966MOL0     H33272  11.252   9.460   7.101  1.4104 -1.5771  1.0687
  966MOL0     H33273  11.422   9.436   7.103 -0.1579  0.7790  1.0651
  966MOL0     H33274  11.414   9.523   6.854 -1.7807  1.1885 -2.7359
  966MOL0     H33275  11.251   9.577   6.899 -1.4325  0.0243  1.2921
  966MOL0     H33276  11.454   9.740   6.916  2.2290 -1.2731 -1.0503
  966MOL0     H33277  11.517   9.651   7.040  0.4771  1.9743 -1.9119
  966MOL0     H33278  11.304   9.651   7.175 -1.0240 -0.7570 -0.0397
  966MOL0     H33279  11.243   9.772   7.062 -2.0123 -0.8392 -0.3045
  966MOL0     H33280  11.390   9.933   7.126 -1.2599 -1.4176 -1.8640
  966MOL0     H33281  11.337   9.851   7.274  1.9195 -1.2202  2.2729
  966MOL0     H33282  11.579   9.933   7.265  2.0904  0.0480 -1.7982
  966MOL0     H33283  11.616   9.816   7.141 -1.1646  1.7579 -1.2085
  966MOL0     H33284  11.567   9.623   7.275  2.0430  0.3810 -2.1583
  966MOL0     H33285  11.487   9.716   7.401  0.4191  1.1292  0.2266
  966MOL0     H33286  11.709   9.645   7.475 -1.0660 -0.5873 -0.1687
  966MOL0     H33287  11.688   9.821   7.489 -1.1060 -0.1700 -0.9687
  966MOL0     H33288  11.108   9.288   7.091 -1.0604  0.4625 -0.5742
  966MOL0     H33289  10.901   9.162   6.981 -1.7229  0.8945 -3.0569
  966MOL0     H33290  10.638   9.051   6.823  2.1923 -1.0486  1.5644
  966MOL0     H33291  10.433   8.963   6.824 -1.1825  0.6428 -0.5889
  966MOL0     H33292   8.838   8.054   7.448  1.7363  1.2893 -1.7619
  966MOL0     H33293   8.762   7.835   7.502 -0.5010  0.4814 -0.1646
  966MOL0     H33294   8.744   7.321   7.190 -0.1859  2.2774 -0.3310
  966MOL0     H33295   8.637   7.106   7.209  0.8035 -1.3245  0.7075
  966MOL0     H33296   8.309   7.043   7.519  2.9225  1.0774 -0.3909
  966MOL0     H33297   8.248   7.126   7.374 -0.2318 -0.1596  1.0025
  966MOL0     H33298   8.277   6.825   7.431 -2.3755 -2.0010 -0.0924
  966MOL0     H33299   8.225   6.880   7.267 -0.4878  0.3574  0.6247
  966MOL0     H33300   8.040   6.987   7.360  0.9137 -0.1025  0.3000
  966MOL0     H33301   8.032   6.813   7.358 -0.9621  1.1089 -1.5896
  966MOL0     H33302   8.116   6.986   7.613 -0.6599  0.1090 -0.9660
  966MOL0     H33303   8.067   6.819   7.611  0.4799 -1.0029 -0.6830
  966MOL0     H33304   7.732   7.053   7.701  0.1694 -1.7871  2.0354
  966MOL0     H33305   8.383   7.256   7.517  0.4193 -1.2764  0.4920
  966MOL0     H33306   8.439   7.593   7.510 -0.1326  0.1894 -2.9234
  966MOL0     H33307   8.440   7.457   7.627  1.6418 -1.0208  0.2012
  966MOL0     H33308   8.580   7.542   7.600 -1.9638  2.3207  0.7888
  967MOL0     O33309   0.672   4.861   8.175  0.5300 -0.2951 -0.6889
  967MOL0     C33310   0.666   4.902   8.290 -0.6062 -0.0221 -0.0080
  967MOL0     O33311   0.772   4.952   8.361 -0.3395 -0.0526  0.9551
  967MOL0     C33312   0.889   4.959   8.288 -0.2318 -0.4806  0.1934
  967MOL0     C33313   0.968   4.857   8.237  0.0290  0.1865 -0.5690
  967MOL0     C33314   1.100   4.886   8.193  0.3343 -0.1895  1.1783
  967MOL0     C33315   1.150   5.020   8.180 -0.3485  0.7527  0.9621
  967MOL0     O33316   1.266   5.056   8.125 -0.6282  0.4343  0.0743
  967MOL0     C33317   1.367   4.962   8.115 -0.1069  0.8225  0.6291
  967MOL0     C33318   1.498   5.029   8.085 -0.4024 -0.2224 -0.2846
  967MOL0     C33319   1.606   4.925   8.052  0.0114  0.3282 -0.4714
  967MOL0     C33320   1.733   5.001   8.049 -0.2772  0.0756 -0.0372
  967MOL0     C33321   1.857   4.933   7.992  0.1305  0.3434 -0.6640
  967MOL0     C33322   1.982   5.007   8.031  0.4907  0.1540 -0.2020
  967MOL0     C33323   2.098   4.970   7.946 -0.5697  0.1077  0.3415
  967MOL0     C33324   2.235   5.005   8.018 -0.1408  0.4887  0.5172
  967MOL0     N33325   2.351   4.961   7.941 -0.4494  0.3752  1.1568
  967MOL0     C33326   2.383   4.832   7.912  0.0820 -0.0620  0.0878
  967MOL0     C33327   2.489   4.838   7.824  0.5268 -0.7506 -0.2270
  967MOL0     C33328   2.568   4.720   7.763 -0.3664  0.0009 -0.0476
  967MOL0     C33329   2.611   4.607   7.854 -0.1656 -0.4586 -0.7881
  967MOL0     C33330   2.716   4.641   7.967  0.4186  0.1504 -0.2365
  967MOL0     C33331   2.842   4.711   7.929 -0.5963  0.3669  0.0157
  967MOL0     O33332   2.926   4.622   7.850 -0.3356 -0.9420 -0.6308
  967MOL0     C33333   3.040   4.674   7.787  0.3356 -0.7144  0.3674
  967MOL0     C33334   3.112   4.590   7.716  0.1225 -0.1828  0.1158
  967MOL0     C33335   3.224   4.627   7.637 -0.3506  0.3897  1.2299
  967MOL0     C33336   3.291   4.522   7.557 -0.0382 -0.5177 -0.2410
  967MOL0     C33337   3.270   4.761   7.639 -0.0180 -0.0251 -0.7721
  967MOL0     C33338   3.389   4.809   7.565  0.2877  0.1347  0.5167
  967MOL0     O33339   3.433   4.932   7.602 -0.1817  0.0699  0.3402
  967MOL0     C33340   3.536   4.996   7.528  0.2616 -0.0562  0.0126
  967MOL0     C33341   3.558   5.005   7.391  0.4339 -0.7789  0.0356
  967MOL0     C33342   3.655   5.099   7.342 -0.0096  0.1385  0.5362
  967MOL0     C33343   3.736   5.165   7.435  0.3215 -0.5438 -0.0829
  967MOL0     O33344   3.842   5.245   7.405 -0.0485 -0.0771  0.1169
  967MOL0     C33345   3.922   5.199   7.289  0.3419  0.2907 -0.9498
  967MOL0     C33346   4.057   5.271   7.306 -0.3965 -0.0927  0.1502
  967MOL0     C33347   4.152   5.233   7.187 -0.1031 -0.3404 -0.9697
  967MOL0     C33348   4.277   5.316   7.191 -0.1675 -1.0617 -1.0595
  967MOL0     C33349   4.396   5.255   7.116 -0.5680 -0.2614  0.5285
  967MOL0     C33350   4.508   5.360   7.090 -0.6908  0.2972 -0.3387
  967MOL0     C33351   4.606   5.311   6.978 -0.1456  0.2222  0.1350
  967MOL0     C33352   4.716   5.404   6.944  1.1068  0.6515  0.6410
  967MOL0    Cl33353   4.824   5.407   7.091  0.3199  0.4117 -0.5607
  967MOL0     C33354   3.724   5.145   7.567  1.4670 -0.7126  0.7556
  967MOL0     C33355   3.617   5.068   7.615 -0.3370 -0.2830  0.5122
  967MOL0     O33356   3.441   4.742   7.475 -0.1010  0.3127  0.4216
  967MOL0     C33357   3.187   4.855   7.708 -0.1074 -0.0848 -0.3927
  967MOL0     C33358   3.073   4.814   7.783 -0.3550  0.7182  0.9445
  967MOL0     N33359   2.510   4.966   7.786 -0.1215 -0.3571 -0.4311
  967MOL0     N33360   2.435   5.042   7.866 -0.2539  0.6092  0.2404
  967MOL0     C33361   1.065   5.119   8.222  0.4342 -0.5757 -0.1587
  967MOL0     C33362   0.940   5.088   8.278  0.8432 -0.4425 -0.2313
  967MOL0     C33363   0.542   4.888   8.366  0.3946  0.0436 -0.0123
  967MOL0     C33364   0.455   4.785   8.321  0.3775 -0.4555 -0.7242
  967MOL0     C33365   0.354   4.736   8.408  0.5144  0.3575  0.0216
  967MOL0     C33366   0.322   4.794   8.525 -0.5677 -0.5953 -0.5649
  967MOL0     O33367   0.215   4.742   8.593 -0.2244  0.1686 -0.4512
  967MOL0     C33368   0.174   4.820   8.702  0.4023  0.2302  0.0740
  967MOL0     C33369   0.050   4.754   8.759  0.6143 -0.5888 -0.8132
  967MOL0     C33370   0.062   4.606   8.789  0.1231  0.7859 -0.2077
  967MOL0     C33371  -0.049   4.551   8.886 -0.2357 -0.9443 -0.5501
  967MOL0     C33372  -0.190   4.584   8.837  0.6011 -0.5025 -0.0745
  967MOL0     C33373  -0.309   4.608   8.815  0.4735  0.3472 -0.2597
  967MOL0     C33374   0.397   4.911   8.563  0.3531  0.0214 -1.0502
  967MOL0     C33375   0.508   4.962   8.490  0.0341 -0.4563 -0.2364
  967MOL0     C33376   0.585   5.065   8.557 -0.7863  0.5357 -0.9911
  967MOL0     H33377   0.928   4.757   8.224  0.1498  0.0556  0.0260
  967MOL0     H33378   1.157   4.800   8.160 -0.6777 -1.7641  3.3207
  967MOL0     H33379   1.340   4.894   8.034 -2.0547  0.6456  1.3742
  967MOL0     H33380   1.379   4.896   8.201  0.2997  0.0128 -0.0321
  967MOL0     H33381   1.488   5.087   7.993 -0.4970  1.8726  0.9784
  967MOL0     H33382   1.526   5.082   8.176  1.3628 -0.3911 -0.6988
  967MOL0     H33383   1.605   4.853   8.135  1.3766  0.8320  0.0105
  967MOL0     H33384   1.586   4.875   7.957 -1.3924 -1.2360  0.5864
  967MOL0     H33385   1.721   5.086   7.982 -1.6350 -1.0815 -1.3191
  967MOL0     H33386   1.754   5.034   8.151  0.3382 -1.6758  0.4535
  967MOL0     H33387   1.844   4.924   7.883  0.6769  0.9426 -0.7798
  967MOL0     H33388   1.868   4.831   8.030  0.5997  0.8125  0.4770
  967MOL0     H33389   1.963   5.114   8.017 -0.4473  0.2445  1.5573
  967MOL0     H33390   2.007   4.996   8.137 -0.1193  2.0480  0.1741
  967MOL0     H33391   2.079   5.009   7.846 -2.1488  1.1946  1.0273
  967MOL0     H33392   2.097   4.861   7.938  0.4563  0.2306 -3.0792
  967MOL0     H33393   2.243   5.113   8.035  0.1805  0.2783  1.7877
  967MOL0     H33394   2.246   4.951   8.112  2.0168 -1.3485 -0.6931
  967MOL0     H33395   2.331   4.747   7.955 -2.2867  1.1557 -0.2373
  967MOL0     H33396   2.658   4.747   7.706  1.0677 -1.0922  1.6202
  967MOL0     H33397   2.492   4.682   7.694 -1.6407  0.6159  0.9829
  967MOL0     H33398   2.519   4.556   7.884  0.1592  0.0350  1.1288
  967MOL0     H33399   2.669   4.539   7.790  0.4716 -0.5297 -0.1514
  967MOL0     H33400   2.657   4.700   8.038  0.2418  0.4681 -0.6430
  967MOL0     H33401   2.742   4.548   8.018  2.1116 -1.2407 -3.3145
  967MOL0     H33402   2.818   4.804   7.877 -3.9854 -1.0220 -1.1557
  967MOL0     H33403   2.894   4.741   8.021 -2.1584 -0.0845  1.0848
  967MOL0     H33404   3.076   4.487   7.715  0.2934 -0.2625 -1.5566
  967MOL0     H33405   3.241   4.427   7.575 -3.6509  1.6278  2.3325
  967MOL0     H33406   3.392   4.509   7.598 -0.5319 -1.6372  0.6696
  967MOL0     H33407   3.286   4.544   7.450 -1.2954 -0.3125 -0.1459
  967MOL0     H33408   3.502   4.942   7.323 -1.4709 -0.9395  1.6932
  967MOL0     H33409   3.667   5.128   7.239 -0.6823  0.0492  0.4264
  967MOL0     H33410   3.936   5.090   7.283  2.2382  0.4435 -0.1702
  967MOL0     H33411   3.864   5.225   7.200 -1.1677 -3.4702 -1.2541
  967MOL0     H33412   4.037   5.379   7.308 -1.5189  0.0326 -4.7856
  967MOL0     H33413   4.097   5.242   7.404 -4.8715 -1.7384  1.7053
  967MOL0     H33414   4.099   5.235   7.091 -2.3816  1.7161  0.2089
  967MOL0     H33415   4.186   5.130   7.199  1.2333  0.4297  3.5796
  967MOL0     H33416   4.315   5.337   7.291 -0.4301 -1.4239 -0.8860
  967MOL0     H33417   4.255   5.412   7.143 -0.1370 -0.3482  0.3028
  967MOL0     H33418   4.438   5.174   7.176 -0.4768 -2.0553 -1.8415
  967MOL0     H33419   4.369   5.222   7.016  1.6547 -2.7063  0.6289
  967MOL0     H33420   4.574   5.371   7.176  0.9318  0.6727 -1.5809
  967MOL0     H33421   4.466   5.455   7.056 -2.3983 -0.0774  0.5824
  967MOL0     H33422   4.558   5.287   6.883  0.8030 -0.0845 -0.2862
  967MOL0     H33423   4.653   5.218   7.012 -0.2178 -0.2748 -1.0708
  967MOL0     H33424   4.677   5.500   6.909 -2.8000 -0.9645  0.0786
  967MOL0     H33425   4.763   5.354   6.858 -2.8454  0.1243 -1.4430
  967MOL0     H33426   3.790   5.194   7.637 -1.4532  0.0979  3.1311
  967MOL0     H33427   3.619   5.066   7.724  2.0732  0.3160  0.5357
  967MOL0     H33428   3.201   4.961   7.724  0.2137  0.1420 -2.0601
  967MOL0     H33429   3.011   4.896   7.818 -0.2284  2.0870 -1.7826
  967MOL0     H33430   1.088   5.223   8.202 -0.5339 -0.1435  0.8557
  967MOL0     H33431   0.891   5.180   8.311 -1.4626 -0.2341 -3.6610
  967MOL0     H33432   0.467   4.732   8.227 -0.3228 -0.5519 -0.7583
  967MOL0     H33433   0.291   4.655   8.373  0.8429  0.2638 -0.3549
  967MOL0     H33434   0.252   4.828   8.779  1.1166 -1.6122 -0.3846
  967MOL0     H33435   0.146   4.919   8.666  1.9534  0.3846 -0.7796
  967MOL0     H33436  -0.035   4.765   8.691  0.4243 -1.2105 -0.6855
  967MOL0     H33437   0.042   4.804   8.856 -0.1137 -2.5888  0.2157
  967MOL0     H33438   0.049   4.549   8.697 -2.0862 -1.6183  1.4414
  967MOL0     H33439   0.162   4.588   8.830  0.5903  2.6459 -0.4606
  967MOL0     H33440  -0.042   4.599   8.984 -1.0253 -2.8119  0.4809
  967MOL0     H33441  -0.038   4.445   8.910  3.1624  0.1768  4.3124
  967MOL0     H33442  -0.412   4.625   8.788  0.0449 -0.8767  0.4866
  967MOL0     H33443   0.376   4.944   8.664  2.5078 -0.5723 -0.3512
  967MOL0     H33444   0.674   5.020   8.601  0.4518  3.4771 -0.2660
  967MOL0     H33445   0.607   5.140   8.481 -3.7041  2.2116 -0.3485
  967MOL0     H33446   0.542   5.118   8.643  3.5184  2.1268  0.4124
  968MOL0     O33447   8.045   8.963   5.033  0.2297  0.3751  0.1865
  968MOL0     C33448   7.962   8.911   5.109  0.3489 -0.6413  0.1381
  968MOL0     O33449   7.972   8.787   5.163 -0.7687 -0.4765 -0.2204
  968MOL0     C33450   8.083   8.712   5.122  0.3979  0.3425  0.5733
  968MOL0     C33451   8.050   8.588   5.062  0.3825 -0.1950 -0.2621
  968MOL0     C33452   8.145   8.499   5.026 -0.5287 -0.6527  0.0645
  968MOL0     C33453   8.280   8.530   5.050 -0.2475  0.9698  0.4882
  968MOL0     O33454   8.373   8.438   5.013  0.1715  0.2138  0.1227
  968MOL0     C33455   8.517   8.450   4.999  0.3264 -0.1005  0.1905
  968MOL0     C33456   8.563   8.319   4.955 -0.0147  0.5063  0.5244
  968MOL0     C33457   8.531   8.298   4.806 -0.6882  0.7494 -0.0689
  968MOL0     C33458   8.545   8.144   4.760 -0.2195 -0.5690 -0.0332
  968MOL0     C33459   8.692   8.098   4.778  0.4081  0.7313 -0.2202
  968MOL0     C33460   8.713   7.965   4.695 -0.8200 -0.2213  0.1131
  968MOL0     C33461   8.846   7.904   4.718  0.3677 -0.0592 -0.0337
  968MOL0     C33462   8.864   7.824   4.854  0.4003 -0.1595 -0.4009
  968MOL0     N33463   8.986   7.746   4.861 -0.4154  0.4082 -0.4585
  968MOL0     C33464   8.992   7.611   4.843 -0.1360  0.1120  0.0892
  968MOL0     C33465   9.119   7.576   4.892  0.0936 -0.6546 -0.6504
  968MOL0     C33466   9.175   7.436   4.874  0.8883 -0.1092  0.2807
  968MOL0     C33467   9.281   7.399   4.982  0.4111  0.2815 -0.2874
  968MOL0     C33468   9.222   7.375   5.119 -0.2716  1.4099  0.3246
  968MOL0     C33469   9.328   7.312   5.212  0.3156 -0.2433 -0.3716
  968MOL0     O33470   9.382   7.181   5.169 -0.2277 -0.4692 -0.0993
  968MOL0     C33471   9.480   7.120   5.243 -0.3703  0.0745 -0.7694
  968MOL0     C33472   9.532   7.000   5.187  0.8622 -1.1997 -1.1057
  968MOL0     C33473   9.633   6.928   5.252 -0.3447  0.0145  0.3789
  968MOL0     C33474   9.677   6.801   5.191  0.3776  0.2218 -0.3495
  968MOL0     C33475   9.690   6.974   5.376  0.8240  0.2212 -0.5485
  968MOL0     C33476   9.791   6.904   5.466 -0.2764 -0.1989 -0.1599
  968MOL0     O33477   9.820   6.967   5.590 -0.0310 -0.5460 -0.1486
  968MOL0     C33478   9.931   6.917   5.654 -0.1277 -0.5835  0.1202
  968MOL0     C33479   9.923   6.846   5.773 -0.1788  0.0646 -0.5846
  968MOL0     C33480  10.038   6.821   5.859  0.1533 -0.6278 -0.4490
  968MOL0     C33481  10.162   6.876   5.828 -0.1434  0.2087 -0.0537
  968MOL0     O33482  10.274   6.846   5.909 -0.4446  0.7354 -0.1382
  968MOL0     C33483  10.402   6.899   5.870  0.6548 -0.1525  0.8639
  968MOL0     C33484  10.501   6.861   5.978 -0.3789 -0.0581  0.1479
  968MOL0     C33485  10.651   6.900   5.936  0.6700  0.3680 -0.1693
  968MOL0     C33486  10.743   6.881   6.050  0.2571 -0.4033  0.3451
  968MOL0     C33487  10.872   6.953   6.036  0.5596  0.0306 -0.1073
  968MOL0     C33488  10.971   6.913   6.154 -0.0753 -0.0312  0.4687
  968MOL0     C33489  11.113   6.969   6.139  0.3306 -0.7252 -1.0706
  968MOL0     C33490  11.182   6.968   6.271  0.3793 -0.0394 -0.2679
  968MOL0    Cl33491  11.349   7.022   6.255 -0.2667 -0.1251 -0.2138
  968MOL0     C33492  10.166   6.957   5.710  0.0639  0.2907  0.6984
  968MOL0     C33493  10.050   6.983   5.625 -0.1413 -0.1374  0.0582
  968MOL0     O33494   9.840   6.802   5.427 -0.9241  0.6020  0.8855
  968MOL0     C33495   9.642   7.098   5.419 -0.5201  1.4405  0.0301
  968MOL0     C33496   9.545   7.171   5.352  0.5290 -0.2726 -0.5142
  968MOL0     N33497   9.164   7.678   4.970 -1.5648  0.0361  0.3705
  968MOL0     N33498   9.081   7.775   4.950 -0.6904 -0.5403  0.5378
  968MOL0     C33499   8.316   8.650   5.116 -0.6067  0.1547 -0.3910
  968MOL0     C33500   8.217   8.742   5.150  0.5519  0.6466 -0.6080
  968MOL0     C33501   7.856   9.002   5.155  0.3407  0.3918 -0.3677
  968MOL0     C33502   7.818   9.003   5.290 -1.0001  0.1541 -0.5752
  968MOL0     C33503   7.707   9.072   5.338 -0.0872 -0.1746  0.5406
  968MOL0     C33504   7.647   9.163   5.256  0.2230 -0.6618 -0.3429
  968MOL0     O33505   7.550   9.258   5.297  0.0787  0.7418  0.4426
  968MOL0     C33506   7.471   9.227   5.406  0.0847 -0.1548 -0.2013
  968MOL0     C33507   7.436   9.358   5.471 -0.0327  0.2554  0.4786
  968MOL0     C33508   7.558   9.413   5.542 -0.9649 -0.6092 -0.1159
  968MOL0     C33509   7.524   9.519   5.656 -0.0469  0.1526 -0.2770
  968MOL0     C33510   7.640   9.598   5.690 -0.2720 -0.0063  0.6197
  968MOL0     C33511   7.747   9.656   5.707  0.6379 -0.4163  0.6919
  968MOL0     C33512   7.693   9.176   5.129 -0.1530  0.9339 -0.4978
  968MOL0     C33513   7.780   9.089   5.069 -0.1025  1.0394  0.2066
  968MOL0     C33514   7.805   9.096   4.921  0.7588 -0.5457  0.1308
  968MOL0     H33515   7.942   8.575   5.058  0.4904 -0.7120 -2.6304
  968MOL0     H33516   8.130   8.394   5.002  6.1832 -1.4460 -3.1074
  968MOL0     H33517   8.564   8.476   5.095 -1.0966 -3.1301  1.8379
  968MOL0     H33518   8.538   8.528   4.925 -1.9357  3.2047  2.6907
  968MOL0     H33519   8.670   8.328   4.976  0.0302  0.6188  0.2530
  968MOL0     H33520   8.514   8.239   5.011 -0.6184  0.7759  0.3921
  968MOL0     H33521   8.430   8.333   4.781 -0.6182  0.4921 -0.7483
  968MOL0     H33522   8.603   8.363   4.755  1.0495 -0.4200  0.8039
  968MOL0     H33523   8.472   8.085   4.816  0.1381  1.4145  2.7397
  968MOL0     H33524   8.534   8.147   4.651  0.9898 -0.4060 -0.1717
  968MOL0     H33525   8.704   8.065   4.882  1.9322  1.3571 -0.1764
  968MOL0     H33526   8.759   8.176   4.742 -1.4128  2.3630 -0.2182
  968MOL0     H33527   8.641   7.889   4.729 -0.8443 -0.3248 -0.1620
  968MOL0     H33528   8.695   7.987   4.589  0.6573 -3.4382 -0.9308
  968MOL0     H33529   8.919   7.985   4.726  1.6738 -1.3044  1.0662
  968MOL0     H33530   8.869   7.841   4.631 -0.6382  1.8525 -1.7831
  968MOL0     H33531   8.851   7.898   4.934 -4.2938  1.5318 -2.3524
  968MOL0     H33532   8.778   7.760   4.876 -1.9841  3.2739  1.1630
  968MOL0     H33533   8.936   7.543   4.780  1.7442 -0.6882 -0.8028
  968MOL0     H33534   9.219   7.437   4.773  0.3799 -0.2378  0.0533
  968MOL0     H33535   9.095   7.361   4.872 -0.2824  1.0135  2.1017
  968MOL0     H33536   9.329   7.308   4.945  1.9546  0.4365  1.2358
  968MOL0     H33537   9.357   7.477   4.987 -0.1097  0.8225 -0.5973
  968MOL0     H33538   9.193   7.473   5.156 -0.1730  1.7061 -0.3688
  968MOL0     H33539   9.144   7.298   5.116  1.4106 -0.4075  1.0308
  968MOL0     H33540   9.408   7.383   5.233 -1.9076  1.9699  1.3215
  968MOL0     H33541   9.278   7.280   5.304 -2.0860 -1.6660 -2.0482
  968MOL0     H33542   9.490   6.974   5.091 -0.9169 -0.8224 -0.4640
  968MOL0     H33543   9.634   6.722   5.254 -0.5772 -0.4083 -1.7555
  968MOL0     H33544   9.786   6.789   5.189  0.1584 -2.2785 -0.4314
  968MOL0     H33545   9.642   6.799   5.088  0.8351 -1.4968 -0.5032
  968MOL0     H33546   9.827   6.803   5.802  0.9798 -0.7600  2.3899
  968MOL0     H33547  10.041   6.747   5.939 -0.4450  0.0379  0.1968
  968MOL0     H33548  10.438   6.871   5.771  0.2388  0.6417  0.4754
  968MOL0     H33549  10.403   7.009   5.874  0.4402 -0.0566 -0.8661
  968MOL0     H33550  10.464   6.911   6.067  0.5589  2.4203 -0.7652
  968MOL0     H33551  10.496   6.754   5.998 -2.5837  0.2438  1.4563
  968MOL0     H33552  10.639   7.005   5.905 -0.5964  0.9006  1.9618
  968MOL0     H33553  10.681   6.839   5.850 -0.5217 -1.8316  0.8988
  968MOL0     H33554  10.763   6.774   6.051  2.8566 -0.0095 -0.2738
  968MOL0     H33555  10.691   6.909   6.142  1.6078  0.4996  0.8833
  968MOL0     H33556  10.918   6.904   5.950  0.8925 -2.5714  1.4529
  968MOL0     H33557  10.867   7.062   6.027  1.0160  0.0279 -0.4554
  968MOL0     H33558  10.976   6.804   6.146 -3.7898 -0.3160  0.4238
  968MOL0     H33559  10.920   6.947   6.244 -3.5136 -2.3535 -0.3999
  968MOL0     H33560  11.113   7.068   6.093 -0.2844  0.3361  1.0889
  968MOL0     H33561  11.164   6.896   6.075 -0.4891  1.0808 -4.0059
  968MOL0     H33562  11.186   6.864   6.306  0.0926  0.1460  0.3238
  968MOL0     H33563  11.125   7.035   6.335  3.1813  1.9307  0.3223
  968MOL0     H33564  10.259   6.996   5.670  0.9441 -0.0457  2.3523
  968MOL0     H33565  10.065   7.043   5.536  1.7509  0.5120  0.7759
  968MOL0     H33566   9.677   7.136   5.515  0.2473  0.6528  0.0667
  968MOL0     H33567   9.524   7.272   5.388 -0.0969 -0.2365 -0.9595
  968MOL0     H33568   8.419   8.676   5.141 -0.3716 -1.4702  0.4949
  968MOL0     H33569   8.246   8.834   5.200  2.7588  0.4046 -1.3609
  968MOL0     H33570   7.876   8.942   5.358  1.6925  1.1520 -1.8668
  968MOL0     H33571   7.681   9.062   5.443 -0.1052  1.2973  0.6908
  968MOL0     H33572   7.378   9.183   5.368 -0.6210 -1.0465  2.3409
  968MOL0     H33573   7.502   9.156   5.484 -0.7633  0.0872  0.3771
  968MOL0     H33574   7.354   9.343   5.542  0.2425 -2.2140  0.3502
  968MOL0     H33575   7.397   9.428   5.397 -1.0204 -0.5198  0.2487
  968MOL0     H33576   7.608   9.326   5.583  1.4344 -0.1206 -1.8154
  968MOL0     H33577   7.625   9.454   5.466 -0.8304  0.3838  0.5212
  968MOL0     H33578   7.489   9.460   5.741 -1.8017 -0.5958 -1.4544
  968MOL0     H33579   7.442   9.585   5.627 -1.1155 -1.2427 -0.5794
  968MOL0     H33580   7.838   9.710   5.725 -1.0623  2.6478  0.7387
  968MOL0     H33581   7.645   9.253   5.069 -0.2736  1.2188 -0.0394
  968MOL0     H33582   7.792   8.996   4.878  2.4384 -0.7875  0.1439
  968MOL0     H33583   7.722   9.162   4.892 -0.1423 -1.0851  1.3781
  968MOL0     H33584   7.896   9.151   4.897  0.4069  0.3300  0.7607
  969MOL0     O33585   2.150  10.415   2.783 -0.0056  0.1477  0.8362
  969MOL0     C33586   2.049  10.471   2.817  0.2843 -0.9026 -0.4485
  969MOL0     O33587   2.048  10.606   2.845  0.0484 -0.6680 -0.5018
  969MOL0     C33588   2.155  10.687   2.806  0.8021  0.3267  0.2545
  969MOL0     C33589   2.126  10.804   2.734 -0.5201  0.2331 -0.1739
  969MOL0     C33590   2.235  10.877   2.686 -0.2707  0.8444  0.6290
  969MOL0     C33591   2.370  10.854   2.716 -1.0021 -0.0018  0.1061
  969MOL0     O33592   2.463  10.949   2.673 -0.1422  0.2636 -0.4288
  969MOL0     C33593   2.584  10.886   2.631  0.0234  0.4407  0.7684
  969MOL0     C33594   2.658  11.002   2.547 -0.2142  0.2547  0.3295
  969MOL0     C33595   2.617  11.007   2.396 -0.4717  0.5452 -0.2550
  969MOL0     C33596   2.648  11.141   2.344  0.6492  0.2206 -0.2527
  969MOL0     C33597   2.653  11.153   2.190 -0.7411  0.9163  0.6709
  969MOL0     C33598   2.636  11.288   2.142  1.1435 -1.0305  0.0787
  969MOL0     C33599   2.704  11.312   2.013 -0.6493  0.2043  0.4767
  969MOL0     C33600   2.683  11.450   1.963  0.2089 -0.9689 -0.4378
  969MOL0     N33601   2.728  11.555   2.051  0.2055  0.6174 -0.0871
  969MOL0     C33602   2.813  11.644   2.003 -0.5651  0.7113 -0.0013
  969MOL0     C33603   2.813  11.750   2.084  0.6836  0.7116 -0.0780
  969MOL0     C33604   2.889  11.884   2.063  0.2977 -0.8045  0.1869
  969MOL0     C33605   3.016  11.870   2.141 -0.6683 -0.0660  0.3501
  969MOL0     C33606   3.048  12.021   2.174 -0.2034 -0.3656 -0.0914
  969MOL0     C33607   3.162  12.037   2.275 -0.1405  0.5751 -0.1412
  969MOL0     O33608   3.273  11.946   2.243  0.4917  0.2763 -0.1121
  969MOL0     C33609   3.393  11.947   2.314 -0.1657  0.3950  0.5077
  969MOL0     C33610   3.410  12.002   2.441  0.4865 -0.1058  0.1991
  969MOL0     C33611   3.536  12.007   2.505  0.0920 -0.0805 -1.0007
  969MOL0     C33612   3.539  12.048   2.652  0.3932 -0.8591 -0.5269
  969MOL0     C33613   3.646  11.960   2.437 -0.4527  0.5225  0.0447
  969MOL0     C33614   3.785  11.973   2.485 -0.5589  0.1500  0.1730
  969MOL0     O33615   3.885  11.933   2.399 -0.4631  0.2292 -0.1168
  969MOL0     C33616   4.014  11.980   2.404 -0.2807 -0.6815 -0.4134
  969MOL0     C33617   4.059  12.106   2.466  0.1920  1.1383 -0.5628
  969MOL0     C33618   4.199  12.131   2.465  0.3155  0.4507 -0.0581
  969MOL0     C33619   4.295  12.038   2.402  0.2710  0.8739 -0.5014
  969MOL0     O33620   4.432  12.052   2.394 -0.5776  0.0352  0.7150
  969MOL0     C33621   4.478  12.184   2.379 -0.1407 -0.2717  0.5150
  969MOL0     C33622   4.629  12.192   2.332  1.0229  0.0661 -0.2859
  969MOL0     C33623   4.726  12.181   2.455 -0.2201 -0.4513 -0.1832
  969MOL0     C33624   4.871  12.195   2.424  0.2770  0.6496 -0.8333
  969MOL0     C33625   4.971  12.120   2.513  0.1205 -0.5846 -0.7573
  969MOL0     C33626   4.977  12.177   2.651  1.2478  0.3888 -0.6249
  969MOL0     C33627   5.091  12.112   2.741  0.7055  0.1621 -0.0168
  969MOL0     C33628   5.099  12.171   2.880 -0.4994  1.0268  0.9646
  969MOL0    Cl33629   5.137  12.339   2.869  0.1879 -0.0706 -0.1552
  969MOL0     C33630   4.246  11.914   2.359 -0.2922 -0.3120  0.7818
  969MOL0     C33631   4.108  11.890   2.344 -0.1573 -0.3064 -0.1069
  969MOL0     O33632   3.802  12.026   2.596 -0.3208  0.9372 -0.7665
  969MOL0     C33633   3.624  11.913   2.303  0.5303 -0.4724  0.4156
  969MOL0     C33634   3.501  11.900   2.238  0.0658  0.2192  0.2988
  969MOL0     N33635   2.719  11.718   2.190 -0.1873  0.3066  0.2272
  969MOL0     N33636   2.666  11.603   2.164 -0.2650  0.1671  0.8023
  969MOL0     C33637   2.396  10.740   2.805 -0.1102 -0.9371  0.3611
  969MOL0     C33638   2.290  10.657   2.843 -0.1859 -0.3618 -0.8122
  969MOL0     C33639   1.926  10.401   2.841  0.2448 -0.3648  0.4256
  969MOL0     C33640   1.823  10.461   2.909 -0.1603  0.4019 -0.8519
  969MOL0     C33641   1.709  10.396   2.941  0.3808  0.0704  0.4567
  969MOL0     C33642   1.685  10.265   2.898 -0.0974  0.2942 -0.9043
  969MOL0     O33643   1.571  10.191   2.931  0.2342 -0.4183  0.1210
  969MOL0     C33644   1.448  10.263   2.942  0.0710 -0.1414 -0.0724
  969MOL0     C33645   1.384  10.317   2.804 -1.2017 -0.5691  0.5398
  969MOL0     C33646   1.383  10.223   2.680  0.0909 -0.1704 -0.0014
  969MOL0     C33647   1.287  10.274   2.572 -0.5761  1.3144  0.4732
  969MOL0     C33648   1.151  10.321   2.604  0.1648 -0.6354 -0.5254
  969MOL0     C33649   1.036  10.369   2.615  0.5230 -0.1845 -0.3360
  969MOL0     C33650   1.780  10.206   2.823  0.5433 -0.1469  0.1994
  969MOL0     C33651   1.902  10.271   2.792 -0.5429 -0.5942  0.9360
  969MOL0     C33652   1.985  10.180   2.702 -0.9384  0.2152  0.3504
  969MOL0     H33653   2.023  10.835   2.723 -0.4245  0.2855 -1.0295
  969MOL0     H33654   2.218  10.965   2.625  1.1283  1.3570  0.9567
  969MOL0     H33655   2.555  10.796   2.576  1.8882  0.5293 -0.4362
  969MOL0     H33656   2.655  10.859   2.710  1.9223 -2.2224 -1.6316
  969MOL0     H33657   2.635  11.094   2.602  1.1574 -0.2099  1.7573
  969MOL0     H33658   2.766  10.988   2.553 -0.2440  0.3954  1.5802
  969MOL0     H33659   2.678  10.937   2.339 -0.3379 -1.4229  2.1303
  969MOL0     H33660   2.513  10.982   2.374  0.7745 -1.6971 -4.7103
  969MOL0     H33661   2.573  11.206   2.390 -1.5489 -2.3421  0.0642
  969MOL0     H33662   2.741  11.174   2.391 -0.0422 -0.2581  1.5356
  969MOL0     H33663   2.585  11.083   2.140  1.2733 -1.3861  0.9207
  969MOL0     H33664   2.752  11.109   2.171 -1.9101 -2.6744  1.9861
  969MOL0     H33665   2.529  11.311   2.140  1.4492  0.4847 -0.8680
  969MOL0     H33666   2.682  11.355   2.216  2.9114  0.3722 -2.1389
  969MOL0     H33667   2.670  11.243   1.936  1.1333 -1.2999  0.9643
  969MOL0     H33668   2.813  11.299   2.015 -0.6568  0.2281  1.5911
  969MOL0     H33669   2.739  11.454   1.869 -0.5191  2.4039 -0.8312
  969MOL0     H33670   2.576  11.452   1.942  0.1322 -1.5289 -0.1122
  969MOL0     H33671   2.874  11.627   1.914  0.3979  0.5890  0.6711
  969MOL0     H33672   2.824  11.964   2.100  0.4596  0.5423 -2.2441
  969MOL0     H33673   2.908  11.914   1.960 -1.5318  0.4648  0.1752
  969MOL0     H33674   2.996  11.810   2.231  0.6925 -1.0308  0.0336
  969MOL0     H33675   3.099  11.825   2.085 -2.8287 -1.3305 -2.0567
  969MOL0     H33676   3.085  12.074   2.086  1.6586 -0.5768  0.5178
  969MOL0     H33677   2.960  12.082   2.196 -0.2814  0.0959 -1.5840
  969MOL0     H33678   3.204  12.138   2.288  0.4203  0.1769  1.2820
  969MOL0     H33679   3.131  12.018   2.378  1.2566 -1.4800 -0.0473
  969MOL0     H33680   3.320  12.033   2.493  0.5027  0.9949 -0.4142
  969MOL0     H33681   3.601  12.137   2.668  3.6301 -2.5321 -2.8093
  969MOL0     H33682   3.581  11.968   2.714 -2.4703 -2.3062 -0.2813
  969MOL0     H33683   3.438  12.082   2.678  1.1922  1.3341 -0.0702
  969MOL0     H33684   3.997  12.179   2.517  0.1290  0.5601  0.2053
  969MOL0     H33685   4.222  12.224   2.518 -1.3876 -0.4823  2.5198
  969MOL0     H33686   4.415  12.228   2.301 -1.5698  0.0861  1.8057
  969MOL0     H33687   4.455  12.254   2.460 -0.2937  2.5533 -1.8238
  969MOL0     H33688   4.648  12.115   2.257  2.5133  0.4739 -0.3669
  969MOL0     H33689   4.657  12.281   2.276  1.3217 -0.9931 -1.8911
  969MOL0     H33690   4.703  12.091   2.513 -1.8603  1.3288  2.1167
  969MOL0     H33691   4.705  12.256   2.533  3.7004 -1.5978  2.2895
  969MOL0     H33692   4.901  12.297   2.399  1.6531 -0.0207 -2.0696
  969MOL0     H33693   4.872  12.132   2.335  1.0774 -0.0119 -0.3633
  969MOL0     H33694   4.946  12.013   2.520  2.7656 -1.2237  0.1570
  969MOL0     H33695   5.073  12.123   2.474  0.1449  0.1004 -0.6496
  969MOL0     H33696   4.888  12.160   2.713  1.5564 -0.5679 -0.4289
  969MOL0     H33697   4.991  12.285   2.653 -1.2552  0.7857 -1.1666
  969MOL0     H33698   5.189  12.125   2.694 -0.1366  0.1994 -1.8473
  969MOL0     H33699   5.054  12.009   2.746  0.3256  0.1798 -1.7707
  969MOL0     H33700   5.174  12.106   2.924  0.3716 -1.0589 -3.0683
  969MOL0     H33701   5.007  12.157   2.938  1.2715  0.5563  3.7925
  969MOL0     H33702   4.309  11.840   2.311 -0.5141  1.3102 -2.3161
  969MOL0     H33703   4.085  11.794   2.297  1.3287 -0.6947 -0.0638
  969MOL0     H33704   3.709  11.889   2.240  1.8210 -1.7365  2.4826
  969MOL0     H33705   3.482  11.850   2.144  0.6435 -1.4216  1.0090
  969MOL0     H33706   2.495  10.723   2.848 -0.2089  0.5862  1.2529
  969MOL0     H33707   2.308  10.570   2.905  3.3498  0.2753 -0.7617
  969MOL0     H33708   1.825  10.565   2.942 -1.4649  0.5178 -1.0745
  969MOL0     H33709   1.642  10.445   3.011  1.5953  0.1419  1.5984
  969MOL0     H33710   1.386  10.188   2.992 -1.9760  0.6410 -1.3068
  969MOL0     H33711   1.449  10.354   3.002 -2.7459  1.1155 -1.7521
  969MOL0     H33712   1.441  10.402   2.767 -0.8935 -1.0417 -0.0982
  969MOL0     H33713   1.287  10.359   2.834 -0.0866  1.0734  2.0154
  969MOL0     H33714   1.485  10.220   2.641 -0.1591 -2.9057 -0.6175
  969MOL0     H33715   1.357  10.119   2.703  2.1496 -0.9910 -1.0323
  969MOL0     H33716   1.286  10.200   2.492  2.2954 -1.0348  2.4340
  969MOL0     H33717   1.329  10.363   2.523 -1.1983  2.2935  1.6731
  969MOL0     H33718   0.941  10.417   2.619  0.2916 -0.7436  1.1676
  969MOL0     H33719   1.757  10.102   2.802 -1.1448  0.1228  0.5221
  969MOL0     H33720   2.029  10.244   2.625 -2.5603 -0.0449 -0.8503
  969MOL0     H33721   2.054  10.114   2.756  0.5447  0.4915 -1.1441
  969MOL0     H33722   1.916  10.112   2.650 -1.6354 -1.4592  3.2538
  970MOL0     O33723   2.430   4.857   0.903 -0.2863 -0.1718  0.2253
  970MOL0     C33724   2.400   4.793   0.801  0.4314  0.5870 -0.4934
  970MOL0     O33725   2.484   4.750   0.705  0.5288  0.2631  0.2682
  970MOL0     C33726   2.608   4.813   0.683  0.4984  0.0788 -0.3345
  970MOL0     C33727   2.702   4.737   0.613 -0.9261 -0.2948  0.3179
  970MOL0     C33728   2.827   4.803   0.587 -0.0620  0.3869 -0.9954
  970MOL0     C33729   2.856   4.932   0.617  0.1529 -0.7540 -0.0664
  970MOL0     O33730   2.972   4.984   0.577 -0.1172 -0.0408  0.1961
  970MOL0     C33731   3.058   5.030   0.676  0.6588 -0.1538  0.6042
  970MOL0     C33732   3.179   4.938   0.688 -0.8852  0.6936  0.7561
  970MOL0     C33733   3.263   4.962   0.806  0.1684 -0.5408 -0.7801
  970MOL0     C33734   3.373   4.854   0.818  0.3953 -0.2150 -0.7838
  970MOL0     C33735   3.460   4.876   0.936 -0.3631 -0.4415 -0.5644
  970MOL0     C33736   3.551   4.759   0.964 -0.2044  0.3609  0.3206
  970MOL0     C33737   3.494   4.650   1.060 -0.5589  0.1687  0.9361
  970MOL0     C33738   3.601   4.538   1.092  0.2432 -0.1222  0.1046
  970MOL0     N33739   3.739   4.582   1.145  0.6568  0.3927  0.9707
  970MOL0     C33740   3.854   4.607   1.063  0.1845  1.2595 -0.0025
  970MOL0     C33741   3.928   4.690   1.142  0.3482  0.1579  0.3483
  970MOL0     C33742   4.053   4.756   1.096  0.1796  1.1422  0.3984
  970MOL0     C33743   4.161   4.662   1.044  0.0074  0.2994  0.0840
  970MOL0     C33744   4.301   4.712   1.086 -0.1498  0.1735  0.4706
  970MOL0     C33745   4.410   4.641   1.011 -0.6918  0.2817 -0.6944
  970MOL0     O33746   4.378   4.649   0.872 -0.1627 -1.0616  0.3061
  970MOL0     C33747   4.438   4.566   0.788  0.0848 -0.0606  0.9384
  970MOL0     C33748   4.551   4.486   0.817  0.0440  0.1167  0.8977
  970MOL0     C33749   4.603   4.401   0.722 -0.4189 -0.4705  0.1300
  970MOL0     C33750   4.735   4.345   0.748 -0.1184 -0.2094  0.1026
  970MOL0     C33751   4.537   4.388   0.600  0.2604 -0.6127  0.2267
  970MOL0     C33752   4.587   4.305   0.491  1.1612 -0.5900  0.5017
  970MOL0     O33753   4.547   4.333   0.363 -0.0854 -0.5258 -0.0976
  970MOL0     C33754   4.601   4.268   0.254 -0.6937 -0.2675  0.0435
  970MOL0     C33755   4.734   4.222   0.246 -0.4297 -0.3094  0.0437
  970MOL0     C33756   4.773   4.156   0.130  0.5564  0.4249  0.2194
  970MOL0     C33757   4.691   4.126   0.022 -0.0464  0.5689  0.1585
  970MOL0     O33758   4.736   4.045  -0.077 -0.3451 -0.0474  1.2992
  970MOL0     C33759   4.726   4.106  -0.214  0.1224  0.3669 -0.3639
  970MOL0     C33760   4.628   4.036  -0.301 -0.6011  0.5894  0.2276
  970MOL0     C33761   4.659   3.880  -0.317  0.0828 -1.0842 -0.2525
  970MOL0     C33762   4.536   3.803  -0.348  0.2573  0.6508 -0.5691
  970MOL0     C33763   4.560   3.651  -0.359  0.2898 -0.3528  0.7587
  970MOL0     C33764   4.446   3.591  -0.455 -0.4014  0.7796 -0.1765
  970MOL0     C33765   4.305   3.603  -0.416 -0.5265 -0.6221 -0.0905
  970MOL0     C33766   4.230   3.540  -0.532 -0.8730  0.6048 -0.2344
  970MOL0    Cl33767   4.060   3.572  -0.531 -0.2948  0.2084 -0.0802
  970MOL0     C33768   4.562   4.179   0.027 -0.0552 -0.3778 -0.5207
  970MOL0     C33769   4.515   4.251   0.139  0.6127  0.4808  0.1973
  970MOL0     O33770   4.655   4.202   0.523 -0.2844  0.8049  0.6149
  970MOL0     C33771   4.421   4.467   0.567  0.7393  0.2461  0.1599
  970MOL0     C33772   4.378   4.557   0.663 -0.9793 -0.6654 -0.0646
  970MOL0     N33773   3.868   4.712   1.262  1.0777 -0.2724 -1.1451
  970MOL0     N33774   3.755   4.652   1.263  0.3667  0.6639  0.1729
  970MOL0     C33775   2.754   5.008   0.682  0.2208 -0.2409 -0.0661
  970MOL0     C33776   2.634   4.946   0.718  0.2607 -0.0800  1.1699
  970MOL0     C33777   2.256   4.734   0.790 -0.3757 -0.0605  1.0704
  970MOL0     C33778   2.199   4.711   0.662  0.1579 -0.3751 -0.3842
  970MOL0     C33779   2.067   4.669   0.641 -0.4082 -0.8783  0.1727
  970MOL0     C33780   1.991   4.639   0.750  0.6378 -0.0252 -0.0416
  970MOL0     O33781   1.864   4.594   0.716  0.3527  0.2665  0.1433
  970MOL0     C33782   1.778   4.534   0.802  0.3019  0.0880 -0.5869
  970MOL0     C33783   1.666   4.462   0.716 -0.0621  0.1444  0.0662
  970MOL0     C33784   1.534   4.461   0.796 -0.1796  0.2850  0.3881
  970MOL0     C33785   1.487   4.327   0.842 -0.0931  0.9327  0.5416
  970MOL0     C33786   1.580   4.241   0.918  0.1000  0.2476  1.2262
  970MOL0     C33787   1.674   4.198   0.989  0.0395  0.5103  0.2749
  970MOL0     C33788   2.041   4.646   0.875  0.0497 -0.5390 -0.0248
  970MOL0     C33789   2.166   4.704   0.892 -0.3433  0.2807  1.1302
  970MOL0     C33790   2.215   4.714   1.035  0.0577 -0.3957  0.0936
  970MOL0     H33791   2.686   4.634   0.584 -1.5905 -0.7698  2.2147
  970MOL0     H33792   2.905   4.752   0.531  2.3161  0.9881  1.5911
  970MOL0     H33793   2.996   5.038   0.766 -0.6798 -1.0710 -0.1922
  970MOL0     H33794   3.098   5.131   0.659  0.2791 -0.2362 -0.9224
  970MOL0     H33795   3.146   4.834   0.688 -1.3886  0.8495  0.5596
  970MOL0     H33796   3.245   4.947   0.602 -0.2463  0.6086  1.2311
  970MOL0     H33797   3.314   5.058   0.796  2.3088 -1.3369  1.4723
  970MOL0     H33798   3.197   4.962   0.893 -0.3101 -2.0878 -1.1019
  970MOL0     H33799   3.319   4.759   0.816  0.6309 -0.5213  2.1197
  970MOL0     H33800   3.442   4.858   0.733  0.8595 -0.5989 -0.4318
  970MOL0     H33801   3.408   4.892   1.031 -1.8687  2.1823 -1.7272
  970MOL0     H33802   3.520   4.965   0.918  0.7349 -1.6055 -3.2039
  970MOL0     H33803   3.573   4.715   0.866 -3.0025 -0.8830  0.1550
  970MOL0     H33804   3.645   4.803   1.000 -0.8902  3.1258 -0.9261
  970MOL0     H33805   3.409   4.604   1.008 -1.7832  1.2179  1.9222
  970MOL0     H33806   3.451   4.687   1.154 -0.9227 -0.2294  0.9292
  970MOL0     H33807   3.553   4.481   1.173 -0.6889 -0.3402 -0.5818
  970MOL0     H33808   3.611   4.465   1.011  1.4758  0.5375 -0.3535
  970MOL0     H33809   3.872   4.582   0.959  0.6520 -0.8820  0.5601
  970MOL0     H33810   4.078   4.811   1.187 -2.1731  0.3203  1.6341
  970MOL0     H33811   4.023   4.828   1.019 -0.3134  1.2314  0.6717
  970MOL0     H33812   4.139   4.559   1.076 -1.9434  0.1559 -1.4799
  970MOL0     H33813   4.158   4.655   0.935  2.6236 -0.9112  0.0310
  970MOL0     H33814   4.295   4.819   1.062 -1.6154  0.6026  2.5219
  970MOL0     H33815   4.315   4.706   1.194  1.3385  1.1325  0.3702
  970MOL0     H33816   4.506   4.689   1.033 -1.4271  1.3751  0.2641
  970MOL0     H33817   4.416   4.539   1.050  2.9861 -0.4492 -2.6794
  970MOL0     H33818   4.585   4.490   0.920  0.6885  3.4786  0.6714
  970MOL0     H33819   4.721   4.237   0.749 -1.0790 -0.1084 -0.5080
  970MOL0     H33820   4.768   4.362   0.851  1.5811 -0.2781 -0.4010
  970MOL0     H33821   4.817   4.368   0.680 -0.8572 -2.7588 -1.8138
  970MOL0     H33822   4.817   4.242   0.313 -0.8004  0.5125  0.2671
  970MOL0     H33823   4.877   4.123   0.122  1.1770  2.3886 -0.4537
  970MOL0     H33824   4.690   4.209  -0.206  3.6471  1.7717 -0.8463
  970MOL0     H33825   4.827   4.092  -0.252  0.8694 -1.3155  1.9947
  970MOL0     H33826   4.531   4.045  -0.251 -0.2887 -1.0703  1.2150
  970MOL0     H33827   4.618   4.077  -0.402 -1.0820  2.0758  0.8540
  970MOL0     H33828   4.699   3.842  -0.223 -0.2334 -0.7659  0.0093
  970MOL0     H33829   4.733   3.875  -0.398 -0.9588 -1.9596 -1.1989
  970MOL0     H33830   4.487   3.834  -0.440 -2.6770  3.7877  1.8029
  970MOL0     H33831   4.473   3.821  -0.260  1.6961  1.2912  0.3926
  970MOL0     H33832   4.663   3.632  -0.389  0.2842  0.6983  0.0367
  970MOL0     H33833   4.553   3.602  -0.261  1.6015 -0.3087  0.8841
  970MOL0     H33834   4.466   3.484  -0.467 -1.4942  0.5628 -0.1392
  970MOL0     H33835   4.465   3.625  -0.557  2.2278 -4.8596 -1.9531
  970MOL0     H33836   4.290   3.709  -0.398  2.2653 -0.1360 -0.1236
  970MOL0     H33837   4.278   3.544  -0.328 -1.6302  1.0958  0.7632
  970MOL0     H33838   4.243   3.432  -0.539 -3.9977  0.1362 -0.6493
  970MOL0     H33839   4.275   3.576  -0.625  0.5110  0.5648  0.4121
  970MOL0     H33840   4.492   4.162  -0.054 -2.0301 -0.5116  1.1332
  970MOL0     H33841   4.419   4.302   0.140  1.9467  3.1511  0.7706
  970MOL0     H33842   4.365   4.448   0.477  1.8798 -1.3172 -0.2761
  970MOL0     H33843   4.283   4.606   0.644 -1.3112 -1.3203 -0.1275
  970MOL0     H33844   2.761   5.112   0.711 -3.0572  0.4783 -1.4462
  970MOL0     H33845   2.565   5.016   0.765  0.7998  1.9091 -0.8409
  970MOL0     H33846   2.260   4.720   0.572  0.1308 -1.0103 -0.4705
  970MOL0     H33847   2.030   4.647   0.541  0.6940  0.4690 -0.5620
  970MOL0     H33848   1.830   4.459   0.862  0.6991  1.9979  1.5737
  970MOL0     H33849   1.733   4.613   0.863 -3.7314 -0.8169 -2.0749
  970MOL0     H33850   1.704   4.361   0.701  2.5089  0.8895  1.0986
  970MOL0     H33851   1.654   4.515   0.621  0.7273  0.9931  0.4242
  970MOL0     H33852   1.540   4.526   0.883  1.6764  0.0508  0.4674
  970MOL0     H33853   1.458   4.504   0.731 -0.0656  1.9819  1.3345
  970MOL0     H33854   1.460   4.278   0.748  1.0581  1.3647 -0.0257
  970MOL0     H33855   1.394   4.348   0.896 -1.7737 -2.2179 -0.8987
  970MOL0     H33856   1.756   4.156   1.043 -0.1088  1.7164  1.5140
  970MOL0     H33857   1.980   4.600   0.953 -2.5565  0.6319 -1.2831
  970MOL0     H33858   2.143   4.661   1.098  0.3769 -1.2554 -0.2529
  970MOL0     H33859   2.309   4.659   1.031 -0.9559 -2.1259 -1.1959
  970MOL0     H33860   2.242   4.811   1.078 -1.3508  0.2894 -0.4940
  971MOL0     O33861   4.273  10.232   2.129 -0.1074  0.0767 -0.3260
  971MOL0     C33862   4.282  10.342   2.079 -0.6329  0.5783  0.2852
  971MOL0     O33863   4.390  10.380   2.010  0.0951 -0.1876 -0.6015
  971MOL0     C33864   4.507  10.321   1.991  0.2315  0.6655  0.2603
  971MOL0     C33865   4.621  10.403   1.982 -0.0346 -0.2355  1.1037
  971MOL0     C33866   4.743  10.342   1.963  0.4603 -0.0498  0.0556
  971MOL0     C33867   4.751  10.207   1.936 -0.3348  0.3543 -0.2681
  971MOL0     O33868   4.871  10.153   1.909 -0.3893 -0.3494  0.4308
  971MOL0     C33869   4.888  10.098   1.779  0.5605  0.3510 -0.6192
  971MOL0     C33870   5.029  10.044   1.778 -0.2570 -0.2843 -0.6112
  971MOL0     C33871   5.126  10.142   1.731  0.4327 -0.5676 -0.0194
  971MOL0     C33872   5.263  10.071   1.715  0.9991 -0.2954 -0.2650
  971MOL0     C33873   5.367  10.166   1.668  0.2020 -0.0253  0.4614
  971MOL0     C33874   5.497  10.091   1.628  0.1099  0.0693 -0.9299
  971MOL0     C33875   5.563  10.013   1.748 -0.0440 -0.0309  0.1165
  971MOL0     C33876   5.719  10.011   1.716 -0.1576 -0.1161 -0.2585
  971MOL0     N33877   5.748   9.937   1.592  0.2341  0.7339  0.5668
  971MOL0     C33878   5.795   9.799   1.591  0.0620 -0.9631  0.5682
  971MOL0     C33879   5.853   9.790   1.472  0.9250  0.3429  0.9741
  971MOL0     C33880   5.936   9.668   1.428 -0.5668 -0.4874  0.6807
  971MOL0     C33881   6.049   9.608   1.514  0.1913 -0.1735 -0.2760
  971MOL0     C33882   6.165   9.704   1.531  0.0971  0.3143 -0.5619
  971MOL0     C33883   6.247   9.664   1.652  0.1366  0.7235  0.2861
  971MOL0     O33884   6.267   9.520   1.650  0.0048 -0.6738 -0.6367
  971MOL0     C33885   6.397   9.478   1.639 -0.1247 -0.0835 -0.3620
  971MOL0     C33886   6.425   9.336   1.651  0.7160 -0.4775  0.3317
  971MOL0     C33887   6.552   9.280   1.634 -0.1716 -0.1341 -0.9709
  971MOL0     C33888   6.561   9.133   1.645  0.6357 -0.1511 -0.4648
  971MOL0     C33889   6.664   9.361   1.610  0.0520  0.1796  0.5891
  971MOL0     C33890   6.797   9.308   1.561  0.6576 -0.7076  0.0585
  971MOL0     O33891   6.842   9.180   1.587 -0.2437  0.4275  0.1292
  971MOL0     C33892   6.921   9.123   1.490 -0.0125 -0.4195  0.3548
  971MOL0     C33893   7.062   9.147   1.499  0.2267 -0.2221  0.0729
  971MOL0     C33894   7.151   9.090   1.412  0.5708  1.0967  0.7812
  971MOL0     C33895   7.100   9.007   1.305  0.3881 -1.1396  0.2256
  971MOL0     O33896   7.194   8.938   1.227 -0.1407 -0.1000 -0.5709
  971MOL0     C33897   7.175   8.881   1.099  0.1997  0.0395  0.5283
  971MOL0     C33898   7.308   8.878   1.022  0.3623 -0.6294 -0.3556
  971MOL0     C33899   7.283   8.816   0.885 -0.1840 -0.0198 -0.0772
  971MOL0     C33900   7.287   8.656   0.874  0.2724 -0.1627 -0.1892
  971MOL0     C33901   7.326   8.625   0.723  0.4602  1.0386 -0.2009
  971MOL0     C33902   7.363   8.482   0.692  0.4443  0.6434  0.1356
  971MOL0     C33903   7.436   8.474   0.559  0.3845 -0.8049  0.0150
  971MOL0     C33904   7.342   8.473   0.441 -0.0040  0.5729  0.2666
  971MOL0    Cl33905   7.420   8.429   0.281  0.3180  0.2350 -0.0733
  971MOL0     C33906   6.965   8.988   1.287 -0.0674 -0.0864 -0.6669
  971MOL0     C33907   6.880   9.050   1.383  0.2412  0.4889  0.0196
  971MOL0     O33908   6.847   9.379   1.476 -0.2792  0.3526  0.2107
  971MOL0     C33909   6.645   9.496   1.595  0.3476  0.0375 -0.0528
  971MOL0     C33910   6.515   9.553   1.616 -0.3810  0.3424  0.2115
  971MOL0     N33911   5.837   9.909   1.405  0.4203 -0.7699 -1.4535
  971MOL0     N33912   5.763   9.995   1.471  0.6425 -0.1492 -0.5583
  971MOL0     C33913   4.638  10.121   1.938 -0.2966 -1.0111  0.0916
  971MOL0     C33914   4.521  10.181   1.966  0.2562 -1.0382 -0.0989
  971MOL0     C33915   4.164  10.426   2.091  0.1803 -0.4284  0.0529
  971MOL0     C33916   4.058  10.407   2.190 -0.5266 -0.2367  0.0818
  971MOL0     C33917   3.930  10.469   2.185 -0.7494  0.2172 -0.9075
  971MOL0     C33918   3.903  10.551   2.070  0.0080 -0.4404  0.1727
  971MOL0     O33919   3.770  10.598   2.069  0.5906  0.1054  0.1602
  971MOL0     C33920   3.721  10.682   1.971 -0.2382 -0.5349  0.0077
  971MOL0     C33921   3.574  10.669   1.972 -0.2567 -0.0158  0.1587
  971MOL0     C33922   3.516  10.713   2.111  0.9553  0.4508  0.2477
  971MOL0     C33923   3.395  10.628   2.156 -0.7728 -0.0770 -0.8957
  971MOL0     C33924   3.277  10.630   2.071  0.3905 -0.1948  0.1045
  971MOL0     C33925   3.174  10.644   2.003 -0.4712  0.4040 -0.0930
  971MOL0     C33926   3.996  10.580   1.973 -0.2372  0.0577  0.1788
  971MOL0     C33927   4.130  10.521   1.988  0.2723 -0.2665  0.7895
  971MOL0     C33928   4.229  10.576   1.883  0.5081  0.6574  0.5016
  971MOL0     H33929   4.604  10.510   1.994 -3.0339 -0.7053  2.0036
  971MOL0     H33930   4.838  10.391   1.949  1.5557 -2.5406 -1.9249
  971MOL0     H33931   4.878  10.170   1.697 -2.6599  1.5413  0.6494
  971MOL0     H33932   4.808  10.023   1.774 -1.4039  2.1555  1.3607
  971MOL0     H33933   5.061  10.004   1.875  2.1992  1.6312 -0.5187
  971MOL0     H33934   5.018   9.966   1.702 -1.1448 -1.0080  0.2367
  971MOL0     H33935   5.103  10.174   1.630  2.3353  2.5936  0.4110
  971MOL0     H33936   5.142  10.227   1.798  3.0928 -0.2380 -0.9423
  971MOL0     H33937   5.288  10.028   1.812 -0.0780  1.1063  0.6656
  971MOL0     H33938   5.249   9.993   1.640  0.2858 -1.3245  0.8983
  971MOL0     H33939   5.392  10.248   1.736 -1.2792  2.5215 -1.8755
  971MOL0     H33940   5.329  10.217   1.579 -0.0852  1.6568  1.4973
  971MOL0     H33941   5.479  10.015   1.552  0.2949 -0.4694 -0.4506
  971MOL0     H33942   5.565  10.169   1.594  0.1453  0.1285 -0.7258
  971MOL0     H33943   5.524   9.912   1.760 -0.7575  0.1141 -0.8244
  971MOL0     H33944   5.543  10.077   1.835  4.0848  1.5691  0.1352
  971MOL0     H33945   5.756  10.114   1.712 -2.4071  0.7442 -0.5059
  971MOL0     H33946   5.779   9.963   1.794  2.2179  0.1357 -1.8217
  971MOL0     H33947   5.781   9.726   1.670 -0.7594 -0.0482  1.3059
  971MOL0     H33948   5.987   9.682   1.333 -0.6923  0.3133  0.7196
  971MOL0     H33949   5.875   9.583   1.395  0.0265 -0.0823 -1.6480
  971MOL0     H33950   5.996   9.591   1.608  0.1152  0.2026 -0.2494
  971MOL0     H33951   6.082   9.511   1.477  1.1490  0.2933 -0.6740
  971MOL0     H33952   6.229   9.695   1.443  0.0961 -1.2762 -0.4355
  971MOL0     H33953   6.138   9.808   1.546  3.0903  0.9834  1.2057
  971MOL0     H33954   6.342   9.718   1.658  1.7243 -1.9489  0.8241
  971MOL0     H33955   6.198   9.686   1.748  1.5653  1.5931  0.8652
  971MOL0     H33956   6.334   9.277   1.657  1.2109 -1.3521 -0.4885
  971MOL0     H33957   6.600   9.119   1.746 -2.7109  1.7242  1.2348
  971MOL0     H33958   6.614   9.080   1.565 -0.8454 -1.7331 -0.4513
  971MOL0     H33959   6.464   9.084   1.655  0.3402  0.5476  0.1936
  971MOL0     H33960   7.094   9.202   1.587 -0.1830  0.9854 -0.5090
  971MOL0     H33961   7.259   9.096   1.417  0.6302 -0.5399  3.4855
  971MOL0     H33962   7.148   8.777   1.118  1.9475 -0.2771  1.5410
  971MOL0     H33963   7.094   8.931   1.045  1.5352  2.0698  0.2812
  971MOL0     H33964   7.342   8.979   1.000 -0.6794 -0.9941 -4.2871
  971MOL0     H33965   7.390   8.820   1.067  1.4261  0.3458 -0.9917
  971MOL0     H33966   7.361   8.849   0.816 -0.3893 -1.2673 -0.9242
  971MOL0     H33967   7.185   8.836   0.842 -0.6009 -0.5683  0.6028
  971MOL0     H33968   7.185   8.634   0.908  0.4928 -1.8895 -0.5735
  971MOL0     H33969   7.363   8.608   0.936  2.1506  2.7626 -0.0580
  971MOL0     H33970   7.240   8.646   0.659 -1.7040 -2.7440  1.1591
  971MOL0     H33971   7.414   8.684   0.695  1.0657  0.3705  0.2343
  971MOL0     H33972   7.275   8.417   0.686 -1.2308  2.9347 -3.2216
  971MOL0     H33973   7.432   8.440   0.766  1.8111  1.0370 -0.8888
  971MOL0     H33974   7.496   8.383   0.555  0.0539 -1.1947  2.4573
  971MOL0     H33975   7.504   8.560   0.555 -0.0498 -0.4781 -0.4695
  971MOL0     H33976   7.303   8.574   0.426  2.4415  1.7611  1.3108
  971MOL0     H33977   7.263   8.400   0.461  0.5930 -0.0254  0.4352
  971MOL0     H33978   6.935   8.928   1.201 -0.8289  1.3357 -1.4466
  971MOL0     H33979   6.774   9.037   1.366  0.3800 -1.2990  0.3202
  971MOL0     H33980   6.729   9.564   1.581  0.2331  0.5495  1.4925
  971MOL0     H33981   6.516   9.662   1.613 -0.3781  0.3332 -0.1543
  971MOL0     H33982   4.649  10.014   1.922  2.7165 -0.9079  0.9712
  971MOL0     H33983   4.431  10.122   1.982 -0.0991 -0.4400  0.1258
  971MOL0     H33984   4.087  10.335   2.266  0.4219 -0.8268 -0.8162
  971MOL0     H33985   3.859  10.453   2.265 -0.2604  0.6973 -0.3756
  971MOL0     H33986   3.746  10.787   1.985  0.4923 -0.4709 -1.5476
  971MOL0     H33987   3.759  10.656   1.872  0.5146 -2.3084  0.7185
  971MOL0     H33988   3.552  10.562   1.960  1.7463 -0.3534 -1.1158
  971MOL0     H33989   3.524  10.727   1.894  0.0550 -0.1983 -0.1790
  971MOL0     H33990   3.591  10.696   2.188  3.0484  1.4583 -1.4610
  971MOL0     H33991   3.495  10.820   2.099  2.0910  0.4872 -1.7549
  971MOL0     H33992   3.372  10.660   2.258  1.5968  0.3889 -0.4553
  971MOL0     H33993   3.423  10.524   2.169  2.6375  1.0725  2.6158
  971MOL0     H33994   3.082  10.651   1.949  1.1198  3.3436 -2.7840
  971MOL0     H33995   3.978  10.655   1.898  1.4928  3.7860  3.1663
  971MOL0     H33996   4.325  10.592   1.934  0.7580 -3.5224  1.7131
  971MOL0     H33997   4.251  10.499   1.809 -0.8247  1.2951 -0.5958
  971MOL0     H33998   4.200  10.673   1.842 -0.5421 -0.3326 -1.2016
  972MOL0     O33999   0.531   8.840   0.184  0.5921  0.1604 -0.6021
  972MOL0     C34000   0.428   8.810   0.250  0.8638 -0.1476 -0.4682
  972MOL0     O34001   0.417   8.798   0.390 -0.0547  0.4348  0.5622
  972MOL0     C34002   0.530   8.794   0.463  0.5920  0.6912 -0.3674
  972MOL0     C34003   0.614   8.895   0.473  0.2859 -0.4657 -0.1511
  972MOL0     C34004   0.733   8.877   0.555  0.1146  0.0399  0.0985
  972MOL0     C34005   0.759   8.757   0.615  0.2100  0.5507  1.1147
  972MOL0     O34006   0.870   8.762   0.684  0.6881 -0.3908  0.9674
  972MOL0     C34007   0.899   8.650   0.762 -0.7012 -0.1504 -1.1335
  972MOL0     C34008   1.036   8.665   0.827  0.4467  0.3893  0.0885
  972MOL0     C34009   1.081   8.529   0.880 -0.1606  0.5100 -0.2858
  972MOL0     C34010   1.230   8.535   0.905  0.2969 -0.0864  0.3694
  972MOL0     C34011   1.266   8.423   0.995 -0.0586  0.3727 -0.2044
  972MOL0     C34012   1.413   8.406   1.017  0.3597  1.2759 -0.0607
  972MOL0     C34013   1.428   8.296   1.124 -0.0385 -0.1254 -0.5573
  972MOL0     C34014   1.583   8.262   1.150  0.2938 -0.7015  0.2533
  972MOL0     N34015   1.665   8.369   1.217 -0.0624  0.0286  0.7407
  972MOL0     C34016   1.616   8.455   1.318  0.9054  0.4618  0.3068
  972MOL0     C34017   1.717   8.537   1.335 -0.1108  0.6265 -0.0787
  972MOL0     C34018   1.714   8.656   1.427  0.1794  0.0628 -0.1932
  972MOL0     C34019   1.723   8.599   1.571 -0.3250  0.0509 -0.1300
  972MOL0     C34020   1.715   8.713   1.687 -0.2113  0.2553 -0.1964
  972MOL0     C34021   1.821   8.819   1.674 -0.3434  0.1040  0.5018
  972MOL0     O34022   1.960   8.762   1.657  0.2298 -0.3132 -1.0015
  972MOL0     C34023   2.055   8.857   1.633  0.5672  0.7105  0.6248
  972MOL0     C34024   2.182   8.814   1.616  0.0596  0.1938  0.1500
  972MOL0     C34025   2.282   8.885   1.560 -0.5620 -0.0110 -0.2592
  972MOL0     C34026   2.407   8.804   1.541 -0.0296  0.2006 -0.3038
  972MOL0     C34027   2.265   9.024   1.521 -0.3011  0.3372 -0.2500
  972MOL0     C34028   2.379   9.099   1.461 -0.0913 -0.1906  0.4366
  972MOL0     O34029   2.468   9.030   1.379 -0.1693  0.0597 -0.1578
  972MOL0     C34030   2.569   9.097   1.316  0.3176  0.2649 -0.0441
  972MOL0     C34031   2.697   9.027   1.299  0.2219  0.1914 -0.0286
  972MOL0     C34032   2.802   9.108   1.248  0.2655 -0.1496  0.3830
  972MOL0     C34033   2.787   9.235   1.196  1.0569 -0.4634  0.0514
  972MOL0     O34034   2.901   9.303   1.159 -0.2785 -0.3301 -0.2883
  972MOL0     C34035   2.887   9.355   1.024  0.4940  0.1258 -0.5653
  972MOL0     C34036   3.023   9.376   0.968 -0.4202  0.5281 -0.0264
  972MOL0     C34037   3.105   9.251   0.934  0.2923  0.9314  0.0099
  972MOL0     C34038   3.035   9.167   0.828 -0.4984 -0.1714  0.2508
  972MOL0     C34039   3.130   9.067   0.751  0.1136  0.0035  0.4456
  972MOL0     C34040   3.224   9.134   0.656  0.1980 -0.0827 -0.4849
  972MOL0     C34041   3.303   9.047   0.559 -0.2340 -0.2216 -0.6397
  972MOL0     C34042   3.401   8.952   0.622 -0.8104  0.7996 -0.4549
  972MOL0    Cl34043   3.549   9.037   0.681  0.8286 -0.1656 -0.1464
  972MOL0     C34044   2.660   9.297   1.209 -0.2060  0.5030 -0.0275
  972MOL0     C34045   2.557   9.231   1.266  0.5693  0.0983  0.1296
  972MOL0     O34046   2.367   9.219   1.481 -0.1127  0.2352 -0.3443
  972MOL0     C34047   2.134   9.071   1.536  0.3082 -1.0040  0.5793
  972MOL0     C34048   2.030   8.995   1.591  0.1675  0.2452 -0.1663
  972MOL0     N34049   1.827   8.501   1.263  0.3561  0.3100  0.2096
  972MOL0     N34050   1.798   8.390   1.204  0.0506 -0.6865 -0.4669
  972MOL0     C34051   0.666   8.650   0.605  1.0541  0.2783 -1.0404
  972MOL0     C34052   0.553   8.668   0.526 -1.0865  0.0617 -1.3293
  972MOL0     C34053   0.328   8.751   0.161  0.3644  0.3635 -0.1040
  972MOL0     C34054   0.260   8.634   0.218 -0.8180  0.2809  0.2655
  972MOL0     C34055   0.154   8.577   0.146 -0.5513 -0.3054  0.9290
  972MOL0     C34056   0.124   8.618   0.015  0.6602  0.1815  0.8660
  972MOL0     O34057   0.018   8.560  -0.060  0.1453 -0.1445 -0.5168
  972MOL0     C34058  -0.102   8.633  -0.059  0.5070  0.2720 -1.0422
  972MOL0     C34059  -0.181   8.589  -0.177 -0.2833 -0.6148 -0.2562
  972MOL0     C34060  -0.330   8.620  -0.148 -0.4387 -0.1351  0.2169
  972MOL0     C34061  -0.400   8.622  -0.285 -0.3678 -0.2371  0.0469
  972MOL0     C34062  -0.409   8.492  -0.344 -0.3735  0.6812  0.9453
  972MOL0     C34063  -0.432   8.379  -0.395  1.0067  0.5801 -0.4347
  972MOL0     C34064   0.186   8.726  -0.041  0.2550 -0.0419  0.5199
  972MOL0     C34065   0.282   8.796   0.034 -0.0433  0.2980 -0.1165
  972MOL0     C34066   0.334   8.919  -0.033  0.0121 -1.2312  0.2203
  972MOL0     H34067   0.599   8.991   0.426  1.5398 -0.0454  0.2550
  972MOL0     H34068   0.807   8.955   0.567 -0.1701  0.1196  1.4116
  972MOL0     H34069   0.896   8.556   0.706  1.3521 -1.1576  0.3169
  972MOL0     H34070   0.832   8.639   0.848  0.2893  1.2853 -0.1411
  972MOL0     H34071   1.104   8.693   0.746  0.4524 -1.2612 -0.5046
  972MOL0     H34072   1.022   8.739   0.906 -0.2993 -1.4590  1.7521
  972MOL0     H34073   1.020   8.497   0.965 -3.0105  1.2577 -1.9170
  972MOL0     H34074   1.075   8.452   0.802  4.2841  0.6595 -1.0562
  972MOL0     H34075   1.279   8.526   0.807  1.1358 -1.0009  0.8557
  972MOL0     H34076   1.255   8.635   0.943 -1.9557  1.8974 -2.8244
  972MOL0     H34077   1.215   8.335   0.954  0.2194  0.5743 -1.0025
  972MOL0     H34078   1.216   8.441   1.091  2.8344  2.5918  1.0236
  972MOL0     H34079   1.458   8.379   0.921  1.6208  1.8262  0.3597
  972MOL0     H34080   1.455   8.499   1.054 -0.0642  0.8732  1.5298
  972MOL0     H34081   1.392   8.199   1.089 -1.0331 -1.1786  3.0339
  972MOL0     H34082   1.381   8.327   1.217  1.6503 -0.5528  0.4765
  972MOL0     H34083   1.576   8.180   1.222 -0.4775 -0.7861  0.0923
  972MOL0     H34084   1.633   8.226   1.060 -0.7807 -2.8474  0.4576
  972MOL0     H34085   1.519   8.446   1.366  0.4979 -1.0955 -0.7003
  972MOL0     H34086   1.624   8.716   1.413  0.8037  0.9361 -0.5558
  972MOL0     H34087   1.803   8.716   1.405  0.6471  0.5895  2.7905
  972MOL0     H34088   1.640   8.528   1.578  0.5792 -1.2025 -1.4130
  972MOL0     H34089   1.816   8.548   1.600 -0.1303  1.4587  1.8838
  972MOL0     H34090   1.616   8.758   1.674 -0.8675 -1.1641 -0.3480
  972MOL0     H34091   1.721   8.667   1.786  0.3889  1.9228  0.5728
  972MOL0     H34092   1.790   8.873   1.584 -2.1540  0.4170  1.2668
  972MOL0     H34093   1.823   8.884   1.761  0.3494 -1.1591  1.4601
  972MOL0     H34094   2.194   8.709   1.639 -2.9487 -0.2730 -0.0260
  972MOL0     H34095   2.485   8.861   1.591 -1.6609 -0.2379  2.9756
  972MOL0     H34096   2.430   8.791   1.434 -0.3029  0.7846 -0.4344
  972MOL0     H34097   2.416   8.706   1.589  1.6341 -0.2506 -1.4109
  972MOL0     H34098   2.711   8.927   1.339  0.5925  1.1918  2.5061
  972MOL0     H34099   2.899   9.060   1.250 -1.4693 -4.1430  3.2882
  972MOL0     H34100   2.832   9.282   0.965 -0.2807 -0.1284  0.4377
  972MOL0     H34101   2.829   9.448   1.021 -1.3330 -0.9636 -0.9300
  972MOL0     H34102   3.020   9.430   0.873  3.4140  0.1053 -0.5566
  972MOL0     H34103   3.084   9.437   1.036  1.3412 -0.1326 -0.9595
  972MOL0     H34104   3.110   9.190   1.025 -0.6832 -0.9478 -1.1273
  972MOL0     H34105   3.207   9.276   0.902  0.8888 -0.3528  0.8162
  972MOL0     H34106   3.002   9.239   0.752  1.3513 -1.0528 -1.5094
  972MOL0     H34107   2.952   9.109   0.868  0.5214 -0.6941  1.6803
  972MOL0     H34108   3.196   9.012   0.818  2.3693 -0.0716 -1.6964
  972MOL0     H34109   3.061   8.999   0.700 -1.1059  0.7279  1.0696
  972MOL0     H34110   3.299   9.186   0.716  1.1833 -0.3363 -1.4684
  972MOL0     H34111   3.174   9.212   0.598  0.1344  0.8148  0.7369
  972MOL0     H34112   3.360   9.111   0.493 -1.3233  0.0285 -1.3727
  972MOL0     H34113   3.233   8.989   0.497 -0.1008 -0.9626 -0.1223
  972MOL0     H34114   3.446   8.896   0.540  2.5623  0.6904  1.2762
  972MOL0     H34115   3.347   8.888   0.693 -1.2105 -1.3572 -2.5620
  972MOL0     H34116   2.641   9.390   1.156  2.3305  0.3777 -1.3529
  972MOL0     H34117   2.467   9.291   1.256  1.8425  1.9939 -0.2394
  972MOL0     H34118   2.115   9.170   1.496  0.6993 -1.1803 -0.0691
  972MOL0     H34119   1.930   9.037   1.585  0.3086  0.4364 -1.3750
  972MOL0     H34120   0.690   8.555   0.653  0.0115  0.3052 -0.4372
  972MOL0     H34121   0.487   8.583   0.524 -1.0489 -0.0726  0.7227
  972MOL0     H34122   0.292   8.594   0.313 -3.6572 -1.1627  0.7210
  972MOL0     H34123   0.108   8.495   0.201 -1.7431  0.6454  1.3946
  972MOL0     H34124  -0.160   8.608   0.030  0.7560 -1.0991 -1.2408
  972MOL0     H34125  -0.079   8.740  -0.058  0.4062  0.2882  0.0618
  972MOL0     H34126  -0.166   8.484  -0.201  0.3018 -0.1619 -2.0895
  972MOL0     H34127  -0.155   8.652  -0.263  0.3706  3.1860  2.4798
  972MOL0     H34128  -0.354   8.538  -0.080  3.3354 -1.7111 -0.0830
  972MOL0     H34129  -0.343   8.716  -0.098 -1.7117 -1.1478  1.9407
  972MOL0     H34130  -0.343   8.684  -0.355 -0.9080 -1.3548 -1.4398
  972MOL0     H34131  -0.497   8.673  -0.281  0.3901  1.2722  0.1808
  972MOL0     H34132  -0.442   8.278  -0.429  0.3418  0.8595 -1.0834
  972MOL0     H34133   0.167   8.745  -0.146 -0.9133 -2.3833  0.2274
  972MOL0     H34134   0.365   8.990   0.044  0.7207 -0.3978 -0.8139
  972MOL0     H34135   0.420   8.894  -0.095 -0.0115 -1.7830  0.4051
  972MOL0     H34136   0.251   8.969  -0.083  0.3832 -0.2057  0.6027
  973MOL0     O34137   5.293   7.719   3.986 -0.1394  0.4192  0.2978
  973MOL0     C34138   5.279   7.817   4.054 -0.1629 -0.1955 -0.1781
  973MOL0     O34139   5.382   7.895   4.095  0.0841  0.5445 -0.0040
  973MOL0     C34140   5.506   7.883   4.036  0.8254  1.1528 -0.3095
  973MOL0     C34141   5.614   7.919   4.120  0.4968 -0.2069 -0.2347
  973MOL0     C34142   5.746   7.893   4.075 -0.3324 -0.5986  0.4251
  973MOL0     C34143   5.779   7.859   3.942  0.3666  0.4867 -0.2478
  973MOL0     O34144   5.908   7.821   3.918  0.7759 -0.3999 -0.0346
  973MOL0     C34145   5.925   7.753   3.799 -0.5310 -0.2080  0.3187
  973MOL0     C34146   6.070   7.707   3.793 -0.2311  0.1042  0.4650
  973MOL0     C34147   6.175   7.783   3.880 -0.1598 -0.7908  0.0976
  973MOL0     C34148   6.318   7.745   3.850  0.5544 -0.5207  0.0651
  973MOL0     C34149   6.405   7.858   3.906 -0.3218 -0.9357  0.1160
  973MOL0     C34150   6.553   7.811   3.879  0.6145 -0.3272  0.0008
  973MOL0     C34151   6.665   7.901   3.919 -0.1693 -0.1125 -0.3179
  973MOL0     C34152   6.805   7.863   3.865 -0.4737 -0.0775  0.8591
  973MOL0     N34153   6.851   7.748   3.927  0.0667  0.4253 -0.8424
  973MOL0     C34154   6.893   7.745   4.055 -0.3440 -0.6871  0.0903
  973MOL0     C34155   6.968   7.639   4.079 -0.0221  0.0160 -0.1109
  973MOL0     C34156   7.045   7.612   4.214  1.2967 -0.2663 -0.2817
  973MOL0     C34157   7.160   7.713   4.208 -0.1301 -0.7342  0.0977
  973MOL0     C34158   7.271   7.698   4.318 -0.2860  0.1429  0.2278
  973MOL0     C34159   7.229   7.757   4.449  0.4593  0.4587  0.2895
  973MOL0     O34160   7.336   7.804   4.525  0.3654  0.1035  0.2614
  973MOL0     C34161   7.311   7.910   4.601 -0.3658 -0.1016 -0.9027
  973MOL0     C34162   7.261   7.895   4.733 -0.3155 -0.0682  0.6026
  973MOL0     C34163   7.224   8.000   4.808 -0.2423 -0.3082  0.9521
  973MOL0     C34164   7.149   7.973   4.935 -0.2827  0.1056  0.0929
  973MOL0     C34165   7.250   8.139   4.754 -0.3963  0.7403  0.0131
  973MOL0     C34166   7.207   8.258   4.826  0.4490 -0.3236 -0.3526
  973MOL0     O34167   7.201   8.250   4.960  0.2767  0.2999 -0.2504
  973MOL0     C34168   7.136   8.354   5.021  0.4328  1.0849 -0.5867
  973MOL0     C34169   7.212   8.457   5.082  0.2195 -0.6571  0.3098
  973MOL0     C34170   7.149   8.570   5.137  0.2902 -0.2647 -0.6735
  973MOL0     C34171   7.013   8.584   5.143 -0.2301 -0.5917  0.2753
  973MOL0     O34172   6.973   8.686   5.224  0.0784 -0.6118 -0.2205
  973MOL0     C34173   6.832   8.693   5.253  0.5437  0.2082  0.2699
  973MOL0     C34174   6.755   8.770   5.144 -1.1090  1.2568 -0.0759
  973MOL0     C34175   6.657   8.857   5.210 -0.4975  0.4069  0.4568
  973MOL0     C34176   6.579   8.941   5.110 -0.2829 -0.7137  0.3787
  973MOL0     C34177   6.460   9.012   5.199  0.4280 -0.3320 -1.1122
  973MOL0     C34178   6.423   9.154   5.146 -0.0119  0.2222 -0.2006
  973MOL0     C34179   6.531   9.268   5.137 -0.2718 -0.0749  0.3345
  973MOL0     C34180   6.468   9.409   5.149 -0.3316 -0.0643 -0.3125
  973MOL0    Cl34181   6.366   9.444   4.991 -0.0057  0.0069 -0.0457
  973MOL0     C34182   6.940   8.481   5.088 -0.3959  0.1000 -0.0614
  973MOL0     C34183   6.990   8.360   5.033 -0.0504  0.3880  0.0011
  973MOL0     O34184   7.198   8.358   4.755  0.1657  0.0419 -0.8309
  973MOL0     C34185   7.306   8.141   4.624  0.2441  0.5692  0.4871
  973MOL0     C34186   7.331   8.034   4.546  1.2022  0.1454  0.3236
  973MOL0     N34187   6.944   7.559   3.960 -0.0994  0.2709  0.1646
  973MOL0     N34188   6.873   7.624   3.874  0.6803  0.0700  0.0091
  973MOL0     C34189   5.671   7.835   3.858 -1.0294  0.0554 -0.4558
  973MOL0     C34190   5.538   7.845   3.905 -0.3176 -0.6051  0.1750
  973MOL0     C34191   5.146   7.845   4.117  0.3163  0.0664  0.7072
  973MOL0     C34192   5.098   7.978   4.136  0.5178  0.5144  0.1976
  973MOL0     C34193   4.970   7.998   4.178  0.1627 -0.3345 -0.1956
  973MOL0     C34194   4.880   7.902   4.207  1.3445  0.0350  0.0472
  973MOL0     O34195   4.755   7.948   4.254  0.1446  0.2847 -0.4647
  973MOL0     C34196   4.651   7.857   4.286  0.5268  0.7747  0.1927
  973MOL0     C34197   4.522   7.939   4.306  0.1692 -0.0476  0.5505
  973MOL0     C34198   4.396   7.860   4.318 -0.3129  0.4006 -0.4404
  973MOL0     C34199   4.370   7.772   4.439  0.3156  0.4553  0.3768
  973MOL0     C34200   4.350   7.859   4.555  0.3145  0.2295  0.4287
  973MOL0     C34201   4.336   7.952   4.638 -0.5009 -0.5069 -0.2656
  973MOL0     C34202   4.923   7.777   4.192  0.0336 -0.4528 -0.4368
  973MOL0     C34203   5.054   7.737   4.154  0.8676  0.1479  0.1689
  973MOL0     C34204   5.070   7.590   4.141  0.5037  0.8043 -0.4064
  973MOL0     H34205   5.593   7.954   4.221  0.8585  0.5706 -0.4152
  973MOL0     H34206   5.829   7.910   4.142  0.4084 -0.5359 -0.5026
  973MOL0     H34207   5.906   7.823   3.718  0.3173 -0.4568 -0.1074
  973MOL0     H34208   5.862   7.664   3.787 -1.3405  0.4944 -0.7884
  973MOL0     H34209   6.069   7.604   3.829 -1.0634  0.8781  2.8586
  973MOL0     H34210   6.111   7.716   3.693 -1.1671  0.1135  0.0708
  973MOL0     H34211   6.164   7.890   3.859  0.9805 -0.4270  1.2613
  973MOL0     H34212   6.164   7.768   3.987  2.3432  2.3322  0.9408
  973MOL0     H34213   6.343   7.651   3.900  0.6454 -0.2193  0.5917
  973MOL0     H34214   6.326   7.726   3.743 -1.2250  0.9932 -0.3772
  973MOL0     H34215   6.391   7.870   4.014 -0.8131  2.8613 -0.2478
  973MOL0     H34216   6.377   7.950   3.854  1.1761  0.1753  1.2113
  973MOL0     H34217   6.571   7.713   3.926 -0.6178  0.2531  1.7920
  973MOL0     H34218   6.570   7.794   3.772  0.2944  0.0218 -0.1030
  973MOL0     H34219   6.686   7.915   4.025 -1.2614 -2.7528  0.3140
  973MOL0     H34220   6.630   7.991   3.868  1.6135 -0.4335 -2.2188
  973MOL0     H34221   6.811   7.854   3.757  2.2063  1.3488  0.8186
  973MOL0     H34222   6.873   7.945   3.889  0.9506 -0.6932 -0.8444
  973MOL0     H34223   6.891   7.832   4.120  2.0016  2.3137 -3.4148
  973MOL0     H34224   7.077   7.507   4.221  1.1382 -0.4309 -1.6621
  973MOL0     H34225   6.983   7.627   4.303  1.1817  0.0182 -0.4079
  973MOL0     H34226   7.200   7.704   4.107 -0.8287  0.3714 -0.2988
  973MOL0     H34227   7.115   7.812   4.216  1.3279 -0.0321 -0.2435
  973MOL0     H34228   7.293   7.591   4.332  1.4569 -0.0389 -2.8414
  973MOL0     H34229   7.361   7.744   4.276 -0.4643  0.9932  0.7754
  973MOL0     H34230   7.158   7.838   4.429 -0.2270 -0.6192 -1.8904
  973MOL0     H34231   7.182   7.686   4.518  0.1991 -1.0845 -1.4169
  973MOL0     H34232   7.228   7.801   4.777 -0.9100 -1.1639 -2.0139
  973MOL0     H34233   7.148   7.869   4.969  0.1469  0.3846  1.0228
  973MOL0     H34234   7.049   8.015   4.928  0.1358  1.1478  0.0981
  973MOL0     H34235   7.199   8.021   5.021 -3.1968  1.8773  0.9246
  973MOL0     H34236   7.318   8.448   5.065 -0.1871 -1.4177 -2.3602
  973MOL0     H34237   7.216   8.640   5.186 -0.6776  1.7536 -2.0621
  973MOL0     H34238   6.780   8.598   5.268  0.6912  0.1709  0.5472
  973MOL0     H34239   6.818   8.738   5.351  0.9605  0.0037  0.4256
  973MOL0     H34240   6.829   8.820   5.082  0.1220 -1.9448 -1.3907
  973MOL0     H34241   6.700   8.704   5.076  0.5783 -0.2746 -0.0051
  973MOL0     H34242   6.717   8.914   5.282  0.2913  0.2867 -0.1035
  973MOL0     H34243   6.582   8.795   5.262 -1.5201 -0.3759 -1.8168
  973MOL0     H34244   6.534   8.896   5.021  1.6756  0.1593 -1.1212
  973MOL0     H34245   6.646   9.019   5.073  1.5550 -2.8929 -1.1441
  973MOL0     H34246   6.369   8.952   5.204 -0.1321  0.6013  3.0033
  973MOL0     H34247   6.484   9.026   5.305 -1.7336  1.1424 -0.7473
  973MOL0     H34248   6.333   9.189   5.197 -2.4280 -2.6249 -2.1020
  973MOL0     H34249   6.394   9.129   5.043  0.5624 -0.7175 -0.1477
  973MOL0     H34250   6.577   9.270   5.037 -0.4351 -0.4201  0.2521
  973MOL0     H34251   6.607   9.257   5.214  2.5660  0.7385 -2.1437
  973MOL0     H34252   6.549   9.481   5.161  0.8372 -1.2836 -0.6062
  973MOL0     H34253   6.402   9.394   5.234 -1.4869 -3.8500 -1.6840
  973MOL0     H34254   6.833   8.477   5.103 -0.3922 -0.2922 -0.1371
  973MOL0     H34255   6.913   8.293   4.998  0.0776  0.3734 -0.2542
  973MOL0     H34256   7.321   8.237   4.575 -1.2100  1.2589  1.3280
  973MOL0     H34257   7.361   8.046   4.443  1.0506 -0.8671  0.1499
  973MOL0     H34258   5.685   7.810   3.753 -1.6970  0.9901 -0.7774
  973MOL0     H34259   5.466   7.829   3.826  1.5286 -2.5162 -1.2099
  973MOL0     H34260   5.159   8.058   4.096  0.5492 -0.5404 -2.0014
  973MOL0     H34261   4.928   8.098   4.183 -0.4784 -0.6296  0.6839
  973MOL0     H34262   4.630   7.781   4.210  0.8050  1.9751 -1.1172
  973MOL0     H34263   4.669   7.793   4.373 -1.7927 -1.2838 -0.7251
  973MOL0     H34264   4.512   7.996   4.213  1.2098 -1.3060 -0.3663
  973MOL0     H34265   4.530   8.012   4.387  2.7992 -0.7812  1.0530
  973MOL0     H34266   4.318   7.936   4.310 -0.8042 -0.0968 -0.3578
  973MOL0     H34267   4.384   7.806   4.223  2.5456  4.0196 -3.1959
  973MOL0     H34268   4.461   7.713   4.452  1.6864  2.4755  0.4385
  973MOL0     H34269   4.282   7.707   4.427 -0.4201  0.8871  2.7690
  973MOL0     H34270   4.332   8.026   4.715 -0.9477  0.4848 -1.2156
  973MOL0     H34271   4.854   7.694   4.204 -0.8804  0.1556 -1.2999
  973MOL0     H34272   5.044   7.552   4.042  2.2799 -0.2653 -0.5089
  973MOL0     H34273   5.176   7.562   4.144  0.6932  1.4497  3.0603
  973MOL0     H34274   5.015   7.538   4.220 -3.0970  5.4647  0.6376
  974MOL0     O34275   6.903   5.530   5.695  0.2442  0.1818 -0.3663
  974MOL0     C34276   6.879   5.417   5.735  0.1752 -0.3203  0.7795
  974MOL0     O34277   6.967   5.311   5.722 -0.0793  0.3581  0.2904
  974MOL0     C34278   7.072   5.340   5.636 -0.6165 -0.2249  0.1547
  974MOL0     C34279   7.178   5.422   5.676 -0.4909  0.0824  0.0030
  974MOL0     C34280   7.280   5.456   5.579  0.9057 -0.4313  0.2768
  974MOL0     C34281   7.262   5.415   5.447 -0.3441  0.1658  1.2063
  974MOL0     O34282   7.352   5.445   5.353  0.5019 -0.2421  0.6093
  974MOL0     C34283   7.490   5.475   5.377  0.2628 -0.4035  0.4680
  974MOL0     C34284   7.572   5.362   5.431 -0.1954 -0.2821  0.0936
  974MOL0     C34285   7.713   5.396   5.496 -0.6658 -0.0730  0.7031
  974MOL0     C34286   7.786   5.505   5.424  0.0522 -0.0147  1.1909
  974MOL0     C34287   7.923   5.545   5.493 -0.7210 -0.0866  0.1527
  974MOL0     C34288   8.005   5.649   5.412  0.8200 -0.3222 -0.1445
  974MOL0     C34289   8.103   5.736   5.499 -0.7867  0.8204  0.2183
  974MOL0     C34290   8.223   5.657   5.548 -0.6328  0.9207 -1.4346
  974MOL0     N34291   8.311   5.733   5.641  0.2670 -0.8821  0.0317
  974MOL0     C34292   8.433   5.778   5.598 -0.3264  0.1011 -0.7322
  974MOL0     C34293   8.479   5.834   5.709 -0.0314  0.6418 -0.1181
  974MOL0     C34294   8.626   5.869   5.731  0.3321  0.6465  0.4614
  974MOL0     C34295   8.712   5.754   5.775  0.0142 -0.2525 -0.1485
  974MOL0     C34296   8.859   5.796   5.770 -1.0365  0.1325  0.4330
  974MOL0     C34297   8.966   5.687   5.779 -0.0657  0.3531 -0.2819
  974MOL0     O34298   9.090   5.738   5.825  0.2874  0.3185  0.1320
  974MOL0     C34299   9.208   5.667   5.827 -0.2253 -0.5804 -0.9423
  974MOL0     C34300   9.326   5.737   5.816  0.0238 -0.2198 -0.0667
  974MOL0     C34301   9.454   5.688   5.816 -0.0046  0.3392 -0.7072
  974MOL0     C34302   9.570   5.781   5.805 -0.4312  0.1801 -0.0667
  974MOL0     C34303   9.468   5.552   5.834 -0.4050  0.3743 -0.0806
  974MOL0     C34304   9.602   5.487   5.855 -0.5452  0.3902 -0.2753
  974MOL0     O34305   9.711   5.544   5.819  0.2552  0.2016 -0.2685
  974MOL0     C34306   9.837   5.497   5.846 -0.3682 -0.0007  0.3578
  974MOL0     C34307   9.932   5.542   5.751 -0.2280 -0.4250  0.7326
  974MOL0     C34308  10.068   5.504   5.758 -0.1317 -0.8857  0.3090
  974MOL0     C34309  10.098   5.417   5.864 -0.0222  0.2325  0.4458
  974MOL0     O34310  10.228   5.385   5.884 -0.3971 -0.0530 -0.0611
  974MOL0     C34311  10.333   5.406   5.787  0.2087 -0.5939 -0.1047
  974MOL0     C34312  10.467   5.344   5.837 -1.3012 -0.2937  0.0032
  974MOL0     C34313  10.596   5.419   5.785  0.8807  0.3098  0.5348
  974MOL0     C34314  10.729   5.354   5.825  0.1541  0.3465 -0.3610
  974MOL0     C34315  10.855   5.438   5.784  0.0088 -0.0176 -1.2206
  974MOL0     C34316  10.977   5.357   5.816 -0.0357 -1.0334 -0.4337
  974MOL0     C34317  11.093   5.431   5.749  0.3475  0.2695  0.6278
  974MOL0     C34318  11.226   5.370   5.807  0.6740 -0.0228 -0.4357
  974MOL0    Cl34319  11.358   5.382   5.694 -0.1809  0.5215  0.2266
  974MOL0     C34320  10.006   5.384   5.966 -0.6421 -0.1454 -0.0199
  974MOL0     C34321   9.877   5.432   5.963 -0.4171 -0.5519  0.9408
  974MOL0     O34322   9.598   5.373   5.895  0.6129 -0.2219  0.3301
  974MOL0     C34323   9.346   5.474   5.835  0.8150  0.1931 -0.8388
  974MOL0     C34324   9.218   5.533   5.834 -0.5705 -0.8441 -0.3939
  974MOL0     N34325   8.381   5.838   5.814 -0.2752  0.0158  0.2224
  974MOL0     N34326   8.285   5.773   5.773  0.3808  0.2967 -0.6660
  974MOL0     C34327   7.158   5.323   5.411  0.5177 -0.1048 -1.1331
  974MOL0     C34328   7.060   5.289   5.508 -0.0720 -0.8517  0.2664
  974MOL0     C34329   6.750   5.405   5.808  0.0176  0.1503 -0.4717
  974MOL0     C34330   6.695   5.515   5.870  0.1933  0.2583  0.1741
  974MOL0     C34331   6.589   5.499   5.962 -0.3479  0.6010 -0.6192
  974MOL0     C34332   6.537   5.377   5.982 -0.8520  0.4260 -0.5703
  974MOL0     O34333   6.427   5.348   6.061  0.1037 -0.2624 -0.2875
  974MOL0     C34334   6.341   5.460   6.102  0.2262  0.5900  0.0219
  974MOL0     C34335   6.210   5.402   6.164  0.4525  0.2592 -0.0211
  974MOL0     C34336   6.141   5.500   6.258  0.3389 -0.3726  0.3066
  974MOL0     C34337   6.018   5.431   6.329 -0.0163 -0.2914  0.2907
  974MOL0     C34338   5.965   5.534   6.419 -0.1480  0.7593  0.6010
  974MOL0     C34339   5.909   5.609   6.495 -0.5955  0.9393  0.2884
  974MOL0     C34340   6.582   5.273   5.909 -0.1239  0.2679 -0.8399
  974MOL0     C34341   6.686   5.282   5.822 -0.4312 -0.1518  0.1642
  974MOL0     C34342   6.729   5.159   5.740 -0.2241 -0.0774 -0.1744
  974MOL0     H34343   7.178   5.469   5.773 -0.4629  3.4914 -1.4858
  974MOL0     H34344   7.366   5.516   5.607  0.8146  0.1335 -0.6282
  974MOL0     H34345   7.489   5.557   5.450  3.7781 -0.3207  0.6365
  974MOL0     H34346   7.530   5.519   5.285  2.6962 -1.9629  0.6689
  974MOL0     H34347   7.514   5.309   5.508  1.8973 -3.4994 -0.3294
  974MOL0     H34348   7.581   5.289   5.349 -2.6716 -0.2251 -0.3270
  974MOL0     H34349   7.686   5.447   5.588 -1.4001  0.7027  0.0784
  974MOL0     H34350   7.763   5.299   5.509  0.0420  0.4750  2.2414
  974MOL0     H34351   7.799   5.488   5.317 -2.9471  2.2750  0.3154
  974MOL0     H34352   7.713   5.586   5.434 -0.1875 -0.1543  0.6260
  974MOL0     H34353   7.981   5.452   5.500  0.2192  0.0286 -3.7250
  974MOL0     H34354   7.904   5.604   5.584  1.2032  0.2705  0.3722
  974MOL0     H34355   8.059   5.594   5.335  0.9200 -1.7318  0.8846
  974MOL0     H34356   7.924   5.717   5.383  0.7908 -0.0123  0.6380
  974MOL0     H34357   8.044   5.771   5.585  0.1288  2.0619  0.3731
  974MOL0     H34358   8.124   5.826   5.441  0.8051  1.4389  1.6682
  974MOL0     H34359   8.186   5.568   5.599  0.9717 -0.6087 -2.8269
  974MOL0     H34360   8.280   5.608   5.469 -2.9546 -2.4005 -1.2346
  974MOL0     H34361   8.486   5.757   5.506  0.7321  0.5484 -0.2450
  974MOL0     H34362   8.619   5.955   5.798 -1.6285  1.0113 -0.1349
  974MOL0     H34363   8.666   5.908   5.637  0.7796 -1.4573 -0.2843
  974MOL0     H34364   8.687   5.717   5.875 -2.4260 -1.0758 -1.0013
  974MOL0     H34365   8.699   5.668   5.709  3.4512 -1.5287  0.6373
  974MOL0     H34366   8.881   5.847   5.676 -1.6011 -0.5649 -0.0939
  974MOL0     H34367   8.869   5.857   5.860  1.0084 -0.9940  1.0499
  974MOL0     H34368   8.928   5.613   5.851 -0.7947  1.4327  0.4870
  974MOL0     H34369   8.978   5.640   5.681  1.3693  0.9194 -0.3934
  974MOL0     H34370   9.308   5.844   5.806 -2.5331 -0.6354 -0.7724
  974MOL0     H34371   9.543   5.887   5.808 -0.5266  0.1477  0.2873
  974MOL0     H34372   9.616   5.762   5.707 -0.5564  0.4367 -0.1776
  974MOL0     H34373   9.645   5.778   5.883  0.0251  1.0647 -0.4654
  974MOL0     H34374   9.894   5.611   5.677  1.8601  3.9961  3.3579
  974MOL0     H34375  10.138   5.529   5.679 -0.5655  0.3213  0.2820
  974MOL0     H34376  10.296   5.363   5.693 -0.6131  0.8067 -0.4407
  974MOL0     H34377  10.350   5.513   5.777 -0.4343 -0.5669 -1.0694
  974MOL0     H34378  10.459   5.340   5.946 -1.7418  2.9334  0.1715
  974MOL0     H34379  10.484   5.243   5.797  0.0441  0.2720 -0.9223
  974MOL0     H34380  10.583   5.525   5.811 -1.4391  1.0532 -2.9458
  974MOL0     H34381  10.594   5.416   5.676  0.6035 -2.9968  0.5421
  974MOL0     H34382  10.737   5.259   5.772  0.9044  0.8438 -1.1723
  974MOL0     H34383  10.732   5.318   5.929  0.7885 -4.3487 -1.7930
  974MOL0     H34384  10.844   5.457   5.677  3.7835  1.7380 -1.4576
  974MOL0     H34385  10.865   5.534   5.835 -0.1185 -0.0003 -1.2271
  974MOL0     H34386  10.974   5.250   5.790  1.3787 -1.5802  1.4562
  974MOL0     H34387  10.990   5.358   5.924  1.0273  0.9138 -0.5396
  974MOL0     H34388  11.093   5.540   5.758  1.9272  0.2242  1.6009
  974MOL0     H34389  11.089   5.411   5.641  0.7625  0.1353  0.6354
  974MOL0     H34390  11.221   5.264   5.833  1.1397  0.7307  3.2604
  974MOL0     H34391  11.256   5.408   5.905  0.6557 -3.8361  1.2240
  974MOL0     H34392  10.028   5.321   6.052 -2.2048 -1.0393 -0.2407
  974MOL0     H34393   9.808   5.422   6.046  0.0768  1.8820  1.7262
  974MOL0     H34394   9.343   5.366   5.849  1.8099  0.3262  0.5610
  974MOL0     H34395   9.123   5.481   5.827 -0.5629 -0.5968 -4.1114
  974MOL0     H34396   7.146   5.289   5.309  0.7390  0.7950 -1.4688
  974MOL0     H34397   6.973   5.227   5.491  0.4039 -1.8302  1.2146
  974MOL0     H34398   6.749   5.608   5.865 -0.3642  0.6989  1.7801
  974MOL0     H34399   6.558   5.581   6.025 -1.5950  1.1030 -1.8600
  974MOL0     H34400   6.385   5.532   6.172 -1.5246  0.6096  1.1649
  974MOL0     H34401   6.325   5.521   6.013  1.2071  1.4887  0.4414
  974MOL0     H34402   6.233   5.309   6.217  1.4569 -1.7345 -3.6056
  974MOL0     H34403   6.141   5.373   6.085  2.2379 -1.4579 -1.0469
  974MOL0     H34404   6.210   5.545   6.330 -1.1492 -0.1821  1.6545
  974MOL0     H34405   6.100   5.583   6.201  1.4312 -0.1026 -0.1002
  974MOL0     H34406   6.054   5.341   6.381 -2.9192 -1.3092  0.7327
  974MOL0     H34407   5.933   5.412   6.263  0.4111 -0.2655 -0.2729
  974MOL0     H34408   5.858   5.657   6.576  1.2766  0.4288  1.8339
  974MOL0     H34409   6.525   5.180   5.913 -0.1381  0.3425  1.9541
  974MOL0     H34410   6.714   5.174   5.633 -1.4237  2.1591  0.2438
  974MOL0     H34411   6.831   5.128   5.766 -0.4702  0.6759  1.9190
  974MOL0     H34412   6.661   5.077   5.766  0.3322 -0.2723  0.6995
  975MOL0     O34413   7.662   8.193   9.290 -1.0985 -0.0554  0.7553
  975MOL0     C34414   7.589   8.101   9.255  0.0602 -0.2667 -0.5478
  975MOL0     O34415   7.563   7.989   9.334  0.3274 -0.2858  1.0054
  975MOL0     C34416   7.602   7.982   9.466 -0.0720 -0.1500 -0.6789
  975MOL0     C34417   7.734   7.947   9.502 -0.2899  0.1837 -0.7025
  975MOL0     C34418   7.771   7.935   9.636  0.7022 -0.2698 -0.0403
  975MOL0     C34419   7.674   7.966   9.727 -0.8132 -0.1794 -0.1891
  975MOL0     O34420   7.720   7.972   9.855 -0.5350  0.6100 -0.1999
  975MOL0     C34421   7.644   7.925   9.968  0.2891  0.6308  0.0932
  975MOL0     C34422   7.712   7.902  10.099 -0.7169 -0.9376 -0.1142
  975MOL0     C34423   7.859   7.858  10.084  0.4915 -0.0487 -0.2161
  975MOL0     C34424   7.945   7.816  10.211  0.6635 -0.4634  0.1621
  975MOL0     C34425   7.978   7.936  10.301  0.2733  0.2637 -0.0563
  975MOL0     C34426   8.061   7.897  10.419 -0.4349  0.1552 -0.5907
  975MOL0     C34427   8.000   7.802  10.522  0.1317  0.3661  0.4963
  975MOL0     C34428   8.086   7.777  10.644 -0.0207 -0.0955 -0.7575
  975MOL0     N34429   8.192   7.673  10.640 -0.2563  0.0967  0.2125
  975MOL0     C34430   8.200   7.543  10.698 -0.0691  0.2961  0.1314
  975MOL0     C34431   8.309   7.492  10.663  0.2989  1.0065  0.4678
  975MOL0     C34432   8.374   7.361  10.703 -0.2297 -0.6475 -0.6229
  975MOL0     C34433   8.287   7.254  10.770 -0.0084  0.3299 -0.4734
  975MOL0     C34434   8.196   7.192  10.658  0.2362  0.5808  0.1923
  975MOL0     C34435   8.068   7.121  10.721  0.1535  0.2101 -0.5772
  975MOL0     O34436   7.987   7.200  10.809 -0.4048 -0.3178 -0.5740
  975MOL0     C34437   7.895   7.286  10.748  0.2254 -0.1748  0.0147
  975MOL0     C34438   7.803   7.353  10.828  0.0017 -0.8100 -0.2083
  975MOL0     C34439   7.708   7.435  10.770 -0.0075 -0.4468 -0.2947
  975MOL0     C34440   7.603   7.498  10.862 -0.3537  0.2554 -0.3395
  975MOL0     C34441   7.697   7.453  10.630  0.2442 -0.0281  0.1435
  975MOL0     C34442   7.593   7.533  10.560 -0.6312 -0.1660 -0.6804
  975MOL0     O34443   7.640   7.598  10.445 -0.1140 -0.6555 -0.2678
  975MOL0     C34444   7.544   7.630  10.355  0.7364  0.1955  0.2113
  975MOL0     C34445   7.440   7.717  10.377  0.3508  0.2973 -0.3110
  975MOL0     C34446   7.364   7.774  10.269 -0.4760  0.0184  0.2489
  975MOL0     C34447   7.391   7.740  10.135 -0.8798  0.1779  0.5606
  975MOL0     O34448   7.335   7.813  10.034  0.2949 -0.8354 -0.3476
  975MOL0     C34449   7.255   7.744   9.939 -0.6293  0.4124  0.4140
  975MOL0     C34450   7.178   7.853   9.858  0.0997 -0.3451  0.0625
  975MOL0     C34451   7.078   7.785   9.763 -0.0047  0.6047 -0.1782
  975MOL0     C34452   7.060   7.839   9.624  0.3062 -0.1556  0.2011
  975MOL0     C34453   6.946   7.776   9.551  1.2900 -0.1184  0.7889
  975MOL0     C34454   6.974   7.633   9.495  0.0181 -0.6301  0.3383
  975MOL0     C34455   6.846   7.559   9.463 -0.3148  0.1170 -0.0570
  975MOL0     C34456   6.764   7.599   9.344 -1.2252 -0.2236  0.0186
  975MOL0    Cl34457   6.669   7.465   9.291  0.0797  0.5646 -0.0733
  975MOL0     C34458   7.490   7.646  10.106 -0.9088  0.4574  0.4502
  975MOL0     C34459   7.569   7.600  10.217 -0.1443  0.2206  0.2710
  975MOL0     O34460   7.482   7.541  10.605  0.0892 -0.0602  0.1113
  975MOL0     C34461   7.792   7.393  10.546  0.1646 -0.9871 -0.6813
  975MOL0     C34462   7.885   7.305  10.610  0.1999 -0.2421  0.1368
  975MOL0     N34463   8.375   7.589  10.585 -0.1392 -0.3248  0.0458
  975MOL0     N34464   8.305   7.686  10.567  0.5222  0.3621 -0.7329
  975MOL0     C34465   7.538   8.001   9.696 -0.2123 -0.1070  0.3950
  975MOL0     C34466   7.506   7.994   9.561 -0.0021 -0.0135  0.4347
  975MOL0     C34467   7.513   8.122   9.123  0.0178 -0.2381  0.5079
  975MOL0     C34468   7.429   8.017   9.071  0.0273 -0.3107 -0.5834
  975MOL0     C34469   7.343   8.045   8.962  0.0464  0.2684  0.4505
  975MOL0     C34470   7.348   8.163   8.891  0.8843 -0.5784 -0.5042
  975MOL0     O34471   7.248   8.186   8.796  0.1751  1.1067  0.4520
  975MOL0     C34472   7.254   8.301   8.716  0.8171  0.0492  0.1808
  975MOL0     C34473   7.172   8.287   8.580 -0.3509 -0.6734  0.0324
  975MOL0     C34474   7.229   8.381   8.475  0.1073  0.4210  0.0366
  975MOL0     C34475   7.111   8.465   8.419  0.1747 -0.8828  0.5607
  975MOL0     C34476   7.162   8.568   8.323  0.0464  0.1410 -0.5990
  975MOL0     C34477   7.202   8.664   8.265  0.5899  0.5904 -0.0797
  975MOL0     C34478   7.435   8.266   8.939 -0.2874  0.2559  0.3920
  975MOL0     C34479   7.517   8.247   9.050 -0.8543 -0.3711  0.9019
  975MOL0     C34480   7.626   8.365   9.076  0.4846  0.7296  0.2645
  975MOL0     H34481   7.804   7.923   9.422  1.7812  2.8228  0.1501
  975MOL0     H34482   7.873   7.913   9.667  0.6236  1.1821  1.3954
  975MOL0     H34483   7.594   7.830   9.948  2.3184 -0.3006 -0.7911
  975MOL0     H34484   7.560   7.994   9.979  1.1165  1.4926  1.2669
  975MOL0     H34485   7.720   7.999  10.148  1.3776 -0.2436 -1.6688
  975MOL0     H34486   7.665   7.837  10.173  0.0475 -2.4407 -0.8894
  975MOL0     H34487   7.865   7.771  10.018 -0.4913 -0.5485  0.3258
  975MOL0     H34488   7.924   7.934  10.041  0.4763  1.6779  2.5576
  975MOL0     H34489   7.899   7.735  10.268 -1.8428 -0.3141 -1.4783
  975MOL0     H34490   8.043   7.788  10.170  2.0635  3.7240  0.1931
  975MOL0     H34491   7.883   7.971  10.342 -0.0411  0.4549 -0.9377
  975MOL0     H34492   8.030   8.009  10.239  2.2059 -3.4738 -3.3349
  975MOL0     H34493   8.147   7.841  10.381  0.4343  0.6201  0.6411
  975MOL0     H34494   8.098   7.983  10.476 -3.1597 -1.6147  4.5022
  975MOL0     H34495   7.968   7.708  10.477 -2.3721  1.6533 -0.5880
  975MOL0     H34496   7.911   7.857  10.553 -0.7536 -0.4356 -0.5533
  975MOL0     H34497   8.126   7.875  10.673  0.0054 -0.6183  1.0649
  975MOL0     H34498   8.017   7.739  10.719  0.9928  1.5136  1.0937
  975MOL0     H34499   8.126   7.502  10.766  0.3242  0.0133  0.3885
  975MOL0     H34500   8.452   7.400  10.770  0.8256 -0.2825 -2.0034
  975MOL0     H34501   8.419   7.309  10.617  2.1204 -0.7218  0.5764
  975MOL0     H34502   8.347   7.176  10.819 -0.6144 -1.5118 -2.4991
  975MOL0     H34503   8.231   7.303  10.850  2.6524  2.0455  0.5188
  975MOL0     H34504   8.166   7.267  10.583  0.6354  2.1882  1.5801
  975MOL0     H34505   8.256   7.118  10.606 -0.6828  0.0752 -0.1703
  975MOL0     H34506   8.003   7.078  10.644  1.9260  0.6663 -2.4281
  975MOL0     H34507   8.102   7.041  10.788  0.0833 -0.7776 -1.6867
  975MOL0     H34508   7.812   7.346  10.936 -0.9562  0.7065  0.0006
  975MOL0     H34509   7.631   7.492  10.968 -0.5261  4.0373  0.0475
  975MOL0     H34510   7.512   7.437  10.864  0.9810 -1.8291 -0.5292
  975MOL0     H34511   7.589   7.604  10.838 -0.8295  0.2248 -0.2096
  975MOL0     H34512   7.415   7.757  10.475  2.0151  1.4841 -0.3283
  975MOL0     H34513   7.287   7.849  10.284  0.2468  0.7862  0.2208
  975MOL0     H34514   7.320   7.681   9.877 -0.6075  2.3057 -1.6112
  975MOL0     H34515   7.186   7.681   9.996 -0.6003 -0.8926 -0.9270
  975MOL0     H34516   7.110   7.904   9.926 -0.0196 -1.3247  0.7036
  975MOL0     H34517   7.244   7.919   9.802 -3.1251  2.6119 -0.5510
  975MOL0     H34518   6.979   7.790   9.808 -0.7609  1.5551 -1.8304
  975MOL0     H34519   7.109   7.682   9.747 -0.4887  0.4246  0.0236
  975MOL0     H34520   7.150   7.817   9.566 -1.7773 -4.8052 -1.7789
  975MOL0     H34521   7.041   7.947   9.624  1.0925  0.0517 -2.3329
  975MOL0     H34522   6.864   7.773   9.622 -0.5458 -3.3773 -1.2200
  975MOL0     H34523   6.913   7.833   9.464  0.8392 -0.8190  0.4882
  975MOL0     H34524   7.034   7.578   9.567  0.2609 -0.0377  0.5979
  975MOL0     H34525   7.032   7.644   9.403 -0.5723  0.3438  0.0662
  975MOL0     H34526   6.773   7.575   9.543  0.1206 -0.9323  0.5761
  975MOL0     H34527   6.869   7.452   9.452  2.5019  0.7118 -0.7143
  975MOL0     H34528   6.828   7.642   9.267  0.3641 -2.4306  0.0107
  975MOL0     H34529   6.700   7.683   9.372 -1.0033 -0.1781  0.4048
  975MOL0     H34530   7.503   7.612  10.004 -0.9867  0.0785  0.5631
  975MOL0     H34531   7.659   7.542  10.199 -1.3818 -1.3516 -1.3705
  975MOL0     H34532   7.789   7.401  10.438  3.0998 -3.2845 -1.0759
  975MOL0     H34533   7.952   7.257  10.539  2.0221  2.2411  0.0047
  975MOL0     H34534   7.461   8.029   9.766 -1.4555  3.5986 -2.1836
  975MOL0     H34535   7.402   8.011   9.537 -0.8883 -2.0279  2.5292
  975MOL0     H34536   7.406   7.926   9.126 -1.4393 -0.4947 -1.4558
  975MOL0     H34537   7.263   7.972   8.955 -3.1014  3.4705  0.0346
  975MOL0     H34538   7.222   8.390   8.771  1.0676  1.8253 -2.3625
  975MOL0     H34539   7.357   8.330   8.694 -0.1896  3.9758 -0.0335
  975MOL0     H34540   7.068   8.312   8.601  0.2824  3.4290 -0.7991
  975MOL0     H34541   7.186   8.185   8.542  1.8829  0.3748 -2.2812
  975MOL0     H34542   7.304   8.445   8.523  0.3096  0.1845  0.0397
  975MOL0     H34543   7.286   8.325   8.401  1.2696 -1.2827  2.1182
  975MOL0     H34544   7.060   8.507   8.506  0.3591  0.4947  0.0320
  975MOL0     H34545   7.043   8.403   8.361 -1.6133  1.8322 -0.4123
  975MOL0     H34546   7.253   8.747   8.221  3.5895 -0.7380  0.6895
  975MOL0     H34547   7.438   8.362   8.889 -0.8283  0.9964  1.7354
  975MOL0     H34548   7.613   8.437   8.995  0.4872 -0.6902 -1.0602
  975MOL0     H34549   7.604   8.419   9.169  0.3161 -1.2178  1.4191
  975MOL0     H34550   7.728   8.325   9.073 -0.4954 -1.9195 -0.3471
  976MOL0     O34551   7.755   2.088   1.352  0.0966 -0.2157 -0.1630
  976MOL0     C34552   7.739   2.044   1.241  0.2495  0.2881  0.9164
  976MOL0     O34553   7.837   1.980   1.172 -0.1976  0.2766  0.8247
  976MOL0     C34554   7.954   1.951   1.238  0.2102 -0.4762 -0.0717
  976MOL0     C34555   7.969   1.820   1.287 -0.3747  0.1897 -0.5019
  976MOL0     C34556   8.089   1.785   1.360 -0.7525  0.4389 -0.7305
  976MOL0     C34557   8.195   1.873   1.392  0.0425 -0.9195 -0.1858
  976MOL0     O34558   8.306   1.834   1.462  0.9952  0.1140 -0.0003
  976MOL0     C34559   8.277   1.759   1.579 -1.1895  0.0362  0.7272
  976MOL0     C34560   8.393   1.781   1.684 -0.1417  0.2569  0.0517
  976MOL0     C34561   8.515   1.685   1.657 -0.0771 -0.3087  0.2127
  976MOL0     C34562   8.629   1.722   1.756 -0.0582 -0.0048 -0.3173
  976MOL0     C34563   8.733   1.615   1.757 -0.6159  0.1424 -0.1632
  976MOL0     C34564   8.859   1.669   1.815  0.7668  0.1751 -0.3302
  976MOL0     C34565   8.968   1.565   1.829  0.4672  0.0120 -0.3661
  976MOL0     C34566   9.088   1.626   1.908 -0.1106  0.0751 -0.2463
  976MOL0     N34567   9.216   1.542   1.896  0.1877 -0.3194 -0.4382
  976MOL0     C34568   9.332   1.570   1.958  0.4021 -0.4642  0.6278
  976MOL0     C34569   9.422   1.490   1.908  0.2139  0.1752 -0.1580
  976MOL0     C34570   9.563   1.501   1.939 -0.3098  0.1109  0.7740
  976MOL0     C34571   9.652   1.425   1.841  0.7045  0.0829 -0.1161
  976MOL0     C34572   9.768   1.346   1.898  1.3344 -0.5510 -0.4619
  976MOL0     C34573   9.882   1.447   1.921 -0.1457  0.1762  0.1270
  976MOL0     O34574  10.007   1.390   1.965 -0.5355  0.4694 -0.0068
  976MOL0     C34575  10.113   1.476   1.976 -1.3094 -0.3265 -0.1364
  976MOL0     C34576  10.114   1.602   2.028  0.3194  0.4343  0.4572
  976MOL0     C34577  10.231   1.669   2.049 -0.2576 -0.1054 -0.2070
  976MOL0     C34578  10.222   1.791   2.140  0.5825 -0.8171 -0.1591
  976MOL0     C34579  10.353   1.602   2.021  0.1439 -0.4973 -0.5682
  976MOL0     C34580  10.485   1.666   2.057 -0.0432 -0.3740  0.2790
  976MOL0     O34581  10.496   1.801   2.039  0.2389  0.0514  0.3458
  976MOL0     C34582  10.607   1.862   2.084 -0.7579 -0.0119  0.8450
  976MOL0     C34583  10.684   1.935   1.989 -0.5685  0.8111 -0.6805
  976MOL0     C34584  10.794   2.017   2.036 -0.2877  0.7930  0.0615
  976MOL0     C34585  10.824   2.022   2.173  0.8019 -0.1948 -0.5168
  976MOL0     O34586  10.925   2.098   2.230 -0.0040  0.2299 -0.1755
  976MOL0     C34587  11.002   2.179   2.140 -0.0349  0.6301 -0.4309
  976MOL0     C34588  11.113   2.245   2.230 -0.1632 -0.5443 -0.6655
  976MOL0     C34589  11.230   2.306   2.147 -0.3164 -0.3335 -0.0321
  976MOL0     C34590  11.333   2.371   2.238  0.5885 -0.1048 -0.2924
  976MOL0     C34591  11.458   2.414   2.159 -0.0085 -0.4774 -0.7590
  976MOL0     C34592  11.532   2.526   2.224  0.5135 -0.2360  0.1604
  976MOL0     C34593  11.674   2.545   2.170 -0.2618  0.1922  0.5723
  976MOL0     C34594  11.768   2.447   2.230  1.2276 -0.1750 -0.3454
  976MOL0    Cl34595  11.805   2.474   2.398  0.2598 -0.3900  0.2224
  976MOL0     C34596  10.736   1.958   2.261 -0.3740 -0.2586 -0.5860
  976MOL0     C34597  10.637   1.877   2.212  0.3246  0.2661 -0.2098
  976MOL0     O34598  10.571   1.597   2.111  0.3861 -0.5543 -0.2260
  976MOL0     C34599  10.363   1.478   1.963  0.3672  0.7467  1.0011
  976MOL0     C34600  10.242   1.415   1.942  0.0619 -0.4674  0.0462
  976MOL0     N34601   9.358   1.404   1.823 -0.4849 -1.0369  0.2565
  976MOL0     N34602   9.235   1.437   1.813  0.0670  0.8439 -0.4036
  976MOL0     C34603   8.176   2.004   1.347  0.1995 -0.5627 -0.1375
  976MOL0     C34604   8.060   2.039   1.268 -0.6792  0.1830 -0.0509
  976MOL0     C34605   7.606   2.061   1.172  0.9381 -0.2292  0.0476
  976MOL0     C34606   7.602   2.032   1.030 -0.2055  0.1327 -0.7977
  976MOL0     C34607   7.481   2.035   0.956 -0.8658 -0.1692 -0.4662
  976MOL0     C34608   7.359   2.069   1.011  0.0832 -0.5372  0.1157
  976MOL0     O34609   7.246   2.077   0.933 -0.5199 -0.3613 -0.0367
  976MOL0     C34610   7.172   2.199   0.926  1.1173  0.3525  0.0001
  976MOL0     C34611   7.243   2.302   0.844  0.6183  0.0467 -0.0502
  976MOL0     C34612   7.197   2.311   0.692 -0.1902  0.2747  0.2649
  976MOL0     C34613   7.274   2.423   0.618 -0.6900  0.1824 -0.4541
  976MOL0     C34614   7.221   2.473   0.489 -0.6941  0.3959 -0.6161
  976MOL0     C34615   7.193   2.520   0.382  0.0409 -0.3679  1.1648
  976MOL0     C34616   7.366   2.115   1.148  0.3797 -1.0960  0.4580
  976MOL0     C34617   7.483   2.113   1.226 -0.0297  0.7859 -0.2203
  976MOL0     C34618   7.464   2.161   1.367  0.1127  0.1972 -0.9944
  976MOL0     H34619   7.899   1.738   1.276 -0.6049  0.2289  0.5267
  976MOL0     H34620   8.094   1.682   1.394  1.4987  0.8972  0.5126
  976MOL0     H34621   8.248   1.655   1.559  1.1946 -0.1160 -2.6444
  976MOL0     H34622   8.188   1.802   1.626  0.0134  3.7503 -0.0893
  976MOL0     H34623   8.428   1.883   1.667 -1.6439  0.8282  0.2092
  976MOL0     H34624   8.353   1.769   1.785 -1.4590 -0.5324 -0.5299
  976MOL0     H34625   8.485   1.580   1.670 -2.1817  0.1790 -0.3711
  976MOL0     H34626   8.544   1.693   1.552 -0.9205  2.9114  0.1113
  976MOL0     H34627   8.674   1.819   1.732 -0.6260  0.4423  0.3518
  976MOL0     H34628   8.588   1.730   1.857  0.1446  1.1244 -0.3098
  976MOL0     H34629   8.746   1.596   1.650 -3.6558 -0.0730 -0.5757
  976MOL0     H34630   8.696   1.520   1.797  2.3146 -1.1227 -0.2050
  976MOL0     H34631   8.905   1.755   1.766  2.0632  0.1886  0.8136
  976MOL0     H34632   8.821   1.705   1.911  1.2421  1.4083 -0.5827
  976MOL0     H34633   9.000   1.558   1.724  2.2586 -0.1953  0.1796
  976MOL0     H34634   8.932   1.476   1.880  0.0873  2.4997  4.2123
  976MOL0     H34635   9.104   1.727   1.868  2.3537 -0.8264 -1.7389
  976MOL0     H34636   9.063   1.638   2.014  0.9826 -1.6375  0.2323
  976MOL0     H34637   9.338   1.650   2.031 -0.1343  0.8352 -0.6942
  976MOL0     H34638   9.578   1.460   2.039  1.0521  1.0575  0.9905
  976MOL0     H34639   9.577   1.610   1.948  0.5079  0.0607  0.2429
  976MOL0     H34640   9.595   1.353   1.781  0.6470 -0.5036  0.6199
  976MOL0     H34641   9.694   1.509   1.785  2.2581 -0.1017  0.7138
  976MOL0     H34642   9.737   1.287   1.985 -1.7967  0.0330 -1.0462
  976MOL0     H34643   9.797   1.273   1.822 -0.3609 -3.1602  1.2021
  976MOL0     H34644   9.890   1.499   1.825  0.7674 -1.3038 -0.6248
  976MOL0     H34645   9.841   1.521   1.991  0.1726  1.0951 -0.6295
  976MOL0     H34646  10.020   1.653   2.046 -0.3113 -1.2663  2.4646
  976MOL0     H34647  10.312   1.822   2.195 -1.3535  0.2228  2.6279
  976MOL0     H34648  10.156   1.770   2.225  0.5358 -0.5269 -0.1246
  976MOL0     H34649  10.187   1.877   2.083 -3.1653 -3.5187 -2.4105
  976MOL0     H34650  10.669   1.922   1.882  0.2216 -1.5614 -0.5465
  976MOL0     H34651  10.862   2.066   1.966 -2.3064  0.7520 -2.0594
  976MOL0     H34652  11.053   2.116   2.066  3.0703  2.2673  0.1191
  976MOL0     H34653  10.944   2.250   2.081  3.0521  2.8953 -0.9539
  976MOL0     H34654  11.061   2.314   2.297  0.8951 -1.3861  1.1106
  976MOL0     H34655  11.157   2.175   2.302  1.3995  1.0042 -0.0429
  976MOL0     H34656  11.194   2.394   2.092  1.7577  0.4438 -0.2261
  976MOL0     H34657  11.290   2.243   2.080  3.6689  2.6669  0.3203
  976MOL0     H34658  11.366   2.293   2.307 -2.5396 -1.3505 -0.0435
  976MOL0     H34659  11.300   2.453   2.303  0.2343 -1.6973  1.6257
  976MOL0     H34660  11.528   2.331   2.150  2.0661  1.0345  0.6059
  976MOL0     H34661  11.437   2.452   2.058  3.7883  1.1348 -1.1029
  976MOL0     H34662  11.532   2.505   2.331 -1.7572 -0.2006  0.2030
  976MOL0     H34663  11.468   2.612   2.201 -0.1077 -0.8924 -0.6232
  976MOL0     H34664  11.704   2.647   2.193 -0.5021 -0.1477  2.5544
  976MOL0     H34665  11.668   2.529   2.062  3.2073  2.4742 -0.1176
  976MOL0     H34666  11.867   2.446   2.184  2.4016 -5.6076  1.5209
  976MOL0     H34667  11.730   2.345   2.218  1.6215 -0.7462  2.4669
  976MOL0     H34668  10.757   1.968   2.367  1.6798 -0.8046 -0.9104
  976MOL0     H34669  10.584   1.818   2.286  1.6310 -0.8627 -0.1226
  976MOL0     H34670  10.454   1.425   1.937 -0.0809  0.5524 -0.2665
  976MOL0     H34671  10.245   1.315   1.901 -1.9662  0.0682 -1.5731
  976MOL0     H34672   8.252   2.076   1.376  0.4729 -0.6183 -0.7082
  976MOL0     H34673   8.041   2.142   1.237  0.7144  0.5177  0.1267
  976MOL0     H34674   7.693   1.995   0.984 -0.1341 -0.3223 -0.2987
  976MOL0     H34675   7.475   2.007   0.851 -2.2273  0.8649 -0.6877
  976MOL0     H34676   7.071   2.179   0.890  0.7517 -2.3287  2.1454
  976MOL0     H34677   7.155   2.233   1.029 -0.8758 -0.5466  0.0092
  976MOL0     H34678   7.349   2.278   0.853  0.5889  0.3017  1.0933
  976MOL0     H34679   7.234   2.401   0.888  0.7231  0.6401 -1.3188
  976MOL0     H34680   7.228   2.226   0.632  2.4372  2.7925 -2.2549
  976MOL0     H34681   7.089   2.321   0.686 -0.3715 -1.6915 -0.1991
  976MOL0     H34682   7.378   2.390   0.612 -0.1866  1.8858 -2.0864
  976MOL0     H34683   7.270   2.515   0.676 -0.2083 -0.2542  0.2842
  976MOL0     H34684   7.153   2.573   0.298  1.8781 -1.3921 -0.4327
  976MOL0     H34685   7.271   2.136   1.196  0.1220 -0.5721 -0.2773
  976MOL0     H34686   7.364   2.164   1.411  0.0483  0.6866 -1.1672
  976MOL0     H34687   7.522   2.093   1.431  2.3336  0.2843 -2.8109
  976MOL0     H34688   7.490   2.267   1.374 -0.0119  0.3351 -2.3719
  977MOL0     O34689   0.948   8.653   1.979 -0.2219 -0.2835  0.2788
  977MOL0     C34690   0.909   8.761   1.930 -0.2690 -0.7487  0.3334
  977MOL0     O34691   0.980   8.868   1.936  0.0470  0.1119  0.7249
  977MOL0     C34692   1.111   8.869   1.982 -0.6498 -0.4107 -0.2028
  977MOL0     C34693   1.153   8.810   2.098  0.0326 -0.5493  0.0448
  977MOL0     C34694   1.292   8.814   2.129  0.2546  0.0002  0.6650
  977MOL0     C34695   1.383   8.871   2.044  0.1940  0.4019 -0.1549
  977MOL0     O34696   1.521   8.867   2.058  0.3606 -0.6344 -0.4429
  977MOL0     C34697   1.575   8.846   2.185 -0.6757  0.4371 -0.4621
  977MOL0     C34698   1.643   8.707   2.209  0.4236 -0.4855  0.2649
  977MOL0     C34699   1.733   8.662   2.100 -0.1853 -0.4869 -0.0700
  977MOL0     C34700   1.879   8.710   2.124  0.2054 -0.1037 -0.0106
  977MOL0     C34701   1.972   8.647   2.022  0.9201  0.0936  0.3362
  977MOL0     C34702   2.121   8.689   2.024 -0.6097 -0.0347  0.2043
  977MOL0     C34703   2.198   8.591   1.936 -0.2384  0.8571  0.5586
  977MOL0     C34704   2.343   8.631   1.924 -0.5586  0.3433 -0.4790
  977MOL0     N34705   2.406   8.516   1.862 -0.2832 -0.3779  0.1628
  977MOL0     C34706   2.444   8.404   1.920 -0.0174  0.1692 -0.6641
  977MOL0     C34707   2.494   8.319   1.827  0.5792 -0.2323  0.5127
  977MOL0     C34708   2.562   8.184   1.857 -0.4360  0.2018  0.5656
  977MOL0     C34709   2.699   8.179   1.922 -0.4278  0.3112 -0.6519
  977MOL0     C34710   2.762   8.036   1.885  0.2648 -0.7628  0.6857
  977MOL0     C34711   2.919   8.048   1.887  0.2634  0.0855 -0.5557
  977MOL0     O34712   2.973   8.130   1.786 -0.2702 -0.3746  0.2333
  977MOL0     C34713   3.108   8.166   1.807  0.1055 -0.2036 -0.7013
  977MOL0     C34714   3.141   8.293   1.848 -0.1123 -0.6726  0.0888
  977MOL0     C34715   3.274   8.342   1.856  0.4279 -0.0166  0.0528
  977MOL0     C34716   3.293   8.490   1.887  0.4217 -0.0920  0.9436
  977MOL0     C34717   3.380   8.253   1.825  0.6155 -0.1161  0.6749
  977MOL0     C34718   3.518   8.282   1.827 -0.1248  0.0366 -0.1921
  977MOL0     O34719   3.602   8.224   1.728  0.2863  0.1833 -0.8211
  977MOL0     C34720   3.739   8.231   1.740 -0.0463  0.0694 -0.0631
  977MOL0     C34721   3.805   8.358   1.759  1.1798 -0.1871  0.4376
  977MOL0     C34722   3.947   8.358   1.768 -0.0891 -0.2530 -0.2398
  977MOL0     C34723   4.030   8.248   1.743 -0.0982  0.6630  0.1568
  977MOL0     O34724   4.167   8.254   1.739  0.3020  0.0537  0.2037
  977MOL0     C34725   4.242   8.350   1.810 -0.3205  0.9995  0.4393
  977MOL0     C34726   4.399   8.313   1.818  0.5186 -0.0669 -0.5817
  977MOL0     C34727   4.432   8.169   1.863  0.1414 -0.0020 -0.7878
  977MOL0     C34728   4.589   8.179   1.877 -0.5055  0.4041  0.3711
  977MOL0     C34729   4.641   8.062   1.967 -0.7727  0.2815 -1.0108
  977MOL0     C34730   4.788   8.093   2.001  0.8884 -0.2330  0.8255
  977MOL0     C34731   4.855   7.969   2.058 -0.7240  0.1255 -0.0723
  977MOL0     C34732   4.953   8.008   2.167  1.1515 -0.8004 -0.4970
  977MOL0    Cl34733   5.089   8.100   2.105 -0.0133 -0.2692 -0.2229
  977MOL0     C34734   3.955   8.127   1.726 -0.6749  0.1043  0.7148
  977MOL0     C34735   3.818   8.119   1.727 -0.2292  0.3346 -0.9940
  977MOL0     O34736   3.559   8.362   1.910  0.6606 -0.3687  0.0189
  977MOL0     C34737   3.338   8.131   1.777  0.2638 -0.3023  0.3064
  977MOL0     C34738   3.211   8.088   1.768 -0.1976  0.4259 -0.1630
  977MOL0     N34739   2.472   8.379   1.699 -0.3969  1.0728  0.2001
  977MOL0     N34740   2.425   8.497   1.725  0.3066  0.6100 -0.3983
  977MOL0     C34741   1.338   8.929   1.928 -0.4816  0.5576  0.4014
  977MOL0     C34742   1.203   8.946   1.902  0.1710  0.7100 -0.2026
  977MOL0     C34743   0.782   8.754   1.857  0.8181  0.2858 -0.0640
  977MOL0     C34744   0.723   8.875   1.846 -0.1151 -0.9370  0.6471
  977MOL0     C34745   0.597   8.903   1.794 -0.2802  0.3254 -0.7963
  977MOL0     C34746   0.529   8.798   1.743 -0.5613  0.4610  0.1147
  977MOL0     O34747   0.396   8.805   1.700 -0.9455  0.1781 -0.4202
  977MOL0     C34748   0.381   8.844   1.564 -0.3130 -0.3209 -0.1901
  977MOL0     C34749   0.292   8.973   1.556 -0.0069 -0.0553  0.1360
  977MOL0     C34750   0.141   8.950   1.591 -0.4304  0.1147 -0.7756
  977MOL0     C34751   0.054   9.073   1.556 -1.2419 -0.0910  0.2281
  977MOL0     C34752  -0.085   9.053   1.594 -0.5180  0.5923  0.5144
  977MOL0     C34753  -0.202   9.026   1.613 -0.5909  0.7203 -0.1626
  977MOL0     C34754   0.589   8.670   1.736 -0.2862 -0.1413  0.3042
  977MOL0     C34755   0.715   8.648   1.793 -1.2665  0.2317  0.1498
  977MOL0     C34756   0.778   8.514   1.782  0.2397 -0.4258 -0.1744
  977MOL0     H34757   1.084   8.754   2.160 -0.6175  1.2133  0.9891
  977MOL0     H34758   1.329   8.759   2.216  1.8403  0.9689  0.6310
  977MOL0     H34759   1.498   8.866   2.260  1.7570  0.2232  2.2444
  977MOL0     H34760   1.648   8.924   2.204 -1.3246  1.2074 -1.0515
  977MOL0     H34761   1.694   8.716   2.305 -0.9711  1.6205  0.8759
  977MOL0     H34762   1.559   8.637   2.221 -0.8960  1.1013  0.5679
  977MOL0     H34763   1.729   8.552   2.104 -1.6623 -0.4644 -0.2053
  977MOL0     H34764   1.703   8.683   1.997 -1.7067 -2.9110 -0.1970
  977MOL0     H34765   1.890   8.819   2.118  0.7706 -0.1870 -0.6269
  977MOL0     H34766   1.914   8.674   2.221 -0.5075  0.7002  0.5630
  977MOL0     H34767   1.937   8.669   1.921  1.8878 -0.6341 -0.1682
  977MOL0     H34768   1.964   8.539   2.038 -0.2412  0.2579  0.9793
  977MOL0     H34769   2.133   8.789   1.982  1.5188 -0.8187 -1.1925
  977MOL0     H34770   2.163   8.694   2.125  0.2288  0.9915 -0.1747
  977MOL0     H34771   2.148   8.607   1.840 -2.0788  2.2251  1.6501
  977MOL0     H34772   2.186   8.490   1.976 -0.6385  1.4524  2.0079
  977MOL0     H34773   2.357   8.725   1.870  3.9843  2.5345  3.7678
  977MOL0     H34774   2.392   8.637   2.021  0.5075  1.9002 -1.0713
  977MOL0     H34775   2.462   8.383   2.026  0.2988 -2.7074 -1.2111
  977MOL0     H34776   2.566   8.152   1.752 -0.2446  2.0756 -0.0408
  977MOL0     H34777   2.498   8.113   1.909 -0.0962  0.6198  1.5968
  977MOL0     H34778   2.760   8.268   1.900  0.9080 -0.1569  0.9493
  977MOL0     H34779   2.677   8.181   2.029 -0.1839 -1.8290 -0.5125
  977MOL0     H34780   2.733   7.956   1.953 -2.5468 -0.7051 -0.2729
  977MOL0     H34781   2.729   8.010   1.784 -2.8824 -1.2003  1.7178
  977MOL0     H34782   2.938   8.089   1.986  0.2746  3.2761 -1.7545
  977MOL0     H34783   2.954   7.948   1.862  3.4900  1.1218 -0.5468
  977MOL0     H34784   3.064   8.367   1.866 -1.3357 -2.4184  2.5946
  977MOL0     H34785   3.339   8.537   1.799 -0.3925  0.2403  0.6852
  977MOL0     H34786   3.361   8.495   1.972  1.8140 -0.3386 -0.1230
  977MOL0     H34787   3.202   8.544   1.914  1.5848  2.5730 -0.1346
  977MOL0     H34788   3.751   8.451   1.773 -3.2699 -2.3618 -0.4923
  977MOL0     H34789   3.989   8.455   1.792  1.4150 -0.6985 -0.9658
  977MOL0     H34790   4.229   8.441   1.750  4.1721  1.1877 -0.6152
  977MOL0     H34791   4.204   8.356   1.912 -1.2491 -0.0128  0.1683
  977MOL0     H34792   4.460   8.344   1.733 -1.2772 -0.4812 -2.0653
  977MOL0     H34793   4.432   8.384   1.895 -0.6739  0.9960 -1.0199
  977MOL0     H34794   4.393   8.099   1.788 -3.3537  2.4740 -1.5396
  977MOL0     H34795   4.382   8.158   1.959 -0.7194  1.1051 -1.0890
  977MOL0     H34796   4.618   8.276   1.918 -3.3910  1.4241  0.2630
  977MOL0     H34797   4.638   8.175   1.779 -2.0092  1.1120 -0.4419
  977MOL0     H34798   4.582   8.059   2.059  0.5737 -1.6156 -0.1496
  977MOL0     H34799   4.633   7.962   1.925  0.1599 -0.9880  1.6547
  977MOL0     H34800   4.778   8.170   2.078 -1.4138 -1.5811  1.9809
  977MOL0     H34801   4.835   8.129   1.909  0.4840  0.5482  0.9151
  977MOL0     H34802   4.899   7.922   1.970  3.4139  2.2512  0.6332
  977MOL0     H34803   4.774   7.914   2.107 -0.7340  1.2866  1.2604
  977MOL0     H34804   4.987   7.923   2.226 -0.9980  0.9946  3.8339
  977MOL0     H34805   4.894   8.061   2.243  1.0942 -1.1733 -0.2808
  977MOL0     H34806   3.992   8.028   1.701 -1.1770  0.6133 -2.3925
  977MOL0     H34807   3.761   8.030   1.702 -2.9488  0.6301  3.2340
  977MOL0     H34808   3.410   8.055   1.747 -1.7314 -2.8682  1.6111
  977MOL0     H34809   3.187   7.988   1.733 -3.3230  2.2712 -4.0286
  977MOL0     H34810   1.404   8.964   1.850 -3.6726  0.3463 -2.6096
  977MOL0     H34811   1.171   8.998   1.813  1.0343  0.9415 -0.3908
  977MOL0     H34812   0.764   8.959   1.900 -1.6294 -0.0890  0.5397
  977MOL0     H34813   0.549   9.000   1.797 -0.0024  0.4937  2.2878
  977MOL0     H34814   0.483   8.867   1.534  1.0526  1.7521  4.8881
  977MOL0     H34815   0.341   8.758   1.509  2.4783 -1.0567 -1.2357
  977MOL0     H34816   0.288   9.017   1.456 -2.3346  0.6589  0.4881
  977MOL0     H34817   0.336   9.049   1.621  0.1051  0.2016 -0.2373
  977MOL0     H34818   0.098   8.856   1.554 -0.9301  0.7139 -1.7684
  977MOL0     H34819   0.148   8.936   1.699 -3.2508  0.7127 -0.4453
  977MOL0     H34820   0.058   9.072   1.446 -0.0326 -0.0459  0.2573
  977MOL0     H34821   0.093   9.171   1.582  0.5329 -0.9826  1.1160
  977MOL0     H34822  -0.308   9.014   1.623 -0.3598 -0.6881  0.9831
  977MOL0     H34823   0.528   8.586   1.704  0.2373 -0.2182 -0.5366
  977MOL0     H34824   0.759   8.447   1.866  1.0538 -2.4189 -1.4994
  977MOL0     H34825   0.739   8.456   1.697 -1.2445 -1.1117  0.9318
  977MOL0     H34826   0.886   8.517   1.765  0.3003 -0.2342  0.2527
  978MOL0     O34827  10.988   6.073   9.240  0.7717  0.2641 -0.4806
  978MOL0     C34828  10.934   6.111   9.341 -0.1608 -0.4967 -0.4747
  978MOL0     O34829  10.995   6.163   9.449 -0.3610 -0.6198  0.0351
  978MOL0     C34830  11.134   6.179   9.458 -0.0840 -0.3050  0.4922
  978MOL0     C34831  11.216   6.069   9.492 -0.8888  0.0366  0.5582
  978MOL0     C34832  11.353   6.088   9.484 -1.0133  0.7299  0.0944
  978MOL0     C34833  11.403   6.218   9.477  0.0491 -0.0712 -0.7474
  978MOL0     O34834  11.528   6.264   9.491 -0.1268  0.7212  0.0954
  978MOL0     C34835  11.632   6.162   9.475  0.3615 -0.1170 -0.2892
  978MOL0     C34836  11.763   6.233   9.472 -0.5693 -0.2519 -0.3867
  978MOL0     C34837  11.882   6.140   9.455  0.3468  0.7018 -0.8510
  978MOL0     C34838  12.010   6.222   9.440  0.5081 -0.2809  0.2768
  978MOL0     C34839  12.121   6.139   9.379 -0.7245  0.0997 -0.8824
  978MOL0     C34840  12.241   6.232   9.370  0.2561 -0.1221 -0.2658
  978MOL0     C34841  12.359   6.159   9.302  0.6535  0.5219 -0.4257
  978MOL0     C34842  12.338   6.119   9.149 -0.1086 -0.4352  0.1097
  978MOL0     N34843  12.465   6.101   9.074 -0.3331 -0.3024 -0.0930
  978MOL0     C34844  12.540   5.984   9.080  0.5120  1.2756 -0.3138
  978MOL0     C34845  12.653   6.017   9.024 -0.1551  0.1280 -0.4253
  978MOL0     C34846  12.767   5.917   9.002  0.2967  0.9210  0.1952
  978MOL0     C34847  12.754   5.842   8.872  0.1295 -0.2325  0.8006
  978MOL0     C34848  12.885   5.767   8.839 -0.5274  0.0823 -0.7224
  978MOL0     C34849  12.940   5.671   8.945 -0.1305  0.4612 -0.0217
  978MOL0     O34850  13.046   5.598   8.880 -0.2691 -0.2861  0.3966
  978MOL0     C34851  13.170   5.632   8.920 -0.3526 -0.7423  1.5572
  978MOL0     C34852  13.204   5.611   9.048 -0.3373  0.0735 -0.0843
  978MOL0     C34853  13.338   5.625   9.086  0.5243 -0.0323 -0.0402
  978MOL0     C34854  13.355   5.603   9.238 -0.8179 -0.5535  0.3396
  978MOL0     C34855  13.436   5.659   8.994 -0.3675  0.1710  0.1416
  978MOL0     C34856  13.590   5.669   9.025  0.1096  0.2196 -0.3321
  978MOL0     O34857  13.679   5.716   8.925 -0.3465 -0.4641  0.3076
  978MOL0     C34858  13.820   5.733   8.936  0.0649 -0.3893  0.5603
  978MOL0     C34859  13.892   5.697   9.045 -0.4540  0.3888 -0.0666
  978MOL0     C34860  14.032   5.701   9.044  0.1197  0.1471 -0.7601
  978MOL0     C34861  14.101   5.752   8.938 -0.1219  0.2360  0.9600
  978MOL0     O34862  14.237   5.774   8.935  1.1801  0.0606 -0.5827
  978MOL0     C34863  14.317   5.749   8.824  0.1936 -0.5950  0.8416
  978MOL0     C34864  14.398   5.626   8.855  0.3025 -0.0226  0.4329
  978MOL0     C34865  14.502   5.603   8.744 -0.1495  0.9364 -0.3309
  978MOL0     C34866  14.589   5.468   8.761  0.0228  0.3353 -0.1934
  978MOL0     C34867  14.685   5.426   8.639 -0.9154 -0.3918 -0.5459
  978MOL0     C34868  14.792   5.317   8.674  1.6158 -0.0862 -0.4907
  978MOL0     C34869  14.883   5.287   8.561 -0.5282  0.1138  0.5376
  978MOL0     C34870  14.990   5.183   8.601 -0.3912 -0.3070 -0.5595
  978MOL0    Cl34871  15.117   5.185   8.470 -0.3189  0.1559  0.0771
  978MOL0     C34872  14.030   5.784   8.821  0.6915  0.0291  0.3053
  978MOL0     C34873  13.889   5.773   8.823 -0.8808 -0.0355  0.5791
  978MOL0     O34874  13.625   5.625   9.133  0.3090 -0.2838 -0.4752
  978MOL0     C34875  13.401   5.682   8.864 -1.0269 -0.4931 -0.4696
  978MOL0     C34876  13.274   5.659   8.818 -0.2214 -0.2317 -0.0700
  978MOL0     N34877  12.642   6.147   8.971 -0.8268 -0.5379  0.6584
  978MOL0     N34878  12.534   6.193   8.998  0.3422 -0.0184 -0.4196
  978MOL0     C34879  11.315   6.330   9.455 -0.1244 -0.6856 -0.6796
  978MOL0     C34880  11.178   6.312   9.445 -0.5271 -0.6270  0.4111
  978MOL0     C34881  10.786   6.074   9.358 -0.3193 -0.5036 -0.6244
  978MOL0     C34882  10.702   6.068   9.251 -0.0121 -0.3958  0.7595
  978MOL0     C34883  10.564   6.030   9.248  0.4105  0.0000 -0.9757
  978MOL0     C34884  10.506   6.003   9.376  0.8627 -0.2043 -0.1318
  978MOL0     O34885  10.375   5.958   9.378 -0.0603 -0.2580 -0.8105
  978MOL0     C34886  10.289   5.946   9.493  0.2414  0.4637  0.0356
  978MOL0     C34887  10.158   5.869   9.463 -0.5307  0.6517 -0.2065
  978MOL0     C34888  10.056   5.894   9.574  0.6105 -0.0199  0.1138
  978MOL0     C34889   9.920   5.836   9.521 -0.2130 -0.2287 -0.9789
  978MOL0     C34890   9.821   5.825   9.636 -0.8386  0.3953  0.2748
  978MOL0     C34891   9.747   5.813   9.737 -0.1521 -0.3269  0.4834
  978MOL0     C34892  10.585   6.023   9.489 -0.2468  0.7741 -0.4964
  978MOL0     C34893  10.722   6.057   9.482 -0.2568 -0.1678 -0.2265
  978MOL0     C34894  10.795   6.071   9.618  0.4121 -0.4024 -0.2968
  978MOL0     H34895  11.170   5.972   9.510 -3.8512  0.9027 -1.5998
  978MOL0     H34896  11.428   6.011   9.499 -0.6693  1.3255  1.5428
  978MOL0     H34897  11.629   6.107   9.380 -0.5071 -2.0401  0.7889
  978MOL0     H34898  11.622   6.091   9.558 -1.8510  1.5647  1.0025
  978MOL0     H34899  11.760   6.311   9.395 -0.3556 -3.0129 -3.4222
  978MOL0     H34900  11.790   6.284   9.565  3.2286 -2.1136 -0.2739
  978MOL0     H34901  11.895   6.077   9.544  0.1168  2.3422  0.3884
  978MOL0     H34902  11.872   6.071   9.371 -0.2326 -0.7035  0.3336
  978MOL0     H34903  12.000   6.304   9.369  3.1611 -2.3713 -2.8088
  978MOL0     H34904  12.036   6.274   9.533  1.4384  2.1403 -1.2549
  978MOL0     H34905  12.095   6.089   9.286 -0.0053  0.8186 -1.4819
  978MOL0     H34906  12.156   6.068   9.455 -0.0131  0.4257 -0.8977
  978MOL0     H34907  12.223   6.318   9.304  0.5379  1.1684  1.2778
  978MOL0     H34908  12.268   6.275   9.467  0.1521  0.7377 -0.6062
  978MOL0     H34909  12.380   6.073   9.366 -0.3062  1.2519  0.9331
  978MOL0     H34910  12.437   6.235   9.314 -1.0402  2.6231 -1.9648
  978MOL0     H34911  12.267   6.037   9.138 -0.8829  0.2940 -0.4148
  978MOL0     H34912  12.288   6.201   9.098  2.9739  0.8842 -1.0610
  978MOL0     H34913  12.501   5.889   9.117 -0.6734  0.4527 -3.3255
  978MOL0     H34914  12.782   5.854   9.091 -0.6506 -1.0768 -1.0031
  978MOL0     H34915  12.866   5.964   9.001  1.4152 -1.3015  0.8298
  978MOL0     H34916  12.671   5.771   8.864  0.3831 -0.4623 -6.4394
  978MOL0     H34917  12.741   5.904   8.783  1.4803 -0.1223  0.6570
  978MOL0     H34918  12.863   5.706   8.751 -1.1922 -1.0008  0.1685
  978MOL0     H34919  12.963   5.840   8.813 -1.7838  2.0702  0.8320
  978MOL0     H34920  12.963   5.725   9.037  1.4375  0.4773 -0.3961
  978MOL0     H34921  12.866   5.594   8.970 -3.0809  3.6442  1.8575
  978MOL0     H34922  13.137   5.582   9.128  0.3406  0.0595  0.4834
  978MOL0     H34923  13.263   5.588   9.295  0.7889 -1.7120  2.7772
  978MOL0     H34924  13.396   5.696   9.278 -1.2935  1.4124 -3.2879
  978MOL0     H34925  13.422   5.518   9.255 -1.7022 -2.2636 -3.5958
  978MOL0     H34926  13.847   5.645   9.128  1.3885 -1.8993 -0.3948
  978MOL0     H34927  14.093   5.682   9.132 -1.3293 -1.4116 -0.0434
  978MOL0     H34928  14.281   5.730   8.723  0.7860 -0.2223  0.5533
  978MOL0     H34929  14.392   5.828   8.815 -0.1818 -0.3570 -0.3218
  978MOL0     H34930  14.444   5.627   8.955  0.2278  1.5317  0.4699
  978MOL0     H34931  14.321   5.550   8.841 -1.8969  2.2658 -0.5768
  978MOL0     H34932  14.574   5.685   8.741 -1.6321  2.3101  0.1696
  978MOL0     H34933  14.452   5.613   8.648 -1.9480  1.1031  0.5782
  978MOL0     H34934  14.514   5.390   8.774 -0.3690  0.5399 -1.1645
  978MOL0     H34935  14.647   5.480   8.854 -1.3145  0.5841  0.6294
  978MOL0     H34936  14.625   5.400   8.551 -1.0708 -1.2017 -0.2054
  978MOL0     H34937  14.740   5.518   8.614 -0.7766  0.0525  1.2419
  978MOL0     H34938  14.745   5.225   8.711 -0.6159  1.4084  0.6559
  978MOL0     H34939  14.848   5.365   8.755  0.2526 -2.0990  1.7886
  978MOL0     H34940  14.932   5.379   8.529 -2.2006  1.5823  1.9959
  978MOL0     H34941  14.834   5.261   8.466 -0.2124 -0.7569  0.5981
  978MOL0     H34942  14.945   5.084   8.617  0.8322 -1.1478 -2.0786
  978MOL0     H34943  15.024   5.213   8.701 -0.9753  0.9391 -0.7176
  978MOL0     H34944  14.074   5.824   8.731  1.5497 -0.6403  0.4193
  978MOL0     H34945  13.825   5.777   8.736 -1.1111  3.0109  0.7775
  978MOL0     H34946  13.469   5.718   8.788 -2.5687 -0.1813 -1.7754
  978MOL0     H34947  13.260   5.675   8.712  0.2898  0.2058 -0.0704
  978MOL0     H34948  11.361   6.428   9.456  0.0513 -0.7379  1.1072
  978MOL0     H34949  11.114   6.397   9.424 -1.8847 -2.3465 -3.2950
  978MOL0     H34950  10.738   6.085   9.150  0.6074  0.8975  1.1758
  978MOL0     H34951  10.509   6.016   9.156 -1.3763 -2.3078  0.3376
  978MOL0     H34952  10.341   5.903   9.579  2.1742  2.5853  0.0099
  978MOL0     H34953  10.262   6.044   9.533  2.6228  1.0974  0.2104
  978MOL0     H34954  10.176   5.761   9.464 -3.0509  0.1779  0.8027
  978MOL0     H34955  10.128   5.909   9.365 -0.8746  2.0646  0.4541
  978MOL0     H34956  10.083   5.859   9.674 -0.3603 -0.3430  0.2753
  978MOL0     H34957  10.034   6.000   9.588 -3.0253 -0.4795 -1.0080
  978MOL0     H34958   9.926   5.737   9.475  4.5048 -0.7111  0.0969
  978MOL0     H34959   9.868   5.900   9.450 -4.5980 -0.3215  1.8099
  978MOL0     H34960   9.675   5.792   9.813 -0.1333 -1.2013  0.2670
  978MOL0     H34961  10.534   6.012   9.584  0.0769  3.5663  0.0610
  978MOL0     H34962  10.835   6.172   9.631  0.7703 -0.6651  0.7026
  978MOL0     H34963  10.724   6.040   9.695 -0.7652 -0.3142 -1.3161
  978MOL0     H34964  10.883   6.006   9.630 -1.4630 -3.0036  0.1813
  979MOL0     O34965   5.359   6.238   3.484  0.2216  0.2599  0.1223
  979MOL0     C34966   5.315   6.268   3.373  0.3050 -0.3562 -0.0968
  979MOL0     O34967   5.388   6.316   3.264  0.6517  0.2641  0.5470
  979MOL0     C34968   5.525   6.337   3.264  0.7716  0.1721 -0.4918
  979MOL0     C34969   5.613   6.248   3.324 -0.0397 -0.2533  0.3165
  979MOL0     C34970   5.752   6.270   3.312  0.3185  0.1714  0.0879
  979MOL0     C34971   5.800   6.388   3.252  0.2314  0.4870 -0.0839
  979MOL0     O34972   5.935   6.419   3.237  0.5713 -0.3599  0.7986
  979MOL0     C34973   6.030   6.308   3.234  0.2027 -0.2157  0.8108
  979MOL0     C34974   6.168   6.365   3.208 -0.5741  0.0485  0.2651
  979MOL0     C34975   6.240   6.384   3.344  0.2081 -0.8007 -0.1092
  979MOL0     C34976   6.359   6.475   3.336 -0.5354  0.9793  0.4169
  979MOL0     C34977   6.431   6.481   3.471  0.4386 -0.2327 -0.1432
  979MOL0     C34978   6.355   6.564   3.573 -0.4679 -0.3459  0.1745
  979MOL0     C34979   6.437   6.574   3.703  0.3445  0.6160  0.3844
  979MOL0     C34980   6.381   6.680   3.796 -0.4846 -0.3687  0.8714
  979MOL0     N34981   6.406   6.820   3.745  1.2022  0.2748 -0.1014
  979MOL0     C34982   6.535   6.869   3.721  1.0863  0.5933 -0.1641
  979MOL0     C34983   6.508   6.986   3.665  0.6639  0.4027 -0.5772
  979MOL0     C34984   6.606   7.087   3.617 -0.1861  0.4852  0.0088
  979MOL0     C34985   6.686   7.128   3.745 -0.2798  0.2222 -0.6179
  979MOL0     C34986   6.781   7.254   3.719 -0.3907 -0.1221  1.0373
  979MOL0     C34987   6.910   7.202   3.641 -0.7903  0.0824 -0.4088
  979MOL0     O34988   6.996   7.116   3.725  0.1246 -0.0388  0.6784
  979MOL0     C34989   7.094   7.158   3.805 -0.8481 -0.6789 -0.2179
  979MOL0     C34990   7.190   7.066   3.840  0.2191  0.0544 -0.8120
  979MOL0     C34991   7.294   7.098   3.929 -0.0072  0.2830 -0.2189
  979MOL0     C34992   7.394   6.981   3.951 -0.5236  0.1986 -1.0553
  979MOL0     C34993   7.308   7.229   3.973  0.1065  0.2792  0.0892
  979MOL0     C34994   7.427   7.270   4.060  0.1727 -0.6469 -0.0043
  979MOL0     O34995   7.450   7.406   4.063  0.0948  0.2650  0.6654
  979MOL0     C34996   7.554   7.449   4.142 -0.2307 -0.1388  0.2912
  979MOL0     C34997   7.548   7.472   4.284  0.1129 -1.1900 -0.6800
  979MOL0     C34998   7.664   7.514   4.351 -0.4117  0.4713 -0.2992
  979MOL0     C34999   7.785   7.528   4.282 -0.3191 -0.0228 -0.0715
  979MOL0     O35000   7.898   7.582   4.343 -0.2411  0.2921 -0.0129
  979MOL0     C35001   7.883   7.683   4.447 -0.4442 -0.6789  0.0879
  979MOL0     C35002   8.016   7.770   4.470  0.5088  0.5688  0.2217
  979MOL0     C35003   7.987   7.900   4.550  0.7224  0.4940 -0.3788
  979MOL0     C35004   8.112   7.982   4.594  0.4618  0.2041 -0.1820
  979MOL0     C35005   8.055   8.113   4.655 -0.5358  0.8055  0.2311
  979MOL0     C35006   8.156   8.185   4.742 -0.8209 -0.1146  0.3170
  979MOL0     C35007   8.200   8.116   4.875 -0.1163 -0.1286 -0.7122
  979MOL0     C35008   8.079   8.065   4.952  0.1817 -0.2865 -0.0579
  979MOL0    Cl35009   8.124   7.982   5.099  0.3921 -0.1806 -0.2530
  979MOL0     C35010   7.794   7.505   4.152 -0.3550 -0.1099  0.5766
  979MOL0     C35011   7.678   7.475   4.077 -0.4446 -0.0465 -0.2782
  979MOL0     O35012   7.481   7.191   4.134 -0.9073 -0.5813  0.1519
  979MOL0     C35013   7.212   7.323   3.926 -1.1061  0.4921 -0.0459
  979MOL0     C35014   7.102   7.288   3.847  0.4531  0.2821  0.7924
  979MOL0     N35015   6.377   6.996   3.640 -0.4068 -0.2294  0.0370
  979MOL0     N35016   6.306   6.896   3.684 -0.1893  0.0937 -0.5532
  979MOL0     C35017   5.708   6.476   3.192  0.5868 -0.3822  0.0474
  979MOL0     C35018   5.574   6.447   3.199  0.5011 -0.4236  0.1705
  979MOL0     C35019   5.167   6.257   3.361  0.1304  0.3135  0.4393
  979MOL0     C35020   5.114   6.142   3.429  1.4595  0.1401 -0.4706
  979MOL0     C35021   4.977   6.108   3.416  0.8158  0.6518  0.4246
  979MOL0     C35022   4.891   6.204   3.353 -0.2997  0.6542 -0.0875
  979MOL0     O35023   4.758   6.169   3.344 -0.5013 -0.3590 -0.6479
  979MOL0     C35024   4.723   6.090   3.229  0.1679 -0.6173 -0.1167
  979MOL0     C35025   4.588   6.011   3.251 -0.7028  0.4353  0.0440
  979MOL0     C35026   4.464   6.108   3.275  0.1022  0.3930 -0.0261
  979MOL0     C35027   4.399   6.175   3.154  0.4806 -0.5333 -0.0278
  979MOL0     C35028   4.261   6.234   3.176 -0.5576  0.2701  0.2497
  979MOL0     C35029   4.152   6.269   3.210  0.0315  0.7187 -0.3425
  979MOL0     C35030   4.943   6.320   3.298  0.9969  0.4947  0.7535
  979MOL0     C35031   5.084   6.354   3.303  0.4019  0.3475  0.2288
  979MOL0     C35032   5.141   6.482   3.246  0.6011 -0.2839 -0.7543
  979MOL0     H35033   5.570   6.159   3.370  2.2664 -3.4117 -3.0351
  979MOL0     H35034   5.810   6.194   3.362 -1.8757 -1.2264  0.6215
  979MOL0     H35035   6.010   6.242   3.149 -1.0511  0.5680  0.4647
  979MOL0     H35036   6.030   6.249   3.326  0.7209  1.9145  2.2535
  979MOL0     H35037   6.238   6.300   3.154  1.3716  0.9633  1.5527
  979MOL0     H35038   6.166   6.451   3.141 -0.4220 -2.4468 -3.2366
  979MOL0     H35039   6.160   6.423   3.408 -1.3430 -1.9170 -1.2781
  979MOL0     H35040   6.271   6.288   3.388 -0.7872 -1.8486 -1.6022
  979MOL0     H35041   6.426   6.442   3.256 -2.1636  2.4692 -1.7084
  979MOL0     H35042   6.319   6.575   3.313  0.8780  0.7549 -4.0563
  979MOL0     H35043   6.529   6.530   3.470  0.9889 -1.1753  1.7756
  979MOL0     H35044   6.447   6.377   3.503  0.3432 -0.5078 -0.9771
  979MOL0     H35045   6.333   6.665   3.536 -1.2893  0.7154  3.2734
  979MOL0     H35046   6.258   6.516   3.585 -0.1583 -2.0037 -2.9365
  979MOL0     H35047   6.544   6.588   3.686  0.4354  0.3189  0.6913
  979MOL0     H35048   6.438   6.478   3.757  4.0453 -0.3080 -1.0266
  979MOL0     H35049   6.273   6.666   3.806 -1.0216  3.0820  0.9565
  979MOL0     H35050   6.428   6.674   3.894  1.9709 -0.4111 -0.2106
  979MOL0     H35051   6.631   6.828   3.750  1.1257  0.1717 -0.8800
  979MOL0     H35052   6.550   7.173   3.579 -1.4063  1.2781  3.2277
  979MOL0     H35053   6.669   7.042   3.540  1.0088  0.5763  0.9086
  979MOL0     H35054   6.614   7.169   3.816 -0.3982  0.7496 -1.0328
  979MOL0     H35055   6.734   7.039   3.785 -0.7847  0.1264 -0.2215
  979MOL0     H35056   6.728   7.327   3.657  0.9789 -1.3508 -1.7532
  979MOL0     H35057   6.802   7.301   3.815  1.1678  1.5919 -0.0670
  979MOL0     H35058   6.877   7.143   3.554  0.5329 -3.3362  1.1914
  979MOL0     H35059   6.976   7.281   3.605 -0.4512  0.4011  0.8705
  979MOL0     H35060   7.183   6.966   3.800  0.0948  0.0590 -0.8041
  979MOL0     H35061   7.416   6.959   4.056  0.9940 -1.8226 -1.7365
  979MOL0     H35062   7.490   7.005   3.906  0.0791 -0.5627 -0.2151
  979MOL0     H35063   7.344   6.895   3.904 -0.7210  1.1877 -2.6943
  979MOL0     H35064   7.458   7.464   4.344  1.5666  1.9917  2.2693
  979MOL0     H35065   7.656   7.548   4.454  0.6704 -1.4662  0.4796
  979MOL0     H35066   7.804   7.755   4.422  1.6889  1.3739 -1.0781
  979MOL0     H35067   7.850   7.632   4.538  0.6194  2.9353  2.7511
  979MOL0     H35068   8.080   7.711   4.537 -2.5299 -1.9018  1.2087
  979MOL0     H35069   8.062   7.797   4.375  3.3209  0.0875  1.3656
  979MOL0     H35070   7.943   7.864   4.643  2.0467 -1.5369 -0.4792
  979MOL0     H35071   7.927   7.965   4.486 -0.4035 -0.4095 -0.2558
  979MOL0     H35072   8.184   7.990   4.513  1.7091  0.4893  0.9253
  979MOL0     H35073   8.158   7.932   4.680 -0.5768 -1.0804 -0.3389
  979MOL0     H35074   8.041   8.173   4.564 -5.0098 -0.3504 -0.0801
  979MOL0     H35075   7.956   8.122   4.701 -0.4214  1.3793  0.3803
  979MOL0     H35076   8.115   8.284   4.764  1.0824  0.7193  0.3439
  979MOL0     H35077   8.246   8.205   4.683 -0.5935 -0.9600  0.3734
  979MOL0     H35078   8.247   8.190   4.940 -2.8839  0.7620  0.4521
  979MOL0     H35079   8.274   8.036   4.861 -1.2700 -1.7573  1.7190
  979MOL0     H35080   8.020   7.996   4.890  0.2168 -1.2290  0.9332
  979MOL0     H35081   8.020   8.154   4.973  3.5284  1.6964  1.7181
  979MOL0     H35082   7.887   7.523   4.100 -0.1245 -2.3061  0.1280
  979MOL0     H35083   7.678   7.464   3.969  0.0651 -2.3176 -0.1081
  979MOL0     H35084   7.220   7.422   3.969 -3.5959  0.6660  0.1906
  979MOL0     H35085   7.029   7.359   3.811 -0.3345 -0.3864  1.0431
  979MOL0     H35086   5.747   6.563   3.141 -3.1479  2.6293  1.8222
  979MOL0     H35087   5.500   6.515   3.158 -0.2887 -1.9081 -0.9371
  979MOL0     H35088   5.179   6.076   3.487 -0.5300  0.1257  1.9047
  979MOL0     H35089   4.948   6.011   3.454 -1.1516  0.3009 -1.7443
  979MOL0     H35090   4.712   6.158   3.144  2.1165 -1.3969 -1.0338
  979MOL0     H35091   4.807   6.023   3.210  2.0102  1.8172 -1.1464
  979MOL0     H35092   4.619   5.946   3.334  3.4187  0.0852 -1.5393
  979MOL0     H35093   4.575   5.959   3.156  2.3249  0.6041 -0.5475
  979MOL0     H35094   4.388   6.052   3.330 -1.0544  0.2399 -1.7165
  979MOL0     H35095   4.494   6.185   3.346  0.3419  1.7786 -1.5804
  979MOL0     H35096   4.386   6.098   3.078 -0.7069  0.6517 -1.0870
  979MOL0     H35097   4.465   6.250   3.110  1.2217 -0.7108  0.7583
  979MOL0     H35098   4.056   6.286   3.255 -0.9746 -2.9828 -0.7154
  979MOL0     H35099   4.894   6.394   3.236 -0.3454 -1.3876 -0.5381
  979MOL0     H35100   5.058   6.551   3.230  1.2706  0.4152 -1.2730
  979MOL0     H35101   5.219   6.529   3.306  1.0881 -2.7244  0.6610
  979MOL0     H35102   5.181   6.468   3.146  1.6668 -3.3181 -0.0110
  980MOL0     O35103   5.284   9.078  10.698  0.0519  0.7604 -0.1626
  980MOL0     C35104   5.219   8.975  10.705  0.5345 -0.0750 -0.4644
  980MOL0     O35105   5.190   8.891  10.607 -0.3276  0.0366 -0.2307
  980MOL0     C35106   5.243   8.918  10.483 -1.2478  0.7523  0.1792
  980MOL0     C35107   5.163   8.962  10.379 -0.6517  0.6381 -0.2240
  980MOL0     C35108   5.213   8.972  10.251 -0.7100  0.1881 -0.0723
  980MOL0     C35109   5.348   8.939  10.219 -0.4062 -0.5408 -0.4669
  980MOL0     O35110   5.404   8.947  10.096 -0.5812 -0.4024  0.3986
  980MOL0     C35111   5.312   8.987   9.996  0.2042  0.3270 -0.4883
  980MOL0     C35112   5.365   8.968   9.856  0.2343  1.0398  0.0811
  980MOL0     C35113   5.283   9.043   9.754  0.7369 -0.8391  0.5258
  980MOL0     C35114   5.132   9.012   9.765 -0.5919 -0.0032  0.6105
  980MOL0     C35115   5.058   9.056   9.637 -0.5019 -0.6629 -0.2016
  980MOL0     C35116   4.908   9.056   9.670  0.0567 -0.2000 -0.3925
  980MOL0     C35117   4.825   9.108   9.551 -0.0657  0.1364  0.1971
  980MOL0     C35118   4.681   9.117   9.572  0.5248 -0.7089 -0.1976
  980MOL0     N35119   4.606   9.167   9.452 -0.1476 -0.2522  0.3922
  980MOL0     C35120   4.591   9.078   9.341 -0.0933 -0.1448 -0.3389
  980MOL0     C35121   4.586   9.162   9.234 -0.7760  0.5993  0.4431
  980MOL0     C35122   4.582   9.121   9.089 -0.5542  0.1320  0.2665
  980MOL0     C35123   4.715   9.128   9.016  0.5592  0.0461  0.3237
  980MOL0     C35124   4.803   9.001   9.022  0.0563 -0.3110 -0.2633
  980MOL0     C35125   4.917   9.005   8.907 -0.7906  0.2403  0.0137
  980MOL0     O35126   4.995   8.893   8.936  0.2566 -0.0036  0.4669
  980MOL0     C35127   5.120   8.896   8.880  0.8338  0.4489 -0.3164
  980MOL0     C35128   5.201   8.777   8.894 -0.1908 -0.6656 -0.0178
  980MOL0     C35129   5.326   8.767   8.824  0.4428  0.1524 -0.3577
  980MOL0     C35130   5.392   8.629   8.830  0.7372  0.2466 -0.1856
  980MOL0     C35131   5.390   8.880   8.758 -0.0958  0.2162 -0.3473
  980MOL0     C35132   5.530   8.882   8.718 -0.3299  0.4233 -0.8405
  980MOL0     O35133   5.608   8.764   8.719  0.7599  0.0152  0.0551
  980MOL0     C35134   5.738   8.761   8.756 -0.2817 -0.9733 -0.1408
  980MOL0     C35135   5.801   8.873   8.822  0.1648 -0.0126  1.0121
  980MOL0     C35136   5.942   8.867   8.848  0.1485 -0.4096 -0.5034
  980MOL0     C35137   6.010   8.753   8.818 -0.0444 -0.3374  0.1420
  980MOL0     O35138   6.146   8.759   8.849  0.1459  0.3123 -0.0261
  980MOL0     C35139   6.240   8.668   8.798 -0.5216  0.6228  0.7379
  980MOL0     C35140   6.368   8.718   8.726 -0.6019 -0.9392 -0.3585
  980MOL0     C35141   6.440   8.829   8.799  0.0521 -0.4904  0.5395
  980MOL0     C35142   6.563   8.883   8.724 -0.1236  0.0972  0.1941
  980MOL0     C35143   6.620   9.009   8.789 -0.7203 -0.4156 -0.2371
  980MOL0     C35144   6.734   9.065   8.705  0.7170 -0.1710 -0.0896
  980MOL0     C35145   6.799   9.171   8.780 -0.3616  0.6906 -1.4004
  980MOL0     C35146   6.905   9.234   8.690  0.5071  0.7031 -0.2406
  980MOL0    Cl35147   6.972   9.378   8.767  0.3040 -0.4492  0.3530
  980MOL0     C35148   5.939   8.638   8.779 -0.1907  0.3360  0.3561
  980MOL0     C35149   5.802   8.639   8.740 -0.1873 -0.9388  0.0485
  980MOL0     O35150   5.574   8.989   8.683 -0.5710  0.2834  0.0411
  980MOL0     C35151   5.310   9.000   8.755  0.5491  0.3491  0.1651
  980MOL0     C35152   5.185   9.007   8.811 -0.0724  0.3218  0.3972
  980MOL0     N35153   4.595   9.290   9.277 -0.2198 -0.6861 -0.2944
  980MOL0     N35154   4.597   9.293   9.406  1.0356  0.0452  0.3880
  980MOL0     C35155   5.428   8.900  10.326 -0.0514  0.6114 -0.0093
  980MOL0     C35156   5.384   8.889  10.457  0.2740  0.0143 -0.4524
  980MOL0     C35157   5.165   8.941  10.846 -0.1044 -0.3524 -0.4297
  980MOL0     C35158   5.122   9.039  10.933 -0.1892 -0.1108 -0.9418
  980MOL0     C35159   5.060   9.013  11.056  0.4918  0.3184  0.3837
  980MOL0     C35160   5.042   8.880  11.103  0.3620 -0.6204  0.2377
  980MOL0     O35161   4.968   8.843  11.212  0.1279 -0.0574  0.3909
  980MOL0     C35162   4.939   8.948  11.307 -0.8012 -0.1866  0.5750
  980MOL0     C35163   4.914   8.867  11.432 -0.4277  0.1994  0.1462
  980MOL0     C35164   4.869   8.953  11.557  1.1432 -0.5880  1.1218
  980MOL0     C35165   4.720   8.996  11.548  0.3886  0.7145 -0.7189
  980MOL0     C35166   4.687   9.121  11.473  0.3333  0.1751 -0.7815
  980MOL0     C35167   4.635   9.217  11.417 -0.0680  1.0517  0.9574
  980MOL0     C35168   5.091   8.771  11.021  0.4293 -0.1754 -0.4344
  980MOL0     C35169   5.154   8.802  10.901 -0.2578  0.1985  0.2114
  980MOL0     C35170   5.212   8.694  10.829  0.2950  0.1181  0.4159
  980MOL0     H35171   5.057   8.978  10.394 -0.3453  1.9825  0.6337
  980MOL0     H35172   5.139   8.996  10.176  1.2047  0.4028 -1.9976
  980MOL0     H35173   5.283   9.091  10.012 -0.5985  0.1291 -0.6026
  980MOL0     H35174   5.224   8.922  10.001 -1.8217  2.8018 -1.5291
  980MOL0     H35175   5.465   9.006   9.836  0.4022 -0.2477 -1.7533
  980MOL0     H35176   5.370   8.860   9.840  0.6898  1.0051  0.4730
  980MOL0     H35177   5.300   9.151   9.768 -4.0795  0.5442 -2.1656
  980MOL0     H35178   5.318   9.021   9.652  1.4802 -0.7297  0.7525
  980MOL0     H35179   5.125   8.904   9.774  1.1539 -0.1016  0.9892
  980MOL0     H35180   5.093   9.063   9.854  3.3735 -1.2861  3.3346
  980MOL0     H35181   5.068   8.988   9.551 -1.0056 -1.9835  0.7484
  980MOL0     H35182   5.083   9.158   9.607  2.0187 -0.3028  2.6506
  980MOL0     H35183   4.867   8.959   9.698  2.1071 -1.2000 -0.6791
  980MOL0     H35184   4.883   9.119   9.756 -0.0632 -1.6631  0.6879
  980MOL0     H35185   4.841   9.045   9.463 -0.4245 -0.4960  0.5716
  980MOL0     H35186   4.866   9.207   9.532  0.3930 -0.4224 -1.9896
  980MOL0     H35187   4.651   9.017   9.605  1.1855 -0.7610  0.2578
  980MOL0     H35188   4.653   9.185   9.653 -0.5400 -0.8183 -0.4628
  980MOL0     H35189   4.594   8.970   9.337 -0.4470 -0.1362 -1.0030
  980MOL0     H35190   4.510   9.191   9.047  0.7107  2.5502  1.8664
  980MOL0     H35191   4.544   9.019   9.086  0.4404 -0.3477  2.2714
  980MOL0     H35192   4.693   9.164   8.915 -0.0415  2.6823  1.3147
  980MOL0     H35193   4.764   9.213   9.066 -1.3285  1.1328  0.4102
  980MOL0     H35194   4.857   8.993   9.117  2.2768 -0.1533 -1.4510
  980MOL0     H35195   4.749   8.908   9.001 -1.1489  1.0504 -3.9657
  980MOL0     H35196   4.876   9.005   8.805  1.4469 -3.4287 -1.0632
  980MOL0     H35197   4.965   9.103   8.916 -0.4805 -0.0048  1.1350
  980MOL0     H35198   5.152   8.691   8.939 -1.1720 -0.2404 -0.2310
  980MOL0     H35199   5.417   8.581   8.736  0.0985  0.1905 -0.3362
  980MOL0     H35200   5.339   8.553   8.889 -0.7109  0.5196 -1.0995
  980MOL0     H35201   5.481   8.635   8.894  0.5047  1.2408  0.0709
  980MOL0     H35202   5.760   8.970   8.850  1.0348  0.7232 -0.1734
  980MOL0     H35203   5.987   8.956   8.889 -1.1278 -0.3796  0.9111
  980MOL0     H35204   6.281   8.621   8.888  2.6018  3.5698  1.0285
  980MOL0     H35205   6.184   8.595   8.739  0.3994 -0.5329  1.2487
  980MOL0     H35206   6.439   8.635   8.719  1.5649  0.9812 -2.7187
  980MOL0     H35207   6.347   8.754   8.625 -2.7344 -0.0831  0.3301
  980MOL0     H35208   6.473   8.797   8.899 -2.6188  1.8190  2.3361
  980MOL0     H35209   6.379   8.920   8.808  1.6260  1.0268 -2.5341
  980MOL0     H35210   6.541   8.912   8.621  2.9604 -1.0940 -0.9137
  980MOL0     H35211   6.632   8.800   8.706  0.0440  0.2578  0.0918
  980MOL0     H35212   6.534   9.076   8.797  1.4281  2.6734 -1.1275
  980MOL0     H35213   6.659   8.976   8.886  0.6422 -0.5653 -0.8053
  980MOL0     H35214   6.698   9.088   8.604 -0.4134  1.4159  0.6263
  980MOL0     H35215   6.809   8.989   8.684 -0.3021 -0.5773 -2.6671
  980MOL0     H35216   6.839   9.130   8.874 -2.3971  2.1754  0.2172
  980MOL0     H35217   6.741   9.257   8.815 -1.4395 -1.2346  2.0630
  980MOL0     H35218   6.859   9.254   8.593  2.1811 -1.2341 -1.5022
  980MOL0     H35219   6.991   9.171   8.664 -0.9116 -1.5827  0.2999
  980MOL0     H35220   5.988   8.542   8.769  0.9743  0.9895 -0.4762
  980MOL0     H35221   5.742   8.552   8.715 -1.1940  0.0915 -1.2822
  980MOL0     H35222   5.339   9.102   8.733 -1.2353  1.6727  3.3041
  980MOL0     H35223   5.136   9.104   8.808  0.1229  0.6128  3.3727
  980MOL0     H35224   5.533   8.890  10.301 -0.5757 -0.3565 -1.9548
  980MOL0     H35225   5.445   8.846  10.536 -0.4055 -0.0112  0.0691
  980MOL0     H35226   5.124   9.142  10.900  0.6092 -0.3596 -1.6822
  980MOL0     H35227   5.035   9.102  11.112 -1.8717  2.0137 -3.0072
  980MOL0     H35228   5.023   9.017  11.320 -1.8296  1.6218 -1.7067
  980MOL0     H35229   4.845   8.995  11.276  1.0264  2.3823 -1.5269
  980MOL0     H35230   5.012   8.823  11.453 -0.3955 -0.1609 -0.7480
  980MOL0     H35231   4.846   8.782  11.416  1.2224 -1.2120  0.2886
  980MOL0     H35232   4.874   8.888  11.645 -1.4349 -0.0155  1.7560
  980MOL0     H35233   4.925   9.047  11.560 -1.7710  1.3428 -0.5065
  980MOL0     H35234   4.684   9.004  11.651  2.1414  0.2375 -0.0357
  980MOL0     H35235   4.664   8.917  11.497  1.8687 -0.6945 -0.2231
  980MOL0     H35236   4.598   9.300  11.360 -2.1836 -2.6949 -3.8945
  980MOL0     H35237   5.067   8.667  11.042 -3.4374  0.4334 -1.1568
  980MOL0     H35238   5.225   8.602  10.886  1.7082 -2.5328 -3.7303
  980MOL0     H35239   5.147   8.670  10.744  0.5549 -1.7597  0.7053
  980MOL0     H35240   5.308   8.715  10.782 -0.4508 -2.2111 -2.5269
  981MOL0     O35241   6.178   8.331   0.018  0.2370 -0.6254  0.3755
  981MOL0     C35242   6.201   8.245  -0.070 -0.5056 -0.5867 -0.0233
  981MOL0     O35243   6.269   8.127  -0.059 -0.5446  0.0169 -0.1525
  981MOL0     C35244   6.338   8.114   0.065  0.6828 -0.9531 -0.3579
  981MOL0     C35245   6.456   8.187   0.092 -0.1129  0.9664 -1.0040
  981MOL0     C35246   6.523   8.159   0.214  0.6522 -0.1215 -0.0525
  981MOL0     C35247   6.477   8.071   0.310  0.2828  0.0026 -0.2428
  981MOL0     O35248   6.540   8.019   0.426 -0.0647 -0.3557  0.1855
  981MOL0     C35249   6.655   8.088   0.474  0.4157 -0.3024  0.2802
  981MOL0     C35250   6.718   8.011   0.587  0.4934 -0.2295  0.6647
  981MOL0     C35251   6.825   8.086   0.657  0.0871  0.0688  0.3127
  981MOL0     C35252   6.879   8.000   0.775  0.5317  0.2538 -0.8733
  981MOL0     C35253   6.970   8.071   0.871  0.2147  1.0502 -0.4420
  981MOL0     C35254   6.988   7.985   1.007 -0.5917  0.5159  0.1409
  981MOL0     C35255   7.083   8.060   1.100  0.3519 -0.3267 -0.1418
  981MOL0     C35256   7.004   8.171   1.183  0.2201  0.1242 -0.1282
  981MOL0     N35257   7.097   8.263   1.239 -0.9281 -0.3411  0.1305
  981MOL0     C35258   7.189   8.337   1.154 -0.0835 -0.3766 -0.8116
  981MOL0     C35259   7.266   8.385   1.249  0.5704 -0.1750 -0.4349
  981MOL0     C35260   7.389   8.461   1.242  0.3957 -0.5186 -0.3480
  981MOL0     C35261   7.519   8.386   1.232  0.7124  0.3960 -0.2479
  981MOL0     C35262   7.645   8.473   1.236 -0.3666  0.3534 -0.2884
  981MOL0     C35263   7.680   8.549   1.106 -0.9864 -0.7229 -0.0870
  981MOL0     O35264   7.676   8.464   0.994  0.4348 -0.7160 -0.2117
  981MOL0     C35265   7.710   8.528   0.880 -0.0262  0.0332  0.2413
  981MOL0     C35266   7.677   8.660   0.842  0.4532  0.3023 -0.1020
  981MOL0     C35267   7.727   8.721   0.725  0.0263  0.4110  0.1863
  981MOL0     C35268   7.690   8.862   0.711 -0.0529 -0.2662 -0.1346
  981MOL0     C35269   7.787   8.643   0.627 -0.0419  0.2250  0.1166
  981MOL0     C35270   7.839   8.687   0.498  0.5500  0.3129 -0.1014
  981MOL0     O35271   7.863   8.584   0.408 -0.3131 -0.3839 -0.3320
  981MOL0     C35272   7.911   8.610   0.279 -0.5219  0.0328  0.8357
  981MOL0     C35273   7.958   8.729   0.213  0.7855  0.2573 -0.1158
  981MOL0     C35274   8.014   8.728   0.083 -0.4945 -0.4248 -0.0985
  981MOL0     C35275   8.045   8.605   0.017 -1.0579 -0.4930  0.2149
  981MOL0     O35276   8.106   8.611  -0.101  0.2045 -0.5424  0.1782
  981MOL0     C35277   8.164   8.499  -0.165 -0.5607  0.7282  0.1950
  981MOL0     C35278   8.252   8.528  -0.283 -1.0216 -0.2079  0.5987
  981MOL0     C35279   8.387   8.592  -0.248  0.0497  0.2684  0.8416
  981MOL0     C35280   8.490   8.601  -0.357 -0.5187  0.6052  0.6097
  981MOL0     C35281   8.618   8.648  -0.296  0.4300  0.2628  0.2344
  981MOL0     C35282   8.729   8.685  -0.398 -0.1153 -0.2705 -0.3473
  981MOL0     C35283   8.843   8.756  -0.323 -0.4603 -0.5049  0.1174
  981MOL0     C35284   8.937   8.657  -0.242  0.5707 -1.2219 -0.6481
  981MOL0    Cl35285   9.029   8.529  -0.337  0.7592 -0.2194  0.1148
  981MOL0     C35286   7.998   8.498   0.083 -0.3029  0.1881 -0.8885
  981MOL0     C35287   7.934   8.497   0.208 -0.7109 -0.3230 -0.0828
  981MOL0     O35288   7.863   8.806   0.479  0.2061 -0.1251 -0.1500
  981MOL0     C35289   7.823   8.513   0.668  0.1169  0.0775  0.2224
  981MOL0     C35290   7.789   8.460   0.793  0.3451  0.1968  0.2621
  981MOL0     N35291   7.226   8.363   1.377  0.4586  0.3407 -0.5408
  981MOL0     N35292   7.116   8.291   1.363 -0.3063  0.2237  0.3933
  981MOL0     C35293   6.375   7.987   0.271  1.2441  0.1807 -0.2389
  981MOL0     C35294   6.300   8.010   0.153  0.7632  0.6486  0.0120
  981MOL0     C35295   6.166   8.288  -0.208 -0.3516  0.2891  0.1557
  981MOL0     C35296   6.239   8.242  -0.314  0.0482 -0.3761 -0.2519
  981MOL0     C35297   6.225   8.286  -0.450 -0.1922 -0.0661 -0.7497
  981MOL0     C35298   6.127   8.383  -0.476 -0.4962 -0.3951  0.5785
  981MOL0     O35299   6.125   8.444  -0.600 -0.5829 -0.9057  0.2038
  981MOL0     C35300   6.237   8.425  -0.685 -0.4709 -0.3427  0.7466
  981MOL0     C35301   6.235   8.541  -0.777  0.6630  0.0638 -0.0742
  981MOL0     C35302   6.337   8.538  -0.896 -0.4980  0.3728  0.6230
  981MOL0     C35303   6.484   8.537  -0.852  0.1681  1.0569 -0.7499
  981MOL0     C35304   6.554   8.540  -0.977 -0.8340 -0.6827 -0.5673
  981MOL0     C35305   6.619   8.537  -1.080 -0.0139 -0.3528 -0.2271
  981MOL0     C35306   6.045   8.424  -0.371  0.4572  0.0852  0.3811
  981MOL0     C35307   6.058   8.376  -0.237  0.3563  0.2712 -0.0678
  981MOL0     C35308   5.949   8.430  -0.142  0.2024  0.0890 -0.9636
  981MOL0     H35309   6.515   8.247   0.023  0.9709  0.4556 -0.5348
  981MOL0     H35310   6.621   8.203   0.224  1.0972 -1.0892 -0.0306
  981MOL0     H35311   6.625   8.189   0.503  1.2662  0.0910 -0.1508
  981MOL0     H35312   6.724   8.099   0.389  0.8052 -1.7848  0.3837
  981MOL0     H35313   6.639   7.988   0.659  0.2458  0.9094  0.7663
  981MOL0     H35314   6.761   7.921   0.542  3.1273  1.3848 -0.2909
  981MOL0     H35315   6.915   8.108   0.599  0.7903 -0.2720  1.2593
  981MOL0     H35316   6.782   8.180   0.692  1.0446 -0.3666  2.8328
  981MOL0     H35317   6.793   7.962   0.832  1.0796 -1.5093 -1.1540
  981MOL0     H35318   6.939   7.917   0.737 -0.4907 -2.0992  2.2282
  981MOL0     H35319   6.926   8.159   0.919 -0.0250 -0.9936  3.5110
  981MOL0     H35320   7.060   8.104   0.818  0.6512  0.6153  0.0234
  981MOL0     H35321   6.894   7.982   1.062 -0.3559 -0.8137  0.5008
  981MOL0     H35322   7.023   7.882   0.998 -0.3895  0.6264 -0.4165
  981MOL0     H35323   7.166   8.108   1.047 -1.3349  2.8150 -0.1555
  981MOL0     H35324   7.127   7.993   1.174 -2.9600  0.5134  2.8811
  981MOL0     H35325   6.928   8.220   1.120 -1.6435 -2.5628 -0.1169
  981MOL0     H35326   6.949   8.131   1.268 -1.6814  2.2184 -0.2646
  981MOL0     H35327   7.194   8.329   1.046  2.4070  0.6870 -0.8310
  981MOL0     H35328   7.387   8.533   1.325 -2.1503  0.3712 -1.0891
  981MOL0     H35329   7.370   8.528   1.158  0.6298 -0.1565 -0.1163
  981MOL0     H35330   7.524   8.325   1.323  0.2087  1.3643  0.4487
  981MOL0     H35331   7.525   8.315   1.148  0.0083 -1.0713  0.8957
  981MOL0     H35332   7.627   8.549   1.312 -3.6057 -0.7587  0.2454
  981MOL0     H35333   7.734   8.410   1.247 -1.1842 -1.1323 -1.7267
  981MOL0     H35334   7.600   8.622   1.092  0.7704  1.4558  0.6079
  981MOL0     H35335   7.783   8.585   1.110 -1.1896  0.1140 -1.6972
  981MOL0     H35336   7.622   8.734   0.899  0.4691  0.5519 -0.4082
  981MOL0     H35337   7.637   8.869   0.615  0.7794  2.5722 -0.4995
  981MOL0     H35338   7.779   8.925   0.698 -1.3289  1.1696 -2.7214
  981MOL0     H35339   7.623   8.903   0.788  0.6691  1.8993 -0.5708
  981MOL0     H35340   7.953   8.821   0.272  0.6065 -0.9340  1.8148
  981MOL0     H35341   8.046   8.816   0.028  1.0879 -1.3244 -0.6607
  981MOL0     H35342   8.205   8.427  -0.093  0.1151  0.0437 -0.8538
  981MOL0     H35343   8.071   8.453  -0.199 -1.8949  2.8438  0.7679
  981MOL0     H35344   8.258   8.435  -0.340 -2.2647 -0.2474  0.4857
  981MOL0     H35345   8.198   8.590  -0.355 -0.4615 -0.3726  0.0381
  981MOL0     H35346   8.424   8.534  -0.163 -0.8565 -2.2183 -0.3788
  981MOL0     H35347   8.368   8.693  -0.209  0.0279 -0.0916  1.7818
  981MOL0     H35348   8.460   8.667  -0.438  2.1160 -0.9117 -1.7655
  981MOL0     H35349   8.506   8.501  -0.400  1.9388 -0.5675  3.7876
  981MOL0     H35350   8.601   8.739  -0.238 -0.0880  0.3333 -0.0210
  981MOL0     H35351   8.655   8.581  -0.218 -1.4558 -2.7150 -1.2014
  981MOL0     H35352   8.691   8.760  -0.467 -0.6950  1.0089  1.2804
  981MOL0     H35353   8.767   8.606  -0.463  2.6593  0.7389 -0.1259
  981MOL0     H35354   8.793   8.836  -0.268 -0.4583 -1.6044  1.7748
  981MOL0     H35355   8.907   8.805  -0.397 -1.8157 -0.2401 -0.9127
  981MOL0     H35356   8.872   8.603  -0.173 -1.0111 -0.5415 -1.5580
  981MOL0     H35357   9.011   8.717  -0.188 -1.4730 -0.7248  1.7948
  981MOL0     H35358   8.008   8.398   0.041  0.5401 -0.7157  1.3104
  981MOL0     H35359   7.899   8.404   0.253 -1.0557 -0.5129 -0.7287
  981MOL0     H35360   7.880   8.448   0.603 -0.3017 -0.6289  0.5521
  981MOL0     H35361   7.828   8.362   0.819 -0.3501  0.3320  1.9181
  981MOL0     H35362   6.354   7.905   0.339 -1.0333  2.5921  2.2069
  981MOL0     H35363   6.222   7.939   0.127  0.2527  0.9291  0.7247
  981MOL0     H35364   6.325   8.177  -0.302  0.0833 -0.4444 -0.8529
  981MOL0     H35365   6.297   8.247  -0.521  1.6754 -0.0340  1.0232
  981MOL0     H35366   6.327   8.442  -0.624 -0.6968  3.8737  0.2494
  981MOL0     H35367   6.240   8.328  -0.734 -2.0844  1.2067 -2.8250
  981MOL0     H35368   6.242   8.636  -0.723  1.0135 -1.5881  3.0186
  981MOL0     H35369   6.137   8.535  -0.827  0.9615 -2.2897 -0.4906
  981MOL0     H35370   6.316   8.446  -0.953  1.6608 -0.8757  1.6788
  981MOL0     H35371   6.322   8.633  -0.948  2.1859  1.1420  1.1060
  981MOL0     H35372   6.517   8.450  -0.794  2.5662  2.2750 -0.1303
  981MOL0     H35373   6.502   8.630  -0.796  0.9188  1.3244 -1.4034
  981MOL0     H35374   6.669   8.543  -1.174 -1.7215  1.0057 -1.0913
  981MOL0     H35375   5.975   8.503  -0.396 -0.4358 -0.7588  0.1539
  981MOL0     H35376   5.908   8.351  -0.078 -1.8738  1.7722 -0.0996
  981MOL0     H35377   5.978   8.507  -0.069 -1.2623 -1.9927  2.0421
  981MOL0     H35378   5.863   8.465  -0.200  0.5388  0.7919 -1.0521
  982MOL0     O35379   5.980   3.050   8.285 -0.4361  0.1792 -0.0033
  982MOL0     C35380   5.926   2.950   8.242 -0.8253 -0.1271  0.0609
  982MOL0     O35381   5.991   2.858   8.170  0.2721 -0.0962 -0.5078
  982MOL0     C35382   6.129   2.831   8.177 -0.2231 -0.3135  0.1279
  982MOL0     C35383   6.183   2.771   8.066  0.3391  0.5282 -0.0751
  982MOL0     C35384   6.316   2.717   8.065  0.1557  0.5718 -0.2063
  982MOL0     C35385   6.391   2.735   8.183  0.4028  0.6631  0.5731
  982MOL0     O35386   6.521   2.696   8.171  0.2543 -0.0994 -0.0695
  982MOL0     C35387   6.617   2.790   8.218  0.0306 -0.3992 -0.5545
  982MOL0     C35388   6.728   2.792   8.116  0.1198 -0.6589 -0.0260
  982MOL0     C35389   6.828   2.899   8.137 -1.0968 -0.0167  0.7459
  982MOL0     C35390   6.939   2.890   8.024  0.9739  0.5594 -0.3729
  982MOL0     C35391   7.068   2.974   8.058 -0.0546 -0.1124 -0.3105
  982MOL0     C35392   7.033   3.130   8.059  0.2223 -0.4280 -0.0095
  982MOL0     C35393   7.137   3.227   8.115  0.2875 -0.4334  0.0382
  982MOL0     C35394   7.265   3.213   8.022 -0.1720  0.5061 -0.4240
  982MOL0     N35395   7.386   3.282   8.084 -0.0130 -0.2117 -0.1335
  982MOL0     C35396   7.441   3.400   8.038  0.7143  0.1999  0.4023
  982MOL0     C35397   7.528   3.440   8.134 -0.7353 -0.2014  0.5875
  982MOL0     C35398   7.613   3.561   8.124  0.3763  0.3724 -0.4550
  982MOL0     C35399   7.701   3.544   7.990 -0.3733  0.7235  0.3888
  982MOL0     C35400   7.823   3.637   7.998 -0.7890 -0.3375 -0.7438
  982MOL0     C35401   7.942   3.572   8.062 -0.2863  0.1889 -0.1797
  982MOL0     O35402   7.979   3.478   7.963  0.0194  0.4143 -0.2496
  982MOL0     C35403   8.107   3.436   7.955 -0.0442  0.7058 -0.1835
  982MOL0     C35404   8.158   3.371   7.841 -0.2511  0.6023 -0.0107
  982MOL0     C35405   8.293   3.337   7.827 -0.2513  0.6936 -0.3751
  982MOL0     C35406   8.318   3.272   7.694 -1.1211  0.8748  0.5630
  982MOL0     C35407   8.387   3.375   7.927 -0.2318 -0.5021  0.7692
  982MOL0     C35408   8.531   3.344   7.906  0.2543  0.5397  0.3549
  982MOL0     O35409   8.600   3.324   8.021 -0.0236 -0.7358 -0.1794
  982MOL0     C35410   8.725   3.274   8.026  0.5253  0.3144 -0.2776
  982MOL0     C35411   8.785   3.187   7.930  0.5638 -0.9554  0.4405
  982MOL0     C35412   8.913   3.147   7.931 -0.9908 -0.4224  0.0440
  982MOL0     C35413   8.994   3.180   8.039 -0.2971 -0.7869 -0.6903
  982MOL0     O35414   9.122   3.129   8.048  0.6904 -0.4049 -0.5653
  982MOL0     C35415   9.220   3.208   8.118 -0.2928 -0.4615 -0.7471
  982MOL0     C35416   9.362   3.155   8.122 -0.1443  0.2712  0.1227
  982MOL0     C35417   9.478   3.254   8.159  0.3501 -0.4418 -0.0055
  982MOL0     C35418   9.616   3.205   8.115  1.2781  0.0047 -1.0257
  982MOL0     C35419   9.725   3.313   8.139  0.0597 -0.1335  0.8782
  982MOL0     C35420   9.809   3.297   8.263  0.3088  0.3365  0.4660
  982MOL0     C35421   9.930   3.394   8.247 -0.2004  0.3410  0.0711
  982MOL0     C35422  10.045   3.341   8.166 -0.5508  0.4812 -0.0897
  982MOL0    Cl35423  10.190   3.462   8.171  0.3350 -0.1928 -0.2245
  982MOL0     C35424   8.939   3.252   8.138  0.7197 -1.1236 -0.0942
  982MOL0     C35425   8.799   3.297   8.139  0.0775 -0.2907 -0.5124
  982MOL0     O35426   8.580   3.348   7.795  0.8156 -0.3684  0.1066
  982MOL0     C35427   8.336   3.429   8.043 -0.1153 -0.3027  0.0417
  982MOL0     C35428   8.204   3.467   8.050  0.2524 -0.4492  0.6237
  982MOL0     N35429   7.521   3.357   8.244 -0.7795 -0.2410 -0.3737
  982MOL0     N35430   7.422   3.271   8.217 -0.2063  0.7091 -1.0794
  982MOL0     C35431   6.338   2.797   8.289 -1.1923 -0.1739 -0.1757
  982MOL0     C35432   6.209   2.844   8.287  0.0525 -0.2569  0.2402
  982MOL0     C35433   5.779   2.947   8.268  0.0911 -0.1358  0.0247
  982MOL0     C35434   5.724   3.041   8.350  0.2284 -0.3265 -0.1608
  982MOL0     C35435   5.586   3.038   8.378 -0.0438 -0.1245 -0.8173
  982MOL0     C35436   5.494   2.955   8.314 -0.2070  0.8126 -0.4298
  982MOL0     O35437   5.363   2.966   8.352 -0.1567  0.2815 -0.0905
  982MOL0     C35438   5.280   2.851   8.342  0.4954 -0.2148 -0.1485
  982MOL0     C35439   5.129   2.894   8.355  0.0466  0.1547 -0.5871
  982MOL0     C35440   5.032   2.774   8.333 -0.4885 -0.9773  0.5518
  982MOL0     C35441   4.906   2.829   8.287  0.0000  0.0411  0.2789
  982MOL0     C35442   4.842   2.928   8.381  1.2358 -0.1518 -0.3263
  982MOL0     C35443   4.781   3.006   8.452 -0.6955 -1.0339  0.1270
  982MOL0     C35444   5.551   2.862   8.226 -0.0838 -0.7758  0.5732
  982MOL0     C35445   5.687   2.854   8.204 -0.1526  0.7552  0.1482
  982MOL0     C35446   5.734   2.741   8.113 -0.1567 -0.1729  0.0552
  982MOL0     H35447   6.114   2.736   7.990  2.4899 -3.1095 -0.5616
  982MOL0     H35448   6.354   2.663   7.978 -0.9071 -0.0378 -0.3118
  982MOL0     H35449   6.667   2.762   8.311  1.1793  0.9905 -0.7217
  982MOL0     H35450   6.568   2.888   8.224  1.0477  0.1214 -0.5017
  982MOL0     H35451   6.780   2.696   8.127  0.9183 -0.2298  0.0427
  982MOL0     H35452   6.679   2.803   8.019  2.5714  2.1296 -1.1001
  982MOL0     H35453   6.777   2.995   8.127  1.5348  1.2479 -2.2238
  982MOL0     H35454   6.878   2.894   8.234 -0.0031 -1.6980  0.1427
  982MOL0     H35455   6.966   2.784   8.019  0.9804  0.5732 -0.6442
  982MOL0     H35456   6.892   2.906   7.927 -2.8544 -1.7988  0.8426
  982MOL0     H35457   7.154   2.948   7.996  0.8925  0.6561  0.6280
  982MOL0     H35458   7.107   2.954   8.159  3.2776  2.2879 -0.9272
  982MOL0     H35459   7.008   3.167   7.959  1.2683 -1.1520 -0.5540
  982MOL0     H35460   6.952   3.141   8.132  2.3585  2.1084  2.1953
  982MOL0     H35461   7.150   3.210   8.222  0.6643  2.4668  0.5325
  982MOL0     H35462   7.099   3.329   8.114  1.9733  0.2241 -0.8730
  982MOL0     H35463   7.289   3.108   8.007  0.0976  0.3382  1.0039
  982MOL0     H35464   7.254   3.250   7.920 -0.3255  3.2865  0.4989
  982MOL0     H35465   7.418   3.439   7.939 -2.4482 -1.7657  0.2290
  982MOL0     H35466   7.670   3.575   8.217 -1.5695 -1.7484  1.1841
  982MOL0     H35467   7.556   3.651   8.101  1.4063  1.0694 -0.3290
  982MOL0     H35468   7.736   3.441   7.984  0.2804  1.0428 -2.3957
  982MOL0     H35469   7.644   3.579   7.904 -0.2070 -0.8175 -0.3717
  982MOL0     H35470   7.846   3.672   7.896  1.5773 -0.3280 -0.2648
  982MOL0     H35471   7.814   3.726   8.061  0.9724 -1.0080  0.5468
  982MOL0     H35472   8.018   3.648   8.085  2.9054 -2.8174  0.1552
  982MOL0     H35473   7.913   3.521   8.154  0.5845  1.7951  1.0246
  982MOL0     H35474   8.081   3.341   7.770  1.3815 -0.0568 -1.5562
  982MOL0     H35475   8.393   3.193   7.694  1.0975  2.8091 -1.2918
  982MOL0     H35476   8.346   3.343   7.616 -1.5221 -0.2095 -0.6033
  982MOL0     H35477   8.229   3.220   7.659  0.9224 -1.9160 -0.8747
  982MOL0     H35478   8.729   3.153   7.843  0.4549 -0.5152  0.3307
  982MOL0     H35479   8.949   3.089   7.847 -1.6305  0.4021 -0.8149
  982MOL0     H35480   9.229   3.310   8.081  1.0693  0.0542  0.8707
  982MOL0     H35481   9.184   3.214   8.222  2.0658  0.1026  0.0980
  982MOL0     H35482   9.361   3.064   8.184 -2.1965  2.2354  3.2360
  982MOL0     H35483   9.388   3.128   8.020  2.3775 -1.5106  1.1363
  982MOL0     H35484   9.479   3.283   8.265  0.0837 -0.3436 -0.0262
  982MOL0     H35485   9.458   3.348   8.107  2.3570 -0.7474 -1.4202
  982MOL0     H35486   9.602   3.177   8.010 -1.5807  2.0790 -1.3243
  982MOL0     H35487   9.638   3.117   8.176 -3.1258  0.2900  1.4248
  982MOL0     H35488   9.795   3.304   8.055 -1.4331  1.8802 -0.6850
  982MOL0     H35489   9.694   3.418   8.136  0.2177 -0.1066 -1.5246
  982MOL0     H35490   9.848   3.195   8.265  2.7916  1.2188 -0.0590
  982MOL0     H35491   9.748   3.311   8.353 -3.0764 -0.8731 -1.4410
  982MOL0     H35492   9.964   3.406   8.351  1.1615  0.7661 -0.4065
  982MOL0     H35493   9.900   3.483   8.191  0.9396  0.6453 -0.0755
  982MOL0     H35494  10.019   3.323   8.061 -4.3813  4.0029 -0.0301
  982MOL0     H35495  10.080   3.249   8.213 -0.3590  0.0242 -1.1019
  982MOL0     H35496   8.987   3.280   8.231  0.5927  0.8673 -0.5985
  982MOL0     H35497   8.766   3.361   8.220 -0.5181 -0.4330 -0.6388
  982MOL0     H35498   8.410   3.460   8.116 -0.7270  0.8162  0.2127
  982MOL0     H35499   8.166   3.515   8.140  0.2763  1.3311 -0.2667
  982MOL0     H35500   6.397   2.794   8.380 -0.8014 -0.4016 -0.4339
  982MOL0     H35501   6.171   2.871   8.385  2.4417 -1.2559  1.5385
  982MOL0     H35502   5.787   3.099   8.417  1.0700 -0.1343 -1.0965
  982MOL0     H35503   5.547   3.104   8.455 -1.7779 -2.5238  0.5114
  982MOL0     H35504   5.289   2.798   8.247  1.7036 -1.3471  0.5665
  982MOL0     H35505   5.309   2.772   8.413  3.3194  0.3202 -0.5756
  982MOL0     H35506   5.108   2.973   8.283  4.3478  2.6141  0.4818
  982MOL0     H35507   5.111   2.928   8.457  0.8384 -1.8776  0.2978
  982MOL0     H35508   5.071   2.708   8.255 -2.5265  0.1457 -1.5673
  982MOL0     H35509   5.027   2.724   8.430  1.9217 -1.2801  0.5843
  982MOL0     H35510   4.833   2.751   8.266 -0.7352  0.9270 -0.5432
  982MOL0     H35511   4.921   2.882   8.192 -5.1647 -2.9554 -2.6100
  982MOL0     H35512   4.725   3.085   8.499 -1.2593 -0.8403 -0.8469
  982MOL0     H35513   5.479   2.802   8.172  1.4867 -1.7187 -0.5517
  982MOL0     H35514   5.662   2.658   8.108  2.8977 -3.1276  0.9316
  982MOL0     H35515   5.744   2.768   8.008  1.6148 -1.2768 -0.1028
  982MOL0     H35516   5.832   2.701   8.139  0.8356  1.8228 -0.4161
  983MOL0     O35517   0.777   0.580   6.976  0.2581  0.2789 -0.2900
  983MOL0     C35518   0.777   0.565   7.099  0.3266 -1.0469  0.3572
  983MOL0     O35519   0.829   0.646   7.187 -0.9812 -0.0220  0.2030
  983MOL0     C35520   0.927   0.733   7.152  0.2935 -0.3461  0.5850
  983MOL0     C35521   1.028   0.703   7.067 -0.7570 -1.2387 -0.6828
  983MOL0     C35522   1.123   0.795   7.044  0.0942  0.6049  0.5263
  983MOL0     C35523   1.123   0.923   7.100  0.4974  0.0543  0.0016
  983MOL0     O35524   1.207   1.020   7.055 -0.6125 -0.6189 -0.1950
  983MOL0     C35525   1.307   0.986   6.963 -0.5222 -0.1407  0.4666
  983MOL0     C35526   1.421   1.081   6.984 -0.3110  0.3459  0.2783
  983MOL0     C35527   1.538   1.034   6.893  0.3090  0.0808 -0.0418
  983MOL0     C35528   1.667   1.114   6.928  1.2235 -0.2161  0.5519
  983MOL0     C35529   1.770   1.101   6.810  0.2700  0.8174 -0.9083
  983MOL0     C35530   1.816   0.953   6.782 -0.4561 -0.4836 -0.3775
  983MOL0     C35531   1.857   0.927   6.633 -0.3695  0.6682  0.0197
  983MOL0     C35532   1.911   0.781   6.607 -0.3265 -0.0768 -0.3425
  983MOL0     N35533   1.950   0.742   6.468 -0.4027 -0.7840  0.9771
  983MOL0     C35534   2.086   0.731   6.433  0.4843  0.3071 -0.5175
  983MOL0     C35535   2.088   0.685   6.306  1.0130 -0.0216  0.7814
  983MOL0     C35536   2.198   0.652   6.205 -0.0615  0.5320 -0.3773
  983MOL0     C35537   2.187   0.519   6.141 -0.4112  0.0143  0.3909
  983MOL0     C35538   2.293   0.492   6.033  0.6909 -0.4263 -0.5590
  983MOL0     C35539   2.293   0.357   5.972 -0.0884 -0.1116  1.2168
  983MOL0     O35540   2.362   0.254   6.039 -0.0718 -0.6236 -0.3038
  983MOL0     C35541   2.495   0.263   6.055 -0.2561 -0.4389  0.5712
  983MOL0     C35542   2.553   0.195   6.159  0.4822 -0.1346 -0.0856
  983MOL0     C35543   2.689   0.202   6.192 -0.3319  0.1597 -0.0185
  983MOL0     C35544   2.743   0.125   6.310  0.1384  0.8963 -0.5866
  983MOL0     C35545   2.781   0.278   6.109  0.3336 -0.6318 -0.5085
  983MOL0     C35546   2.928   0.303   6.135  1.3168  0.0112 -0.0795
  983MOL0     O35547   3.008   0.341   6.024 -0.2595  0.6512 -0.3812
  983MOL0     C35548   3.133   0.395   6.055  0.2594  0.9684  0.0731
  983MOL0     C35549   3.149   0.533   6.070  0.2698  0.2631 -0.5111
  983MOL0     C35550   3.277   0.586   6.087 -0.4239  0.5579  0.6657
  983MOL0     C35551   3.392   0.503   6.094  0.0255  0.5165  0.2389
  983MOL0     O35552   3.510   0.565   6.109 -0.1676  0.4192  0.4882
  983MOL0     C35553   3.629   0.486   6.147  0.7386  0.0106 -0.5856
  983MOL0     C35554   3.746   0.573   6.175 -0.2052 -1.0672 -0.0420
  983MOL0     C35555   3.839   0.601   6.055 -0.4414  0.5905 -0.4294
  983MOL0     C35556   3.974   0.647   6.104  0.4584 -0.3090  0.3235
  983MOL0     C35557   4.070   0.675   5.993 -0.5590  0.1325 -0.8431
  983MOL0     C35558   4.208   0.736   6.029 -0.6847  0.3922  0.3042
  983MOL0     C35559   4.288   0.776   5.901 -0.3907  0.1976 -0.2909
  983MOL0     C35560   4.435   0.787   5.931  0.1596 -0.0835  0.6016
  983MOL0    Cl35561   4.525   0.875   5.803 -0.0381 -0.1137  0.2724
  983MOL0     C35562   3.373   0.362   6.076  0.3172 -0.1453  0.4599
  983MOL0     C35563   3.245   0.312   6.057  0.2127 -0.4999 -0.6313
  983MOL0     O35564   2.975   0.267   6.242 -0.2296  0.0319 -0.7604
  983MOL0     C35565   2.718   0.349   6.003 -0.2528  0.1723 -0.2537
  983MOL0     C35566   2.582   0.342   5.980  0.4764 -0.2149 -0.1676
  983MOL0     N35567   1.955   0.672   6.267 -0.1160 -1.0052  0.5751
  983MOL0     N35568   1.870   0.705   6.362  0.9566  0.0176 -0.7880
  983MOL0     C35569   1.038   0.946   7.204  0.5426  0.3422 -0.5211
  983MOL0     C35570   0.940   0.851   7.233  0.3932  0.7638 -0.3970
  983MOL0     C35571   0.685   0.460   7.150  0.4169 -0.1697  0.0552
  983MOL0     C35572   0.699   0.327   7.101 -0.0550  0.6136  0.0152
  983MOL0     C35573   0.598   0.231   7.135  0.4240  0.1183  0.4127
  983MOL0     C35574   0.508   0.258   7.235  0.1609 -0.2286 -0.3983
  983MOL0     O35575   0.427   0.152   7.263  0.7092  0.2473 -0.4394
  983MOL0     C35576   0.310   0.167   7.350 -1.1264  0.3432  0.7352
  983MOL0     C35577   0.236   0.029   7.343 -0.1140  0.2904  0.4262
  983MOL0     C35578   0.156   0.027   7.215 -0.5781 -0.3432 -0.3740
  983MOL0     C35579   0.072  -0.105   7.201 -0.4415 -0.1708  0.3563
  983MOL0     C35580  -0.003  -0.083   7.082 -0.9391 -0.5059 -0.2484
  983MOL0     C35581  -0.058  -0.080   6.970 -0.3908 -0.1032 -0.6308
  983MOL0     C35582   0.495   0.388   7.287 -0.2492 -0.1830  0.0033
  983MOL0     C35583   0.588   0.490   7.245 -0.5906  0.1502  0.1382
  983MOL0     C35584   0.566   0.631   7.311  0.6169  0.3727 -0.7174
  983MOL0     H35585   1.027   0.608   7.015  2.6633 -1.6264 -0.2615
  983MOL0     H35586   1.181   0.769   6.956 -0.5741  2.1188 -0.3998
  983MOL0     H35587   1.268   0.967   6.863  1.8337  0.2746 -0.6166
  983MOL0     H35588   1.350   0.896   7.008  1.4382 -0.4495 -1.8045
  983MOL0     H35589   1.390   1.182   6.953  1.3018  0.3087 -1.6683
  983MOL0     H35590   1.438   1.084   7.092 -3.2710 -0.6252  0.8690
  983MOL0     H35591   1.543   0.925   6.892  1.5076  0.1250 -1.9525
  983MOL0     H35592   1.518   1.060   6.789 -0.2226 -1.1315 -0.2582
  983MOL0     H35593   1.635   1.218   6.938  0.4033 -0.6381  2.8974
  983MOL0     H35594   1.690   1.074   7.027  0.7618  0.0728  0.7772
  983MOL0     H35595   1.868   1.149   6.825  0.3388 -0.2356  3.0656
  983MOL0     H35596   1.719   1.146   6.725 -1.1982  0.3321 -0.3060
  983MOL0     H35597   1.903   0.932   6.845 -1.0403 -0.5738  0.4179
  983MOL0     H35598   1.738   0.880   6.806 -0.2133 -0.0936  1.8906
  983MOL0     H35599   1.941   0.985   6.593 -2.8591  1.5984 -4.5444
  983MOL0     H35600   1.769   0.946   6.571 -2.5160  2.8452  3.3987
  983MOL0     H35601   1.986   0.758   6.684 -0.5781  0.7938  0.1791
  983MOL0     H35602   1.825   0.715   6.624 -0.6198 -0.3250 -2.4929
  983MOL0     H35603   2.165   0.763   6.499  0.4027 -1.3902  0.4628
  983MOL0     H35604   2.299   0.658   6.247 -0.2667  0.9637  0.0475
  983MOL0     H35605   2.196   0.727   6.125  0.6981  1.1514  0.1676
  983MOL0     H35606   2.210   0.440   6.213  0.5904 -0.2013 -0.1475
  983MOL0     H35607   2.088   0.496   6.101 -0.0268 -0.6990 -0.1672
  983MOL0     H35608   2.264   0.563   5.955 -1.3483 -0.6607 -0.0467
  983MOL0     H35609   2.390   0.515   6.079 -0.2106  1.8357  0.3560
  983MOL0     H35610   2.187   0.337   5.951  0.0954 -1.8640  1.7380
  983MOL0     H35611   2.329   0.360   5.869 -1.8469 -0.1994  0.5683
  983MOL0     H35612   2.490   0.144   6.232 -1.9407  2.7714  0.0210
  983MOL0     H35613   2.669   0.056   6.350  1.2902  1.0749  2.0429
  983MOL0     H35614   2.768   0.186   6.397  0.5856  0.0197 -0.0912
  983MOL0     H35615   2.837   0.074   6.289 -0.5404 -0.8946  0.5366
  983MOL0     H35616   3.057   0.588   6.055 -0.6521 -1.4707 -1.4884
  983MOL0     H35617   3.295   0.693   6.086 -0.2304  0.5469  1.7010
  983MOL0     H35618   3.607   0.428   6.237 -0.6912  0.0200 -0.9097
  983MOL0     H35619   3.655   0.409   6.073  1.5100 -0.9926  0.6928
  983MOL0     H35620   3.721   0.664   6.231  0.7938 -0.0143 -1.2283
  983MOL0     H35621   3.797   0.521   6.256 -2.2738 -0.5485  1.6748
  983MOL0     H35622   3.795   0.677   5.989 -1.7806 -1.6436 -2.2774
  983MOL0     H35623   3.857   0.509   5.998  2.9731  0.9477 -0.1290
  983MOL0     H35624   4.021   0.566   6.161 -1.7420 -1.1585  1.0318
  983MOL0     H35625   3.951   0.733   6.167 -2.5386 -0.4985 -0.3459
  983MOL0     H35626   4.099   0.578   5.952  2.3836 -0.3158  1.8440
  983MOL0     H35627   4.024   0.736   5.914 -0.7868  2.2111  0.7927
  983MOL0     H35628   4.276   0.675   6.091  1.2246  1.6517 -0.4552
  983MOL0     H35629   4.179   0.823   6.089  1.5193  0.9849  0.6229
  983MOL0     H35630   4.250   0.874   5.869 -0.3303  0.4863  0.5110
  983MOL0     H35631   4.280   0.699   5.824 -0.4759  1.0215 -1.1354
  983MOL0     H35632   4.480   0.687   5.937  1.2907  0.3315 -0.4144
  983MOL0     H35633   4.448   0.835   6.029 -2.0825  2.9487 -0.4278
  983MOL0     H35634   3.458   0.296   6.086  0.3356 -0.3868 -1.0119
  983MOL0     H35635   3.234   0.204   6.058 -0.1720 -0.4699 -1.1382
  983MOL0     H35636   2.775   0.398   5.925 -1.0147  0.7445 -0.4567
  983MOL0     H35637   2.545   0.408   5.902  2.4761  0.0800 -0.9427
  983MOL0     H35638   1.051   1.041   7.255  2.1416  1.1920 -2.3650
  983MOL0     H35639   0.873   0.876   7.315 -0.7565  2.5434 -1.8132
  983MOL0     H35640   0.774   0.305   7.026  1.2823  2.5185  0.7139
  983MOL0     H35641   0.605   0.134   7.086 -1.1352 -0.2509  0.8854
  983MOL0     H35642   0.343   0.177   7.454  1.2388  0.2526  0.0479
  983MOL0     H35643   0.243   0.250   7.323  2.1900  3.4850  1.3555
  983MOL0     H35644   0.172   0.021   7.431 -0.3282 -1.7127  0.1249
  983MOL0     H35645   0.305  -0.055   7.333 -0.6014 -0.3387  2.1133
  983MOL0     H35646   0.082   0.105   7.235 -2.1492 -1.9858  0.5016
  983MOL0     H35647   0.221   0.038   7.128 -0.2651  1.6174  0.0676
  983MOL0     H35648   0.010  -0.111   7.290  0.0833 -3.8467  0.6353
  983MOL0     H35649   0.126  -0.199   7.184 -0.4423  0.1197 -1.4775
  983MOL0     H35650  -0.094  -0.082   6.869  0.4353 -0.9939 -0.9266
  983MOL0     H35651   0.411   0.401   7.354 -1.5837 -4.3419 -0.5723
  983MOL0     H35652   0.661   0.665   7.354  1.2778 -1.5061 -0.5862
  983MOL0     H35653   0.541   0.711   7.242  1.2622  2.6177  1.4726
  983MOL0     H35654   0.493   0.621   7.392  2.0491 -2.0117  0.3969
  984MOL0     O35655  10.659   5.537   3.961  0.3391 -0.1569  0.6865
  984MOL0     C35656  10.566   5.456   3.966  0.2700  0.4203  0.0045
  984MOL0     O35657  10.576   5.317   3.952  0.1459 -0.5275 -0.1984
  984MOL0     C35658  10.698   5.256   3.953 -1.2966  0.3364  0.5126
  984MOL0     C35659  10.773   5.237   3.833  0.2823 -0.2383  0.5725
  984MOL0     C35660  10.891   5.175   3.838 -0.0987  0.2251  0.1181
  984MOL0     C35661  10.947   5.119   3.960  0.0451  0.6565 -0.6636
  984MOL0     O35662  11.062   5.046   3.964 -0.3705 -0.1847  0.2915
  984MOL0     C35663  11.141   5.036   3.846  0.1202  0.2581 -0.4275
  984MOL0     C35664  11.263   4.943   3.877 -0.0071 -0.2261  0.5006
  984MOL0     C35665  11.397   4.981   3.813  0.6285 -0.3124 -0.6014
  984MOL0     C35666  11.483   5.087   3.890 -0.4751 -0.2630 -0.1105
  984MOL0     C35667  11.593   5.147   3.796  0.2165  0.2707  0.3137
  984MOL0     C35668  11.668   5.276   3.838  0.0935 -0.5455 -1.2795
  984MOL0     C35669  11.745   5.272   3.974 -0.6652  0.4425  0.6662
  984MOL0     C35670  11.854   5.160   3.968 -0.2773  0.1020 -0.1240
  984MOL0     N35671  11.964   5.181   3.876  0.2718  0.1042 -0.2031
  984MOL0     C35672  11.999   5.084   3.784 -0.5176 -0.6241  0.9108
  984MOL0     C35673  12.124   5.121   3.755 -0.7104 -0.7778 -0.2862
  984MOL0     C35674  12.208   5.051   3.640 -0.3958 -0.8205 -0.1126
  984MOL0     C35675  12.327   5.138   3.596  0.8141 -0.2587 -0.2347
  984MOL0     C35676  12.391   5.086   3.465  0.6015 -0.0303 -0.3053
  984MOL0     C35677  12.498   5.177   3.408 -0.4113  0.4500 -0.4953
  984MOL0     O35678  12.551   5.118   3.289  0.4479  0.4942 -0.2503
  984MOL0     C35679  12.673   5.168   3.245  0.1511  0.1909 -0.3764
  984MOL0     C35680  12.720   5.299   3.270 -0.0896  0.4754 -0.4505
  984MOL0     C35681  12.820   5.351   3.190  0.4451  1.1053 -0.1009
  984MOL0     C35682  12.888   5.477   3.236  0.3579  0.3895  0.6531
  984MOL0     C35683  12.878   5.279   3.084 -0.7872  0.1525 -0.4866
  984MOL0     C35684  13.007   5.310   3.015  0.5960 -0.2453 -0.1528
  984MOL0     O35685  13.112   5.216   3.020 -0.0701  0.3758  0.2647
  984MOL0     C35686  13.232   5.257   2.965  0.3020  0.0249 -0.2908
  984MOL0     C35687  13.274   5.217   2.839 -0.1177 -0.9854  0.3743
  984MOL0     C35688  13.409   5.243   2.795 -0.1889 -0.6210  0.3913
  984MOL0     C35689  13.502   5.301   2.882  0.4527  0.8574 -0.0877
  984MOL0     O35690  13.627   5.310   2.818 -0.1728 -0.6335 -0.6393
  984MOL0     C35691  13.729   5.393   2.867 -1.2639  0.9824 -0.4209
  984MOL0     C35692  13.858   5.355   2.790 -0.6719 -0.5500 -0.1848
  984MOL0     C35693  13.983   5.363   2.884 -0.7391  0.5697 -0.5369
  984MOL0     C35694  14.110   5.298   2.830  0.2262 -0.1837  0.2703
  984MOL0     C35695  14.212   5.299   2.937 -0.3361 -0.4304 -0.3863
  984MOL0     C35696  14.206   5.174   3.029 -0.0288  0.7221 -0.6624
  984MOL0     C35697  14.303   5.190   3.154  0.3568 -0.6669 -0.2147
  984MOL0     C35698  14.318   5.070   3.240 -0.5142  0.1030 -0.1762
  984MOL0    Cl35699  14.435   5.108   3.359  0.3422  0.3848  0.0207
  984MOL0     C35700  13.459   5.354   3.012 -0.0990  0.1900  0.1755
  984MOL0     C35701  13.323   5.327   3.043  0.2664 -0.0266  0.9214
  984MOL0     O35702  13.015   5.416   2.961 -0.1752 -0.5144 -0.3125
  984MOL0     C35703  12.828   5.147   3.065 -0.7745 -0.4256 -1.1206
  984MOL0     C35704  12.718   5.097   3.142 -0.2121  0.2265  0.6795
  984MOL0     N35705  12.163   5.232   3.835 -0.3537 -0.2832  0.1411
  984MOL0     N35706  12.062   5.267   3.902 -0.4271 -0.2798 -0.1475
  984MOL0     C35707  10.860   5.126   4.074 -0.6576  0.2300 -0.1183
  984MOL0     C35708  10.744   5.199   4.069  0.0003 -0.0619  0.6879
  984MOL0     C35709  10.424   5.507   3.963 -0.4236  0.3646 -0.4010
  984MOL0     C35710  10.319   5.416   3.942  0.0904  0.9325 -0.2290
  984MOL0     C35711  10.186   5.457   3.928  0.3221  0.1125  0.6658
  984MOL0     C35712  10.149   5.588   3.938  0.1960 -0.3256  0.7673
  984MOL0     O35713  10.016   5.603   3.909  0.0556 -0.4238  0.0346
  984MOL0     C35714   9.970   5.738   3.931  0.1999 -0.5248  0.1034
  984MOL0     C35715   9.818   5.753   3.909 -0.0982  0.5402  0.3388
  984MOL0     C35716   9.724   5.630   3.932 -0.5739  0.2001 -0.8649
  984MOL0     C35717   9.582   5.689   3.892  0.3691 -0.3778  0.5953
  984MOL0     C35718   9.488   5.575   3.906 -1.6101 -0.3547 -0.3866
  984MOL0     C35719   9.409   5.496   3.931 -0.7089  0.5939 -0.0674
  984MOL0     C35720  10.248   5.686   3.944 -0.1762  0.0829 -0.0824
  984MOL0     C35721  10.380   5.647   3.961 -0.3879 -0.0232  0.8691
  984MOL0     C35722  10.479   5.760   3.982  0.0038 -0.2889  0.0956
  984MOL0     H35723  10.731   5.270   3.739  2.2714  0.8036 -0.0105
  984MOL0     H35724  10.966   5.178   3.760  1.0579  1.9715  1.2468
  984MOL0     H35725  11.180   5.133   3.814  1.8680 -0.1327  0.3711
  984MOL0     H35726  11.080   4.993   3.766 -1.0405  1.7299 -0.3809
  984MOL0     H35727  11.274   4.947   3.986 -0.2897  0.0320  0.5209
  984MOL0     H35728  11.245   4.840   3.843  0.3653  0.6513 -2.7000
  984MOL0     H35729  11.462   4.894   3.806  4.8183  2.4041  1.0689
  984MOL0     H35730  11.362   5.007   3.712 -1.2208 -2.5615 -0.6266
  984MOL0     H35731  11.421   5.174   3.913  0.9011  1.1463 -1.4804
  984MOL0     H35732  11.530   5.035   3.974  0.7415 -0.8127 -1.1059
  984MOL0     H35733  11.538   5.164   3.702 -0.1517 -0.6682  0.3455
  984MOL0     H35734  11.667   5.072   3.767 -2.4540 -1.2364 -3.4716
  984MOL0     H35735  11.725   5.311   3.752 -0.1293 -0.1152 -1.2557
  984MOL0     H35736  11.590   5.352   3.848 -0.0206 -0.5993 -1.7511
  984MOL0     H35737  11.677   5.250   4.056 -0.5781 -2.7717  0.0082
  984MOL0     H35738  11.794   5.369   3.988  2.2563 -0.5396 -1.7521
  984MOL0     H35739  11.893   5.145   4.069 -3.6150 -0.9518  1.1520
  984MOL0     H35740  11.791   5.074   3.942 -1.0488  0.9596 -1.1710
  984MOL0     H35741  11.947   5.000   3.738 -1.1401 -0.4811  1.3422
  984MOL0     H35742  12.145   5.014   3.559  0.6374 -1.6732 -0.5550
  984MOL0     H35743  12.252   4.959   3.680  0.8604 -0.4056 -0.4822
  984MOL0     H35744  12.293   5.241   3.585 -1.1885 -0.4418  2.7239
  984MOL0     H35745  12.401   5.132   3.676  1.4937 -2.4001 -0.9477
  984MOL0     H35746  12.435   4.988   3.485 -1.5760 -0.5785  2.5568
  984MOL0     H35747  12.311   5.058   3.396 -0.1731 -1.7790  1.2011
  984MOL0     H35748  12.453   5.272   3.376 -1.0943  0.5849  0.7741
  984MOL0     H35749  12.567   5.210   3.486 -1.5953  0.6870  0.5024
  984MOL0     H35750  12.670   5.361   3.344 -0.5859  0.7452 -1.0094
  984MOL0     H35751  12.997   5.471   3.228  0.3727  1.1958  0.1860
  984MOL0     H35752  12.867   5.491   3.343  1.5949  0.7979  0.8555
  984MOL0     H35753  12.862   5.556   3.165  1.0662 -0.7767 -0.9727
  984MOL0     H35754  13.210   5.169   2.765 -1.6196  2.8611 -1.0548
  984MOL0     H35755  13.429   5.229   2.689 -1.9566  1.6731 -0.3251
  984MOL0     H35756  13.712   5.497   2.839 -1.2411  1.4427  1.1583
  984MOL0     H35757  13.737   5.389   2.976 -3.6038 -2.6543 -0.2060
  984MOL0     H35758  13.845   5.255   2.749 -1.5244 -0.8636  0.7807
  984MOL0     H35759  13.877   5.426   2.710  0.1247  1.1059  1.3860
  984MOL0     H35760  13.952   5.304   2.971  3.1053 -0.7047  0.1267
  984MOL0     H35761  13.997   5.465   2.921  1.8340  0.6913 -1.6364
  984MOL0     H35762  14.135   5.351   2.738  1.8723 -0.7147  0.3830
  984MOL0     H35763  14.083   5.198   2.797 -3.8200  1.4855 -2.3070
  984MOL0     H35764  14.312   5.291   2.894 -0.3144 -3.2673  0.0277
  984MOL0     H35765  14.214   5.391   2.995  0.4847  0.2029 -1.3802
  984MOL0     H35766  14.236   5.093   2.961 -0.8423  0.7348 -1.0507
  984MOL0     H35767  14.102   5.150   3.051 -0.3398  3.2845  0.9684
  984MOL0     H35768  14.277   5.278   3.213 -1.1954 -1.6741  0.6540
  984MOL0     H35769  14.402   5.212   3.114 -0.5235  2.4445 -0.9071
  984MOL0     H35770  14.353   4.983   3.184  0.1443 -0.6962  1.4040
  984MOL0     H35771  14.218   5.043   3.275 -0.2042 -0.9716 -0.0870
  984MOL0     H35772  13.519   5.415   3.078  0.4316  2.6048 -2.3781
  984MOL0     H35773  13.273   5.358   3.135 -0.3634  0.5686  0.3894
  984MOL0     H35774  12.883   5.085   2.995 -1.5655 -2.4064 -0.0761
  984MOL0     H35775  12.679   4.999   3.117 -0.2543 -0.0909  1.9063
  984MOL0     H35776  10.887   5.079   4.168 -0.8923 -1.1997 -0.7366
  984MOL0     H35777  10.679   5.208   4.156 -0.1271  2.4166  0.4238
  984MOL0     H35778  10.336   5.310   3.925  0.0759  0.7549  0.8193
  984MOL0     H35779  10.112   5.380   3.911  1.5817 -1.8487  3.3494
  984MOL0     H35780   9.994   5.782   4.029 -2.4251  2.3142 -0.3851
  984MOL0     H35781  10.011   5.795   3.847 -1.2711 -0.3864 -0.5477
  984MOL0     H35782   9.806   5.787   3.806 -0.9610  3.8295  1.3899
  984MOL0     H35783   9.785   5.844   3.961 -2.1820  1.3230 -2.1336
  984MOL0     H35784   9.761   5.553   3.863  1.0494  1.7466 -1.7981
  984MOL0     H35785   9.723   5.608   4.039 -1.3645  1.2839 -0.6297
  984MOL0     H35786   9.581   5.729   3.790 -0.4358 -2.3996 -0.2301
  984MOL0     H35787   9.546   5.764   3.963  1.3329 -0.7972  1.5394
  984MOL0     H35788   9.316   5.450   3.957  1.3471 -2.2647  3.2062
  984MOL0     H35789  10.219   5.790   3.947  1.7017  0.6465  0.0085
  984MOL0     H35790  10.533   5.757   4.077 -1.6077  1.6513  1.1524
  984MOL0     H35791  10.554   5.744   3.904 -2.0506 -0.8371 -1.8840
  984MOL0     H35792  10.439   5.862   3.982  1.6404  0.3829  0.0698
  985MOL0     O35793   8.768   8.826   0.042  0.7297 -0.1569  0.3489
  985MOL0     C35794   8.786   8.820   0.161  1.7550  0.2106  0.0273
  985MOL0     O35795   8.898   8.782   0.223 -0.3917 -0.4716 -0.3939
  985MOL0     C35796   9.003   8.723   0.155  0.6689  0.2690 -0.6929
  985MOL0     C35797   8.981   8.601   0.085 -0.5470  0.0428  1.0770
  985MOL0     C35798   9.098   8.548   0.021 -0.5886 -0.1041 -0.0235
  985MOL0     C35799   9.226   8.617   0.021 -0.0291  0.7447  0.2669
  985MOL0     O35800   9.338   8.594  -0.056  0.0753 -0.0831  0.1928
  985MOL0     C35801   9.342   8.461  -0.108  0.4971 -0.2897 -0.3548
  985MOL0     C35802   9.486   8.429  -0.140 -0.0395 -0.8836  0.4664
  985MOL0     C35803   9.567   8.391  -0.017 -0.3684  0.9363  0.1020
  985MOL0     C35804   9.717   8.420  -0.028 -0.8558 -0.6757 -0.0964
  985MOL0     C35805   9.795   8.373   0.099 -0.3700 -0.2449  0.1837
  985MOL0     C35806   9.948   8.376   0.073  0.4652  0.3494  0.2274
  985MOL0     C35807  10.023   8.339   0.193  0.3588  0.3732 -0.2419
  985MOL0     C35808  10.095   8.467   0.258  0.0412  0.2355 -0.1302
  985MOL0     N35809  10.156   8.429   0.383 -0.3570  0.9982  0.1841
  985MOL0     C35810  10.114   8.439   0.512  0.3772 -0.4589  0.4818
  985MOL0     C35811  10.204   8.359   0.575 -0.3489 -0.8798  0.4343
  985MOL0     C35812  10.199   8.334   0.720  0.2485 -0.5842 -0.5654
  985MOL0     C35813  10.310   8.269   0.783 -0.7191 -0.0840 -0.6341
  985MOL0     C35814  10.309   8.281   0.932  0.2544  0.2170 -0.4572
  985MOL0     C35815  10.190   8.227   1.006  0.9050 -0.1483 -0.2579
  985MOL0     O35816  10.161   8.086   0.983  0.5592  0.1765 -0.3315
  985MOL0     C35817  10.027   8.046   0.995 -0.6672  0.3029  0.1695
  985MOL0     C35818   9.932   8.087   1.094 -0.1898 -0.6418  0.0468
  985MOL0     C35819   9.794   8.046   1.083 -0.6207  0.2479  0.4923
  985MOL0     C35820   9.703   8.102   1.191  0.0414 -0.4263 -0.7092
  985MOL0     C35821   9.757   7.961   0.971  0.0213 -0.2739 -0.7358
  985MOL0     C35822   9.612   7.916   0.945 -0.4109 -0.3006 -0.3705
  985MOL0     O35823   9.598   7.816   0.855  0.8813 -0.0224  0.5102
  985MOL0     C35824   9.475   7.816   0.798  0.1188  0.0413 -0.5054
  985MOL0     C35825   9.454   7.890   0.680 -0.0864 -1.0279 -0.5151
  985MOL0     C35826   9.329   7.915   0.633  0.4793  0.3870 -0.5478
  985MOL0     C35827   9.224   7.849   0.682 -0.2001  0.5592 -0.2747
  985MOL0     O35828   9.090   7.871   0.646 -0.4791 -0.0420  1.1494
  985MOL0     C35829   9.067   7.901   0.510 -0.4554 -0.8997  0.1673
  985MOL0     C35830   8.931   7.853   0.461 -0.1381  0.2759  0.1152
  985MOL0     C35831   8.859   7.910   0.334 -0.2119 -0.9100  0.3752
  985MOL0     C35832   8.715   7.850   0.334 -0.0335  0.5178 -0.1606
  985MOL0     C35833   8.624   7.923   0.245  1.0372  0.2952 -0.4339
  985MOL0     C35834   8.649   7.909   0.092 -0.5095  0.2630 -0.5022
  985MOL0     C35835   8.577   8.019   0.013  0.2781 -0.9559  0.6254
  985MOL0     C35836   8.657   8.155   0.009  0.8414  0.7810 -0.2907
  985MOL0    Cl35837   8.613   8.252  -0.141  0.0154  0.0498  0.0017
  985MOL0     C35838   9.244   7.772   0.798  0.5017 -0.4470 -1.0828
  985MOL0     C35839   9.361   7.754   0.860 -0.8560 -0.7692 -0.3674
  985MOL0     O35840   9.522   7.975   1.001 -0.0073  0.3970 -0.5051
  985MOL0     C35841   9.853   7.923   0.886 -0.3186  0.7136  0.9670
  985MOL0     C35842   9.983   7.964   0.896  0.2252 -0.4278  1.6499
  985MOL0     N35843  10.292   8.300   0.491  0.1108 -0.1743  0.0391
  985MOL0     N35844  10.265   8.348   0.378  0.5076  0.2448  0.1692
  985MOL0     C35845   9.236   8.734   0.096 -0.5597 -0.1235  0.5515
  985MOL0     C35846   9.129   8.785   0.167 -0.3448  0.2140 -0.2499
  985MOL0     C35847   8.667   8.858   0.252  0.0836 -0.3500  0.0294
  985MOL0     C35848   8.692   8.883   0.391 -0.1282  0.3835 -0.4101
  985MOL0     C35849   8.586   8.899   0.485  1.0217  0.4231 -0.5406
  985MOL0     C35850   8.456   8.891   0.442 -0.5761 -0.0529 -0.7432
  985MOL0     O35851   8.366   8.914   0.545  0.5452  0.4958 -0.5089
  985MOL0     C35852   8.222   8.905   0.520 -0.3116 -0.4554  0.6358
  985MOL0     C35853   8.143   8.895   0.650  0.9217 -1.3454  0.9791
  985MOL0     C35854   8.133   8.752   0.706 -0.6025  0.2717 -0.6606
  985MOL0     C35855   8.079   8.752   0.840  0.4771 -0.2497 -0.3729
  985MOL0     C35856   8.093   8.615   0.894 -0.1517  0.5487  0.4604
  985MOL0     C35857   8.115   8.501   0.919 -0.1416  0.3504  0.7650
  985MOL0     C35858   8.431   8.874   0.308  0.0488  0.1989 -0.0870
  985MOL0     C35859   8.530   8.857   0.212 -0.7421 -0.2092  0.8902
  985MOL0     C35860   8.490   8.811   0.073  0.1909 -0.3016  0.6084
  985MOL0     H35861   8.883   8.553   0.087 -0.5812  0.1175  1.2038
  985MOL0     H35862   9.091   8.454  -0.033 -0.5996 -0.5347  0.7104
  985MOL0     H35863   9.283   8.452  -0.200 -0.1148 -3.1876  0.2026
  985MOL0     H35864   9.315   8.382  -0.038  0.9174 -0.8744 -0.8349
  985MOL0     H35865   9.496   8.346  -0.211  1.0230 -0.2026 -0.2084
  985MOL0     H35866   9.529   8.518  -0.188  1.7388 -1.1329  1.5272
  985MOL0     H35867   9.538   8.453   0.069  2.7365  2.0940  0.4216
  985MOL0     H35868   9.556   8.286   0.012 -0.1602  0.7567 -0.4624
  985MOL0     H35869   9.759   8.365  -0.113 -1.2265  2.0818 -2.1860
  985MOL0     H35870   9.736   8.528  -0.032 -0.3960 -0.7653 -0.4434
  985MOL0     H35871   9.763   8.271   0.123 -0.6761 -0.3053 -0.4531
  985MOL0     H35872   9.762   8.438   0.180 -0.6330 -0.7611  0.4984
  985MOL0     H35873   9.979   8.299   0.001  0.6601  0.1069  0.5706
  985MOL0     H35874   9.990   8.467   0.029  0.9123 -0.3940 -0.9185
  985MOL0     H35875  10.096   8.261   0.171 -1.1829 -1.1570 -0.0740
  985MOL0     H35876   9.958   8.290   0.266  1.3263 -0.3245  0.1676
  985MOL0     H35877  10.174   8.506   0.194 -0.4829  0.9375 -0.3620
  985MOL0     H35878  10.031   8.553   0.279  0.5202  0.8112 -0.9734
  985MOL0     H35879  10.028   8.487   0.557  1.0408  0.3084  0.9555
  985MOL0     H35880  10.109   8.272   0.733 -2.1307  1.7333 -4.1295
  985MOL0     H35881  10.187   8.435   0.763  0.4306 -0.5641 -0.5658
  985MOL0     H35882  10.309   8.163   0.758  2.1003  0.1792 -2.2789
  985MOL0     H35883  10.396   8.310   0.730 -1.8659 -2.2682 -4.5408
  985MOL0     H35884  10.402   8.228   0.956  0.3339  0.1895 -0.8214
  985MOL0     H35885  10.330   8.385   0.959 -0.7915  0.1313  0.7522
  985MOL0     H35886  10.200   8.252   1.112 -1.6877  0.7209 -0.1569
  985MOL0     H35887  10.105   8.289   0.977  0.3518  0.4522  2.3663
  985MOL0     H35888   9.972   8.150   1.172  3.1227  0.2769 -2.1480
  985MOL0     H35889   9.647   8.192   1.165 -1.2119 -0.1853  2.4346
  985MOL0     H35890   9.770   8.115   1.277 -0.8215 -0.6648  0.0080
  985MOL0     H35891   9.630   8.033   1.234  1.1820  0.3073  2.7009
  985MOL0     H35892   9.547   7.937   0.649  0.9913 -0.1575  3.5446
  985MOL0     H35893   9.326   7.998   0.563  0.2774  1.7296  0.9979
  985MOL0     H35894   9.055   8.010   0.509 -1.6253 -1.0188  0.1112
  985MOL0     H35895   9.144   7.861   0.444  1.3558 -0.4522  1.9175
  985MOL0     H35896   8.925   7.744   0.453  1.2308  0.2518 -1.1127
  985MOL0     H35897   8.865   7.884   0.542 -1.4121 -1.1830 -0.3137
  985MOL0     H35898   8.909   7.883   0.240  0.1191 -1.5271  0.7288
  985MOL0     H35899   8.860   8.019   0.340  1.3221 -0.6426 -2.7117
  985MOL0     H35900   8.676   7.852   0.437 -0.2969  0.7927 -0.2678
  985MOL0     H35901   8.718   7.746   0.300  0.0076  0.7416 -0.8453
  985MOL0     H35902   8.521   7.889   0.257  1.2935 -0.8273 -1.2170
  985MOL0     H35903   8.614   8.024   0.286  0.1296 -0.5557  1.6019
  985MOL0     H35904   8.612   7.810   0.066 -3.0398  0.8829  0.4778
  985MOL0     H35905   8.753   7.916   0.057 -0.2720  0.9293  0.2934
  985MOL0     H35906   8.471   8.035   0.035  0.4727 -0.4355  1.2308
  985MOL0     H35907   8.599   7.994  -0.091  3.1483  1.2981  0.5762
  985MOL0     H35908   8.762   8.130  -0.012  0.0751 -2.2347 -1.0353
  985MOL0     H35909   8.647   8.213   0.101  0.1597 -1.9109  1.4552
  985MOL0     H35910   9.155   7.713   0.821  1.6374 -2.4486 -1.5560
  985MOL0     H35911   9.367   7.699   0.954  0.3977  0.3637  0.2450
  985MOL0     H35912   9.835   7.833   0.827  0.8733  0.0096  1.6445
  985MOL0     H35913  10.058   7.929   0.825  0.1235  1.4991  0.5355
  985MOL0     H35914   9.333   8.782   0.099  0.6627 -2.2270 -1.5432
  985MOL0     H35915   9.132   8.879   0.223 -0.7235  1.0005 -1.5196
  985MOL0     H35916   8.792   8.888   0.434 -0.2285  1.8896 -0.3260
  985MOL0     H35917   8.616   8.925   0.586 -0.0021  2.1991 -0.6562
  985MOL0     H35918   8.182   8.991   0.465  0.0975 -0.4813  0.2890
  985MOL0     H35919   8.203   8.813   0.464 -1.2714 -1.3527  2.3763
  985MOL0     H35920   8.040   8.923   0.628  1.0020 -0.7695  1.3170
  985MOL0     H35921   8.174   8.963   0.730  2.4458 -0.3443 -0.4023
  985MOL0     H35922   8.063   8.696   0.643 -0.2199 -2.2277  1.0147
  985MOL0     H35923   8.230   8.703   0.693 -1.1194 -0.3672 -2.3426
  985MOL0     H35924   7.974   8.780   0.845  0.4870 -0.4441  1.9379
  985MOL0     H35925   8.127   8.811   0.919 -2.9596  0.5640  1.2854
  985MOL0     H35926   8.127   8.395   0.925 -3.9702 -0.1788  1.1487
  985MOL0     H35927   8.327   8.886   0.279 -0.0006  1.3699  0.4853
  985MOL0     H35928   8.385   8.780   0.066  0.1245  0.0332  0.0109
  985MOL0     H35929   8.496   8.897   0.005 -2.1557  1.0521  1.9756
  985MOL0     H35930   8.542   8.723   0.034  2.7924  0.5764  1.8686
  986MOL0     O35931   4.198   5.692  10.659 -0.4921 -0.3614  0.0901
  986MOL0     C35932   4.186   5.818  10.648 -0.9560  0.3571 -0.1903
  986MOL0     O35933   4.298   5.904  10.641  0.3488  0.0186  0.0402
  986MOL0     C35934   4.422   5.851  10.652  0.0424  0.1990 -0.9147
  986MOL0     C35935   4.505   5.886  10.550  0.1872  0.2183  0.6262
  986MOL0     C35936   4.642   5.853  10.551  0.0016  0.6873  1.0232
  986MOL0     C35937   4.694   5.774  10.652 -0.5260 -0.1582 -0.7756
  986MOL0     O35938   4.827   5.737  10.666  0.2468 -0.5977 -0.4271
  986MOL0     C35939   4.864   5.642  10.562 -0.8156  0.0006 -0.1276
  986MOL0     C35940   5.016   5.621  10.554  0.0788  0.1133  0.4927
  986MOL0     C35941   5.073   5.560  10.683 -0.5401  0.7113  0.4071
  986MOL0     C35942   5.224   5.524  10.670  0.1800 -0.3267 -0.3653
  986MOL0     C35943   5.291   5.512  10.816  0.6387 -0.8029  0.2349
  986MOL0     C35944   5.437   5.509  10.800 -0.9141 -0.4959 -0.2953
  986MOL0     C35945   5.511   5.489  10.933  0.2831  0.0108  0.8212
  986MOL0     C35946   5.656   5.496  10.885 -1.2484  0.7270 -1.0609
  986MOL0     N35947   5.737   5.500  11.017 -0.1753  0.3104 -0.4786
  986MOL0     C35948   5.717   5.586  11.126 -0.5585  0.9268  0.1395
  986MOL0     C35949   5.794   5.529  11.230  0.3339 -0.5847  0.0849
  986MOL0     C35950   5.803   5.584  11.367  0.3336  0.0303  0.2305
  986MOL0     C35951   5.944   5.615  11.427  0.1856 -0.4907  0.6217
  986MOL0     C35952   6.001   5.744  11.366  0.1065  0.2631 -1.2154
  986MOL0     C35953   6.156   5.752  11.380  0.0165 -0.6502  0.0587
  986MOL0     O35954   6.185   5.807  11.511  0.0506 -0.0328  0.2986
  986MOL0     C35955   6.316   5.828  11.540 -1.2004 -0.7879 -0.6284
  986MOL0     C35956   6.419   5.802  11.457  0.3002 -0.6922  0.0251
  986MOL0     C35957   6.560   5.812  11.490  0.6902 -0.7642 -0.3375
  986MOL0     C35958   6.663   5.772  11.390  0.3397 -0.0829  0.2118
  986MOL0     C35959   6.584   5.859  11.623  0.1568  0.5590 -1.5103
  986MOL0     C35960   6.717   5.865  11.687  0.2208  0.4646 -0.7535
  986MOL0     O35961   6.719   5.933  11.807  0.1085 -0.1750  0.5784
  986MOL0     C35962   6.839   5.952  11.871  1.0175 -0.3036 -0.6496
  986MOL0     C35963   6.865   6.082  11.912 -0.6043 -0.5703 -0.8288
  986MOL0     C35964   6.973   6.111  11.990  0.4290  0.5799  0.0958
  986MOL0     C35965   7.062   6.008  12.029 -0.7271  0.7671 -1.0144
  986MOL0     O35966   7.173   6.019  12.108  0.0704  0.3656 -0.4011
  986MOL0     C35967   7.186   6.141  12.183 -0.9592 -0.3972 -0.3759
  986MOL0     C35968   7.297   6.132  12.292 -0.2060  0.1134 -0.4513
  986MOL0     C35969   7.277   6.250  12.395  0.1975  0.1618 -0.2713
  986MOL0     C35970   7.290   6.388  12.337 -0.2353  0.4240  0.8758
  986MOL0     C35971   7.436   6.426  12.318 -0.0771 -0.4834 -0.4431
  986MOL0     C35972   7.455   6.567  12.238  0.1472  1.1615  0.3810
  986MOL0     C35973   7.402   6.690  12.312  0.4778  0.0293 -0.8591
  986MOL0     C35974   7.374   6.810  12.218 -0.3665 -0.0082 -0.0299
  986MOL0    Cl35975   7.518   6.859  12.124 -0.4112  0.3196 -0.2387
  986MOL0     C35976   7.041   5.879  11.977  0.0719  0.4808 -0.6223
  986MOL0     C35977   6.917   5.845  11.908 -0.2573 -0.3272 -0.7567
  986MOL0     O35978   6.809   5.819  11.624 -0.5202 -0.1629  0.4656
  986MOL0     C35979   6.477   5.901  11.710  0.1165  1.0947 -0.6910
  986MOL0     C35980   6.343   5.879  11.665 -0.1941  0.1961 -0.2937
  986MOL0     N35981   5.852   5.416  11.183  0.0816 -0.4814  0.9689
  986MOL0     N35982   5.823   5.402  11.055 -0.1951 -0.1958 -0.1294
  986MOL0     C35983   4.604   5.718  10.746  0.3501 -1.3059  0.2733
  986MOL0     C35984   4.467   5.749  10.744 -0.0171  0.4398 -0.2089
  986MOL0     C35985   4.047   5.888  10.632 -0.3620  0.2813 -0.8625
  986MOL0     C35986   4.048   6.036  10.633 -0.0626  0.4818 -0.1652
  986MOL0     C35987   3.930   6.100  10.612 -0.1444 -0.8383 -0.8730
  986MOL0     C35988   3.811   6.036  10.608  0.5496  0.3615 -0.2558
  986MOL0     O35989   3.694   6.101  10.584 -0.1716  0.1888 -0.4508
  986MOL0     C35990   3.664   6.243  10.608 -0.0195 -0.5950  0.0071
  986MOL0     C35991   3.520   6.277  10.586  0.1242  0.3435 -0.6477
  986MOL0     C35992   3.427   6.190  10.665  0.0758  0.5287  0.0267
  986MOL0     C35993   3.276   6.236  10.682 -0.9293 -0.0345 -0.4555
  986MOL0     C35994   3.275   6.356  10.771 -0.4344  1.4507 -0.6210
  986MOL0     C35995   3.263   6.432  10.853  0.1022  0.0685 -0.1643
  986MOL0     C35996   3.802   5.899  10.616 -0.6689  0.4376 -0.5303
  986MOL0     C35997   3.921   5.819  10.623 -0.0502 -0.2561  0.1108
  986MOL0     C35998   3.898   5.671  10.623 -0.1735 -0.4252  0.1216
  986MOL0     H35999   4.467   5.943  10.465  2.2777 -2.0293 -2.0028
  986MOL0     H36000   4.698   5.884  10.463  1.5047  1.7234  2.2980
  986MOL0     H36001   4.840   5.678  10.462 -1.7442 -0.3859 -0.0591
  986MOL0     H36002   4.813   5.546  10.577 -2.0052  0.6413  0.1211
  986MOL0     H36003   5.032   5.563  10.463 -1.5595  1.2187 -0.5593
  986MOL0     H36004   5.056   5.721  10.535 -4.4973  1.5131 -4.1817
  986MOL0     H36005   5.056   5.632  10.764  1.4033  1.6964  0.0082
  986MOL0     H36006   5.024   5.468  10.716  2.0586 -0.0995  2.3210
  986MOL0     H36007   5.232   5.438  10.602  3.1201  0.1000 -0.7159
  986MOL0     H36008   5.276   5.604  10.616  2.5783 -2.8200 -2.0113
  986MOL0     H36009   5.248   5.427  10.870 -0.8465 -1.8800 -2.4323
  986MOL0     H36010   5.267   5.604  10.871 -2.0354 -2.2851  1.7964
  986MOL0     H36011   5.460   5.429  10.729 -0.6663 -1.4203  0.7985
  986MOL0     H36012   5.473   5.602  10.756 -2.0668  1.2978  2.2795
  986MOL0     H36013   5.484   5.387  10.965  1.1158  0.0026  1.5529
  986MOL0     H36014   5.477   5.560  11.009 -1.7012 -0.8451  0.7993
  986MOL0     H36015   5.683   5.404  10.832  0.2842 -0.4579  1.5708
  986MOL0     H36016   5.672   5.584  10.822  1.0341 -0.5611 -2.4392
  986MOL0     H36017   5.651   5.671  11.137 -0.6727  0.7828  0.5959
  986MOL0     H36018   5.762   5.512  11.438  0.2651  1.7806  2.0490
  986MOL0     H36019   5.741   5.674  11.373 -0.6124 -0.6836  1.7051
  986MOL0     H36020   5.939   5.632  11.535 -1.6880  0.0545  0.4835
  986MOL0     H36021   6.012   5.534  11.401  0.0826 -0.4729  0.2878
  986MOL0     H36022   5.987   5.744  11.257 -1.3209 -0.4505 -1.0536
  986MOL0     H36023   5.952   5.829  11.415  3.1363  0.5923  1.5559
  986MOL0     H36024   6.196   5.652  11.367 -2.3254 -1.4935 -1.2502
  986MOL0     H36025   6.183   5.822  11.301  0.3708 -1.7016 -0.7662
  986MOL0     H36026   6.403   5.781  11.352 -2.0589  1.4113 -0.1264
  986MOL0     H36027   6.614   5.756  11.293  1.2961 -0.8948 -0.1591
  986MOL0     H36028   6.725   5.689  11.425  1.6492  1.6354  2.1733
  986MOL0     H36029   6.729   5.856  11.365 -1.2584  1.6458  1.5942
  986MOL0     H36030   6.811   6.164  11.866  1.1264 -0.5846 -3.0887
  986MOL0     H36031   6.994   6.214  12.017  3.6718 -0.3651  1.7129
  986MOL0     H36032   7.213   6.221  12.113 -1.1388  1.4294  1.5670
  986MOL0     H36033   7.095   6.174  12.233 -0.4371 -0.2216  0.4703
  986MOL0     H36034   7.293   6.034  12.339  1.5975  1.0448  1.7970
  986MOL0     H36035   7.387   6.150  12.233 -0.1473  1.4061 -0.0062
  986MOL0     H36036   7.353   6.246  12.474 -0.6458 -0.0563  0.5431
  986MOL0     H36037   7.177   6.245  12.438  0.6264  1.9500  1.0300
  986MOL0     H36038   7.253   6.452  12.418 -0.5786 -1.2195  2.0583
  986MOL0     H36039   7.227   6.403  12.249  1.3733 -0.2575 -0.4356
  986MOL0     H36040   7.479   6.423  12.419 -3.8753  1.4445  1.4523
  986MOL0     H36041   7.484   6.350  12.256  0.3099  1.0121 -2.0681
  986MOL0     H36042   7.393   6.552  12.149  0.0136 -2.2834  0.9123
  986MOL0     H36043   7.561   6.570  12.210 -0.2087  2.2835 -1.0022
  986MOL0     H36044   7.475   6.726  12.386  0.5862 -1.0947 -0.4088
  986MOL0     H36045   7.318   6.664  12.377  1.7473  0.5547  1.0812
  986MOL0     H36046   7.343   6.902  12.269  0.3307  0.1642  0.1007
  986MOL0     H36047   7.294   6.780  12.149 -1.1751 -1.0458  1.3235
  986MOL0     H36048   7.107   5.798  12.007 -0.3777 -0.1417 -1.2929
  986MOL0     H36049   6.896   5.741  11.883 -0.3230 -0.4276 -0.2896
  986MOL0     H36050   6.500   5.946  11.806  1.3446 -0.8769 -0.0021
  986MOL0     H36051   6.257   5.899  11.729  0.5921  0.4405  0.6986
  986MOL0     H36052   4.649   5.655  10.823  2.4684  0.3048  0.4496
  986MOL0     H36053   4.402   5.696  10.813 -1.2732  2.6771  0.4114
  986MOL0     H36054   4.138   6.097  10.635  0.1062  0.2270 -0.0722
  986MOL0     H36055   3.929   6.207  10.593  0.2081 -0.5088  0.7507
  986MOL0     H36056   3.699   6.281  10.704  0.2547  2.0726 -1.0696
  986MOL0     H36057   3.720   6.294  10.529 -1.8843  0.1209 -0.9108
  986MOL0     H36058   3.502   6.259  10.479  0.5348  0.3671 -0.7227
  986MOL0     H36059   3.510   6.383  10.611 -1.4682 -0.2211  1.3879
  986MOL0     H36060   3.418   6.089  10.624 -3.6155  0.6931  0.0895
  986MOL0     H36061   3.477   6.182  10.762  1.9728  0.1604 -0.9348
  986MOL0     H36062   3.217   6.156  10.726 -0.0159 -2.0222 -2.6395
  986MOL0     H36063   3.222   6.261  10.590 -0.7050 -2.8672 -1.4464
  986MOL0     H36064   3.255   6.511  10.925  1.5029  1.0072 -0.9937
  986MOL0     H36065   3.705   5.849  10.624  0.3156 -1.7577 -1.5396
  986MOL0     H36066   3.942   5.615  10.706  1.3909 -0.8818 -0.9707
  986MOL0     H36067   3.792   5.646  10.633 -0.1330 -1.7058 -2.0913
  986MOL0     H36068   3.928   5.630  10.526 -0.7575 -0.3311 -0.1041
  987MOL0     O36069   0.390  10.968   1.594 -0.0921  0.1567 -0.4733
  987MOL0     C36070   0.416  11.024   1.482 -0.3332 -0.3406 -0.0476
  987MOL0     O36071   0.526  10.980   1.402  0.8425  0.0537  0.0566
  987MOL0     C36072   0.556  10.848   1.412 -0.2762  0.7269 -0.2558
  987MOL0     C36073   0.497  10.759   1.315  0.2964 -0.2325 -1.0721
  987MOL0     C36074   0.513  10.621   1.338  0.4186  0.3558  0.1127
  987MOL0     C36075   0.595  10.572   1.440 -1.1169  0.5491 -0.6827
  987MOL0     O36076   0.611  10.439   1.472 -0.0453 -0.3295  0.3299
  987MOL0     C36077   0.628  10.351   1.365  0.8286  0.4965 -0.3707
  987MOL0     C36078   0.576  10.203   1.390  0.0347  0.7150 -0.1396
  987MOL0     C36079   0.570  10.119   1.264 -0.3108  0.1320  0.1305
  987MOL0     C36080   0.698  10.103   1.183  0.0433 -0.0276 -0.9497
  987MOL0     C36081   0.677  10.015   1.061  0.0946  0.5754 -0.6649
  987MOL0     C36082   0.590  10.073   0.953 -0.5072 -0.4408 -0.4358
  987MOL0     C36083   0.612  10.006   0.815  0.2023  0.1098  1.1063
  987MOL0     C36084   0.604   9.852   0.814 -0.0922  0.4519 -0.4711
  987MOL0     N36085   0.621   9.789   0.686 -0.3770  0.6199  0.0888
  987MOL0     C36086   0.524   9.775   0.588  0.8610 -0.2534 -0.1387
  987MOL0     C36087   0.587   9.730   0.482  0.2213  0.6525  0.2707
  987MOL0     C36088   0.511   9.699   0.349 -0.2955  0.2937 -0.2539
  987MOL0     C36089   0.540   9.806   0.253  0.9564 -0.8158  0.5824
  987MOL0     C36090   0.493   9.780   0.107 -1.0247 -0.3701 -0.2655
  987MOL0     C36091   0.525   9.902   0.020  0.8176  0.5646  0.1498
  987MOL0     O36092   0.449  10.021   0.042  0.7053  0.6181 -0.1946
  987MOL0     C36093   0.311  10.023  -0.007  0.9830 -0.2817  0.1994
  987MOL0     C36094   0.245  10.144  -0.008  1.0305 -0.8726 -0.4635
  987MOL0     C36095   0.114  10.162  -0.054  0.5551  0.4762  0.1450
  987MOL0     C36096   0.058  10.296  -0.051 -0.6832 -0.3465  0.1165
  987MOL0     C36097   0.051  10.050  -0.111  0.4592  0.8775 -0.4072
  987MOL0     C36098  -0.082  10.041  -0.178 -0.1912  0.4728 -0.0309
  987MOL0     O36099  -0.123   9.912  -0.204  0.4860  0.1745 -0.0453
  987MOL0     C36100  -0.257   9.879  -0.217 -0.4994  0.3571  0.5066
  987MOL0     C36101  -0.302   9.782  -0.302  0.1455  0.2336  1.0023
  987MOL0     C36102  -0.433   9.739  -0.303 -0.9035 -0.6953 -0.1468
  987MOL0     C36103  -0.534   9.786  -0.212 -0.4695 -0.7066  0.1110
  987MOL0     O36104  -0.657   9.739  -0.208 -0.3044  0.2910 -0.2901
  987MOL0     C36105  -0.715   9.715  -0.334  0.6141 -0.0207 -0.5636
  987MOL0     C36106  -0.865   9.711  -0.306  1.1619  0.8465  0.3697
  987MOL0     C36107  -0.943   9.708  -0.436 -0.4864  0.5039 -0.0437
  987MOL0     C36108  -1.096   9.685  -0.402 -0.2959  0.8323 -0.3344
  987MOL0     C36109  -1.170   9.689  -0.539 -0.2826  0.5329  0.3980
  987MOL0     C36110  -1.309   9.632  -0.527 -0.7213  0.1652 -0.2667
  987MOL0     C36111  -1.402   9.680  -0.637 -0.5969  0.2961  0.2301
  987MOL0     C36112  -1.538   9.614  -0.611  0.1815 -0.2827  0.6599
  987MOL0    Cl36113  -1.656   9.688  -0.720  0.1920 -0.0998  0.2434
  987MOL0     C36114  -0.490   9.883  -0.123  0.0022 -1.3784  0.2889
  987MOL0     C36115  -0.354   9.932  -0.129  0.0483  0.0996 -0.3692
  987MOL0     O36116  -0.143  10.147  -0.200 -0.8164  0.6270  0.7537
  987MOL0     C36117   0.114   9.929  -0.091 -0.5864 -0.0237  1.0505
  987MOL0     C36118   0.243   9.910  -0.054 -0.4282  0.3227 -0.0393
  987MOL0     N36119   0.726   9.721   0.511  0.6407  0.1141 -0.1444
  987MOL0     N36120   0.743   9.753   0.635  0.3248  0.4150 -0.0117
  987MOL0     C36121   0.667  10.663   1.517 -0.1442 -0.3978 -0.6914
  987MOL0     C36122   0.651  10.804   1.504  0.1531  0.0652  0.1572
  987MOL0     C36123   0.333  11.134   1.445  0.2099  0.0490  0.1274
  987MOL0     C36124   0.363  11.183   1.320 -0.1152 -0.4069  0.1545
  987MOL0     C36125   0.294  11.287   1.266  0.8053 -0.6713  0.5724
  987MOL0     C36126   0.183  11.343   1.327  0.1694  0.0600  0.5788
  987MOL0     O36127   0.118  11.448   1.261  0.2025  0.2801 -0.3613
  987MOL0     C36128   0.099  11.566   1.346  0.6444 -0.3777 -0.1747
  987MOL0     C36129   0.020  11.678   1.285 -0.4281 -0.2150 -0.3279
  987MOL0     C36130  -0.130  11.658   1.303 -0.4950 -0.0883  0.1759
  987MOL0     C36131  -0.192  11.523   1.263 -0.2321 -0.1298  0.1084
  987MOL0     C36132  -0.342  11.522   1.272  0.1690  0.0080 -0.0555
  987MOL0     C36133  -0.462  11.519   1.253 -0.5160 -0.9152  0.1606
  987MOL0     C36134   0.148  11.297   1.452 -0.5848 -0.2626 -0.3466
  987MOL0     C36135   0.225  11.198   1.518  0.0158  0.4424  0.1795
  987MOL0     C36136   0.186  11.158   1.663 -0.5944  0.3603 -0.0835
  987MOL0     H36137   0.435  10.789   1.232 -0.1053  0.1125 -0.6546
  987MOL0     H36138   0.471  10.550   1.269  0.6333  1.6269 -1.3671
  987MOL0     H36139   0.736  10.348   1.349  0.9791 -0.1000  0.6914
  987MOL0     H36140   0.576  10.382   1.274 -0.3257  2.6149  0.9563
  987MOL0     H36141   0.646  10.142   1.449 -2.0044 -2.9693 -1.2149
  987MOL0     H36142   0.480  10.198   1.443  1.1269  1.1600  2.0185
  987MOL0     H36143   0.531  10.018   1.283 -0.6727  0.3093  0.3342
  987MOL0     H36144   0.500  10.176   1.203  1.1424  1.1646 -0.6305
  987MOL0     H36145   0.731  10.205   1.162 -1.4826  1.2249  2.0819
  987MOL0     H36146   0.773  10.052   1.243 -2.5184 -1.4064  1.3152
  987MOL0     H36147   0.633   9.922   1.098 -0.3858  0.7469 -0.7912
  987MOL0     H36148   0.772   9.999   1.010 -0.4874  0.4157 -1.7110
  987MOL0     H36149   0.485  10.054   0.976 -0.7881 -1.3939 -2.2722
  987MOL0     H36150   0.603  10.181   0.939 -3.2291  0.3433  1.9892
  987MOL0     H36151   0.714  10.030   0.784 -0.2753  0.5426 -0.1797
  987MOL0     H36152   0.545  10.051   0.742 -0.6065 -1.6662  0.7054
  987MOL0     H36153   0.677   9.807   0.882  0.1920  1.5863 -0.0078
  987MOL0     H36154   0.504   9.824   0.849  0.1796 -0.6914 -0.5649
  987MOL0     H36155   0.418   9.797   0.587  1.2642  1.8664 -1.6778
  987MOL0     H36156   0.405   9.675   0.367 -0.7261 -0.0754 -2.8174
  987MOL0     H36157   0.560   9.611   0.307  0.9062  1.7392 -2.0263
  987MOL0     H36158   0.481   9.889   0.292 -1.3348 -3.2431  2.6613
  987MOL0     H36159   0.647   9.830   0.250  0.4428  1.6744 -1.2019
  987MOL0     H36160   0.547   9.694   0.066  2.6851 -0.2514  3.6134
  987MOL0     H36161   0.387   9.754   0.115 -0.5248 -1.9795  4.1319
  987MOL0     H36162   0.633   9.917   0.033  1.4878 -0.7354 -2.9497
  987MOL0     H36163   0.506   9.864  -0.081  0.5129 -1.2873  0.8606
  987MOL0     H36164   0.302  10.223   0.042  1.4584 -2.7029  2.1301
  987MOL0     H36165  -0.051  10.304  -0.049 -0.5487  2.1801  1.2503
  987MOL0     H36166   0.091  10.351  -0.139 -0.5178 -0.8346 -0.1276
  987MOL0     H36167   0.087  10.343   0.044 -1.0868  0.2585 -0.0490
  987MOL0     H36168  -0.231   9.741  -0.373  0.3055 -1.5550  2.1202
  987MOL0     H36169  -0.448   9.662  -0.378 -1.4569 -1.5910  0.8452
  987MOL0     H36170  -0.707   9.789  -0.413  1.7627 -1.4251 -1.8272
  987MOL0     H36171  -0.672   9.623  -0.374  2.3331  1.2310 -1.7244
  987MOL0     H36172  -0.886   9.623  -0.245 -2.8663  0.0725 -1.7852
  987MOL0     H36173  -0.906   9.795  -0.250  0.7270  0.3815  0.7553
  987MOL0     H36174  -0.907   9.624  -0.496  0.7787  0.7247  0.3773
  987MOL0     H36175  -0.927   9.803  -0.488 -0.4299  0.2923 -0.4150
  987MOL0     H36176  -1.130   9.757  -0.328  0.3614 -1.4964  2.4066
  987MOL0     H36177  -1.112   9.585  -0.361  0.1116  0.0089 -2.0699
  987MOL0     H36178  -1.158   9.788  -0.584 -0.0689 -0.2693 -1.4067
  987MOL0     H36179  -1.114   9.621  -0.604  0.3211  0.3437  1.1098
  987MOL0     H36180  -1.348   9.677  -0.435 -0.5517  1.4361 -0.7925
  987MOL0     H36181  -1.306   9.523  -0.526 -0.3480  0.1193 -2.3522
  987MOL0     H36182  -1.360   9.646  -0.732 -0.1536 -0.5645  0.7281
  987MOL0     H36183  -1.410   9.789  -0.649  0.8491  0.1523 -2.8221
  987MOL0     H36184  -1.554   9.628  -0.504  1.5021  3.1730  0.5424
  987MOL0     H36185  -1.531   9.508  -0.638 -1.1706 -0.2202 -0.0611
  987MOL0     H36186  -0.562   9.926  -0.054  2.6576 -0.7022  2.7951
  987MOL0     H36187  -0.323   9.999  -0.049  0.7119 -2.7833  1.9260
  987MOL0     H36188   0.077   9.831  -0.116  0.7625 -0.5133  0.8836
  987MOL0     H36189   0.295   9.814  -0.057  1.1155  1.1335 -1.3934
  987MOL0     H36190   0.742  10.628   1.588  2.2926  3.5223 -1.0209
  987MOL0     H36191   0.701  10.874   1.570  0.5921 -0.6594  0.6021
  987MOL0     H36192   0.446  11.139   1.265 -2.3714 -1.9227 -2.2954
  987MOL0     H36193   0.326  11.325   1.170 -0.6239 -3.6642 -1.2185
  987MOL0     H36194   0.048  11.543   1.440 -0.8521  0.1037 -0.8354
  987MOL0     H36195   0.198  11.603   1.373  0.5473  0.3318 -0.7751
  987MOL0     H36196   0.045  11.687   1.179  1.0120  1.2246  0.0875
  987MOL0     H36197   0.055  11.771   1.330 -1.9150  0.9750 -1.5206
  987MOL0     H36198  -0.164  11.666   1.407 -1.8019 -1.0646 -0.1349
  987MOL0     H36199  -0.173  11.743   1.249 -0.2185 -0.7973 -1.2264
  987MOL0     H36200  -0.152  11.442   1.325 -1.2445  0.6309  1.8065
  987MOL0     H36201  -0.168  11.516   1.156 -1.8940  0.4301 -0.3288
  987MOL0     H36202  -0.567  11.528   1.232 -0.5482  2.6119  1.2343
  987MOL0     H36203   0.063  11.336   1.507 -1.9249 -0.8041 -1.9391
  987MOL0     H36204   0.119  11.237   1.698 -1.0450  0.2599 -0.7123
  987MOL0     H36205   0.131  11.064   1.668 -4.0018  2.2544  4.0159
  987MOL0     H36206   0.275  11.162   1.726  0.8607  0.9666 -2.0646
  988MOL0     O36207   1.669   7.990   9.093  0.4938  0.3965  0.3910
  988MOL0     C36208   1.644   8.002   9.213  0.2051 -0.3949 -0.1664
  988MOL0     O36209   1.518   7.992   9.277  0.6308  0.3868  0.8444
  988MOL0     C36210   1.404   7.990   9.203  0.1067  0.7040 -0.1907
  988MOL0     C36211   1.296   7.904   9.233  0.5685  0.1212  0.1405
  988MOL0     C36212   1.163   7.924   9.168  0.5573 -0.5613  0.2640
  988MOL0     C36213   1.151   8.023   9.067 -0.6784 -1.0278 -0.6397
  988MOL0     O36214   1.034   8.048   8.999 -0.0189 -0.2047 -0.5629
  988MOL0     C36215   0.923   8.092   9.085  0.1992 -0.5551 -0.6580
  988MOL0     C36216   0.843   8.205   9.017 -0.2719 -0.6770  0.0524
  988MOL0     C36217   0.928   8.334   9.005 -0.6208 -1.0330  0.2167
  988MOL0     C36218   0.986   8.386   9.139  0.5100  0.0520 -0.4300
  988MOL0     C36219   1.040   8.533   9.116 -0.0523  0.1559 -0.2823
  988MOL0     C36220   1.096   8.601   9.245  0.7009  1.3085  0.0505
  988MOL0     C36221   1.157   8.738   9.220  0.3174 -0.2370 -0.1776
  988MOL0     C36222   1.300   8.706   9.157 -0.8252 -0.1141  0.1381
  988MOL0     N36223   1.395   8.823   9.149 -0.5438  0.1488  0.8955
  988MOL0     C36224   1.410   8.921   9.242 -0.1269 -0.1160  0.2496
  988MOL0     C36225   1.488   9.019   9.182  0.8897 -0.3531  0.2869
  988MOL0     C36226   1.521   9.149   9.246 -0.4360 -0.1723 -0.1395
  988MOL0     C36227   1.678   9.160   9.271  0.4549  0.6105 -0.0710
  988MOL0     C36228   1.719   9.280   9.354 -0.1658  0.2246  0.0199
  988MOL0     C36229   1.748   9.404   9.256  0.1506 -0.2980  0.0958
  988MOL0     O36230   1.863   9.382   9.168 -0.2421  0.1679  0.0879
  988MOL0     C36231   1.991   9.355   9.228 -0.0599 -0.0054  0.2096
  988MOL0     C36232   2.042   9.384   9.357 -0.1188 -0.1898 -0.0947
  988MOL0     C36233   2.176   9.375   9.392 -0.8838 -0.9305  0.8210
  988MOL0     C36234   2.216   9.440   9.528 -0.8651 -0.1620  0.7502
  988MOL0     C36235   2.270   9.343   9.289  0.1809 -0.0488 -1.0386
  988MOL0     C36236   2.413   9.344   9.311  0.4444 -0.0858  0.3865
  988MOL0     O36237   2.489   9.363   9.195  0.6788  0.0994  0.2382
  988MOL0     C36238   2.626   9.361   9.203  0.3117  0.3775 -0.2019
  988MOL0     C36239   2.701   9.485   9.204  0.4896 -0.2294 -0.6011
  988MOL0     C36240   2.837   9.475   9.211  0.1947  0.5280  0.7099
  988MOL0     C36241   2.908   9.350   9.200 -0.0922 -0.6648  0.0705
  988MOL0     O36242   3.041   9.371   9.186 -0.2046  0.8599  0.2079
  988MOL0     C36243   3.129   9.259   9.214  1.2855 -0.5182  0.0592
  988MOL0     C36244   3.153   9.163   9.096  0.1975  0.0521  0.4712
  988MOL0     C36245   3.235   9.036   9.146 -0.0858 -0.0737 -0.5356
  988MOL0     C36246   3.265   8.942   9.032 -0.0607  0.2220 -0.0719
  988MOL0     C36247   3.314   8.800   9.066  0.1469  1.1060 -0.7636
  988MOL0     C36248   3.325   8.695   8.953  0.2673  0.7395 -1.2913
  988MOL0     C36249   3.413   8.736   8.842 -0.0157  0.1693  0.4643
  988MOL0     C36250   3.447   8.613   8.763  0.2622 -0.0585  0.8498
  988MOL0    Cl36251   3.577   8.515   8.836  0.4741  0.3018 -0.1392
  988MOL0     C36252   2.844   9.231   9.203  0.0993  0.0379  0.8326
  988MOL0     C36253   2.699   9.236   9.203 -0.2114 -0.1017  1.1041
  988MOL0     O36254   2.464   9.323   9.419 -0.6977  0.1133 -0.1436
  988MOL0     C36255   2.221   9.306   9.168 -0.2783 -0.3518  0.0704
  988MOL0     C36256   2.090   9.310   9.132  0.9056 -0.4779  0.5071
  988MOL0     N36257   1.529   8.974   9.061  0.5317 -0.4748  0.1694
  988MOL0     N36258   1.475   8.857   9.043 -0.1756 -0.3218 -0.2451
  988MOL0     C36259   1.260   8.100   9.038 -0.2712 -0.9665  0.1177
  988MOL0     C36260   1.384   8.081   9.103 -0.0439 -0.7841  0.7956
  988MOL0     C36261   1.763   8.020   9.298  0.2485 -0.7780 -0.8046
  988MOL0     C36262   1.741   8.011   9.439 -0.1621  0.7806 -0.2375
  988MOL0     C36263   1.845   8.038   9.530  1.1359  0.5021 -0.2726
  988MOL0     C36264   1.973   8.062   9.488 -0.1137 -0.2722 -0.5446
  988MOL0     O36265   2.081   8.078   9.582 -0.8632  0.1445  0.2871
  988MOL0     C36266   2.209   8.035   9.542 -0.4035  0.3162 -0.1186
  988MOL0     C36267   2.306   8.053   9.661  0.1383  0.2809  0.7039
  988MOL0     C36268   2.281   7.928   9.752 -0.2696  0.0062  0.0731
  988MOL0     C36269   2.387   7.929   9.863  0.1771  0.5232  0.4311
  988MOL0     C36270   2.379   7.807   9.946 -0.1860  0.4192  0.1227
  988MOL0     C36271   2.362   7.708  10.001 -0.5866  0.2409  0.6623
  988MOL0     C36272   1.994   8.075   9.345 -0.1962 -0.1769 -0.3746
  988MOL0     C36273   1.893   8.059   9.249  0.2907  0.7318 -0.5076
  988MOL0     C36274   1.917   8.078   9.105 -0.0347  0.3648  0.6729
  988MOL0     H36275   1.301   7.840   9.320 -1.0940  1.2425  1.1234
  988MOL0     H36276   1.070   7.877   9.197 -0.4440 -0.4769 -2.5063
  988MOL0     H36277   0.949   8.134   9.183  1.7694  1.3743 -1.8378
  988MOL0     H36278   0.856   8.007   9.101 -2.8547  2.0079  1.4236
  988MOL0     H36279   0.822   8.172   8.915  3.2288 -0.8747 -0.7157
  988MOL0     H36280   0.747   8.215   9.069 -0.4198 -2.8185  0.2907
  988MOL0     H36281   1.018   8.307   8.949  1.2369  1.9750  1.5250
  988MOL0     H36282   0.871   8.409   8.949 -0.4909  0.3659  1.8907
  988MOL0     H36283   0.904   8.396   9.210 -1.1620  0.4601 -2.3324
  988MOL0     H36284   1.055   8.314   9.183 -0.9655 -1.0160  0.1996
  988MOL0     H36285   0.966   8.602   9.076 -0.2431 -0.2972 -0.7159
  988MOL0     H36286   1.098   8.520   9.025 -1.2714  1.5682 -1.3000
  988MOL0     H36287   1.006   8.606   9.307 -0.4638 -0.7855 -1.3481
  988MOL0     H36288   1.178   8.544   9.290  0.6331 -0.6047 -2.0302
  988MOL0     H36289   1.176   8.778   9.320 -0.9774 -3.0860  1.3142
  988MOL0     H36290   1.092   8.791   9.150  0.2529 -0.2440 -0.1227
  988MOL0     H36291   1.348   8.621   9.205 -1.8980 -0.4666  0.6277
  988MOL0     H36292   1.284   8.671   9.055 -1.4748  0.2558  0.1060
  988MOL0     H36293   1.376   8.925   9.345 -2.0763 -1.1538 -0.3055
  988MOL0     H36294   1.469   9.157   9.342 -0.8726  2.3145 -0.5239
  988MOL0     H36295   1.485   9.236   9.192 -0.3118 -0.1332 -0.1604
  988MOL0     H36296   1.711   9.063   9.310 -1.4541  0.7684  2.1543
  988MOL0     H36297   1.714   9.172   9.169 -0.1394 -1.8359 -0.6339
  988MOL0     H36298   1.641   9.303   9.427 -0.1158 -1.3746  0.6237
  988MOL0     H36299   1.809   9.253   9.410  0.0218 -1.1927 -0.9160
  988MOL0     H36300   1.663   9.411   9.188 -1.1977 -1.3528  1.5762
  988MOL0     H36301   1.752   9.495   9.316  1.1006  0.5175 -1.1631
  988MOL0     H36302   1.967   9.413   9.430 -2.1111 -0.3414 -1.9622
  988MOL0     H36303   2.121   9.472   9.571 -0.8864  3.2713 -1.4653
  988MOL0     H36304   2.278   9.527   9.507 -0.9284 -0.2719  0.0691
  988MOL0     H36305   2.266   9.370   9.596 -0.6608  0.7111  1.5194
  988MOL0     H36306   2.644   9.577   9.193  0.2132 -0.3457 -0.1649
  988MOL0     H36307   2.896   9.565   9.204  1.8852 -0.4985  1.1301
  988MOL0     H36308   3.223   9.304   9.247  1.6474 -1.9581  1.0777
  988MOL0     H36309   3.095   9.205   9.303  2.9881  0.8148  1.5940
  988MOL0     H36310   3.062   9.123   9.050  1.9393 -1.0065 -2.4070
  988MOL0     H36311   3.202   9.219   9.015  0.3837  0.2306  0.7067
  988MOL0     H36312   3.178   8.979   9.220  0.8360  0.9167  0.9908
  988MOL0     H36313   3.327   9.072   9.192 -0.7125  0.8396  0.0491
  988MOL0     H36314   3.346   8.991   8.977  0.6472  1.1880  1.7280
  988MOL0     H36315   3.172   8.931   8.976  0.7378 -1.6122 -1.1183
  988MOL0     H36316   3.415   8.817   9.105 -0.1121  0.7232  0.1107
  988MOL0     H36317   3.255   8.770   9.153 -2.0310  2.6791 -1.6181
  988MOL0     H36318   3.225   8.675   8.915  1.2026 -0.8144 -3.0988
  988MOL0     H36319   3.360   8.599   8.990  0.7030  1.0439 -0.8983
  988MOL0     H36320   3.495   8.803   8.870 -0.6371  1.9963 -1.7709
  988MOL0     H36321   3.343   8.796   8.783 -2.6161 -1.4547  1.7314
  988MOL0     H36322   3.488   8.654   8.670 -1.8886  2.9304  1.0383
  988MOL0     H36323   3.358   8.553   8.739 -0.9130  2.2838 -1.1052
  988MOL0     H36324   2.901   9.139   9.195 -0.4427 -0.1830 -1.1405
  988MOL0     H36325   2.631   9.153   9.185 -0.7595  0.5924 -0.2041
  988MOL0     H36326   2.289   9.281   9.087 -0.0558  0.2228  0.0745
  988MOL0     H36327   2.058   9.297   9.029  1.3609  1.6570  0.0675
  988MOL0     H36328   1.233   8.175   8.964  0.9374 -1.5182 -0.9174
  988MOL0     H36329   1.461   8.156   9.090  1.8449 -2.4459  1.7560
  988MOL0     H36330   1.644   7.989   9.482 -0.3572  1.4617 -0.3229
  988MOL0     H36331   1.821   8.020   9.635  1.7184 -3.6782 -0.6745
  988MOL0     H36332   2.199   7.935   9.498  1.2982  1.4921 -3.5551
  988MOL0     H36333   2.259   8.094   9.465 -0.1598 -0.4564 -0.5664
  988MOL0     H36334   2.281   8.143   9.717  0.9524  1.1905 -0.3570
  988MOL0     H36335   2.409   8.063   9.626 -0.3654 -1.1011 -1.3655
  988MOL0     H36336   2.174   7.925   9.775 -0.5674  1.9475 -0.8499
  988MOL0     H36337   2.308   7.840   9.692 -1.8456 -1.7959  1.8621
  988MOL0     H36338   2.382   8.021   9.921 -0.9647  1.2768 -0.7787
  988MOL0     H36339   2.482   7.925   9.809  0.8966  2.4144  1.4519
  988MOL0     H36340   2.328   7.623  10.056  0.4826 -0.8530 -0.2930
  988MOL0     H36341   2.083   8.093   9.285 -1.0210  0.7074 -1.3653
  988MOL0     H36342   1.846   8.137   9.046  0.6590 -0.1715 -0.7378
  988MOL0     H36343   2.017   8.120   9.091  0.4597  0.0136  2.7899
  988MOL0     H36344   1.914   7.979   9.060 -1.1405 -0.3349  2.2149
  989MOL0     O36345   0.852   6.676   2.781  0.6215 -0.4794  0.0130
  989MOL0     C36346   0.781   6.724   2.694 -0.4887 -0.7232 -0.3233
  989MOL0     O36347   0.825   6.819   2.615  0.1584 -0.1606  0.0690
  989MOL0     C36348   0.949   6.874   2.647  0.1484  1.0087  0.1798
  989MOL0     C36349   1.052   6.857   2.560  0.1723 -0.5567 -0.5406
  989MOL0     C36350   1.173   6.922   2.588  0.7575  0.5400  0.5417
  989MOL0     C36351   1.198   7.001   2.696  0.0417 -0.2479  0.1010
  989MOL0     O36352   1.330   7.032   2.725 -0.8525  0.2475  0.0946
  989MOL0     C36353   1.356   7.082   2.857 -1.1099 -0.1775 -0.0079
  989MOL0     C36354   1.502   7.051   2.881 -0.2120  0.9556  0.3007
  989MOL0     C36355   1.538   7.063   3.034 -0.0285 -0.2162  0.5095
  989MOL0     C36356   1.686   7.009   3.054 -0.0681 -0.2103  0.7353
  989MOL0     C36357   1.720   7.025   3.203  0.3094 -0.2676 -0.0174
  989MOL0     C36358   1.874   7.005   3.226  0.6107  0.4186 -0.4993
  989MOL0     C36359   1.964   7.110   3.163 -0.3739  0.3255  0.2090
  989MOL0     C36360   2.114   7.070   3.157  0.4517 -0.0241  0.5460
  989MOL0     N36361   2.178   7.033   3.284 -0.4346 -0.4353 -1.1141
  989MOL0     C36362   2.213   6.913   3.332 -0.0756  0.2524  0.3825
  989MOL0     C36363   2.287   6.936   3.440 -0.7194 -0.2590 -0.4634
  989MOL0     C36364   2.359   6.830   3.516  0.0524 -0.4675 -0.3723
  989MOL0     C36365   2.491   6.801   3.437 -0.8226  0.1846  0.5426
  989MOL0     C36366   2.615   6.789   3.524 -1.2622 -0.3147  0.4720
  989MOL0     C36367   2.729   6.708   3.466 -0.2722  0.0918 -0.1140
  989MOL0     O36368   2.709   6.570   3.500 -0.2883 -0.2258 -0.1450
  989MOL0     C36369   2.802   6.474   3.503 -0.2447  0.1868 -0.4450
  989MOL0     C36370   2.934   6.493   3.474 -0.0124 -0.0157 -0.7677
  989MOL0     C36371   3.029   6.390   3.487  0.5516  1.4017  0.7482
  989MOL0     C36372   3.182   6.419   3.478  0.7748 -0.5520  0.0481
  989MOL0     C36373   2.982   6.254   3.517  0.2059  0.1059 -0.4069
  989MOL0     C36374   3.072   6.134   3.540  0.0149 -0.1079  0.2779
  989MOL0     O36375   3.189   6.134   3.469  0.8782  0.0750  0.4578
  989MOL0     C36376   3.269   6.030   3.479  0.1220  0.1199 -0.9245
  989MOL0     C36377   3.369   6.028   3.575  0.0336 -0.3358  0.3209
  989MOL0     C36378   3.448   5.916   3.584 -0.1968  0.2526  0.5581
  989MOL0     C36379   3.452   5.821   3.485  0.5225 -0.6165 -0.9036
  989MOL0     O36380   3.553   5.728   3.471 -0.0235 -0.0470  0.1591
  989MOL0     C36381   3.571   5.651   3.346 -0.5785 -0.0393  0.1597
  989MOL0     C36382   3.696   5.566   3.354  0.2690 -0.4501 -0.7973
  989MOL0     C36383   3.818   5.652   3.390 -1.0107 -0.5010  0.0259
  989MOL0     C36384   3.972   5.603   3.387 -0.7121 -0.0580  0.1295
  989MOL0     C36385   4.080   5.718   3.410  0.7090 -0.4538  0.5207
  989MOL0     C36386   4.103   5.800   3.287 -0.1120 -0.1145  0.0720
  989MOL0     C36387   4.172   5.732   3.177 -0.0139 -0.2342  0.5890
  989MOL0     C36388   4.320   5.721   3.196 -0.1591 -0.5216 -0.8868
  989MOL0    Cl36389   4.399   5.680   3.035 -0.4038 -0.1887 -0.2655
  989MOL0     C36390   3.346   5.820   3.395 -0.9681  1.1961 -0.2609
  989MOL0     C36391   3.252   5.923   3.394 -0.7845  0.5301  1.0327
  989MOL0     O36392   3.036   6.041   3.620 -0.3492 -0.6435 -0.1245
  989MOL0     C36393   2.842   6.233   3.542  0.3658  0.0511  1.2198
  989MOL0     C36394   2.758   6.345   3.528 -0.0208 -0.2518 -0.9795
  989MOL0     N36395   2.292   7.072   3.464  0.3738 -0.3291 -0.1671
  989MOL0     N36396   2.233   7.127   3.366 -0.4212  0.0072  0.1049
  989MOL0     C36397   1.088   7.023   2.783 -0.3374 -0.4666  0.5629
  989MOL0     C36398   0.965   6.956   2.757 -0.6624  0.1121  0.8885
  989MOL0     C36399   0.643   6.683   2.675  0.3913 -0.4386  1.1438
  989MOL0     C36400   0.574   6.723   2.561  0.2327  0.1865  1.0086
  989MOL0     C36401   0.449   6.687   2.526  1.8953 -0.3070 -0.0249
  989MOL0     C36402   0.374   6.609   2.607  0.0923  0.4054  0.1342
  989MOL0     O36403   0.243   6.567   2.592  0.6387  0.2372  0.5479
  989MOL0     C36404   0.181   6.588   2.469 -0.6080  0.1850 -0.0058
  989MOL0     C36405   0.038   6.532   2.477 -0.2513 -0.8149  0.9356
  989MOL0     C36406  -0.042   6.601   2.585  0.1928 -1.1958 -0.0750
  989MOL0     C36407  -0.193   6.573   2.584  0.2908 -0.4113 -0.0152
  989MOL0     C36408  -0.219   6.430   2.586 -0.2518 -0.6092 -0.3263
  989MOL0     C36409  -0.238   6.311   2.583 -0.0968  0.3285  0.0864
  989MOL0     C36410   0.436   6.563   2.725 -0.0997 -0.3115  0.0673
  989MOL0     C36411   0.568   6.595   2.756  0.0426  0.0494 -0.0117
  989MOL0     C36412   0.614   6.541   2.888 -0.1322  0.3133 -0.3280
  989MOL0     H36413   1.037   6.794   2.473  2.0248  0.5696 -1.7416
  989MOL0     H36414   1.251   6.911   2.514  0.9197 -0.1077  0.7985
  989MOL0     H36415   1.310   7.033   2.943 -0.1121 -1.0568  0.0536
  989MOL0     H36416   1.360   7.191   2.863 -0.5733 -0.2708  3.2832
  989MOL0     H36417   1.530   6.949   2.851  1.8575  1.1235  1.4781
  989MOL0     H36418   1.568   7.109   2.815 -1.5930  0.0865 -1.9982
  989MOL0     H36419   1.536   7.169   3.059  0.9062  0.7881 -2.9814
  989MOL0     H36420   1.474   7.001   3.096 -1.4784 -1.4290 -2.0392
  989MOL0     H36421   1.692   6.902   3.034  1.3539 -0.5373  2.5696
  989MOL0     H36422   1.752   7.069   2.990  1.4921 -0.7958  1.7206
  989MOL0     H36423   1.666   6.946   3.255  2.7627 -1.6267  0.6611
  989MOL0     H36424   1.699   7.123   3.248  3.5347  0.2356  0.6488
  989MOL0     H36425   1.895   7.019   3.332  1.0465  0.8507 -0.6378
  989MOL0     H36426   1.903   6.903   3.198  1.0774 -0.8292  3.8304
  989MOL0     H36427   1.955   7.204   3.218  2.3188 -0.5692  2.4188
  989MOL0     H36428   1.933   7.130   3.060  0.6407  2.3119  0.2441
  989MOL0     H36429   2.122   6.983   3.092 -0.9218  1.8146 -2.2584
  989MOL0     H36430   2.169   7.150   3.107  0.2223  0.2443  0.7205
  989MOL0     H36431   2.183   6.818   3.289 -1.7525 -0.3791  2.7312
  989MOL0     H36432   2.293   6.743   3.522 -2.6023  1.4527 -0.1931
  989MOL0     H36433   2.370   6.853   3.623  0.6452 -0.3399 -0.4579
  989MOL0     H36434   2.484   6.710   3.377 -0.9553 -0.0983  0.9863
  989MOL0     H36435   2.517   6.879   3.364 -0.4554 -1.0079 -0.6261
  989MOL0     H36436   2.648   6.891   3.544 -1.4402  0.0389 -0.9246
  989MOL0     H36437   2.592   6.735   3.616 -2.2643  1.0195  1.0416
  989MOL0     H36438   2.742   6.729   3.359 -2.3631  0.8909 -0.2550
  989MOL0     H36439   2.822   6.743   3.511  0.1208 -1.7518  0.6039
  989MOL0     H36440   2.976   6.590   3.448  1.7456  0.0492  1.9368
  989MOL0     H36441   3.195   6.527   3.476 -1.4760 -0.2064  1.0272
  989MOL0     H36442   3.224   6.377   3.386 -1.8075 -3.0307 -0.1530
  989MOL0     H36443   3.236   6.380   3.564  1.4523  1.6302  0.6714
  989MOL0     H36444   3.391   6.123   3.621  0.0516  0.7654 -1.8221
  989MOL0     H36445   3.520   5.891   3.661  1.7786  0.2036 -1.2080
  989MOL0     H36446   3.488   5.583   3.328 -0.8346  0.4532 -0.5633
  989MOL0     H36447   3.577   5.724   3.265  1.4098  1.0908  1.2243
  989MOL0     H36448   3.689   5.488   3.431 -2.9386 -1.9234 -2.4205
  989MOL0     H36449   3.704   5.510   3.261 -0.9809 -0.7242 -0.7512
  989MOL0     H36450   3.809   5.683   3.494 -0.6934 -0.6990  0.1139
  989MOL0     H36451   3.817   5.742   3.328 -0.6196  0.7768  1.7978
  989MOL0     H36452   3.996   5.556   3.292 -4.3426 -0.5012 -0.7101
  989MOL0     H36453   3.982   5.520   3.457  3.5576  0.3393  0.2658
  989MOL0     H36454   4.034   5.777   3.490  0.5222  0.4108 -0.2024
  989MOL0     H36455   4.173   5.683   3.455  0.9083  0.7675  1.0927
  989MOL0     H36456   4.160   5.889   3.313 -1.5298  0.7489  0.3644
  989MOL0     H36457   4.008   5.844   3.255  1.5267  2.0153 -2.2783
  989MOL0     H36458   4.144   5.789   3.087 -3.1187  1.1198  2.2368
  989MOL0     H36459   4.144   5.628   3.157  2.3176 -0.7702 -0.1551
  989MOL0     H36460   4.360   5.652   3.271  0.3900  0.9638  0.2384
  989MOL0     H36461   4.362   5.818   3.226  2.2773 -1.9622  0.7382
  989MOL0     H36462   3.339   5.743   3.319 -0.7827  1.9249 -1.0202
  989MOL0     H36463   3.172   5.929   3.321 -1.6276 -2.0643  1.6398
  989MOL0     H36464   2.808   6.136   3.577  0.1660 -0.7185 -0.9700
  989MOL0     H36465   2.653   6.336   3.552 -0.1053  2.3413  0.0219
  989MOL0     H36466   1.083   7.098   2.861  0.3886  1.6614 -1.3449
  989MOL0     H36467   0.870   6.975   2.806 -2.8342 -1.7087 -2.2328
  989MOL0     H36468   0.647   6.771   2.496  0.5931  0.6596  1.7423
  989MOL0     H36469   0.409   6.735   2.437  0.9411  0.4182  0.7680
  989MOL0     H36470   0.166   6.691   2.435 -1.4687 -0.9917 -3.5408
  989MOL0     H36471   0.232   6.533   2.390  0.4200 -1.0620  1.4745
  989MOL0     H36472   0.035   6.423   2.476  0.9806 -0.8757 -1.3227
  989MOL0     H36473  -0.009   6.563   2.383  0.4513  0.4430  0.9677
  989MOL0     H36474  -0.013   6.572   2.687  1.9753  0.5578 -0.0335
  989MOL0     H36475  -0.020   6.708   2.585  1.0745 -1.3700 -0.0034
  989MOL0     H36476  -0.232   6.618   2.492  0.1791  0.5097  0.4706
  989MOL0     H36477  -0.239   6.617   2.672  1.7315 -0.7353  0.9466
  989MOL0     H36478  -0.269   6.209   2.594  2.6093 -0.5882 -0.2506
  989MOL0     H36479   0.388   6.483   2.781 -2.3747  0.4147 -0.7437
  989MOL0     H36480   0.681   6.614   2.935 -1.2648  2.4497 -1.8575
  989MOL0     H36481   0.537   6.520   2.962  1.0727 -0.2474  0.8219
  989MOL0     H36482   0.674   6.453   2.865  0.4029  0.3444  0.8668
  990MOL0     O36483  10.599   0.651   4.076 -0.4317 -0.4973  0.1065
  990MOL0     C36484  10.534   0.663   3.967 -0.2973 -0.1627 -0.1295
  990MOL0     O36485  10.600   0.715   3.851  0.6913  0.1991 -1.2340
  990MOL0     C36486  10.736   0.734   3.849 -0.5949 -0.1275 -0.3692
  990MOL0     C36487  10.839   0.659   3.915 -0.3594 -0.2543  0.7324
  990MOL0     C36488  10.969   0.672   3.870 -0.2763 -0.0769 -0.7512
  990MOL0     C36489  11.011   0.758   3.768  0.4905  0.0661  0.2999
  990MOL0     O36490  11.145   0.750   3.726  0.5945  0.5239 -0.3535
  990MOL0     C36491  11.173   0.842   3.630 -1.8303 -0.1628  0.6368
  990MOL0     C36492  11.323   0.811   3.611 -0.7245 -0.7580  0.3469
  990MOL0     C36493  11.365   0.890   3.487  0.1433 -0.5511 -0.4179
  990MOL0     C36494  11.507   0.848   3.448 -0.1527 -0.8209  0.5383
  990MOL0     C36495  11.522   0.874   3.296 -0.3684  0.4099  0.7222
  990MOL0     C36496  11.521   1.029   3.257 -0.6483  0.5533  0.1405
  990MOL0     C36497  11.605   1.117   3.350 -0.1411 -0.5532 -0.1785
  990MOL0     C36498  11.589   1.261   3.301  0.4863 -0.6082 -0.5664
  990MOL0     N36499  11.717   1.322   3.276 -0.4615  0.6691 -0.5935
  990MOL0     C36500  11.809   1.374   3.368 -0.1624 -0.0032 -0.1879
  990MOL0     C36501  11.916   1.422   3.293  0.4732 -0.2627 -0.4216
  990MOL0     C36502  12.034   1.496   3.359 -0.1437  0.1297 -0.6593
  990MOL0     C36503  12.020   1.641   3.348 -0.1532 -0.5093  0.0812
  990MOL0     C36504  12.153   1.728   3.360  0.8033 -0.0273  0.7194
  990MOL0     C36505  12.207   1.750   3.500 -0.0024  0.4415 -0.8168
  990MOL0     O36506  12.264   1.627   3.554  0.1128 -0.6207  0.1391
  990MOL0     C36507  12.403   1.609   3.558  1.5607  0.4919 -0.0358
  990MOL0     C36508  12.441   1.487   3.620 -0.6923 -0.2645 -0.4255
  990MOL0     C36509  12.571   1.460   3.653 -0.5550  0.0477  0.5929
  990MOL0     C36510  12.590   1.341   3.739  0.2027  0.2392  0.0040
  990MOL0     C36511  12.673   1.540   3.593 -0.5056  0.9291 -0.1735
  990MOL0     C36512  12.823   1.504   3.603  0.2480 -0.2580  0.2291
  990MOL0     O36513  12.908   1.560   3.509 -0.1142 -0.1986  0.5000
  990MOL0     C36514  13.043   1.533   3.523  0.3321 -0.4637 -0.0822
  990MOL0     C36515  13.107   1.588   3.635  0.5881  0.1126  1.1190
  990MOL0     C36516  13.242   1.571   3.653 -0.0380 -0.2162  0.5925
  990MOL0     C36517  13.316   1.487   3.561  0.2125 -0.4008 -0.1169
  990MOL0     O36518  13.447   1.477   3.553  0.0998  0.1276 -0.7541
  990MOL0     C36519  13.539   1.566   3.623  0.4293 -0.6537  0.4426
  990MOL0     C36520  13.683   1.509   3.613 -0.7840  0.3360  0.1477
  990MOL0     C36521  13.790   1.601   3.651 -0.6162  0.0419 -0.0461
  990MOL0     C36522  13.931   1.544   3.638 -0.0862  0.5683  0.3398
  990MOL0     C36523  14.041   1.650   3.658 -0.1351 -0.5815 -0.2922
  990MOL0     C36524  14.025   1.705   3.804  0.6704  0.2419  0.1063
  990MOL0     C36525  14.136   1.809   3.842 -0.4512  0.1400 -0.2865
  990MOL0     C36526  14.155   1.840   3.993  0.6204 -0.2242  0.0353
  990MOL0    Cl36527  14.006   1.917   4.042 -0.1395 -0.5589  0.3260
  990MOL0     C36528  13.245   1.425   3.459 -0.1251 -0.4201  0.6455
  990MOL0     C36529  13.113   1.441   3.440  0.4003 -0.0758  0.0769
  990MOL0     O36530  12.863   1.441   3.697 -0.0400 -0.0757  0.4754
  990MOL0     C36531  12.639   1.650   3.505  0.3290  0.1639  0.0641
  990MOL0     C36532  12.507   1.687   3.501  0.8499 -0.0812 -0.1548
  990MOL0     N36533  11.888   1.416   3.159  0.0880  0.2191  0.7104
  990MOL0     N36534  11.776   1.348   3.151 -0.0826 -0.1470 -0.0337
  990MOL0     C36535  10.912   0.841   3.719 -0.1258  0.7017 -0.7091
  990MOL0     C36536  10.779   0.824   3.749  0.3453  0.9342 -0.3392
  990MOL0     C36537  10.389   0.629   3.984 -0.7471 -0.3029 -0.5045
  990MOL0     C36538  10.361   0.513   4.054  0.6886  0.2409  0.0149
  990MOL0     C36539  10.233   0.463   4.052  0.6105  0.0879  0.1878
  990MOL0     C36540  10.129   0.534   3.990  0.1494  0.0149 -0.3564
  990MOL0     O36541   9.991   0.502   3.984 -0.2753 -0.0659  0.1523
  990MOL0     C36542   9.955   0.358   3.981  0.0985 -0.6898 -0.2474
  990MOL0     C36543   9.959   0.301   3.837 -0.7222 -0.9119 -0.1539
  990MOL0     C36544   9.876   0.397   3.748 -0.2123 -0.4205  0.4536
  990MOL0     C36545   9.851   0.350   3.608  0.1561  0.0305  0.1235
  990MOL0     C36546   9.764   0.238   3.591 -0.0038  0.4284 -0.4623
  990MOL0     C36547   9.709   0.136   3.577  0.4808  0.1069 -0.2404
  990MOL0     C36548  10.160   0.647   3.914  0.0440 -0.1602 -0.0659
  990MOL0     C36549  10.293   0.692   3.902  1.0427  0.0988 -0.3983
  990MOL0     C36550  10.318   0.813   3.814  0.6300 -1.2148 -0.1135
  990MOL0     H36551  10.825   0.591   3.998  0.3443 -2.1378 -0.6210
  990MOL0     H36552  11.051   0.616   3.914 -0.2586  2.6210  3.2501
  990MOL0     H36553  11.167   0.942   3.673  0.8114  0.3917 -0.1196
  990MOL0     H36554  11.117   0.832   3.537  0.2580 -0.6284 -0.6294
  990MOL0     H36555  11.376   0.832   3.705 -2.0924 -1.0032  1.2021
  990MOL0     H36556  11.327   0.703   3.595 -3.3999 -0.4522 -3.5125
  990MOL0     H36557  11.295   0.881   3.403  1.3601 -2.4720 -1.3181
  990MOL0     H36558  11.361   0.997   3.509  2.2249 -0.9360  2.5684
  990MOL0     H36559  11.576   0.900   3.515  1.5811 -1.3828 -0.7523
  990MOL0     H36560  11.520   0.740   3.460 -2.1714 -1.3753 -1.5587
  990MOL0     H36561  11.446   0.818   3.240  2.3313  0.4481 -3.3916
  990MOL0     H36562  11.620   0.840   3.262 -1.0203  0.1755 -1.0662
  990MOL0     H36563  11.547   1.036   3.151 -1.7571 -1.9328 -0.3760
  990MOL0     H36564  11.416   1.060   3.249 -1.7847 -3.2347 -3.5690
  990MOL0     H36565  11.710   1.085   3.350  0.7948  2.2195 -0.7594
  990MOL0     H36566  11.561   1.107   3.449  2.1581  1.8827  1.2120
  990MOL0     H36567  11.521   1.280   3.217  0.0487  0.5682  0.0371
  990MOL0     H36568  11.543   1.317   3.383  0.8708 -0.7841 -0.2247
  990MOL0     H36569  11.815   1.364   3.476 -0.4271  0.5789 -0.1114
  990MOL0     H36570  12.126   1.467   3.307 -0.0174  2.3385 -1.7563
  990MOL0     H36571  12.056   1.471   3.464  0.9208  1.5155 -0.5285
  990MOL0     H36572  11.983   1.658   3.246  0.5352 -0.3065 -0.1427
  990MOL0     H36573  11.942   1.679   3.413  0.2947 -1.2681  1.0870
  990MOL0     H36574  12.228   1.694   3.287 -0.1325  1.3956 -0.9996
  990MOL0     H36575  12.115   1.827   3.336  0.0006  0.1985  2.7226
  990MOL0     H36576  12.284   1.828   3.495 -0.6334  1.1388  0.0135
  990MOL0     H36577  12.128   1.784   3.568  0.6266 -2.6983  1.6796
  990MOL0     H36578  12.360   1.421   3.646 -1.4079  0.1779 -1.4679
  990MOL0     H36579  12.500   1.302   3.787  0.3265  0.8367  0.7324
  990MOL0     H36580  12.661   1.368   3.817  2.4027 -0.6279 -1.5778
  990MOL0     H36581  12.632   1.270   3.666  1.6649  0.1576  0.8859
  990MOL0     H36582  13.046   1.626   3.716  0.5779  0.3743  0.9898
  990MOL0     H36583  13.298   1.609   3.738  1.1916  2.4460 -1.2705
  990MOL0     H36584  13.529   1.670   3.590  0.8164 -0.2251  1.6161
  990MOL0     H36585  13.508   1.576   3.727 -1.0227 -1.6998  0.1242
  990MOL0     H36586  13.695   1.419   3.674 -1.6021 -0.3764 -0.7145
  990MOL0     H36587  13.705   1.473   3.512  0.9773 -0.5388  0.8054
  990MOL0     H36588  13.757   1.615   3.755 -0.3490 -0.9678  0.1846
  990MOL0     H36589  13.774   1.695   3.598 -1.7531  0.0934  0.3510
  990MOL0     H36590  13.942   1.509   3.534  2.5027  1.5443  0.2257
  990MOL0     H36591  13.943   1.454   3.699  0.6995 -0.1307 -0.8079
  990MOL0     H36592  14.137   1.604   3.636 -0.2219 -2.6461  2.9172
  990MOL0     H36593  14.027   1.738   3.595  2.4581 -0.1891 -0.4232
  990MOL0     H36594  14.035   1.620   3.871 -0.4852 -0.3116 -0.3907
  990MOL0     H36595  13.927   1.752   3.816  0.7246 -0.1863  2.7702
  990MOL0     H36596  14.120   1.903   3.789 -1.4362  0.4738  0.5714
  990MOL0     H36597  14.225   1.769   3.794 -0.4714  1.3549 -1.3985
  990MOL0     H36598  14.236   1.913   4.001  0.8119 -0.5549  1.2458
  990MOL0     H36599  14.172   1.748   4.048  2.4034  0.2424  0.3099
  990MOL0     H36600  13.296   1.365   3.385 -1.1492 -2.8126  1.7393
  990MOL0     H36601  13.058   1.393   3.359  0.3266  0.2094 -0.0432
  990MOL0     H36602  12.704   1.712   3.444 -0.4196  1.1347  0.2408
  990MOL0     H36603  12.480   1.776   3.445  2.5932  1.1737  0.9465
  990MOL0     H36604  10.939   0.910   3.639  0.3340  1.9267  0.4679
  990MOL0     H36605  10.703   0.892   3.712  1.2148  3.1073  1.6177
  990MOL0     H36606  10.432   0.444   4.098 -1.6087 -1.8305  0.7284
  990MOL0     H36607  10.219   0.371   4.109 -1.6399  0.4153  0.2669
  990MOL0     H36608  10.025   0.300   4.041 -0.0179  1.0490  1.6990
  990MOL0     H36609   9.850   0.350   4.011  0.3475  0.7281  1.1043
  990MOL0     H36610   9.921   0.198   3.841  0.6170 -1.4059  0.5111
  990MOL0     H36611  10.065   0.299   3.811 -0.6601  2.3224 -0.5687
  990MOL0     H36612   9.781   0.422   3.797 -1.3774 -0.7202 -1.5567
  990MOL0     H36613   9.934   0.490   3.742  1.9984 -1.4319  3.5246
  990MOL0     H36614   9.949   0.334   3.561 -0.1578 -3.1612  0.3413
  990MOL0     H36615   9.799   0.432   3.557 -2.0249 -0.9454  0.6791
  990MOL0     H36616   9.647   0.051   3.553  0.5480 -0.7088  2.2602
  990MOL0     H36617  10.077   0.700   3.866  0.6630  0.5518 -0.3690
  990MOL0     H36618  10.416   0.861   3.825  1.5447 -2.9926 -0.2143
  990MOL0     H36619  10.289   0.793   3.711 -1.2141  0.2444  0.0682
  990MOL0     H36620  10.239   0.883   3.845  0.5670 -1.2204 -0.2617
  991MOL0     O36621   8.893   6.843   0.384 -0.5161 -0.6229 -0.2253
  991MOL0     C36622   8.877   6.736   0.319 -0.0181 -0.2939 -0.4007
  991MOL0     O36623   8.923   6.701   0.205  0.0450  0.1309 -0.0188
  991MOL0     C36624   9.033   6.759   0.149  0.4504 -0.1970  0.3598
  991MOL0     C36625   9.046   6.719   0.014  0.4814  0.7247  0.1994
  991MOL0     C36626   9.149   6.770  -0.064 -0.7786  0.3312  0.0955
  991MOL0     C36627   9.239   6.862  -0.015 -0.6834 -0.0089  0.0127
  991MOL0     O36628   9.341   6.902  -0.094  0.4602 -0.2942 -0.4928
  991MOL0     C36629   9.468   6.878  -0.053 -0.4332  0.7374 -0.5061
  991MOL0     C36630   9.551   6.851  -0.183 -0.0568 -0.2818 -0.7632
  991MOL0     C36631   9.553   6.716  -0.248  0.1082 -0.0181  0.0402
  991MOL0     C36632   9.564   6.588  -0.158  0.5027  0.4547 -0.1160
  991MOL0     C36633   9.683   6.580  -0.056  0.6821 -0.3170  0.0108
  991MOL0     C36634   9.817   6.548  -0.125 -0.9184 -0.1757  0.3036
  991MOL0     C36635   9.927   6.529  -0.017  0.0893  0.2039 -0.1347
  991MOL0     C36636   9.953   6.658   0.057 -0.4092  0.8799 -0.0405
  991MOL0     N36637  10.067   6.646   0.150 -0.0562  0.4948  0.0078
  991MOL0     C36638  10.196   6.640   0.107  0.3338  0.8213 -0.0596
  991MOL0     C36639  10.265   6.648   0.222  0.6056  0.5245  0.2420
  991MOL0     C36640  10.416   6.641   0.223  0.2026 -0.6485  0.3019
  991MOL0     C36641  10.484   6.771   0.170 -0.0077  0.1888  0.6241
  991MOL0     C36642  10.638   6.763   0.193 -0.2790 -0.2140 -0.2284
  991MOL0     C36643  10.681   6.761   0.346  0.2257 -0.6946  0.0351
  991MOL0     O36644  10.816   6.798   0.365 -0.9112 -0.1641  0.9016
  991MOL0     C36645  10.865   6.784   0.493 -0.9041 -0.0522  0.5079
  991MOL0     C36646  10.794   6.733   0.600 -0.4112  0.2048  0.0023
  991MOL0     C36647  10.845   6.747   0.731 -0.6818  0.5473 -0.6247
  991MOL0     C36648  10.765   6.672   0.837  0.6218 -0.2585 -0.0375
  991MOL0     C36649  10.969   6.817   0.759  0.5121  0.3565  0.9067
  991MOL0     C36650  11.020   6.841   0.894  0.4625  0.2452  0.6884
  991MOL0     O36651  11.081   6.956   0.920 -0.2878 -0.6431  1.0227
  991MOL0     C36652  11.083   7.014   1.045 -0.3872  0.6804 -0.3498
  991MOL0     C36653  10.975   7.006   1.137  0.7115 -0.3076  0.0491
  991MOL0     C36654  10.959   7.093   1.245  0.3942  1.0690  0.6786
  991MOL0     C36655  11.057   7.189   1.273  0.1470  0.6446 -0.5264
  991MOL0     O36656  11.037   7.278   1.380 -0.6339  0.2489  0.3346
  991MOL0     C36657  10.923   7.263   1.474  0.3987 -0.4616 -0.0867
  991MOL0     C36658  10.940   7.346   1.596 -0.2276  0.2851  0.3479
  991MOL0     C36659  10.819   7.343   1.682 -0.2009 -0.0739 -0.2124
  991MOL0     C36660  10.723   7.461   1.658 -0.0406  0.0877 -0.5625
  991MOL0     C36661  10.596   7.449   1.742 -0.7185  0.5144  0.3330
  991MOL0     C36662  10.490   7.372   1.660  0.1924 -0.0347  0.4495
  991MOL0     C36663  10.354   7.376   1.733 -0.2691 -0.1630 -0.1595
  991MOL0     C36664  10.249   7.290   1.670 -0.0869  0.3929 -0.7405
  991MOL0    Cl36665  10.284   7.124   1.715 -0.3655 -0.2658  0.3197
  991MOL0     C36666  11.165   7.191   1.190 -0.8279  0.1662 -0.1559
  991MOL0     C36667  11.184   7.109   1.077  0.6604 -0.0285  0.4507
  991MOL0     O36668  11.015   6.747   0.969 -0.3899 -0.2161 -0.4520
  991MOL0     C36669  11.034   6.866   0.641 -0.7418  0.6022  0.4067
  991MOL0     C36670  10.994   6.843   0.511  0.1156 -0.9493  0.6985
  991MOL0     N36671  10.185   6.653   0.331  0.1794 -0.0370  0.1323
  991MOL0     N36672  10.059   6.647   0.286  0.1973  0.1354 -0.1406
  991MOL0     C36673   9.230   6.899   0.122  0.8691  0.2262 -0.4862
  991MOL0     C36674   9.129   6.844   0.208  0.9538  0.4355  0.0836
  991MOL0     C36675   8.762   6.662   0.367 -0.1076 -0.9995  0.1668
  991MOL0     C36676   8.633   6.710   0.326  0.6130  0.3490  0.0201
  991MOL0     C36677   8.521   6.654   0.372  0.0571  1.2413  0.5072
  991MOL0     C36678   8.530   6.542   0.457  0.1898  1.0691  0.5380
  991MOL0     O36679   8.417   6.475   0.513  0.5720  0.0924  0.2145
  991MOL0     C36680   8.292   6.508   0.456  0.1530  0.2437 -0.7071
  991MOL0     C36681   8.193   6.421   0.520 -0.1522 -0.4118  0.5627
  991MOL0     C36682   8.199   6.274   0.481  0.3551  0.4553  1.0399
  991MOL0     C36683   8.104   6.184   0.558 -0.7997  0.3055  0.4016
  991MOL0     C36684   8.092   6.050   0.507  0.3921 -0.0643  0.1533
  991MOL0     C36685   8.082   5.941   0.455  0.3731  0.7533  0.7077
  991MOL0     C36686   8.655   6.492   0.502 -0.0841 -0.5194 -0.1240
  991MOL0     C36687   8.775   6.547   0.452  0.2922 -0.8529  0.0541
  991MOL0     C36688   8.913   6.501   0.504  0.3391  0.1143 -0.3233
  991MOL0     H36689   8.972   6.658  -0.037  1.3485 -0.0908 -0.1135
  991MOL0     H36690   9.156   6.724  -0.162  0.6409  0.3774  0.1567
  991MOL0     H36691   9.463   6.788   0.010 -0.6980 -0.4169 -2.0937
  991MOL0     H36692   9.516   6.967  -0.012  0.5403 -0.0900  0.1934
  991MOL0     H36693   9.531   6.929  -0.258 -2.3801  1.2170  1.2569
  991MOL0     H36694   9.652   6.873  -0.149  0.1430  0.2670 -1.6845
  991MOL0     H36695   9.470   6.700  -0.317 -0.3333  2.2828 -0.0398
  991MOL0     H36696   9.644   6.713  -0.309  1.0228  0.2771  1.3397
  991MOL0     H36697   9.471   6.573  -0.101  0.7428  0.0090  0.1654
  991MOL0     H36698   9.575   6.507  -0.231  0.7276  0.8135 -0.4813
  991MOL0     H36699   9.657   6.497   0.010 -0.2604 -0.6126 -0.7195
  991MOL0     H36700   9.688   6.681  -0.013 -0.0983  1.7115 -4.1399
  991MOL0     H36701   9.814   6.455  -0.182  0.2859  1.0625 -1.9138
  991MOL0     H36702   9.842   6.630  -0.194 -0.7662  0.5741  1.2222
  991MOL0     H36703  10.015   6.500  -0.075 -0.1910 -0.3265 -0.2950
  991MOL0     H36704   9.897   6.446   0.047  2.0683 -0.3967  0.0804
  991MOL0     H36705   9.971   6.730  -0.023  0.1235  1.6945  0.7841
  991MOL0     H36706   9.868   6.695   0.115 -1.8602 -1.8560 -0.2447
  991MOL0     H36707  10.243   6.630   0.010  3.3896  1.8411  1.1870
  991MOL0     H36708  10.457   6.567   0.154 -0.3108 -1.9612  1.3394
  991MOL0     H36709  10.450   6.607   0.321  2.3522 -2.9329 -1.1009
  991MOL0     H36710  10.462   6.779   0.063  1.2357 -0.2882  0.3142
  991MOL0     H36711  10.436   6.862   0.206 -0.4438  0.4770 -0.6206
  991MOL0     H36712  10.675   6.673   0.143  2.2997  0.8952 -0.4773
  991MOL0     H36713  10.690   6.851   0.152 -1.1472  2.3493  3.6568
  991MOL0     H36714  10.619   6.833   0.399  0.3610 -1.2020  0.9093
  991MOL0     H36715  10.651   6.665   0.390 -1.9954 -2.0707 -3.9625
  991MOL0     H36716  10.695   6.690   0.596 -1.4740  2.4919 -0.3486
  991MOL0     H36717  10.741   6.748   0.913  1.4371  1.3166 -1.2993
  991MOL0     H36718  10.829   6.599   0.887  1.5955  0.0520 -0.8073
  991MOL0     H36719  10.673   6.633   0.793  0.2108  0.7566 -0.1142
  991MOL0     H36720  10.892   6.941   1.113  0.4681  0.4672 -1.3092
  991MOL0     H36721  10.869   7.080   1.305 -0.1732  4.0484  0.6017
  991MOL0     H36722  10.841   7.309   1.418  3.1943  0.7406 -3.5997
  991MOL0     H36723  10.898   7.166   1.519 -0.7502  0.1817  0.7202
  991MOL0     H36724  11.023   7.307   1.656 -0.5348 -1.3356 -0.2137
  991MOL0     H36725  10.960   7.448   1.563 -0.8698 -0.0933 -1.2747
  991MOL0     H36726  10.839   7.345   1.790  1.5901  0.9839 -0.5430
  991MOL0     H36727  10.764   7.248   1.672  1.3233 -1.0886  0.6990
  991MOL0     H36728  10.703   7.466   1.551 -0.8551 -2.1788 -0.5673
  991MOL0     H36729  10.767   7.556   1.690 -0.6600  0.2867 -0.2806
  991MOL0     H36730  10.620   7.402   1.838  0.8453  0.6721  0.0471
  991MOL0     H36731  10.556   7.549   1.759 -0.8455  0.8996 -1.8923
  991MOL0     H36732  10.533   7.272   1.653  0.3020  0.1165 -2.1277
  991MOL0     H36733  10.470   7.418   1.563  0.7785  0.0182  0.3514
  991MOL0     H36734  10.327   7.481   1.747 -1.3579 -0.3634 -0.7013
  991MOL0     H36735  10.364   7.332   1.832 -1.2193  0.4666  0.2275
  991MOL0     H36736  10.243   7.303   1.561 -0.1599  2.4933 -0.5205
  991MOL0     H36737  10.152   7.313   1.715 -0.6370 -2.7328 -0.1061
  991MOL0     H36738  11.235   7.272   1.210 -0.5435 -0.2477  0.5741
  991MOL0     H36739  11.251   7.137   0.996 -2.3315  0.4071 -2.0818
  991MOL0     H36740  11.134   6.898   0.665  0.7508 -4.7391  2.9288
  991MOL0     H36741  11.041   6.882   0.421 -0.4400  0.7033  1.0951
  991MOL0     H36742   9.302   6.970   0.162 -1.4530  2.2651  0.3087
  991MOL0     H36743   9.133   6.870   0.313 -2.0861 -2.8918  1.2004
  991MOL0     H36744   8.626   6.796   0.259 -3.3985  1.7162  1.8432
  991MOL0     H36745   8.422   6.693   0.351  0.5823  1.5578 -1.6673
  991MOL0     H36746   8.274   6.611   0.487  2.5313  0.7034 -0.6987
  991MOL0     H36747   8.293   6.493   0.348  0.0161 -0.7702 -0.5786
  991MOL0     H36748   8.097   6.463   0.487 -0.1260  0.1191  1.1430
  991MOL0     H36749   8.212   6.433   0.627 -0.3968 -1.1470  0.6919
  991MOL0     H36750   8.178   6.252   0.376 -0.9212 -0.6424  1.4805
  991MOL0     H36751   8.302   6.238   0.482 -0.0658 -1.0720 -1.4611
  991MOL0     H36752   8.005   6.231   0.549 -0.6914  0.6823  1.0685
  991MOL0     H36753   8.146   6.186   0.659  0.7025 -0.7249 -0.1665
  991MOL0     H36754   8.078   5.838   0.428  2.1000  1.1366 -1.2134
  991MOL0     H36755   8.660   6.411   0.573 -4.8947 -0.9587  0.0652
  991MOL0     H36756   8.899   6.405   0.554 -0.8910 -0.3100 -1.4254
  991MOL0     H36757   8.989   6.499   0.425 -0.4741  0.7728 -1.1458
  991MOL0     H36758   8.962   6.562   0.580  2.1997 -1.6065 -0.0444
  992MOL0     O36759   8.077   4.283   3.362 -0.6212 -0.0629  0.7003
  992MOL0     C36760   7.965   4.286   3.317  0.1624 -0.1278 -0.9524
  992MOL0     O36761   7.932   4.247   3.192 -0.4250  0.4444  0.4549
  992MOL0     C36762   8.028   4.193   3.103  0.0637  0.0383 -0.4025
  992MOL0     C36763   7.990   4.074   3.042  0.4048 -0.3404  0.9026
  992MOL0     C36764   8.079   4.007   2.961 -0.7150  0.5795  0.1054
  992MOL0     C36765   8.203   4.059   2.927 -0.3515  0.0757  0.0699
  992MOL0     O36766   8.297   3.981   2.856 -0.0130 -1.3699 -0.2760
  992MOL0     C36767   8.433   4.037   2.842  0.1121  0.0609 -0.2171
  992MOL0     C36768   8.517   3.945   2.758 -0.5388 -0.3683  0.1662
  992MOL0     C36769   8.596   3.832   2.826 -0.2377  0.2767  0.6305
  992MOL0     C36770   8.685   3.754   2.729  0.0459 -0.6131  0.5590
  992MOL0     C36771   8.743   3.628   2.783 -0.4548  0.7111 -0.6751
  992MOL0     C36772   8.647   3.524   2.834 -0.1056 -0.5698 -0.4806
  992MOL0     C36773   8.724   3.413   2.904 -1.1799  0.2334  0.3114
  992MOL0     C36774   8.632   3.291   2.922 -0.5550 -0.3849  0.4580
  992MOL0     N36775   8.691   3.193   3.014  0.6145 -0.4002 -0.8557
  992MOL0     C36776   8.820   3.147   3.008 -0.1889 -0.1789 -0.6162
  992MOL0     C36777   8.823   3.051   3.106  0.3666  0.6930  0.2371
  992MOL0     C36778   8.948   2.989   3.158 -0.2820  0.8381 -0.2967
  992MOL0     C36779   8.988   3.050   3.285 -0.3204  0.2271  0.7311
  992MOL0     C36780   9.054   3.192   3.262 -0.0808  0.4270 -0.1833
  992MOL0     C36781   9.174   3.193   3.173  0.4292 -0.1279 -0.1014
  992MOL0     O36782   9.277   3.107   3.213 -0.1327 -0.3453  0.2811
  992MOL0     C36783   9.400   3.163   3.214  0.5384 -0.5156 -1.0239
  992MOL0     C36784   9.453   3.241   3.110 -0.6246  0.3953  0.0786
  992MOL0     C36785   9.584   3.285   3.107  0.5006  0.2211 -0.1907
  992MOL0     C36786   9.629   3.338   2.975 -0.0536 -0.7370 -0.7420
  992MOL0     C36787   9.659   3.280   3.222 -0.0978  0.0954  0.3357
  992MOL0     C36788   9.801   3.323   3.230 -0.3442  0.2843  0.6129
  992MOL0     O36789   9.871   3.280   3.349  0.3586  0.1836  0.0015
  992MOL0     C36790  10.004   3.318   3.369 -1.1678 -0.3473 -1.1003
  992MOL0     C36791  10.034   3.455   3.386  1.1720 -1.0407  0.2132
  992MOL0     C36792  10.169   3.492   3.377 -0.1436  0.0247 -0.4179
  992MOL0     C36793  10.274   3.398   3.353  0.0065 -0.4420 -1.2176
  992MOL0     O36794  10.407   3.432   3.359 -0.3895  0.1843  0.6337
  992MOL0     C36795  10.454   3.546   3.439  0.6549 -0.1910  0.0536
  992MOL0     C36796  10.609   3.547   3.419 -0.4262  0.4535  0.7297
  992MOL0     C36797  10.643   3.593   3.277  0.2926  0.0437  0.1459
  992MOL0     C36798  10.788   3.615   3.245 -0.2104  0.4159 -0.1253
  992MOL0     C36799  10.818   3.758   3.285  0.2775 -0.9669 -0.1414
  992MOL0     C36800  10.961   3.790   3.323 -0.9563 -0.5198  0.5744
  992MOL0     C36801  11.066   3.748   3.212 -0.7759 -0.2018 -0.4293
  992MOL0     C36802  11.206   3.778   3.271  0.1958  0.2628  0.0527
  992MOL0    Cl36803  11.266   3.664   3.397 -0.2623 -0.3971 -0.5205
  992MOL0     C36804  10.237   3.262   3.336  0.3794 -0.7798 -0.6562
  992MOL0     C36805  10.106   3.223   3.344  0.2827  0.2914  0.0826
  992MOL0     O36806   9.842   3.410   3.146  0.0178  0.0410  0.2961
  992MOL0     C36807   9.615   3.202   3.331  1.1460  0.0658  0.5078
  992MOL0     C36808   9.485   3.149   3.329 -1.2168 -0.2789 -0.4905
  992MOL0     N36809   8.700   3.054   3.175  0.5844 -0.2302 -0.0470
  992MOL0     N36810   8.619   3.135   3.116  0.3047 -0.1867 -0.0420
  992MOL0     C36811   8.239   4.187   2.972 -0.1687  0.0176 -0.5628
  992MOL0     C36812   8.154   4.245   3.067 -0.0742 -0.5397  0.1847
  992MOL0     C36813   7.862   4.328   3.414  0.1571 -0.2085 -0.1379
  992MOL0     C36814   7.750   4.250   3.427 -0.6131  0.2474 -0.5539
  992MOL0     C36815   7.660   4.276   3.528  0.7267 -0.1971 -0.6578
  992MOL0     C36816   7.678   4.384   3.615  0.9012  0.3790  0.3735
  992MOL0     O36817   7.589   4.386   3.719  0.5809  0.3199 -0.1351
  992MOL0     C36818   7.512   4.510   3.739  0.7468  0.4147 -0.3141
  992MOL0     C36819   7.380   4.477   3.812  0.5342 -0.4039 -0.5396
  992MOL0     C36820   7.285   4.594   3.840  0.3832 -0.2971 -0.4128
  992MOL0     C36821   7.181   4.559   3.948 -0.8973  0.4321 -0.4566
  992MOL0     C36822   7.105   4.438   3.917 -0.4834 -0.4938 -0.8101
  992MOL0     C36823   7.037   4.342   3.896  0.2896  0.8812  0.1223
  992MOL0     C36824   7.783   4.469   3.604 -0.0625 -0.0346  0.7588
  992MOL0     C36825   7.880   4.437   3.503 -0.0055  0.7454  0.1926
  992MOL0     C36826   8.003   4.531   3.511 -0.4633 -0.7547  0.5031
  992MOL0     H36827   7.897   4.028   3.073 -0.2257 -0.2660 -0.7993
  992MOL0     H36828   8.051   3.910   2.922 -0.5005 -0.3360  2.0975
  992MOL0     H36829   8.469   4.042   2.945  1.0290 -1.3089 -0.4354
  992MOL0     H36830   8.437   4.135   2.795  2.3030  0.5140  0.7632
  992MOL0     H36831   8.460   3.902   2.675  0.9366 -0.8731 -0.6229
  992MOL0     H36832   8.589   4.013   2.710 -1.4687  0.9926  0.6353
  992MOL0     H36833   8.657   3.876   2.905  0.7639  1.7288 -0.8866
  992MOL0     H36834   8.520   3.773   2.878 -1.1738  1.5650  0.7878
  992MOL0     H36835   8.613   3.735   2.649 -0.1800  0.8859  0.3695
  992MOL0     H36836   8.765   3.823   2.699 -1.8008  0.5814 -1.9930
  992MOL0     H36837   8.803   3.666   2.866 -0.4709  1.5028 -1.0105
  992MOL0     H36838   8.805   3.583   2.705 -1.2120  0.0729 -0.9184
  992MOL0     H36839   8.578   3.568   2.907  1.3245  3.0712 -1.1033
  992MOL0     H36840   8.584   3.494   2.749  0.1194 -0.2487 -0.7645
  992MOL0     H36841   8.768   3.450   2.997 -0.8805 -0.3205  0.3935
  992MOL0     H36842   8.810   3.386   2.843 -0.0918 -0.1595  1.9608
  992MOL0     H36843   8.538   3.328   2.965 -0.7694 -0.8910  0.4239
  992MOL0     H36844   8.612   3.239   2.829  2.5859 -1.7021  0.3757
  992MOL0     H36845   8.899   3.169   2.937 -0.2025 -0.1872 -0.6340
  992MOL0     H36846   9.026   2.975   3.083  0.2083  0.1698  0.3294
  992MOL0     H36847   8.919   2.886   3.180 -0.4255  0.8041 -0.6354
  992MOL0     H36848   8.905   3.059   3.356 -0.6435 -5.1640  1.4485
  992MOL0     H36849   9.064   2.982   3.324  1.1660  1.4069  0.0161
  992MOL0     H36850   8.976   3.253   3.217 -0.2115  1.0016  0.8009
  992MOL0     H36851   9.076   3.224   3.364  1.1757 -1.1373  0.0806
  992MOL0     H36852   9.153   3.155   3.073 -0.9433 -0.8267  0.4227
  992MOL0     H36853   9.200   3.299   3.176  0.2419 -0.0853  0.0666
  992MOL0     H36854   9.396   3.264   3.020 -0.2263  1.4197  0.0851
  992MOL0     H36855   9.635   3.448   2.978  2.5505 -0.8452  0.1090
  992MOL0     H36856   9.552   3.310   2.903 -0.5525 -1.0376 -0.0958
  992MOL0     H36857   9.729   3.300   2.953  1.2823  0.3541  2.7629
  992MOL0     H36858   9.953   3.526   3.402 -0.6292 -3.2647  1.6550
  992MOL0     H36859  10.191   3.597   3.392  3.7054 -0.7855  0.5893
  992MOL0     H36860  10.413   3.643   3.408  2.1407  0.8074  1.0628
  992MOL0     H36861  10.421   3.523   3.540 -0.9362 -4.7387 -1.2969
  992MOL0     H36862  10.649   3.618   3.492  2.3557  0.0823 -0.3522
  992MOL0     H36863  10.657   3.450   3.428  1.7129  1.4262  0.2839
  992MOL0     H36864  10.582   3.677   3.241  1.8546 -0.5356 -4.4514
  992MOL0     H36865  10.605   3.508   3.219 -1.4858 -0.3126  1.7181
  992MOL0     H36866  10.828   3.605   3.144 -0.3643 -1.4191 -0.0332
  992MOL0     H36867  10.845   3.546   3.307  0.0277 -0.3556 -1.1717
  992MOL0     H36868  10.794   3.814   3.193 -2.6398 -2.6204 -0.5248
  992MOL0     H36869  10.752   3.802   3.360 -3.4457 -1.2920 -2.9081
  992MOL0     H36870  10.975   3.723   3.408  0.1415 -1.9640 -0.6899
  992MOL0     H36871  10.979   3.896   3.346  1.2592 -0.1686 -2.2371
  992MOL0     H36872  11.033   3.798   3.120 -0.8250 -3.2623 -2.2242
  992MOL0     H36873  11.064   3.641   3.187  2.9590 -0.6557  0.6455
  992MOL0     H36874  11.219   3.878   3.314  2.0019  0.0421  0.1221
  992MOL0     H36875  11.271   3.775   3.183 -0.0957 -0.8254 -0.1380
  992MOL0     H36876  10.320   3.193   3.319  0.7676 -0.5476  0.2249
  992MOL0     H36877  10.084   3.117   3.338 -1.9158  0.5507  2.2710
  992MOL0     H36878   9.678   3.184   3.418 -1.4818 -1.9212  2.1357
  992MOL0     H36879   9.453   3.093   3.416  0.5004  1.8424  1.6492
  992MOL0     H36880   8.338   4.230   2.958  0.6386 -0.9556  1.6293
  992MOL0     H36881   8.183   4.337   3.117 -1.9563  0.2911 -0.1923
  992MOL0     H36882   7.737   4.159   3.370  0.3198 -1.2313  1.4614
  992MOL0     H36883   7.575   4.212   3.550  0.5624 -0.0305 -0.8088
  992MOL0     H36884   7.577   4.583   3.788 -0.2830  1.7468 -0.8903
  992MOL0     H36885   7.496   4.554   3.640  1.0662  0.1524 -0.4868
  992MOL0     H36886   7.411   4.437   3.909  0.3878 -1.5382 -0.9406
  992MOL0     H36887   7.331   4.400   3.752 -0.1607 -1.0583  0.8087
  992MOL0     H36888   7.343   4.683   3.867  0.9273 -0.6420 -0.4191
  992MOL0     H36889   7.236   4.615   3.745 -2.4388  0.3081  1.0886
  992MOL0     H36890   7.112   4.642   3.964 -2.6647 -0.7307 -1.6787
  992MOL0     H36891   7.229   4.545   4.045  2.6365  1.3381 -1.9136
  992MOL0     H36892   6.975   4.254   3.893 -0.4867  1.3268  1.8183
  992MOL0     H36893   7.810   4.539   3.683  2.4434 -1.4850  1.2902
  992MOL0     H36894   7.996   4.606   3.432  0.7720 -0.4960  0.6195
  992MOL0     H36895   8.015   4.577   3.609 -0.9321 -2.1224  1.2281
  992MOL0     H36896   8.096   4.478   3.490 -0.4294  0.4043 -2.8338
  993MOL0     O36897   5.441   3.097   1.234 -0.3866  0.2279  0.2585
  993MOL0     C36898   5.534   3.179   1.237  0.2531  0.9433  0.1723
  993MOL0     O36899   5.660   3.156   1.270  0.1102 -0.1943 -0.3029
  993MOL0     C36900   5.703   3.026   1.298 -0.4170 -0.6374  0.7107
  993MOL0     C36901   5.636   2.936   1.375 -0.4691 -0.0248 -0.3144
  993MOL0     C36902   5.681   2.806   1.385  0.5454  0.1963 -0.9611
  993MOL0     C36903   5.802   2.773   1.325 -0.7498  1.0668  0.0541
  993MOL0     O36904   5.845   2.645   1.350  0.6886 -0.6149  0.2778
  993MOL0     C36905   5.978   2.604   1.307 -0.4061 -0.6910  0.1921
  993MOL0     C36906   6.016   2.469   1.360 -0.1713 -0.1239 -0.2080
  993MOL0     C36907   6.160   2.451   1.321  0.3028  0.9626  0.7746
  993MOL0     C36908   6.210   2.303   1.311  0.3745 -0.0909  0.1769
  993MOL0     C36909   6.359   2.275   1.276  0.0141  0.6509 -0.6824
  993MOL0     C36910   6.442   2.351   1.377  0.2270 -0.4385  0.2051
  993MOL0     C36911   6.596   2.323   1.373  1.1717  0.2851  0.0942
  993MOL0     C36912   6.628   2.175   1.401  0.7286 -0.4099  0.1888
  993MOL0     N36913   6.769   2.138   1.377  0.2767 -0.6809 -0.6476
  993MOL0     C36914   6.825   2.065   1.273  1.4715  1.6093 -0.7166
  993MOL0     C36915   6.951   2.035   1.323 -0.4052  0.0868  0.2761
  993MOL0     C36916   7.046   1.945   1.238  0.7976  0.8110  0.3425
  993MOL0     C36917   7.155   1.884   1.314  0.2704  0.0665  0.0603
  993MOL0     C36918   7.235   1.787   1.232  0.6695 -0.4882  0.3167
  993MOL0     C36919   7.327   1.699   1.320  0.8477  0.8330  0.4049
  993MOL0     O36920   7.451   1.767   1.352 -0.2654 -1.1484 -0.6905
  993MOL0     C36921   7.541   1.710   1.442  1.0674 -0.2539 -0.4866
  993MOL0     C36922   7.544   1.574   1.474  0.7283 -0.4004 -1.9895
  993MOL0     C36923   7.655   1.522   1.546 -0.3509  0.7176 -0.8561
  993MOL0     C36924   7.632   1.381   1.588 -0.0042  0.4239  0.0638
  993MOL0     C36925   7.760   1.603   1.595 -0.0473 -0.7878 -0.5571
  993MOL0     C36926   7.871   1.556   1.679  0.1370 -1.5302  0.9080
  993MOL0     O36927   7.907   1.431   1.655 -0.3711 -0.1478 -0.1548
  993MOL0     C36928   8.010   1.394   1.737  0.5030 -0.1166  0.2924
  993MOL0     C36929   7.968   1.345   1.865 -0.1973 -0.6960  0.7681
  993MOL0     C36930   8.064   1.309   1.959  0.1392  0.6828  0.3784
  993MOL0     C36931   8.201   1.317   1.928 -0.0268  0.3387 -0.4459
  993MOL0     O36932   8.291   1.284   2.023  0.4072  0.3569 -0.9024
  993MOL0     C36933   8.422   1.260   1.978 -0.5055  0.5669 -0.2247
  993MOL0     C36934   8.499   1.207   2.091  0.3876 -0.5806 -0.9960
  993MOL0     C36935   8.458   1.058   2.125  0.6216 -1.0309 -0.8978
  993MOL0     C36936   8.551   0.995   2.240  0.4538  0.3536  0.0196
  993MOL0     C36937   8.500   0.855   2.281  0.3830  0.3658  0.0022
  993MOL0     C36938   8.585   0.781   2.386 -0.2826  0.4970 -0.3025
  993MOL0     C36939   8.734   0.773   2.354  0.1631 -0.2146 -0.5939
  993MOL0     C36940   8.809   0.719   2.474  0.4378 -0.3494 -0.0966
  993MOL0    Cl36941   8.980   0.680   2.447 -0.0407 -0.0990  0.3993
  993MOL0     C36942   8.245   1.358   1.798  0.0470 -0.4639 -0.6629
  993MOL0     C36943   8.147   1.393   1.704  1.2399 -0.9476 -0.2817
  993MOL0     O36944   7.940   1.644   1.732 -0.0034 -0.8717  0.4387
  993MOL0     C36945   7.746   1.739   1.572 -0.0422  0.4699 -0.9079
  993MOL0     C36946   7.641   1.788   1.500 -0.0321 -0.1691  0.1186
  993MOL0     N36947   6.970   2.094   1.449 -0.4044 -0.6015 -0.4986
  993MOL0     N36948   6.860   2.154   1.477  0.3975  0.1090  0.8125
  993MOL0     C36949   5.874   2.863   1.251 -0.3381  1.2800  0.1108
  993MOL0     C36950   5.822   2.991   1.236 -0.5168  0.3702  0.2562
  993MOL0     C36951   5.498   3.312   1.196 -1.0265 -0.1318 -0.3459
  993MOL0     C36952   5.600   3.388   1.135 -0.0565  0.2794 -0.1121
  993MOL0     C36953   5.587   3.520   1.102 -0.7970  0.3086  0.1113
  993MOL0     C36954   5.462   3.580   1.108 -0.0373  0.4261 -0.9383
  993MOL0     O36955   5.457   3.718   1.078  0.4061 -0.3666  0.0943
  993MOL0     C36956   5.331   3.781   1.052  0.3654  0.8331 -0.4271
  993MOL0     C36957   5.352   3.902   0.965  0.5364  0.2680  0.7239
  993MOL0     C36958   5.223   3.970   0.921  0.2023  0.3763  0.1641
  993MOL0     C36959   5.152   3.907   0.800 -0.1228  0.2397  0.1422
  993MOL0     C36960   5.032   3.988   0.753 -0.2932  0.6339  0.3590
  993MOL0     C36961   4.929   4.022   0.701  0.5345  0.4582 -0.0805
  993MOL0     C36962   5.358   3.509   1.166  0.3829 -0.1984  0.6211
  993MOL0     C36963   5.376   3.379   1.208 -0.4996  0.1820 -1.0213
  993MOL0     C36964   5.247   3.303   1.243  0.2147 -0.4885 -0.0352
  993MOL0     H36965   5.538   2.964   1.412 -0.2107 -2.0875  2.1686
  993MOL0     H36966   5.607   2.734   1.420 -0.8787  0.3964 -3.3218
  993MOL0     H36967   6.063   2.668   1.336  2.5969 -3.2048 -2.3369
  993MOL0     H36968   5.980   2.610   1.198  1.0572  2.2001  0.2744
  993MOL0     H36969   6.004   2.462   1.468  0.5674  0.0515 -0.1143
  993MOL0     H36970   5.955   2.400   1.300 -0.4688  1.7106 -2.1582
  993MOL0     H36971   6.189   2.506   1.231  2.1849 -0.6190  0.3505
  993MOL0     H36972   6.211   2.503   1.404  2.4436  1.3993 -0.7203
  993MOL0     H36973   6.185   2.244   1.399  0.1107 -0.8717 -0.4074
  993MOL0     H36974   6.161   2.273   1.218  1.4643  0.4419 -0.6010
  993MOL0     H36975   6.370   2.311   1.173  1.3836 -1.4045 -1.3246
  993MOL0     H36976   6.378   2.169   1.258 -2.5732  0.1981 -1.1817
  993MOL0     H36977   6.440   2.460   1.369 -0.1901 -0.3224  1.6560
  993MOL0     H36978   6.412   2.341   1.482  3.7177  2.8068  1.7485
  993MOL0     H36979   6.637   2.390   1.449 -0.3476  1.3968 -0.0219
  993MOL0     H36980   6.639   2.355   1.278  1.2538 -0.8555 -0.2715
  993MOL0     H36981   6.601   2.140   1.501  0.9138 -1.7907 -0.2190
  993MOL0     H36982   6.575   2.111   1.330  1.7524  0.5399 -1.4829
  993MOL0     H36983   6.774   2.024   1.187 -0.3292 -1.6372  1.6405
  993MOL0     H36984   7.075   2.006   1.152 -1.9537  0.4605 -0.9640
  993MOL0     H36985   6.980   1.865   1.204 -0.6758  2.9305 -2.1978
  993MOL0     H36986   7.224   1.957   1.356 -0.3790  0.0908  1.1258
  993MOL0     H36987   7.105   1.817   1.386 -0.9240 -1.0839 -1.7507
  993MOL0     H36988   7.167   1.729   1.169 -0.0219  1.1979 -0.5687
  993MOL0     H36989   7.291   1.844   1.158 -1.5814  4.2708  1.8529
  993MOL0     H36990   7.273   1.672   1.411  1.7732 -1.0004  0.4522
  993MOL0     H36991   7.353   1.605   1.271  0.0247  1.2345 -0.8370
  993MOL0     H36992   7.471   1.507   1.430 -0.8567 -1.1724  1.4774
  993MOL0     H36993   7.529   1.353   1.563 -0.1581  1.1165 -0.1205
  993MOL0     H36994   7.661   1.359   1.691 -0.1488  0.3326  0.0864
  993MOL0     H36995   7.698   1.307   1.544  1.3873 -0.8139  3.8471
  993MOL0     H36996   7.861   1.349   1.882 -0.1128 -0.3773  1.2540
  993MOL0     H36997   8.040   1.283   2.061  1.9473 -2.2330  0.1920
  993MOL0     H36998   8.435   1.191   1.894 -0.3885  0.8013 -0.3982
  993MOL0     H36999   8.470   1.353   1.946 -0.1637  0.1076 -1.0866
  993MOL0     H37000   8.604   1.212   2.062  0.3008  3.6465 -1.2014
  993MOL0     H37001   8.483   1.267   2.180 -2.0587  1.0546 -2.4236
  993MOL0     H37002   8.480   0.998   2.037  0.1788 -0.2600 -1.5414
  993MOL0     H37003   8.354   1.060   2.160  1.2229  1.2341  1.0543
  993MOL0     H37004   8.556   1.056   2.330 -1.2879  0.6243 -0.0354
  993MOL0     H37005   8.648   0.994   2.189 -0.0617  1.3963 -1.0190
  993MOL0     H37006   8.397   0.857   2.319 -0.1527 -3.6977 -0.7703
  993MOL0     H37007   8.503   0.792   2.191  0.6096 -0.8042  0.8026
  993MOL0     H37008   8.547   0.679   2.397  0.4896  0.2927  0.5880
  993MOL0     H37009   8.573   0.828   2.484 -0.0812  2.0967 -1.0077
  993MOL0     H37010   8.770   0.873   2.330  0.2782  0.1265  0.9362
  993MOL0     H37011   8.748   0.708   2.267 -2.3784  1.4265 -2.3518
  993MOL0     H37012   8.752   0.631   2.503  1.7791 -1.1027  0.3601
  993MOL0     H37013   8.808   0.794   2.554  1.2212 -1.0954  0.6357
  993MOL0     H37014   8.347   1.361   1.762  0.2149 -1.7340 -0.3476
  993MOL0     H37015   8.171   1.430   1.605 -0.5073 -1.4522 -0.9302
  993MOL0     H37016   7.822   1.812   1.601 -0.0185 -0.5264  1.7307
  993MOL0     H37017   7.649   1.891   1.466  1.3879 -0.7275 -1.4128
  993MOL0     H37018   5.975   2.849   1.214  0.4997  4.0090  1.0885
  993MOL0     H37019   5.874   3.063   1.174 -0.6126  0.6226  0.4700
  993MOL0     H37020   5.692   3.335   1.111 -1.6718 -2.0277 -1.6864
  993MOL0     H37021   5.671   3.569   1.054 -0.4174 -0.7267 -0.2891
  993MOL0     H37022   5.262   3.712   1.002  1.9180 -0.9548 -0.1914
  993MOL0     H37023   5.284   3.814   1.145 -0.1740 -0.2297 -0.3110
  993MOL0     H37024   5.417   3.877   0.880 -0.0981 -0.2436  0.3736
  993MOL0     H37025   5.410   3.972   1.026 -0.7525  0.4524  1.7744
  993MOL0     H37026   5.148   3.976   1.001  1.6738  0.1921  1.6284
  993MOL0     H37027   5.249   4.074   0.900  0.9460  0.5133  1.6146
  993MOL0     H37028   5.104   3.814   0.829 -2.8478  1.1401 -1.1741
  993MOL0     H37029   5.223   3.890   0.718  0.7113  1.4918  0.5677
  993MOL0     H37030   4.846   4.065   0.650 -0.1410  1.4689  1.7594
  993MOL0     H37031   5.260   3.556   1.166 -0.8924 -2.6598  1.6645
  993MOL0     H37032   5.240   3.263   1.345 -2.5404 -1.4321 -0.5158
  993MOL0     H37033   5.162   3.368   1.222  0.7451 -0.1669 -1.2798
  993MOL0     H37034   5.232   3.212   1.185 -1.2246 -2.7363  3.4985
  994MOL0     O37035   0.822   8.944   7.178 -0.7787 -0.1159 -0.0675
  994MOL0     C37036   0.728   8.874   7.210  0.1440 -0.8378 -0.0501
  994MOL0     O37037   0.686   8.843   7.340  0.7117  0.1111 -0.1677
  994MOL0     C37038   0.758   8.881   7.456  0.6367  0.0399  0.5157
  994MOL0     C37039   0.794   9.009   7.480 -0.5233  0.6111 -0.0814
  994MOL0     C37040   0.879   9.038   7.585 -0.6532  1.0415 -0.0308
  994MOL0     C37041   0.925   8.939   7.676  0.5068 -0.1127 -0.2490
  994MOL0     O37042   1.005   8.980   7.785  0.4840  0.0950  0.3593
  994MOL0     C37043   1.090   8.875   7.844 -0.0175  0.0691  1.1796
  994MOL0     C37044   1.181   8.951   7.930 -0.2007  0.3297  0.9235
  994MOL0     C37045   1.280   9.026   7.848 -0.1629 -0.2426  0.5262
  994MOL0     C37046   1.405   9.051   7.931  0.6428  0.5067 -0.0615
  994MOL0     C37047   1.527   9.093   7.843  0.7459  0.3990  0.2479
  994MOL0     C37048   1.506   9.235   7.784  0.3440  0.1481 -0.7867
  994MOL0     C37049   1.614   9.278   7.687  0.1433  0.1635  0.1606
  994MOL0     C37050   1.636   9.430   7.688 -0.8273 -0.3935  0.8805
  994MOL0     N37051   1.720   9.462   7.570 -0.4503 -0.7928  0.2268
  994MOL0     C37052   1.698   9.426   7.437 -0.1298 -0.3348  0.9783
  994MOL0     C37053   1.818   9.456   7.374  0.0146  0.8133 -0.0884
  994MOL0     C37054   1.849   9.427   7.230  0.3329  0.2360  1.0344
  994MOL0     C37055   2.000   9.426   7.214  0.4466 -0.0597 -0.6592
  994MOL0     C37056   2.036   9.412   7.073  0.0307  0.2788 -0.6353
  994MOL0     C37057   2.187   9.387   7.051  0.1825 -0.2887  0.6238
  994MOL0     O37058   2.252   9.321   7.157 -0.0394 -0.3234 -0.5605
  994MOL0     C37059   2.387   9.329   7.165 -1.0132 -0.6288  0.3163
  994MOL0     C37060   2.446   9.244   7.247 -0.7554 -0.4248  0.0570
  994MOL0     C37061   2.576   9.203   7.256 -0.2986 -0.6215  0.5720
  994MOL0     C37062   2.610   9.109   7.369  0.0852  0.1566  0.1327
  994MOL0     C37063   2.662   9.253   7.156  0.0217 -0.0034 -0.3668
  994MOL0     C37064   2.802   9.209   7.138 -0.4656 -0.3522 -0.3872
  994MOL0     O37065   2.862   9.252   7.026 -0.0848 -0.0241  0.0468
  994MOL0     C37066   2.991   9.224   6.995  0.0598  0.3550 -0.2637
  994MOL0     C37067   3.077   9.329   6.991 -0.3961 -0.6986 -0.0074
  994MOL0     C37068   3.216   9.307   6.984 -0.0706  0.6027 -1.0620
  994MOL0     C37069   3.260   9.170   6.965 -0.6883 -0.2981  0.8986
  994MOL0     O37070   3.401   9.163   6.958 -0.3467  0.0245  0.4784
  994MOL0     C37071   3.471   9.033   6.955 -0.0197 -0.4057  0.2761
  994MOL0     C37072   3.609   9.034   6.875 -0.3635  0.5073  0.5834
  994MOL0     C37073   3.727   9.122   6.931 -0.1720  0.5393 -0.6428
  994MOL0     C37074   3.798   9.051   7.043 -0.6509  1.4410 -0.5995
  994MOL0     C37075   3.928   9.130   7.079  0.6972 -0.0034  0.2199
  994MOL0     C37076   4.010   9.041   7.176  0.6988 -0.0550  0.1280
  994MOL0     C37077   4.163   9.065   7.168 -0.3551  0.0389 -0.8179
  994MOL0     C37078   4.240   8.938   7.223  0.0203  0.5883 -0.0704
  994MOL0    Cl37079   4.412   8.968   7.215 -0.3606 -0.0057  0.0809
  994MOL0     C37080   3.176   9.070   6.935  1.1720 -0.6352 -0.9363
  994MOL0     C37081   3.039   9.095   6.950  1.2620 -0.0012  0.6834
  994MOL0     O37082   2.861   9.136   7.214  0.5207  1.0206 -0.5301
  994MOL0     C37083   2.606   9.351   7.071 -0.4998 -0.4120  0.1586
  994MOL0     C37084   2.476   9.388   7.074 -0.5821 -0.7340  1.0384
  994MOL0     N37085   1.899   9.513   7.464  0.7678 -0.4526 -0.0017
  994MOL0     N37086   1.845   9.525   7.577  0.5167 -0.5928 -0.3107
  994MOL0     C37087   0.888   8.807   7.655 -0.0565 -0.2252  0.0743
  994MOL0     C37088   0.809   8.782   7.544 -1.1449 -0.9503  0.6972
  994MOL0     C37089   0.662   8.794   7.105  0.1360  0.4461 -0.7512
  994MOL0     C37090   0.677   8.656   7.120 -0.5711  0.3880  0.4876
  994MOL0     C37091   0.613   8.566   7.028 -0.4147 -0.2276  0.3541
  994MOL0     C37092   0.539   8.619   6.917  0.3163 -0.9450 -0.3771
  994MOL0     O37093   0.477   8.544   6.822  0.4110  0.7853 -0.3625
  994MOL0     C37094   0.420   8.413   6.859 -0.0564  0.3166  0.4208
  994MOL0     C37095   0.301   8.443   6.960 -0.0001  0.2790  0.1311
  994MOL0     C37096   0.196   8.340   6.990  0.6119  0.1138  0.6236
  994MOL0     C37097   0.072   8.377   7.073  0.0448 -0.2040  0.2010
  994MOL0     C37098  -0.029   8.275   7.070  1.0145 -0.6298 -0.3138
  994MOL0     C37099  -0.123   8.201   7.064 -0.0293 -1.0303 -0.4273
  994MOL0     C37100   0.531   8.758   6.912 -0.0558 -0.2338 -0.3821
  994MOL0     C37101   0.583   8.851   7.008  0.5753 -0.5542 -0.2246
  994MOL0     C37102   0.553   9.006   6.992 -0.0777  0.3240  0.6973
  994MOL0     H37103   0.754   9.090   7.420  0.8521 -0.0475 -1.9717
  994MOL0     H37104   0.916   9.137   7.609  2.3507 -0.3714  1.7017
  994MOL0     H37105   1.147   8.815   7.773 -0.4228 -0.8700  1.6441
  994MOL0     H37106   1.028   8.815   7.911 -2.4162  0.7883 -0.2940
  994MOL0     H37107   1.119   9.015   7.994 -0.3380  0.0015  1.1223
  994MOL0     H37108   1.233   8.875   7.988 -1.1653 -0.3976  0.8638
  994MOL0     H37109   1.307   8.966   7.760  0.7356  0.0218  0.6128
  994MOL0     H37110   1.236   9.121   7.817 -1.5256 -1.3360 -1.0803
  994MOL0     H37111   1.396   9.122   8.014 -0.5690  0.2049  0.0814
  994MOL0     H37112   1.435   8.953   7.970  0.5240 -0.0386 -1.2860
  994MOL0     H37113   1.557   9.022   7.766  0.6466  0.4341  0.1755
  994MOL0     H37114   1.618   9.093   7.904  2.7248 -2.1956 -2.4295
  994MOL0     H37115   1.412   9.241   7.728 -0.1332  0.6638  0.0471
  994MOL0     H37116   1.500   9.308   7.865 -2.8116  2.2960 -2.6960
  994MOL0     H37117   1.582   9.236   7.591  0.6471 -0.1298  0.1205
  994MOL0     H37118   1.710   9.231   7.710 -0.0497  0.4047  1.4939
  994MOL0     H37119   1.547   9.493   7.674  0.1051  0.5197 -1.5832
  994MOL0     H37120   1.686   9.467   7.778  0.0032  1.8834 -0.4419
  994MOL0     H37121   1.615   9.372   7.392  0.3906 -1.1518  0.9830
  994MOL0     H37122   1.807   9.501   7.161  0.1779  0.2931  1.1893
  994MOL0     H37123   1.799   9.334   7.200 -1.8464  1.2040  1.4371
  994MOL0     H37124   2.039   9.524   7.244 -1.4652  0.9406 -1.2255
  994MOL0     H37125   2.041   9.353   7.284 -0.0610  0.1031 -0.1819
  994MOL0     H37126   1.985   9.325   7.030  0.5692 -1.0524  1.2816
  994MOL0     H37127   2.006   9.505   7.024 -2.7543  0.1766  0.6849
  994MOL0     H37128   2.198   9.326   6.961  2.6616  1.1110 -0.1267
  994MOL0     H37129   2.229   9.486   7.031 -1.2251 -0.2352 -2.6592
  994MOL0     H37130   2.380   9.177   7.300  1.5431 -2.2741  0.7440
  994MOL0     H37131   2.538   9.099   7.450  0.2780 -0.3453  0.2518
  994MOL0     H37132   2.702   9.145   7.416  0.1626 -1.0436  0.9577
  994MOL0     H37133   2.631   9.008   7.330  0.4335 -0.2272  1.2730
  994MOL0     H37134   3.033   9.425   7.016  0.2497 -0.0634 -1.2337
  994MOL0     H37135   3.280   9.388   7.016  3.3115 -2.4872  0.8612
  994MOL0     H37136   3.481   8.993   7.057  0.2815 -0.8073  0.0930
  994MOL0     H37137   3.411   8.962   6.898  0.9758 -1.0986  0.0505
  994MOL0     H37138   3.647   8.934   6.854 -1.1104 -0.0865  1.9066
  994MOL0     H37139   3.587   9.072   6.775  1.6133 -1.0346 -0.5121
  994MOL0     H37140   3.698   9.225   6.952 -0.3533  0.7990 -2.0937
  994MOL0     H37141   3.805   9.138   6.857  1.5010  2.5590  1.3999
  994MOL0     H37142   3.825   8.950   7.009 -1.2563  1.1530 -0.2435
  994MOL0     H37143   3.745   9.033   7.137  2.2894  0.6161  1.0449
  994MOL0     H37144   3.986   9.162   6.992  1.1306 -1.6035 -0.1263
  994MOL0     H37145   3.899   9.218   7.136  0.6569  0.1173  0.0120
  994MOL0     H37146   3.985   8.938   7.149 -2.0561  0.5676 -0.0163
  994MOL0     H37147   3.969   9.061   7.275 -1.6307  0.8276 -0.9363
  994MOL0     H37148   4.183   9.158   7.223  0.6089  0.4672 -1.8632
  994MOL0     H37149   4.190   9.077   7.063 -1.6572 -2.6244 -1.5473
  994MOL0     H37150   4.211   8.855   7.158  1.3974  0.9960 -1.2779
  994MOL0     H37151   4.210   8.919   7.326 -1.6469  0.9225 -0.4692
  994MOL0     H37152   3.197   8.965   6.918 -3.4544 -1.9943  0.4033
  994MOL0     H37153   2.972   9.014   6.923 -2.0582  2.2450  1.7000
  994MOL0     H37154   2.666   9.396   6.993 -0.9657  0.4563  0.2909
  994MOL0     H37155   2.437   9.465   7.009 -0.7519 -1.0911  0.7192
  994MOL0     H37156   0.916   8.729   7.726  0.6887  1.9789  2.3779
  994MOL0     H37157   0.786   8.680   7.515 -1.6968 -0.2347 -1.5471
  994MOL0     H37158   0.739   8.619   7.201  1.4460 -0.4979 -1.3737
  994MOL0     H37159   0.639   8.463   7.051  0.5482  0.0652  0.6202
  994MOL0     H37160   0.377   8.356   6.776 -1.3864 -0.8822  1.8638
  994MOL0     H37161   0.493   8.352   6.914  1.1511  2.6629  1.5964
  994MOL0     H37162   0.259   8.522   6.896  2.0478  0.5290 -1.0186
  994MOL0     H37163   0.336   8.488   7.053 -0.2256  0.4759  0.1241
  994MOL0     H37164   0.159   8.300   6.895 -4.2181 -0.5740  2.4727
  994MOL0     H37165   0.247   8.261   7.044 -0.7286 -0.2004  1.4900
  994MOL0     H37166   0.025   8.468   7.035  0.5463  0.2438  0.6481
  994MOL0     H37167   0.110   8.394   7.174  1.7074 -1.4303 -0.1704
  994MOL0     H37168  -0.202   8.129   7.057 -0.1038 -1.1942  1.5643
  994MOL0     H37169   0.457   8.790   6.840  0.8271 -0.6970 -1.5246
  994MOL0     H37170   0.536   9.029   6.887 -0.8541  2.2348  1.2104
  994MOL0     H37171   0.461   9.040   7.040 -1.3428 -0.3760 -1.1372
  994MOL0     H37172   0.636   9.070   7.022  0.6348  0.6857 -1.8826
  995MOL0     O37173   3.110   1.252   0.901  0.6309 -0.2176  0.2996
  995MOL0     C37174   2.989   1.259   0.869 -0.0512 -0.3174 -0.1495
  995MOL0     O37175   2.942   1.327   0.766  1.0378 -0.2664  0.3040
  995MOL0     C37176   3.012   1.402   0.674  0.2457  0.3891  0.6836
  995MOL0     C37177   3.149   1.392   0.651 -0.1367  0.4218  1.0370
  995MOL0     C37178   3.199   1.475   0.542 -0.0263 -0.0133 -0.3798
  995MOL0     C37179   3.122   1.557   0.458  0.2948 -0.0795 -0.0129
  995MOL0     O37180   3.181   1.628   0.368 -0.1755 -0.4881  0.3484
  995MOL0     C37181   3.115   1.640   0.242  0.2416  0.1156 -0.4412
  995MOL0     C37182   3.199   1.749   0.167 -0.2301 -0.0929  0.2881
  995MOL0     C37183   3.327   1.671   0.120  0.1218 -0.8523  0.2196
  995MOL0     C37184   3.404   1.766   0.030  0.2206  0.5620  0.1652
  995MOL0     C37185   3.550   1.732   0.033 -0.1169 -0.4179 -0.4298
  995MOL0     C37186   3.582   1.584   0.029  0.1988 -0.2532  0.0635
  995MOL0     C37187   3.728   1.575  -0.006  0.2493 -0.7948  0.4531
  995MOL0     C37188   3.771   1.432  -0.024  0.7604  1.1106 -1.1123
  995MOL0     N37189   3.913   1.429  -0.075 -0.5744  0.3050 -0.2415
  995MOL0     C37190   4.017   1.485  -0.008 -0.8176 -0.1890  0.0444
  995MOL0     C37191   4.125   1.484  -0.088  0.2259 -1.4571 -0.1957
  995MOL0     C37192   4.258   1.525  -0.038  0.3391  0.5195 -0.1275
  995MOL0     C37193   4.385   1.454  -0.084 -0.1669 -0.1769  0.6335
  995MOL0     C37194   4.510   1.533  -0.041 -0.2638  0.8391 -0.0037
  995MOL0     C37195   4.642   1.449  -0.066 -0.3413 -0.3014  0.3897
  995MOL0     O37196   4.646   1.345   0.028 -0.9871  0.3017 -0.6105
  995MOL0     C37197   4.773   1.296   0.068  0.7462  1.2096  0.0483
  995MOL0     C37198   4.893   1.334   0.006 -0.4820 -0.0635  0.2021
  995MOL0     C37199   5.010   1.296   0.058  0.3000 -0.7363 -0.4568
  995MOL0     C37200   5.129   1.348  -0.012 -0.3110 -0.4810 -0.8016
  995MOL0     C37201   5.020   1.214   0.173  0.2308  0.2256 -0.0847
  995MOL0     C37202   5.144   1.172   0.235  0.2820 -0.9535 -0.5101
  995MOL0     O37203   5.253   1.133   0.158  0.1988  0.5084 -0.1607
  995MOL0     C37204   5.380   1.098   0.206  0.4197  0.4003 -0.4061
  995MOL0     C37205   5.436   1.121   0.332 -0.5809 -0.5767  0.3636
  995MOL0     C37206   5.568   1.083   0.362 -0.1476 -0.3754  0.4140
  995MOL0     C37207   5.648   1.017   0.273 -0.0628 -0.1458 -0.6690
  995MOL0     O37208   5.767   0.963   0.323  1.2520 -0.0602 -0.3503
  995MOL0     C37209   5.872   0.931   0.229 -0.2049 -0.6080  0.8193
  995MOL0     C37210   6.001   0.886   0.311 -0.1211 -0.2579  0.7421
  995MOL0     C37211   5.988   0.742   0.361  0.2346  0.4821 -0.6457
  995MOL0     C37212   6.116   0.708   0.438 -0.2149 -0.0291 -0.1673
  995MOL0     C37213   6.121   0.572   0.501  0.6853  1.0623 -0.5360
  995MOL0     C37214   6.256   0.521   0.544 -0.4518  0.6159  0.9831
  995MOL0     C37215   6.261   0.364   0.562  0.8210  0.2836  0.1734
  995MOL0     C37216   6.400   0.317   0.587 -0.3901  1.1293 -0.2015
  995MOL0    Cl37217   6.449   0.383   0.748 -0.0317  0.1048  0.0009
  995MOL0     C37218   5.597   1.002   0.140 -0.0652  0.5158 -1.0316
  995MOL0     C37219   5.464   1.037   0.110 -0.0490 -0.1709  0.2939
  995MOL0     O37220   5.148   1.166   0.359  0.2605 -0.3212  0.0854
  995MOL0     C37221   4.899   1.169   0.231  0.0147  0.5572  0.5278
  995MOL0     C37222   4.775   1.209   0.173 -0.3448 -0.9066  0.5507
  995MOL0     N37223   4.087   1.434  -0.215 -0.2513  0.7266 -0.3366
  995MOL0     N37224   3.957   1.411  -0.207 -0.0335  0.2079 -0.7975
  995MOL0     C37225   2.984   1.558   0.488  0.2816 -0.2433  0.6756
  995MOL0     C37226   2.927   1.484   0.590 -0.2794 -0.2093  0.3580
  995MOL0     C37227   2.893   1.183   0.952  0.1862  0.5388 -0.2662
  995MOL0     C37228   2.941   1.095   1.053 -0.9773 -0.5923 -0.0669
  995MOL0     C37229   2.860   1.034   1.145 -0.0416  0.1573 -0.4240
  995MOL0     C37230   2.722   1.061   1.145 -0.2631  0.1862 -0.3003
  995MOL0     O37231   2.626   1.024   1.238 -0.0296 -0.4006  0.3670
  995MOL0     C37232   2.683   0.983   1.371 -0.2730 -0.2256 -0.1633
  995MOL0     C37233   2.575   0.951   1.465  0.7006  0.0004 -0.7043
  995MOL0     C37234   2.470   1.062   1.452 -0.3210  0.3997  0.3794
  995MOL0     C37235   2.383   1.068   1.580  0.4047 -0.5752 -0.1943
  995MOL0     C37236   2.300   1.188   1.582  0.6704  0.3007  0.1550
  995MOL0     C37237   2.237   1.287   1.588  0.4844  0.5091 -0.2790
  995MOL0     C37238   2.676   1.147   1.050 -0.2032  0.5412  0.1535
  995MOL0     C37239   2.751   1.206   0.948  0.4079  0.7011 -0.5290
  995MOL0     C37240   2.683   1.302   0.853  0.2296  0.2256 -0.5582
  995MOL0     H37241   3.214   1.333   0.715 -1.8724 -0.5395  2.0034
  995MOL0     H37242   3.308   1.473   0.533  0.1551 -0.3743  1.3828
  995MOL0     H37243   3.009   1.664   0.253 -0.3711 -2.7789  1.3535
  995MOL0     H37244   3.123   1.543   0.193  3.3555 -0.7943  1.5489
  995MOL0     H37245   3.149   1.771   0.073  0.9722 -1.0803 -0.6125
  995MOL0     H37246   3.226   1.834   0.230 -0.4084 -0.5125  0.9448
  995MOL0     H37247   3.382   1.653   0.214 -1.3082 -1.2533  1.0021
  995MOL0     H37248   3.306   1.577   0.068 -0.4015  0.3482 -1.8087
  995MOL0     H37249   3.362   1.749  -0.069 -1.2031 -1.1554  0.9881
  995MOL0     H37250   3.386   1.870   0.060 -1.8689 -0.5972  3.5561
  995MOL0     H37251   3.604   1.778   0.116 -1.4800 -1.0729  0.8833
  995MOL0     H37252   3.593   1.782  -0.055  0.0435  2.3991  1.1348
  995MOL0     H37253   3.551   1.521   0.113 -1.6820  0.4147 -0.0860
  995MOL0     H37254   3.530   1.545  -0.059  1.0844 -0.1626 -0.5090
  995MOL0     H37255   3.787   1.629   0.068 -0.6990  2.0253 -0.6996
  995MOL0     H37256   3.737   1.627  -0.102  0.0482  1.3348  1.5096
  995MOL0     H37257   3.772   1.376   0.070  1.1173  2.3393 -0.3421
  995MOL0     H37258   3.708   1.389  -0.101  0.1748  0.8679 -0.5034
  995MOL0     H37259   4.008   1.531   0.090 -0.1864 -2.6893  1.3406
  995MOL0     H37260   4.264   1.527   0.071  0.6955  1.8669 -0.1552
  995MOL0     H37261   4.254   1.632  -0.057 -2.0899 -0.0265 -3.6743
  995MOL0     H37262   4.389   1.351  -0.047  1.5792 -0.1898  0.5220
  995MOL0     H37263   4.383   1.451  -0.193 -0.2642  0.7042  0.6031
  995MOL0     H37264   4.520   1.629  -0.092 -0.5961  2.0830  2.1583
  995MOL0     H37265   4.512   1.564   0.064  1.1406 -0.7750  0.4934
  995MOL0     H37266   4.656   1.415  -0.169  1.2059  0.2485  0.3891
  995MOL0     H37267   4.725   1.517  -0.047 -0.7448 -0.0270  1.2172
  995MOL0     H37268   4.892   1.406  -0.075 -1.3520  0.3639  0.5747
  995MOL0     H37269   5.108   1.400  -0.106 -1.9336 -0.2497 -0.3361
  995MOL0     H37270   5.193   1.266  -0.047 -0.5336 -0.5385 -1.0768
  995MOL0     H37271   5.188   1.411   0.055 -1.0364 -1.8120  1.1944
  995MOL0     H37272   5.375   1.169   0.408  1.9062  0.7145  1.6577
  995MOL0     H37273   5.617   1.107   0.456 -0.1937  2.4093 -0.1899
  995MOL0     H37274   5.840   0.853   0.160  1.3423 -0.8171  0.2890
  995MOL0     H37275   5.901   1.023   0.177  1.8008 -0.4470  2.1115
  995MOL0     H37276   6.083   0.903   0.241 -0.7562  2.7702  0.6101
  995MOL0     H37277   6.019   0.949   0.399  0.6274  0.4331  0.1055
  995MOL0     H37278   5.973   0.670   0.281  1.8179 -1.7213  0.9241
  995MOL0     H37279   5.903   0.730   0.429 -2.6385 -1.7753 -4.2719
  995MOL0     H37280   6.127   0.783   0.517 -1.0596  0.4282 -0.4670
  995MOL0     H37281   6.198   0.708   0.366  1.4980  0.5582  1.6883
  995MOL0     H37282   6.062   0.560   0.592  1.1440 -1.1447 -0.4672
  995MOL0     H37283   6.084   0.505   0.422 -0.8560  1.2274  0.0199
  995MOL0     H37284   6.265   0.559   0.647  0.8123  4.5751 -0.3939
  995MOL0     H37285   6.331   0.559   0.474 -1.2696  1.8803  0.7675
  995MOL0     H37286   6.232   0.325   0.464  2.3509  3.1586 -1.5611
  995MOL0     H37287   6.184   0.328   0.630 -0.8466 -0.2548 -1.8786
  995MOL0     H37288   6.466   0.348   0.505  0.0954 -0.1735 -0.3306
  995MOL0     H37289   6.393   0.208   0.593  1.9079  1.0027  2.0646
  995MOL0     H37290   5.654   0.950   0.063 -0.1959  0.0593 -0.8242
  995MOL0     H37291   5.439   1.031   0.005  3.1627 -0.6100 -0.5647
  995MOL0     H37292   4.916   1.093   0.307  4.1723 -0.0955 -0.7932
  995MOL0     H37293   4.692   1.170   0.231  0.0972  0.5640  2.2956
  995MOL0     H37294   2.916   1.621   0.432  0.5758 -0.7075 -0.2306
  995MOL0     H37295   2.819   1.478   0.594 -0.1975 -1.5614  0.9236
  995MOL0     H37296   3.048   1.081   1.060 -0.5980  1.6249 -0.6568
  995MOL0     H37297   2.905   0.968   1.218  1.2445  1.8792  0.4296
  995MOL0     H37298   2.752   0.901   1.351 -0.9080 -0.6834 -0.5121
  995MOL0     H37299   2.739   1.070   1.407 -4.3644  2.0888  1.3188
  995MOL0     H37300   2.611   0.955   1.568 -1.4484 -1.3772  0.1580
  995MOL0     H37301   2.529   0.853   1.452  0.9706 -0.0830 -1.0579
  995MOL0     H37302   2.515   1.161   1.439  0.1474 -0.1386 -3.1889
  995MOL0     H37303   2.408   1.034   1.367 -1.0384  1.0112  0.6833
  995MOL0     H37304   2.440   1.057   1.673 -0.1095 -0.4505  0.1424
  995MOL0     H37305   2.317   0.981   1.575 -1.4373  0.7900 -1.1393
  995MOL0     H37306   2.173   1.372   1.607  1.0929  0.9213 -0.0548
  995MOL0     H37307   2.568   1.157   1.051 -0.7985 -3.8412  0.0558
  995MOL0     H37308   2.724   1.401   0.874  0.1790 -0.0637  1.0799
  995MOL0     H37309   2.686   1.271   0.748 -1.2408  2.4518 -1.3234
  995MOL0     H37310   2.576   1.309   0.872  0.1834 -1.3697 -0.0094
  996MOL0     O37311   1.952   3.905   7.963  0.5682  0.3882 -0.1225
  996MOL0     C37312   1.868   3.835   7.908  0.0134  0.2817  0.2920
  996MOL0     O37313   1.858   3.796   7.778  0.0633 -0.2280  0.3251
  996MOL0     C37314   1.979   3.808   7.714 -0.1564  0.2239  0.2520
  996MOL0     C37315   2.100   3.753   7.762  0.0426  0.5696 -0.3627
  996MOL0     C37316   2.222   3.764   7.689 -0.1896  0.1074 -0.8715
  996MOL0     C37317   2.221   3.851   7.570 -0.1459 -0.0435 -0.4063
  996MOL0     O37318   2.330   3.888   7.504 -0.2678 -0.2141  0.1668
  996MOL0     C37319   2.459   3.849   7.552  0.9233 -0.3509  0.2967
  996MOL0     C37320   2.563   3.872   7.449 -0.3113  0.9717  0.7487
  996MOL0     C37321   2.698   3.797   7.490  0.5723 -0.2604 -0.3379
  996MOL0     C37322   2.820   3.857   7.424  0.0176  0.6023  0.1870
  996MOL0     C37323   2.940   3.769   7.436 -0.3894 -0.6247  0.1828
  996MOL0     C37324   3.035   3.793   7.321  0.0832 -0.0761  0.8877
  996MOL0     C37325   3.172   3.740   7.351 -0.3253  0.5165  0.7368
  996MOL0     C37326   3.259   3.716   7.228 -0.4469 -0.4264 -0.3840
  996MOL0     N37327   3.390   3.688   7.284  0.4068 -0.2930 -0.4995
  996MOL0     C37328   3.471   3.779   7.348 -0.1674  0.1267 -0.3266
  996MOL0     C37329   3.560   3.694   7.408  0.9667  0.0040  0.1521
  996MOL0     C37330   3.689   3.746   7.470  0.2261 -0.3113  0.0852
  996MOL0     C37331   3.811   3.729   7.377 -0.2524 -0.0621  0.2456
  996MOL0     C37332   3.947   3.752   7.447 -0.1789  0.3225  0.2593
  996MOL0     C37333   4.065   3.711   7.358 -0.8177 -0.1622 -0.3177
  996MOL0     O37334   4.171   3.672   7.446 -0.2915  0.1586 -0.4560
  996MOL0     C37335   4.289   3.627   7.389 -0.3896 -0.3382  0.0807
  996MOL0     C37336   4.330   3.651   7.261  0.0105 -0.6699 -0.5404
  996MOL0     C37337   4.450   3.607   7.219  0.2453  0.8749 -0.2060
  996MOL0     C37338   4.493   3.634   7.077  0.0526 -0.1718  0.0394
  996MOL0     C37339   4.537   3.524   7.312 -0.3427 -0.2322  0.3247
  996MOL0     C37340   4.673   3.475   7.273 -0.1139  0.0793 -0.0536
  996MOL0     O37341   4.760   3.558   7.197  0.7425 -0.4301  0.6517
  996MOL0     C37342   4.899   3.521   7.185  0.9900  1.0894 -0.8656
  996MOL0     C37343   4.963   3.508   7.059 -0.3328  0.1248  0.2337
  996MOL0     C37344   5.098   3.475   7.055  0.6028  0.9514  0.5817
  996MOL0     C37345   5.179   3.466   7.165  0.2055  0.9745  0.5673
  996MOL0     O37346   5.312   3.431   7.152 -0.5896  0.2463  0.3521
  996MOL0     C37347   5.374   3.349   7.249 -0.0047 -0.1539 -0.1266
  996MOL0     C37348   5.511   3.299   7.194 -0.0554  0.1234  0.3740
  996MOL0     C37349   5.622   3.407   7.216 -0.0428  1.2798  0.5082
  996MOL0     C37350   5.754   3.364   7.159 -0.4062  0.0523  0.0395
  996MOL0     C37351   5.881   3.442   7.213  0.6078 -0.6466  0.2946
  996MOL0     C37352   5.890   3.591   7.187  0.2511  0.0656 -0.4625
  996MOL0     C37353   6.029   3.635   7.232  0.1686 -0.9628 -0.5703
  996MOL0     C37354   6.047   3.794   7.222  0.9096 -0.1569  0.2409
  996MOL0    Cl37355   6.214   3.816   7.271 -0.0832 -0.3730  0.0819
  996MOL0     C37356   5.113   3.472   7.290 -0.1981  0.4987  0.3380
  996MOL0     C37357   4.979   3.491   7.301  0.6045  0.2837 -0.3527
  996MOL0     O37358   4.710   3.378   7.336 -0.0388 -0.3781 -0.1349
  996MOL0     C37359   4.487   3.497   7.434 -0.2558 -0.1878 -0.9271
  996MOL0     C37360   4.357   3.544   7.469  1.0748 -0.4783 -0.4993
  996MOL0     N37361   3.533   3.559   7.377  0.5170  0.0321 -0.9161
  996MOL0     N37362   3.432   3.558   7.300 -0.1675 -0.2125  0.3106
  996MOL0     C37363   2.093   3.899   7.532  0.1422 -0.3762  0.2254
  996MOL0     C37364   1.979   3.887   7.602 -0.1590  0.4160 -0.6136
  996MOL0     C37365   1.774   3.772   8.000  0.5352 -0.1354 -0.7449
  996MOL0     C37366   1.714   3.648   7.957 -0.6270 -0.0330  0.4754
  996MOL0     C37367   1.614   3.585   8.026 -0.3232 -0.3229 -0.5805
  996MOL0     C37368   1.574   3.625   8.155 -0.0371 -0.0176  0.2795
  996MOL0     O37369   1.488   3.551   8.226 -0.4522 -0.1291 -0.6572
  996MOL0     C37370   1.357   3.578   8.194 -0.5723 -0.5064 -1.3496
  996MOL0     C37371   1.315   3.728   8.187 -0.6485  0.5759  0.3355
  996MOL0     C37372   1.170   3.732   8.166  0.4548  0.8921 -0.5878
  996MOL0     C37373   1.132   3.880   8.159  0.3235 -0.9426  0.0419
  996MOL0     C37374   1.138   3.960   8.285  0.0890 -0.1516  0.0624
  996MOL0     C37375   1.130   4.036   8.379  0.5658 -0.2466 -0.1093
  996MOL0     C37376   1.631   3.739   8.197  0.1068 -0.1231 -0.2183
  996MOL0     C37377   1.731   3.816   8.127  0.2516 -0.5474 -0.0766
  996MOL0     C37378   1.795   3.935   8.202  0.4313 -0.1253  0.3634
  996MOL0     H37379   2.106   3.706   7.860 -1.5420  2.5703  0.7766
  996MOL0     H37380   2.311   3.709   7.720 -0.3436  0.0596 -0.5175
  996MOL0     H37381   2.472   3.741   7.564  1.6905 -0.2662  0.2904
  996MOL0     H37382   2.487   3.904   7.642 -1.6897  1.7860 -0.0872
  996MOL0     H37383   2.530   3.813   7.363 -0.7691  0.1948  1.4513
  996MOL0     H37384   2.587   3.977   7.431  0.3703  0.4219 -2.1528
  996MOL0     H37385   2.714   3.814   7.597  0.0674  0.3990 -0.3542
  996MOL0     H37386   2.690   3.690   7.470 -1.4995 -0.5275  1.4571
  996MOL0     H37387   2.796   3.845   7.318 -2.0590 -0.2186  0.7182
  996MOL0     H37388   2.848   3.960   7.450  4.1564 -0.0445 -0.9027
  996MOL0     H37389   2.931   3.660   7.433 -0.2588 -0.7131  2.0491
  996MOL0     H37390   2.992   3.785   7.531 -0.6282 -0.1186  0.2348
  996MOL0     H37391   3.008   3.749   7.225 -1.1946  1.7215  0.3579
  996MOL0     H37392   3.046   3.901   7.303 -4.0584  0.1669 -1.5407
  996MOL0     H37393   3.180   3.645   7.405  2.2695 -0.4207 -1.0652
  996MOL0     H37394   3.225   3.810   7.416  5.0331 -0.0442 -2.3820
  996MOL0     H37395   3.217   3.631   7.172  1.6990 -2.2490  0.6039
  996MOL0     H37396   3.272   3.803   7.163 -0.1157  0.3166  0.6666
  996MOL0     H37397   3.468   3.888   7.352  0.4836  0.2333  4.9122
  996MOL0     H37398   3.708   3.695   7.565  2.0903  0.5443  0.2115
  996MOL0     H37399   3.680   3.851   7.498  0.2009 -0.1545 -0.4904
  996MOL0     H37400   3.808   3.630   7.333 -0.3637  1.0160 -2.3316
  996MOL0     H37401   3.795   3.799   7.295 -2.2111 -3.5393 -2.6063
  996MOL0     H37402   3.969   3.852   7.484  6.1530 -0.9344  1.1134
  996MOL0     H37403   3.951   3.674   7.524 -0.4157 -0.7669 -0.7955
  996MOL0     H37404   4.042   3.633   7.285  1.3983 -0.8069 -0.4104
  996MOL0     H37405   4.103   3.797   7.301 -2.0417 -0.3260 -1.4302
  996MOL0     H37406   4.263   3.702   7.193 -0.7984 -0.5326  0.3444
  996MOL0     H37407   4.409   3.669   7.017  0.0162  2.2777  1.3954
  996MOL0     H37408   4.537   3.545   7.032 -2.7342 -1.1499 -0.9527
  996MOL0     H37409   4.574   3.708   7.084 -0.3521  0.2266  0.6053
  996MOL0     H37410   4.895   3.534   6.978  0.0562  4.6182  1.0485
  996MOL0     H37411   5.131   3.468   6.952  1.0077 -0.5402  0.7900
  996MOL0     H37412   5.380   3.402   7.345 -1.8531 -0.7864  0.3741
  996MOL0     H37413   5.308   3.262   7.261 -0.7142  0.4400  0.3543
  996MOL0     H37414   5.535   3.204   7.243 -1.9532 -0.1723  0.8154
  996MOL0     H37415   5.491   3.267   7.092 -3.1564 -1.1832  1.2641
  996MOL0     H37416   5.631   3.433   7.322  1.5203 -0.6964  0.9233
  996MOL0     H37417   5.588   3.497   7.163  0.0436  1.1498  0.2337
  996MOL0     H37418   5.735   3.390   7.054 -0.7546  1.6628  0.4821
  996MOL0     H37419   5.765   3.255   7.165 -0.1111  0.0865  0.1323
  996MOL0     H37420   5.898   3.427   7.320 -1.1629 -0.6753  0.5912
  996MOL0     H37421   5.966   3.405   7.153  0.0584  1.2186 -1.7791
  996MOL0     H37422   5.814   3.643   7.246 -1.9497 -1.9092 -1.3965
  996MOL0     H37423   5.870   3.614   7.082 -1.8909 -0.2356 -0.1629
  996MOL0     H37424   6.097   3.589   7.160  1.0322  2.8763 -2.4410
  996MOL0     H37425   6.050   3.603   7.335  0.8775  4.1337  1.1886
  996MOL0     H37426   5.972   3.850   7.278  0.2935  0.7074 -1.3733
  996MOL0     H37427   6.037   3.824   7.117  4.3485 -0.3778 -0.2418
  996MOL0     H37428   5.170   3.467   7.382  2.1872  0.4954 -1.0784
  996MOL0     H37429   4.937   3.492   7.401  1.0484 -0.5874 -0.1503
  996MOL0     H37430   4.538   3.439   7.511 -2.2729 -1.6380 -0.5739
  996MOL0     H37431   4.307   3.512   7.560 -0.3306  0.3300 -0.9684
  996MOL0     H37432   2.093   3.953   7.437  2.1041  0.3729  0.6112
  996MOL0     H37433   1.889   3.937   7.569 -0.0752  1.6582  0.9159
  996MOL0     H37434   1.751   3.605   7.865  1.0847 -1.5835  1.8074
  996MOL0     H37435   1.569   3.493   7.991  0.0181  0.1260 -2.3191
  996MOL0     H37436   1.341   3.531   8.096 -1.4664 -0.9372 -1.0154
  996MOL0     H37437   1.307   3.526   8.277  1.0835  2.3072  1.6184
  996MOL0     H37438   1.363   3.770   8.098 -0.3463  0.7740  0.5897
  996MOL0     H37439   1.353   3.782   8.273  0.0352  0.3238  0.2012
  996MOL0     H37440   1.138   3.684   8.073  1.0608  1.2277 -0.9788
  996MOL0     H37441   1.123   3.687   8.254 -0.3634  2.1453 -0.3658
  996MOL0     H37442   1.027   3.886   8.129  0.7026  2.6444 -0.9113
  996MOL0     H37443   1.181   3.929   8.075 -1.7750 -2.1968 -2.0529
  996MOL0     H37444   1.146   4.094   8.467  1.4776  0.5965 -0.8088
  996MOL0     H37445   1.602   3.771   8.296 -1.7795  0.8007 -1.0204
  996MOL0     H37446   1.779   4.026   8.143  0.9306 -0.5678 -0.4614
  996MOL0     H37447   1.739   3.962   8.292  0.5962  1.4130  0.0397
  996MOL0     H37448   1.899   3.915   8.231 -0.4173 -1.1567  2.9565
  997MOL0     O37449   9.016   4.305   0.807  0.1100  0.0446  0.5171
  997MOL0     C37450   8.946   4.263   0.715 -0.4412  0.5112  0.2438
  997MOL0     O37451   8.967   4.154   0.641  0.1659 -0.1376  1.0597
  997MOL0     C37452   9.052   4.052   0.672 -0.4662  0.7409 -0.1319
  997MOL0     C37453   9.104   4.017   0.798  0.5053  0.2321  0.5810
  997MOL0     C37454   9.175   3.899   0.803 -0.2789  0.8009  0.1192
  997MOL0     C37455   9.208   3.823   0.692 -0.1336 -0.6741  0.1506
  997MOL0     O37456   9.269   3.710   0.705 -0.2472 -0.5729  0.3747
  997MOL0     C37457   9.392   3.703   0.770 -0.3306 -0.6519 -0.2506
  997MOL0     C37458   9.488   3.613   0.702  0.0934 -0.4100  0.0190
  997MOL0     C37459   9.622   3.597   0.769  0.2771  1.0392  0.2865
  997MOL0     C37460   9.705   3.481   0.716  0.2494  0.1683 -0.1267
  997MOL0     C37461   9.835   3.470   0.797 -0.0088  0.3679  0.0449
  997MOL0     C37462   9.906   3.341   0.760  0.5456  0.1948  0.4046
  997MOL0     C37463  10.047   3.331   0.819  0.2668 -0.0709 -0.3583
  997MOL0     C37464  10.091   3.191   0.836  0.7804  1.0690  0.4707
  997MOL0     N37465  10.239   3.181   0.862  0.5191 -0.2284  0.5677
  997MOL0     C37466  10.283   3.204   0.985 -1.1657 -0.1513  0.0539
  997MOL0     C37467  10.419   3.173   0.996 -1.6363 -0.1050  0.1922
  997MOL0     C37468  10.509   3.172   1.118  0.7343  0.0717 -0.0576
  997MOL0     C37469  10.586   3.289   1.164  0.6791 -0.4746  0.4133
  997MOL0     C37470  10.490   3.401   1.201  0.7956 -0.1161 -0.8524
  997MOL0     C37471  10.563   3.530   1.249 -0.4965 -0.7403  0.1112
  997MOL0     O37472  10.673   3.563   1.159 -0.4753  0.0833 -0.7639
  997MOL0     C37473  10.747   3.675   1.201  0.9226 -0.3701  0.2301
  997MOL0     C37474  10.720   3.772   1.303  0.3659  0.3488  1.0015
  997MOL0     C37475  10.822   3.847   1.356  0.3175  0.0204  0.6278
  997MOL0     C37476  10.788   3.930   1.480 -0.0147 -0.4963  0.5419
  997MOL0     C37477  10.955   3.850   1.298 -0.2831  0.1532 -0.1684
  997MOL0     C37478  11.067   3.942   1.332 -0.3330  0.6597 -0.5609
  997MOL0     O37479  11.186   3.915   1.276 -0.4893 -0.4269  0.1135
  997MOL0     C37480  11.289   4.001   1.300  0.8736  0.3498 -0.5358
  997MOL0     C37481  11.329   4.065   1.414 -0.0360 -0.1974 -0.3464
  997MOL0     C37482  11.430   4.161   1.417 -0.8438  0.1569 -0.1842
  997MOL0     C37483  11.521   4.168   1.308  0.8866  1.0177 -0.4701
  997MOL0     O37484  11.623   4.261   1.328 -0.3594 -0.3844  0.7735
  997MOL0     C37485  11.723   4.272   1.229  0.1586  0.6004  0.1676
  997MOL0     C37486  11.814   4.380   1.282  0.1988  0.2962 -1.0289
  997MOL0     C37487  11.948   4.380   1.215 -0.8633 -0.2253 -0.3220
  997MOL0     C37488  12.073   4.389   1.301  0.2485  0.8307 -0.6611
  997MOL0     C37489  12.199   4.390   1.222  0.5901 -0.0966  1.4701
  997MOL0     C37490  12.226   4.518   1.146 -0.6051  0.4492 -0.3134
  997MOL0     C37491  12.372   4.535   1.102 -0.5162  0.1607  0.0089
  997MOL0     C37492  12.466   4.583   1.211 -0.5165 -0.3508 -0.0053
  997MOL0    Cl37493  12.633   4.616   1.141 -0.0901 -0.1344 -0.0526
  997MOL0     C37494  11.495   4.083   1.199 -0.0141 -0.4231  0.1002
  997MOL0     C37495  11.376   4.004   1.196 -0.3515  0.1362  0.0499
  997MOL0     O37496  11.044   4.049   1.391 -0.0264 -0.3589  0.1415
  997MOL0     C37497  10.976   3.761   1.198  0.0909  0.1037  0.6813
  997MOL0     C37498  10.874   3.683   1.145 -0.2438 -0.4572  0.8086
  997MOL0     N37499  10.452   3.124   0.872  0.0307  0.6494  0.3505
  997MOL0     N37500  10.342   3.125   0.800 -0.3300 -0.3513  0.2164
  997MOL0     C37501   9.159   3.863   0.569 -0.2233  0.3414  0.1910
  997MOL0     C37502   9.083   3.969   0.565  0.9722  0.4330 -0.4301
  997MOL0     C37503   8.822   4.336   0.679  0.3910 -0.0764 -0.5602
  997MOL0     C37504   8.835   4.477   0.672  0.0012  0.1514  0.2877
  997MOL0     C37505   8.726   4.549   0.622 -1.2435  0.2409  0.4488
  997MOL0     C37506   8.606   4.489   0.581  0.0123 -0.0679  0.3613
  997MOL0     O37507   8.495   4.571   0.540  0.1252  0.4716  0.4900
  997MOL0     C37508   8.429   4.509   0.428  0.0063 -0.0949  0.1222
  997MOL0     C37509   8.314   4.596   0.376  0.9166 -0.3076 -0.1914
  997MOL0     C37510   8.285   4.562   0.225  0.2688 -0.5044 -0.1240
  997MOL0     C37511   8.216   4.677   0.147 -0.8590 -0.5449 -0.1134
  997MOL0     C37512   8.233   4.656   0.001 -0.6921  0.4827  0.2323
  997MOL0     C37513   8.246   4.626  -0.113 -0.0083 -0.3454  0.2160
  997MOL0     C37514   8.595   4.349   0.610 -0.5365  0.0104  0.0007
  997MOL0     C37515   8.702   4.271   0.650 -0.0424 -0.3642 -0.1737
  997MOL0     C37516   8.677   4.124   0.679  0.5757  0.1251  0.0416
  997MOL0     H37517   9.071   4.070   0.887  0.9244 -0.1109  0.9404
  997MOL0     H37518   9.217   3.860   0.895 -0.4551  0.4576  0.0557
  997MOL0     H37519   9.379   3.669   0.873 -3.2162 -0.8691 -0.5847
  997MOL0     H37520   9.420   3.809   0.771 -8.7679  2.4083 -0.8106
  997MOL0     H37521   9.439   3.516   0.692  0.0345 -0.2810 -1.1979
  997MOL0     H37522   9.505   3.647   0.599  0.5052 -0.5677  0.0330
  997MOL0     H37523   9.673   3.691   0.744 -1.8024  1.5841 -2.4407
  997MOL0     H37524   9.604   3.570   0.873 -1.4986  0.5569 -0.1228
  997MOL0     H37525   9.638   3.394   0.714 -1.4122  1.4082 -0.6093
  997MOL0     H37526   9.725   3.508   0.612 -0.3548  0.4534 -0.1746
  997MOL0     H37527   9.819   3.467   0.905  3.3013  0.4555  0.6491
  997MOL0     H37528   9.891   3.562   0.781 -1.3493  1.0378 -0.8993
  997MOL0     H37529   9.839   3.260   0.791  0.5616  0.8084  2.2110
  997MOL0     H37530   9.907   3.331   0.652  1.8708 -1.9508  0.5605
  997MOL0     H37531  10.043   3.377   0.918 -1.8672 -2.0161  0.5227
  997MOL0     H37532  10.114   3.376   0.744 -0.3395  1.4365 -0.0304
  997MOL0     H37533  10.025   3.152   0.915  1.2601 -0.8755 -0.0174
  997MOL0     H37534  10.070   3.126   0.751 -0.8111  0.3135  1.3825
  997MOL0     H37535  10.222   3.246   1.065 -0.3197  0.7709  0.2307
  997MOL0     H37536  10.583   3.093   1.106  0.8319  0.1867 -0.2190
  997MOL0     H37537  10.448   3.140   1.203  2.4729  0.7214  1.5022
  997MOL0     H37538  10.654   3.264   1.246 -0.1149 -0.5721  1.0606
  997MOL0     H37539  10.640   3.330   1.079  0.3858 -0.7444  0.0971
  997MOL0     H37540  10.432   3.432   1.113  1.6438  1.2830 -0.9637
  997MOL0     H37541  10.425   3.374   1.284  2.0344  0.7806  0.4675
  997MOL0     H37542  10.496   3.617   1.244 -0.7473 -0.8388  1.4716
  997MOL0     H37543  10.594   3.525   1.354 -0.5376 -0.3439  0.1453
  997MOL0     H37544  10.620   3.784   1.343  0.0179  0.7126  0.0495
  997MOL0     H37545  10.711   3.880   1.539 -2.1272 -0.9236 -2.3355
  997MOL0     H37546  10.751   4.031   1.459 -0.2138 -0.2325  2.0678
  997MOL0     H37547  10.881   3.922   1.537  0.4451  0.8912  0.0216
  997MOL0     H37548  11.271   4.059   1.506 -0.3832  3.5881 -0.1432
  997MOL0     H37549  11.451   4.225   1.502  1.9955 -1.6759  0.6139
  997MOL0     H37550  11.771   4.173   1.222 -2.7274 -0.9305  0.3993
  997MOL0     H37551  11.681   4.307   1.134 -0.8680  0.6956  0.6477
  997MOL0     H37552  11.775   4.481   1.265  0.8808  0.8675  0.6734
  997MOL0     H37553  11.821   4.376   1.391 -0.6029  0.5366 -0.9624
  997MOL0     H37554  11.958   4.469   1.151  1.9685 -0.4977 -0.3713
  997MOL0     H37555  11.972   4.291   1.156  2.2513  0.4012 -0.1547
  997MOL0     H37556  12.074   4.302   1.367 -1.1935  0.6796 -0.7992
  997MOL0     H37557  12.074   4.481   1.360  1.1387 -0.5239  1.5468
  997MOL0     H37558  12.283   4.358   1.285  0.9731  0.2139  1.1319
  997MOL0     H37559  12.197   4.306   1.152  0.8457  0.4821  0.7494
  997MOL0     H37560  12.184   4.598   1.207 -4.7371 -0.6536 -1.4357
  997MOL0     H37561  12.166   4.516   1.055 -0.6989  1.7755 -0.2948
  997MOL0     H37562  12.377   4.600   1.014 -2.3750 -0.0965 -0.3140
  997MOL0     H37563  12.415   4.436   1.084  3.2924  0.6960  4.2199
  997MOL0     H37564  12.474   4.507   1.290 -0.0264  0.8216  1.0993
  997MOL0     H37565  12.427   4.669   1.265  2.4675  2.0859 -1.3843
  997MOL0     H37566  11.568   4.091   1.120 -0.5105  1.5238 -0.2134
  997MOL0     H37567  11.341   3.945   1.112  0.0943  1.5352 -1.1743
  997MOL0     H37568  11.070   3.753   1.144  1.5533  1.0479  2.9354
  997MOL0     H37569  10.906   3.610   1.072 -2.6321 -0.3497 -0.4517
  997MOL0     H37570   9.175   3.793   0.487  2.1839 -0.6977  1.4502
  997MOL0     H37571   9.022   4.005   0.483 -0.2070 -0.9781 -0.2005
  997MOL0     H37572   8.920   4.541   0.695 -0.6263  0.5229  1.6875
  997MOL0     H37573   8.728   4.653   0.590 -0.9604 -0.4390 -1.9490
  997MOL0     H37574   8.500   4.485   0.349 -0.1897 -0.0951 -0.0541
  997MOL0     H37575   8.383   4.414   0.456  1.0075 -2.2468 -4.5938
  997MOL0     H37576   8.348   4.700   0.384  0.0443  0.0138 -0.6165
  997MOL0     H37577   8.226   4.574   0.437  0.9912 -1.9050 -0.6135
  997MOL0     H37578   8.378   4.535   0.173 -0.3186 -0.3501 -1.2944
  997MOL0     H37579   8.223   4.472   0.227 -3.3079  1.7974  1.5880
  997MOL0     H37580   8.277   4.767   0.161 -2.6780  0.9956 -1.6103
  997MOL0     H37581   8.114   4.697   0.180 -0.5163 -0.2014  0.7888
  997MOL0     H37582   8.263   4.617  -0.218  0.4675  1.7652  0.0646
  997MOL0     H37583   8.503   4.292   0.602 -2.3467  2.7553  0.1792
  997MOL0     H37584   8.690   4.072   0.584 -1.6952  0.9866 -0.7940
  997MOL0     H37585   8.748   4.089   0.755 -0.1984 -0.6536  0.4266
  997MOL0     H37586   8.577   4.093   0.709  1.0423 -1.1203  0.3752
  998MOL0     O37587   1.977   8.186   7.874  0.8703 -0.6938  0.3519
  998MOL0     C37588   1.942   8.212   7.995 -0.3698  0.6053 -0.1305
  998MOL0     O37589   2.017   8.183   8.105 -0.3091  0.5384 -0.1620
  998MOL0     C37590   2.149   8.149   8.071  0.7557  0.2506 -0.7099
  998MOL0     C37591   2.216   8.233   7.989 -0.2767 -0.2098  0.3972
  998MOL0     C37592   2.351   8.205   7.960  0.1481  0.2732 -0.4600
  998MOL0     C37593   2.414   8.090   8.006 -0.0252 -0.1532 -0.5313
  998MOL0     O37594   2.542   8.054   7.976  0.3027 -0.0590  0.6483
  998MOL0     C37595   2.598   8.066   7.838  0.3011  0.7158 -0.4599
  998MOL0     C37596   2.704   7.959   7.821  0.3918  0.8806 -0.7402
  998MOL0     C37597   2.824   7.990   7.914 -0.8006 -0.2167 -0.0844
  998MOL0     C37598   2.939   7.882   7.896 -0.1332  0.0985  0.6399
  998MOL0     C37599   3.068   7.924   7.953  0.6923  0.3684  0.5753
  998MOL0     C37600   3.163   7.807   7.962 -0.3550  0.6976  0.4816
  998MOL0     C37601   3.306   7.856   7.989 -0.8328 -0.3506 -0.2984
  998MOL0     C37602   3.370   7.746   8.075 -0.6264  1.2262  0.1709
  998MOL0     N37603   3.510   7.774   8.105 -0.2525  0.3007 -1.1423
  998MOL0     C37604   3.571   7.880   8.173  0.4326 -0.3062 -0.1833
  998MOL0     C37605   3.705   7.877   8.151 -0.4604  0.4149 -0.4132
  998MOL0     C37606   3.819   7.960   8.209 -0.2265  0.0779 -0.3817
  998MOL0     C37607   3.763   8.071   8.302 -1.0210 -0.4729 -0.8309
  998MOL0     C37608   3.846   8.204   8.316  0.1495 -0.4781 -0.6330
  998MOL0     C37609   3.766   8.317   8.385 -0.5162  0.6982  0.6579
  998MOL0     O37610   3.659   8.355   8.307 -0.2074  0.2128  0.0841
  998MOL0     C37611   3.589   8.468   8.339  0.0813  0.2389 -0.0716
  998MOL0     C37612   3.647   8.592   8.340  0.3983  0.2902  0.0284
  998MOL0     C37613   3.576   8.706   8.370  0.7390  0.2041  0.1874
  998MOL0     C37614   3.639   8.840   8.357 -0.0312  0.4023 -0.1849
  998MOL0     C37615   3.437   8.694   8.416  0.0404 -0.6568  0.0939
  998MOL0     C37616   3.358   8.804   8.481 -0.1171  0.6095  0.0641
  998MOL0     O37617   3.223   8.786   8.486 -0.0820 -0.2605  0.4659
  998MOL0     C37618   3.148   8.864   8.572 -0.4365 -0.2489  0.2113
  998MOL0     C37619   3.059   8.810   8.659 -0.1422 -0.2243 -0.8584
  998MOL0     C37620   2.973   8.876   8.753  0.2784 -0.5500  0.4592
  998MOL0     C37621   2.981   9.015   8.756 -0.3667  0.0079 -0.3485
  998MOL0     O37622   2.897   9.079   8.847  0.9457  0.5534 -0.7119
  998MOL0     C37623   2.872   9.217   8.835 -0.2588 -0.3853  0.2490
  998MOL0     C37624   2.753   9.244   8.737 -0.2147 -0.0364  0.2322
  998MOL0     C37625   2.712   9.386   8.721  0.0179 -0.2482 -0.8164
  998MOL0     C37626   2.630   9.432   8.847 -0.3306  0.0423  0.1582
  998MOL0     C37627   2.547   9.561   8.818  0.6732 -0.3424  0.7587
  998MOL0     C37628   2.635   9.682   8.772 -0.3844  0.2521  0.2332
  998MOL0     C37629   2.582   9.822   8.798  0.3378 -0.4145  0.0255
  998MOL0     C37630   2.607   9.883   8.934  0.8090 -0.1187  0.2282
  998MOL0    Cl37631   2.778   9.931   8.953  0.3153 -0.3777  0.4160
  998MOL0     C37632   3.070   9.073   8.663  0.9056 -1.0675 -0.2017
  998MOL0     C37633   3.145   9.003   8.572 -0.4027  0.4101 -0.0593
  998MOL0     O37634   3.424   8.893   8.532  0.4170 -0.3591  0.3746
  998MOL0     C37635   3.386   8.561   8.412 -0.2652 -0.3796 -0.1059
  998MOL0     C37636   3.458   8.448   8.370  0.4598 -0.3937 -0.1974
  998MOL0     N37637   3.726   7.768   8.066  0.9552 -0.1777 -1.0576
  998MOL0     N37638   3.611   7.707   8.043  0.9073 -0.3358  0.1862
  998MOL0     C37639   2.337   8.008   8.092  0.8378  0.4573  0.4072
  998MOL0     C37640   2.202   8.033   8.117  0.1724  0.3206 -0.7261
  998MOL0     C37641   1.811   8.277   8.010 -0.4936 -0.4700 -0.9111
  998MOL0     C37642   1.694   8.218   7.946  0.2066  0.3894  0.2114
  998MOL0     C37643   1.567   8.272   7.981  0.3721  0.0631 -0.6012
  998MOL0     C37644   1.542   8.387   8.057 -0.6167  0.2017 -0.3063
  998MOL0     O37645   1.407   8.416   8.086  0.2572  0.0892 -0.0861
  998MOL0     C37646   1.375   8.505   8.199  0.3395 -0.2985  0.9126
  998MOL0     C37647   1.348   8.642   8.141  0.5367  0.1005  0.5848
  998MOL0     C37648   1.291   8.746   8.248 -0.3765  0.4201 -0.0464
  998MOL0     C37649   1.397   8.856   8.273 -0.2376  0.1304  0.4630
  998MOL0     C37650   1.515   8.801   8.343  0.1609  0.2606  0.5804
  998MOL0     C37651   1.609   8.755   8.405  0.2109  0.3184 -0.6895
  998MOL0     C37652   1.653   8.448   8.104 -0.2315 -0.1005  0.3263
  998MOL0     C37653   1.785   8.392   8.093 -0.1429 -0.8477 -0.6092
  998MOL0     C37654   1.894   8.472   8.158  0.1065 -0.2156  0.7550
  998MOL0     H37655   2.171   8.328   7.960  0.8171  0.1163 -0.3060
  998MOL0     H37656   2.411   8.273   7.900 -0.2118  0.8910 -0.1331
  998MOL0     H37657   2.656   8.159   7.829  0.0183  0.9834  0.4200
  998MOL0     H37658   2.517   8.060   7.765 -1.5132  1.2346  1.4119
  998MOL0     H37659   2.655   7.862   7.831 -3.0024  2.4728 -0.4257
  998MOL0     H37660   2.739   7.965   7.717 -1.4886  0.9535 -1.4193
  998MOL0     H37661   2.865   8.090   7.902 -1.5789  0.2096  0.6996
  998MOL0     H37662   2.787   7.985   8.017 -1.0357 -0.1980 -0.1652
  998MOL0     H37663   2.917   7.785   7.941  1.7413 -1.6423 -1.8658
  998MOL0     H37664   2.943   7.855   7.790  1.3577 -0.5237  0.8240
  998MOL0     H37665   3.045   7.983   8.042 -0.1540  1.3429 -0.2628
  998MOL0     H37666   3.110   7.999   7.886  0.1977 -0.2898 -0.5072
  998MOL0     H37667   3.131   7.741   8.044 -1.6192  1.2788  0.4769
  998MOL0     H37668   3.172   7.751   7.869 -0.4448  1.0735  0.2453
  998MOL0     H37669   3.320   7.955   8.033  1.3690  0.7136 -3.0907
  998MOL0     H37670   3.364   7.869   7.897  2.2016 -2.8197  1.0406
  998MOL0     H37671   3.321   7.729   8.171  2.1979  0.1088  1.5473
  998MOL0     H37672   3.372   7.653   8.017  1.7864  1.7002 -0.6440
  998MOL0     H37673   3.506   7.945   8.230 -0.4871 -0.0070 -1.5211
  998MOL0     H37674   3.871   8.000   8.122 -0.5876  0.5771 -0.3747
  998MOL0     H37675   3.881   7.891   8.266 -1.1271  0.8095  1.5756
  998MOL0     H37676   3.663   8.106   8.276 -1.5014  1.0539  2.5026
  998MOL0     H37677   3.743   8.024   8.399  1.4321  0.0473 -0.0189
  998MOL0     H37678   3.932   8.183   8.380 -0.6398  2.0111  1.4344
  998MOL0     H37679   3.868   8.242   8.216  1.8342  1.3158  0.3521
  998MOL0     H37680   3.728   8.300   8.486 -5.0428 -1.3819 -1.1115
  998MOL0     H37681   3.829   8.407   8.376  1.3112 -0.4313  1.5728
  998MOL0     H37682   3.751   8.612   8.318  0.5606 -0.3609  0.1762
  998MOL0     H37683   3.700   8.847   8.266 -2.4873 -0.1401 -1.9636
  998MOL0     H37684   3.695   8.853   8.451 -3.0882 -2.3390  2.2398
  998MOL0     H37685   3.571   8.925   8.348  0.6544  0.8277 -1.6941
  998MOL0     H37686   3.061   8.702   8.663 -1.3141 -0.2801 -1.2924
  998MOL0     H37687   2.919   8.820   8.829 -0.8882  0.0761  0.1241
  998MOL0     H37688   2.849   9.254   8.936 -0.3536 -2.5268  1.0722
  998MOL0     H37689   2.960   9.270   8.799 -1.6693  2.1040  0.2345
  998MOL0     H37690   2.775   9.205   8.638  3.1187  1.1703  0.3475
  998MOL0     H37691   2.671   9.187   8.782 -1.7922  1.7769 -0.2155
  998MOL0     H37692   2.649   9.390   8.632 -0.4102  1.2750 -0.4726
  998MOL0     H37693   2.802   9.443   8.696  2.5135 -3.2384  0.6057
  998MOL0     H37694   2.696   9.446   8.933 -0.4519 -1.6011  0.5540
  998MOL0     H37695   2.554   9.355   8.868 -2.1924  0.8794 -2.9289
  998MOL0     H37696   2.482   9.544   8.731  2.6104  0.0254 -0.8509
  998MOL0     H37697   2.481   9.580   8.903 -0.7551 -0.5513 -0.2664
  998MOL0     H37698   2.646   9.676   8.663 -3.4076  0.6980 -0.1663
  998MOL0     H37699   2.735   9.664   8.814 -0.8782 -0.7820  1.0111
  998MOL0     H37700   2.475   9.809   8.781  0.6609  0.2424 -3.1051
  998MOL0     H37701   2.612   9.893   8.721 -1.2945  1.3172  0.8954
  998MOL0     H37702   2.569   9.814   9.010 -0.1595  2.7699  2.5259
  998MOL0     H37703   2.542   9.968   8.955 -0.0241 -1.2758  2.8347
  998MOL0     H37704   3.079   9.181   8.656  0.2682 -0.8488  1.7852
  998MOL0     H37705   3.215   9.057   8.509  0.2647 -0.6975 -0.3081
  998MOL0     H37706   3.285   8.544   8.448 -0.9083  3.1008  0.0815
  998MOL0     H37707   3.409   8.352   8.372 -1.4708  0.5129 -1.0814
  998MOL0     H37708   2.382   7.922   8.142  0.4108  0.3742  0.6580
  998MOL0     H37709   2.149   7.962   8.180  0.7670  1.4287  1.1013
  998MOL0     H37710   1.704   8.129   7.885 -1.0852 -0.0538  0.6085
  998MOL0     H37711   1.479   8.216   7.950 -1.2419  1.7101  0.7577
  998MOL0     H37712   1.282   8.478   8.251  0.3439 -0.8208  0.6550
  998MOL0     H37713   1.450   8.500   8.279 -0.0119 -2.7358  1.1678
  998MOL0     H37714   1.275   8.626   8.062 -1.3637 -1.4959  2.5390
  998MOL0     H37715   1.438   8.681   8.092  0.4162 -1.9671 -1.4408
  998MOL0     H37716   1.208   8.800   8.201  1.2732  0.1905 -3.6094
  998MOL0     H37717   1.252   8.697   8.337  1.1831  1.1275  1.0714
  998MOL0     H37718   1.349   8.932   8.334 -2.9548 -0.2057 -1.0754
  998MOL0     H37719   1.427   8.910   8.182  2.2733  0.2114  1.2644
  998MOL0     H37720   1.687   8.715   8.466 -0.4805 -0.6683 -0.4278
  998MOL0     H37721   1.639   8.543   8.154 -1.6733  0.8675 -1.7922
  998MOL0     H37722   1.883   8.577   8.127 -1.5663 -1.0174 -1.7381
  998MOL0     H37723   1.882   8.461   8.266 -1.6440 -0.3772  0.5691
  998MOL0     H37724   1.992   8.434   8.128  0.0327  1.3281 -1.8088
  999MOL0     O37725   5.999  10.287   4.014 -0.1852 -0.1378  0.6629
  999MOL0     C37726   5.936  10.372   3.951 -0.2989 -0.0219 -0.0816
  999MOL0     O37727   5.974  10.505   3.931  0.2044  0.1132  0.0820
  999MOL0     C37728   6.087  10.548   3.974  0.2618 -0.9483 -0.6059
  999MOL0     C37729   6.115  10.552   4.111  1.0090 -0.2960 -0.2147
  999MOL0     C37730   6.234  10.607   4.167 -0.0280 -0.7382  0.6802
  999MOL0     C37731   6.334  10.663   4.076  0.4850  0.0207  0.1883
  999MOL0     O37732   6.451  10.715   4.122  0.1335 -0.0035  0.4867
  999MOL0     C37733   6.568  10.650   4.071  0.0312  0.6594 -0.4099
  999MOL0     C37734   6.668  10.757   4.020  0.1221  0.3222  0.1559
  999MOL0     C37735   6.761  10.705   3.911 -0.8640 -0.5324  0.6208
  999MOL0     C37736   6.878  10.617   3.960 -0.1345 -0.2393  0.3707
  999MOL0     C37737   6.990  10.593   3.850  0.7003 -0.3269 -0.0662
  999MOL0     C37738   7.090  10.514   3.927  0.0926  0.5858  0.7415
  999MOL0     C37739   7.217  10.503   3.843  0.4353 -0.4072 -0.0297
  999MOL0     C37740   7.212  10.371   3.760  0.1952 -0.3889 -0.0097
  999MOL0     N37741   7.346  10.350   3.713  0.7073  0.4917 -0.0315
  999MOL0     C37742   7.400  10.412   3.608  0.4398 -0.0052 -0.1414
  999MOL0     C37743   7.522  10.358   3.593 -0.4242 -0.0880 -0.0426
  999MOL0     C37744   7.616  10.380   3.480  0.0943  0.3302  0.6215
  999MOL0     C37745   7.756  10.305   3.467 -0.7658  0.4520 -0.1783
  999MOL0     C37746   7.738  10.168   3.396 -0.5699 -0.2081 -0.2829
  999MOL0     C37747   7.860  10.083   3.421  0.2187 -0.3563 -0.4695
  999MOL0     O37748   7.972  10.167   3.387 -0.1864  1.1849 -0.4972
  999MOL0     C37749   8.093  10.113   3.418 -0.6334  0.6767 -0.4361
  999MOL0     C37750   8.204  10.203   3.409  0.4289 -0.5326 -0.3203
  999MOL0     C37751   8.330  10.159   3.445  0.3776  0.6112  0.0360
  999MOL0     C37752   8.437  10.255   3.400 -0.1707  0.4633 -0.1632
  999MOL0     C37753   8.356  10.032   3.491 -0.1136  0.5803  0.6685
  999MOL0     C37754   8.488   9.971   3.523 -0.5000  1.0981  0.6245
  999MOL0     O37755   8.493   9.842   3.566  0.2823 -0.3635 -0.0551
  999MOL0     C37756   8.613   9.790   3.602  0.4635 -0.6891  0.3381
  999MOL0     C37757   8.696   9.760   3.492  0.3321 -0.2983  0.3041
  999MOL0     C37758   8.823   9.699   3.508 -0.0204 -0.2801  0.1567
  999MOL0     C37759   8.867   9.664   3.637  0.0662  0.0640 -0.4747
  999MOL0     O37760   8.990   9.616   3.661 -0.2084  0.1514  0.1292
  999MOL0     C37761   9.079   9.569   3.556  0.3163 -0.0342 -0.2209
  999MOL0     C37762   9.218   9.531   3.611  0.8338 -0.8433 -1.1273
  999MOL0     C37763   9.323   9.499   3.491 -0.1470  1.0456 -0.0731
  999MOL0     C37764   9.459   9.547   3.541  0.5443  0.8141  1.1154
  999MOL0     C37765   9.571   9.491   3.464 -0.2756 -0.3287 -0.0306
  999MOL0     C37766   9.701   9.526   3.539 -0.0709  0.1907  0.6045
  999MOL0     C37767   9.829   9.468   3.473 -0.3531 -0.4720  0.3435
  999MOL0     C37768   9.955   9.532   3.540 -0.2433 -0.0743 -0.0437
  999MOL0    Cl37769  10.090   9.438   3.481  0.3057  0.1997  0.1143
  999MOL0     C37770   8.788   9.700   3.749 -0.1606  0.0488 -0.7789
  999MOL0     C37771   8.661   9.766   3.725 -0.7150  0.5220 -0.7686
  999MOL0     O37772   8.593  10.037   3.504 -0.2957 -0.2074 -0.2601
  999MOL0     C37773   8.244   9.944   3.509  0.9016  0.3777  0.4670
  999MOL0     C37774   8.119   9.979   3.472  0.1678 -0.3004  0.4495
  999MOL0     N37775   7.534  10.260   3.689 -0.3869  0.1857 -0.9530
  999MOL0     N37776   7.439  10.264   3.770  0.4405  0.0911  0.3678
  999MOL0     C37777   6.305  10.664   3.937  0.4346 -0.7309 -0.2225
  999MOL0     C37778   6.184  10.609   3.891  0.0265 -0.6411  0.8355
  999MOL0     C37779   5.804  10.328   3.903  0.4225 -0.8892 -0.0153
  999MOL0     C37780   5.701  10.424   3.901 -0.3865  0.0879 -0.8766
  999MOL0     C37781   5.575  10.388   3.863 -0.1389  0.0095  0.5179
  999MOL0     C37782   5.539  10.261   3.822  1.0032  0.4199  0.1338
  999MOL0     O37783   5.404  10.221   3.785 -0.1287  0.1277  0.2297
  999MOL0     C37784   5.300  10.310   3.824 -0.2616 -0.3458 -0.6286
  999MOL0     C37785   5.168  10.229   3.822  0.1418 -0.0303  0.0901
  999MOL0     C37786   5.049  10.324   3.799  0.3617 -0.7287 -0.5762
  999MOL0     C37787   4.913  10.270   3.840  0.8779 -0.0200  0.0778
  999MOL0     C37788   4.883  10.139   3.790  0.1996  0.2593  0.4987
  999MOL0     C37789   4.894  10.029   3.735  0.6532 -0.2047  0.1110
  999MOL0     C37790   5.638  10.169   3.818  0.7941 -0.2646 -0.1412
  999MOL0     C37791   5.768  10.197   3.855 -0.0267  0.9936  0.2468
  999MOL0     C37792   5.859  10.081   3.855 -0.2305  0.8248  0.5138
  999MOL0     H37793   6.038  10.510   4.175 -2.0613 -1.4441 -4.1792
  999MOL0     H37794   6.243  10.615   4.275  1.0763  2.8749  0.4652
  999MOL0     H37795   6.548  10.582   3.987  0.2694  0.8605 -0.6324
  999MOL0     H37796   6.620  10.586   4.143 -1.5396 -0.1830  0.0202
  999MOL0     H37797   6.613  10.843   3.981  1.6653  0.6455 -1.4894
  999MOL0     H37798   6.730  10.796   4.101 -0.2738  1.5679 -0.1223
  999MOL0     H37799   6.699  10.653   3.838 -1.6885 -0.8525  1.5319
  999MOL0     H37800   6.793  10.799   3.865 -5.2381  2.4492  2.9772
  999MOL0     H37801   6.922  10.676   4.041  0.5077  4.1111 -2.8241
  999MOL0     H37802   6.838  10.520   3.992 -0.1057 -0.5405 -0.4867
  999MOL0     H37803   7.020  10.694   3.821 -3.5596  1.0764 -0.3133
  999MOL0     H37804   6.961  10.529   3.767  1.7518  1.1078 -1.5947
  999MOL0     H37805   7.110  10.562   4.023 -0.7461  1.1829  0.6260
  999MOL0     H37806   7.057  10.411   3.945  1.8699  0.3469  3.2227
  999MOL0     H37807   7.299  10.494   3.915  0.7386  0.2639 -0.2797
  999MOL0     H37808   7.221  10.596   3.787 -2.0416  1.1384  2.1164
  999MOL0     H37809   7.191  10.284   3.823  3.8602 -0.4902  1.2608
  999MOL0     H37810   7.139  10.384   3.679 -0.8039  2.4370  1.2036
  999MOL0     H37811   7.347  10.484   3.546 -0.6753  0.0185  0.8057
  999MOL0     H37812   7.641  10.485   3.495 -2.2020  0.6756  2.5752
  999MOL0     H37813   7.567  10.378   3.382  0.6018 -0.1492  0.3707
  999MOL0     H37814   7.834  10.364   3.417  1.1451 -2.3652 -0.8094
  999MOL0     H37815   7.793  10.289   3.569 -0.6667 -1.1574 -0.4417
  999MOL0     H37816   7.649  10.119   3.437 -1.3342  0.5518 -0.9909
  999MOL0     H37817   7.731  10.177   3.287 -0.4551 -2.1365 -0.4856
  999MOL0     H37818   7.869  10.057   3.527  0.4460 -0.4729 -0.5152
  999MOL0     H37819   7.861   9.994   3.358 -1.3285 -1.1346  0.5459
  999MOL0     H37820   8.186  10.308   3.385  2.1477  0.0610  0.8786
  999MOL0     H37821   8.490  10.207   3.317 -1.5187 -0.1306 -0.7085
  999MOL0     H37822   8.506  10.282   3.480  3.4351 -0.5178 -2.6567
  999MOL0     H37823   8.392  10.342   3.352  0.3328  0.0412 -1.4538
  999MOL0     H37824   8.658   9.781   3.393 -1.1811  0.6387  1.0486
  999MOL0     H37825   8.884   9.675   3.422  1.1797 -1.1112  1.2027
  999MOL0     H37826   9.041   9.477   3.512  2.2379 -0.9710 -0.0126
  999MOL0     H37827   9.098   9.652   3.487 -0.5744  0.8872  0.6063
  999MOL0     H37828   9.249   9.619   3.668  0.1643 -1.2806 -0.0779
  999MOL0     H37829   9.198   9.443   3.672 -1.3995  1.6079  2.0165
  999MOL0     H37830   9.294   9.548   3.397  0.3324  3.0921  0.7913
  999MOL0     H37831   9.318   9.391   3.478  0.2240  0.7235  2.1833
  999MOL0     H37832   9.478   9.520   3.645 -2.3279 -1.2128  1.2363
  999MOL0     H37833   9.459   9.656   3.545  0.7972  0.8253  0.8199
  999MOL0     H37834   9.560   9.383   3.447 -1.5322 -0.0512 -1.1468
  999MOL0     H37835   9.574   9.554   3.375 -1.6047 -0.5363 -0.2469
  999MOL0     H37836   9.699   9.503   3.646  5.0672  3.2930  1.7013
  999MOL0     H37837   9.708   9.634   3.527  0.1397  0.1976  0.7807
  999MOL0     H37838   9.832   9.489   3.366  2.7029 -0.0493  0.4302
  999MOL0     H37839   9.836   9.359   3.479  4.0789 -0.5106 -1.7550
  999MOL0     H37840   9.965   9.524   3.649  0.6182  2.5421  0.1514
  999MOL0     H37841   9.951   9.636   3.507  0.1638 -0.3873 -1.1058
  999MOL0     H37842   8.826   9.689   3.850 -0.7793  1.1891 -0.4083
  999MOL0     H37843   8.601   9.806   3.806 -2.5031 -1.3341 -1.1296
  999MOL0     H37844   8.265   9.839   3.523  2.0136  0.4175 -0.7354
  999MOL0     H37845   8.039   9.905   3.472 -0.4984  0.3101 -1.8216
  999MOL0     H37846   6.383  10.702   3.872  0.2789  0.2368  0.1355
  999MOL0     H37847   6.162  10.612   3.785  1.8433 -0.5116  0.4317
  999MOL0     H37848   5.715  10.527   3.934 -0.7453 -0.1473  0.0393
  999MOL0     H37849   5.495  10.461   3.855  2.3801  2.7110 -3.2682
  999MOL0     H37850   5.312  10.341   3.928 -1.5741  0.4761 -0.7003
  999MOL0     H37851   5.290  10.396   3.757 -2.9542  1.1225  1.4486
  999MOL0     H37852   5.151  10.173   3.914  0.3898 -0.7659 -0.3017
  999MOL0     H37853   5.175  10.161   3.737 -0.4560 -0.6449  0.5215
  999MOL0     H37854   5.061  10.418   3.854  0.0083 -2.6044  2.9942
  999MOL0     H37855   5.033  10.345   3.693  0.4982  0.2277 -0.4216
  999MOL0     H37856   4.839  10.337   3.797 -0.2191 -0.4034  1.3061
  999MOL0     H37857   4.892  10.271   3.948 -1.9233 -0.1054 -0.3993
  999MOL0     H37858   4.893   9.934   3.686 -2.3841 -0.1379 -0.1369
  999MOL0     H37859   5.618  10.069   3.781  1.1988 -0.2482 -0.4178
  999MOL0     H37860   5.903  10.059   3.953 -1.7202 -1.4547  0.7328
  999MOL0     H37861   5.817   9.992   3.809  1.1527  1.5098 -2.2818
  999MOL0     H37862   5.944  10.097   3.788 -1.9724  1.5852 -1.6348
 1000MOL0     O37863   7.739   2.722  10.927  0.0987  0.5480 -0.0790
 1000MOL0     C37864   7.725   2.842  10.960  0.2479  0.0744 -0.1599
 1000MOL0     O37865   7.830   2.939  10.964  0.1804  0.5583 -0.2613
 1000MOL0     C37866   7.955   2.885  10.951  0.9088  0.4098 -0.3356
 1000MOL0     C37867   8.044   2.873  11.050  0.2337  0.3313  0.1743
 1000MOL0     C37868   8.168   2.810  11.024 -0.1241 -0.2081  0.3399
 1000MOL0     C37869   8.207   2.774  10.895  0.6047  0.2529  0.1688
 1000MOL0     O37870   8.339   2.731  10.885 -0.2133  0.2507  0.1276
 1000MOL0     C37871   8.384   2.692  10.756  0.1876 -0.2261  0.1206
 1000MOL0     C37872   8.440   2.794  10.659 -0.2047  0.2581 -0.4854
 1000MOL0     C37873   8.574   2.860  10.705  0.2418  0.3290  1.4207
 1000MOL0     C37874   8.693   2.764  10.685 -0.2713 -0.0262 -0.9853
 1000MOL0     C37875   8.831   2.816  10.737 -0.2426  0.4684  0.5842
 1000MOL0     C37876   8.938   2.708  10.731  0.6559 -0.7350 -0.2222
 1000MOL0     C37877   9.044   2.718  10.847  0.1766 -0.3382  0.3299
 1000MOL0     C37878   9.118   2.847  10.841  0.2332 -0.0897  0.3191
 1000MOL0     N37879   9.185   2.876  10.966  0.0682  0.1896  0.1767
 1000MOL0     C37880   9.136   2.952  11.071  0.0982  0.2983  0.1812
 1000MOL0     C37881   9.240   2.985  11.148 -0.3270  0.2123  0.6810
 1000MOL0     C37882   9.222   3.080  11.262 -0.6607 -0.1690 -0.1166
 1000MOL0     C37883   9.283   3.039  11.398 -0.5339 -0.4713  0.1249
 1000MOL0     C37884   9.425   3.074  11.422 -0.7248 -0.2793  0.6279
 1000MOL0     C37885   9.461   3.119  11.566  0.2588  0.4624  0.4627
 1000MOL0     O37886   9.580   3.201  11.555 -0.4491 -0.7799  0.1502
 1000MOL0     C37887   9.706   3.154  11.569  0.3286  0.9173  0.8729
 1000MOL0     C37888   9.805   3.239  11.615 -0.4777  0.0240  0.0920
 1000MOL0     C37889   9.928   3.189  11.662 -0.8011  0.3307  0.1728
 1000MOL0     C37890  10.032   3.303  11.709 -0.9489  0.2565 -0.3335
 1000MOL0     C37891   9.960   3.047  11.664  1.3071 -0.1330  0.5513
 1000MOL0     C37892  10.070   2.992  11.748  0.0265 -0.0245 -0.1074
 1000MOL0     O37893  10.112   2.867  11.712  0.1299  0.3235  0.2155
 1000MOL0     C37894  10.218   2.793  11.761 -0.2680 -0.6041  0.3527
 1000MOL0     C37895  10.245   2.673  11.689  0.8104 -0.4471  0.5312
 1000MOL0     C37896  10.351   2.595  11.732 -0.0366  1.0238  0.1223
 1000MOL0     C37897  10.435   2.635  11.835  0.0828  0.1231  0.0483
 1000MOL0     O37898  10.549   2.550  11.858  0.5248 -0.6464  0.8181
 1000MOL0     C37899  10.650   2.598  11.946  0.0222 -0.0765  0.6136
 1000MOL0     C37900  10.763   2.502  11.937  0.3312  0.3376  0.6270
 1000MOL0     C37901  10.833   2.510  11.797 -0.1392  0.5326  0.1049
 1000MOL0     C37902  10.941   2.393  11.776  0.7324  0.3211  0.1392
 1000MOL0     C37903  11.079   2.445  11.776 -0.0824  0.0817 -0.4620
 1000MOL0     C37904  11.107   2.552  11.669 -0.3937  0.1009  0.4417
 1000MOL0     C37905  11.093   2.509  11.523 -0.2459  0.0878  0.0993
 1000MOL0     C37906  11.192   2.396  11.483 -0.6808 -0.4577  0.0559
 1000MOL0    Cl37907  11.349   2.470  11.463 -0.0410 -0.2409  0.0290
 1000MOL0     C37908  10.402   2.751  11.914 -0.2498 -0.2335  0.1140
 1000MOL0     C37909  10.298   2.831  11.872  0.4782  0.0585 -0.1768
 1000MOL0     O37910  10.101   3.046  11.855 -0.0515  0.0746 -0.0616
 1000MOL0     C37911   9.862   2.966  11.608  0.2715  0.2175 -0.3201
 1000MOL0     C37912   9.742   3.015  11.558  0.6661 -0.1382 -0.0215
 1000MOL0     N37913   9.347   2.926  11.091  0.0649 -0.8252 -0.1776
 1000MOL0     N37914   9.311   2.863  10.987 -0.7335  0.9754 -0.2547
 1000MOL0     C37915   8.116   2.799  10.793  0.2215 -0.2484  0.5014
 1000MOL0     C37916   7.991   2.853  10.820 -0.8340 -0.5749  1.2411
 1000MOL0     C37917   7.594   2.892  10.992  0.1782 -0.2887 -0.7197
 1000MOL0     C37918   7.582   2.956  11.113 -0.0892 -0.0600  0.1674
 1000MOL0     C37919   7.458   2.990  11.161  0.4952  0.2345 -0.2265
 1000MOL0     C37920   7.343   2.977  11.078 -0.9088  1.1339 -0.1846
 1000MOL0     O37921   7.219   3.021  11.113 -0.2257 -0.2591 -0.1250
 1000MOL0     C37922   7.184   3.056  11.249  0.1250 -0.4381 -0.4023
 1000MOL0     C37923   7.154   2.939  11.347 -0.3684 -0.6107  0.0815
 1000MOL0     C37924   7.065   2.826  11.286  0.2664  0.0558  0.3581
 1000MOL0     C37925   6.985   2.747  11.386  1.0184  0.0989 -1.1869
 1000MOL0     C37926   6.867   2.696  11.308  0.2191  0.3472 -0.3991
 1000MOL0     C37927   6.761   2.662  11.259 -0.4055  1.2727  0.0195
 1000MOL0     C37928   7.362   2.914  10.954 -0.1884 -0.0488  0.3859
 1000MOL0     C37929   7.485   2.876  10.913 -0.4419  0.1498  0.4061
 1000MOL0     C37930   7.492   2.785  10.791  0.7950  0.7952 -0.9606
 1000MOL0     H37931   8.023   2.912  11.149  0.8387  0.8502  0.1011
 1000MOL0     H37932   8.241   2.792  11.101 -0.4927 -1.2109  0.4629
 1000MOL0     H37933   8.312   2.634  10.698  1.1864  1.1730 -2.6843
 1000MOL0     H37934   8.461   2.617  10.776 -0.0537 -0.9821 -1.6561
 1000MOL0     H37935   8.442   2.745  10.561  0.0380 -2.0268  0.5959
 1000MOL0     H37936   8.381   2.884  10.644  2.0818  2.4229  2.4147
 1000MOL0     H37937   8.583   2.947  10.639  2.1890  0.0667  1.2581
 1000MOL0     H37938   8.574   2.905  10.804  0.2408  1.3100  0.9922
 1000MOL0     H37939   8.668   2.674  10.741 -0.0493  0.9910  0.8281
 1000MOL0     H37940   8.696   2.742  10.578  2.9477 -0.5611 -0.8661
 1000MOL0     H37941   8.824   2.854  10.839 -0.9774 -1.3880  1.2620
 1000MOL0     H37942   8.868   2.895  10.670 -0.5130 -1.0503 -1.4664
 1000MOL0     H37943   8.890   2.610  10.731  0.7673 -0.8016 -1.0045
 1000MOL0     H37944   8.994   2.704  10.637 -0.4258 -0.8552 -0.8747
 1000MOL0     H37945   9.120   2.639  10.845 -1.5137 -2.0961  1.4507
 1000MOL0     H37946   8.986   2.723  10.940  1.8074 -1.1121  1.4633
 1000MOL0     H37947   9.182   2.846  10.752 -0.8168  3.4863 -0.6721
 1000MOL0     H37948   9.053   2.932  10.816  0.2100 -0.2147 -0.0528
 1000MOL0     H37949   9.032   2.981  11.087  0.0111  0.0206  0.1287
 1000MOL0     H37950   9.117   3.106  11.273 -0.6810 -0.6230  0.9130
 1000MOL0     H37951   9.275   3.171  11.231 -0.4774 -0.1578  0.2158
 1000MOL0     H37952   9.223   3.090  11.474  2.3186  1.1156  1.5218
 1000MOL0     H37953   9.277   2.931  11.410  3.8665 -1.1144 -1.3520
 1000MOL0     H37954   9.490   2.992  11.390  0.3935  0.9276 -0.3197
 1000MOL0     H37955   9.449   3.158  11.357 -3.3631 -0.9104 -1.3480
 1000MOL0     H37956   9.391   3.191  11.609 -0.6782 -1.1990  1.8059
 1000MOL0     H37957   9.476   3.032  11.631  2.3130  1.5454  1.5505
 1000MOL0     H37958   9.794   3.346  11.623 -0.6097  0.3052 -2.7324
 1000MOL0     H37959  10.132   3.295  11.664 -0.7556  0.5364  0.0446
 1000MOL0     H37960  10.042   3.292  11.818  2.3754  1.2620 -0.4447
 1000MOL0     H37961   9.998   3.403  11.681  0.8649  0.9692 -0.1178
 1000MOL0     H37962  10.192   2.635  11.602 -0.0841 -0.2860  0.9956
 1000MOL0     H37963  10.378   2.504  11.680  2.7573  2.9574 -2.1025
 1000MOL0     H37964  10.686   2.699  11.922  1.9866  0.6191  5.3229
 1000MOL0     H37965  10.617   2.616  12.049  0.1940 -1.5862  0.9499
 1000MOL0     H37966  10.837   2.533  12.012  1.3143  0.1779 -0.2520
 1000MOL0     H37967  10.730   2.399  11.951  2.7574 -0.6714 -0.5596
 1000MOL0     H37968  10.866   2.612  11.777  0.2329  0.2075 -1.0788
 1000MOL0     H37969  10.751   2.489  11.728 -2.2125  2.5559  1.8221
 1000MOL0     H37970  10.916   2.335  11.687 -0.6601  2.1899 -0.7435
 1000MOL0     H37971  10.935   2.325  11.861  4.3474  1.4520  1.5252
 1000MOL0     H37972  11.106   2.487  11.873 -0.9055 -0.2383 -0.0799
 1000MOL0     H37973  11.144   2.359  11.758 -0.9013 -0.9174  1.1011
 1000MOL0     H37974  11.208   2.592  11.679 -0.7802  1.2349  0.0295
 1000MOL0     H37975  11.037   2.636  11.674  0.2951  0.9345 -2.2820
 1000MOL0     H37976  11.114   2.598  11.463 -0.1100  0.3689  0.5638
 1000MOL0     H37977  10.995   2.477  11.486  0.1807  0.5985 -1.5539
 1000MOL0     H37978  11.148   2.363  11.388 -2.3344  0.1490  0.5682
 1000MOL0     H37979  11.209   2.312  11.551  0.9499 -2.5163 -2.6855
 1000MOL0     H37980  10.479   2.779  11.984  0.1472 -2.9748  0.9158
 1000MOL0     H37981  10.287   2.926  11.924  2.4485  1.8803 -2.8434
 1000MOL0     H37982   9.878   2.859  11.606  0.2726  0.2141 -0.1109
 1000MOL0     H37983   9.676   2.932  11.534  0.2195  0.1101  0.3318
 1000MOL0     H37984   8.149   2.780  10.692  1.8580 -0.8682  1.1231
 1000MOL0     H37985   7.911   2.878  10.751 -1.3719  1.6426  2.5712
 1000MOL0     H37986   7.658   2.973  11.189  1.1719 -0.5039 -0.9605
 1000MOL0     H37987   7.452   3.033  11.261  2.3963  0.2751 -0.0878
 1000MOL0     H37988   7.261   3.122  11.291  0.1479 -0.9294  0.3523
 1000MOL0     H37989   7.090   3.112  11.255  0.8952  0.8652 -0.1216
 1000MOL0     H37990   7.110   2.977  11.439  0.4647 -1.3993  0.8247
 1000MOL0     H37991   7.248   2.894  11.383 -0.2720  0.8680  1.8276
 1000MOL0     H37992   6.994   2.888  11.232  1.5771  2.3130  1.0699
 1000MOL0     H37993   7.116   2.757  11.219 -1.3154  1.0217 -1.9448
 1000MOL0     H37994   6.942   2.804  11.468  2.2290  0.3304 -0.6896
 1000MOL0     H37995   7.040   2.666  11.434 -1.2258 -0.7515  0.1002
 1000MOL0     H37996   6.674   2.638  11.202 -0.2564 -0.7527  0.5857
 1000MOL0     H37997   7.271   2.896  10.897  1.0197  0.9005 -1.9967
 1000MOL0     H37998   7.512   2.682  10.821 -0.6552 -0.1161 -2.8759
 1000MOL0     H37999   7.401   2.774  10.732  0.7952  0.1932 -0.8482
 1000MOL0     H38000   7.565   2.833  10.725 -0.5147  0.8648 -2.4123
 1001MOL0     O38001   4.872   8.220   6.063  0.5223 -0.2137  0.6926
 1001MOL0     C38002   4.863   8.154   5.959  0.1500  0.8256  0.4120
 1001MOL0     O38003   4.957   8.080   5.901  0.7362 -0.4185  0.2933
 1001MOL0     C38004   5.088   8.108   5.944  0.1669  0.4720  0.0644
 1001MOL0     C38005   5.152   8.234   5.931  0.5375 -0.2075  1.0315
 1001MOL0     C38006   5.286   8.247   5.962 -0.6022 -0.1024 -0.0415
 1001MOL0     C38007   5.364   8.137   6.003 -0.8251  0.1003 -0.1696
 1001MOL0     O38008   5.500   8.165   6.008  0.1849  0.6155 -0.0426
 1001MOL0     C38009   5.588   8.054   6.025 -0.0224 -0.2707 -0.4050
 1001MOL0     C38010   5.735   8.089   6.031 -1.3175  0.3414 -0.1608
 1001MOL0     C38011   5.822   7.963   6.055 -0.7802 -0.4032 -0.4076
 1001MOL0     C38012   5.964   7.999   6.104  0.0852 -0.0462 -0.8259
 1001MOL0     C38013   6.066   7.888   6.093 -0.8905 -0.1253  0.3228
 1001MOL0     C38014   6.204   7.920   6.160  0.7145 -0.3279 -0.1951
 1001MOL0     C38015   6.317   7.818   6.135 -1.0451 -0.0019  0.2088
 1001MOL0     C38016   6.364   7.786   5.981  0.6097  0.0085 -0.5144
 1001MOL0     N38017   6.476   7.701   5.971  0.4008  0.0365 -0.6998
 1001MOL0     C38018   6.600   7.728   5.910  0.3621  0.2785  0.2490
 1001MOL0     C38019   6.669   7.610   5.914 -0.1649 -0.5246  0.0644
 1001MOL0     C38020   6.801   7.589   5.850 -0.5263 -0.3676 -0.9162
 1001MOL0     C38021   6.917   7.604   5.954 -0.6589 -0.2513 -0.7447
 1001MOL0     C38022   7.050   7.639   5.903  0.1272 -1.3962 -0.5197
 1001MOL0     C38023   7.094   7.544   5.784  0.4372 -0.4938 -0.2848
 1001MOL0     O38024   7.226   7.582   5.750  0.2284 -0.0917  0.5419
 1001MOL0     C38025   7.319   7.481   5.743 -0.1821  0.1535 -0.8467
 1001MOL0     C38026   7.438   7.519   5.682 -0.0783 -0.4578  0.7120
 1001MOL0     C38027   7.537   7.433   5.669 -1.0371 -0.9253 -0.0208
 1001MOL0     C38028   7.659   7.485   5.591  0.4019 -0.7902 -0.2797
 1001MOL0     C38029   7.535   7.305   5.735 -1.1105 -0.2518 -0.2668
 1001MOL0     C38030   7.643   7.200   5.737  0.2062 -0.8262 -0.0907
 1001MOL0     O38031   7.599   7.074   5.758  0.5806  0.1558 -0.6448
 1001MOL0     C38032   7.695   6.981   5.767  0.3523  0.5977  0.0648
 1001MOL0     C38033   7.695   6.871   5.674 -0.1663 -0.5566 -0.2448
 1001MOL0     C38034   7.810   6.786   5.670  0.3962 -0.2106 -0.3594
 1001MOL0     C38035   7.910   6.796   5.767  1.2655 -0.5212  0.7210
 1001MOL0     O38036   8.014   6.709   5.763  0.2247  0.3076  0.4121
 1001MOL0     C38037   8.142   6.750   5.820  0.4990 -0.1858  0.4120
 1001MOL0     C38038   8.256   6.646   5.809 -0.1629 -0.0770  0.0363
 1001MOL0     C38039   8.383   6.711   5.775  0.2650  0.4360  0.5685
 1001MOL0     C38040   8.489   6.610   5.740 -0.2796  0.3763 -0.2573
 1001MOL0     C38041   8.604   6.659   5.655 -0.2883  0.5405  0.7140
 1001MOL0     C38042   8.707   6.544   5.631  0.6028 -0.4278  0.1265
 1001MOL0     C38043   8.793   6.555   5.508  0.1349 -0.3180  0.8758
 1001MOL0     C38044   8.897   6.667   5.520  0.2197 -0.2807  0.2725
 1001MOL0    Cl38045   8.957   6.669   5.353  0.1639 -0.4322 -0.1215
 1001MOL0     C38046   7.892   6.884   5.874  0.5584 -0.5143 -0.4729
 1001MOL0     C38047   7.789   6.975   5.873  0.3409 -0.9788 -0.2958
 1001MOL0     O38048   7.752   7.231   5.704  0.1512 -0.5633 -0.9550
 1001MOL0     C38049   7.419   7.276   5.817  0.1091 -0.3466 -0.5708
 1001MOL0     C38050   7.308   7.359   5.813  0.8486 -0.7678  0.1883
 1001MOL0     N38051   6.587   7.521   5.986 -0.8846 -0.5073  1.1419
 1001MOL0     N38052   6.476   7.571   6.008  0.0431 -0.5508 -0.0296
 1001MOL0     C38053   5.309   8.003   6.005  0.2343 -0.0328 -0.5651
 1001MOL0     C38054   5.173   7.996   5.969  0.2015 -0.1821  0.3528
 1001MOL0     C38055   4.729   8.130   5.901 -0.5446 -0.4965  0.2814
 1001MOL0     C38056   4.705   8.011   5.823  0.1616  0.3228 -0.6892
 1001MOL0     C38057   4.581   7.983   5.766 -0.1160  0.3868 -0.8303
 1001MOL0     C38058   4.475   8.068   5.792  0.4641  0.2265 -0.9327
 1001MOL0     O38059   4.347   8.044   5.747  0.0237 -0.0636  0.0068
 1001MOL0     C38060   4.324   7.970   5.624  0.1367  0.5423 -0.1033
 1001MOL0     C38061   4.207   7.865   5.648  0.4100  0.1809  0.7686
 1001MOL0     C38062   4.249   7.767   5.751  0.5324 -0.1823 -0.4311
 1001MOL0     C38063   4.144   7.665   5.794 -0.3721  0.2603 -0.8202
 1001MOL0     C38064   4.035   7.726   5.874 -0.2173  0.1948  0.1082
 1001MOL0     C38065   3.962   7.776   5.956 -0.3189 -0.3627  0.3364
 1001MOL0     C38066   4.492   8.185   5.865  0.4008  0.4556 -0.2514
 1001MOL0     C38067   4.619   8.223   5.919  0.0399  0.2678  0.3313
 1001MOL0     C38068   4.637   8.356   5.989 -0.3040 -0.1535  0.4965
 1001MOL0     H38069   5.096   8.314   5.884 -2.4707 -0.1204  4.3525
 1001MOL0     H38070   5.339   8.341   5.954  0.1147 -0.5464 -0.6742
 1001MOL0     H38071   5.572   7.970   5.957  2.2999  0.0183 -1.4033
 1001MOL0     H38072   5.563   8.013   6.123  0.1104  0.0212 -0.2465
 1001MOL0     H38073   5.768   8.148   5.945 -2.4959  2.6649  0.9040
 1001MOL0     H38074   5.750   8.162   6.110 -1.8815  0.5927 -0.2830
 1001MOL0     H38075   5.786   7.902   6.138  0.3981 -0.8089 -0.1723
 1001MOL0     H38076   5.833   7.904   5.964 -0.1819  0.7434 -1.1028
 1001MOL0     H38077   5.988   8.090   6.050 -0.2422  2.0973  2.3789
 1001MOL0     H38078   5.958   8.038   6.206 -0.4230  0.8131 -1.1757
 1001MOL0     H38079   6.072   7.853   5.990 -1.8420  0.9134 -0.1184
 1001MOL0     H38080   6.023   7.806   6.151 -0.0034 -0.1159  1.0263
 1001MOL0     H38081   6.239   8.017   6.123  2.3433 -0.2320  1.4609
 1001MOL0     H38082   6.183   7.927   6.267 -1.4253 -4.9111 -0.0796
 1001MOL0     H38083   6.293   7.725   6.186 -2.4301  0.7507  0.9937
 1001MOL0     H38084   6.402   7.856   6.192  0.6640 -2.0145 -0.8571
 1001MOL0     H38085   6.271   7.753   5.934 -1.1288  3.3325  0.2765
 1001MOL0     H38086   6.394   7.874   5.924 -0.8076 -1.3477 -3.6004
 1001MOL0     H38087   6.624   7.825   5.869 -2.8843  1.5563  1.0160
 1001MOL0     H38088   6.824   7.676   5.787 -1.6784  0.2961 -0.4628
 1001MOL0     H38089   6.812   7.496   5.794  3.0383 -1.0226  0.6024
 1001MOL0     H38090   6.883   7.684   6.021 -1.0535 -0.5703 -0.5618
 1001MOL0     H38091   6.910   7.516   6.019 -0.7941 -1.4669 -2.3599
 1001MOL0     H38092   7.052   7.742   5.864  2.0341 -0.7474  1.1279
 1001MOL0     H38093   7.116   7.623   5.988  0.5038 -2.2817 -0.9644
 1001MOL0     H38094   7.065   7.442   5.809 -2.8333  0.3774 -0.0923
 1001MOL0     H38095   7.033   7.566   5.696 -0.5736  0.4893  0.6306
 1001MOL0     H38096   7.441   7.619   5.640  0.6706 -1.2691 -1.3161
 1001MOL0     H38097   7.655   7.442   5.491 -0.4194  3.1121 -2.0866
 1001MOL0     H38098   7.752   7.465   5.645  1.3763 -0.1157 -1.6635
 1001MOL0     H38099   7.654   7.593   5.577  1.9027 -0.2646  2.4748
 1001MOL0     H38100   7.628   6.881   5.589 -1.9845  1.7811  1.3350
 1001MOL0     H38101   7.826   6.713   5.592  0.3776  2.2840 -2.8587
 1001MOL0     H38102   8.169   6.847   5.776 -1.1105 -0.3904 -1.1468
 1001MOL0     H38103   8.130   6.765   5.928 -0.4378  0.7177  0.1983
 1001MOL0     H38104   8.258   6.585   5.900 -0.2320  2.0280  1.5081
 1001MOL0     H38105   8.230   6.575   5.730 -0.6441  0.9356 -0.7502
 1001MOL0     H38106   8.417   6.781   5.852  1.3870  2.7797 -1.8582
 1001MOL0     H38107   8.361   6.761   5.680 -1.6715 -1.6039 -0.1408
 1001MOL0     H38108   8.456   6.517   5.692  2.2498 -2.5819  3.1446
 1001MOL0     H38109   8.532   6.575   5.835  0.1011  3.6889  0.9192
 1001MOL0     H38110   8.574   6.699   5.558  4.8856  1.0940 -0.9680
 1001MOL0     H38111   8.665   6.740   5.697  0.2424  0.1216  0.7554
 1001MOL0     H38112   8.639   6.459   5.618  0.4032 -0.5752  1.8275
 1001MOL0     H38113   8.770   6.513   5.715  0.2717 -0.4833  0.3569
 1001MOL0     H38114   8.720   6.576   5.430 -1.2074  1.1227  2.4585
 1001MOL0     H38115   8.840   6.458   5.488  0.0137 -0.9782  3.3935
 1001MOL0     H38116   8.978   6.648   5.591  0.8611  0.2714 -0.2893
 1001MOL0     H38117   8.846   6.763   5.535  1.6947  0.5971 -0.0403
 1001MOL0     H38118   7.964   6.895   5.955  0.2159 -0.9485 -0.1080
 1001MOL0     H38119   7.784   7.046   5.955 -0.6400  0.1944 -1.3383
 1001MOL0     H38120   7.417   7.180   5.869  0.4724 -0.3060 -0.4761
 1001MOL0     H38121   7.216   7.330   5.863 -0.2052 -2.1869 -2.3803
 1001MOL0     H38122   5.377   7.922   6.027 -0.0014  0.5341  2.7523
 1001MOL0     H38123   5.129   7.898   5.953  0.7972 -0.2786 -0.8025
 1001MOL0     H38124   4.789   7.950   5.792 -0.9501 -1.8116  0.2684
 1001MOL0     H38125   4.570   7.890   5.710  0.1164 -0.1826  0.0387
 1001MOL0     H38126   4.291   8.028   5.538 -0.0484 -0.3271 -0.6284
 1001MOL0     H38127   4.414   7.922   5.584  0.4930 -0.8632  2.1733
 1001MOL0     H38128   4.191   7.818   5.550  1.0742  1.9727 -0.2508
 1001MOL0     H38129   4.112   7.912   5.676  0.0134 -0.7636  1.0628
 1001MOL0     H38130   4.331   7.702   5.719 -0.2803 -0.1113 -2.9106
 1001MOL0     H38131   4.271   7.827   5.839 -2.9639  0.8371 -0.0815
 1001MOL0     H38132   4.186   7.596   5.868 -2.0190 -2.8215 -2.5871
 1001MOL0     H38133   4.112   7.605   5.708 -0.7145 -1.3104  0.3592
 1001MOL0     H38134   3.897   7.833   6.019  0.2566  1.4239 -0.5950
 1001MOL0     H38135   4.405   8.248   5.874 -0.7853 -1.3299  1.7186
 1001MOL0     H38136   4.722   8.412   5.949 -1.6816 -0.5044 -3.3194
 1001MOL0     H38137   4.546   8.414   5.971 -0.9561 -2.0592 -3.5919
 1001MOL0     H38138   4.649   8.330   6.095  2.4434  1.4718  0.6772
 1002MOL0     O38139   2.465   0.087   9.647 -0.3573  0.0388  0.7586
 1002MOL0     C38140   2.489   0.018   9.747 -0.3974  0.2429  0.4497
 1002MOL0     O38141   2.602  -0.062   9.762 -0.8973  0.2172  0.5132
 1002MOL0     C38142   2.691  -0.076   9.654  0.3686 -0.2901  0.8595
 1002MOL0     C38143   2.671  -0.183   9.563 -0.8145  0.3556  0.3877
 1002MOL0     C38144   2.768  -0.203   9.456  0.0441 -0.4876  0.1266
 1002MOL0     C38145   2.873  -0.110   9.440 -0.9317 -1.4416  0.0520
 1002MOL0     O38146   2.969  -0.122   9.342  0.0351 -0.5609 -1.0518
 1002MOL0     C38147   2.975  -0.249   9.281  0.1507 -0.3361  0.4138
 1002MOL0     C38148   3.097  -0.275   9.184 -0.5301 -0.2642 -0.1744
 1002MOL0     C38149   3.227  -0.225   9.237 -0.2524 -0.2828 -0.2345
 1002MOL0     C38150   3.347  -0.297   9.180 -0.4666  0.8298  0.2947
 1002MOL0     C38151   3.478  -0.280   9.254 -0.2871 -0.1176  0.3013
 1002MOL0     C38152   3.507  -0.132   9.299  0.1620  0.9889  0.3514
 1002MOL0     C38153   3.638  -0.129   9.381  0.1691  0.2791  0.7159
 1002MOL0     C38154   3.762  -0.167   9.300  0.1611 -0.0817  0.3612
 1002MOL0     N38155   3.871  -0.221   9.380 -0.5534 -0.2120 -0.3687
 1002MOL0     C38156   3.872  -0.346   9.430  0.1836  0.6626  0.3794
 1002MOL0     C38157   3.984  -0.360   9.503 -1.2204  0.3141 -0.1874
 1002MOL0     C38158   4.030  -0.476   9.588  0.4071  0.8873 -0.5562
 1002MOL0     C38159   3.919  -0.584   9.609  0.0235  0.2358 -0.1634
 1002MOL0     C38160   3.821  -0.524   9.702 -1.6009 -0.0726  0.1055
 1002MOL0     C38161   3.700  -0.613   9.701  1.2536 -0.8624  0.5928
 1002MOL0     O38162   3.634  -0.614   9.576 -0.2395  0.1285 -0.3521
 1002MOL0     C38163   3.505  -0.658   9.576  0.1398 -0.0810 -1.3069
 1002MOL0     C38164   3.431  -0.633   9.459 -0.2749 -0.4235 -0.1262
 1002MOL0     C38165   3.292  -0.667   9.452 -0.1414  0.1360  0.1331
 1002MOL0     C38166   3.235  -0.642   9.323  0.3327 -0.4094 -0.4995
 1002MOL0     C38167   3.236  -0.755   9.552 -0.0710 -0.3815 -0.3969
 1002MOL0     C38168   3.096  -0.806   9.552  0.1448  0.1488  0.5901
 1002MOL0     O38169   3.062  -0.919   9.625 -0.1673  0.5961 -0.2705
 1002MOL0     C38170   2.933  -0.924   9.673 -0.9112 -0.0792  0.0574
 1002MOL0     C38171   2.844  -1.014   9.607 -0.2450 -0.4359 -0.4020
 1002MOL0     C38172   2.714  -1.012   9.648  0.1836  0.9616  0.2137
 1002MOL0     C38173   2.664  -0.938   9.754  0.1471 -0.3797 -0.0515
 1002MOL0     O38174   2.525  -0.939   9.769 -0.0939  0.2512  0.0704
 1002MOL0     C38175   2.483  -0.904   9.899  0.6348  0.2005 -0.5627
 1002MOL0     C38176   2.331  -0.928   9.912  0.5257 -0.7734  0.0167
 1002MOL0     C38177   2.284  -0.915  10.050 -0.3892  0.2548  0.9892
 1002MOL0     C38178   2.131  -0.950  10.045 -0.0511 -0.2102  0.0765
 1002MOL0     C38179   2.075  -0.962  10.186  0.1731 -0.3259 -0.2952
 1002MOL0     C38180   2.095  -1.098  10.243  0.7511  0.2260 -0.7005
 1002MOL0     C38181   2.009  -1.211  10.179  0.6054 -0.3051 -0.1162
 1002MOL0     C38182   2.091  -1.335  10.143 -0.0443  0.1968 -0.1201
 1002MOL0    Cl38183   2.234  -1.313  10.023 -0.4599 -0.4658 -0.1894
 1002MOL0     C38184   2.761  -0.857   9.825  0.4216  1.4880  0.7288
 1002MOL0     C38185   2.894  -0.861   9.786  0.4658 -0.3549 -0.0668
 1002MOL0     O38186   3.011  -0.729   9.498 -0.2826  0.5551 -0.4970
 1002MOL0     C38187   3.320  -0.794   9.655  0.0587  0.3100 -0.3191
 1002MOL0     C38188   3.450  -0.744   9.675 -1.0660 -1.3266 -1.0482
 1002MOL0     N38189   4.051  -0.247   9.485 -0.4222 -0.4181  0.2105
 1002MOL0     N38190   3.980  -0.163   9.417 -0.0978  0.4734  0.1349
 1002MOL0     C38191   2.891  -0.005   9.533 -0.7464  0.0605  1.2033
 1002MOL0     C38192   2.795   0.019   9.629  0.2289  0.2013  0.0775
 1002MOL0     C38193   2.379  -0.014   9.841 -0.0657  0.9957 -0.8299
 1002MOL0     C38194   2.395  -0.109   9.943  0.5564 -0.5439 -0.2440
 1002MOL0     C38195   2.303  -0.130  10.049 -0.7969  1.0190  0.7715
 1002MOL0     C38196   2.187  -0.054  10.061  0.5292 -0.0415  0.1848
 1002MOL0     O38197   2.099  -0.072  10.176 -0.3363 -0.3198  0.5876
 1002MOL0     C38198   1.972  -0.001  10.178 -0.6769 -0.4612  0.0780
 1002MOL0     C38199   1.880  -0.032  10.290  0.0687 -1.3040  0.0508
 1002MOL0     C38200   1.809  -0.171  10.266  0.8489  0.1622  0.6585
 1002MOL0     C38201   1.702  -0.169  10.373 -0.5439  0.5901  0.1212
 1002MOL0     C38202   1.619  -0.292  10.358 -0.3688  0.5515 -0.6563
 1002MOL0     C38203   1.540  -0.388  10.352 -0.3861 -0.1347 -0.6109
 1002MOL0     C38204   2.168   0.040   9.960 -0.2740 -0.0266 -0.0500
 1002MOL0     C38205   2.256   0.059   9.852 -0.2549  0.2234  0.2855
 1002MOL0     C38206   2.213   0.164   9.755  0.3294 -1.0777  0.0299
 1002MOL0     H38207   2.600  -0.264   9.577  1.5342 -2.3875 -2.2177
 1002MOL0     H38208   2.761  -0.288   9.388 -2.2779  1.9220 -2.9641
 1002MOL0     H38209   2.890  -0.268   9.215  1.4306  1.2734 -1.8205
 1002MOL0     H38210   2.983  -0.319   9.365  0.5482 -1.0709 -0.2258
 1002MOL0     H38211   3.105  -0.381   9.161 -1.3779  0.3124 -3.6866
 1002MOL0     H38212   3.075  -0.221   9.091 -1.7793  1.8778  1.2762
 1002MOL0     H38213   3.237  -0.118   9.213  1.6946 -0.8013 -2.0298
 1002MOL0     H38214   3.223  -0.225   9.346 -0.7505  3.0223 -0.1451
 1002MOL0     H38215   3.334  -0.406   9.179 -2.6495  1.0409  0.5694
 1002MOL0     H38216   3.362  -0.259   9.078 -1.1508 -1.0721 -0.5663
 1002MOL0     H38217   3.554  -0.330   9.194 -0.0209  0.5712  0.0456
 1002MOL0     H38218   3.468  -0.339   9.345 -1.4905  1.6603  1.4095
 1002MOL0     H38219   3.515  -0.073   9.207  0.4124 -2.1809 -1.8542
 1002MOL0     H38220   3.428  -0.085   9.358  1.0567  1.2985  1.3203
 1002MOL0     H38221   3.623  -0.205   9.458 -4.5787 -1.0148 -1.0975
 1002MOL0     H38222   3.654  -0.036   9.437  0.1776  0.4293  0.4658
 1002MOL0     H38223   3.739  -0.240   9.222 -0.0591 -0.8521  1.1237
 1002MOL0     H38224   3.798  -0.077   9.250  1.5487 -1.0843 -0.5049
 1002MOL0     H38225   3.793  -0.420   9.426  0.0031  0.7961  1.2307
 1002MOL0     H38226   4.051  -0.441   9.689 -1.4711  3.5785 -0.9795
 1002MOL0     H38227   4.109  -0.523   9.528  0.4020  2.8087 -2.1843
 1002MOL0     H38228   3.877  -0.603   9.511  0.0298 -0.3267 -0.0595
 1002MOL0     H38229   3.953  -0.677   9.656  0.2829  1.7078  2.8722
 1002MOL0     H38230   3.867  -0.545   9.800  1.6965 -0.3079 -1.3568
 1002MOL0     H38231   3.801  -0.418   9.688  1.5873  0.4543 -1.2849
 1002MOL0     H38232   3.725  -0.714   9.734  0.3538 -0.3182  3.1575
 1002MOL0     H38233   3.639  -0.576   9.783  0.5833 -2.4515  0.8503
 1002MOL0     H38234   3.490  -0.594   9.377  2.9220 -1.1728  1.6532
 1002MOL0     H38235   3.192  -0.731   9.278 -0.4580 -0.5867  0.5567
 1002MOL0     H38236   3.312  -0.599   9.258 -1.0465  1.9398 -0.6915
 1002MOL0     H38237   3.162  -0.563   9.340  1.8595  0.6215  2.0478
 1002MOL0     H38238   2.881  -1.079   9.528 -2.5261 -0.7192 -1.3106
 1002MOL0     H38239   2.636  -1.066   9.594  2.0336 -1.2072 -0.4544
 1002MOL0     H38240   2.532  -0.966   9.975  0.0434  0.0959 -0.2633
 1002MOL0     H38241   2.498  -0.797   9.917  0.6302 -0.3200  3.2386
 1002MOL0     H38242   2.279  -0.853   9.852 -0.7632 -2.6952 -1.3716
 1002MOL0     H38243   2.304  -1.023   9.867 -1.1493  0.3118 -1.4065
 1002MOL0     H38244   2.293  -0.812  10.087 -1.3990  0.6966  0.0590
 1002MOL0     H38245   2.337  -0.982  10.118 -0.0738 -0.5779 -0.0549
 1002MOL0     H38246   2.098  -1.041   9.994 -2.2994  0.0756  0.9014
 1002MOL0     H38247   2.086  -0.868   9.988  0.9654 -0.2544 -0.8293
 1002MOL0     H38248   2.120  -0.888  10.253  1.4259 -0.4734 -0.9327
 1002MOL0     H38249   1.970  -0.935  10.195 -0.5531 -2.2040 -2.1474
 1002MOL0     H38250   2.082  -1.094  10.351  0.7923  0.8994 -0.7184
 1002MOL0     H38251   2.200  -1.121  10.223  0.7839 -0.3240  0.0607
 1002MOL0     H38252   1.958  -1.177  10.089 -0.9261 -0.3263  0.7088
 1002MOL0     H38253   1.927  -1.244  10.243  0.2320  0.2381 -0.3066
 1002MOL0     H38254   2.012  -1.400  10.102 -0.4600 -0.1234  1.1201
 1002MOL0     H38255   2.133  -1.378  10.234  0.1852 -0.0167 -0.3253
 1002MOL0     H38256   2.732  -0.787   9.902 -1.2123  1.0765  0.5298
 1002MOL0     H38257   2.954  -0.808   9.859 -0.6235  1.3193 -0.3389
 1002MOL0     H38258   3.274  -0.859   9.729  0.5956 -2.2032 -2.0794
 1002MOL0     H38259   3.508  -0.780   9.760 -0.3086  1.0646 -0.4926
 1002MOL0     H38260   2.970   0.069   9.523 -0.3244 -0.3290  1.6274
 1002MOL0     H38261   2.807   0.104   9.695 -1.5578  0.4670  0.1236
 1002MOL0     H38262   2.482  -0.174   9.948  2.4733  1.8370 -0.7228
 1002MOL0     H38263   2.319  -0.211  10.119  0.7852  0.3761 -0.2833
 1002MOL0     H38264   1.999   0.104  10.192  1.6482 -1.1613  1.2660
 1002MOL0     H38265   1.923  -0.009  10.080 -0.5646  1.4430 -0.1807
 1002MOL0     H38266   1.820   0.059  10.289 -1.4781 -2.2824 -1.4942
 1002MOL0     H38267   1.928  -0.028  10.388 -1.2561  2.1978  0.7007
 1002MOL0     H38268   1.779  -0.179  10.161 -1.5923 -0.1329  1.3191
 1002MOL0     H38269   1.885  -0.248  10.276  1.8973  0.5547 -3.0304
 1002MOL0     H38270   1.643  -0.077  10.360  3.1504  3.3207  0.8559
 1002MOL0     H38271   1.745  -0.158  10.473  1.1478  0.0442 -0.5146
 1002MOL0     H38272   1.474  -0.473  10.358  1.3518 -1.4582  1.4871
 1002MOL0     H38273   2.077   0.098   9.958  0.5317  1.2541 -1.3176
 1002MOL0     H38274   2.238   0.149   9.650  2.8905  1.0218  0.2310
 1002MOL0     H38275   2.106   0.182   9.745  0.8642  2.8278 -0.1272
 1002MOL0     H38276   2.260   0.259   9.781 -1.6260  0.1673 -0.7876
 1003MOL0     O38277   2.576   3.275   2.102  0.3744 -0.4271  0.4453
 1003MOL0     C38278   2.558   3.293   2.216 -0.6564 -0.2762 -0.1100
 1003MOL0     O38279   2.667   3.315   2.304 -0.4956 -0.2467 -0.4405
 1003MOL0     C38280   2.800   3.312   2.252  0.6170  0.7131  0.2942
 1003MOL0     C38281   2.883   3.419   2.280 -0.0839 -0.3175  0.6382
 1003MOL0     C38282   3.015   3.421   2.230  0.4202 -0.8769 -0.3862
 1003MOL0     C38283   3.074   3.311   2.167  0.4941 -1.1421  0.5869
 1003MOL0     O38284   3.195   3.330   2.101 -1.2401  0.0425 -0.3044
 1003MOL0     C38285   3.178   3.347   1.955  0.2209 -0.5409  0.0164
 1003MOL0     C38286   3.311   3.341   1.879  0.8039  0.5025  0.4598
 1003MOL0     C38287   3.410   3.445   1.925  0.8492 -0.3477 -0.1234
 1003MOL0     C38288   3.508   3.457   1.812  0.4947  0.3381 -0.7263
 1003MOL0     C38289   3.628   3.532   1.867  0.3945  0.7609 -0.2682
 1003MOL0     C38290   3.732   3.533   1.767 -0.2591 -0.0145 -0.4689
 1003MOL0     C38291   3.850   3.608   1.820 -0.1483 -0.3702  0.6572
 1003MOL0     C38292   3.965   3.617   1.714  0.4156 -0.6146  0.2286
 1003MOL0     N38293   4.097   3.652   1.767 -0.7358 -0.6767 -0.9797
 1003MOL0     C38294   4.210   3.655   1.694 -0.6869 -0.0473  0.2677
 1003MOL0     C38295   4.312   3.691   1.779  0.0214 -0.2015 -0.5237
 1003MOL0     C38296   4.454   3.728   1.738  0.3673  0.2614 -0.1376
 1003MOL0     C38297   4.538   3.759   1.866  0.1203  0.0638  0.3819
 1003MOL0     C38298   4.691   3.756   1.851 -0.5234 -0.0815  0.9857
 1003MOL0     C38299   4.747   3.613   1.840  0.4689  0.1347  0.0211
 1003MOL0     O38300   4.878   3.611   1.785  0.3839  0.1680  0.4152
 1003MOL0     C38301   4.893   3.622   1.649 -0.6257 -0.5389  0.3152
 1003MOL0     C38302   5.028   3.663   1.608 -0.7606  0.6421  0.2743
 1003MOL0     C38303   5.061   3.663   1.471  0.4444 -1.4714  0.1599
 1003MOL0     C38304   5.196   3.724   1.450 -0.2084  0.1687  0.8718
 1003MOL0     C38305   4.961   3.631   1.374  0.3306 -0.5590  0.1304
 1003MOL0     C38306   4.985   3.631   1.222  0.1004 -0.0125 -0.1790
 1003MOL0     O38307   4.922   3.526   1.156 -1.0264  0.5171  0.7534
 1003MOL0     C38308   4.933   3.519   1.022  0.9282  0.5921 -0.3954
 1003MOL0     C38309   5.001   3.405   0.978 -0.8556 -0.4441  0.7620
 1003MOL0     C38310   5.006   3.379   0.839  0.8009  0.2583 -0.1418
 1003MOL0     C38311   4.936   3.463   0.752 -0.2126 -0.4694  0.5621
 1003MOL0     O38312   4.923   3.439   0.619 -0.1844  0.0474 -0.0153
 1003MOL0     C38313   4.991   3.327   0.567  0.3401  0.6525 -0.6109
 1003MOL0     C38314   4.994   3.333   0.414  0.0857 -0.4664 -0.0594
 1003MOL0     C38315   4.858   3.352   0.345 -0.0513 -0.1442  0.4020
 1003MOL0     C38316   4.804   3.213   0.309  0.0419 -0.3398 -0.4855
 1003MOL0     C38317   4.652   3.204   0.289  0.1872 -0.5596  0.4270
 1003MOL0     C38318   4.567   3.238   0.410 -0.0004  0.2189  0.0575
 1003MOL0     C38319   4.572   3.135   0.521  1.0709  0.5894  0.5559
 1003MOL0     C38320   4.493   3.177   0.648  1.0178  0.1821 -0.8784
 1003MOL0    Cl38321   4.604   3.293   0.729 -0.4190 -0.1089 -0.0666
 1003MOL0     C38322   4.879   3.584   0.798 -0.1214 -0.0956  0.7090
 1003MOL0     C38323   4.882   3.615   0.935  0.6212  0.0268  0.3358
 1003MOL0     O38324   5.060   3.712   1.173 -1.2250 -0.5992  0.9185
 1003MOL0     C38325   4.838   3.586   1.425  0.2523  0.6852  0.9617
 1003MOL0     C38326   4.804   3.583   1.555 -0.7123 -0.4599  0.0500
 1003MOL0     N38327   4.254   3.704   1.906  0.1447 -0.7799 -0.1147
 1003MOL0     N38328   4.131   3.677   1.897 -0.5729  0.2391  0.1224
 1003MOL0     C38329   2.996   3.193   2.147 -0.0255 -0.6527 -0.6486
 1003MOL0     C38330   2.863   3.199   2.191  0.3192 -1.1855  0.5517
 1003MOL0     C38331   2.424   3.280   2.281  0.1718 -0.1444 -0.3536
 1003MOL0     C38332   2.422   3.261   2.426 -0.4061  0.6430  0.3418
 1003MOL0     C38333   2.298   3.250   2.490 -0.3846  0.1344 -0.8293
 1003MOL0     C38334   2.179   3.254   2.417  0.1573 -0.0776  0.3999
 1003MOL0     O38335   2.058   3.242   2.478  0.0313 -0.6595  0.6910
 1003MOL0     C38336   2.054   3.202   2.617  0.0443 -0.2081  0.0835
 1003MOL0     C38337   1.905   3.198   2.646  0.6191 -0.2721  0.7533
 1003MOL0     C38338   1.873   3.154   2.783 -0.2005 -0.1462 -0.6864
 1003MOL0     C38339   1.721   3.160   2.792  1.1600 -0.8116 -0.5702
 1003MOL0     C38340   1.680   3.149   2.930 -0.4715 -1.2084  0.1382
 1003MOL0     C38341   1.645   3.137   3.036 -0.5574 -0.3127  0.5590
 1003MOL0     C38342   2.181   3.278   2.278  0.6457 -0.3901 -0.1326
 1003MOL0     C38343   2.306   3.287   2.205  0.4172 -0.0921 -0.8576
 1003MOL0     C38344   2.305   3.304   2.051 -0.2627 -0.1108  0.4843
 1003MOL0     H38345   2.841   3.489   2.351 -0.5939  1.0709 -0.9564
 1003MOL0     H38346   3.072   3.512   2.248 -1.5253  0.9023 -2.5314
 1003MOL0     H38347   3.135   3.446   1.937 -0.2566 -0.5585  0.9971
 1003MOL0     H38348   3.119   3.268   1.909  0.5943 -0.8870  0.1266
 1003MOL0     H38349   3.349   3.243   1.909  0.4110  0.0793 -0.3938
 1003MOL0     H38350   3.304   3.336   1.770  0.2463  2.5938  0.3547
 1003MOL0     H38351   3.355   3.536   1.950  1.9629  0.2368  0.2641
 1003MOL0     H38352   3.464   3.398   2.008 -0.7900 -1.2109  0.5154
 1003MOL0     H38353   3.539   3.360   1.774 -0.8202 -0.7327  0.8100
 1003MOL0     H38354   3.461   3.515   1.732  2.0574 -0.4745 -2.3060
 1003MOL0     H38355   3.679   3.489   1.954 -2.3111  0.1410  1.1366
 1003MOL0     H38356   3.596   3.634   1.891 -2.4091  0.3172 -1.6244
 1003MOL0     H38357   3.765   3.434   1.735  0.9845  1.0401 -2.7276
 1003MOL0     H38358   3.698   3.588   1.678  0.3215  1.1916  0.0317
 1003MOL0     H38359   3.899   3.557   1.903 -3.0496  0.5377  3.1037
 1003MOL0     H38360   3.827   3.710   1.854  0.3448 -0.1190  0.2486
 1003MOL0     H38361   3.978   3.519   1.668 -0.4475 -0.0143 -1.3776
 1003MOL0     H38362   3.942   3.693   1.639  2.0402  0.1842  0.4761
 1003MOL0     H38363   4.228   3.647   1.587  3.5916 -0.6190  0.8695
 1003MOL0     H38364   4.459   3.810   1.667  2.9239  0.3545  0.0779
 1003MOL0     H38365   4.488   3.636   1.688 -2.2918 -0.2221 -1.2238
 1003MOL0     H38366   4.509   3.860   1.895 -3.6818 -0.0206 -2.2805
 1003MOL0     H38367   4.518   3.696   1.953  1.0346  1.6699  1.8076
 1003MOL0     H38368   4.713   3.816   1.762 -0.4584 -1.2199  0.2201
 1003MOL0     H38369   4.738   3.812   1.933 -1.0080  1.7240  0.0762
 1003MOL0     H38370   4.747   3.563   1.937 -1.2680 -0.9289 -0.4847
 1003MOL0     H38371   4.683   3.551   1.777 -0.5507  0.3344  0.8375
 1003MOL0     H38372   5.095   3.701   1.684  0.0493 -0.8204  0.3297
 1003MOL0     H38373   5.205   3.820   1.399  2.1788 -1.1648 -1.5103
 1003MOL0     H38374   5.249   3.659   1.380  1.2429  0.9634  1.1901
 1003MOL0     H38375   5.259   3.743   1.538  2.3999 -0.4558 -0.7415
 1003MOL0     H38376   5.048   3.333   1.044  1.5645 -0.0473 -0.3886
 1003MOL0     H38377   5.069   3.297   0.807  0.2503  1.7510 -6.0984
 1003MOL0     H38378   5.097   3.321   0.595 -0.0892 -2.6992  0.7494
 1003MOL0     H38379   4.948   3.230   0.594  0.6178  1.1795  2.0551
 1003MOL0     H38380   5.059   3.417   0.388 -1.0590  0.7893  0.9580
 1003MOL0     H38381   5.047   3.251   0.365 -0.6734 -1.3825  0.6199
 1003MOL0     H38382   4.873   3.418   0.259 -3.9335 -0.5814 -0.8033
 1003MOL0     H38383   4.791   3.419   0.400  0.5732  2.3847 -1.7140
 1003MOL0     H38384   4.827   3.150   0.395 -0.2915  2.0711  1.4896
 1003MOL0     H38385   4.855   3.177   0.219  0.4363 -1.6436  0.2305
 1003MOL0     H38386   4.622   3.281   0.217  0.6696  1.0843  1.9299
 1003MOL0     H38387   4.630   3.104   0.248  1.2226 -0.0751 -1.4462
 1003MOL0     H38388   4.461   3.242   0.383 -0.4622 -1.2803  1.4390
 1003MOL0     H38389   4.590   3.340   0.441  1.7636 -0.7012  2.0028
 1003MOL0     H38390   4.679   3.130   0.542  1.5685  3.1500 -0.9509
 1003MOL0     H38391   4.525   3.041   0.491  2.7244 -0.5794  1.4748
 1003MOL0     H38392   4.472   3.086   0.705 -1.4925  1.6294  0.7383
 1003MOL0     H38393   4.396   3.217   0.619 -0.0546 -2.0426 -0.5822
 1003MOL0     H38394   4.831   3.655   0.731  0.5493 -1.5497 -1.3957
 1003MOL0     H38395   4.862   3.713   0.978  3.1204  0.9814 -0.4930
 1003MOL0     H38396   4.768   3.558   1.348  1.2215  0.9884 -0.0544
 1003MOL0     H38397   4.702   3.553   1.577 -0.7335 -1.6818 -1.5796
 1003MOL0     H38398   3.023   3.097   2.104 -0.2274  0.1056 -2.5641
 1003MOL0     H38399   2.796   3.117   2.167 -0.8590  0.4826 -2.3730
 1003MOL0     H38400   2.514   3.270   2.483  0.9287  0.4907 -1.7061
 1003MOL0     H38401   2.300   3.243   2.598  1.6637  1.0926 -0.7716
 1003MOL0     H38402   2.085   3.098   2.633 -1.7773 -0.5000  2.2971
 1003MOL0     H38403   2.102   3.278   2.678 -0.2124  0.5981 -0.6869
 1003MOL0     H38404   1.866   3.118   2.583  3.5785 -2.4922  1.5118
 1003MOL0     H38405   1.861   3.295   2.620  0.7507 -0.3501  0.2321
 1003MOL0     H38406   1.908   3.052   2.803 -0.1287  0.1203  0.5997
 1003MOL0     H38407   1.912   3.229   2.852  0.5580  0.1743 -1.4418
 1003MOL0     H38408   1.680   3.078   2.733 -0.7111 -0.8585  0.6937
 1003MOL0     H38409   1.693   3.263   2.770  1.9032 -0.0162  1.8440
 1003MOL0     H38410   1.624   3.129   3.140 -2.3465  1.0482  0.3466
 1003MOL0     H38411   2.087   3.279   2.224  2.3640 -1.9079 -3.4539
 1003MOL0     H38412   2.201   3.310   2.019 -0.1832 -2.4939 -0.4692
 1003MOL0     H38413   2.373   3.382   2.016  2.3894 -2.3872  0.1304
 1003MOL0     H38414   2.343   3.213   2.002 -0.6167  0.5586 -1.0953
 1004MOL0     O38415   9.824   4.706   8.107 -0.5015 -0.4153  0.5606
 1004MOL0     C38416   9.762   4.603   8.080 -0.1666 -0.7791  0.6548
 1004MOL0     O38417   9.820   4.492   8.031 -0.4931  0.5365 -0.1014
 1004MOL0     C38418   9.953   4.502   7.991 -0.2438  1.0524 -0.2951
 1004MOL0     C38419  10.039   4.414   8.054  0.6928  0.0607  0.4144
 1004MOL0     C38420  10.171   4.400   8.008  1.1321  0.3640  0.1883
 1004MOL0     C38421  10.228   4.496   7.917  0.8590  0.7607 -0.8829
 1004MOL0     O38422  10.356   4.476   7.876 -0.4206 -0.4768 -0.0967
 1004MOL0     C38423  10.394   4.531   7.753 -0.0941 -1.1594 -0.1771
 1004MOL0     C38424  10.545   4.508   7.729  0.1261 -0.2125 -0.5640
 1004MOL0     C38425  10.631   4.560   7.844 -0.3529 -0.7229 -0.0552
 1004MOL0     C38426  10.786   4.556   7.820  0.1531  0.9434 -0.1533
 1004MOL0     C38427  10.860   4.539   7.948 -0.2070  0.4022  0.1740
 1004MOL0     C38428  10.874   4.662   8.025 -0.1802 -0.8463 -0.2961
 1004MOL0     C38429  10.939   4.637   8.159 -0.1380 -0.5578  0.0353
 1004MOL0     C38430  10.940   4.763   8.244 -0.9233  0.3801  0.0562
 1004MOL0     N38431  11.036   4.875   8.190  0.3592  0.1114  0.0005
 1004MOL0     C38432  11.003   4.988   8.116  1.2756  0.5657 -0.2774
 1004MOL0     C38433  11.114   5.066   8.110 -0.3932 -0.8938 -0.8093
 1004MOL0     C38434  11.128   5.202   8.034 -0.0156  0.0964 -0.1234
 1004MOL0     C38435  11.165   5.167   7.891  0.0939 -0.3402 -0.2404
 1004MOL0     C38436  11.166   5.288   7.806 -0.0337 -0.0619  0.1095
 1004MOL0     C38437  11.305   5.366   7.818  0.4492  0.0898  1.4831
 1004MOL0     O38438  11.424   5.294   7.774 -0.1886  0.2911  0.6040
 1004MOL0     C38439  11.540   5.358   7.768  0.6828 -0.1628  0.1736
 1004MOL0     C38440  11.573   5.473   7.843 -0.5587  0.3581  0.8248
 1004MOL0     C38441  11.687   5.548   7.818 -0.6531  1.1908  0.7360
 1004MOL0     C38442  11.697   5.681   7.891  0.8090  0.3870 -0.6485
 1004MOL0     C38443  11.778   5.499   7.712  0.6098 -0.8745 -0.9998
 1004MOL0     C38444  11.894   5.577   7.652 -0.1081  0.6785 -0.0508
 1004MOL0     O38445  11.971   5.505   7.563  0.6542  0.3636  0.6583
 1004MOL0     C38446  12.098   5.554   7.543 -0.1208  0.5115  0.0302
 1004MOL0     C38447  12.186   5.549   7.656 -1.0681 -0.1289 -0.8376
 1004MOL0     C38448  12.321   5.578   7.632 -0.6980  0.3740  0.1817
 1004MOL0     C38449  12.375   5.589   7.502  0.9645 -0.2470 -0.0127
 1004MOL0     O38450  12.511   5.588   7.470  0.1272 -0.1964 -0.6346
 1004MOL0     C38451  12.607   5.670   7.541 -0.6005  0.2948  0.1999
 1004MOL0     C38452  12.707   5.719   7.447 -0.1007 -1.1600  0.7645
 1004MOL0     C38453  12.807   5.613   7.399  0.0414  0.6534  0.6038
 1004MOL0     C38454  12.756   5.548   7.268  0.6762 -1.3655  0.2206
 1004MOL0     C38455  12.820   5.412   7.237 -0.1705 -0.0292  0.8138
 1004MOL0     C38456  12.976   5.408   7.248 -0.7940  1.1732  0.8353
 1004MOL0     C38457  13.033   5.284   7.183 -0.2192 -0.7487  0.1297
 1004MOL0     C38458  13.183   5.268   7.222  0.0120 -0.5228  0.1981
 1004MOL0    Cl38459  13.282   5.397   7.161 -0.1276 -0.3137 -0.4853
 1004MOL0     C38460  12.283   5.595   7.399 -0.3556  0.2586 -0.8094
 1004MOL0     C38461  12.141   5.583   7.411  0.1477  1.3284 -1.8175
 1004MOL0     O38462  11.916   5.691   7.700 -0.2276  0.7234 -0.3788
 1004MOL0     C38463  11.756   5.369   7.658 -0.0669 -0.7383 -0.5920
 1004MOL0     C38464  11.632   5.301   7.682  0.4132  0.0862 -0.3606
 1004MOL0     N38465  11.212   5.004   8.190  0.3583  0.1283  0.8275
 1004MOL0     N38466  11.168   4.883   8.221 -0.1108 -0.5268  0.8683
 1004MOL0     C38467  10.142   4.604   7.868 -0.5957  0.4188 -0.0873
 1004MOL0     C38468  10.009   4.606   7.901  1.0001 -0.6918  0.6583
 1004MOL0     C38469   9.618   4.592   8.103  0.4603  0.2020 -0.2953
 1004MOL0     C38470   9.552   4.502   8.015 -0.4395 -0.2087 -0.1507
 1004MOL0     C38471   9.415   4.481   8.020  0.2077 -0.1975  0.3466
 1004MOL0     C38472   9.330   4.544   8.105  0.3618  0.2275 -0.0922
 1004MOL0     O38473   9.194   4.512   8.096 -0.0087  0.5351 -1.1188
 1004MOL0     C38474   9.104   4.601   8.157  0.0159 -0.1747  0.4968
 1004MOL0     C38475   8.963   4.564   8.123  0.0770 -0.6243 -0.6817
 1004MOL0     C38476   8.849   4.663   8.169 -0.6478  0.3750  0.0303
 1004MOL0     C38477   8.714   4.598   8.133 -1.1306 -0.0988  0.0252
 1004MOL0     C38478   8.671   4.620   7.992  0.5849 -0.3111 -0.1176
 1004MOL0     C38479   8.635   4.635   7.879 -0.0240  0.2725 -0.1546
 1004MOL0     C38480   9.385   4.632   8.194 -0.5054  0.3347 -0.9268
 1004MOL0     C38481   9.530   4.649   8.199  0.3517 -0.2762 -0.3869
 1004MOL0     C38482   9.589   4.740   8.314  0.4668  0.0902  0.4409
 1004MOL0     H38483  10.009   4.334   8.121 -0.5960 -1.2253 -1.5716
 1004MOL0     H38484  10.240   4.333   8.058  2.0188  0.2511 -1.1328
 1004MOL0     H38485  10.384   4.640   7.759  3.5722 -0.7910  1.8605
 1004MOL0     H38486  10.333   4.488   7.672 -1.2363  2.1298 -1.2220
 1004MOL0     H38487  10.556   4.401   7.712 -2.7999 -0.7901  0.6923
 1004MOL0     H38488  10.584   4.567   7.645  1.4858 -0.0566  0.1437
 1004MOL0     H38489  10.592   4.661   7.859 -2.5492 -1.3055 -1.3956
 1004MOL0     H38490  10.608   4.505   7.935 -0.9841  0.4385  0.5094
 1004MOL0     H38491  10.811   4.468   7.761  2.0340  0.8722  0.6865
 1004MOL0     H38492  10.819   4.651   7.776 -0.1675  0.0661 -2.4443
 1004MOL0     H38493  10.958   4.495   7.927 -0.5364  0.0445 -0.6654
 1004MOL0     H38494  10.815   4.454   7.999 -0.9724 -0.2932 -1.5482
 1004MOL0     H38495  10.936   4.729   7.964 -0.4861 -2.1581 -2.1438
 1004MOL0     H38496  10.771   4.694   8.044 -0.2915 -1.0789 -0.5167
 1004MOL0     H38497  11.045   4.618   8.140  0.0604  0.1415  0.4097
 1004MOL0     H38498  10.897   4.554   8.217  1.1439 -0.8437  0.5923
 1004MOL0     H38499  10.838   4.800   8.254 -1.0364  0.6882 -1.8385
 1004MOL0     H38500  10.971   4.734   8.345 -3.2600  1.0241  1.0296
 1004MOL0     H38501  10.901   5.019   8.098  1.1758 -0.3633 -1.4167
 1004MOL0     H38502  11.196   5.278   8.074  1.3109 -0.4220 -1.3375
 1004MOL0     H38503  11.032   5.255   8.041  0.0416  0.0386  1.5641
 1004MOL0     H38504  11.264   5.122   7.887  0.8905  1.2720  0.4779
 1004MOL0     H38505  11.092   5.097   7.850  1.8014 -0.1462 -4.0192
 1004MOL0     H38506  11.156   5.252   7.703  0.5596 -0.9827  0.3647
 1004MOL0     H38507  11.078   5.347   7.834 -1.0943 -2.4288  2.0825
 1004MOL0     H38508  11.307   5.457   7.758  0.4854 -0.6220  0.3741
 1004MOL0     H38509  11.314   5.395   7.923 -1.3514  1.1326  1.3954
 1004MOL0     H38510  11.507   5.509   7.921  0.5479  2.0679  1.0335
 1004MOL0     H38511  11.711   5.759   7.816 -2.0405 -0.1231 -1.8269
 1004MOL0     H38512  11.792   5.687   7.945 -0.7744  0.7084  2.3352
 1004MOL0     H38513  11.621   5.701   7.968  0.9733  0.7531 -0.5820
 1004MOL0     H38514  12.157   5.530   7.758  2.7692  0.6069  0.5634
 1004MOL0     H38515  12.392   5.582   7.713  2.0658 -1.2889 -1.9825
 1004MOL0     H38516  12.565   5.750   7.603  1.0348  0.0309  1.7329
 1004MOL0     H38517  12.650   5.605   7.618 -0.8245 -1.2898 -0.9648
 1004MOL0     H38518  12.649   5.755   7.362 -2.5213 -1.3295  2.2741
 1004MOL0     H38519  12.751   5.802   7.502  0.0983 -0.0540 -0.9958
 1004MOL0     H38520  12.824   5.538   7.477  0.0781  0.9383  0.8695
 1004MOL0     H38521  12.908   5.653   7.383 -1.1354  3.5588 -0.3323
 1004MOL0     H38522  12.761   5.622   7.187 -2.2248  2.2148  2.9638
 1004MOL0     H38523  12.647   5.546   7.262  0.5629  2.0800 -1.3998
 1004MOL0     H38524  12.783   5.335   7.305 -1.6529 -0.9222 -0.8923
 1004MOL0     H38525  12.796   5.380   7.135  2.2608 -1.0449  0.4840
 1004MOL0     H38526  13.010   5.394   7.351  3.3673 -1.3536 -0.6567
 1004MOL0     H38527  13.026   5.491   7.198 -0.6090  1.2059  1.0740
 1004MOL0     H38528  13.025   5.296   7.074 -3.1767 -0.2440  0.3330
 1004MOL0     H38529  12.974   5.200   7.218 -0.1308  0.5016  3.6072
 1004MOL0     H38530  13.210   5.170   7.183  1.6212 -0.6567  1.5574
 1004MOL0     H38531  13.193   5.258   7.331  1.6474 -2.0073 -0.0412
 1004MOL0     H38532  12.321   5.623   7.301  2.3168 -2.7251 -0.7961
 1004MOL0     H38533  12.062   5.599   7.338 -3.7924 -1.0326  1.4531
 1004MOL0     H38534  11.831   5.330   7.590 -0.0754 -0.0640 -0.9909
 1004MOL0     H38535  11.605   5.209   7.632 -2.5589  0.6345  0.0508
 1004MOL0     H38536  10.178   4.685   7.805 -1.0043  1.0749  0.5131
 1004MOL0     H38537   9.940   4.684   7.869 -0.7442 -1.9415  1.1978
 1004MOL0     H38538   9.606   4.437   7.946 -1.1156 -0.8239 -0.1101
 1004MOL0     H38539   9.377   4.425   7.936 -0.5147  1.6188 -0.5837
 1004MOL0     H38540   9.117   4.606   8.266 -0.9045  2.1524  0.5789
 1004MOL0     H38541   9.112   4.704   8.120  1.7207 -0.5735 -0.3076
 1004MOL0     H38542   8.937   4.464   8.158 -0.9108 -1.5446 -3.7697
 1004MOL0     H38543   8.961   4.570   8.014 -0.0466 -0.0146 -0.6494
 1004MOL0     H38544   8.853   4.678   8.278 -1.2752  1.5204 -0.0894
 1004MOL0     H38545   8.847   4.758   8.115 -2.2863 -0.3098 -1.2133
 1004MOL0     H38546   8.639   4.632   8.204 -2.3062  0.3077 -1.3571
 1004MOL0     H38547   8.724   4.493   8.161 -1.0812  0.2610  1.4502
 1004MOL0     H38548   8.600   4.624   7.778  0.7776  2.7066 -0.7622
 1004MOL0     H38549   9.326   4.690   8.265  0.7627 -0.6516  1.0473
 1004MOL0     H38550   9.605   4.833   8.260 -0.9245  1.2107  1.8554
 1004MOL0     H38551   9.509   4.764   8.385  0.5369 -3.9570  2.1650
 1004MOL0     H38552   9.686   4.706   8.351  2.2425  2.4877 -1.6746
 1005MOL0     O38553   4.753   6.456   8.521  0.6750 -0.6523 -0.5315
 1005MOL0     C38554   4.668   6.494   8.447 -0.3432 -0.2259 -1.4103
 1005MOL0     O38555   4.679   6.594   8.353  0.1052 -0.5846 -0.2315
 1005MOL0     C38556   4.790   6.680   8.358 -0.2352  0.2156  0.3046
 1005MOL0     C38557   4.925   6.637   8.353 -0.9646 -0.0467 -0.2772
 1005MOL0     C38558   5.037   6.723   8.356 -1.7562  0.3521 -0.3020
 1005MOL0     C38559   5.018   6.862   8.371  0.7369  0.4448  0.0666
 1005MOL0     O38560   5.115   6.964   8.375  0.1328 -0.4506  0.0316
 1005MOL0     C38561   5.241   6.919   8.389  0.0903 -0.2853 -0.3043
 1005MOL0     C38562   5.340   7.034   8.413  0.3498 -0.1514  0.8169
 1005MOL0     C38563   5.457   6.983   8.485  0.8335 -0.3566 -0.0459
 1005MOL0     C38564   5.546   6.889   8.420  0.7548  0.1367 -0.1908
 1005MOL0     C38565   5.642   6.820   8.524 -0.4166 -0.3737 -0.8587
 1005MOL0     C38566   5.734   6.732   8.444 -0.6229  0.2779  0.0411
 1005MOL0     C38567   5.864   6.795   8.402  0.3334  0.3308  0.7008
 1005MOL0     C38568   5.963   6.816   8.527  0.6697  0.1252 -0.2821
 1005MOL0     N38569   5.991   6.688   8.599  0.4156 -0.2997 -0.2597
 1005MOL0     C38570   5.949   6.646   8.722 -0.7221 -0.8948 -0.7240
 1005MOL0     C38571   6.030   6.541   8.752  0.4108 -0.6238  0.3074
 1005MOL0     C38572   6.019   6.457   8.874  0.2592 -0.2874  0.1358
 1005MOL0     C38573   6.053   6.311   8.864 -0.1408 -0.4379  0.1673
 1005MOL0     C38574   6.023   6.231   8.996  0.0970  0.4369 -0.6575
 1005MOL0     C38575   6.099   6.101   9.015 -0.4374  0.5848 -0.2511
 1005MOL0     O38576   6.085   6.047   9.151 -0.3651 -0.4739  0.5307
 1005MOL0     C38577   6.193   5.964   9.185  0.0821  0.4253  0.0480
 1005MOL0     C38578   6.277   5.887   9.095 -0.6181  0.3096  0.4352
 1005MOL0     C38579   6.385   5.807   9.145 -0.0221  0.4456  0.8012
 1005MOL0     C38580   6.472   5.727   9.049 -0.1730 -0.6754  0.7345
 1005MOL0     C38581   6.393   5.791   9.287 -0.1249 -0.0192  0.5054
 1005MOL0     C38582   6.520   5.729   9.360  0.1188 -0.4856 -0.4696
 1005MOL0     O38583   6.517   5.722   9.497 -0.4076  0.3643  0.1249
 1005MOL0     C38584   6.589   5.620   9.548 -0.3282 -0.4980  0.3980
 1005MOL0     C38585   6.530   5.501   9.583 -0.2067 -0.1854  0.1358
 1005MOL0     C38586   6.614   5.399   9.633 -0.3491  0.6517 -0.1518
 1005MOL0     C38587   6.750   5.417   9.654  0.8662 -0.1328 -0.0724
 1005MOL0     O38588   6.832   5.311   9.683 -0.3897  0.0447  0.5654
 1005MOL0     C38589   6.826   5.266   9.814  0.1337 -0.2675  0.1073
 1005MOL0     C38590   6.875   5.126   9.847 -0.1097 -0.3218  0.3753
 1005MOL0     C38591   6.864   5.093   9.989  0.5056 -0.0897 -0.4593
 1005MOL0     C38592   6.932   4.957   9.998 -0.4854 -0.3963 -0.1815
 1005MOL0     C38593   6.953   4.895  10.137  0.6978  0.2994  0.8333
 1005MOL0     C38594   7.050   4.779  10.121  0.4372 -0.0060  0.6594
 1005MOL0     C38595   7.075   4.704  10.256 -0.0651  0.3230  0.8850
 1005MOL0     C38596   7.083   4.553  10.247 -0.4770 -0.1563 -0.0110
 1005MOL0    Cl38597   6.922   4.480  10.200 -0.5535 -0.0796 -0.0220
 1005MOL0     C38598   6.812   5.540   9.620 -0.1302  0.8742 -0.2718
 1005MOL0     C38599   6.728   5.641   9.558 -0.1760  0.2685 -0.1071
 1005MOL0     O38600   6.607   5.681   9.284 -0.1428 -0.4081 -0.0017
 1005MOL0     C38601   6.304   5.854   9.372 -0.8579 -0.5166  0.6833
 1005MOL0     C38602   6.205   5.942   9.324  0.3042  0.3906  0.2339
 1005MOL0     N38603   6.115   6.517   8.655  0.0154 -0.7278  0.3350
 1005MOL0     N38604   6.087   6.602   8.558 -0.1375 -0.2025  0.1411
 1005MOL0     C38605   4.883   6.912   8.385 -0.0211 -0.4086 -0.8820
 1005MOL0     C38606   4.770   6.824   8.379  0.5053 -0.3471  0.2475
 1005MOL0     C38607   4.536   6.418   8.454 -0.7794 -0.2078  0.4713
 1005MOL0     C38608   4.421   6.493   8.455 -0.4865 -0.0209  0.2200
 1005MOL0     C38609   4.307   6.422   8.448 -0.1990  0.6398  0.6755
 1005MOL0     C38610   4.306   6.285   8.428 -0.6287 -0.2602  0.6397
 1005MOL0     O38611   4.182   6.237   8.412  0.6778 -0.1175  0.0028
 1005MOL0     C38612   4.157   6.097   8.445  0.0534  0.5492  0.2452
 1005MOL0     C38613   4.013   6.058   8.447 -0.2097 -0.5334  0.3931
 1005MOL0     C38614   3.932   6.141   8.553  1.3297 -0.5381  0.2053
 1005MOL0     C38615   3.874   6.264   8.470 -0.5844 -0.4270  0.3084
 1005MOL0     C38616   3.808   6.359   8.558  1.0279  0.4172 -0.4523
 1005MOL0     C38617   3.752   6.434   8.637 -0.6202 -0.2284 -0.3618
 1005MOL0     C38618   4.416   6.209   8.427 -1.1056  0.0667  0.2402
 1005MOL0     C38619   4.536   6.278   8.439 -0.3468 -0.0385  0.5029
 1005MOL0     C38620   4.657   6.182   8.431 -0.3699 -0.4705 -0.0343
 1005MOL0     H38621   4.951   6.533   8.338 -0.3209 -0.0341  0.6601
 1005MOL0     H38622   5.135   6.677   8.352 -1.9814 -0.1708  0.0166
 1005MOL0     H38623   5.277   6.858   8.307  0.8767  0.8976 -0.8635
 1005MOL0     H38624   5.248   6.851   8.475  0.5896  1.5870  1.2026
 1005MOL0     H38625   5.365   7.103   8.331 -0.9318  2.0986  2.2242
 1005MOL0     H38626   5.287   7.096   8.485 -2.0424 -2.9383  1.6295
 1005MOL0     H38627   5.513   7.063   8.535 -0.0298 -0.1376  0.6071
 1005MOL0     H38628   5.420   6.935   8.576 -0.5387  0.4461 -0.1464
 1005MOL0     H38629   5.482   6.819   8.366 -0.9465  2.3845 -1.2218
 1005MOL0     H38630   5.598   6.943   8.340 -0.0924  1.0502 -0.1457
 1005MOL0     H38631   5.581   6.750   8.582 -1.2247 -0.5675 -1.9105
 1005MOL0     H38632   5.685   6.904   8.580  0.2712 -1.7251  0.7362
 1005MOL0     H38633   5.760   6.642   8.501 -1.8763 -0.0310  0.1563
 1005MOL0     H38634   5.684   6.699   8.352  1.2738 -2.7226 -0.0510
 1005MOL0     H38635   5.839   6.895   8.366 -3.3461 -1.0943 -1.2508
 1005MOL0     H38636   5.906   6.729   8.324 -1.7133 -0.0841 -0.1318
 1005MOL0     H38637   6.057   6.860   8.492 -0.3303  2.3033 -0.3923
 1005MOL0     H38638   5.924   6.887   8.599  2.1996 -0.9266  1.6734
 1005MOL0     H38639   5.865   6.695   8.770  0.0077  0.1976 -0.5135
 1005MOL0     H38640   5.912   6.450   8.893  0.2169 -0.2970 -0.1098
 1005MOL0     H38641   6.076   6.499   8.959 -0.7467 -2.2603  1.8730
 1005MOL0     H38642   5.989   6.267   8.787 -0.9850  0.2869  0.4471
 1005MOL0     H38643   6.161   6.308   8.847  0.1102  1.1045  1.2942
 1005MOL0     H38644   6.046   6.298   9.081 -0.2375  1.0816 -1.0678
 1005MOL0     H38645   5.917   6.206   9.004  0.4443 -0.6890  1.1592
 1005MOL0     H38646   6.070   6.030   8.937  0.1383 -1.1051  1.0155
 1005MOL0     H38647   6.207   6.114   9.013  0.0348 -2.4293  0.8404
 1005MOL0     H38648   6.250   5.890   8.990  0.6365 -1.8670 -0.0057
 1005MOL0     H38649   6.479   5.620   9.068 -0.1405 -1.0228 -1.1387
 1005MOL0     H38650   6.573   5.769   9.053 -0.6646  0.4769  2.5740
 1005MOL0     H38651   6.445   5.751   8.946  1.3052 -2.3290 -0.0748
 1005MOL0     H38652   6.426   5.492   9.555 -0.6326  0.5489  1.4053
 1005MOL0     H38653   6.572   5.300   9.645  1.1228  0.1658  1.3974
 1005MOL0     H38654   6.889   5.331   9.876 -2.9884  0.3122  2.9887
 1005MOL0     H38655   6.727   5.290   9.854 -0.5557 -1.9970 -0.4889
 1005MOL0     H38656   6.811   5.063   9.785  0.5060 -1.8837  1.2711
 1005MOL0     H38657   6.979   5.118   9.814  0.3094  2.9127  0.5424
 1005MOL0     H38658   6.765   5.088  10.034  1.8934 -1.9587  2.7548
 1005MOL0     H38659   6.921   5.164  10.049 -0.1382  0.8367 -0.9178
 1005MOL0     H38660   7.029   4.967   9.949 -0.4025  1.5204  0.3017
 1005MOL0     H38661   6.869   4.888   9.941  2.2237 -2.2657 -1.0712
 1005MOL0     H38662   7.007   4.967  10.200 -0.4730  2.3566 -0.3790
 1005MOL0     H38663   6.857   4.873  10.185  0.3694 -0.7528 -0.2645
 1005MOL0     H38664   7.140   4.820  10.075  1.9708 -2.3335  1.4403
 1005MOL0     H38665   7.014   4.708  10.046  2.4659 -3.5778  2.7983
 1005MOL0     H38666   6.997   4.732  10.328 -0.0880 -0.2462  1.0849
 1005MOL0     H38667   7.172   4.737  10.295 -0.0332 -1.3198  2.2825
 1005MOL0     H38668   7.130   4.506  10.334  3.6280  0.6650 -1.5814
 1005MOL0     H38669   7.156   4.541  10.167  1.0895  2.0792  0.9709
 1005MOL0     H38670   6.915   5.562   9.645  0.1408  0.2719 -0.8270
 1005MOL0     H38671   6.773   5.737   9.535 -0.4585  0.2444 -0.7703
 1005MOL0     H38672   6.312   5.856   9.480 -2.0898  0.5695  0.7747
 1005MOL0     H38673   6.130   5.987   9.388  1.0834 -0.7197  2.0277
 1005MOL0     H38674   4.873   7.018   8.405  2.4061 -0.6815  2.8485
 1005MOL0     H38675   4.677   6.878   8.395  0.4590  0.3847 -2.1107
 1005MOL0     H38676   4.416   6.601   8.469 -1.2132  0.0242 -0.3087
 1005MOL0     H38677   4.209   6.467   8.437 -1.1048 -1.1615  1.0203
 1005MOL0     H38678   4.212   6.023   8.385 -1.2632 -0.7795  0.6136
 1005MOL0     H38679   4.185   6.090   8.551 -0.2194  2.2492  0.4466
 1005MOL0     H38680   4.005   5.951   8.471 -0.2082 -1.2231 -2.3088
 1005MOL0     H38681   3.973   6.069   8.345  1.3980  1.8325 -0.0484
 1005MOL0     H38682   3.851   6.081   8.594  0.9436 -1.1839 -1.3988
 1005MOL0     H38683   3.999   6.182   8.628  0.9299  2.6979 -1.0518
 1005MOL0     H38684   3.816   6.222   8.388 -0.1271 -1.2628  0.3958
 1005MOL0     H38685   3.967   6.311   8.438  0.3492 -2.5765 -0.3103
 1005MOL0     H38686   3.698   6.496   8.705 -2.2449  0.3103 -2.0680
 1005MOL0     H38687   4.415   6.102   8.411  0.4113 -0.2776  2.1762
 1005MOL0     H38688   4.652   6.124   8.338  2.2475  0.1871 -0.6730
 1005MOL0     H38689   4.756   6.228   8.419 -0.0855 -1.3801 -1.4333
 1005MOL0     H38690   4.663   6.115   8.518  0.7420  0.6929  0.8237
 1006MOL0     O38691   1.377   1.588   1.637  0.0187 -0.4740  0.1155
 1006MOL0     C38692   1.296   1.664   1.688 -0.1111  0.2008  0.4156
 1006MOL0     O38693   1.329   1.781   1.757  0.5194  0.6871 -0.5345
 1006MOL0     C38694   1.459   1.817   1.767 -0.0448 -0.5096  0.6581
 1006MOL0     C38695   1.564   1.736   1.812 -0.0698  0.1385  0.5663
 1006MOL0     C38696   1.699   1.787   1.821  0.3612 -0.6483 -0.1271
 1006MOL0     C38697   1.730   1.919   1.784  1.2717  0.0635  0.0314
 1006MOL0     O38698   1.862   1.964   1.795 -0.0056  0.4293 -0.6220
 1006MOL0     C38699   1.903   2.033   1.682  0.3804 -0.5514  0.1006
 1006MOL0     C38700   2.053   2.071   1.693 -0.5425  0.1786 -0.9018
 1006MOL0     C38701   2.081   2.156   1.818 -0.5878 -0.6162 -0.0704
 1006MOL0     C38702   2.235   2.160   1.846  1.0077  0.4894  0.2242
 1006MOL0     C38703   2.267   2.250   1.964  0.1610 -0.0069 -0.1691
 1006MOL0     C38704   2.410   2.236   2.015 -0.1907  0.0569 -0.8901
 1006MOL0     C38705   2.518   2.272   1.908  0.0654  0.1805 -0.7526
 1006MOL0     C38706   2.646   2.324   1.975  0.4817  0.6700 -0.8426
 1006MOL0     N38707   2.747   2.339   1.868 -0.1126 -0.1811  0.1336
 1006MOL0     C38708   2.803   2.235   1.802  0.0567  0.1507  0.1632
 1006MOL0     C38709   2.891   2.292   1.719 -0.1835 -0.5342 -0.3451
 1006MOL0     C38710   2.977   2.220   1.613  1.1882 -0.1393  0.8074
 1006MOL0     C38711   3.109   2.283   1.603 -0.3214 -0.2763  0.1515
 1006MOL0     C38712   3.211   2.204   1.523  0.3141  0.1902  0.3693
 1006MOL0     C38713   3.339   2.286   1.504  0.2639 -0.3484  0.4113
 1006MOL0     O38714   3.454   2.199   1.477 -0.1227  0.3393 -0.2027
 1006MOL0     C38715   3.562   2.261   1.415 -0.4393 -0.7667 -0.8353
 1006MOL0     C38716   3.576   2.400   1.395 -1.4984 -0.0882 -0.1886
 1006MOL0     C38717   3.696   2.465   1.351 -0.6594  0.1507 -0.2987
 1006MOL0     C38718   3.695   2.617   1.343 -0.4368 -0.0295  0.5572
 1006MOL0     C38719   3.813   2.382   1.335  0.5361 -0.0548  0.7757
 1006MOL0     C38720   3.938   2.430   1.261  0.1236  0.9274  0.1095
 1006MOL0     O38721   4.018   2.341   1.200 -0.3343  0.4265  0.4500
 1006MOL0     C38722   4.123   2.399   1.125 -0.2643  0.2246  0.1004
 1006MOL0     C38723   4.249   2.336   1.147 -0.2378  0.2225  0.2109
 1006MOL0     C38724   4.363   2.399   1.084 -0.2187  0.8816 -0.3779
 1006MOL0     C38725   4.343   2.508   0.996  0.0123  0.5150  0.3867
 1006MOL0     O38726   4.459   2.538   0.940 -0.0749  0.5232 -0.1311
 1006MOL0     C38727   4.469   2.678   0.899  0.4666 -0.5015  0.3299
 1006MOL0     C38728   4.549   2.692   0.762  0.0565  0.2291  0.4269
 1006MOL0     C38729   4.465   2.654   0.640 -0.0536  0.2851 -0.0310
 1006MOL0     C38730   4.541   2.698   0.502  0.2655  0.4263  0.6469
 1006MOL0     C38731   4.493   2.634   0.372 -0.3543  0.4300  0.3632
 1006MOL0     C38732   4.352   2.685   0.337  0.5164  0.2376  0.1711
 1006MOL0     C38733   4.320   2.647   0.190 -0.2674  0.3127  0.6419
 1006MOL0     C38734   4.177   2.686   0.156 -0.6205 -0.3346 -0.3669
 1006MOL0    Cl38735   4.068   2.592   0.256  0.5549  0.4412  0.5751
 1006MOL0     C38736   4.218   2.564   0.974 -0.0626  0.3798 -0.0254
 1006MOL0     C38737   4.105   2.515   1.046  0.2894  0.2587  0.6242
 1006MOL0     O38738   3.948   2.551   1.248  0.1722  0.1095 -0.2115
 1006MOL0     C38739   3.806   2.243   1.355  0.4824 -0.0413  0.1528
 1006MOL0     C38740   3.685   2.184   1.400  0.8616 -0.0258  0.0010
 1006MOL0     N38741   2.880   2.428   1.721  0.4639 -0.2985 -0.5419
 1006MOL0     N38742   2.798   2.458   1.812  0.4328  0.4462 -0.4940
 1006MOL0     C38743   1.619   1.995   1.741 -1.4173 -0.6149  0.1048
 1006MOL0     C38744   1.489   1.951   1.729 -0.0545 -0.2494  0.1156
 1006MOL0     C38745   1.156   1.626   1.701 -0.1928  0.4427  0.2312
 1006MOL0     C38746   1.099   1.635   1.830  0.9284  0.3856  0.4301
 1006MOL0     C38747   0.970   1.597   1.860  0.3386 -0.5784 -0.4283
 1006MOL0     C38748   0.906   1.519   1.759 -0.4721 -0.1832  0.1747
 1006MOL0     O38749   0.777   1.478   1.774  0.1356 -0.3686  0.0147
 1006MOL0     C38750   0.740   1.411   1.896  0.1395 -0.2695  0.5402
 1006MOL0     C38751   0.803   1.264   1.898  0.5608  0.3647 -0.0562
 1006MOL0     C38752   0.748   1.198   2.027 -0.5122  0.7027 -0.2964
 1006MOL0     C38753   0.619   1.119   2.003 -0.5060 -0.0526 -0.1437
 1006MOL0     C38754   0.629   0.988   1.935  1.1183  0.0059 -0.2566
 1006MOL0     C38755   0.624   0.891   1.859  0.9424 -0.8326  0.2875
 1006MOL0     C38756   0.957   1.495   1.631 -0.6746 -0.3481 -0.9642
 1006MOL0     C38757   1.090   1.543   1.607  0.3521  0.1383  0.3972
 1006MOL0     C38758   1.143   1.515   1.465  0.4874 -0.4050 -0.6925
 1006MOL0     H38759   1.545   1.630   1.825 -0.1975  0.2387  1.2247
 1006MOL0     H38760   1.774   1.718   1.858  0.1030 -0.2545  1.1826
 1006MOL0     H38761   1.849   2.125   1.661 -0.8564 -0.8971  1.6490
 1006MOL0     H38762   1.891   1.975   1.590  2.1801  1.3467 -1.4301
 1006MOL0     H38763   2.117   1.982   1.703  3.5845  2.8854 -0.5623
 1006MOL0     H38764   2.075   2.119   1.597 -0.2206 -0.9079 -1.3995
 1006MOL0     H38765   2.045   2.259   1.806  2.2681  0.5851  0.8037
 1006MOL0     H38766   2.043   2.123   1.915  2.9038 -0.6539  1.4306
 1006MOL0     H38767   2.262   2.062   1.889  2.2738  1.9272  2.9501
 1006MOL0     H38768   2.297   2.163   1.756  1.5252 -1.6390  0.4382
 1006MOL0     H38769   2.206   2.229   2.053  1.8433 -0.6763  0.8651
 1006MOL0     H38770   2.269   2.356   1.936  3.2424  1.1608  3.4939
 1006MOL0     H38771   2.422   2.316   2.088 -0.0090 -0.2661 -0.5640
 1006MOL0     H38772   2.425   2.136   2.058 -0.5181  0.5336  0.3817
 1006MOL0     H38773   2.481   2.353   1.844 -0.8652  0.5727  0.2435
 1006MOL0     H38774   2.537   2.176   1.859  0.5689 -2.0788  3.3890
 1006MOL0     H38775   2.617   2.412   2.035  2.6148 -0.3116  1.8464
 1006MOL0     H38776   2.690   2.246   2.038  0.9635  0.5896 -1.2776
 1006MOL0     H38777   2.786   2.128   1.811 -0.7199  0.1626 -0.9502
 1006MOL0     H38778   2.928   2.233   1.516 -1.7451 -0.6722  2.0953
 1006MOL0     H38779   2.985   2.113   1.635  0.0159 -1.0805 -2.7478
 1006MOL0     H38780   3.096   2.381   1.556 -1.3084 -0.6566 -0.3671
 1006MOL0     H38781   3.157   2.297   1.701 -0.7618  1.4242  0.1703
 1006MOL0     H38782   3.236   2.115   1.581  0.3129 -0.5199 -0.6860
 1006MOL0     H38783   3.177   2.172   1.424  4.6030 -1.4656 -0.8093
 1006MOL0     H38784   3.331   2.360   1.424  4.1385  0.0460  0.1920
 1006MOL0     H38785   3.364   2.342   1.595  1.7515  1.4213 -1.0193
 1006MOL0     H38786   3.499   2.470   1.426 -2.7484 -0.9422 -1.2554
 1006MOL0     H38787   3.706   2.659   1.243  2.0401 -0.5166  0.5589
 1006MOL0     H38788   3.771   2.660   1.409  0.2676  0.1498 -0.3460
 1006MOL0     H38789   3.595   2.643   1.376 -0.6955 -0.5934  0.2444
 1006MOL0     H38790   4.251   2.251   1.215 -0.2548 -0.0774 -0.1611
 1006MOL0     H38791   4.466   2.366   1.093  0.1023  2.3235  2.2859
 1006MOL0     H38792   4.378   2.736   0.883 -0.2399 -2.4606 -5.1476
 1006MOL0     H38793   4.525   2.725   0.980 -0.0463  0.0022  0.3987
 1006MOL0     H38794   4.599   2.785   0.732  2.6234 -1.5180 -1.1130
 1006MOL0     H38795   4.630   2.619   0.772 -0.4754 -0.7063 -1.5575
 1006MOL0     H38796   4.365   2.695   0.658  0.7228  1.5860  1.5056
 1006MOL0     H38797   4.453   2.545   0.642  0.7515  0.2031  1.1798
 1006MOL0     H38798   4.647   2.671   0.505  0.8528  2.0794 -1.9957
 1006MOL0     H38799   4.535   2.807   0.493 -0.8079  0.6387  3.2398
 1006MOL0     H38800   4.563   2.667   0.295 -1.0454 -0.2532 -0.5774
 1006MOL0     H38801   4.496   2.525   0.381  0.9220  0.5122  1.1744
 1006MOL0     H38802   4.342   2.794   0.349 -1.0632  0.1547 -0.1755
 1006MOL0     H38803   4.285   2.635   0.408  0.9580 -1.5709 -0.6488
 1006MOL0     H38804   4.319   2.539   0.171 -0.2654  0.7524 -2.4220
 1006MOL0     H38805   4.396   2.689   0.123 -1.4043  1.2877 -0.0717
 1006MOL0     H38806   4.148   2.677   0.051  2.7240  0.5166 -1.4957
 1006MOL0     H38807   4.173   2.794   0.177  0.9698 -0.0987 -1.1392
 1006MOL0     H38808   4.209   2.634   0.890  0.4813  2.1767  1.3470
 1006MOL0     H38809   4.009   2.560   1.025 -0.7169 -2.1947 -0.3881
 1006MOL0     H38810   3.899   2.189   1.339  1.3700  1.2927  0.6425
 1006MOL0     H38811   3.685   2.076   1.412  1.8440 -0.0448 -0.1223
 1006MOL0     H38812   1.638   2.094   1.703 -1.6113 -1.1801 -1.5339
 1006MOL0     H38813   1.405   2.004   1.686 -1.0425 -0.9029  1.1812
 1006MOL0     H38814   1.156   1.685   1.908  2.8668  1.4722 -1.5739
 1006MOL0     H38815   0.932   1.623   1.958 -1.7681 -1.3161 -0.9799
 1006MOL0     H38816   0.762   1.467   1.988 -1.1932 -1.1200  1.4195
 1006MOL0     H38817   0.631   1.403   1.899  0.0660 -0.8780 -2.0931
 1006MOL0     H38818   0.912   1.268   1.901  0.6497 -0.3100 -1.4963
 1006MOL0     H38819   0.788   1.209   1.805 -2.0149  0.8116 -0.0033
 1006MOL0     H38820   0.825   1.134   2.071 -0.6534 -0.1039 -1.2025
 1006MOL0     H38821   0.727   1.279   2.099 -0.5777  2.0287 -1.7556
 1006MOL0     H38822   0.535   1.159   1.946 -2.0528 -3.1516 -0.2863
 1006MOL0     H38823   0.581   1.102   2.105  1.2422  1.2615  0.7707
 1006MOL0     H38824   0.606   0.805   1.798  1.0788 -0.6839  0.0349
 1006MOL0     H38825   0.904   1.436   1.557  1.2351  1.4943 -4.0711
 1006MOL0     H38826   1.081   1.443   1.411 -0.2561 -1.7507  1.7929
 1006MOL0     H38827   1.147   1.609   1.409 -0.9444  0.1527  0.0810
 1006MOL0     H38828   1.245   1.477   1.470  0.9286  0.7307 -0.6303
 1007MOL0     O38829   4.824   9.291   5.042 -0.7133  0.4855  0.1914
 1007MOL0     C38830   4.895   9.387   5.028 -0.0151 -0.3344 -0.5807
 1007MOL0     O38831   5.028   9.394   5.043 -1.1040  0.9662  0.2949
 1007MOL0     C38832   5.092   9.273   5.091  0.8931  0.1151  0.2748
 1007MOL0     C38833   5.038   9.181   5.189 -0.2507  0.0956 -0.0345
 1007MOL0     C38834   5.126   9.092   5.241  0.7797 -0.2654  0.1620
 1007MOL0     C38835   5.258   9.075   5.205 -1.2431 -0.4313 -0.0562
 1007MOL0     O38836   5.346   8.994   5.265  0.5768  0.3538  0.1440
 1007MOL0     C38837   5.436   8.905   5.194 -0.6888  0.9243  0.4074
 1007MOL0     C38838   5.379   8.758   5.190  0.1806 -0.4974 -0.0169
 1007MOL0     C38839   5.489   8.659   5.142  0.8492 -0.0994 -0.4007
 1007MOL0     C38840   5.547   8.588   5.262 -0.0188  0.8198 -0.2655
 1007MOL0     C38841   5.655   8.495   5.222  1.2218  0.1579 -0.2284
 1007MOL0     C38842   5.719   8.420   5.338  0.2885 -0.4075  0.2202
 1007MOL0     C38843   5.798   8.295   5.287 -0.8265 -0.1841 -0.3218
 1007MOL0     C38844   5.947   8.313   5.268  0.6958 -0.4085  0.1703
 1007MOL0     N38845   6.036   8.267   5.374 -0.2037  0.4024 -0.4430
 1007MOL0     C38846   6.017   8.275   5.514 -0.5166  0.4544  1.0647
 1007MOL0     C38847   6.149   8.248   5.555  0.1217  0.4329  0.2884
 1007MOL0     C38848   6.184   8.247   5.698  0.6190  0.2182 -0.2123
 1007MOL0     C38849   6.334   8.214   5.716 -0.4246 -0.1197 -0.1902
 1007MOL0     C38850   6.373   8.245   5.864  0.6122 -0.3921  0.4389
 1007MOL0     C38851   6.515   8.251   5.911  0.2364  0.9335  0.2890
 1007MOL0     O38852   6.552   8.118   5.940 -0.6115  0.1844  0.0376
 1007MOL0     C38853   6.684   8.081   5.940 -0.0798  0.0254  0.4227
 1007MOL0     C38854   6.775   8.123   5.842  0.2544 -0.3464 -0.4149
 1007MOL0     C38855   6.909   8.096   5.847  0.1305 -0.7884  0.4186
 1007MOL0     C38856   6.993   8.166   5.740  0.6329  0.9459  0.5766
 1007MOL0     C38857   6.970   8.024   5.958  0.2644  0.5522 -0.0762
 1007MOL0     C38858   7.113   7.974   5.961 -0.9338 -0.1437  0.9421
 1007MOL0     O38859   7.182   7.993   5.843 -0.1915  0.3917 -0.2417
 1007MOL0     C38860   7.309   7.950   5.818 -0.8517 -0.1121 -1.1984
 1007MOL0     C38861   7.381   7.849   5.890 -0.3935  0.0560  0.0479
 1007MOL0     C38862   7.517   7.809   5.861  0.5340 -0.7923  0.0346
 1007MOL0     C38863   7.586   7.884   5.759  0.1476  0.5362 -0.2486
 1007MOL0     O38864   7.714   7.857   5.716 -0.1851 -0.4205 -0.2555
 1007MOL0     C38865   7.790   7.785   5.805 -0.9280 -0.1583  0.4504
 1007MOL0     C38866   7.939   7.772   5.756  0.1402  0.0693  0.4617
 1007MOL0     C38867   7.993   7.898   5.688 -1.4652  0.6129 -0.7203
 1007MOL0     C38868   8.150   7.902   5.689 -0.2617  0.2767 -0.8507
 1007MOL0     C38869   8.215   7.793   5.600 -0.5454 -1.2193 -0.2722
 1007MOL0     C38870   8.359   7.756   5.655  0.6947  0.3337  0.4123
 1007MOL0     C38871   8.461   7.871   5.694  0.3461 -0.3916 -0.3213
 1007MOL0     C38872   8.596   7.811   5.724  1.1958  0.3754 -0.5825
 1007MOL0    Cl38873   8.609   7.718   5.871  0.2511 -0.3242  0.1803
 1007MOL0     C38874   7.512   7.986   5.689  0.2356  1.0768 -0.4064
 1007MOL0     C38875   7.380   8.024   5.722 -0.1787 -0.3471 -0.6442
 1007MOL0     O38876   7.157   7.932   6.064 -0.1484 -0.3354 -0.7983
 1007MOL0     C38877   6.875   7.978   6.052  0.0131 -0.2196  0.2880
 1007MOL0     C38878   6.735   8.007   6.048  0.6513  0.4480 -0.0081
 1007MOL0     N38879   6.235   8.218   5.445  0.0798  0.8822 -1.0129
 1007MOL0     N38880   6.162   8.227   5.339  0.0160  0.1853 -0.7194
 1007MOL0     C38881   5.302   9.158   5.095  0.5174  0.4890  0.5144
 1007MOL0     C38882   5.216   9.252   5.041  0.7842 -0.3335  0.2645
 1007MOL0     C38883   4.822   9.511   4.986 -0.4783  0.0153  0.5694
 1007MOL0     C38884   4.882   9.590   4.889 -0.5722 -0.6240  0.0530
 1007MOL0     C38885   4.821   9.703   4.844  0.2246 -0.7647 -0.1155
 1007MOL0     C38886   4.706   9.758   4.894  0.3447 -0.5570  0.1013
 1007MOL0     O38887   4.645   9.875   4.838 -0.2322  0.5685 -0.2522
 1007MOL0     C38888   4.552   9.946   4.921  0.5884 -0.0382 -0.1765
 1007MOL0     C38889   4.502  10.074   4.851 -0.9042 -0.8167  0.6853
 1007MOL0     C38890   4.608  10.185   4.829  0.4592  0.3178  0.1491
 1007MOL0     C38891   4.706  10.150   4.717  0.6756 -0.4996  0.6299
 1007MOL0     C38892   4.794  10.259   4.686 -0.6676  0.0932  0.5609
 1007MOL0     C38893   4.864  10.348   4.650 -0.3608  0.2551  0.3711
 1007MOL0     C38894   4.643   9.683   4.999  0.4028  0.4515  0.4726
 1007MOL0     C38895   4.701   9.554   5.039 -0.2534 -0.3730  0.2206
 1007MOL0     C38896   4.623   9.487   5.154 -0.1566 -0.9789  0.0756
 1007MOL0     H38897   4.933   9.184   5.217 -0.8063 -0.6729 -1.8418
 1007MOL0     H38898   5.104   9.031   5.328 -0.1250 -1.7755 -1.0648
 1007MOL0     H38899   5.527   8.910   5.255 -0.1623  0.7392 -0.3555
 1007MOL0     H38900   5.461   8.940   5.094  0.8703  2.1401  1.1798
 1007MOL0     H38901   5.347   8.724   5.288  3.4266  0.5261  1.5377
 1007MOL0     H38902   5.294   8.747   5.122  0.7544 -0.1961 -0.8002
 1007MOL0     H38903   5.444   8.585   5.076  1.4191  0.3903 -1.3587
 1007MOL0     H38904   5.565   8.712   5.085  0.9972  1.9382  1.5374
 1007MOL0     H38905   5.593   8.657   5.333  0.5185 -0.9369  1.1545
 1007MOL0     H38906   5.464   8.533   5.307 -0.6527  1.6404 -0.4151
 1007MOL0     H38907   5.730   8.554   5.168  0.0075  2.1131  0.1057
 1007MOL0     H38908   5.612   8.418   5.158  0.6954 -0.5602  0.9550
 1007MOL0     H38909   5.776   8.482   5.408  3.2258 -3.0192  0.3983
 1007MOL0     H38910   5.643   8.378   5.404 -0.1256  0.0788  0.0568
 1007MOL0     H38911   5.751   8.260   5.195  2.3365  1.0431 -2.5820
 1007MOL0     H38912   5.787   8.225   5.371 -0.2701 -1.0419 -0.9476
 1007MOL0     H38913   5.978   8.268   5.174  2.1417 -0.2892  0.5667
 1007MOL0     H38914   5.971   8.420   5.257 -0.5765  0.0639  1.5242
 1007MOL0     H38915   5.926   8.297   5.569 -1.2520  0.3298 -0.0889
 1007MOL0     H38916   6.124   8.177   5.755  1.4334 -0.8013 -0.5661
 1007MOL0     H38917   6.168   8.348   5.737 -3.8422  0.1233 -1.2665
 1007MOL0     H38918   6.344   8.107   5.698 -2.3268 -0.3609  0.0525
 1007MOL0     H38919   6.407   8.266   5.652  0.9000  0.7618  1.9109
 1007MOL0     H38920   6.321   8.338   5.886  1.1329  0.0557 -0.1970
 1007MOL0     H38921   6.325   8.163   5.919 -2.1728  0.5468 -0.4407
 1007MOL0     H38922   6.585   8.305   5.846  1.6261  1.6333  2.2646
 1007MOL0     H38923   6.517   8.311   6.002 -0.1322 -0.6437  1.3850
 1007MOL0     H38924   6.732   8.168   5.753  0.5125  0.6780 -0.0359
 1007MOL0     H38925   7.054   8.093   5.685 -2.7453 -0.5661 -1.5070
 1007MOL0     H38926   7.053   8.243   5.789  1.0401  2.3598 -1.9634
 1007MOL0     H38927   6.935   8.218   5.662  2.3097  3.8292  1.1062
 1007MOL0     H38928   7.320   7.795   5.962  1.9929 -0.2882  1.9422
 1007MOL0     H38929   7.551   7.721   5.913 -2.7365 -0.7058  2.6789
 1007MOL0     H38930   7.795   7.834   5.903  0.1957  0.5750  0.0440
 1007MOL0     H38931   7.745   7.686   5.810 -0.4634 -0.3543  0.7676
 1007MOL0     H38932   8.014   7.745   5.830 -0.3546 -0.8752  0.6397
 1007MOL0     H38933   7.948   7.699   5.675 -1.8127  1.6543 -1.3012
 1007MOL0     H38934   7.952   7.986   5.738 -1.2977  1.3095 -1.7764
 1007MOL0     H38935   7.954   7.898   5.586  2.0033 -0.9904 -2.2113
 1007MOL0     H38936   8.182   7.887   5.793 -0.8246 -1.7094 -0.9108
 1007MOL0     H38937   8.192   7.996   5.653  1.2335  0.4917  1.2616
 1007MOL0     H38938   8.154   7.703   5.609 -2.2463  0.0379  1.5745
 1007MOL0     H38939   8.227   7.831   5.498 -1.8410  0.3630  0.1247
 1007MOL0     H38940   8.409   7.687   5.587 -1.7498 -0.9144 -0.2576
 1007MOL0     H38941   8.341   7.689   5.739  0.9039  0.3974  0.5080
 1007MOL0     H38942   8.431   7.931   5.780  0.0098  0.0901 -0.7677
 1007MOL0     H38943   8.464   7.938   5.607  1.2468 -0.8750 -0.6757
 1007MOL0     H38944   8.658   7.900   5.735  2.1396 -0.3652  0.3886
 1007MOL0     H38945   8.620   7.747   5.639  0.3878 -0.5588 -0.1326
 1007MOL0     H38946   7.562   8.044   5.612  1.1409  0.0466 -0.6235
 1007MOL0     H38947   7.320   8.103   5.678  0.9490  0.6176 -0.4822
 1007MOL0     H38948   6.914   7.930   6.141 -1.4558 -0.4794  0.8314
 1007MOL0     H38949   6.671   7.953   6.117  0.5678 -0.7760 -1.0007
 1007MOL0     H38950   5.400   9.170   5.050  0.3332  0.3971  0.0860
 1007MOL0     H38951   5.264   9.312   4.965  2.7362  1.8317  3.0304
 1007MOL0     H38952   4.978   9.555   4.852 -0.5813 -1.5898  0.9122
 1007MOL0     H38953   4.860   9.754   4.757 -3.3486  1.2725 -0.6855
 1007MOL0     H38954   4.461   9.887   4.934 -1.1014  2.0244 -1.6782
 1007MOL0     H38955   4.591   9.982   5.017 -1.1406  2.7268 -0.3773
 1007MOL0     H38956   4.421  10.113   4.914  0.6017  0.5149  1.8719
 1007MOL0     H38957   4.459  10.045   4.755  0.7782 -0.8225 -0.0985
 1007MOL0     H38958   4.561  10.278   4.796  0.7717  0.5849  0.4453
 1007MOL0     H38959   4.662  10.218   4.918 -0.1501 -0.2570  0.7439
 1007MOL0     H38960   4.643  10.137   4.628 -2.4597 -1.6976  2.8264
 1007MOL0     H38961   4.762  10.058   4.730  0.7572 -0.8615 -1.8107
 1007MOL0     H38962   4.931  10.426   4.619 -0.9128  0.3399 -0.6476
 1007MOL0     H38963   4.548   9.711   5.043 -1.7737 -4.0751 -0.6631
 1007MOL0     H38964   4.677   9.424   5.225 -1.2996  0.1726  2.0452
 1007MOL0     H38965   4.567   9.558   5.216  0.8940  0.2869 -0.3775
 1007MOL0     H38966   4.551   9.411   5.122  0.4972 -1.7425  0.3829
 1008MOL0     O38967   4.218   9.317   6.475  0.2554 -0.0555 -0.0612
 1008MOL0     C38968   4.171   9.228   6.551 -0.2073 -0.2646 -0.2679
 1008MOL0     O38969   4.244   9.162   6.651 -0.3046  0.1452  0.0135
 1008MOL0     C38970   4.369   9.216   6.672 -0.1931 -0.2733 -0.3086
 1008MOL0     C38971   4.375   9.322   6.749  0.5458  0.1107 -0.6881
 1008MOL0     C38972   4.494   9.378   6.785 -0.4375 -0.2514 -0.3362
 1008MOL0     C38973   4.613   9.326   6.747 -0.2185 -0.0889  0.4914
 1008MOL0     O38974   4.726   9.368   6.809 -0.2465  0.5570 -0.4270
 1008MOL0     C38975   4.851   9.354   6.742 -0.0883 -0.7682 -0.0683
 1008MOL0     C38976   4.960   9.409   6.838 -0.1775  0.4423  0.3155
 1008MOL0     C38977   5.097   9.412   6.772 -1.0227  0.2046  0.1299
 1008MOL0     C38978   5.209   9.431   6.869 -0.6537 -0.0775  0.3923
 1008MOL0     C38979   5.214   9.563   6.944 -0.4423 -0.2784 -0.1967
 1008MOL0     C38980   5.295   9.551   7.074 -0.4224  0.3204 -0.1241
 1008MOL0     C38981   5.309   9.690   7.144  0.3068  0.3338  0.1314
 1008MOL0     C38982   5.372   9.671   7.279 -0.5244 -0.5030  0.2814
 1008MOL0     N38983   5.284   9.604   7.379 -0.2395  0.2206 -0.3342
 1008MOL0     C38984   5.149   9.596   7.375  0.1664  0.7957 -0.0130
 1008MOL0     C38985   5.122   9.532   7.486  0.2329  0.2517 -1.1364
 1008MOL0     C38986   4.984   9.487   7.539 -0.0692 -0.1636  0.0148
 1008MOL0     C38987   4.925   9.593   7.633 -0.3333  0.6083  0.1609
 1008MOL0     C38988   4.983   9.584   7.765 -0.1431 -0.2071  0.1919
 1008MOL0     C38989   4.880   9.660   7.862 -0.3261  0.3620 -0.2657
 1008MOL0     O38990   4.753   9.601   7.853  0.2988 -0.2471 -0.6074
 1008MOL0     C38991   4.647   9.687   7.869  0.0295 -0.4890 -0.0919
 1008MOL0     C38992   4.572   9.674   7.986 -0.2323 -0.2320 -0.2952
 1008MOL0     C38993   4.451   9.743   8.013  0.0651 -0.2677  0.2544
 1008MOL0     C38994   4.382   9.723   8.150 -0.4362 -0.2684  0.3194
 1008MOL0     C38995   4.410   9.842   7.917 -0.6319  0.8324 -0.4956
 1008MOL0     C38996   4.289   9.923   7.920  0.2239 -0.4994 -0.3961
 1008MOL0     O38997   4.205   9.899   8.026 -0.7085 -0.1888  0.2965
 1008MOL0     C38998   4.081   9.957   8.026  0.3145  0.3627  0.3318
 1008MOL0     C38999   4.055  10.076   8.086  0.8408 -0.0923 -1.1441
 1008MOL0     C39000   3.933  10.140   8.084  0.4191  0.1987  0.7156
 1008MOL0     C39001   3.832  10.074   8.016 -0.5056 -0.7495 -0.3279
 1008MOL0     O39002   3.713  10.138   8.022 -0.4294 -0.5827 -0.3016
 1008MOL0     C39003   3.629  10.115   7.911 -0.0818  1.0866 -0.4634
 1008MOL0     C39004   3.540  10.237   7.885 -0.3159 -0.8222  0.3507
 1008MOL0     C39005   3.440  10.227   7.770 -0.9487 -0.2819 -0.1514
 1008MOL0     C39006   3.511  10.218   7.633 -0.3793  0.2384 -0.7214
 1008MOL0     C39007   3.405  10.195   7.524 -0.2080 -0.5739  0.2361
 1008MOL0     C39008   3.469  10.172   7.386 -0.0389 -0.0131 -0.9826
 1008MOL0     C39009   3.374  10.129   7.279  1.0277 -0.2920 -0.6183
 1008MOL0     C39010   3.284  10.234   7.216  0.0806 -0.8720  0.3499
 1008MOL0    Cl39011   3.126  10.168   7.178  0.5175  0.3227  0.2547
 1008MOL0     C39012   3.850   9.949   7.961 -0.1968 -0.4317  0.3394
 1008MOL0     C39013   3.976   9.889   7.962  0.4668 -0.1286 -0.4961
 1008MOL0     O39014   4.270  10.001   7.825 -0.1560  0.8629 -0.2650
 1008MOL0     C39015   4.501   9.871   7.818 -0.2618 -0.6788 -0.4114
 1008MOL0     C39016   4.615   9.803   7.788 -0.0139  0.0492 -0.5157
 1008MOL0     N39017   5.242   9.491   7.552 -0.3885 -0.0855 -0.5098
 1008MOL0     N39018   5.335   9.538   7.484 -0.1639  0.8024  0.3549
 1008MOL0     C39019   4.610   9.220   6.653 -0.3243 -0.2951  0.0526
 1008MOL0     C39020   4.486   9.166   6.619 -1.1007 -0.2903 -0.0254
 1008MOL0     C39021   4.034   9.171   6.533 -0.3861 -0.5221 -0.1671
 1008MOL0     C39022   4.003   9.044   6.576 -0.5557  1.1178 -0.1566
 1008MOL0     C39023   3.877   8.979   6.572 -0.0918 -0.8944  0.0322
 1008MOL0     C39024   3.770   9.055   6.526  0.3082  1.5280 -0.3279
 1008MOL0     O39025   3.658   8.986   6.511  0.1026  0.4872  0.1750
 1008MOL0     C39026   3.536   9.047   6.463 -0.2594 -0.8628 -0.4367
 1008MOL0     C39027   3.431   8.943   6.470  0.3699  0.4396  0.3303
 1008MOL0     C39028   3.311   8.943   6.376 -0.7983  0.3201 -0.4717
 1008MOL0     C39029   3.218   8.824   6.417  0.4686 -0.2924  0.4800
 1008MOL0     C39030   3.160   8.852   6.548  0.1672 -0.0572 -0.0654
 1008MOL0     C39031   3.096   8.873   6.640  0.7594 -0.0778 -0.7055
 1008MOL0     C39032   3.798   9.178   6.466  0.2221 -0.7721 -1.0486
 1008MOL0     C39033   3.926   9.241   6.474  0.0347 -0.1137 -0.0197
 1008MOL0     C39034   3.947   9.383   6.411  0.7067  0.6172  0.0239
 1008MOL0     H39035   4.292   9.377   6.791  1.6455  1.5004 -0.2415
 1008MOL0     H39036   4.489   9.466   6.849  0.0203 -1.4844  1.4962
 1008MOL0     H39037   4.851   9.415   6.651  1.2705  0.0187  0.4352
 1008MOL0     H39038   4.869   9.248   6.717 -0.6961 -0.4949 -1.7733
 1008MOL0     H39039   4.923   9.507   6.870 -0.5736  0.3689  0.0828
 1008MOL0     H39040   4.954   9.337   6.920 -1.2897 -2.8092 -2.3627
 1008MOL0     H39041   5.123   9.318   6.722  0.4450  1.2245 -1.1088
 1008MOL0     H39042   5.102   9.493   6.698  0.2074  1.4912  1.5476
 1008MOL0     H39043   5.191   9.353   6.943 -4.0313  1.0818  0.9767
 1008MOL0     H39044   5.306   9.405   6.826 -0.7525 -1.6315  1.0337
 1008MOL0     H39045   5.113   9.595   6.970 -0.3509 -0.8463  0.9056
 1008MOL0     H39046   5.268   9.631   6.876 -0.6461 -2.2085 -2.4222
 1008MOL0     H39047   5.239   9.485   7.140 -4.0416  2.1648 -1.0741
 1008MOL0     H39048   5.397   9.513   7.061 -1.0367 -1.7127  0.6425
 1008MOL0     H39049   5.210   9.738   7.149 -0.1602 -0.5676 -0.1197
 1008MOL0     H39050   5.375   9.756   7.088  0.4758  0.4530  0.4700
 1008MOL0     H39051   5.463   9.612   7.272  1.2722  2.1534 -0.3050
 1008MOL0     H39052   5.408   9.766   7.320 -0.3072 -0.5504  0.1969
 1008MOL0     H39053   5.093   9.638   7.292  0.4127 -1.8287 -1.6154
 1008MOL0     H39054   4.970   9.392   7.591  0.1462 -1.0478 -1.5073
 1008MOL0     H39055   4.920   9.486   7.450  0.4859  0.8925 -0.4078
 1008MOL0     H39056   4.960   9.689   7.592  0.5657 -0.2440 -1.1479
 1008MOL0     H39057   4.816   9.582   7.632 -0.2982  0.2021 -1.3487
 1008MOL0     H39058   5.009   9.481   7.793  2.0160  0.1495 -0.3206
 1008MOL0     H39059   5.082   9.631   7.766  0.6125 -1.7284  0.9122
 1008MOL0     H39060   4.926   9.652   7.961  0.0882  0.1120 -0.4752
 1008MOL0     H39061   4.881   9.766   7.836 -1.6449  0.8279  1.4092
 1008MOL0     H39062   4.628   9.614   8.058  2.1270 -1.2295 -2.7850
 1008MOL0     H39063   4.403   9.623   8.190 -0.2847 -0.0185  0.8676
 1008MOL0     H39064   4.274   9.735   8.152 -0.4044  0.4745 -0.9800
 1008MOL0     H39065   4.424   9.791   8.225 -1.1041  0.9921 -0.4171
 1008MOL0     H39066   4.143  10.113   8.139 -0.7297  0.8416  0.9739
 1008MOL0     H39067   3.917  10.224   8.150  3.0273 -0.2138  2.0217
 1008MOL0     H39068   3.677  10.092   7.816  0.2893  0.3735 -0.1107
 1008MOL0     H39069   3.570  10.028   7.941 -0.0319  1.2384  0.0994
 1008MOL0     H39070   3.464  10.250   7.963  0.4444 -0.3278  1.0311
 1008MOL0     H39071   3.597  10.330   7.870  2.2698 -1.7846  3.1573
 1008MOL0     H39072   3.368  10.308   7.782  1.1186  1.6551 -0.2186
 1008MOL0     H39073   3.383  10.134   7.781 -1.5009  0.0700  0.0334
 1008MOL0     H39074   3.576  10.130   7.638 -0.1348  0.3947 -1.1496
 1008MOL0     H39075   3.575  10.303   7.605  0.8531 -0.3187  0.2658
 1008MOL0     H39076   3.336  10.115   7.553 -1.4487  0.1079 -0.7076
 1008MOL0     H39077   3.336  10.280   7.513  0.0689 -0.2780  0.7487
 1008MOL0     H39078   3.543  10.093   7.402 -0.8605 -1.1791 -2.6024
 1008MOL0     H39079   3.526  10.257   7.347 -1.0019  1.1802  0.1135
 1008MOL0     H39080   3.310  10.050   7.318 -0.9461  1.5729  0.0857
 1008MOL0     H39081   3.439  10.086   7.202  2.9058 -1.3967  1.4125
 1008MOL0     H39082   3.333  10.278   7.128  1.8125  0.8541  2.0619
 1008MOL0     H39083   3.277  10.325   7.276  0.9425 -0.4706 -0.1247
 1008MOL0     H39084   3.774   9.896   7.904  0.0907 -0.6649  0.1655
 1008MOL0     H39085   3.994   9.790   7.922 -2.3741 -0.9810  0.1732
 1008MOL0     H39086   4.475   9.951   7.749 -1.8173 -1.7730 -1.1486
 1008MOL0     H39087   4.680   9.834   7.706  1.5685  0.0224  0.6859
 1008MOL0     H39088   4.693   9.169   6.605  1.9982 -0.8795  4.1872
 1008MOL0     H39089   4.482   9.087   6.544  0.0092  0.9465 -1.4477
 1008MOL0     H39090   4.084   8.981   6.613 -1.3030  0.0843 -0.2467
 1008MOL0     H39091   3.878   8.871   6.589 -2.8164 -0.9263  0.3826
 1008MOL0     H39092   3.515   9.148   6.497  3.3087  0.3227 -1.3422
 1008MOL0     H39093   3.551   9.063   6.356  1.8213  0.8046  0.0346
 1008MOL0     H39094   3.400   8.944   6.575  0.0974  0.9151  0.2477
 1008MOL0     H39095   3.479   8.847   6.449 -2.9182 -0.8613 -2.0829
 1008MOL0     H39096   3.255   9.036   6.384 -2.5523 -0.5779 -1.5474
 1008MOL0     H39097   3.349   8.931   6.274 -2.5032  2.4531 -1.4396
 1008MOL0     H39098   3.278   8.734   6.403  1.4298  0.0287  2.2508
 1008MOL0     H39099   3.138   8.831   6.342  1.2707  0.6246 -0.3240
 1008MOL0     H39100   3.042   8.887   6.732  0.6611  1.6922 -1.0049
 1008MOL0     H39101   3.722   9.244   6.425 -0.6831  0.1996  1.9778
 1008MOL0     H39102   4.011   9.390   6.323  0.0326 -1.2511 -0.6625
 1008MOL0     H39103   3.847   9.416   6.383 -0.4277 -2.4459  0.0496
 1008MOL0     H39104   3.986   9.452   6.486 -0.5351  1.1305  0.2198
 1009MOL0     O39105   2.359   4.756   2.719 -0.5378  0.3450  0.1202
 1009MOL0     C39106   2.285   4.841   2.760  0.8456 -0.5991 -0.3349
 1009MOL0     O39107   2.275   4.969   2.705 -0.3995 -0.2361  0.4464
 1009MOL0     C39108   2.368   5.029   2.621 -0.4973  0.4196  0.2119
 1009MOL0     C39109   2.503   5.024   2.635  0.7821  0.4429  0.5959
 1009MOL0     C39110   2.589   5.075   2.534  0.4801  0.1892  0.2731
 1009MOL0     C39111   2.538   5.165   2.438  0.6481 -0.5156 -0.4065
 1009MOL0     O39112   2.623   5.214   2.344  0.2231  0.4101  0.3274
 1009MOL0     C39113   2.627   5.362   2.352  0.3420  0.5634 -0.1016
 1009MOL0     C39114   2.750   5.417   2.286 -0.8670 -0.1895 -0.2526
 1009MOL0     C39115   2.871   5.391   2.372 -0.2735  0.2353 -0.5770
 1009MOL0     C39116   3.007   5.441   2.312  0.0023  0.9881  0.1734
 1009MOL0     C39117   3.103   5.322   2.296 -0.3794  0.6467 -0.5992
 1009MOL0     C39118   3.236   5.359   2.234 -0.5799 -0.2552 -0.1578
 1009MOL0     C39119   3.323   5.441   2.337 -1.1341 -0.5154 -0.1390
 1009MOL0     C39120   3.459   5.476   2.271 -0.4059  0.1155  1.0082
 1009MOL0     N39121   3.560   5.515   2.364 -0.3593 -0.0427 -0.3229
 1009MOL0     C39122   3.698   5.485   2.338 -0.5453  0.0797  0.4105
 1009MOL0     C39123   3.769   5.558   2.425  0.1234  0.2356 -0.5296
 1009MOL0     C39124   3.920   5.539   2.441  0.3120 -0.2448  0.0559
 1009MOL0     C39125   3.968   5.396   2.465  0.5490 -0.3683  0.1632
 1009MOL0     C39126   4.111   5.395   2.504 -0.0685  0.1915  0.1381
 1009MOL0     C39127   4.161   5.267   2.577 -0.5005  0.3643 -0.4413
 1009MOL0     O39128   4.299   5.288   2.610  0.9520 -0.1035 -0.3128
 1009MOL0     C39129   4.366   5.187   2.672  0.5321  0.5699 -0.9677
 1009MOL0     C39130   4.496   5.215   2.693  0.2322 -0.0554  0.0251
 1009MOL0     C39131   4.577   5.120   2.757 -0.0318 -0.0814  0.6914
 1009MOL0     C39132   4.720   5.167   2.770  0.1320 -0.3427  0.3540
 1009MOL0     C39133   4.534   4.993   2.801  1.0143  0.2452 -0.6524
 1009MOL0     C39134   4.615   4.899   2.884  0.0913  0.9814  0.3356
 1009MOL0     O39135   4.730   4.941   2.936  0.5171  0.1283  0.1374
 1009MOL0     C39136   4.806   4.857   3.017 -0.5189  0.5517 -0.1477
 1009MOL0     C39137   4.803   4.857   3.158  0.0253 -0.2263  0.6426
 1009MOL0     C39138   4.896   4.799   3.240 -0.7710 -0.0316 -0.3960
 1009MOL0     C39139   5.008   4.736   3.176 -0.8645  0.8346 -0.3724
 1009MOL0     O39140   5.116   4.673   3.239  0.3915  0.8811  0.2659
 1009MOL0     C39141   5.111   4.652   3.384  0.1303 -0.1682  0.9506
 1009MOL0     C39142   5.227   4.569   3.438  0.9435  0.4811  0.2852
 1009MOL0     C39143   5.260   4.433   3.353  0.1766 -0.7883  0.0590
 1009MOL0     C39144   5.332   4.315   3.432  0.5385  0.1018  0.5840
 1009MOL0     C39145   5.473   4.359   3.475 -0.0723 -0.2011 -0.1764
 1009MOL0     C39146   5.554   4.257   3.554 -0.6365 -0.6630 -0.1251
 1009MOL0     C39147   5.710   4.289   3.550  0.0386  0.4309  0.6771
 1009MOL0     C39148   5.799   4.171   3.545 -0.0547  0.2081  0.1238
 1009MOL0    Cl39149   5.965   4.232   3.543 -0.4879 -0.2132  0.2796
 1009MOL0     C39150   5.015   4.739   3.037  0.2015  0.3451 -0.0907
 1009MOL0     C39151   4.921   4.801   2.961  0.4435  0.1908 -0.0021
 1009MOL0     O39152   4.583   4.786   2.880 -0.1437  0.4535  0.1103
 1009MOL0     C39153   4.397   4.968   2.779  0.4843 -0.0732 -0.0363
 1009MOL0     C39154   4.311   5.063   2.714  0.4219  0.7130 -0.2515
 1009MOL0     N39155   3.675   5.611   2.520 -0.8245  0.0608  0.3754
 1009MOL0     N39156   3.552   5.599   2.475  0.0559  0.6867  0.5563
 1009MOL0     C39157   2.404   5.187   2.430 -0.5285 -1.2218  0.0839
 1009MOL0     C39158   2.318   5.124   2.522 -0.0792 -0.3706  0.4903
 1009MOL0     C39159   2.188   4.815   2.879 -0.6548  0.5471 -0.0218
 1009MOL0     C39160   2.074   4.899   2.893  0.1788 -0.5257  0.2336
 1009MOL0     C39161   1.987   4.883   3.003  0.3996  0.3841 -0.3738
 1009MOL0     C39162   2.024   4.784   3.102  0.3642 -0.5233 -0.7345
 1009MOL0     O39163   1.975   4.773   3.236 -0.1548  0.1450  0.2643
 1009MOL0     C39164   1.844   4.821   3.269 -0.3884 -0.6556 -0.7813
 1009MOL0     C39165   1.728   4.738   3.220  0.3651 -0.4037 -0.2153
 1009MOL0     C39166   1.592   4.814   3.198  0.7607  0.0227  0.9918
 1009MOL0     C39167   1.474   4.722   3.158 -0.0394 -0.0081  0.7996
 1009MOL0     C39168   1.441   4.638   3.275  1.0296  1.2596  0.3899
 1009MOL0     C39169   1.399   4.560   3.362 -0.3163  0.4103 -0.7370
 1009MOL0     C39170   2.134   4.708   3.082 -1.0204  0.2611  0.7704
 1009MOL0     C39171   2.219   4.720   2.973  0.2289  0.4251 -0.3498
 1009MOL0     C39172   2.330   4.623   2.961  0.6066 -0.0724 -0.4006
 1009MOL0     H39173   2.547   4.960   2.711  0.9475 -3.0594 -2.1711
 1009MOL0     H39174   2.695   5.054   2.537 -0.0192 -2.6836  1.6428
 1009MOL0     H39175   2.628   5.406   2.452 -0.4943  0.7256 -0.1563
 1009MOL0     H39176   2.534   5.403   2.312 -0.3509  0.8996  1.7574
 1009MOL0     H39177   2.770   5.380   2.185 -0.7313  1.5374 -0.8920
 1009MOL0     H39178   2.738   5.525   2.277  2.5215  0.5455  2.1331
 1009MOL0     H39179   2.851   5.441   2.468  2.1589  0.2273 -0.0070
 1009MOL0     H39180   2.884   5.286   2.396 -2.3966 -0.8152 -3.4989
 1009MOL0     H39181   2.998   5.494   2.217  1.0225  0.4867 -0.2234
 1009MOL0     H39182   3.051   5.518   2.376 -2.3917  2.5878  0.0358
 1009MOL0     H39183   3.055   5.242   2.240 -2.0627  0.1938  1.3578
 1009MOL0     H39184   3.123   5.286   2.398 -2.3101 -0.1636 -0.4727
 1009MOL0     H39185   3.282   5.263   2.207 -2.2012 -1.7498  2.0324
 1009MOL0     H39186   3.223   5.422   2.146 -1.0886  1.3136  1.0085
 1009MOL0     H39187   3.346   5.386   2.429 -0.9471 -1.1041 -0.5266
 1009MOL0     H39188   3.286   5.537   2.373  1.3928  0.9628 -1.1845
 1009MOL0     H39189   3.492   5.387   2.217 -3.3741 -2.2288  2.7861
 1009MOL0     H39190   3.447   5.563   2.205  0.4038 -0.3300  0.2440
 1009MOL0     H39191   3.735   5.405   2.275 -0.9768  1.4223 -1.6402
 1009MOL0     H39192   3.935   5.582   2.541  1.5381 -1.0710  0.2465
 1009MOL0     H39193   3.967   5.589   2.357 -0.9098  1.0307  0.0815
 1009MOL0     H39194   3.897   5.354   2.537 -0.3122  0.1669 -0.3604
 1009MOL0     H39195   3.947   5.329   2.381  0.3638  0.3984 -0.4178
 1009MOL0     H39196   4.163   5.407   2.409 -1.1922 -1.3268 -0.7236
 1009MOL0     H39197   4.135   5.480   2.568 -0.9547 -1.0101  2.1696
 1009MOL0     H39198   4.110   5.253   2.672 -0.6711  0.9532 -0.4397
 1009MOL0     H39199   4.151   5.175   2.519  1.5226 -1.0948  1.3479
 1009MOL0     H39200   4.527   5.317   2.676  1.5792  0.0868  2.7614
 1009MOL0     H39201   4.786   5.084   2.742  0.4901  0.4840 -1.4115
 1009MOL0     H39202   4.742   5.180   2.876  0.9414 -0.0789  0.1637
 1009MOL0     H39203   4.745   5.252   2.706 -1.6789 -1.9338 -2.6858
 1009MOL0     H39204   4.723   4.909   3.209  0.7682  1.3151  0.2892
 1009MOL0     H39205   4.877   4.794   3.347 -2.5421 -2.1149 -0.7103
 1009MOL0     H39206   5.112   4.744   3.442  0.3366 -1.3929  2.9922
 1009MOL0     H39207   5.019   4.596   3.404 -1.0180  1.4525  0.4365
 1009MOL0     H39208   5.318   4.628   3.426  0.7273  0.5674 -1.1144
 1009MOL0     H39209   5.202   4.554   3.544 -1.8605  3.5089  0.2180
 1009MOL0     H39210   5.316   4.466   3.265 -1.1433 -1.4972 -1.0920
 1009MOL0     H39211   5.165   4.393   3.316 -0.1177  0.0181 -0.0747
 1009MOL0     H39212   5.329   4.233   3.359 -0.7729  1.5902 -1.1579
 1009MOL0     H39213   5.272   4.299   3.522 -1.4900 -1.5220 -0.9481
 1009MOL0     H39214   5.530   4.369   3.382 -0.6411 -2.6514 -0.8510
 1009MOL0     H39215   5.476   4.445   3.543  2.5192 -0.6523  0.3708
 1009MOL0     H39216   5.543   4.156   3.512 -0.7210 -0.9719  0.6132
 1009MOL0     H39217   5.526   4.251   3.660  0.8719  2.3751  0.5500
 1009MOL0     H39218   5.732   4.335   3.647  0.5056  0.5190  0.5317
 1009MOL0     H39219   5.732   4.369   3.478  1.2949  0.1232  0.6958
 1009MOL0     H39220   5.782   4.113   3.453 -2.7107  1.2016 -0.0895
 1009MOL0     H39221   5.787   4.106   3.632  0.4493 -1.0388 -0.6868
 1009MOL0     H39222   5.104   4.700   2.988 -1.2524 -1.3094 -1.5788
 1009MOL0     H39223   4.924   4.811   2.853 -1.3962 -2.2558 -0.3758
 1009MOL0     H39224   4.355   4.877   2.821 -0.8355 -0.3903 -1.9260
 1009MOL0     H39225   4.207   5.034   2.702 -0.0515  2.6910 -1.2626
 1009MOL0     H39226   2.361   5.255   2.357 -0.6392 -1.9713 -0.5660
 1009MOL0     H39227   2.212   5.145   2.514  0.3673  1.6973 -0.6480
 1009MOL0     H39228   2.054   4.976   2.819  3.6100  0.3077 -0.0033
 1009MOL0     H39229   1.892   4.935   3.009 -0.9226 -1.9845  1.3033
 1009MOL0     H39230   1.830   4.836   3.376  1.1098 -0.0697 -0.6424
 1009MOL0     H39231   1.838   4.924   3.231  1.9375  0.0244  0.5230
 1009MOL0     H39232   1.714   4.656   3.291  0.4282 -2.2011 -2.2069
 1009MOL0     H39233   1.760   4.695   3.125  1.1006 -1.4313  0.4724
 1009MOL0     H39234   1.562   4.871   3.287  1.8044  1.1629  0.6508
 1009MOL0     H39235   1.607   4.885   3.116 -0.2722 -0.1529  0.6406
 1009MOL0     H39236   1.503   4.661   3.072 -0.0827 -1.8891  2.0718
 1009MOL0     H39237   1.391   4.788   3.132  1.5751  1.5399 -0.7030
 1009MOL0     H39238   1.379   4.473   3.422  0.4096 -0.7666 -2.1258
 1009MOL0     H39239   2.152   4.625   3.149  0.3581  0.8217  1.1231
 1009MOL0     H39240   2.428   4.669   2.946  0.7548 -0.5717 -0.9620
 1009MOL0     H39241   2.343   4.568   3.055 -1.1935  0.6012  0.2774
 1009MOL0     H39242   2.317   4.550   2.881 -3.1118 -2.5182  2.1075
 1010MOL0     O39243  10.227   0.221   8.985  0.6583  0.5981 -0.6795
 1010MOL0     C39244  10.126   0.297   8.981  0.0809 -1.0438 -0.6456
 1010MOL0     O39245  10.111   0.400   8.888  0.7337  0.5923  0.3247
 1010MOL0     C39246  10.196   0.412   8.781 -0.2251 -0.1410  0.0521
 1010MOL0     C39247  10.147   0.367   8.664 -0.4560 -0.3883  0.6330
 1010MOL0     C39248  10.231   0.376   8.546  0.4787 -0.4701 -0.3714
 1010MOL0     C39249  10.368   0.420   8.556  0.1011  0.8451  0.0349
 1010MOL0     O39250  10.443   0.435   8.452 -0.1793  0.4966  0.0319
 1010MOL0     C39251  10.404   0.383   8.315 -0.6894 -0.6903 -0.0450
 1010MOL0     C39252  10.516   0.436   8.212 -0.2800 -0.3154  0.1475
 1010MOL0     C39253  10.658   0.418   8.262  0.2369  0.2812  0.4883
 1010MOL0     C39254  10.752   0.489   8.152  0.3082  0.5733  0.0101
 1010MOL0     C39255  10.900   0.489   8.196  0.5190  0.5678  0.5043
 1010MOL0     C39256  10.996   0.514   8.092 -0.4172 -0.2989  1.2512
 1010MOL0     C39257  11.128   0.456   8.107 -0.2385  1.2320 -1.2403
 1010MOL0     C39258  11.202   0.500   8.234 -0.0816  0.9238  0.4181
 1010MOL0     N39259  11.338   0.442   8.252  0.6775  0.3849  0.2389
 1010MOL0     C39260  11.357   0.311   8.295 -0.0489  0.5014  0.7646
 1010MOL0     C39261  11.481   0.273   8.244 -0.2014  1.0996  0.4474
 1010MOL0     C39262  11.548   0.136   8.255  0.2799 -0.2512  0.2552
 1010MOL0     C39263  11.683   0.149   8.318 -0.3587 -0.3569 -0.3884
 1010MOL0     C39264  11.800   0.179   8.219  0.6509  0.1094  0.2228
 1010MOL0     C39265  11.923   0.258   8.277  0.1095 -0.1511  0.5052
 1010MOL0     O39266  12.036   0.214   8.194 -0.3902 -0.7206  0.8505
 1010MOL0     C39267  12.117   0.111   8.239 -0.8205  0.1461  0.4978
 1010MOL0     C39268  12.084   0.014   8.333 -0.0508 -0.1857  0.4136
 1010MOL0     C39269  12.174  -0.080   8.384 -0.7319 -0.3186 -0.4182
 1010MOL0     C39270  12.132  -0.169   8.493  1.1694 -0.6033 -0.8337
 1010MOL0     C39271  12.305  -0.083   8.329  0.3664 -0.5512  0.0279
 1010MOL0     C39272  12.408  -0.182   8.376  0.1043 -0.1693 -0.0618
 1010MOL0     O39273  12.539  -0.138   8.392 -0.6367 -0.0643 -0.2801
 1010MOL0     C39274  12.641  -0.216   8.423 -0.9097 -0.2482 -0.6793
 1010MOL0     C39275  12.655  -0.275   8.555 -0.3688  0.1285  0.3972
 1010MOL0     C39276  12.776  -0.339   8.586 -0.6547 -0.3118  0.2947
 1010MOL0     C39277  12.887  -0.351   8.501 -0.1203 -0.5142 -0.1559
 1010MOL0     O39278  13.006  -0.405   8.530  0.0022  0.4910  0.7621
 1010MOL0     C39279  13.030  -0.436   8.671  0.1820  0.4071  0.1232
 1010MOL0     C39280  13.178  -0.478   8.697  1.0807 -0.5850  0.0681
 1010MOL0     C39281  13.278  -0.380   8.630 -0.4168 -0.1742 -0.5198
 1010MOL0     C39282  13.427  -0.429   8.660  0.2245  0.2492 -0.3533
 1010MOL0     C39283  13.527  -0.324   8.605  0.2892  0.2187 -0.4796
 1010MOL0     C39284  13.678  -0.350   8.631  0.0478  0.0931  1.3661
 1010MOL0     C39285  13.773  -0.261   8.541 -0.1533  0.4879  1.2894
 1010MOL0     C39286  13.773  -0.109   8.569  0.8103 -0.4062  0.4879
 1010MOL0    Cl39287  13.853  -0.083   8.723  0.4412  0.0540 -0.1906
 1010MOL0     C39288  12.867  -0.287   8.373  0.1834 -0.4934  0.3426
 1010MOL0     C39289  12.750  -0.223   8.334  0.6277  0.9389  0.5403
 1010MOL0     O39290  12.378  -0.298   8.373 -0.0708 -0.1372  0.0253
 1010MOL0     C39291  12.344   0.022   8.253 -0.8097  0.1789 -0.6494
 1010MOL0     C39292  12.252   0.118   8.203  0.7807 -0.2172  0.4934
 1010MOL0     N39293  11.532   0.389   8.182 -0.0699 -0.5687  0.4317
 1010MOL0     N39294  11.448   0.482   8.185 -0.0822  0.1827  0.4631
 1010MOL0     C39295  10.417   0.463   8.676  0.1414  0.1980 -0.8937
 1010MOL0     C39296  10.326   0.462   8.795  0.0100  0.2170 -0.3295
 1010MOL0     C39297  10.020   0.270   9.084  0.1752 -0.1309  0.1846
 1010MOL0     C39298  10.014   0.149   9.155 -0.0472 -0.2023 -0.0897
 1010MOL0     C39299   9.930   0.135   9.271 -0.1140  0.5954  0.5856
 1010MOL0     C39300   9.822   0.216   9.294  0.2878  0.0870  0.8971
 1010MOL0     O39301   9.748   0.215   9.407  0.0378  0.2131 -0.2990
 1010MOL0     C39302   9.641   0.306   9.438 -0.3330  0.2138 -0.2683
 1010MOL0     C39303   9.682   0.442   9.502  0.5750 -0.2601  0.6949
 1010MOL0     C39304   9.810   0.444   9.580 -0.5328 -0.1381 -0.4201
 1010MOL0     C39305   9.835   0.576   9.640  0.4094  0.0986 -0.1425
 1010MOL0     C39306   9.779   0.603   9.776 -0.1929  0.1401 -0.3552
 1010MOL0     C39307   9.746   0.634   9.890 -0.1490 -1.0087  0.3735
 1010MOL0     C39308   9.822   0.334   9.214 -0.0241  0.4541 -0.5217
 1010MOL0     C39309   9.915   0.369   9.120 -0.3175  0.0417 -0.4606
 1010MOL0     C39310   9.896   0.505   9.058 -0.9831 -0.0014  0.7508
 1010MOL0     H39311  10.047   0.325   8.665 -0.6701  0.1232  0.6403
 1010MOL0     H39312  10.179   0.349   8.454 -1.4231 -0.7846  0.7416
 1010MOL0     H39313  10.311   0.427   8.279 -0.2831  1.4767  1.3554
 1010MOL0     H39314  10.410   0.274   8.305  1.6959 -0.8154  1.8564
 1010MOL0     H39315  10.500   0.396   8.111  1.4243 -0.7344  0.0069
 1010MOL0     H39316  10.497   0.544   8.209 -0.8380 -0.4226 -1.4533
 1010MOL0     H39317  10.681   0.459   8.361  0.7441 -0.5127  0.7107
 1010MOL0     H39318  10.667   0.309   8.270  0.7773  0.4007  1.6313
 1010MOL0     H39319  10.747   0.440   8.054 -1.4365 -3.0129  1.6827
 1010MOL0     H39320  10.728   0.594   8.130  0.7263  0.5425 -0.5856
 1010MOL0     H39321  10.917   0.391   8.242  1.2569  0.6660  0.4525
 1010MOL0     H39322  10.910   0.563   8.276 -0.8107  1.6162 -0.2640
 1010MOL0     H39323  10.957   0.474   7.998  4.4826 -3.7395  0.3042
 1010MOL0     H39324  11.004   0.623   8.093  1.0521 -0.3900  1.5830
 1010MOL0     H39325  11.193   0.473   8.021  0.0047 -1.0084 -1.5822
 1010MOL0     H39326  11.110   0.348   8.117  0.5891  0.9041 -2.9590
 1010MOL0     H39327  11.208   0.609   8.241 -0.7361  0.9208  1.1903
 1010MOL0     H39328  11.135   0.468   8.315  0.1517 -0.7991 -0.0326
 1010MOL0     H39329  11.282   0.235   8.318 -2.0862  1.1247 -2.9896
 1010MOL0     H39330  11.544   0.076   8.164  1.3475 -0.7045  0.4883
 1010MOL0     H39331  11.491   0.076   8.326  4.1686 -3.0953  1.3539
 1010MOL0     H39332  11.675   0.234   8.386  1.7920 -2.3268  2.5538
 1010MOL0     H39333  11.702   0.056   8.372  0.6174  0.0019 -0.0740
 1010MOL0     H39334  11.824   0.092   8.159 -2.4628  0.4429 -1.7356
 1010MOL0     H39335  11.767   0.259   8.151 -0.6693 -0.0737  0.6120
 1010MOL0     H39336  11.909   0.367   8.282 -0.4813 -0.2544  4.0452
 1010MOL0     H39337  11.933   0.237   8.384  0.5796  1.6944  0.8628
 1010MOL0     H39338  11.982   0.026   8.367  0.6482  2.5349  1.8338
 1010MOL0     H39339  12.028  -0.156   8.524  0.5854 -1.3023 -2.4121
 1010MOL0     H39340  12.199  -0.165   8.579  1.0907  0.7139 -0.8162
 1010MOL0     H39341  12.148  -0.274   8.465 -1.3788 -1.5252  0.8137
 1010MOL0     H39342  12.572  -0.258   8.623 -2.7072 -2.8432 -1.4606
 1010MOL0     H39343  12.783  -0.391   8.681 -1.2657  0.0413  0.5373
 1010MOL0     H39344  13.003  -0.351   8.733 -3.2902 -1.9986  2.2964
 1010MOL0     H39345  12.972  -0.524   8.701 -0.1870 -0.4813 -2.7820
 1010MOL0     H39346  13.204  -0.481   8.803  0.3678 -2.1263  0.2422
 1010MOL0     H39347  13.191  -0.578   8.653  1.0308 -0.7482  0.4273
 1010MOL0     H39348  13.265  -0.279   8.668  0.8239 -0.2766  0.2249
 1010MOL0     H39349  13.257  -0.373   8.523  0.3404  1.5918 -0.5804
 1010MOL0     H39350  13.420  -0.525   8.608 -2.9984  0.2371 -0.1336
 1010MOL0     H39351  13.460  -0.440   8.764  4.7031 -1.7984 -1.7328
 1010MOL0     H39352  13.506  -0.301   8.500 -0.5703  1.3222 -0.0780
 1010MOL0     H39353  13.488  -0.232   8.649  2.5347  0.1544  1.8724
 1010MOL0     H39354  13.696  -0.454   8.602  3.3593  0.6191  1.1770
 1010MOL0     H39355  13.701  -0.355   8.738 -0.4110 -0.0357  1.4611
 1010MOL0     H39356  13.752  -0.278   8.435  2.4328 -0.4076  0.8697
 1010MOL0     H39357  13.874  -0.300   8.556 -0.6934 -1.2024  0.6816
 1010MOL0     H39358  13.670  -0.074   8.568  0.7736 -0.3047 -2.7007
 1010MOL0     H39359  13.827  -0.050   8.494 -0.8883 -0.8927 -1.1996
 1010MOL0     H39360  12.945  -0.295   8.298 -1.1795 -1.5155 -1.0297
 1010MOL0     H39361  12.738  -0.178   8.236  1.0782 -1.8655 -0.9053
 1010MOL0     H39362  12.446   0.037   8.218 -0.7041 -1.5143 -1.1700
 1010MOL0     H39363  12.286   0.198   8.138 -1.5889  0.2525 -0.3018
 1010MOL0     H39364  10.513   0.513   8.685 -0.5860  1.4925  0.0364
 1010MOL0     H39365  10.357   0.505   8.890  0.8155 -1.9914  0.4709
 1010MOL0     H39366  10.091   0.074   9.141  0.6993  0.0601  2.1629
 1010MOL0     H39367   9.925   0.055   9.343 -2.8508 -0.2897 -0.4866
 1010MOL0     H39368   9.568   0.316   9.357 -0.4512  0.1593 -0.1678
 1010MOL0     H39369   9.584   0.251   9.513  0.4223  1.5329  1.3286
 1010MOL0     H39370   9.601   0.468   9.571 -0.9128 -0.0026 -1.0716
 1010MOL0     H39371   9.690   0.524   9.430 -1.3101 -0.5293  0.1197
 1010MOL0     H39372   9.799   0.369   9.659 -1.4890 -0.3200 -0.7075
 1010MOL0     H39373   9.887   0.414   9.508 -1.5313 -3.4896 -0.2530
 1010MOL0     H39374   9.793   0.655   9.577 -1.2778 -0.2898  0.4473
 1010MOL0     H39375   9.943   0.593   9.646  0.2474  1.3724 -0.4390
 1010MOL0     H39376   9.719   0.666   9.988  1.2220  0.2117  0.3801
 1010MOL0     H39377   9.751   0.410   9.245 -0.8493 -1.5681  3.0118
 1010MOL0     H39378   9.837   0.573   9.121 -0.5889  3.0693 -1.9401
 1010MOL0     H39379   9.989   0.563   9.051 -0.9073  0.1312  2.3737
 1010MOL0     H39380   9.842   0.499   8.963 -0.1436  0.8445  0.1985
 1011MOL0     O39381   0.821   6.450   3.688  0.4632 -0.1644  0.6921
 1011MOL0     C39382   0.819   6.342   3.739  0.0717 -0.2774 -0.1539
 1011MOL0     O39383   0.932   6.259   3.760  0.2595 -0.7507  0.1844
 1011MOL0     C39384   1.062   6.310   3.741 -0.1178 -0.6009  0.1469
 1011MOL0     C39385   1.113   6.417   3.824  0.5595 -0.6720 -0.1853
 1011MOL0     C39386   1.241   6.464   3.811  0.3217 -0.0162  0.7668
 1011MOL0     C39387   1.328   6.413   3.709  0.5550  0.6885 -0.0277
 1011MOL0     O39388   1.463   6.435   3.701  0.4428 -0.0250  0.1149
 1011MOL0     C39389   1.535   6.451   3.818 -0.2969 -0.0613  0.3195
 1011MOL0     C39390   1.679   6.445   3.782 -0.2846 -0.1665 -0.3070
 1011MOL0     C39391   1.724   6.307   3.737  0.0255 -0.7969 -0.4721
 1011MOL0     C39392   1.873   6.294   3.725 -0.5486  0.6897 -0.0708
 1011MOL0     C39393   1.900   6.171   3.637 -0.1669 -0.7832 -0.0316
 1011MOL0     C39394   2.054   6.156   3.620 -0.5851  0.2474 -0.3050
 1011MOL0     C39395   2.079   6.023   3.542  0.0535 -0.1936 -0.2848
 1011MOL0     C39396   2.214   6.029   3.473  0.3585  0.2836  0.6318
 1011MOL0     N39397   2.337   6.052   3.561 -0.0993  0.2128 -0.0229
 1011MOL0     C39398   2.371   5.980   3.668  0.3705  0.5176 -0.6038
 1011MOL0     C39399   2.451   6.059   3.743 -0.1606 -0.2526  0.3225
 1011MOL0     C39400   2.528   6.023   3.871 -0.1341 -0.5837  0.3051
 1011MOL0     C39401   2.672   5.966   3.840 -0.1120 -0.0545 -0.2001
 1011MOL0     C39402   2.727   5.919   3.973  0.0706  1.2256 -1.1613
 1011MOL0     C39403   2.869   5.865   3.972 -0.5082  0.6312 -0.2435
 1011MOL0     O39404   2.872   5.725   3.939  0.6026 -0.1541  0.2279
 1011MOL0     C39405   2.978   5.644   3.989  0.1401 -0.9459 -1.1121
 1011MOL0     C39406   2.959   5.507   3.999  0.3210  0.5519 -0.7366
 1011MOL0     C39407   3.062   5.427   4.044 -1.2906 -0.4113 -0.8631
 1011MOL0     C39408   3.055   5.276   4.040  0.2257  0.7048 -0.0686
 1011MOL0     C39409   3.174   5.486   4.109 -0.3515 -0.2469  0.5621
 1011MOL0     C39410   3.304   5.422   4.172  0.6326  1.2124  0.7399
 1011MOL0     O39411   3.414   5.502   4.186 -0.1260 -0.1915 -0.0527
 1011MOL0     C39412   3.533   5.449   4.237 -0.0465 -0.0678 -0.1092
 1011MOL0     C39413   3.594   5.338   4.180  0.3493 -0.2985 -0.2787
 1011MOL0     C39414   3.717   5.300   4.237 -0.3358 -0.5892 -0.6784
 1011MOL0     C39415   3.776   5.370   4.349  0.1668  0.3224  0.0831
 1011MOL0     O39416   3.896   5.341   4.413 -0.4716  0.7638 -0.6011
 1011MOL0     C39417   3.995   5.250   4.344  0.2158  0.4926  0.5291
 1011MOL0     C39418   4.121   5.251   4.435  0.0248 -0.8085 -0.1809
 1011MOL0     C39419   4.163   5.398   4.469  0.0531  0.2922  0.9135
 1011MOL0     C39420   4.300   5.398   4.528 -0.0606  0.8059 -0.9429
 1011MOL0     C39421   4.417   5.400   4.428  0.5808 -0.3336  0.1201
 1011MOL0     C39422   4.545   5.368   4.502  0.0739  0.1345  0.4803
 1011MOL0     C39423   4.591   5.489   4.580 -0.5639  0.1833 -0.3344
 1011MOL0     C39424   4.739   5.471   4.629 -0.0182 -0.1246 -0.2341
 1011MOL0    Cl39425   4.782   5.609   4.730  0.5872 -0.3905  0.1655
 1011MOL0     C39426   3.698   5.472   4.408  1.0178  0.9182  0.4624
 1011MOL0     C39427   3.583   5.514   4.356 -0.5822  0.0170  0.9059
 1011MOL0     O39428   3.298   5.303   4.206 -0.1344 -0.8561  0.2696
 1011MOL0     C39429   3.180   5.627   4.118  0.3929  0.9080  0.7440
 1011MOL0     C39430   3.083   5.698   4.051 -0.4416 -0.1044 -0.8480
 1011MOL0     N39431   2.471   6.176   3.676 -0.0319  0.4588  0.3343
 1011MOL0     N39432   2.401   6.173   3.575 -0.0263 -0.3626 -0.3128
 1011MOL0     C39433   1.274   6.329   3.616  0.1301  0.6770  0.2922
 1011MOL0     C39434   1.144   6.269   3.634  0.2169 -0.2091  0.3590
 1011MOL0     C39435   0.683   6.283   3.765  0.0845 -0.9233  0.5022
 1011MOL0     C39436   0.677   6.143   3.783  0.0034 -0.2220  0.3883
 1011MOL0     C39437   0.558   6.069   3.800  0.4909  0.3844  0.4962
 1011MOL0     C39438   0.439   6.140   3.807 -0.3445 -0.8270 -0.6955
 1011MOL0     O39439   0.324   6.069   3.839 -0.3445 -0.1252 -0.4775
 1011MOL0     C39440   0.313   5.923   3.848  0.0498 -0.3522  0.2766
 1011MOL0     C39441   0.189   5.872   3.919 -0.0280 -0.1667  0.8360
 1011MOL0     C39442   0.172   5.939   4.053 -0.9416  0.2513 -0.1072
 1011MOL0     C39443   0.081   5.873   4.153  0.2780 -0.4670  0.0202
 1011MOL0     C39444   0.150   5.753   4.200 -0.5993 -0.4741  0.1820
 1011MOL0     C39445   0.196   5.647   4.237 -0.4301 -0.1688 -0.2280
 1011MOL0     C39446   0.439   6.280   3.785  0.5882  0.2816 -0.8200
 1011MOL0     C39447   0.552   6.350   3.765 -0.4279 -0.3902  0.9050
 1011MOL0     C39448   0.537   6.505   3.743 -0.1324 -0.3530  0.7241
 1011MOL0     H39449   1.057   6.444   3.913  0.4695  1.0232 -0.7240
 1011MOL0     H39450   1.283   6.525   3.890 -1.7712 -0.6500  2.4886
 1011MOL0     H39451   1.508   6.377   3.893 -1.1456  0.2072  0.2861
 1011MOL0     H39452   1.505   6.547   3.862 -0.0068  0.5963 -0.8576
 1011MOL0     H39453   1.704   6.509   3.697  3.4717  1.6214  1.8602
 1011MOL0     H39454   1.730   6.494   3.866 -0.7959  1.5338 -0.9530
 1011MOL0     H39455   1.686   6.234   3.809  0.4276 -0.6591 -0.1173
 1011MOL0     H39456   1.678   6.289   3.640 -0.0864  1.5040 -0.9056
 1011MOL0     H39457   1.919   6.382   3.678  1.9861 -0.1696  0.6957
 1011MOL0     H39458   1.913   6.279   3.825  0.3674  2.0325 -0.2036
 1011MOL0     H39459   1.866   6.201   3.537 -1.5129  2.5584  1.2982
 1011MOL0     H39460   1.842   6.093   3.688 -0.9107  1.2006  2.3180
 1011MOL0     H39461   2.088   6.246   3.568 -0.9306 -0.2685 -1.4527
 1011MOL0     H39462   2.101   6.149   3.719  1.5444  3.4739 -0.9138
 1011MOL0     H39463   2.007   6.027   3.460 -2.1008 -2.2314  1.3738
 1011MOL0     H39464   2.051   5.937   3.604 -0.7377  1.5496  1.9126
 1011MOL0     H39465   2.238   5.939   3.415  1.1086 -0.2539  1.7426
 1011MOL0     H39466   2.202   6.105   3.395 -3.7111 -1.1028 -0.3281
 1011MOL0     H39467   2.335   5.882   3.699  1.7485  0.6199  1.5458
 1011MOL0     H39468   2.472   5.945   3.923  0.4043 -1.6539 -0.6704
 1011MOL0     H39469   2.535   6.111   3.935  1.0706  0.9295 -1.7986
 1011MOL0     H39470   2.656   5.881   3.773 -0.4790 -1.5816  1.7436
 1011MOL0     H39471   2.735   6.042   3.792 -2.9080  1.8104 -1.2270
 1011MOL0     H39472   2.736   6.006   4.038  2.6044 -0.1054  0.4580
 1011MOL0     H39473   2.661   5.846   4.021 -0.4116  1.3504 -1.6240
 1011MOL0     H39474   2.920   5.931   3.901 -3.8764  1.9598 -1.6334
 1011MOL0     H39475   2.918   5.892   4.066  1.7548  2.6218 -1.8660
 1011MOL0     H39476   2.866   5.466   3.961  0.4160 -1.3299  0.9475
 1011MOL0     H39477   2.977   5.245   3.970 -0.8347  2.4441  0.2895
 1011MOL0     H39478   3.045   5.240   4.143 -2.7646  4.5094  1.1823
 1011MOL0     H39479   3.147   5.233   4.000  1.1585 -0.5211  3.0797
 1011MOL0     H39480   3.562   5.290   4.088 -0.2309 -0.1488 -0.1570
 1011MOL0     H39481   3.765   5.221   4.181  1.2232 -0.0911 -0.0910
 1011MOL0     H39482   3.966   5.145   4.336 -0.7748  0.5104  2.9054
 1011MOL0     H39483   4.030   5.284   4.247  3.0967 -2.9208  0.1874
 1011MOL0     H39484   4.113   5.194   4.529  0.6304  0.6911  0.8256
 1011MOL0     H39485   4.200   5.210   4.371 -0.0334  0.3876 -1.0383
 1011MOL0     H39486   4.095   5.447   4.538  0.8417 -0.6836  2.4339
 1011MOL0     H39487   4.159   5.457   4.376  2.5018 -1.2057 -0.2634
 1011MOL0     H39488   4.297   5.310   4.593 -2.9997  0.0112 -2.0041
 1011MOL0     H39489   4.304   5.483   4.596 -0.5693 -0.9824  1.4295
 1011MOL0     H39490   4.398   5.342   4.337  2.2462  0.1491 -0.5845
 1011MOL0     H39491   4.423   5.503   4.392  3.3858  0.3347  2.1145
 1011MOL0     H39492   4.629   5.334   4.441 -0.1592  0.6458 -0.1317
 1011MOL0     H39493   4.537   5.291   4.579  3.4112 -0.8307  0.0410
 1011MOL0     H39494   4.529   5.511   4.667  1.2827  2.7204  0.4516
 1011MOL0     H39495   4.595   5.576   4.514 -0.7146  0.0355 -0.5411
 1011MOL0     H39496   4.806   5.482   4.544  2.5776 -2.2621  1.3681
 1011MOL0     H39497   4.753   5.370   4.669 -0.4891  0.2103  0.8399
 1011MOL0     H39498   3.742   5.531   4.488 -0.2650 -0.0976  1.9903
 1011MOL0     H39499   3.539   5.598   4.408  0.2140  1.2081 -0.2636
 1011MOL0     H39500   3.254   5.691   4.165  0.4574  1.7025 -0.3910
 1011MOL0     H39501   3.100   5.805   4.038  1.0204 -0.3155 -0.9317
 1011MOL0     H39502   1.331   6.295   3.530 -1.1335 -1.6233  0.2860
 1011MOL0     H39503   1.120   6.185   3.569  0.6002 -1.6247  1.9582
 1011MOL0     H39504   0.766   6.082   3.776 -1.5625 -2.6974  0.6406
 1011MOL0     H39505   0.568   5.962   3.811  3.9715  0.7168  2.1675
 1011MOL0     H39506   0.317   5.880   3.748  1.9878  0.4466 -0.0353
 1011MOL0     H39507   0.400   5.882   3.901  0.5314 -0.6132 -0.6973
 1011MOL0     H39508   0.205   5.766   3.941  4.8946  0.6259  2.3790
 1011MOL0     H39509   0.105   5.877   3.850  0.4010 -0.9533  0.2471
 1011MOL0     H39510   0.270   5.961   4.095  0.0095  3.0473 -3.3863
 1011MOL0     H39511   0.129   6.038   4.036  0.6437  1.1117  0.7331
 1011MOL0     H39512  -0.018   5.845   4.116 -0.2867  2.3208 -0.7636
 1011MOL0     H39513   0.064   5.943   4.236  1.4292 -0.6318  0.4109
 1011MOL0     H39514   0.248   5.568   4.287 -0.0699  1.4787  2.2088
 1011MOL0     H39515   0.345   6.331   3.797 -0.2944 -1.5726  0.6272
 1011MOL0     H39516   0.443   6.546   3.781  0.9426  0.5997  2.4927
 1011MOL0     H39517   0.615   6.572   3.781  0.0609  0.0613 -0.3719
 1011MOL0     H39518   0.548   6.505   3.634  2.6442  0.1046  0.9427
 1012MOL0     O39519  10.748   3.659   7.673 -0.3007 -0.3301  0.5270
 1012MOL0     C39520  10.683   3.606   7.765 -0.3860 -0.6062 -1.1474
 1012MOL0     O39521  10.737   3.530   7.866 -0.0699 -1.3286  0.2302
 1012MOL0     C39522  10.876   3.527   7.887  0.0255  0.1839  1.2966
 1012MOL0     C39523  10.970   3.617   7.842 -0.5225  0.3684  0.3505
 1012MOL0     C39524  11.106   3.591   7.858  0.0741  0.6064 -0.2732
 1012MOL0     C39525  11.154   3.486   7.936 -0.4637  0.3726  0.2452
 1012MOL0     O39526  11.287   3.470   7.941  0.0782  0.6644 -0.4494
 1012MOL0     C39527  11.336   3.385   8.046  0.2921 -0.4918  0.4215
 1012MOL0     C39528  11.495   3.389   8.062  0.5398  0.7755  0.5961
 1012MOL0     C39529  11.560   3.377   7.932 -0.1090  0.4519  0.0888
 1012MOL0     C39530  11.717   3.363   7.939  0.2385  0.0333 -0.2683
 1012MOL0     C39531  11.784   3.489   7.991 -0.4396 -0.0050  0.1956
 1012MOL0     C39532  11.924   3.456   8.033 -0.8302  0.3710 -0.1214
 1012MOL0     C39533  11.994   3.585   8.079  0.0833  0.5873 -0.8107
 1012MOL0     C39534  12.148   3.561   8.108 -0.3568  0.6094  0.7449
 1012MOL0     N39535  12.190   3.563   8.252  0.0968  0.0303  0.0125
 1012MOL0     C39536  12.240   3.661   8.332 -0.0361 -1.0181  0.0088
 1012MOL0     C39537  12.247   3.621   8.454 -0.5769  0.4388 -0.0793
 1012MOL0     C39538  12.286   3.719   8.560  0.4623  0.4888 -0.1570
 1012MOL0     C39539  12.438   3.739   8.558  0.6207  0.4138 -0.0692
 1012MOL0     C39540  12.503   3.833   8.664  0.2500 -1.1384 -0.1986
 1012MOL0     C39541  12.657   3.829   8.659  0.1884 -0.4672  0.3535
 1012MOL0     O39542  12.711   3.701   8.632  0.3708  0.9873  0.5651
 1012MOL0     C39543  12.837   3.702   8.590  0.9711  0.0909 -0.6392
 1012MOL0     C39544  12.924   3.810   8.610  0.4910  0.4413 -0.6658
 1012MOL0     C39545  13.061   3.802   8.605 -0.0261 -0.4405 -0.6541
 1012MOL0     C39546  13.140   3.930   8.625  0.3695  0.8851 -0.0394
 1012MOL0     C39547  13.114   3.678   8.562  0.3502 -0.0985  0.2177
 1012MOL0     C39548  13.254   3.642   8.544 -1.3645  0.4163  0.1002
 1012MOL0     O39549  13.297   3.520   8.569 -0.0680 -0.5293  0.4158
 1012MOL0     C39550  13.429   3.491   8.558 -0.3943 -0.3340  0.4717
 1012MOL0     C39551  13.530   3.570   8.623  0.6758  0.0384 -1.2840
 1012MOL0     C39552  13.668   3.543   8.602  0.2601 -0.4492 -0.3192
 1012MOL0     C39553  13.709   3.430   8.527 -0.0264  0.6070 -0.6837
 1012MOL0     O39554  13.837   3.401   8.513 -0.3290  0.2346 -0.0484
 1012MOL0     C39555  13.878   3.269   8.460 -0.1291 -0.0806 -0.7101
 1012MOL0     C39556  14.035   3.258   8.480  0.0452 -0.0225  0.7307
 1012MOL0     C39557  14.078   3.272   8.625  0.3174 -0.5653 -0.2887
 1012MOL0     C39558  14.232   3.246   8.616 -0.2894  0.1530  0.1669
 1012MOL0     C39559  14.290   3.281   8.751  0.0502 -0.2790  0.2053
 1012MOL0     C39560  14.439   3.255   8.760 -0.4748  0.3318 -1.9017
 1012MOL0     C39561  14.504   3.294   8.892  0.9610  0.1483 -0.4549
 1012MOL0     C39562  14.505   3.447   8.921  0.6089 -0.6054 -0.0860
 1012MOL0    Cl39563  14.614   3.534   8.798 -0.2360  0.2250  0.2410
 1012MOL0     C39564  13.606   3.347   8.478 -0.1822  0.2330 -0.5919
 1012MOL0     C39565  13.470   3.378   8.492  0.4071 -0.6244  0.3135
 1012MOL0     O39566  13.335   3.725   8.511  0.7357  0.1205 -0.6830
 1012MOL0     C39567  13.023   3.570   8.528 -0.6081 -0.2131 -0.6217
 1012MOL0     C39568  12.887   3.581   8.546 -0.3598 -0.2438 -0.0454
 1012MOL0     N39569  12.205   3.490   8.453  0.0495 -0.1516 -0.7895
 1012MOL0     N39570  12.167   3.463   8.333 -0.4153 -0.7544  0.4397
 1012MOL0     C39571  11.058   3.404   7.997  0.1846 -0.2648  0.4657
 1012MOL0     C39572  10.918   3.423   7.971 -0.5673 -0.1976  0.1415
 1012MOL0     C39573  10.536   3.624   7.768 -0.5212 -0.0103 -0.7169
 1012MOL0     C39574  10.487   3.711   7.670  0.2599 -0.7625 -0.2268
 1012MOL0     C39575  10.352   3.742   7.665 -0.9802 -0.0136  0.7841
 1012MOL0     C39576  10.259   3.673   7.738  0.1999  0.0264 -0.7659
 1012MOL0     O39577  10.120   3.676   7.739  1.4501 -0.2494 -0.1051
 1012MOL0     C39578  10.064   3.769   7.637 -0.6985  1.0020  0.3895
 1012MOL0     C39579   9.914   3.757   7.648  0.2403 -0.1954 -0.6731
 1012MOL0     C39580   9.844   3.847   7.553  0.1937  0.4892  0.2874
 1012MOL0     C39581   9.692   3.846   7.555  0.3250 -0.0662  0.5536
 1012MOL0     C39582   9.640   3.732   7.478 -0.8481  0.2232  0.6904
 1012MOL0     C39583   9.592   3.641   7.421  0.5631  0.3599 -0.0458
 1012MOL0     C39584  10.307   3.585   7.830  0.4410 -0.2366 -0.1757
 1012MOL0     C39585  10.442   3.561   7.843 -0.2403 -0.5575 -0.0560
 1012MOL0     C39586  10.466   3.450   7.943 -0.0802  0.1995  0.4186
 1012MOL0     H39587  10.949   3.708   7.787  1.7378  0.0845 -1.0899
 1012MOL0     H39588  11.179   3.662   7.821  1.2012 -0.2458  0.2506
 1012MOL0     H39589  11.294   3.286   8.022 -0.9411 -0.1075  0.9079
 1012MOL0     H39590  11.301   3.427   8.141  1.9588 -2.4484  1.9906
 1012MOL0     H39591  11.511   3.490   8.101 -2.7085  1.0672  1.4497
 1012MOL0     H39592  11.533   3.303   8.118  2.4392  0.8664 -0.4516
 1012MOL0     H39593  11.531   3.281   7.888 -0.4170  0.6519 -0.1467
 1012MOL0     H39594  11.523   3.458   7.868 -4.2073 -0.1753  1.3553
 1012MOL0     H39595  11.747   3.281   8.004  2.7999  1.9630  1.1869
 1012MOL0     H39596  11.758   3.352   7.838 -0.8378  2.7205 -1.0986
 1012MOL0     H39597  11.726   3.524   8.077 -0.6201 -2.2413  1.0416
 1012MOL0     H39598  11.773   3.566   7.914 -2.9493 -1.1157 -0.7095
 1012MOL0     H39599  11.920   3.379   8.111 -2.5216  1.4782  0.9535
 1012MOL0     H39600  11.975   3.397   7.957 -0.4843 -2.0308  1.8296
 1012MOL0     H39601  11.947   3.628   8.168  1.7042  0.3268  0.2152
 1012MOL0     H39602  11.991   3.660   8.000 -0.8132  0.5785 -0.7938
 1012MOL0     H39603  12.180   3.460   8.081 -0.3916  0.9962 -0.8673
 1012MOL0     H39604  12.217   3.629   8.058 -1.2528  0.5297 -0.6585
 1012MOL0     H39605  12.266   3.762   8.303  0.7082 -1.4829 -1.0114
 1012MOL0     H39606  12.254   3.683   8.659  2.7812  0.6663  0.7094
 1012MOL0     H39607  12.239   3.818   8.548  1.8673  1.2675  0.4555
 1012MOL0     H39608  12.486   3.643   8.580 -0.4351 -0.0118  0.4667
 1012MOL0     H39609  12.462   3.775   8.458 -0.7595 -0.2611 -0.6784
 1012MOL0     H39610  12.461   3.933   8.650 -2.0114 -2.2732 -2.1344
 1012MOL0     H39611  12.470   3.813   8.767  2.2575  0.9036  0.9389
 1012MOL0     H39612  12.684   3.893   8.575  0.0444 -1.1111 -0.1950
 1012MOL0     H39613  12.698   3.855   8.757  1.8376 -2.6072  0.3186
 1012MOL0     H39614  12.887   3.911   8.629 -1.0008  0.1623 -1.8998
 1012MOL0     H39615  13.231   3.907   8.681 -0.3397  0.6761  1.0581
 1012MOL0     H39616  13.085   4.005   8.682  0.7433 -0.1553  1.7392
 1012MOL0     H39617  13.180   3.966   8.529  0.1498 -2.7296 -1.6474
 1012MOL0     H39618  13.505   3.664   8.673 -1.0529 -0.9658 -0.1529
 1012MOL0     H39619  13.744   3.606   8.648 -0.1068 -0.4656  0.3136
 1012MOL0     H39620  13.816   3.190   8.503 -0.2957  1.3725  1.8747
 1012MOL0     H39621  13.868   3.269   8.351  2.6908 -2.4341 -1.0996
 1012MOL0     H39622  14.067   3.161   8.439  3.7998  1.5933 -0.6745
 1012MOL0     H39623  14.091   3.326   8.415  3.2995 -2.4897  0.6414
 1012MOL0     H39624  14.026   3.209   8.698 -1.9934  2.3212  0.7460
 1012MOL0     H39625  14.064   3.372   8.667  0.4218 -1.6692  2.6172
 1012MOL0     H39626  14.265   3.319   8.543 -1.5425  3.2132  2.4372
 1012MOL0     H39627  14.270   3.145   8.594  0.6611  0.6103 -0.3533
 1012MOL0     H39628  14.274   3.386   8.774  0.9860 -0.2299  0.6858
 1012MOL0     H39629  14.228   3.222   8.820  0.3829 -1.6553 -0.6240
 1012MOL0     H39630  14.486   3.304   8.674  1.2496 -2.2129 -2.5186
 1012MOL0     H39631  14.443   3.146   8.755  0.8841  0.3944 -2.7559
 1012MOL0     H39632  14.604   3.250   8.895  1.4930  1.3346  1.3684
 1012MOL0     H39633  14.455   3.259   8.983 -1.0060  3.3049 -0.1324
 1012MOL0     H39634  14.546   3.478   9.018 -1.8870  0.3212  0.7531
 1012MOL0     H39635  14.404   3.483   8.940  1.1241 -0.7089  3.4714
 1012MOL0     H39636  13.619   3.266   8.407 -1.2295  0.3979 -0.9918
 1012MOL0     H39637  13.395   3.310   8.454  0.9235 -1.8530  1.4344
 1012MOL0     H39638  13.062   3.476   8.492 -1.3453 -1.0052  0.5756
 1012MOL0     H39639  12.842   3.483   8.527 -0.8963 -0.2580  1.2145
 1012MOL0     H39640  11.092   3.320   8.055  3.6304 -1.8243 -3.2870
 1012MOL0     H39641  10.845   3.362   8.024  1.3969 -0.0330  3.3239
 1012MOL0     H39642  10.554   3.763   7.602  1.6006 -3.0234 -0.7298
 1012MOL0     H39643  10.327   3.819   7.594  1.8010 -0.0447 -0.3723
 1012MOL0     H39644  10.091   3.873   7.655 -0.1805  1.3014 -1.9001
 1012MOL0     H39645  10.089   3.731   7.538 -1.4355 -0.2421  0.6495
 1012MOL0     H39646   9.881   3.764   7.751  1.9252  0.9705 -0.1703
 1012MOL0     H39647   9.875   3.658   7.624  0.9593 -0.2429 -1.7190
 1012MOL0     H39648   9.877   3.950   7.570  1.5535 -0.1038  1.4679
 1012MOL0     H39649   9.881   3.826   7.452 -0.3254 -0.1904  0.2273
 1012MOL0     H39650   9.660   3.940   7.510  5.5941  1.6877 -0.1587
 1012MOL0     H39651   9.648   3.838   7.655 -2.5184  2.1896 -0.3856
 1012MOL0     H39652   9.538   3.562   7.373 -0.9986  0.7379  1.0212
 1012MOL0     H39653  10.228   3.537   7.886 -0.0358  0.3990 -0.2919
 1012MOL0     H39654  10.486   3.494   8.041 -3.4160 -0.7324  1.6505
 1012MOL0     H39655  10.376   3.389   7.947  0.0314 -0.0646 -0.8851
 1012MOL0     H39656  10.549   3.383   7.919  1.0469 -0.0352  4.2064
 1013MOL0     O39657   0.861   0.634   3.153 -0.5005  0.1098 -0.3885
 1013MOL0     C39658   0.823   0.578   3.252 -0.5350  0.3057  0.2978
 1013MOL0     O39659   0.897   0.482   3.319 -0.4848 -0.8157 -0.4711
 1013MOL0     C39660   1.038   0.504   3.316 -0.2424  0.4508  0.8647
 1013MOL0     C39661   1.098   0.629   3.327 -1.2175  0.0915  0.4285
 1013MOL0     C39662   1.236   0.644   3.318 -0.8887 -0.2594  0.4041
 1013MOL0     C39663   1.326   0.539   3.293  0.5175  0.2828  0.1433
 1013MOL0     O39664   1.464   0.571   3.280  0.2398  0.8727  0.3859
 1013MOL0     C39665   1.555   0.463   3.273 -0.0469  0.0695  1.0259
 1013MOL0     C39666   1.698   0.517   3.275  1.0976  0.1998 -0.6155
 1013MOL0     C39667   1.728   0.623   3.157  0.2042 -0.3688  0.1786
 1013MOL0     C39668   1.876   0.671   3.149  0.5981 -0.5419 -0.2568
 1013MOL0     C39669   1.888   0.798   3.072  0.1812  0.0636 -0.3269
 1013MOL0     C39670   2.023   0.866   3.104 -0.2346  0.1883  0.4547
 1013MOL0     C39671   2.079   0.954   2.986  0.0083 -0.6585  0.3670
 1013MOL0     C39672   2.136   0.868   2.869 -0.8070 -0.3366  0.4521
 1013MOL0     N39673   2.210   0.956   2.772 -0.2013 -0.0144  0.2399
 1013MOL0     C39674   2.173   0.968   2.638  0.1772 -0.2462 -0.6487
 1013MOL0     C39675   2.285   1.013   2.567 -0.0595 -0.5857 -0.1979
 1013MOL0     C39676   2.297   1.049   2.424 -0.3659  0.5914  0.2567
 1013MOL0     C39677   2.385   1.176   2.402 -0.2236 -0.9588  0.8272
 1013MOL0     C39678   2.307   1.283   2.321 -0.3397 -0.7138  0.4651
 1013MOL0     C39679   2.369   1.422   2.281 -0.0968  0.7363  0.0249
 1013MOL0     O39680   2.479   1.401   2.197 -0.0580  0.3499 -0.0397
 1013MOL0     C39681   2.555   1.516   2.157  0.4505  0.6309 -0.4138
 1013MOL0     C39682   2.516   1.654   2.169 -0.0979 -0.8615 -0.0947
 1013MOL0     C39683   2.600   1.747   2.104  0.7729 -0.2659 -0.1047
 1013MOL0     C39684   2.552   1.887   2.124  0.2675 -0.3190 -0.1530
 1013MOL0     C39685   2.729   1.717   2.040  0.0001 -0.0143 -0.2932
 1013MOL0     C39686   2.827   1.822   1.994  0.2598 -0.4191 -0.0945
 1013MOL0     O39687   2.964   1.783   1.983 -0.4151 -0.4887 -0.1073
 1013MOL0     C39688   3.071   1.852   1.932 -0.1738  0.2645 -0.2571
 1013MOL0     C39689   3.186   1.768   1.899  0.7190 -0.0844 -0.4926
 1013MOL0     C39690   3.311   1.821   1.866  0.6218  0.0560 -0.3794
 1013MOL0     C39691   3.320   1.961   1.857 -0.4794  0.1941  0.4934
 1013MOL0     O39692   3.444   2.020   1.827  0.3957 -0.0324 -0.0358
 1013MOL0     C39693   3.530   1.940   1.752 -0.3441  0.6338 -0.3448
 1013MOL0     C39694   3.656   2.021   1.744  0.0241  0.4473  0.0001
 1013MOL0     C39695   3.776   1.929   1.724 -0.2045 -0.2117  0.2546
 1013MOL0     C39696   3.907   2.017   1.711  0.0176  0.0280  0.5172
 1013MOL0     C39697   4.026   1.926   1.662  0.3719  0.3635  0.3019
 1013MOL0     C39698   4.133   2.021   1.612  0.1563  0.3340 -0.8495
 1013MOL0     C39699   4.279   1.970   1.612 -0.3358  0.2236 -0.6827
 1013MOL0     C39700   4.388   2.077   1.569  0.8821 -0.2001 -0.8358
 1013MOL0    Cl39701   4.562   2.030   1.603  0.2433 -0.1828  0.3130
 1013MOL0     C39702   3.210   2.041   1.878  1.0673  0.3436 -1.0014
 1013MOL0     C39703   3.084   1.985   1.915 -0.3236  0.0183 -0.1590
 1013MOL0     O39704   2.779   1.933   1.952  0.4885  0.0423  0.1332
 1013MOL0     C39705   2.753   1.580   2.026  0.7819  1.0307 -0.0401
 1013MOL0     C39706   2.665   1.483   2.084 -1.0808 -0.0753 -1.7617
 1013MOL0     N39707   2.390   1.020   2.659  0.4812 -0.8935 -0.2802
 1013MOL0     N39708   2.338   1.000   2.783 -0.7815 -0.0314 -0.2205
 1013MOL0     C39709   1.271   0.409   3.285 -0.1143 -0.1588  0.9886
 1013MOL0     C39710   1.123   0.390   3.284 -0.7552  0.0422  0.2204
 1013MOL0     C39711   0.682   0.579   3.301  0.1012 -0.6262  0.5356
 1013MOL0     C39712   0.579   0.592   3.209  0.2074  0.0496 -0.3617
 1013MOL0     C39713   0.444   0.564   3.246 -0.4584  0.3331  0.9390
 1013MOL0     C39714   0.416   0.523   3.373 -0.3336 -0.1191 -0.2797
 1013MOL0     O39715   0.297   0.476   3.424 -0.0616 -0.3990  0.1777
 1013MOL0     C39716   0.169   0.466   3.354  0.1349 -0.7281  0.0832
 1013MOL0     C39717   0.061   0.445   3.451 -0.5287  0.8707 -1.2235
 1013MOL0     C39718   0.048   0.284   3.472 -0.8506 -0.6397 -0.2856
 1013MOL0     C39719  -0.011   0.200   3.364  0.7065  0.5127 -0.2664
 1013MOL0     C39720  -0.016   0.060   3.403  0.2405 -0.0447 -1.1302
 1013MOL0     C39721  -0.028  -0.058   3.427  0.2029  0.8349 -0.0240
 1013MOL0     C39722   0.516   0.520   3.461 -0.4307  0.1230 -0.6733
 1013MOL0     C39723   0.647   0.548   3.438  0.4674 -0.3715  0.3960
 1013MOL0     C39724   0.744   0.559   3.541 -0.4951  0.1690 -0.1676
 1013MOL0     H39725   1.036   0.714   3.353  0.8750  1.6773  0.4685
 1013MOL0     H39726   1.279   0.743   3.332 -2.0233  1.0653 -3.8750
 1013MOL0     H39727   1.548   0.413   3.176  1.5235  1.5968  0.0713
 1013MOL0     H39728   1.557   0.390   3.354  0.1278 -2.7705 -1.3479
 1013MOL0     H39729   1.712   0.565   3.372  1.3912 -0.7591 -0.1724
 1013MOL0     H39730   1.763   0.429   3.271 -0.5965 -1.3431  2.3250
 1013MOL0     H39731   1.716   0.572   3.061  2.6776 -0.2401 -0.2595
 1013MOL0     H39732   1.665   0.713   3.153  0.4542 -0.2456 -1.6048
 1013MOL0     H39733   1.920   0.689   3.248  2.4240 -0.6473 -1.0261
 1013MOL0     H39734   1.945   0.593   3.116  0.7492 -1.0903  1.2351
 1013MOL0     H39735   1.808   0.863   3.110 -0.9617 -1.8696  0.7370
 1013MOL0     H39736   1.873   0.780   2.965 -0.0963  0.3267 -0.3346
 1013MOL0     H39737   2.019   0.925   3.196 -1.0750 -1.7499  1.7278
 1013MOL0     H39738   2.094   0.784   3.120  0.2434  0.5791  0.3339
 1013MOL0     H39739   2.169   1.004   3.023 -0.0140 -0.5282  0.2428
 1013MOL0     H39740   2.010   1.031   2.950  1.1224 -0.9103 -2.5751
 1013MOL0     H39741   2.216   0.801   2.901 -1.0923 -0.1316  1.6201
 1013MOL0     H39742   2.053   0.818   2.817 -0.8962  2.2280 -2.1070
 1013MOL0     H39743   2.075   0.940   2.602 -1.0403  2.3621  0.3396
 1013MOL0     H39744   2.197   1.083   2.393 -0.2885 -0.4674 -1.2582
 1013MOL0     H39745   2.341   0.976   2.356  1.4031  0.4782  1.4645
 1013MOL0     H39746   2.396   1.221   2.502  0.9002 -2.6899  1.5231
 1013MOL0     H39747   2.483   1.160   2.357 -1.3985 -0.8014 -2.0055
 1013MOL0     H39748   2.277   1.235   2.228  1.9663 -0.3733 -0.5251
 1013MOL0     H39749   2.211   1.301   2.370 -0.0215 -0.5698  1.0531
 1013MOL0     H39750   2.294   1.494   2.247 -0.4470 -0.0413 -0.8634
 1013MOL0     H39751   2.405   1.472   2.372  0.6318 -2.1801  1.4447
 1013MOL0     H39752   2.425   1.677   2.225 -1.2372 -2.8568 -1.0241
 1013MOL0     H39753   2.623   1.932   2.193  1.8749  0.9585 -2.4865
 1013MOL0     H39754   2.452   1.880   2.168  0.1416 -1.8066 -0.6240
 1013MOL0     H39755   2.542   1.932   2.024 -0.8395  0.2313  0.1877
 1013MOL0     H39756   3.175   1.661   1.905 -0.2120  0.0934  2.0746
 1013MOL0     H39757   3.396   1.757   1.843  1.5625  1.2466 -0.3067
 1013MOL0     H39758   3.558   1.855   1.815  1.5231  3.2534  2.6761
 1013MOL0     H39759   3.487   1.906   1.658 -2.4702 -3.4973  1.8277
 1013MOL0     H39760   3.638   2.092   1.663  2.6256  0.2187 -0.8583
 1013MOL0     H39761   3.678   2.069   1.840 -0.5389 -2.6297  1.8183
 1013MOL0     H39762   3.768   1.865   1.635 -0.0269  0.4910 -0.2746
 1013MOL0     H39763   3.794   1.859   1.806 -0.8350 -0.1665  0.4350
 1013MOL0     H39764   3.945   2.064   1.802  0.4217 -0.6439  0.6956
 1013MOL0     H39765   3.883   2.091   1.634 -1.6096 -3.6561 -2.8396
 1013MOL0     H39766   4.059   1.865   1.747 -0.5864  0.2728  0.6295
 1013MOL0     H39767   3.990   1.868   1.577  2.1736 -3.0896  1.6901
 1013MOL0     H39768   4.129   2.113   1.671  0.8360 -0.5518  0.6459
 1013MOL0     H39769   4.105   2.049   1.511 -0.3458 -0.2478 -0.8769
 1013MOL0     H39770   4.288   1.882   1.548  1.8253 -1.2917  1.5070
 1013MOL0     H39771   4.311   1.943   1.714  1.4109 -3.2988 -2.0010
 1013MOL0     H39772   4.363   2.163   1.632 -0.3564 -0.9868 -0.2181
 1013MOL0     H39773   4.379   2.114   1.466 -1.6350 -0.7553 -0.8735
 1013MOL0     H39774   3.222   2.148   1.869 -3.4480  1.4523  2.3346
 1013MOL0     H39775   3.000   2.051   1.932 -0.9900 -0.5883 -0.9892
 1013MOL0     H39776   2.828   1.535   1.961 -2.9996  0.5899 -4.5878
 1013MOL0     H39777   2.704   1.383   2.069  2.8490  1.2134 -1.2682
 1013MOL0     H39778   1.344   0.332   3.259 -1.8069 -1.1546 -1.1561
 1013MOL0     H39779   1.081   0.290   3.280  1.8787 -1.1801  0.8457
 1013MOL0     H39780   0.600   0.629   3.109  2.2195  2.0688  0.6959
 1013MOL0     H39781   0.378   0.556   3.160  2.8881  1.1170 -1.9206
 1013MOL0     H39782   0.143   0.561   3.308 -1.7578 -0.6814  1.1339
 1013MOL0     H39783   0.178   0.395   3.271 -2.3501  0.7082 -1.5273
 1013MOL0     H39784  -0.037   0.481   3.418 -1.3086 -1.5408 -1.7282
 1013MOL0     H39785   0.082   0.494   3.546 -0.4097  0.5746 -1.0960
 1013MOL0     H39786   0.150   0.249   3.490 -0.2947  1.3155  0.6960
 1013MOL0     H39787  -0.021   0.267   3.555 -1.4937 -1.3188 -0.9374
 1013MOL0     H39788   0.037   0.210   3.267 -1.9109  1.0830 -1.5817
 1013MOL0     H39789  -0.113   0.230   3.340  1.0358  2.3846  0.4706
 1013MOL0     H39790  -0.059  -0.159   3.446 -0.5982  0.8001 -1.3811
 1013MOL0     H39791   0.475   0.493   3.558 -3.1073 -0.6856 -1.9273
 1013MOL0     H39792   0.821   0.637   3.539  0.0576 -0.3311  0.8384
 1013MOL0     H39793   0.687   0.574   3.633 -1.1879 -2.0253 -0.1739
 1013MOL0     H39794   0.800   0.465   3.547  0.2041  0.5666 -0.3520
 1014MOL0     O39795  10.680   3.768   4.271 -0.0855 -0.5950 -0.5947
 1014MOL0     C39796  10.616   3.779   4.375  0.1834 -0.4958 -0.0960
 1014MOL0     O39797  10.670   3.765   4.498 -0.0492  0.1664  0.3974
 1014MOL0     C39798  10.798   3.751   4.524  0.9084 -0.6055 -0.5967
 1014MOL0     C39799  10.874   3.855   4.488  0.1499 -0.4299  0.2788
 1014MOL0     C39800  11.012   3.855   4.515 -0.9185 -0.4222  0.0690
 1014MOL0     C39801  11.066   3.738   4.572  0.4854 -0.2718  0.7146
 1014MOL0     O39802  11.207   3.717   4.585  0.2283 -0.2581  0.0533
 1014MOL0     C39803  11.286   3.835   4.615  0.3748  0.3164  0.0027
 1014MOL0     C39804  11.436   3.792   4.639  0.4414  0.2370  0.2864
 1014MOL0     C39805  11.462   3.647   4.597 -0.0450 -0.1357  0.0534
 1014MOL0     C39806  11.612   3.628   4.622  0.2002  0.0903 -0.0533
 1014MOL0     C39807  11.721   3.728   4.567  0.1704  0.7557  0.6041
 1014MOL0     C39808  11.870   3.676   4.562 -0.0125 -0.1435 -0.0102
 1014MOL0     C39809  11.966   3.756   4.476  0.1480 -0.1308  0.5601
 1014MOL0     C39810  12.104   3.717   4.514 -0.8397 -0.0464 -0.0614
 1014MOL0     N39811  12.209   3.786   4.436 -0.1976 -0.1257 -0.2619
 1014MOL0     C39812  12.324   3.734   4.389  0.4977 -0.8423 -0.1172
 1014MOL0     C39813  12.388   3.838   4.336  0.2513  0.5117 -0.7019
 1014MOL0     C39814  12.508   3.830   4.252 -0.5156 -0.3883  0.0385
 1014MOL0     C39815  12.633   3.820   4.331 -0.1982 -0.3071 -0.5291
 1014MOL0     C39816  12.657   3.940   4.411 -0.0522  0.3440 -0.3481
 1014MOL0     C39817  12.785   3.920   4.492 -0.0477 -0.2856 -0.6927
 1014MOL0     O39818  12.889   3.934   4.403 -0.3294 -0.3105  0.2708
 1014MOL0     C39819  13.014   3.924   4.449 -0.1830  0.0502 -1.3077
 1014MOL0     C39820  13.117   3.934   4.355 -0.5466  0.4236  0.1197
 1014MOL0     C39821  13.252   3.924   4.383 -0.5385  0.1723 -0.2276
 1014MOL0     C39822  13.354   3.950   4.268  0.4650  0.3526  0.3293
 1014MOL0     C39823  13.299   3.902   4.517 -0.2094 -0.3262  0.4311
 1014MOL0     C39824  13.436   3.915   4.564 -0.6433  0.7566 -0.0323
 1014MOL0     O39825  13.463   3.977   4.681  0.3790  0.0201 -0.4701
 1014MOL0     C39826  13.584   3.978   4.744 -0.7141 -0.1978  1.1397
 1014MOL0     C39827  13.671   3.875   4.761 -0.0086  0.7406 -0.5254
 1014MOL0     C39828  13.784   3.882   4.845  0.9901  0.3226 -0.4286
 1014MOL0     C39829  13.806   3.996   4.932  0.8370 -0.3965  1.4130
 1014MOL0     O39830  13.895   4.005   5.027 -0.1445  0.7014  0.0749
 1014MOL0     C39831  13.953   3.882   5.074 -0.1205 -0.6869 -0.4015
 1014MOL0     C39832  14.051   3.919   5.182  0.2220  0.9022 -0.2423
 1014MOL0     C39833  14.102   3.798   5.266  0.1447 -0.0718  0.1686
 1014MOL0     C39834  14.210   3.718   5.183 -0.5460 -0.4040 -0.7622
 1014MOL0     C39835  14.243   3.582   5.248  0.7803  0.1014  0.3778
 1014MOL0     C39836  14.315   3.596   5.388 -0.1157  0.4967 -0.3602
 1014MOL0     C39837  14.415   3.481   5.415  0.1766 -0.1970  0.6428
 1014MOL0     C39838  14.529   3.470   5.312 -0.1408  0.1865  0.3052
 1014MOL0    Cl39839  14.657   3.369   5.390  0.3404 -0.2093 -0.4197
 1014MOL0     C39840  13.727   4.106   4.899  0.0837  0.5681  0.1822
 1014MOL0     C39841  13.624   4.096   4.809 -0.0544  0.0129  0.0884
 1014MOL0     O39842  13.522   3.858   4.501 -0.3197  0.5477  0.6186
 1014MOL0     C39843  13.202   3.892   4.616  0.4270  0.5640 -0.1727
 1014MOL0     C39844  13.059   3.899   4.578 -0.0535  0.2420 -0.4758
 1014MOL0     N39845  12.319   3.954   4.358  0.4362 -0.1539 -0.6323
 1014MOL0     N39846  12.203   3.922   4.414 -0.5211  0.7090 -0.2054
 1014MOL0     C39847  10.985   3.634   4.600  0.3736  0.0915 -0.0145
 1014MOL0     C39848  10.847   3.638   4.584 -0.2512  0.1959  0.4480
 1014MOL0     C39849  10.469   3.798   4.356 -0.0412  0.3477 -0.6146
 1014MOL0     C39850  10.393   3.719   4.261 -0.6000 -0.6697  0.5503
 1014MOL0     C39851  10.259   3.731   4.239 -0.5027 -0.2848  0.2892
 1014MOL0     C39852  10.181   3.802   4.332 -1.1484 -0.0157  0.4978
 1014MOL0     O39853  10.053   3.801   4.293  1.0524 -1.4303  0.0523
 1014MOL0     C39854   9.960   3.889   4.362  0.0507  0.6418 -0.4510
 1014MOL0     C39855   9.830   3.914   4.277  0.2229  0.5769 -0.4781
 1014MOL0     C39856   9.772   3.781   4.233  0.5672  0.5464  0.8123
 1014MOL0     C39857   9.639   3.824   4.162  0.2375  0.7134  0.1851
 1014MOL0     C39858   9.582   3.714   4.080  0.7280 -0.4783 -0.2580
 1014MOL0     C39859   9.538   3.624   4.007  0.1800  0.0859  0.2486
 1014MOL0     C39860  10.241   3.868   4.435 -0.9216  0.6513 -0.1478
 1014MOL0     C39861  10.386   3.872   4.445 -0.2811 -0.1030 -0.8010
 1014MOL0     C39862  10.448   3.963   4.550 -0.1011 -0.3052  0.6313
 1014MOL0     H39863  10.837   3.942   4.436 -1.1236 -1.8012 -1.2291
 1014MOL0     H39864  11.080   3.936   4.487  0.2226 -1.1465  0.6933
 1014MOL0     H39865  11.253   3.889   4.704  4.4293  2.6180  0.3916
 1014MOL0     H39866  11.296   3.908   4.534  0.6785 -1.2098 -1.4101
 1014MOL0     H39867  11.498   3.863   4.582  0.8081 -1.1761 -1.1462
 1014MOL0     H39868  11.463   3.797   4.745 -0.5343 -2.0497  0.6917
 1014MOL0     H39869  11.414   3.574   4.664  2.1902  0.7379  2.8138
 1014MOL0     H39870  11.437   3.628   4.493 -1.7983  1.4475  0.1098
 1014MOL0     H39871  11.625   3.609   4.729 -0.3799 -1.6114 -0.2574
 1014MOL0     H39872  11.641   3.538   4.567  0.2322 -0.7541  1.3052
 1014MOL0     H39873  11.723   3.828   4.612 -0.6831  1.4413 -0.8039
 1014MOL0     H39874  11.682   3.753   4.468  2.1939 -1.2540 -0.8093
 1014MOL0     H39875  11.905   3.672   4.666  0.4973  1.0628 -0.1164
 1014MOL0     H39876  11.861   3.576   4.519  2.2900 -0.4990  0.2083
 1014MOL0     H39877  11.948   3.862   4.495  1.9160  0.4933 -0.9174
 1014MOL0     H39878  11.949   3.734   4.370 -1.4723  2.0678  0.3093
 1014MOL0     H39879  12.119   3.742   4.619  2.4992  1.8791 -0.8588
 1014MOL0     H39880  12.111   3.608   4.506 -2.8404 -0.1100 -1.6964
 1014MOL0     H39881  12.356   3.631   4.375  1.5931 -0.8549  2.0078
 1014MOL0     H39882  12.505   3.923   4.194 -2.6570 -0.0823  0.5533
 1014MOL0     H39883  12.498   3.737   4.195 -1.6978 -0.9976  1.1847
 1014MOL0     H39884  12.618   3.729   4.391 -3.1534 -0.4180 -1.2614
 1014MOL0     H39885  12.707   3.801   4.253 -0.2303  1.9088 -1.1600
 1014MOL0     H39886  12.673   4.021   4.340  0.6054 -1.0648 -1.8959
 1014MOL0     H39887  12.570   3.964   4.473 -0.5600 -2.1575  0.0510
 1014MOL0     H39888  12.790   4.003   4.563  1.2105 -0.2657 -0.7862
 1014MOL0     H39889  12.796   3.825   4.544 -2.8265  1.0849  2.8127
 1014MOL0     H39890  13.078   3.971   4.260 -1.1465 -2.3564 -0.8273
 1014MOL0     H39891  13.434   3.876   4.267  3.0549  2.7838 -4.2307
 1014MOL0     H39892  13.400   4.047   4.290  2.6800  0.5434 -4.0673
 1014MOL0     H39893  13.307   3.966   4.171  1.1509 -0.6763 -0.1970
 1014MOL0     H39894  13.663   3.778   4.713 -0.6349 -0.8660  2.5387
 1014MOL0     H39895  13.842   3.791   4.859  0.2902 -0.1117 -0.3499
 1014MOL0     H39896  13.871   3.823   5.116 -2.0251  0.8551 -1.7477
 1014MOL0     H39897  14.003   3.825   4.995  0.3820 -0.7764 -0.0203
 1014MOL0     H39898  14.133   3.974   5.135 -0.2600  0.5454 -1.5628
 1014MOL0     H39899  13.997   3.990   5.245 -1.8830  2.3405 -3.4041
 1014MOL0     H39900  14.014   3.735   5.283  1.1607 -1.1499  1.8845
 1014MOL0     H39901  14.132   3.828   5.367 -0.7944  0.4085  0.3127
 1014MOL0     H39902  14.305   3.771   5.191  0.1044 -1.6817  0.3349
 1014MOL0     H39903  14.174   3.712   5.080 -0.2668  0.2295 -0.8983
 1014MOL0     H39904  14.154   3.519   5.254  0.7953 -0.1949 -1.7663
 1014MOL0     H39905  14.307   3.526   5.180 -1.1634  0.9922 -2.3343
 1014MOL0     H39906  14.240   3.587   5.467  1.2460  1.3829  1.0774
 1014MOL0     H39907  14.362   3.694   5.402 -2.4071  1.6127  0.0139
 1014MOL0     H39908  14.355   3.391   5.429  0.6988 -0.6338  0.1076
 1014MOL0     H39909  14.473   3.496   5.506  2.4797 -0.1482 -0.7533
 1014MOL0     H39910  14.567   3.569   5.285 -1.7460  0.7149 -0.0839
 1014MOL0     H39911  14.506   3.417   5.219  2.1678 -0.2036 -0.1198
 1014MOL0     H39912  13.730   4.188   4.971 -1.1419 -0.3958  1.3592
 1014MOL0     H39913  13.555   4.178   4.790 -1.6505 -0.9884  1.3475
 1014MOL0     H39914  13.241   3.866   4.714  0.4538 -0.9416 -0.5548
 1014MOL0     H39915  12.991   3.890   4.662 -1.3517  0.3918 -1.4727
 1014MOL0     H39916  11.027   3.537   4.627 -1.0542 -0.6923 -0.4681
 1014MOL0     H39917  10.789   3.551   4.612 -0.5141 -0.0470 -0.7779
 1014MOL0     H39918  10.434   3.647   4.191  0.8629  1.2032 -0.6276
 1014MOL0     H39919  10.214   3.673   4.160  1.5150 -1.6038  0.0248
 1014MOL0     H39920   9.926   3.833   4.449  1.6838 -1.6637 -1.1766
 1014MOL0     H39921  10.006   3.985   4.385  2.6482 -0.7291  0.4982
 1014MOL0     H39922   9.859   3.975   4.191  0.2515  1.9359  0.4780
 1014MOL0     H39923   9.756   3.964   4.340 -1.2432 -1.8401 -0.1679
 1014MOL0     H39924   9.835   3.728   4.161 -1.1191  0.5936 -0.7895
 1014MOL0     H39925   9.751   3.714   4.317 -2.8080  0.8677  0.3572
 1014MOL0     H39926   9.644   3.911   4.096  0.6430  0.8256  0.3598
 1014MOL0     H39927   9.573   3.857   4.243 -1.9867 -1.3128 -0.6491
 1014MOL0     H39928   9.490   3.549   3.947 -0.7771  1.0428 -0.1898
 1014MOL0     H39929  10.175   3.931   4.494 -0.3855  1.8683 -0.7978
 1014MOL0     H39930  10.381   4.047   4.575  0.1352  0.5417 -1.4088
 1014MOL0     H39931  10.482   3.927   4.647  1.1764 -0.6759  0.0605
 1014MOL0     H39932  10.536   4.014   4.510  0.5937  1.4180  3.9572
 1015MOL0     O39933   7.206  10.101   0.080 -0.4331  0.2730  0.0334
 1015MOL0     C39934   7.124  10.027   0.025  0.2672  0.6278 -0.0448
 1015MOL0     O39935   7.146   9.936  -0.071 -0.4864  0.1410 -0.2512
 1015MOL0     C39936   7.270   9.924  -0.142  0.0305  0.2403  0.2900
 1015MOL0     C39937   7.355  10.034  -0.169  0.5267  0.0001 -0.1028
 1015MOL0     C39938   7.477  10.022  -0.234  0.0269  0.0618 -0.4465
 1015MOL0     C39939   7.505   9.898  -0.298 -1.0355 -0.1736  0.1658
 1015MOL0     O39940   7.602   9.877  -0.390  0.3434 -0.0954 -0.0069
 1015MOL0     C39941   7.648   9.996  -0.465  0.2419 -0.5472  1.1992
 1015MOL0     C39942   7.750   9.965  -0.574  0.8197  1.4466 -0.1920
 1015MOL0     C39943   7.870   9.916  -0.501 -0.9879  0.3912 -0.0941
 1015MOL0     C39944   7.992   9.974  -0.572 -0.9526  0.0521 -0.0447
 1015MOL0     C39945   8.120   9.918  -0.522 -1.0606 -0.1505  0.5411
 1015MOL0     C39946   8.241  10.000  -0.566  0.1801 -0.4145 -0.2412
 1015MOL0     C39947   8.375   9.935  -0.537 -0.0941 -0.0797 -0.4119
 1015MOL0     C39948   8.505  10.014  -0.572  0.0288 -0.1908 -0.4839
 1015MOL0     N39949   8.620   9.927  -0.534  0.4886 -0.4517  1.5544
 1015MOL0     C39950   8.658   9.883  -0.412 -0.3496  0.6637  0.3294
 1015MOL0     C39951   8.772   9.810  -0.430 -0.7626  0.4520 -1.0056
 1015MOL0     C39952   8.873   9.745  -0.338  0.2234 -0.6004 -0.5007
 1015MOL0     C39953   8.865   9.592  -0.343 -0.1295 -0.6065  0.3421
 1015MOL0     C39954   8.950   9.526  -0.229 -0.3129 -0.0880  0.6298
 1015MOL0     C39955   9.095   9.544  -0.256  0.1740 -0.2948 -0.1538
 1015MOL0     O39956   9.130   9.673  -0.202  0.1273 -0.1765 -0.4656
 1015MOL0     C39957   9.263   9.686  -0.159  0.3056 -0.7067  0.1254
 1015MOL0     C39958   9.370   9.613  -0.202 -0.2302 -0.3115 -0.0935
 1015MOL0     C39959   9.503   9.632  -0.144  0.2368 -0.2331 -0.4904
 1015MOL0     C39960   9.608   9.543  -0.200  0.6168  0.1531  0.2482
 1015MOL0     C39961   9.525   9.750  -0.062  0.7526 -0.1023 -0.0819
 1015MOL0     C39962   9.654   9.787  -0.021  0.0031 -0.3704  0.3022
 1015MOL0     O39963   9.759   9.761  -0.105 -0.5139  0.6112 -0.6069
 1015MOL0     C39964   9.885   9.794  -0.074  0.8819  0.0811  0.4261
 1015MOL0     C39965   9.982   9.685  -0.070  0.2191 -1.3581 -0.3558
 1015MOL0     C39966  10.112   9.713  -0.038 -1.0362 -0.1403 -0.0403
 1015MOL0     C39967  10.158   9.841  -0.017 -0.0757 -0.1967  0.0509
 1015MOL0     O39968  10.284   9.864   0.032 -0.0679  0.0781 -1.0478
 1015MOL0     C39969  10.316   9.803   0.159  0.4561  0.0200  0.5478
 1015MOL0     C39970  10.455   9.857   0.192 -0.4952 -0.2421 -0.5924
 1015MOL0     C39971  10.458  10.015   0.198  0.0089 -1.5472  0.5938
 1015MOL0     C39972  10.586  10.068   0.269  0.2982  0.8673  0.8878
 1015MOL0     C39973  10.702  10.087   0.178 -0.3439  0.2100  0.1474
 1015MOL0     C39974  10.808  10.187   0.224  0.0512 -0.1636  1.0920
 1015MOL0     C39975  10.883  10.140   0.348  0.1908  0.2699 -0.9113
 1015MOL0     C39976  10.972  10.018   0.333  1.2301  0.0968 -0.7369
 1015MOL0    Cl39977  11.121  10.071   0.251  0.0595 -0.1413  0.4244
 1015MOL0     C39978  10.070   9.952  -0.040 -0.0515  0.5005 -0.2895
 1015MOL0     C39979   9.935   9.927  -0.064  0.4750  0.2675 -0.1841
 1015MOL0     O39980   9.667   9.839   0.088 -0.2057 -0.7475  0.5264
 1015MOL0     C39981   9.409   9.822  -0.021 -0.5590  0.0633  1.3343
 1015MOL0     C39982   9.282   9.781  -0.065  0.3103 -0.2265 -0.0215
 1015MOL0     N39983   8.800   9.816  -0.563  0.1488 -0.3069  0.3116
 1015MOL0     N39984   8.706   9.878  -0.627  0.0607  0.3392  0.0495
 1015MOL0     C39985   7.426   9.784  -0.269  0.0508 -0.6246 -0.3626
 1015MOL0     C39986   7.304   9.799  -0.199 -0.2524 -0.1880 -0.2574
 1015MOL0     C39987   6.980  10.049   0.058 -1.0438 -0.5583  0.5024
 1015MOL0     C39988   6.905   9.930   0.053 -0.1675  0.0443  0.2786
 1015MOL0     C39989   6.764   9.926   0.077 -0.8598  0.1014  0.1235
 1015MOL0     C39990   6.693  10.044   0.092  0.6746  0.0525  0.3921
 1015MOL0     O39991   6.557  10.042   0.077  0.4878 -0.4789 -0.5999
 1015MOL0     C39992   6.477   9.927   0.044 -0.0789  0.1620  0.0354
 1015MOL0     C39993   6.333   9.965   0.032 -0.9761 -0.3514  0.1957
 1015MOL0     C39994   6.269  10.016   0.161 -0.1985  0.2224  0.5602
 1015MOL0     C39995   6.132  10.078   0.147 -0.0848 -0.5601 -0.2463
 1015MOL0     C39996   6.020   9.984   0.141  0.7047 -0.1845  0.3283
 1015MOL0     C39997   5.928   9.902   0.130  0.6052  0.2764 -0.2283
 1015MOL0     C39998   6.766  10.159   0.097 -0.0803 -0.1099 -0.0625
 1015MOL0     C39999   6.908  10.169   0.084  1.2341 -0.1272 -0.1529
 1015MOL0     C40000   6.974  10.312   0.096 -0.1693  0.0826 -0.1131
 1015MOL0     H40001   7.317  10.128  -0.131 -2.9481 -1.6909  0.9638
 1015MOL0     H40002   7.544  10.107  -0.249 -0.1885  0.6419  1.5925
 1015MOL0     H40003   7.686  10.071  -0.395  0.2306  0.6808 -0.0835
 1015MOL0     H40004   7.559  10.040  -0.510 -1.2699 -3.6358  0.9122
 1015MOL0     H40005   7.697   9.885  -0.625  0.0857  2.2813 -0.7716
 1015MOL0     H40006   7.771  10.047  -0.643 -0.6398 -0.0879 -2.5705
 1015MOL0     H40007   7.868   9.946  -0.396 -1.1339  2.0610 -0.5393
 1015MOL0     H40008   7.882   9.809  -0.521  2.7598  0.3700  1.4722
 1015MOL0     H40009   7.979   9.960  -0.680 -3.8230  2.7981 -0.2056
 1015MOL0     H40010   7.981  10.081  -0.554 -0.5889 -0.1277  1.3866
 1015MOL0     H40011   8.130   9.820  -0.570  1.6899  1.2926 -2.1569
 1015MOL0     H40012   8.120   9.902  -0.414  2.2660 -1.1468  0.4812
 1015MOL0     H40013   8.228  10.035  -0.668 -1.1957  2.5369  0.8315
 1015MOL0     H40014   8.241  10.090  -0.504 -3.2898 -0.4579  0.0079
 1015MOL0     H40015   8.381   9.846  -0.599  0.3592 -0.6339  0.4159
 1015MOL0     H40016   8.376   9.891  -0.437 -1.5676 -2.0711 -1.2036
 1015MOL0     H40017   8.516  10.046  -0.677 -0.1857 -3.7544 -1.7222
 1015MOL0     H40018   8.493  10.101  -0.507 -2.4770 -1.3480  0.7137
 1015MOL0     H40019   8.614   9.913  -0.318 -0.5534 -1.5842  1.0038
 1015MOL0     H40020   8.856   9.779  -0.236 -0.7965  2.4513 -1.5549
 1015MOL0     H40021   8.972   9.783  -0.365  0.5688  0.6146  2.2278
 1015MOL0     H40022   8.764   9.554  -0.325 -0.9180 -0.2227 -2.7054
 1015MOL0     H40023   8.897   9.564  -0.444 -0.6690 -0.8198  0.2293
 1015MOL0     H40024   8.929   9.561  -0.128 -0.3078 -0.3747  0.7302
 1015MOL0     H40025   8.933   9.418  -0.225 -0.7700  0.0290  2.7161
 1015MOL0     H40026   9.147   9.463  -0.204 -0.5477  0.8208  2.4717
 1015MOL0     H40027   9.129   9.530  -0.359  2.3372 -0.4247  0.5407
 1015MOL0     H40028   9.366   9.532  -0.275  3.1013 -0.7868  0.0928
 1015MOL0     H40029   9.578   9.443  -0.233  0.6331 -1.1385  3.7017
 1015MOL0     H40030   9.679   9.524  -0.119  0.2942  0.6287  0.6493
 1015MOL0     H40031   9.666   9.585  -0.282  1.3316 -1.3358 -0.0413
 1015MOL0     H40032   9.942   9.586  -0.092 -0.9384 -0.6419 -1.5836
 1015MOL0     H40033  10.190   9.638  -0.044 -0.0030  0.8820 -0.0277
 1015MOL0     H40034  10.249   9.846   0.234  0.6440  2.8548 -0.7789
 1015MOL0     H40035  10.319   9.694   0.157 -1.9863 -0.0913 -1.3070
 1015MOL0     H40036  10.481   9.817   0.291 -1.0033 -2.6102 -1.3439
 1015MOL0     H40037  10.531   9.826   0.121 -0.2486  1.3244 -1.0411
 1015MOL0     H40038  10.373  10.046   0.260  0.1314 -1.6087  0.7945
 1015MOL0     H40039  10.449  10.061   0.099 -2.8731 -1.2960  0.8849
 1015MOL0     H40040  10.603  10.002   0.354  1.6106  0.7068  0.5361
 1015MOL0     H40041  10.565  10.167   0.309  1.4441  1.7066 -0.4807
 1015MOL0     H40042  10.752   9.990   0.167 -0.6279 -0.0047  0.7099
 1015MOL0     H40043  10.669  10.124   0.080  0.7848  0.7863 -0.0336
 1015MOL0     H40044  10.750  10.273   0.256 -3.1796 -2.0411  0.6979
 1015MOL0     H40045  10.880  10.221   0.149  2.3086  0.3904  3.3605
 1015MOL0     H40046  10.810  10.118   0.426  3.3674  1.9538  2.9071
 1015MOL0     H40047  10.943  10.223   0.387 -1.4502  0.9287  0.3374
 1015MOL0     H40048  10.931   9.935   0.274  3.0116 -1.9932  0.8022
 1015MOL0     H40049  10.999   9.979   0.432 -2.3529  0.0760  0.3962
 1015MOL0     H40050  10.104  10.055  -0.029  2.3311 -0.1491 -0.9002
 1015MOL0     H40051   9.864  10.008  -0.055  2.8018  2.4224 -0.2078
 1015MOL0     H40052   9.431   9.903   0.047  0.9433  1.5932 -0.8226
 1015MOL0     H40053   9.196   9.825  -0.015  1.5632  2.3795  0.0372
 1015MOL0     H40054   7.460   9.687  -0.302  1.6533 -1.0347  2.1865
 1015MOL0     H40055   7.258   9.708  -0.160  2.1413 -1.2818  0.1661
 1015MOL0     H40056   6.946   9.839   0.010 -0.2532  0.6047 -1.0548
 1015MOL0     H40057   6.708   9.833   0.068  1.1316 -1.0095 -1.9593
 1015MOL0     H40058   6.504   9.883  -0.052 -0.3434  0.0206  0.0241
 1015MOL0     H40059   6.484   9.854   0.125 -2.4894  0.3973  0.5405
 1015MOL0     H40060   6.277   9.874   0.009  1.8902 -1.9131 -1.0739
 1015MOL0     H40061   6.313  10.036  -0.048 -0.4649  0.3626  0.6878
 1015MOL0     H40062   6.260   9.928   0.225 -3.5968 -0.0720 -0.1384
 1015MOL0     H40063   6.330  10.087   0.218 -2.7948  0.3795  3.3896
 1015MOL0     H40064   6.144  10.145   0.061  0.8189 -0.0971  0.2188
 1015MOL0     H40065   6.129  10.146   0.233  3.1536  0.6582 -0.9349
 1015MOL0     H40066   5.853   9.827   0.139  0.2612  0.4475 -1.4943
 1015MOL0     H40067   6.707  10.250   0.105  1.4366  0.8186  1.0830
 1015MOL0     H40068   7.033  10.315   0.188  0.8937 -1.3931 -0.7076
 1015MOL0     H40069   7.041  10.319   0.010 -0.6971 -1.2151 -0.6487
 1015MOL0     H40070   6.896  10.388   0.087 -1.2511 -1.0381 -0.3451
 1016MOL0     O40071  10.073   1.397   4.657  0.3252 -0.7277  0.0254
 1016MOL0     C40072  10.039   1.510   4.625  0.4274  0.8180  0.3698
 1016MOL0     O40073   9.974   1.589   4.693 -0.6833 -0.5657 -0.5229
 1016MOL0     C40074   9.931   1.536   4.814  0.3410 -0.3124 -1.0189
 1016MOL0     C40075   9.795   1.548   4.850 -0.9575  0.3898  0.3118
 1016MOL0     C40076   9.752   1.499   4.974  0.5884 -0.3436 -0.6547
 1016MOL0     C40077   9.843   1.445   5.067  0.7637 -0.5065  0.1843
 1016MOL0     O40078   9.816   1.387   5.195  0.5590 -0.0556  0.0030
 1016MOL0     C40079   9.673   1.358   5.207 -0.0885  0.3191 -0.0160
 1016MOL0     C40080   9.634   1.293   5.344 -0.1109 -1.3821  0.3964
 1016MOL0     C40081   9.659   1.148   5.345 -0.1098  0.0733  0.2727
 1016MOL0     C40082   9.807   1.097   5.336 -0.1137 -0.1946 -0.6062
 1016MOL0     C40083   9.885   1.127   5.457 -0.3269 -0.6318 -0.5131
 1016MOL0     C40084  10.033   1.125   5.439  0.1752  0.4102  0.1339
 1016MOL0     C40085  10.092   1.124   5.579 -0.2400  0.1784 -0.4676
 1016MOL0     C40086  10.245   1.134   5.577 -0.6853  0.4044  0.8559
 1016MOL0     N40087  10.316   1.103   5.710 -0.0428 -0.5610 -0.4491
 1016MOL0     C40088  10.281   1.016   5.808 -0.4663  0.2377 -0.6445
 1016MOL0     C40089  10.368   1.029   5.913  0.2269 -0.0438  0.7565
 1016MOL0     C40090  10.366   0.940   6.031  0.6783 -0.2980 -0.6289
 1016MOL0     C40091  10.311   1.010   6.160  1.0361  0.1387  0.0127
 1016MOL0     C40092  10.164   1.051   6.140 -0.4950  0.2760 -1.0611
 1016MOL0     C40093  10.073   0.930   6.128 -0.5662 -0.0481  0.2514
 1016MOL0     O40094  10.064   0.862   6.258  0.5869 -0.4378 -0.8210
 1016MOL0     C40095   9.954   0.773   6.274 -0.3852  0.3531  0.2451
 1016MOL0     C40096   9.869   0.737   6.166  0.0273  0.6641  0.5326
 1016MOL0     C40097   9.765   0.638   6.189  0.5321  0.1710 -0.0591
 1016MOL0     C40098   9.674   0.600   6.074  0.0244 -0.1211  0.0024
 1016MOL0     C40099   9.755   0.576   6.313 -0.7320 -0.0426  0.0642
 1016MOL0     C40100   9.646   0.487   6.360 -0.1002 -0.0378 -0.4111
 1016MOL0     O40101   9.655   0.425   6.482 -0.0930 -0.0545 -0.0825
 1016MOL0     C40102   9.552   0.354   6.532 -0.6516  0.9042 -0.2141
 1016MOL0     C40103   9.414   0.368   6.507 -0.1705  0.5758  0.9061
 1016MOL0     C40104   9.320   0.274   6.562 -0.0250 -0.1836  0.3054
 1016MOL0     C40105   9.362   0.158   6.631  0.1485  0.3862 -0.5999
 1016MOL0     O40106   9.276   0.063   6.685  0.2480 -0.1462 -0.2703
 1016MOL0     C40107   9.138   0.093   6.665  0.2840  0.4208 -0.2890
 1016MOL0     C40108   9.059  -0.020   6.727 -0.3629 -0.2787 -0.1885
 1016MOL0     C40109   9.036   0.019   6.871  0.7529 -0.5542 -0.6030
 1016MOL0     C40110   8.925  -0.083   6.922 -0.7625 -0.4062 -0.2867
 1016MOL0     C40111   8.908  -0.063   7.074 -0.5507 -0.0216 -1.0411
 1016MOL0     C40112   9.032  -0.123   7.151  0.2227 -0.0101  0.0554
 1016MOL0     C40113   9.020  -0.080   7.297  1.2030  0.1376  0.5713
 1016MOL0     C40114   9.131  -0.158   7.376  1.0988 -0.6716 -0.0374
 1016MOL0    Cl40115   9.130  -0.085   7.548  0.5814  0.3585 -0.1691
 1016MOL0     C40116   9.498   0.155   6.661 -0.2901 -0.2534  0.2234
 1016MOL0     C40117   9.592   0.248   6.616  0.1881  0.0022  0.0706
 1016MOL0     O40118   9.540   0.496   6.294 -0.5772 -0.2120  0.2719
 1016MOL0     C40119   9.850   0.607   6.409 -0.8178 -0.4839  0.0389
 1016MOL0     C40120   9.945   0.710   6.395 -0.0337 -0.3253  0.1926
 1016MOL0     N40121  10.459   1.133   5.878 -0.6456  0.1672  0.4799
 1016MOL0     N40122  10.425   1.167   5.754  0.0125  0.2128 -0.4675
 1016MOL0     C40123   9.974   1.443   5.038  0.1033  0.1592 -0.7908
 1016MOL0     C40124  10.024   1.494   4.915 -0.2410  0.3526 -0.9070
 1016MOL0     C40125  10.050   1.556   4.487  0.0894  0.5376  0.1332
 1016MOL0     C40126  10.168   1.529   4.424  0.3756 -0.1304  0.0784
 1016MOL0     C40127  10.183   1.568   4.292  0.1062  0.0042 -0.6208
 1016MOL0     C40128  10.082   1.642   4.224 -0.6998  0.3131  0.3682
 1016MOL0     O40129  10.109   1.682   4.098  0.8223  0.2546 -0.0346
 1016MOL0     C40130  10.006   1.737   4.015  1.0872 -0.4945  0.1306
 1016MOL0     C40131  10.073   1.774   3.882 -0.7871  0.2575 -0.7750
 1016MOL0     C40132  10.059   1.662   3.786  0.1142 -0.7504  0.4878
 1016MOL0     C40133  10.092   1.707   3.639  0.5460  0.5320 -0.4831
 1016MOL0     C40134  10.234   1.742   3.637 -0.3141 -0.7450  1.0993
 1016MOL0     C40135  10.354   1.772   3.629 -0.3358  1.1941  0.2281
 1016MOL0     C40136   9.967   1.674   4.291  0.0816 -0.1544 -0.0789
 1016MOL0     C40137   9.944   1.625   4.421 -0.4417 -0.3606  0.7714
 1016MOL0     C40138   9.812   1.669   4.483  0.2723 -0.8049  0.2333
 1016MOL0     H40139   9.727   1.595   4.779  0.2603  2.8937  0.6839
 1016MOL0     H40140   9.650   1.505   5.009  0.5518 -0.4205 -0.7482
 1016MOL0     H40141   9.638   1.299   5.122  0.8770 -0.6839  0.2621
 1016MOL0     H40142   9.623   1.455   5.199 -1.4929 -0.3940 -0.1874
 1016MOL0     H40143   9.686   1.353   5.420 -0.7061  0.7986 -0.8422
 1016MOL0     H40144   9.526   1.308   5.350  0.1565  0.5323  1.1851
 1016MOL0     H40145   9.611   1.098   5.430  1.1526  1.5305  1.9047
 1016MOL0     H40146   9.609   1.106   5.257 -0.0032  1.6202 -0.5753
 1016MOL0     H40147   9.806   0.991   5.311  0.1477 -0.0820 -1.1041
 1016MOL0     H40148   9.852   1.145   5.249 -0.5705  2.4511  0.5256
 1016MOL0     H40149   9.868   1.056   5.539  0.6377 -1.8098 -1.3085
 1016MOL0     H40150   9.859   1.224   5.501  1.8794  0.1625 -0.8104
 1016MOL0     H40151  10.060   1.037   5.381 -3.6023 -0.8705  0.0699
 1016MOL0     H40152  10.056   1.219   5.387 -1.1011  0.4944 -0.3283
 1016MOL0     H40153  10.063   1.027   5.620 -1.6436  0.9036  0.2810
 1016MOL0     H40154  10.052   1.207   5.637  2.6301  2.1499 -1.0615
 1016MOL0     H40155  10.287   1.077   5.494 -0.3481  1.9932 -0.1095
 1016MOL0     H40156  10.276   1.238   5.573 -0.3622  0.4532  3.0689
 1016MOL0     H40157  10.192   0.953   5.801 -2.7003  3.3363 -2.5856
 1016MOL0     H40158  10.465   0.899   6.052  0.0615 -1.6842 -0.2479
 1016MOL0     H40159  10.322   0.845   5.999 -0.1443 -0.3382  0.5311
 1016MOL0     H40160  10.320   0.949   6.250 -1.2531 -0.0344  0.1677
 1016MOL0     H40161  10.375   1.099   6.172 -0.7934  1.3524  1.2170
 1016MOL0     H40162  10.132   1.116   6.222  3.3978  1.0248  0.1019
 1016MOL0     H40163  10.166   1.115   6.052  2.1845  1.9046  0.0440
 1016MOL0     H40164   9.985   0.965   6.073 -1.3016  1.7519  2.4350
 1016MOL0     H40165  10.121   0.858   6.061  1.6197 -0.1410  1.8108
 1016MOL0     H40166   9.879   0.774   6.065  1.0834  0.4149  0.5316
 1016MOL0     H40167   9.586   0.665   6.076  1.4472  1.8952  0.3300
 1016MOL0     H40168   9.646   0.495   6.065  0.2743 -0.4034  2.1039
 1016MOL0     H40169   9.724   0.619   5.978  0.7330 -0.3822  0.3122
 1016MOL0     H40170   9.361   0.443   6.449  1.1728  0.6614 -0.2416
 1016MOL0     H40171   9.219   0.285   6.523  0.4731  1.2126 -0.6844
 1016MOL0     H40172   9.104   0.192   6.697 -0.0623  0.6043 -1.2157
 1016MOL0     H40173   9.123   0.088   6.557 -3.5652 -1.0432  0.1487
 1016MOL0     H40174   8.967  -0.034   6.671  0.0373 -0.1771 -0.8812
 1016MOL0     H40175   9.111  -0.116   6.717  1.0006  0.5608 -1.7512
 1016MOL0     H40176   8.984   0.115   6.874  1.6563 -0.0617 -0.1393
 1016MOL0     H40177   9.125   0.023   6.935 -0.4175  3.2908  1.0759
 1016MOL0     H40178   8.959  -0.184   6.901  2.2798  0.9423 -2.6052
 1016MOL0     H40179   8.834  -0.085   6.863 -0.7114 -2.0344 -0.3392
 1016MOL0     H40180   8.899   0.044   7.094  2.7068  0.0940  0.2894
 1016MOL0     H40181   8.818  -0.117   7.107  0.2251 -0.8962 -0.3167
 1016MOL0     H40182   9.127  -0.091   7.109  0.6806 -2.6163 -1.0647
 1016MOL0     H40183   9.040  -0.231   7.141 -2.6919 -0.3169  0.1306
 1016MOL0     H40184   8.921  -0.102   7.339  0.7684 -0.8405 -0.8637
 1016MOL0     H40185   9.024   0.027   7.314 -1.7551  0.2893  0.8251
 1016MOL0     H40186   9.231  -0.148   7.333  0.1231  1.7078 -2.0038
 1016MOL0     H40187   9.095  -0.261   7.383  1.0457 -0.6724 -0.3217
 1016MOL0     H40188   9.531   0.072   6.722 -1.7578 -1.5763 -0.6752
 1016MOL0     H40189   9.694   0.218   6.636  0.5935 -0.4569 -2.2913
 1016MOL0     H40190   9.838   0.568   6.509  1.3315  0.8853  0.8902
 1016MOL0     H40191  10.011   0.744   6.474  1.5314 -0.7689 -0.8851
 1016MOL0     H40192  10.033   1.401   5.120  0.1894  3.6757  1.1418
 1016MOL0     H40193  10.127   1.482   4.885 -0.5912 -1.0929 -1.5877
 1016MOL0     H40194  10.251   1.489   4.481  1.0874  1.3703  0.1436
 1016MOL0     H40195  10.281   1.565   4.245 -0.1858  1.8245 -1.4435
 1016MOL0     H40196   9.928   1.661   4.002  0.3864  0.7614 -5.3567
 1016MOL0     H40197   9.960   1.828   4.054  1.4405 -0.0710 -0.4323
 1016MOL0     H40198  10.178   1.781   3.910 -1.2285 -1.5070  1.5698
 1016MOL0     H40199  10.038   1.865   3.831 -1.6087 -0.7165 -1.9899
 1016MOL0     H40200  10.125   1.577   3.806 -2.2927 -2.9657 -0.3201
 1016MOL0     H40201   9.963   1.609   3.791  1.0229 -2.5016  0.4222
 1016MOL0     H40202  10.039   1.802   3.626 -2.1366 -1.0230 -1.5691
 1016MOL0     H40203  10.057   1.636   3.564  0.5829  0.4994 -0.4702
 1016MOL0     H40204  10.455   1.809   3.633 -0.9815  2.9948  0.7799
 1016MOL0     H40205   9.889   1.738   4.251 -1.8971 -1.6154  1.2719
 1016MOL0     H40206   9.772   1.588   4.546  0.4411 -2.1047 -1.2963
 1016MOL0     H40207   9.819   1.771   4.523  1.1978  0.6473 -3.3252
 1016MOL0     H40208   9.751   1.678   4.393  0.7525 -0.1333 -0.0278
 1017MOL0     O40209   4.822   6.439   5.189 -0.2484 -0.1153  0.3216
 1017MOL0     C40210   4.796   6.344   5.265 -0.3446 -0.2898  1.2069
 1017MOL0     O40211   4.890   6.252   5.299 -0.4998 -0.2511 -0.2903
 1017MOL0     C40212   5.011   6.269   5.237  0.0875 -0.4181  0.9458
 1017MOL0     C40213   5.111   6.341   5.294  0.1181 -0.5185  0.2206
 1017MOL0     C40214   5.240   6.336   5.239 -0.0213  0.2334 -0.1951
 1017MOL0     C40215   5.264   6.274   5.116  0.0960 -0.8089 -0.0832
 1017MOL0     O40216   5.391   6.296   5.062 -0.3953  0.0415  0.1408
 1017MOL0     C40217   5.418   6.243   4.921 -0.8003  0.3164  0.1872
 1017MOL0     C40218   5.536   6.320   4.857  0.2273 -0.2631  0.1901
 1017MOL0     C40219   5.665   6.308   4.941 -0.2487  0.3974  0.7793
 1017MOL0     C40220   5.740   6.173   4.946  0.2249 -0.5960  0.1121
 1017MOL0     C40221   5.793   6.123   4.800 -0.0274  0.5715 -0.0211
 1017MOL0     C40222   5.855   5.980   4.809  0.2484 -0.1345 -0.0107
 1017MOL0     C40223   5.866   5.897   4.683 -0.8915  0.2488  0.0989
 1017MOL0     C40224   5.966   5.959   4.582  0.0880 -0.3157 -0.6394
 1017MOL0     N40225   6.097   5.936   4.628  0.1105 -0.1362 -0.1566
 1017MOL0     C40226   6.206   5.990   4.563  0.0205 -0.2956  0.1879
 1017MOL0     C40227   6.311   5.923   4.623  0.8368  0.1307  1.2810
 1017MOL0     C40228   6.464   5.935   4.596  0.6292 -0.1345  0.1635
 1017MOL0     C40229   6.516   6.072   4.564  0.7037 -0.4522 -0.0464
 1017MOL0     C40230   6.675   6.073   4.569  0.6996  0.0810 -0.5198
 1017MOL0     C40231   6.727   6.217   4.550  0.4976 -0.5955  0.2674
 1017MOL0     O40232   6.869   6.231   4.570  0.2543  0.0942  0.1137
 1017MOL0     C40233   6.941   6.343   4.546 -1.2883  0.8692 -0.2387
 1017MOL0     C40234   6.897   6.470   4.505 -0.6859  0.0246 -0.1291
 1017MOL0     C40235   6.987   6.581   4.505 -0.7222  0.1611  0.0976
 1017MOL0     C40236   6.927   6.721   4.477 -0.1852 -0.0735 -0.4972
 1017MOL0     C40237   7.127   6.564   4.536  0.1656 -0.2061 -1.2092
 1017MOL0     C40238   7.228   6.668   4.528 -0.2493  0.3576  0.1207
 1017MOL0     O40239   7.355   6.624   4.495 -0.3523  0.2416 -0.1038
 1017MOL0     C40240   7.452   6.728   4.494 -0.0981  0.5189  0.2045
 1017MOL0     C40241   7.563   6.725   4.578 -0.4835  0.0071  0.8292
 1017MOL0     C40242   7.655   6.833   4.562  0.4787  0.8179 -0.1369
 1017MOL0     C40243   7.640   6.931   4.473 -0.9222 -0.9417 -0.8447
 1017MOL0     O40244   7.732   7.034   4.489 -0.4634 -0.1850 -0.2405
 1017MOL0     C40245   7.751   7.132   4.386  0.2643 -0.0293  0.1332
 1017MOL0     C40246   7.891   7.112   4.316  0.0871 -0.2583  1.4890
 1017MOL0     C40247   7.894   6.985   4.235 -1.1059  0.1382 -0.4068
 1017MOL0     C40248   7.963   6.853   4.292 -0.7602 -0.8535  0.5110
 1017MOL0     C40249   7.939   6.718   4.204 -0.4856 -1.0582  0.0503
 1017MOL0     C40250   7.800   6.660   4.224  0.5123 -0.6163 -0.8719
 1017MOL0     C40251   7.774   6.532   4.135 -0.3254  0.0063 -0.4709
 1017MOL0     C40252   7.627   6.529   4.106 -0.0293  0.5690  0.4220
 1017MOL0    Cl40253   7.568   6.647   3.989  0.1556  0.4870 -0.4446
 1017MOL0     C40254   7.526   6.938   4.394 -0.6019  0.1235 -0.3575
 1017MOL0     C40255   7.439   6.834   4.405 -0.0800 -0.0050  0.4046
 1017MOL0     O40256   7.197   6.779   4.553  0.2033 -0.4215 -0.3463
 1017MOL0     C40257   7.164   6.437   4.574 -0.5203  1.4049 -0.0933
 1017MOL0     C40258   7.082   6.327   4.581  0.9672  0.2897 -0.3418
 1017MOL0     N40259   6.262   5.846   4.722 -0.8733 -0.0523  0.1407
 1017MOL0     N40260   6.139   5.856   4.730 -0.6405 -0.4307 -0.3707
 1017MOL0     C40261   5.160   6.208   5.052 -0.3490 -1.1595  0.9438
 1017MOL0     C40262   5.031   6.210   5.108 -0.0044  0.2996  1.1959
 1017MOL0     C40263   4.662   6.327   5.334  0.4674  0.6059 -0.4782
 1017MOL0     C40264   4.656   6.234   5.439  0.1239 -0.5666  0.4548
 1017MOL0     C40265   4.535   6.207   5.504  0.7837 -0.4327  0.0790
 1017MOL0     C40266   4.415   6.277   5.464 -0.3329 -0.1195  0.1738
 1017MOL0     O40267   4.304   6.250   5.536 -0.0610  0.0381  0.7215
 1017MOL0     C40268   4.172   6.294   5.497 -0.4353  1.3054 -0.0908
 1017MOL0     C40269   4.058   6.202   5.539 -0.3034 -0.1114  0.5054
 1017MOL0     C40270   4.053   6.064   5.471  0.4116 -0.4892  0.5697
 1017MOL0     C40271   4.139   5.969   5.549 -0.0788  1.5348  0.2551
 1017MOL0     C40272   4.133   5.834   5.491 -0.3812  0.3001 -0.2278
 1017MOL0     C40273   4.126   5.719   5.451 -0.3486  0.0724  0.6568
 1017MOL0     C40274   4.420   6.369   5.362 -0.4035 -0.1769  0.1063
 1017MOL0     C40275   4.543   6.393   5.294 -0.2401 -0.7270  0.6210
 1017MOL0     C40276   4.533   6.488   5.173  0.1001  0.9579  1.0003
 1017MOL0     H40277   5.091   6.385   5.391 -1.3526  0.6873 -0.5911
 1017MOL0     H40278   5.326   6.381   5.287 -0.0540 -0.4316  0.4911
 1017MOL0     H40279   5.334   6.267   4.854 -0.6541 -0.8557 -0.4386
 1017MOL0     H40280   5.445   6.138   4.931  1.0886  0.7795  0.2912
 1017MOL0     H40281   5.562   6.282   4.757  2.1734 -1.4009  1.0506
 1017MOL0     H40282   5.511   6.425   4.845  0.2117 -0.4404 -1.6191
 1017MOL0     H40283   5.730   6.386   4.901 -0.1705 -0.3330 -0.5812
 1017MOL0     H40284   5.646   6.339   5.044  5.5812  0.4704  2.1647
 1017MOL0     H40285   5.826   6.168   5.013 -0.2784 -2.5390  0.6892
 1017MOL0     H40286   5.669   6.102   4.988 -0.4165 -1.2865 -1.9978
 1017MOL0     H40287   5.877   6.186   4.770  0.6418  1.0059  2.4964
 1017MOL0     H40288   5.712   6.117   4.727 -1.5927 -0.8296  1.7427
 1017MOL0     H40289   5.955   5.987   4.852  0.8476 -0.0834 -1.3443
 1017MOL0     H40290   5.792   5.928   4.882 -1.1662  0.7243 -0.5700
 1017MOL0     H40291   5.770   5.899   4.631 -0.0949 -0.8887 -1.5309
 1017MOL0     H40292   5.886   5.791   4.704 -1.6570  0.1279  0.2596
 1017MOL0     H40293   5.959   5.913   4.483 -0.4117  0.4893 -0.9856
 1017MOL0     H40294   5.944   6.065   4.575 -2.5231 -0.5969  1.4180
 1017MOL0     H40295   6.198   6.046   4.471 -1.3261  0.3588  0.6654
 1017MOL0     H40296   6.506   5.853   4.536 -1.7417 -1.1078 -0.2781
 1017MOL0     H40297   6.513   5.910   4.691 -1.8138 -0.9874  1.2762
 1017MOL0     H40298   6.484   6.103   4.464  1.3713 -1.5716 -0.6275
 1017MOL0     H40299   6.471   6.134   4.642  1.0135  0.3671 -0.5054
 1017MOL0     H40300   6.702   6.065   4.675 -1.8595  3.1497  0.5419
 1017MOL0     H40301   6.716   5.989   4.512  2.1620  0.3266  0.1282
 1017MOL0     H40302   6.709   6.252   4.448  0.4019  3.5459  1.5236
 1017MOL0     H40303   6.671   6.284   4.615  0.0008 -1.4696  0.7598
 1017MOL0     H40304   6.795   6.473   4.469 -0.7950  2.3663  0.2128
 1017MOL0     H40305   6.817   6.721   4.483 -0.1500  1.6202  3.5689
 1017MOL0     H40306   6.964   6.769   4.386  0.0258  3.9148  1.4851
 1017MOL0     H40307   6.954   6.793   4.554 -0.2650 -2.3768  1.8303
 1017MOL0     H40308   7.583   6.653   4.656 -0.4559 -2.8152 -1.6291
 1017MOL0     H40309   7.747   6.837   4.620  0.0255 -0.3635  0.7113
 1017MOL0     H40310   7.681   7.137   4.302 -0.6894 -1.3205  0.8288
 1017MOL0     H40311   7.753   7.230   4.435  1.9247 -0.0690  0.2225
 1017MOL0     H40312   7.919   7.197   4.253  0.9670 -0.1409  2.0256
 1017MOL0     H40313   7.974   7.103   4.386  0.8287  0.5816  0.7333
 1017MOL0     H40314   7.947   7.019   4.146 -0.7957  3.6321  0.9285
 1017MOL0     H40315   7.797   6.961   4.189 -1.4738  0.5850  0.1073
 1017MOL0     H40316   7.927   6.837   4.394  0.8645  1.7582  1.6119
 1017MOL0     H40317   8.069   6.875   4.305 -1.5477  2.3440  3.0000
 1017MOL0     H40318   7.961   6.730   4.098 -1.6348 -2.0616 -0.3304
 1017MOL0     H40319   8.016   6.651   4.243 -0.2546 -0.5684  0.4442
 1017MOL0     H40320   7.730   6.742   4.205 -1.1145 -1.5805  0.6978
 1017MOL0     H40321   7.791   6.629   4.328  4.3341  5.1806  1.7309
 1017MOL0     H40322   7.804   6.450   4.201 -0.4337 -0.2397 -0.7252
 1017MOL0     H40323   7.823   6.519   4.039 -1.0457 -1.7137 -0.6386
 1017MOL0     H40324   7.563   6.540   4.194 -0.1401  0.4952  0.3508
 1017MOL0     H40325   7.605   6.433   4.058 -2.2315  1.6911 -0.9359
 1017MOL0     H40326   7.525   7.024   4.327 -0.3817  0.4392  0.0363
 1017MOL0     H40327   7.356   6.838   4.336  0.1354 -0.8004  0.0886
 1017MOL0     H40328   7.270   6.425   4.594 -1.0637 -0.1475  2.2092
 1017MOL0     H40329   7.130   6.231   4.600  2.8304  1.5519  1.7484
 1017MOL0     H40330   5.172   6.163   4.954 -2.0584 -0.7726  0.5289
 1017MOL0     H40331   4.945   6.168   5.056  0.7690 -1.3907  1.2409
 1017MOL0     H40332   4.741   6.180   5.478  0.5172 -0.6437 -0.4961
 1017MOL0     H40333   4.539   6.138   5.588  2.3687 -0.6990 -0.1978
 1017MOL0     H40334   4.160   6.395   5.537 -2.5305 -0.0014  2.9235
 1017MOL0     H40335   4.169   6.299   5.388 -0.4513 -2.4915 -0.3956
 1017MOL0     H40336   3.965   6.250   5.508 -1.6446 -3.0561 -0.3539
 1017MOL0     H40337   4.060   6.190   5.647 -1.7435  4.2853  1.2032
 1017MOL0     H40338   3.952   6.022   5.477  2.0991 -4.9062  1.2296
 1017MOL0     H40339   4.086   6.079   5.367  1.0123 -1.7498  0.5663
 1017MOL0     H40340   4.105   5.967   5.653 -3.5039  2.9510 -0.6772
 1017MOL0     H40341   4.243   6.002   5.550 -0.7464  3.7966  1.3635
 1017MOL0     H40342   4.115   5.621   5.409 -0.2516  0.2405  0.2341
 1017MOL0     H40343   4.332   6.408   5.312 -0.8095 -0.5734  0.5058
 1017MOL0     H40344   4.617   6.557   5.185  0.7662  0.3239  0.0778
 1017MOL0     H40345   4.536   6.435   5.077 -0.3539 -2.6980  2.8598
 1017MOL0     H40346   4.438   6.543   5.166 -2.4032 -2.7888  2.3198
 1018MOL0     O40347   3.984   5.045   9.058  0.0297  0.6996 -0.2700
 1018MOL0     C40348   3.877   5.042   9.006 -0.2042  0.3780  0.1843
 1018MOL0     O40349   3.848   5.037   8.871 -0.0700  0.4072 -0.8443
 1018MOL0     C40350   3.947   5.082   8.788 -0.6774 -0.3754 -0.1299
 1018MOL0     C40351   3.977   5.014   8.673  1.0168  0.1376  0.1461
 1018MOL0     C40352   4.055   5.067   8.572 -0.3765  0.1809 -1.1895
 1018MOL0     C40353   4.101   5.199   8.585 -0.2683 -0.3615  0.0426
 1018MOL0     O40354   4.176   5.244   8.478  0.2278 -0.4280 -0.1041
 1018MOL0     C40355   4.279   5.342   8.516 -0.3761 -0.3905  0.1358
 1018MOL0     C40356   4.389   5.319   8.414 -0.2788  0.1608  0.0798
 1018MOL0     C40357   4.505   5.412   8.442  0.4178 -0.6563 -0.5597
 1018MOL0     C40358   4.612   5.396   8.329 -0.1203 -0.0039 -0.5057
 1018MOL0     C40359   4.748   5.461   8.376  0.7108  0.0922 -0.2083
 1018MOL0     C40360   4.867   5.443   8.277  0.1902  0.2438 -0.3521
 1018MOL0     C40361   4.988   5.519   8.334 -0.6407 -0.0607  0.4841
 1018MOL0     C40362   5.094   5.527   8.219 -0.8999  0.3315  0.7571
 1018MOL0     N40363   5.219   5.591   8.264 -0.4998 -0.5396  0.5994
 1018MOL0     C40364   5.294   5.536   8.371 -0.9664 -0.8333 -0.0784
 1018MOL0     C40365   5.406   5.621   8.378  0.5510 -0.0037  0.0363
 1018MOL0     C40366   5.506   5.629   8.489 -0.3988 -0.4349  0.0446
 1018MOL0     C40367   5.598   5.507   8.508  0.3135 -1.1480 -0.4469
 1018MOL0     C40368   5.697   5.511   8.622  0.2678 -0.7600  0.7195
 1018MOL0     C40369   5.794   5.624   8.625  0.6903  0.8667  0.0015
 1018MOL0     O40370   5.875   5.618   8.502  0.5923 -0.3621 -0.3952
 1018MOL0     C40371   5.989   5.550   8.526 -0.5166 -0.2046 -0.2003
 1018MOL0     C40372   6.088   5.606   8.615 -0.6016  0.1442 -1.2528
 1018MOL0     C40373   6.208   5.540   8.641  0.8495  0.5726 -0.2551
 1018MOL0     C40374   6.297   5.598   8.745 -0.4097  0.3731  0.3329
 1018MOL0     C40375   6.227   5.416   8.580 -0.1672  0.5686  1.0786
 1018MOL0     C40376   6.335   5.314   8.612 -0.5406 -1.2221 -0.6169
 1018MOL0     O40377   6.358   5.302   8.742  0.3115 -0.8384 -0.7540
 1018MOL0     C40378   6.480   5.255   8.780 -0.7051  0.1202 -0.1075
 1018MOL0     C40379   6.592   5.332   8.752 -0.7497  0.3110 -0.5137
 1018MOL0     C40380   6.722   5.288   8.792 -0.2733 -0.3688 -0.4034
 1018MOL0     C40381   6.737   5.159   8.844  0.1442 -0.8286  1.3818
 1018MOL0     O40382   6.856   5.105   8.880  0.0290 -0.0284 -0.0124
 1018MOL0     C40383   6.979   5.185   8.879  0.1276  0.4064 -0.0214
 1018MOL0     C40384   7.100   5.099   8.889  0.1646  0.6301  0.0558
 1018MOL0     C40385   7.215   5.203   8.880 -0.4356  0.6120  1.0641
 1018MOL0     C40386   7.336   5.122   8.870  0.6589 -0.8670 -0.3730
 1018MOL0     C40387   7.465   5.205   8.833  0.0666 -1.0703 -0.4789
 1018MOL0     C40388   7.517   5.285   8.960 -0.1416 -0.0808 -0.5935
 1018MOL0     C40389   7.545   5.192   9.081  0.5862  0.0869  0.2500
 1018MOL0     C40390   7.629   5.261   9.186  0.8096 -0.1158 -0.4452
 1018MOL0    Cl40391   7.794   5.294   9.126  0.0333 -0.4281 -0.0612
 1018MOL0     C40392   6.621   5.088   8.871 -0.2330 -0.8660  0.6421
 1018MOL0     C40393   6.493   5.138   8.852 -0.0037  0.3812  0.1121
 1018MOL0     O40394   6.390   5.258   8.519 -0.0412  0.2834 -0.7701
 1018MOL0     C40395   6.133   5.372   8.489  0.0129  0.0641 -0.1674
 1018MOL0     C40396   6.016   5.433   8.464 -0.6664 -0.3636  0.6773
 1018MOL0     N40397   5.383   5.713   8.282  0.0276  0.6715 -0.0895
 1018MOL0     N40398   5.281   5.698   8.215  0.2615 -0.1034  0.9730
 1018MOL0     C40399   4.082   5.266   8.710 -0.1004 -0.8268  0.4844
 1018MOL0     C40400   4.002   5.211   8.806  0.0881  0.2195 -0.3662
 1018MOL0     C40401   3.759   5.029   9.083  0.7726  0.3184 -0.6481
 1018MOL0     C40402   3.637   4.977   9.028 -1.3338  0.7339 -0.1131
 1018MOL0     C40403   3.514   4.969   9.098 -1.0633 -0.0234  0.7067
 1018MOL0     C40404   3.506   5.003   9.233  0.3061 -0.3725 -0.0534
 1018MOL0     O40405   3.373   5.002   9.289  0.3312 -0.1198 -0.1630
 1018MOL0     C40406   3.370   4.946   9.419  0.2476 -0.7785  0.3217
 1018MOL0     C40407   3.247   4.855   9.430 -0.1099 -0.5238  0.3047
 1018MOL0     C40408   3.114   4.919   9.385 -0.6687  0.3147  0.0847
 1018MOL0     C40409   3.073   5.023   9.489  0.1261 -0.1605  0.0095
 1018MOL0     C40410   2.937   5.064   9.458  0.1670 -0.4887  0.4165
 1018MOL0     C40411   2.820   5.099   9.439 -0.3357  0.9105  0.1059
 1018MOL0     C40412   3.627   5.053   9.292  0.2817  0.6403  0.4987
 1018MOL0     C40413   3.743   5.074   9.222 -0.1541 -1.1769 -1.0422
 1018MOL0     C40414   3.862   5.125   9.306 -0.2609 -0.2860 -0.4097
 1018MOL0     H40415   3.926   4.919   8.678 -0.3599  0.8267 -0.2298
 1018MOL0     H40416   4.063   5.000   8.487  0.5020 -1.8260  0.4060
 1018MOL0     H40417   4.323   5.330   8.615  0.4619  0.8603 -0.0579
 1018MOL0     H40418   4.249   5.445   8.495  1.1726  0.2330  0.8686
 1018MOL0     H40419   4.423   5.215   8.415 -0.6599  0.0287 -0.4213
 1018MOL0     H40420   4.341   5.340   8.318  0.3298  1.1665 -0.0171
 1018MOL0     H40421   4.461   5.512   8.439  0.1000 -0.7640  0.2137
 1018MOL0     H40422   4.552   5.390   8.538  2.2063 -0.6774 -1.4033
 1018MOL0     H40423   4.629   5.292   8.301  2.1816  0.5879 -1.5262
 1018MOL0     H40424   4.579   5.450   8.240 -1.2419 -1.0684 -0.7640
 1018MOL0     H40425   4.792   5.417   8.465  0.6845  0.8134  0.1640
 1018MOL0     H40426   4.727   5.567   8.393 -0.0361  0.2685 -1.9887
 1018MOL0     H40427   4.880   5.335   8.268 -3.3786 -0.4447  1.0680
 1018MOL0     H40428   4.841   5.484   8.179 -0.2167  1.6598  0.3199
 1018MOL0     H40429   5.031   5.470   8.422 -2.4938 -0.5310  1.1640
 1018MOL0     H40430   4.952   5.619   8.359 -1.5693 -0.8179  2.4135
 1018MOL0     H40431   5.106   5.433   8.165 -0.1079  0.2612  1.0391
 1018MOL0     H40432   5.045   5.588   8.143 -3.1318 -0.4753  1.4398
 1018MOL0     H40433   5.280   5.444   8.427  4.0232 -0.2236  2.7674
 1018MOL0     H40434   5.461   5.646   8.587  0.1118  2.4663 -0.1187
 1018MOL0     H40435   5.569   5.717   8.473 -0.4628 -0.3203  0.3993
 1018MOL0     H40436   5.529   5.422   8.512 -1.2811  0.1117 -0.1167
 1018MOL0     H40437   5.657   5.486   8.418 -0.0562 -2.8179 -0.3355
 1018MOL0     H40438   5.660   5.492   8.723  1.2223 -0.9983  1.0371
 1018MOL0     H40439   5.744   5.414   8.607 -2.8864 -2.0882 -1.6992
 1018MOL0     H40440   5.736   5.717   8.626  0.7112  0.9009  1.7001
 1018MOL0     H40441   5.847   5.616   8.721  0.3590 -0.7495  0.0676
 1018MOL0     H40442   6.073   5.707   8.653  0.1392 -0.2560  0.1442
 1018MOL0     H40443   6.389   5.617   8.689  0.9807 -2.5947  1.3833
 1018MOL0     H40444   6.317   5.524   8.823 -0.1564 -0.5318 -0.5539
 1018MOL0     H40445   6.267   5.692   8.792  0.8976  1.9771 -1.8601
 1018MOL0     H40446   6.572   5.427   8.702  0.7348 -0.4157 -2.5907
 1018MOL0     H40447   6.796   5.367   8.781 -1.3342  0.7654  0.3314
 1018MOL0     H40448   6.988   5.242   8.786  0.8153 -0.4058 -0.4659
 1018MOL0     H40449   6.973   5.255   8.963  2.8295 -0.7453  1.2326
 1018MOL0     H40450   7.110   5.046   8.985  2.5104 -2.6450 -1.7923
 1018MOL0     H40451   7.097   5.026   8.808  1.6580 -0.3503  0.8216
 1018MOL0     H40452   7.229   5.273   8.963  0.5138  0.5785  0.9435
 1018MOL0     H40453   7.218   5.263   8.788  1.9392  0.3713  0.9240
 1018MOL0     H40454   7.328   5.051   8.787  2.3418 -0.8078 -0.6190
 1018MOL0     H40455   7.348   5.056   8.957  0.5099  1.4381  1.4924
 1018MOL0     H40456   7.539   5.130   8.803 -1.3807 -2.1275 -1.5325
 1018MOL0     H40457   7.449   5.274   8.750  3.1446  0.0096 -0.3311
 1018MOL0     H40458   7.447   5.362   8.990 -0.3668 -0.1584 -0.9180
 1018MOL0     H40459   7.612   5.335   8.938 -0.3250  1.2785  1.5048
 1018MOL0     H40460   7.595   5.100   9.049  2.1871  1.3120 -0.9824
 1018MOL0     H40461   7.446   5.164   9.118 -0.0482  0.6200 -0.9783
 1018MOL0     H40462   7.633   5.189   9.269 -1.8005 -0.3205 -0.3942
 1018MOL0     H40463   7.578   5.354   9.213 -0.1455 -1.1984  1.7024
 1018MOL0     H40464   6.627   4.988   8.912  0.6086 -0.5807  1.2511
 1018MOL0     H40465   6.408   5.087   8.895 -0.7620  0.8270 -0.8088
 1018MOL0     H40466   6.140   5.274   8.443 -0.1431 -0.7934  1.5471
 1018MOL0     H40467   5.949   5.397   8.387 -0.5005 -0.4382  0.5682
 1018MOL0     H40468   4.118   5.368   8.716 -0.7204 -0.4047 -2.0372
 1018MOL0     H40469   3.989   5.267   8.898  0.1148 -0.2485 -0.0697
 1018MOL0     H40470   3.636   4.936   8.928  0.0671 -4.8437  1.7702
 1018MOL0     H40471   3.423   4.951   9.043  0.9081  0.0994 -2.9352
 1018MOL0     H40472   3.461   4.895   9.452  0.7755 -0.3289 -0.4182
 1018MOL0     H40473   3.349   5.035   9.479  1.8858  0.7919 -1.3113
 1018MOL0     H40474   3.230   4.813   9.530  0.5245 -0.1077  0.5889
 1018MOL0     H40475   3.255   4.767   9.366  0.3628 -1.9389  2.2065
 1018MOL0     H40476   3.131   4.973   9.291  1.0244 -1.4275 -0.6809
 1018MOL0     H40477   3.038   4.842   9.368 -0.4091  0.0621  0.0514
 1018MOL0     H40478   3.135   5.112   9.476  0.5848 -0.6369 -1.2327
 1018MOL0     H40479   3.069   4.973   9.586  1.9248  0.5854  0.5032
 1018MOL0     H40480   2.727   5.145   9.412  0.6948  2.4031 -1.1116
 1018MOL0     H40481   3.622   5.080   9.397  0.8390 -0.9926  0.9886
 1018MOL0     H40482   3.908   5.209   9.253 -0.5527 -1.1676 -2.1422
 1018MOL0     H40483   3.834   5.164   9.404  1.1201  1.4439 -0.6507
 1018MOL0     H40484   3.940   5.048   9.319 -0.1126 -0.1048 -0.2155
 1019MOL0     O40485   6.070  10.092   3.437 -0.3475 -0.3099  0.0613
 1019MOL0     C40486   6.030   9.979   3.415 -0.8354  0.2769 -1.3545
 1019MOL0     O40487   5.912   9.946   3.373  0.1384  0.2467 -0.1697
 1019MOL0     C40488   5.811  10.048   3.366  0.6387  0.0219  0.0738
 1019MOL0     C40489   5.731  10.074   3.488 -0.4004  1.2394 -0.1479
 1019MOL0     C40490   5.622  10.158   3.483  0.1733 -0.0425 -0.4546
 1019MOL0     C40491   5.583  10.207   3.359 -0.1067  0.0193  0.2019
 1019MOL0     O40492   5.475  10.289   3.346 -0.0663  0.1366  0.2074
 1019MOL0     C40493   5.352  10.215   3.325 -0.5360 -1.2446  0.2052
 1019MOL0     C40494   5.250  10.264   3.425  0.0646 -0.1744 -0.1364
 1019MOL0     C40495   5.231  10.417   3.406 -0.5070  0.5825 -0.3726
 1019MOL0     C40496   5.222  10.468   3.263  0.4252 -0.3999  0.3285
 1019MOL0     C40497   5.208  10.623   3.266 -0.1113  0.5161  0.6200
 1019MOL0     C40498   5.160  10.693   3.136  0.6094  0.6153 -0.1422
 1019MOL0     C40499   5.166  10.844   3.161  0.2514 -0.3483  0.1612
 1019MOL0     C40500   5.086  10.928   3.062  0.8337  0.0486 -0.7482
 1019MOL0     N40501   5.141  10.926   2.919 -0.2815  0.0840 -1.1163
 1019MOL0     C40502   5.249  10.999   2.871 -0.3760  0.4509 -0.7707
 1019MOL0     C40503   5.264  10.947   2.746 -0.0126 -0.2589  0.7455
 1019MOL0     C40504   5.358  11.012   2.637 -1.4458 -0.3652  0.3874
 1019MOL0     C40505   5.483  10.923   2.610 -0.5741 -0.4595 -0.5309
 1019MOL0     C40506   5.578  10.900   2.732 -0.4699 -0.0649 -0.8891
 1019MOL0     C40507   5.632  11.021   2.797 -0.6984 -0.4918  0.0707
 1019MOL0     O40508   5.774  11.051   2.768 -0.5331 -0.5436 -1.1209
 1019MOL0     C40509   5.860  11.123   2.856  0.4627 -0.3907  0.0450
 1019MOL0     C40510   5.827  11.181   2.980 -0.4069 -0.7980 -1.3416
 1019MOL0     C40511   5.925  11.257   3.059 -0.6401  0.1862  0.6557
 1019MOL0     C40512   5.876  11.324   3.189  0.0164 -0.2376 -0.0839
 1019MOL0     C40513   6.046  11.282   2.999  0.4583  0.1928  0.5506
 1019MOL0     C40514   6.154  11.362   3.060 -0.4511  0.4541  1.1762
 1019MOL0     O40515   6.244  11.401   2.970 -0.0365  0.2760 -0.0538
 1019MOL0     C40516   6.358  11.464   3.011 -1.1072 -0.2288 -0.1067
 1019MOL0     C40517   6.412  11.547   2.912 -0.5821  0.4642 -0.0153
 1019MOL0     C40518   6.542  11.594   2.925 -0.5054 -1.2146  0.4282
 1019MOL0     C40519   6.626  11.568   3.029 -0.4040  0.4709 -0.5426
 1019MOL0     O40520   6.746  11.622   3.035 -0.2582 -0.1770  0.0824
 1019MOL0     C40521   6.815  11.606   2.912 -0.1016 -0.7083  0.6623
 1019MOL0     C40522   6.943  11.689   2.917 -0.0697  0.3297  0.5691
 1019MOL0     C40523   6.931  11.831   2.875 -0.2271 -0.7896 -0.6708
 1019MOL0     C40524   7.075  11.892   2.874 -0.0724 -0.5941 -0.2970
 1019MOL0     C40525   7.092  11.989   2.750 -0.3943 -0.3538 -0.6597
 1019MOL0     C40526   7.232  12.036   2.739 -0.4249 -0.0929 -0.7468
 1019MOL0     C40527   7.250  12.169   2.822 -0.0249 -0.1105 -1.0847
 1019MOL0     C40528   7.398  12.183   2.839  0.9399  0.3731  0.9556
 1019MOL0    Cl40529   7.473  12.049   2.936  0.1041 -0.3328 -0.0876
 1019MOL0     C40530   6.573  11.491   3.137 -0.1460 -0.9170 -0.4910
 1019MOL0     C40531   6.439  11.445   3.128  0.0111  0.0895 -0.1617
 1019MOL0     O40532   6.155  11.387   3.181  0.5042  0.0244 -0.3224
 1019MOL0     C40533   6.081  11.212   2.880 -0.2019 -0.2521 -0.1482
 1019MOL0     C40534   5.992  11.131   2.809 -0.0880 -0.0800 -0.5461
 1019MOL0     N40535   5.184  10.836   2.721  0.4547  0.4270  0.7700
 1019MOL0     N40536   5.101  10.832   2.822 -0.0499  0.6438  0.0088
 1019MOL0     C40537   5.662  10.189   3.246 -0.5830  0.3662  0.6373
 1019MOL0     C40538   5.776  10.107   3.248 -0.6752 -1.1435  0.0064
 1019MOL0     C40539   6.125   9.865   3.430  0.7042  0.9841  0.2068
 1019MOL0     C40540   6.089   9.748   3.503  0.0311  0.0176  0.1944
 1019MOL0     C40541   6.184   9.643   3.531  0.3083 -0.2086 -0.4407
 1019MOL0     C40542   6.314   9.654   3.486  0.6114 -0.1054 -0.4623
 1019MOL0     O40543   6.399   9.546   3.510 -0.6503 -0.6356 -0.2180
 1019MOL0     C40544   6.541   9.574   3.515  0.4427  0.4045  0.4572
 1019MOL0     C40545   6.578   9.666   3.636 -0.4336 -0.1466 -1.0481
 1019MOL0     C40546   6.729   9.706   3.648 -0.8237 -0.5000  0.1526
 1019MOL0     C40547   6.800   9.735   3.515  0.8898 -0.1457 -0.0713
 1019MOL0     C40548   6.745   9.838   3.426 -0.5461 -0.2288  0.2465
 1019MOL0     C40549   6.703   9.913   3.341  0.4468  0.3612  0.4259
 1019MOL0     C40550   6.356   9.765   3.413  0.8810  0.6547  0.1364
 1019MOL0     C40551   6.255   9.862   3.378 -0.2731 -0.6863 -0.6410
 1019MOL0     C40552   6.295   9.964   3.274 -0.8591 -0.1129  0.2809
 1019MOL0     H40553   5.752  10.018   3.578  1.3132  0.4150 -1.0199
 1019MOL0     H40554   5.565  10.194   3.568 -0.5533 -1.8938 -0.0993
 1019MOL0     H40555   5.366  10.109   3.348 -0.3287 -1.6906 -1.7538
 1019MOL0     H40556   5.316  10.219   3.222 -1.1072 -0.0111  0.4368
 1019MOL0     H40557   5.153  10.214   3.414 -0.0686 -0.0922  0.6736
 1019MOL0     H40558   5.292  10.236   3.522  2.2957 -1.3307 -1.3495
 1019MOL0     H40559   5.136  10.451   3.450 -0.1098  0.3149  0.7152
 1019MOL0     H40560   5.315  10.471   3.450 -1.0656  2.3776 -1.4102
 1019MOL0     H40561   5.306  10.447   3.196  0.0967  0.2433 -0.3114
 1019MOL0     H40562   5.130  10.427   3.220 -0.8322  2.4924  0.0225
 1019MOL0     H40563   5.307  10.666   3.287  2.0456 -0.0632 -6.0997
 1019MOL0     H40564   5.132  10.642   3.342 -0.8678 -2.0305  0.6001
 1019MOL0     H40565   5.233  10.656   3.064 -0.3558 -0.7328 -0.4815
 1019MOL0     H40566   5.058  10.664   3.111  0.0773  0.3503  2.0859
 1019MOL0     H40567   5.269  10.882   3.163  0.7486 -1.6390  2.5058
 1019MOL0     H40568   5.123  10.857   3.261  1.1342  0.5527  0.4497
 1019MOL0     H40569   4.982  10.896   3.055 -0.3213  3.4831 -1.3151
 1019MOL0     H40570   5.085  11.034   3.091 -0.6894  0.0139 -0.6235
 1019MOL0     H40571   5.303  11.084   2.912  1.8801 -0.9545 -0.6567
 1019MOL0     H40572   5.392  11.111   2.671  0.3074 -0.9153  0.3763
 1019MOL0     H40573   5.306  11.029   2.543 -1.9060  0.3245  0.7597
 1019MOL0     H40574   5.441  10.827   2.578  0.1519 -0.3523 -1.9141
 1019MOL0     H40575   5.526  10.959   2.516 -2.8355 -2.0050 -2.3004
 1019MOL0     H40576   5.515  10.854   2.809 -2.1216  0.9056 -1.5887
 1019MOL0     H40577   5.653  10.832   2.690 -0.1278  0.3001 -0.8697
 1019MOL0     H40578   5.571  11.110   2.777  1.3435  1.5549  2.2893
 1019MOL0     H40579   5.641  11.001   2.904  3.3904  0.1951  0.0118
 1019MOL0     H40580   5.721  11.181   3.006 -0.5894 -2.4721 -1.9940
 1019MOL0     H40581   5.944  11.309   3.273  1.4900  0.0906 -1.1882
 1019MOL0     H40582   5.775  11.283   3.202 -0.3673  0.6908 -0.0347
 1019MOL0     H40583   5.860  11.431   3.171  0.1689 -0.6267 -3.0214
 1019MOL0     H40584   6.338  11.579   2.839  0.5016  1.3648 -0.7462
 1019MOL0     H40585   6.568  11.665   2.847 -0.8548 -0.2142  1.1906
 1019MOL0     H40586   6.852  11.503   2.904  2.3915  0.0341  1.5082
 1019MOL0     H40587   6.763  11.646   2.825 -1.3861  0.0582  1.7527
 1019MOL0     H40588   6.972  11.695   3.022 -3.4294  0.5147  1.5878
 1019MOL0     H40589   7.017  11.642   2.851  2.1269 -0.5684  3.4204
 1019MOL0     H40590   6.875  11.897   2.941  1.9289  1.8522 -1.3266
 1019MOL0     H40591   6.878  11.839   2.780 -0.6367  1.8987 -0.2912
 1019MOL0     H40592   7.145  11.809   2.858  1.0849  0.0365  1.2978
 1019MOL0     H40593   7.105  11.936   2.969  1.5868 -0.1814 -0.9831
 1019MOL0     H40594   7.053  11.945   2.658 -2.0826 -2.1586  0.8312
 1019MOL0     H40595   7.028  12.074   2.771 -1.0486 -0.7625 -0.9832
 1019MOL0     H40596   7.255  12.064   2.635 -1.8593 -1.5392 -1.5016
 1019MOL0     H40597   7.309  11.961   2.760  0.1791  0.8766  0.5978
 1019MOL0     H40598   7.196  12.169   2.917  0.6945 -1.6801 -0.6436
 1019MOL0     H40599   7.215  12.255   2.764 -1.2035  0.5505  0.5372
 1019MOL0     H40600   7.408  12.272   2.902  0.0554  1.6803 -0.6612
 1019MOL0     H40601   7.450  12.199   2.744 -1.2580 -0.0796 -0.3921
 1019MOL0     H40602   6.638  11.477   3.223  1.5631 -0.3618 -1.6343
 1019MOL0     H40603   6.406  11.399   3.220  1.8582  2.8465  2.0810
 1019MOL0     H40604   6.174  11.224   2.826 -0.8872  0.6898 -1.1817
 1019MOL0     H40605   6.015  11.097   2.709  1.1978 -0.0847 -0.2722
 1019MOL0     H40606   5.639  10.243   3.154 -0.4518  0.0246  0.4028
 1019MOL0     H40607   5.850  10.082   3.173  0.9406  1.0194  0.7654
 1019MOL0     H40608   5.988   9.749   3.544 -0.6650 -2.4493 -1.2831
 1019MOL0     H40609   6.152   9.553   3.582  3.2615 -0.3670  1.3275
 1019MOL0     H40610   6.578   9.471   3.526  0.3472  0.2737 -0.3640
 1019MOL0     H40611   6.575   9.617   3.420 -1.5413  1.9291  0.3826
 1019MOL0     H40612   6.549   9.622   3.732 -0.6503 -1.7072 -1.7928
 1019MOL0     H40613   6.524   9.762   3.636 -0.0148  0.0985 -2.2191
 1019MOL0     H40614   6.732   9.793   3.714 -2.3119 -1.0460  0.9933
 1019MOL0     H40615   6.782   9.629   3.706 -0.0069  1.8765  2.7556
 1019MOL0     H40616   6.793   9.643   3.455  1.0848  0.2315 -0.6852
 1019MOL0     H40617   6.904   9.764   3.528  0.0128  2.4593  1.9158
 1019MOL0     H40618   6.668   9.982   3.267  1.1402  0.6772  0.3905
 1019MOL0     H40619   6.455   9.786   3.374  1.1196  0.0468  0.4163
 1019MOL0     H40620   6.374   9.928   3.207  0.5930 -0.2419  1.9955
 1019MOL0     H40621   6.204   9.991   3.221 -1.3686 -1.7530  0.2488
 1019MOL0     H40622   6.329  10.054   3.326 -1.5919  1.6042 -2.0255
 1020MOL0     O40623   0.924   8.746   6.368  0.1014 -0.4623 -0.5423
 1020MOL0     C40624   0.867   8.700   6.466 -0.3712  0.2399  0.5663
 1020MOL0     O40625   0.879   8.743   6.594 -0.4232  0.1026  0.1079
 1020MOL0     C40626   0.978   8.820   6.645 -0.0769  0.0595  0.3873
 1020MOL0     C40627   1.099   8.864   6.581 -0.0694  0.4773  0.0043
 1020MOL0     C40628   1.198   8.929   6.667  0.1869  0.9119 -0.8317
 1020MOL0     C40629   1.172   8.956   6.802 -0.2480 -0.1244 -0.5142
 1020MOL0     O40630   1.267   9.037   6.875  0.4687 -0.0296 -0.6375
 1020MOL0     C40631   1.303   8.978   7.002 -0.6386 -0.0255 -0.5034
 1020MOL0     C40632   1.431   9.054   7.037  0.2032  0.4694  0.0276
 1020MOL0     C40633   1.470   9.047   7.180  0.1310  0.2133  0.5335
 1020MOL0     C40634   1.619   9.095   7.192 -0.0744  0.3262 -0.4410
 1020MOL0     C40635   1.726   8.996   7.130 -0.1372  0.3937 -0.4461
 1020MOL0     C40636   1.707   8.846   7.173  0.6453 -0.0393 -0.9691
 1020MOL0     C40637   1.830   8.764   7.155  0.5403 -1.0647 -0.9171
 1020MOL0     C40638   1.796   8.618   7.162 -0.5325  0.0977  0.3852
 1020MOL0     N40639   1.912   8.539   7.104  0.5029  0.3483  0.0659
 1020MOL0     C40640   2.046   8.548   7.117  0.9845 -0.4404 -0.4052
 1020MOL0     C40641   2.096   8.457   7.035 -0.0822 -0.5133 -0.1949
 1020MOL0     C40642   2.239   8.424   7.024 -0.7384  0.0974  0.3136
 1020MOL0     C40643   2.294   8.513   6.910  0.3419  0.4029  0.1203
 1020MOL0     C40644   2.432   8.467   6.875  0.9230 -0.3828 -0.4429
 1020MOL0     C40645   2.547   8.507   6.974  1.0073 -0.2211 -0.2578
 1020MOL0     O40646   2.512   8.443   7.101 -0.2221  0.5240  0.1354
 1020MOL0     C40647   2.601   8.441   7.210 -0.7987  0.3031 -0.1550
 1020MOL0     C40648   2.567   8.392   7.335  0.4323 -0.5675 -0.4207
 1020MOL0     C40649   2.663   8.363   7.433  0.1360 -0.3446  0.1007
 1020MOL0     C40650   2.616   8.284   7.545  0.4429 -0.8621 -0.9084
 1020MOL0     C40651   2.799   8.380   7.398 -0.0437 -0.6545 -0.0382
 1020MOL0     C40652   2.908   8.342   7.491  0.0580  0.3725  1.1080
 1020MOL0     O40653   3.034   8.330   7.430  0.4353  0.3399  0.0051
 1020MOL0     C40654   3.135   8.291   7.517 -0.8705  0.5966  0.1485
 1020MOL0     C40655   3.134   8.192   7.617 -1.2239  0.0274 -0.1118
 1020MOL0     C40656   3.266   8.144   7.666 -0.0019 -0.1991 -0.1977
 1020MOL0     C40657   3.386   8.194   7.618 -0.3204 -0.6327 -0.3070
 1020MOL0     O40658   3.513   8.163   7.659 -0.2793  0.0873 -0.3695
 1020MOL0     C40659   3.524   8.052   7.747  0.2236 -0.0759 -0.1527
 1020MOL0     C40660   3.665   7.997   7.733  0.7510  0.7172 -0.6869
 1020MOL0     C40661   3.750   8.087   7.822 -0.3382  0.3017  0.0226
 1020MOL0     C40662   3.903   8.055   7.825  0.0900  0.4075 -0.5614
 1020MOL0     C40663   3.964   8.171   7.907 -0.7941  0.4618  0.0980
 1020MOL0     C40664   3.975   8.304   7.838  0.1713  0.2180  0.5633
 1020MOL0     C40665   4.006   8.417   7.935 -0.2254 -0.3925 -0.2602
 1020MOL0     C40666   4.005   8.563   7.871 -0.4181  0.4664  0.0211
 1020MOL0    Cl40667   3.831   8.601   7.837 -0.3068  0.0936  0.3323
 1020MOL0     C40668   3.378   8.304   7.528  0.2087  0.2235  0.1602
 1020MOL0     C40669   3.255   8.355   7.482  0.0788 -0.1559 -0.4765
 1020MOL0     O40670   2.885   8.335   7.606  0.7213 -0.5530 -1.0445
 1020MOL0     C40671   2.830   8.438   7.279  0.1190  0.3964  0.0749
 1020MOL0     C40672   2.733   8.470   7.187 -0.1824  0.8069  0.1636
 1020MOL0     N40673   1.995   8.393   6.973  0.3513  0.2333 -0.7665
 1020MOL0     N40674   1.888   8.445   7.016  0.0058 -0.6621  0.5526
 1020MOL0     C40675   1.045   8.927   6.861 -0.1457 -0.1430  0.7186
 1020MOL0     C40676   0.955   8.859   6.777 -0.1646 -0.0985 -1.4655
 1020MOL0     C40677   0.770   8.589   6.433  0.5518  0.0502 -0.2657
 1020MOL0     C40678   0.827   8.474   6.366  0.0032 -0.1932  0.6625
 1020MOL0     C40679   0.756   8.364   6.337  0.4836  0.1524 -0.4879
 1020MOL0     C40680   0.619   8.351   6.380  0.2637 -1.3637 -0.1520
 1020MOL0     O40681   0.536   8.244   6.362 -0.6014  0.4391 -0.1555
 1020MOL0     C40682   0.597   8.140   6.285 -0.1776  0.9766  0.1624
 1020MOL0     C40683   0.502   8.029   6.270  0.1509  0.4754 -0.4620
 1020MOL0     C40684   0.486   7.950   6.401  0.6901  0.2865  0.0563
 1020MOL0     C40685   0.426   7.818   6.366  1.2421 -0.1692 -0.3755
 1020MOL0     C40686   0.296   7.827   6.306 -0.4308 -0.7002  0.3316
 1020MOL0     C40687   0.183   7.825   6.255 -0.7019  0.7606 -0.4581
 1020MOL0     C40688   0.564   8.469   6.437  0.3135  0.4055  0.2088
 1020MOL0     C40689   0.634   8.580   6.464  0.4594  0.0129  0.3095
 1020MOL0     C40690   0.548   8.691   6.534  0.1516 -0.4064  0.1365
 1020MOL0     H40691   1.114   8.845   6.475 -2.4977  0.8013 -0.4530
 1020MOL0     H40692   1.290   8.962   6.620  1.1825 -1.3573 -0.5929
 1020MOL0     H40693   1.330   8.872   7.009 -0.9037 -0.1193 -0.8573
 1020MOL0     H40694   1.222   8.999   7.073  0.3270 -1.0932  0.9565
 1020MOL0     H40695   1.515   9.030   6.971  2.0571  3.4626  1.0931
 1020MOL0     H40696   1.420   9.160   7.015  1.3726  0.1072 -2.6275
 1020MOL0     H40697   1.406   9.122   7.227  0.0384  0.8752 -0.6128
 1020MOL0     H40698   1.461   8.949   7.227  0.8758 -0.4727 -0.7089
 1020MOL0     H40699   1.631   9.195   7.149 -0.0086  0.8805  0.8256
 1020MOL0     H40700   1.643   9.103   7.298  1.8637  1.1542 -0.8991
 1020MOL0     H40701   1.827   9.025   7.162 -0.5153  0.4583  0.7490
 1020MOL0     H40702   1.721   8.990   7.021 -2.8726 -0.0934 -0.3519
 1020MOL0     H40703   1.672   8.847   7.276 -1.0726 -1.5424 -1.4872
 1020MOL0     H40704   1.633   8.805   7.104 -1.3153  0.3614  0.8031
 1020MOL0     H40705   1.907   8.795   7.226 -1.4747  2.7052 -0.1002
 1020MOL0     H40706   1.876   8.781   7.057  0.0279 -3.2583 -1.5942
 1020MOL0     H40707   1.770   8.588   7.264 -0.5333 -2.2555 -0.2669
 1020MOL0     H40708   1.708   8.601   7.100 -0.3039 -0.1252  0.1229
 1020MOL0     H40709   2.101   8.629   7.166 -3.4756  2.2884  0.7399
 1020MOL0     H40710   2.258   8.316   7.014  2.0537  0.5791 -0.5852
 1020MOL0     H40711   2.284   8.438   7.122  2.3260 -2.2762 -0.5535
 1020MOL0     H40712   2.233   8.509   6.820 -2.2152  1.2714  1.7043
 1020MOL0     H40713   2.305   8.616   6.947  0.7608 -0.2872  2.0255
 1020MOL0     H40714   2.437   8.361   6.850 -1.1483 -0.6812  0.2092
 1020MOL0     H40715   2.461   8.512   6.779  0.1545  1.2286  0.0363
 1020MOL0     H40716   2.640   8.468   6.932 -0.5504 -1.0845 -3.1821
 1020MOL0     H40717   2.554   8.616   6.987  0.4990  0.1375 -2.6648
 1020MOL0     H40718   2.464   8.361   7.346  0.3573 -0.0342  0.4664
 1020MOL0     H40719   2.654   8.182   7.553  0.0520 -0.8710  1.5114
 1020MOL0     H40720   2.509   8.268   7.528  0.3294  0.9525 -2.2072
 1020MOL0     H40721   2.634   8.348   7.632 -1.6008  0.7648 -1.5879
 1020MOL0     H40722   3.048   8.145   7.662 -1.5630  1.2412  0.5323
 1020MOL0     H40723   3.265   8.064   7.739  2.7628 -0.9393 -0.8620
 1020MOL0     H40724   3.508   8.076   7.852  0.4656  3.6506 -0.8280
 1020MOL0     H40725   3.457   7.971   7.717  2.1199 -1.9870  0.4984
 1020MOL0     H40726   3.669   7.890   7.751 -1.6410  0.8415  1.0625
 1020MOL0     H40727   3.710   7.997   7.633  3.2483 -0.8729  0.3479
 1020MOL0     H40728   3.721   8.066   7.925 -0.1166  2.4825  0.5782
 1020MOL0     H40729   3.730   8.194   7.812  1.3920  0.8929  2.1631
 1020MOL0     H40730   3.957   8.060   7.731  0.9036  0.3113 -0.1095
 1020MOL0     H40731   3.920   7.961   7.879  0.0636  0.4755 -0.4334
 1020MOL0     H40732   3.931   8.188   8.010  1.1113  1.2131  0.6189
 1020MOL0     H40733   4.068   8.140   7.923 -0.4276  2.2027  1.4334
 1020MOL0     H40734   3.881   8.333   7.790 -0.0811  1.7981  1.9017
 1020MOL0     H40735   4.049   8.302   7.758  0.4630  1.5667  0.7647
 1020MOL0     H40736   4.104   8.414   7.984 -1.0535 -2.6502  1.4437
 1020MOL0     H40737   3.932   8.416   8.015 -1.5054 -1.2481 -1.4066
 1020MOL0     H40738   4.061   8.577   7.777 -1.5906  0.1468 -0.7505
 1020MOL0     H40739   4.043   8.635   7.944 -0.0589 -0.7077  1.0077
 1020MOL0     H40740   3.473   8.343   7.492  1.3619  0.3077  3.0703
 1020MOL0     H40741   3.261   8.433   7.407  0.0247 -0.1512 -0.4765
 1020MOL0     H40742   2.932   8.459   7.248  0.0821  2.5097  1.2103
 1020MOL0     H40743   2.764   8.502   7.088 -1.0036 -2.0302 -1.1044
 1020MOL0     H40744   1.015   8.962   6.959  0.9174 -0.6511  1.2474
 1020MOL0     H40745   0.854   8.838   6.811 -0.1537  1.1031 -0.6557
 1020MOL0     H40746   0.930   8.479   6.331  0.0106 -3.5266 -0.1133
 1020MOL0     H40747   0.798   8.287   6.273 -1.2412 -0.7541 -0.5872
 1020MOL0     H40748   0.613   8.170   6.181 -0.3699 -2.0872 -0.8464
 1020MOL0     H40749   0.691   8.110   6.333  1.5627  1.9124 -2.4340
 1020MOL0     H40750   0.548   7.957   6.201  0.1968  1.0199 -1.0017
 1020MOL0     H40751   0.405   8.066   6.236 -0.1277 -0.4418 -0.6875
 1020MOL0     H40752   0.582   7.930   6.450  0.9175  0.1944 -0.4162
 1020MOL0     H40753   0.421   8.004   6.470  0.9963 -0.9332  1.3433
 1020MOL0     H40754   0.410   7.744   6.444 -1.3826 -0.1335 -0.8089
 1020MOL0     H40755   0.483   7.765   6.288  1.8519  0.6947 -0.5328
 1020MOL0     H40756   0.082   7.810   6.223 -1.8060  1.4607  2.3672
 1020MOL0     H40757   0.463   8.465   6.476 -0.1958  0.3011 -1.0829
 1020MOL0     H40758   0.474   8.641   6.597 -0.5980 -0.4719 -0.7721
 1020MOL0     H40759   0.607   8.744   6.609 -0.7534 -0.4398  0.8844
 1020MOL0     H40760   0.510   8.754   6.453  0.8677 -2.9097 -2.3199
 1021MOL0     O40761   6.554   1.942  11.110 -0.4214 -0.3024 -0.0916
 1021MOL0     C40762   6.441   1.901  11.124 -0.8063  0.0767  0.3415
 1021MOL0     O40763   6.398   1.844  11.248  0.1858 -0.8012  0.1556
 1021MOL0     C40764   6.486   1.841  11.350 -0.4082  0.2812 -0.6565
 1021MOL0     C40765   6.606   1.769  11.356  0.1976  0.5107 -0.3392
 1021MOL0     C40766   6.687   1.764  11.472  0.4805  0.2932  0.9368
 1021MOL0     C40767   6.654   1.844  11.587  0.6888  0.7339  0.5834
 1021MOL0     O40768   6.740   1.835  11.692 -0.5449 -0.2676  0.0989
 1021MOL0     C40769   6.699   1.874  11.818  0.0152 -0.1607 -0.0870
 1021MOL0     C40770   6.763   1.777  11.911  0.2474  0.0821 -0.7341
 1021MOL0     C40771   6.916   1.776  11.914  0.0352 -0.7767 -0.4059
 1021MOL0     C40772   6.980   1.884  11.998 -0.1374  0.1077 -0.4745
 1021MOL0     C40773   7.023   2.006  11.917  0.7131 -0.0154 -0.0646
 1021MOL0     C40774   7.146   1.990  11.833 -0.0334  0.0004 -0.0084
 1021MOL0     C40775   7.159   2.096  11.719  1.4877  0.3201 -0.3384
 1021MOL0     C40776   7.298   2.110  11.666 -0.4264 -0.3086  0.2189
 1021MOL0     N40777   7.404   2.168  11.746 -0.2350 -0.1952 -1.0245
 1021MOL0     C40778   7.484   2.102  11.846  0.5601  0.1853 -0.5456
 1021MOL0     C40779   7.592   2.181  11.868 -0.1199  0.4958  0.0207
 1021MOL0     C40780   7.717   2.170  11.961 -0.6256 -0.2713 -0.1137
 1021MOL0     C40781   7.701   2.217  12.104  0.4918  0.6325 -0.7185
 1021MOL0     C40782   7.830   2.258  12.176  1.3880 -0.5286 -0.4691
 1021MOL0     C40783   7.952   2.166  12.160  0.2378 -0.0294  0.0427
 1021MOL0     O40784   8.048   2.196  12.268  0.1601  0.1781  0.9579
 1021MOL0     C40785   8.176   2.158  12.246  0.1795  0.5090  0.7251
 1021MOL0     C40786   8.218   2.093  12.127 -0.2573  0.9367 -0.3186
 1021MOL0     C40787   8.356   2.078  12.099 -0.3326 -0.8222  0.9917
 1021MOL0     C40788   8.387   2.000  11.970 -0.8544 -0.3727 -0.3608
 1021MOL0     C40789   8.453   2.133  12.192 -0.0052  0.3588 -0.4492
 1021MOL0     C40790   8.601   2.124  12.172  0.2110  0.5135  0.0547
 1021MOL0     O40791   8.678   2.196  12.257  0.0166  0.0883 -0.8652
 1021MOL0     C40792   8.808   2.153  12.273  0.9034 -0.2152  0.6164
 1021MOL0     C40793   8.835   2.029  12.331 -0.5646  0.3966 -0.2766
 1021MOL0     C40794   8.972   2.004  12.362 -0.0891 -0.0761  0.1964
 1021MOL0     C40795   9.080   2.090  12.322  0.2087 -0.2353 -0.0084
 1021MOL0     O40796   9.214   2.064  12.336  0.2756  0.0709  0.1914
 1021MOL0     C40797   9.260   1.945  12.407  0.4091 -0.0979 -0.1948
 1021MOL0     C40798   9.418   1.963  12.418  0.3198  0.3472  0.3784
 1021MOL0     C40799   9.464   1.843  12.493 -0.0475 -0.6239  0.1691
 1021MOL0     C40800   9.618   1.833  12.491 -1.0678 -0.2692 -0.3212
 1021MOL0     C40801   9.677   1.701  12.534  0.1338 -1.0581  0.4055
 1021MOL0     C40802   9.827   1.708  12.517 -0.1130  0.4873 -0.5320
 1021MOL0     C40803   9.877   1.566  12.542 -0.2016  0.0009  0.2406
 1021MOL0     C40804  10.029   1.541  12.524 -0.6468  0.9031 -0.8307
 1021MOL0    Cl40805  10.121   1.645  12.634  0.1303 -0.1112  0.5144
 1021MOL0     C40806   9.042   2.205  12.250  0.3019  0.5268 -0.0116
 1021MOL0     C40807   8.912   2.236  12.234 -1.1673  0.1259  0.0601
 1021MOL0     O40808   8.640   2.037  12.095  0.0248  0.3717 -0.2354
 1021MOL0     C40809   8.401   2.201  12.304 -0.0592  0.2748  0.4356
 1021MOL0     C40810   8.270   2.212  12.335 -1.2731 -0.5324  0.1224
 1021MOL0     N40811   7.573   2.292  11.789 -0.5767 -0.9258  0.6420
 1021MOL0     N40812   7.470   2.293  11.721  0.2780  0.3835  0.4179
 1021MOL0     C40813   6.533   1.909  11.584  0.7509 -0.0802  0.4489
 1021MOL0     C40814   6.457   1.912  11.462 -0.2492 -0.3493  0.2733
 1021MOL0     C40815   6.352   1.921  11.002  0.1708  0.7467  0.0509
 1021MOL0     C40816   6.412   1.918  10.874 -0.0551 -0.2649  0.2761
 1021MOL0     C40817   6.333   1.917  10.761  0.6587  0.7736 -0.9344
 1021MOL0     C40818   6.193   1.932  10.766  0.1960  0.1627  0.2956
 1021MOL0     O40819   6.108   1.914  10.654 -0.3406  0.2932  0.1701
 1021MOL0     C40820   6.143   1.990  10.530 -0.3465  0.0413 -0.7366
 1021MOL0     C40821   6.021   2.037  10.455  0.4653 -0.1673 -0.9375
 1021MOL0     C40822   5.933   2.146  10.527 -0.2783 -0.0280  0.1643
 1021MOL0     C40823   5.842   2.230  10.432 -0.2861 -0.2584 -0.3100
 1021MOL0     C40824   5.931   2.328  10.362 -0.4462  0.6154  0.2767
 1021MOL0     C40825   5.997   2.411  10.306 -0.6788 -0.2427 -0.2465
 1021MOL0     C40826   6.136   1.951  10.894  0.5969  0.8658 -0.0454
 1021MOL0     C40827   6.213   1.938  11.011  0.7904 -0.4399 -0.4160
 1021MOL0     C40828   6.140   1.935  11.149 -0.3507 -0.9187  0.3639
 1021MOL0     H40829   6.639   1.714  11.268 -1.5676 -1.6981  0.2841
 1021MOL0     H40830   6.767   1.692  11.488  0.1318 -0.0127  1.3274
 1021MOL0     H40831   6.590   1.871  11.826 -0.0855  0.7620 -0.8493
 1021MOL0     H40832   6.735   1.975  11.839  0.9961 -0.0662 -1.9729
 1021MOL0     H40833   6.732   1.797  12.014 -0.2767 -0.7799 -0.7146
 1021MOL0     H40834   6.739   1.673  11.886  0.5235 -0.8910  2.5875
 1021MOL0     H40835   6.939   1.683  11.967  0.7197  0.2235  1.0977
 1021MOL0     H40836   6.962   1.777  11.815 -0.6728  0.1822 -0.7476
 1021MOL0     H40837   6.913   1.911  12.080  0.8949 -0.7614  0.6907
 1021MOL0     H40838   7.076   1.861  12.045 -0.9002  0.6420  1.4206
 1021MOL0     H40839   7.040   2.084  11.992 -0.6199  1.6173 -1.3609
 1021MOL0     H40840   6.930   2.029  11.863  0.3767 -1.5716 -0.1888
 1021MOL0     H40841   7.229   1.998  11.904 -0.3244  0.5808  0.2801
 1021MOL0     H40842   7.143   1.887  11.797 -1.2628 -0.6152  1.7298
 1021MOL0     H40843   7.128   2.193  11.759 -0.6246 -0.9712  1.4207
 1021MOL0     H40844   7.093   2.068  11.636  0.9235  0.8526 -0.0734
 1021MOL0     H40845   7.326   2.008  11.639 -0.5460 -0.1945 -0.3523
 1021MOL0     H40846   7.285   2.169  11.574  0.4403  0.8373  0.7986
 1021MOL0     H40847   7.465   2.011  11.902  0.5850 -0.0066 -0.8490
 1021MOL0     H40848   7.796   2.220  11.905 -2.2146  1.2175 -1.0939
 1021MOL0     H40849   7.746   2.064  11.960  2.5829  0.4402 -3.2284
 1021MOL0     H40850   7.620   2.291  12.111 -1.8267 -1.7999 -0.0538
 1021MOL0     H40851   7.659   2.135  12.162  0.5132  0.6569 -0.6687
 1021MOL0     H40852   7.851   2.358  12.139  0.4639 -0.2399 -0.2543
 1021MOL0     H40853   7.807   2.261  12.283  0.6217  2.1859 -0.6305
 1021MOL0     H40854   7.918   2.062  12.163 -0.7963  0.3071  0.6623
 1021MOL0     H40855   7.994   2.185  12.061 -0.0333  0.2899 -0.0144
 1021MOL0     H40856   8.159   2.051  12.045  2.2718 -0.4723 -1.5649
 1021MOL0     H40857   8.306   2.000  11.897 -0.7375 -1.7546 -0.5232
 1021MOL0     H40858   8.395   1.893  11.995 -3.0756 -0.5259 -0.1454
 1021MOL0     H40859   8.481   2.036  11.928 -0.4969  0.7223  1.2743
 1021MOL0     H40860   8.760   1.951  12.344  0.0764 -0.0749  0.7054
 1021MOL0     H40861   8.995   1.910  12.411 -3.4038 -1.2432 -0.2219
 1021MOL0     H40862   9.210   1.933  12.503  0.5241  0.9892  0.0158
 1021MOL0     H40863   9.249   1.852  12.350  0.5195  1.3250 -2.6621
 1021MOL0     H40864   9.466   1.968  12.320  2.0354  0.0664  1.1708
 1021MOL0     H40865   9.441   2.061  12.462 -0.6886  0.8107 -0.0987
 1021MOL0     H40866   9.435   1.747  12.450  2.3813 -0.0881 -2.9998
 1021MOL0     H40867   9.428   1.836  12.596  2.5411 -1.9663  1.0866
 1021MOL0     H40868   9.650   1.913  12.557 -2.0401 -0.7970  0.8250
 1021MOL0     H40869   9.642   1.850  12.385 -0.0861 -0.2430 -0.1009
 1021MOL0     H40870   9.657   1.671  12.637  0.5808 -1.6150  0.3362
 1021MOL0     H40871   9.633   1.627  12.466  0.1576 -0.2001 -0.5684
 1021MOL0     H40872   9.878   1.765  12.596  1.4976 -1.6596  0.0657
 1021MOL0     H40873   9.853   1.743  12.417 -1.3666  1.4493 -0.5525
 1021MOL0     H40874   9.830   1.497  12.472  1.0335  0.1260 -0.7435
 1021MOL0     H40875   9.851   1.545  12.646 -1.1370 -1.5327 -0.2733
 1021MOL0     H40876  10.060   1.553  12.420  1.6547  0.9248 -0.1803
 1021MOL0     H40877  10.058   1.439  12.551  2.1174  0.9820 -3.0874
 1021MOL0     H40878   9.115   2.275  12.210  0.4800 -0.2491 -1.0912
 1021MOL0     H40879   8.892   2.335  12.195  2.2802  0.1698 -1.9818
 1021MOL0     H40880   8.479   2.250  12.362  3.1311 -1.7283 -1.7867
 1021MOL0     H40881   8.238   2.270  12.420 -1.8834  0.1510 -0.5574
 1021MOL0     H40882   6.505   1.960  11.676  0.1702 -0.9283  0.7599
 1021MOL0     H40883   6.370   1.978  11.462  0.6206  0.8432  0.4490
 1021MOL0     H40884   6.519   1.916  10.854 -0.3714 -0.4344 -1.6204
 1021MOL0     H40885   6.391   1.900  10.671 -0.5075 -0.5401 -1.4775
 1021MOL0     H40886   6.204   2.073  10.566 -1.9685  0.7622  0.4643
 1021MOL0     H40887   6.193   1.916  10.466 -0.7402 -0.2900 -0.6637
 1021MOL0     H40888   5.958   1.949  10.439  0.0778 -0.0466 -0.1276
 1021MOL0     H40889   6.044   2.068  10.353  1.5128  0.2455 -0.5905
 1021MOL0     H40890   5.873   2.091  10.600 -0.4813 -1.4570 -1.0321
 1021MOL0     H40891   5.989   2.228  10.573  0.0430  1.2390 -2.3100
 1021MOL0     H40892   5.754   2.275  10.480  0.8654  0.3111  1.3802
 1021MOL0     H40893   5.799   2.171  10.352  0.0188  1.5540 -1.8774
 1021MOL0     H40894   6.066   2.464  10.243  0.3966 -1.3169 -0.0084
 1021MOL0     H40895   6.027   1.956  10.900  0.5399  0.6463 -0.7418
 1021MOL0     H40896   6.186   2.007  11.218 -2.9890  0.3825  0.8610
 1021MOL0     H40897   6.036   1.960  11.130  0.0862  0.4291 -0.3885
 1021MOL0     H40898   6.136   1.831  11.183 -0.6409 -1.1729 -0.4325
 1022MOL0     O40899   4.696   4.553   6.036  0.3488 -0.1558  0.1484
 1022MOL0     C40900   4.690   4.612   6.143  0.0408 -1.1006 -0.0020
 1022MOL0     O40901   4.791   4.630   6.242  0.3205  0.2220 -0.5396
 1022MOL0     C40902   4.920   4.592   6.204  0.4058 -0.4873  0.2763
 1022MOL0     C40903   4.983   4.643   6.089 -0.4795 -0.3471  0.3694
 1022MOL0     C40904   5.118   4.613   6.061  0.5701 -0.3381  0.0371
 1022MOL0     C40905   5.194   4.521   6.144  1.7542  0.6084  0.2031
 1022MOL0     O40906   5.318   4.488   6.115  0.0451 -0.0500 -0.0736
 1022MOL0     C40907   5.406   4.436   6.215 -0.3395  0.2798 -0.6494
 1022MOL0     C40908   5.545   4.412   6.163 -1.4770 -0.0258 -0.6076
 1022MOL0     C40909   5.635   4.367   6.274 -0.4319 -0.4924  0.0288
 1022MOL0     C40910   5.785   4.338   6.215 -0.3747 -0.0966  0.4804
 1022MOL0     C40911   5.864   4.296   6.341 -0.7346 -0.2757  0.2031
 1022MOL0     C40912   6.008   4.254   6.313 -0.3281  0.5306  0.1034
 1022MOL0     C40913   6.096   4.220   6.435 -1.0352 -0.2657 -0.6748
 1022MOL0     C40914   6.151   4.351   6.497 -0.4598  0.0590 -0.4933
 1022MOL0     N40915   6.265   4.327   6.588 -0.6628 -0.3548  0.5620
 1022MOL0     C40916   6.285   4.406   6.699  0.9065  0.3607  0.2679
 1022MOL0     C40917   6.414   4.376   6.731 -0.0268 -1.2566  0.5696
 1022MOL0     C40918   6.494   4.435   6.842 -0.8947 -0.8983  0.1014
 1022MOL0     C40919   6.501   4.586   6.847 -0.7070  0.3879  0.4702
 1022MOL0     C40920   6.579   4.629   6.970  0.1612 -0.0512  0.0857
 1022MOL0     C40921   6.717   4.564   6.997 -0.2972  0.8189  0.0611
 1022MOL0     O40922   6.806   4.554   6.884  0.4625 -0.2898 -0.3276
 1022MOL0     C40923   6.939   4.549   6.906 -0.0245  0.1323 -0.0455
 1022MOL0     C40924   7.007   4.513   7.025  0.3377 -0.0175  0.6589
 1022MOL0     C40925   7.149   4.520   7.033  0.0192 -0.2322  0.2206
 1022MOL0     C40926   7.204   4.509   7.169  0.1690 -0.5065 -0.3489
 1022MOL0     C40927   7.232   4.559   6.923  0.1620  0.8546  0.3453
 1022MOL0     C40928   7.384   4.549   6.915  0.4227  0.4069 -0.0316
 1022MOL0     O40929   7.436   4.620   6.813 -0.8337 -0.4207  0.3420
 1022MOL0     C40930   7.572   4.629   6.789  0.4330  0.1174  0.4347
 1022MOL0     C40931   7.653   4.714   6.871  1.0673 -0.0290  0.0364
 1022MOL0     C40932   7.791   4.720   6.857 -0.7673 -0.2503 -0.1397
 1022MOL0     C40933   7.856   4.630   6.762 -0.7005 -0.3922  0.3161
 1022MOL0     O40934   7.996   4.622   6.758 -0.2373 -0.2957  0.3787
 1022MOL0     C40935   8.063   4.522   6.685  0.5054  0.8081  0.4096
 1022MOL0     C40936   8.207   4.548   6.712 -0.1727  0.4162 -0.4476
 1022MOL0     C40937   8.269   4.675   6.642 -0.3258  0.5455  0.5229
 1022MOL0     C40938   8.407   4.719   6.714  0.7395  0.0994 -0.2117
 1022MOL0     C40939   8.478   4.820   6.631  0.0566  0.3147 -0.0733
 1022MOL0     C40940   8.583   4.889   6.715 -0.2403  0.5076  0.3460
 1022MOL0     C40941   8.690   4.806   6.779  0.2224  0.0181 -0.4620
 1022MOL0     C40942   8.785   4.743   6.675 -0.0196 -0.6827  0.6381
 1022MOL0    Cl40943   8.881   4.876   6.597  0.0293 -0.4840 -0.0233
 1022MOL0     C40944   7.775   4.548   6.680 -0.4433 -0.6057  0.0057
 1022MOL0     C40945   7.633   4.559   6.684  0.2253  0.1239  0.3985
 1022MOL0     O40946   7.444   4.474   6.989 -0.1120  0.2781 -0.2362
 1022MOL0     C40947   7.164   4.589   6.809  0.3370  0.8634 -0.2018
 1022MOL0     C40948   7.025   4.585   6.802  0.7802  0.3331 -0.3236
 1022MOL0     N40949   6.475   4.293   6.634  0.8555  0.2480 -0.5605
 1022MOL0     N40950   6.384   4.259   6.555  0.1237  0.6070 -0.0801
 1022MOL0     C40951   5.126   4.462   6.249  0.4491  0.1621 -0.1696
 1022MOL0     C40952   4.997   4.503   6.280  0.9647  0.0812  0.4793
 1022MOL0     C40953   4.554   4.632   6.203 -0.1909 -0.2765 -0.4838
 1022MOL0     C40954   4.542   4.630   6.346  0.2368 -0.7843  0.1896
 1022MOL0     C40955   4.413   4.646   6.407 -0.6736  0.5267  0.3575
 1022MOL0     C40956   4.302   4.655   6.332 -0.3254 -0.0885  0.2654
 1022MOL0     O40957   4.172   4.657   6.381  0.5567  0.1047 -0.9135
 1022MOL0     C40958   4.145   4.640   6.521  0.5383  0.5182 -0.8186
 1022MOL0     C40959   3.999   4.631   6.544  0.2718  0.1613  0.3354
 1022MOL0     C40960   3.913   4.753   6.503 -0.9626  0.6244 -0.0695
 1022MOL0     C40961   3.773   4.758   6.566 -0.7887  0.2099 -0.3771
 1022MOL0     C40962   3.697   4.885   6.550  0.0769  0.9114 -0.2762
 1022MOL0     C40963   3.640   4.989   6.529 -0.3756 -0.2906 -0.2344
 1022MOL0     C40964   4.307   4.660   6.184 -0.3514 -0.5536 -0.2820
 1022MOL0     C40965   4.436   4.652   6.119  0.1617  0.0419 -0.0103
 1022MOL0     C40966   4.436   4.664   5.968  0.5759  0.8214  0.0593
 1022MOL0     H40967   4.929   4.714   6.026  0.3836  1.3752  1.4798
 1022MOL0     H40968   5.164   4.654   5.972  3.4311  0.6732  1.8489
 1022MOL0     H40969   5.370   4.338   6.247  2.6234 -1.3740 -1.9764
 1022MOL0     H40970   5.423   4.502   6.301  2.9402  1.0679 -1.7645
 1022MOL0     H40971   5.525   4.331   6.092 -0.6468 -0.7238 -0.0533
 1022MOL0     H40972   5.588   4.502   6.116 -1.3148 -1.3275 -3.1577
 1022MOL0     H40973   5.645   4.440   6.355  3.0078 -0.7392 -0.0445
 1022MOL0     H40974   5.599   4.273   6.316 -0.0888  0.1284  1.7815
 1022MOL0     H40975   5.798   4.260   6.139 -0.2805  1.5024 -1.2096
 1022MOL0     H40976   5.828   4.427   6.169 -1.6074  0.1700 -0.1997
 1022MOL0     H40977   5.819   4.207   6.386  0.4322 -0.4033  1.1498
 1022MOL0     H40978   5.876   4.377   6.413  1.0625  0.0444 -0.4250
 1022MOL0     H40979   6.004   4.161   6.254  1.4590  1.2727 -1.2660
 1022MOL0     H40980   6.064   4.324   6.251  0.6795 -2.1863 -2.3131
 1022MOL0     H40981   6.185   4.159   6.418 -0.1105  0.6362  0.7974
 1022MOL0     H40982   6.046   4.161   6.512  3.8735 -1.2337  2.1602
 1022MOL0     H40983   6.179   4.421   6.418  3.2945 -1.8263 -1.0445
 1022MOL0     H40984   6.084   4.408   6.563  1.5082  1.1014  0.6804
 1022MOL0     H40985   6.201   4.463   6.739  0.2892  0.0232 -0.5112
 1022MOL0     H40986   6.594   4.390   6.849  0.2370  1.4603  0.0373
 1022MOL0     H40987   6.445   4.409   6.936  0.6452  0.1838  1.2478
 1022MOL0     H40988   6.543   4.623   6.753  1.3133  0.2356  1.2593
 1022MOL0     H40989   6.399   4.624   6.850  0.1013  2.6989  0.2615
 1022MOL0     H40990   6.598   4.736   6.954  0.0781  0.0553  0.7011
 1022MOL0     H40991   6.515   4.612   7.057  0.1992 -1.9145 -0.2010
 1022MOL0     H40992   6.764   4.618   7.080 -1.1783  0.1631  1.0101
 1022MOL0     H40993   6.699   4.461   7.030  0.4855  0.7516  0.2972
 1022MOL0     H40994   6.960   4.477   7.115  0.1507  1.3337  1.1221
 1022MOL0     H40995   7.124   4.514   7.243  0.7309  1.3069  0.1898
 1022MOL0     H40996   7.254   4.603   7.193 -1.7885  0.3609  0.6366
 1022MOL0     H40997   7.266   4.421   7.184 -1.1176 -1.2657  0.7301
 1022MOL0     H40998   7.604   4.770   6.951 -2.6250  0.5941 -2.4173
 1022MOL0     H40999   7.855   4.782   6.920 -0.3012 -0.4433 -0.4148
 1022MOL0     H41000   8.029   4.425   6.721 -3.6542  1.8486 -0.1201
 1022MOL0     H41001   8.045   4.527   6.577  1.6166  3.4763  0.2662
 1022MOL0     H41002   8.226   4.550   6.819 -0.6153  0.2709 -0.3616
 1022MOL0     H41003   8.258   4.454   6.690  2.1961  1.0060  2.0370
 1022MOL0     H41004   8.193   4.753   6.652 -0.9901  0.0566 -0.5833
 1022MOL0     H41005   8.281   4.672   6.533  2.3400  0.1912  0.7565
 1022MOL0     H41006   8.467   4.628   6.721 -0.2248 -0.6063 -0.8198
 1022MOL0     H41007   8.376   4.762   6.810 -1.1040 -0.0615 -0.7009
 1022MOL0     H41008   8.512   4.765   6.543 -2.0609 -0.5175 -0.4181
 1022MOL0     H41009   8.407   4.899   6.606  2.7175  2.6369 -0.7865
 1022MOL0     H41010   8.543   4.951   6.796 -0.3986  0.8866 -0.0189
 1022MOL0     H41011   8.640   4.958   6.652 -0.9575 -0.3468 -1.3236
 1022MOL0     H41012   8.644   4.729   6.841 -1.6656  1.0291 -0.5548
 1022MOL0     H41013   8.760   4.872   6.833 -1.8857  0.8478  1.4418
 1022MOL0     H41014   8.723   4.691   6.602 -3.3819  2.8593  0.6078
 1022MOL0     H41015   8.849   4.680   6.738  0.2458 -1.6978 -0.6260
 1022MOL0     H41016   7.823   4.478   6.613  1.2048  2.0502 -1.8056
 1022MOL0     H41017   7.564   4.499   6.625 -0.0575 -0.7459  1.5717
 1022MOL0     H41018   7.220   4.619   6.721 -0.5927  1.1711 -0.7119
 1022MOL0     H41019   6.988   4.618   6.705  1.4023 -0.7603 -0.9693
 1022MOL0     H41020   5.180   4.396   6.315  0.4173 -3.6527 -3.5667
 1022MOL0     H41021   4.956   4.458   6.370 -1.2731  0.0075 -0.5146
 1022MOL0     H41022   4.625   4.629   6.416 -1.3599  1.0971  2.2730
 1022MOL0     H41023   4.414   4.616   6.511  1.3225 -4.2991 -0.7936
 1022MOL0     H41024   4.186   4.542   6.550  1.3925  1.4818  1.5143
 1022MOL0     H41025   4.184   4.716   6.590  0.7200  0.4115 -0.8036
 1022MOL0     H41026   3.983   4.608   6.649 -0.0306 -0.4418  0.1609
 1022MOL0     H41027   3.964   4.543   6.489  2.6538 -0.7257  0.1128
 1022MOL0     H41028   3.964   4.844   6.535 -1.8941  0.1836  3.0316
 1022MOL0     H41029   3.897   4.752   6.395  0.3311  0.0244 -0.2896
 1022MOL0     H41030   3.795   4.749   6.673 -1.2399  0.8698 -0.2242
 1022MOL0     H41031   3.720   4.672   6.523 -2.3765  0.3416  1.2172
 1022MOL0     H41032   3.574   5.073   6.530  1.2080  0.9933  0.7069
 1022MOL0     H41033   4.214   4.678   6.131 -0.9340 -3.6706 -0.5225
 1022MOL0     H41034   4.436   4.566   5.919  0.5961  0.3391  0.9909
 1022MOL0     H41035   4.352   4.718   5.924  1.1902  0.4306 -1.6803
 1022MOL0     H41036   4.529   4.709   5.933  1.3227  0.3513  1.3846
 1023MOL0     O41037   9.207   5.153   7.997 -0.4495  0.6022  0.5069
 1023MOL0     C41038   9.179   5.073   7.906  0.2128  0.2820 -0.2085
 1023MOL0     O41039   9.271   4.985   7.846 -0.6175 -0.3709  0.8034
 1023MOL0     C41040   9.405   5.007   7.860 -0.9190  0.5090  1.8377
 1023MOL0     C41041   9.468   4.937   7.967  0.5992  0.6485  0.0800
 1023MOL0     C41042   9.605   4.949   7.993  0.4822 -0.3382  0.4653
 1023MOL0     C41043   9.688   5.034   7.902 -0.0832  0.2168  0.1806
 1023MOL0     O41044   9.825   5.061   7.907 -0.5432  0.0960 -0.1466
 1023MOL0     C41045   9.904   4.962   7.974 -0.2210  0.1414 -0.6286
 1023MOL0     C41046  10.045   4.984   7.934 -0.4305  0.7723 -0.1451
 1023MOL0     C41047  10.138   4.943   8.049  0.5881  0.6453 -0.7706
 1023MOL0     C41048  10.283   4.998   8.031 -1.0785  0.2563 -0.6019
 1023MOL0     C41049  10.369   4.954   8.154 -0.7864  0.1774  0.2895
 1023MOL0     C41050  10.430   4.820   8.135 -0.0943  0.8228 -0.2019
 1023MOL0     C41051  10.543   4.790   8.241 -0.5877  0.3037 -0.6302
 1023MOL0     C41052  10.497   4.797   8.394 -0.3201  0.4815  0.2103
 1023MOL0     N41053  10.612   4.776   8.473  0.3088  0.1991 -0.0833
 1023MOL0     C41054  10.673   4.883   8.539  0.2162  0.0309  0.8403
 1023MOL0     C41055  10.784   4.828   8.594  0.2236  0.4503  0.1491
 1023MOL0     C41056  10.880   4.913   8.662 -0.6393  0.3160  0.3182
 1023MOL0     C41057  11.017   4.923   8.582  0.3131 -0.1440 -0.1530
 1023MOL0     C41058  11.107   5.023   8.650  0.2232  0.3790  0.5855
 1023MOL0     C41059  11.245   5.042   8.575  0.7975  0.1819  0.0845
 1023MOL0     O41060  11.319   5.131   8.659 -0.0623  0.2429  0.1916
 1023MOL0     C41061  11.433   5.192   8.608 -0.3362  0.2866  0.7863
 1023MOL0     C41062  11.485   5.306   8.659  0.9057 -0.6163 -0.3420
 1023MOL0     C41063  11.605   5.374   8.623 -0.5178 -1.1604  0.0365
 1023MOL0     C41064  11.643   5.491   8.703  0.3236 -0.6278 -0.1901
 1023MOL0     C41065  11.667   5.324   8.501 -0.1510 -0.2951 -0.1249
 1023MOL0     C41066  11.784   5.398   8.444 -0.4782 -0.5468 -0.0855
 1023MOL0     O41067  11.832   5.345   8.327 -0.4686 -0.5665 -0.1936
 1023MOL0     C41068  11.961   5.384   8.278  0.4926 -0.1650 -1.3280
 1023MOL0     C41069  11.977   5.406   8.141 -0.0429 -0.0564 -0.1895
 1023MOL0     C41070  12.113   5.431   8.094 -0.0472  0.4459 -0.2360
 1023MOL0     C41071  12.228   5.431   8.178 -0.0119  0.6676  0.1805
 1023MOL0     O41072  12.352   5.468   8.143 -1.3012 -0.5625  0.3793
 1023MOL0     C41073  12.397   5.428   8.014 -0.2774 -0.2662  0.5267
 1023MOL0     C41074  12.543   5.479   7.996 -0.5070  0.1377  0.2525
 1023MOL0     C41075  12.557   5.626   7.995  0.2119 -0.3039  0.5607
 1023MOL0     C41076  12.702   5.657   8.004 -0.3419  0.3656 -1.2217
 1023MOL0     C41077  12.707   5.817   8.003  0.3324 -0.0259 -0.4408
 1023MOL0     C41078  12.853   5.863   8.034  0.1225  0.0581  0.3059
 1023MOL0     C41079  12.850   6.005   8.005  0.0338 -0.4428  0.2322
 1023MOL0     C41080  12.963   6.090   8.053  0.5318  0.7525 -0.0603
 1023MOL0    Cl41081  13.108   6.021   7.967 -0.5949 -0.1196 -0.3285
 1023MOL0     C41082  12.200   5.411   8.307 -0.3836  0.0704  0.4104
 1023MOL0     C41083  12.077   5.379   8.361 -0.0548  0.4546  0.4181
 1023MOL0     O41084  11.837   5.496   8.497  0.0749  0.5578  0.1468
 1023MOL0     C41085  11.606   5.212   8.442  0.2415 -0.2439  0.3428
 1023MOL0     C41086  11.492   5.147   8.488  0.2187  0.3031  0.5063
 1023MOL0     N41087  10.793   4.700   8.559 -0.5400 -0.2403  0.5430
 1023MOL0     N41088  10.691   4.659   8.490 -0.2570 -0.2021  0.3375
 1023MOL0     C41089   9.620   5.097   7.797 -0.7754 -0.6798 -0.6197
 1023MOL0     C41090   9.481   5.096   7.777  0.3825  0.5409  0.7307
 1023MOL0     C41091   9.035   5.048   7.880 -0.2508  0.2425 -0.3240
 1023MOL0     C41092   8.991   4.925   7.819  0.4016 -0.2118 -0.4622
 1023MOL0     C41093   8.857   4.904   7.795  0.5300 -0.0669  1.0549
 1023MOL0     C41094   8.755   5.000   7.822 -0.3760  0.3171 -0.1247
 1023MOL0     O41095   8.627   4.979   7.785  0.0510  0.1353 -0.6092
 1023MOL0     C41096   8.516   5.046   7.852  0.0884  0.7464 -0.6847
 1023MOL0     C41097   8.513   5.007   8.003  0.4248  0.3419 -0.2964
 1023MOL0     C41098   8.399   5.073   8.078 -0.5454  0.2382  0.2491
 1023MOL0     C41099   8.395   5.023   8.218 -0.1954  0.0852 -0.0487
 1023MOL0     C41100   8.315   4.896   8.222  0.2475 -0.4408  0.5809
 1023MOL0     C41101   8.238   4.804   8.231  0.1224 -0.1052  1.0076
 1023MOL0     C41102   8.800   5.121   7.874 -0.8976  0.5149 -0.5416
 1023MOL0     C41103   8.933   5.140   7.910  0.1424 -0.0254 -0.0744
 1023MOL0     C41104   8.963   5.267   7.978 -0.1938 -0.3630 -0.3125
 1023MOL0     H41105   9.398   4.885   8.032  0.7155  1.5714  0.9833
 1023MOL0     H41106   9.654   4.904   8.079  3.4408  0.6414 -0.5707
 1023MOL0     H41107   9.874   4.861   7.945 -2.1235 -0.2177  2.2009
 1023MOL0     H41108   9.895   4.957   8.083  0.8844 -0.7630 -0.5483
 1023MOL0     H41109  10.073   4.927   7.845 -2.9753 -0.0377 -0.4985
 1023MOL0     H41110  10.074   5.089   7.926  2.7840  0.2660  2.6242
 1023MOL0     H41111  10.109   4.983   8.146  0.6187  1.3369 -1.0432
 1023MOL0     H41112  10.133   4.834   8.058 -2.8033  0.6195 -1.7134
 1023MOL0     H41113  10.330   4.966   7.938 -0.4008 -1.2349  0.2250
 1023MOL0     H41114  10.284   5.108   8.037  3.4590  0.3376  1.6896
 1023MOL0     H41115  10.315   4.967   8.249 -1.9793 -0.4259 -0.2748
 1023MOL0     H41116  10.460   5.014   8.155 -0.8745  0.3702 -1.1492
 1023MOL0     H41117  10.347   4.749   8.132 -1.2325  2.1408 -0.2818
 1023MOL0     H41118  10.482   4.814   8.038  2.2773 -1.0508  1.0507
 1023MOL0     H41119  10.626   4.857   8.222  0.0847 -0.9366 -2.4162
 1023MOL0     H41120  10.583   4.692   8.211  1.3036  0.9285 -0.2531
 1023MOL0     H41121  10.457   4.897   8.414  0.5336  0.6118  1.3030
 1023MOL0     H41122  10.422   4.718   8.408 -1.1110  1.3184  0.7767
 1023MOL0     H41123  10.638   4.985   8.554 -1.1196 -0.4026  0.8091
 1023MOL0     H41124  10.887   4.876   8.765 -3.1426 -0.9553  0.1185
 1023MOL0     H41125  10.837   5.013   8.670  4.2011  2.6713  0.1880
 1023MOL0     H41126  11.066   4.825   8.587  2.1773  0.7084 -0.8690
 1023MOL0     H41127  11.004   4.954   8.478  1.6420 -0.0117 -0.3002
 1023MOL0     H41128  11.064   5.124   8.657  0.3757  0.5288 -0.4969
 1023MOL0     H41129  11.124   4.984   8.750  0.5838 -0.3131  0.2597
 1023MOL0     H41130  11.297   4.947   8.560 -0.3925 -0.7123  1.3985
 1023MOL0     H41131  11.226   5.083   8.475  0.3867 -0.8726 -0.2832
 1023MOL0     H41132  11.428   5.331   8.748 -3.1327 -2.9165 -1.9944
 1023MOL0     H41133  11.630   5.584   8.646 -0.5123  0.2137  1.3158
 1023MOL0     H41134  11.748   5.480   8.731  1.0054 -1.8109 -2.9416
 1023MOL0     H41135  11.581   5.496   8.793  0.5122  2.3699 -0.1271
 1023MOL0     H41136  11.888   5.397   8.079 -0.3104  1.3604 -0.0430
 1023MOL0     H41137  12.129   5.445   7.988  4.0277 -4.7553 -0.6678
 1023MOL0     H41138  12.386   5.321   7.990 -2.0970  0.4258 -2.1164
 1023MOL0     H41139  12.338   5.489   7.944  1.1034  0.6982  0.1757
 1023MOL0     H41140  12.607   5.433   8.072  0.2742 -0.7929 -0.9206
 1023MOL0     H41141  12.574   5.435   7.901  0.8172 -1.0130  1.1635
 1023MOL0     H41142  12.507   5.671   8.082 -2.4785 -2.3507  0.2067
 1023MOL0     H41143  12.518   5.672   7.904 -0.8450 -1.2105  0.5235
 1023MOL0     H41144  12.754   5.623   7.914  0.8149 -0.2054 -0.3637
 1023MOL0     H41145  12.741   5.624   8.101 -0.2947  1.8637 -0.6951
 1023MOL0     H41146  12.665   5.843   7.905  0.3410 -0.2759 -0.5131
 1023MOL0     H41147  12.648   5.857   8.086 -0.4521 -1.2882 -0.3572
 1023MOL0     H41148  12.924   5.819   7.963  0.0300  1.9231 -1.0092
 1023MOL0     H41149  12.877   5.844   8.139  0.0785 -1.3725  0.0794
 1023MOL0     H41150  12.762   6.055   8.046  0.9178 -0.7555  2.6967
 1023MOL0     H41151  12.840   6.005   7.896 -0.3457 -1.0021  0.2658
 1023MOL0     H41152  12.961   6.084   8.163  0.4331  3.8879  0.2039
 1023MOL0     H41153  12.947   6.196   8.033 -0.7412  0.5071 -0.3968
 1023MOL0     H41154  12.290   5.403   8.367  1.7276  0.5603 -2.4918
 1023MOL0     H41155  12.067   5.371   8.469  2.6134  4.3314  1.1726
 1023MOL0     H41156  11.653   5.167   8.355 -0.6381  0.6621 -0.6321
 1023MOL0     H41157  11.449   5.062   8.437 -2.3459  1.9025 -0.1847
 1023MOL0     H41158   9.675   5.157   7.726  0.2255  1.1163  1.5601
 1023MOL0     H41159   9.427   5.136   7.692 -0.7560 -2.5244 -0.1030
 1023MOL0     H41160   9.063   4.849   7.791 -0.7456 -2.4560  2.2425
 1023MOL0     H41161   8.824   4.811   7.749  1.6546  0.2471 -0.4276
 1023MOL0     H41162   8.521   5.155   7.845 -2.2024  0.9561  0.1298
 1023MOL0     H41163   8.420   5.017   7.808 -1.5543 -1.0589  3.5556
 1023MOL0     H41164   8.604   5.046   8.050 -0.6180  2.1167  0.3605
 1023MOL0     H41165   8.507   4.899   8.014  1.8018  0.1855 -0.9362
 1023MOL0     H41166   8.426   5.178   8.091  3.5839 -0.5556 -0.3911
 1023MOL0     H41167   8.307   5.062   8.022 -0.3114 -1.9424  0.1820
 1023MOL0     H41168   8.336   5.094   8.278  2.6162  0.5768  2.3486
 1023MOL0     H41169   8.493   5.018   8.266  0.0189  1.6338 -0.2601
 1023MOL0     H41170   8.173   4.721   8.251 -0.3142 -0.3635 -1.2584
 1023MOL0     H41171   8.734   5.203   7.900 -0.5061  0.6008  0.2031
 1023MOL0     H41172   8.871   5.326   7.984 -2.2918 -3.3746 -0.0956
 1023MOL0     H41173   9.003   5.248   8.078  1.1805  2.1332 -0.3306
 1023MOL0     H41174   9.033   5.332   7.926 -1.0185 -0.5832 -1.7589
 1024MOL0     O41175   9.277   3.080  10.631  0.5437 -0.3168 -0.1278
 1024MOL0     C41176   9.327   3.005  10.545 -0.2688  0.1892 -0.8212
 1024MOL0     O41177   9.463   2.975  10.545  1.0711  0.5105  0.6639
 1024MOL0     C41178   9.550   3.027  10.637 -0.7879 -0.1405 -0.4427
 1024MOL0     C41179   9.659   3.091  10.590 -0.3684 -0.1060 -1.0754
 1024MOL0     C41180   9.746   3.156  10.676 -0.2309  0.2857  0.2977
 1024MOL0     C41181   9.728   3.149  10.813 -0.6831 -0.5944  0.5394
 1024MOL0     O41182   9.809   3.209  10.904 -0.0603  0.8659  0.7939
 1024MOL0     C41183   9.930   3.137  10.926  0.0455  0.2760  0.1912
 1024MOL0     C41184   9.934   3.015  11.017  0.0546 -0.8492 -0.8321
 1024MOL0     C41185  10.077   2.991  11.075  0.9878 -0.1930 -0.6803
 1024MOL0     C41186  10.189   2.954  10.980 -0.0627  0.7268  0.4037
 1024MOL0     C41187  10.323   2.951  11.051  1.2028  0.2050 -0.2699
 1024MOL0     C41188  10.424   2.885  10.954  0.1223  0.6189  0.2492
 1024MOL0     C41189  10.566   2.874  11.012  0.3489 -0.1371  0.0081
 1024MOL0     C41190  10.650   2.998  10.971 -0.5780  0.7637  0.0550
 1024MOL0     N41191  10.772   2.990  11.061  0.5401  0.1172  0.5147
 1024MOL0     C41192  10.842   3.103  11.097  0.7320 -0.0500 -0.0200
 1024MOL0     C41193  10.962   3.058  11.143  0.1269 -0.0382 -0.9287
 1024MOL0     C41194  11.068   3.147  11.202 -0.3589  0.5985 -0.3194
 1024MOL0     C41195  11.184   3.177  11.100 -0.0205 -0.1754  0.7722
 1024MOL0     C41196  11.300   3.071  11.106 -0.1999  0.1549 -0.3627
 1024MOL0     C41197  11.397   3.071  10.980 -0.0185  0.3522  0.2416
 1024MOL0     O41198  11.449   3.201  10.935  0.3532 -0.5074 -0.0993
 1024MOL0     C41199  11.584   3.215  10.946 -0.3747 -0.2895 -0.8479
 1024MOL0     C41200  11.641   3.202  11.074 -0.3968 -0.0030 -0.1606
 1024MOL0     C41201  11.782   3.227  11.088 -0.4372 -0.3875 -0.2073
 1024MOL0     C41202  11.838   3.201  11.228  0.1266 -0.3419  0.4204
 1024MOL0     C41203  11.866   3.270  10.975 -0.5223 -0.4554  0.8631
 1024MOL0     C41204  12.020   3.287  10.994  0.2409  0.6304 -0.5578
 1024MOL0     O41205  12.087   3.399  10.947 -0.4730 -0.6309  0.2350
 1024MOL0     C41206  12.222   3.408  10.954  0.0046  0.0850  0.4764
 1024MOL0     C41207  12.300   3.402  11.073  0.6521 -0.5187  0.1127
 1024MOL0     C41208  12.440   3.427  11.074 -0.4889 -0.0290  0.5199
 1024MOL0     C41209  12.508   3.448  10.950 -0.0915 -0.6184 -0.0136
 1024MOL0     O41210  12.637   3.476  10.932 -0.2701  0.5214 -0.1484
 1024MOL0     C41211  12.728   3.421  11.023 -0.3820  0.0197 -0.2411
 1024MOL0     C41212  12.878   3.445  10.985 -0.5669 -0.1835 -0.7432
 1024MOL0     C41213  12.931   3.593  11.001 -0.7858 -0.1246  0.5337
 1024MOL0     C41214  13.075   3.615  10.940 -0.0037 -0.0020  0.5534
 1024MOL0     C41215  13.136   3.744  11.001 -0.2082  0.0066 -0.8679
 1024MOL0     C41216  13.261   3.781  10.919 -0.2234 -0.0197  0.2576
 1024MOL0     C41217  13.381   3.692  10.952 -0.0043 -0.1703 -0.4480
 1024MOL0     C41218  13.483   3.697  10.844 -0.4880  0.1602 -0.0539
 1024MOL0    Cl41219  13.586   3.561  10.868 -0.0373  0.0627  0.1744
 1024MOL0     C41220  12.432   3.448  10.833 -0.3270 -0.6695 -0.4739
 1024MOL0     C41221  12.294   3.437  10.840  0.2549 -0.0496 -0.7438
 1024MOL0     O41222  12.071   3.182  11.035  0.0177 -0.1122  0.4354
 1024MOL0     C41223  11.799   3.298  10.863 -0.1863 -0.2087  0.6357
 1024MOL0     C41224  11.662   3.270  10.847 -0.8322 -0.0510  1.3488
 1024MOL0     N41225  10.963   2.922  11.130 -0.1484 -0.1023 -0.4042
 1024MOL0     N41226  10.849   2.883  11.080  0.3588  0.1206 -0.3552
 1024MOL0     C41227   9.620   3.079  10.863  0.1493 -0.3484  0.8240
 1024MOL0     C41228   9.529   3.018  10.771 -0.0512  0.5377 -0.0502
 1024MOL0     C41229   9.236   2.951  10.445 -0.4140 -0.1373  0.0655
 1024MOL0     C41230   9.102   2.978  10.445  0.2948 -0.2877  0.8472
 1024MOL0     C41231   9.015   2.937  10.345 -0.1348 -0.2795 -0.4093
 1024MOL0     C41232   9.058   2.861  10.238 -0.0717  0.9730  0.4165
 1024MOL0     O41233   8.968   2.815  10.144  0.6142 -0.1886  0.2038
 1024MOL0     C41234   8.950   2.669  10.151  1.2636  0.1478  0.6893
 1024MOL0     C41235   8.850   2.633  10.258 -0.6089 -0.2098 -0.8705
 1024MOL0     C41236   8.824   2.487  10.237  0.2247 -0.7336 -0.0549
 1024MOL0     C41237   8.703   2.437  10.320  0.2043 -0.3100  0.1761
 1024MOL0     C41238   8.661   2.308  10.257  0.1181 -0.5181  0.6315
 1024MOL0     C41239   8.635   2.207  10.206  0.2854 -0.3867  0.7625
 1024MOL0     C41240   9.191   2.839  10.230 -1.2871 -0.0171 -0.3749
 1024MOL0     C41241   9.283   2.891  10.327 -0.4567 -0.6352  0.2211
 1024MOL0     C41242   9.427   2.887  10.290 -1.2511 -0.3000  0.1865
 1024MOL0     H41243   9.679   3.101  10.484  0.8261  1.1978 -0.7697
 1024MOL0     H41244   9.832   3.208  10.637 -0.9433 -0.0099 -1.7645
 1024MOL0     H41245  10.003   3.211  10.959  2.3264 -1.8018  0.1031
 1024MOL0     H41246   9.967   3.090  10.834  0.7710 -1.7580  1.4498
 1024MOL0     H41247   9.878   3.027  11.111  2.1527  1.2934  0.2385
 1024MOL0     H41248   9.889   2.934  10.960 -2.7098 -1.0828  1.4033
 1024MOL0     H41249  10.118   3.075  11.132  3.2261 -1.3431 -0.4633
 1024MOL0     H41250  10.069   2.915  11.153 -0.1757  1.4378  0.8701
 1024MOL0     H41251  10.164   2.857  10.937 -1.6216  0.5032  1.7290
 1024MOL0     H41252  10.198   3.018  10.892  2.1026 -2.3615 -1.8333
 1024MOL0     H41253  10.318   2.903  11.149  1.8846 -4.0837 -2.1054
 1024MOL0     H41254  10.362   3.053  11.062  2.8619 -0.3371 -0.7889
 1024MOL0     H41255  10.391   2.783  10.932  0.8126  0.6958 -1.2495
 1024MOL0     H41256  10.430   2.929  10.854  0.2647 -1.2543 -0.6018
 1024MOL0     H41257  10.613   2.781  10.980  0.5350  0.5191 -1.7426
 1024MOL0     H41258  10.556   2.864  11.121  3.5910 -1.5655  0.2761
 1024MOL0     H41259  10.672   2.999  10.864  0.7917 -0.8726  0.2821
 1024MOL0     H41260  10.592   3.089  10.990 -2.9177 -0.9704  1.9541
 1024MOL0     H41261  10.808   3.206  11.102 -1.0987 -0.6737  2.5329
 1024MOL0     H41262  11.103   3.104  11.296  2.2608  0.7927 -1.1414
 1024MOL0     H41263  11.021   3.241  11.235 -0.5122 -0.0425  1.3739
 1024MOL0     H41264  11.142   3.176  10.999  1.4158 -0.0002  0.1528
 1024MOL0     H41265  11.224   3.275  11.128  0.6666 -0.7361  1.8286
 1024MOL0     H41266  11.358   3.081  11.199  0.0328 -1.6411 -0.2744
 1024MOL0     H41267  11.245   2.977  11.111  0.3740 -0.2262 -1.0582
 1024MOL0     H41268  11.476   3.001  11.009 -1.6106 -0.9648  1.5978
 1024MOL0     H41269  11.342   3.033  10.894  0.8150 -0.4177  0.0249
 1024MOL0     H41270  11.583   3.154  11.152  0.4699 -1.9215 -0.6378
 1024MOL0     H41271  11.938   3.244  11.239 -0.8329  1.8976  0.8803
 1024MOL0     H41272  11.846   3.094  11.251  0.4779 -0.0034  1.9518
 1024MOL0     H41273  11.775   3.250  11.303  1.3987  0.3615  1.0643
 1024MOL0     H41274  12.255   3.355  11.159  0.5990 -2.2916 -0.8487
 1024MOL0     H41275  12.500   3.417  11.164 -1.0510 -0.7879  0.8186
 1024MOL0     H41276  12.714   3.456  11.126 -0.7966  1.3017 -0.7206
 1024MOL0     H41277  12.723   3.312  11.021 -0.1237 -0.0281  0.7674
 1024MOL0     H41278  12.931   3.375  11.050 -1.4587 -1.6710 -1.5752
 1024MOL0     H41279  12.906   3.410  10.885  3.1165  0.4831 -0.0861
 1024MOL0     H41280  12.924   3.619  11.107 -0.8095  2.4887 -0.0514
 1024MOL0     H41281  12.856   3.661  10.962 -0.1651  0.4547  0.3241
 1024MOL0     H41282  13.066   3.621  10.831  0.0317 -1.0310  0.4850
 1024MOL0     H41283  13.144   3.533  10.960  1.8545  1.0258 -1.2989
 1024MOL0     H41284  13.064   3.826  11.005  0.7574  0.8356  0.7216
 1024MOL0     H41285  13.165   3.712  11.102  0.3850 -2.9147 -1.8606
 1024MOL0     H41286  13.283   3.886  10.941 -0.5347  0.1127 -0.0600
 1024MOL0     H41287  13.242   3.779  10.812  1.9451 -0.8614 -0.1704
 1024MOL0     H41288  13.346   3.589  10.968  0.6212 -0.0704  2.0217
 1024MOL0     H41289  13.425   3.728  11.045 -1.0864 -0.9067  0.3742
 1024MOL0     H41290  13.532   3.795  10.848 -2.4039  1.2346 -1.3212
 1024MOL0     H41291  13.442   3.701  10.742 -0.7546 -2.4432 -0.1095
 1024MOL0     H41292  12.482   3.463  10.738 -0.8756 -0.0532 -0.6681
 1024MOL0     H41293  12.229   3.426  10.754 -0.6963 -1.3978  0.1139
 1024MOL0     H41294  11.857   3.329  10.776  0.9427  0.3222  1.5513
 1024MOL0     H41295  11.624   3.275  10.746  0.9126 -1.9653  0.5343
 1024MOL0     H41296   9.614   3.076  10.971 -1.1065  0.5222  0.7969
 1024MOL0     H41297   9.444   2.958  10.803  0.4694 -0.6366 -0.7946
 1024MOL0     H41298   9.067   3.032  10.533 -0.2023 -1.6788  1.5287
 1024MOL0     H41299   8.909   2.960  10.352  0.5183  3.9151 -1.5700
 1024MOL0     H41300   8.911   2.639  10.053  0.1400  0.0970  1.1425
 1024MOL0     H41301   9.047   2.620  10.166  1.3452  0.0810  0.0074
 1024MOL0     H41302   8.763   2.697  10.247  1.0961  2.5712  0.6449
 1024MOL0     H41303   8.897   2.654  10.355  1.8439  4.1745 -2.7016
 1024MOL0     H41304   8.801   2.475  10.130 -0.5862  1.4588 -0.1814
 1024MOL0     H41305   8.912   2.427  10.263  2.6620  2.6106 -0.0166
 1024MOL0     H41306   8.620   2.508  10.318 -1.3900 -2.1032 -1.0729
 1024MOL0     H41307   8.728   2.398  10.418 -1.3545 -2.2417 -0.1291
 1024MOL0     H41308   8.620   2.109  10.163  2.3155  0.2300 -1.6193
 1024MOL0     H41309   9.234   2.789  10.143 -0.1252 -0.3643  0.3630
 1024MOL0     H41310   9.484   2.980  10.301  2.4066 -2.3186  0.1606
 1024MOL0     H41311   9.485   2.822  10.357 -0.4966  1.8099  1.6924
 1024MOL0     H41312   9.438   2.858  10.186 -0.3415  1.5259 -0.2812
  11.36550  11.36550  11.36550
